Title t= 295.00000 step= 147500
46055
    1GLY      N    1   3.149   3.540   0.875
    1GLY    HT1    2   3.218   3.468   0.903
    1GLY    HT2    3   3.171   3.565   0.777
    1GLY    HT3    4   3.054   3.498   0.868
    1GLY     CA    5   3.137   3.663   0.962
    1GLY    HA1    6   3.030   3.680   0.955
    1GLY    HA2    7   3.199   3.744   0.927
    1GLY      C    8   3.172   3.629   1.106
    1GLY      O    9   3.218   3.516   1.138
    2PRO      N   10   3.149   3.717   1.203
    2PRO     CD   11   3.094   3.852   1.168
    2PRO    HD1   12   2.988   3.859   1.135
    2PRO    HD2   13   3.146   3.906   1.086
    2PRO     CA   14   3.205   3.704   1.340
    2PRO     HA   15   3.310   3.731   1.332
    2PRO     CB   16   3.138   3.819   1.411
    2PRO    HB1   17   3.199   3.858   1.495
    2PRO    HB2   18   3.042   3.779   1.451
    2PRO     CG   19   3.108   3.932   1.301
    2PRO    HG1   20   3.018   3.990   1.331
    2PRO    HG2   21   3.191   4.002   1.275
    2PRO      C   22   3.196   3.578   1.423
    2PRO      O   23   3.088   3.528   1.437
    3GLY      N   24   3.309   3.534   1.475
    3GLY     HN   25   3.399   3.562   1.440
    3GLY     CA   26   3.303   3.430   1.572
    3GLY    HA1   27   3.400   3.405   1.611
    3GLY    HA2   28   3.253   3.343   1.532
    3GLY      C   29   3.228   3.473   1.693
    3GLY      O   30   3.201   3.593   1.707
    4ALA      N   31   3.207   3.389   1.795
    4ALA     HN   32   3.252   3.300   1.799
    4ALA     CA   33   3.132   3.414   1.916
    4ALA     HA   34   3.083   3.510   1.909
    4ALA     CB   35   3.016   3.311   1.933
    4ALA    HB1   36   3.055   3.208   1.946
    4ALA    HB2   37   2.944   3.320   1.848
    4ALA    HB3   38   2.950   3.336   2.019
    4ALA      C   39   3.220   3.410   2.040
    4ALA      O   40   3.321   3.331   2.049
    5PRO      N   41   3.198   3.490   2.144
    5PRO     CD   42   3.081   3.585   2.163
    5PRO    HD1   43   2.994   3.524   2.195
    5PRO    HD2   44   3.063   3.649   2.074
    5PRO     CA   45   3.279   3.504   2.270
    5PRO     HA   46   3.372   3.557   2.253
    5PRO     CB   47   3.193   3.577   2.368
    5PRO    HB1   48   3.253   3.626   2.448
    5PRO    HB2   49   3.114   3.513   2.414
    5PRO     CG   50   3.116   3.678   2.281
    5PRO    HG1   51   3.026   3.716   2.332
    5PRO    HG2   52   3.176   3.770   2.263
    5PRO      C   53   3.329   3.374   2.338
    5PRO      O   54   3.265   3.269   2.323
    6GLY      N   55   3.434   3.372   2.425
    6GLY     HN   56   3.474   3.455   2.464
    6GLY     CA   57   3.479   3.250   2.498
    6GLY    HA1   58   3.568   3.289   2.547
    6GLY    HA2   59   3.489   3.168   2.430
    6GLY      C   60   3.383   3.208   2.608
    6GLY      O   61   3.260   3.238   2.606
    7PRO      N   62   3.428   3.132   2.700
    7PRO     CD   63   3.565   3.078   2.702
    7PRO    HD1   64   3.646   3.153   2.718
    7PRO    HD2   65   3.593   3.028   2.607
    7PRO     CA   66   3.355   3.097   2.822
    7PRO     HA   67   3.292   3.020   2.779
    7PRO     CB   68   3.461   3.029   2.906
    7PRO    HB1   69   3.411   2.948   2.963
    7PRO    HB2   70   3.510   3.100   2.977
    7PRO     CG   71   3.572   2.977   2.816
    7PRO    HG1   72   3.672   2.977   2.863
    7PRO    HG2   73   3.544   2.873   2.787
    7PRO      C   74   3.275   3.202   2.902
    7PRO      O   75   3.293   3.321   2.906
    8GLY      N   76   3.169   3.156   2.969
    8GLY     HN   77   3.149   3.058   2.971
    8GLY     CA   78   3.081   3.240   3.054
    8GLY    HA1   79   2.999   3.178   3.089
    8GLY    HA2   80   3.043   3.316   2.989
    8GLY      C   81   3.136   3.311   3.170
    8GLY      O   82   3.224   3.257   3.242
    9ALA      N   83   3.090   3.437   3.191
    9ALA     HN   84   3.020   3.475   3.131
    9ALA     CA   85   3.114   3.521   3.305
    9ALA     HA   86   3.218   3.505   3.332
    9ALA     CB   87   3.104   3.671   3.276
    9ALA    HB1   88   3.177   3.708   3.200
    9ALA    HB2   89   3.129   3.718   3.374
    9ALA    HB3   90   3.002   3.692   3.237
    9ALA      C   91   3.016   3.485   3.417
    9ALA      O   92   2.906   3.439   3.389
   10PRO      N   93   3.053   3.508   3.546
   10PRO     CD   94   3.188   3.544   3.587
   10PRO    HD1   95   3.213   3.651   3.573
   10PRO    HD2   96   3.262   3.475   3.541
   10PRO     CA   97   2.958   3.518   3.656
   10PRO     HA   98   2.934   3.417   3.683
   10PRO     CB   99   3.034   3.587   3.767
   10PRO    HB1  100   2.993   3.574   3.869
   10PRO    HB2  101   3.043   3.697   3.759
   10PRO     CG  102   3.173   3.528   3.741
   10PRO    HG1  103   3.253   3.584   3.794
   10PRO    HG2  104   3.174   3.422   3.774
   10PRO      C  105   2.833   3.598   3.631
   10PRO      O  106   2.825   3.687   3.545
   11GLY      N  107   2.726   3.555   3.699
   11GLY     HN  108   2.741   3.479   3.762
   11GLY     CA  109   2.591   3.614   3.684
   11GLY    HA1  110   2.514   3.555   3.733
   11GLY    HA2  111   2.569   3.622   3.579
   11GLY      C  112   2.567   3.754   3.740
   11GLY      O  113   2.662   3.820   3.793
   12PRO      N  114   2.443   3.810   3.741
   12PRO     CD  115   2.341   3.780   3.637
   12PRO    HD1  116   2.300   3.679   3.656
   12PRO    HD2  117   2.392   3.774   3.538
   12PRO     CA  118   2.420   3.935   3.814
   12PRO     HA  119   2.487   4.010   3.776
   12PRO     CB  120   2.266   3.943   3.802
   12PRO    HB1  121   2.221   4.043   3.820
   12PRO    HB2  122   2.218   3.882   3.882
   12PRO     CG  123   2.237   3.887   3.660
   12PRO    HG1  124   2.139   3.841   3.636
   12PRO    HG2  125   2.258   3.963   3.582
   12PRO      C  126   2.453   3.938   3.961
   12PRO      O  127   2.435   3.832   4.027
   13GLY      N  128   2.498   4.057   4.011
   13GLY     HN  129   2.523   4.131   3.950
   13GLY     CA  130   2.500   4.090   4.157
   13GLY    HA1  131   2.538   4.189   4.180
   13GLY    HA2  132   2.557   4.010   4.202
   13GLY      C  133   2.363   4.102   4.217
   13GLY      O  134   2.263   4.128   4.150
   14ALA      N  135   2.350   4.092   4.354
   14ALA     HN  136   2.422   4.062   4.416
   14ALA     CA  137   2.233   4.143   4.416
   14ALA     HA  138   2.152   4.081   4.380
   14ALA     CB  139   2.247   4.118   4.567
   14ALA    HB1  140   2.149   4.134   4.618
   14ALA    HB2  141   2.316   4.194   4.609
   14ALA    HB3  142   2.278   4.017   4.599
   14ALA      C  143   2.201   4.289   4.386
   14ALA      O  144   2.298   4.362   4.353
   15PRO      N  145   2.075   4.330   4.389
   15PRO     CD  146   1.962   4.248   4.428
   15PRO    HD1  147   1.972   4.219   4.534
   15PRO    HD2  148   1.952   4.162   4.358
   15PRO     CA  149   2.036   4.457   4.340
   15PRO     HA  150   2.083   4.481   4.246
   15PRO     CB  151   1.889   4.438   4.308
   15PRO    HB1  152   1.884   4.395   4.205
   15PRO    HB2  153   1.838   4.537   4.308
   15PRO     CG  154   1.837   4.340   4.409
   15PRO    HG1  155   1.820   4.389   4.507
   15PRO    HG2  156   1.748   4.281   4.378
   15PRO      C  157   2.077   4.569   4.426
   15PRO    OT1  158   2.066   4.556   4.549
   15PRO    OT2  159   2.127   4.673   4.377
   16LIT    LIT  160   5.215   3.971   2.183
   17LIT    LIT  161   2.192   6.065   3.332
   18LIT    LIT  162   3.216   1.994   1.753
   19LIT    LIT  163   5.100   5.485   1.693
   20LIT    LIT  164   2.649   5.534   3.370
   21LIT    LIT  165   1.840   5.353   2.050
   22LIT    LIT  166   2.364   1.114   6.525
   23LIT    LIT  167   6.478   4.796   2.086
   24LIT    LIT  168   3.981   4.961   4.108
   25LIT    LIT  169   4.937   0.424   5.211
   26LIT    LIT  170   6.175   2.720   5.061
   27LIT    LIT  171   0.484   4.652   4.154
   28LIT    LIT  172   1.000   6.615   6.052
   29LIT    LIT  173   4.500   1.462   1.534
   30LIT    LIT  174   3.941   5.950   3.136
   31LIT    LIT  175   8.212   2.066   5.221
   32LIT    LIT  176   3.413   7.798   0.104
   33LIT    LIT  177   5.835   7.272   1.599
   34LIT    LIT  178   6.873   7.051   1.060
   35LIT    LIT  179   4.875   6.839   3.239
   36LIT    LIT  180   6.852   7.244   2.879
   37LIT    LIT  181   3.559   6.655   2.603
   38LIT    LIT  182   0.397   3.830   0.368
   39LIT    LIT  183   2.967   2.101   4.948
   40LIT    LIT  184   7.768   6.741   5.635
   41LIT    LIT  185   1.822   1.596   6.695
   42LIT    LIT  186   6.972   4.952   0.910
   43LIT    LIT  187   4.305   0.302   0.058
   44LIT    LIT  188   4.900   7.805   1.787
   45LIT    LIT  189   0.644   7.144   1.190
   46LIT    LIT  190   1.983   3.677   4.337
   47LIT    LIT  191   0.536   1.005   1.474
   48LIT    LIT  192   0.833   7.499   2.263
   49LIT    LIT  193   4.029   7.454   5.352
   50LIT    LIT  194   4.548   5.002   1.845
   51LIT    LIT  195   3.801   6.890   1.540
   52LIT    LIT  196   7.045   0.436   5.844
   53LIT    LIT  197   3.848   7.028   5.629
   54LIT    LIT  198   5.974   1.532   6.458
   55LIT    LIT  199   1.982   1.570   3.383
   56LIT    LIT  200   7.229   5.684   3.643
   57LIT    LIT  201   3.937   4.352   0.768
   58LIT    LIT  202   2.115   4.736   4.564
   59CLA    CLA  203   3.077   5.651   3.215
   60CLA    CLA  204   4.115   5.977   3.266
   61CLA    CLA  205   5.443   6.388   0.178
   62CLA    CLA  206   0.943   7.249   3.174
   63CLA    CLA  207   0.895   6.965   2.698
   64CLA    CLA  208   2.451   6.608   4.735
   65CLA    CLA  209   1.779   2.882   6.572
   66CLA    CLA  210   0.741   5.508   0.477
   67CLA    CLA  211   8.271   3.933   3.170
   68CLA    CLA  212   7.883   6.643   2.557
   69CLA    CLA  213   6.520   6.452   3.571
   70CLA    CLA  214   6.179   0.534   0.526
   71CLA    CLA  215   2.036   2.473   1.903
   72CLA    CLA  216   7.313   5.809   3.462
   73CLA    CLA  217   1.221   6.543   5.972
   74CLA    CLA  218   8.367   0.277   2.071
   75CLA    CLA  219   6.340   7.573   6.353
   76CLA    CLA  220   1.952   3.044   0.553
   77CLA    CLA  221   4.124   0.866   5.258
   78CLA    CLA  222   7.696   0.594   5.857
   79CLA    CLA  223   5.833   4.278   2.409
   80CLA    CLA  224   6.883   7.773   0.168
   81CLA    CLA  225   2.459   2.492   0.559
   82CLA    CLA  226   4.045   4.530   2.493
   83CLA    CLA  227   7.176   5.637   5.619
   84CLA    CLA  228   0.366   6.446   1.722
   85CLA    CLA  229   1.291   6.021   1.935
   86CLA    CLA  230   8.177   2.303   5.840
   87CLA    CLA  231   2.269   4.484   0.154
   88CLA    CLA  232   7.345   4.440   2.072
   89CLA    CLA  233   3.329   2.950   1.069
   90CLA    CLA  234   0.879   2.842   6.332
   91CLA    CLA  235   5.466   7.338   0.364
   92CLA    CLA  236   5.885   4.524   1.706
   93CLA    CLA  237   2.472   0.840   6.199
   94CLA    CLA  238   5.531   6.869   3.186
   95CLA    CLA  239   4.264   1.477   0.922
   96CLA    CLA  240   5.966   2.245   4.424
   97CLA    CLA  241   2.491   1.775   4.869
   98CLA    CLA  242   7.572   1.990   5.514
   99CLA    CLA  243   1.613   5.610   2.810
  100CLA    CLA  244   5.609   0.284   4.980
  101CLA    CLA  245   0.741   0.765   2.655
  102TIP3   OH2  246   2.430   3.552   1.038
  102TIP3    H1  247   2.491   3.602   1.092
  102TIP3    H2  248   2.344   3.589   1.058
  103TIP3   OH2  249   1.590   4.043   3.852
  103TIP3    H1  250   1.642   4.072   3.777
  103TIP3    H2  251   1.621   4.097   3.925
  104TIP3   OH2  252   2.792   0.382   2.885
  104TIP3    H1  253   2.797   0.411   2.977
  104TIP3    H2  254   2.796   0.463   2.835
  105TIP3   OH2  255   1.681   3.426   5.390
  105TIP3    H1  256   1.757   3.443   5.447
  105TIP3    H2  257   1.638   3.350   5.430
  106TIP3   OH2  258   2.321   7.308   2.281
  106TIP3    H1  259   2.372   7.236   2.245
  106TIP3    H2  260   2.246   7.265   2.324
  107TIP3   OH2  261   5.522   6.571   5.258
  107TIP3    H1  262   5.550   6.649   5.306
  107TIP3    H2  263   5.595   6.553   5.198
  108TIP3   OH2  264   1.111   2.045   6.452
  108TIP3    H1  265   1.059   2.056   6.372
  108TIP3    H2  266   1.147   2.132   6.469
  109TIP3   OH2  267   8.273   7.103   4.063
  109TIP3    H1  268   8.285   7.046   4.138
  109TIP3    H2  269   8.287   7.191   4.097
  110TIP3   OH2  270   2.833   2.712   2.734
  110TIP3    H1  271   2.746   2.753   2.743
  110TIP3    H2  272   2.836   2.648   2.805
  111TIP3   OH2  273   2.236   0.485   6.591
  111TIP3    H1  274   2.324   0.496   6.628
  111TIP3    H2  275   2.230   0.554   6.524
  112TIP3   OH2  276   3.034   7.500   1.955
  112TIP3    H1  277   3.080   7.422   1.987
  112TIP3    H2  278   3.012   7.479   1.864
  113TIP3   OH2  279   0.829   7.864   0.349
  113TIP3    H1  280   0.779   7.942   0.372
  113TIP3    H2  281   0.857   7.879   0.259
  114TIP3   OH2  282   3.441   2.490   2.624
  114TIP3    H1  283   3.459   2.573   2.579
  114TIP3    H2  284   3.477   2.423   2.567
  115TIP3   OH2  285   2.892   5.906   0.994
  115TIP3    H1  286   2.871   5.927   0.903
  115TIP3    H2  287   2.854   5.978   1.045
  116TIP3   OH2  288   0.755   2.027   6.779
  116TIP3    H1  289   0.767   1.932   6.771
  116TIP3    H2  290   0.839   2.063   6.750
  117TIP3   OH2  291   2.301   0.986   1.926
  117TIP3    H1  292   2.321   1.041   2.002
  117TIP3    H2  293   2.361   0.911   1.935
  118TIP3   OH2  294   4.546   5.269   1.447
  118TIP3    H1  295   4.484   5.195   1.444
  118TIP3    H2  296   4.491   5.345   1.463
  119TIP3   OH2  297   6.946   4.051   6.273
  119TIP3    H1  298   6.923   4.132   6.317
  119TIP3    H2  299   7.034   4.067   6.238
  120TIP3   OH2  300   6.486   2.531   3.852
  120TIP3    H1  301   6.563   2.571   3.891
  120TIP3    H2  302   6.412   2.586   3.880
  121TIP3   OH2  303   1.007   7.126   4.363
  121TIP3    H1  304   1.071   7.055   4.375
  121TIP3    H2  305   0.935   7.103   4.422
  122TIP3   OH2  306   2.887   3.115   2.791
  122TIP3    H1  307   2.851   3.040   2.838
  122TIP3    H2  308   2.930   3.078   2.714
  123TIP3   OH2  309   5.012   6.559   1.500
  123TIP3    H1  310   4.920   6.538   1.481
  123TIP3    H2  311   5.062   6.492   1.454
  124TIP3   OH2  312   5.609   6.038   2.170
  124TIP3    H1  313   5.657   6.121   2.171
  124TIP3    H2  314   5.671   5.974   2.205
  125TIP3   OH2  315   1.165   5.012   5.747
  125TIP3    H1  316   1.225   4.955   5.795
  125TIP3    H2  317   1.186   4.996   5.655
  126TIP3   OH2  318   4.267   7.111   6.565
  126TIP3    H1  319   4.318   7.161   6.502
  126TIP3    H2  320   4.181   7.102   6.525
  127TIP3   OH2  321   6.068   6.300   3.816
  127TIP3    H1  322   6.158   6.284   3.787
  127TIP3    H2  323   6.014   6.289   3.738
  128TIP3   OH2  324   7.256   2.952   1.960
  128TIP3    H1  325   7.172   2.943   2.005
  128TIP3    H2  326   7.285   3.041   1.980
  129TIP3   OH2  327   7.859   0.712   1.758
  129TIP3    H1  328   7.948   0.735   1.786
  129TIP3    H2  329   7.828   0.650   1.824
  130TIP3   OH2  330   8.167   6.815   0.880
  130TIP3    H1  331   8.235   6.789   0.817
  130TIP3    H2  332   8.102   6.861   0.826
  131TIP3   OH2  333   7.084   2.692   5.547
  131TIP3    H1  334   7.079   2.626   5.477
  131TIP3    H2  335   7.151   2.753   5.517
  132TIP3   OH2  336   6.815   7.818   5.722
  132TIP3    H1  337   6.806   7.773   5.638
  132TIP3    H2  338   6.896   7.868   5.714
  133TIP3   OH2  339   3.464   7.405   3.744
  133TIP3    H1  340   3.477   7.321   3.700
  133TIP3    H2  341   3.412   7.457   3.683
  134TIP3   OH2  342   7.053   5.824   1.341
  134TIP3    H1  343   7.044   5.874   1.261
  134TIP3    H2  344   7.146   5.829   1.363
  135TIP3   OH2  345   7.815   6.602   5.261
  135TIP3    H1  346   7.902   6.568   5.280
  135TIP3    H2  347   7.783   6.548   5.189
  136TIP3   OH2  348   3.857   7.843   1.951
  136TIP3    H1  349   3.845   7.749   1.964
  136TIP3    H2  350   3.786   7.884   2.002
  137TIP3   OH2  351   7.723   2.341   2.743
  137TIP3    H1  352   7.751   2.413   2.686
  137TIP3    H2  353   7.627   2.345   2.740
  138TIP3   OH2  354   0.876   5.463   0.745
  138TIP3    H1  355   0.932   5.387   0.727
  138TIP3    H2  356   0.826   5.476   0.664
  139TIP3   OH2  357   2.645   4.320   1.313
  139TIP3    H1  358   2.567   4.351   1.359
  139TIP3    H2  359   2.677   4.247   1.367
  140TIP3   OH2  360   5.000   1.170   4.388
  140TIP3    H1  361   4.995   1.167   4.292
  140TIP3    H2  362   5.031   1.258   4.408
  141TIP3   OH2  363   1.072   0.091   0.100
  141TIP3    H1  364   1.091   0.160   0.164
  141TIP3    H2  365   1.122   0.016   0.130
  142TIP3   OH2  366   0.816   7.515   3.947
  142TIP3    H1  367   0.729   7.478   3.933
  142TIP3    H2  368   0.820   7.590   3.889
  143TIP3   OH2  369   5.577   2.858   5.762
  143TIP3    H1  370   5.502   2.917   5.766
  143TIP3    H2  371   5.628   2.879   5.840
  144TIP3   OH2  372   4.933   4.121   0.987
  144TIP3    H1  373   4.899   4.032   0.988
  144TIP3    H2  374   5.015   4.115   0.937
  145TIP3   OH2  375   1.952   5.729   4.840
  145TIP3    H1  376   1.864   5.739   4.803
  145TIP3    H2  377   1.984   5.818   4.849
  146TIP3   OH2  378   8.391   5.563   2.249
  146TIP3    H1  379   8.398   5.594   2.158
  146TIP3    H2  380   8.302   5.528   2.255
  147TIP3   OH2  381   4.480   2.810   1.914
  147TIP3    H1  382   4.467   2.808   2.009
  147TIP3    H2  383   4.483   2.903   1.893
  148TIP3   OH2  384   7.241   4.899   4.270
  148TIP3    H1  385   7.221   4.809   4.246
  148TIP3    H2  386   7.263   4.894   4.363
  149TIP3   OH2  387   4.595   3.289   3.399
  149TIP3    H1  388   4.650   3.211   3.399
  149TIP3    H2  389   4.529   3.271   3.331
  150TIP3   OH2  390   7.192   4.345   3.642
  150TIP3    H1  391   7.125   4.414   3.641
  150TIP3    H2  392   7.153   4.274   3.592
  151TIP3   OH2  393   2.456   5.079   0.950
  151TIP3    H1  394   2.504   5.046   1.026
  151TIP3    H2  395   2.404   5.151   0.984
  152TIP3   OH2  396   8.198   4.568   2.113
  152TIP3    H1  397   8.111   4.538   2.142
  152TIP3    H2  398   8.185   4.592   2.021
  153TIP3   OH2  399   5.648   4.409   1.242
  153TIP3    H1  400   5.693   4.368   1.316
  153TIP3    H2  401   5.582   4.344   1.216
  154TIP3   OH2  402   5.539   1.610   6.072
  154TIP3    H1  403   5.591   1.561   6.008
  154TIP3    H2  404   5.603   1.661   6.121
  155TIP3   OH2  405   1.270   1.790   4.817
  155TIP3    H1  406   1.200   1.726   4.830
  155TIP3    H2  407   1.330   1.775   4.891
  156TIP3   OH2  408   7.970   5.745   3.367
  156TIP3    H1  409   7.947   5.804   3.440
  156TIP3    H2  410   7.911   5.671   3.376
  157TIP3   OH2  411   7.666   0.880   0.624
  157TIP3    H1  412   7.700   0.830   0.698
  157TIP3    H2  413   7.578   0.847   0.611
  158TIP3   OH2  414   0.848   2.842   3.562
  158TIP3    H1  415   0.814   2.807   3.644
  158TIP3    H2  416   0.813   2.782   3.495
  159TIP3   OH2  417   4.144   6.644   3.452
  159TIP3    H1  418   4.146   6.733   3.487
  159TIP3    H2  419   4.056   6.635   3.415
  160TIP3   OH2  420   0.784   0.369   4.370
  160TIP3    H1  421   0.738   0.317   4.304
  160TIP3    H2  422   0.716   0.424   4.410
  161TIP3   OH2  423   3.638   3.691   1.136
  161TIP3    H1  424   3.719   3.728   1.101
  161TIP3    H2  425   3.615   3.621   1.074
  162TIP3   OH2  426   2.569   1.036   3.779
  162TIP3    H1  427   2.554   1.127   3.753
  162TIP3    H2  428   2.492   0.988   3.747
  163TIP3   OH2  429   4.788   5.279   0.111
  163TIP3    H1  430   4.754   5.191   0.125
  163TIP3    H2  431   4.883   5.270   0.116
  164TIP3   OH2  432   5.961   1.351   6.396
  164TIP3    H1  433   5.873   1.317   6.379
  164TIP3    H2  434   6.016   1.273   6.405
  165TIP3   OH2  435   7.425   1.669   2.870
  165TIP3    H1  436   7.418   1.588   2.921
  165TIP3    H2  437   7.335   1.702   2.866
  166TIP3   OH2  438   5.930   4.686   6.294
  166TIP3    H1  439   5.956   4.750   6.360
  166TIP3    H2  440   5.980   4.608   6.314
  167TIP3   OH2  441   5.805   3.151   2.749
  167TIP3    H1  442   5.883   3.176   2.699
  167TIP3    H2  443   5.735   3.149   2.684
  168TIP3   OH2  444   3.641   4.442   1.529
  168TIP3    H1  445   3.668   4.350   1.527
  168TIP3    H2  446   3.551   4.441   1.498
  169TIP3   OH2  447   0.344   5.079   3.306
  169TIP3    H1  448   0.323   5.057   3.215
  169TIP3    H2  449   0.419   5.138   3.300
  170TIP3   OH2  450   4.546   2.467   4.059
  170TIP3    H1  451   4.623   2.525   4.063
  170TIP3    H2  452   4.581   2.383   4.031
  171TIP3   OH2  453   7.032   5.844   4.234
  171TIP3    H1  454   7.016   5.798   4.316
  171TIP3    H2  455   6.946   5.855   4.195
  172TIP3   OH2  456   7.247   3.275   0.221
  172TIP3    H1  457   7.331   3.266   0.176
  172TIP3    H2  458   7.265   3.244   0.310
  173TIP3   OH2  459   0.394   6.680   3.641
  173TIP3    H1  460   0.478   6.697   3.682
  173TIP3    H2  461   0.409   6.696   3.548
  174TIP3   OH2  462   4.146   7.699   0.398
  174TIP3    H1  463   4.080   7.640   0.361
  174TIP3    H2  464   4.179   7.653   0.475
  175TIP3   OH2  465   7.445   1.125   0.401
  175TIP3    H1  466   7.439   1.161   0.313
  175TIP3    H2  467   7.496   1.045   0.391
  176TIP3   OH2  468   0.116   2.097   0.628
  176TIP3    H1  469   0.119   2.097   0.533
  176TIP3    H2  470   0.096   2.007   0.652
  177TIP3   OH2  471   3.409   0.579   2.840
  177TIP3    H1  472   3.316   0.595   2.856
  177TIP3    H2  473   3.420   0.596   2.746
  178TIP3   OH2  474   2.758   6.351   5.338
  178TIP3    H1  475   2.774   6.257   5.345
  178TIP3    H2  476   2.676   6.358   5.289
  179TIP3   OH2  477   5.951   1.204   1.710
  179TIP3    H1  478   5.858   1.214   1.691
  179TIP3    H2  479   5.984   1.294   1.713
  180TIP3   OH2  480   7.406   7.727   6.817
  180TIP3    H1  481   7.437   7.658   6.758
  180TIP3    H2  482   7.328   7.690   6.859
  181TIP3   OH2  483   6.745   3.575   5.980
  181TIP3    H1  484   6.777   3.513   5.914
  181TIP3    H2  485   6.694   3.522   6.041
  182TIP3   OH2  486   0.222   4.514   5.264
  182TIP3    H1  487   0.318   4.518   5.270
  182TIP3    H2  488   0.204   4.429   5.225
  183TIP3   OH2  489   1.815   6.564   2.223
  183TIP3    H1  490   1.868   6.514   2.286
  183TIP3    H2  491   1.735   6.585   2.272
  184TIP3   OH2  492   0.345   1.770   0.263
  184TIP3    H1  493   0.432   1.810   0.268
  184TIP3    H2  494   0.355   1.685   0.304
  185TIP3   OH2  495   8.377   7.558   4.009
  185TIP3    H1  496   8.366   7.570   3.914
  185TIP3    H2  497   8.472   7.549   4.021
  186TIP3   OH2  498   2.131   2.549   1.595
  186TIP3    H1  499   2.106   2.551   1.687
  186TIP3    H2  500   2.220   2.585   1.594
  187TIP3   OH2  501   6.763   3.887   2.536
  187TIP3    H1  502   6.828   3.843   2.590
  187TIP3    H2  503   6.790   3.867   2.446
  188TIP3   OH2  504   3.736   0.379   0.461
  188TIP3    H1  505   3.827   0.381   0.430
  188TIP3    H2  506   3.728   0.458   0.514
  189TIP3   OH2  507   3.422   3.361   4.426
  189TIP3    H1  508   3.455   3.298   4.490
  189TIP3    H2  509   3.364   3.309   4.370
  190TIP3   OH2  510   0.952   0.900   3.913
  190TIP3    H1  511   0.911   0.845   3.980
  190TIP3    H2  512   0.961   0.986   3.955
  191TIP3   OH2  513   1.087   4.104   4.026
  191TIP3    H1  514   1.025   4.038   3.996
  191TIP3    H2  515   1.156   4.105   3.960
  192TIP3   OH2  516   3.100   3.346   4.468
  192TIP3    H1  517   3.134   3.400   4.396
  192TIP3    H2  518   3.171   3.346   4.533
  193TIP3   OH2  519   5.117   2.084   4.855
  193TIP3    H1  520   5.108   2.028   4.933
  193TIP3    H2  521   5.132   2.171   4.891
  194TIP3   OH2  522   1.372   2.352   2.339
  194TIP3    H1  523   1.432   2.316   2.274
  194TIP3    H2  524   1.373   2.446   2.324
  195TIP3   OH2  525   1.420   7.721   4.213
  195TIP3    H1  526   1.485   7.771   4.163
  195TIP3    H2  527   1.458   7.712   4.300
  196TIP3   OH2  528   3.843   6.737   0.069
  196TIP3    H1  529   3.869   6.817   0.024
  196TIP3    H2  530   3.865   6.753   0.161
  197TIP3   OH2  531   3.003   1.288   2.432
  197TIP3    H1  532   3.076   1.248   2.479
  197TIP3    H2  533   2.925   1.253   2.474
  198TIP3   OH2  534   4.874   2.882   0.324
  198TIP3    H1  535   4.824   2.868   0.404
  198TIP3    H2  536   4.844   2.814   0.264
  199TIP3   OH2  537   1.345   4.694   4.184
  199TIP3    H1  538   1.374   4.766   4.240
  199TIP3    H2  539   1.420   4.635   4.181
  200TIP3   OH2  540   0.454   7.636   3.637
  200TIP3    H1  541   0.414   7.587   3.565
  200TIP3    H2  542   0.540   7.661   3.604
  201TIP3   OH2  543   6.127   0.733   3.005
  201TIP3    H1  544   6.091   0.734   2.917
  201TIP3    H2  545   6.205   0.677   2.998
  202TIP3   OH2  546   1.210   0.476   4.982
  202TIP3    H1  547   1.247   0.474   5.071
  202TIP3    H2  548   1.152   0.401   4.978
  203TIP3   OH2  549   4.121   7.747   3.194
  203TIP3    H1  550   4.107   7.804   3.270
  203TIP3    H2  551   4.086   7.662   3.222
  204TIP3   OH2  552   4.213   2.539   4.236
  204TIP3    H1  553   4.301   2.563   4.265
  204TIP3    H2  554   4.161   2.536   4.316
  205TIP3   OH2  555   6.952   4.656   5.877
  205TIP3    H1  556   6.877   4.699   5.918
  205TIP3    H2  557   6.960   4.573   5.923
  206TIP3   OH2  558   8.287   2.026   2.962
  206TIP3    H1  559   8.223   2.007   2.893
  206TIP3    H2  560   8.235   2.061   3.034
  207TIP3   OH2  561   2.159   1.465   3.399
  207TIP3    H1  562   2.147   1.411   3.477
  207TIP3    H2  563   2.243   1.510   3.413
  208TIP3   OH2  564   0.100   0.636   0.620
  208TIP3    H1  565   0.109   0.724   0.657
  208TIP3    H2  566   0.174   0.628   0.560
  209TIP3   OH2  567   3.666   3.045   1.140
  209TIP3    H1  568   3.579   3.012   1.118
  209TIP3    H2  569   3.655   3.090   1.223
  210TIP3   OH2  570   2.172   6.352   5.756
  210TIP3    H1  571   2.120   6.420   5.798
  210TIP3    H2  572   2.200   6.295   5.828
  211TIP3   OH2  573   5.247   6.315   3.207
  211TIP3    H1  574   5.341   6.329   3.195
  211TIP3    H2  575   5.242   6.243   3.271
  212TIP3   OH2  576   2.847   7.532   0.796
  212TIP3    H1  577   2.860   7.441   0.772
  212TIP3    H2  578   2.780   7.564   0.735
  213TIP3   OH2  579   5.313   2.159   0.765
  213TIP3    H1  580   5.272   2.226   0.821
  213TIP3    H2  581   5.270   2.077   0.789
  214TIP3   OH2  582   2.215   6.454   3.998
  214TIP3    H1  583   2.211   6.362   3.972
  214TIP3    H2  584   2.302   6.465   4.037
  215TIP3   OH2  585   0.739   5.333   2.684
  215TIP3    H1  586   0.819   5.377   2.715
  215TIP3    H2  587   0.739   5.250   2.732
  216TIP3   OH2  588   3.140   6.747   4.248
  216TIP3    H1  589   3.108   6.799   4.175
  216TIP3    H2  590   3.235   6.744   4.236
  217TIP3   OH2  591   3.937   4.778   2.085
  217TIP3    H1  592   3.880   4.854   2.102
  217TIP3    H2  593   3.922   4.720   2.160
  218TIP3   OH2  594   7.744   4.631   5.828
  218TIP3    H1  595   7.767   4.724   5.826
  218TIP3    H2  596   7.795   4.595   5.900
  219TIP3   OH2  597   4.690   2.562   4.853
  219TIP3    H1  598   4.672   2.648   4.815
  219TIP3    H2  599   4.703   2.504   4.778
  220TIP3   OH2  600   7.763   0.137   6.373
  220TIP3    H1  601   7.794   0.212   6.322
  220TIP3    H2  602   7.682   0.167   6.414
  221TIP3   OH2  603   1.487   7.394   6.407
  221TIP3    H1  604   1.573   7.354   6.421
  221TIP3    H2  605   1.424   7.324   6.423
  222TIP3   OH2  606   7.298   1.930   3.119
  222TIP3    H1  607   7.235   2.001   3.105
  222TIP3    H2  608   7.338   1.949   3.204
  223TIP3   OH2  609   4.320   4.308   6.299
  223TIP3    H1  610   4.354   4.226   6.264
  223TIP3    H2  611   4.381   4.375   6.267
  224TIP3   OH2  612   0.490   4.453   2.005
  224TIP3    H1  613   0.439   4.373   1.994
  224TIP3    H2  614   0.500   4.487   1.916
  225TIP3   OH2  615   2.994   1.671   6.075
  225TIP3    H1  616   3.035   1.586   6.086
  225TIP3    H2  617   3.063   1.728   6.041
  226TIP3   OH2  618   1.563   6.865   2.199
  226TIP3    H1  619   1.633   6.844   2.261
  226TIP3    H2  620   1.525   6.780   2.176
  227TIP3   OH2  621   4.795   5.387   0.530
  227TIP3    H1  622   4.885   5.383   0.562
  227TIP3    H2  623   4.782   5.479   0.507
  228TIP3   OH2  624   0.908   6.945   1.238
  228TIP3    H1  625   0.861   6.886   1.179
  228TIP3    H2  626   0.946   7.011   1.181
  229TIP3   OH2  627   0.145   3.049   6.884
  229TIP3    H1  628   0.146   3.046   6.788
  229TIP3    H2  629   0.090   2.975   6.910
  230TIP3   OH2  630   6.095   3.743   1.340
  230TIP3    H1  631   6.160   3.704   1.282
  230TIP3    H2  632   6.018   3.687   1.332
  231TIP3   OH2  633   7.438   3.016   5.562
  231TIP3    H1  634   7.373   3.028   5.493
  231TIP3    H2  635   7.410   3.074   5.632
  232TIP3   OH2  636   0.034   7.791   5.570
  232TIP3    H1  637   0.060   7.705   5.604
  232TIP3    H2  638  -0.031   7.822   5.632
  233TIP3   OH2  639   6.292   7.048   0.140
  233TIP3    H1  640   6.310   7.126   0.087
  233TIP3    H2  641   6.358   6.985   0.114
  234TIP3   OH2  642   0.322   5.902   2.618
  234TIP3    H1  643   0.264   5.862   2.553
  234TIP3    H2  644   0.328   5.994   2.592
  235TIP3   OH2  645   3.524   7.060   2.709
  235TIP3    H1  646   3.515   7.108   2.627
  235TIP3    H2  647   3.447   7.085   2.760
  236TIP3   OH2  648   5.829   3.009   3.502
  236TIP3    H1  649   5.823   3.098   3.536
  236TIP3    H2  650   5.913   3.006   3.455
  237TIP3   OH2  651   3.910   2.669   3.546
  237TIP3    H1  652   3.867   2.629   3.621
  237TIP3    H2  653   3.963   2.740   3.583
  238TIP3   OH2  654   4.908   0.449   0.720
  238TIP3    H1  655   4.954   0.502   0.655
  238TIP3    H2  656   4.905   0.361   0.682
  239TIP3   OH2  657   4.303  -0.019   2.005
  239TIP3    H1  658   4.248  -0.037   2.081
  239TIP3    H2  659   4.368  -0.089   2.005
  240TIP3   OH2  660   7.135   7.699   0.322
  240TIP3    H1  661   7.109   7.757   0.393
  240TIP3    H2  662   7.063   7.702   0.259
  241TIP3   OH2  663   0.961   7.581   0.757
  241TIP3    H1  664   0.991   7.627   0.679
  241TIP3    H2  665   0.866   7.577   0.747
  242TIP3   OH2  666   6.264   5.726   1.269
  242TIP3    H1  667   6.348   5.769   1.283
  242TIP3    H2  668   6.207   5.796   1.237
  243TIP3   OH2  669   8.209   2.828   6.040
  243TIP3    H1  670   8.201   2.891   5.968
  243TIP3    H2  671   8.236   2.881   6.115
  244TIP3   OH2  672   4.325   5.199   0.325
  244TIP3    H1  673   4.238   5.234   0.344
  244TIP3    H2  674   4.372   5.271   0.283
  245TIP3   OH2  675   1.050   2.129   5.555
  245TIP3    H1  676   0.973   2.078   5.580
  245TIP3    H2  677   1.021   2.180   5.479
  246TIP3   OH2  678   6.956   1.806   0.774
  246TIP3    H1  679   7.028   1.762   0.730
  246TIP3    H2  680   6.964   1.781   0.866
  247TIP3   OH2  681   4.212   2.882   1.405
  247TIP3    H1  682   4.265   2.838   1.471
  247TIP3    H2  683   4.171   2.811   1.355
  248TIP3   OH2  684   2.564   5.366   3.275
  248TIP3    H1  685   2.469   5.371   3.277
  248TIP3    H2  686   2.583   5.278   3.242
  249TIP3   OH2  687   5.043   1.862   5.060
  249TIP3    H1  688   4.997   1.804   5.121
  249TIP3    H2  689   5.023   1.826   4.974
  250TIP3   OH2  690   7.149   5.189   6.155
  250TIP3    H1  691   7.108   5.258   6.208
  250TIP3    H2  692   7.113   5.203   6.067
  251TIP3   OH2  693   4.326   6.200   3.680
  251TIP3    H1  694   4.330   6.250   3.761
  251TIP3    H2  695   4.396   6.237   3.625
  252TIP3   OH2  696   3.561   4.867   5.304
  252TIP3    H1  697   3.582   4.949   5.348
  252TIP3    H2  698   3.596   4.799   5.361
  253TIP3   OH2  699   3.303   1.193   0.362
  253TIP3    H1  700   3.331   1.179   0.271
  253TIP3    H2  701   3.288   1.105   0.396
  254TIP3   OH2  702   4.613   3.352   5.241
  254TIP3    H1  703   4.706   3.367   5.223
  254TIP3    H2  704   4.568   3.419   5.191
  255TIP3   OH2  705   5.752   1.674   3.820
  255TIP3    H1  706   5.730   1.718   3.738
  255TIP3    H2  707   5.840   1.640   3.806
  256TIP3   OH2  708   1.114   6.310   6.733
  256TIP3    H1  709   1.058   6.235   6.709
  256TIP3    H2  710   1.131   6.298   6.826
  257TIP3   OH2  711   8.137   1.249   6.151
  257TIP3    H1  712   8.136   1.173   6.093
  257TIP3    H2  713   8.204   1.306   6.115
  258TIP3   OH2  714   5.722   3.735   3.219
  258TIP3    H1  715   5.691   3.647   3.240
  258TIP3    H2  716   5.815   3.734   3.244
  259TIP3   OH2  717   5.467   5.293   3.145
  259TIP3    H1  718   5.525   5.222   3.117
  259TIP3    H2  719   5.526   5.366   3.165
  260TIP3   OH2  720   4.362   6.623   1.277
  260TIP3    H1  721   4.300   6.619   1.349
  260TIP3    H2  722   4.364   6.715   1.251
  261TIP3   OH2  723   3.876   1.061   4.873
  261TIP3    H1  724   3.833   1.008   4.939
  261TIP3    H2  725   3.969   1.051   4.890
  262TIP3   OH2  726   6.173   0.782   5.281
  262TIP3    H1  727   6.183   0.688   5.265
  262TIP3    H2  728   6.190   0.823   5.196
  263TIP3   OH2  729   3.836   7.604   4.256
  263TIP3    H1  730   3.864   7.609   4.347
  263TIP3    H2  731   3.776   7.678   4.245
  264TIP3   OH2  732   2.817   3.232   1.071
  264TIP3    H1  733   2.874   3.162   1.039
  264TIP3    H2  734   2.856   3.258   1.154
  265TIP3   OH2  735   3.424   4.818   3.176
  265TIP3    H1  736   3.453   4.766   3.250
  265TIP3    H2  737   3.422   4.908   3.208
  266TIP3   OH2  738   8.080   2.329   0.971
  266TIP3    H1  739   8.087   2.239   1.002
  266TIP3    H2  740   8.159   2.342   0.919
  267TIP3   OH2  741   3.106   2.132   3.030
  267TIP3    H1  742   3.128   2.050   3.074
  267TIP3    H2  743   3.060   2.105   2.951
  268TIP3   OH2  744   4.107   0.796   4.964
  268TIP3    H1  745   4.102   0.806   5.059
  268TIP3    H2  746   4.021   0.823   4.932
  269TIP3   OH2  747   4.702   6.848   0.035
  269TIP3    H1  748   4.636   6.871   0.101
  269TIP3    H2  749   4.653   6.806  -0.035
  270TIP3   OH2  750   7.178   7.442   6.205
  270TIP3    H1  751   7.175   7.475   6.115
  270TIP3    H2  752   7.089   7.414   6.223
  271TIP3   OH2  753   2.766   0.151   1.647
  271TIP3    H1  754   2.678   0.187   1.636
  271TIP3    H2  755   2.809   0.167   1.563
  272TIP3   OH2  756   4.394   6.960  -0.010
  272TIP3    H1  757   4.466   6.943  -0.071
  272TIP3    H2  758   4.422   7.038   0.038
  273TIP3   OH2  759   4.675   7.527   1.922
  273TIP3    H1  760   4.605   7.519   1.857
  273TIP3    H2  761   4.685   7.439   1.958
  274TIP3   OH2  762   4.076   2.996   6.470
  274TIP3    H1  763   4.128   2.955   6.401
  274TIP3    H2  764   4.011   2.931   6.493
  275TIP3   OH2  765   7.855   7.384   1.868
  275TIP3    H1  766   7.907   7.450   1.914
  275TIP3    H2  767   7.913   7.309   1.861
  276TIP3   OH2  768   2.612   7.324   3.392
  276TIP3    H1  769   2.687   7.264   3.392
  276TIP3    H2  770   2.648   7.407   3.360
  277TIP3   OH2  771   0.976   5.025   2.931
  277TIP3    H1  772   1.069   5.001   2.936
  277TIP3    H2  773   0.972   5.113   2.968
  278TIP3   OH2  774   6.823   4.124   5.176
  278TIP3    H1  775   6.816   4.057   5.108
  278TIP3    H2  776   6.877   4.192   5.135
  279TIP3   OH2  777   7.749   3.565   0.184
  279TIP3    H1  778   7.815   3.624   0.221
  279TIP3    H2  779   7.770   3.479   0.219
  280TIP3   OH2  780   0.469   4.280   3.545
  280TIP3    H1  781   0.435   4.197   3.512
  280TIP3    H2  782   0.539   4.255   3.606
  281TIP3   OH2  783   0.683   3.969   3.181
  281TIP3    H1  784   0.742   3.900   3.209
  281TIP3    H2  785   0.733   4.020   3.117
  282TIP3   OH2  786   6.343   1.018   6.265
  282TIP3    H1  787   6.349   1.112   6.246
  282TIP3    H2  788   6.423   0.999   6.315
  283TIP3   OH2  789   0.126   5.700   3.619
  283TIP3    H1  790   0.154   5.719   3.709
  283TIP3    H2  791   0.120   5.785   3.577
  284TIP3   OH2  792   6.020   6.790   3.331
  284TIP3    H1  793   6.018   6.784   3.236
  284TIP3    H2  794   6.011   6.700   3.361
  285TIP3   OH2  795   1.425   5.140   4.510
  285TIP3    H1  796   1.481   5.129   4.587
  285TIP3    H2  797   1.383   5.225   4.523
  286TIP3   OH2  798   0.801   4.138   5.998
  286TIP3    H1  799   0.753   4.203   5.947
  286TIP3    H2  800   0.738   4.106   6.062
  287TIP3   OH2  801   3.861   3.413   1.375
  287TIP3    H1  802   3.846   3.336   1.430
  287TIP3    H2  803   3.778   3.461   1.379
  288TIP3   OH2  804   7.834   2.912   1.983
  288TIP3    H1  805   7.826   2.828   2.029
  288TIP3    H2  806   7.800   2.894   1.895
  289TIP3   OH2  807   4.145   0.547   4.851
  289TIP3    H1  808   4.056   0.531   4.884
  289TIP3    H2  809   4.168   0.633   4.886
  290TIP3   OH2  810   4.593   4.421   2.327
  290TIP3    H1  811   4.530   4.363   2.369
  290TIP3    H2  812   4.677   4.375   2.334
  291TIP3   OH2  813   6.594   5.407   2.777
  291TIP3    H1  814   6.640   5.404   2.693
  291TIP3    H2  815   6.556   5.320   2.787
  292TIP3   OH2  816   2.030   7.545   6.437
  292TIP3    H1  817   1.963   7.588   6.491
  292TIP3    H2  818   2.073   7.617   6.391
  293TIP3   OH2  819   5.490   0.974   1.500
  293TIP3    H1  820   5.395   0.965   1.512
  293TIP3    H2  821   5.515   0.897   1.449
  294TIP3   OH2  822   2.399   6.222   4.702
  294TIP3    H1  823   2.417   6.239   4.795
  294TIP3    H2  824   2.412   6.128   4.693
  295TIP3   OH2  825   2.688   7.517   1.563
  295TIP3    H1  826   2.681   7.558   1.649
  295TIP3    H2  827   2.695   7.590   1.502
  296TIP3   OH2  828   2.685   4.300   0.509
  296TIP3    H1  829   2.653   4.255   0.431
  296TIP3    H2  830   2.608   4.308   0.566
  297TIP3   OH2  831   0.417   0.275   4.527
  297TIP3    H1  832   0.489   0.338   4.525
  297TIP3    H2  833   0.347   0.320   4.573
  298TIP3   OH2  834   4.434   0.394   0.152
  298TIP3    H1  835   4.509   0.442   0.116
  298TIP3    H2  836   4.444   0.400   0.247
  299TIP3   OH2  837   5.205   0.134   5.158
  299TIP3    H1  838   5.279   0.188   5.184
  299TIP3    H2  839   5.137   0.153   5.223
  300TIP3   OH2  840   3.119   5.731   0.669
  300TIP3    H1  841   3.204   5.691   0.650
  300TIP3    H2  842   3.109   5.721   0.764
  301TIP3   OH2  843   6.384   5.722   4.482
  301TIP3    H1  844   6.381   5.780   4.406
  301TIP3    H2  845   6.342   5.641   4.451
  302TIP3   OH2  846   0.533   4.581   0.287
  302TIP3    H1  847   0.469   4.521   0.251
  302TIP3    H2  848   0.573   4.533   0.359
  303TIP3   OH2  849   5.340   0.634   4.856
  303TIP3    H1  850   5.344   0.727   4.831
  303TIP3    H2  851   5.415   0.623   4.914
  304TIP3   OH2  852   2.162   7.476   3.629
  304TIP3    H1  853   2.159   7.495   3.535
  304TIP3    H2  854   2.151   7.381   3.634
  305TIP3   OH2  855   7.898   1.073   5.905
  305TIP3    H1  856   7.874   1.165   5.891
  305TIP3    H2  857   7.831   1.024   5.858
  306TIP3   OH2  858   6.192   1.847   5.677
  306TIP3    H1  859   6.241   1.878   5.601
  306TIP3    H2  860   6.207   1.913   5.744
  307TIP3   OH2  861   1.318   6.753   2.913
  307TIP3    H1  862   1.270   6.689   2.966
  307TIP3    H2  863   1.265   6.833   2.918
  308TIP3   OH2  864   4.610   6.240   5.526
  308TIP3    H1  865   4.663   6.215   5.601
  308TIP3    H2  866   4.532   6.281   5.563
  309TIP3   OH2  867   5.694   2.407   3.042
  309TIP3    H1  868   5.738   2.484   3.078
  309TIP3    H2  869   5.607   2.438   3.019
  310TIP3   OH2  870   5.286   6.372   2.775
  310TIP3    H1  871   5.194   6.381   2.751
  310TIP3    H2  872   5.308   6.281   2.752
  311TIP3   OH2  873   7.758   5.240   6.405
  311TIP3    H1  874   7.721   5.217   6.490
  311TIP3    H2  875   7.764   5.335   6.406
  312TIP3   OH2  876   6.914   1.289   2.762
  312TIP3    H1  877   6.824   1.320   2.765
  312TIP3    H2  878   6.967   1.369   2.760
  313TIP3   OH2  879   5.328   3.622   4.038
  313TIP3    H1  880   5.258   3.605   3.975
  313TIP3    H2  881   5.366   3.705   4.009
  314TIP3   OH2  882   6.101   0.439   4.822
  314TIP3    H1  883   6.023   0.414   4.871
  314TIP3    H2  884   6.133   0.518   4.866
  315TIP3   OH2  885   6.246   6.307   4.622
  315TIP3    H1  886   6.257   6.241   4.554
  315TIP3    H2  887   6.289   6.270   4.699
  316TIP3   OH2  888   2.992   7.555   1.675
  316TIP3    H1  889   2.942   7.622   1.628
  316TIP3    H2  890   3.005   7.486   1.611
  317TIP3   OH2  891   5.460   7.422   5.101
  317TIP3    H1  892   5.414   7.504   5.120
  317TIP3    H2  893   5.491   7.391   5.186
  318TIP3   OH2  894   1.236   0.582   4.515
  318TIP3    H1  895   1.309   0.524   4.496
  318TIP3    H2  896   1.249   0.609   4.606
  319TIP3   OH2  897   2.340   6.408   0.854
  319TIP3    H1  898   2.331   6.446   0.942
  319TIP3    H2  899   2.331   6.314   0.868
  320TIP3   OH2  900   4.289   6.423   0.249
  320TIP3    H1  901   4.323   6.500   0.205
  320TIP3    H2  902   4.197   6.443   0.267
  321TIP3   OH2  903   5.178   5.904   5.488
  321TIP3    H1  904   5.103   5.873   5.539
  321TIP3    H2  905   5.211   5.980   5.538
  322TIP3   OH2  906   5.090   6.138   1.199
  322TIP3    H1  907   5.064   6.230   1.190
  322TIP3    H2  908   5.155   6.138   1.269
  323TIP3   OH2  909   7.802   5.293   1.027
  323TIP3    H1  910   7.784   5.376   0.982
  323TIP3    H2  911   7.769   5.306   1.116
  324TIP3   OH2  912   3.749   4.273   3.817
  324TIP3    H1  913   3.843   4.279   3.830
  324TIP3    H2  914   3.723   4.194   3.865
  325TIP3   OH2  915   0.243   4.820   0.449
  325TIP3    H1  916   0.314   4.820   0.512
  325TIP3    H2  917   0.205   4.732   0.456
  326TIP3   OH2  918   5.863   7.908   6.299
  326TIP3    H1  919   5.826   7.990   6.265
  326TIP3    H2  920   5.789   7.847   6.302
  327TIP3   OH2  921   1.781   7.550   0.459
  327TIP3    H1  922   1.865   7.594   0.445
  327TIP3    H2  923   1.718   7.602   0.408
  328TIP3   OH2  924   7.409   7.134   0.335
  328TIP3    H1  925   7.368   7.097   0.257
  328TIP3    H2  926   7.501   7.109   0.327
  329TIP3   OH2  927   4.345   5.571   3.958
  329TIP3    H1  928   4.335   5.501   3.893
  329TIP3    H2  929   4.439   5.581   3.968
  330TIP3   OH2  930   3.117   2.875   1.569
  330TIP3    H1  931   3.053   2.903   1.504
  330TIP3    H2  932   3.067   2.817   1.628
  331TIP3   OH2  933   1.391   5.929   0.710
  331TIP3    H1  934   1.404   5.873   0.634
  331TIP3    H2  935   1.383   5.868   0.784
  332TIP3   OH2  936   8.056   6.328   0.483
  332TIP3    H1  937   7.984   6.274   0.453
  332TIP3    H2  938   8.049   6.409   0.432
  333TIP3   OH2  939   3.293   6.278   2.648
  333TIP3    H1  940   3.226   6.243   2.589
  333TIP3    H2  941   3.245   6.338   2.706
  334TIP3   OH2  942   0.185   4.526   0.831
  334TIP3    H1  943   0.188   4.522   0.926
  334TIP3    H2  944   0.092   4.531   0.810
  335TIP3   OH2  945   2.884   6.189  -0.019
  335TIP3    H1  946   2.857   6.112  -0.069
  335TIP3    H2  947   2.812   6.251  -0.029
  336TIP3   OH2  948   6.624   5.035   3.475
  336TIP3    H1  949   6.543   5.059   3.519
  336TIP3    H2  950   6.626   5.091   3.397
  337TIP3   OH2  951   7.665   3.237   4.098
  337TIP3    H1  952   7.684   3.211   4.188
  337TIP3    H2  953   7.626   3.160   4.058
  338TIP3   OH2  954   5.169   2.250   1.626
  338TIP3    H1  955   5.204   2.163   1.646
  338TIP3    H2  956   5.075   2.238   1.619
  339TIP3   OH2  957   5.569   4.348   3.803
  339TIP3    H1  958   5.622   4.412   3.851
  339TIP3    H2  959   5.610   4.343   3.717
  340TIP3   OH2  960   6.953   4.326   4.607
  340TIP3    H1  961   6.948   4.231   4.602
  340TIP3    H2  962   6.944   4.346   4.700
  341TIP3   OH2  963   2.011   3.846   6.021
  341TIP3    H1  964   1.956   3.870   5.947
  341TIP3    H2  965   1.978   3.898   6.094
  342TIP3   OH2  966   6.285   7.033   0.672
  342TIP3    H1  967   6.321   7.121   0.684
  342TIP3    H2  968   6.208   7.031   0.729
  343TIP3   OH2  969   5.765   4.277   1.531
  343TIP3    H1  970   5.677   4.273   1.569
  343TIP3    H2  971   5.808   4.347   1.580
  344TIP3   OH2  972   1.113   6.464   1.431
  344TIP3    H1  973   1.173   6.431   1.498
  344TIP3    H2  974   1.168   6.478   1.354
  345TIP3   OH2  975   8.302   6.260   4.365
  345TIP3    H1  976   8.245   6.291   4.295
  345TIP3    H2  977   8.337   6.340   4.405
  346TIP3   OH2  978   6.932   3.783   5.976
  346TIP3    H1  979   6.858   3.723   5.972
  346TIP3    H2  980   7.005   3.733   5.940
  347TIP3   OH2  981   5.888   4.050   1.675
  347TIP3    H1  982   5.935   4.124   1.714
  347TIP3    H2  983   5.832   4.090   1.608
  348TIP3   OH2  984   5.557   2.658   0.085
  348TIP3    H1  985   5.639   2.609   0.072
  348TIP3    H2  986   5.492   2.590   0.102
  349TIP3   OH2  987   2.602   7.057   0.959
  349TIP3    H1  988   2.645   7.065   1.044
  349TIP3    H2  989   2.658   6.998   0.909
  350TIP3   OH2  990   1.619   4.232   2.652
  350TIP3    H1  991   1.653   4.310   2.608
  350TIP3    H2  992   1.657   4.158   2.605
  351TIP3   OH2  993   7.738   5.854   1.080
  351TIP3    H1  994   7.684   5.852   1.159
  351TIP3    H2  995   7.700   5.925   1.027
  352TIP3   OH2  996   7.963   0.008   3.719
  352TIP3    H1  997   8.046   0.034   3.681
  352TIP3    H2  998   7.897   0.034   3.654
  353TIP3   OH2  999   1.689   0.693   3.352
  353TIP3    H1 1000   1.664   0.757   3.419
  353TIP3    H2 1001   1.775   0.661   3.380
  354TIP3   OH2 1002   5.279   2.516   4.257
  354TIP3    H1 1003   5.304   2.547   4.170
  354TIP3    H2 1004   5.316   2.580   4.318
  355TIP3   OH2 1005   2.926   0.451   4.866
  355TIP3    H1 1006   2.947   0.455   4.773
  355TIP3    H2 1007   2.857   0.384   4.872
  356TIP3   OH2 1008   5.339   3.788   5.783
  356TIP3    H1 1009   5.320   3.722   5.716
  356TIP3    H2 1010   5.320   3.744   5.866
  357TIP3   OH2 1011   4.954   5.127   1.747
  357TIP3    H1 1012   5.033   5.134   1.694
  357TIP3    H2 1013   4.884   5.160   1.691
  358TIP3   OH2 1014   4.931   0.218   1.595
  358TIP3    H1 1015   4.864   0.257   1.538
  358TIP3    H2 1016   5.008   0.212   1.539
  359TIP3   OH2 1017   0.817   7.266   6.634
  359TIP3    H1 1018   0.780   7.239   6.550
  359TIP3    H2 1019   0.747   7.252   6.697
  360TIP3   OH2 1020   2.429   0.297   4.011
  360TIP3    H1 1021   2.491   0.228   4.035
  360TIP3    H2 1022   2.343   0.261   4.033
  361TIP3   OH2 1023   3.301   2.901   4.202
  361TIP3    H1 1024   3.396   2.896   4.212
  361TIP3    H2 1025   3.273   2.810   4.204
  362TIP3   OH2 1026   2.973   6.492   1.376
  362TIP3    H1 1027   2.929   6.539   1.305
  362TIP3    H2 1028   3.063   6.525   1.374
  363TIP3   OH2 1029   1.002   1.291   2.670
  363TIP3    H1 1030   0.987   1.206   2.628
  363TIP3    H2 1031   0.994   1.355   2.600
  364TIP3   OH2 1032   3.346   4.223   5.948
  364TIP3    H1 1033   3.332   4.171   6.027
  364TIP3    H2 1034   3.358   4.312   5.980
  365TIP3   OH2 1035   2.905   0.966   5.829
  365TIP3    H1 1036   2.905   0.871   5.843
  365TIP3    H2 1037   2.900   1.004   5.916
  366TIP3   OH2 1038   5.234   0.014   1.059
  366TIP3    H1 1039   5.325  -0.010   1.072
  366TIP3    H2 1040   5.238   0.096   1.009
  367TIP3   OH2 1041   1.449   5.269   1.582
  367TIP3    H1 1042   1.496   5.201   1.630
  367TIP3    H2 1043   1.508   5.292   1.509
  368TIP3   OH2 1044   1.251   7.497   2.877
  368TIP3    H1 1045   1.233   7.492   2.971
  368TIP3    H2 1046   1.167   7.518   2.837
  369TIP3   OH2 1047   1.211   0.900   1.938
  369TIP3    H1 1048   1.158   0.882   2.016
  369TIP3    H2 1049   1.287   0.843   1.947
  370TIP3   OH2 1050   3.176   5.868   2.414
  370TIP3    H1 1051   3.192   5.959   2.440
  370TIP3    H2 1052   3.082   5.858   2.421
  371TIP3   OH2 1053   0.541   7.191   2.399
  371TIP3    H1 1054   0.496   7.192   2.484
  371TIP3    H2 1055   0.624   7.237   2.415
  372TIP3   OH2 1056   0.900   4.415   3.694
  372TIP3    H1 1057   0.972   4.426   3.632
  372TIP3    H2 1058   0.926   4.466   3.770
  373TIP3   OH2 1059   0.333   0.348   6.559
  373TIP3    H1 1060   0.378   0.264   6.548
  373TIP3    H2 1061   0.286   0.361   6.476
  374TIP3   OH2 1062   3.991   0.098   0.426
  374TIP3    H1 1063   3.971   0.036   0.496
  374TIP3    H2 1064   4.025   0.175   0.471
  375TIP3   OH2 1065   0.061   6.459   1.754
  375TIP3    H1 1066   0.155   6.470   1.740
  375TIP3    H2 1067   0.056   6.402   1.831
  376TIP3   OH2 1068   3.831   6.684   2.191
  376TIP3    H1 1069   3.795   6.745   2.255
  376TIP3    H2 1070   3.757   6.628   2.167
  377TIP3   OH2 1071   6.826   3.764   5.258
  377TIP3    H1 1072   6.840   3.821   5.182
  377TIP3    H2 1073   6.814   3.677   5.222
  378TIP3   OH2 1074   3.691   2.230   3.025
  378TIP3    H1 1075   3.641   2.301   2.985
  378TIP3    H2 1076   3.687   2.158   2.962
  379TIP3   OH2 1077   4.199   0.192   1.856
  379TIP3    H1 1078   4.123   0.222   1.904
  379TIP3    H2 1079   4.212   0.101   1.885
  380TIP3   OH2 1080   0.206   1.468   6.330
  380TIP3    H1 1081   0.291   1.512   6.328
  380TIP3    H2 1082   0.225   1.379   6.303
  381TIP3   OH2 1083   5.245   5.771   0.747
  381TIP3    H1 1084   5.336   5.792   0.726
  381TIP3    H2 1085   5.250   5.722   0.829
  382TIP3   OH2 1086   1.526   3.670   1.145
  382TIP3    H1 1087   1.473   3.697   1.070
  382TIP3    H2 1088   1.554   3.753   1.185
  383TIP3   OH2 1089   0.557   5.779   5.045
  383TIP3    H1 1090   0.620   5.823   4.987
  383TIP3    H2 1091   0.575   5.686   5.033
  384TIP3   OH2 1092   4.420   3.613   6.216
  384TIP3    H1 1093   4.356   3.598   6.146
  384TIP3    H2 1094   4.426   3.708   6.222
  385TIP3   OH2 1095   6.404   2.807   3.727
  385TIP3    H1 1096   6.363   2.797   3.813
  385TIP3    H2 1097   6.395   2.900   3.707
  386TIP3   OH2 1098   0.648   3.732   4.293
  386TIP3    H1 1099   0.737   3.748   4.263
  386TIP3    H2 1100   0.656   3.660   4.355
  387TIP3   OH2 1101   4.240   2.574   1.484
  387TIP3    H1 1102   4.271   2.648   1.536
  387TIP3    H2 1103   4.145   2.573   1.498
  388TIP3   OH2 1104   5.509   0.391   6.825
  388TIP3    H1 1105   5.583   0.343   6.789
  388TIP3    H2 1106   5.541   0.425   6.909
  389TIP3   OH2 1107   3.648   6.835   4.092
  389TIP3    H1 1108   3.555   6.823   4.109
  389TIP3    H2 1109   3.688   6.840   4.179
  390TIP3   OH2 1110   0.512   2.925   1.954
  390TIP3    H1 1111   0.487   2.862   2.021
  390TIP3    H2 1112   0.526   3.007   2.002
  391TIP3   OH2 1113   0.435   1.862   0.733
  391TIP3    H1 1114   0.454   1.951   0.704
  391TIP3    H2 1115   0.446   1.864   0.828
  392TIP3   OH2 1116   4.074   6.841   5.954
  392TIP3    H1 1117   4.042   6.751   5.956
  392TIP3    H2 1118   4.163   6.833   5.921
  393TIP3   OH2 1119   1.360   4.843   4.879
  393TIP3    H1 1120   1.387   4.924   4.922
  393TIP3    H2 1121   1.273   4.824   4.915
  394TIP3   OH2 1122   2.150   5.867   3.328
  394TIP3    H1 1123   2.124   5.820   3.407
  394TIP3    H2 1124   2.153   5.800   3.259
  395TIP3   OH2 1125   6.535   1.786   1.402
  395TIP3    H1 1126   6.495   1.700   1.418
  395TIP3    H2 1127   6.490   1.845   1.463
  396TIP3   OH2 1128   7.058   4.529   6.616
  396TIP3    H1 1129   7.101   4.484   6.544
  396TIP3    H2 1130   6.977   4.564   6.578
  397TIP3   OH2 1131   0.368   4.287   1.629
  397TIP3    H1 1132   0.453   4.248   1.608
  397TIP3    H2 1133   0.333   4.315   1.545
  398TIP3   OH2 1134   2.436   0.932   0.664
  398TIP3    H1 1135   2.513   0.985   0.683
  398TIP3    H2 1136   2.373   0.994   0.628
  399TIP3   OH2 1137   3.955   2.334   2.976
  399TIP3    H1 1138   3.864   2.306   2.974
  399TIP3    H2 1139   3.951   2.427   2.999
  400TIP3   OH2 1140   8.388   4.903   3.102
  400TIP3    H1 1141   8.317   4.967   3.110
  400TIP3    H2 1142   8.349   4.830   3.055
  401TIP3   OH2 1143   7.597   5.768   4.466
  401TIP3    H1 1144   7.584   5.676   4.445
  401TIP3    H2 1145   7.524   5.813   4.424
  402TIP3   OH2 1146   5.849   3.588   1.598
  402TIP3    H1 1147   5.860   3.662   1.657
  402TIP3    H2 1148   5.764   3.550   1.621
  403TIP3   OH2 1149   3.611   6.286   6.858
  403TIP3    H1 1150   3.527   6.258   6.893
  403TIP3    H2 1151   3.600   6.281   6.763
  404TIP3   OH2 1152   0.051   1.196   0.645
  404TIP3    H1 1153   0.072   1.218   0.735
  404TIP3    H2 1154   0.004   1.273   0.612
  405TIP3   OH2 1155   0.622   6.674   0.612
  405TIP3    H1 1156   0.636   6.615   0.538
  405TIP3    H2 1157   0.708   6.683   0.653
  406TIP3   OH2 1158   4.164   3.792   3.531
  406TIP3    H1 1159   4.099   3.829   3.591
  406TIP3    H2 1160   4.112   3.756   3.459
  407TIP3   OH2 1161   3.043   3.054   0.977
  407TIP3    H1 1162   2.969   3.000   1.004
  407TIP3    H2 1163   3.120   3.000   0.995
  408TIP3   OH2 1164   5.887   1.587   6.092
  408TIP3    H1 1165   5.963   1.531   6.076
  408TIP3    H2 1166   5.838   1.583   6.010
  409TIP3   OH2 1167   3.009   4.385   6.243
  409TIP3    H1 1168   3.050   4.376   6.329
  409TIP3    H2 1169   2.915   4.381   6.261
  410TIP3   OH2 1170   2.395   6.624   6.400
  410TIP3    H1 1171   2.368   6.556   6.339
  410TIP3    H2 1172   2.380   6.585   6.487
  411TIP3   OH2 1173   1.363   0.062   1.528
  411TIP3    H1 1174   1.304  -0.013   1.536
  411TIP3    H2 1175   1.437   0.030   1.478
  412TIP3   OH2 1176   3.022   3.762   6.462
  412TIP3    H1 1177   3.030   3.682   6.514
  412TIP3    H2 1178   2.927   3.776   6.455
  413TIP3   OH2 1179   6.749   1.457   3.298
  413TIP3    H1 1180   6.752   1.461   3.202
  413TIP3    H2 1181   6.789   1.539   3.326
  414TIP3   OH2 1182   5.908   1.522   3.488
  414TIP3    H1 1183   5.858   1.487   3.414
  414TIP3    H2 1184   5.937   1.444   3.535
  415TIP3   OH2 1185   5.614   4.138   6.639
  415TIP3    H1 1186   5.664   4.113   6.718
  415TIP3    H2 1187   5.573   4.056   6.611
  416TIP3   OH2 1188   1.639   3.734   4.883
  416TIP3    H1 1189   1.662   3.817   4.925
  416TIP3    H2 1190   1.722   3.687   4.876
  417TIP3   OH2 1191   2.274   2.597   6.142
  417TIP3    H1 1192   2.254   2.548   6.062
  417TIP3    H2 1193   2.272   2.689   6.115
  418TIP3   OH2 1194   6.258   6.224   6.861
  418TIP3    H1 1195   6.289   6.307   6.898
  418TIP3    H2 1196   6.336   6.168   6.863
  419TIP3   OH2 1197   6.543   2.249   3.993
  419TIP3    H1 1198   6.487   2.324   4.011
  419TIP3    H2 1199   6.598   2.277   3.919
  420TIP3   OH2 1200   0.704   6.769   1.765
  420TIP3    H1 1201   0.716   6.843   1.825
  420TIP3    H2 1202   0.644   6.710   1.810
  421TIP3   OH2 1203   5.775   7.761   1.294
  421TIP3    H1 1204   5.783   7.736   1.202
  421TIP3    H2 1205   5.862   7.746   1.331
  422TIP3   OH2 1206   8.362   6.179   1.633
  422TIP3    H1 1207   8.290   6.215   1.582
  422TIP3    H2 1208   8.394   6.253   1.685
  423TIP3   OH2 1209   2.305   5.055   5.900
  423TIP3    H1 1210   2.286   5.070   5.807
  423TIP3    H2 1211   2.399   5.042   5.904
  424TIP3   OH2 1212   4.324   0.048   0.978
  424TIP3    H1 1213   4.387   0.120   0.975
  424TIP3    H2 1214   4.293   0.046   1.068
  425TIP3   OH2 1215   0.144   4.568   6.368
  425TIP3    H1 1216   0.052   4.568   6.344
  425TIP3    H2 1217   0.165   4.661   6.383
  426TIP3   OH2 1218   5.143   0.844   0.611
  426TIP3    H1 1219   5.196   0.789   0.669
  426TIP3    H2 1220   5.124   0.922   0.664
  427TIP3   OH2 1221   1.819   5.696   5.802
  427TIP3    H1 1222   1.900   5.743   5.822
  427TIP3    H2 1223   1.846   5.624   5.745
  428TIP3   OH2 1224   0.341   3.355   0.556
  428TIP3    H1 1225   0.362   3.389   0.643
  428TIP3    H2 1226   0.252   3.387   0.539
  429TIP3   OH2 1227   0.448   4.286   5.512
  429TIP3    H1 1228   0.366   4.240   5.496
  429TIP3    H2 1229   0.516   4.219   5.502
  430TIP3   OH2 1230   7.725   0.121   0.447
  430TIP3    H1 1231   7.794   0.057   0.466
  430TIP3    H2 1232   7.671   0.122   0.526
  431TIP3   OH2 1233   6.242   7.138   1.688
  431TIP3    H1 1234   6.209   7.219   1.727
  431TIP3    H2 1235   6.269   7.085   1.763
  432TIP3   OH2 1236   0.482   2.384   3.302
  432TIP3    H1 1237   0.458   2.338   3.222
  432TIP3    H2 1238   0.446   2.472   3.292
  433TIP3   OH2 1239   5.540   7.475   6.591
  433TIP3    H1 1240   5.579   7.562   6.581
  433TIP3    H2 1241   5.591   7.419   6.532
  434TIP3   OH2 1242   2.687   5.560   1.676
  434TIP3    H1 1243   2.627   5.616   1.726
  434TIP3    H2 1244   2.772   5.603   1.685
  435TIP3   OH2 1245   5.118   6.509   3.346
  435TIP3    H1 1246   5.193   6.453   3.325
  435TIP3    H2 1247   5.067   6.457   3.408
  436TIP3   OH2 1248   7.854   0.166   1.597
  436TIP3    H1 1249   7.924   0.231   1.596
  436TIP3    H2 1250   7.816   0.170   1.509
  437TIP3   OH2 1251   2.832   2.366   2.228
  437TIP3    H1 1252   2.819   2.309   2.303
  437TIP3    H2 1253   2.811   2.312   2.152
  438TIP3   OH2 1254   3.419   3.524   0.821
  438TIP3    H1 1255   3.486   3.478   0.872
  438TIP3    H2 1256   3.459   3.535   0.735
  439TIP3   OH2 1257   5.158   0.746   1.096
  439TIP3    H1 1258   5.114   0.666   1.066
  439TIP3    H2 1259   5.182   0.791   1.015
  440TIP3   OH2 1260   3.341   0.058   2.783
  440TIP3    H1 1261   3.259   0.099   2.753
  440TIP3    H2 1262   3.390   0.130   2.822
  441TIP3   OH2 1263   4.057   5.797   3.736
  441TIP3    H1 1264   4.060   5.891   3.752
  441TIP3    H2 1265   4.027   5.789   3.645
  442TIP3   OH2 1266   3.107   3.981   3.783
  442TIP3    H1 1267   3.124   3.910   3.845
  442TIP3    H2 1268   3.178   4.043   3.796
  443TIP3   OH2 1269   2.565   7.535   5.931
  443TIP3    H1 1270   2.514   7.501   5.858
  443TIP3    H2 1271   2.624   7.600   5.892
  444TIP3   OH2 1272   6.491   1.015   4.189
  444TIP3    H1 1273   6.571   0.980   4.149
  444TIP3    H2 1274   6.458   0.942   4.243
  445TIP3   OH2 1275   3.033   2.976   2.613
  445TIP3    H1 1276   3.036   3.003   2.521
  445TIP3    H2 1277   3.105   2.913   2.621
  446TIP3   OH2 1278   5.193   0.803   3.451
  446TIP3    H1 1279   5.121   0.740   3.453
  446TIP3    H2 1280   5.244   0.784   3.530
  447TIP3   OH2 1281   4.060   3.199   4.431
  447TIP3    H1 1282   4.037   3.149   4.353
  447TIP3    H2 1283   4.018   3.152   4.503
  448TIP3   OH2 1284   3.236   3.873   1.792
  448TIP3    H1 1285   3.314   3.820   1.775
  448TIP3    H2 1286   3.164   3.810   1.792
  449TIP3   OH2 1287   5.287   1.301   0.798
  449TIP3    H1 1288   5.375   1.280   0.828
  449TIP3    H2 1289   5.252   1.360   0.865
  450TIP3   OH2 1290   2.165   1.471   3.847
  450TIP3    H1 1291   2.173   1.424   3.930
  450TIP3    H2 1292   2.238   1.533   3.847
  451TIP3   OH2 1293   3.375   3.797   4.758
  451TIP3    H1 1294   3.359   3.779   4.666
  451TIP3    H2 1295   3.400   3.889   4.761
  452TIP3   OH2 1296   0.374   6.146   2.911
  452TIP3    H1 1297   0.427   6.220   2.883
  452TIP3    H2 1298   0.413   6.119   2.995
  453TIP3   OH2 1299   1.175   6.347   6.208
  453TIP3    H1 1300   1.156   6.261   6.171
  453TIP3    H2 1301   1.174   6.406   6.132
  454TIP3   OH2 1302   8.070   1.465   4.163
  454TIP3    H1 1303   8.098   1.478   4.072
  454TIP3    H2 1304   8.003   1.397   4.158
  455TIP3   OH2 1305   7.348   0.350   3.770
  455TIP3    H1 1306   7.257   0.376   3.753
  455TIP3    H2 1307   7.360   0.268   3.722
  456TIP3   OH2 1308   2.516   6.963   0.215
  456TIP3    H1 1309   2.448   6.952   0.281
  456TIP3    H2 1310   2.497   7.048   0.174
  457TIP3   OH2 1311   8.340   2.953   4.202
  457TIP3    H1 1312   8.326   2.891   4.274
  457TIP3    H2 1313   8.354   2.898   4.125
  458TIP3   OH2 1314   0.066   1.400   1.325
  458TIP3    H1 1315   0.087   1.307   1.318
  458TIP3    H2 1316  -0.028   1.403   1.341
  459TIP3   OH2 1317   7.269   4.604   2.921
  459TIP3    H1 1318   7.266   4.620   3.015
  459TIP3    H2 1319   7.182   4.570   2.899
  460TIP3   OH2 1320   0.120   0.804   3.858
  460TIP3    H1 1321   0.096   0.814   3.951
  460TIP3    H2 1322   0.196   0.746   3.859
  461TIP3   OH2 1323   1.364   7.791   2.227
  461TIP3    H1 1324   1.334   7.702   2.245
  461TIP3    H2 1325   1.299   7.847   2.269
  462TIP3   OH2 1326   7.066   6.587   1.146
  462TIP3    H1 1327   7.128   6.536   1.093
  462TIP3    H2 1328   7.122   6.641   1.202
  463TIP3   OH2 1329   1.660   1.907   1.810
  463TIP3    H1 1330   1.632   1.843   1.745
  463TIP3    H2 1331   1.722   1.860   1.865
  464TIP3   OH2 1332   1.153   2.160   6.005
  464TIP3    H1 1333   1.175   2.116   5.923
  464TIP3    H2 1334   1.237   2.191   6.039
  465TIP3   OH2 1335   6.155   7.722   1.173
  465TIP3    H1 1336   6.130   7.814   1.184
  465TIP3    H2 1337   6.107   7.676   1.243
  466TIP3   OH2 1338   6.765   1.715   4.182
  466TIP3    H1 1339   6.696   1.737   4.120
  466TIP3    H2 1340   6.791   1.626   4.157
  467TIP3   OH2 1341   4.176   3.973   5.960
  467TIP3    H1 1342   4.213   4.061   5.966
  467TIP3    H2 1343   4.102   3.982   5.901
  468TIP3   OH2 1344   7.462   4.412   1.425
  468TIP3    H1 1345   7.553   4.407   1.395
  468TIP3    H2 1346   7.460   4.486   1.485
  469TIP3   OH2 1347   4.278   2.938   3.647
  469TIP3    H1 1348   4.356   2.991   3.661
  469TIP3    H2 1349   4.297   2.854   3.690
  470TIP3   OH2 1350   4.697   0.943   6.811
  470TIP3    H1 1351   4.708   0.854   6.844
  470TIP3    H2 1352   4.777   0.988   6.836
  471TIP3   OH2 1353   0.632   3.858   1.464
  471TIP3    H1 1354   0.592   3.916   1.400
  471TIP3    H2 1355   0.558   3.822   1.514
  472TIP3   OH2 1356   2.841   0.822   2.689
  472TIP3    H1 1357   2.912   0.878   2.722
  472TIP3    H2 1358   2.824   0.855   2.600
  473TIP3   OH2 1359   5.325   6.075   1.064
  473TIP3    H1 1360   5.302   6.164   1.040
  473TIP3    H2 1361   5.286   6.063   1.151
  474TIP3   OH2 1362   7.106   4.245   5.783
  474TIP3    H1 1363   7.129   4.325   5.735
  474TIP3    H2 1364   7.189   4.215   5.821
  475TIP3   OH2 1365   5.667   2.416   5.295
  475TIP3    H1 1366   5.722   2.493   5.314
  475TIP3    H2 1367   5.579   2.452   5.286
  476TIP3   OH2 1368   5.672   4.158   4.142
  476TIP3    H1 1369   5.702   4.074   4.176
  476TIP3    H2 1370   5.577   4.151   4.141
  477TIP3   OH2 1371   7.410   7.227   5.223
  477TIP3    H1 1372   7.447   7.212   5.310
  477TIP3    H2 1373   7.337   7.165   5.217
  478TIP3   OH2 1374   7.506   1.526   4.582
  478TIP3    H1 1375   7.592   1.565   4.564
  478TIP3    H2 1376   7.458   1.594   4.628
  479TIP3   OH2 1377   5.789   0.401   0.986
  479TIP3    H1 1378   5.793   0.474   1.048
  479TIP3    H2 1379   5.880   0.383   0.965
  480TIP3   OH2 1380   0.425   5.836   3.522
  480TIP3    H1 1381   0.381   5.785   3.454
  480TIP3    H2 1382   0.354   5.869   3.576
  481TIP3   OH2 1383   1.001   6.652   5.662
  481TIP3    H1 1384   1.078   6.681   5.710
  481TIP3    H2 1385   1.033   6.634   5.574
  482TIP3   OH2 1386   2.584   2.352   0.321
  482TIP3    H1 1387   2.536   2.377   0.399
  482TIP3    H2 1388   2.647   2.422   0.308
  483TIP3   OH2 1389   3.949   6.535   6.686
  483TIP3    H1 1390   3.998   6.453   6.690
  483TIP3    H2 1391   3.905   6.533   6.601
  484TIP3   OH2 1392   2.460   6.410   4.501
  484TIP3    H1 1393   2.436   6.487   4.554
  484TIP3    H2 1394   2.448   6.336   4.560
  485TIP3   OH2 1395   6.486   7.285   1.941
  485TIP3    H1 1396   6.540   7.320   1.871
  485TIP3    H2 1397   6.511   7.336   2.018
  486TIP3   OH2 1398   2.269   6.386   1.486
  486TIP3    H1 1399   2.330   6.320   1.455
  486TIP3    H2 1400   2.322   6.466   1.494
  487TIP3   OH2 1401   6.575   7.817   1.126
  487TIP3    H1 1402   6.615   7.887   1.177
  487TIP3    H2 1403   6.500   7.858   1.082
  488TIP3   OH2 1404   6.961   7.203   2.187
  488TIP3    H1 1405   6.948   7.114   2.221
  488TIP3    H2 1406   7.050   7.201   2.149
  489TIP3   OH2 1407   5.469   1.905   0.714
  489TIP3    H1 1408   5.413   1.959   0.659
  489TIP3    H2 1409   5.548   1.958   0.729
  490TIP3   OH2 1410   3.296   5.970   0.115
  490TIP3    H1 1411   3.319   5.958   0.023
  490TIP3    H2 1412   3.380   5.983   0.159
  491TIP3   OH2 1413   1.207   5.233   5.548
  491TIP3    H1 1414   1.181   5.147   5.581
  491TIP3    H2 1415   1.245   5.278   5.624
  492TIP3   OH2 1416   4.390   2.327   1.967
  492TIP3    H1 1417   4.430   2.240   1.964
  492TIP3    H2 1418   4.393   2.359   1.877
  493TIP3   OH2 1419   2.084   5.923   0.902
  493TIP3    H1 1420   2.095   5.976   0.823
  493TIP3    H2 1421   2.040   5.982   0.964
  494TIP3   OH2 1422   1.531   1.326   5.705
  494TIP3    H1 1423   1.463   1.387   5.732
  494TIP3    H2 1424   1.576   1.370   5.633
  495TIP3   OH2 1425   7.072   0.282   3.771
  495TIP3    H1 1426   6.994   0.329   3.799
  495TIP3    H2 1427   7.064   0.275   3.676
  496TIP3   OH2 1428   3.348   1.642   3.725
  496TIP3    H1 1429   3.400   1.602   3.655
  496TIP3    H2 1430   3.363   1.736   3.714
  497TIP3   OH2 1431   2.182   7.599   5.831
  497TIP3    H1 1432   2.171   7.530   5.766
  497TIP3    H2 1433   2.092   7.621   5.857
  498TIP3   OH2 1434   2.960   0.546   2.313
  498TIP3    H1 1435   2.993   0.458   2.296
  498TIP3    H2 1436   2.959   0.554   2.408
  499TIP3   OH2 1437   3.229   4.020   2.082
  499TIP3    H1 1438   3.313   4.053   2.115
  499TIP3    H2 1439   3.250   3.986   1.995
  500TIP3   OH2 1440   7.879   1.966   5.455
  500TIP3    H1 1441   7.786   1.980   5.474
  500TIP3    H2 1442   7.925   2.018   5.522
  501TIP3   OH2 1443   2.043   4.784   4.146
  501TIP3    H1 1444   1.948   4.791   4.142
  501TIP3    H2 1445   2.061   4.751   4.234
  502TIP3   OH2 1446   4.976   3.669   1.424
  502TIP3    H1 1447   5.053   3.636   1.377
  502TIP3    H2 1448   4.906   3.609   1.399
  503TIP3   OH2 1449   2.887   6.024   4.645
  503TIP3    H1 1450   2.958   6.011   4.709
  503TIP3    H2 1451   2.809   5.993   4.690
  504TIP3   OH2 1452   3.682   0.013   3.129
  504TIP3    H1 1453   3.625  -0.063   3.112
  504TIP3    H2 1454   3.635   0.064   3.194
  505TIP3   OH2 1455   4.179   7.719   3.960
  505TIP3    H1 1456   4.253   7.684   3.910
  505TIP3    H2 1457   4.140   7.643   4.003
  506TIP3   OH2 1458   3.182   0.087   4.355
  506TIP3    H1 1459   3.262   0.104   4.404
  506TIP3    H2 1460   3.116   0.141   4.398
  507TIP3   OH2 1461   3.456   3.655   5.906
  507TIP3    H1 1462   3.462   3.735   5.853
  507TIP3    H2 1463   3.415   3.684   5.987
  508TIP3   OH2 1464   8.407   7.253   5.531
  508TIP3    H1 1465   8.313   7.266   5.523
  508TIP3    H2 1466   8.444   7.289   5.451
  509TIP3   OH2 1467   3.292   4.441   2.027
  509TIP3    H1 1468   3.287   4.365   1.969
  509TIP3    H2 1469   3.276   4.406   2.115
  510TIP3   OH2 1470   3.897   0.524   2.007
  510TIP3    H1 1471   3.976   0.579   2.009
  510TIP3    H2 1472   3.836   0.568   2.065
  511TIP3   OH2 1473   4.847   7.526   0.973
  511TIP3    H1 1474   4.903   7.604   0.979
  511TIP3    H2 1475   4.868   7.475   1.051
  512TIP3   OH2 1476   3.907   1.461   2.287
  512TIP3    H1 1477   3.851   1.430   2.359
  512TIP3    H2 1478   3.992   1.420   2.304
  513TIP3   OH2 1479   6.285   6.092   0.500
  513TIP3    H1 1480   6.202   6.134   0.522
  513TIP3    H2 1481   6.260   6.013   0.452
  514TIP3   OH2 1482   0.580   2.978   1.437
  514TIP3    H1 1483   0.586   2.956   1.530
  514TIP3    H2 1484   0.609   2.899   1.391
  515TIP3   OH2 1485   1.772   3.260   0.653
  515TIP3    H1 1486   1.836   3.203   0.610
  515TIP3    H2 1487   1.785   3.346   0.613
  516TIP3   OH2 1488   1.364   0.320   4.245
  516TIP3    H1 1489   1.269   0.321   4.237
  516TIP3    H2 1490   1.388   0.228   4.234
  517TIP3   OH2 1491   0.258   4.840   6.341
  517TIP3    H1 1492   0.325   4.872   6.401
  517TIP3    H2 1493   0.289   4.865   6.254
  518TIP3   OH2 1494   2.058   5.396   2.608
  518TIP3    H1 1495   2.136   5.394   2.663
  518TIP3    H2 1496   1.985   5.407   2.670
  519TIP3   OH2 1497   4.874   3.176   3.617
  519TIP3    H1 1498   4.843   3.095   3.657
  519TIP3    H2 1499   4.805   3.240   3.637
  520TIP3   OH2 1500   4.464   6.060   1.128
  520TIP3    H1 1501   4.415   6.138   1.152
  520TIP3    H2 1502   4.416   5.988   1.169
  521TIP3   OH2 1503   5.127   5.378   6.162
  521TIP3    H1 1504   5.196   5.428   6.206
  521TIP3    H2 1505   5.100   5.312   6.226
  522TIP3   OH2 1506   0.860   3.899   1.880
  522TIP3    H1 1507   0.889   3.842   1.808
  522TIP3    H2 1508   0.937   3.954   1.898
  523TIP3   OH2 1509   7.766   5.409   1.291
  523TIP3    H1 1510   7.698   5.463   1.330
  523TIP3    H2 1511   7.784   5.342   1.356
  524TIP3   OH2 1512   5.861   0.882   3.086
  524TIP3    H1 1513   5.879   0.792   3.061
  524TIP3    H2 1514   5.771   0.880   3.119
  525TIP3   OH2 1515   1.434   7.110   0.754
  525TIP3    H1 1516   1.523   7.094   0.786
  525TIP3    H2 1517   1.393   7.162   0.823
  526TIP3   OH2 1518   6.999   5.869   2.555
  526TIP3    H1 1519   7.054   5.907   2.623
  526TIP3    H2 1520   7.052   5.797   2.519
  527TIP3   OH2 1521   0.171   2.925   2.168
  527TIP3    H1 1522   0.208   3.011   2.189
  527TIP3    H2 1523   0.076   2.938   2.168
  528TIP3   OH2 1524   7.615   5.295   2.004
  528TIP3    H1 1525   7.658   5.362   1.950
  528TIP3    H2 1526   7.522   5.318   2.002
  529TIP3   OH2 1527   0.703   1.535   2.784
  529TIP3    H1 1528   0.716   1.453   2.832
  529TIP3    H2 1529   0.617   1.566   2.812
  530TIP3   OH2 1530   0.994   2.871   1.948
  530TIP3    H1 1531   0.935   2.812   1.994
  530TIP3    H2 1532   1.067   2.886   2.008
  531TIP3   OH2 1533   6.141   3.140   0.733
  531TIP3    H1 1534   6.236   3.151   0.724
  531TIP3    H2 1535   6.128   3.120   0.825
  532TIP3   OH2 1536   7.707   5.874   4.016
  532TIP3    H1 1537   7.707   5.919   3.931
  532TIP3    H2 1538   7.639   5.919   4.067
  533TIP3   OH2 1539   5.908   0.816   5.288
  533TIP3    H1 1540   6.001   0.826   5.308
  533TIP3    H2 1541   5.899   0.850   5.199
  534TIP3   OH2 1542   7.444   2.725   2.579
  534TIP3    H1 1543   7.486   2.801   2.539
  534TIP3    H2 1544   7.350   2.745   2.575
  535TIP3   OH2 1545   4.050   2.204   4.516
  535TIP3    H1 1546   4.141   2.233   4.510
  535TIP3    H2 1547   4.056   2.112   4.542
  536TIP3   OH2 1548   5.332   1.699   5.747
  536TIP3    H1 1549   5.256   1.651   5.715
  536TIP3    H2 1550   5.386   1.714   5.669
  537TIP3   OH2 1551   4.965   7.029   4.865
  537TIP3    H1 1552   5.018   6.965   4.912
  537TIP3    H2 1553   5.015   7.048   4.786
  538TIP3   OH2 1554   7.559   0.134   0.658
  538TIP3    H1 1555   7.500   0.091   0.595
  538TIP3    H2 1556   7.500   0.170   0.724
  539TIP3   OH2 1557   7.614   3.359   1.687
  539TIP3    H1 1558   7.662   3.413   1.624
  539TIP3    H2 1559   7.681   3.315   1.738
  540TIP3   OH2 1560   7.317   5.837   2.396
  540TIP3    H1 1561   7.278   5.771   2.454
  540TIP3    H2 1562   7.314   5.797   2.309
  541TIP3   OH2 1563   5.267   5.120   5.137
  541TIP3    H1 1564   5.264   5.111   5.233
  541TIP3    H2 1565   5.358   5.099   5.115
  542TIP3   OH2 1566   0.502   6.077   1.026
  542TIP3    H1 1567   0.571   6.143   1.019
  542TIP3    H2 1568   0.445   6.093   0.951
  543TIP3   OH2 1569   6.454   6.651   3.808
  543TIP3    H1 1570   6.359   6.640   3.801
  543TIP3    H2 1571   6.491   6.586   3.748
  544TIP3   OH2 1572   8.044   3.847   6.043
  544TIP3    H1 1573   8.092   3.789   5.984
  544TIP3    H2 1574   8.070   3.936   6.016
  545TIP3   OH2 1575   2.928   7.260   0.388
  545TIP3    H1 1576   2.868   7.253   0.314
  545TIP3    H2 1577   2.954   7.170   0.407
  546TIP3   OH2 1578   2.439   7.061   5.977
  546TIP3    H1 1579   2.424   7.142   6.026
  546TIP3    H2 1580   2.477   7.089   5.894
  547TIP3   OH2 1581   2.068   4.001   2.953
  547TIP3    H1 1582   2.089   4.034   2.866
  547TIP3    H2 1583   1.989   4.048   2.978
  548TIP3   OH2 1584   4.815   1.195   5.856
  548TIP3    H1 1585   4.756   1.135   5.812
  548TIP3    H2 1586   4.760   1.267   5.884
  549TIP3   OH2 1587   0.409   3.323   5.348
  549TIP3    H1 1588   0.464   3.255   5.387
  549TIP3    H2 1589   0.397   3.386   5.419
  550TIP3   OH2 1590   2.287   7.583   3.893
  550TIP3    H1 1591   2.260   7.541   3.811
  550TIP3    H2 1592   2.303   7.511   3.953
  551TIP3   OH2 1593   1.491   4.604   5.776
  551TIP3    H1 1594   1.437   4.667   5.730
  551TIP3    H2 1595   1.433   4.530   5.795
  552TIP3   OH2 1596   0.208   4.246   5.169
  552TIP3    H1 1597   0.251   4.177   5.220
  552TIP3    H2 1598   0.174   4.200   5.091
  553TIP3   OH2 1599   2.473   6.061   1.818
  553TIP3    H1 1600   2.560   6.075   1.781
  553TIP3    H2 1601   2.438   5.986   1.771
  554TIP3   OH2 1602   1.694   4.154   4.671
  554TIP3    H1 1603   1.630   4.126   4.606
  554TIP3    H2 1604   1.680   4.249   4.680
  555TIP3   OH2 1605   7.521   0.540   4.719
  555TIP3    H1 1606   7.566   0.594   4.784
  555TIP3    H2 1607   7.501   0.458   4.764
  556TIP3   OH2 1608   7.034   0.974   2.004
  556TIP3    H1 1609   6.973   0.959   2.076
  556TIP3    H2 1610   7.016   1.063   1.975
  557TIP3   OH2 1611   2.121   0.180   3.743
  557TIP3    H1 1612   2.142   0.270   3.717
  557TIP3    H2 1613   2.111   0.133   3.660
  558TIP3   OH2 1614   6.035   7.644   2.319
  558TIP3    H1 1615   6.051   7.720   2.375
  558TIP3    H2 1616   5.945   7.655   2.288
  559TIP3   OH2 1617   3.239   1.357   5.874
  559TIP3    H1 1618   3.198   1.270   5.868
  559TIP3    H2 1619   3.221   1.398   5.790
  560TIP3   OH2 1620   2.024   7.882   1.645
  560TIP3    H1 1621   2.062   7.871   1.732
  560TIP3    H2 1622   2.056   7.968   1.616
  561TIP3   OH2 1623   1.885   1.191   3.870
  561TIP3    H1 1624   1.933   1.154   3.944
  561TIP3    H2 1625   1.912   1.138   3.795
  562TIP3   OH2 1626   4.767   1.380   5.291
  562TIP3    H1 1627   4.701   1.330   5.339
  562TIP3    H2 1628   4.765   1.467   5.331
  563TIP3   OH2 1629   4.751   7.351   5.967
  563TIP3    H1 1630   4.716   7.267   5.937
  563TIP3    H2 1631   4.751   7.345   6.062
  564TIP3   OH2 1632   5.939   1.225   3.833
  564TIP3    H1 1633   6.027   1.262   3.845
  564TIP3    H2 1634   5.950   1.132   3.853
  565TIP3   OH2 1635   3.066   6.993   2.097
  565TIP3    H1 1636   3.061   7.004   2.192
  565TIP3    H2 1637   3.014   6.914   2.079
  566TIP3   OH2 1638   6.764   0.860   6.830
  566TIP3    H1 1639   6.742   0.886   6.741
  566TIP3    H2 1640   6.719   0.923   6.886
  567TIP3   OH2 1641   6.866   3.383   0.684
  567TIP3    H1 1642   6.880   3.382   0.779
  567TIP3    H2 1643   6.943   3.429   0.650
  568TIP3   OH2 1644   1.928   0.111   0.770
  568TIP3    H1 1645   1.966   0.162   0.699
  568TIP3    H2 1646   1.984   0.130   0.846
  569TIP3   OH2 1647   7.680   5.492   6.523
  569TIP3    H1 1648   7.668   5.570   6.470
  569TIP3    H2 1649   7.614   5.499   6.592
  570TIP3   OH2 1650   2.925   0.882   3.274
  570TIP3    H1 1651   2.971   0.964   3.255
  570TIP3    H2 1652   2.964   0.851   3.356
  571TIP3   OH2 1653   0.803   2.032   5.652
  571TIP3    H1 1654   0.732   2.089   5.681
  571TIP3    H2 1655   0.763   1.976   5.585
  572TIP3   OH2 1656   0.023   7.751   6.348
  572TIP3    H1 1657   0.059   7.824   6.398
  572TIP3    H2 1658   0.094   7.687   6.344
  573TIP3   OH2 1659   6.646   2.544   2.829
  573TIP3    H1 1660   6.649   2.526   2.735
  573TIP3    H2 1661   6.613   2.633   2.835
  574TIP3   OH2 1662   4.153   3.001   6.776
  574TIP3    H1 1663   4.173   3.076   6.832
  574TIP3    H2 1664   4.154   3.035   6.687
  575TIP3   OH2 1665   5.153   1.841   6.245
  575TIP3    H1 1666   5.141   1.886   6.161
  575TIP3    H2 1667   5.143   1.748   6.224
  576TIP3   OH2 1668   4.992   3.256   4.812
  576TIP3    H1 1669   5.034   3.176   4.844
  576TIP3    H2 1670   4.900   3.246   4.833
  577TIP3   OH2 1671   5.553   4.111   1.603
  577TIP3    H1 1672   5.467   4.094   1.563
  577TIP3    H2 1673   5.537   4.181   1.666
  578TIP3   OH2 1674   1.181   3.053   4.627
  578TIP3    H1 1675   1.257   2.996   4.610
  578TIP3    H2 1676   1.183   3.067   4.721
  579TIP3   OH2 1677   7.269   5.037   0.056
  579TIP3    H1 1678   7.315   4.990  -0.013
  579TIP3    H2 1679   7.335   5.096   0.093
  580TIP3   OH2 1680   3.871   2.674   2.716
  580TIP3    H1 1681   3.939   2.717   2.768
  580TIP3    H2 1682   3.915   2.651   2.634
  581TIP3   OH2 1683   5.375   2.727   3.449
  581TIP3    H1 1684   5.441   2.744   3.516
  581TIP3    H2 1685   5.426   2.711   3.369
  582TIP3   OH2 1686   2.168   5.565   3.486
  582TIP3    H1 1687   2.168   5.564   3.390
  582TIP3    H2 1688   2.085   5.604   3.511
  583TIP3   OH2 1689   8.302   4.352   0.834
  583TIP3    H1 1690   8.257   4.406   0.900
  583TIP3    H2 1691   8.288   4.262   0.863
  584TIP3   OH2 1692   5.894   1.778   0.304
  584TIP3    H1 1693   5.809   1.746   0.332
  584TIP3    H2 1694   5.877   1.823   0.221
  585TIP3   OH2 1695   7.460   6.191   3.284
  585TIP3    H1 1696   7.385   6.132   3.277
  585TIP3    H2 1697   7.428   6.265   3.335
  586TIP3   OH2 1698   2.568   4.534   0.102
  586TIP3    H1 1699   2.487   4.550   0.149
  586TIP3    H2 1700   2.547   4.463   0.042
  587TIP3   OH2 1701   1.715   6.433   6.188
  587TIP3    H1 1702   1.678   6.472   6.108
  587TIP3    H2 1703   1.640   6.397   6.234
  588TIP3   OH2 1704   3.233   6.557   6.039
  588TIP3    H1 1705   3.230   6.463   6.057
  588TIP3    H2 1706   3.144   6.580   6.016
  589TIP3   OH2 1707   0.758   1.137   2.355
  589TIP3    H1 1708   0.720   1.186   2.429
  589TIP3    H2 1709   0.692   1.145   2.286
  590TIP3   OH2 1710   7.862   3.543   3.011
  590TIP3    H1 1711   7.944   3.560   3.057
  590TIP3    H2 1712   7.805   3.503   3.077
  591TIP3   OH2 1713   4.440   3.211   4.013
  591TIP3    H1 1714   4.492   3.143   3.970
  591TIP3    H2 1715   4.363   3.221   3.957
  592TIP3   OH2 1716   0.344   4.674   2.523
  592TIP3    H1 1717   0.358   4.722   2.605
  592TIP3    H2 1718   0.351   4.741   2.454
  593TIP3   OH2 1719   1.858   4.658   3.089
  593TIP3    H1 1720   1.889   4.575   3.054
  593TIP3    H2 1721   1.917   4.677   3.162
  594TIP3   OH2 1722   2.178   0.303   6.355
  594TIP3    H1 1723   2.237   0.253   6.412
  594TIP3    H2 1724   2.090   0.277   6.382
  595TIP3   OH2 1725   1.542   5.817   1.155
  595TIP3    H1 1726   1.582   5.750   1.099
  595TIP3    H2 1727   1.473   5.771   1.202
  596TIP3   OH2 1728   5.907   0.958   6.517
  596TIP3    H1 1729   5.921   0.878   6.568
  596TIP3    H2 1730   5.824   0.944   6.472
  597TIP3   OH2 1731   4.058   3.917   0.849
  597TIP3    H1 1732   3.997   3.847   0.875
  597TIP3    H2 1733   4.065   3.909   0.754
  598TIP3   OH2 1734   3.018   0.277   4.371
  598TIP3    H1 1735   3.046   0.353   4.319
  598TIP3    H2 1736   2.937   0.249   4.330
  599TIP3   OH2 1737   6.402   6.215   5.107
  599TIP3    H1 1738   6.482   6.163   5.110
  599TIP3    H2 1739   6.412   6.279   5.178
  600TIP3   OH2 1740   0.816   3.697   2.083
  600TIP3    H1 1741   0.753   3.726   2.149
  600TIP3    H2 1742   0.823   3.772   2.023
  601TIP3   OH2 1743   8.361   5.235   6.486
  601TIP3    H1 1744   8.267   5.239   6.498
  601TIP3    H2 1745   8.373   5.232   6.392
  602TIP3   OH2 1746   7.163   4.621   5.702
  602TIP3    H1 1747   7.096   4.657   5.760
  602TIP3    H2 1748   7.240   4.675   5.719
  603TIP3   OH2 1749   2.406   4.096   6.593
  603TIP3    H1 1750   2.316   4.084   6.626
  603TIP3    H2 1751   2.446   4.156   6.657
  604TIP3   OH2 1752   5.398   7.424   4.439
  604TIP3    H1 1753   5.354   7.394   4.360
  604TIP3    H2 1754   5.354   7.379   4.511
  605TIP3   OH2 1755   7.335   3.249   4.260
  605TIP3    H1 1756   7.400   3.320   4.260
  605TIP3    H2 1757   7.260   3.286   4.213
  606TIP3   OH2 1758   0.653   7.241   6.389
  606TIP3    H1 1759   0.588   7.188   6.436
  606TIP3    H2 1760   0.601   7.310   6.347
  607TIP3   OH2 1761   5.794   1.213   5.206
  607TIP3    H1 1762   5.747   1.289   5.170
  607TIP3    H2 1763   5.874   1.250   5.243
  608TIP3   OH2 1764   7.886   2.724   6.588
  608TIP3    H1 1765   7.831   2.712   6.666
  608TIP3    H2 1766   7.826   2.713   6.514
  609TIP3   OH2 1767   3.863   0.352   4.366
  609TIP3    H1 1768   3.877   0.368   4.460
  609TIP3    H2 1769   3.873   0.439   4.326
  610TIP3   OH2 1770   5.410   3.957   5.347
  610TIP3    H1 1771   5.317   3.946   5.328
  610TIP3    H2 1772   5.451   3.971   5.261
  611TIP3   OH2 1773   2.492   6.461   4.095
  611TIP3    H1 1774   2.498   6.374   4.133
  611TIP3    H2 1775   2.560   6.464   4.028
  612TIP3   OH2 1776   7.288   5.288   0.367
  612TIP3    H1 1777   7.369   5.335   0.387
  612TIP3    H2 1778   7.300   5.254   0.279
  613TIP3   OH2 1779   7.545   4.297   4.779
  613TIP3    H1 1780   7.617   4.360   4.775
  613TIP3    H2 1781   7.547   4.265   4.869
  614TIP3   OH2 1782   8.052   2.787   0.140
  614TIP3    H1 1783   7.973   2.735   0.127
  614TIP3    H2 1784   8.120   2.723   0.160
  615TIP3   OH2 1785   6.325   7.389   3.281
  615TIP3    H1 1786   6.286   7.462   3.328
  615TIP3    H2 1787   6.284   7.392   3.194
  616TIP3   OH2 1788   4.859   1.671   3.558
  616TIP3    H1 1789   4.795   1.607   3.526
  616TIP3    H2 1790   4.819   1.756   3.540
  617TIP3   OH2 1791   0.497   5.805   3.093
  617TIP3    H1 1792   0.437   5.876   3.116
  617TIP3    H2 1793   0.556   5.844   3.027
  618TIP3   OH2 1794   1.900   5.941   4.005
  618TIP3    H1 1795   1.858   5.861   4.036
  618TIP3    H2 1796   1.829   5.993   3.966
  619TIP3   OH2 1797   1.464   5.057   6.496
  619TIP3    H1 1798   1.407   5.019   6.430
  619TIP3    H2 1799   1.536   4.994   6.504
  620TIP3   OH2 1800   5.553   5.662   4.008
  620TIP3    H1 1801   5.493   5.673   3.935
  620TIP3    H2 1802   5.519   5.586   4.055
  621TIP3   OH2 1803   3.989   5.125   2.930
  621TIP3    H1 1804   3.950   5.050   2.976
  621TIP3    H2 1805   3.944   5.201   2.966
  622TIP3   OH2 1806   5.378   4.803   4.495
  622TIP3    H1 1807   5.340   4.841   4.574
  622TIP3    H2 1808   5.327   4.723   4.480
  623TIP3   OH2 1809   4.457   3.457   3.812
  623TIP3    H1 1810   4.377   3.414   3.845
  623TIP3    H2 1811   4.425   3.530   3.760
  624TIP3   OH2 1812   4.868   3.642   4.510
  624TIP3    H1 1813   4.859   3.713   4.574
  624TIP3    H2 1814   4.782   3.637   4.467
  625TIP3   OH2 1815   1.366   7.027   6.357
  625TIP3    H1 1816   1.340   6.968   6.287
  625TIP3    H2 1817   1.324   7.111   6.335
  626TIP3   OH2 1818   6.752   6.141   4.831
  626TIP3    H1 1819   6.718   6.217   4.784
  626TIP3    H2 1820   6.816   6.102   4.771
  627TIP3   OH2 1821   7.988   4.643   4.843
  627TIP3    H1 1822   8.015   4.615   4.755
  627TIP3    H2 1823   8.058   4.700   4.872
  628TIP3   OH2 1824   3.158   2.009   1.219
  628TIP3    H1 1825   3.097   2.081   1.237
  628TIP3    H2 1826   3.109   1.949   1.162
  629TIP3   OH2 1827   6.370   2.341   0.626
  629TIP3    H1 1828   6.303   2.357   0.561
  629TIP3    H2 1829   6.437   2.290   0.580
  630TIP3   OH2 1830   4.652   2.500   1.281
  630TIP3    H1 1831   4.720   2.509   1.214
  630TIP3    H2 1832   4.584   2.448   1.238
  631TIP3   OH2 1833   0.694   7.538   0.218
  631TIP3    H1 1834   0.616   7.504   0.174
  631TIP3    H2 1835   0.750   7.569   0.147
  632TIP3   OH2 1836   2.654   2.052   4.271
  632TIP3    H1 1837   2.604   2.059   4.190
  632TIP3    H2 1838   2.694   1.965   4.267
  633TIP3   OH2 1839   4.214   6.087   1.308
  633TIP3    H1 1840   4.235   6.177   1.331
  633TIP3    H2 1841   4.233   6.037   1.388
  634TIP3   OH2 1842   7.179   1.185   2.473
  634TIP3    H1 1843   7.270   1.195   2.446
  634TIP3    H2 1844   7.176   1.222   2.562
  635TIP3   OH2 1845   8.122   0.780   1.843
  635TIP3    H1 1846   8.216   0.793   1.854
  635TIP3    H2 1847   8.089   0.760   1.931
  636TIP3   OH2 1848   6.276   4.597   3.000
  636TIP3    H1 1849   6.324   4.635   3.073
  636TIP3    H2 1850   6.226   4.525   3.039
  637TIP3   OH2 1851   0.431   7.391   5.782
  637TIP3    H1 1852   0.483   7.364   5.706
  637TIP3    H2 1853   0.359   7.442   5.744
  638TIP3   OH2 1854   1.605   7.586   1.134
  638TIP3    H1 1855   1.630   7.623   1.219
  638TIP3    H2 1856   1.510   7.593   1.132
  639TIP3   OH2 1857   6.644   1.324   5.991
  639TIP3    H1 1858   6.697   1.352   5.917
  639TIP3    H2 1859   6.570   1.278   5.952
  640TIP3   OH2 1860   0.405   2.804   3.625
  640TIP3    H1 1861   0.397   2.857   3.704
  640TIP3    H2 1862   0.440   2.720   3.656
  641TIP3   OH2 1863   3.887   1.492   5.842
  641TIP3    H1 1864   3.846   1.517   5.759
  641TIP3    H2 1865   3.934   1.571   5.869
  642TIP3   OH2 1866   5.676   7.406   3.026
  642TIP3    H1 1867   5.646   7.382   3.114
  642TIP3    H2 1868   5.598   7.395   2.971
  643TIP3   OH2 1869   6.646   4.589   4.768
  643TIP3    H1 1870   6.589   4.534   4.716
  643TIP3    H2 1871   6.724   4.602   4.713
  644TIP3   OH2 1872   1.323   0.481   5.223
  644TIP3    H1 1873   1.273   0.513   5.298
  644TIP3    H2 1874   1.397   0.434   5.262
  645TIP3   OH2 1875   3.900   5.134   5.206
  645TIP3    H1 1876   3.856   5.065   5.158
  645TIP3    H2 1877   3.832   5.200   5.221
  646TIP3   OH2 1878   8.025   4.806   3.321
  646TIP3    H1 1879   8.017   4.804   3.225
  646TIP3    H2 1880   8.116   4.783   3.338
  647TIP3   OH2 1881   0.652   5.128   4.557
  647TIP3    H1 1882   0.594   5.125   4.481
  647TIP3    H2 1883   0.685   5.218   4.559
  648TIP3   OH2 1884   4.598   5.632   0.019
  648TIP3    H1 1885   4.678   5.645   0.070
  648TIP3    H2 1886   4.527   5.645   0.081
  649TIP3   OH2 1887   4.440   6.567   5.623
  649TIP3    H1 1888   4.418   6.477   5.647
  649TIP3    H2 1889   4.527   6.561   5.583
  650TIP3   OH2 1890   2.683   3.348   1.413
  650TIP3    H1 1891   2.666   3.344   1.319
  650TIP3    H2 1892   2.598   3.327   1.453
  651TIP3   OH2 1893   4.142   0.646   5.872
  651TIP3    H1 1894   4.051   0.654   5.841
  651TIP3    H2 1895   4.149   0.555   5.902
  652TIP3   OH2 1896   2.798   2.555   4.737
  652TIP3    H1 1897   2.817   2.645   4.765
  652TIP3    H2 1898   2.814   2.556   4.642
  653TIP3   OH2 1899   1.217   1.064   4.115
  653TIP3    H1 1900   1.159   1.141   4.111
  653TIP3    H2 1901   1.158   0.991   4.130
  654TIP3   OH2 1902   5.738   0.450   2.617
  654TIP3    H1 1903   5.651   0.416   2.640
  654TIP3    H2 1904   5.764   0.400   2.539
  655TIP3   OH2 1905   7.205   3.740   2.850
  655TIP3    H1 1906   7.223   3.651   2.880
  655TIP3    H2 1907   7.292   3.782   2.846
  656TIP3   OH2 1908   2.236   7.400   0.840
  656TIP3    H1 1909   2.315   7.349   0.829
  656TIP3    H2 1910   2.245   7.442   0.925
  657TIP3   OH2 1911   2.006   3.100   1.902
  657TIP3    H1 1912   1.951   3.128   1.829
  657TIP3    H2 1913   2.006   3.005   1.897
  658TIP3   OH2 1914   5.514   0.428   3.891
  658TIP3    H1 1915   5.418   0.421   3.886
  658TIP3    H2 1916   5.545   0.339   3.872
  659TIP3   OH2 1917   0.175   0.884   6.013
  659TIP3    H1 1918   0.118   0.942   6.063
  659TIP3    H2 1919   0.132   0.873   5.928
  660TIP3   OH2 1920   3.511   2.993   3.592
  660TIP3    H1 1921   3.541   3.060   3.530
  660TIP3    H2 1922   3.539   2.910   3.554
  661TIP3   OH2 1923   5.374   6.691   0.231
  661TIP3    H1 1924   5.416   6.605   0.233
  661TIP3    H2 1925   5.355   6.710   0.323
  662TIP3   OH2 1926   5.496   1.031   2.111
  662TIP3    H1 1927   5.463   0.998   2.195
  662TIP3    H2 1928   5.514   1.124   2.127
  663TIP3   OH2 1929   1.155   6.636   5.444
  663TIP3    H1 1930   1.091   6.632   5.372
  663TIP3    H2 1931   1.205   6.716   5.427
  664TIP3   OH2 1932   4.689   3.779   3.456
  664TIP3    H1 1933   4.652   3.867   3.444
  664TIP3    H2 1934   4.723   3.756   3.370
  665TIP3   OH2 1935   7.043   3.655   4.337
  665TIP3    H1 1936   6.950   3.643   4.316
  665TIP3    H2 1937   7.063   3.585   4.399
  666TIP3   OH2 1938   1.210   4.900   0.427
  666TIP3    H1 1939   1.248   4.949   0.499
  666TIP3    H2 1940   1.270   4.913   0.354
  667TIP3   OH2 1941   4.396   5.717   4.389
  667TIP3    H1 1942   4.472   5.722   4.332
  667TIP3    H2 1943   4.373   5.624   4.390
  668TIP3   OH2 1944   6.225   1.978   1.318
  668TIP3    H1 1945   6.231   2.057   1.265
  668TIP3    H2 1946   6.143   1.986   1.366
  669TIP3   OH2 1947   4.799   0.054   6.273
  669TIP3    H1 1948   4.778   0.006   6.354
  669TIP3    H2 1949   4.877   0.105   6.294
  670TIP3   OH2 1950   3.105   6.123   2.506
  670TIP3    H1 1951   3.028   6.099   2.454
  670TIP3    H2 1952   3.087   6.089   2.593
  671TIP3   OH2 1953   6.285   7.108   1.424
  671TIP3    H1 1954   6.282   7.202   1.408
  671TIP3    H2 1955   6.269   7.100   1.518
  672TIP3   OH2 1956   8.018   4.052   5.285
  672TIP3    H1 1957   8.086   4.120   5.288
  672TIP3    H2 1958   7.990   4.051   5.194
  673TIP3   OH2 1959   5.558   4.192   2.060
  673TIP3    H1 1960   5.636   4.151   2.097
  673TIP3    H2 1961   5.592   4.267   2.010
  674TIP3   OH2 1962   5.467   7.141   1.903
  674TIP3    H1 1963   5.478   7.214   1.965
  674TIP3    H2 1964   5.547   7.090   1.912
  675TIP3   OH2 1965   3.613   2.754   0.357
  675TIP3    H1 1966   3.575   2.767   0.270
  675TIP3    H2 1967   3.619   2.659   0.367
  676TIP3   OH2 1968   5.535   7.031   2.292
  676TIP3    H1 1969   5.532   6.965   2.223
  676TIP3    H2 1970   5.608   7.087   2.269
  677TIP3   OH2 1971   2.428   1.008   5.920
  677TIP3    H1 1972   2.461   1.097   5.934
  677TIP3    H2 1973   2.466   0.957   5.991
  678TIP3   OH2 1974   3.554   0.147   5.627
  678TIP3    H1 1975   3.533   0.202   5.552
  678TIP3    H2 1976   3.504   0.067   5.613
  679TIP3   OH2 1977   0.965   3.745   5.613
  679TIP3    H1 1978   0.916   3.698   5.545
  679TIP3    H2 1979   1.041   3.689   5.630
  680TIP3   OH2 1980   2.123  -0.027   3.925
  680TIP3    H1 1981   2.171   0.012   3.998
  680TIP3    H2 1982   2.125   0.040   3.856
  681TIP3   OH2 1983   1.799   7.646   6.573
  681TIP3    H1 1984   1.742   7.648   6.649
  681TIP3    H2 1985   1.802   7.736   6.542
  682TIP3   OH2 1986   3.795   7.421   3.765
  682TIP3    H1 1987   3.713   7.470   3.775
  682TIP3    H2 1988   3.817   7.394   3.854
  683TIP3   OH2 1989   8.253   0.036   6.349
  683TIP3    H1 1990   8.173   0.013   6.396
  683TIP3    H2 1991   8.276   0.123   6.382
  684TIP3   OH2 1992   0.636   0.578   1.768
  684TIP3    H1 1993   0.704   0.642   1.789
  684TIP3    H2 1994   0.556   0.613   1.807
  685TIP3   OH2 1995   4.926   3.769   5.190
  685TIP3    H1 1996   4.858   3.763   5.257
  685TIP3    H2 1997   4.933   3.681   5.154
  686TIP3   OH2 1998   0.568   1.901   2.921
  686TIP3    H1 1999   0.577   1.915   3.015
  686TIP3    H2 2000   0.649   1.934   2.883
  687TIP3   OH2 2001   2.707   0.069   2.107
  687TIP3    H1 2002   2.790   0.091   2.066
  687TIP3    H2 2003   2.643   0.076   2.036
  688TIP3   OH2 2004   3.684   0.767   0.458
  688TIP3    H1 2005   3.675   0.705   0.531
  688TIP3    H2 2006   3.760   0.735   0.409
  689TIP3   OH2 2007   6.163   7.321   1.124
  689TIP3    H1 2008   6.210   7.393   1.083
  689TIP3    H2 2009   6.219   7.244   1.112
  690TIP3   OH2 2010   1.804   1.495   5.712
  690TIP3    H1 2011   1.895   1.502   5.684
  690TIP3    H2 2012   1.756   1.472   5.632
  691TIP3   OH2 2013   0.725   1.933   6.460
  691TIP3    H1 2014   0.660   1.893   6.518
  691TIP3    H2 2015   0.729   2.024   6.488
  692TIP3   OH2 2016   0.355   1.538   3.825
  692TIP3    H1 2017   0.303   1.575   3.896
  692TIP3    H2 2018   0.299   1.544   3.748
  693TIP3   OH2 2019   0.904   2.342   2.309
  693TIP3    H1 2020   0.941   2.272   2.255
  693TIP3    H2 2021   0.980   2.381   2.353
  694TIP3   OH2 2022   5.198   3.953   6.079
  694TIP3    H1 2023   5.110   3.933   6.110
  694TIP3    H2 2024   5.204   4.048   6.083
  695TIP3   OH2 2025   5.401   0.280   3.521
  695TIP3    H1 2026   5.491   0.268   3.490
  695TIP3    H2 2027   5.392   0.217   3.593
  696TIP3   OH2 2028   4.301   2.164   6.689
  696TIP3    H1 2029   4.227   2.113   6.655
  696TIP3    H2 2030   4.375   2.102   6.688
  697TIP3   OH2 2031   0.222   6.717   2.985
  697TIP3    H1 2032   0.168   6.796   2.988
  697TIP3    H2 2033   0.271   6.725   2.903
  698TIP3   OH2 2034   2.336  -0.006   2.294
  698TIP3    H1 2035   2.262  -0.018   2.235
  698TIP3    H2 2036   2.326   0.083   2.327
  699TIP3   OH2 2037   7.868   3.759   0.792
  699TIP3    H1 2038   7.818   3.835   0.762
  699TIP3    H2 2039   7.899   3.784   0.879
  700TIP3   OH2 2040   5.986   2.209   2.447
  700TIP3    H1 2041   6.031   2.129   2.475
  700TIP3    H2 2042   5.964   2.192   2.355
  701TIP3   OH2 2043   2.080   4.884   5.837
  701TIP3    H1 2044   2.085   4.976   5.811
  701TIP3    H2 2045   2.135   4.838   5.774
  702TIP3   OH2 2046   5.959   5.161   2.395
  702TIP3    H1 2047   5.949   5.211   2.476
  702TIP3    H2 2048   5.897   5.089   2.404
  703TIP3   OH2 2049   3.286   0.056   2.008
  703TIP3    H1 2050   3.331   0.139   2.022
  703TIP3    H2 2051   3.271   0.022   2.096
  704TIP3   OH2 2052   7.917   4.317   4.982
  704TIP3    H1 2053   8.003   4.356   4.967
  704TIP3    H2 2054   7.935   4.232   5.023
  705TIP3   OH2 2055   7.684   2.918   1.754
  705TIP3    H1 2056   7.643   2.832   1.763
  705TIP3    H2 2057   7.715   2.920   1.663
  706TIP3   OH2 2058   8.247   0.580   5.063
  706TIP3    H1 2059   8.241   0.653   5.125
  706TIP3    H2 2060   8.217   0.617   4.979
  707TIP3   OH2 2061   7.733   1.817   3.736
  707TIP3    H1 2062   7.791   1.806   3.661
  707TIP3    H2 2063   7.791   1.844   3.807
  708TIP3   OH2 2064   4.376   6.335   1.186
  708TIP3    H1 2065   4.314   6.407   1.198
  708TIP3    H2 2066   4.406   6.314   1.274
  709TIP3   OH2 2067   6.714   0.687   0.057
  709TIP3    H1 2068   6.697   0.612   0.001
  709TIP3    H2 2069   6.806   0.709   0.042
  710TIP3   OH2 2070   7.775   2.381   6.404
  710TIP3    H1 2071   7.743   2.351   6.489
  710TIP3    H2 2072   7.711   2.346   6.341
  711TIP3   OH2 2073   6.741   7.521   4.089
  711TIP3    H1 2074   6.678   7.450   4.070
  711TIP3    H2 2075   6.826   7.478   4.087
  712TIP3   OH2 2076   4.897   3.170   6.407
  712TIP3    H1 2077   4.803   3.160   6.392
  712TIP3    H2 2078   4.937   3.098   6.358
  713TIP3   OH2 2079   4.967   4.999   0.922
  713TIP3    H1 2080   4.969   5.035   0.833
  713TIP3    H2 2081   5.039   5.042   0.967
  714TIP3   OH2 2082   0.490   1.119   4.784
  714TIP3    H1 2083   0.564   1.157   4.735
  714TIP3    H2 2084   0.526   1.104   4.872
  715TIP3   OH2 2085   1.523   4.043   3.454
  715TIP3    H1 2086   1.445   3.997   3.485
  715TIP3    H2 2087   1.557   3.988   3.384
  716TIP3   OH2 2088   3.008   4.795   1.317
  716TIP3    H1 2089   3.009   4.707   1.354
  716TIP3    H2 2090   2.947   4.790   1.244
  717TIP3   OH2 2091   5.640   5.446   3.554
  717TIP3    H1 2092   5.545   5.445   3.559
  717TIP3    H2 2093   5.661   5.400   3.473
  718TIP3   OH2 2094   5.076   2.974   6.272
  718TIP3    H1 2095   5.072   2.892   6.222
  718TIP3    H2 2096   5.071   3.043   6.206
  719TIP3   OH2 2097   7.089   4.709   3.119
  719TIP3    H1 2098   7.153   4.780   3.124
  719TIP3    H2 2099   7.016   4.745   3.069
  720TIP3   OH2 2100   2.284   3.354   3.685
  720TIP3    H1 2101   2.287   3.376   3.778
  720TIP3    H2 2102   2.348   3.284   3.675
  721TIP3   OH2 2103   0.983   2.193   6.754
  721TIP3    H1 2104   0.941   2.265   6.708
  721TIP3    H2 2105   1.002   2.227   6.841
  722TIP3   OH2 2106   6.604   2.804   1.890
  722TIP3    H1 2107   6.666   2.841   1.827
  722TIP3    H2 2108   6.617   2.709   1.882
  723TIP3   OH2 2109   1.737   0.669   5.746
  723TIP3    H1 2110   1.680   0.669   5.669
  723TIP3    H2 2111   1.766   0.760   5.755
  724TIP3   OH2 2112   0.702   2.173   1.049
  724TIP3    H1 2113   0.607   2.160   1.040
  724TIP3    H2 2114   0.735   2.167   0.959
  725TIP3   OH2 2115   1.611   3.775   3.892
  725TIP3    H1 2116   1.577   3.863   3.873
  725TIP3    H2 2117   1.581   3.722   3.818
  726TIP3   OH2 2118   4.820   3.878   5.447
  726TIP3    H1 2119   4.751   3.945   5.453
  726TIP3    H2 2120   4.900   3.928   5.432
  727TIP3   OH2 2121   3.928   1.036   6.344
  727TIP3    H1 2122   3.876   1.116   6.353
  727TIP3    H2 2123   3.868   0.973   6.304
  728TIP3   OH2 2124   2.196   0.726   2.599
  728TIP3    H1 2125   2.255   0.790   2.637
  728TIP3    H2 2126   2.116   0.775   2.579
  729TIP3   OH2 2127   0.151   3.736   1.519
  729TIP3    H1 2128   0.086   3.671   1.545
  729TIP3    H2 2129   0.150   3.802   1.589
  730TIP3   OH2 2130   5.110   5.883   4.623
  730TIP3    H1 2131   5.129   5.946   4.693
  730TIP3    H2 2132   5.078   5.805   4.669
  731TIP3   OH2 2133   0.706   3.582   1.472
  731TIP3    H1 2134   0.692   3.543   1.559
  731TIP3    H2 2135   0.689   3.675   1.485
  732TIP3   OH2 2136   7.652   2.335   3.465
  732TIP3    H1 2137   7.613   2.417   3.494
  732TIP3    H2 2138   7.657   2.343   3.370
  733TIP3   OH2 2139   7.787   0.732   0.414
  733TIP3    H1 2140   7.856   0.788   0.451
  733TIP3    H2 2141   7.768   0.669   0.484
  734TIP3   OH2 2142   3.508   6.801   2.705
  734TIP3    H1 2143   3.530   6.890   2.677
  734TIP3    H2 2144   3.463   6.813   2.788
  735TIP3   OH2 2145   3.146   4.835   1.661
  735TIP3    H1 2146   3.219   4.894   1.641
  735TIP3    H2 2147   3.168   4.754   1.616
  736TIP3   OH2 2148   5.112   3.999   5.240
  736TIP3    H1 2149   5.063   3.939   5.182
  736TIP3    H2 2150   5.165   4.052   5.180
  737TIP3   OH2 2151   3.715   4.216   4.693
  737TIP3    H1 2152   3.699   4.126   4.665
  737TIP3    H2 2153   3.685   4.270   4.620
  738TIP3   OH2 2154   2.042   7.115   3.306
  738TIP3    H1 2155   2.073   7.028   3.329
  738TIP3    H2 2156   1.947   7.112   3.320
  739TIP3   OH2 2157   4.536   2.441   6.540
  739TIP3    H1 2158   4.533   2.534   6.562
  739TIP3    H2 2159   4.445   2.417   6.523
  740TIP3   OH2 2160   1.864   0.528   4.744
  740TIP3    H1 2161   1.936   0.592   4.743
  740TIP3    H2 2162   1.789   0.578   4.775
  741TIP3   OH2 2163   7.850   7.355   1.078
  741TIP3    H1 2164   7.926   7.317   1.122
  741TIP3    H2 2165   7.812   7.414   1.143
  742TIP3   OH2 2166   0.651   5.604   5.780
  742TIP3    H1 2167   0.695   5.621   5.697
  742TIP3    H2 2168   0.654   5.688   5.826
  743TIP3   OH2 2169   2.086   0.269   0.933
  743TIP3    H1 2170   2.079   0.364   0.940
  743TIP3    H2 2171   2.179   0.252   0.918
  744TIP3   OH2 2172   6.502   1.736   0.698
  744TIP3    H1 2173   6.534   1.730   0.608
  744TIP3    H2 2174   6.570   1.784   0.745
  745TIP3   OH2 2175   4.773   2.126   0.813
  745TIP3    H1 2176   4.678   2.122   0.805
  745TIP3    H2 2177   4.799   2.200   0.756
  746TIP3   OH2 2178   7.198   4.732   2.080
  746TIP3    H1 2179   7.216   4.796   2.148
  746TIP3    H2 2180   7.261   4.662   2.095
  747TIP3   OH2 2181   3.867   3.481   2.524
  747TIP3    H1 2182   3.855   3.397   2.481
  747TIP3    H2 2183   3.875   3.544   2.453
  748TIP3   OH2 2184   0.532   0.650   2.433
  748TIP3    H1 2185   0.600   0.698   2.480
  748TIP3    H2 2186   0.482   0.605   2.501
  749TIP3   OH2 2187   1.752   2.160   1.804
  749TIP3    H1 2188   1.747   2.065   1.788
  749TIP3    H2 2189   1.661   2.189   1.804
  750TIP3   OH2 2190   1.600   6.515   6.886
  750TIP3    H1 2191   1.681   6.502   6.836
  750TIP3    H2 2192   1.614   6.595   6.935
  751TIP3   OH2 2193   0.634   0.409   2.954
  751TIP3    H1 2194   0.573   0.394   3.026
  751TIP3    H2 2195   0.609   0.346   2.887
  752TIP3   OH2 2196   4.618   2.783   2.603
  752TIP3    H1 2197   4.558   2.857   2.593
  752TIP3    H2 2198   4.626   2.770   2.697
  753TIP3   OH2 2199   6.121   1.531   4.489
  753TIP3    H1 2200   6.124   1.445   4.447
  753TIP3    H2 2201   6.209   1.566   4.480
  754TIP3   OH2 2202   3.952   7.855   5.069
  754TIP3    H1 2203   3.909   7.932   5.105
  754TIP3    H2 2204   3.885   7.814   5.013
  755TIP3   OH2 2205   8.094   2.379   3.562
  755TIP3    H1 2206   8.044   2.435   3.503
  755TIP3    H2 2207   8.123   2.438   3.632
  756TIP3   OH2 2208   7.720   7.259   3.542
  756TIP3    H1 2209   7.733   7.353   3.556
  756TIP3    H2 2210   7.809   7.222   3.546
  757TIP3   OH2 2211   5.543   4.154   6.315
  757TIP3    H1 2212   5.586   4.157   6.230
  757TIP3    H2 2213   5.557   4.064   6.346
  758TIP3   OH2 2214   0.465   0.866   4.064
  758TIP3    H1 2215   0.385   0.814   4.070
  758TIP3    H2 2216   0.520   0.834   4.136
  759TIP3   OH2 2217   3.008   1.700   1.683
  759TIP3    H1 2218   3.014   1.707   1.779
  759TIP3    H2 2219   2.947   1.769   1.658
  760TIP3   OH2 2220   5.687   5.120   3.007
  760TIP3    H1 2221   5.675   5.026   2.992
  760TIP3    H2 2222   5.707   5.126   3.101
  761TIP3   OH2 2223   3.231   2.625   1.949
  761TIP3    H1 2224   3.156   2.584   1.992
  761TIP3    H2 2225   3.292   2.644   2.021
  762TIP3   OH2 2226   3.263   4.383   4.375
  762TIP3    H1 2227   3.193   4.447   4.381
  762TIP3    H2 2228   3.222   4.306   4.334
  763TIP3   OH2 2229   2.692   4.791   0.886
  763TIP3    H1 2230   2.702   4.799   0.791
  763TIP3    H2 2231   2.622   4.852   0.908
  764TIP3   OH2 2232   7.367   7.517   5.840
  764TIP3    H1 2233   7.389   7.515   5.747
  764TIP3    H2 2234   7.413   7.594   5.874
  765TIP3   OH2 2235   0.934   7.567   6.122
  765TIP3    H1 2236   0.963   7.487   6.080
  765TIP3    H2 2237   0.915   7.541   6.212
  766TIP3   OH2 2238   4.831   7.068   2.254
  766TIP3    H1 2239   4.779   7.015   2.193
  766TIP3    H2 2240   4.873   7.134   2.198
  767TIP3   OH2 2241   2.253   3.073   3.191
  767TIP3    H1 2242   2.244   3.133   3.116
  767TIP3    H2 2243   2.285   2.991   3.152
  768TIP3   OH2 2244   1.987   7.852   2.191
  768TIP3    H1 2245   1.920   7.914   2.163
  768TIP3    H2 2246   1.984   7.855   2.286
  769TIP3   OH2 2247   1.091   2.013   5.156
  769TIP3    H1 2248   1.132   2.086   5.111
  769TIP3    H2 2249   1.119   1.935   5.108
  770TIP3   OH2 2250   6.377   2.610   3.442
  770TIP3    H1 2251   6.417   2.669   3.505
  770TIP3    H2 2252   6.331   2.545   3.495
  771TIP3   OH2 2253   6.900   0.142   6.635
  771TIP3    H1 2254   6.952   0.069   6.670
  771TIP3    H2 2255   6.861   0.107   6.554
  772TIP3   OH2 2256   0.080   1.687   2.686
  772TIP3    H1 2257   0.017   1.648   2.746
  772TIP3    H2 2258   0.071   1.637   2.605
  773TIP3   OH2 2259   7.994   3.328   5.865
  773TIP3    H1 2260   8.010   3.345   5.772
  773TIP3    H2 2261   7.968   3.237   5.868
  774TIP3   OH2 2262   5.136   3.542   0.036
  774TIP3    H1 2263   5.181   3.566  -0.045
  774TIP3    H2 2264   5.069   3.479   0.009
  775TIP3   OH2 2265   2.883   6.365   2.159
  775TIP3    H1 2266   2.953   6.359   2.223
  775TIP3    H2 2267   2.926   6.349   2.075
  776TIP3   OH2 2268   7.950   6.454   1.255
  776TIP3    H1 2269   7.901   6.386   1.301
  776TIP3    H2 2270   7.999   6.407   1.187
  777TIP3   OH2 2271   5.031   4.070   5.500
  777TIP3    H1 2272   5.076   3.993   5.535
  777TIP3    H2 2273   5.057   4.072   5.407
  778TIP3   OH2 2274   2.732   4.544   2.719
  778TIP3    H1 2275   2.785   4.580   2.791
  778TIP3    H2 2276   2.646   4.528   2.758
  779TIP3   OH2 2277   7.658   3.311   3.511
  779TIP3    H1 2278   7.608   3.284   3.434
  779TIP3    H2 2279   7.744   3.272   3.499
  780TIP3   OH2 2280   7.557   4.244   1.952
  780TIP3    H1 2281   7.494   4.312   1.976
  780TIP3    H2 2282   7.502   4.171   1.921
  781TIP3   OH2 2283   2.528   4.224   0.086
  781TIP3    H1 2284   2.503   4.239   0.177
  781TIP3    H2 2285   2.495   4.136   0.065
  782TIP3   OH2 2286   0.355   0.522   2.251
  782TIP3    H1 2287   0.433   0.565   2.285
  782TIP3    H2 2288   0.282   0.563   2.297
  783TIP3   OH2 2289   1.961   3.413   5.811
  783TIP3    H1 2290   1.989   3.453   5.893
  783TIP3    H2 2291   1.955   3.320   5.830
  784TIP3   OH2 2292   8.038   4.233   3.768
  784TIP3    H1 2293   8.036   4.233   3.864
  784TIP3    H2 2294   8.089   4.155   3.745
  785TIP3   OH2 2295   7.440   0.762   0.543
  785TIP3    H1 2296   7.348   0.753   0.518
  785TIP3    H2 2297   7.483   0.688   0.500
  786TIP3   OH2 2298   5.493   7.900   2.344
  786TIP3    H1 2299   5.493   7.994   2.365
  786TIP3    H2 2300   5.527   7.858   2.422
  787TIP3   OH2 2301   2.170   0.456   3.674
  787TIP3    H1 2302   2.100   0.506   3.716
  787TIP3    H2 2303   2.202   0.512   3.604
  788TIP3   OH2 2304   0.005   5.244   5.670
  788TIP3    H1 2305   0.086   5.203   5.642
  788TIP3    H2 2306  -0.019   5.199   5.751
  789TIP3   OH2 2307   2.122   2.197   6.001
  789TIP3    H1 2308   2.129   2.159   6.088
  789TIP3    H2 2309   2.110   2.122   5.942
  790TIP3   OH2 2310   1.953   5.454   4.958
  790TIP3    H1 2311   1.993   5.537   4.934
  790TIP3    H2 2312   1.973   5.396   4.884
  791TIP3   OH2 2313   4.949   7.065   1.167
  791TIP3    H1 2314   4.916   7.028   1.085
  791TIP3    H2 2315   5.039   7.091   1.147
  792TIP3   OH2 2316   7.138   5.937   2.047
  792TIP3    H1 2317   7.130   5.985   2.129
  792TIP3    H2 2318   7.055   5.890   2.038
  793TIP3   OH2 2319   4.182   5.266   2.782
  793TIP3    H1 2320   4.261   5.263   2.836
  793TIP3    H2 2321   4.112   5.234   2.840
  794TIP3   OH2 2322   0.235   4.519   3.812
  794TIP3    H1 2323   0.228   4.470   3.730
  794TIP3    H2 2324   0.169   4.479   3.869
  795TIP3   OH2 2325   4.783   5.642   3.166
  795TIP3    H1 2326   4.697   5.618   3.132
  795TIP3    H2 2327   4.842   5.631   3.091
  796TIP3   OH2 2328   6.954   1.042   2.404
  796TIP3    H1 2329   7.023   1.103   2.431
  796TIP3    H2 2330   6.873   1.089   2.421
  797TIP3   OH2 2331   4.250   1.833   1.063
  797TIP3    H1 2332   4.212   1.748   1.040
  797TIP3    H2 2333   4.217   1.893   0.996
  798TIP3   OH2 2334   8.163   5.308   5.404
  798TIP3    H1 2335   8.247   5.346   5.428
  798TIP3    H2 2336   8.118   5.296   5.487
  799TIP3   OH2 2337   4.211   6.525   5.285
  799TIP3    H1 2338   4.204   6.534   5.380
  799TIP3    H2 2339   4.120   6.531   5.254
  800TIP3   OH2 2340   1.734   2.230   4.898
  800TIP3    H1 2341   1.806   2.167   4.902
  800TIP3    H2 2342   1.724   2.260   4.989
  801TIP3   OH2 2343   3.216   2.283   6.124
  801TIP3    H1 2344   3.260   2.367   6.110
  801TIP3    H2 2345   3.140   2.285   6.066
  802TIP3   OH2 2346   3.939   6.541   5.244
  802TIP3    H1 2347   3.877   6.573   5.310
  802TIP3    H2 2348   3.937   6.445   5.255
  803TIP3   OH2 2349   3.674   0.574   0.664
  803TIP3    H1 2350   3.592   0.557   0.712
  803TIP3    H2 2351   3.741   0.576   0.733
  804TIP3   OH2 2352   6.831   3.377   0.415
  804TIP3    H1 2353   6.885   3.320   0.360
  804TIP3    H2 2354   6.859   3.357   0.505
  805TIP3   OH2 2355   3.890   4.748   1.815
  805TIP3    H1 2356   3.953   4.680   1.793
  805TIP3    H2 2357   3.904   4.764   1.909
  806TIP3   OH2 2358   2.795   3.450   5.992
  806TIP3    H1 2359   2.738   3.462   6.068
  806TIP3    H2 2360   2.810   3.539   5.960
  807TIP3   OH2 2361   2.351   2.178   3.125
  807TIP3    H1 2362   2.351   2.273   3.120
  807TIP3    H2 2363   2.402   2.158   3.203
  808TIP3   OH2 2364   5.084   2.540   6.627
  808TIP3    H1 2365   5.081   2.568   6.536
  808TIP3    H2 2366   5.072   2.445   6.623
  809TIP3   OH2 2367   5.607   5.331   2.845
  809TIP3    H1 2368   5.659   5.266   2.892
  809TIP3    H2 2369   5.665   5.363   2.776
  810TIP3   OH2 2370   0.264   3.639   5.351
  810TIP3    H1 2371   0.168   3.645   5.357
  810TIP3    H2 2372   0.284   3.664   5.261
  811TIP3   OH2 2373   5.159   0.521   6.569
  811TIP3    H1 2374   5.230   0.507   6.506
  811TIP3    H2 2375   5.202   0.561   6.645
  812TIP3   OH2 2376   3.237   3.164   5.686
  812TIP3    H1 2377   3.150   3.178   5.648
  812TIP3    H2 2378   3.243   3.229   5.757
  813TIP3   OH2 2379   2.774   2.607   2.406
  813TIP3    H1 2380   2.793   2.544   2.337
  813TIP3    H2 2381   2.835   2.679   2.389
  814TIP3   OH2 2382   7.967   4.992   5.568
  814TIP3    H1 2383   7.995   5.082   5.586
  814TIP3    H2 2384   8.049   4.944   5.551
  815TIP3   OH2 2385   3.909   6.237   6.053
  815TIP3    H1 2386   3.928   6.215   5.962
  815TIP3    H2 2387   3.977   6.193   6.103
  816TIP3   OH2 2388   0.089   6.246   3.681
  816TIP3    H1 2389   0.073   6.254   3.775
  816TIP3    H2 2390   0.122   6.332   3.655
  817TIP3   OH2 2391   4.010   2.863   2.108
  817TIP3    H1 2392   3.935   2.819   2.148
  817TIP3    H2 2393   4.065   2.890   2.181
  818TIP3   OH2 2394   4.257   5.628   2.390
  818TIP3    H1 2395   4.224   5.606   2.302
  818TIP3    H2 2396   4.349   5.603   2.388
  819TIP3   OH2 2397   4.716   1.203   6.526
  819TIP3    H1 2398   4.749   1.277   6.475
  819TIP3    H2 2399   4.737   1.226   6.616
  820TIP3   OH2 2400   3.224   0.998   0.170
  820TIP3    H1 2401   3.296   1.043   0.125
  820TIP3    H2 2402   3.219   0.912   0.127
  821TIP3   OH2 2403   7.256   4.298   4.867
  821TIP3    H1 2404   7.301   4.282   4.784
  821TIP3    H2 2405   7.326   4.319   4.929
  822TIP3   OH2 2406   3.363   2.052   6.177
  822TIP3    H1 2407   3.384   2.039   6.269
  822TIP3    H2 2408   3.337   2.144   6.171
  823TIP3   OH2 2409   8.154   0.768   0.358
  823TIP3    H1 2410   8.171   0.813   0.276
  823TIP3    H2 2411   8.098   0.828   0.407
  824TIP3   OH2 2412   3.342   7.264   2.860
  824TIP3    H1 2413   3.388   7.329   2.806
  824TIP3    H2 2414   3.399   7.252   2.936
  825TIP3   OH2 2415   6.974   6.060   4.605
  825TIP3    H1 2416   7.005   6.113   4.531
  825TIP3    H2 2417   7.006   6.106   4.683
  826TIP3   OH2 2418   8.267   0.286   5.523
  826TIP3    H1 2419   8.246   0.360   5.466
  826TIP3    H2 2420   8.276   0.212   5.463
  827TIP3   OH2 2421   1.661   1.344   6.438
  827TIP3    H1 2422   1.635   1.273   6.379
  827TIP3    H2 2423   1.677   1.418   6.380
  828TIP3   OH2 2424   0.960   6.545   4.531
  828TIP3    H1 2425   0.965   6.625   4.583
  828TIP3    H2 2426   1.004   6.567   4.449
  829TIP3   OH2 2427   4.865   1.695   0.452
  829TIP3    H1 2428   4.774   1.674   0.433
  829TIP3    H2 2429   4.901   1.615   0.491
  830TIP3   OH2 2430   0.628   0.512   5.215
  830TIP3    H1 2431   0.680   0.434   5.237
  830TIP3    H2 2432   0.596   0.544   5.300
  831TIP3   OH2 2433   7.866   1.330   2.201
  831TIP3    H1 2434   7.859   1.351   2.108
  831TIP3    H2 2435   7.956   1.298   2.211
  832TIP3   OH2 2436   5.151   4.109   2.662
  832TIP3    H1 2437   5.201   4.182   2.626
  832TIP3    H2 2438   5.171   4.111   2.756
  833TIP3   OH2 2439   3.192   4.120   5.285
  833TIP3    H1 2440   3.139   4.090   5.211
  833TIP3    H2 2441   3.278   4.139   5.247
  834TIP3   OH2 2442   3.525   0.180   0.433
  834TIP3    H1 2443   3.462   0.214   0.496
  834TIP3    H2 2444   3.596   0.245   0.432
  835TIP3   OH2 2445   2.739   4.177   4.445
  835TIP3    H1 2446   2.688   4.102   4.476
  835TIP3    H2 2447   2.766   4.153   4.357
  836TIP3   OH2 2448   6.422   6.102   1.123
  836TIP3    H1 2449   6.500   6.058   1.157
  836TIP3    H2 2450   6.453   6.149   1.045
  837TIP3   OH2 2451   0.008   5.148   0.563
  837TIP3    H1 2452  -0.007   5.233   0.605
  837TIP3    H2 2453   0.046   5.171   0.478
  838TIP3   OH2 2454   5.586   4.827   4.295
  838TIP3    H1 2455   5.585   4.917   4.264
  838TIP3    H2 2456   5.502   4.815   4.339
  839TIP3   OH2 2457   0.304   0.758   2.895
  839TIP3    H1 2458   0.308   0.767   2.991
  839TIP3    H2 2459   0.377   0.701   2.874
  840TIP3   OH2 2460   4.686   1.644   0.142
  840TIP3    H1 2461   4.642   1.649   0.227
  840TIP3    H2 2462   4.779   1.632   0.165
  841TIP3   OH2 2463   4.853   2.472   2.863
  841TIP3    H1 2464   4.927   2.529   2.883
  841TIP3    H2 2465   4.884   2.416   2.792
  842TIP3   OH2 2466   3.917   6.500   4.394
  842TIP3    H1 2467   3.868   6.425   4.430
  842TIP3    H2 2468   3.978   6.525   4.463
  843TIP3   OH2 2469   3.957   4.078   2.168
  843TIP3    H1 2470   4.000   4.149   2.215
  843TIP3    H2 2471   3.865   4.083   2.195
  844TIP3   OH2 2472   7.223   4.120   0.715
  844TIP3    H1 2473   7.175   4.082   0.641
  844TIP3    H2 2474   7.249   4.207   0.684
  845TIP3   OH2 2475   5.666   0.691   6.683
  845TIP3    H1 2476   5.723   0.660   6.613
  845TIP3    H2 2477   5.712   0.669   6.764
  846TIP3   OH2 2478   4.232   0.393   5.966
  846TIP3    H1 2479   4.229   0.390   6.062
  846TIP3    H2 2480   4.268   0.308   5.941
  847TIP3   OH2 2481   2.864   2.758   4.915
  847TIP3    H1 2482   2.780   2.804   4.914
  847TIP3    H2 2483   2.927   2.823   4.948
  848TIP3   OH2 2484   3.051   0.699   5.738
  848TIP3    H1 2485   3.069   0.716   5.646
  848TIP3    H2 2486   3.117   0.750   5.785
  849TIP3   OH2 2487   7.914   5.694   0.146
  849TIP3    H1 2488   7.824   5.679   0.173
  849TIP3    H2 2489   7.946   5.762   0.206
  850TIP3   OH2 2490   2.334   7.652   1.505
  850TIP3    H1 2491   2.349   7.724   1.443
  850TIP3    H2 2492   2.363   7.687   1.589
  851TIP3   OH2 2493   0.028   6.535   5.033
  851TIP3    H1 2494   0.014   6.561   5.124
  851TIP3    H2 2495  -0.015   6.604   4.982
  852TIP3   OH2 2496   5.751   7.381   2.613
  852TIP3    H1 2497   5.670   7.389   2.563
  852TIP3    H2 2498   5.820   7.406   2.552
  853TIP3   OH2 2499   0.997   3.443   6.884
  853TIP3    H1 2500   1.045   3.386   6.824
  853TIP3    H2 2501   0.959   3.511   6.828
  854TIP3   OH2 2502   0.384   7.759   4.935
  854TIP3    H1 2503   0.293   7.761   4.906
  854TIP3    H2 2504   0.412   7.669   4.921
  855TIP3   OH2 2505   8.195   1.497   4.853
  855TIP3    H1 2506   8.165   1.535   4.770
  855TIP3    H2 2507   8.289   1.513   4.854
  856TIP3   OH2 2508   8.361   3.292   6.511
  856TIP3    H1 2509   8.433   3.234   6.534
  856TIP3    H2 2510   8.301   3.288   6.586
  857TIP3   OH2 2511   8.132   1.347   5.848
  857TIP3    H1 2512   8.108   1.289   5.776
  857TIP3    H2 2513   8.054   1.353   5.902
  858TIP3   OH2 2514   7.043   1.159   4.032
  858TIP3    H1 2515   7.128   1.169   3.988
  858TIP3    H2 2516   7.003   1.246   4.026
  859TIP3   OH2 2517   3.000   1.605   1.995
  859TIP3    H1 2518   3.052   1.608   2.076
  859TIP3    H2 2519   3.030   1.525   1.951
  860TIP3   OH2 2520   7.672   6.664   6.128
  860TIP3    H1 2521   7.754   6.700   6.161
  860TIP3    H2 2522   7.629   6.738   6.085
  861TIP3   OH2 2523   8.190   1.311   4.368
  861TIP3    H1 2524   8.112   1.353   4.333
  861TIP3    H2 2525   8.263   1.360   4.330
  862TIP3   OH2 2526   0.835   7.404   5.303
  862TIP3    H1 2527   0.888   7.331   5.334
  862TIP3    H2 2528   0.891   7.450   5.240
  863TIP3   OH2 2529   1.827   3.144   1.695
  863TIP3    H1 2530   1.764   3.209   1.664
  863TIP3    H2 2531   1.892   3.138   1.625
  864TIP3   OH2 2532   0.273   0.408   4.699
  864TIP3    H1 2533   0.318   0.433   4.779
  864TIP3    H2 2534   0.181   0.402   4.724
  865TIP3   OH2 2535   5.109   0.570   4.028
  865TIP3    H1 2536   5.168   0.518   3.974
  865TIP3    H2 2537   5.024   0.527   4.020
  866TIP3   OH2 2538   1.649   0.432   6.528
  866TIP3    H1 2539   1.580   0.479   6.576
  866TIP3    H2 2540   1.604   0.397   6.450
  867TIP3   OH2 2541   3.626   2.584   0.976
  867TIP3    H1 2542   3.624   2.669   0.934
  867TIP3    H2 2543   3.591   2.599   1.064
  868TIP3   OH2 2544   3.462   4.920   4.349
  868TIP3    H1 2545   3.503   4.847   4.302
  868TIP3    H2 2546   3.380   4.883   4.383
  869TIP3   OH2 2547   8.398   6.399   2.428
  869TIP3    H1 2548   8.475   6.352   2.396
  869TIP3    H2 2549   8.410   6.402   2.522
  870TIP3   OH2 2550   6.223   5.660   0.617
  870TIP3    H1 2551   6.138   5.688   0.584
  870TIP3    H2 2552   6.273   5.638   0.539
  871TIP3   OH2 2553   4.793   5.223   1.556
  871TIP3    H1 2554   4.824   5.287   1.491
  871TIP3    H2 2555   4.698   5.217   1.540
  872TIP3   OH2 2556   3.576   1.866   2.547
  872TIP3    H1 2557   3.622   1.921   2.485
  872TIP3    H2 2558   3.584   1.912   2.631
  873TIP3   OH2 2559   3.753   1.205   6.610
  873TIP3    H1 2560   3.709   1.128   6.646
  873TIP3    H2 2561   3.728   1.206   6.517
  874TIP3   OH2 2562   1.925   6.689   2.782
  874TIP3    H1 2563   1.839   6.652   2.762
  874TIP3    H2 2564   1.987   6.624   2.750
  875TIP3   OH2 2565   3.701   0.994   0.298
  875TIP3    H1 2566   3.725   0.923   0.358
  875TIP3    H2 2567   3.623   1.034   0.338
  876TIP3   OH2 2568   4.443   7.398   3.490
  876TIP3    H1 2569   4.404   7.338   3.553
  876TIP3    H2 2570   4.495   7.458   3.544
  877TIP3   OH2 2571   2.512   4.799   4.744
  877TIP3    H1 2572   2.508   4.836   4.832
  877TIP3    H2 2573   2.439   4.840   4.697
  878TIP3   OH2 2574   4.262   0.469   2.219
  878TIP3    H1 2575   4.230   0.500   2.304
  878TIP3    H2 2576   4.202   0.397   2.196
  879TIP3   OH2 2577   1.143   7.703   0.307
  879TIP3    H1 2578   1.191   7.622   0.292
  879TIP3    H2 2579   1.091   7.687   0.386
  880TIP3   OH2 2580   5.582   7.758   0.378
  880TIP3    H1 2581   5.507   7.746   0.320
  880TIP3    H2 2582   5.621   7.841   0.350
  881TIP3   OH2 2583   2.706   4.813   6.183
  881TIP3    H1 2584   2.627   4.759   6.186
  881TIP3    H2 2585   2.754   4.781   6.106
  882TIP3   OH2 2586   0.368   6.519  -0.015
  882TIP3    H1 2587   0.306   6.586   0.015
  882TIP3    H2 2588   0.454   6.557   0.003
  883TIP3   OH2 2589   4.131   1.618   2.111
  883TIP3    H1 2590   4.076   1.578   2.178
  883TIP3    H2 2591   4.184   1.546   2.077
  884TIP3   OH2 2592   3.049   3.613   2.803
  884TIP3    H1 2593   3.041   3.517   2.798
  884TIP3    H2 2594   3.000   3.645   2.727
  885TIP3   OH2 2595   8.096   4.342   0.515
  885TIP3    H1 2596   8.099   4.432   0.483
  885TIP3    H2 2597   8.115   4.289   0.437
  886TIP3   OH2 2598   6.137   2.758   1.589
  886TIP3    H1 2599   6.095   2.841   1.610
  886TIP3    H2 2600   6.203   2.747   1.658
  887TIP3   OH2 2601   3.047   2.254   6.727
  887TIP3    H1 2602   3.137   2.277   6.751
  887TIP3    H2 2603   2.993   2.323   6.766
  888TIP3   OH2 2604   3.623   5.641   6.356
  888TIP3    H1 2605   3.580   5.662   6.273
  888TIP3    H2 2606   3.645   5.548   6.349
  889TIP3   OH2 2607   8.058   7.420   5.099
  889TIP3    H1 2608   8.094   7.471   5.027
  889TIP3    H2 2609   8.007   7.350   5.057
  890TIP3   OH2 2610   3.614   4.893   5.707
  890TIP3    H1 2611   3.565   4.950   5.767
  890TIP3    H2 2612   3.617   4.943   5.625
  891TIP3   OH2 2613   3.628   4.029   6.813
  891TIP3    H1 2614   3.627   4.082   6.734
  891TIP3    H2 2615   3.705   4.059   6.861
  892TIP3   OH2 2616   3.893   0.568   0.843
  892TIP3    H1 2617   3.962   0.634   0.845
  892TIP3    H2 2618   3.891   0.533   0.932
  893TIP3   OH2 2619   0.500   7.506   2.562
  893TIP3    H1 2620   0.570   7.485   2.624
  893TIP3    H2 2621   0.466   7.591   2.592
  894TIP3   OH2 2622   8.234   2.653   2.969
  894TIP3    H1 2623   8.233   2.558   2.956
  894TIP3    H2 2624   8.327   2.677   2.961
  895TIP3   OH2 2625   4.527   2.309   0.249
  895TIP3    H1 2626   4.593   2.275   0.189
  895TIP3    H2 2627   4.549   2.269   0.333
  896TIP3   OH2 2628   0.064   3.847   1.765
  896TIP3    H1 2629   0.023   3.847   1.852
  896TIP3    H2 2630   0.025   3.922   1.720
  897TIP3   OH2 2631   0.591   6.668   2.476
  897TIP3    H1 2632   0.547   6.589   2.445
  897TIP3    H2 2633   0.521   6.734   2.481
  898TIP3   OH2 2634   6.143   2.581   4.697
  898TIP3    H1 2635   6.135   2.552   4.606
  898TIP3    H2 2636   6.067   2.542   4.741
  899TIP3   OH2 2637   0.786   2.763   4.851
  899TIP3    H1 2638   0.844   2.835   4.874
  899TIP3    H2 2639   0.700   2.804   4.838
  900TIP3   OH2 2640   4.487   4.128   3.678
  900TIP3    H1 2641   4.408   4.092   3.637
  900TIP3    H2 2642   4.454   4.192   3.741
  901TIP3   OH2 2643   0.544   7.870   3.318
  901TIP3    H1 2644   0.570   7.797   3.374
  901TIP3    H2 2645   0.449   7.875   3.327
  902TIP3   OH2 2646   4.819   1.665   4.578
  902TIP3    H1 2647   4.765   1.590   4.553
  902TIP3    H2 2648   4.767   1.741   4.551
  903TIP3   OH2 2649   3.694   1.086   4.040
  903TIP3    H1 2650   3.681   1.181   4.042
  903TIP3    H2 2651   3.776   1.072   4.087
  904TIP3   OH2 2652   0.992   3.275   2.645
  904TIP3    H1 2653   0.994   3.181   2.664
  904TIP3    H2 2654   0.978   3.281   2.551
  905TIP3   OH2 2655   1.827   0.264   1.669
  905TIP3    H1 2656   1.756   0.254   1.731
  905TIP3    H2 2657   1.792   0.230   1.586
  906TIP3   OH2 2658   5.333   0.423   6.339
  906TIP3    H1 2659   5.405   0.393   6.394
  906TIP3    H2 2660   5.319   0.352   6.276
  907TIP3   OH2 2661   3.271   0.679   1.209
  907TIP3    H1 2662   3.298   0.621   1.281
  907TIP3    H2 2663   3.241   0.759   1.252
  908TIP3   OH2 2664   5.914   4.986   0.190
  908TIP3    H1 2665   5.998   5.015   0.225
  908TIP3    H2 2666   5.923   4.891   0.182
  909TIP3   OH2 2667   1.902   6.121   1.579
  909TIP3    H1 2668   1.893   6.142   1.672
  909TIP3    H2 2669   1.833   6.171   1.536
  910TIP3   OH2 2670   5.576   6.425   3.765
  910TIP3    H1 2671   5.507   6.489   3.784
  910TIP3    H2 2672   5.636   6.431   3.839
  911TIP3   OH2 2673   3.141   4.049   5.541
  911TIP3    H1 2674   3.150   4.088   5.454
  911TIP3    H2 2675   3.167   4.118   5.601
  912TIP3   OH2 2676   5.655   5.914   6.548
  912TIP3    H1 2677   5.740   5.934   6.508
  912TIP3    H2 2678   5.629   5.831   6.507
  913TIP3   OH2 2679   1.195   4.095   2.496
  913TIP3    H1 2680   1.259   4.074   2.427
  913TIP3    H2 2681   1.219   4.182   2.526
  914TIP3   OH2 2682   4.596   7.679   6.313
  914TIP3    H1 2683   4.581   7.699   6.220
  914TIP3    H2 2684   4.678   7.630   6.314
  915TIP3   OH2 2685   2.392   0.412   5.666
  915TIP3    H1 2686   2.345   0.416   5.749
  915TIP3    H2 2687   2.334   0.458   5.604
  916TIP3   OH2 2688   4.289   3.938   4.682
  916TIP3    H1 2689   4.262   3.990   4.607
  916TIP3    H2 2690   4.208   3.918   4.729
  917TIP3   OH2 2691   2.535   5.431   2.170
  917TIP3    H1 2692   2.520   5.439   2.076
  917TIP3    H2 2693   2.521   5.338   2.189
  918TIP3   OH2 2694   5.158   6.313   2.227
  918TIP3    H1 2695   5.139   6.251   2.297
  918TIP3    H2 2696   5.134   6.398   2.264
  919TIP3   OH2 2697   3.123   6.238   4.014
  919TIP3    H1 2698   3.054   6.285   4.061
  919TIP3    H2 2699   3.109   6.259   3.922
  920TIP3   OH2 2700   4.631   7.758   6.046
  920TIP3    H1 2701   4.706   7.817   6.038
  920TIP3    H2 2702   4.617   7.724   5.958
  921TIP3   OH2 2703   5.397   6.116   2.347
  921TIP3    H1 2704   5.474   6.099   2.293
  921TIP3    H2 2705   5.389   6.211   2.348
  922TIP3   OH2 2706   0.603   1.993   6.215
  922TIP3    H1 2707   0.520   2.036   6.236
  922TIP3    H2 2708   0.648   1.986   6.299
  923TIP3   OH2 2709   4.530   1.880   0.116
  923TIP3    H1 2710   4.598   1.816   0.137
  923TIP3    H2 2711   4.496   1.852   0.031
  924TIP3   OH2 2712   6.091   6.868   1.535
  924TIP3    H1 2713   6.121   6.804   1.470
  924TIP3    H2 2714   6.170   6.890   1.585
  925TIP3   OH2 2715   1.542   7.154   2.871
  925TIP3    H1 2716   1.462   7.170   2.923
  925TIP3    H2 2717   1.520   7.185   2.783
  926TIP3   OH2 2718   7.875   7.203   2.449
  926TIP3    H1 2719   7.936   7.133   2.429
  926TIP3    H2 2720   7.918   7.254   2.518
  927TIP3   OH2 2721   5.341   1.314   0.519
  927TIP3    H1 2722   5.315   1.317   0.611
  927TIP3    H2 2723   5.422   1.263   0.518
  928TIP3   OH2 2724   2.802   4.442   4.277
  928TIP3    H1 2725   2.836   4.483   4.356
  928TIP3    H2 2726   2.709   4.465   4.276
  929TIP3   OH2 2727   1.196   4.080   6.159
  929TIP3    H1 2728   1.128   4.032   6.205
  929TIP3    H2 2729   1.163   4.169   6.152
  930TIP3   OH2 2730   4.876   5.199   2.698
  930TIP3    H1 2731   4.834   5.259   2.637
  930TIP3    H2 2732   4.841   5.223   2.783
  931TIP3   OH2 2733   8.208   7.865   0.638
  931TIP3    H1 2734   8.192   7.779   0.678
  931TIP3    H2 2735   8.123   7.907   0.636
  932TIP3   OH2 2736   3.266   5.465   2.226
  932TIP3    H1 2737   3.229   5.498   2.308
  932TIP3    H2 2738   3.342   5.414   2.252
  933TIP3   OH2 2739   5.321   3.574   4.316
  933TIP3    H1 2740   5.305   3.590   4.223
  933TIP3    H2 2741   5.315   3.660   4.357
  934TIP3   OH2 2742   1.305   4.116   1.062
  934TIP3    H1 2743   1.292   4.151   1.149
  934TIP3    H2 2744   1.218   4.121   1.021
  935TIP3   OH2 2745   0.049   5.661   6.282
  935TIP3    H1 2746   0.063   5.753   6.263
  935TIP3    H2 2747  -0.039   5.643   6.248
  936TIP3   OH2 2748   3.503   3.888   4.067
  936TIP3    H1 2749   3.571   3.956   4.073
  936TIP3    H2 2750   3.421   3.936   4.076
  937TIP3   OH2 2751   0.716   5.046   6.458
  937TIP3    H1 2752   0.653   5.060   6.529
  937TIP3    H2 2753   0.683   4.969   6.411
  938TIP3   OH2 2754   0.939   2.092   2.177
  938TIP3    H1 2755   0.971   2.018   2.228
  938TIP3    H2 2756   0.948   2.064   2.086
  939TIP3   OH2 2757   2.335   4.990   2.172
  939TIP3    H1 2758   2.418   5.020   2.208
  939TIP3    H2 2759   2.359   4.921   2.110
  940TIP3   OH2 2760   0.378   5.153   0.810
  940TIP3    H1 2761   0.380   5.143   0.715
  940TIP3    H2 2762   0.436   5.227   0.828
  941TIP3   OH2 2763   7.047   0.163   1.844
  941TIP3    H1 2764   7.118   0.195   1.900
  941TIP3    H2 2765   6.984   0.124   1.904
  942TIP3   OH2 2766   3.375   0.477   3.551
  942TIP3    H1 2767   3.409   0.425   3.623
  942TIP3    H2 2768   3.420   0.443   3.474
  943TIP3   OH2 2769   1.544   5.181   4.251
  943TIP3    H1 2770   1.497   5.121   4.193
  943TIP3    H2 2771   1.488   5.189   4.328
  944TIP3   OH2 2772   7.916   0.233   2.328
  944TIP3    H1 2773   7.988   0.214   2.388
  944TIP3    H2 2774   7.838   0.202   2.374
  945TIP3   OH2 2775   2.039   5.839   5.906
  945TIP3    H1 2776   2.113   5.891   5.874
  945TIP3    H2 2777   2.015   5.880   5.989
  946TIP3   OH2 2778   0.308   3.470   0.304
  946TIP3    H1 2779   0.275   3.398   0.251
  946TIP3    H2 2780   0.317   3.434   0.392
  947TIP3   OH2 2781   7.024   5.870   4.972
  947TIP3    H1 2782   7.112   5.859   4.935
  947TIP3    H2 2783   6.974   5.796   4.938
  948TIP3   OH2 2784   6.556   7.658   0.040
  948TIP3    H1 2785   6.587   7.632   0.127
  948TIP3    H2 2786   6.461   7.652   0.046
  949TIP3   OH2 2787   7.859   2.951   3.545
  949TIP3    H1 2788   7.867   3.008   3.621
  949TIP3    H2 2789   7.765   2.938   3.534
  950TIP3   OH2 2790   3.719   6.666   3.883
  950TIP3    H1 2791   3.631   6.641   3.854
  950TIP3    H2 2792   3.704   6.719   3.961
  951TIP3   OH2 2793   2.277   5.862   5.308
  951TIP3    H1 2794   2.265   5.815   5.226
  951TIP3    H2 2795   2.327   5.801   5.363
  952TIP3   OH2 2796   7.335   5.320   2.059
  952TIP3    H1 2797   7.246   5.334   2.027
  952TIP3    H2 2798   7.361   5.406   2.094
  953TIP3   OH2 2799   0.213   3.217   0.202
  953TIP3    H1 2800   0.188   3.128   0.230
  953TIP3    H2 2801   0.130   3.256   0.174
  954TIP3   OH2 2802   6.704   4.637   3.158
  954TIP3    H1 2803   6.635   4.696   3.188
  954TIP3    H2 2804   6.721   4.580   3.233
  955TIP3   OH2 2805   4.624   6.074   1.429
  955TIP3    H1 2806   4.567   6.149   1.412
  955TIP3    H2 2807   4.627   6.027   1.346
  956TIP3   OH2 2808   0.905   0.141   6.775
  956TIP3    H1 2809   0.918   0.235   6.785
  956TIP3    H2 2810   0.992   0.103   6.783
  957TIP3   OH2 2811   5.805   0.728   4.454
  957TIP3    H1 2812   5.787   0.645   4.412
  957TIP3    H2 2813   5.841   0.783   4.385
  958TIP3   OH2 2814   7.221   3.837   3.288
  958TIP3    H1 2815   7.145   3.890   3.262
  958TIP3    H2 2816   7.223   3.766   3.225
  959TIP3   OH2 2817   5.015   3.006   3.828
  959TIP3    H1 2818   5.012   3.092   3.868
  959TIP3    H2 2819   5.074   3.017   3.753
  960TIP3   OH2 2820   1.027   5.560   1.331
  960TIP3    H1 2821   1.015   5.483   1.387
  960TIP3    H2 2822   0.995   5.532   1.245
  961TIP3   OH2 2823   0.438   5.766   5.277
  961TIP3    H1 2824   0.363   5.716   5.247
  961TIP3    H2 2825   0.503   5.758   5.207
  962TIP3   OH2 2826   1.442   2.402   3.734
  962TIP3    H1 2827   1.483   2.340   3.672
  962TIP3    H2 2828   1.488   2.484   3.719
  963TIP3   OH2 2829   7.425   7.354   0.766
  963TIP3    H1 2830   7.421   7.298   0.844
  963TIP3    H2 2831   7.375   7.306   0.700
  964TIP3   OH2 2832   4.345   1.712   0.298
  964TIP3    H1 2833   4.252   1.699   0.316
  964TIP3    H2 2834   4.361   1.667   0.215
  965TIP3   OH2 2835   7.423   7.774   4.275
  965TIP3    H1 2836   7.423   7.810   4.187
  965TIP3    H2 2837   7.336   7.736   4.286
  966TIP3   OH2 2838   8.329   6.941   2.215
  966TIP3    H1 2839   8.329   6.880   2.141
  966TIP3    H2 2840   8.416   6.933   2.253
  967TIP3   OH2 2841   4.158   2.196   3.296
  967TIP3    H1 2842   4.188   2.281   3.265
  967TIP3    H2 2843   4.067   2.190   3.268
  968TIP3   OH2 2844   1.564   2.572   4.549
  968TIP3    H1 2845   1.489   2.584   4.606
  968TIP3    H2 2846   1.546   2.627   4.473
  969TIP3   OH2 2847   3.085   3.512   5.004
  969TIP3    H1 2848   3.171   3.482   5.033
  969TIP3    H2 2849   3.059   3.577   5.069
  970TIP3   OH2 2850   7.256   7.812   3.447
  970TIP3    H1 2851   7.348   7.801   3.472
  970TIP3    H2 2852   7.221   7.723   3.446
  971TIP3   OH2 2853   5.125   4.007   4.930
  971TIP3    H1 2854   5.086   4.069   4.868
  971TIP3    H2 2855   5.127   3.924   4.882
  972TIP3   OH2 2856   6.909   3.159   3.559
  972TIP3    H1 2857   6.871   3.085   3.607
  972TIP3    H2 2858   6.870   3.155   3.472
  973TIP3   OH2 2859   4.663   5.747   5.609
  973TIP3    H1 2860   4.634   5.658   5.624
  973TIP3    H2 2861   4.626   5.770   5.523
  974TIP3   OH2 2862   1.991   5.119   1.392
  974TIP3    H1 2863   1.927   5.186   1.367
  974TIP3    H2 2864   2.075   5.153   1.362
  975TIP3   OH2 2865   3.706   7.157   4.339
  975TIP3    H1 2866   3.741   7.070   4.356
  975TIP3    H2 2867   3.697   7.162   4.244
  976TIP3   OH2 2868   2.597   0.600   5.107
  976TIP3    H1 2869   2.680   0.646   5.116
  976TIP3    H2 2870   2.536   0.666   5.074
  977TIP3   OH2 2871   3.289   4.120   1.583
  977TIP3    H1 2872   3.195   4.134   1.586
  977TIP3    H2 2873   3.298   4.028   1.558
  978TIP3   OH2 2874   7.133   5.750   6.231
  978TIP3    H1 2875   7.170   5.705   6.155
  978TIP3    H2 2876   7.051   5.787   6.199
  979TIP3   OH2 2877   2.079   3.850   5.113
  979TIP3    H1 2878   2.088   3.867   5.206
  979TIP3    H2 2879   2.106   3.931   5.070
  980TIP3   OH2 2880   2.935   1.185   1.754
  980TIP3    H1 2881   2.904   1.261   1.706
  980TIP3    H2 2882   2.952   1.119   1.687
  981TIP3   OH2 2883   7.190   6.550   5.071
  981TIP3    H1 2884   7.256   6.583   5.132
  981TIP3    H2 2885   7.107   6.582   5.106
  982TIP3   OH2 2886   1.978   4.579   5.515
  982TIP3    H1 2887   1.933   4.561   5.432
  982TIP3    H2 2888   1.994   4.673   5.514
  983TIP3   OH2 2889   2.715   3.013   4.344
  983TIP3    H1 2890   2.720   2.917   4.346
  983TIP3    H2 2891   2.802   3.043   4.368
  984TIP3   OH2 2892   2.928   6.722   0.712
  984TIP3    H1 2893   2.871   6.651   0.683
  984TIP3    H2 2894   2.967   6.755   0.631
  985TIP3   OH2 2895   3.360   1.006   5.196
  985TIP3    H1 2896   3.304   0.980   5.268
  985TIP3    H2 2897   3.449   1.003   5.232
  986TIP3   OH2 2898   5.121   3.770   4.821
  986TIP3    H1 2899   5.051   3.707   4.841
  986TIP3    H2 2900   5.199   3.733   4.860
  987TIP3   OH2 2901   6.846   3.165   5.714
  987TIP3    H1 2902   6.895   3.238   5.751
  987TIP3    H2 2903   6.766   3.160   5.767
  988TIP3   OH2 2904   6.375   7.395   5.524
  988TIP3    H1 2905   6.369   7.357   5.436
  988TIP3    H2 2906   6.448   7.457   5.518
  989TIP3   OH2 2907   6.955   2.423   2.196
  989TIP3    H1 2908   6.975   2.516   2.181
  989TIP3    H2 2909   6.933   2.389   2.110
  990TIP3   OH2 2910   3.526   1.775   6.041
  990TIP3    H1 2911   3.476   1.785   5.960
  990TIP3    H2 2912   3.605   1.828   6.027
  991TIP3   OH2 2913   3.435   6.648   4.222
  991TIP3    H1 2914   3.417   6.576   4.162
  991TIP3    H2 2915   3.528   6.642   4.241
  992TIP3   OH2 2916   1.238   7.257   6.260
  992TIP3    H1 2917   1.235   7.229   6.169
  992TIP3    H2 2918   1.193   7.341   6.261
  993TIP3   OH2 2919   4.457   2.930   3.187
  993TIP3    H1 2920   4.432   2.926   3.095
  993TIP3    H2 2921   4.376   2.945   3.234
  994TIP3   OH2 2922   8.042   7.505   6.009
  994TIP3    H1 2923   8.067   7.556   6.085
  994TIP3    H2 2924   7.999   7.427   6.045
  995TIP3   OH2 2925   3.919   5.522   1.944
  995TIP3    H1 2926   3.867   5.601   1.927
  995TIP3    H2 2927   3.869   5.451   1.902
  996TIP3   OH2 2928   6.246   6.896   3.618
  996TIP3    H1 2929   6.241   6.801   3.613
  996TIP3    H2 2930   6.248   6.926   3.527
  997TIP3   OH2 2931   1.298   3.612   0.528
  997TIP3    H1 2932   1.297   3.706   0.511
  997TIP3    H2 2933   1.310   3.572   0.442
  998TIP3   OH2 2934   5.939   2.393   3.314
  998TIP3    H1 2935   5.936   2.456   3.242
  998TIP3    H2 2936   5.918   2.309   3.273
  999TIP3   OH2 2937   7.048   6.401   5.857
  999TIP3    H1 2938   7.043   6.496   5.844
  999TIP3    H2 2939   7.142   6.383   5.864
 1000TIP3   OH2 2940   6.040   5.822   3.226
 1000TIP3    H1 2941   6.131   5.816   3.195
 1000TIP3    H2 2942   6.042   5.888   3.295
 1001TIP3   OH2 2943   1.918   2.186   3.768
 1001TIP3    H1 2944   2.008   2.220   3.764
 1001TIP3    H2 2945   1.868   2.243   3.709
 1002TIP3   OH2 2946   4.891   0.791   6.659
 1002TIP3    H1 2947   4.953   0.835   6.718
 1002TIP3    H2 2948   4.873   0.856   6.591
 1003TIP3   OH2 2949   2.871   3.928   1.752
 1003TIP3    H1 2950   2.885   4.010   1.706
 1003TIP3    H2 2951   2.864   3.862   1.683
 1004TIP3   OH2 2952   4.055   1.683   3.951
 1004TIP3    H1 2953   4.085   1.764   3.912
 1004TIP3    H2 2954   4.127   1.621   3.937
 1005TIP3   OH2 2955   0.832   4.313   3.357
 1005TIP3    H1 2956   0.910   4.357   3.389
 1005TIP3    H2 2957   0.844   4.309   3.262
 1006TIP3   OH2 2958   1.419   1.076   1.655
 1006TIP3    H1 2959   1.410   1.088   1.749
 1006TIP3    H2 2960   1.391   1.159   1.617
 1007TIP3   OH2 2961   5.080   3.321   1.989
 1007TIP3    H1 2962   5.107   3.412   1.993
 1007TIP3    H2 2963   5.019   3.310   2.062
 1008TIP3   OH2 2964   0.476   3.116   0.173
 1008TIP3    H1 2965   0.389   3.156   0.172
 1008TIP3    H2 2966   0.528   3.173   0.230
 1009TIP3   OH2 2967   5.363   5.644   4.738
 1009TIP3    H1 2968   5.354   5.582   4.811
 1009TIP3    H2 2969   5.273   5.664   4.712
 1010TIP3   OH2 2970   4.265   7.237   3.663
 1010TIP3    H1 2971   4.227   7.153   3.689
 1010TIP3    H2 2972   4.190   7.289   3.632
 1011TIP3   OH2 2973   4.315   3.264   2.460
 1011TIP3    H1 2974   4.285   3.325   2.526
 1011TIP3    H2 2975   4.365   3.317   2.398
 1012TIP3   OH2 2976   5.502   6.979   4.571
 1012TIP3    H1 2977   5.591   6.946   4.578
 1012TIP3    H2 2978   5.447   6.901   4.567
 1013TIP3   OH2 2979   6.528   1.732   3.393
 1013TIP3    H1 2980   6.505   1.762   3.482
 1013TIP3    H2 2981   6.451   1.683   3.364
 1014TIP3   OH2 2982   1.503   7.526   4.635
 1014TIP3    H1 2983   1.474   7.447   4.589
 1014TIP3    H2 2984   1.429   7.548   4.693
 1015TIP3   OH2 2985   1.610   4.552   5.523
 1015TIP3    H1 2986   1.673   4.623   5.512
 1015TIP3    H2 2987   1.579   4.562   5.613
 1016TIP3   OH2 2988   0.532   4.885   3.011
 1016TIP3    H1 2989   0.505   4.871   3.102
 1016TIP3    H2 2990   0.624   4.857   3.009
 1017TIP3   OH2 2991   7.243   0.760   5.337
 1017TIP3    H1 2992   7.231   0.675   5.382
 1017TIP3    H2 2993   7.335   0.782   5.351
 1018TIP3   OH2 2994   3.970   1.541   4.751
 1018TIP3    H1 2995   3.916   1.604   4.799
 1018TIP3    H2 2996   4.056   1.583   4.747
 1019TIP3   OH2 2997   7.997   3.737   2.765
 1019TIP3    H1 2998   7.922   3.741   2.824
 1019TIP3    H2 2999   7.958   3.732   2.677
 1020TIP3   OH2 3000   2.240   0.360   3.284
 1020TIP3    H1 3001   2.303   0.288   3.289
 1020TIP3    H2 3002   2.285   0.428   3.234
 1021TIP3   OH2 3003   1.362   2.522   0.267
 1021TIP3    H1 3004   1.378   2.445   0.212
 1021TIP3    H2 3005   1.306   2.579   0.214
 1022TIP3   OH2 3006   5.300   1.559   1.461
 1022TIP3    H1 3007   5.300   1.654   1.453
 1022TIP3    H2 3008   5.377   1.531   1.411
 1023TIP3   OH2 3009   0.045   4.068   0.320
 1023TIP3    H1 3010   0.029   4.096   0.411
 1023TIP3    H2 3011  -0.024   4.004   0.302
 1024TIP3   OH2 3012   5.234   4.790   6.431
 1024TIP3    H1 3013   5.248   4.849   6.357
 1024TIP3    H2 3014   5.297   4.720   6.418
 1025TIP3   OH2 3015   6.281   5.645   4.017
 1025TIP3    H1 3016   6.289   5.711   3.948
 1025TIP3    H2 3017   6.370   5.636   4.052
 1026TIP3   OH2 3018   6.888   6.055   1.446
 1026TIP3    H1 3019   6.918   6.138   1.482
 1026TIP3    H2 3020   6.969   6.010   1.419
 1027TIP3   OH2 3021   7.277   5.221   2.928
 1027TIP3    H1 3022   7.230   5.224   2.845
 1027TIP3    H2 3023   7.366   5.250   2.907
 1028TIP3   OH2 3024   4.686   1.392   0.694
 1028TIP3    H1 3025   4.672   1.483   0.717
 1028TIP3    H2 3026   4.717   1.351   0.775
 1029TIP3   OH2 3027   2.857   1.380   2.236
 1029TIP3    H1 3028   2.913   1.370   2.313
 1029TIP3    H2 3029   2.915   1.368   2.162
 1030TIP3   OH2 3030   1.219   5.404   3.395
 1030TIP3    H1 3031   1.214   5.461   3.319
 1030TIP3    H2 3032   1.183   5.320   3.365
 1031TIP3   OH2 3033   0.501   2.724   2.715
 1031TIP3    H1 3034   0.424   2.668   2.705
 1031TIP3    H2 3035   0.568   2.666   2.752
 1032TIP3   OH2 3036   2.196   4.053   6.268
 1032TIP3    H1 3037   2.101   4.037   6.268
 1032TIP3    H2 3038   2.208   4.126   6.328
 1033TIP3   OH2 3039   0.403   2.357   0.584
 1033TIP3    H1 3040   0.421   2.381   0.675
 1033TIP3    H2 3041   0.485   2.374   0.538
 1034TIP3   OH2 3042   0.117   3.533   0.834
 1034TIP3    H1 3043   0.168   3.612   0.851
 1034TIP3    H2 3044   0.182   3.464   0.826
 1035TIP3   OH2 3045   1.471   1.682   1.041
 1035TIP3    H1 3046   1.564   1.671   1.020
 1035TIP3    H2 3047   1.466   1.768   1.082
 1036TIP3   OH2 3048   7.519   1.907   5.835
 1036TIP3    H1 3049   7.445   1.932   5.780
 1036TIP3    H2 3050   7.584   1.872   5.774
 1037TIP3   OH2 3051   6.118   1.698   2.647
 1037TIP3    H1 3052   6.168   1.754   2.707
 1037TIP3    H2 3053   6.102   1.618   2.697
 1038TIP3   OH2 3054   1.112   5.472  -0.003
 1038TIP3    H1 3055   1.167   5.404   0.037
 1038TIP3    H2 3056   1.023   5.449   0.023
 1039TIP3   OH2 3057   0.057   3.972   2.308
 1039TIP3    H1 3058  -0.012   3.954   2.371
 1039TIP3    H2 3059   0.122   3.903   2.323
 1040TIP3   OH2 3060   3.691   5.054   3.294
 1040TIP3    H1 3061   3.603   5.017   3.302
 1040TIP3    H2 3062   3.680   5.146   3.319
 1041TIP3   OH2 3063   7.727   1.769   6.724
 1041TIP3    H1 3064   7.769   1.724   6.797
 1041TIP3    H2 3065   7.775   1.739   6.646
 1042TIP3   OH2 3066   5.439   5.080   2.845
 1042TIP3    H1 3067   5.527   5.104   2.875
 1042TIP3    H2 3068   5.388   5.161   2.854
 1043TIP3   OH2 3069   3.796   5.446   0.407
 1043TIP3    H1 3070   3.801   5.369   0.350
 1043TIP3    H2 3071   3.878   5.444   0.457
 1044TIP3   OH2 3072   0.102   0.967   3.614
 1044TIP3    H1 3073   0.108   0.904   3.686
 1044TIP3    H2 3074   0.096   0.912   3.535
 1045TIP3   OH2 3075   5.463   1.491   3.822
 1045TIP3    H1 3076   5.442   1.585   3.819
 1045TIP3    H2 3077   5.388   1.449   3.779
 1046TIP3   OH2 3078   2.282   7.822   3.191
 1046TIP3    H1 3079   2.209   7.767   3.219
 1046TIP3    H2 3080   2.358   7.763   3.196
 1047TIP3   OH2 3081   1.769   0.405   2.031
 1047TIP3    H1 3082   1.680   0.405   1.997
 1047TIP3    H2 3083   1.758   0.397   2.126
 1048TIP3   OH2 3084   2.167   6.196   3.920
 1048TIP3    H1 3085   2.074   6.178   3.904
 1048TIP3    H2 3086   2.194   6.130   3.984
 1049TIP3   OH2 3087   4.181   6.287   1.899
 1049TIP3    H1 3088   4.225   6.347   1.840
 1049TIP3    H2 3089   4.122   6.342   1.950
 1050TIP3   OH2 3090   2.935   1.555   0.408
 1050TIP3    H1 3091   3.028   1.545   0.389
 1050TIP3    H2 3092   2.931   1.621   0.477
 1051TIP3   OH2 3093   8.165   5.263   2.936
 1051TIP3    H1 3094   8.241   5.316   2.912
 1051TIP3    H2 3095   8.124   5.242   2.852
 1052TIP3   OH2 3096   1.890   4.912   2.923
 1052TIP3    H1 3097   1.918   4.841   2.980
 1052TIP3    H2 3098   1.807   4.882   2.887
 1053TIP3   OH2 3099   2.136   0.706   5.242
 1053TIP3    H1 3100   2.136   0.792   5.201
 1053TIP3    H2 3101   2.046   0.693   5.271
 1054TIP3   OH2 3102   4.361   4.335   1.340
 1054TIP3    H1 3103   4.269   4.359   1.330
 1054TIP3    H2 3104   4.396   4.338   1.251
 1055TIP3   OH2 3105   2.982   0.880   0.921
 1055TIP3    H1 3106   3.002   0.798   0.966
 1055TIP3    H2 3107   2.893   0.868   0.888
 1056TIP3   OH2 3108   0.044   4.159   3.793
 1056TIP3    H1 3109   0.108   4.131   3.728
 1056TIP3    H2 3110  -0.037   4.115   3.768
 1057TIP3   OH2 3111   7.019   2.436   4.176
 1057TIP3    H1 3112   7.017   2.407   4.085
 1057TIP3    H2 3113   7.044   2.529   4.171
 1058TIP3   OH2 3114   4.973   1.416   1.817
 1058TIP3    H1 3115   5.055   1.425   1.865
 1058TIP3    H2 3116   4.905   1.431   1.884
 1059TIP3   OH2 3117   4.928   2.549   3.877
 1059TIP3    H1 3118   5.004   2.595   3.913
 1059TIP3    H2 3119   4.853   2.587   3.924
 1060TIP3   OH2 3120   1.586   5.348   6.369
 1060TIP3    H1 3121   1.581   5.354   6.274
 1060TIP3    H2 3122   1.495   5.343   6.397
 1061TIP3   OH2 3123   1.267   3.843   1.170
 1061TIP3    H1 3124   1.211   3.827   1.094
 1061TIP3    H2 3125   1.301   3.931   1.157
 1062TIP3   OH2 3126   6.445   7.188   0.417
 1062TIP3    H1 3127   6.433   7.219   0.328
 1062TIP3    H2 3128   6.539   7.191   0.432
 1063TIP3   OH2 3129   3.181   6.422   5.747
 1063TIP3    H1 3130   3.177   6.516   5.767
 1063TIP3    H2 3131   3.091   6.399   5.723
 1064TIP3   OH2 3132   5.508   7.495   2.271
 1064TIP3    H1 3133   5.442   7.466   2.207
 1064TIP3    H2 3134   5.534   7.582   2.241
 1065TIP3   OH2 3135   6.100   2.349   6.223
 1065TIP3    H1 3136   6.108   2.424   6.164
 1065TIP3    H2 3137   6.026   2.371   6.279
 1066TIP3   OH2 3138   1.822   3.393   2.812
 1066TIP3    H1 3139   1.783   3.357   2.732
 1066TIP3    H2 3140   1.828   3.487   2.796
 1067TIP3   OH2 3141   6.530   1.833  -0.002
 1067TIP3    H1 3142   6.495   1.918   0.024
 1067TIP3    H2 3143   6.455   1.785  -0.036
 1068TIP3   OH2 3144   0.858   1.523   5.684
 1068TIP3    H1 3145   0.944   1.513   5.723
 1068TIP3    H2 3146   0.804   1.456   5.726
 1069TIP3   OH2 3147   6.762   5.487   0.813
 1069TIP3    H1 3148   6.734   5.552   0.878
 1069TIP3    H2 3149   6.696   5.493   0.744
 1070TIP3   OH2 3150   2.085   5.417   1.548
 1070TIP3    H1 3151   2.079   5.329   1.586
 1070TIP3    H2 3152   2.004   5.426   1.498
 1071TIP3   OH2 3153   6.332   3.886   3.650
 1071TIP3    H1 3154   6.336   3.941   3.728
 1071TIP3    H2 3155   6.415   3.838   3.650
 1072TIP3   OH2 3156   0.959   3.763   4.492
 1072TIP3    H1 3157   1.016   3.760   4.416
 1072TIP3    H2 3158   0.904   3.686   4.485
 1073TIP3   OH2 3159   3.387   2.560   5.229
 1073TIP3    H1 3160   3.292   2.560   5.241
 1073TIP3    H2 3161   3.400   2.589   5.139
 1074TIP3   OH2 3162   3.578   4.837   2.938
 1074TIP3    H1 3163   3.519   4.826   3.013
 1074TIP3    H2 3164   3.637   4.762   2.943
 1075TIP3   OH2 3165   0.342   1.869   3.326
 1075TIP3    H1 3166   0.316   1.823   3.246
 1075TIP3    H2 3167   0.271   1.852   3.388
 1076TIP3   OH2 3168   0.964   4.400   2.132
 1076TIP3    H1 3169   0.923   4.314   2.137
 1076TIP3    H2 3170   1.053   4.386   2.165
 1077TIP3   OH2 3171   1.682   5.496   1.748
 1077TIP3    H1 3172   1.588   5.480   1.752
 1077TIP3    H2 3173   1.693   5.583   1.788
 1078TIP3   OH2 3174   5.730   4.423   2.974
 1078TIP3    H1 3175   5.813   4.469   2.964
 1078TIP3    H2 3176   5.674   4.484   3.023
 1079TIP3   OH2 3177   0.985   7.318   6.032
 1079TIP3    H1 3178   0.952   7.248   6.089
 1079TIP3    H2 3179   0.927   7.316   5.956
 1080TIP3   OH2 3180   0.140   1.214   0.255
 1080TIP3    H1 3181   0.057   1.168   0.241
 1080TIP3    H2 3182   0.178   1.220   0.167
 1081TIP3   OH2 3183   1.852   1.617   0.306
 1081TIP3    H1 3184   1.859   1.642   0.214
 1081TIP3    H2 3185   1.940   1.588   0.330
 1082TIP3   OH2 3186   0.969   3.619   5.883
 1082TIP3    H1 3187   0.959   3.713   5.897
 1082TIP3    H2 3188   1.063   3.606   5.874
 1083TIP3   OH2 3189   7.437   1.737   5.373
 1083TIP3    H1 3190   7.484   1.819   5.390
 1083TIP3    H2 3191   7.481   1.672   5.428
 1084TIP3   OH2 3192   5.678   0.994   1.703
 1084TIP3    H1 3193   5.609   0.996   1.636
 1084TIP3    H2 3194   5.666   1.075   1.752
 1085TIP3   OH2 3195   4.552   1.038   4.777
 1085TIP3    H1 3196   4.523   1.066   4.863
 1085TIP3    H2 3197   4.643   1.066   4.772
 1086TIP3   OH2 3198   6.169   3.600   3.098
 1086TIP3    H1 3199   6.165   3.650   3.016
 1086TIP3    H2 3200   6.218   3.521   3.075
 1087TIP3   OH2 3201   6.468   6.408   2.871
 1087TIP3    H1 3202   6.504   6.492   2.844
 1087TIP3    H2 3203   6.470   6.410   2.967
 1088TIP3   OH2 3204   2.095   4.240   1.888
 1088TIP3    H1 3205   2.081   4.310   1.824
 1088TIP3    H2 3206   2.172   4.268   1.937
 1089TIP3   OH2 3207   7.754   5.319   4.817
 1089TIP3    H1 3208   7.811   5.244   4.800
 1089TIP3    H2 3209   7.814   5.391   4.833
 1090TIP3   OH2 3210   2.877   5.436   5.417
 1090TIP3    H1 3211   2.961   5.477   5.438
 1090TIP3    H2 3212   2.812   5.490   5.462
 1091TIP3   OH2 3213   5.013   2.965   0.074
 1091TIP3    H1 3214   5.020   2.921   0.159
 1091TIP3    H2 3215   4.983   3.054   0.095
 1092TIP3   OH2 3216   0.443   3.110   0.481
 1092TIP3    H1 3217   0.419   3.190   0.529
 1092TIP3    H2 3218   0.517   3.136   0.427
 1093TIP3   OH2 3219   5.916   2.240   4.100
 1093TIP3    H1 3220   5.931   2.247   4.195
 1093TIP3    H2 3221   5.835   2.191   4.093
 1094TIP3   OH2 3222   3.131   5.724   0.943
 1094TIP3    H1 3223   3.222   5.714   0.972
 1094TIP3    H2 3224   3.088   5.772   1.015
 1095TIP3   OH2 3225   8.294   1.061   5.238
 1095TIP3    H1 3226   8.249   1.057   5.154
 1095TIP3    H2 3227   8.265   1.143   5.277
 1096TIP3   OH2 3228   2.715   6.245   0.455
 1096TIP3    H1 3229   2.686   6.169   0.405
 1096TIP3    H2 3230   2.675   6.320   0.409
 1097TIP3   OH2 3231   5.716   5.446   5.994
 1097TIP3    H1 3232   5.634   5.410   5.959
 1097TIP3    H2 3233   5.778   5.440   5.922
 1098TIP3   OH2 3234   6.189   3.938   1.528
 1098TIP3    H1 3235   6.193   4.024   1.487
 1098TIP3    H2 3236   6.139   3.884   1.467
 1099TIP3   OH2 3237   1.535   0.471   2.993
 1099TIP3    H1 3238   1.500   0.519   3.068
 1099TIP3    H2 3239   1.606   0.418   3.029
 1100TIP3   OH2 3240   1.800   1.019   2.959
 1100TIP3    H1 3241   1.786   0.950   3.023
 1100TIP3    H2 3242   1.715   1.032   2.918
 1101TIP3   OH2 3243   6.124   5.207   0.693
 1101TIP3    H1 3244   6.185   5.150   0.645
 1101TIP3    H2 3245   6.180   5.271   0.736
 1102TIP3   OH2 3246   1.762   5.210   4.017
 1102TIP3    H1 3247   1.852   5.196   3.987
 1102TIP3    H2 3248   1.770   5.275   4.086
 1103TIP3   OH2 3249   2.153   2.497   6.361
 1103TIP3    H1 3250   2.205   2.543   6.295
 1103TIP3    H2 3251   2.064   2.527   6.347
 1104TIP3   OH2 3252   4.523   5.288   3.838
 1104TIP3    H1 3253   4.442   5.308   3.792
 1104TIP3    H2 3254   4.513   5.328   3.924
 1105TIP3   OH2 3255   1.105   1.312   3.806
 1105TIP3    H1 3256   1.089   1.297   3.899
 1105TIP3    H2 3257   1.198   1.291   3.795
 1106TIP3   OH2 3258   3.402   5.030   3.327
 1106TIP3    H1 3259   3.401   5.126   3.333
 1106TIP3    H2 3260   3.332   5.001   3.384
 1107TIP3   OH2 3261   7.393   0.137   3.566
 1107TIP3    H1 3262   7.345   0.182   3.498
 1107TIP3    H2 3263   7.419   0.054   3.526
 1108TIP3   OH2 3264   3.275   3.006   5.973
 1108TIP3    H1 3265   3.180   3.004   5.978
 1108TIP3    H2 3266   3.297   3.099   5.972
 1109TIP3   OH2 3267   2.769   2.120   1.166
 1109TIP3    H1 3268   2.745   2.149   1.254
 1109TIP3    H2 3269   2.768   2.025   1.170
 1110TIP3   OH2 3270   4.532   2.921   5.576
 1110TIP3    H1 3271   4.531   2.974   5.656
 1110TIP3    H2 3272   4.463   2.856   5.590
 1111TIP3   OH2 3273   4.774   3.066   2.743
 1111TIP3    H1 3274   4.708   3.109   2.689
 1111TIP3    H2 3275   4.814   3.001   2.686
 1112TIP3   OH2 3276   7.167   7.741   5.676
 1112TIP3    H1 3277   7.205   7.765   5.760
 1112TIP3    H2 3278   7.182   7.817   5.619
 1113TIP3   OH2 3279   3.763   2.338   5.288
 1113TIP3    H1 3280   3.854   2.369   5.288
 1113TIP3    H2 3281   3.744   2.321   5.196
 1114TIP3   OH2 3282   4.064   3.139   6.054
 1114TIP3    H1 3283   4.151   3.177   6.048
 1114TIP3    H2 3284   4.014   3.202   6.106
 1115TIP3   OH2 3285   5.009   4.086   3.172
 1115TIP3    H1 3286   5.055   4.003   3.175
 1115TIP3    H2 3287   4.999   4.112   3.263
 1116TIP3   OH2 3288   5.899   6.033   1.535
 1116TIP3    H1 3289   5.977   6.029   1.591
 1116TIP3    H2 3290   5.865   5.944   1.535
 1117TIP3   OH2 3291   2.076   6.569   5.039
 1117TIP3    H1 3292   1.986   6.541   5.020
 1117TIP3    H2 3293   2.083   6.656   4.998
 1118TIP3   OH2 3294   4.955   2.681   1.916
 1118TIP3    H1 3295   4.870   2.680   1.873
 1118TIP3    H2 3296   4.953   2.757   1.974
 1119TIP3   OH2 3297   2.548   3.954   4.502
 1119TIP3    H1 3298   2.598   3.922   4.576
 1119TIP3    H2 3299   2.542   3.879   4.443
 1120TIP3   OH2 3300   2.575   7.229   6.296
 1120TIP3    H1 3301   2.580   7.254   6.388
 1120TIP3    H2 3302   2.483   7.208   6.281
 1121TIP3   OH2 3303   2.358   2.599   5.123
 1121TIP3    H1 3304   2.437   2.567   5.167
 1121TIP3    H2 3305   2.328   2.672   5.178
 1122TIP3   OH2 3306   5.808   0.599   1.178
 1122TIP3    H1 3307   5.733   0.656   1.194
 1122TIP3    H2 3308   5.883   0.649   1.212
 1123TIP3   OH2 3309   6.576   1.289   2.682
 1123TIP3    H1 3310   6.501   1.229   2.688
 1123TIP3    H2 3311   6.546   1.369   2.726
 1124TIP3   OH2 3312   0.282   7.589   6.034
 1124TIP3    H1 3313   0.350   7.655   6.049
 1124TIP3    H2 3314   0.308   7.546   5.952
 1125TIP3   OH2 3315   3.498   0.312   1.733
 1125TIP3    H1 3316   3.498   0.222   1.700
 1125TIP3    H2 3317   3.586   0.344   1.715
 1126TIP3   OH2 3318   2.893   4.732   4.206
 1126TIP3    H1 3319   2.853   4.678   4.138
 1126TIP3    H2 3320   2.827   4.798   4.226
 1127TIP3   OH2 3321   5.267   5.184   4.709
 1127TIP3    H1 3322   5.271   5.089   4.712
 1127TIP3    H2 3323   5.281   5.206   4.617
 1128TIP3   OH2 3324   4.442   4.098   2.084
 1128TIP3    H1 3325   4.423   4.169   2.145
 1128TIP3    H2 3326   4.363   4.045   2.083
 1129TIP3   OH2 3327   0.162   0.584   5.523
 1129TIP3    H1 3328   0.103   0.565   5.596
 1129TIP3    H2 3329   0.201   0.669   5.545
 1130TIP3   OH2 3330   7.524   5.547   1.231
 1130TIP3    H1 3331   7.569   5.526   1.150
 1130TIP3    H2 3332   7.458   5.611   1.206
 1131TIP3   OH2 3333   2.697   5.665   0.321
 1131TIP3    H1 3334   2.769   5.609   0.350
 1131TIP3    H2 3335   2.735   5.722   0.255
 1132TIP3   OH2 3336   2.021   2.171   1.848
 1132TIP3    H1 3337   2.025   2.266   1.861
 1132TIP3    H2 3338   1.929   2.154   1.826
 1133TIP3   OH2 3339   3.516   0.061   1.626
 1133TIP3    H1 3340   3.458   0.076   1.551
 1133TIP3    H2 3341   3.462   0.015   1.690
 1134TIP3   OH2 3342   4.844   2.352   4.667
 1134TIP3    H1 3343   4.924   2.312   4.633
 1134TIP3    H2 3344   4.801   2.282   4.716
 1135TIP3   OH2 3345   8.149   4.418   1.420
 1135TIP3    H1 3346   8.140   4.324   1.404
 1135TIP3    H2 3347   8.232   4.442   1.380
 1136TIP3   OH2 3348   7.907   5.864   0.835
 1136TIP3    H1 3349   7.813   5.865   0.815
 1136TIP3    H2 3350   7.910   5.843   0.929
 1137TIP3   OH2 3351   0.792   0.826   0.675
 1137TIP3    H1 3352   0.778   0.746   0.727
 1137TIP3    H2 3353   0.883   0.820   0.647
 1138TIP3   OH2 3354   3.414   2.494   3.952
 1138TIP3    H1 3355   3.339   2.512   4.009
 1138TIP3    H2 3356   3.391   2.535   3.868
 1139TIP3   OH2 3357   0.815   4.676   0.233
 1139TIP3    H1 3358   0.727   4.644   0.253
 1139TIP3    H2 3359   0.852   4.610   0.176
 1140TIP3   OH2 3360   4.997   2.575   3.617
 1140TIP3    H1 3361   4.999   2.487   3.655
 1140TIP3    H2 3362   4.962   2.630   3.687
 1141TIP3   OH2 3363   2.927   2.115   4.274
 1141TIP3    H1 3364   2.948   2.073   4.357
 1141TIP3    H2 3365   2.838   2.087   4.254
 1142TIP3   OH2 3366   4.440   6.724   0.688
 1142TIP3    H1 3367   4.423   6.677   0.606
 1142TIP3    H2 3368   4.534   6.738   0.688
 1143TIP3   OH2 3369   7.758   3.388   2.789
 1143TIP3    H1 3370   7.815   3.404   2.864
 1143TIP3    H2 3371   7.669   3.387   2.825
 1144TIP3   OH2 3372   4.326   4.786   1.036
 1144TIP3    H1 3373   4.266   4.855   1.010
 1144TIP3    H2 3374   4.285   4.744   1.111
 1145TIP3   OH2 3375   1.420   6.608   6.428
 1145TIP3    H1 3376   1.358   6.679   6.441
 1145TIP3    H2 3377   1.499   6.650   6.395
 1146TIP3   OH2 3378   6.344   5.040   0.538
 1146TIP3    H1 3379   6.257   5.002   0.525
 1146TIP3    H2 3380   6.399   4.965   0.560
 1147TIP3   OH2 3381   2.926   6.343   1.626
 1147TIP3    H1 3382   2.988   6.391   1.573
 1147TIP3    H2 3383   2.977   6.271   1.665
 1148TIP3   OH2 3384   0.845   2.719   6.746
 1148TIP3    H1 3385   0.753   2.739   6.762
 1148TIP3    H2 3386   0.883   2.709   6.833
 1149TIP3   OH2 3387   2.466   5.211   5.596
 1149TIP3    H1 3388   2.529   5.139   5.605
 1149TIP3    H2 3389   2.454   5.245   5.684
 1150TIP3   OH2 3390   6.004   5.222   3.713
 1150TIP3    H1 3391   5.997   5.317   3.708
 1150TIP3    H2 3392   6.094   5.205   3.741
 1151TIP3   OH2 3393   7.854   1.509   2.434
 1151TIP3    H1 3394   7.889   1.442   2.375
 1151TIP3    H2 3395   7.762   1.519   2.407
 1152TIP3   OH2 3396   0.238   4.575   4.567
 1152TIP3    H1 3397   0.305   4.578   4.636
 1152TIP3    H2 3398   0.230   4.666   4.538
 1153TIP3   OH2 3399   4.097   6.047   4.807
 1153TIP3    H1 3400   4.191   6.042   4.788
 1153TIP3    H2 3401   4.091   6.105   4.883
 1154TIP3   OH2 3402   0.443   6.843   5.389
 1154TIP3    H1 3403   0.361   6.819   5.431
 1154TIP3    H2 3404   0.453   6.781   5.317
 1155TIP3   OH2 3405   4.155   2.090   0.287
 1155TIP3    H1 3406   4.248   2.071   0.300
 1155TIP3    H2 3407   4.134   2.046   0.204
 1156TIP3   OH2 3408   5.747   2.232   6.402
 1156TIP3    H1 3409   5.799   2.210   6.325
 1156TIP3    H2 3410   5.807   2.282   6.458
 1157TIP3   OH2 3411   4.944   5.278   1.285
 1157TIP3    H1 3412   4.870   5.244   1.236
 1157TIP3    H2 3413   5.014   5.214   1.273
 1158TIP3   OH2 3414   7.745   7.763   6.480
 1158TIP3    H1 3415   7.737   7.674   6.514
 1158TIP3    H2 3416   7.734   7.819   6.556
 1159TIP3   OH2 3417   3.428   4.272   2.990
 1159TIP3    H1 3418   3.479   4.244   2.914
 1159TIP3    H2 3419   3.411   4.191   3.038
 1160TIP3   OH2 3420   5.867   3.023   5.706
 1160TIP3    H1 3421   5.856   3.109   5.747
 1160TIP3    H2 3422   5.957   3.023   5.672
 1161TIP3   OH2 3423   5.161   1.282   1.541
 1161TIP3    H1 3424   5.254   1.287   1.518
 1161TIP3    H2 3425   5.139   1.370   1.571
 1162TIP3   OH2 3426   5.950   4.026   3.128
 1162TIP3    H1 3427   5.895   4.046   3.203
 1162TIP3    H2 3428   5.906   4.066   3.053
 1163TIP3   OH2 3429   5.060   0.926   2.817
 1163TIP3    H1 3430   5.124   0.988   2.781
 1163TIP3    H2 3431   5.030   0.967   2.898
 1164TIP3   OH2 3432   7.492   3.926   5.416
 1164TIP3    H1 3433   7.580   3.944   5.382
 1164TIP3    H2 3434   7.470   4.003   5.467
 1165TIP3   OH2 3435   3.516   4.598   3.313
 1165TIP3    H1 3436   3.563   4.534   3.367
 1165TIP3    H2 3437   3.514   4.558   3.225
 1166TIP3   OH2 3438   1.181   5.112   3.285
 1166TIP3    H1 3439   1.098   5.118   3.238
 1166TIP3    H2 3440   1.232   5.047   3.236
 1167TIP3   OH2 3441   6.594   3.298   1.730
 1167TIP3    H1 3442   6.652   3.306   1.805
 1167TIP3    H2 3443   6.576   3.389   1.704
 1168TIP3   OH2 3444   2.419   4.130   2.228
 1168TIP3    H1 3445   2.410   4.205   2.286
 1168TIP3    H2 3446   2.374   4.059   2.273
 1169TIP3   OH2 3447   2.754   0.488   6.009
 1169TIP3    H1 3448   2.748   0.450   6.097
 1169TIP3    H2 3449   2.842   0.467   5.979
 1170TIP3   OH2 3450   7.536   1.449   0.929
 1170TIP3    H1 3451   7.568   1.491   0.849
 1170TIP3    H2 3452   7.457   1.402   0.901
 1171TIP3   OH2 3453   0.526   7.442   1.552
 1171TIP3    H1 3454   0.563   7.354   1.556
 1171TIP3    H2 3455   0.600   7.500   1.568
 1172TIP3   OH2 3456   1.217   2.026   2.747
 1172TIP3    H1 3457   1.247   2.047   2.658
 1172TIP3    H2 3458   1.201   2.111   2.787
 1173TIP3   OH2 3459   1.609   3.226   5.546
 1173TIP3    H1 3460   1.595   3.131   5.553
 1173TIP3    H2 3461   1.614   3.255   5.637
 1174TIP3   OH2 3462   2.376   7.630   0.645
 1174TIP3    H1 3463   2.299   7.597   0.600
 1174TIP3    H2 3464   2.352   7.629   0.738
 1175TIP3   OH2 3465   5.222   1.204   4.008
 1175TIP3    H1 3466   5.211   1.160   3.923
 1175TIP3    H2 3467   5.316   1.223   4.013
 1176TIP3   OH2 3468   3.047   4.175   0.432
 1176TIP3    H1 3469   3.096   4.144   0.355
 1176TIP3    H2 3470   2.991   4.244   0.397
 1177TIP3   OH2 3471   8.324   4.662   2.901
 1177TIP3    H1 3472   8.309   4.662   2.806
 1177TIP3    H2 3473   8.338   4.569   2.922
 1178TIP3   OH2 3474   0.043   1.022   2.283
 1178TIP3    H1 3475   0.107   0.951   2.275
 1178TIP3    H2 3476  -0.023   0.988   2.343
 1179TIP3   OH2 3477   6.493   2.940   6.786
 1179TIP3    H1 3478   6.522   2.939   6.694
 1179TIP3    H2 3479   6.403   2.907   6.782
 1180TIP3   OH2 3480   7.563   2.376   2.408
 1180TIP3    H1 3481   7.497   2.394   2.475
 1180TIP3    H2 3482   7.636   2.433   2.431
 1181TIP3   OH2 3483   4.456   4.814   6.257
 1181TIP3    H1 3484   4.495   4.897   6.284
 1181TIP3    H2 3485   4.379   4.839   6.206
 1182TIP3   OH2 3486   6.202   3.016   6.520
 1182TIP3    H1 3487   6.139   3.036   6.590
 1182TIP3    H2 3488   6.157   3.044   6.440
 1183TIP3   OH2 3489   5.936   4.334   1.323
 1183TIP3    H1 3490   5.950   4.428   1.332
 1183TIP3    H2 3491   5.873   4.312   1.392
 1184TIP3   OH2 3492   5.939   6.806   6.645
 1184TIP3    H1 3493   5.944   6.806   6.740
 1184TIP3    H2 3494   5.885   6.729   6.624
 1185TIP3   OH2 3495   6.942   3.875   3.662
 1185TIP3    H1 3496   7.006   3.860   3.732
 1185TIP3    H2 3497   6.987   3.847   3.582
 1186TIP3   OH2 3498   2.339   7.630   4.871
 1186TIP3    H1 3499   2.415   7.657   4.923
 1186TIP3    H2 3500   2.270   7.615   4.936
 1187TIP3   OH2 3501   4.644   0.061   3.929
 1187TIP3    H1 3502   4.722   0.014   3.957
 1187TIP3    H2 3503   4.649   0.145   3.976
 1188TIP3   OH2 3504   3.097   5.234   3.502
 1188TIP3    H1 3505   3.043   5.218   3.578
 1188TIP3    H2 3506   3.108   5.329   3.499
 1189TIP3   OH2 3507   3.870   3.568   6.573
 1189TIP3    H1 3508   3.869   3.535   6.663
 1189TIP3    H2 3509   3.960   3.596   6.559
 1190TIP3   OH2 3510   1.059   2.000   0.000
 1190TIP3    H1 3511   1.002   2.070   0.032
 1190TIP3    H2 3512   1.088   2.030  -0.086
 1191TIP3   OH2 3513   0.592   5.953   0.083
 1191TIP3    H1 3514   0.646   6.008   0.140
 1191TIP3    H2 3515   0.653   5.918   0.018
 1192TIP3   OH2 3516   1.721   3.333   2.570
 1192TIP3    H1 3517   1.681   3.258   2.526
 1192TIP3    H2 3518   1.688   3.409   2.523
 1193TIP3   OH2 3519   5.113   2.632   6.366
 1193TIP3    H1 3520   5.115   2.672   6.278
 1193TIP3    H2 3521   5.192   2.579   6.370
 1194TIP3   OH2 3522   0.898   7.425   6.348
 1194TIP3    H1 3523   0.911   7.336   6.379
 1194TIP3    H2 3524   0.830   7.461   6.406
 1195TIP3   OH2 3525   3.506   4.564   2.336
 1195TIP3    H1 3526   3.478   4.606   2.255
 1195TIP3    H2 3527   3.474   4.621   2.405
 1196TIP3   OH2 3528   2.707   5.797   2.490
 1196TIP3    H1 3529   2.693   5.712   2.448
 1196TIP3    H2 3530   2.713   5.777   2.583
 1197TIP3   OH2 3531   7.108   5.478   4.779
 1197TIP3    H1 3532   7.174   5.418   4.813
 1197TIP3    H2 3533   7.096   5.450   4.688
 1198TIP3   OH2 3534   2.375   2.768   4.174
 1198TIP3    H1 3535   2.390   2.796   4.264
 1198TIP3    H2 3536   2.328   2.840   4.133
 1199TIP3   OH2 3537   7.953   2.786   0.455
 1199TIP3    H1 3538   7.951   2.737   0.373
 1199TIP3    H2 3539   7.862   2.789   0.484
 1200TIP3   OH2 3540   4.816   4.764   1.215
 1200TIP3    H1 3541   4.823   4.687   1.159
 1200TIP3    H2 3542   4.900   4.809   1.206
 1201TIP3   OH2 3543   6.100   6.992   2.604
 1201TIP3    H1 3544   6.117   6.898   2.600
 1201TIP3    H2 3545   6.103   7.014   2.697
 1202TIP3   OH2 3546   2.387   1.331   0.099
 1202TIP3    H1 3547   2.339   1.259   0.140
 1202TIP3    H2 3548   2.347   1.339   0.012
 1203TIP3   OH2 3549   6.238   4.050   5.039
 1203TIP3    H1 3550   6.251   4.133   5.084
 1203TIP3    H2 3551   6.326   4.013   5.029
 1204TIP3   OH2 3552   4.961   4.344   5.226
 1204TIP3    H1 3553   4.975   4.433   5.258
 1204TIP3    H2 3554   4.902   4.305   5.291
 1205TIP3   OH2 3555   5.195   3.381   5.382
 1205TIP3    H1 3556   5.213   3.474   5.397
 1205TIP3    H2 3557   5.113   3.365   5.429
 1206TIP3   OH2 3558   8.129   7.592   6.260
 1206TIP3    H1 3559   8.110   7.641   6.340
 1206TIP3    H2 3560   8.181   7.517   6.290
 1207TIP3   OH2 3561   6.680   6.490   5.668
 1207TIP3    H1 3562   6.585   6.483   5.677
 1207TIP3    H2 3563   6.697   6.584   5.672
 1208TIP3   OH2 3564   4.499   3.063   1.036
 1208TIP3    H1 3565   4.564   3.009   1.081
 1208TIP3    H2 3566   4.416   3.042   1.078
 1209TIP3   OH2 3567   3.773   3.985   1.150
 1209TIP3    H1 3568   3.747   4.063   1.198
 1209TIP3    H2 3569   3.777   4.014   1.059
 1210TIP3   OH2 3570   6.308   0.203   4.599
 1210TIP3    H1 3571   6.366   0.263   4.553
 1210TIP3    H2 3572   6.221   0.240   4.587
 1211TIP3   OH2 3573   7.100   4.056   2.507
 1211TIP3    H1 3574   7.133   4.139   2.542
 1211TIP3    H2 3575   7.052   4.081   2.428
 1212TIP3   OH2 3576   0.098   0.065   4.817
 1212TIP3    H1 3577   0.045   0.094   4.743
 1212TIP3    H2 3578   0.116  -0.027   4.798
 1213TIP3   OH2 3579   5.861   6.151   4.515
 1213TIP3    H1 3580   5.773   6.169   4.483
 1213TIP3    H2 3581   5.864   6.056   4.525
 1214TIP3   OH2 3582   7.345   7.753   6.205
 1214TIP3    H1 3583   7.332   7.671   6.254
 1214TIP3    H2 3584   7.439   7.770   6.210
 1215TIP3   OH2 3585   5.919   7.500   4.259
 1215TIP3    H1 3586   5.889   7.423   4.212
 1215TIP3    H2 3587   5.855   7.512   4.329
 1216TIP3   OH2 3588   1.947   5.010   3.507
 1216TIP3    H1 3589   1.883   5.054   3.564
 1216TIP3    H2 3590   1.979   5.079   3.449
 1217TIP3   OH2 3591   4.978   0.636   3.342
 1217TIP3    H1 3592   4.891   0.644   3.303
 1217TIP3    H2 3593   5.016   0.559   3.300
 1218TIP3   OH2 3594   8.071   5.088   5.899
 1218TIP3    H1 3595   8.073   5.148   5.973
 1218TIP3    H2 3596   8.131   5.018   5.923
 1219TIP3   OH2 3597   7.253   5.856   5.868
 1219TIP3    H1 3598   7.226   5.893   5.784
 1219TIP3    H2 3599   7.309   5.782   5.845
 1220TIP3   OH2 3600   5.954   3.610   2.097
 1220TIP3    H1 3601   5.884   3.620   2.032
 1220TIP3    H2 3602   5.966   3.698   2.133
 1221TIP3   OH2 3603   1.883   6.857   6.641
 1221TIP3    H1 3604   1.852   6.839   6.729
 1221TIP3    H2 3605   1.806   6.890   6.595
 1222TIP3   OH2 3606   2.604   6.633   2.748
 1222TIP3    H1 3607   2.562   6.639   2.663
 1222TIP3    H2 3608   2.617   6.539   2.762
 1223TIP3   OH2 3609   0.660   2.871   0.498
 1223TIP3    H1 3610   0.631   2.960   0.478
 1223TIP3    H2 3611   0.754   2.873   0.481
 1224TIP3   OH2 3612   1.980   5.120   4.337
 1224TIP3    H1 3613   1.919   5.048   4.321
 1224TIP3    H2 3614   1.940   5.169   4.409
 1225TIP3   OH2 3615   1.517   3.913   1.455
 1225TIP3    H1 3616   1.583   3.952   1.512
 1225TIP3    H2 3617   1.545   3.938   1.367
 1226TIP3   OH2 3618   2.097   1.996   1.399
 1226TIP3    H1 3619   2.130   2.069   1.451
 1226TIP3    H2 3620   2.096   2.028   1.309
 1227TIP3   OH2 3621   4.250   2.460   3.234
 1227TIP3    H1 3622   4.296   2.532   3.277
 1227TIP3    H2 3623   4.157   2.480   3.245
 1228TIP3   OH2 3624   4.207   5.278   2.500
 1228TIP3    H1 3625   4.270   5.341   2.534
 1228TIP3    H2 3626   4.158   5.250   2.576
 1229TIP3   OH2 3627   3.455   1.467   0.048
 1229TIP3    H1 3628   3.432   1.556   0.023
 1229TIP3    H2 3629   3.373   1.428   0.078
 1230TIP3   OH2 3630   3.380   2.051   4.898
 1230TIP3    H1 3631   3.464   2.076   4.937
 1230TIP3    H2 3632   3.384   2.084   4.809
 1231TIP3   OH2 3633   0.415   2.191   5.678
 1231TIP3    H1 3634   0.376   2.120   5.627
 1231TIP3    H2 3635   0.403   2.269   5.624
 1232TIP3   OH2 3636   0.228   5.219   6.593
 1232TIP3    H1 3637   0.269   5.187   6.513
 1232TIP3    H2 3638   0.137   5.236   6.568
 1233TIP3   OH2 3639   3.624   3.809   6.548
 1233TIP3    H1 3640   3.695   3.778   6.604
 1233TIP3    H2 3641   3.570   3.864   6.605
 1234TIP3   OH2 3642   1.066   0.790   1.446
 1234TIP3    H1 3643   1.113   0.816   1.525
 1234TIP3    H2 3644   1.037   0.873   1.407
 1235TIP3   OH2 3645   2.286   6.087   2.787
 1235TIP3    H1 3646   2.279   6.021   2.718
 1235TIP3    H2 3647   2.365   6.136   2.765
 1236TIP3   OH2 3648   6.633   2.294   5.864
 1236TIP3    H1 3649   6.714   2.264   5.904
 1236TIP3    H2 3650   6.639   2.265   5.773
 1237TIP3   OH2 3651   6.194   7.412   3.050
 1237TIP3    H1 3652   6.105   7.382   3.031
 1237TIP3    H2 3653   6.229   7.440   2.966
 1238TIP3   OH2 3654   7.564   1.170   0.692
 1238TIP3    H1 3655   7.516   1.138   0.615
 1238TIP3    H2 3656   7.515   1.246   0.722
 1239TIP3   OH2 3657   0.602   2.541   6.634
 1239TIP3    H1 3658   0.611   2.471   6.699
 1239TIP3    H2 3659   0.570   2.616   6.684
 1240TIP3   OH2 3660   6.010   5.230   5.974
 1240TIP3    H1 3661   5.927   5.243   5.928
 1240TIP3    H2 3662   5.995   5.268   6.061
 1241TIP3   OH2 3663   4.973   3.619   3.437
 1241TIP3    H1 3664   4.925   3.628   3.355
 1241TIP3    H2 3665   5.003   3.528   3.437
 1242TIP3   OH2 3666   7.510   7.357   1.308
 1242TIP3    H1 3667   7.572   7.313   1.365
 1242TIP3    H2 3668   7.546   7.445   1.296
 1243TIP3   OH2 3669   0.886   2.141   1.550
 1243TIP3    H1 3670   0.936   2.223   1.541
 1243TIP3    H2 3671   0.937   2.076   1.502
 1244TIP3   OH2 3672   8.280   1.557   2.861
 1244TIP3    H1 3673   8.244   1.576   2.948
 1244TIP3    H2 3674   8.219   1.599   2.800
 1245TIP3   OH2 3675   4.890   4.476   4.877
 1245TIP3    H1 3676   4.985   4.479   4.870
 1245TIP3    H2 3677   4.860   4.556   4.834
 1246TIP3   OH2 3678   0.373   0.854   5.241
 1246TIP3    H1 3679   0.377   0.944   5.274
 1246TIP3    H2 3680   0.283   0.843   5.210
 1247TIP3   OH2 3681   8.086   7.948   6.516
 1247TIP3    H1 3682   8.108   7.910   6.601
 1247TIP3    H2 3683   8.010   8.003   6.533
 1248TIP3   OH2 3684   5.059   0.643   5.881
 1248TIP3    H1 3685   4.993   0.583   5.847
 1248TIP3    H2 3686   5.081   0.609   5.967
 1249TIP3   OH2 3687   6.697   7.518   3.194
 1249TIP3    H1 3688   6.659   7.605   3.190
 1249TIP3    H2 3689   6.668   7.482   3.277
 1250TIP3   OH2 3690   1.610   2.346   3.235
 1250TIP3    H1 3691   1.574   2.262   3.206
 1250TIP3    H2 3692   1.545   2.380   3.296
 1251TIP3   OH2 3693   7.224   3.794   4.190
 1251TIP3    H1 3694   7.166   3.870   4.180
 1251TIP3    H2 3695   7.172   3.731   4.240
 1252TIP3   OH2 3696   0.077   5.785   2.757
 1252TIP3    H1 3697   0.095   5.870   2.796
 1252TIP3    H2 3698   0.007   5.802   2.694
 1253TIP3   OH2 3699   3.641   6.759   6.268
 1253TIP3    H1 3700   3.554   6.753   6.227
 1253TIP3    H2 3701   3.702   6.760   6.195
 1254TIP3   OH2 3702   7.712   3.989   4.306
 1254TIP3    H1 3703   7.619   4.004   4.322
 1254TIP3    H2 3704   7.750   4.077   4.301
 1255TIP3   OH2 3705   5.203   7.132   1.075
 1255TIP3    H1 3706   5.243   7.101   0.993
 1255TIP3    H2 3707   5.264   7.105   1.143
 1256TIP3   OH2 3708   0.933   6.983   5.604
 1256TIP3    H1 3709   0.988   6.905   5.612
 1256TIP3    H2 3710   0.854   6.953   5.558
 1257TIP3   OH2 3711   7.490   3.559   5.038
 1257TIP3    H1 3712   7.494   3.493   4.969
 1257TIP3    H2 3713   7.425   3.525   5.100
 1258TIP3   OH2 3714   4.111   6.147   4.502
 1258TIP3    H1 3715   4.170   6.213   4.467
 1258TIP3    H2 3716   4.112   6.077   4.436
 1259TIP3   OH2 3717   0.744   5.183   2.125
 1259TIP3    H1 3718   0.736   5.274   2.096
 1259TIP3    H2 3719   0.762   5.188   2.218
 1260TIP3   OH2 3720   8.118   0.503   2.032
 1260TIP3    H1 3721   8.155   0.416   2.042
 1260TIP3    H2 3722   8.034   0.499   2.077
 1261TIP3   OH2 3723   7.421   3.149   3.441
 1261TIP3    H1 3724   7.381   3.235   3.431
 1261TIP3    H2 3725   7.471   3.136   3.361
 1262TIP3   OH2 3726   7.701   3.117   4.875
 1262TIP3    H1 3727   7.767   3.164   4.927
 1262TIP3    H2 3728   7.746   3.092   4.795
 1263TIP3   OH2 3729   7.465   2.397   0.123
 1263TIP3    H1 3730   7.552   2.360   0.133
 1263TIP3    H2 3731   7.459   2.420   0.030
 1264TIP3   OH2 3732   0.551   3.357   3.819
 1264TIP3    H1 3733   0.645   3.368   3.826
 1264TIP3    H2 3734   0.514   3.442   3.842
 1265TIP3   OH2 3735   4.666   6.627   2.914
 1265TIP3    H1 3736   4.744   6.684   2.913
 1265TIP3    H2 3737   4.610   6.666   2.981
 1266TIP3   OH2 3738   1.840   4.888   4.857
 1266TIP3    H1 3739   1.856   4.957   4.921
 1266TIP3    H2 3740   1.764   4.841   4.891
 1267TIP3   OH2 3741   5.627   3.028   1.016
 1267TIP3    H1 3742   5.698   3.045   1.077
 1267TIP3    H2 3743   5.636   3.096   0.949
 1268TIP3   OH2 3744   4.568   2.934   0.767
 1268TIP3    H1 3745   4.663   2.933   0.772
 1268TIP3    H2 3746   4.541   2.999   0.832
 1269TIP3   OH2 3747   8.037   1.718   5.081
 1269TIP3    H1 3748   8.018   1.756   4.995
 1269TIP3    H2 3749   7.963   1.746   5.136
 1270TIP3   OH2 3750   4.747   1.554   1.948
 1270TIP3    H1 3751   4.799   1.616   1.896
 1270TIP3    H2 3752   4.803   1.531   2.021
 1271TIP3   OH2 3753   7.718   6.912   4.373
 1271TIP3    H1 3754   7.704   7.007   4.379
 1271TIP3    H2 3755   7.671   6.886   4.294
 1272TIP3   OH2 3756   3.717   2.273   4.630
 1272TIP3    H1 3757   3.630   2.313   4.627
 1272TIP3    H2 3758   3.706   2.190   4.584
 1273TIP3   OH2 3759   2.936   0.183   5.737
 1273TIP3    H1 3760   3.008   0.175   5.674
 1273TIP3    H2 3761   2.941   0.273   5.768
 1274TIP3   OH2 3762   2.795   2.840   4.040
 1274TIP3    H1 3763   2.803   2.832   3.945
 1274TIP3    H2 3764   2.882   2.870   4.068
 1275TIP3   OH2 3765   7.411   1.632   6.344
 1275TIP3    H1 3766   7.374   1.544   6.340
 1275TIP3    H2 3767   7.399   1.667   6.256
 1276TIP3   OH2 3768   3.859   6.427   1.646
 1276TIP3    H1 3769   3.913   6.351   1.625
 1276TIP3    H2 3770   3.900   6.499   1.598
 1277TIP3   OH2 3771   3.247   6.600   6.417
 1277TIP3    H1 3772   3.297   6.543   6.475
 1277TIP3    H2 3773   3.157   6.595   6.450
 1278TIP3   OH2 3774   4.418   4.569   4.576
 1278TIP3    H1 3775   4.465   4.486   4.571
 1278TIP3    H2 3776   4.385   4.583   4.487
 1279TIP3   OH2 3777   3.646   6.801   0.439
 1279TIP3    H1 3778   3.567   6.816   0.387
 1279TIP3    H2 3779   3.615   6.795   0.529
 1280TIP3   OH2 3780   0.355   1.358   3.081
 1280TIP3    H1 3781   0.416   1.316   3.021
 1280TIP3    H2 3782   0.292   1.289   3.104
 1281TIP3   OH2 3783   5.215   1.555   0.438
 1281TIP3    H1 3784   5.229   1.461   0.432
 1281TIP3    H2 3785   5.301   1.593   0.424
 1282TIP3   OH2 3786   3.287   0.368   6.348
 1282TIP3    H1 3787   3.309   0.372   6.440
 1282TIP3    H2 3788   3.258   0.278   6.334
 1283TIP3   OH2 3789   2.579   0.185   2.308
 1283TIP3    H1 3790   2.575   0.278   2.286
 1283TIP3    H2 3791   2.615   0.143   2.230
 1284TIP3   OH2 3792   1.381   4.045   1.872
 1284TIP3    H1 3793   1.476   4.051   1.880
 1284TIP3    H2 3794   1.358   3.964   1.918
 1285TIP3   OH2 3795   2.387   1.542   6.232
 1285TIP3    H1 3796   2.319   1.480   6.261
 1285TIP3    H2 3797   2.369   1.555   6.139
 1286TIP3   OH2 3798   2.916   2.399   3.418
 1286TIP3    H1 3799   2.916   2.391   3.322
 1286TIP3    H2 3800   2.890   2.313   3.449
 1287TIP3   OH2 3801   0.057   4.537   0.227
 1287TIP3    H1 3802   0.114   4.525   0.303
 1287TIP3    H2 3803   0.117   4.563   0.157
 1288TIP3   OH2 3804   4.108   4.933   5.116
 1288TIP3    H1 3805   4.100   4.871   5.188
 1288TIP3    H2 3806   4.041   4.998   5.133
 1289TIP3   OH2 3807   6.142   3.228   1.945
 1289TIP3    H1 3808   6.199   3.178   1.887
 1289TIP3    H2 3809   6.060   3.238   1.896
 1290TIP3   OH2 3810   5.114   4.566  -0.001
 1290TIP3    H1 3811   5.174   4.491   0.009
 1290TIP3    H2 3812   5.162   4.627  -0.057
 1291TIP3   OH2 3813   4.201   2.542   0.343
 1291TIP3    H1 3814   4.206   2.537   0.438
 1291TIP3    H2 3815   4.145   2.617   0.325
 1292TIP3   OH2 3816  -0.010   4.939   6.499
 1292TIP3    H1 3817   0.050   4.895   6.439
 1292TIP3    H2 3818  -0.004   5.032   6.474
 1293TIP3   OH2 3819   5.422   0.838   4.189
 1293TIP3    H1 3820   5.434   0.930   4.167
 1293TIP3    H2 3821   5.467   0.827   4.272
 1294TIP3   OH2 3822   5.080   4.299   2.399
 1294TIP3    H1 3823   5.113   4.219   2.358
 1294TIP3    H2 3824   5.146   4.323   2.463
 1295TIP3   OH2 3825   3.371   2.133   4.642
 1295TIP3    H1 3826   3.299   2.085   4.602
 1295TIP3    H2 3827   3.450   2.096   4.601
 1296TIP3   OH2 3828   6.561   2.970   0.529
 1296TIP3    H1 3829   6.591   2.937   0.444
 1296TIP3    H2 3830   6.638   2.960   0.586
 1297TIP3   OH2 3831   4.195   1.777   1.756
 1297TIP3    H1 3832   4.123   1.828   1.719
 1297TIP3    H2 3833   4.231   1.730   1.681
 1298TIP3   OH2 3834   6.953   4.202   5.395
 1298TIP3    H1 3835   6.893   4.150   5.341
 1298TIP3    H2 3836   6.969   4.281   5.343
 1299TIP3   OH2 3837   2.596   5.299   6.794
 1299TIP3    H1 3838   2.592   5.361   6.720
 1299TIP3    H2 3839   2.656   5.340   6.856
 1300TIP3   OH2 3840   7.990   1.066   2.611
 1300TIP3    H1 3841   8.012   1.153   2.575
 1300TIP3    H2 3842   7.923   1.084   2.676
 1301TIP3   OH2 3843   1.161   3.344   2.918
 1301TIP3    H1 3844   1.219   3.330   2.993
 1301TIP3    H2 3845   1.198   3.289   2.849
 1302TIP3   OH2 3846   5.102   3.986   4.401
 1302TIP3    H1 3847   5.177   4.025   4.447
 1302TIP3    H2 3848   5.027   4.039   4.428
 1303TIP3   OH2 3849   0.582   5.450   4.720
 1303TIP3    H1 3850   0.517   5.504   4.676
 1303TIP3    H2 3851   0.657   5.449   4.661
 1304TIP3   OH2 3852   0.662   0.866   2.937
 1304TIP3    H1 3853   0.707   0.836   2.858
 1304TIP3    H2 3854   0.611   0.791   2.966
 1305TIP3   OH2 3855   6.143   3.138   4.863
 1305TIP3    H1 3856   6.105   3.063   4.819
 1305TIP3    H2 3857   6.073   3.172   4.918
 1306TIP3   OH2 3858   1.036   2.918   5.630
 1306TIP3    H1 3859   0.959   2.905   5.686
 1306TIP3    H2 3860   1.020   2.863   5.553
 1307TIP3   OH2 3861   3.334   6.522   3.394
 1307TIP3    H1 3862   3.354   6.529   3.487
 1307TIP3    H2 3863   3.405   6.569   3.350
 1308TIP3   OH2 3864   7.373   4.326   2.866
 1308TIP3    H1 3865   7.341   4.239   2.889
 1308TIP3    H2 3866   7.354   4.380   2.942
 1309TIP3   OH2 3867   1.876   0.394   0.697
 1309TIP3    H1 3868   1.807   0.357   0.752
 1309TIP3    H2 3869   1.921   0.457   0.754
 1310TIP3   OH2 3870   2.779   0.927   2.449
 1310TIP3    H1 3871   2.775   0.989   2.376
 1310TIP3    H2 3872   2.718   0.857   2.423
 1311TIP3   OH2 3873   7.408   3.710   3.623
 1311TIP3    H1 3874   7.453   3.628   3.647
 1311TIP3    H2 3875   7.415   3.764   3.702
 1312TIP3   OH2 3876   6.747   5.986   0.988
 1312TIP3    H1 3877   6.747   5.896   0.955
 1312TIP3    H2 3878   6.711   6.038   0.917
 1313TIP3   OH2 3879   1.850   2.057   4.020
 1313TIP3    H1 3880   1.764   2.084   4.051
 1313TIP3    H2 3881   1.879   2.128   3.963
 1314TIP3   OH2 3882   3.935   4.323   5.152
 1314TIP3    H1 3883   4.004   4.257   5.140
 1314TIP3    H2 3884   3.966   4.399   5.104
 1315TIP3   OH2 3885   7.072   5.341   1.975
 1315TIP3    H1 3886   7.085   5.250   1.950
 1315TIP3    H2 3887   6.993   5.368   1.928
 1316TIP3   OH2 3888   5.741   7.729   4.711
 1316TIP3    H1 3889   5.757   7.667   4.639
 1316TIP3    H2 3890   5.705   7.675   4.781
 1317TIP3   OH2 3891   1.292   5.011   3.811
 1317TIP3    H1 3892   1.302   4.927   3.856
 1317TIP3    H2 3893   1.382   5.043   3.798
 1318TIP3   OH2 3894   2.695   7.958   1.430
 1318TIP3    H1 3895   2.619   8.012   1.407
 1318TIP3    H2 3896   2.737   7.939   1.346
 1319TIP3   OH2 3897   1.740   2.884   5.108
 1319TIP3    H1 3898   1.669   2.938   5.073
 1319TIP3    H2 3899   1.721   2.877   5.202
 1320TIP3   OH2 3900   2.145   1.506   2.217
 1320TIP3    H1 3901   2.163   1.440   2.150
 1320TIP3    H2 3902   2.074   1.469   2.269
 1321TIP3   OH2 3903   5.884   7.460   5.123
 1321TIP3    H1 3904   5.851   7.549   5.126
 1321TIP3    H2 3905   5.818   7.411   5.074
 1322TIP3   OH2 3906   7.190   7.046   4.920
 1322TIP3    H1 3907   7.130   6.989   4.873
 1322TIP3    H2 3908   7.215   6.997   4.998
 1323TIP3   OH2 3909   8.405   0.801   1.859
 1323TIP3    H1 3910   8.374   0.719   1.820
 1323TIP3    H2 3911   8.470   0.774   1.923
 1324TIP3   OH2 3912   4.201   3.570   4.907
 1324TIP3    H1 3913   4.122   3.613   4.875
 1324TIP3    H2 3914   4.235   3.522   4.832
 1325TIP3   OH2 3915   3.868   5.007   3.502
 1325TIP3    H1 3916   3.838   5.005   3.411
 1325TIP3    H2 3917   3.851   5.097   3.531
 1326TIP3   OH2 3918   6.090   2.629   0.332
 1326TIP3    H1 3919   6.145   2.691   0.285
 1326TIP3    H2 3920   6.020   2.682   0.369
 1327TIP3   OH2 3921   0.334   6.718   4.477
 1327TIP3    H1 3922   0.293   6.727   4.563
 1327TIP3    H2 3923   0.271   6.756   4.416
 1328TIP3   OH2 3924   6.489   6.901   4.301
 1328TIP3    H1 3925   6.396   6.888   4.320
 1328TIP3    H2 3926   6.489   6.959   4.225
 1329TIP3   OH2 3927   5.479   2.334   6.022
 1329TIP3    H1 3928   5.520   2.420   6.029
 1329TIP3    H2 3929   5.386   2.351   6.036
 1330TIP3   OH2 3930   4.446   2.076   5.530
 1330TIP3    H1 3931   4.362   2.082   5.483
 1330TIP3    H2 3932   4.427   2.019   5.605
 1331TIP3   OH2 3933   5.014   7.261   5.502
 1331TIP3    H1 3934   5.084   7.204   5.532
 1331TIP3    H2 3935   4.936   7.229   5.547
 1332TIP3   OH2 3936   2.487   7.533   2.473
 1332TIP3    H1 3937   2.439   7.463   2.518
 1332TIP3    H2 3938   2.459   7.528   2.382
 1333TIP3   OH2 3939   5.972   6.098   3.983
 1333TIP3    H1 3940   6.058   6.059   3.999
 1333TIP3    H2 3941   5.992   6.185   3.949
 1334TIP3   OH2 3942   3.122   3.352   0.335
 1334TIP3    H1 3943   3.086   3.264   0.323
 1334TIP3    H2 3944   3.142   3.382   0.246
 1335TIP3   OH2 3945   6.697   1.857   2.492
 1335TIP3    H1 3946   6.614   1.862   2.540
 1335TIP3    H2 3947   6.682   1.910   2.413
 1336TIP3   OH2 3948   2.588   6.585   1.014
 1336TIP3    H1 3949   2.496   6.566   1.031
 1336TIP3    H2 3950   2.603   6.556   0.924
 1337TIP3   OH2 3951   3.689   6.478   4.213
 1337TIP3    H1 3952   3.779   6.504   4.192
 1337TIP3    H2 3953   3.694   6.440   4.301
 1338TIP3   OH2 3954   5.107   7.767   5.478
 1338TIP3    H1 3955   5.145   7.853   5.496
 1338TIP3    H2 3956   5.182   7.708   5.472
 1339TIP3   OH2 3957   1.398   0.760   4.004
 1339TIP3    H1 3958   1.417   0.668   4.025
 1339TIP3    H2 3959   1.312   0.758   3.963
 1340TIP3   OH2 3960   7.736   4.044   2.467
 1340TIP3    H1 3961   7.678   3.970   2.450
 1340TIP3    H2 3962   7.753   4.040   2.561
 1341TIP3   OH2 3963   6.813   7.555   1.833
 1341TIP3    H1 3964   6.881   7.519   1.890
 1341TIP3    H2 3965   6.857   7.572   1.750
 1342TIP3   OH2 3966   1.655   7.446   5.061
 1342TIP3    H1 3967   1.724   7.466   5.123
 1342TIP3    H2 3968   1.699   7.439   4.977
 1343TIP3   OH2 3969   4.009   7.827   5.943
 1343TIP3    H1 3970   3.922   7.814   5.905
 1343TIP3    H2 3971   4.057   7.747   5.924
 1344TIP3   OH2 3972   3.081   6.843   1.471
 1344TIP3    H1 3973   2.991   6.878   1.468
 1344TIP3    H2 3974   3.097   6.826   1.564
 1345TIP3   OH2 3975   4.177   6.669   4.249
 1345TIP3    H1 3976   4.111   6.738   4.255
 1345TIP3    H2 3977   4.185   6.636   4.338
 1346TIP3   OH2 3978   1.126   2.684   5.017
 1346TIP3    H1 3979   1.088   2.651   4.936
 1346TIP3    H2 3980   1.220   2.678   5.005
 1347TIP3   OH2 3981   6.608   4.955   1.143
 1347TIP3    H1 3982   6.576   4.877   1.188
 1347TIP3    H2 3983   6.689   4.926   1.100
 1348TIP3   OH2 3984   5.992   1.003   2.608
 1348TIP3    H1 3985   5.939   1.000   2.688
 1348TIP3    H2 3986   5.971   0.922   2.562
 1349TIP3   OH2 3987   5.575   5.739   1.793
 1349TIP3    H1 3988   5.665   5.750   1.823
 1349TIP3    H2 3989   5.526   5.713   1.871
 1350TIP3   OH2 3990   7.183   3.265   4.998
 1350TIP3    H1 3991   7.210   3.297   4.911
 1350TIP3    H2 3992   7.088   3.259   4.992
 1351TIP3   OH2 3993   6.815   0.434   3.902
 1351TIP3    H1 3994   6.796   0.518   3.942
 1351TIP3    H2 3995   6.772   0.437   3.816
 1352TIP3   OH2 3996   0.908   1.243   4.948
 1352TIP3    H1 3997   0.978   1.223   5.010
 1352TIP3    H2 3998   0.828   1.234   4.999
 1353TIP3   OH2 3999   7.966   0.056   2.091
 1353TIP3    H1 4000   7.937   0.118   2.158
 1353TIP3    H2 4001   7.987  -0.024   2.140
 1354TIP3   OH2 4002   7.319   6.927   5.220
 1354TIP3    H1 4003   7.332   6.843   5.263
 1354TIP3    H2 4004   7.224   6.936   5.213
 1355TIP3   OH2 4005   2.747   5.290   3.606
 1355TIP3    H1 4006   2.696   5.210   3.614
 1355TIP3    H2 4007   2.821   5.277   3.666
 1356TIP3   OH2 4008   4.989   0.631   2.245
 1356TIP3    H1 4009   4.916   0.690   2.227
 1356TIP3    H2 4010   4.995   0.629   2.341
 1357TIP3   OH2 4011   0.908   2.772   5.123
 1357TIP3    H1 4012   0.994   2.743   5.092
 1357TIP3    H2 4013   0.890   2.852   5.073
 1358TIP3   OH2 4014   0.785   5.844   5.771
 1358TIP3    H1 4015   0.769   5.937   5.763
 1358TIP3    H2 4016   0.878   5.833   5.749
 1359TIP3   OH2 4017   4.011   4.498   0.121
 1359TIP3    H1 4018   4.019   4.442   0.199
 1359TIP3    H2 4019   4.084   4.471   0.065
 1360TIP3   OH2 4020   3.864   0.605   6.737
 1360TIP3    H1 4021   3.929   0.675   6.739
 1360TIP3    H2 4022   3.785   0.644   6.774
 1361TIP3   OH2 4023   4.644   5.396   2.274
 1361TIP3    H1 4024   4.607   5.484   2.275
 1361TIP3    H2 4025   4.737   5.409   2.260
 1362TIP3   OH2 4026   3.189   2.476   6.452
 1362TIP3    H1 4027   3.210   2.408   6.515
 1362TIP3    H2 4028   3.260   2.539   6.459
 1363TIP3   OH2 4029   1.350   3.624   4.882
 1363TIP3    H1 4030   1.437   3.639   4.845
 1363TIP3    H2 4031   1.289   3.644   4.811
 1364TIP3   OH2 4032   7.719   6.415   4.708
 1364TIP3    H1 4033   7.762   6.496   4.682
 1364TIP3    H2 4034   7.645   6.443   4.762
 1365TIP3   OH2 4035   4.028   4.341   5.653
 1365TIP3    H1 4036   3.987   4.282   5.589
 1365TIP3    H2 4037   4.084   4.284   5.706
 1366TIP3   OH2 4038   2.177   5.902   3.996
 1366TIP3    H1 4039   2.214   5.819   4.026
 1366TIP3    H2 4040   2.083   5.894   4.014
 1367TIP3   OH2 4041   4.022   1.677   5.173
 1367TIP3    H1 4042   4.058   1.617   5.108
 1367TIP3    H2 4043   4.098   1.707   5.223
 1368TIP3   OH2 4044   8.234   1.139   3.629
 1368TIP3    H1 4045   8.210   1.085   3.705
 1368TIP3    H2 4046   8.220   1.229   3.659
 1369TIP3   OH2 4047   8.048   0.681   0.796
 1369TIP3    H1 4048   8.019   0.772   0.794
 1369TIP3    H2 4049   8.027   0.651   0.885
 1370TIP3   OH2 4050   4.949   4.071   3.444
 1370TIP3    H1 4051   4.964   4.122   3.523
 1370TIP3    H2 4052   4.913   3.988   3.474
 1371TIP3   OH2 4053   0.064   7.409   0.203
 1371TIP3    H1 4054   0.155   7.440   0.207
 1371TIP3    H2 4055   0.063   7.332   0.261
 1372TIP3   OH2 4056   3.695   0.944   2.713
 1372TIP3    H1 4057   3.693   0.930   2.618
 1372TIP3    H2 4058   3.663   1.033   2.725
 1373TIP3   OH2 4059   4.988   6.876   2.345
 1373TIP3    H1 4060   4.946   6.949   2.300
 1373TIP3    H2 4061   5.078   6.876   2.313
 1374TIP3   OH2 4062   4.994   2.206   4.232
 1374TIP3    H1 4063   4.936   2.130   4.224
 1374TIP3    H2 4064   5.070   2.172   4.279
 1375TIP3   OH2 4065   5.666   2.588   4.508
 1375TIP3    H1 4066   5.701   2.504   4.535
 1375TIP3    H2 4067   5.709   2.606   4.424
 1376TIP3   OH2 4068   3.860   6.514   2.819
 1376TIP3    H1 4069   3.952   6.517   2.796
 1376TIP3    H2 4070   3.849   6.584   2.883
 1377TIP3   OH2 4071   8.051   6.431   4.631
 1377TIP3    H1 4072   8.012   6.418   4.544
 1377TIP3    H2 4073   8.077   6.523   4.632
 1378TIP3   OH2 4074   8.327   4.018   2.601
 1378TIP3    H1 4075   8.296   4.024   2.692
 1378TIP3    H2 4076   8.363   3.930   2.594
 1379TIP3   OH2 4077   0.543   5.242   6.239
 1379TIP3    H1 4078   0.596   5.268   6.163
 1379TIP3    H2 4079   0.487   5.318   6.256
 1380TIP3   OH2 4080   3.349   4.330   2.300
 1380TIP3    H1 4081   3.400   4.410   2.314
 1380TIP3    H2 4082   3.288   4.327   2.374
 1381TIP3   OH2 4083   1.167   6.614   3.099
 1381TIP3    H1 4084   1.080   6.575   3.086
 1381TIP3    H2 4085   1.150   6.693   3.151
 1382TIP3   OH2 4086   1.100   2.546   4.292
 1382TIP3    H1 4087   1.065   2.553   4.203
 1382TIP3    H2 4088   1.045   2.605   4.344
 1383TIP3   OH2 4089   6.364   6.477   1.473
 1383TIP3    H1 4090   6.336   6.424   1.398
 1383TIP3    H2 4091   6.395   6.558   1.434
 1384TIP3   OH2 4092   6.791   4.526   3.446
 1384TIP3    H1 4093   6.859   4.586   3.417
 1384TIP3    H2 4094   6.810   4.512   3.539
 1385TIP3   OH2 4095   3.306   3.060   6.243
 1385TIP3    H1 4096   3.228   3.006   6.232
 1385TIP3    H2 4097   3.291   3.137   6.188
 1386TIP3   OH2 4098   7.451   0.773   4.287
 1386TIP3    H1 4099   7.405   0.753   4.369
 1386TIP3    H2 4100   7.544   0.765   4.310
 1387TIP3   OH2 4101   3.437   4.697   0.488
 1387TIP3    H1 4102   3.432   4.625   0.425
 1387TIP3    H2 4103   3.349   4.735   0.488
 1388TIP3   OH2 4104   3.053   7.411   0.020
 1388TIP3    H1 4105   3.057   7.437  -0.072
 1388TIP3    H2 4106   3.117   7.340   0.028
 1389TIP3   OH2 4107   5.778   7.329   4.744
 1389TIP3    H1 4108   5.767   7.294   4.832
 1389TIP3    H2 4109   5.712   7.399   4.738
 1390TIP3   OH2 4110   2.354   6.120   2.402
 1390TIP3    H1 4111   2.298   6.128   2.325
 1390TIP3    H2 4112   2.326   6.039   2.444
 1391TIP3   OH2 4113   1.268   6.445   0.237
 1391TIP3    H1 4114   1.245   6.508   0.169
 1391TIP3    H2 4115   1.209   6.467   0.310
 1392TIP3   OH2 4116   1.610   7.737   0.312
 1392TIP3    H1 4117   1.560   7.706   0.387
 1392TIP3    H2 4118   1.546   7.749   0.243
 1393TIP3   OH2 4119   6.333   5.134   2.626
 1393TIP3    H1 4120   6.406   5.155   2.686
 1393TIP3    H2 4121   6.264   5.196   2.651
 1394TIP3   OH2 4122   0.741   0.373   0.129
 1394TIP3    H1 4123   0.691   0.454   0.138
 1394TIP3    H2 4124   0.682   0.305   0.162
 1395TIP3   OH2 4125   3.652   0.642   3.602
 1395TIP3    H1 4126   3.656   0.644   3.506
 1395TIP3    H2 4127   3.676   0.730   3.629
 1396TIP3   OH2 4128   7.042   1.883   1.455
 1396TIP3    H1 4129   6.947   1.886   1.445
 1396TIP3    H2 4130   7.075   1.866   1.366
 1397TIP3   OH2 4131   2.400   7.958   4.897
 1397TIP3    H1 4132   2.310   7.937   4.873
 1397TIP3    H2 4133   2.396   7.979   4.990
 1398TIP3   OH2 4134   2.627   7.316   6.547
 1398TIP3    H1 4135   2.647   7.262   6.623
 1398TIP3    H2 4136   2.650   7.405   6.573
 1399TIP3   OH2 4137   7.238   1.316   2.716
 1399TIP3    H1 4138   7.250   1.333   2.809
 1399TIP3    H2 4139   7.224   1.402   2.677
 1400TIP3   OH2 4140   2.094   4.263   0.311
 1400TIP3    H1 4141   2.137   4.182   0.283
 1400TIP3    H2 4142   2.146   4.333   0.272
 1401TIP3   OH2 4143   4.238   2.309   1.593
 1401TIP3    H1 4144   4.160   2.356   1.623
 1401TIP3    H2 4145   4.272   2.364   1.522
 1402TIP3   OH2 4146   7.070   7.562   2.558
 1402TIP3    H1 4147   7.022   7.488   2.520
 1402TIP3    H2 4148   7.015   7.591   2.631
 1403TIP3   OH2 4149   7.893   2.858   1.000
 1403TIP3    H1 4150   7.926   2.768   0.997
 1403TIP3    H2 4151   7.900   2.889   0.910
 1404TIP3   OH2 4152   4.834   7.642   3.114
 1404TIP3    H1 4153   4.851   7.605   3.027
 1404TIP3    H2 4154   4.920   7.648   3.155
 1405TIP3   OH2 4155   1.170   7.584   5.288
 1405TIP3    H1 4156   1.236   7.551   5.228
 1405TIP3    H2 4157   1.203   7.564   5.376
 1406TIP3   OH2 4158   2.190   6.817   6.207
 1406TIP3    H1 4159   2.279   6.844   6.230
 1406TIP3    H2 4160   2.136   6.846   6.280
 1407TIP3   OH2 4161   0.851   4.351   0.219
 1407TIP3    H1 4162   0.849   4.351   0.315
 1407TIP3    H2 4163   0.911   4.280   0.196
 1408TIP3   OH2 4164   7.517   2.197   1.382
 1408TIP3    H1 4165   7.569   2.224   1.305
 1408TIP3    H2 4166   7.520   2.273   1.440
 1409TIP3   OH2 4167   0.182   4.820   4.479
 1409TIP3    H1 4168   0.194   4.897   4.535
 1409TIP3    H2 4169   0.191   4.853   4.390
 1410TIP3   OH2 4170   2.242   2.271   6.286
 1410TIP3    H1 4171   2.173   2.336   6.295
 1410TIP3    H2 4172   2.319   2.312   6.325
 1411TIP3   OH2 4173   2.405   3.973   0.746
 1411TIP3    H1 4174   2.369   3.887   0.769
 1411TIP3    H2 4175   2.351   4.035   0.795
 1412TIP3   OH2 4176   3.185   6.804   4.597
 1412TIP3    H1 4177   3.095   6.805   4.564
 1412TIP3    H2 4178   3.222   6.887   4.569
 1413TIP3   OH2 4179   3.740   1.291   0.653
 1413TIP3    H1 4180   3.759   1.242   0.733
 1413TIP3    H2 4181   3.682   1.234   0.603
 1414TIP3   OH2 4182   6.847   6.808   3.258
 1414TIP3    H1 4183   6.788   6.757   3.314
 1414TIP3    H2 4184   6.914   6.745   3.231
 1415TIP3   OH2 4185   3.926   1.960   5.729
 1415TIP3    H1 4186   3.891   2.045   5.758
 1415TIP3    H2 4187   4.020   1.968   5.741
 1416TIP3   OH2 4188   5.018   1.099   5.480
 1416TIP3    H1 4189   4.927   1.124   5.462
 1416TIP3    H2 4190   5.070   1.171   5.446
 1417TIP3   OH2 4191   2.386   6.102   0.921
 1417TIP3    H1 4192   2.308   6.154   0.940
 1417TIP3    H2 4193   2.358   6.011   0.937
 1418TIP3   OH2 4194   7.377   5.000   0.758
 1418TIP3    H1 4195   7.460   5.003   0.805
 1418TIP3    H2 4196   7.399   4.970   0.670
 1419TIP3   OH2 4197   5.218   2.578   1.897
 1419TIP3    H1 4198   5.209   2.567   1.802
 1419TIP3    H2 4199   5.132   2.606   1.926
 1420TIP3   OH2 4200   2.232   7.691   6.688
 1420TIP3    H1 4201   2.289   7.710   6.763
 1420TIP3    H2 4202   2.283   7.717   6.611
 1421TIP3   OH2 4203   8.186   0.469   1.769
 1421TIP3    H1 4204   8.193   0.517   1.852
 1421TIP3    H2 4205   8.197   0.377   1.794
 1422TIP3   OH2 4206   1.697   1.687   6.581
 1422TIP3    H1 4207   1.694   1.658   6.490
 1422TIP3    H2 4208   1.629   1.753   6.587
 1423TIP3   OH2 4209   4.327   5.463   5.400
 1423TIP3    H1 4210   4.383   5.429   5.330
 1423TIP3    H2 4211   4.238   5.438   5.373
 1424TIP3   OH2 4212   8.183   0.232   1.301
 1424TIP3    H1 4213   8.109   0.172   1.299
 1424TIP3    H2 4214   8.149   0.312   1.342
 1425TIP3   OH2 4215   1.936   6.816   3.618
 1425TIP3    H1 4216   1.897   6.739   3.659
 1425TIP3    H2 4217   1.938   6.881   3.688
 1426TIP3   OH2 4218   5.784   1.433   1.284
 1426TIP3    H1 4219   5.861   1.466   1.239
 1426TIP3    H2 4220   5.768   1.347   1.244
 1427TIP3   OH2 4221   4.667   1.878   1.619
 1427TIP3    H1 4222   4.641   1.961   1.579
 1427TIP3    H2 4223   4.659   1.893   1.713
 1428TIP3   OH2 4224   3.621   0.963   5.037
 1428TIP3    H1 4225   3.639   0.874   5.065
 1428TIP3    H2 4226   3.548   0.955   4.975
 1429TIP3   OH2 4227   3.191   1.511   0.374
 1429TIP3    H1 4228   3.256   1.441   0.377
 1429TIP3    H2 4229   3.212   1.560   0.294
 1430TIP3   OH2 4230   3.096   5.493   5.903
 1430TIP3    H1 4231   3.080   5.542   5.823
 1430TIP3    H2 4232   3.026   5.428   5.906
 1431TIP3   OH2 4233   2.081   3.028   6.741
 1431TIP3    H1 4234   2.006   2.983   6.780
 1431TIP3    H2 4235   2.151   3.016   6.805
 1432TIP3   OH2 4236   8.153   1.700   2.678
 1432TIP3    H1 4237   8.145   1.665   2.589
 1432TIP3    H2 4238   8.182   1.790   2.665
 1433TIP3   OH2 4239   6.231   5.701   0.191
 1433TIP3    H1 4240   6.190   5.784   0.213
 1433TIP3    H2 4241   6.191   5.677   0.107
 1434TIP3   OH2 4242   3.321   2.402   2.360
 1434TIP3    H1 4243   3.232   2.396   2.395
 1434TIP3    H2 4244   3.320   2.348   2.281
 1435TIP3   OH2 4245   0.388   6.099   4.114
 1435TIP3    H1 4246   0.443   6.176   4.128
 1435TIP3    H2 4247   0.301   6.127   4.143
 1436TIP3   OH2 4248   6.509   0.640   3.047
 1436TIP3    H1 4249   6.491   0.634   2.953
 1436TIP3    H2 4250   6.462   0.567   3.086
 1437TIP3   OH2 4251   7.891   3.082   3.287
 1437TIP3    H1 4252   7.908   3.170   3.321
 1437TIP3    H2 4253   7.923   3.023   3.355
 1438TIP3   OH2 4254   0.065   6.051   4.418
 1438TIP3    H1 4255   0.000   6.111   4.384
 1438TIP3    H2 4256   0.070   6.071   4.512
 1439TIP3   OH2 4257   0.101   3.082   2.667
 1439TIP3    H1 4258   0.176   3.142   2.659
 1439TIP3    H2 4259   0.120   3.030   2.745
 1440TIP3   OH2 4260   7.037   0.990   1.352
 1440TIP3    H1 4261   7.082   0.940   1.284
 1440TIP3    H2 4262   7.000   0.923   1.410
 1441TIP3   OH2 4263   7.511   3.046   5.049
 1441TIP3    H1 4264   7.545   3.085   5.129
 1441TIP3    H2 4265   7.583   3.055   4.986
 1442TIP3   OH2 4266   2.953   7.674   1.009
 1442TIP3    H1 4267   2.941   7.637   1.097
 1442TIP3    H2 4268   2.913   7.609   0.951
 1443TIP3   OH2 4269   6.474   0.777   5.447
 1443TIP3    H1 4270   6.508   0.751   5.361
 1443TIP3    H2 4271   6.512   0.863   5.463
 1444TIP3   OH2 4272   2.770   0.305   0.678
 1444TIP3    H1 4273   2.842   0.247   0.702
 1444TIP3    H2 4274   2.812   0.376   0.629
 1445TIP3   OH2 4275   2.523   4.782   0.454
 1445TIP3    H1 4276   2.611   4.760   0.422
 1445TIP3    H2 4277   2.533   4.866   0.498
 1446TIP3   OH2 4278   3.244   6.727   2.203
 1446TIP3    H1 4279   3.254   6.804   2.259
 1446TIP3    H2 4280   3.152   6.702   2.213
 1447TIP3   OH2 4281   1.006   6.428   2.765
 1447TIP3    H1 4282   0.986   6.340   2.734
 1447TIP3    H2 4283   0.970   6.486   2.698
 1448TIP3   OH2 4284   4.315   7.093   3.228
 1448TIP3    H1 4285   4.356   7.101   3.141
 1448TIP3    H2 4286   4.259   7.016   3.221
 1449TIP3   OH2 4287   4.792   7.583   4.849
 1449TIP3    H1 4288   4.839   7.516   4.898
 1449TIP3    H2 4289   4.776   7.543   4.764
 1450TIP3   OH2 4290   1.878   0.968   5.041
 1450TIP3    H1 4291   1.907   1.059   5.046
 1450TIP3    H2 4292   1.782   0.974   5.045
 1451TIP3   OH2 4293   5.489   2.688   3.141
 1451TIP3    H1 4294   5.497   2.615   3.203
 1451TIP3    H2 4295   5.472   2.646   3.057
 1452TIP3   OH2 4296   7.903   6.906   6.004
 1452TIP3    H1 4297   7.868   6.989   6.036
 1452TIP3    H2 4298   7.998   6.916   6.009
 1453TIP3   OH2 4299   6.552   2.506   5.151
 1453TIP3    H1 4300   6.560   2.589   5.105
 1453TIP3    H2 4301   6.589   2.522   5.238
 1454TIP3   OH2 4302   2.160   3.501   0.208
 1454TIP3    H1 4303   2.099   3.499   0.133
 1454TIP3    H2 4304   2.211   3.420   0.198
 1455TIP3   OH2 4305   1.401   3.420   5.294
 1455TIP3    H1 4306   1.387   3.512   5.318
 1455TIP3    H2 4307   1.496   3.414   5.280
 1456TIP3   OH2 4308   3.747   2.824   0.724
 1456TIP3    H1 4309   3.667   2.831   0.776
 1456TIP3    H2 4310   3.724   2.765   0.652
 1457TIP3   OH2 4311   7.293   6.529   4.807
 1457TIP3    H1 4312   7.241   6.467   4.756
 1457TIP3    H2 4313   7.243   6.540   4.888
 1458TIP3   OH2 4314   1.464   0.428   4.478
 1458TIP3    H1 4315   1.439   0.390   4.393
 1458TIP3    H2 4316   1.558   0.412   4.485
 1459TIP3   OH2 4317   6.521   6.157   2.763
 1459TIP3    H1 4318   6.609   6.131   2.793
 1459TIP3    H2 4319   6.517   6.251   2.782
 1460TIP3   OH2 4320   1.938   7.943   0.944
 1460TIP3    H1 4321   1.906   7.885   1.014
 1460TIP3    H2 4322   2.031   7.925   0.938
 1461TIP3   OH2 4323   5.812   4.927   2.390
 1461TIP3    H1 4324   5.840   4.922   2.298
 1461TIP3    H2 4325   5.723   4.893   2.390
 1462TIP3   OH2 4326   7.954   2.887   2.401
 1462TIP3    H1 4327   8.013   2.836   2.346
 1462TIP3    H2 4328   7.943   2.970   2.354
 1463TIP3   OH2 4329   2.322   5.412   5.989
 1463TIP3    H1 4330   2.259   5.358   6.036
 1463TIP3    H2 4331   2.360   5.469   6.055
 1464TIP3   OH2 4332   2.148   7.182   2.711
 1464TIP3    H1 4333   2.179   7.097   2.742
 1464TIP3    H2 4334   2.053   7.174   2.708
 1465TIP3   OH2 4335   8.323   5.485   5.608
 1465TIP3    H1 4336   8.361   5.407   5.650
 1465TIP3    H2 4337   8.330   5.553   5.675
 1466TIP3   OH2 4338   6.002   1.781   5.102
 1466TIP3    H1 4339   5.980   1.731   5.181
 1466TIP3    H2 4340   6.027   1.867   5.133
 1467TIP3   OH2 4341   2.575   6.016   0.695
 1467TIP3    H1 4342   2.545   6.032   0.785
 1467TIP3    H2 4343   2.506   6.053   0.640
 1468TIP3   OH2 4344   7.613   1.224   2.200
 1468TIP3    H1 4345   7.694   1.274   2.209
 1468TIP3    H2 4346   7.641   1.140   2.164
 1469TIP3   OH2 4347   5.239   1.528   5.413
 1469TIP3    H1 4348   5.170   1.479   5.368
 1469TIP3    H2 4349   5.231   1.617   5.380
 1470TIP3   OH2 4350   6.627   4.373   0.815
 1470TIP3    H1 4351   6.678   4.364   0.896
 1470TIP3    H2 4352   6.672   4.317   0.752
 1471TIP3   OH2 4353   4.104   3.136   4.918
 1471TIP3    H1 4354   4.108   3.041   4.929
 1471TIP3    H2 4355   4.184   3.168   4.959
 1472TIP3   OH2 4356   7.965   6.428   2.339
 1472TIP3    H1 4357   7.938   6.484   2.411
 1472TIP3    H2 4358   7.886   6.378   2.316
 1473TIP3   OH2 4359   6.614   1.471   0.224
 1473TIP3    H1 4360   6.616   1.506   0.135
 1473TIP3    H2 4361   6.545   1.520   0.268
 1474TIP3   OH2 4362   4.981   7.790   1.040
 1474TIP3    H1 4363   5.041   7.819   1.108
 1474TIP3    H2 4364   4.963   7.868   0.988
 1475TIP3   OH2 4365   6.145   0.113   1.083
 1475TIP3    H1 4366   6.230   0.139   1.120
 1475TIP3    H2 4367   6.151   0.138   0.990
 1476TIP3   OH2 4368   3.252   0.403   4.113
 1476TIP3    H1 4369   3.270   0.352   4.192
 1476TIP3    H2 4370   3.302   0.358   4.044
 1477TIP3   OH2 4371   7.165   5.125   3.852
 1477TIP3    H1 4372   7.203   5.202   3.809
 1477TIP3    H2 4373   7.229   5.101   3.919
 1478TIP3   OH2 4374   1.805   2.088   2.126
 1478TIP3    H1 4375   1.851   2.164   2.160
 1478TIP3    H2 4376   1.792   2.107   2.033
 1479TIP3   OH2 4377   4.794   3.145   3.008
 1479TIP3    H1 4378   4.795   3.064   3.059
 1479TIP3    H2 4379   4.763   3.118   2.922
 1480TIP3   OH2 4380   5.221   7.759   1.207
 1480TIP3    H1 4381   5.210   7.679   1.260
 1480TIP3    H2 4382   5.230   7.727   1.118
 1481TIP3   OH2 4383   1.487   2.351   5.475
 1481TIP3    H1 4384   1.498   2.331   5.567
 1481TIP3    H2 4385   1.470   2.446   5.473
 1482TIP3   OH2 4386   1.545   6.794   1.409
 1482TIP3    H1 4387   1.516   6.730   1.474
 1482TIP3    H2 4388   1.474   6.796   1.344
 1483TIP3   OH2 4389   5.705   2.980   3.828
 1483TIP3    H1 4390   5.615   2.968   3.795
 1483TIP3    H2 4391   5.693   3.007   3.919
 1484TIP3   OH2 4392   1.418   6.637   2.649
 1484TIP3    H1 4393   1.378   6.665   2.731
 1484TIP3    H2 4394   1.359   6.569   2.615
 1485TIP3   OH2 4395   7.002   2.418   6.677
 1485TIP3    H1 4396   6.931   2.371   6.632
 1485TIP3    H2 4397   7.016   2.368   6.757
 1486TIP3   OH2 4398   5.590   6.277   0.460
 1486TIP3    H1 4399   5.498   6.256   0.445
 1486TIP3    H2 4400   5.599   6.368   0.430
 1487TIP3   OH2 4401   3.338   4.722   0.784
 1487TIP3    H1 4402   3.390   4.794   0.749
 1487TIP3    H2 4403   3.388   4.690   0.859
 1488TIP3   OH2 4404   3.257   6.932   0.533
 1488TIP3    H1 4405   3.273   6.943   0.626
 1488TIP3    H2 4406   3.287   6.843   0.513
 1489TIP3   OH2 4407   7.072   1.646   6.423
 1489TIP3    H1 4408   7.015   1.576   6.455
 1489TIP3    H2 4409   7.130   1.664   6.497
 1490TIP3   OH2 4410   1.902   6.022   2.644
 1490TIP3    H1 4411   1.943   5.988   2.564
 1490TIP3    H2 4412   1.886   5.945   2.697
 1491TIP3   OH2 4413   6.470   0.628   6.143
 1491TIP3    H1 4414   6.424   0.704   6.107
 1491TIP3    H2 4415   6.420   0.604   6.221
 1492TIP3   OH2 4416   1.837   6.499   6.448
 1492TIP3    H1 4417   1.924   6.533   6.427
 1492TIP3    H2 4418   1.786   6.515   6.369
 1493TIP3   OH2 4419   2.617   3.687   1.189
 1493TIP3    H1 4420   2.686   3.641   1.237
 1493TIP3    H2 4421   2.661   3.763   1.151
 1494TIP3   OH2 4422   5.826   2.739   6.572
 1494TIP3    H1 4423   5.917   2.726   6.547
 1494TIP3    H2 4424   5.829   2.805   6.641
 1495TIP3   OH2 4425   3.504   3.075   5.218
 1495TIP3    H1 4426   3.493   3.019   5.295
 1495TIP3    H2 4427   3.534   3.158   5.254
 1496TIP3   OH2 4428   5.829   2.789   6.202
 1496TIP3    H1 4429   5.825   2.708   6.252
 1496TIP3    H2 4430   5.922   2.799   6.178
 1497TIP3   OH2 4431   1.044   2.344   1.764
 1497TIP3    H1 4432   0.955   2.355   1.799
 1497TIP3    H2 4433   1.051   2.410   1.695
 1498TIP3   OH2 4434   0.005   4.705   4.064
 1498TIP3    H1 4435   0.022   4.795   4.093
 1498TIP3    H2 4436   0.073   4.689   3.999
 1499TIP3   OH2 4437   2.472   7.856   2.913
 1499TIP3    H1 4438   2.480   7.778   2.858
 1499TIP3    H2 4439   2.539   7.846   2.980
 1500TIP3   OH2 4440   4.791   7.883   4.311
 1500TIP3    H1 4441   4.792   7.790   4.289
 1500TIP3    H2 4442   4.726   7.890   4.381
 1501TIP3   OH2 4443   7.211   2.683   4.978
 1501TIP3    H1 4444   7.229   2.767   4.935
 1501TIP3    H2 4445   7.297   2.651   5.005
 1502TIP3   OH2 4446   7.562   6.081   6.367
 1502TIP3    H1 4447   7.621   6.093   6.293
 1502TIP3    H2 4448   7.601   6.132   6.437
 1503TIP3   OH2 4449   5.715   1.957   5.222
 1503TIP3    H1 4450   5.787   1.968   5.284
 1503TIP3    H2 4451   5.726   2.028   5.159
 1504TIP3   OH2 4452   3.355   0.103   0.154
 1504TIP3    H1 4453   3.424   0.068   0.097
 1504TIP3    H2 4454   3.322   0.028   0.202
 1505TIP3   OH2 4455   2.320   4.636   3.440
 1505TIP3    H1 4456   2.269   4.642   3.521
 1505TIP3    H2 4457   2.407   4.669   3.463
 1506TIP3   OH2 4458   5.008   6.485   6.430
 1506TIP3    H1 4459   4.994   6.495   6.524
 1506TIP3    H2 4460   5.037   6.394   6.419
 1507TIP3   OH2 4461   6.425   4.380   4.415
 1507TIP3    H1 4462   6.457   4.469   4.407
 1507TIP3    H2 4463   6.363   4.383   4.488
 1508TIP3   OH2 4464   1.278   7.492   4.346
 1508TIP3    H1 4465   1.315   7.575   4.316
 1508TIP3    H2 4466   1.246   7.450   4.266
 1509TIP3   OH2 4467   5.366   0.099   3.752
 1509TIP3    H1 4468   5.285   0.132   3.713
 1509TIP3    H2 4469   5.337   0.042   3.823
 1510TIP3   OH2 4470   5.362   1.657   0.829
 1510TIP3    H1 4471   5.415   1.732   0.800
 1510TIP3    H2 4472   5.426   1.596   0.867
 1511TIP3   OH2 4473   5.950   2.415   4.837
 1511TIP3    H1 4474   5.941   2.407   4.932
 1511TIP3    H2 4475   6.033   2.372   4.817
 1512TIP3   OH2 4476   6.829   2.772   2.603
 1512TIP3    H1 4477   6.758   2.746   2.544
 1512TIP3    H2 4478   6.903   2.788   2.545
 1513TIP3   OH2 4479   4.768   3.680   2.499
 1513TIP3    H1 4480   4.808   3.690   2.585
 1513TIP3    H2 4481   4.744   3.588   2.493
 1514TIP3   OH2 4482   4.739   0.478   5.511
 1514TIP3    H1 4483   4.698   0.398   5.479
 1514TIP3    H2 4484   4.677   0.547   5.489
 1515TIP3   OH2 4485   5.170   3.950   1.245
 1515TIP3    H1 4486   5.200   3.882   1.305
 1515TIP3    H2 4487   5.075   3.947   1.250
 1516TIP3   OH2 4488   2.326   2.523   1.282
 1516TIP3    H1 4489   2.412   2.482   1.290
 1516TIP3    H2 4490   2.317   2.575   1.362
 1517TIP3   OH2 4491   0.051   6.065   3.192
 1517TIP3    H1 4492   0.010   6.094   3.111
 1517TIP3    H2 4493   0.101   5.987   3.167
 1518TIP3   OH2 4494   3.230   4.337   3.737
 1518TIP3    H1 4495   3.261   4.414   3.690
 1518TIP3    H2 4496   3.142   4.321   3.701
 1519TIP3   OH2 4497   8.320   5.318   4.323
 1519TIP3    H1 4498   8.311   5.257   4.249
 1519TIP3    H2 4499   8.326   5.404   4.282
 1520TIP3   OH2 4500   6.235   3.941   5.619
 1520TIP3    H1 4501   6.318   3.983   5.642
 1520TIP3    H2 4502   6.210   3.981   5.536
 1521TIP3   OH2 4503   5.501   1.280   5.204
 1521TIP3    H1 4504   5.486   1.353   5.144
 1521TIP3    H2 4505   5.511   1.321   5.290
 1522TIP3   OH2 4506   6.189   2.080   3.246
 1522TIP3    H1 4507   6.163   2.035   3.326
 1522TIP3    H2 4508   6.284   2.066   3.240
 1523TIP3   OH2 4509   6.644   0.510   6.508
 1523TIP3    H1 4510   6.725   0.464   6.528
 1523TIP3    H2 4511   6.672   0.595   6.475
 1524TIP3   OH2 4512   2.675   3.002   3.667
 1524TIP3    H1 4513   2.615   2.953   3.723
 1524TIP3    H2 4514   2.760   2.962   3.681
 1525TIP3   OH2 4515   6.335   2.821   0.907
 1525TIP3    H1 4516   6.318   2.740   0.858
 1525TIP3    H2 4517   6.269   2.821   0.977
 1526TIP3   OH2 4518   4.707   4.935   1.733
 1526TIP3    H1 4519   4.802   4.950   1.732
 1526TIP3    H2 4520   4.688   4.899   1.646
 1527TIP3   OH2 4521   3.849   4.548   1.314
 1527TIP3    H1 4522   3.856   4.585   1.402
 1527TIP3    H2 4523   3.800   4.467   1.325
 1528TIP3   OH2 4524   8.367   4.896   4.284
 1528TIP3    H1 4525   8.448   4.938   4.253
 1528TIP3    H2 4526   8.356   4.929   4.373
 1529TIP3   OH2 4527   3.791   3.840   2.367
 1529TIP3    H1 4528   3.748   3.861   2.450
 1529TIP3    H2 4529   3.883   3.829   2.390
 1530TIP3   OH2 4530   1.047   1.048   0.052
 1530TIP3    H1 4531   1.074   1.084   0.136
 1530TIP3    H2 4532   1.105   0.972   0.039
 1531TIP3   OH2 4533   4.187   1.384   4.397
 1531TIP3    H1 4534   4.261   1.443   4.382
 1531TIP3    H2 4535   4.228   1.299   4.413
 1532TIP3   OH2 4536   2.631   7.052   1.235
 1532TIP3    H1 4537   2.693   7.116   1.269
 1532TIP3    H2 4538   2.574   7.032   1.308
 1533TIP3   OH2 4539   1.916   7.519   1.709
 1533TIP3    H1 4540   1.945   7.446   1.654
 1533TIP3    H2 4541   1.875   7.580   1.647
 1534TIP3   OH2 4542   3.297   1.754   2.567
 1534TIP3    H1 4543   3.248   1.770   2.486
 1534TIP3    H2 4544   3.388   1.769   2.542
 1535TIP3   OH2 4545   2.718   1.554   4.713
 1535TIP3    H1 4546   2.652   1.615   4.744
 1535TIP3    H2 4547   2.675   1.468   4.717
 1536TIP3   OH2 4548   7.468   2.473   3.076
 1536TIP3    H1 4549   7.524   2.542   3.112
 1536TIP3    H2 4550   7.515   2.392   3.094
 1537TIP3   OH2 4551   0.820   7.725   3.732
 1537TIP3    H1 4552   0.753   7.779   3.774
 1537TIP3    H2 4553   0.895   7.783   3.723
 1538TIP3   OH2 4554   7.799   6.817   1.490
 1538TIP3    H1 4555   7.853   6.741   1.469
 1538TIP3    H2 4556   7.841   6.890   1.446
 1539TIP3   OH2 4557   0.570   7.889   5.577
 1539TIP3    H1 4558   0.525   7.892   5.493
 1539TIP3    H2 4559   0.503   7.858   5.639
 1540TIP3   OH2 4560   2.023   0.745   0.265
 1540TIP3    H1 4561   1.988   0.731   0.353
 1540TIP3    H2 4562   2.061   0.832   0.268
 1541TIP3   OH2 4563   6.538   1.858   1.995
 1541TIP3    H1 4564   6.528   1.946   1.957
 1541TIP3    H2 4565   6.451   1.820   1.990
 1542TIP3   OH2 4566   5.697   6.424  -0.033
 1542TIP3    H1 4567   5.728   6.514  -0.035
 1542TIP3    H2 4568   5.615   6.428   0.016
 1543TIP3   OH2 4569   7.283   2.207   2.481
 1543TIP3    H1 4570   7.265   2.269   2.552
 1543TIP3    H2 4571   7.362   2.161   2.509
 1544TIP3   OH2 4572   3.149   5.179   3.220
 1544TIP3    H1 4573   3.219   5.240   3.194
 1544TIP3    H2 4574   3.137   5.195   3.313
 1545TIP3   OH2 4575   5.108   2.104   5.199
 1545TIP3    H1 4576   5.090   2.070   5.287
 1545TIP3    H2 4577   5.083   2.033   5.140
 1546TIP3   OH2 4578   2.563   1.986   6.315
 1546TIP3    H1 4579   2.620   2.059   6.289
 1546TIP3    H2 4580   2.605   1.950   6.394
 1547TIP3   OH2 4581   5.726   2.225   2.520
 1547TIP3    H1 4582   5.722   2.265   2.607
 1547TIP3    H2 4583   5.818   2.205   2.506
 1548TIP3   OH2 4584   7.760   6.524   6.719
 1548TIP3    H1 4585   7.699   6.451   6.720
 1548TIP3    H2 4586   7.710   6.599   6.752
 1549TIP3   OH2 4587   4.931   3.753   6.383
 1549TIP3    H1 4588   4.883   3.676   6.353
 1549TIP3    H2 4589   4.883   3.781   6.462
 1550TIP3   OH2 4590   2.354   0.062   3.375
 1550TIP3    H1 4591   2.409   0.140   3.388
 1550TIP3    H2 4592   2.361   0.014   3.457
 1551TIP3   OH2 4593   4.812   1.491   2.826
 1551TIP3    H1 4594   4.893   1.480   2.775
 1551TIP3    H2 4595   4.781   1.578   2.802
 1552TIP3   OH2 4596   2.460   1.288   4.977
 1552TIP3    H1 4597   2.515   1.246   5.043
 1552TIP3    H2 4598   2.460   1.381   5.000
 1553TIP3   OH2 4599   4.205   3.798   3.910
 1553TIP3    H1 4600   4.169   3.850   3.982
 1553TIP3    H2 4601   4.296   3.781   3.936
 1554TIP3   OH2 4602   5.039   1.853   4.476
 1554TIP3    H1 4603   5.107   1.808   4.526
 1554TIP3    H2 4604   4.969   1.789   4.468
 1555TIP3   OH2 4605   0.273   7.585   6.307
 1555TIP3    H1 4606   0.269   7.581   6.211
 1555TIP3    H2 4607   0.344   7.647   6.324
 1556TIP3   OH2 4608   5.181   6.308   1.687
 1556TIP3    H1 4609   5.116   6.248   1.650
 1556TIP3    H2 4610   5.145   6.334   1.771
 1557TIP3   OH2 4611   4.181   7.090   4.077
 1557TIP3    H1 4612   4.221   7.178   4.080
 1557TIP3    H2 4613   4.099   7.103   4.029
 1558TIP3   OH2 4614   3.859   0.218   3.041
 1558TIP3    H1 4615   3.771   0.197   3.073
 1558TIP3    H2 4616   3.913   0.144   3.068
 1559TIP3   OH2 4617   1.489   1.492   3.856
 1559TIP3    H1 4618   1.490   1.400   3.883
 1559TIP3    H2 4619   1.581   1.515   3.843
 1560TIP3   OH2 4620   0.689   5.805   0.749
 1560TIP3    H1 4621   0.672   5.777   0.658
 1560TIP3    H2 4622   0.778   5.775   0.767
 1561TIP3   OH2 4623   1.439   4.444   5.043
 1561TIP3    H1 4624   1.432   4.458   5.138
 1561TIP3    H2 4625   1.528   4.410   5.031
 1562TIP3   OH2 4626   2.916   4.223   2.264
 1562TIP3    H1 4627   2.899   4.128   2.266
 1562TIP3    H2 4628   2.965   4.240   2.345
 1563TIP3   OH2 4629   2.357   5.657   5.466
 1563TIP3    H1 4630   2.315   5.613   5.392
 1563TIP3    H2 4631   2.422   5.594   5.498
 1564TIP3   OH2 4632   7.136   3.434   2.659
 1564TIP3    H1 4633   7.071   3.373   2.694
 1564TIP3    H2 4634   7.198   3.447   2.731
 1565TIP3   OH2 4635   7.152   7.235   3.326
 1565TIP3    H1 4636   7.071   7.230   3.379
 1565TIP3    H2 4637   7.153   7.153   3.277
 1566TIP3   OH2 4638   0.499   7.397   6.683
 1566TIP3    H1 4639   0.413   7.406   6.643
 1566TIP3    H2 4640   0.559   7.439   6.621
 1567TIP3   OH2 4641   4.600   4.868   1.469
 1567TIP3    H1 4642   4.583   4.774   1.458
 1567TIP3    H2 4643   4.688   4.880   1.436
 1568TIP3   OH2 4644   5.267   6.401   4.797
 1568TIP3    H1 4645   5.264   6.357   4.882
 1568TIP3    H2 4646   5.355   6.438   4.792
 1569TIP3   OH2 4647   7.269   0.789   4.088
 1569TIP3    H1 4648   7.206   0.720   4.110
 1569TIP3    H2 4649   7.320   0.802   4.168
 1570TIP3   OH2 4650   2.186   0.140   2.738
 1570TIP3    H1 4651   2.265   0.184   2.707
 1570TIP3    H2 4652   2.120   0.161   2.673
 1571TIP3   OH2 4653   1.237   0.332   6.273
 1571TIP3    H1 4654   1.144   0.338   6.294
 1571TIP3    H2 4655   1.259   0.240   6.287
 1572TIP3   OH2 4656   5.690   1.937   2.006
 1572TIP3    H1 4657   5.628   1.876   1.968
 1572TIP3    H2 4658   5.745   1.883   2.063
 1573TIP3   OH2 4659   2.410   7.723   1.765
 1573TIP3    H1 4660   2.377   7.802   1.807
 1573TIP3    H2 4661   2.351   7.653   1.795
 1574TIP3   OH2 4662   7.008   0.113   0.607
 1574TIP3    H1 4663   6.953   0.175   0.655
 1574TIP3    H2 4664   7.020   0.153   0.521
 1575TIP3   OH2 4665   4.056   6.126   4.244
 1575TIP3    H1 4666   4.120   6.187   4.207
 1575TIP3    H2 4667   4.088   6.039   4.217
 1576TIP3   OH2 4668   0.520   2.310   1.313
 1576TIP3    H1 4669   0.553   2.365   1.384
 1576TIP3    H2 4670   0.540   2.359   1.233
 1577TIP3   OH2 4671   7.321   1.309   0.821
 1577TIP3    H1 4672   7.262   1.349   0.757
 1577TIP3    H2 4673   7.287   1.220   0.832
 1578TIP3   OH2 4674   1.450   6.027   0.364
 1578TIP3    H1 4675   1.438   6.086   0.290
 1578TIP3    H2 4676   1.420   6.076   0.440
 1579TIP3   OH2 4677   6.479   5.210   6.274
 1579TIP3    H1 4678   6.493   5.146   6.344
 1579TIP3    H2 4679   6.457   5.157   6.198
 1580TIP3   OH2 4680   1.163   1.031   3.516
 1580TIP3    H1 4681   1.099   0.967   3.485
 1580TIP3    H2 4682   1.127   1.115   3.489
 1581TIP3   OH2 4683   7.784   3.283   6.056
 1581TIP3    H1 4684   7.820   3.200   6.024
 1581TIP3    H2 4685   7.802   3.346   5.987
 1582TIP3   OH2 4686   0.516   3.870   0.932
 1582TIP3    H1 4687   0.577   3.942   0.953
 1582TIP3    H2 4688   0.570   3.806   0.885
 1583TIP3   OH2 4689   1.705   4.273   5.407
 1583TIP3    H1 4690   1.761   4.266   5.485
 1583TIP3    H2 4691   1.664   4.359   5.415
 1584TIP3   OH2 4692   3.150   3.657   4.472
 1584TIP3    H1 4693   3.168   3.622   4.559
 1584TIP3    H2 4694   3.056   3.675   4.472
 1585TIP3   OH2 4695   0.125   6.894   1.552
 1585TIP3    H1 4696   0.202   6.909   1.607
 1585TIP3    H2 4697   0.100   6.803   1.570
 1586TIP3   OH2 4698   1.455   1.665   2.125
 1586TIP3    H1 4699   1.494   1.612   2.055
 1586TIP3    H2 4700   1.360   1.655   2.113
 1587TIP3   OH2 4701   1.389   3.302   1.721
 1587TIP3    H1 4702   1.465   3.316   1.777
 1587TIP3    H2 4703   1.404   3.359   1.646
 1588TIP3   OH2 4704   8.319   1.571   5.459
 1588TIP3    H1 4705   8.307   1.663   5.481
 1588TIP3    H2 4706   8.377   1.537   5.527
 1589TIP3   OH2 4707   3.216   5.743   5.209
 1589TIP3    H1 4708   3.165   5.823   5.221
 1589TIP3    H2 4709   3.233   5.739   5.115
 1590TIP3   OH2 4710   7.628   4.706   0.641
 1590TIP3    H1 4711   7.699   4.708   0.576
 1590TIP3    H2 4712   7.597   4.616   0.639
 1591TIP3   OH2 4713   0.036   7.360   2.306
 1591TIP3    H1 4714  -0.028   7.400   2.365
 1591TIP3    H2 4715   0.121   7.380   2.345
 1592TIP3   OH2 4716   7.267   6.252   4.343
 1592TIP3    H1 4717   7.219   6.305   4.279
 1592TIP3    H2 4718   7.257   6.162   4.312
 1593TIP3   OH2 4719   2.760   2.578   0.586
 1593TIP3    H1 4720   2.670   2.546   0.595
 1593TIP3    H2 4721   2.779   2.569   0.492
 1594TIP3   OH2 4722   6.613   5.686   5.826
 1594TIP3    H1 4723   6.526   5.703   5.862
 1594TIP3    H2 4724   6.604   5.606   5.775
 1595TIP3   OH2 4725   6.421   2.214   6.684
 1595TIP3    H1 4726   6.469   2.165   6.751
 1595TIP3    H2 4727   6.333   2.224   6.720
 1596TIP3   OH2 4728   3.193   3.493   4.708
 1596TIP3    H1 4729   3.235   3.409   4.724
 1596TIP3    H2 4730   3.181   3.531   4.795
 1597TIP3   OH2 4731   8.008   6.987   6.750
 1597TIP3    H1 4732   7.935   6.961   6.807
 1597TIP3    H2 4733   8.083   6.994   6.809
 1598TIP3   OH2 4734   4.485   6.786   5.334
 1598TIP3    H1 4735   4.487   6.767   5.428
 1598TIP3    H2 4736   4.397   6.819   5.318
 1599TIP3   OH2 4737   6.506   3.905   6.230
 1599TIP3    H1 4738   6.591   3.927   6.190
 1599TIP3    H2 4739   6.489   3.977   6.290
 1600TIP3   OH2 4740   8.046   4.556   2.762
 1600TIP3    H1 4741   8.006   4.491   2.820
 1600TIP3    H2 4742   8.121   4.511   2.723
 1601TIP3   OH2 4743   5.070   3.586   3.900
 1601TIP3    H1 4744   4.998   3.541   3.856
 1601TIP3    H2 4745   5.028   3.636   3.970
 1602TIP3   OH2 4746   4.695   1.850   4.187
 1602TIP3    H1 4747   4.692   1.945   4.198
 1602TIP3    H2 4748   4.704   1.816   4.276
 1603TIP3   OH2 4749   6.350   0.074   0.491
 1603TIP3    H1 4750   6.431   0.126   0.492
 1603TIP3    H2 4751   6.283   0.136   0.464
 1604TIP3   OH2 4752   6.462   4.603   2.093
 1604TIP3    H1 4753   6.448   4.549   2.015
 1604TIP3    H2 4754   6.521   4.551   2.148
 1605TIP3   OH2 4755   3.979   6.722   5.051
 1605TIP3    H1 4756   3.999   6.654   5.115
 1605TIP3    H2 4757   3.928   6.787   5.100
 1606TIP3   OH2 4758   7.863   5.953   2.454
 1606TIP3    H1 4759   7.911   5.986   2.378
 1606TIP3    H2 4760   7.804   6.024   2.478
 1607TIP3   OH2 4761   4.042   7.394   3.610
 1607TIP3    H1 4762   4.086   7.473   3.580
 1607TIP3    H2 4763   3.973   7.425   3.668
 1608TIP3   OH2 4764   3.709   1.378   4.043
 1608TIP3    H1 4765   3.737   1.402   4.131
 1608TIP3    H2 4766   3.725   1.455   3.990
 1609TIP3   OH2 4767   2.941   3.141   4.396
 1609TIP3    H1 4768   2.993   3.221   4.400
 1609TIP3    H2 4769   2.929   3.116   4.488
 1610TIP3   OH2 4770   4.349   4.176   3.077
 1610TIP3    H1 4771   4.284   4.232   3.034
 1610TIP3    H2 4772   4.429   4.188   3.027
 1611TIP3   OH2 4773   4.257   0.073   5.033
 1611TIP3    H1 4774   4.192   0.103   5.097
 1611TIP3    H2 4775   4.259   0.141   4.966
 1612TIP3   OH2 4776   6.882   7.826   3.004
 1612TIP3    H1 4777   6.896   7.857   3.093
 1612TIP3    H2 4778   6.969   7.833   2.963
 1613TIP3   OH2 4779   7.412   7.195   4.497
 1613TIP3    H1 4780   7.430   7.214   4.405
 1613TIP3    H2 4781   7.374   7.275   4.531
 1614TIP3   OH2 4782   3.681   1.341   6.907
 1614TIP3    H1 4783   3.674   1.314   6.816
 1614TIP3    H2 4784   3.770   1.316   6.933
 1615TIP3   OH2 4785   5.480   6.115   2.644
 1615TIP3    H1 4786   5.424   6.113   2.722
 1615TIP3    H2 4787   5.444   6.047   2.587
 1616TIP3   OH2 4788   2.887   7.302   5.867
 1616TIP3    H1 4789   2.839   7.281   5.948
 1616TIP3    H2 4790   2.940   7.224   5.850
 1617TIP3   OH2 4791   7.282   3.384   3.440
 1617TIP3    H1 4792   7.332   3.423   3.511
 1617TIP3    H2 4793   7.272   3.455   3.376
 1618TIP3   OH2 4794   4.266   2.411   6.526
 1618TIP3    H1 4795   4.258   2.344   6.593
 1618TIP3    H2 4796   4.192   2.396   6.467
 1619TIP3   OH2 4797   6.914   2.536   5.083
 1619TIP3    H1 4798   6.863   2.616   5.069
 1619TIP3    H2 4799   6.979   2.562   5.148
 1620TIP3   OH2 4800   7.748   0.765   1.304
 1620TIP3    H1 4801   7.726   0.681   1.344
 1620TIP3    H2 4802   7.732   0.830   1.372
 1621TIP3   OH2 4803   7.787   7.470   0.370
 1621TIP3    H1 4804   7.853   7.524   0.414
 1621TIP3    H2 4805   7.721   7.452   0.437
 1622TIP3   OH2 4806   5.609   5.403   1.756
 1622TIP3    H1 4807   5.647   5.319   1.780
 1622TIP3    H2 4808   5.678   5.467   1.774
 1623TIP3   OH2 4809   6.545   1.341   0.683
 1623TIP3    H1 4810   6.529   1.350   0.589
 1623TIP3    H2 4811   6.613   1.274   0.690
 1624TIP3   OH2 4812   6.104   7.261   4.564
 1624TIP3    H1 4813   6.090   7.180   4.612
 1624TIP3    H2 4814   6.123   7.326   4.632
 1625TIP3   OH2 4815   5.974   7.566   3.629
 1625TIP3    H1 4816   5.941   7.656   3.620
 1625TIP3    H2 4817   5.920   7.527   3.697
 1626TIP3   OH2 4818   5.809   2.281   6.141
 1626TIP3    H1 4819   5.717   2.290   6.116
 1626TIP3    H2 4820   5.858   2.327   6.072
 1627TIP3   OH2 4821   2.095   2.461   5.024
 1627TIP3    H1 4822   2.154   2.511   5.080
 1627TIP3    H2 4823   2.114   2.369   5.045
 1628TIP3   OH2 4824   6.304   7.686   6.053
 1628TIP3    H1 4825   6.396   7.708   6.039
 1628TIP3    H2 4826   6.303   7.635   6.134
 1629TIP3   OH2 4827   5.577   7.733   6.006
 1629TIP3    H1 4828   5.540   7.686   5.932
 1629TIP3    H2 4829   5.503   7.784   6.041
 1630TIP3   OH2 4830   3.697   5.566   3.559
 1630TIP3    H1 4831   3.659   5.561   3.647
 1630TIP3    H2 4832   3.732   5.655   3.553
 1631TIP3   OH2 4833   3.632   4.293   0.218
 1631TIP3    H1 4834   3.709   4.325   0.265
 1631TIP3    H2 4835   3.658   4.292   0.126
 1632TIP3   OH2 4836   3.382   4.344   1.487
 1632TIP3    H1 4837   3.338   4.262   1.507
 1632TIP3    H2 4838   3.312   4.409   1.484
 1633TIP3   OH2 4839   0.685   2.461   1.126
 1633TIP3    H1 4840   0.665   2.523   1.055
 1633TIP3    H2 4841   0.710   2.380   1.080
 1634TIP3   OH2 4842   6.752   6.873   0.584
 1634TIP3    H1 4843   6.691   6.836   0.521
 1634TIP3    H2 4844   6.825   6.811   0.588
 1635TIP3   OH2 4845   5.170   4.627   3.519
 1635TIP3    H1 4846   5.107   4.561   3.548
 1635TIP3    H2 4847   5.254   4.582   3.521
 1636TIP3   OH2 4848   3.844   1.029   0.028
 1636TIP3    H1 4849   3.935   1.043   0.054
 1636TIP3    H2 4850   3.794   1.043   0.109
 1637TIP3   OH2 4851   5.543   7.057   4.299
 1637TIP3    H1 4852   5.533   7.042   4.393
 1637TIP3    H2 4853   5.561   6.970   4.263
 1638TIP3   OH2 4854   5.711   3.373   2.970
 1638TIP3    H1 4855   5.727   3.319   2.893
 1638TIP3    H2 4856   5.621   3.353   2.996
 1639TIP3   OH2 4857   1.205   6.595   3.754
 1639TIP3    H1 4858   1.143   6.544   3.701
 1639TIP3    H2 4859   1.178   6.579   3.845
 1640TIP3   OH2 4860   4.419   5.253   2.927
 1640TIP3    H1 4861   4.480   5.308   2.879
 1640TIP3    H2 4862   4.454   5.164   2.916
 1641TIP3   OH2 4863   0.297   3.998   0.391
 1641TIP3    H1 4864   0.296   4.065   0.460
 1641TIP3    H2 4865   0.218   4.016   0.339
 1642TIP3   OH2 4866   5.022   5.609   6.741
 1642TIP3    H1 4867   5.082   5.647   6.805
 1642TIP3    H2 4868   5.057   5.522   6.722
 1643TIP3   OH2 4869   1.657   2.534   0.358
 1643TIP3    H1 4870   1.567   2.537   0.326
 1643TIP3    H2 4871   1.698   2.463   0.308
 1644TIP3   OH2 4872   4.011   4.978   5.475
 1644TIP3    H1 4873   3.954   5.005   5.403
 1644TIP3    H2 4874   3.952   4.971   5.551
 1645TIP3   OH2 4875   7.921   4.248   1.152
 1645TIP3    H1 4876   7.875   4.191   1.091
 1645TIP3    H2 4877   8.000   4.275   1.106
 1646TIP3   OH2 4878   2.725   3.745   4.884
 1646TIP3    H1 4879   2.726   3.650   4.886
 1646TIP3    H2 4880   2.805   3.771   4.929
 1647TIP3   OH2 4881   6.732   1.124   0.669
 1647TIP3    H1 4882   6.666   1.056   0.685
 1647TIP3    H2 4883   6.816   1.081   0.684
 1648TIP3   OH2 4884   6.792   2.157   6.073
 1648TIP3    H1 4885   6.880   2.157   6.035
 1648TIP3    H2 4886   6.768   2.064   6.077
 1649TIP3   OH2 4887   1.723   4.858   1.902
 1649TIP3    H1 4888   1.660   4.862   1.973
 1649TIP3    H2 4889   1.684   4.798   1.838
 1650TIP3   OH2 4890   4.372   3.405   6.687
 1650TIP3    H1 4891   4.439   3.463   6.721
 1650TIP3    H2 4892   4.350   3.441   6.601
 1651TIP3   OH2 4893   4.961   0.782   1.911
 1651TIP3    H1 4894   5.001   0.702   1.945
 1651TIP3    H2 4895   5.020   0.810   1.841
 1652TIP3   OH2 4896   6.880   0.406   6.612
 1652TIP3    H1 4897   6.886   0.314   6.639
 1652TIP3    H2 4898   6.971   0.438   6.616
 1653TIP3   OH2 4899   6.099   4.937   5.885
 1653TIP3    H1 4900   6.026   4.907   5.940
 1653TIP3    H2 4901   6.167   4.961   5.947
 1654TIP3   OH2 4902   7.846   5.430   0.384
 1654TIP3    H1 4903   7.917   5.384   0.428
 1654TIP3    H2 4904   7.882   5.455   0.299
 1655TIP3   OH2 4905   0.726   7.300   4.543
 1655TIP3    H1 4906   0.731   7.376   4.601
 1655TIP3    H2 4907   0.649   7.316   4.489
 1656TIP3   OH2 4908   2.666   3.800   3.304
 1656TIP3    H1 4909   2.718   3.794   3.384
 1656TIP3    H2 4910   2.657   3.894   3.288
 1657TIP3   OH2 4911   3.842   6.859   2.800
 1657TIP3    H1 4912   3.932   6.830   2.786
 1657TIP3    H2 4913   3.843   6.951   2.774
 1658TIP3   OH2 4914   6.227   2.061   1.909
 1658TIP3    H1 4915   6.163   2.013   1.856
 1658TIP3    H2 4916   6.179   2.138   1.940
 1659TIP3   OH2 4917   5.314   3.552   5.963
 1659TIP3    H1 4918   5.238   3.523   6.013
 1659TIP3    H2 4919   5.388   3.536   6.021
 1660TIP3   OH2 4920   1.375   2.458   3.061
 1660TIP3    H1 4921   1.285   2.468   3.033
 1660TIP3    H2 4922   1.371   2.465   3.157
 1661TIP3   OH2 4923   2.820   5.040   4.934
 1661TIP3    H1 4924   2.859   5.052   4.848
 1661TIP3    H2 4925   2.880   4.980   4.979
 1662TIP3   OH2 4926   7.644   7.010   2.203
 1662TIP3    H1 4927   7.717   6.982   2.257
 1662TIP3    H2 4928   7.674   7.090   2.161
 1663TIP3   OH2 4929   3.673   6.885   2.312
 1663TIP3    H1 4930   3.723   6.914   2.388
 1663TIP3    H2 4931   3.582   6.886   2.341
 1664TIP3   OH2 4932   5.108   1.583   5.653
 1664TIP3    H1 4933   5.167   1.584   5.578
 1664TIP3    H2 4934   5.058   1.502   5.644
 1665TIP3   OH2 4935   4.274   4.684   5.870
 1665TIP3    H1 4936   4.194   4.675   5.817
 1665TIP3    H2 4937   4.345   4.681   5.807
 1666TIP3   OH2 4938   7.585   2.426   2.132
 1666TIP3    H1 4939   7.576   2.453   2.224
 1666TIP3    H2 4940   7.635   2.344   2.137
 1667TIP3   OH2 4941   2.813   7.388   5.594
 1667TIP3    H1 4942   2.859   7.369   5.676
 1667TIP3    H2 4943   2.721   7.383   5.617
 1668TIP3   OH2 4944   1.900   5.988   6.634
 1668TIP3    H1 4945   1.821   5.938   6.610
 1668TIP3    H2 4946   1.971   5.925   6.626
 1669TIP3   OH2 4947   2.879   2.181   5.105
 1669TIP3    H1 4948   2.789   2.214   5.104
 1669TIP3    H2 4949   2.923   2.233   5.172
 1670TIP3   OH2 4950   6.376   2.197   5.924
 1670TIP3    H1 4951   6.437   2.266   5.898
 1670TIP3    H2 4952   6.430   2.133   5.969
 1671TIP3   OH2 4953   2.853   2.166   3.541
 1671TIP3    H1 4954   2.766   2.137   3.570
 1671TIP3    H2 4955   2.881   2.227   3.610
 1672TIP3   OH2 4956   4.096   1.468   5.564
 1672TIP3    H1 4957   4.041   1.547   5.566
 1672TIP3    H2 4958   4.111   1.453   5.470
 1673TIP3   OH2 4959   0.552   2.320   0.162
 1673TIP3    H1 4960   0.537   2.399   0.214
 1673TIP3    H2 4961   0.475   2.314   0.105
 1674TIP3   OH2 4962   7.872   2.119   5.189
 1674TIP3    H1 4963   7.872   2.196   5.245
 1674TIP3    H2 4964   7.843   2.048   5.246
 1675TIP3   OH2 4965   3.999   2.081   0.618
 1675TIP3    H1 4966   3.949   2.023   0.674
 1675TIP3    H2 4967   3.939   2.105   0.548
 1676TIP3   OH2 4968   6.071   1.203   5.078
 1676TIP3    H1 4969   6.140   1.258   5.040
 1676TIP3    H2 4970   6.082   1.213   5.173
 1677TIP3   OH2 4971   7.416   1.281   2.385
 1677TIP3    H1 4972   7.377   1.357   2.343
 1677TIP3    H2 4973   7.488   1.255   2.328
 1678TIP3   OH2 4974   7.676   6.587   3.625
 1678TIP3    H1 4975   7.665   6.590   3.530
 1678TIP3    H2 4976   7.752   6.641   3.643
 1679TIP3   OH2 4977   2.251   6.698   2.885
 1679TIP3    H1 4978   2.247   6.789   2.854
 1679TIP3    H2 4979   2.220   6.646   2.812
 1680TIP3   OH2 4980   4.963   1.144   3.570
 1680TIP3    H1 4981   5.002   1.093   3.642
 1680TIP3    H2 4982   4.964   1.084   3.495
 1681TIP3   OH2 4983   7.380   7.646   0.783
 1681TIP3    H1 4984   7.422   7.572   0.828
 1681TIP3    H2 4985   7.385   7.624   0.690
 1682TIP3   OH2 4986   3.165   1.579   4.735
 1682TIP3    H1 4987   3.217   1.558   4.812
 1682TIP3    H2 4988   3.230   1.606   4.669
 1683TIP3   OH2 4989   2.093   6.409   2.334
 1683TIP3    H1 4990   2.150   6.387   2.408
 1683TIP3    H2 4991   2.011   6.437   2.375
 1684TIP3   OH2 4992   5.900   2.612   1.493
 1684TIP3    H1 4993   5.971   2.672   1.515
 1684TIP3    H2 4994   5.921   2.531   1.539
 1685TIP3   OH2 4995   4.380   2.757   1.609
 1685TIP3    H1 4996   4.396   2.791   1.697
 1685TIP3    H2 4997   4.466   2.730   1.578
 1686TIP3   OH2 4998   3.446   0.810   3.897
 1686TIP3    H1 4999   3.466   0.726   3.854
 1686TIP3    H2 5000   3.363   0.795   3.941
 1687TIP3   OH2 5001   1.162   3.542   6.266
 1687TIP3    H1 5002   1.186   3.451   6.284
 1687TIP3    H2 5003   1.208   3.592   6.333
 1688TIP3   OH2 5004   4.887   0.792   2.447
 1688TIP3    H1 5005   4.795   0.815   2.462
 1688TIP3    H2 5006   4.919   0.762   2.532
 1689TIP3   OH2 5007   3.085   4.849   3.997
 1689TIP3    H1 5008   3.112   4.919   4.055
 1689TIP3    H2 5009   3.004   4.815   4.036
 1690TIP3   OH2 5010   2.128   3.089   6.306
 1690TIP3    H1 5011   2.142   3.002   6.343
 1690TIP3    H2 5012   2.034   3.104   6.317
 1691TIP3   OH2 5013   4.811   3.029   2.180
 1691TIP3    H1 5014   4.721   3.060   2.193
 1691TIP3    H2 5015   4.817   2.949   2.231
 1692TIP3   OH2 5016   3.267   6.280   4.903
 1692TIP3    H1 5017   3.345   6.335   4.893
 1692TIP3    H2 5018   3.202   6.321   4.846
 1693TIP3   OH2 5019   1.366   4.784   3.915
 1693TIP3    H1 5020   1.354   4.712   3.852
 1693TIP3    H2 5021   1.357   4.742   4.001
 1694TIP3   OH2 5022   6.878   7.258   1.039
 1694TIP3    H1 5023   6.822   7.330   1.068
 1694TIP3    H2 5024   6.948   7.301   0.991
 1695TIP3   OH2 5025   2.090   2.486   4.706
 1695TIP3    H1 5026   2.101   2.425   4.779
 1695TIP3    H2 5027   2.153   2.555   4.723
 1696TIP3   OH2 5028   0.551   7.155   2.133
 1696TIP3    H1 5029   0.552   7.185   2.224
 1696TIP3    H2 5030   0.642   7.132   2.114
 1697TIP3   OH2 5031   5.791   5.942   3.442
 1697TIP3    H1 5032   5.803   5.854   3.405
 1697TIP3    H2 5033   5.710   5.936   3.493
 1698TIP3   OH2 5034   5.025   4.201   0.057
 1698TIP3    H1 5035   4.963   4.190   0.128
 1698TIP3    H2 5036   5.102   4.240   0.098
 1699TIP3   OH2 5037   4.136   5.090   6.210
 1699TIP3    H1 5038   4.215   5.093   6.156
 1699TIP3    H2 5039   4.164   5.119   6.296
 1700TIP3   OH2 5040   3.361   1.198   4.224
 1700TIP3    H1 5041   3.334   1.277   4.270
 1700TIP3    H2 5042   3.292   1.183   4.160
 1701TIP3   OH2 5043   4.304   4.356   0.483
 1701TIP3    H1 5044   4.306   4.441   0.439
 1701TIP3    H2 5045   4.324   4.375   0.574
 1702TIP3   OH2 5046   2.372   4.721   4.265
 1702TIP3    H1 5047   2.292   4.681   4.299
 1702TIP3    H2 5048   2.348   4.751   4.177
 1703TIP3   OH2 5049   6.649   1.416   2.187
 1703TIP3    H1 5050   6.671   1.491   2.132
 1703TIP3    H2 5051   6.650   1.451   2.276
 1704TIP3   OH2 5052   0.680   7.568   2.355
 1704TIP3    H1 5053   0.615   7.542   2.420
 1704TIP3    H2 5054   0.685   7.663   2.362
 1705TIP3   OH2 5055   1.766   7.255   6.448
 1705TIP3    H1 5056   1.786   7.329   6.391
 1705TIP3    H2 5057   1.852   7.224   6.477
 1706TIP3   OH2 5058   4.849   5.340   4.951
 1706TIP3    H1 5059   4.909   5.348   4.877
 1706TIP3    H2 5060   4.779   5.403   4.933
 1707TIP3   OH2 5061   8.341   1.516   6.695
 1707TIP3    H1 5062   8.248   1.519   6.716
 1707TIP3    H2 5063   8.367   1.607   6.683
 1708TIP3   OH2 5064   5.648   6.179   1.158
 1708TIP3    H1 5065   5.634   6.153   1.067
 1708TIP3    H2 5066   5.563   6.213   1.187
 1709TIP3   OH2 5067   0.099   0.242   5.351
 1709TIP3    H1 5068   0.157   0.309   5.314
 1709TIP3    H2 5069   0.128   0.232   5.442
 1710TIP3   OH2 5070   1.805   7.416   0.161
 1710TIP3    H1 5071   1.786   7.446   0.073
 1710TIP3    H2 5072   1.720   7.391   0.197
 1711TIP3   OH2 5073   7.910   6.534   3.288
 1711TIP3    H1 5074   7.895   6.479   3.212
 1711TIP3    H2 5075   7.972   6.485   3.342
 1712TIP3   OH2 5076   7.313   6.104   0.249
 1712TIP3    H1 5077   7.282   6.177   0.196
 1712TIP3    H2 5078   7.336   6.036   0.186
 1713TIP3   OH2 5079   6.525   3.911   5.878
 1713TIP3    H1 5080   6.584   3.921   5.952
 1713TIP3    H2 5081   6.475   3.993   5.876
 1714TIP3   OH2 5082   2.609   2.412   4.198
 1714TIP3    H1 5083   2.648   2.348   4.138
 1714TIP3    H2 5084   2.663   2.490   4.189
 1715TIP3   OH2 5085   6.076   2.357   0.733
 1715TIP3    H1 5086   6.054   2.447   0.708
 1715TIP3    H2 5087   6.160   2.340   0.689
 1716TIP3   OH2 5088   6.309   0.807   4.567
 1716TIP3    H1 5089   6.357   0.888   4.584
 1716TIP3    H2 5090   6.217   0.830   4.580
 1717TIP3   OH2 5091   4.824   2.034   0.304
 1717TIP3    H1 5092   4.905   2.075   0.337
 1717TIP3    H2 5093   4.791   1.983   0.377
 1718TIP3   OH2 5094   6.779   5.686   1.002
 1718TIP3    H1 5095   6.689   5.675   1.031
 1718TIP3    H2 5096   6.832   5.643   1.069
 1719TIP3   OH2 5097   7.225   4.899   5.114
 1719TIP3    H1 5098   7.147   4.948   5.087
 1719TIP3    H2 5099   7.200   4.857   5.196
 1720TIP3   OH2 5100   2.887   4.792   3.122
 1720TIP3    H1 5101   2.893   4.714   3.068
 1720TIP3    H2 5102   2.959   4.848   3.092
 1721TIP3   OH2 5103   5.098   7.503   0.741
 1721TIP3    H1 5104   5.003   7.498   0.755
 1721TIP3    H2 5105   5.116   7.432   0.679
 1722TIP3   OH2 5106   5.865   5.706   2.635
 1722TIP3    H1 5107   5.810   5.779   2.665
 1722TIP3    H2 5108   5.926   5.691   2.706
 1723TIP3   OH2 5109   6.383   6.789   1.667
 1723TIP3    H1 5110   6.328   6.728   1.618
 1723TIP3    H2 5111   6.359   6.775   1.758
 1724TIP3   OH2 5112   5.102   0.992   5.078
 1724TIP3    H1 5113   5.189   1.000   5.116
 1724TIP3    H2 5114   5.109   0.916   5.019
 1725TIP3   OH2 5115   4.432   7.823   1.916
 1725TIP3    H1 5116   4.393   7.909   1.929
 1725TIP3    H2 5117   4.474   7.803   1.999
 1726TIP3   OH2 5118   1.767   1.599   1.314
 1726TIP3    H1 5119   1.750   1.642   1.230
 1726TIP3    H2 5120   1.828   1.657   1.358
 1727TIP3   OH2 5121   6.543   5.229   3.263
 1727TIP3    H1 5122   6.558   5.298   3.198
 1727TIP3    H2 5123   6.534   5.149   3.210
 1728TIP3   OH2 5124   7.054   2.516   5.317
 1728TIP3    H1 5125   6.988   2.453   5.343
 1728TIP3    H2 5126   7.119   2.464   5.268
 1729TIP3   OH2 5127   1.958   4.729   2.213
 1729TIP3    H1 5128   1.911   4.689   2.140
 1729TIP3    H2 5129   1.895   4.789   2.253
 1730TIP3   OH2 5130   1.157   2.793   3.221
 1730TIP3    H1 5131   1.105   2.741   3.282
 1730TIP3    H2 5132   1.162   2.880   3.262
 1731TIP3   OH2 5133   7.403   3.928   6.612
 1731TIP3    H1 5134   7.425   3.973   6.693
 1731TIP3    H2 5135   7.308   3.912   6.618
 1732TIP3   OH2 5136   0.507   6.403   2.353
 1732TIP3    H1 5137   0.544   6.353   2.280
 1732TIP3    H2 5138   0.433   6.351   2.383
 1733TIP3   OH2 5139   6.636   0.889   3.860
 1733TIP3    H1 5140   6.708   0.929   3.909
 1733TIP3    H2 5141   6.588   0.838   3.926
 1734TIP3   OH2 5142   1.385   6.080   4.445
 1734TIP3    H1 5143   1.350   5.991   4.452
 1734TIP3    H2 5144   1.464   6.079   4.498
 1735TIP3   OH2 5145   4.052   5.631   5.881
 1735TIP3    H1 5146   4.120   5.564   5.868
 1735TIP3    H2 5147   3.977   5.581   5.914
 1736TIP3   OH2 5148   6.914   0.473   5.990
 1736TIP3    H1 5149   6.918   0.568   6.007
 1736TIP3    H2 5150   6.847   0.442   6.050
 1737TIP3   OH2 5151   5.971   7.121   6.700
 1737TIP3    H1 5152   5.916   7.067   6.643
 1737TIP3    H2 5153   6.058   7.116   6.661
 1738TIP3   OH2 5154   4.288   2.248   0.755
 1738TIP3    H1 5155   4.230   2.276   0.685
 1738TIP3    H2 5156   4.357   2.315   0.759
 1739TIP3   OH2 5157   1.625   3.321   1.531
 1739TIP3    H1 5158   1.635   3.259   1.459
 1739TIP3    H2 5159   1.558   3.382   1.501
 1740TIP3   OH2 5160   4.800   6.644   2.579
 1740TIP3    H1 5161   4.862   6.709   2.546
 1740TIP3    H2 5162   4.828   6.628   2.669
 1741TIP3   OH2 5163   3.695   1.203   6.348
 1741TIP3    H1 5164   3.705   1.269   6.279
 1741TIP3    H2 5165   3.649   1.131   6.304
 1742TIP3   OH2 5166   7.423   2.109   0.639
 1742TIP3    H1 5167   7.484   2.174   0.674
 1742TIP3    H2 5168   7.399   2.056   0.715
 1743TIP3   OH2 5169   5.727   0.260   0.650
 1743TIP3    H1 5170   5.684   0.322   0.709
 1743TIP3    H2 5171   5.784   0.314   0.595
 1744TIP3   OH2 5172   7.932   7.118   0.790
 1744TIP3    H1 5173   7.870   7.155   0.727
 1744TIP3    H2 5174   7.886   7.044   0.829
 1745TIP3   OH2 5175   6.859   5.804   5.914
 1745TIP3    H1 5176   6.768   5.786   5.891
 1745TIP3    H2 5177   6.881   5.883   5.865
 1746TIP3   OH2 5178   3.438   3.539   0.063
 1746TIP3    H1 5179   3.343   3.552   0.068
 1746TIP3    H2 5180   3.455   3.465   0.121
 1747TIP3   OH2 5181   1.737   5.019   4.385
 1747TIP3    H1 5182   1.714   5.048   4.474
 1747TIP3    H2 5183   1.682   5.072   4.328
 1748TIP3   OH2 5184   1.289   6.932   2.131
 1748TIP3    H1 5185   1.383   6.924   2.147
 1748TIP3    H2 5186   1.271   6.869   2.061
 1749TIP3   OH2 5187   6.655   1.788   0.459
 1749TIP3    H1 5188   6.727   1.800   0.396
 1749TIP3    H2 5189   6.579   1.824   0.414
 1750TIP3   OH2 5190   5.640   5.830   3.085
 1750TIP3    H1 5191   5.704   5.766   3.117
 1750TIP3    H2 5192   5.688   5.881   3.019
 1751TIP3   OH2 5193   6.521   5.234   5.974
 1751TIP3    H1 5194   6.430   5.264   5.979
 1751TIP3    H2 5195   6.538   5.223   5.881
 1752TIP3   OH2 5196   5.318   7.238   3.690
 1752TIP3    H1 5197   5.245   7.300   3.693
 1752TIP3    H2 5198   5.282   7.161   3.644
 1753TIP3   OH2 5199   2.744   3.735   4.041
 1753TIP3    H1 5200   2.737   3.797   3.968
 1753TIP3    H2 5201   2.689   3.661   4.015
 1754TIP3   OH2 5202   1.302   4.068   3.862
 1754TIP3    H1 5203   1.290   3.977   3.832
 1754TIP3    H2 5204   1.396   4.081   3.859
 1755TIP3   OH2 5205   5.867   7.030   3.392
 1755TIP3    H1 5206   5.912   6.946   3.386
 1755TIP3    H2 5207   5.894   7.077   3.313
 1756TIP3   OH2 5208   5.529   7.040   0.311
 1756TIP3    H1 5209   5.523   7.126   0.353
 1756TIP3    H2 5210   5.447   7.031   0.263
 1757TIP3   OH2 5211   7.197   0.779   1.209
 1757TIP3    H1 5212   7.118   0.741   1.248
 1757TIP3    H2 5213   7.232   0.709   1.154
 1758TIP3   OH2 5214   5.339   6.634   2.533
 1758TIP3    H1 5215   5.381   6.622   2.619
 1758TIP3    H2 5216   5.351   6.726   2.514
 1759TIP3   OH2 5217   7.531   0.809   5.431
 1759TIP3    H1 5218   7.621   0.779   5.434
 1759TIP3    H2 5219   7.492   0.780   5.514
 1760TIP3   OH2 5220   2.498   1.521   3.190
 1760TIP3    H1 5221   2.431   1.462   3.155
 1760TIP3    H2 5222   2.463   1.550   3.274
 1761TIP3   OH2 5223   0.418   2.797   4.576
 1761TIP3    H1 5224   0.450   2.836   4.658
 1761TIP3    H2 5225   0.385   2.711   4.603
 1762TIP3   OH2 5226   6.292   7.250   5.049
 1762TIP3    H1 5227   6.304   7.267   5.142
 1762TIP3    H2 5228   6.341   7.170   5.032
 1763TIP3   OH2 5229   0.841   1.464   0.008
 1763TIP3    H1 5230   0.764   1.495   0.055
 1763TIP3    H2 5231   0.807   1.404  -0.058
 1764TIP3   OH2 5232   6.994   5.294   2.247
 1764TIP3    H1 5233   6.986   5.278   2.153
 1764TIP3    H2 5234   6.945   5.376   2.261
 1765TIP3   OH2 5235   6.102   7.005   4.655
 1765TIP3    H1 5236   6.077   7.017   4.746
 1765TIP3    H2 5237   6.169   6.937   4.657
 1766TIP3   OH2 5238   1.282   3.879   1.631
 1766TIP3    H1 5239   1.365   3.882   1.584
 1766TIP3    H2 5240   1.304   3.905   1.721
 1767TIP3   OH2 5241   4.830   7.314   1.191
 1767TIP3    H1 5242   4.879   7.233   1.183
 1767TIP3    H2 5243   4.874   7.362   1.261
 1768TIP3   OH2 5244   6.326   4.864   4.593
 1768TIP3    H1 5245   6.232   4.848   4.596
 1768TIP3    H2 5246   6.348   4.862   4.500
 1769TIP3   OH2 5247   4.214   6.654   5.716
 1769TIP3    H1 5248   4.281   6.611   5.663
 1769TIP3    H2 5249   4.260   6.686   5.793
 1770TIP3   OH2 5250   3.530   7.474   5.640
 1770TIP3    H1 5251   3.605   7.494   5.584
 1770TIP3    H2 5252   3.566   7.469   5.728
 1771TIP3   OH2 5253   2.822   5.519   1.993
 1771TIP3    H1 5254   2.783   5.532   2.080
 1771TIP3    H2 5255   2.772   5.578   1.936
 1772TIP3   OH2 5256   0.990   2.535   6.403
 1772TIP3    H1 5257   0.969   2.479   6.329
 1772TIP3    H2 5258   0.961   2.622   6.377
 1773TIP3   OH2 5259   5.728   0.016   0.947
 1773TIP3    H1 5260   5.755  -0.073   0.971
 1773TIP3    H2 5261   5.730   0.017   0.851
 1774TIP3   OH2 5262   4.613   3.995   3.983
 1774TIP3    H1 5263   4.682   3.978   3.919
 1774TIP3    H2 5264   4.654   4.051   4.049
 1775TIP3   OH2 5265   8.092   7.231   1.152
 1775TIP3    H1 5266   8.148   7.240   1.228
 1775TIP3    H2 5267   8.125   7.154   1.106
 1776TIP3   OH2 5268   3.052   1.827   3.438
 1776TIP3    H1 5269   3.119   1.758   3.437
 1776TIP3    H2 5270   3.100   1.907   3.458
 1777TIP3   OH2 5271   2.887   0.737   5.305
 1777TIP3    H1 5272   2.800   0.711   5.335
 1777TIP3    H2 5273   2.899   0.825   5.340
 1778TIP3   OH2 5274   0.208   4.034   6.277
 1778TIP3    H1 5275   0.172   4.118   6.247
 1778TIP3    H2 5276   0.173   3.969   6.215
 1779TIP3   OH2 5277   3.617   6.817   3.328
 1779TIP3    H1 5278   3.620   6.910   3.346
 1779TIP3    H2 5279   3.526   6.800   3.301
 1780TIP3   OH2 5280   4.674   3.369   2.789
 1780TIP3    H1 5281   4.755   3.319   2.802
 1780TIP3    H2 5282   4.643   3.341   2.703
 1781TIP3   OH2 5283   3.493   7.275   4.805
 1781TIP3    H1 5284   3.452   7.361   4.814
 1781TIP3    H2 5285   3.581   7.294   4.772
 1782TIP3   OH2 5286   4.955   0.028   2.980
 1782TIP3    H1 5287   5.001  -0.022   3.047
 1782TIP3    H2 5288   5.008   0.016   2.900
 1783TIP3   OH2 5289   0.065   5.621   1.460
 1783TIP3    H1 5290   0.086   5.644   1.551
 1783TIP3    H2 5291   0.117   5.682   1.407
 1784TIP3   OH2 5292   4.619   5.483   2.859
 1784TIP3    H1 5293   4.588   5.522   2.940
 1784TIP3    H2 5294   4.709   5.458   2.876
 1785TIP3   OH2 5295   7.916   3.270   3.022
 1785TIP3    H1 5296   7.987   3.270   3.086
 1785TIP3    H2 5297   7.899   3.178   3.003
 1786TIP3   OH2 5298   3.204   1.096   4.020
 1786TIP3    H1 5299   3.183   1.003   4.010
 1786TIP3    H2 5300   3.145   1.141   3.959
 1787TIP3   OH2 5301   7.876   1.096   3.006
 1787TIP3    H1 5302   7.951   1.155   2.998
 1787TIP3    H2 5303   7.837   1.095   2.919
 1788TIP3   OH2 5304   0.864   0.918   0.313
 1788TIP3    H1 5305   0.793   0.980   0.323
 1788TIP3    H2 5306   0.942   0.965   0.343
 1789TIP3   OH2 5307   7.539   1.463   6.804
 1789TIP3    H1 5308   7.545   1.500   6.891
 1789TIP3    H2 5309   7.500   1.532   6.750
 1790TIP3   OH2 5310   1.748   5.189   3.034
 1790TIP3    H1 5311   1.726   5.141   2.954
 1790TIP3    H2 5312   1.840   5.212   3.023
 1791TIP3   OH2 5313   2.439   2.542   0.891
 1791TIP3    H1 5314   2.497   2.618   0.894
 1791TIP3    H2 5315   2.428   2.524   0.798
 1792TIP3   OH2 5316   2.253   0.849   3.054
 1792TIP3    H1 5317   2.171   0.853   3.004
 1792TIP3    H2 5318   2.270   0.940   3.078
 1793TIP3   OH2 5319   4.745   2.805   5.458
 1793TIP3    H1 5320   4.665   2.851   5.481
 1793TIP3    H2 5321   4.715   2.725   5.414
 1794TIP3   OH2 5322   2.012   3.094   0.971
 1794TIP3    H1 5323   1.935   3.126   0.925
 1794TIP3    H2 5324   1.981   3.073   1.059
 1795TIP3   OH2 5325   0.944   2.800   0.150
 1795TIP3    H1 5326   0.968   2.869   0.211
 1795TIP3    H2 5327   0.963   2.837   0.064
 1796TIP3   OH2 5328   3.278   0.573   1.473
 1796TIP3    H1 5329   3.279   0.669   1.475
 1796TIP3    H2 5330   3.332   0.547   1.547
 1797TIP3   OH2 5331   6.318   6.031   6.230
 1797TIP3    H1 5332   6.225   6.055   6.224
 1797TIP3    H2 5333   6.343   6.011   6.139
 1798TIP3   OH2 5334   3.714   1.728   1.726
 1798TIP3    H1 5335   3.750   1.667   1.791
 1798TIP3    H2 5336   3.665   1.671   1.665
 1799TIP3   OH2 5337   3.462   3.083   0.840
 1799TIP3    H1 5338   3.407   3.085   0.918
 1799TIP3    H2 5339   3.523   3.011   0.856
 1800TIP3   OH2 5340   6.779   6.495   3.032
 1800TIP3    H1 5341   6.828   6.529   2.958
 1800TIP3    H2 5342   6.697   6.544   3.032
 1801TIP3   OH2 5343   0.666   0.817   5.966
 1801TIP3    H1 5344   0.696   0.825   6.057
 1801TIP3    H2 5345   0.672   0.724   5.947
 1802TIP3   OH2 5346   5.073   3.228   0.975
 1802TIP3    H1 5347   5.155   3.244   0.927
 1802TIP3    H2 5348   5.006   3.229   0.907
 1803TIP3   OH2 5349   0.650   7.040   1.008
 1803TIP3    H1 5350   0.721   7.042   0.944
 1803TIP3    H2 5351   0.622   6.948   1.009
 1804TIP3   OH2 5352   8.189   4.620   0.200
 1804TIP3    H1 5353   8.188   4.528   0.173
 1804TIP3    H2 5354   8.277   4.633   0.237
 1805TIP3   OH2 5355   3.379   5.431   4.929
 1805TIP3    H1 5356   3.308   5.488   4.960
 1805TIP3    H2 5357   3.361   5.346   4.969
 1806TIP3   OH2 5358   4.092   4.678   4.549
 1806TIP3    H1 5359   4.123   4.755   4.502
 1806TIP3    H2 5360   4.171   4.628   4.568
 1807TIP3   OH2 5361   3.125   5.027   6.531
 1807TIP3    H1 5362   3.065   5.046   6.602
 1807TIP3    H2 5363   3.172   4.948   6.559
 1808TIP3   OH2 5364   0.962   3.910   5.917
 1808TIP3    H1 5365   0.890   3.950   5.965
 1808TIP3    H2 5366   0.951   3.942   5.827
 1809TIP3   OH2 5367   6.512   4.864   4.073
 1809TIP3    H1 5368   6.464   4.946   4.062
 1809TIP3    H2 5369   6.602   4.886   4.050
 1810TIP3   OH2 5370   1.044   3.900   0.671
 1810TIP3    H1 5371   1.025   3.976   0.726
 1810TIP3    H2 5372   1.136   3.911   0.647
 1811TIP3   OH2 5373   6.240   4.914   3.211
 1811TIP3    H1 5374   6.261   4.825   3.241
 1811TIP3    H2 5375   6.191   4.953   3.283
 1812TIP3   OH2 5376   2.679   5.344   4.954
 1812TIP3    H1 5377   2.677   5.397   5.034
 1812TIP3    H2 5378   2.742   5.274   4.973
 1813TIP3   OH2 5379   0.261   2.730   1.579
 1813TIP3    H1 5380   0.258   2.666   1.650
 1813TIP3    H2 5381   0.289   2.680   1.503
 1814TIP3   OH2 5382   6.146   0.799   0.711
 1814TIP3    H1 5383   6.182   0.741   0.777
 1814TIP3    H2 5384   6.154   0.750   0.629
 1815TIP3   OH2 5385   6.321   1.182   6.648
 1815TIP3    H1 5386   6.313   1.272   6.677
 1815TIP3    H2 5387   6.357   1.188   6.560
 1816TIP3   OH2 5388   3.327   6.085   6.709
 1816TIP3    H1 5389   3.306   6.001   6.748
 1816TIP3    H2 5390   3.312   6.072   6.615
 1817TIP3   OH2 5391   6.576   0.867   0.702
 1817TIP3    H1 5392   6.567   0.795   0.639
 1817TIP3    H2 5393   6.487   0.900   0.714
 1818TIP3   OH2 5394   7.392   2.714   5.580
 1818TIP3    H1 5395   7.376   2.807   5.562
 1818TIP3    H2 5396   7.433   2.713   5.666
 1819TIP3   OH2 5397   8.290   0.112   1.515
 1819TIP3    H1 5398   8.246   0.149   1.438
 1819TIP3    H2 5399   8.221   0.106   1.581
 1820TIP3   OH2 5400   0.230   6.663   3.997
 1820TIP3    H1 5401   0.236   6.589   4.058
 1820TIP3    H2 5402   0.141   6.657   3.961
 1821TIP3   OH2 5403   1.598   4.938   3.864
 1821TIP3    H1 5404   1.568   5.025   3.889
 1821TIP3    H2 5405   1.518   4.885   3.865
 1822TIP3   OH2 5406   4.981   1.640   6.416
 1822TIP3    H1 5407   5.040   1.674   6.483
 1822TIP3    H2 5408   5.040   1.609   6.347
 1823TIP3   OH2 5409   0.701   5.592   2.747
 1823TIP3    H1 5410   0.617   5.637   2.735
 1823TIP3    H2 5411   0.688   5.507   2.705
 1824TIP3   OH2 5412   2.998   6.900   4.089
 1824TIP3    H1 5413   2.994   6.912   3.994
 1824TIP3    H2 5414   2.914   6.860   4.112
 1825TIP3   OH2 5415   6.895   7.024   4.462
 1825TIP3    H1 5416   6.822   6.963   4.463
 1825TIP3    H2 5417   6.972   6.968   4.448
 1826TIP3   OH2 5418   2.332   3.187   4.257
 1826TIP3    H1 5419   2.237   3.200   4.261
 1826TIP3    H2 5420   2.354   3.148   4.342
 1827TIP3   OH2 5421   7.608   5.026   3.212
 1827TIP3    H1 5422   7.674   5.070   3.159
 1827TIP3    H2 5423   7.652   4.948   3.245
 1828TIP3   OH2 5424   2.863   0.660   1.287
 1828TIP3    H1 5425   2.866   0.675   1.193
 1828TIP3    H2 5426   2.856   0.747   1.326
 1829TIP3   OH2 5427   0.901   4.835   5.680
 1829TIP3    H1 5428   0.869   4.793   5.760
 1829TIP3    H2 5429   0.978   4.784   5.655
 1830TIP3   OH2 5430   1.477   6.158   1.181
 1830TIP3    H1 5431   1.432   6.106   1.247
 1830TIP3    H2 5432   1.459   6.249   1.205
 1831TIP3   OH2 5433   4.411   6.621   0.447
 1831TIP3    H1 5434   4.399   6.636   0.353
 1831TIP3    H2 5435   4.395   6.527   0.459
 1832TIP3   OH2 5436   6.449   7.776   5.781
 1832TIP3    H1 5437   6.528   7.782   5.834
 1832TIP3    H2 5438   6.407   7.695   5.809
 1833TIP3   OH2 5439   6.570   3.780   4.255
 1833TIP3    H1 5440   6.477   3.757   4.256
 1833TIP3    H2 5441   6.593   3.792   4.348
 1834TIP3   OH2 5442   2.153   5.680   5.639
 1834TIP3    H1 5443   2.232   5.686   5.584
 1834TIP3    H2 5444   2.168   5.743   5.709
 1835TIP3   OH2 5445   2.398   0.289   4.332
 1835TIP3    H1 5446   2.337   0.309   4.403
 1835TIP3    H2 5447   2.344   0.247   4.265
 1836TIP3   OH2 5448   1.881   6.989   0.705
 1836TIP3    H1 5449   1.967   7.015   0.739
 1836TIP3    H2 5450   1.818   7.042   0.754
 1837TIP3   OH2 5451   5.001   3.571   2.311
 1837TIP3    H1 5452   4.928   3.631   2.294
 1837TIP3    H2 5453   4.976   3.490   2.265
 1838TIP3   OH2 5454   5.970   5.010   3.894
 1838TIP3    H1 5455   5.910   5.042   3.961
 1838TIP3    H2 5456   6.004   5.089   3.853
 1839TIP3   OH2 5457   4.315   3.807   4.265
 1839TIP3    H1 5458   4.374   3.760   4.207
 1839TIP3    H2 5459   4.370   3.830   4.341
 1840TIP3   OH2 5460   1.471   4.766   0.905
 1840TIP3    H1 5461   1.557   4.747   0.943
 1840TIP3    H2 5462   1.453   4.692   0.847
 1841TIP3   OH2 5463   7.308   4.384   6.220
 1841TIP3    H1 5464   7.324   4.476   6.241
 1841TIP3    H2 5465   7.342   4.374   6.130
 1842TIP3   OH2 5466   4.118   3.114   1.749
 1842TIP3    H1 5467   4.073   3.068   1.678
 1842TIP3    H2 5468   4.133   3.047   1.816
 1843TIP3   OH2 5469   0.284   7.802   3.443
 1843TIP3    H1 5470   0.312   7.830   3.530
 1843TIP3    H2 5471   0.293   7.707   3.444
 1844TIP3   OH2 5472   0.547   5.404   6.629
 1844TIP3    H1 5473   0.549   5.308   6.635
 1844TIP3    H2 5474   0.453   5.425   6.628
 1845TIP3   OH2 5475   3.009   4.540   1.390
 1845TIP3    H1 5476   3.076   4.545   1.458
 1845TIP3    H2 5477   3.024   4.456   1.347
 1846TIP3   OH2 5478   5.751   2.728   0.766
 1846TIP3    H1 5479   5.756   2.815   0.727
 1846TIP3    H2 5480   5.658   2.718   0.790
 1847TIP3   OH2 5481   1.886   5.710   3.818
 1847TIP3    H1 5482   1.854   5.799   3.836
 1847TIP3    H2 5483   1.915   5.677   3.903
 1848TIP3   OH2 5484   2.668   1.693   3.526
 1848TIP3    H1 5485   2.662   1.706   3.431
 1848TIP3    H2 5486   2.650   1.600   3.538
 1849TIP3   OH2 5487   8.296   3.289   2.292
 1849TIP3    H1 5488   8.281   3.205   2.335
 1849TIP3    H2 5489   8.336   3.344   2.359
 1850TIP3   OH2 5490   6.609   2.816   2.906
 1850TIP3    H1 5491   6.652   2.894   2.872
 1850TIP3    H2 5492   6.543   2.850   2.967
 1851TIP3   OH2 5493   2.677   6.981   3.513
 1851TIP3    H1 5494   2.641   6.956   3.598
 1851TIP3    H2 5495   2.601   6.992   3.457
 1852TIP3   OH2 5496   5.057   2.139   6.287
 1852TIP3    H1 5497   5.100   2.130   6.202
 1852TIP3    H2 5498   5.124   2.115   6.351
 1853TIP3   OH2 5499   4.676   5.854   2.622
 1853TIP3    H1 5500   4.653   5.833   2.712
 1853TIP3    H2 5501   4.664   5.949   2.616
 1854TIP3   OH2 5502   2.388   5.907   6.627
 1854TIP3    H1 5503   2.327   5.974   6.597
 1854TIP3    H2 5504   2.465   5.956   6.656
 1855TIP3   OH2 5505   4.473   2.471   4.331
 1855TIP3    H1 5506   4.531   2.539   4.365
 1855TIP3    H2 5507   4.485   2.476   4.236
 1856TIP3   OH2 5508   3.863   2.258   1.800
 1856TIP3    H1 5509   3.793   2.234   1.739
 1856TIP3    H2 5510   3.818   2.267   1.884
 1857TIP3   OH2 5511   7.274   4.869   3.398
 1857TIP3    H1 5512   7.291   4.884   3.305
 1857TIP3    H2 5513   7.358   4.839   3.432
 1858TIP3   OH2 5514   0.959   6.574   2.335
 1858TIP3    H1 5515   1.001   6.658   2.355
 1858TIP3    H2 5516   0.874   6.597   2.299
 1859TIP3   OH2 5517   5.458   4.808   5.057
 1859TIP3    H1 5518   5.446   4.841   5.146
 1859TIP3    H2 5519   5.473   4.886   5.004
 1860TIP3   OH2 5520   8.132   3.139   4.240
 1860TIP3    H1 5521   8.187   3.060   4.237
 1860TIP3    H2 5522   8.170   3.192   4.310
 1861TIP3   OH2 5523   3.433   0.902   0.818
 1861TIP3    H1 5524   3.519   0.874   0.788
 1861TIP3    H2 5525   3.442   0.908   0.913
 1862TIP3   OH2 5526   2.525   4.996   4.947
 1862TIP3    H1 5527   2.620   5.001   4.953
 1862TIP3    H2 5528   2.494   5.069   5.001
 1863TIP3   OH2 5529   1.202   3.496   0.012
 1863TIP3    H1 5530   1.241   3.417  -0.025
 1863TIP3    H2 5531   1.240   3.503   0.100
 1864TIP3   OH2 5532   7.065   1.427   0.135
 1864TIP3    H1 5533   7.050   1.378   0.054
 1864TIP3    H2 5534   6.995   1.399   0.194
 1865TIP3   OH2 5535   3.659   5.043   1.840
 1865TIP3    H1 5536   3.652   4.983   1.914
 1865TIP3    H2 5537   3.663   4.986   1.763
 1866TIP3   OH2 5538   4.187   5.622   0.710
 1866TIP3    H1 5539   4.187   5.704   0.661
 1866TIP3    H2 5540   4.168   5.648   0.800
 1867TIP3   OH2 5541   7.724   2.897   0.749
 1867TIP3    H1 5542   7.777   2.975   0.732
 1867TIP3    H2 5543   7.634   2.931   0.757
 1868TIP3   OH2 5544   2.514   5.845   5.879
 1868TIP3    H1 5545   2.548   5.784   5.814
 1868TIP3    H2 5546   2.560   5.927   5.861
 1869TIP3   OH2 5547   2.416   7.163   3.839
 1869TIP3    H1 5548   2.473   7.240   3.842
 1869TIP3    H2 5549   2.330   7.195   3.864
 1870TIP3   OH2 5550   3.787   4.796   0.502
 1870TIP3    H1 5551   3.876   4.761   0.492
 1870TIP3    H2 5552   3.744   4.736   0.563
 1871TIP3   OH2 5553   1.520   1.456   0.709
 1871TIP3    H1 5554   1.559   1.369   0.718
 1871TIP3    H2 5555   1.443   1.455   0.765
 1872TIP3   OH2 5556   0.119   1.571   3.678
 1872TIP3    H1 5557   0.123   1.579   3.583
 1872TIP3    H2 5558   0.069   1.648   3.707
 1873TIP3   OH2 5559   2.190   2.643   0.934
 1873TIP3    H1 5560   2.263   2.592   0.970
 1873TIP3    H2 5561   2.192   2.625   0.840
 1874TIP3   OH2 5562   4.490   1.320   3.359
 1874TIP3    H1 5563   4.481   1.236   3.314
 1874TIP3    H2 5564   4.570   1.359   3.322
 1875TIP3   OH2 5565   2.785   4.821   4.567
 1875TIP3    H1 5566   2.761   4.729   4.563
 1875TIP3    H2 5567   2.710   4.863   4.609
 1876TIP3   OH2 5568   4.844   5.805   1.871
 1876TIP3    H1 5569   4.860   5.802   1.776
 1876TIP3    H2 5570   4.895   5.880   1.902
 1877TIP3   OH2 5571   6.264   3.824   6.093
 1877TIP3    H1 5572   6.328   3.831   6.164
 1877TIP3    H2 5573   6.258   3.913   6.058
 1878TIP3   OH2 5574   7.570   0.889   4.690
 1878TIP3    H1 5575   7.520   0.889   4.772
 1878TIP3    H2 5576   7.634   0.819   4.702
 1879TIP3   OH2 5577   6.945   2.058   2.023
 1879TIP3    H1 5578   7.000   1.984   2.051
 1879TIP3    H2 5579   6.935   2.111   2.102
 1880TIP3   OH2 5580   2.618   1.483   1.080
 1880TIP3    H1 5581   2.617   1.549   1.010
 1880TIP3    H2 5582   2.536   1.496   1.127
 1881TIP3   OH2 5583   1.689   5.755   5.351
 1881TIP3    H1 5584   1.720   5.761   5.260
 1881TIP3    H2 5585   1.767   5.770   5.404
 1882TIP3   OH2 5586   1.790   2.424   1.673
 1882TIP3    H1 5587   1.749   2.358   1.729
 1882TIP3    H2 5588   1.862   2.460   1.726
 1883TIP3   OH2 5589   5.563   4.174   2.861
 1883TIP3    H1 5590   5.628   4.241   2.884
 1883TIP3    H2 5591   5.588   4.145   2.774
 1884TIP3   OH2 5592   3.522   6.076   0.998
 1884TIP3    H1 5593   3.572   5.995   0.992
 1884TIP3    H2 5594   3.482   6.086   0.911
 1885TIP3   OH2 5595   8.088   1.762   3.952
 1885TIP3    H1 5596   8.013   1.817   3.928
 1885TIP3    H2 5597   8.051   1.673   3.957
 1886TIP3   OH2 5598   0.142   6.278   3.945
 1886TIP3    H1 5599   0.162   6.314   4.032
 1886TIP3    H2 5600   0.227   6.256   3.908
 1887TIP3   OH2 5601   4.397   6.647   5.081
 1887TIP3    H1 5602   4.477   6.688   5.113
 1887TIP3    H2 5603   4.352   6.616   5.160
 1888TIP3   OH2 5604   0.112   3.388   3.409
 1888TIP3    H1 5605   0.121   3.366   3.317
 1888TIP3    H2 5606   0.202   3.396   3.441
 1889TIP3   OH2 5607   2.122   6.674   0.170
 1889TIP3    H1 5608   2.093   6.652   0.258
 1889TIP3    H2 5609   2.212   6.643   0.166
 1890TIP3   OH2 5610   2.119   0.810   6.641
 1890TIP3    H1 5611   2.046   0.749   6.633
 1890TIP3    H2 5612   2.158   0.812   6.554
 1891TIP3   OH2 5613   4.093   3.684   1.627
 1891TIP3    H1 5614   4.060   3.637   1.703
 1891TIP3    H2 5615   4.093   3.618   1.556
 1892TIP3   OH2 5616   4.900   3.895   1.275
 1892TIP3    H1 5617   4.930   3.813   1.315
 1892TIP3    H2 5618   4.806   3.883   1.262
 1893TIP3   OH2 5619   7.140   6.700   6.307
 1893TIP3    H1 5620   7.123   6.785   6.266
 1893TIP3    H2 5621   7.059   6.650   6.294
 1894TIP3   OH2 5622   1.399   1.842   2.801
 1894TIP3    H1 5623   1.330   1.908   2.807
 1894TIP3    H2 5624   1.360   1.764   2.840
 1895TIP3   OH2 5625   4.428   0.491   4.048
 1895TIP3    H1 5626   4.352   0.476   4.104
 1895TIP3    H2 5627   4.486   0.417   4.066
 1896TIP3   OH2 5628   1.245   3.910   3.472
 1896TIP3    H1 5629   1.240   3.895   3.377
 1896TIP3    H2 5630   1.166   3.960   3.493
 1897TIP3   OH2 5631   5.980   1.510   2.790
 1897TIP3    H1 5632   5.899   1.477   2.829
 1897TIP3    H2 5633   6.014   1.437   2.739
 1898TIP3   OH2 5634   2.271   2.217   4.196
 1898TIP3    H1 5635   2.356   2.186   4.165
 1898TIP3    H2 5636   2.253   2.166   4.275
 1899TIP3   OH2 5637   7.010   0.502   5.668
 1899TIP3    H1 5638   7.053   0.499   5.583
 1899TIP3    H2 5639   6.921   0.529   5.649
 1900TIP3   OH2 5640   0.502   1.866   1.006
 1900TIP3    H1 5641   0.487   1.781   1.047
 1900TIP3    H2 5642   0.597   1.878   1.010
 1901TIP3   OH2 5643   5.419   3.243   3.123
 1901TIP3    H1 5644   5.376   3.255   3.208
 1901TIP3    H2 5645   5.500   3.197   3.144
 1902TIP3   OH2 5646   1.619   6.227   4.346
 1902TIP3    H1 5647   1.637   6.277   4.266
 1902TIP3    H2 5648   1.701   6.231   4.396
 1903TIP3   OH2 5649   5.974   7.953   4.221
 1903TIP3    H1 5650   6.047   7.962   4.282
 1903TIP3    H2 5651   5.918   7.887   4.262
 1904TIP3   OH2 5652   7.638   3.979   3.858
 1904TIP3    H1 5653   7.658   3.973   3.951
 1904TIP3    H2 5654   7.639   3.888   3.827
 1905TIP3   OH2 5655   1.090   4.065   1.841
 1905TIP3    H1 5656   1.175   4.097   1.871
 1905TIP3    H2 5657   1.102   4.047   1.748
 1906TIP3   OH2 5658   4.988   7.804   4.028
 1906TIP3    H1 5659   5.048   7.815   4.102
 1906TIP3    H2 5660   4.944   7.888   4.019
 1907TIP3   OH2 5661   6.328   3.291   1.167
 1907TIP3    H1 5662   6.324   3.320   1.258
 1907TIP3    H2 5663   6.409   3.240   1.162
 1908TIP3   OH2 5664   7.953   2.554   2.430
 1908TIP3    H1 5665   7.993   2.549   2.517
 1908TIP3    H2 5666   8.024   2.583   2.373
 1909TIP3   OH2 5667   4.745   2.931   3.143
 1909TIP3    H1 5668   4.651   2.927   3.160
 1909TIP3    H2 5669   4.764   2.851   3.094
 1910TIP3   OH2 5670   7.050   5.690   4.458
 1910TIP3    H1 5671   7.132   5.665   4.501
 1910TIP3    H2 5672   6.997   5.611   4.461
 1911TIP3   OH2 5673   6.120   4.901   0.491
 1911TIP3    H1 5674   6.096   4.817   0.453
 1911TIP3    H2 5675   6.119   4.886   0.586
 1912TIP3   OH2 5676   0.696   0.302   6.523
 1912TIP3    H1 5677   0.732   0.213   6.527
 1912TIP3    H2 5678   0.658   0.308   6.436
 1913TIP3   OH2 5679   3.711   4.669   6.662
 1913TIP3    H1 5680   3.708   4.590   6.609
 1913TIP3    H2 5681   3.741   4.737   6.602
 1914TIP3   OH2 5682   7.116   2.004   4.826
 1914TIP3    H1 5683   7.041   1.959   4.864
 1914TIP3    H2 5684   7.163   1.936   4.778
 1915TIP3   OH2 5685   4.122   4.137   5.066
 1915TIP3    H1 5686   4.192   4.094   5.113
 1915TIP3    H2 5687   4.163   4.168   4.985
 1916TIP3   OH2 5688   5.783   2.966   6.774
 1916TIP3    H1 5689   5.695   2.931   6.791
 1916TIP3    H2 5690   5.768   3.052   6.735
 1917TIP3   OH2 5691   3.699   2.577   1.945
 1917TIP3    H1 5692   3.696   2.665   1.907
 1917TIP3    H2 5693   3.792   2.560   1.960
 1918TIP3   OH2 5694   2.655   0.483   3.168
 1918TIP3    H1 5695   2.726   0.476   3.232
 1918TIP3    H2 5696   2.658   0.574   3.139
 1919TIP3   OH2 5697   0.857   5.877   1.194
 1919TIP3    H1 5698   0.877   5.886   1.287
 1919TIP3    H2 5699   0.907   5.947   1.152
 1920TIP3   OH2 5700   2.386   6.690   3.457
 1920TIP3    H1 5701   2.337   6.766   3.488
 1920TIP3    H2 5702   2.329   6.649   3.391
 1921TIP3   OH2 5703   1.803   7.708   3.067
 1921TIP3    H1 5704   1.748   7.739   2.996
 1921TIP3    H2 5705   1.834   7.622   3.037
 1922TIP3   OH2 5706   1.820   4.158   5.192
 1922TIP3    H1 5707   1.790   4.206   5.269
 1922TIP3    H2 5708   1.887   4.098   5.226
 1923TIP3   OH2 5709   5.071   5.337   5.575
 1923TIP3    H1 5710   5.142   5.362   5.634
 1923TIP3    H2 5711   5.019   5.275   5.626
 1924TIP3   OH2 5712   7.460   3.333   4.819
 1924TIP3    H1 5713   7.443   3.249   4.861
 1924TIP3    H2 5714   7.528   3.314   4.754
 1925TIP3   OH2 5715   7.151   6.321   6.789
 1925TIP3    H1 5716   7.184   6.402   6.750
 1925TIP3    H2 5717   7.188   6.321   6.878
 1926TIP3   OH2 5718   6.755   3.927   6.101
 1926TIP3    H1 5719   6.802   3.863   6.047
 1926TIP3    H2 5720   6.822   3.963   6.159
 1927TIP3   OH2 5721   0.709   4.286   5.684
 1927TIP3    H1 5722   0.715   4.332   5.601
 1927TIP3    H2 5723   0.628   4.235   5.678
 1928TIP3   OH2 5724   4.387   1.296   3.976
 1928TIP3    H1 5725   4.466   1.335   3.939
 1928TIP3    H2 5726   4.417   1.244   4.050
 1929TIP3   OH2 5727   7.236   0.596   2.872
 1929TIP3    H1 5728   7.299   0.668   2.868
 1929TIP3    H2 5729   7.164   0.630   2.925
 1930TIP3   OH2 5730   3.163   1.649   0.115
 1930TIP3    H1 5731   3.221   1.694   0.054
 1930TIP3    H2 5732   3.134   1.570   0.068
 1931TIP3   OH2 5733   8.389   0.500   3.695
 1931TIP3    H1 5734   8.414   0.422   3.645
 1931TIP3    H2 5735   8.459   0.563   3.679
 1932TIP3   OH2 5736   2.018   5.280   3.422
 1932TIP3    H1 5737   2.068   5.294   3.502
 1932TIP3    H2 5738   1.969   5.361   3.409
 1933TIP3   OH2 5739   4.064   4.872   3.940
 1933TIP3    H1 5740   4.095   4.784   3.959
 1933TIP3    H2 5741   4.080   4.883   3.846
 1934TIP3   OH2 5742   6.336   4.285   3.494
 1934TIP3    H1 5743   6.295   4.332   3.566
 1934TIP3    H2 5744   6.281   4.303   3.418
 1935TIP3   OH2 5745   3.448   7.630   5.155
 1935TIP3    H1 5746   3.388   7.612   5.228
 1935TIP3    H2 5747   3.400   7.690   5.099
 1936TIP3   OH2 5748   6.582   2.751   0.775
 1936TIP3    H1 5749   6.499   2.781   0.811
 1936TIP3    H2 5750   6.569   2.657   0.761
 1937TIP3   OH2 5751   7.126   6.025   2.746
 1937TIP3    H1 5752   7.094   6.101   2.793
 1937TIP3    H2 5753   7.175   5.974   2.811
 1938TIP3   OH2 5754   6.766   4.079   4.343
 1938TIP3    H1 5755   6.812   4.002   4.376
 1938TIP3    H2 5756   6.835   4.139   4.316
 1939TIP3   OH2 5757   4.330   1.397   2.090
 1939TIP3    H1 5758   4.379   1.324   2.127
 1939TIP3    H2 5759   4.388   1.434   2.024
 1940TIP3   OH2 5760   7.590   6.237   1.271
 1940TIP3    H1 5761   7.678   6.253   1.236
 1940TIP3    H2 5762   7.532   6.288   1.215
 1941TIP3   OH2 5763   2.140   3.687   2.298
 1941TIP3    H1 5764   2.059   3.635   2.299
 1941TIP3    H2 5765   2.208   3.627   2.328
 1942TIP3   OH2 5766   2.954   1.501   3.061
 1942TIP3    H1 5767   2.877   1.457   3.096
 1942TIP3    H2 5768   2.963   1.579   3.115
 1943TIP3   OH2 5769   7.321   1.843   1.578
 1943TIP3    H1 5770   7.278   1.842   1.493
 1943TIP3    H2 5771   7.254   1.811   1.639
 1944TIP3   OH2 5772   8.281   3.842   6.860
 1944TIP3    H1 5773   8.280   3.764   6.806
 1944TIP3    H2 5774   8.270   3.914   6.798
 1945TIP3   OH2 5775   0.990   6.093   0.492
 1945TIP3    H1 5776   0.915   6.147   0.467
 1945TIP3    H2 5777   0.969   6.062   0.580
 1946TIP3   OH2 5778   7.352   7.946   5.574
 1946TIP3    H1 5779   7.320   7.992   5.496
 1946TIP3    H2 5780   7.441   7.920   5.550
 1947TIP3   OH2 5781   1.119   5.991   2.502
 1947TIP3    H1 5782   1.065   6.021   2.430
 1947TIP3    H2 5783   1.189   6.055   2.508
 1948TIP3   OH2 5784   6.041   1.993   2.842
 1948TIP3    H1 5785   6.058   2.087   2.833
 1948TIP3    H2 5786   6.099   1.965   2.913
 1949TIP3   OH2 5787   3.846   2.229   5.734
 1949TIP3    H1 5788   3.786   2.282   5.683
 1949TIP3    H2 5789   3.852   2.275   5.819
 1950TIP3   OH2 5790   1.088   6.261   5.816
 1950TIP3    H1 5791   1.150   6.210   5.867
 1950TIP3    H2 5792   1.110   6.352   5.836
 1951TIP3   OH2 5793   1.482   5.263   1.967
 1951TIP3    H1 5794   1.408   5.221   2.011
 1951TIP3    H2 5795   1.451   5.351   1.946
 1952TIP3   OH2 5796   5.311   3.773   1.458
 1952TIP3    H1 5797   5.395   3.728   1.458
 1952TIP3    H2 5798   5.265   3.738   1.534
 1953TIP3   OH2 5799   3.112   3.580   6.641
 1953TIP3    H1 5800   3.204   3.595   6.662
 1953TIP3    H2 5801   3.069   3.572   6.726
 1954TIP3   OH2 5802   7.493   5.415   4.049
 1954TIP3    H1 5803   7.488   5.322   4.069
 1954TIP3    H2 5804   7.499   5.418   3.953
 1955TIP3   OH2 5805   1.517   2.730   6.467
 1955TIP3    H1 5806   1.487   2.705   6.554
 1955TIP3    H2 5807   1.610   2.750   6.479
 1956TIP3   OH2 5808   5.429   0.325   1.533
 1956TIP3    H1 5809   5.375   0.401   1.554
 1956TIP3    H2 5810   5.451   0.336   1.440
 1957TIP3   OH2 5811   1.347   7.520   5.516
 1957TIP3    H1 5812   1.391   7.490   5.596
 1957TIP3    H2 5813   1.417   7.526   5.451
 1958TIP3   OH2 5814   5.300   0.937   1.926
 1958TIP3    H1 5815   5.251   1.008   1.886
 1958TIP3    H2 5816   5.368   0.981   1.977
 1959TIP3   OH2 5817   1.167   7.821   1.891
 1959TIP3    H1 5818   1.138   7.910   1.869
 1959TIP3    H2 5819   1.125   7.802   1.975
 1960TIP3   OH2 5820   0.561   1.547   5.389
 1960TIP3    H1 5821   0.633   1.486   5.374
 1960TIP3    H2 5822   0.521   1.518   5.471
 1961TIP3   OH2 5823   8.106   1.549   3.657
 1961TIP3    H1 5824   8.012   1.542   3.639
 1961TIP3    H2 5825   8.145   1.574   3.573
 1962TIP3   OH2 5826   3.442   3.948   5.857
 1962TIP3    H1 5827   3.502   3.928   5.929
 1962TIP3    H2 5828   3.441   4.044   5.852
 1963TIP3   OH2 5829   1.402   7.808   1.536
 1963TIP3    H1 5830   1.460   7.761   1.595
 1963TIP3    H2 5831   1.328   7.748   1.522
 1964TIP3   OH2 5832   8.400   2.585   2.100
 1964TIP3    H1 5833   8.446   2.501   2.096
 1964TIP3    H2 5834   8.398   2.616   2.009
 1965TIP3   OH2 5835   4.823   7.398   3.615
 1965TIP3    H1 5836   4.847   7.306   3.601
 1965TIP3    H2 5837   4.805   7.432   3.527
 1966TIP3   OH2 5838   5.254   7.682   6.705
 1966TIP3    H1 5839   5.216   7.679   6.793
 1966TIP3    H2 5840   5.349   7.680   6.720
 1967TIP3   OH2 5841   5.794   3.051   2.443
 1967TIP3    H1 5842   5.750   2.967   2.456
 1967TIP3    H2 5843   5.887   3.031   2.456
 1968TIP3   OH2 5844   1.155   4.771   1.359
 1968TIP3    H1 5845   1.229   4.788   1.301
 1968TIP3    H2 5846   1.078   4.776   1.302
 1969TIP3   OH2 5847   5.798   4.464   5.710
 1969TIP3    H1 5848   5.832   4.539   5.758
 1969TIP3    H2 5849   5.858   4.453   5.636
 1970TIP3   OH2 5850   8.207   3.596   2.860
 1970TIP3    H1 5851   8.254   3.591   2.777
 1970TIP3    H2 5852   8.128   3.646   2.840
 1971TIP3   OH2 5853   6.145   5.012   5.601
 1971TIP3    H1 5854   6.154   5.014   5.697
 1971TIP3    H2 5855   6.153   5.104   5.575
 1972TIP3   OH2 5856   5.627   2.502   1.606
 1972TIP3    H1 5857   5.680   2.439   1.656
 1972TIP3    H2 5858   5.618   2.462   1.520
 1973TIP3   OH2 5859   3.703   2.514   6.200
 1973TIP3    H1 5860   3.692   2.437   6.257
 1973TIP3    H2 5861   3.614   2.536   6.172
 1974TIP3   OH2 5862   5.964   0.537   4.067
 1974TIP3    H1 5863   5.913   0.467   4.028
 1974TIP3    H2 5864   5.965   0.517   4.161
 1975TIP3   OH2 5865   2.843   0.929   1.387
 1975TIP3    H1 5866   2.787   0.973   1.323
 1975TIP3    H2 5867   2.785   0.907   1.459
 1976TIP3   OH2 5868   5.022   3.154   1.241
 1976TIP3    H1 5869   5.040   3.176   1.150
 1976TIP3    H2 5870   5.044   3.061   1.247
 1977TIP3   OH2 5871   1.047   4.442   4.701
 1977TIP3    H1 5872   1.129   4.475   4.736
 1977TIP3    H2 5873   0.984   4.454   4.772
 1978TIP3   OH2 5874   5.132   5.176   0.409
 1978TIP3    H1 5875   5.216   5.173   0.455
 1978TIP3    H2 5876   5.120   5.088   0.374
 1979TIP3   OH2 5877   1.753   6.344   1.468
 1979TIP3    H1 5878   1.755   6.405   1.542
 1979TIP3    H2 5879   1.664   6.351   1.434
 1980TIP3   OH2 5880   4.006   7.583   1.070
 1980TIP3    H1 5881   4.020   7.557   1.161
 1980TIP3    H2 5882   4.085   7.552   1.024
 1981TIP3   OH2 5883   7.615   5.411   5.100
 1981TIP3    H1 5884   7.560   5.383   5.173
 1981TIP3    H2 5885   7.639   5.330   5.055
 1982TIP3   OH2 5886   0.751   0.251   2.713
 1982TIP3    H1 5887   0.666   0.213   2.731
 1982TIP3    H2 5888   0.809   0.176   2.699
 1983TIP3   OH2 5889   1.970   4.427   2.650
 1983TIP3    H1 5890   2.029   4.353   2.630
 1983TIP3    H2 5891   2.018   4.504   2.619
 1984TIP3   OH2 5892  -0.020   3.299   4.280
 1984TIP3    H1 5893   0.023   3.259   4.204
 1984TIP3    H2 5894   0.039   3.281   4.353
 1985TIP3   OH2 5895   0.485   7.844   1.779
 1985TIP3    H1 5896   0.405   7.878   1.739
 1985TIP3    H2 5897   0.492   7.892   1.862
 1986TIP3   OH2 5898   7.920   0.420   0.684
 1986TIP3    H1 5899   7.990   0.474   0.648
 1986TIP3    H2 5900   7.961   0.374   0.757
 1987TIP3   OH2 5901   3.391   0.391   0.241
 1987TIP3    H1 5902   3.385   0.437   0.325
 1987TIP3    H2 5903   3.428   0.306   0.263
 1988TIP3   OH2 5904   6.209   0.287   4.014
 1988TIP3    H1 5905   6.235   0.300   3.923
 1988TIP3    H2 5906   6.250   0.204   4.039
 1989TIP3   OH2 5907   1.401   5.448   2.942
 1989TIP3    H1 5908   1.318   5.459   2.896
 1989TIP3    H2 5909   1.465   5.497   2.890
 1990TIP3   OH2 5910   8.236   5.479   5.947
 1990TIP3    H1 5911   8.244   5.544   6.017
 1990TIP3    H2 5912   8.319   5.484   5.900
 1991TIP3   OH2 5913   1.386   3.748   0.918
 1991TIP3    H1 5914   1.302   3.785   0.889
 1991TIP3    H2 5915   1.437   3.738   0.837
 1992TIP3   OH2 5916   7.439   4.512   5.008
 1992TIP3    H1 5917   7.509   4.574   5.031
 1992TIP3    H2 5918   7.431   4.456   5.085
 1993TIP3   OH2 5919   7.612   1.548   3.712
 1993TIP3    H1 5920   7.689   1.505   3.676
 1993TIP3    H2 5921   7.596   1.622   3.653
 1994TIP3   OH2 5922   8.344   7.329   5.097
 1994TIP3    H1 5923   8.375   7.258   5.039
 1994TIP3    H2 5924   8.255   7.347   5.068
 1995TIP3   OH2 5925   2.186   0.525   1.030
 1995TIP3    H1 5926   2.238   0.594   0.989
 1995TIP3    H2 5927   2.166   0.560   1.117
 1996TIP3   OH2 5928   7.650   7.872   6.749
 1996TIP3    H1 5929   7.667   7.905   6.837
 1996TIP3    H2 5930   7.557   7.852   6.748
 1997TIP3   OH2 5931   7.399   6.082   3.603
 1997TIP3    H1 5932   7.373   5.991   3.591
 1997TIP3    H2 5933   7.433   6.110   3.518
 1998TIP3   OH2 5934   4.056   2.374   6.366
 1998TIP3    H1 5935   4.033   2.303   6.307
 1998TIP3    H2 5936   4.002   2.448   6.337
 1999TIP3   OH2 5937   7.997   3.833   1.563
 1999TIP3    H1 5938   7.913   3.860   1.528
 1999TIP3    H2 5939   8.012   3.890   1.639
 2000TIP3   OH2 5940   4.653   4.103   1.189
 2000TIP3    H1 5941   4.729   4.118   1.246
 2000TIP3    H2 5942   4.678   4.140   1.105
 2001TIP3   OH2 5943   7.103   0.471   3.305
 2001TIP3    H1 5944   7.174   0.484   3.243
 2001TIP3    H2 5945   7.074   0.381   3.290
 2002TIP3   OH2 5946   3.437   0.870   2.839
 2002TIP3    H1 5947   3.501   0.939   2.853
 2002TIP3    H2 5948   3.451   0.808   2.911
 2003TIP3   OH2 5949   7.823   0.317   2.615
 2003TIP3    H1 5950   7.898   0.348   2.664
 2003TIP3    H2 5951   7.779   0.255   2.674
 2004TIP3   OH2 5952   6.250   2.746   5.751
 2004TIP3    H1 5953   6.221   2.785   5.668
 2004TIP3    H2 5954   6.341   2.721   5.734
 2005TIP3   OH2 5955   0.705   4.797   1.371
 2005TIP3    H1 5956   0.635   4.806   1.436
 2005TIP3    H2 5957   0.785   4.795   1.423
 2006TIP3   OH2 5958   2.600   1.573   2.789
 2006TIP3    H1 5959   2.601   1.589   2.883
 2006TIP3    H2 5960   2.557   1.650   2.751
 2007TIP3   OH2 5961   3.501   1.435   6.478
 2007TIP3    H1 5962   3.572   1.404   6.421
 2007TIP3    H2 5963   3.421   1.415   6.430
 2008TIP3   OH2 5964   2.356   7.027   0.697
 2008TIP3    H1 5965   2.297   7.052   0.767
 2008TIP3    H2 5966   2.419   7.099   0.691
 2009TIP3   OH2 5967   4.536   1.451   2.486
 2009TIP3    H1 5968   4.503   1.394   2.556
 2009TIP3    H2 5969   4.512   1.539   2.514
 2010TIP3   OH2 5970   3.380   2.460   1.788
 2010TIP3    H1 5971   3.344   2.527   1.846
 2010TIP3    H2 5972   3.451   2.421   1.838
 2011TIP3   OH2 5973   6.487   0.507   2.215
 2011TIP3    H1 5974   6.537   0.570   2.163
 2011TIP3    H2 5975   6.437   0.457   2.150
 2012TIP3   OH2 5976   1.859   3.465   6.524
 2012TIP3    H1 5977   1.821   3.378   6.533
 2012TIP3    H2 5978   1.915   3.475   6.600
 2013TIP3   OH2 5979   2.453   5.615   3.352
 2013TIP3    H1 5980   2.381   5.591   3.411
 2013TIP3    H2 5981   2.417   5.601   3.264
 2014TIP3   OH2 5982   5.401   0.181   6.192
 2014TIP3    H1 5983   5.494   0.181   6.215
 2014TIP3    H2 5984   5.378   0.088   6.183
 2015TIP3   OH2 5985   5.165   4.814   4.241
 2015TIP3    H1 5986   5.220   4.761   4.184
 2015TIP3    H2 5987   5.225   4.877   4.281
 2016TIP3   OH2 5988   2.627   3.446   0.855
 2016TIP3    H1 5989   2.623   3.350   0.848
 2016TIP3    H2 5990   2.554   3.469   0.912
 2017TIP3   OH2 5991   7.418   0.177   1.780
 2017TIP3    H1 5992   7.366   0.172   1.860
 2017TIP3    H2 5993   7.482   0.247   1.798
 2018TIP3   OH2 5994   2.193   2.901   1.041
 2018TIP3    H1 5995   2.191   2.818   0.994
 2018TIP3    H2 5996   2.142   2.961   0.986
 2019TIP3   OH2 5997   3.171   7.134   5.914
 2019TIP3    H1 5998   3.252   7.101   5.876
 2019TIP3    H2 5999   3.147   7.068   5.979
 2020TIP3   OH2 6000   3.841   0.135   5.491
 2020TIP3    H1 6001   3.867   0.085   5.414
 2020TIP3    H2 6002   3.747   0.117   5.501
 2021TIP3   OH2 6003   5.953   6.699   4.799
 2021TIP3    H1 6004   6.031   6.737   4.839
 2021TIP3    H2 6005   5.986   6.649   4.724
 2022TIP3   OH2 6006   0.119   3.212   4.600
 2022TIP3    H1 6007   0.184   3.146   4.577
 2022TIP3    H2 6008   0.157   3.295   4.572
 2023TIP3   OH2 6009   1.884   2.301   3.176
 2023TIP3    H1 6010   1.790   2.285   3.167
 2023TIP3    H2 6011   1.917   2.225   3.224
 2024TIP3   OH2 6012   1.089   3.854   0.950
 2024TIP3    H1 6013   1.030   3.853   0.873
 2024TIP3    H2 6014   1.065   3.934   0.997
 2025TIP3   OH2 6015   4.117   3.236   6.618
 2025TIP3    H1 6016   4.207   3.257   6.592
 2025TIP3    H2 6017   4.085   3.181   6.547
 2026TIP3   OH2 6018   5.095   0.500   1.382
 2026TIP3    H1 6019   5.021   0.524   1.326
 2026TIP3    H2 6020   5.172   0.512   1.326
 2027TIP3   OH2 6021   2.730   6.919   5.037
 2027TIP3    H1 6022   2.720   7.008   5.070
 2027TIP3    H2 6023   2.781   6.930   4.956
 2028TIP3   OH2 6024   7.553   0.844   2.491
 2028TIP3    H1 6025   7.562   0.919   2.551
 2028TIP3    H2 6026   7.459   0.838   2.475
 2029TIP3   OH2 6027   0.281   7.569   1.644
 2029TIP3    H1 6028   0.364   7.525   1.664
 2029TIP3    H2 6029   0.263   7.622   1.721
 2030TIP3   OH2 6030   4.686   1.684   0.763
 2030TIP3    H1 6031   4.613   1.696   0.824
 2030TIP3    H2 6032   4.760   1.726   0.807
 2031TIP3   OH2 6033   1.836   3.087   3.566
 2031TIP3    H1 6034   1.831   3.087   3.662
 2031TIP3    H2 6035   1.886   3.165   3.544
 2032TIP3   OH2 6036   4.589   6.025   3.165
 2032TIP3    H1 6037   4.537   6.046   3.088
 2032TIP3    H2 6038   4.537   6.058   3.239
 2033TIP3   OH2 6039   3.924   3.325   4.654
 2033TIP3    H1 6040   3.965   3.321   4.568
 2033TIP3    H2 6041   3.934   3.237   4.689
 2034TIP3   OH2 6042   5.389   0.151   3.169
 2034TIP3    H1 6043   5.417   0.063   3.143
 2034TIP3    H2 6044   5.298   0.140   3.195
 2035TIP3   OH2 6045   6.055   0.374   1.332
 2035TIP3    H1 6046   6.096   0.460   1.345
 2035TIP3    H2 6047   5.986   0.390   1.268
 2036TIP3   OH2 6048   0.913   0.589   5.148
 2036TIP3    H1 6049   0.838   0.589   5.089
 2036TIP3    H2 6050   0.911   0.675   5.190
 2037TIP3   OH2 6051   4.254   2.008   2.659
 2037TIP3    H1 6052   4.175   2.045   2.698
 2037TIP3    H2 6053   4.286   2.077   2.600
 2038TIP3   OH2 6054   7.455   6.561   5.176
 2038TIP3    H1 6055   7.468   6.632   5.237
 2038TIP3    H2 6056   7.464   6.481   5.229
 2039TIP3   OH2 6057   2.819   7.457   2.194
 2039TIP3    H1 6058   2.784   7.489   2.111
 2039TIP3    H2 6059   2.912   7.441   2.176
 2040TIP3   OH2 6060   0.197   4.786   2.907
 2040TIP3    H1 6061   0.108   4.752   2.899
 2040TIP3    H2 6062   0.246   4.717   2.950
 2041TIP3   OH2 6063   3.354   7.013   4.173
 2041TIP3    H1 6064   3.289   7.012   4.243
 2041TIP3    H2 6065   3.382   7.104   4.167
 2042TIP3   OH2 6066   0.863   4.388   0.904
 2042TIP3    H1 6067   0.955   4.410   0.915
 2042TIP3    H2 6068   0.831   4.374   0.993
 2043TIP3   OH2 6069   6.235   1.912   4.292
 2043TIP3    H1 6070   6.228   1.906   4.387
 2043TIP3    H2 6071   6.206   2.001   4.272
 2044TIP3   OH2 6072   5.125   4.532   6.575
 2044TIP3    H1 6073   5.199   4.591   6.560
 2044TIP3    H2 6074   5.126   4.517   6.670
 2045TIP3   OH2 6075   2.554   3.193   0.775
 2045TIP3    H1 6076   2.526   3.101   0.772
 2045TIP3    H2 6077   2.534   3.227   0.688
 2046TIP3   OH2 6078   7.044   4.547   4.260
 2046TIP3    H1 6079   7.038   4.571   4.168
 2046TIP3    H2 6080   7.136   4.523   4.272
 2047TIP3   OH2 6081   6.688   7.065   1.978
 2047TIP3    H1 6082   6.635   7.051   2.056
 2047TIP3    H2 6083   6.739   6.985   1.969
 2048TIP3   OH2 6084   0.113   3.364   5.261
 2048TIP3    H1 6085   0.208   3.363   5.276
 2048TIP3    H2 6086   0.080   3.288   5.309
 2049TIP3   OH2 6087   4.128   5.663   0.251
 2049TIP3    H1 6088   4.137   5.735   0.189
 2049TIP3    H2 6089   4.074   5.698   0.322
 2050TIP3   OH2 6090   2.073   2.181   5.506
 2050TIP3    H1 6091   2.051   2.120   5.435
 2050TIP3    H2 6092   2.021   2.150   5.581
 2051TIP3   OH2 6093   0.547   7.451   3.228
 2051TIP3    H1 6094   0.462   7.494   3.226
 2051TIP3    H2 6095   0.546   7.399   3.308
 2052TIP3   OH2 6096   4.652   0.390   1.883
 2052TIP3    H1 6097   4.716   0.353   1.944
 2052TIP3    H2 6098   4.600   0.315   1.855
 2053TIP3   OH2 6099   1.741   2.260   5.571
 2053TIP3    H1 6100   1.654   2.289   5.544
 2053TIP3    H2 6101   1.727   2.171   5.606
 2054TIP3   OH2 6102   7.386   0.985   5.795
 2054TIP3    H1 6103   7.378   0.912   5.735
 2054TIP3    H2 6104   7.299   0.995   5.834
 2055TIP3   OH2 6105   2.439   2.711   0.327
 2055TIP3    H1 6106   2.492   2.677   0.256
 2055TIP3    H2 6107   2.431   2.638   0.389
 2056TIP3   OH2 6108   6.404   5.979   5.703
 2056TIP3    H1 6109   6.496   5.951   5.705
 2056TIP3    H2 6110   6.409   6.075   5.696
 2057TIP3   OH2 6111   3.622   6.389   4.964
 2057TIP3    H1 6112   3.700   6.439   4.941
 2057TIP3    H2 6113   3.557   6.455   4.987
 2058TIP3   OH2 6114   0.019   4.242   2.875
 2058TIP3    H1 6115   0.014   4.148   2.896
 2058TIP3    H2 6116   0.109   4.255   2.846
 2059TIP3   OH2 6117   1.156   4.876   0.841
 2059TIP3    H1 6118   1.178   4.910   0.754
 2059TIP3    H2 6119   1.239   4.843   0.875
 2060TIP3   OH2 6120   7.923   4.001   2.813
 2060TIP3    H1 6121   7.869   3.943   2.868
 2060TIP3    H2 6122   7.983   3.941   2.769
 2061TIP3   OH2 6123   3.941   0.496   6.068
 2061TIP3    H1 6124   3.960   0.404   6.048
 2061TIP3    H2 6125   3.997   0.516   6.143
 2062TIP3   OH2 6126   3.713   5.361   6.520
 2062TIP3    H1 6127   3.720   5.312   6.438
 2062TIP3    H2 6128   3.667   5.302   6.580
 2063TIP3   OH2 6129   5.738   0.216   3.087
 2063TIP3    H1 6130   5.654   0.259   3.102
 2063TIP3    H2 6131   5.762   0.240   2.998
 2064TIP3   OH2 6132   5.918   2.931   2.090
 2064TIP3    H1 6133   5.899   2.873   2.164
 2064TIP3    H2 6134   5.845   2.993   2.089
 2065TIP3   OH2 6135   4.389   5.058   1.754
 2065TIP3    H1 6136   4.389   5.065   1.659
 2065TIP3    H2 6137   4.310   5.104   1.782
 2066TIP3   OH2 6138   0.832   5.029   1.596
 2066TIP3    H1 6139   0.758   5.059   1.543
 2066TIP3    H2 6140   0.796   5.018   1.684
 2067TIP3   OH2 6141   2.888   2.167   1.965
 2067TIP3    H1 6142   2.804   2.212   1.955
 2067TIP3    H2 6143   2.865   2.075   1.979
 2068TIP3   OH2 6144   1.484   3.703   5.819
 2068TIP3    H1 6145   1.422   3.720   5.889
 2068TIP3    H2 6146   1.548   3.643   5.858
 2069TIP3   OH2 6147   4.978   2.980   1.948
 2069TIP3    H1 6148   4.986   3.069   1.915
 2069TIP3    H2 6149   4.910   2.985   2.015
 2070TIP3   OH2 6150   6.398   5.952   3.643
 2070TIP3    H1 6151   6.424   6.003   3.566
 2070TIP3    H2 6152   6.395   5.862   3.611
 2071TIP3   OH2 6153   3.064   1.125   3.288
 2071TIP3    H1 6154   3.092   1.111   3.378
 2071TIP3    H2 6155   3.063   1.221   3.278
 2072TIP3   OH2 6156   4.993   7.418   1.374
 2072TIP3    H1 6157   5.048   7.428   1.452
 2072TIP3    H2 6158   5.054   7.420   1.301
 2073TIP3   OH2 6159   3.296   1.839   5.849
 2073TIP3    H1 6160   3.276   1.932   5.839
 2073TIP3    H2 6161   3.282   1.822   5.942
 2074TIP3   OH2 6162   8.354   0.926   0.991
 2074TIP3    H1 6163   8.342   0.836   0.960
 2074TIP3    H2 6164   8.295   0.933   1.066
 2075TIP3   OH2 6165   2.128   5.804   6.677
 2075TIP3    H1 6166   2.222   5.814   6.667
 2075TIP3    H2 6167   2.118   5.720   6.721
 2076TIP3   OH2 6168   3.215   5.029   5.767
 2076TIP3    H1 6169   3.283   5.056   5.705
 2076TIP3    H2 6170   3.241   5.069   5.850
 2077TIP3   OH2 6171   4.502   0.515   3.344
 2077TIP3    H1 6172   4.422   0.539   3.297
 2077TIP3    H2 6173   4.499   0.419   3.347
 2078TIP3   OH2 6174   7.695   4.515   0.993
 2078TIP3    H1 6175   7.785   4.547   0.994
 2078TIP3    H2 6176   7.641   4.594   0.997
 2079TIP3   OH2 6177   6.963   6.355   5.204
 2079TIP3    H1 6178   6.915   6.289   5.254
 2079TIP3    H2 6179   6.948   6.437   5.251
 2080TIP3   OH2 6180   1.671   7.870   3.651
 2080TIP3    H1 6181   1.679   7.965   3.660
 2080TIP3    H2 6182   1.702   7.835   3.734
 2081TIP3   OH2 6183   6.696   7.786   4.546
 2081TIP3    H1 6184   6.669   7.752   4.631
 2081TIP3    H2 6185   6.617   7.781   4.492
 2082TIP3   OH2 6186   0.986   4.144   0.772
 2082TIP3    H1 6187   0.939   4.178   0.849
 2082TIP3    H2 6188   1.053   4.210   0.754
 2083TIP3   OH2 6189   4.384   5.530   2.102
 2083TIP3    H1 6190   4.327   5.472   2.153
 2083TIP3    H2 6191   4.327   5.567   2.035
 2084TIP3   OH2 6192   0.700   4.461   5.436
 2084TIP3    H1 6193   0.739   4.396   5.377
 2084TIP3    H2 6194   0.748   4.542   5.418
 2085TIP3   OH2 6195   0.829   4.230   3.006
 2085TIP3    H1 6196   0.842   4.147   2.960
 2085TIP3    H2 6197   0.776   4.282   2.946
 2086TIP3   OH2 6198   2.154   4.807   1.136
 2086TIP3    H1 6199   2.108   4.837   1.057
 2086TIP3    H2 6200   2.100   4.839   1.208
 2087TIP3   OH2 6201   0.966   3.237   3.090
 2087TIP3    H1 6202   1.020   3.303   3.048
 2087TIP3    H2 6203   0.994   3.154   3.051
 2088TIP3   OH2 6204   2.707   5.099   2.433
 2088TIP3    H1 6205   2.703   5.004   2.428
 2088TIP3    H2 6206   2.760   5.124   2.357
 2089TIP3   OH2 6207   2.592   7.838   2.432
 2089TIP3    H1 6208   2.642   7.854   2.512
 2089TIP3    H2 6209   2.575   7.926   2.397
 2090TIP3   OH2 6210   6.981   5.710   6.711
 2090TIP3    H1 6211   6.909   5.728   6.771
 2090TIP3    H2 6212   6.941   5.712   6.624
 2091TIP3   OH2 6213   2.083   2.041   1.141
 2091TIP3    H1 6214   2.001   2.074   1.105
 2091TIP3    H2 6215   2.148   2.107   1.117
 2092TIP3   OH2 6216   2.711   0.624   4.261
 2092TIP3    H1 6217   2.647   0.565   4.300
 2092TIP3    H2 6218   2.795   0.582   4.278
 2093TIP3   OH2 6219   3.130   4.375   2.879
 2093TIP3    H1 6220   3.203   4.343   2.825
 2093TIP3    H2 6221   3.172   4.415   2.955
 2094TIP3   OH2 6222   4.283   7.488   3.030
 2094TIP3    H1 6223   4.189   7.474   3.042
 2094TIP3    H2 6224   4.288   7.564   2.973
 2095TIP3   OH2 6225   7.228   2.215   1.437
 2095TIP3    H1 6226   7.322   2.212   1.423
 2095TIP3    H2 6227   7.213   2.157   1.513
 2096TIP3   OH2 6228   8.149   5.503   2.400
 2096TIP3    H1 6229   8.226   5.494   2.457
 2096TIP3    H2 6230   8.084   5.548   2.454
 2097TIP3   OH2 6231   0.103   2.087   6.264
 2097TIP3    H1 6232   0.070   2.117   6.179
 2097TIP3    H2 6233   0.091   2.162   6.322
 2098TIP3   OH2 6234   6.537   1.000   1.003
 2098TIP3    H1 6235   6.493   1.019   0.921
 2098TIP3    H2 6236   6.471   0.955   1.056
 2099TIP3   OH2 6237   4.231   4.374   0.967
 2099TIP3    H1 6238   4.285   4.334   1.036
 2099TIP3    H2 6239   4.158   4.414   1.014
 2100TIP3   OH2 6240   4.052   1.707   6.253
 2100TIP3    H1 6241   4.093   1.794   6.250
 2100TIP3    H2 6242   4.108   1.656   6.312
 2101TIP3   OH2 6243   1.606   1.610   4.877
 2101TIP3    H1 6244   1.556   1.627   4.797
 2101TIP3    H2 6245   1.544   1.628   4.948
 2102TIP3   OH2 6246   1.852   3.664   3.196
 2102TIP3    H1 6247   1.860   3.714   3.115
 2102TIP3    H2 6248   1.788   3.595   3.176
 2103TIP3   OH2 6249   2.563   4.924   1.175
 2103TIP3    H1 6250   2.490   4.973   1.212
 2103TIP3    H2 6251   2.636   4.943   1.233
 2104TIP3   OH2 6252   3.047   3.179   1.578
 2104TIP3    H1 6253   2.981   3.185   1.647
 2104TIP3    H2 6254   3.098   3.101   1.600
 2105TIP3   OH2 6255   6.591   3.694   0.643
 2105TIP3    H1 6256   6.590   3.784   0.610
 2105TIP3    H2 6257   6.562   3.701   0.733
 2106TIP3   OH2 6258   1.746   3.131   1.386
 2106TIP3    H1 6259   1.733   3.148   1.293
 2106TIP3    H2 6260   1.675   3.072   1.410
 2107TIP3   OH2 6261   6.144   6.416   5.204
 2107TIP3    H1 6262   6.137   6.395   5.111
 2107TIP3    H2 6263   6.112   6.506   5.210
 2108TIP3   OH2 6264   3.659   4.249   4.949
 2108TIP3    H1 6265   3.589   4.186   4.967
 2108TIP3    H2 6266   3.684   4.232   4.858
 2109TIP3   OH2 6267   5.204   0.727   5.659
 2109TIP3    H1 6268   5.209   0.811   5.703
 2109TIP3    H2 6269   5.160   0.669   5.722
 2110TIP3   OH2 6270   2.050   4.407   5.722
 2110TIP3    H1 6271   2.026   4.486   5.673
 2110TIP3    H2 6272   2.097   4.353   5.658
 2111TIP3   OH2 6273   4.995   5.927   3.866
 2111TIP3    H1 6274   5.062   5.973   3.916
 2111TIP3    H2 6275   5.025   5.932   3.776
 2112TIP3   OH2 6276   5.105   6.304   0.577
 2112TIP3    H1 6277   5.028   6.353   0.547
 2112TIP3    H2 6278   5.179   6.355   0.545
 2113TIP3   OH2 6279   6.874   0.803   6.420
 2113TIP3    H1 6280   6.941   0.775   6.482
 2113TIP3    H2 6281   6.919   0.867   6.364
 2114TIP3   OH2 6282   1.174   5.335   0.435
 2114TIP3    H1 6283   1.145   5.426   0.433
 2114TIP3    H2 6284   1.211   5.323   0.522
 2115TIP3   OH2 6285   8.110   2.405   5.531
 2115TIP3    H1 6286   8.175   2.473   5.514
 2115TIP3    H2 6287   8.129   2.376   5.620
 2116TIP3   OH2 6288   0.624   0.451   4.575
 2116TIP3    H1 6289   0.595   0.530   4.621
 2116TIP3    H2 6290   0.686   0.410   4.635
 2117TIP3   OH2 6291   6.937   3.401   2.915
 2117TIP3    H1 6292   6.846   3.427   2.929
 2117TIP3    H2 6293   6.931   3.311   2.881
 2118TIP3   OH2 6294   2.565   2.615   3.535
 2118TIP3    H1 6295   2.654   2.636   3.506
 2118TIP3    H2 6296   2.511   2.687   3.501
 2119TIP3   OH2 6297   2.283   0.218   6.603
 2119TIP3    H1 6298   2.271   0.313   6.597
 2119TIP3    H2 6299   2.251   0.196   6.690
 2120TIP3   OH2 6300   6.118   6.564   4.606
 2120TIP3    H1 6301   6.165   6.481   4.603
 2120TIP3    H2 6302   6.176   6.626   4.562
 2121TIP3   OH2 6303   0.713   2.986   6.634
 2121TIP3    H1 6304   0.757   3.046   6.694
 2121TIP3    H2 6305   0.781   2.923   6.609
 2122TIP3   OH2 6306   5.049   3.343   0.388
 2122TIP3    H1 6307   5.065   3.436   0.373
 2122TIP3    H2 6308   5.135   3.307   0.410
 2123TIP3   OH2 6309   5.940   6.537   6.359
 2123TIP3    H1 6310   5.964   6.545   6.266
 2123TIP3    H2 6311   6.005   6.476   6.395
 2124TIP3   OH2 6312   1.777   7.616   4.120
 2124TIP3    H1 6313   1.852   7.564   4.148
 2124TIP3    H2 6314   1.703   7.578   4.167
 2125TIP3   OH2 6315   3.786   2.175   1.150
 2125TIP3    H1 6316   3.738   2.202   1.072
 2125TIP3    H2 6317   3.878   2.183   1.126
 2126TIP3   OH2 6318   3.041   4.913   0.752
 2126TIP3    H1 6319   3.054   4.874   0.839
 2126TIP3    H2 6320   2.952   4.948   0.755
 2127TIP3   OH2 6321   0.106   3.598   3.985
 2127TIP3    H1 6322   0.014   3.571   3.991
 2127TIP3    H2 6323   0.104   3.693   3.993
 2128TIP3   OH2 6324   3.661   7.327   2.316
 2128TIP3    H1 6325   3.736   7.316   2.258
 2128TIP3    H2 6326   3.648   7.422   2.320
 2129TIP3   OH2 6327   3.411   4.981   1.037
 2129TIP3    H1 6328   3.337   4.929   1.068
 2129TIP3    H2 6329   3.407   5.062   1.089
 2130TIP3   OH2 6330   2.672   4.105   1.973
 2130TIP3    H1 6331   2.702   4.014   1.968
 2130TIP3    H2 6332   2.620   4.108   2.054
 2131TIP3   OH2 6333   6.306   3.394   2.969
 2131TIP3    H1 6334   6.373   3.419   2.905
 2131TIP3    H2 6335   6.354   3.343   3.035
 2132TIP3   OH2 6336   0.579   1.772   6.632
 2132TIP3    H1 6337   0.498   1.721   6.628
 2132TIP3    H2 6338   0.620   1.746   6.715
 2133TIP3   OH2 6339   6.550   0.259   3.873
 2133TIP3    H1 6340   6.565   0.347   3.837
 2133TIP3    H2 6341   6.554   0.271   3.968
 2134TIP3   OH2 6342   0.277   3.488   2.582
 2134TIP3    H1 6343   0.312   3.400   2.565
 2134TIP3    H2 6344   0.315   3.513   2.666
 2135TIP3   OH2 6345   2.853   0.492   5.559
 2135TIP3    H1 6346   2.796   0.431   5.604
 2135TIP3    H2 6347   2.801   0.525   5.486
 2136TIP3   OH2 6348   4.190   2.406   4.780
 2136TIP3    H1 6349   4.209   2.427   4.688
 2136TIP3    H2 6350   4.266   2.356   4.809
 2137TIP3   OH2 6351   3.748   6.525   1.391
 2137TIP3    H1 6352   3.759   6.469   1.315
 2137TIP3    H2 6353   3.775   6.470   1.465
 2138TIP3   OH2 6354   4.186   6.013   2.080
 2138TIP3    H1 6355   4.276   6.043   2.066
 2138TIP3    H2 6356   4.136   6.056   2.010
 2139TIP3   OH2 6357   7.831   6.380   6.383
 2139TIP3    H1 6358   7.819   6.310   6.447
 2139TIP3    H2 6359   7.758   6.440   6.400
 2140TIP3   OH2 6360   1.709   4.037   5.935
 2140TIP3    H1 6361   1.793   4.081   5.948
 2140TIP3    H2 6362   1.731   3.944   5.930
 2141TIP3   OH2 6363   1.585   0.900   4.744
 2141TIP3    H1 6364   1.590   0.809   4.715
 2141TIP3    H2 6365   1.663   0.942   4.708
 2142TIP3   OH2 6366   7.673   4.952   2.921
 2142TIP3    H1 6367   7.761   4.972   2.889
 2142TIP3    H2 6368   7.625   4.920   2.845
 2143TIP3   OH2 6369   8.261   4.730   2.618
 2143TIP3    H1 6370   8.307   4.649   2.595
 2143TIP3    H2 6371   8.239   4.770   2.534
 2144TIP3   OH2 6372   4.023   5.420   0.585
 2144TIP3    H1 6373   4.103   5.465   0.610
 2144TIP3    H2 6374   4.044   5.327   0.596
 2145TIP3   OH2 6375   4.702   0.865   3.704
 2145TIP3    H1 6376   4.687   0.779   3.664
 2145TIP3    H2 6377   4.795   0.866   3.725
 2146TIP3   OH2 6378   7.041   0.455   2.178
 2146TIP3    H1 6379   7.020   0.541   2.214
 2146TIP3    H2 6380   7.101   0.416   2.241
 2147TIP3   OH2 6381   5.725   0.460   3.583
 2147TIP3    H1 6382   5.696   0.376   3.547
 2147TIP3    H2 6383   5.663   0.524   3.546
 2148TIP3   OH2 6384   7.141   2.698   4.387
 2148TIP3    H1 6385   7.181   2.751   4.456
 2148TIP3    H2 6386   7.047   2.713   4.396
 2149TIP3   OH2 6387   2.751   0.182   2.691
 2149TIP3    H1 6388   2.770   0.229   2.772
 2149TIP3    H2 6389   2.727   0.094   2.720
 2150TIP3   OH2 6390   5.264   3.996   6.685
 2150TIP3    H1 6391   5.174   3.993   6.717
 2150TIP3    H2 6392   5.276   3.911   6.642
 2151TIP3   OH2 6393   0.921   4.726   1.198
 2151TIP3    H1 6394   0.902   4.775   1.118
 2151TIP3    H2 6395   0.844   4.739   1.253
 2152TIP3   OH2 6396   4.542   0.448   2.161
 2152TIP3    H1 6397   4.449   0.469   2.170
 2152TIP3    H2 6398   4.554   0.430   2.067
 2153TIP3   OH2 6399   3.149   2.505   3.995
 2153TIP3    H1 6400   3.107   2.582   3.957
 2153TIP3    H2 6401   3.132   2.435   3.933
 2154TIP3   OH2 6402   6.565   0.880   0.196
 2154TIP3    H1 6403   6.476   0.849   0.216
 2154TIP3    H2 6404   6.599   0.817   0.133
 2155TIP3   OH2 6405   4.870   0.498   5.759
 2155TIP3    H1 6406   4.857   0.470   5.669
 2155TIP3    H2 6407   4.785   0.487   5.800
 2156TIP3   OH2 6408   8.242   5.653   1.892
 2156TIP3    H1 6409   8.205   5.568   1.868
 2156TIP3    H2 6410   8.171   5.697   1.938
 2157TIP3   OH2 6411   5.912   1.920   1.226
 2157TIP3    H1 6412   5.943   1.962   1.145
 2157TIP3    H2 6413   5.834   1.873   1.200
 2158TIP3   OH2 6414   2.281   1.408   5.752
 2158TIP3    H1 6415   2.331   1.448   5.824
 2158TIP3    H2 6416   2.346   1.357   5.704
 2159TIP3   OH2 6417   6.776   3.731   3.865
 2159TIP3    H1 6418   6.699   3.737   3.808
 2159TIP3    H2 6419   6.850   3.752   3.808
 2160TIP3   OH2 6420   2.274   5.897   6.243
 2160TIP3    H1 6421   2.247   5.829   6.181
 2160TIP3    H2 6422   2.194   5.915   6.294
 2161TIP3   OH2 6423   7.816   2.516   3.681
 2161TIP3    H1 6424   7.815   2.551   3.770
 2161TIP3    H2 6425   7.808   2.421   3.693
 2162TIP3   OH2 6426   4.389   0.682   5.743
 2162TIP3    H1 6427   4.444   0.721   5.810
 2162TIP3    H2 6428   4.302   0.679   5.783
 2163TIP3   OH2 6429   0.136   6.802   5.993
 2163TIP3    H1 6430   0.171   6.861   5.926
 2163TIP3    H2 6431   0.107   6.860   6.063
 2164TIP3   OH2 6432   7.043   4.028   3.184
 2164TIP3    H1 6433   7.037   4.069   3.097
 2164TIP3    H2 6434   7.001   4.091   3.243
 2165TIP3   OH2 6435   4.884   7.482   5.649
 2165TIP3    H1 6436   4.850   7.445   5.568
 2165TIP3    H2 6437   4.972   7.446   5.657
 2166TIP3   OH2 6438   4.332   7.396   4.087
 2166TIP3    H1 6439   4.424   7.397   4.112
 2166TIP3    H2 6440   4.297   7.479   4.119
 2167TIP3   OH2 6441   8.119   2.101   5.069
 2167TIP3    H1 6442   8.113   2.129   4.977
 2167TIP3    H2 6443   8.032   2.120   5.106
 2168TIP3   OH2 6444   7.011   1.345   3.140
 2168TIP3    H1 6445   6.917   1.334   3.127
 2168TIP3    H2 6446   7.020   1.373   3.231
 2169TIP3   OH2 6447   7.282   7.250   5.855
 2169TIP3    H1 6448   7.302   7.343   5.849
 2169TIP3    H2 6449   7.187   7.246   5.872
 2170TIP3   OH2 6450   7.095   3.541   0.638
 2170TIP3    H1 6451   7.109   3.636   0.646
 2170TIP3    H2 6452   7.170   3.511   0.587
 2171TIP3   OH2 6453   1.055   7.132   6.555
 2171TIP3    H1 6454   0.999   7.199   6.594
 2171TIP3    H2 6455   1.144   7.165   6.566
 2172TIP3   OH2 6456   3.410   3.786   3.075
 2172TIP3    H1 6457   3.416   3.744   2.990
 2172TIP3    H2 6458   3.427   3.717   3.139
 2173TIP3   OH2 6459   7.080   5.637   2.035
 2173TIP3    H1 6460   7.065   5.543   2.043
 2173TIP3    H2 6461   7.005   5.677   2.079
 2174TIP3   OH2 6462   7.233   0.771   3.124
 2174TIP3    H1 6463   7.240   0.739   3.214
 2174TIP3    H2 6464   7.154   0.824   3.123
 2175TIP3   OH2 6465   6.222   3.622   0.595
 2175TIP3    H1 6466   6.290   3.624   0.662
 2175TIP3    H2 6467   6.152   3.677   0.629
 2176TIP3   OH2 6468   1.445   1.589   6.507
 2176TIP3    H1 6469   1.494   1.513   6.539
 2176TIP3    H2 6470   1.421   1.637   6.587
 2177TIP3   OH2 6471   3.833   1.740   4.867
 2177TIP3    H1 6472   3.796   1.741   4.955
 2177TIP3    H2 6473   3.908   1.799   4.872
 2178TIP3   OH2 6474   7.170   0.125   5.536
 2178TIP3    H1 6475   7.104   0.132   5.466
 2178TIP3    H2 6476   7.253   0.137   5.490
 2179TIP3   OH2 6477   4.430   2.726   0.890
 2179TIP3    H1 6478   4.362   2.757   0.950
 2179TIP3    H2 6479   4.456   2.804   0.841
 2180TIP3   OH2 6480   0.577   4.990   2.299
 2180TIP3    H1 6481   0.652   5.011   2.244
 2180TIP3    H2 6482   0.503   5.030   2.255
 2181TIP3   OH2 6483   4.927   5.082   0.665
 2181TIP3    H1 6484   4.927   5.042   0.579
 2181TIP3    H2 6485   4.844   5.129   0.671
 2182TIP3   OH2 6486   0.302   0.779   1.675
 2182TIP3    H1 6487   0.216   0.738   1.666
 2182TIP3    H2 6488   0.360   0.726   1.620
 2183TIP3   OH2 6489   7.935   4.149   2.258
 2183TIP3    H1 6490   7.898   4.096   2.329
 2183TIP3    H2 6491   7.868   4.147   2.189
 2184TIP3   OH2 6492   0.589   3.991   2.709
 2184TIP3    H1 6493   0.604   4.070   2.759
 2184TIP3    H2 6494   0.567   3.924   2.774
 2185TIP3   OH2 6495   6.022   7.068   2.272
 2185TIP3    H1 6496   6.077   7.141   2.244
 2185TIP3    H2 6497   5.958   7.108   2.331
 2186TIP3   OH2 6498   5.077   1.719   0.816
 2186TIP3    H1 6499   5.019   1.644   0.802
 2186TIP3    H2 6500   5.165   1.682   0.810
 2187TIP3   OH2 6501   2.860   4.186   4.203
 2187TIP3    H1 6502   2.847   4.273   4.239
 2187TIP3    H2 6503   2.910   4.200   4.123
 2188TIP3   OH2 6504   2.434   1.077   5.640
 2188TIP3    H1 6505   2.441   1.015   5.713
 2188TIP3    H2 6506   2.520   1.118   5.634
 2189TIP3   OH2 6507   3.884   2.062   3.166
 2189TIP3    H1 6508   3.914   1.982   3.123
 2189TIP3    H2 6509   3.802   2.084   3.121
 2190TIP3   OH2 6510   1.756   4.597   3.853
 2190TIP3    H1 6511   1.806   4.523   3.820
 2190TIP3    H2 6512   1.668   4.563   3.866
 2191TIP3   OH2 6513   0.657   5.660   2.442
 2191TIP3    H1 6514   0.734   5.706   2.476
 2191TIP3    H2 6515   0.584   5.693   2.495
 2192TIP3   OH2 6516   4.637   0.898   3.232
 2192TIP3    H1 6517   4.608   0.986   3.209
 2192TIP3    H2 6518   4.591   0.878   3.313
 2193TIP3   OH2 6519   4.502   4.552   6.236
 2193TIP3    H1 6520   4.493   4.648   6.235
 2193TIP3    H2 6521   4.576   4.536   6.294
 2194TIP3   OH2 6522   6.725   1.490   4.772
 2194TIP3    H1 6523   6.675   1.417   4.737
 2194TIP3    H2 6524   6.814   1.476   4.740
 2195TIP3   OH2 6525   3.723   6.085   1.308
 2195TIP3    H1 6526   3.806   6.037   1.314
 2195TIP3    H2 6527   3.658   6.025   1.343
 2196TIP3   OH2 6528   4.379   2.106   4.656
 2196TIP3    H1 6529   4.434   2.181   4.634
 2196TIP3    H2 6530   4.360   2.116   4.749
 2197TIP3   OH2 6531   3.491   1.058   1.385
 2197TIP3    H1 6532   3.521   1.099   1.304
 2197TIP3    H2 6533   3.462   1.130   1.440
 2198TIP3   OH2 6534   4.002   2.712   1.723
 2198TIP3    H1 6535   3.989   2.625   1.686
 2198TIP3    H2 6536   3.919   2.733   1.765
 2199TIP3   OH2 6537   7.678   0.653   4.917
 2199TIP3    H1 6538   7.771   0.637   4.932
 2199TIP3    H2 6539   7.642   0.669   5.004
 2200TIP3   OH2 6540   2.938   6.585   4.618
 2200TIP3    H1 6541   2.916   6.529   4.543
 2200TIP3    H2 6542   2.900   6.670   4.596
 2201TIP3   OH2 6543   7.191   0.410   1.311
 2201TIP3    H1 6544   7.119   0.357   1.276
 2201TIP3    H2 6545   7.247   0.347   1.356
 2202TIP3   OH2 6546   8.105   5.789   2.319
 2202TIP3    H1 6547   8.054   5.857   2.277
 2202TIP3    H2 6548   8.182   5.778   2.263
 2203TIP3   OH2 6549   5.703   5.522   0.196
 2203TIP3    H1 6550   5.666   5.590   0.140
 2203TIP3    H2 6551   5.647   5.445   0.181
 2204TIP3   OH2 6552   6.812   6.978   5.845
 2204TIP3    H1 6553   6.721   7.008   5.840
 2204TIP3    H2 6554   6.854   7.018   5.768
 2205TIP3   OH2 6555   5.967   3.765   0.610
 2205TIP3    H1 6556   5.953   3.859   0.620
 2205TIP3    H2 6557   5.881   3.726   0.626
 2206TIP3   OH2 6558   6.106   7.357   2.707
 2206TIP3    H1 6559   6.087   7.302   2.783
 2206TIP3    H2 6560   6.148   7.297   2.645
 2207TIP3   OH2 6561   2.120   0.096   0.505
 2207TIP3    H1 6562   2.139   0.055   0.421
 2207TIP3    H2 6563   2.067   0.173   0.482
 2208TIP3   OH2 6564   0.265   3.453   4.752
 2208TIP3    H1 6565   0.280   3.538   4.793
 2208TIP3    H2 6566   0.270   3.390   4.824
 2209TIP3   OH2 6567   5.587   4.543   4.257
 2209TIP3    H1 6568   5.659   4.546   4.194
 2209TIP3    H2 6569   5.591   4.626   4.304
 2210TIP3   OH2 6570   7.874   0.588   6.117
 2210TIP3    H1 6571   7.955   0.623   6.081
 2210TIP3    H2 6572   7.810   0.593   6.045
 2211TIP3   OH2 6573   0.825   5.073   5.793
 2211TIP3    H1 6574   0.868   5.151   5.756
 2211TIP3    H2 6575   0.870   4.999   5.752
 2212TIP3   OH2 6576   3.154   2.643   5.919
 2212TIP3    H1 6577   3.171   2.730   5.882
 2212TIP3    H2 6578   3.058   2.639   5.927
 2213TIP3   OH2 6579   3.364   2.213   6.678
 2213TIP3    H1 6580   3.375   2.297   6.723
 2213TIP3    H2 6581   3.428   2.155   6.719
 2214TIP3   OH2 6582   1.999   5.941   5.331
 2214TIP3    H1 6583   1.995   5.853   5.368
 2214TIP3    H2 6584   2.091   5.954   5.311
 2215TIP3   OH2 6585   0.565   5.196   5.056
 2215TIP3    H1 6586   0.575   5.145   4.975
 2215TIP3    H2 6587   0.648   5.183   5.103
 2216TIP3   OH2 6588   4.597   2.795   1.201
 2216TIP3    H1 6589   4.529   2.728   1.204
 2216TIP3    H2 6590   4.569   2.861   1.264
 2217TIP3   OH2 6591   5.359   6.695   1.900
 2217TIP3    H1 6592   5.426   6.693   1.832
 2217TIP3    H2 6593   5.349   6.604   1.928
 2218TIP3   OH2 6594   2.521   4.736   6.455
 2218TIP3    H1 6595   2.504   4.687   6.374
 2218TIP3    H2 6596   2.616   4.746   6.457
 2219TIP3   OH2 6597   1.112   4.110   1.368
 2219TIP3    H1 6598   1.067   4.150   1.443
 2219TIP3    H2 6599   1.056   4.037   1.343
 2220TIP3   OH2 6600   7.862   7.537   3.246
 2220TIP3    H1 6601   7.803   7.587   3.190
 2220TIP3    H2 6602   7.858   7.448   3.212
 2221TIP3   OH2 6603   4.809   4.662   3.318
 2221TIP3    H1 6604   4.750   4.729   3.285
 2221TIP3    H2 6605   4.793   4.661   3.413
 2222TIP3   OH2 6606   1.326   6.541   3.407
 2222TIP3    H1 6607   1.268   6.582   3.342
 2222TIP3    H2 6608   1.408   6.591   3.400
 2223TIP3   OH2 6609   1.246   7.132   6.006
 2223TIP3    H1 6610   1.342   7.140   6.012
 2223TIP3    H2 6611   1.226   7.155   5.915
 2224TIP3   OH2 6612   1.467   5.705   0.490
 2224TIP3    H1 6613   1.516   5.721   0.410
 2224TIP3    H2 6614   1.528   5.657   0.546
 2225TIP3   OH2 6615   7.365   4.009   3.511
 2225TIP3    H1 6616   7.364   3.960   3.428
 2225TIP3    H2 6617   7.278   4.047   3.517
 2226TIP3   OH2 6618   0.507   6.566   3.350
 2226TIP3    H1 6619   0.571   6.578   3.281
 2226TIP3    H2 6620   0.430   6.530   3.306
 2227TIP3   OH2 6621   1.932   5.192   0.338
 2227TIP3    H1 6622   1.980   5.131   0.282
 2227TIP3    H2 6623   1.994   5.214   0.408
 2228TIP3   OH2 6624   5.809   1.856   0.571
 2228TIP3    H1 6625   5.774   1.767   0.582
 2228TIP3    H2 6626   5.881   1.845   0.508
 2229TIP3   OH2 6627   4.215   2.860   2.564
 2229TIP3    H1 6628   4.226   2.797   2.635
 2229TIP3    H2 6629   4.151   2.923   2.597
 2230TIP3   OH2 6630   7.943   6.011   5.342
 2230TIP3    H1 6631   7.985   6.055   5.417
 2230TIP3    H2 6632   7.931   5.921   5.372
 2231TIP3   OH2 6633   6.973   3.197   0.239
 2231TIP3    H1 6634   7.050   3.226   0.189
 2231TIP3    H2 6635   6.993   3.107   0.263
 2232TIP3   OH2 6636   6.894   1.701   1.260
 2232TIP3    H1 6637   6.810   1.675   1.224
 2232TIP3    H2 6638   6.912   1.637   1.329
 2233TIP3   OH2 6639   6.912   1.963   5.300
 2233TIP3    H1 6640   7.001   1.996   5.317
 2233TIP3    H2 6641   6.908   1.881   5.349
 2234TIP3   OH2 6642   6.874   3.694   0.711
 2234TIP3    H1 6643   6.926   3.635   0.655
 2234TIP3    H2 6644   6.786   3.692   0.673
 2235TIP3   OH2 6645   4.697   0.273   6.648
 2235TIP3    H1 6646   4.787   0.302   6.664
 2235TIP3    H2 6647   4.643   0.341   6.688
 2236TIP3   OH2 6648   3.010   7.003   2.368
 2236TIP3    H1 6649   3.069   6.974   2.437
 2236TIP3    H2 6650   2.925   7.012   2.411
 2237TIP3   OH2 6651   4.194   5.606   1.917
 2237TIP3    H1 6652   4.119   5.551   1.896
 2237TIP3    H2 6653   4.161   5.670   1.980
 2238TIP3   OH2 6654   6.642   3.881   3.064
 2238TIP3    H1 6655   6.567   3.870   3.007
 2238TIP3    H2 6656   6.676   3.968   3.043
 2239TIP3   OH2 6657   6.436   6.178   0.720
 2239TIP3    H1 6658   6.387   6.236   0.778
 2239TIP3    H2 6659   6.370   6.140   0.662
 2240TIP3   OH2 6660   2.701   3.296   4.179
 2240TIP3    H1 6661   2.781   3.349   4.173
 2240TIP3    H2 6662   2.733   3.208   4.198
 2241TIP3   OH2 6663   6.687   5.314   0.994
 2241TIP3    H1 6664   6.691   5.363   0.912
 2241TIP3    H2 6665   6.596   5.286   1.000
 2242TIP3   OH2 6666   8.020   3.053   0.141
 2242TIP3    H1 6667   8.039   2.960   0.132
 2242TIP3    H2 6668   8.046   3.074   0.230
 2243TIP3   OH2 6669   6.417   2.176   2.123
 2243TIP3    H1 6670   6.505   2.204   2.149
 2243TIP3    H2 6671   6.431   2.121   2.046
 2244TIP3   OH2 6672   1.276   1.568   3.434
 2244TIP3    H1 6673   1.362   1.608   3.442
 2244TIP3    H2 6674   1.293   1.474   3.434
 2245TIP3   OH2 6675   5.114   4.170   0.359
 2245TIP3    H1 6676   5.063   4.247   0.386
 2245TIP3    H2 6677   5.198   4.180   0.405
 2246TIP3   OH2 6678   5.543   0.340   2.438
 2246TIP3    H1 6679   5.450   0.361   2.448
 2246TIP3    H2 6680   5.563   0.285   2.513
 2247TIP3   OH2 6681   6.415   3.174   4.947
 2247TIP3    H1 6682   6.472   3.101   4.923
 2247TIP3    H2 6683   6.327   3.144   4.925
 2248TIP3   OH2 6684   6.939   0.649   2.341
 2248TIP3    H1 6685   6.851   0.611   2.347
 2248TIP3    H2 6686   6.982   0.623   2.423
 2249TIP3   OH2 6687   5.294   1.311   4.679
 2249TIP3    H1 6688   5.377   1.329   4.634
 2249TIP3    H2 6689   5.300   1.361   4.761
 2250TIP3   OH2 6690   5.399   5.746   6.746
 2250TIP3    H1 6691   5.325   5.714   6.796
 2250TIP3    H2 6692   5.475   5.728   6.801
 2251TIP3   OH2 6693   1.791   0.881   2.010
 2251TIP3    H1 6694   1.818   0.862   2.100
 2251TIP3    H2 6695   1.787   0.795   1.968
 2252TIP3   OH2 6696   2.259   2.274   0.679
 2252TIP3    H1 6697   2.321   2.343   0.653
 2252TIP3    H2 6698   2.222   2.243   0.596
 2253TIP3   OH2 6699   2.694   0.654   2.846
 2253TIP3    H1 6700   2.747   0.653   2.926
 2253TIP3    H2 6701   2.736   0.720   2.791
 2254TIP3   OH2 6702   3.035   4.110   6.617
 2254TIP3    H1 6703   3.063   4.019   6.633
 2254TIP3    H2 6704   3.055   4.156   6.699
 2255TIP3   OH2 6705   2.459   6.280   5.644
 2255TIP3    H1 6706   2.439   6.199   5.597
 2255TIP3    H2 6707   2.376   6.307   5.683
 2256TIP3   OH2 6708   0.545   0.876   2.123
 2256TIP3    H1 6709   0.464   0.882   2.072
 2256TIP3    H2 6710   0.516   0.880   2.214
 2257TIP3   OH2 6711   1.785   7.460   3.512
 2257TIP3    H1 6712   1.866   7.511   3.506
 2257TIP3    H2 6713   1.730   7.495   3.442
 2258TIP3   OH2 6714   0.889   1.431   6.282
 2258TIP3    H1 6715   0.852   1.450   6.195
 2258TIP3    H2 6716   0.981   1.413   6.265
 2259TIP3   OH2 6717   7.969   2.713   3.045
 2259TIP3    H1 6718   7.911   2.637   3.044
 2259TIP3    H2 6719   8.047   2.684   2.998
 2260TIP3   OH2 6720   7.144   7.560   1.284
 2260TIP3    H1 6721   7.065   7.507   1.275
 2260TIP3    H2 6722   7.198   7.511   1.346
 2261TIP3   OH2 6723   6.545   3.100   2.779
 2261TIP3    H1 6724   6.468   3.047   2.758
 2261TIP3    H2 6725   6.516   3.191   2.765
 2262TIP3   OH2 6726   4.636   4.895   4.805
 2262TIP3    H1 6727   4.555   4.899   4.755
 2262TIP3    H2 6728   4.683   4.820   4.769
 2263TIP3   OH2 6729   7.711   7.692   3.082
 2263TIP3    H1 6730   7.637   7.664   3.030
 2263TIP3    H2 6731   7.680   7.769   3.129
 2264TIP3   OH2 6732   5.746   1.500   5.890
 2264TIP3    H1 6733   5.730   1.405   5.893
 2264TIP3    H2 6734   5.721   1.526   5.802
 2265TIP3   OH2 6735   2.466   7.174   2.516
 2265TIP3    H1 6736   2.468   7.132   2.603
 2265TIP3    H2 6737   2.412   7.251   2.528
 2266TIP3   OH2 6738   8.319   5.097   4.491
 2266TIP3    H1 6739   8.323   5.165   4.424
 2266TIP3    H2 6740   8.279   5.139   4.566
 2267TIP3   OH2 6741   6.410   1.542   3.941
 2267TIP3    H1 6742   6.482   1.604   3.926
 2267TIP3    H2 6743   6.334   1.598   3.957
 2268TIP3   OH2 6744   7.177   6.963   1.698
 2268TIP3    H1 6745   7.270   6.948   1.685
 2268TIP3    H2 6746   7.141   6.877   1.720
 2269TIP3   OH2 6747   3.535   2.903   3.848
 2269TIP3    H1 6748   3.513   2.951   3.769
 2269TIP3    H2 6749   3.556   2.971   3.912
 2270TIP3   OH2 6750   0.886   6.507   3.318
 2270TIP3    H1 6751   0.838   6.588   3.299
 2270TIP3    H2 6752   0.934   6.488   3.238
 2271TIP3   OH2 6753   3.475   0.783   0.022
 2271TIP3    H1 6754   3.508   0.700   0.058
 2271TIP3    H2 6755   3.402   0.806   0.078
 2272TIP3   OH2 6756   7.801   5.809   1.985
 2272TIP3    H1 6757   7.895   5.808   1.999
 2272TIP3    H2 6758   7.786   5.881   1.924
 2273TIP3   OH2 6759   3.917   7.438   4.983
 2273TIP3    H1 6760   3.854   7.367   4.969
 2273TIP3    H2 6761   3.906   7.461   5.075
 2274TIP3   OH2 6762   6.788   6.467   1.767
 2274TIP3    H1 6763   6.695   6.446   1.780
 2274TIP3    H2 6764   6.811   6.521   1.843
 2275TIP3   OH2 6765   5.180   3.990   4.110
 2275TIP3    H1 6766   5.266   3.973   4.072
 2275TIP3    H2 6767   5.196   4.004   4.203
 2276TIP3   OH2 6768   3.742   6.457   3.080
 2276TIP3    H1 6769   3.731   6.409   3.163
 2276TIP3    H2 6770   3.836   6.453   3.063
 2277TIP3   OH2 6771   5.426   4.839   4.015
 2277TIP3    H1 6772   5.486   4.829   3.941
 2277TIP3    H2 6773   5.403   4.750   4.039
 2278TIP3   OH2 6774   3.729   3.482   5.729
 2278TIP3    H1 6775   3.707   3.561   5.680
 2278TIP3    H2 6776   3.802   3.507   5.786
 2279TIP3   OH2 6777   4.105   5.611   3.264
 2279TIP3    H1 6778   4.143   5.642   3.347
 2279TIP3    H2 6779   4.180   5.583   3.212
 2280TIP3   OH2 6780   5.061   2.362   3.243
 2280TIP3    H1 6781   5.110   2.413   3.308
 2280TIP3    H2 6782   5.119   2.290   3.221
 2281TIP3   OH2 6783   1.037   1.726   0.592
 2281TIP3    H1 6784   1.078   1.759   0.512
 2281TIP3    H2 6785   0.947   1.757   0.587
 2282TIP3   OH2 6786   0.264   0.489   2.578
 2282TIP3    H1 6787   0.213   0.491   2.497
 2282TIP3    H2 6788   0.296   0.579   2.589
 2283TIP3   OH2 6789   3.764   4.356  -0.023
 2283TIP3    H1 6790   3.755   4.422  -0.091
 2283TIP3    H2 6791   3.816   4.399   0.045
 2284TIP3   OH2 6792   6.128   2.130   2.198
 2284TIP3    H1 6793   6.090   2.043   2.209
 2284TIP3    H2 6794   6.222   2.115   2.187
 2285TIP3   OH2 6795   6.426   0.473   3.425
 2285TIP3    H1 6796   6.377   0.537   3.476
 2285TIP3    H2 6797   6.514   0.475   3.463
 2286TIP3   OH2 6798   1.021   1.919   5.814
 2286TIP3    H1 6799   0.970   1.966   5.748
 2286TIP3    H2 6800   0.965   1.919   5.891
 2287TIP3   OH2 6801   3.047   7.841   4.548
 2287TIP3    H1 6802   3.126   7.880   4.510
 2287TIP3    H2 6803   3.027   7.896   4.624
 2288TIP3   OH2 6804   2.145   7.126   3.033
 2288TIP3    H1 6805   2.055   7.103   3.010
 2288TIP3    H2 6806   2.137   7.165   3.121
 2289TIP3   OH2 6807   3.814   1.688   6.104
 2289TIP3    H1 6808   3.893   1.721   6.147
 2289TIP3    H2 6809   3.837   1.685   6.011
 2290TIP3   OH2 6810   2.807   3.316   3.866
 2290TIP3    H1 6811   2.717   3.306   3.895
 2290TIP3    H2 6812   2.854   3.348   3.944
 2291TIP3   OH2 6813   5.134   3.824   3.161
 2291TIP3    H1 6814   5.060   3.774   3.125
 2291TIP3    H2 6815   5.147   3.786   3.248
 2292TIP3   OH2 6816   8.395   1.031   6.185
 2292TIP3    H1 6817   8.363   1.014   6.273
 2292TIP3    H2 6818   8.317   1.035   6.131
 2293TIP3   OH2 6819   6.498   4.083   5.501
 2293TIP3    H1 6820   6.578   4.130   5.523
 2293TIP3    H2 6821   6.527   4.001   5.463
 2294TIP3   OH2 6822   6.713   2.985   3.850
 2294TIP3    H1 6823   6.663   2.939   3.917
 2294TIP3    H2 6824   6.798   2.942   3.849
 2295TIP3   OH2 6825   4.595   6.113   2.329
 2295TIP3    H1 6826   4.611   6.145   2.417
 2295TIP3    H2 6827   4.669   6.054   2.311
 2296TIP3   OH2 6828   6.982   2.283   1.307
 2296TIP3    H1 6829   7.035   2.287   1.227
 2296TIP3    H2 6830   7.041   2.243   1.372
 2297TIP3   OH2 6831   4.353   0.154   5.939
 2297TIP3    H1 6832   4.298   0.084   5.976
 2297TIP3    H2 6833   4.435   0.148   5.987
 2298TIP3   OH2 6834   8.373   7.867   4.847
 2298TIP3    H1 6835   8.281   7.893   4.850
 2298TIP3    H2 6836   8.405   7.900   4.763
 2299TIP3   OH2 6837   5.489   0.578   4.175
 2299TIP3    H1 6838   5.434   0.656   4.183
 2299TIP3    H2 6839   5.502   0.569   4.080
 2300TIP3   OH2 6840   4.733   5.193   1.130
 2300TIP3    H1 6841   4.660   5.132   1.136
 2300TIP3    H2 6842   4.760   5.188   1.038
 2301TIP3   OH2 6843   4.296   4.464   0.720
 2301TIP3    H1 6844   4.317   4.556   0.737
 2301TIP3    H2 6845   4.261   4.432   0.803
 2302TIP3   OH2 6846   4.632   0.038   5.173
 2302TIP3    H1 6847   4.649   0.048   5.079
 2302TIP3    H2 6848   4.594   0.121   5.200
 2303TIP3   OH2 6849   0.727   7.598   0.948
 2303TIP3    H1 6850   0.744   7.690   0.969
 2303TIP3    H2 6851   0.703   7.558   1.032
 2304TIP3   OH2 6852   4.062   6.509   3.761
 2304TIP3    H1 6853   4.121   6.500   3.687
 2304TIP3    H2 6854   4.064   6.602   3.782
 2305TIP3   OH2 6855   2.374   5.369   1.027
 2305TIP3    H1 6856   2.328   5.344   0.946
 2305TIP3    H2 6857   2.434   5.438   1.000
 2306TIP3   OH2 6858   7.196   3.710   5.612
 2306TIP3    H1 6859   7.235   3.707   5.525
 2306TIP3    H2 6860   7.102   3.707   5.597
 2307TIP3   OH2 6861   7.950   6.709   1.141
 2307TIP3    H1 6862   7.940   6.623   1.183
 2307TIP3    H2 6863   8.031   6.700   1.090
 2308TIP3   OH2 6864   2.653   0.811   1.519
 2308TIP3    H1 6865   2.584   0.854   1.468
 2308TIP3    H2 6866   2.630   0.718   1.517
 2309TIP3   OH2 6867   5.747   7.318   2.266
 2309TIP3    H1 6868   5.823   7.339   2.320
 2309TIP3    H2 6869   5.700   7.401   2.256
 2310TIP3   OH2 6870   4.562   2.389   1.535
 2310TIP3    H1 6871   4.598   2.300   1.528
 2310TIP3    H2 6872   4.589   2.432   1.454
 2311TIP3   OH2 6873   5.663   3.618   5.600
 2311TIP3    H1 6874   5.704   3.547   5.650
 2311TIP3    H2 6875   5.732   3.682   5.588
 2312TIP3   OH2 6876   7.330   7.484   4.145
 2312TIP3    H1 6877   7.264   7.436   4.095
 2312TIP3    H2 6878   7.291   7.497   4.231
 2313TIP3   OH2 6879   3.902   5.986   0.541
 2313TIP3    H1 6880   3.899   5.911   0.600
 2313TIP3    H2 6881   3.861   6.057   0.591
 2314TIP3   OH2 6882   5.739   5.394   1.261
 2314TIP3    H1 6883   5.679   5.345   1.318
 2314TIP3    H2 6884   5.739   5.345   1.179
 2315TIP3   OH2 6885   1.702   4.119   3.628
 2315TIP3    H1 6886   1.625   4.093   3.577
 2315TIP3    H2 6887   1.766   4.049   3.614
 2316TIP3   OH2 6888   6.114   1.655   2.989
 2316TIP3    H1 6889   6.056   1.620   3.056
 2316TIP3    H2 6890   6.078   1.624   2.906
 2317TIP3   OH2 6891   2.870   4.687   5.969
 2317TIP3    H1 6892   2.930   4.721   5.902
 2317TIP3    H2 6893   2.825   4.615   5.926
 2318TIP3   OH2 6894   6.844   4.328   0.986
 2318TIP3    H1 6895   6.805   4.241   0.991
 2318TIP3    H2 6896   6.938   4.313   0.995
 2319TIP3   OH2 6897   5.637   4.089   1.293
 2319TIP3    H1 6898   5.638   3.995   1.272
 2319TIP3    H2 6899   5.659   4.093   1.386
 2320TIP3   OH2 6900   0.959   5.391   2.379
 2320TIP3    H1 6901   0.892   5.323   2.389
 2320TIP3    H2 6902   0.923   5.452   2.315
 2321TIP3   OH2 6903   0.384   1.374   1.865
 2321TIP3    H1 6904   0.422   1.392   1.779
 2321TIP3    H2 6905   0.451   1.401   1.927
 2322TIP3   OH2 6906   4.544   1.885   6.344
 2322TIP3    H1 6907   4.608   1.815   6.360
 2322TIP3    H2 6908   4.567   1.920   6.258
 2323TIP3   OH2 6909   8.095   6.977   3.500
 2323TIP3    H1 6910   8.165   6.938   3.553
 2323TIP3    H2 6911   8.120   6.956   3.409
 2324TIP3   OH2 6912   3.022   6.973   2.910
 2324TIP3    H1 6913   2.980   7.045   2.958
 2324TIP3    H2 6914   2.954   6.939   2.852
 2325TIP3   OH2 6915   2.368   0.612   0.278
 2325TIP3    H1 6916   2.441   0.550   0.275
 2325TIP3    H2 6917   2.320   0.596   0.196
 2326TIP3   OH2 6918   1.290   5.495   5.327
 2326TIP3    H1 6919   1.205   5.497   5.284
 2326TIP3    H2 6920   1.329   5.580   5.308
 2327TIP3   OH2 6921   6.083   3.381   3.691
 2327TIP3    H1 6922   6.067   3.468   3.728
 2327TIP3    H2 6923   6.044   3.320   3.754
 2328TIP3   OH2 6924   2.069   5.875   0.143
 2328TIP3    H1 6925   2.093   5.946   0.084
 2328TIP3    H2 6926   2.133   5.806   0.124
 2329TIP3   OH2 6927   4.181   5.111   5.697
 2329TIP3    H1 6928   4.148   5.075   5.615
 2329TIP3    H2 6929   4.106   5.107   5.757
 2330TIP3   OH2 6930   7.830   2.788   4.782
 2330TIP3    H1 6931   7.782   2.727   4.838
 2330TIP3    H2 6932   7.917   2.750   4.774
 2331TIP3   OH2 6933   7.373   0.247   6.729
 2331TIP3    H1 6934   7.414   0.192   6.795
 2331TIP3    H2 6935   7.284   0.261   6.761
 2332TIP3   OH2 6936   7.980   3.701   2.476
 2332TIP3    H1 6937   8.061   3.677   2.432
 2332TIP3    H2 6938   7.917   3.716   2.405
 2333TIP3   OH2 6939   5.884   6.000   0.685
 2333TIP3    H1 6940   5.800   6.017   0.642
 2333TIP3    H2 6941   5.871   5.916   0.729
 2334TIP3   OH2 6942   6.736   1.979   3.829
 2334TIP3    H1 6943   6.742   2.073   3.815
 2334TIP3    H2 6944   6.825   1.952   3.852
 2335TIP3   OH2 6945   4.936   3.818   4.031
 2335TIP3    H1 6946   4.951   3.794   4.122
 2335TIP3    H2 6947   4.999   3.888   4.013
 2336TIP3   OH2 6948   4.774   6.875   4.018
 2336TIP3    H1 6949   4.816   6.810   4.074
 2336TIP3    H2 6950   4.729   6.824   3.951
 2337TIP3   OH2 6951   5.203   7.586   3.443
 2337TIP3    H1 6952   5.287   7.632   3.452
 2337TIP3    H2 6953   5.203   7.521   3.513
 2338TIP3   OH2 6954   8.337   0.064   4.578
 2338TIP3    H1 6955   8.266   0.065   4.514
 2338TIP3    H2 6956   8.416   0.050   4.527
 2339TIP3   OH2 6957   1.260   6.773   1.907
 2339TIP3    H1 6958   1.277   6.720   1.829
 2339TIP3    H2 6959   1.179   6.738   1.943
 2340TIP3   OH2 6960   1.804   4.405   0.492
 2340TIP3    H1 6961   1.857   4.466   0.440
 2340TIP3    H2 6962   1.861   4.329   0.506
 2341TIP3   OH2 6963   6.690   6.583   0.066
 2341TIP3    H1 6964   6.644   6.656   0.026
 2341TIP3    H2 6965   6.756   6.558   0.002
 2342TIP3   OH2 6966   4.038   3.125   5.594
 2342TIP3    H1 6967   4.082   3.047   5.561
 2342TIP3    H2 6968   3.945   3.108   5.578
 2343TIP3   OH2 6969   8.019   0.380   1.545
 2343TIP3    H1 6970   8.106   0.402   1.578
 2343TIP3    H2 6971   7.959   0.417   1.609
 2344TIP3   OH2 6972   2.793   5.217   5.263
 2344TIP3    H1 6973   2.815   5.284   5.328
 2344TIP3    H2 6974   2.877   5.181   5.237
 2345TIP3   OH2 6975   6.954   6.120   5.907
 2345TIP3    H1 6976   7.021   6.109   5.974
 2345TIP3    H2 6977   6.953   6.214   5.888
 2346TIP3   OH2 6978   3.938   0.243   5.944
 2346TIP3    H1 6979   3.851   0.238   5.904
 2346TIP3    H2 6980   3.997   0.259   5.871
 2347TIP3   OH2 6981   7.157   0.527   4.492
 2347TIP3    H1 6982   7.242   0.570   4.480
 2347TIP3    H2 6983   7.174   0.435   4.475
 2348TIP3   OH2 6984   5.073   5.659   4.794
 2348TIP3    H1 6985   5.103   5.598   4.861
 2348TIP3    H2 6986   4.990   5.622   4.763
 2349TIP3   OH2 6987   1.558   0.957   2.563
 2349TIP3    H1 6988   1.566   0.946   2.658
 2349TIP3    H2 6989   1.517   0.876   2.533
 2350TIP3   OH2 6990   8.133   1.096   4.189
 2350TIP3    H1 6991   8.153   1.004   4.207
 2350TIP3    H2 6992   8.192   1.145   4.246
 2351TIP3   OH2 6993   2.684   1.558   1.908
 2351TIP3    H1 6994   2.709   1.590   1.995
 2351TIP3    H2 6995   2.593   1.529   1.918
 2352TIP3   OH2 6996   4.146   5.014   0.961
 2352TIP3    H1 6997   4.094   5.049   0.888
 2352TIP3    H2 6998   4.171   5.092   1.011
 2353TIP3   OH2 6999   5.478   5.306   1.032
 2353TIP3    H1 7000   5.524   5.384   1.001
 2353TIP3    H2 7001   5.494   5.240   0.964
 2354TIP3   OH2 7002   5.072   0.817   3.153
 2354TIP3    H1 7003   5.086   0.755   3.081
 2354TIP3    H2 7004   5.069   0.762   3.231
 2355TIP3   OH2 7005   2.869   1.825   5.641
 2355TIP3    H1 7006   2.906   1.840   5.554
 2355TIP3    H2 7007   2.904   1.896   5.695
 2356TIP3   OH2 7008   3.420   1.272   1.560
 2356TIP3    H1 7009   3.471   1.337   1.609
 2356TIP3    H2 7010   3.399   1.316   1.478
 2357TIP3   OH2 7011   1.090   2.634   5.861
 2357TIP3    H1 7012   1.069   2.651   5.769
 2357TIP3    H2 7013   1.031   2.563   5.887
 2358TIP3   OH2 7014   3.778   7.148   5.096
 2358TIP3    H1 7015   3.714   7.203   5.141
 2358TIP3    H2 7016   3.741   7.060   5.098
 2359TIP3   OH2 7017   7.297   3.918   6.056
 2359TIP3    H1 7018   7.210   3.890   6.082
 2359TIP3    H2 7019   7.291   3.927   5.960
 2360TIP3   OH2 7020   0.913   1.695   3.497
 2360TIP3    H1 7021   0.868   1.637   3.436
 2360TIP3    H2 7022   0.938   1.638   3.570
 2361TIP3   OH2 7023   2.345   2.658   2.926
 2361TIP3    H1 7024   2.284   2.636   2.855
 2361TIP3    H2 7025   2.428   2.618   2.900
 2362TIP3   OH2 7026   3.817   0.926   3.168
 2362TIP3    H1 7027   3.782   0.909   3.080
 2362TIP3    H2 7028   3.900   0.878   3.170
 2363TIP3   OH2 7029   8.322   2.422   4.607
 2363TIP3    H1 7030   8.304   2.459   4.520
 2363TIP3    H2 7031   8.383   2.350   4.589
 2364TIP3   OH2 7032   8.106   1.614   2.430
 2364TIP3    H1 7033   8.013   1.601   2.411
 2364TIP3    H2 7034   8.138   1.671   2.361
 2365TIP3   OH2 7035   1.675   6.364   5.815
 2365TIP3    H1 7036   1.663   6.272   5.839
 2365TIP3    H2 7037   1.627   6.413   5.882
 2366TIP3   OH2 7038   1.958   4.340   3.324
 2366TIP3    H1 7039   1.961   4.256   3.369
 2366TIP3    H2 7040   2.041   4.346   3.278
 2367TIP3   OH2 7041   2.344   5.546   1.738
 2367TIP3    H1 7042   2.322   5.640   1.739
 2367TIP3    H2 7043   2.294   5.511   1.664
 2368TIP3   OH2 7044   5.214   6.935   1.665
 2368TIP3    H1 7045   5.266   6.873   1.614
 2368TIP3    H2 7046   5.137   6.953   1.611
 2369TIP3   OH2 7047   1.707   7.678   0.819
 2369TIP3    H1 7048   1.772   7.645   0.880
 2369TIP3    H2 7049   1.688   7.604   0.761
 2370TIP3   OH2 7050   5.151   4.721   1.805
 2370TIP3    H1 7051   5.216   4.651   1.807
 2370TIP3    H2 7052   5.090   4.700   1.875
 2371TIP3   OH2 7053   6.206   7.089   6.571
 2371TIP3    H1 7054   6.287   7.129   6.602
 2371TIP3    H2 7055   6.230   7.000   6.545
 2372TIP3   OH2 7056   3.030   2.625   6.245
 2372TIP3    H1 7057   3.056   2.715   6.223
 2372TIP3    H2 7058   3.089   2.600   6.317
 2373TIP3   OH2 7059   0.138   6.247   0.687
 2373TIP3    H1 7060   0.068   6.302   0.652
 2373TIP3    H2 7061   0.154   6.281   0.775
 2374TIP3   OH2 7062   4.687   0.964   2.920
 2374TIP3    H1 7063   4.772   0.978   2.961
 2374TIP3    H2 7064   4.663   1.050   2.885
 2375TIP3   OH2 7065   4.370   1.866   4.498
 2375TIP3    H1 7066   4.360   1.935   4.563
 2375TIP3    H2 7067   4.330   1.789   4.538
 2376TIP3   OH2 7068   3.277   6.941   3.938
 2376TIP3    H1 7069   3.308   6.962   4.026
 2376TIP3    H2 7070   3.217   7.013   3.916
 2377TIP3   OH2 7071   5.514   1.754   4.300
 2377TIP3    H1 7072   5.570   1.717   4.232
 2377TIP3    H2 7073   5.475   1.678   4.343
 2378TIP3   OH2 7074   6.242   5.085   6.150
 2378TIP3    H1 7075   6.159   5.132   6.145
 2378TIP3    H2 7076   6.230   5.022   6.221
 2379TIP3   OH2 7077   4.804   6.519   1.028
 2379TIP3    H1 7078   4.762   6.514   0.942
 2379TIP3    H2 7079   4.851   6.602   1.028
 2380TIP3   OH2 7080   4.699   5.383   2.558
 2380TIP3    H1 7081   4.638   5.441   2.603
 2380TIP3    H2 7082   4.674   5.386   2.466
 2381TIP3   OH2 7083   3.532   6.016   0.210
 2381TIP3    H1 7084   3.600   5.993   0.273
 2381TIP3    H2 7085   3.574   6.003   0.124
 2382TIP3   OH2 7086   5.433   4.928   2.155
 2382TIP3    H1 7087   5.397   5.016   2.161
 2382TIP3    H2 7088   5.357   4.870   2.160
 2383TIP3   OH2 7089   5.176   3.544   1.285
 2383TIP3    H1 7090   5.268   3.570   1.288
 2383TIP3    H2 7091   5.173   3.477   1.216
 2384TIP3   OH2 7092   0.101   1.140   1.292
 2384TIP3    H1 7093   0.156   1.065   1.267
 2384TIP3    H2 7094   0.022   1.101   1.329
 2385TIP3   OH2 7095   2.071   5.145   5.734
 2385TIP3    H1 7096   2.125   5.222   5.752
 2385TIP3    H2 7097   2.050   5.152   5.641
 2386TIP3   OH2 7098   1.826   5.161   5.837
 2386TIP3    H1 7099   1.829   5.257   5.844
 2386TIP3    H2 7100   1.914   5.136   5.809
 2387TIP3   OH2 7101   5.353   5.344   1.256
 2387TIP3    H1 7102   5.400   5.332   1.174
 2387TIP3    H2 7103   5.411   5.306   1.322
 2388TIP3   OH2 7104   2.179   4.646   1.903
 2388TIP3    H1 7105   2.103   4.695   1.935
 2388TIP3    H2 7106   2.144   4.589   1.834
 2389TIP3   OH2 7107   4.691   6.462   0.205
 2389TIP3    H1 7108   4.606   6.455   0.160
 2389TIP3    H2 7109   4.756   6.446   0.137
 2390TIP3   OH2 7110   1.139   2.045   4.795
 2390TIP3    H1 7111   1.182   2.081   4.873
 2390TIP3    H2 7112   1.188   1.965   4.775
 2391TIP3   OH2 7113   6.801   2.839   0.075
 2391TIP3    H1 7114   6.845   2.760   0.043
 2391TIP3    H2 7115   6.865   2.908   0.064
 2392TIP3   OH2 7116   7.593   1.084   5.398
 2392TIP3    H1 7117   7.560   0.994   5.404
 2392TIP3    H2 7118   7.684   1.074   5.371
 2393TIP3   OH2 7119   7.242   1.385   5.520
 2393TIP3    H1 7120   7.280   1.431   5.595
 2393TIP3    H2 7121   7.314   1.379   5.457
 2394TIP3   OH2 7122   6.133   7.830   3.424
 2394TIP3    H1 7123   6.197   7.873   3.368
 2394TIP3    H2 7124   6.165   7.740   3.432
 2395TIP3   OH2 7125   6.746   7.639   6.320
 2395TIP3    H1 7126   6.728   7.557   6.275
 2395TIP3    H2 7127   6.840   7.637   6.339
 2396TIP3   OH2 7128   3.604   1.984   1.805
 2396TIP3    H1 7129   3.640   1.898   1.782
 2396TIP3    H2 7130   3.641   2.043   1.739
 2397TIP3   OH2 7131   5.567   3.139   6.424
 2397TIP3    H1 7132   5.524   3.055   6.439
 2397TIP3    H2 7133   5.647   3.117   6.376
 2398TIP3   OH2 7134   2.889   0.110   6.156
 2398TIP3    H1 7135   2.853   0.194   6.183
 2398TIP3    H2 7136   2.816   0.048   6.164
 2399TIP3   OH2 7137   5.437   6.885   5.987
 2399TIP3    H1 7138   5.355   6.919   6.024
 2399TIP3    H2 7139   5.436   6.792   6.009
 2400TIP3   OH2 7140   4.675   6.195   4.279
 2400TIP3    H1 7141   4.712   6.253   4.345
 2400TIP3    H2 7142   4.751   6.153   4.238
 2401TIP3   OH2 7143   7.023   6.263   2.882
 2401TIP3    H1 7144   6.931   6.237   2.894
 2401TIP3    H2 7145   7.041   6.320   2.957
 2402TIP3   OH2 7146   3.467   2.737   2.515
 2402TIP3    H1 7147   3.404   2.806   2.538
 2402TIP3    H2 7148   3.553   2.780   2.521
 2403TIP3   OH2 7149   0.805   1.906   0.606
 2403TIP3    H1 7150   0.803   1.970   0.535
 2403TIP3    H2 7151   0.747   1.836   0.577
 2404TIP3   OH2 7152   3.671   0.913   2.441
 2404TIP3    H1 7153   3.727   0.957   2.376
 2404TIP3    H2 7154   3.582   0.926   2.409
 2405TIP3   OH2 7155   7.438   0.149   5.048
 2405TIP3    H1 7156   7.358   0.104   5.078
 2405TIP3    H2 7157   7.494   0.079   5.016
 2406TIP3   OH2 7158   0.814   3.442   3.784
 2406TIP3    H1 7159   0.875   3.511   3.758
 2406TIP3    H2 7160   0.871   3.368   3.808
 2407TIP3   OH2 7161   7.821   0.446   5.291
 2407TIP3    H1 7162   7.913   0.433   5.269
 2407TIP3    H2 7163   7.773   0.404   5.220
 2408TIP3   OH2 7164   1.107   4.695   2.878
 2408TIP3    H1 7165   1.158   4.623   2.915
 2408TIP3    H2 7166   1.171   4.764   2.860
 2409TIP3   OH2 7167   3.296   7.459   3.956
 2409TIP3    H1 7168   3.331   7.536   4.002
 2409TIP3    H2 7169   3.362   7.439   3.890
 2410TIP3   OH2 7170   6.576   2.995   4.621
 2410TIP3    H1 7171   6.503   2.960   4.570
 2410TIP3    H2 7172   6.584   3.086   4.593
 2411TIP3   OH2 7173   5.854   6.973   1.345
 2411TIP3    H1 7174   5.808   7.004   1.268
 2411TIP3    H2 7175   5.947   6.982   1.323
 2412TIP3   OH2 7176   8.227   3.496   0.454
 2412TIP3    H1 7177   8.156   3.489   0.390
 2412TIP3    H2 7178   8.185   3.527   0.534
 2413TIP3   OH2 7179   4.224   0.172   2.962
 2413TIP3    H1 7180   4.160   0.113   2.923
 2413TIP3    H2 7181   4.262   0.123   3.035
 2414TIP3   OH2 7182   0.673   6.309   2.555
 2414TIP3    H1 7183   0.760   6.281   2.525
 2414TIP3    H2 7184   0.637   6.357   2.481
 2415TIP3   OH2 7185   3.425   6.992   5.788
 2415TIP3    H1 7186   3.407   6.909   5.745
 2415TIP3    H2 7187   3.482   7.039   5.727
 2416TIP3   OH2 7188   2.039   6.324   3.040
 2416TIP3    H1 7189   2.027   6.283   2.955
 2416TIP3    H2 7190   1.995   6.409   3.032
 2417TIP3   OH2 7191   5.206   0.671   0.241
 2417TIP3    H1 7192   5.249   0.711   0.165
 2417TIP3    H2 7193   5.206   0.577   0.223
 2418TIP3   OH2 7194   3.605   5.057   4.835
 2418TIP3    H1 7195   3.678   4.996   4.835
 2418TIP3    H2 7196   3.554   5.035   4.757
 2419TIP3   OH2 7197   4.100   3.525   5.724
 2419TIP3    H1 7198   4.039   3.557   5.791
 2419TIP3    H2 7199   4.045   3.503   5.649
 2420TIP3   OH2 7200   3.121   6.348   3.363
 2420TIP3    H1 7201   3.169   6.429   3.383
 2420TIP3    H2 7202   3.034   6.378   3.336
 2421TIP3   OH2 7203   2.248   6.329   6.746
 2421TIP3    H1 7204   2.247   6.417   6.784
 2421TIP3    H2 7205   2.194   6.277   6.806
 2422TIP3   OH2 7206   5.146   5.847   2.002
 2422TIP3    H1 7207   5.117   5.758   2.022
 2422TIP3    H2 7208   5.241   5.840   1.997
 2423TIP3   OH2 7209   6.471   6.116   3.434
 2423TIP3    H1 7210   6.564   6.099   3.449
 2423TIP3    H2 7211   6.460   6.209   3.455
 2424TIP3   OH2 7212   7.035   1.923   6.624
 2424TIP3    H1 7213   6.947   1.892   6.647
 2424TIP3    H2 7214   7.093   1.849   6.644
 2425TIP3   OH2 7215   1.852   7.825   1.203
 2425TIP3    H1 7216   1.757   7.820   1.201
 2425TIP3    H2 7217   1.870   7.916   1.229
 2426TIP3   OH2 7218   6.621   2.228   5.561
 2426TIP3    H1 7219   6.621   2.132   5.555
 2426TIP3    H2 7220   6.568   2.257   5.487
 2427TIP3   OH2 7221   2.555   1.502   6.426
 2427TIP3    H1 7222   2.620   1.461   6.368
 2427TIP3    H2 7223   2.484   1.528   6.368
 2428TIP3   OH2 7224   6.088   4.207   2.039
 2428TIP3    H1 7225   6.048   4.210   1.952
 2428TIP3    H2 7226   6.177   4.241   2.026
 2429TIP3   OH2 7227   0.359   0.198   4.912
 2429TIP3    H1 7228   0.332   0.271   4.967
 2429TIP3    H2 7229   0.278   0.170   4.869
 2430TIP3   OH2 7230   1.666   7.293   1.063
 2430TIP3    H1 7231   1.748   7.292   1.113
 2430TIP3    H2 7232   1.644   7.386   1.053
 2431TIP3   OH2 7233   7.928   7.214   0.287
 2431TIP3    H1 7234   7.885   7.276   0.346
 2431TIP3    H2 7235   7.859   7.154   0.259
 2432TIP3   OH2 7236   4.646   3.600   4.278
 2432TIP3    H1 7237   4.581   3.542   4.239
 2432TIP3    H2 7238   4.730   3.558   4.262
 2433TIP3   OH2 7239   0.860   2.380   0.270
 2433TIP3    H1 7240   0.820   2.382   0.183
 2433TIP3    H2 7241   0.920   2.454   0.271
 2434TIP3   OH2 7242   3.368   1.809   6.737
 2434TIP3    H1 7243   3.321   1.807   6.654
 2434TIP3    H2 7244   3.430   1.736   6.731
 2435TIP3   OH2 7245   1.251   5.834   4.454
 2435TIP3    H1 7246   1.178   5.816   4.512
 2435TIP3    H2 7247   1.284   5.748   4.428
 2436TIP3   OH2 7248   0.422   1.046   3.210
 2436TIP3    H1 7249   0.402   0.952   3.203
 2436TIP3    H2 7250   0.337   1.088   3.214
 2437TIP3   OH2 7251   1.650   0.843   3.592
 2437TIP3    H1 7252   1.654   0.782   3.666
 2437TIP3    H2 7253   1.562   0.881   3.596
 2438TIP3   OH2 7254   6.000   4.449   2.845
 2438TIP3    H1 7255   6.087   4.435   2.808
 2438TIP3    H2 7256   5.945   4.470   2.770
 2439TIP3   OH2 7257   6.920   1.799   0.329
 2439TIP3    H1 7258   6.912   1.892   0.348
 2439TIP3    H2 7259   6.984   1.794   0.258
 2440TIP3   OH2 7260   8.416   1.605   6.191
 2440TIP3    H1 7261   8.494   1.576   6.237
 2440TIP3    H2 7262   8.384   1.526   6.146
 2441TIP3   OH2 7263   0.976   5.414   1.012
 2441TIP3    H1 7264   0.908   5.472   1.047
 2441TIP3    H2 7265   0.952   5.402   0.921
 2442TIP3   OH2 7266   3.255   2.586   3.510
 2442TIP3    H1 7267   3.164   2.613   3.507
 2442TIP3    H2 7268   3.285   2.593   3.419
 2443TIP3   OH2 7269   5.741   1.309   3.201
 2443TIP3    H1 7270   5.646   1.307   3.214
 2443TIP3    H2 7271   5.777   1.260   3.275
 2444TIP3   OH2 7272   4.183   1.190   3.379
 2444TIP3    H1 7273   4.211   1.237   3.457
 2444TIP3    H2 7274   4.094   1.222   3.362
 2445TIP3   OH2 7275   7.020   5.354   6.310
 2445TIP3    H1 7276   6.959   5.300   6.359
 2445TIP3    H2 7277   6.967   5.395   6.241
 2446TIP3   OH2 7278   3.168   4.939   5.024
 2446TIP3    H1 7279   3.114   5.010   5.058
 2446TIP3    H2 7280   3.108   4.886   4.972
 2447TIP3   OH2 7281   3.371   5.566   4.606
 2447TIP3    H1 7282   3.380   5.472   4.595
 2447TIP3    H2 7283   3.306   5.576   4.676
 2448TIP3   OH2 7284   5.017   4.633   2.031
 2448TIP3    H1 7285   5.056   4.655   2.116
 2448TIP3    H2 7286   4.925   4.614   2.051
 2449TIP3   OH2 7287   7.303   5.321   3.656
 2449TIP3    H1 7288   7.283   5.415   3.665
 2449TIP3    H2 7289   7.280   5.301   3.565
 2450TIP3   OH2 7290   3.956   2.369   0.769
 2450TIP3    H1 7291   3.889   2.409   0.714
 2450TIP3    H2 7292   3.981   2.289   0.723
 2451TIP3   OH2 7293   4.715   3.715   3.210
 2451TIP3    H1 7294   4.789   3.661   3.183
 2451TIP3    H2 7295   4.711   3.784   3.144
 2452TIP3   OH2 7296   5.687   3.598   2.016
 2452TIP3    H1 7297   5.620   3.559   2.073
 2452TIP3    H2 7298   5.683   3.691   2.037
 2453TIP3   OH2 7299   8.262   4.872   1.333
 2453TIP3    H1 7300   8.300   4.810   1.270
 2453TIP3    H2 7301   8.323   4.945   1.335
 2454TIP3   OH2 7302   5.952   7.889   0.564
 2454TIP3    H1 7303   5.975   7.796   0.560
 2454TIP3    H2 7304   5.875   7.892   0.621
 2455TIP3   OH2 7305   0.121   1.018   4.776
 2455TIP3    H1 7306   0.171   1.083   4.726
 2455TIP3    H2 7307   0.077   1.070   4.844
 2456TIP3   OH2 7308   2.433   7.056   4.922
 2456TIP3    H1 7309   2.493   7.070   4.849
 2456TIP3    H2 7310   2.455   6.969   4.955
 2457TIP3   OH2 7311   2.169   2.950   1.604
 2457TIP3    H1 7312   2.147   2.946   1.511
 2457TIP3    H2 7313   2.093   2.910   1.647
 2458TIP3   OH2 7314   4.375   6.677   2.697
 2458TIP3    H1 7315   4.389   6.585   2.718
 2458TIP3    H2 7316   4.440   6.697   2.630
 2459TIP3   OH2 7317   2.355   1.564   1.168
 2459TIP3    H1 7318   2.322   1.651   1.146
 2459TIP3    H2 7319   2.283   1.505   1.147
 2460TIP3   OH2 7320   1.859   3.045   6.301
 2460TIP3    H1 7321   1.808   3.123   6.277
 2460TIP3    H2 7322   1.817   3.014   6.381
 2461TIP3   OH2 7323   6.403   4.108   0.125
 2461TIP3    H1 7324   6.453   4.037   0.164
 2461TIP3    H2 7325   6.459   4.141   0.055
 2462TIP3   OH2 7326   5.898   5.599   1.245
 2462TIP3    H1 7327   5.841   5.523   1.256
 2462TIP3    H2 7328   5.838   5.671   1.225
 2463TIP3   OH2 7329   6.397   0.490   5.527
 2463TIP3    H1 7330   6.384   0.520   5.617
 2463TIP3    H2 7331   6.414   0.570   5.477
 2464TIP3   OH2 7332   0.307   5.912   5.043
 2464TIP3    H1 7333   0.291   5.983   4.980
 2464TIP3    H2 7334   0.401   5.893   5.034
 2465TIP3   OH2 7335   6.498   5.139   2.843
 2465TIP3    H1 7336   6.569   5.105   2.898
 2465TIP3    H2 7337   6.419   5.126   2.895
 2466TIP3   OH2 7338   7.810   2.340   0.938
 2466TIP3    H1 7339   7.893   2.338   0.987
 2466TIP3    H2 7340   7.816   2.266   0.878
 2467TIP3   OH2 7341   5.878   3.291   1.804
 2467TIP3    H1 7342   5.826   3.230   1.856
 2467TIP3    H2 7343   5.834   3.375   1.815
 2468TIP3   OH2 7344   5.040   5.296   4.752
 2468TIP3    H1 7345   5.134   5.287   4.741
 2468TIP3    H2 7346   5.005   5.297   4.663
 2469TIP3   OH2 7347   5.705   3.840   0.899
 2469TIP3    H1 7348   5.729   3.927   0.930
 2469TIP3    H2 7349   5.756   3.780   0.954
 2470TIP3   OH2 7350   2.747   3.744   1.579
 2470TIP3    H1 7351   2.683   3.680   1.608
 2470TIP3    H2 7352   2.783   3.708   1.499
 2471TIP3   OH2 7353   6.458   4.835   6.192
 2471TIP3    H1 7354   6.485   4.868   6.107
 2471TIP3    H2 7355   6.379   4.785   6.174
 2472TIP3   OH2 7356   7.471   2.155   3.089
 2472TIP3    H1 7357   7.468   2.061   3.073
 2472TIP3    H2 7358   7.559   2.171   3.125
 2473TIP3   OH2 7359   5.802   5.122   0.452
 2473TIP3    H1 7360   5.855   5.138   0.374
 2473TIP3    H2 7361   5.828   5.034   0.480
 2474TIP3   OH2 7362   3.902   6.825   1.682
 2474TIP3    H1 7363   3.861   6.807   1.767
 2474TIP3    H2 7364   3.980   6.769   1.681
 2475TIP3   OH2 7365   3.391   4.949   1.388
 2475TIP3    H1 7366   3.351   5.036   1.379
 2475TIP3    H2 7367   3.325   4.889   1.355
 2476TIP3   OH2 7368   7.232   1.530   4.243
 2476TIP3    H1 7369   7.247   1.444   4.203
 2476TIP3    H2 7370   7.318   1.572   4.242
 2477TIP3   OH2 7371   2.641   2.509   5.980
 2477TIP3    H1 7372   2.614   2.504   6.071
 2477TIP3    H2 7373   2.570   2.556   5.937
 2478TIP3   OH2 7374   0.630   2.311   6.789
 2478TIP3    H1 7375   0.684   2.341   6.862
 2478TIP3    H2 7376   0.663   2.223   6.770
 2479TIP3   OH2 7377   6.289   1.496   4.219
 2479TIP3    H1 7378   6.343   1.438   4.165
 2479TIP3    H2 7379   6.251   1.439   4.285
 2480TIP3   OH2 7380   5.360   3.189   3.410
 2480TIP3    H1 7381   5.434   3.129   3.409
 2480TIP3    H2 7382   5.287   3.137   3.378
 2481TIP3   OH2 7383   6.849   6.666   6.838
 2481TIP3    H1 7384   6.900   6.600   6.791
 2481TIP3    H2 7385   6.770   6.678   6.786
 2482TIP3   OH2 7386   1.172   7.161   2.560
 2482TIP3    H1 7387   1.133   7.086   2.605
 2482TIP3    H2 7388   1.144   7.151   2.469
 2483TIP3   OH2 7389   7.748   3.448   6.629
 2483TIP3    H1 7390   7.680   3.515   6.621
 2483TIP3    H2 7391   7.735   3.391   6.553
 2484TIP3   OH2 7392   7.100   5.193   2.704
 2484TIP3    H1 7393   7.144   5.128   2.648
 2484TIP3    H2 7394   7.108   5.275   2.655
 2485TIP3   OH2 7395   7.390   3.922   0.790
 2485TIP3    H1 7396   7.331   3.996   0.795
 2485TIP3    H2 7397   7.342   3.856   0.739
 2486TIP3   OH2 7398   1.450   6.494   1.086
 2486TIP3    H1 7399   1.530   6.505   1.137
 2486TIP3    H2 7400   1.479   6.458   1.002
 2487TIP3   OH2 7401   4.855   3.748   3.678
 2487TIP3    H1 7402   4.808   3.731   3.596
 2487TIP3    H2 7403   4.939   3.783   3.651
 2488TIP3   OH2 7404   3.818   6.957   2.515
 2488TIP3    H1 7405   3.853   7.028   2.570
 2488TIP3    H2 7406   3.896   6.920   2.473
 2489TIP3   OH2 7407   1.562   6.640   1.884
 2489TIP3    H1 7408   1.552   6.734   1.873
 2489TIP3    H2 7409   1.522   6.621   1.969
 2490TIP3   OH2 7410   4.300   7.674   6.414
 2490TIP3    H1 7411   4.380   7.645   6.372
 2490TIP3    H2 7412   4.234   7.676   6.344
 2491TIP3   OH2 7413   7.926   0.692   3.612
 2491TIP3    H1 7414   7.927   0.712   3.705
 2491TIP3    H2 7415   7.905   0.776   3.570
 2492TIP3   OH2 7416   8.303   1.951   4.542
 2492TIP3    H1 7417   8.237   1.949   4.473
 2492TIP3    H2 7418   8.384   1.975   4.497
 2493TIP3   OH2 7419   4.477   1.832   6.003
 2493TIP3    H1 7420   4.559   1.787   5.982
 2493TIP3    H2 7421   4.504   1.913   6.047
 2494TIP3   OH2 7422   7.654   6.789   1.705
 2494TIP3    H1 7423   7.717   6.767   1.774
 2494TIP3    H2 7424   7.709   6.802   1.628
 2495TIP3   OH2 7425   3.913   3.649   5.902
 2495TIP3    H1 7426   3.891   3.742   5.910
 2495TIP3    H2 7427   3.887   3.611   5.985
 2496TIP3   OH2 7428   0.695   0.601   0.803
 2496TIP3    H1 7429   0.663   0.519   0.766
 2496TIP3    H2 7430   0.641   0.616   0.881
 2497TIP3   OH2 7431   6.104   6.406   4.916
 2497TIP3    H1 7432   6.177   6.432   4.861
 2497TIP3    H2 7433   6.069   6.327   4.874
 2498TIP3   OH2 7434   2.923   5.941   6.698
 2498TIP3    H1 7435   2.843   5.981   6.731
 2498TIP3    H2 7436   2.983   5.942   6.772
 2499TIP3   OH2 7437   4.602   2.231   0.499
 2499TIP3    H1 7438   4.653   2.152   0.482
 2499TIP3    H2 7439   4.541   2.205   0.568
 2500TIP3   OH2 7440   4.808   7.132   1.595
 2500TIP3    H1 7441   4.850   7.192   1.657
 2500TIP3    H2 7442   4.880   7.092   1.546
 2501TIP3   OH2 7443   3.184   0.620   3.673
 2501TIP3    H1 7444   3.156   0.566   3.747
 2501TIP3    H2 7445   3.238   0.562   3.620
 2502TIP3   OH2 7446   8.307   6.387   5.571
 2502TIP3    H1 7447   8.294   6.349   5.483
 2502TIP3    H2 7448   8.363   6.324   5.616
 2503TIP3   OH2 7449   7.537   5.034   2.483
 2503TIP3    H1 7450   7.551   4.970   2.413
 2503TIP3    H2 7451   7.608   5.017   2.545
 2504TIP3   OH2 7452   2.426   2.976   6.550
 2504TIP3    H1 7453   2.430   2.983   6.646
 2504TIP3    H2 7454   2.377   2.895   6.535
 2505TIP3   OH2 7455   1.843   0.692   5.105
 2505TIP3    H1 7456   1.859   0.784   5.083
 2505TIP3    H2 7457   1.748   0.686   5.114
 2506TIP3   OH2 7458   8.302   7.410   3.485
 2506TIP3    H1 7459   8.297   7.401   3.390
 2506TIP3    H2 7460   8.217   7.447   3.510
 2507TIP3   OH2 7461   5.560   4.116   0.807
 2507TIP3    H1 7462   5.533   4.024   0.811
 2507TIP3    H2 7463   5.559   4.145   0.898
 2508TIP3   OH2 7464   4.500   3.829   5.688
 2508TIP3    H1 7465   4.426   3.787   5.645
 2508TIP3    H2 7466   4.574   3.770   5.672
 2509TIP3   OH2 7467   3.521   6.100   2.692
 2509TIP3    H1 7468   3.607   6.136   2.713
 2509TIP3    H2 7469   3.461   6.175   2.700
 2510TIP3   OH2 7470   5.484   5.493   4.238
 2510TIP3    H1 7471   5.559   5.541   4.274
 2510TIP3    H2 7472   5.414   5.508   4.301
 2511TIP3   OH2 7473   7.125   3.794   0.263
 2511TIP3    H1 7474   7.139   3.705   0.297
 2511TIP3    H2 7475   7.182   3.800   0.187
 2512TIP3   OH2 7476   0.560   1.291   4.082
 2512TIP3    H1 7477   0.578   1.368   4.137
 2512TIP3    H2 7478   0.606   1.219   4.126
 2513TIP3   OH2 7479   0.154   3.816   0.101
 2513TIP3    H1 7480   0.169   3.780   0.188
 2513TIP3    H2 7481   0.148   3.739   0.044
 2514TIP3   OH2 7482   7.146   2.570   3.695
 2514TIP3    H1 7483   7.138   2.483   3.658
 2514TIP3    H2 7484   7.104   2.628   3.632
 2515TIP3   OH2 7485   4.917   3.300   0.701
 2515TIP3    H1 7486   4.871   3.358   0.641
 2515TIP3    H2 7487   4.997   3.277   0.656
 2516TIP3   OH2 7488   5.483   7.780   5.279
 2516TIP3    H1 7489   5.531   7.730   5.345
 2516TIP3    H2 7490   5.402   7.730   5.266
 2517TIP3   OH2 7491   1.833   6.731   3.856
 2517TIP3    H1 7492   1.896   6.693   3.916
 2517TIP3    H2 7493   1.778   6.786   3.911
 2518TIP3   OH2 7494   6.623   2.776   5.964
 2518TIP3    H1 7495   6.712   2.760   5.997
 2518TIP3    H2 7496   6.569   2.709   6.006
 2519TIP3   OH2 7497   0.060   1.864   1.710
 2519TIP3    H1 7498  -0.022   1.816   1.699
 2519TIP3    H2 7499   0.050   1.910   1.794
 2520TIP3   OH2 7500   2.625   5.485   2.674
 2520TIP3    H1 7501   2.638   5.406   2.726
 2520TIP3    H2 7502   2.638   5.457   2.584
 2521TIP3   OH2 7503   0.146   5.148   4.874
 2521TIP3    H1 7504   0.201   5.198   4.933
 2521TIP3    H2 7505   0.153   5.194   4.790
 2522TIP3   OH2 7506   2.759   3.429   5.325
 2522TIP3    H1 7507   2.772   3.396   5.237
 2522TIP3    H2 7508   2.682   3.486   5.319
 2523TIP3   OH2 7509   3.045   6.698   2.620
 2523TIP3    H1 7510   2.962   6.719   2.663
 2523TIP3    H2 7511   3.020   6.676   2.530
 2524TIP3   OH2 7512   1.421   1.503   0.430
 2524TIP3    H1 7513   1.338   1.471   0.468
 2524TIP3    H2 7514   1.483   1.496   0.502
 2525TIP3   OH2 7515   4.556   4.144   5.029
 2525TIP3    H1 7516   4.535   4.140   4.936
 2525TIP3    H2 7517   4.555   4.237   5.050
 2526TIP3   OH2 7518   4.749   3.388   2.447
 2526TIP3    H1 7519   4.680   3.322   2.452
 2526TIP3    H2 7520   4.806   3.358   2.376
 2527TIP3   OH2 7521   7.746   0.710   2.324
 2527TIP3    H1 7522   7.691   0.766   2.378
 2527TIP3    H2 7523   7.738   0.623   2.364
 2528TIP3   OH2 7524   1.348   6.121   2.822
 2528TIP3    H1 7525   1.382   6.041   2.782
 2528TIP3    H2 7526   1.415   6.188   2.802
 2529TIP3   OH2 7527   4.574   6.248   3.975
 2529TIP3    H1 7528   4.518   6.195   4.032
 2529TIP3    H2 7529   4.513   6.297   3.921
 2530TIP3   OH2 7530   0.938   4.344   1.485
 2530TIP3    H1 7531   0.988   4.355   1.566
 2530TIP3    H2 7532   0.859   4.396   1.498
 2531TIP3   OH2 7533   3.436   5.489   3.586
 2531TIP3    H1 7534   3.410   5.579   3.605
 2531TIP3    H2 7535   3.530   5.494   3.568
 2532TIP3   OH2 7536   0.809   6.774   4.069
 2532TIP3    H1 7537   0.821   6.867   4.052
 2532TIP3    H2 7538   0.849   6.729   3.994
 2533TIP3   OH2 7539   0.809   2.416   3.641
 2533TIP3    H1 7540   0.776   2.414   3.551
 2533TIP3    H2 7541   0.882   2.354   3.642
 2534TIP3   OH2 7542   4.351   5.924   2.684
 2534TIP3    H1 7543   4.348   5.908   2.590
 2534TIP3    H2 7544   4.265   5.898   2.716
 2535TIP3   OH2 7545   0.693   6.097   5.808
 2535TIP3    H1 7546   0.618   6.147   5.774
 2535TIP3    H2 7547   0.735   6.157   5.870
 2536TIP3   OH2 7548   7.267   0.896   2.119
 2536TIP3    H1 7549   7.179   0.901   2.084
 2536TIP3    H2 7550   7.311   0.975   2.087
 2537TIP3   OH2 7551   4.639   6.783   6.756
 2537TIP3    H1 7552   4.579   6.854   6.778
 2537TIP3    H2 7553   4.614   6.710   6.813
 2538TIP3   OH2 7554   2.350   0.158   0.865
 2538TIP3    H1 7555   2.329   0.122   0.779
 2538TIP3    H2 7556   2.401   0.237   0.845
 2539TIP3   OH2 7557   5.556   0.634   4.602
 2539TIP3    H1 7558   5.626   0.675   4.551
 2539TIP3    H2 7559   5.597   0.613   4.686
 2540TIP3   OH2 7560   0.122   1.743   1.280
 2540TIP3    H1 7561   0.145   1.744   1.373
 2540TIP3    H2 7562   0.037   1.700   1.277
 2541TIP3   OH2 7563   3.662   4.613   0.689
 2541TIP3    H1 7564   3.640   4.687   0.747
 2541TIP3    H2 7565   3.583   4.601   0.636
 2542TIP3   OH2 7566   0.472   0.757   3.364
 2542TIP3    H1 7567   0.435   0.794   3.445
 2542TIP3    H2 7568   0.560   0.729   3.389
 2543TIP3   OH2 7569   7.661   1.075   3.872
 2543TIP3    H1 7570   7.648   1.017   3.947
 2543TIP3    H2 7571   7.612   1.034   3.801
 2544TIP3   OH2 7572   5.160   4.589   0.839
 2544TIP3    H1 7573   5.098   4.527   0.800
 2544TIP3    H2 7574   5.242   4.540   0.848
 2545TIP3   OH2 7575   1.056   1.579   2.533
 2545TIP3    H1 7576   0.992   1.626   2.585
 2545TIP3    H2 7577   1.025   1.588   2.443
 2546TIP3   OH2 7578   5.777   2.189   2.044
 2546TIP3    H1 7579   5.751   2.100   2.018
 2546TIP3    H2 7580   5.864   2.200   2.006
 2547TIP3   OH2 7581   2.853   0.734   4.998
 2547TIP3    H1 7582   2.921   0.727   4.931
 2547TIP3    H2 7583   2.900   0.735   5.081
 2548TIP3   OH2 7584   5.368   1.800   6.006
 2548TIP3    H1 7585   5.434   1.741   6.042
 2548TIP3    H2 7586   5.351   1.766   5.918
 2549TIP3   OH2 7587   6.927   0.728   1.418
 2549TIP3    H1 7588   6.836   0.749   1.398
 2549TIP3    H2 7589   6.929   0.632   1.418
 2550TIP3   OH2 7590   3.470   0.888   3.135
 2550TIP3    H1 7591   3.497   0.966   3.086
 2550TIP3    H2 7592   3.422   0.923   3.210
 2551TIP3   OH2 7593   3.468   5.444   5.931
 2551TIP3    H1 7594   3.409   5.442   6.006
 2551TIP3    H2 7595   3.463   5.534   5.898
 2552TIP3   OH2 7596   1.135   4.470   1.938
 2552TIP3    H1 7597   1.154   4.563   1.952
 2552TIP3    H2 7598   1.069   4.449   2.004
 2553TIP3   OH2 7599   3.150   4.518   5.697
 2553TIP3    H1 7600   3.203   4.597   5.711
 2553TIP3    H2 7601   3.060   4.548   5.704
 2554TIP3   OH2 7602   7.362   5.781   3.151
 2554TIP3    H1 7603   7.442   5.832   3.139
 2554TIP3    H2 7604   7.348   5.780   3.246
 2555TIP3   OH2 7605   1.735   5.997   1.260
 2555TIP3    H1 7606   1.685   6.071   1.227
 2555TIP3    H2 7607   1.686   5.920   1.232
 2556TIP3   OH2 7608   1.911   4.328   6.110
 2556TIP3    H1 7609   1.924   4.266   6.038
 2556TIP3    H2 7610   1.967   4.402   6.088
 2557TIP3   OH2 7611   0.144   3.242   6.152
 2557TIP3    H1 7612   0.062   3.244   6.200
 2557TIP3    H2 7613   0.175   3.152   6.162
 2558TIP3   OH2 7614   2.868   3.349   2.498
 2558TIP3    H1 7615   2.923   3.392   2.563
 2558TIP3    H2 7616   2.811   3.418   2.465
 2559TIP3   OH2 7617   8.042   3.746   0.027
 2559TIP3    H1 7618   8.084   3.831   0.012
 2559TIP3    H2 7619   8.014   3.750   0.118
 2560TIP3   OH2 7620   6.905   3.187   6.733
 2560TIP3    H1 7621   6.946   3.152   6.654
 2560TIP3    H2 7622   6.857   3.264   6.703
 2561TIP3   OH2 7623   6.168   2.275   4.998
 2561TIP3    H1 7624   6.217   2.257   5.078
 2561TIP3    H2 7625   6.161   2.190   4.955
 2562TIP3   OH2 7626   2.902   1.759   1.299
 2562TIP3    H1 7627   2.888   1.683   1.356
 2562TIP3    H2 7628   2.814   1.791   1.280
 2563TIP3   OH2 7629   3.618   3.407   2.069
 2563TIP3    H1 7630   3.531   3.373   2.089
 2563TIP3    H2 7631   3.605   3.501   2.053
 2564TIP3   OH2 7632   0.765   0.036   1.029
 2564TIP3    H1 7633   0.765   0.130   1.011
 2564TIP3    H2 7634   0.756  -0.005   0.943
 2565TIP3   OH2 7635   3.693   3.045   4.414
 2565TIP3    H1 7636   3.630   3.073   4.481
 2565TIP3    H2 7637   3.719   3.126   4.370
 2566TIP3   OH2 7638   6.562   3.690   3.673
 2566TIP3    H1 7639   6.586   3.597   3.673
 2566TIP3    H2 7640   6.577   3.719   3.583
 2567TIP3   OH2 7641   3.951   4.309   4.862
 2567TIP3    H1 7642   3.885   4.279   4.799
 2567TIP3    H2 7643   3.913   4.288   4.948
 2568TIP3   OH2 7644   2.668   4.232   1.598
 2568TIP3    H1 7645   2.705   4.320   1.585
 2568TIP3    H2 7646   2.709   4.200   1.678
 2569TIP3   OH2 7647   4.713   3.867   2.752
 2569TIP3    H1 7648   4.650   3.800   2.726
 2569TIP3    H2 7649   4.694   3.884   2.844
 2570TIP3   OH2 7650   2.416   1.791   0.661
 2570TIP3    H1 7651   2.437   1.877   0.625
 2570TIP3    H2 7652   2.371   1.746   0.589
 2571TIP3   OH2 7653   3.318  -0.015   0.789
 2571TIP3    H1 7654   3.355   0.072   0.775
 2571TIP3    H2 7655   3.282  -0.011   0.878
 2572TIP3   OH2 7656   7.503   3.688   3.243
 2572TIP3    H1 7657   7.529   3.745   3.171
 2572TIP3    H2 7658   7.540   3.730   3.321
 2573TIP3   OH2 7659   1.243   1.470   2.303
 2573TIP3    H1 7660   1.170   1.416   2.334
 2573TIP3    H2 7661   1.202   1.544   2.258
 2574TIP3   OH2 7662   2.051   5.670   2.878
 2574TIP3    H1 7663   2.051   5.765   2.885
 2574TIP3    H2 7664   1.987   5.642   2.944
 2575TIP3   OH2 7665   5.869   1.885   2.511
 2575TIP3    H1 7666   5.830   1.925   2.589
 2575TIP3    H2 7667   5.950   1.844   2.541
 2576TIP3   OH2 7668   6.413   3.502   4.566
 2576TIP3    H1 7669   6.329   3.520   4.610
 2576TIP3    H2 7670   6.395   3.517   4.473
 2577TIP3   OH2 7671   7.721   2.061   1.729
 2577TIP3    H1 7672   7.781   2.056   1.655
 2577TIP3    H2 7673   7.720   1.973   1.766
 2578TIP3   OH2 7674   0.963   3.330   1.396
 2578TIP3    H1 7675   0.868   3.318   1.396
 2578TIP3    H2 7676   0.997   3.248   1.432
 2579TIP3   OH2 7677   0.455   1.142   0.962
 2579TIP3    H1 7678   0.518   1.085   0.918
 2579TIP3    H2 7679   0.373   1.093   0.960
 2580TIP3   OH2 7680   3.255   0.814   6.446
 2580TIP3    H1 7681   3.210   0.889   6.486
 2580TIP3    H2 7682   3.234   0.821   6.353
 2581TIP3   OH2 7683   7.292   6.096   6.347
 2581TIP3    H1 7684   7.282   6.192   6.347
 2581TIP3    H2 7685   7.387   6.082   6.355
 2582TIP3   OH2 7686   4.612   4.536   0.616
 2582TIP3    H1 7687   4.593   4.475   0.687
 2582TIP3    H2 7688   4.663   4.606   0.657
 2583TIP3   OH2 7689   1.069   4.557   5.208
 2583TIP3    H1 7690   1.033   4.588   5.291
 2583TIP3    H2 7691   1.127   4.485   5.234
 2584TIP3   OH2 7692   4.496   0.761   3.022
 2584TIP3    H1 7693   4.576   0.813   3.029
 2584TIP3    H2 7694   4.433   0.806   3.078
 2585TIP3   OH2 7695   3.433   5.870   1.710
 2585TIP3    H1 7696   3.476   5.929   1.648
 2585TIP3    H2 7697   3.404   5.796   1.657
 2586TIP3   OH2 7698   6.827   4.861   6.065
 2586TIP3    H1 7699   6.789   4.948   6.062
 2586TIP3    H2 7700   6.922   4.876   6.067
 2587TIP3   OH2 7701   5.645   2.540   2.639
 2587TIP3    H1 7702   5.695   2.462   2.663
 2587TIP3    H2 7703   5.711   2.604   2.613
 2588TIP3   OH2 7704   1.712   5.243   2.146
 2588TIP3    H1 7705   1.674   5.180   2.085
 2588TIP3    H2 7706   1.637   5.284   2.189
 2589TIP3   OH2 7707   4.251   1.565   6.092
 2589TIP3    H1 7708   4.215   1.653   6.102
 2589TIP3    H2 7709   4.175   1.507   6.089
 2590TIP3   OH2 7710   4.631   5.764   3.798
 2590TIP3    H1 7711   4.541   5.795   3.796
 2590TIP3    H2 7712   4.674   5.818   3.864
 2591TIP3   OH2 7713   2.984   3.244   5.572
 2591TIP3    H1 7714   2.962   3.240   5.479
 2591TIP3    H2 7715   2.911   3.201   5.616
 2592TIP3   OH2 7716   1.702   2.010   0.023
 2592TIP3    H1 7717   1.608   2.027   0.013
 2592TIP3    H2 7718   1.707   1.949   0.096
 2593TIP3   OH2 7719   7.824   4.216   1.872
 2593TIP3    H1 7720   7.732   4.241   1.878
 2593TIP3    H2 7721   7.872   4.299   1.881
 2594TIP3   OH2 7722   3.829   1.951   3.959
 2594TIP3    H1 7723   3.809   2.041   3.987
 2594TIP3    H2 7724   3.862   1.908   4.038
 2595TIP3   OH2 7725   6.869   5.034   4.519
 2595TIP3    H1 7726   6.816   5.079   4.453
 2595TIP3    H2 7727   6.959   5.062   4.500
 2596TIP3   OH2 7728   4.387   3.994   6.748
 2596TIP3    H1 7729   4.412   4.069   6.693
 2596TIP3    H2 7730   4.305   4.021   6.789
 2597TIP3   OH2 7731   1.437   4.119   5.891
 2597TIP3    H1 7732   1.486   4.041   5.916
 2597TIP3    H2 7733   1.345   4.091   5.895
 2598TIP3   OH2 7734   1.546   2.651   3.668
 2598TIP3    H1 7735   1.625   2.671   3.618
 2598TIP3    H2 7736   1.474   2.663   3.605
 2599TIP3   OH2 7737   2.121   3.528   3.526
 2599TIP3    H1 7738   2.086   3.473   3.456
 2599TIP3    H2 7739   2.181   3.471   3.574
 2600TIP3   OH2 7740   6.700   5.400   4.690
 2600TIP3    H1 7741   6.622   5.445   4.721
 2600TIP3    H2 7742   6.684   5.308   4.710
 2601TIP3   OH2 7743   6.203   5.503   3.106
 2601TIP3    H1 7744   6.291   5.525   3.075
 2601TIP3    H2 7745   6.155   5.586   3.105
 2602TIP3   OH2 7746   6.419   0.032   2.706
 2602TIP3    H1 7747   6.429  -0.048   2.756
 2602TIP3    H2 7748   6.336   0.022   2.660
 2603TIP3   OH2 7749   3.229   2.528   1.572
 2603TIP3    H1 7750   3.291   2.591   1.536
 2603TIP3    H2 7751   3.274   2.490   1.647
 2604TIP3   OH2 7752   8.164   6.109   5.538
 2604TIP3    H1 7753   8.218   6.142   5.467
 2604TIP3    H2 7754   8.123   6.188   5.575
 2605TIP3   OH2 7755   3.082   2.069   0.038
 2605TIP3    H1 7756   3.040   2.145  -0.002
 2605TIP3    H2 7757   3.017   2.035   0.099
 2606TIP3   OH2 7758   1.863   5.972   3.524
 2606TIP3    H1 7759   1.794   6.032   3.495
 2606TIP3    H2 7760   1.928   6.029   3.565
 2607TIP3   OH2 7761   7.914   6.534   4.907
 2607TIP3    H1 7762   7.922   6.476   4.832
 2607TIP3    H2 7763   7.866   6.483   4.972
 2608TIP3   OH2 7764   8.148   6.289  -0.009
 2608TIP3    H1 7765   8.059   6.311   0.016
 2608TIP3    H2 7766   8.155   6.195   0.007
 2609TIP3   OH2 7767   1.254   7.232   6.702
 2609TIP3    H1 7768   1.337   7.230   6.750
 2609TIP3    H2 7769   1.250   7.319   6.663
 2610TIP3   OH2 7770   4.583   7.865   6.507
 2610TIP3    H1 7771   4.591   7.798   6.439
 2610TIP3    H2 7772   4.545   7.820   6.582
 2611TIP3   OH2 7773   0.387   5.909   4.666
 2611TIP3    H1 7774   0.409   5.981   4.726
 2611TIP3    H2 7775   0.291   5.911   4.660
 2612TIP3   OH2 7776   0.841   3.469   2.225
 2612TIP3    H1 7777   0.840   3.560   2.198
 2612TIP3    H2 7778   0.756   3.434   2.196
 2613TIP3   OH2 7779   7.992   7.688   0.454
 2613TIP3    H1 7780   8.030   7.600   0.451
 2613TIP3    H2 7781   8.026   7.731   0.376
 2614TIP3   OH2 7782   5.335   1.750   2.754
 2614TIP3    H1 7783   5.305   1.682   2.813
 2614TIP3    H2 7784   5.303   1.832   2.793
 2615TIP3   OH2 7785   5.349   5.101   3.738
 2615TIP3    H1 7786   5.412   5.163   3.773
 2615TIP3    H2 7787   5.398   5.020   3.726
 2616TIP3   OH2 7788   1.396   2.180   4.717
 2616TIP3    H1 7789   1.418   2.253   4.775
 2616TIP3    H2 7790   1.474   2.124   4.720
 2617TIP3   OH2 7791   1.153   2.099   1.729
 2617TIP3    H1 7792   1.123   2.190   1.722
 2617TIP3    H2 7793   1.234   2.097   1.678
 2618TIP3   OH2 7794   1.312   1.135   6.445
 2618TIP3    H1 7795   1.217   1.139   6.450
 2618TIP3    H2 7796   1.332   1.128   6.352
 2619TIP3   OH2 7797   4.754   6.847   6.344
 2619TIP3    H1 7798   4.806   6.886   6.414
 2619TIP3    H2 7799   4.723   6.764   6.381
 2620TIP3   OH2 7800   4.859   5.882   4.829
 2620TIP3    H1 7801   4.846   5.803   4.777
 2620TIP3    H2 7802   4.896   5.851   4.912
 2621TIP3   OH2 7803   7.075   7.109   6.032
 2621TIP3    H1 7804   7.029   7.191   6.013
 2621TIP3    H2 7805   7.167   7.130   6.020
 2622TIP3   OH2 7806   3.455   6.658   5.885
 2622TIP3    H1 7807   3.408   6.683   5.805
 2622TIP3    H2 7808   3.387   6.630   5.945
 2623TIP3   OH2 7809   1.211   0.421   3.565
 2623TIP3    H1 7810   1.223   0.514   3.543
 2623TIP3    H2 7811   1.252   0.374   3.492
 2624TIP3   OH2 7812   0.290   5.925   6.406
 2624TIP3    H1 7813   0.380   5.894   6.419
 2624TIP3    H2 7814   0.295   5.984   6.332
 2625TIP3   OH2 7815   8.241   0.815   4.885
 2625TIP3    H1 7816   8.230   0.840   4.793
 2625TIP3    H2 7817   8.336   0.805   4.895
 2626TIP3   OH2 7818   2.591   5.064   3.598
 2626TIP3    H1 7819   2.646   5.008   3.652
 2626TIP3    H2 7820   2.534   5.003   3.551
 2627TIP3   OH2 7821   3.842   0.089   3.388
 2627TIP3    H1 7822   3.844   0.185   3.397
 2627TIP3    H2 7823   3.755   0.070   3.354
 2628TIP3   OH2 7824   0.396   5.129   3.611
 2628TIP3    H1 7825   0.351   5.055   3.569
 2628TIP3    H2 7826   0.332   5.200   3.610
 2629TIP3   OH2 7827   2.800   1.892   3.041
 2629TIP3    H1 7828   2.724   1.837   3.023
 2629TIP3    H2 7829   2.829   1.864   3.128
 2630TIP3   OH2 7830   0.528   3.207   2.852
 2630TIP3    H1 7831   0.511   3.113   2.844
 2630TIP3    H2 7832   0.505   3.227   2.942
 2631TIP3   OH2 7833   4.906   2.113   1.933
 2631TIP3    H1 7834   4.862   2.195   1.952
 2631TIP3    H2 7835   4.957   2.131   1.854
 2632TIP3   OH2 7836   6.817   3.232   2.516
 2632TIP3    H1 7837   6.858   3.185   2.444
 2632TIP3    H2 7838   6.862   3.201   2.594
 2633TIP3   OH2 7839   4.115   4.087   6.757
 2633TIP3    H1 7840   4.051   4.025   6.720
 2633TIP3    H2 7841   4.064   4.166   6.774
 2634TIP3   OH2 7842   5.818   1.009   1.305
 2634TIP3    H1 7843   5.873   1.081   1.337
 2634TIP3    H2 7844   5.876   0.933   1.306
 2635TIP3   OH2 7845   4.172   1.885   6.014
 2635TIP3    H1 7846   4.161   1.922   6.102
 2635TIP3    H2 7847   4.262   1.854   6.012
 2636TIP3   OH2 7848   3.552   2.476   4.930
 2636TIP3    H1 7849   3.469   2.438   4.958
 2636TIP3    H2 7850   3.609   2.400   4.915
 2637TIP3   OH2 7851   1.661   6.775   6.401
 2637TIP3    H1 7852   1.724   6.762   6.331
 2637TIP3    H2 7853   1.656   6.871   6.411
 2638TIP3   OH2 7854   4.960   4.515   1.378
 2638TIP3    H1 7855   4.966   4.448   1.310
 2638TIP3    H2 7856   4.987   4.596   1.334
 2639TIP3   OH2 7857   1.974   7.374   2.456
 2639TIP3    H1 7858   1.926   7.449   2.491
 2639TIP3    H2 7859   1.918   7.339   2.387
 2640TIP3   OH2 7860   1.351   0.670   2.783
 2640TIP3    H1 7861   1.291   0.666   2.857
 2640TIP3    H2 7862   1.409   0.744   2.801
 2641TIP3   OH2 7863   5.465   1.946   3.770
 2641TIP3    H1 7864   5.546   1.986   3.804
 2641TIP3    H2 7865   5.421   2.018   3.724
 2642TIP3   OH2 7866   1.183   0.144   4.537
 2642TIP3    H1 7867   1.148   0.055   4.540
 2642TIP3    H2 7868   1.274   0.135   4.564
 2643TIP3   OH2 7869   1.682   0.442   4.005
 2643TIP3    H1 7870   1.711   0.407   4.089
 2643TIP3    H2 7871   1.593   0.473   4.022
 2644TIP3   OH2 7872   3.237   4.540   1.105
 2644TIP3    H1 7873   3.164   4.583   1.061
 2644TIP3    H2 7874   3.201   4.457   1.136
 2645TIP3   OH2 7875   6.609   6.671   2.854
 2645TIP3    H1 7876   6.548   6.728   2.806
 2645TIP3    H2 7877   6.688   6.669   2.800
 2646TIP3   OH2 7878   6.249   0.701   0.070
 2646TIP3    H1 7879   6.262   0.778   0.126
 2646TIP3    H2 7880   6.168   0.661   0.103
 2647TIP3   OH2 7881   4.098   4.516   6.033
 2647TIP3    H1 7882   4.085   4.422   6.040
 2647TIP3    H2 7883   4.189   4.526   6.005
 2648TIP3   OH2 7884   0.540   7.040   4.359
 2648TIP3    H1 7885   0.529   6.950   4.327
 2648TIP3    H2 7886   0.599   7.081   4.296
 2649TIP3   OH2 7887   3.990   4.227   1.144
 2649TIP3    H1 7888   3.937   4.224   1.064
 2649TIP3    H2 7889   4.036   4.142   1.145
 2650TIP3   OH2 7890   5.301   1.373   2.551
 2650TIP3    H1 7891   5.397   1.372   2.558
 2650TIP3    H2 7892   5.281   1.461   2.520
 2651TIP3   OH2 7893   5.112   0.208   3.922
 2651TIP3    H1 7894   5.110   0.196   4.016
 2651TIP3    H2 7895   5.141   0.124   3.887
 2652TIP3   OH2 7896   3.359   6.606   2.920
 2652TIP3    H1 7897   3.279   6.652   2.943
 2652TIP3    H2 7898   3.427   6.646   2.975
 2653TIP3   OH2 7899   8.083   4.935   3.675
 2653TIP3    H1 7900   8.079   4.976   3.762
 2653TIP3    H2 7901   8.150   4.867   3.685
 2654TIP3   OH2 7902   3.716   0.908   0.758
 2654TIP3    H1 7903   3.809   0.906   0.735
 2654TIP3    H2 7904   3.702   0.996   0.793
 2655TIP3   OH2 7905   7.699   1.541   1.126
 2655TIP3    H1 7906   7.640   1.507   1.059
 2655TIP3    H2 7907   7.687   1.636   1.123
 2656TIP3   OH2 7908   6.666   4.813   2.159
 2656TIP3    H1 7909   6.740   4.786   2.105
 2656TIP3    H2 7910   6.699   4.887   2.210
 2657TIP3   OH2 7911   3.640   0.173   2.373
 2657TIP3    H1 7912   3.713   0.214   2.419
 2657TIP3    H2 7913   3.575   0.242   2.362
 2658TIP3   OH2 7914   1.300   1.615   0.826
 2658TIP3    H1 7915   1.350   1.648   0.901
 2658TIP3    H2 7916   1.220   1.669   0.825
 2659TIP3   OH2 7917   1.804   6.891   0.396
 2659TIP3    H1 7918   1.777   6.979   0.371
 2659TIP3    H2 7919   1.739   6.833   0.356
 2660TIP3   OH2 7920   0.257   2.691   6.212
 2660TIP3    H1 7921   0.188   2.674   6.149
 2660TIP3    H2 7922   0.214   2.683   6.298
 2661TIP3   OH2 7923   6.122   4.753   3.437
 2661TIP3    H1 7924   6.026   4.761   3.444
 2661TIP3    H2 7925   6.153   4.756   3.528
 2662TIP3   OH2 7926   7.421   3.574   4.040
 2662TIP3    H1 7927   7.364   3.603   4.110
 2662TIP3    H2 7928   7.363   3.563   3.964
 2663TIP3   OH2 7929   3.350   4.954   3.592
 2663TIP3    H1 7930   3.406   5.031   3.595
 2663TIP3    H2 7931   3.411   4.880   3.585
 2664TIP3   OH2 7932   5.579   3.886   5.963
 2664TIP3    H1 7933   5.497   3.880   5.913
 2664TIP3    H2 7934   5.644   3.917   5.899
 2665TIP3   OH2 7935   5.625   5.579   5.187
 2665TIP3    H1 7936   5.610   5.553   5.278
 2665TIP3    H2 7937   5.538   5.604   5.155
 2666TIP3   OH2 7938   2.716   5.023   1.880
 2666TIP3    H1 7939   2.785   5.088   1.894
 2666TIP3    H2 7940   2.741   4.950   1.936
 2667TIP3   OH2 7941   8.269   7.844   2.736
 2667TIP3    H1 7942   8.189   7.843   2.684
 2667TIP3    H2 7943   8.255   7.777   2.803
 2668TIP3   OH2 7944   6.021   7.254   0.024
 2668TIP3    H1 7945   5.927   7.272   0.030
 2668TIP3    H2 7946   6.029   7.162   0.051
 2669TIP3   OH2 7947   1.312   5.379   6.119
 2669TIP3    H1 7948   1.238   5.381   6.180
 2669TIP3    H2 7949   1.278   5.335   6.041
 2670TIP3   OH2 7950   6.869   5.509   3.419
 2670TIP3    H1 7951   6.880   5.428   3.369
 2670TIP3    H2 7952   6.852   5.576   3.352
 2671TIP3   OH2 7953   4.574   6.492   2.252
 2671TIP3    H1 7954   4.661   6.471   2.220
 2671TIP3    H2 7955   4.565   6.586   2.237
 2672TIP3   OH2 7956   7.703   0.930   5.778
 2672TIP3    H1 7957   7.614   0.958   5.797
 2672TIP3    H2 7958   7.706   0.838   5.806
 2673TIP3   OH2 7959   3.921   0.906   6.594
 2673TIP3    H1 7960   3.830   0.909   6.623
 2673TIP3    H2 7961   3.925   0.969   6.522
 2674TIP3   OH2 7962   7.338   6.744   2.482
 2674TIP3    H1 7963   7.348   6.811   2.414
 2674TIP3    H2 7964   7.416   6.690   2.474
 2675TIP3   OH2 7965   4.050   7.601   2.673
 2675TIP3    H1 7966   4.088   7.616   2.587
 2675TIP3    H2 7967   4.117   7.630   2.735
 2676TIP3   OH2 7968   4.201   1.314   1.432
 2676TIP3    H1 7969   4.213   1.357   1.347
 2676TIP3    H2 7970   4.282   1.265   1.445
 2677TIP3   OH2 7971   0.779   1.150   1.111
 2677TIP3    H1 7972   0.822   1.200   1.042
 2677TIP3    H2 7973   0.685   1.163   1.095
 2678TIP3   OH2 7974   3.329   2.163   5.446
 2678TIP3    H1 7975   3.368   2.220   5.513
 2678TIP3    H2 7976   3.383   2.177   5.368
 2679TIP3   OH2 7977   2.117   7.491   5.321
 2679TIP3    H1 7978   2.109   7.397   5.336
 2679TIP3    H2 7979   2.202   7.514   5.358
 2680TIP3   OH2 7980   1.231   2.957   3.459
 2680TIP3    H1 7981   1.155   3.015   3.457
 2680TIP3    H2 7982   1.299   3.009   3.502
 2681TIP3   OH2 7983   3.210   3.842   4.014
 2681TIP3    H1 7984   3.263   3.768   3.986
 2681TIP3    H2 7985   3.198   3.829   4.108
 2682TIP3   OH2 7986   2.824   6.997   3.797
 2682TIP3    H1 7987   2.729   7.000   3.789
 2682TIP3    H2 7988   2.849   7.088   3.814
 2683TIP3   OH2 7989   4.339   3.110   2.785
 2683TIP3    H1 7990   4.264   3.093   2.729
 2683TIP3    H2 7991   4.317   3.191   2.831
 2684TIP3   OH2 7992   1.420   7.733   0.796
 2684TIP3    H1 7993   1.341   7.703   0.842
 2684TIP3    H2 7994   1.450   7.809   0.846
 2685TIP3   OH2 7995   6.919   5.145   0.196
 2685TIP3    H1 7996   6.950   5.058   0.220
 2685TIP3    H2 7997   6.891   5.136   0.105
 2686TIP3   OH2 7998   2.570   1.230   5.426
 2686TIP3    H1 7999   2.626   1.209   5.352
 2686TIP3    H2 8000   2.517   1.304   5.396
 2687TIP3   OH2 8001   7.164   7.514   3.452
 2687TIP3    H1 8002   7.146   7.424   3.480
 2687TIP3    H2 8003   7.102   7.530   3.381
 2688TIP3   OH2 8004   5.945   6.596   1.072
 2688TIP3    H1 8005   6.034   6.585   1.037
 2688TIP3    H2 8006   5.914   6.678   1.033
 2689TIP3   OH2 8007   1.268   6.211   5.560
 2689TIP3    H1 8008   1.195   6.237   5.504
 2689TIP3    H2 8009   1.278   6.117   5.543
 2690TIP3   OH2 8010   5.356   3.957   4.750
 2690TIP3    H1 8011   5.353   3.886   4.814
 2690TIP3    H2 8012   5.367   4.036   4.802
 2691TIP3   OH2 8013   0.617   5.345   1.086
 2691TIP3    H1 8014   0.656   5.403   1.151
 2691TIP3    H2 8015   0.534   5.318   1.124
 2692TIP3   OH2 8016   8.274   3.863   0.337
 2692TIP3    H1 8017   8.228   3.836   0.416
 2692TIP3    H2 8018   8.322   3.785   0.309
 2693TIP3   OH2 8019   7.975   3.758   3.413
 2693TIP3    H1 8020   8.044   3.821   3.391
 2693TIP3    H2 8021   7.934   3.793   3.492
 2694TIP3   OH2 8022   0.959   6.156   2.755
 2694TIP3    H1 8023   0.973   6.112   2.671
 2694TIP3    H2 8024   1.008   6.104   2.818
 2695TIP3   OH2 8025   5.831   2.425   3.811
 2695TIP3    H1 8026   5.791   2.384   3.734
 2695TIP3    H2 8027   5.777   2.394   3.884
 2696TIP3   OH2 8028   3.166   0.575   6.232
 2696TIP3    H1 8029   3.201   0.504   6.285
 2696TIP3    H2 8030   3.163   0.540   6.142
 2697TIP3   OH2 8031   1.553   5.495  -0.007
 2697TIP3    H1 8032   1.553   5.406  -0.042
 2697TIP3    H2 8033   1.514   5.487   0.080
 2698TIP3   OH2 8034   6.281   7.460   6.621
 2698TIP3    H1 8035   6.333   7.508   6.556
 2698TIP3    H2 8036   6.245   7.528   6.678
 2699TIP3   OH2 8037   4.016   1.907   1.383
 2699TIP3    H1 8038   3.948   1.886   1.318
 2699TIP3    H2 8039   4.066   1.978   1.342
 2700TIP3   OH2 8040   0.476   1.589   3.220
 2700TIP3    H1 8041   0.430   1.508   3.197
 2700TIP3    H2 8042   0.406   1.654   3.228
 2701TIP3   OH2 8043   0.769   3.080   4.625
 2701TIP3    H1 8044   0.834   3.056   4.559
 2701TIP3    H2 8045   0.815   3.140   4.683
 2702TIP3   OH2 8046   2.749   5.848   3.645
 2702TIP3    H1 8047   2.671   5.868   3.593
 2702TIP3    H2 8048   2.819   5.841   3.581
 2703TIP3   OH2 8049   5.380   3.839   2.198
 2703TIP3    H1 8050   5.383   3.753   2.239
 2703TIP3    H2 8051   5.462   3.845   2.149
 2704TIP3   OH2 8052  -0.081   1.066   3.881
 2704TIP3    H1 8053  -0.094   0.972   3.872
 2704TIP3    H2 8054  -0.052   1.095   3.794
 2705TIP3   OH2 8055   0.274   4.154   3.227
 2705TIP3    H1 8056   0.198   4.107   3.259
 2705TIP3    H2 8057   0.251   4.247   3.236
 2706TIP3   OH2 8058   5.625   4.979   1.436
 2706TIP3    H1 8059   5.698   4.966   1.496
 2706TIP3    H2 8060   5.664   5.016   1.357
 2707TIP3   OH2 8061   6.844   5.964   2.347
 2707TIP3    H1 8062   6.899   5.935   2.419
 2707TIP3    H2 8063   6.755   5.957   2.381
 2708TIP3   OH2 8064   5.580   1.516   1.639
 2708TIP3    H1 8065   5.532   1.479   1.714
 2708TIP3    H2 8066   5.582   1.445   1.575
 2709TIP3   OH2 8067   6.374   0.157   3.060
 2709TIP3    H1 8068   6.453   0.118   3.098
 2709TIP3    H2 8069   6.324   0.083   3.026
 2710TIP3   OH2 8070   0.908   3.198   2.018
 2710TIP3    H1 8071   0.855   3.119   2.019
 2710TIP3    H2 8072   0.994   3.169   1.988
 2711TIP3   OH2 8073   6.771   6.572   2.581
 2711TIP3    H1 8074   6.707   6.601   2.516
 2711TIP3    H2 8075   6.813   6.496   2.542
 2712TIP3   OH2 8076   4.508   3.433   0.638
 2712TIP3    H1 8077   4.463   3.349   0.639
 2712TIP3    H2 8078   4.503   3.464   0.729
 2713TIP3   OH2 8079   3.979   1.612   2.931
 2713TIP3    H1 8080   3.980   1.598   2.836
 2713TIP3    H2 8081   4.039   1.546   2.965
 2714TIP3   OH2 8082   7.961   7.581   3.807
 2714TIP3    H1 8083   7.959   7.662   3.857
 2714TIP3    H2 8084   7.872   7.571   3.772
 2715TIP3   OH2 8085   1.840   3.915   3.566
 2715TIP3    H1 8086   1.905   3.894   3.499
 2715TIP3    H2 8087   1.787   3.835   3.573
 2716TIP3   OH2 8088   7.093   0.749   1.824
 2716TIP3    H1 8089   7.181   0.778   1.802
 2716TIP3    H2 8090   7.050   0.827   1.860
 2717TIP3   OH2 8091   2.243   0.303   2.468
 2717TIP3    H1 8092   2.327   0.318   2.512
 2717TIP3    H2 8093   2.235   0.377   2.408
 2718TIP3   OH2 8094   2.006   4.879   1.913
 2718TIP3    H1 8095   1.912   4.863   1.919
 2718TIP3    H2 8096   2.022   4.950   1.975
 2719TIP3   OH2 8097   1.623   6.038   0.976
 2719TIP3    H1 8098   1.592   5.955   1.013
 2719TIP3    H2 8099   1.576   6.105   1.027
 2720TIP3   OH2 8100   5.165   1.641   1.211
 2720TIP3    H1 8101   5.215   1.652   1.292
 2720TIP3    H2 8102   5.185   1.720   1.160
 2721TIP3   OH2 8103   1.220   6.518   2.205
 2721TIP3    H1 8104   1.186   6.435   2.172
 2721TIP3    H2 8105   1.149   6.553   2.259
 2722TIP3   OH2 8106   6.063   3.823   5.072
 2722TIP3    H1 8107   6.122   3.896   5.088
 2722TIP3    H2 8108   6.118   3.756   5.032
 2723TIP3   OH2 8109   3.706   4.175   5.252
 2723TIP3    H1 8110   3.771   4.159   5.320
 2723TIP3    H2 8111   3.748   4.235   5.190
 2724TIP3   OH2 8112   3.955   7.120   5.477
 2724TIP3    H1 8113   4.030   7.158   5.523
 2724TIP3    H2 8114   3.994   7.075   5.402
 2725TIP3   OH2 8115   4.365   2.134   1.772
 2725TIP3    H1 8116   4.297   2.072   1.800
 2725TIP3    H2 8117   4.318   2.201   1.724
 2726TIP3   OH2 8118   4.588   2.040   6.105
 2726TIP3    H1 8119   4.536   2.119   6.117
 2726TIP3    H2 8120   4.678   2.068   6.124
 2727TIP3   OH2 8121   4.282   3.285   5.992
 2727TIP3    H1 8122   4.293   3.380   5.985
 2727TIP3    H2 8123   4.248   3.259   5.907
 2728TIP3   OH2 8124   3.715   3.965   4.570
 2728TIP3    H1 8125   3.803   3.957   4.533
 2728TIP3    H2 8126   3.707   3.889   4.629
 2729TIP3   OH2 8127   8.002   4.525   1.735
 2729TIP3    H1 8128   8.005   4.570   1.819
 2729TIP3    H2 8129   8.039   4.439   1.752
 2730TIP3   OH2 8130   1.924   2.157   0.072
 2730TIP3    H1 8131   1.991   2.138   0.006
 2730TIP3    H2 8132   1.860   2.087   0.062
 2731TIP3   OH2 8133   3.654   7.144   6.858
 2731TIP3    H1 8134   3.561   7.133   6.841
 2731TIP3    H2 8135   3.697   7.086   6.794
 2732TIP3   OH2 8136   3.855   0.362   3.742
 2732TIP3    H1 8137   3.946   0.336   3.746
 2732TIP3    H2 8138   3.807   0.295   3.790
 2733TIP3   OH2 8139   1.633   5.815   4.728
 2733TIP3    H1 8140   1.638   5.738   4.785
 2733TIP3    H2 8141   1.587   5.784   4.650
 2734TIP3   OH2 8142   7.163   4.582   0.343
 2734TIP3    H1 8143   7.109   4.530   0.402
 2734TIP3    H2 8144   7.137   4.673   0.361
 2735TIP3   OH2 8145   5.735   3.626   4.616
 2735TIP3    H1 8146   5.655   3.594   4.657
 2735TIP3    H2 8147   5.715   3.628   4.522
 2736TIP3   OH2 8148   4.272   6.342   2.561
 2736TIP3    H1 8149   4.277   6.289   2.481
 2736TIP3    H2 8150   4.347   6.315   2.613
 2737TIP3   OH2 8151   1.736   5.340   1.025
 2737TIP3    H1 8152   1.820   5.331   0.981
 2737TIP3    H2 8153   1.730   5.262   1.081
 2738TIP3   OH2 8154   3.572   1.643   5.342
 2738TIP3    H1 8155   3.481   1.670   5.345
 2738TIP3    H2 8156   3.569   1.547   5.343
 2739TIP3   OH2 8157   4.267   4.641   1.269
 2739TIP3    H1 8158   4.317   4.598   1.338
 2739TIP3    H2 8159   4.251   4.729   1.302
 2740TIP3   OH2 8160   4.462   7.017   3.463
 2740TIP3    H1 8161   4.417   7.061   3.391
 2740TIP3    H2 8162   4.393   6.968   3.509
 2741TIP3   OH2 8163   5.155   5.033   3.541
 2741TIP3    H1 8164   5.217   5.057   3.610
 2741TIP3    H2 8165   5.072   5.022   3.587
 2742TIP3   OH2 8166   2.680   0.334   4.983
 2742TIP3    H1 8167   2.718   0.283   5.054
 2742TIP3    H2 8168   2.656   0.418   5.023
 2743TIP3   OH2 8169   1.200   1.484   0.627
 2743TIP3    H1 8170   1.245   1.516   0.705
 2743TIP3    H2 8171   1.158   1.562   0.590
 2744TIP3   OH2 8172   5.637   3.865   2.099
 2744TIP3    H1 8173   5.677   3.934   2.152
 2744TIP3    H2 8174   5.637   3.901   2.010
 2745TIP3   OH2 8175   0.768   5.412   6.433
 2745TIP3    H1 8176   0.703   5.387   6.499
 2745TIP3    H2 8177   0.725   5.393   6.350
 2746TIP3   OH2 8178   3.987   3.548   1.096
 2746TIP3    H1 8179   3.951   3.533   1.184
 2746TIP3    H2 8180   3.981   3.463   1.053
 2747TIP3   OH2 8181   8.015   1.177   5.647
 2747TIP3    H1 8182   7.962   1.098   5.638
 2747TIP3    H2 8183   7.978   1.238   5.583
 2748TIP3   OH2 8184   5.417   1.835   6.353
 2748TIP3    H1 8185   5.330   1.851   6.317
 2748TIP3    H2 8186   5.476   1.882   6.294
 2749TIP3   OH2 8187   2.306   1.128   3.135
 2749TIP3    H1 8188   2.395   1.136   3.168
 2749TIP3    H2 8189   2.250   1.147   3.211
 2750TIP3   OH2 8190   2.835   1.002   3.883
 2750TIP3    H1 8191   2.750   1.011   3.839
 2750TIP3    H2 8192   2.871   0.921   3.848
 2751TIP3   OH2 8193   2.522   0.794   3.056
 2751TIP3    H1 8194   2.430   0.819   3.068
 2751TIP3    H2 8195   2.551   0.849   2.983
 2752TIP3   OH2 8196   6.839   4.996   1.929
 2752TIP3    H1 8197   6.914   4.951   1.968
 2752TIP3    H2 8198   6.807   4.936   1.862
 2753TIP3   OH2 8199   3.886   0.496   4.953
 2753TIP3    H1 8200   3.855   0.572   4.904
 2753TIP3    H2 8201   3.866   0.517   5.044
 2754TIP3   OH2 8202   0.811   2.756   2.917
 2754TIP3    H1 8203   0.841   2.727   3.003
 2754TIP3    H2 8204   0.843   2.688   2.857
 2755TIP3   OH2 8205   1.703   7.580   4.801
 2755TIP3    H1 8206   1.675   7.653   4.856
 2755TIP3    H2 8207   1.628   7.560   4.746
 2756TIP3   OH2 8208   7.414   4.302   3.507
 2756TIP3    H1 8209   7.335   4.300   3.560
 2756TIP3    H2 8210   7.486   4.297   3.571
 2757TIP3   OH2 8211   0.384   5.820   0.382
 2757TIP3    H1 8212   0.345   5.832   0.296
 2757TIP3    H2 8213   0.320   5.769   0.431
 2758TIP3   OH2 8214   0.755   0.659   3.948
 2758TIP3    H1 8215   0.790   0.647   4.036
 2758TIP3    H2 8216   0.692   0.730   3.958
 2759TIP3   OH2 8217   3.054   1.133   4.680
 2759TIP3    H1 8218   2.978   1.083   4.710
 2759TIP3    H2 8219   3.125   1.068   4.677
 2760TIP3   OH2 8220   0.220   1.299   0.875
 2760TIP3    H1 8221   0.311   1.277   0.898
 2760TIP3    H2 8222   0.218   1.394   0.873
 2761TIP3   OH2 8223   0.454   4.299   4.328
 2761TIP3    H1 8224   0.422   4.229   4.271
 2761TIP3    H2 8225   0.548   4.303   4.311
 2762TIP3   OH2 8226   8.230   6.155   1.252
 2762TIP3    H1 8227   8.162   6.126   1.192
 2762TIP3    H2 8228   8.312   6.140   1.204
 2763TIP3   OH2 8229   4.153   2.519   4.526
 2763TIP3    H1 8230   4.059   2.508   4.515
 2763TIP3    H2 8231   4.168   2.613   4.514
 2764TIP3   OH2 8232   1.780   7.106   2.061
 2764TIP3    H1 8233   1.702   7.051   2.067
 2764TIP3    H2 8234   1.775   7.146   1.975
 2765TIP3   OH2 8235   5.041   2.864   6.515
 2765TIP3    H1 8236   5.062   2.783   6.469
 2765TIP3    H2 8237   5.056   2.933   6.451
 2766TIP3   OH2 8238   7.956   5.898   1.608
 2766TIP3    H1 8239   8.004   5.903   1.526
 2766TIP3    H2 8240   7.869   5.930   1.587
 2767TIP3   OH2 8241   5.287   3.470   3.392
 2767TIP3    H1 8242   5.235   3.391   3.402
 2767TIP3    H2 8243   5.362   3.458   3.451
 2768TIP3   OH2 8244   8.367   5.590   0.829
 2768TIP3    H1 8245   8.394   5.646   0.756
 2768TIP3    H2 8246   8.272   5.586   0.823
 2769TIP3   OH2 8247   7.675   6.394   0.900
 2769TIP3    H1 8248   7.601   6.373   0.842
 2769TIP3    H2 8249   7.752   6.367   0.851
 2770TIP3   OH2 8250   4.221   6.785   3.195
 2770TIP3    H1 8251   4.156   6.722   3.225
 2770TIP3    H2 8252   4.184   6.822   3.115
 2771TIP3   OH2 8253   1.253   2.310   4.342
 2771TIP3    H1 8254   1.206   2.250   4.284
 2771TIP3    H2 8255   1.218   2.396   4.321
 2772TIP3   OH2 8256   0.880   4.397   1.184
 2772TIP3    H1 8257   0.907   4.385   1.275
 2772TIP3    H2 8258   0.908   4.486   1.161
 2773TIP3   OH2 8259   2.358   0.459   5.083
 2773TIP3    H1 8260   2.450   0.486   5.094
 2773TIP3    H2 8261   2.342   0.399   5.156
 2774TIP3   OH2 8262   1.134   2.376   2.465
 2774TIP3    H1 8263   1.223   2.346   2.446
 2774TIP3    H2 8264   1.139   2.471   2.461
 2775TIP3   OH2 8265   1.562   6.753   0.371
 2775TIP3    H1 8266   1.597   6.664   0.362
 2775TIP3    H2 8267   1.469   6.741   0.390
 2776TIP3   OH2 8268   3.172   2.801   6.458
 2776TIP3    H1 8269   3.254   2.756   6.436
 2776TIP3    H2 8270   3.192   2.847   6.540
 2777TIP3   OH2 8271   3.387   4.064   4.400
 2777TIP3    H1 8272   3.383   3.970   4.412
 2777TIP3    H2 8273   3.311   4.085   4.346
 2778TIP3   OH2 8274   4.021   4.109   6.391
 2778TIP3    H1 8275   3.963   4.039   6.421
 2778TIP3    H2 8276   4.086   4.118   6.461
 2779TIP3   OH2 8277   5.945   5.330   5.508
 2779TIP3    H1 8278   5.941   5.298   5.418
 2779TIP3    H2 8279   6.037   5.351   5.522
 2780TIP3   OH2 8280   5.997   6.661   0.166
 2780TIP3    H1 8281   6.077   6.652   0.113
 2780TIP3    H2 8282   5.998   6.584   0.223
 2781TIP3   OH2 8283   4.339   4.967   2.703
 2781TIP3    H1 8284   4.370   4.890   2.655
 2781TIP3    H2 8285   4.411   5.029   2.698
 2782TIP3   OH2 8286   0.072   2.221   2.925
 2782TIP3    H1 8287   0.153   2.169   2.920
 2782TIP3    H2 8288   0.003   2.156   2.941
 2783TIP3   OH2 8289   3.020  -0.006   2.548
 2783TIP3    H1 8290   2.969  -0.019   2.468
 2783TIP3    H2 8291   2.980   0.071   2.590
 2784TIP3   OH2 8292   5.493   4.917   0.738
 2784TIP3    H1 8293   5.412   4.914   0.788
 2784TIP3    H2 8294   5.475   4.861   0.662
 2785TIP3   OH2 8295   7.167   3.790   6.647
 2785TIP3    H1 8296   7.159   3.713   6.704
 2785TIP3    H2 8297   7.079   3.801   6.610
 2786TIP3   OH2 8298   8.084   6.841   1.692
 2786TIP3    H1 8299   8.162   6.821   1.745
 2786TIP3    H2 8300   8.073   6.765   1.636
 2787TIP3   OH2 8301   6.804   0.973   5.040
 2787TIP3    H1 8302   6.893   1.002   5.016
 2787TIP3    H2 8303   6.797   0.885   5.001
 2788TIP3   OH2 8304   0.622   1.091   1.939
 2788TIP3    H1 8305   0.548   1.070   1.882
 2788TIP3    H2 8306   0.694   1.039   1.903
 2789TIP3   OH2 8307   1.119   4.441   0.960
 2789TIP3    H1 8308   1.171   4.461   1.037
 2789TIP3    H2 8309   1.151   4.356   0.930
 2790TIP3   OH2 8310   3.839   5.267   5.513
 2790TIP3    H1 8311   3.787   5.346   5.526
 2790TIP3    H2 8312   3.909   5.293   5.454
 2791TIP3   OH2 8313   5.661   3.257   0.836
 2791TIP3    H1 8314   5.617   3.307   0.768
 2791TIP3    H2 8315   5.735   3.216   0.792
 2792TIP3   OH2 8316   6.690   2.822   3.275
 2792TIP3    H1 8317   6.702   2.734   3.310
 2792TIP3    H2 8318   6.771   2.839   3.226
 2793TIP3   OH2 8319   6.726   6.762   5.665
 2793TIP3    H1 8320   6.760   6.832   5.610
 2793TIP3    H2 8321   6.631   6.769   5.658
 2794TIP3   OH2 8322   7.713   2.303   3.164
 2794TIP3    H1 8323   7.731   2.381   3.111
 2794TIP3    H2 8324   7.776   2.238   3.133
 2795TIP3   OH2 8325   5.248   4.540   3.154
 2795TIP3    H1 8326   5.234   4.533   3.060
 2795TIP3    H2 8327   5.172   4.497   3.193
 2796TIP3   OH2 8328   5.114   7.681   3.794
 2796TIP3    H1 8329   5.074   7.691   3.880
 2796TIP3    H2 8330   5.161   7.763   3.779
 2797TIP3   OH2 8331   0.122   5.947   4.716
 2797TIP3    H1 8332   0.125   5.852   4.715
 2797TIP3    H2 8333   0.033   5.968   4.745
 2798TIP3   OH2 8334   0.009   3.076   0.953
 2798TIP3    H1 8335  -0.030   3.074   0.866
 2798TIP3    H2 8336   0.075   3.006   0.952
 2799TIP3   OH2 8337   4.862   4.096   2.700
 2799TIP3    H1 8338   4.830   4.006   2.706
 2799TIP3    H2 8339   4.957   4.087   2.694
 2800TIP3   OH2 8340   6.324   3.106   2.169
 2800TIP3    H1 8341   6.277   3.150   2.099
 2800TIP3    H2 8342   6.333   3.016   2.139
 2801TIP3   OH2 8343   6.053   1.791   6.752
 2801TIP3    H1 8344   6.107   1.751   6.821
 2801TIP3    H2 8345   5.967   1.801   6.792
 2802TIP3   OH2 8346   4.708   3.207   1.841
 2802TIP3    H1 8347   4.782   3.146   1.837
 2802TIP3    H2 8348   4.736   3.282   1.788
 2803TIP3   OH2 8349   2.944   3.923   0.257
 2803TIP3    H1 8350   2.929   3.887   0.344
 2803TIP3    H2 8351   2.894   4.004   0.255
 2804TIP3   OH2 8352   0.974   4.894   3.814
 2804TIP3    H1 8353   1.016   4.940   3.742
 2804TIP3    H2 8354   1.039   4.829   3.842
 2805TIP3   OH2 8355   6.099   1.929   0.415
 2805TIP3    H1 8356   6.035   1.875   0.369
 2805TIP3    H2 8357   6.142   1.869   0.476
 2806TIP3   OH2 8358   7.398   3.088   1.385
 2806TIP3    H1 8359   7.344   3.145   1.331
 2806TIP3    H2 8360   7.403   3.133   1.470
 2807TIP3   OH2 8361   4.545   3.035   5.269
 2807TIP3    H1 8362   4.520   2.982   5.345
 2807TIP3    H2 8363   4.469   3.091   5.254
 2808TIP3   OH2 8364   7.402   4.293   3.231
 2808TIP3    H1 8365   7.421   4.385   3.215
 2808TIP3    H2 8366   7.398   4.286   3.327
 2809TIP3   OH2 8367   6.161   6.661   2.170
 2809TIP3    H1 8368   6.116   6.606   2.106
 2809TIP3    H2 8369   6.090   6.701   2.221
 2810TIP3   OH2 8370   2.235   3.406   3.969
 2810TIP3    H1 8371   2.290   3.422   4.046
 2810TIP3    H2 8372   2.185   3.328   3.991
 2811TIP3   OH2 8373   1.706   7.190   1.732
 2811TIP3    H1 8374   1.783   7.153   1.774
 2811TIP3    H2 8375   1.690   7.134   1.656
 2812TIP3   OH2 8376   7.347   2.197   2.789
 2812TIP3    H1 8377   7.344   2.291   2.805
 2812TIP3    H2 8378   7.434   2.182   2.751
 2813TIP3   OH2 8379   0.644   5.807   0.468
 2813TIP3    H1 8380   0.660   5.718   0.439
 2813TIP3    H2 8381   0.556   5.828   0.436
 2814TIP3   OH2 8382   6.449   6.582   2.569
 2814TIP3    H1 8383   6.426   6.573   2.477
 2814TIP3    H2 8384   6.467   6.492   2.598
 2815TIP3   OH2 8385   4.652   1.774   2.422
 2815TIP3    H1 8386   4.591   1.847   2.422
 2815TIP3    H2 8387   4.614   1.710   2.482
 2816TIP3   OH2 8388   6.020   6.383   6.751
 2816TIP3    H1 8389   6.083   6.343   6.690
 2816TIP3    H2 8390   5.944   6.325   6.749
 2817TIP3   OH2 8391   0.406   2.186   6.264
 2817TIP3    H1 8392   0.322   2.142   6.254
 2817TIP3    H2 8393   0.391   2.250   6.334
 2818TIP3   OH2 8394   2.460   2.894   5.354
 2818TIP3    H1 8395   2.426   2.946   5.427
 2818TIP3    H2 8396   2.382   2.865   5.306
 2819TIP3   OH2 8397   5.749   6.758   4.325
 2819TIP3    H1 8398   5.842   6.757   4.304
 2819TIP3    H2 8399   5.743   6.795   4.413
 2820TIP3   OH2 8400   4.562   2.054   3.807
 2820TIP3    H1 8401   4.503   1.979   3.819
 2820TIP3    H2 8402   4.541   2.087   3.719
 2821TIP3   OH2 8403   3.464   2.442   4.343
 2821TIP3    H1 8404   3.466   2.349   4.321
 2821TIP3    H2 8405   3.473   2.444   4.439
 2822TIP3   OH2 8406   5.729   6.862   6.000
 2822TIP3    H1 8407   5.764   6.829   6.083
 2822TIP3    H2 8408   5.634   6.860   6.011
 2823TIP3   OH2 8409   4.090   4.713   5.289
 2823TIP3    H1 8410   4.022   4.686   5.351
 2823TIP3    H2 8411   4.121   4.631   5.250
 2824TIP3   OH2 8412   7.577   3.506   2.612
 2824TIP3    H1 8413   7.664   3.473   2.634
 2824TIP3    H2 8414   7.555   3.461   2.530
 2825TIP3   OH2 8415   5.565   1.720   5.042
 2825TIP3    H1 8416   5.597   1.775   5.113
 2825TIP3    H2 8417   5.594   1.764   4.962
 2826TIP3   OH2 8418   8.107   1.356   3.881
 2826TIP3    H1 8419   8.095   1.408   3.802
 2826TIP3    H2 8420   8.201   1.342   3.887
 2827TIP3   OH2 8421   3.052   2.333   1.650
 2827TIP3    H1 8422   3.084   2.322   1.739
 2827TIP3    H2 8423   3.107   2.402   1.613
 2828TIP3   OH2 8424   3.758   2.657   4.966
 2828TIP3    H1 8425   3.685   2.598   4.952
 2828TIP3    H2 8426   3.800   2.625   5.046
 2829TIP3   OH2 8427   4.874   7.118   2.822
 2829TIP3    H1 8428   4.884   7.184   2.753
 2829TIP3    H2 8429   4.961   7.107   2.858
 2830TIP3   OH2 8430   7.728   5.578   3.381
 2830TIP3    H1 8431   7.670   5.554   3.453
 2830TIP3    H2 8432   7.706   5.516   3.311
 2831TIP3   OH2 8433   7.970   6.586   6.562
 2831TIP3    H1 8434   7.913   6.570   6.637
 2831TIP3    H2 8435   7.935   6.531   6.492
 2832TIP3   OH2 8436   3.305   6.782   1.057
 2832TIP3    H1 8437   3.268   6.837   0.988
 2832TIP3    H2 8438   3.262   6.813   1.137
 2833TIP3   OH2 8439   6.538   6.995   0.834
 2833TIP3    H1 8440   6.447   6.984   0.860
 2833TIP3    H2 8441   6.534   7.021   0.742
 2834TIP3   OH2 8442   1.681   2.905   0.859
 2834TIP3    H1 8443   1.703   2.911   0.766
 2834TIP3    H2 8444   1.743   2.840   0.894
 2835TIP3   OH2 8445   4.003   3.977   2.912
 2835TIP3    H1 8446   3.925   3.997   2.860
 2835TIP3    H2 8447   4.015   4.054   2.968
 2836TIP3   OH2 8448   7.173   5.540   0.055
 2836TIP3    H1 8449   7.098   5.600   0.058
 2836TIP3    H2 8450   7.153   5.473   0.119
 2837TIP3   OH2 8451   3.674   5.530   4.591
 2837TIP3    H1 8452   3.634   5.453   4.632
 2837TIP3    H2 8453   3.718   5.496   4.514
 2838TIP3   OH2 8454   4.592   5.588   4.691
 2838TIP3    H1 8455   4.540   5.654   4.645
 2838TIP3    H2 8456   4.564   5.505   4.653
 2839TIP3   OH2 8457   8.304   6.180   3.501
 2839TIP3    H1 8458   8.375   6.186   3.565
 2839TIP3    H2 8459   8.228   6.217   3.545
 2840TIP3   OH2 8460   0.853   5.546   4.128
 2840TIP3    H1 8461   0.797   5.527   4.053
 2840TIP3    H2 8462   0.823   5.485   4.196
 2841TIP3   OH2 8463   2.698   4.009   1.413
 2841TIP3    H1 8464   2.677   3.924   1.450
 2841TIP3    H2 8465   2.682   4.071   1.485
 2842TIP3   OH2 8466   0.921   0.822   1.109
 2842TIP3    H1 8467   0.935   0.896   1.168
 2842TIP3    H2 8468   0.931   0.859   1.021
 2843TIP3   OH2 8469   4.355   3.646   2.390
 2843TIP3    H1 8470   4.360   3.661   2.295
 2843TIP3    H2 8471   4.402   3.720   2.428
 2844TIP3   OH2 8472   4.407   2.550   2.169
 2844TIP3    H1 8473   4.419   2.635   2.127
 2844TIP3    H2 8474   4.382   2.491   2.099
 2845TIP3   OH2 8475   6.342   6.240   3.732
 2845TIP3    H1 8476   6.384   6.322   3.707
 2845TIP3    H2 8477   6.402   6.172   3.701
 2846TIP3   OH2 8478   3.724   5.037   1.319
 2846TIP3    H1 8479   3.706   4.943   1.326
 2846TIP3    H2 8480   3.819   5.043   1.307
 2847TIP3   OH2 8481   5.544   4.789   1.881
 2847TIP3    H1 8482   5.588   4.760   1.801
 2847TIP3    H2 8483   5.612   4.831   1.932
 2848TIP3   OH2 8484   2.566   3.123   0.332
 2848TIP3    H1 8485   2.599   3.204   0.293
 2848TIP3    H2 8486   2.641   3.063   0.330
 2849TIP3   OH2 8487   3.543   1.578   2.450
 2849TIP3    H1 8488   3.527   1.585   2.356
 2849TIP3    H2 8489   3.579   1.663   2.475
 2850TIP3   OH2 8490   8.352   7.189   1.877
 2850TIP3    H1 8491   8.317   7.157   1.960
 2850TIP3    H2 8492   8.427   7.243   1.901
 2851TIP3   OH2 8493   1.115   7.822   1.234
 2851TIP3    H1 8494   1.087   7.885   1.168
 2851TIP3    H2 8495   1.158   7.753   1.183
 2852TIP3   OH2 8496   0.953   6.034   4.772
 2852TIP3    H1 8497   0.936   6.099   4.705
 2852TIP3    H2 8498   0.997   5.962   4.726
 2853TIP3   OH2 8499   6.084   0.324   4.571
 2853TIP3    H1 8500   6.092   0.378   4.649
 2853TIP3    H2 8501   6.049   0.384   4.504
 2854TIP3   OH2 8502   2.613   2.082   4.827
 2854TIP3    H1 8503   2.654   2.056   4.745
 2854TIP3    H2 8504   2.554   2.009   4.849
 2855TIP3   OH2 8505   3.795   0.300   5.202
 2855TIP3    H1 8506   3.713   0.302   5.152
 2855TIP3    H2 8507   3.792   0.381   5.253
 2856TIP3   OH2 8508   8.242   0.137   5.300
 2856TIP3    H1 8509   8.311   0.192   5.265
 2856TIP3    H2 8510   8.262   0.049   5.267
 2857TIP3   OH2 8511   4.413   2.818   0.558
 2857TIP3    H1 8512   4.482   2.849   0.617
 2857TIP3    H2 8513   4.382   2.897   0.513
 2858TIP3   OH2 8514   7.382   2.782   3.219
 2858TIP3    H1 8515   7.436   2.849   3.177
 2858TIP3    H2 8516   7.445   2.713   3.244
 2859TIP3   OH2 8517   0.536   6.618   1.911
 2859TIP3    H1 8518   0.588   6.552   1.864
 2859TIP3    H2 8519   0.446   6.588   1.904
 2860TIP3   OH2 8520   1.116   1.057   1.078
 2860TIP3    H1 8521   1.061   1.133   1.096
 2860TIP3    H2 8522   1.080   1.019   0.998
 2861TIP3   OH2 8523   7.269   1.825   0.426
 2861TIP3    H1 8524   7.363   1.844   0.423
 2861TIP3    H2 8525   7.258   1.750   0.368
 2862TIP3   OH2 8526   4.164   2.920   5.340
 2862TIP3    H1 8527   4.119   2.862   5.279
 2862TIP3    H2 8528   4.197   2.991   5.286
 2863TIP3   OH2 8529   5.719   6.480   1.236
 2863TIP3    H1 8530   5.788   6.492   1.170
 2863TIP3    H2 8531   5.647   6.534   1.206
 2864TIP3   OH2 8532   4.647   6.993   2.661
 2864TIP3    H1 8533   4.737   6.988   2.692
 2864TIP3    H2 8534   4.611   7.070   2.704
 2865TIP3   OH2 8535   3.320   1.424   5.580
 2865TIP3    H1 8536   3.318   1.519   5.595
 2865TIP3    H2 8537   3.268   1.411   5.501
 2866TIP3   OH2 8538   6.804   2.060   0.333
 2866TIP3    H1 8539   6.859   2.127   0.374
 2866TIP3    H2 8540   6.722   2.064   0.382
 2867TIP3   OH2 8541   8.068   6.392   3.438
 2867TIP3    H1 8542   8.121   6.336   3.381
 2867TIP3    H2 8543   8.132   6.437   3.493
 2868TIP3   OH2 8544   2.472   1.916   2.398
 2868TIP3    H1 8545   2.482   1.917   2.493
 2868TIP3    H2 8546   2.420   1.838   2.380
 2869TIP3   OH2 8547   7.303   0.836   2.387
 2869TIP3    H1 8548   7.297   0.744   2.364
 2869TIP3    H2 8549   7.307   0.882   2.302
 2870TIP3   OH2 8550   1.382   6.311   4.009
 2870TIP3    H1 8551   1.316   6.319   4.078
 2870TIP3    H2 8552   1.389   6.217   3.994
 2871TIP3   OH2 8553   7.758   5.599   3.083
 2871TIP3    H1 8554   7.718   5.518   3.114
 2871TIP3    H2 8555   7.833   5.571   3.031
 2872TIP3   OH2 8556   2.059   3.437   1.442
 2872TIP3    H1 8557   2.033   3.378   1.513
 2872TIP3    H2 8558   2.024   3.396   1.363
 2873TIP3   OH2 8559   6.144   3.796   1.992
 2873TIP3    H1 8560   6.197   3.763   2.065
 2873TIP3    H2 8561   6.068   3.836   2.033
 2874TIP3   OH2 8562   5.350   4.115   4.504
 2874TIP3    H1 8563   5.363   4.050   4.573
 2874TIP3    H2 8564   5.427   4.171   4.509
 2875TIP3   OH2 8565   3.353   2.819   1.754
 2875TIP3    H1 8566   3.273   2.857   1.718
 2875TIP3    H2 8567   3.323   2.765   1.827
 2876TIP3   OH2 8568   3.295   0.691   4.731
 2876TIP3    H1 8569   3.345   0.612   4.754
 2876TIP3    H2 8570   3.305   0.698   4.636
 2877TIP3   OH2 8571   5.675   3.942   1.851
 2877TIP3    H1 8572   5.770   3.948   1.859
 2877TIP3    H2 8573   5.651   4.015   1.794
 2878TIP3   OH2 8574   6.575   2.176   0.513
 2878TIP3    H1 8575   6.664   2.211   0.511
 2878TIP3    H2 8576   6.574   2.117   0.589
 2879TIP3   OH2 8577   4.116   1.200   1.869
 2879TIP3    H1 8578   4.148   1.247   1.791
 2879TIP3    H2 8579   4.159   1.244   1.942
 2880TIP3   OH2 8580   5.544   0.295   5.976
 2880TIP3    H1 8581   5.487   0.249   6.038
 2880TIP3    H2 8582   5.581   0.367   6.026
 2881TIP3   OH2 8583   4.392   1.521   2.951
 2881TIP3    H1 8584   4.392   1.534   2.856
 2881TIP3    H2 8585   4.348   1.599   2.986
 2882TIP3   OH2 8586   3.806   1.140   4.621
 2882TIP3    H1 8587   3.834   1.229   4.598
 2882TIP3    H2 8588   3.821   1.133   4.715
 2883TIP3   OH2 8589   6.405   4.133   4.801
 2883TIP3    H1 8590   6.322   4.179   4.808
 2883TIP3    H2 8591   6.456   4.184   4.738
 2884TIP3   OH2 8592   6.218   5.948   3.861
 2884TIP3    H1 8593   6.308   5.938   3.830
 2884TIP3    H2 8594   6.177   6.008   3.799
 2885TIP3   OH2 8595   7.421   7.208   2.325
 2885TIP3    H1 8596   7.378   7.281   2.281
 2885TIP3    H2 8597   7.467   7.161   2.254
 2886TIP3   OH2 8598   4.415   2.636   5.441
 2886TIP3    H1 8599   4.352   2.597   5.379
 2886TIP3    H2 8600   4.494   2.583   5.430
 2887TIP3   OH2 8601   3.087   4.689   0.908
 2887TIP3    H1 8602   3.048   4.620   0.854
 2887TIP3    H2 8603   3.172   4.706   0.867
 2888TIP3   OH2 8604   6.603   1.041   5.519
 2888TIP3    H1 8605   6.683   1.039   5.572
 2888TIP3    H2 8606   6.632   1.077   5.435
 2889TIP3   OH2 8607   0.731   2.608   0.094
 2889TIP3    H1 8608   0.683   2.595   0.176
 2889TIP3    H2 8609   0.800   2.670   0.117
 2890TIP3   OH2 8610   1.060   5.641   1.810
 2890TIP3    H1 8611   1.004   5.677   1.742
 2890TIP3    H2 8612   1.029   5.551   1.822
 2891TIP3   OH2 8613   6.743   4.050   2.842
 2891TIP3    H1 8614   6.649   4.064   2.855
 2891TIP3    H2 8615   6.758   4.071   2.750
 2892TIP3   OH2 8616   7.927   5.679   3.723
 2892TIP3    H1 8617   7.939   5.763   3.767
 2892TIP3    H2 8618   8.005   5.668   3.669
 2893TIP3   OH2 8619   1.973   6.610   4.084
 2893TIP3    H1 8620   2.018   6.527   4.099
 2893TIP3    H2 8621   1.925   6.627   4.165
 2894TIP3   OH2 8622   3.535   6.329   3.799
 2894TIP3    H1 8623   3.469   6.263   3.778
 2894TIP3    H2 8624   3.614   6.300   3.753
 2895TIP3   OH2 8625   7.976   4.022   3.186
 2895TIP3    H1 8626   8.061   3.982   3.206
 2895TIP3    H2 8627   7.921   3.949   3.158
 2896TIP3   OH2 8628   6.690   7.690   3.802
 2896TIP3    H1 8629   6.734   7.636   3.868
 2896TIP3    H2 8630   6.744   7.769   3.796
 2897TIP3   OH2 8631   4.382   0.833   2.427
 2897TIP3    H1 8632   4.400   0.740   2.417
 2897TIP3    H2 8633   4.377   0.847   2.522
 2898TIP3   OH2 8634   0.522   4.424   3.321
 2898TIP3    H1 8635   0.515   4.370   3.399
 2898TIP3    H2 8636   0.433   4.430   3.287
 2899TIP3   OH2 8637   4.445   5.414   0.217
 2899TIP3    H1 8638   4.400   5.433   0.135
 2899TIP3    H2 8639   4.392   5.456   0.285
 2900TIP3   OH2 8640   2.069   0.167   1.470
 2900TIP3    H1 8641   2.022   0.084   1.479
 2900TIP3    H2 8642   2.075   0.181   1.376
 2901TIP3   OH2 8643   6.730   6.317   0.141
 2901TIP3    H1 8644   6.711   6.409   0.127
 2901TIP3    H2 8645   6.821   6.306   0.112
 2902TIP3   OH2 8646   0.575   5.782   0.995
 2902TIP3    H1 8647   0.538   5.862   1.033
 2902TIP3    H2 8648   0.617   5.812   0.914
 2903TIP3   OH2 8649   1.675   7.078   0.888
 2903TIP3    H1 8650   1.693   7.157   0.939
 2903TIP3    H2 8651   1.643   7.015   0.952
 2904TIP3   OH2 8652   4.753   1.906   3.525
 2904TIP3    H1 8653   4.758   2.002   3.527
 2904TIP3    H2 8654   4.660   1.886   3.527
 2905TIP3   OH2 8655   0.368   4.060   6.781
 2905TIP3    H1 8656   0.277   4.048   6.808
 2905TIP3    H2 8657   0.372   4.149   6.748
 2906TIP3   OH2 8658   5.860   3.143   4.980
 2906TIP3    H1 8659   5.878   3.236   4.972
 2906TIP3    H2 8660   5.843   3.129   5.073
 2907TIP3   OH2 8661   7.892   1.704   0.898
 2907TIP3    H1 8662   7.937   1.620   0.909
 2907TIP3    H2 8663   7.810   1.695   0.947
 2908TIP3   OH2 8664   0.893   3.437   0.728
 2908TIP3    H1 8665   0.950   3.503   0.689
 2908TIP3    H2 8666   0.874   3.471   0.816
 2909TIP3   OH2 8667   0.983   3.832   0.190
 2909TIP3    H1 8668   0.978   3.755   0.247
 2909TIP3    H2 8669   0.909   3.822   0.130
 2910TIP3   OH2 8670   2.863   3.108   3.400
 2910TIP3    H1 8671   2.947   3.071   3.372
 2910TIP3    H2 8672   2.870   3.202   3.381
 2911TIP3   OH2 8673   5.034   4.171   1.393
 2911TIP3    H1 8674   5.046   4.154   1.300
 2911TIP3    H2 8675   4.970   4.242   1.397
 2912TIP3   OH2 8676   2.661   3.979   1.129
 2912TIP3    H1 8677   2.602   4.048   1.100
 2912TIP3    H2 8678   2.680   4.000   1.220
 2913TIP3   OH2 8679   7.375   7.643   1.589
 2913TIP3    H1 8680   7.340   7.708   1.650
 2913TIP3    H2 8681   7.364   7.559   1.634
 2914TIP3   OH2 8682   1.490   0.427   1.990
 2914TIP3    H1 8683   1.410   0.459   2.033
 2914TIP3    H2 8684   1.490   0.472   1.905
 2915TIP3   OH2 8685   5.926   2.040   0.763
 2915TIP3    H1 8686   5.982   2.107   0.725
 2915TIP3    H2 8687   5.868   2.013   0.692
 2916TIP3   OH2 8688   6.917   3.631   1.367
 2916TIP3    H1 8689   6.834   3.601   1.404
 2916TIP3    H2 8690   6.898   3.721   1.339
 2917TIP3   OH2 8691   7.560   5.155   5.058
 2917TIP3    H1 8692   7.530   5.078   5.105
 2917TIP3    H2 8693   7.615   5.121   4.988
 2918TIP3   OH2 8694   3.303   3.188   6.516
 2918TIP3    H1 8695   3.252   3.267   6.497
 2918TIP3    H2 8696   3.247   3.137   6.575
 2919TIP3   OH2 8697   7.510   4.679   1.497
 2919TIP3    H1 8698   7.586   4.677   1.555
 2919TIP3    H2 8699   7.436   4.698   1.555
 2920TIP3   OH2 8700   4.364   6.400   6.885
 2920TIP3    H1 8701   4.318   6.474   6.847
 2920TIP3    H2 8702   4.397   6.350   6.810
 2921TIP3   OH2 8703   5.219   4.613   2.900
 2921TIP3    H1 8704   5.139   4.644   2.942
 2921TIP3    H2 8705   5.235   4.674   2.828
 2922TIP3   OH2 8706   3.982   1.739   5.883
 2922TIP3    H1 8707   3.948   1.801   5.818
 2922TIP3    H2 8708   4.057   1.785   5.922
 2923TIP3   OH2 8709   0.047   2.379   2.668
 2923TIP3    H1 8710   0.026   2.335   2.751
 2923TIP3    H2 8711   0.079   2.309   2.611
 2924TIP3   OH2 8712   4.110   2.769   0.243
 2924TIP3    H1 8713   4.189   2.787   0.191
 2924TIP3    H2 8714   4.044   2.744   0.178
 2925TIP3   OH2 8715   7.149   6.722   3.962
 2925TIP3    H1 8716   7.215   6.669   4.007
 2925TIP3    H2 8717   7.113   6.778   4.031
 2926TIP3   OH2 8718   2.514   2.098   3.348
 2926TIP3    H1 8719   2.422   2.082   3.366
 2926TIP3    H2 8720   2.550   2.132   3.430
 2927TIP3   OH2 8721   4.984   6.380   1.184
 2927TIP3    H1 8722   4.917   6.378   1.252
 2927TIP3    H2 8723   4.939   6.416   1.107
 2928TIP3   OH2 8724   8.006   7.526   1.338
 2928TIP3    H1 8725   7.927   7.489   1.377
 2928TIP3    H2 8726   8.076   7.497   1.396
 2929TIP3   OH2 8727   2.861   3.060   4.635
 2929TIP3    H1 8728   2.929   3.017   4.688
 2929TIP3    H2 8729   2.780   3.047   4.685
 2930TIP3   OH2 8730   7.194   6.738   1.392
 2930TIP3    H1 8731   7.289   6.739   1.392
 2930TIP3    H2 8732   7.169   6.830   1.403
 2931TIP3   OH2 8733   6.217   4.202   0.968
 2931TIP3    H1 8734   6.184   4.125   1.014
 2931TIP3    H2 8735   6.187   4.276   1.020
 2932TIP3   OH2 8736   2.303   1.605   4.458
 2932TIP3    H1 8737   2.341   1.691   4.472
 2932TIP3    H2 8738   2.297   1.567   4.545
 2933TIP3   OH2 8739   1.470   2.761   4.409
 2933TIP3    H1 8740   1.450   2.843   4.453
 2933TIP3    H2 8741   1.417   2.763   4.329
 2934TIP3   OH2 8742   0.557   2.886   6.303
 2934TIP3    H1 8743   0.536   2.821   6.236
 2934TIP3    H2 8744   0.652   2.900   6.293
 2935TIP3   OH2 8745   5.242   4.385   1.172
 2935TIP3    H1 8746   5.153   4.364   1.200
 2935TIP3    H2 8747   5.292   4.392   1.253
 2936TIP3   OH2 8748   3.286   1.258   2.015
 2936TIP3    H1 8749   3.372   1.300   2.026
 2936TIP3    H2 8750   3.288   1.225   1.925
 2937TIP3   OH2 8751   1.590   0.353   5.955
 2937TIP3    H1 8752   1.642   0.432   5.968
 2937TIP3    H2 8753   1.627   0.313   5.876
 2938TIP3   OH2 8754   2.870   5.271   1.377
 2938TIP3    H1 8755   2.912   5.297   1.295
 2938TIP3    H2 8756   2.843   5.180   1.363
 2939TIP3   OH2 8757   4.036   4.470   0.656
 2939TIP3    H1 8758   4.017   4.545   0.600
 2939TIP3    H2 8759   4.130   4.458   0.650
 2940TIP3   OH2 8760   5.007   1.045   2.462
 2940TIP3    H1 8761   5.016   1.097   2.383
 2940TIP3    H2 8762   4.971   0.961   2.432
 2941TIP3   OH2 8763   4.056   0.195   5.158
 2941TIP3    H1 8764   4.109   0.268   5.190
 2941TIP3    H2 8765   3.969   0.210   5.193
 2942TIP3   OH2 8766   4.604   5.287   6.321
 2942TIP3    H1 8767   4.541   5.315   6.387
 2942TIP3    H2 8768   4.689   5.314   6.354
 2943TIP3   OH2 8769   1.172   4.800   1.680
 2943TIP3    H1 8770   1.106   4.825   1.745
 2943TIP3    H2 8771   1.252   4.788   1.730
 2944TIP3   OH2 8772   4.144   3.586   3.768
 2944TIP3    H1 8773   4.212   3.579   3.702
 2944TIP3    H2 8774   4.157   3.672   3.808
 2945TIP3   OH2 8775   0.707   3.084   3.467
 2945TIP3    H1 8776   0.760   3.012   3.501
 2945TIP3    H2 8777   0.629   3.042   3.430
 2946TIP3   OH2 8778   5.303   5.520   2.640
 2946TIP3    H1 8779   5.266   5.570   2.567
 2946TIP3    H2 8780   5.229   5.467   2.672
 2947TIP3   OH2 8781   1.824   1.926   3.732
 2947TIP3    H1 8782   1.745   1.945   3.783
 2947TIP3    H2 8783   1.882   2.000   3.750
 2948TIP3   OH2 8784   1.416   7.702   1.827
 2948TIP3    H1 8785   1.328   7.738   1.843
 2948TIP3    H2 8786   1.473   7.750   1.887
 2949TIP3   OH2 8787   1.414   7.890   2.620
 2949TIP3    H1 8788   1.370   7.882   2.705
 2949TIP3    H2 8789   1.345   7.921   2.561
 2950TIP3   OH2 8790   0.913   4.787   1.537
 2950TIP3    H1 8791   0.888   4.877   1.555
 2950TIP3    H2 8792   1.001   4.779   1.574
 2951TIP3   OH2 8793   6.350   5.995   1.876
 2951TIP3    H1 8794   6.313   6.082   1.859
 2951TIP3    H2 8795   6.324   5.975   1.966
 2952TIP3   OH2 8796   6.873   5.455   1.146
 2952TIP3    H1 8797   6.812   5.395   1.104
 2952TIP3    H2 8798   6.909   5.405   1.219
 2953TIP3   OH2 8799   7.082   6.461   2.666
 2953TIP3    H1 8800   7.002   6.451   2.614
 2953TIP3    H2 8801   7.089   6.380   2.716
 2954TIP3   OH2 8802   6.495   0.641   4.629
 2954TIP3    H1 8803   6.423   0.697   4.599
 2954TIP3    H2 8804   6.569   0.700   4.638
 2955TIP3   OH2 8805   3.585   4.855   0.844
 2955TIP3    H1 8806   3.609   4.936   0.799
 2955TIP3    H2 8807   3.524   4.883   0.912
 2956TIP3   OH2 8808   4.440   1.551   0.645
 2956TIP3    H1 8809   4.454   1.469   0.597
 2956TIP3    H2 8810   4.362   1.536   0.698
 2957TIP3   OH2 8811   5.834   6.292   1.649
 2957TIP3    H1 8812   5.852   6.256   1.736
 2957TIP3    H2 8813   5.751   6.251   1.624
 2958TIP3   OH2 8814   2.110   6.827   3.407
 2958TIP3    H1 8815   2.145   6.756   3.354
 2958TIP3    H2 8816   2.058   6.784   3.474
 2959TIP3   OH2 8817   4.901   0.279   1.116
 2959TIP3    H1 8818   4.835   0.289   1.185
 2959TIP3    H2 8819   4.948   0.362   1.117
 2960TIP3   OH2 8820   1.842   0.332   2.911
 2960TIP3    H1 8821   1.917   0.272   2.916
 2960TIP3    H2 8822   1.792   0.302   2.836
 2961TIP3   OH2 8823   0.948   4.024   3.488
 2961TIP3    H1 8824   0.953   4.048   3.395
 2961TIP3    H2 8825   0.889   4.088   3.527
 2962TIP3   OH2 8826   5.889   2.366   6.610
 2962TIP3    H1 8827   5.816   2.346   6.668
 2962TIP3    H2 8828   5.922   2.451   6.639
 2963TIP3   OH2 8829   6.929   5.266   3.298
 2963TIP3    H1 8830   6.945   5.192   3.356
 2963TIP3    H2 8831   6.901   5.227   3.216
 2964TIP3   OH2 8832   3.820   4.623   6.222
 2964TIP3    H1 8833   3.895   4.660   6.268
 2964TIP3    H2 8834   3.813   4.533   6.255
 2965TIP3   OH2 8835   7.304   2.810   4.634
 2965TIP3    H1 8836   7.304   2.724   4.675
 2965TIP3    H2 8837   7.294   2.871   4.706
 2966TIP3   OH2 8838   5.732   6.159   3.860
 2966TIP3    H1 8839   5.771   6.116   3.785
 2966TIP3    H2 8840   5.789   6.136   3.934
 2967TIP3   OH2 8841   0.101   7.837   0.739
 2967TIP3    H1 8842   0.017   7.881   0.751
 2967TIP3    H2 8843   0.154   7.900   0.691
 2968TIP3   OH2 8844   1.263   3.597   2.994
 2968TIP3    H1 8845   1.351   3.602   2.956
 2968TIP3    H2 8846   1.218   3.531   2.941
 2969TIP3   OH2 8847   1.131   6.882   3.646
 2969TIP3    H1 8848   1.191   6.901   3.718
 2969TIP3    H2 8849   1.166   6.802   3.607
 2970TIP3   OH2 8850   0.432   5.334   2.343
 2970TIP3    H1 8851   0.445   5.325   2.438
 2970TIP3    H2 8852   0.338   5.350   2.334
 2971TIP3   OH2 8853   0.898   1.123   6.010
 2971TIP3    H1 8854   0.947   1.085   6.083
 2971TIP3    H2 8855   0.946   1.203   5.988
 2972TIP3   OH2 8856   0.859   1.541   2.234
 2972TIP3    H1 8857   0.866   1.463   2.290
 2972TIP3    H2 8858   0.884   1.510   2.147
 2973TIP3   OH2 8859   8.424   4.462   2.296
 2973TIP3    H1 8860   8.364   4.483   2.225
 2973TIP3    H2 8861   8.463   4.379   2.272
 2974TIP3   OH2 8862   7.813   4.142   1.547
 2974TIP3    H1 8863   7.776   4.227   1.569
 2974TIP3    H2 8864   7.809   4.093   1.629
 2975TIP3   OH2 8865   7.664   4.827   2.034
 2975TIP3    H1 8866   7.605   4.760   1.999
 2975TIP3    H2 8867   7.625   4.853   2.117
 2976TIP3   OH2 8868   4.355   2.271   2.848
 2976TIP3    H1 8869   4.410   2.294   2.923
 2976TIP3    H2 8870   4.272   2.245   2.886
 2977TIP3   OH2 8871   8.326   0.895   4.635
 2977TIP3    H1 8872   8.378   0.917   4.712
 2977TIP3    H2 8873   8.337   0.801   4.625
 2978TIP3   OH2 8874   1.356   5.803   6.013
 2978TIP3    H1 8875   1.449   5.782   6.024
 2978TIP3    H2 8876   1.331   5.758   5.932
 2979TIP3   OH2 8877   2.208   6.151   5.958
 2979TIP3    H1 8878   2.138   6.103   6.003
 2979TIP3    H2 8879   2.289   6.121   6.000
 2980TIP3   OH2 8880   3.306   6.889   1.325
 2980TIP3    H1 8881   3.232   6.846   1.368
 2980TIP3    H2 8882   3.321   6.968   1.378
 2981TIP3   OH2 8883   1.775   4.806   4.036
 2981TIP3    H1 8884   1.705   4.856   3.993
 2981TIP3    H2 8885   1.766   4.718   4.002
 2982TIP3   OH2 8886   1.449   2.196   5.231
 2982TIP3    H1 8887   1.541   2.200   5.203
 2982TIP3    H2 8888   1.447   2.248   5.311
 2983TIP3   OH2 8889   0.774   3.781   1.161
 2983TIP3    H1 8890   0.829   3.816   1.231
 2983TIP3    H2 8891   0.747   3.859   1.111
 2984TIP3   OH2 8892   4.639   7.223   0.021
 2984TIP3    H1 8893   4.675   7.221  -0.067
 2984TIP3    H2 8894   4.680   7.149   0.065
 2985TIP3   OH2 8895   4.307   6.081   5.783
 2985TIP3    H1 8896   4.328   5.988   5.791
 2985TIP3    H2 8897   4.211   6.084   5.779
 2986TIP3   OH2 8898   5.493   1.462   5.011
 2986TIP3    H1 8899   5.530   1.441   4.925
 2986TIP3    H2 8900   5.518   1.553   5.027
 2987TIP3   OH2 8901   7.776   0.132   2.868
 2987TIP3    H1 8902   7.694   0.154   2.824
 2987TIP3    H2 8903   7.752   0.067   2.934
 2988TIP3   OH2 8904   2.381   4.236   1.640
 2988TIP3    H1 8905   2.348   4.146   1.641
 2988TIP3    H2 8906   2.472   4.227   1.609
 2989TIP3   OH2 8907   2.610   7.433   0.354
 2989TIP3    H1 8908   2.523   7.461   0.325
 2989TIP3    H2 8909   2.662   7.428   0.274
 2990TIP3   OH2 8910   6.274   1.767   1.151
 2990TIP3    H1 8911   6.268   1.847   1.203
 2990TIP3    H2 8912   6.368   1.757   1.133
 2991TIP3   OH2 8913   6.522   6.589   4.612
 2991TIP3    H1 8914   6.488   6.597   4.523
 2991TIP3    H2 8915   6.461   6.530   4.656
 2992TIP3   OH2 8916   1.199   4.342   5.329
 2992TIP3    H1 8917   1.171   4.256   5.297
 2992TIP3    H2 8918   1.291   4.331   5.351
 2993TIP3   OH2 8919   7.205   5.448   4.514
 2993TIP3    H1 8920   7.259   5.523   4.542
 2993TIP3    H2 8921   7.269   5.381   4.489
 2994TIP3   OH2 8922   2.514   2.760   5.837
 2994TIP3    H1 8923   2.569   2.752   5.759
 2994TIP3    H2 8924   2.428   2.786   5.803
 2995TIP3   OH2 8925   0.708   1.807   0.093
 2995TIP3    H1 8926   0.739   1.721   0.122
 2995TIP3    H2 8927   0.765   1.869   0.139
 2996TIP3   OH2 8928   5.658   5.846   6.131
 2996TIP3    H1 8929   5.705   5.873   6.210
 2996TIP3    H2 8930   5.586   5.792   6.163
 2997TIP3   OH2 8931   6.454   2.455   4.519
 2997TIP3    H1 8932   6.383   2.448   4.455
 2997TIP3    H2 8933   6.533   2.433   4.469
 2998TIP3   OH2 8934   7.479   2.395   1.873
 2998TIP3    H1 8935   7.521   2.408   1.958
 2998TIP3    H2 8936   7.397   2.349   1.893
 2999TIP3   OH2 8937   4.876   3.368   1.392
 2999TIP3    H1 8938   4.903   3.353   1.483
 2999TIP3    H2 8939   4.922   3.302   1.341
 3000TIP3   OH2 8940   4.945   6.112   4.231
 3000TIP3    H1 8941   4.918   6.020   4.238
 3000TIP3    H2 8942   5.016   6.120   4.294
 3001TIP3   OH2 8943   7.568   7.744   5.850
 3001TIP3    H1 8944   7.575   7.797   5.770
 3001TIP3    H2 8945   7.658   7.716   5.868
 3002TIP3   OH2 8946   6.943   6.167   5.418
 3002TIP3    H1 8947   6.902   6.130   5.496
 3002TIP3    H2 8948   6.982   6.249   5.449
 3003TIP3   OH2 8949   0.983   3.558   2.461
 3003TIP3    H1 8950   0.954   3.475   2.423
 3003TIP3    H2 8951   0.902   3.604   2.484
 3004TIP3   OH2 8952   4.575   3.092   4.635
 3004TIP3    H1 8953   4.543   3.124   4.551
 3004TIP3    H2 8954   4.499   3.099   4.694
 3005TIP3   OH2 8955   2.976   2.020   5.795
 3005TIP3    H1 8956   2.920   2.054   5.864
 3005TIP3    H2 8957   3.062   2.056   5.814
 3006TIP3   OH2 8958   0.951   4.081   6.846
 3006TIP3    H1 8959   1.039   4.044   6.857
 3006TIP3    H2 8960   0.907   4.018   6.789
 3007TIP3   OH2 8961   6.964   7.859   3.280
 3007TIP3    H1 8962   6.993   7.899   3.362
 3007TIP3    H2 8963   7.010   7.908   3.212
 3008TIP3   OH2 8964   6.597   0.288   4.787
 3008TIP3    H1 8965   6.597   0.360   4.724
 3008TIP3    H2 8966   6.545   0.320   4.861
 3009TIP3   OH2 8967   0.602   6.300   4.612
 3009TIP3    H1 8968   0.680   6.300   4.668
 3009TIP3    H2 8969   0.633   6.332   4.527
 3010TIP3   OH2 8970   8.091   2.198   6.783
 3010TIP3    H1 8971   8.062   2.206   6.691
 3010TIP3    H2 8972   8.150   2.271   6.796
 3011TIP3   OH2 8973   7.166   2.814   0.194
 3011TIP3    H1 8974   7.110   2.876   0.241
 3011TIP3    H2 8975   7.188   2.748   0.260
 3012TIP3   OH2 8976   1.933   5.530   5.247
 3012TIP3    H1 8977   1.965   5.610   5.207
 3012TIP3    H2 8978   1.939   5.464   5.179
 3013TIP3   OH2 8979   5.092   2.958   5.285
 3013TIP3    H1 8980   5.023   3.023   5.272
 3013TIP3    H2 8981   5.172   3.001   5.252
 3014TIP3   OH2 8982   4.858   2.698   1.193
 3014TIP3    H1 8983   4.884   2.670   1.105
 3014TIP3    H2 8984   4.764   2.713   1.186
 3015TIP3   OH2 8985   4.886   5.683   0.206
 3015TIP3    H1 8986   4.806   5.658   0.251
 3015TIP3    H2 8987   4.902   5.773   0.235
 3016TIP3   OH2 8988   6.803   5.743   3.619
 3016TIP3    H1 8989   6.876   5.769   3.563
 3016TIP3    H2 8990   6.809   5.648   3.624
 3017TIP3   OH2 8991   6.556   3.490   6.781
 3017TIP3    H1 8992   6.523   3.561   6.836
 3017TIP3    H2 8993   6.644   3.474   6.813
 3018TIP3   OH2 8994   1.950   5.494   4.033
 3018TIP3    H1 8995   1.899   5.454   4.104
 3018TIP3    H2 8996   1.976   5.419   3.979
 3019TIP3   OH2 8997   7.464   7.648   3.817
 3019TIP3    H1 8998   7.370   7.642   3.835
 3019TIP3    H2 8999   7.494   7.720   3.872
 3020TIP3   OH2 9000   5.555   3.650   2.471
 3020TIP3    H1 9001   5.502   3.663   2.550
 3020TIP3    H2 9002   5.619   3.584   2.497
 3021TIP3   OH2 9003   6.007   7.308   5.778
 3021TIP3    H1 9004   6.088   7.353   5.801
 3021TIP3    H2 9005   5.940   7.350   5.831
 3022TIP3   OH2 9006   6.504   5.378   3.512
 3022TIP3    H1 9007   6.443   5.437   3.468
 3022TIP3    H2 9008   6.521   5.309   3.448
 3023TIP3   OH2 9009   3.214   0.899   5.519
 3023TIP3    H1 9010   3.235   0.991   5.535
 3023TIP3    H2 9011   3.297   0.853   5.533
 3024TIP3   OH2 9012   2.506   0.120   1.943
 3024TIP3    H1 9013   2.434   0.063   1.914
 3024TIP3    H2 9014   2.504   0.194   1.883
 3025TIP3   OH2 9015   0.334   6.059   1.229
 3025TIP3    H1 9016   0.345   6.150   1.255
 3025TIP3    H2 9017   0.384   6.051   1.147
 3026TIP3   OH2 9018   5.844   4.813   1.845
 3026TIP3    H1 9019   5.846   4.720   1.824
 3026TIP3    H2 9020   5.872   4.817   1.937
 3027TIP3   OH2 9021   5.588   2.598   6.566
 3027TIP3    H1 9022   5.534   2.617   6.643
 3027TIP3    H2 9023   5.656   2.665   6.568
 3028TIP3   OH2 9024   7.734   0.182   5.425
 3028TIP3    H1 9025   7.719   0.262   5.475
 3028TIP3    H2 9026   7.823   0.155   5.450
 3029TIP3   OH2 9027   5.574   3.044   3.401
 3029TIP3    H1 9028   5.613   3.093   3.329
 3029TIP3    H2 9029   5.649   3.001   3.442
 3030TIP3   OH2 9030   2.059   5.446   6.151
 3030TIP3    H1 9031   1.988   5.437   6.215
 3030TIP3    H2 9032   2.138   5.426   6.201
 3031TIP3   OH2 9033   1.651   7.808   2.850
 3031TIP3    H1 9034   1.633   7.900   2.834
 3031TIP3    H2 9035   1.574   7.762   2.817
 3032TIP3   OH2 9036   2.014   5.057   2.732
 3032TIP3    H1 9037   1.982   5.003   2.804
 3032TIP3    H2 9038   1.981   5.015   2.653
 3033TIP3   OH2 9039   7.208   3.252   2.260
 3033TIP3    H1 9040   7.171   3.340   2.258
 3033TIP3    H2 9041   7.268   3.249   2.185
 3034TIP3   OH2 9042   1.013   5.005   5.997
 3034TIP3    H1 9043   1.043   4.968   5.914
 3034TIP3    H2 9044   0.935   5.055   5.974
 3035TIP3   OH2 9045   5.116   6.325   3.554
 3035TIP3    H1 9046   5.179   6.394   3.574
 3035TIP3    H2 9047   5.145   6.250   3.605
 3036TIP3   OH2 9048   2.631   0.908   1.002
 3036TIP3    H1 9049   2.634   0.937   1.093
 3036TIP3    H2 9050   2.607   0.986   0.952
 3037TIP3   OH2 9051   0.802   5.633   1.072
 3037TIP3    H1 9052   0.823   5.706   1.131
 3037TIP3    H2 9053   0.729   5.666   1.020
 3038TIP3   OH2 9054   0.462   0.013   1.771
 3038TIP3    H1 9055   0.507   0.079   1.823
 3038TIP3    H2 9056   0.441   0.057   1.689
 3039TIP3   OH2 9057   5.250   4.506   4.896
 3039TIP3    H1 9058   5.245   4.435   4.960
 3039TIP3    H2 9059   5.327   4.485   4.843
 3040TIP3   OH2 9060   6.698   1.415   6.286
 3040TIP3    H1 9061   6.685   1.498   6.331
 3040TIP3    H2 9062   6.639   1.418   6.211
 3041TIP3   OH2 9063   2.979   3.874   6.855
 3041TIP3    H1 9064   2.887   3.896   6.870
 3041TIP3    H2 9065   2.985   3.781   6.878
 3042TIP3   OH2 9066   7.832   1.673   5.440
 3042TIP3    H1 9067   7.909   1.619   5.420
 3042TIP3    H2 9068   7.838   1.746   5.380
 3043TIP3   OH2 9069   0.709   6.641   2.213
 3043TIP3    H1 9070   0.657   6.574   2.258
 3043TIP3    H2 9071   0.645   6.693   2.164
 3044TIP3   OH2 9072   5.950   4.873   2.141
 3044TIP3    H1 9073   6.032   4.923   2.135
 3044TIP3    H2 9074   5.978   4.782   2.144
 3045TIP3   OH2 9075   3.266   7.647   1.244
 3045TIP3    H1 9076   3.255   7.706   1.318
 3045TIP3    H2 9077   3.246   7.700   1.167
 3046TIP3   OH2 9078   1.623   5.066   2.818
 3046TIP3    H1 9079   1.638   5.003   2.747
 3046TIP3    H2 9080   1.593   5.145   2.773
 3047TIP3   OH2 9081   5.517   6.096   0.100
 3047TIP3    H1 9082   5.530   6.055   0.185
 3047TIP3    H2 9083   5.515   6.190   0.118
 3048TIP3   OH2 9084   5.530   7.002   1.615
 3048TIP3    H1 9085   5.467   6.988   1.686
 3048TIP3    H2 9086   5.593   6.930   1.625
 3049TIP3   OH2 9087   5.595   1.481   2.514
 3049TIP3    H1 9088   5.645   1.553   2.476
 3049TIP3    H2 9089   5.590   1.501   2.608
 3050TIP3   OH2 9090   2.426   1.182   0.855
 3050TIP3    H1 9091   2.382   1.249   0.907
 3050TIP3    H2 9092   2.517   1.212   0.849
 3051TIP3   OH2 9093   3.525   0.484   3.068
 3051TIP3    H1 9094   3.606   0.520   3.104
 3051TIP3    H2 9095   3.500   0.546   2.999
 3052TIP3   OH2 9096   1.885   2.416   4.156
 3052TIP3    H1 9097   1.975   2.447   4.164
 3052TIP3    H2 9098   1.886   2.328   4.194
 3053TIP3   OH2 9099   1.127   3.019   6.780
 3053TIP3    H1 9100   1.083   2.971   6.710
 3053TIP3    H2 9101   1.137   3.108   6.747
 3054TIP3   OH2 9102   2.935   0.380   4.601
 3054TIP3    H1 9103   2.843   0.400   4.587
 3054TIP3    H2 9104   2.965   0.344   4.517
 3055TIP3   OH2 9105   8.327   6.501   6.088
 3055TIP3    H1 9106   8.338   6.428   6.148
 3055TIP3    H2 9107   8.269   6.562   6.134
 3056TIP3   OH2 9108   3.356   5.796   4.969
 3056TIP3    H1 9109   3.422   5.742   4.925
 3056TIP3    H2 9110   3.404   5.875   4.994
 3057TIP3   OH2 9111   3.530   2.814   0.890
 3057TIP3    H1 9112   3.467   2.856   0.948
 3057TIP3    H2 9113   3.480   2.744   0.847
 3058TIP3   OH2 9114   5.707   4.390   1.928
 3058TIP3    H1 9115   5.720   4.451   2.001
 3058TIP3    H2 9116   5.764   4.424   1.859
 3059TIP3   OH2 9117   3.641   5.247   5.160
 3059TIP3    H1 9118   3.557   5.200   5.163
 3059TIP3    H2 9119   3.621   5.333   5.196
 3060TIP3   OH2 9120   2.772   4.801   6.737
 3060TIP3    H1 9121   2.829   4.873   6.762
 3060TIP3    H2 9122   2.773   4.803   6.641
 3061TIP3   OH2 9123   5.330   1.984   5.487
 3061TIP3    H1 9124   5.410   2.032   5.466
 3061TIP3    H2 9125   5.270   2.052   5.519
 3062TIP3   OH2 9126   2.111   4.266   3.745
 3062TIP3    H1 9127   2.100   4.237   3.835
 3062TIP3    H2 9128   2.206   4.279   3.735
 3063TIP3   OH2 9129   6.105   1.006   3.512
 3063TIP3    H1 9130   6.085   1.016   3.419
 3063TIP3    H2 9131   6.186   0.955   3.515
 3064TIP3   OH2 9132   5.703   0.892   4.693
 3064TIP3    H1 9133   5.756   0.869   4.616
 3064TIP3    H2 9134   5.613   0.882   4.663
 3065TIP3   OH2 9135   7.563   1.050   1.165
 3065TIP3    H1 9136   7.503   0.999   1.111
 3065TIP3    H2 9137   7.597   0.988   1.230
 3066TIP3   OH2 9138   4.801   2.174   5.353
 3066TIP3    H1 9139   4.845   2.247   5.308
 3066TIP3    H2 9140   4.870   2.108   5.364
 3067TIP3   OH2 9141   8.115   1.338   2.420
 3067TIP3    H1 9142   8.189   1.312   2.475
 3067TIP3    H2 9143   8.093   1.426   2.451
 3068TIP3   OH2 9144   6.199   0.677   1.704
 3068TIP3    H1 9145   6.263   0.613   1.734
 3068TIP3    H2 9146   6.176   0.648   1.615
 3069TIP3   OH2 9147   1.302   2.875   5.333
 3069TIP3    H1 9148   1.312   2.824   5.414
 3069TIP3    H2 9149   1.208   2.878   5.317
 3070TIP3   OH2 9150   7.704   2.258   5.606
 3070TIP3    H1 9151   7.742   2.219   5.685
 3070TIP3    H2 9152   7.645   2.191   5.571
 3071TIP3   OH2 9153   2.146   3.642   1.055
 3071TIP3    H1 9154   2.111   3.717   1.007
 3071TIP3    H2 9155   2.136   3.665   1.147
 3072TIP3   OH2 9156   7.288   1.310   6.674
 3072TIP3    H1 9157   7.322   1.306   6.763
 3072TIP3    H2 9158   7.365   1.296   6.619
 3073TIP3   OH2 9159   6.558   1.511   6.597
 3073TIP3    H1 9160   6.601   1.567   6.533
 3073TIP3    H2 9161   6.621   1.502   6.668
 3074TIP3   OH2 9162   4.308   4.949   0.173
 3074TIP3    H1 9163   4.315   4.983   0.083
 3074TIP3    H2 9164   4.346   5.018   0.227
 3075TIP3   OH2 9165   6.807   6.745   1.374
 3075TIP3    H1 9166   6.828   6.815   1.435
 3075TIP3    H2 9167   6.858   6.670   1.403
 3076TIP3   OH2 9168   3.044   4.823   5.766
 3076TIP3    H1 9169   3.098   4.897   5.794
 3076TIP3    H2 9170   3.022   4.842   5.675
 3077TIP3   OH2 9171   6.329   4.515   1.152
 3077TIP3    H1 9172   6.392   4.442   1.158
 3077TIP3    H2 9173   6.259   4.482   1.096
 3078TIP3   OH2 9174   6.851   4.917   4.764
 3078TIP3    H1 9175   6.848   4.986   4.697
 3078TIP3    H2 9176   6.868   4.837   4.715
 3079TIP3   OH2 9177   2.676   0.099   1.246
 3079TIP3    H1 9178   2.717   0.041   1.182
 3079TIP3    H2 9179   2.621   0.158   1.193
 3080TIP3   OH2 9180   3.817   3.166   1.573
 3080TIP3    H1 9181   3.869   3.087   1.559
 3080TIP3    H2 9182   3.831   3.188   1.665
 3081TIP3   OH2 9183   0.146   6.589   1.466
 3081TIP3    H1 9184   0.194   6.657   1.420
 3081TIP3    H2 9185   0.214   6.537   1.509
 3082TIP3   OH2 9186   1.916   3.661   4.922
 3082TIP3    H1 9187   2.006   3.657   4.955
 3082TIP3    H2 9188   1.864   3.618   4.989
 3083TIP3   OH2 9189   0.096   0.080   0.338
 3083TIP3    H1 9190   0.065   0.166   0.307
 3083TIP3    H2 9191   0.103   0.090   0.433
 3084TIP3   OH2 9192   8.182   7.507   0.813
 3084TIP3    H1 9193   8.203   7.522   0.906
 3084TIP3    H2 9194   8.088   7.492   0.812
 3085TIP3   OH2 9195   4.687   4.885   4.209
 3085TIP3    H1 9196   4.686   4.979   4.191
 3085TIP3    H2 9197   4.757   4.851   4.153
 3086TIP3   OH2 9198   2.186   2.766   3.153
 3086TIP3    H1 9199   2.114   2.703   3.148
 3086TIP3    H2 9200   2.248   2.736   3.086
 3087TIP3   OH2 9201   6.536   1.787   1.039
 3087TIP3    H1 9202   6.598   1.839   0.987
 3087TIP3    H2 9203   6.590   1.719   1.079
 3088TIP3   OH2 9204   6.148   0.036   6.592
 3088TIP3    H1 9205   6.117  -0.053   6.606
 3088TIP3    H2 9206   6.151   0.074   6.680
 3089TIP3   OH2 9207   5.160   4.852   1.555
 3089TIP3    H1 9208   5.233   4.911   1.575
 3089TIP3    H2 9209   5.162   4.786   1.624
 3090TIP3   OH2 9210   2.959   0.756   6.288
 3090TIP3    H1 9211   3.012   0.678   6.301
 3090TIP3    H2 9212   2.892   0.730   6.225
 3091TIP3   OH2 9213   3.171   7.409   6.245
 3091TIP3    H1 9214   3.199   7.449   6.327
 3091TIP3    H2 9215   3.080   7.436   6.235
 3092TIP3   OH2 9216   5.283   2.065   6.835
 3092TIP3    H1 9217   5.210   2.028   6.885
 3092TIP3    H2 9218   5.305   1.998   6.770
 3093TIP3   OH2 9219   8.378   2.731   4.051
 3093TIP3    H1 9220   8.381   2.727   3.955
 3093TIP3    H2 9221   8.394   2.640   4.079
 3094TIP3   OH2 9222   2.917   3.576   5.582
 3094TIP3    H1 9223   2.864   3.525   5.644
 3094TIP3    H2 9224   2.853   3.608   5.518
 3095TIP3   OH2 9225   7.960   6.355   2.690
 3095TIP3    H1 9226   7.931   6.441   2.660
 3095TIP3    H2 9227   7.986   6.369   2.781
 3096TIP3   OH2 9228   1.065   3.257   5.186
 3096TIP3    H1 9229   1.008   3.238   5.260
 3096TIP3    H2 9230   1.154   3.243   5.220
 3097TIP3   OH2 9231   4.757   7.897   5.372
 3097TIP3    H1 9232   4.832   7.954   5.388
 3097TIP3    H2 9233   4.777   7.816   5.418
 3098TIP3   OH2 9234   4.786   2.748   6.653
 3098TIP3    H1 9235   4.806   2.661   6.687
 3098TIP3    H2 9236   4.870   2.781   6.621
 3099TIP3   OH2 9237   4.561   3.654   6.568
 3099TIP3    H1 9238   4.619   3.720   6.605
 3099TIP3    H2 9239   4.489   3.705   6.529
 3100TIP3   OH2 9240   2.223   2.448   5.922
 3100TIP3    H1 9241   2.257   2.426   5.835
 3100TIP3    H2 9242   2.189   2.365   5.956
 3101TIP3   OH2 9243   4.475   1.538   1.916
 3101TIP3    H1 9244   4.567   1.522   1.936
 3101TIP3    H2 9245   4.469   1.633   1.903
 3102TIP3   OH2 9246   1.325   4.766   5.179
 3102TIP3    H1 9247   1.271   4.845   5.179
 3102TIP3    H2 9248   1.273   4.702   5.130
 3103TIP3   OH2 9249   5.036   0.879   0.088
 3103TIP3    H1 9250   4.966   0.826   0.126
 3103TIP3    H2 9251   5.074   0.924   0.163
 3104TIP3   OH2 9252   3.718   1.235   5.106
 3104TIP3    H1 9253   3.700   1.141   5.097
 3104TIP3    H2 9254   3.678   1.274   5.028
 3105TIP3   OH2 9255   8.375   3.615   0.217
 3105TIP3    H1 9256   8.342   3.547   0.276
 3105TIP3    H2 9257   8.349   3.584   0.130
 3106TIP3   OH2 9258   1.675   1.406   5.484
 3106TIP3    H1 9259   1.652   1.487   5.439
 3106TIP3    H2 9260   1.708   1.348   5.415
 3107TIP3   OH2 9261   6.626   5.749   4.982
 3107TIP3    H1 9262   6.720   5.744   4.999
 3107TIP3    H2 9263   6.617   5.734   4.888
 3108TIP3   OH2 9264   3.491   6.727   0.661
 3108TIP3    H1 9265   3.502   6.636   0.687
 3108TIP3    H2 9266   3.469   6.773   0.742
 3109TIP3   OH2 9267   5.324   2.257   2.960
 3109TIP3    H1 9268   5.392   2.214   2.908
 3109TIP3    H2 9269   5.259   2.189   2.977
 3110TIP3   OH2 9270   1.061   0.849   4.481
 3110TIP3    H1 9271   1.154   0.824   4.481
 3110TIP3    H2 9272   1.014   0.769   4.461
 3111TIP3   OH2 9273   1.965   0.766   1.759
 3111TIP3    H1 9274   1.942   0.846   1.712
 3111TIP3    H2 9275   1.882   0.722   1.774
 3112TIP3   OH2 9276   4.531   0.216   1.017
 3112TIP3    H1 9277   4.596   0.152   0.992
 3112TIP3    H2 9278   4.577   0.300   1.017
 3113TIP3   OH2 9279   0.367   0.861   4.830
 3113TIP3    H1 9280   0.319   0.943   4.820
 3113TIP3    H2 9281   0.443   0.885   4.883
 3114TIP3   OH2 9282   1.615   5.592   0.951
 3114TIP3    H1 9283   1.642   5.502   0.968
 3114TIP3    H2 9284   1.586   5.592   0.860
 3115TIP3   OH2 9285   4.189   6.285   2.894
 3115TIP3    H1 9286   4.113   6.276   2.836
 3115TIP3    H2 9287   4.246   6.211   2.871
 3116TIP3   OH2 9288   2.337   0.299   0.048
 3116TIP3    H1 9289   2.275   0.297   0.121
 3116TIP3    H2 9290   2.312   0.225  -0.007
 3117TIP3   OH2 9291   5.015   2.646   2.526
 3117TIP3    H1 9292   5.042   2.573   2.581
 3117TIP3    H2 9293   5.077   2.646   2.453
 3118TIP3   OH2 9294   8.148   2.219   0.663
 3118TIP3    H1 9295   8.214   2.206   0.595
 3118TIP3    H2 9296   8.183   2.173   0.739
 3119TIP3   OH2 9297   5.032   2.996   3.482
 3119TIP3    H1 9298   5.080   3.020   3.403
 3119TIP3    H2 9299   4.952   3.049   3.479
 3120TIP3   OH2 9300   0.318   0.449   3.389
 3120TIP3    H1 9301   0.253   0.474   3.323
 3120TIP3    H2 9302   0.311   0.354   3.395
 3121TIP3   OH2 9303   3.573   5.692   3.816
 3121TIP3    H1 9304   3.480   5.694   3.836
 3121TIP3    H2 9305   3.592   5.778   3.779
 3122TIP3   OH2 9306   8.357   6.558   6.611
 3122TIP3    H1 9307   8.288   6.616   6.642
 3122TIP3    H2 9308   8.434   6.582   6.664
 3123TIP3   OH2 9309   1.161   7.883   3.109
 3123TIP3    H1 9310   1.197   7.826   3.177
 3123TIP3    H2 9311   1.066   7.876   3.120
 3124TIP3   OH2 9312   0.443   6.921   0.490
 3124TIP3    H1 9313   0.505   6.980   0.534
 3124TIP3    H2 9314   0.489   6.837   0.486
 3125TIP3   OH2 9315   8.300   0.986   6.470
 3125TIP3    H1 9316   8.392   0.994   6.494
 3125TIP3    H2 9317   8.259   1.066   6.503
 3126TIP3   OH2 9318   1.997   0.739   1.456
 3126TIP3    H1 9319   2.018   0.666   1.513
 3126TIP3    H2 9320   2.034   0.816   1.501
 3127TIP3   OH2 9321   8.117   5.666   6.487
 3127TIP3    H1 9322   8.095   5.600   6.553
 3127TIP3    H2 9323   8.033   5.692   6.450
 3128TIP3   OH2 9324   7.856   2.058   1.475
 3128TIP3    H1 9325   7.930   2.007   1.507
 3128TIP3    H2 9326   7.814   2.000   1.411
 3129TIP3   OH2 9327   2.443   7.423   5.147
 3129TIP3    H1 9328   2.468   7.513   5.124
 3129TIP3    H2 9329   2.456   7.418   5.242
 3130TIP3   OH2 9330   1.449   6.610   3.995
 3130TIP3    H1 9331   1.357   6.589   3.980
 3130TIP3    H2 9332   1.488   6.611   3.908
 3131TIP3   OH2 9333   0.860   6.507   5.466
 3131TIP3    H1 9334   0.792   6.573   5.451
 3131TIP3    H2 9335   0.813   6.430   5.497
 3132TIP3   OH2 9336   7.795   1.770   6.223
 3132TIP3    H1 9337   7.842   1.853   6.237
 3132TIP3    H2 9338   7.811   1.749   6.131
 3133TIP3   OH2 9339   6.519   1.255   0.415
 3133TIP3    H1 9340   6.559   1.168   0.410
 3133TIP3    H2 9341   6.534   1.293   0.328
 3134TIP3   OH2 9342   0.703   1.856   3.642
 3134TIP3    H1 9343   0.776   1.814   3.597
 3134TIP3    H2 9344   0.656   1.783   3.684
 3135TIP3   OH2 9345   1.615   7.031   6.460
 3135TIP3    H1 9346   1.528   7.021   6.421
 3135TIP3    H2 9347   1.644   7.118   6.431
 3136TIP3   OH2 9348   4.805   2.477   1.050
 3136TIP3    H1 9349   4.730   2.481   0.990
 3136TIP3    H2 9350   4.821   2.383   1.062
 3137TIP3   OH2 9351   4.952   6.869   2.622
 3137TIP3    H1 9352   5.047   6.863   2.637
 3137TIP3    H2 9353   4.943   6.877   2.527
 3138TIP3   OH2 9354   5.258   3.864   1.017
 3138TIP3    H1 9355   5.331   3.807   1.041
 3138TIP3    H2 9356   5.236   3.910   1.098
 3139TIP3   OH2 9357   1.042   3.570   2.000
 3139TIP3    H1 9358   0.952   3.584   2.029
 3139TIP3    H2 9359   1.056   3.635   1.931
 3140TIP3   OH2 9360   1.902   2.175   6.495
 3140TIP3    H1 9361   1.815   2.215   6.501
 3140TIP3    H2 9362   1.963   2.247   6.510
 3141TIP3   OH2 9363   2.008   3.808   6.638
 3141TIP3    H1 9364   2.085   3.756   6.616
 3141TIP3    H2 9365   1.949   3.796   6.564
 3142TIP3   OH2 9366   3.831   0.293   2.532
 3142TIP3    H1 9367   3.878   0.292   2.615
 3142TIP3    H2 9368   3.838   0.383   2.500
 3143TIP3   OH2 9369   3.094   3.787   4.771
 3143TIP3    H1 9370   3.078   3.876   4.742
 3143TIP3    H2 9371   3.187   3.785   4.794
 3144TIP3   OH2 9372   2.270   5.877   5.771
 3144TIP3    H1 9373   2.359   5.870   5.807
 3144TIP3    H2 9374   2.261   5.970   5.747
 3145TIP3   OH2 9375   6.417   3.539   5.364
 3145TIP3    H1 9376   6.336   3.576   5.399
 3145TIP3    H2 9377   6.430   3.458   5.413
 3146TIP3   OH2 9378   2.619   3.557   1.731
 3146TIP3    H1 9379   2.523   3.557   1.729
 3146TIP3    H2 9380   2.643   3.467   1.750
 3147TIP3   OH2 9381   2.535   5.007   0.606
 3147TIP3    H1 9382   2.519   5.097   0.634
 3147TIP3    H2 9383   2.623   4.987   0.637
 3148TIP3   OH2 9384   4.848  -0.032   1.938
 3148TIP3    H1 9385   4.823  -0.071   2.022
 3148TIP3    H2 9386   4.942  -0.014   1.946
 3149TIP3   OH2 9387   5.957   1.495   3.141
 3149TIP3    H1 9388   5.881   1.486   3.198
 3149TIP3    H2 9389   5.991   1.406   3.132
 3150TIP3   OH2 9390   6.037   4.839   4.580
 3150TIP3    H1 9391   5.975   4.815   4.512
 3150TIP3    H2 9392   6.038   4.764   4.640
 3151TIP3   OH2 9393   0.666   2.365   0.494
 3151TIP3    H1 9394   0.726   2.399   0.560
 3151TIP3    H2 9395   0.720   2.351   0.417
 3152TIP3   OH2 9396   1.644   4.859   6.459
 3152TIP3    H1 9397   1.668   4.811   6.538
 3152TIP3    H2 9398   1.629   4.791   6.393
 3153TIP3   OH2 9399   0.193   5.684   5.111
 3153TIP3    H1 9400   0.204   5.630   5.033
 3153TIP3    H2 9401   0.222   5.771   5.084
 3154TIP3   OH2 9402   6.527   4.481   5.382
 3154TIP3    H1 9403   6.617   4.510   5.370
 3154TIP3    H2 9404   6.519   4.406   5.323
 3155TIP3   OH2 9405   5.636   0.121   6.303
 3155TIP3    H1 9406   5.603   0.046   6.253
 3155TIP3    H2 9407   5.711   0.152   6.253
 3156TIP3   OH2 9408   5.438   0.826   0.693
 3156TIP3    H1 9409   5.411   0.739   0.721
 3156TIP3    H2 9410   5.464   0.815   0.602
 3157TIP3   OH2 9411   4.403   4.224   1.095
 3157TIP3    H1 9412   4.480   4.202   1.147
 3157TIP3    H2 9413   4.369   4.139   1.065
 3158TIP3   OH2 9414   0.979   5.567   2.590
 3158TIP3    H1 9415   0.980   5.521   2.506
 3158TIP3    H2 9416   0.924   5.644   2.574
 3159TIP3   OH2 9417   1.778   7.034   5.576
 3159TIP3    H1 9418   1.736   7.032   5.662
 3159TIP3    H2 9419   1.832   7.112   5.578
 3160TIP3   OH2 9420   5.569   3.820   2.739
 3160TIP3    H1 9421   5.616   3.823   2.822
 3160TIP3    H2 9422   5.603   3.893   2.689
 3161TIP3   OH2 9423   4.514   6.871   5.626
 3161TIP3    H1 9424   4.444   6.826   5.673
 3161TIP3    H2 9425   4.595   6.836   5.663
 3162TIP3   OH2 9426   5.104   2.130   2.717
 3162TIP3    H1 9427   5.094   2.219   2.684
 3162TIP3    H2 9428   5.111   2.076   2.638
 3163TIP3   OH2 9429   5.276   7.624   4.907
 3163TIP3    H1 9430   5.194   7.666   4.884
 3163TIP3    H2 9431   5.340   7.661   4.846
 3164TIP3   OH2 9432   4.211   6.380   3.290
 3164TIP3    H1 9433   4.160   6.324   3.348
 3164TIP3    H2 9434   4.196   6.468   3.323
 3165TIP3   OH2 9435   5.979   5.313   4.228
 3165TIP3    H1 9436   5.913   5.273   4.284
 3165TIP3    H2 9437   5.946   5.401   4.211
 3166TIP3   OH2 9438   5.497   4.113   2.336
 3166TIP3    H1 9439   5.545   4.184   2.293
 3166TIP3    H2 9440   5.559   4.040   2.339
 3167TIP3   OH2 9441   3.217   4.624   3.383
 3167TIP3    H1 9442   3.177   4.711   3.382
 3167TIP3    H2 9443   3.200   4.591   3.471
 3168TIP3   OH2 9444   3.568   7.890   6.209
 3168TIP3    H1 9445   3.605   7.830   6.273
 3168TIP3    H2 9446   3.515   7.835   6.151
 3169TIP3   OH2 9447   4.311   1.138   4.355
 3169TIP3    H1 9448   4.365   1.120   4.279
 3169TIP3    H2 9449   4.247   1.067   4.356
 3170TIP3   OH2 9450   5.552   4.430   5.565
 3170TIP3    H1 9451   5.627   4.477   5.601
 3170TIP3    H2 9452   5.543   4.353   5.621
 3171TIP3   OH2 9453   6.881   2.894   6.062
 3171TIP3    H1 9454   6.928   2.866   5.983
 3171TIP3    H2 9455   6.933   2.859   6.135
 3172TIP3   OH2 9456   1.239   4.286   3.688
 3172TIP3    H1 9457   1.325   4.274   3.727
 3172TIP3    H2 9458   1.190   4.208   3.715
 3173TIP3   OH2 9459   5.182   4.947   2.745
 3173TIP3    H1 9460   5.107   4.957   2.686
 3173TIP3    H2 9461   5.254   4.991   2.700
 3174TIP3   OH2 9462   4.763   7.498   3.352
 3174TIP3    H1 9463   4.804   7.571   3.304
 3174TIP3    H2 9464   4.673   7.496   3.319
 3175TIP3   OH2 9465   8.047   2.389   2.013
 3175TIP3    H1 9466   8.115   2.437   1.965
 3175TIP3    H2 9467   8.087   2.368   2.097
 3176TIP3   OH2 9468   2.630   3.358   6.264
 3176TIP3    H1 9469   2.683   3.437   6.269
 3176TIP3    H2 9470   2.648   3.312   6.347
 3177TIP3   OH2 9471   0.655   3.845   6.525
 3177TIP3    H1 9472   0.591   3.908   6.492
 3177TIP3    H2 9473   0.652   3.772   6.462
 3178TIP3   OH2 9474   2.724   3.129   5.596
 3178TIP3    H1 9475   2.632   3.108   5.610
 3178TIP3    H2 9476   2.746   3.087   5.513
 3179TIP3   OH2 9477   0.803   3.841   6.199
 3179TIP3    H1 9478   0.876   3.880   6.247
 3179TIP3    H2 9479   0.844   3.784   6.134
 3180TIP3   OH2 9480   2.970   2.560   2.960
 3180TIP3    H1 9481   3.044   2.620   2.954
 3180TIP3    H2 9482   2.990   2.506   3.036
 3181TIP3   OH2 9483   4.563   7.399   4.886
 3181TIP3    H1 9484   4.624   7.463   4.851
 3181TIP3    H2 9485   4.617   7.322   4.905
 3182TIP3   OH2 9486   7.979   2.108   5.652
 3182TIP3    H1 9487   7.907   2.121   5.712
 3182TIP3    H2 9488   8.053   2.154   5.692
 3183TIP3   OH2 9489   0.382   6.187   2.555
 3183TIP3    H1 9490   0.350   6.271   2.588
 3183TIP3    H2 9491   0.477   6.190   2.569
 3184TIP3   OH2 9492   2.399   3.831   1.313
 3184TIP3    H1 9493   2.487   3.798   1.295
 3184TIP3    H2 9494   2.344   3.752   1.314
 3185TIP3   OH2 9495   1.640   3.515   3.124
 3185TIP3    H1 9496   1.677   3.432   3.097
 3185TIP3    H2 9497   1.582   3.541   3.052
 3186TIP3   OH2 9498   0.432   0.035   1.258
 3186TIP3    H1 9499   0.524   0.040   1.284
 3186TIP3    H2 9500   0.432   0.057   1.165
 3187TIP3   OH2 9501   5.600   7.023   5.314
 3187TIP3    H1 9502   5.682   7.066   5.292
 3187TIP3    H2 9503   5.539   7.094   5.330
 3188TIP3   OH2 9504   1.658   1.387   4.106
 3188TIP3    H1 9505   1.752   1.402   4.112
 3188TIP3    H2 9506   1.620   1.448   4.169
 3189TIP3   OH2 9507   3.103   1.071   1.075
 3189TIP3    H1 9508   3.115   1.019   1.154
 3189TIP3    H2 9509   3.033   1.027   1.027
 3190TIP3   OH2 9510   8.385   5.427   3.025
 3190TIP3    H1 9511   8.430   5.390   3.102
 3190TIP3    H2 9512   8.456   5.444   2.962
 3191TIP3   OH2 9513   5.238   6.190   6.628
 3191TIP3    H1 9514   5.220   6.185   6.722
 3191TIP3    H2 9515   5.268   6.103   6.605
 3192TIP3   OH2 9516   7.249   3.536   3.187
 3192TIP3    H1 9517   7.342   3.555   3.192
 3192TIP3    H2 9518   7.238   3.492   3.102
 3193TIP3   OH2 9519   6.473   3.198   0.418
 3193TIP3    H1 9520   6.496   3.119   0.467
 3193TIP3    H2 9521   6.535   3.264   0.448
 3194TIP3   OH2 9522   8.244   0.741   6.570
 3194TIP3    H1 9523   8.272   0.819   6.522
 3194TIP3    H2 9524   8.326   0.700   6.599
 3195TIP3   OH2 9525   8.076   3.347   1.925
 3195TIP3    H1 9526   8.057   3.426   1.875
 3195TIP3    H2 9527   8.063   3.372   2.017
 3196TIP3   OH2 9528   6.102   5.463   4.905
 3196TIP3    H1 9529   6.185   5.419   4.884
 3196TIP3    H2 9530   6.103   5.472   5.000
 3197TIP3   OH2 9531   7.035   1.333   1.795
 3197TIP3    H1 9532   7.006   1.423   1.779
 3197TIP3    H2 9533   7.044   1.295   1.708
 3198TIP3   OH2 9534   0.686   6.273   1.042
 3198TIP3    H1 9535   0.764   6.236   1.000
 3198TIP3    H2 9536   0.700   6.257   1.136
 3199TIP3   OH2 9537   4.050   0.845   2.106
 3199TIP3    H1 9538   4.132   0.891   2.090
 3199TIP3    H2 9539   4.056   0.816   2.197
 3200TIP3   OH2 9540   2.050   3.062   2.923
 3200TIP3    H1 9541   2.117   3.004   2.887
 3200TIP3    H2 9542   2.092   3.148   2.928
 3201TIP3   OH2 9543   3.222   5.133   3.807
 3201TIP3    H1 9544   3.276   5.158   3.882
 3201TIP3    H2 9545   3.282   5.137   3.732
 3202TIP3   OH2 9546   7.792   0.662   0.001
 3202TIP3    H1 9547   7.788   0.753   0.031
 3202TIP3    H2 9548   7.867   0.659  -0.058
 3203TIP3   OH2 9549   8.277   1.998   5.790
 3203TIP3    H1 9550   8.232   1.962   5.867
 3203TIP3    H2 9551   8.267   2.093   5.799
 3204TIP3   OH2 9552   4.576   7.531   2.315
 3204TIP3    H1 9553   4.668   7.558   2.316
 3204TIP3    H2 9554   4.536   7.588   2.249
 3205TIP3   OH2 9555   4.755   0.981   4.184
 3205TIP3    H1 9556   4.814   1.042   4.140
 3205TIP3    H2 9557   4.742   0.910   4.120
 3206TIP3   OH2 9558   7.682   5.886   5.381
 3206TIP3    H1 9559   7.626   5.845   5.446
 3206TIP3    H2 9560   7.699   5.817   5.317
 3207TIP3   OH2 9561   0.393   6.800   2.755
 3207TIP3    H1 9562   0.455   6.869   2.730
 3207TIP3    H2 9563   0.310   6.827   2.715
 3208TIP3   OH2 9564   3.729   0.771   4.584
 3208TIP3    H1 9565   3.723   0.781   4.679
 3208TIP3    H2 9566   3.720   0.677   4.569
 3209TIP3   OH2 9567   5.680   3.141   3.150
 3209TIP3    H1 9568   5.767   3.181   3.149
 3209TIP3    H2 9569   5.692   3.057   3.106
 3210TIP3   OH2 9570   2.769   2.155   3.177
 3210TIP3    H1 9571   2.691   2.133   3.227
 3210TIP3    H2 9572   2.806   2.071   3.151
 3211TIP3   OH2 9573   0.254   4.906   0.187
 3211TIP3    H1 9574   0.343   4.931   0.163
 3211TIP3    H2 9575   0.263   4.871   0.276
 3212TIP3   OH2 9576   3.922   7.283   0.938
 3212TIP3    H1 9577   3.971   7.222   0.994
 3212TIP3    H2 9578   3.987   7.347   0.911
 3213TIP3   OH2 9579   6.444   4.395   3.161
 3213TIP3    H1 9580   6.367   4.348   3.194
 3213TIP3    H2 9581   6.474   4.446   3.236
 3214TIP3   OH2 9582   4.467   3.743   4.054
 3214TIP3    H1 9583   4.504   3.831   4.054
 3214TIP3    H2 9584   4.524   3.693   3.997
 3215TIP3   OH2 9585   5.534   5.856   0.294
 3215TIP3    H1 9586   5.449   5.899   0.296
 3215TIP3    H2 9587   5.521   5.775   0.344
 3216TIP3   OH2 9588   0.217   6.585   4.824
 3216TIP3    H1 9589   0.236   6.679   4.815
 3216TIP3    H2 9590   0.145   6.582   4.887
 3217TIP3   OH2 9591   3.169   0.904   0.707
 3217TIP3    H1 9592   3.101   0.913   0.775
 3217TIP3    H2 9593   3.251   0.911   0.755
 3218TIP3   OH2 9594   2.250   0.675   3.525
 3218TIP3    H1 9595   2.342   0.648   3.520
 3218TIP3    H2 9596   2.219   0.672   3.434
 3219TIP3   OH2 9597   1.291   1.116   6.176
 3219TIP3    H1 9598   1.254   1.038   6.218
 3219TIP3    H2 9599   1.251   1.118   6.089
 3220TIP3   OH2 9600   7.191   0.592   0.590
 3220TIP3    H1 9601   7.196   0.578   0.496
 3220TIP3    H2 9602   7.098   0.599   0.608
 3221TIP3   OH2 9603   8.149   2.993   5.816
 3221TIP3    H1 9604   8.070   2.996   5.871
 3221TIP3    H2 9605   8.119   3.020   5.729
 3222TIP3   OH2 9606   4.257   6.418   4.939
 3222TIP3    H1 9607   4.277   6.357   5.010
 3222TIP3    H2 9608   4.292   6.502   4.969
 3223TIP3   OH2 9609   3.104   4.292   1.278
 3223TIP3    H1 9610   3.053   4.282   1.198
 3223TIP3    H2 9611   3.183   4.240   1.263
 3224TIP3   OH2 9612   4.392   0.905   0.639
 3224TIP3    H1 9613   4.437   0.985   0.613
 3224TIP3    H2 9614   4.441   0.874   0.715
 3225TIP3   OH2 9615   2.829   2.833   0.152
 3225TIP3    H1 9616   2.785   2.875   0.077
 3225TIP3    H2 9617   2.847   2.905   0.212
 3226TIP3   OH2 9618   4.881   6.661   4.154
 3226TIP3    H1 9619   4.857   6.647   4.246
 3226TIP3    H2 9620   4.847   6.584   4.109
 3227TIP3   OH2 9621   2.443   0.256   5.913
 3227TIP3    H1 9622   2.524   0.207   5.898
 3227TIP3    H2 9623   2.453   0.294   6.000
 3228TIP3   OH2 9624   5.954   6.677   5.846
 3228TIP3    H1 9625   5.878   6.628   5.875
 3228TIP3    H2 9626   5.977   6.637   5.762
 3229TIP3   OH2 9627   7.739   3.514   1.982
 3229TIP3    H1 9628   7.763   3.424   2.002
 3229TIP3    H2 9629   7.806   3.544   1.920
 3230TIP3   OH2 9630   6.049   0.319   0.918
 3230TIP3    H1 9631   6.016   0.352   0.835
 3230TIP3    H2 9632   6.144   0.312   0.906
 3231TIP3   OH2 9633   2.721   6.867   6.808
 3231TIP3    H1 9634   2.771   6.794   6.844
 3231TIP3    H2 9635   2.630   6.837   6.810
 3232TIP3   OH2 9636   4.455   5.139   4.913
 3232TIP3    H1 9637   4.377   5.089   4.891
 3232TIP3    H2 9638   4.424   5.229   4.924
 3233TIP3   OH2 9639   8.210   6.049   0.786
 3233TIP3    H1 9640   8.302   6.036   0.765
 3233TIP3    H2 9641   8.165   6.045   0.702
 3234TIP3   OH2 9642   0.335   4.426   6.243
 3234TIP3    H1 9643   0.336   4.359   6.311
 3234TIP3    H2 9644   0.286   4.499   6.282
 3235TIP3   OH2 9645   3.458   2.717   3.090
 3235TIP3    H1 9646   3.498   2.651   3.033
 3235TIP3    H2 9647   3.522   2.729   3.161
 3236TIP3   OH2 9648   3.017   6.144   5.428
 3236TIP3    H1 9649   3.092   6.188   5.469
 3236TIP3    H2 9650   2.943   6.166   5.485
 3237TIP3   OH2 9651   4.960   6.292   0.807
 3237TIP3    H1 9652   4.959   6.240   0.887
 3237TIP3    H2 9653   5.037   6.262   0.760
 3238TIP3   OH2 9654   1.726   2.196   4.437
 3238TIP3    H1 9655   1.716   2.250   4.515
 3238TIP3    H2 9656   1.652   2.135   4.440
 3239TIP3   OH2 9657   4.105   6.617   6.223
 3239TIP3    H1 9658   4.152   6.554   6.167
 3239TIP3    H2 9659   4.015   6.586   6.224
 3240TIP3   OH2 9660   7.179   4.209   6.516
 3240TIP3    H1 9661   7.203   4.161   6.436
 3240TIP3    H2 9662   7.087   4.230   6.504
 3241TIP3   OH2 9663   1.842   0.741   2.697
 3241TIP3    H1 9664   1.766   0.683   2.707
 3241TIP3    H2 9665   1.809   0.827   2.719
 3242TIP3   OH2 9666   2.523   5.954   6.309
 3242TIP3    H1 9667   2.578   5.915   6.240
 3242TIP3    H2 9668   2.435   5.921   6.290
 3243TIP3   OH2 9669   3.129   3.260   3.994
 3243TIP3    H1 9670   3.149   3.353   3.981
 3243TIP3    H2 9671   3.167   3.217   3.917
 3244TIP3   OH2 9672   2.041   1.745   1.781
 3244TIP3    H1 9673   2.120   1.705   1.816
 3244TIP3    H2 9674   2.072   1.824   1.736
 3245TIP3   OH2 9675   4.190   0.478   4.589
 3245TIP3    H1 9676   4.223   0.561   4.556
 3245TIP3    H2 9677   4.188   0.488   4.684
 3246TIP3   OH2 9678   1.243   4.278   4.182
 3246TIP3    H1 9679   1.228   4.208   4.245
 3246TIP3    H2 9680   1.197   4.250   4.103
 3247TIP3   OH2 9681   4.475   4.659   3.429
 3247TIP3    H1 9682   4.481   4.567   3.455
 3247TIP3    H2 9683   4.401   4.693   3.479
 3248TIP3   OH2 9684   5.029   6.387   2.704
 3248TIP3    H1 9685   4.943   6.402   2.742
 3248TIP3    H2 9686   5.029   6.294   2.681
 3249TIP3   OH2 9687   0.880   1.864   4.121
 3249TIP3    H1 9688   0.855   1.839   4.032
 3249TIP3    H2 9689   0.976   1.868   4.119
 3250TIP3   OH2 9690   4.812   4.684   3.601
 3250TIP3    H1 9691   4.843   4.774   3.596
 3250TIP3    H2 9692   4.737   4.687   3.661
 3251TIP3   OH2 9693   5.270   0.621   5.418
 3251TIP3    H1 9694   5.227   0.669   5.488
 3251TIP3    H2 9695   5.305   0.690   5.360
 3252TIP3   OH2 9696   0.801   6.965   0.781
 3252TIP3    H1 9697   0.786   6.870   0.775
 3252TIP3    H2 9698   0.772   6.999   0.696
 3253TIP3   OH2 9699   7.888   3.578   6.195
 3253TIP3    H1 9700   7.971   3.567   6.148
 3253TIP3    H2 9701   7.832   3.625   6.133
 3254TIP3   OH2 9702   5.103   3.827   2.285
 3254TIP3    H1 9703   5.088   3.733   2.276
 3254TIP3    H2 9704   5.076   3.847   2.375
 3255TIP3   OH2 9705   1.448   6.969   3.941
 3255TIP3    H1 9706   1.429   6.883   3.904
 3255TIP3    H2 9707   1.543   6.977   3.937
 3256TIP3   OH2 9708   7.081   0.283   4.264
 3256TIP3    H1 9709   7.141   0.330   4.207
 3256TIP3    H2 9710   6.997   0.286   4.218
 3257TIP3   OH2 9711   3.343   4.195   0.254
 3257TIP3    H1 9712   3.284   4.164   0.184
 3257TIP3    H2 9713   3.410   4.244   0.207
 3258TIP3   OH2 9714   8.093   3.101   5.505
 3258TIP3    H1 9715   8.013   3.061   5.470
 3258TIP3    H2 9716   8.067   3.189   5.530
 3259TIP3   OH2 9717   5.082   3.483   6.090
 3259TIP3    H1 9718   5.102   3.472   6.183
 3259TIP3    H2 9719   5.016   3.416   6.072
 3260TIP3   OH2 9720   6.979   4.078   1.492
 3260TIP3    H1 9721   6.937   4.002   1.530
 3260TIP3    H2 9722   6.937   4.153   1.535
 3261TIP3   OH2 9723   4.652   4.236   6.478
 3261TIP3    H1 9724   4.650   4.327   6.448
 3261TIP3    H2 9725   4.565   4.222   6.517
 3262TIP3   OH2 9726   6.087   5.980   0.262
 3262TIP3    H1 9727   6.058   5.989   0.171
 3262TIP3    H2 9728   6.117   6.067   0.286
 3263TIP3   OH2 9729   5.970   2.380   1.626
 3263TIP3    H1 9730   6.002   2.419   1.708
 3263TIP3    H2 9731   6.048   2.345   1.584
 3264TIP3   OH2 9732   1.067   1.550   2.811
 3264TIP3    H1 9733   0.997   1.615   2.797
 3264TIP3    H2 9734   1.057   1.489   2.738
 3265TIP3   OH2 9735   7.858   5.473   5.272
 3265TIP3    H1 9736   7.942   5.519   5.262
 3265TIP3    H2 9737   7.799   5.519   5.212
 3266TIP3   OH2 9738   6.540   7.852   2.523
 3266TIP3    H1 9739   6.610   7.798   2.485
 3266TIP3    H2 9740   6.584   7.909   2.586
 3267TIP3   OH2 9741   2.181   4.552   5.161
 3267TIP3    H1 9742   2.253   4.616   5.163
 3267TIP3    H2 9743   2.224   4.469   5.143
 3268TIP3   OH2 9744   2.005   5.348   2.162
 3268TIP3    H1 9745   2.024   5.300   2.243
 3268TIP3    H2 9746   2.088   5.391   2.140
 3269TIP3   OH2 9747   6.402   6.655   5.765
 3269TIP3    H1 9748   6.437   6.596   5.831
 3269TIP3    H2 9749   6.343   6.714   5.813
 3270TIP3   OH2 9750   7.542   7.373   6.205
 3270TIP3    H1 9751   7.508   7.375   6.116
 3270TIP3    H2 9752   7.632   7.406   6.197
 3271TIP3   OH2 9753   6.251   1.490   1.062
 3271TIP3    H1 9754   6.249   1.566   1.121
 3271TIP3    H2 9755   6.320   1.511   0.999
 3272TIP3   OH2 9756   2.040   4.898   0.193
 3272TIP3    H1 9757   1.986   4.877   0.269
 3272TIP3    H2 9758   1.978   4.908   0.121
 3273TIP3   OH2 9759   6.129   2.454   5.356
 3273TIP3    H1 9760   6.040   2.418   5.359
 3273TIP3    H2 9761   6.173   2.415   5.431
 3274TIP3   OH2 9762   6.185   5.905   1.530
 3274TIP3    H1 9763   6.278   5.892   1.512
 3274TIP3    H2 9764   6.146   5.917   1.443
 3275TIP3   OH2 9765   1.915   1.256   0.896
 3275TIP3    H1 9766   1.954   1.270   0.810
 3275TIP3    H2 9767   1.820   1.258   0.879
 3276TIP3   OH2 9768   3.202   5.045   4.152
 3276TIP3    H1 9769   3.288   5.008   4.172
 3276TIP3    H2 9770   3.220   5.120   4.096
 3277TIP3   OH2 9771   7.013   5.771   1.620
 3277TIP3    H1 9772   7.067   5.822   1.680
 3277TIP3    H2 9773   7.053   5.785   1.534
 3278TIP3   OH2 9774   1.943   7.438   4.235
 3278TIP3    H1 9775   1.899   7.382   4.299
 3278TIP3    H2 9776   2.025   7.464   4.277
 3279TIP3   OH2 9777   4.164   1.402   3.030
 3279TIP3    H1 9778   4.256   1.426   3.021
 3279TIP3    H2 9779   4.154   1.324   2.975
 3280TIP3   OH2 9780   2.788   3.078   1.479
 3280TIP3    H1 9781   2.732   3.151   1.505
 3280TIP3    H2 9782   2.789   3.081   1.383
 3281TIP3   OH2 9783   3.332   1.834   1.700
 3281TIP3    H1 9784   3.379   1.855   1.619
 3281TIP3    H2 9785   3.330   1.738   1.702
 3282TIP3   OH2 9786   0.240   1.568   1.541
 3282TIP3    H1 9787   0.206   1.498   1.486
 3282TIP3    H2 9788   0.285   1.523   1.613
 3283TIP3   OH2 9789   2.658   0.593   5.394
 3283TIP3    H1 9790   2.639   0.550   5.311
 3283TIP3    H2 9791   2.589   0.660   5.403
 3284TIP3   OH2 9792   8.080   5.074   3.905
 3284TIP3    H1 9793   8.051   5.018   3.977
 3284TIP3    H2 9794   8.021   5.150   3.909
 3285TIP3   OH2 9795   0.622   2.828   5.655
 3285TIP3    H1 9796   0.693   2.889   5.633
 3285TIP3    H2 9797   0.608   2.840   5.748
 3286TIP3   OH2 9798   4.639   6.616   6.503
 3286TIP3    H1 9799   4.596   6.657   6.577
 3286TIP3    H2 9800   4.707   6.561   6.542
 3287TIP3   OH2 9801   7.909   0.633   5.650
 3287TIP3    H1 9802   7.860   0.607   5.727
 3287TIP3    H2 9803   7.996   0.653   5.683
 3288TIP3   OH2 9804   2.001   2.853   2.183
 3288TIP3    H1 9805   1.978   2.943   2.207
 3288TIP3    H2 9806   2.015   2.809   2.267
 3289TIP3   OH2 9807   5.989   3.462   6.530
 3289TIP3    H1 9808   5.898   3.484   6.548
 3289TIP3    H2 9809   6.012   3.398   6.597
 3290TIP3   OH2 9810   7.346   0.302   4.828
 3290TIP3    H1 9811   7.386   0.249   4.897
 3290TIP3    H2 9812   7.273   0.347   4.871
 3291TIP3   OH2 9813   6.087   7.557   2.039
 3291TIP3    H1 9814   6.081   7.575   2.133
 3291TIP3    H2 9815   6.151   7.620   2.007
 3292TIP3   OH2 9816   3.176   1.994   2.452
 3292TIP3    H1 9817   3.208   1.989   2.362
 3292TIP3    H2 9818   3.136   2.081   2.459
 3293TIP3   OH2 9819   7.285   7.803   5.909
 3293TIP3    H1 9820   7.260   7.769   5.995
 3293TIP3    H2 9821   7.366   7.852   5.926
 3294TIP3   OH2 9822   2.715   6.137   1.730
 3294TIP3    H1 9823   2.735   6.222   1.691
 3294TIP3    H2 9824   2.721   6.151   1.824
 3295TIP3   OH2 9825   3.098   5.964   3.972
 3295TIP3    H1 9826   3.040   6.038   3.988
 3295TIP3    H2 9827   3.143   5.951   4.055
 3296TIP3   OH2 9828   5.319   4.749   2.531
 3296TIP3    H1 9829   5.247   4.688   2.548
 3296TIP3    H2 9830   5.290   4.800   2.456
 3297TIP3   OH2 9831   2.517   5.901   1.503
 3297TIP3    H1 9832   2.466   5.852   1.566
 3297TIP3    H2 9833   2.544   5.836   1.437
 3298TIP3   OH2 9834   4.134   0.392   3.884
 3298TIP3    H1 9835   4.065   0.353   3.938
 3298TIP3    H2 9836   4.205   0.409   3.945
 3299TIP3   OH2 9837   6.346   4.670   5.322
 3299TIP3    H1 9838   6.409   4.615   5.368
 3299TIP3    H2 9839   6.325   4.621   5.243
 3300TIP3   OH2 9840   1.706   6.944   2.708
 3300TIP3    H1 9841   1.629   6.962   2.655
 3300TIP3    H2 9842   1.672   6.924   2.795
 3301TIP3   OH2 9843   6.976   2.521   0.714
 3301TIP3    H1 9844   7.052   2.579   0.718
 3301TIP3    H2 9845   7.007   2.444   0.666
 3302TIP3   OH2 9846   4.582   2.427   3.738
 3302TIP3    H1 9847   4.608   2.371   3.811
 3302TIP3    H2 9848   4.532   2.370   3.680
 3303TIP3   OH2 9849   2.473   5.487   5.161
 3303TIP3    H1 9850   2.386   5.497   5.122
 3303TIP3    H2 9851   2.509   5.408   5.119
 3304TIP3   OH2 9852   2.974   2.243   4.525
 3304TIP3    H1 9853   2.995   2.246   4.431
 3304TIP3    H2 9854   2.882   2.220   4.528
 3305TIP3   OH2 9855   2.778   3.130   6.136
 3305TIP3    H1 9856   2.712   3.187   6.097
 3305TIP3    H2 9857   2.740   3.042   6.130
 3306TIP3   OH2 9858   0.877   5.814   2.511
 3306TIP3    H1 9859   0.824   5.856   2.443
 3306TIP3    H2 9860   0.953   5.872   2.521
 3307TIP3   OH2 9861   7.105   4.853   1.374
 3307TIP3    H1 9862   7.171   4.821   1.435
 3307TIP3    H2 9863   7.086   4.778   1.318
 3308TIP3   OH2 9864   6.283   2.798   4.194
 3308TIP3    H1 9865   6.337   2.772   4.269
 3308TIP3    H2 9866   6.197   2.815   4.232
 3309TIP3   OH2 9867   1.961   5.881   2.415
 3309TIP3    H1 9868   1.995   5.854   2.330
 3309TIP3    H2 9869   1.989   5.812   2.475
 3310TIP3   OH2 9870   7.230   1.542   1.054
 3310TIP3    H1 9871   7.262   1.542   1.144
 3310TIP3    H2 9872   7.243   1.452   1.024
 3311TIP3   OH2 9873   4.049   7.067   4.386
 3311TIP3    H1 9874   4.137   7.044   4.356
 3311TIP3    H2 9875   4.029   7.002   4.454
 3312TIP3   OH2 9876   7.462   4.582   3.190
 3312TIP3    H1 9877   7.533   4.580   3.254
 3312TIP3    H2 9878   7.471   4.667   3.146
 3313TIP3   OH2 9879   6.164   1.317   3.945
 3313TIP3    H1 9880   6.194   1.279   4.028
 3313TIP3    H2 9881   6.243   1.351   3.903
 3314TIP3   OH2 9882   1.699   6.393   4.129
 3314TIP3    H1 9883   1.624   6.405   4.071
 3314TIP3    H2 9884   1.759   6.464   4.105
 3315TIP3   OH2 9885   2.601   7.245   0.558
 3315TIP3    H1 9886   2.601   7.303   0.482
 3315TIP3    H2 9887   2.639   7.163   0.525
 3316TIP3   OH2 9888   4.591   5.431   1.926
 3316TIP3    H1 9889   4.575   5.478   1.843
 3316TIP3    H2 9890   4.523   5.465   1.985
 3317TIP3   OH2 9891   3.462   2.204   5.708
 3317TIP3    H1 9892   3.545   2.242   5.677
 3317TIP3    H2 9893   3.489   2.132   5.765
 3318TIP3   OH2 9894   0.954   6.070   6.705
 3318TIP3    H1 9895   0.916   6.089   6.619
 3318TIP3    H2 9896   1.005   5.991   6.691
 3319TIP3   OH2 9897   5.343   3.397   5.057
 3319TIP3    H1 9898   5.402   3.322   5.063
 3319TIP3    H2 9899   5.299   3.386   4.973
 3320TIP3   OH2 9900   0.464   7.765   6.378
 3320TIP3    H1 9901   0.467   7.770   6.473
 3320TIP3    H2 9902   0.554   7.783   6.350
 3321TIP3   OH2 9903   3.143   7.837   0.418
 3321TIP3    H1 9904   3.170   7.749   0.442
 3321TIP3    H2 9905   3.052   7.828   0.389
 3322TIP3   OH2 9906   8.388   2.290   3.625
 3322TIP3    H1 9907   8.339   2.211   3.648
 3322TIP3    H2 9908   8.441   2.263   3.550
 3323TIP3   OH2 9909   6.486   5.609   6.574
 3323TIP3    H1 9910   6.487   5.543   6.643
 3323TIP3    H2 9911   6.524   5.564   6.498
 3324TIP3   OH2 9912   4.835   1.602   6.673
 3324TIP3    H1 9913   4.923   1.636   6.664
 3324TIP3    H2 9914   4.818   1.555   6.591
 3325TIP3   OH2 9915   0.564   1.023   2.601
 3325TIP3    H1 9916   0.606   0.945   2.638
 3325TIP3    H2 9917   0.636   1.086   2.589
 3326TIP3   OH2 9918   0.428   6.260   1.477
 3326TIP3    H1 9919   0.381   6.178   1.493
 3326TIP3    H2 9920   0.411   6.313   1.555
 3327TIP3   OH2 9921   0.113   2.857   5.098
 3327TIP3    H1 9922   0.191   2.845   5.152
 3327TIP3    H2 9923   0.074   2.770   5.090
 3328TIP3   OH2 9924   0.173   0.568   0.329
 3328TIP3    H1 9925   0.161   0.484   0.373
 3328TIP3    H2 9926   0.251   0.556   0.275
 3329TIP3   OH2 9927   3.585   2.536   2.360
 3329TIP3    H1 9928   3.595   2.623   2.398
 3329TIP3    H2 9929   3.495   2.534   2.328
 3330TIP3   OH2 9930   0.277   0.486   5.952
 3330TIP3    H1 9931   0.332   0.540   5.894
 3330TIP3    H2 9932   0.252   0.545   6.023
 3331TIP3   OH2 9933   5.826   5.400   5.755
 3331TIP3    H1 9934   5.744   5.419   5.709
 3331TIP3    H2 9935   5.882   5.361   5.688
 3332TIP3   OH2 9936   0.592   3.559   3.045
 3332TIP3    H1 9937   0.676   3.598   3.020
 3332TIP3    H2 9938   0.526   3.620   3.012
 3333TIP3   OH2 9939   6.462   4.777   5.046
 3333TIP3    H1 9940   6.388   4.724   5.017
 3333TIP3    H2 9941   6.508   4.799   4.965
 3334TIP3   OH2 9942   3.530   1.942   3.471
 3334TIP3    H1 9943   3.584   1.868   3.497
 3334TIP3    H2 9944   3.455   1.939   3.530
 3335TIP3   OH2 9945   8.053   1.361   3.355
 3335TIP3    H1 9946   7.994   1.381   3.428
 3335TIP3    H2 9947   8.069   1.267   3.362
 3336TIP3   OH2 9948   8.016   3.063   6.308
 3336TIP3    H1 9949   7.945   3.034   6.250
 3336TIP3    H2 9950   8.014   3.159   6.300
 3337TIP3   OH2 9951   4.255   5.234   4.693
 3337TIP3    H1 9952   4.190   5.303   4.709
 3337TIP3    H2 9953   4.229   5.163   4.752
 3338TIP3   OH2 9954   5.459   2.492   2.933
 3338TIP3    H1 9955   5.435   2.500   2.841
 3338TIP3    H2 9956   5.402   2.424   2.968
 3339TIP3   OH2 9957   5.163   7.828   4.585
 3339TIP3    H1 9958   5.148   7.845   4.492
 3339TIP3    H2 9959   5.140   7.910   4.628
 3340TIP3   OH2 9960   4.350   2.678   2.724
 3340TIP3    H1 9961   4.440   2.648   2.736
 3340TIP3    H2 9962   4.304   2.649   2.802
 3341TIP3   OH2 9963   4.048   4.741   6.334
 3341TIP3    H1 9964   4.124   4.686   6.350
 3341TIP3    H2 9965   4.049   4.805   6.406
 3342TIP3   OH2 9966   4.791   3.981   3.782
 3342TIP3    H1 9967   4.791   3.889   3.753
 3342TIP3    H2 9968   4.882   3.999   3.805
 3343TIP3   OH2 9969   2.466   6.454   5.422
 3343TIP3    H1 9970   2.458   6.530   5.480
 3343TIP3    H2 9971   2.455   6.379   5.480
 3344TIP3   OH2 9972   8.091   6.166   5.939
 3344TIP3    H1 9973   8.069   6.212   6.019
 3344TIP3    H2 9974   8.069   6.228   5.869
 3345TIP3   OH2 9975   2.533   0.908   4.536
 3345TIP3    H1 9976   2.505   0.998   4.517
 3345TIP3    H2 9977   2.474   0.878   4.605
 3346TIP3   OH2 9978   0.941   6.828   2.990
 3346TIP3    H1 9979   0.874   6.865   3.048
 3346TIP3    H2 9980   0.918   6.860   2.903
 3347TIP3   OH2 9981   6.361   4.192   5.254
 3347TIP3    H1 9982   6.381   4.176   5.346
 3347TIP3    H2 9983   6.440   4.233   5.219
 3348TIP3   OH2 9984   4.842   6.830   3.692
 3348TIP3    H1 9985   4.900   6.754   3.704
 3348TIP3    H2 9986   4.756   6.792   3.678
 3349TIP3   OH2 9987   4.836   5.453   6.368
 3349TIP3    H1 9988   4.806   5.496   6.288
 3349TIP3    H2 9989   4.931   5.450   6.360
 3350TIP3   OH2 9990   5.877   0.449   4.976
 3350TIP3    H1 9991   5.855   0.490   5.060
 3350TIP3    H2 9992   5.805   0.389   4.960
 3351TIP3   OH2 9993   0.701   2.240   3.865
 3351TIP3    H1 9994   0.712   2.296   3.788
 3351TIP3    H2 9995   0.655   2.295   3.928
 3352TIP3   OH2 9996   5.815   0.486   6.580
 3352TIP3    H1 9997   5.750   0.427   6.619
 3352TIP3    H2 9998   5.899   0.443   6.594
 3353TIP3   OH2 9999   7.319   7.188   6.230
 3353TIP3    H110000   7.414   7.191   6.217
 3353TIP3    H210001   7.289   7.274   6.202
 3354TIP3   OH210002   2.206   4.882   6.685
 3354TIP3    H110003   2.273   4.924   6.630
 3354TIP3    H210004   2.222   4.917   6.772
 3355TIP3   OH210005   8.280   4.774   4.505
 3355TIP3    H110006   8.336   4.757   4.429
 3355TIP3    H210007   8.327   4.840   4.556
 3356TIP3   OH210008   3.856   5.209   2.659
 3356TIP3    H110009   3.773   5.175   2.627
 3356TIP3    H210010   3.921   5.147   2.626
 3357TIP3   OH210011   5.979   2.107   1.445
 3357TIP3    H110012   5.955   2.055   1.521
 3357TIP3    H210013   5.939   2.062   1.371
 3358TIP3   OH210014   6.189   7.600   5.603
 3358TIP3    H110015   6.232   7.528   5.558
 3358TIP3    H210016   6.104   7.609   5.560
 3359TIP3   OH210017   4.812   0.831   5.724
 3359TIP3    H110018   4.883   0.773   5.752
 3359TIP3    H210019   4.736   0.800   5.773
 3360TIP3   OH210020   5.660   2.991   4.400
 3360TIP3    H110021   5.663   2.919   4.337
 3360TIP3    H210022   5.643   3.069   4.347
 3361TIP3   OH210023   5.897   1.087   1.968
 3361TIP3    H110024   5.829   1.026   1.994
 3361TIP3    H210025   5.889   1.092   1.872
 3362TIP3   OH210026   1.899   6.785   5.956
 3362TIP3    H110027   1.842   6.801   5.881
 3362TIP3    H210028   1.929   6.695   5.944
 3363TIP3   OH210029   3.435   3.377   1.217
 3363TIP3    H110030   3.364   3.423   1.172
 3363TIP3    H210031   3.393   3.299   1.254
 3364TIP3   OH210032   0.224   3.723   0.355
 3364TIP3    H110033   0.180   3.716   0.440
 3364TIP3    H210034   0.228   3.634   0.322
 3365TIP3   OH210035   1.216   0.208   5.204
 3365TIP3    H110036   1.142   0.219   5.264
 3365TIP3    H210037   1.251   0.297   5.193
 3366TIP3   OH210038   6.344   1.928   1.562
 3366TIP3    H110039   6.311   1.957   1.478
 3366TIP3    H210040   6.267   1.898   1.610
 3367TIP3   OH210041   7.692   2.543   1.249
 3367TIP3    H110042   7.631   2.573   1.317
 3367TIP3    H210043   7.709   2.452   1.270
 3368TIP3   OH210044   3.514   0.486   6.262
 3368TIP3    H110045   3.436   0.443   6.297
 3368TIP3    H210046   3.587   0.440   6.303
 3369TIP3   OH210047   6.004   0.274   4.220
 3369TIP3    H110048   6.048   0.259   4.136
 3369TIP3    H210049   5.915   0.240   4.207
 3370TIP3   OH210050   2.017   7.730   0.475
 3370TIP3    H110051   2.059   7.655   0.517
 3370TIP3    H210052   1.992   7.787   0.548
 3371TIP3   OH210053   4.447   4.899   5.146
 3371TIP3    H110054   4.369   4.943   5.113
 3371TIP3    H210055   4.520   4.954   5.117
 3372TIP3   OH210056   2.194   1.322   2.716
 3372TIP3    H110057   2.111   1.298   2.756
 3372TIP3    H210058   2.176   1.321   2.621
 3373TIP3   OH210059   5.233   2.172   4.029
 3373TIP3    H110060   5.181   2.202   4.104
 3373TIP3    H210061   5.261   2.084   4.053
 3374TIP3   OH210062   2.866   0.577   0.658
 3374TIP3    H110063   2.940   0.618   0.612
 3374TIP3    H210064   2.817   0.651   0.695
 3375TIP3   OH210065   2.598   3.686   0.605
 3375TIP3    H110066   2.637   3.754   0.659
 3375TIP3    H210067   2.542   3.636   0.665
 3376TIP3   OH210068   6.038   0.876   4.565
 3376TIP3    H110069   6.013   0.849   4.654
 3376TIP3    H210070   5.968   0.842   4.509
 3377TIP3   OH210071   0.989   4.561   6.423
 3377TIP3    H110072   1.071   4.594   6.386
 3377TIP3    H210073   0.954   4.636   6.473
 3378TIP3   OH210074   6.490   4.704   1.510
 3378TIP3    H110075   6.439   4.762   1.567
 3378TIP3    H210076   6.580   4.735   1.520
 3379TIP3   OH210077   4.409   5.686   6.798
 3379TIP3    H110078   4.314   5.677   6.796
 3379TIP3    H210079   4.428   5.720   6.886
 3380TIP3   OH210080   7.036   4.796   1.005
 3380TIP3    H110081   7.009   4.717   1.051
 3380TIP3    H210082   7.126   4.811   1.033
 3381TIP3   OH210083   0.934   0.712   4.154
 3381TIP3    H110084   0.973   0.638   4.108
 3381TIP3    H210085   0.946   0.692   4.247
 3382TIP3   OH210086   7.973   0.707   4.930
 3382TIP3    H110087   8.007   0.736   5.015
 3382TIP3    H210088   7.994   0.779   4.871
 3383TIP3   OH210089   4.638   2.485   2.587
 3383TIP3    H110090   4.731   2.485   2.608
 3383TIP3    H210091   4.614   2.578   2.584
 3384TIP3   OH210092   7.325   2.351   3.875
 3384TIP3    H110093   7.314   2.269   3.923
 3384TIP3    H210094   7.361   2.324   3.791
 3385TIP3   OH210095   6.941   6.248   4.367
 3385TIP3    H110096   6.988   6.325   4.398
 3385TIP3    H210097   6.851   6.278   4.353
 3386TIP3   OH210098   5.555   1.851   2.635
 3386TIP3    H110099   5.472   1.818   2.671
 3386TIP3    H210100   5.622   1.800   2.680
 3387TIP3   OH210101   6.619   4.796   2.829
 3387TIP3    H110102   6.532   4.835   2.840
 3387TIP3    H210103   6.606   4.703   2.847
 3388TIP3   OH210104   5.582   2.913   1.975
 3388TIP3    H110105   5.596   2.820   1.992
 3388TIP3    H210106   5.500   2.917   1.926
 3389TIP3   OH210107   2.937   3.143   3.704
 3389TIP3    H110108   2.889   3.127   3.623
 3389TIP3    H210109   2.889   3.215   3.747
 3390TIP3   OH210110   8.022   1.175   6.401
 3390TIP3    H110111   8.040   1.198   6.310
 3390TIP3    H210112   8.026   1.079   6.402
 3391TIP3   OH210113   3.048   4.635   5.440
 3391TIP3    H110114   3.034   4.543   5.463
 3391TIP3    H210115   3.143   4.644   5.431
 3392TIP3   OH210116   1.012   5.081   0.929
 3392TIP3    H110117   1.029   5.096   1.022
 3392TIP3    H210118   1.047   4.994   0.912
 3393TIP3   OH210119   4.645   3.972   6.335
 3393TIP3    H110120   4.701   4.048   6.315
 3393TIP3    H210121   4.653   3.962   6.430
 3394TIP3   OH210122   2.304   4.876   4.060
 3394TIP3    H110123   2.312   4.915   3.973
 3394TIP3    H210124   2.211   4.883   4.080
 3395TIP3   OH210125   1.525   1.354   4.701
 3395TIP3    H110126   1.510   1.336   4.608
 3395TIP3    H210127   1.500   1.445   4.713
 3396TIP3   OH210128   2.792   1.748   4.549
 3396TIP3    H110129   2.760   1.672   4.598
 3396TIP3    H210130   2.712   1.788   4.514
 3397TIP3   OH210131   3.585   4.544   4.946
 3397TIP3    H110132   3.596   4.449   4.954
 3397TIP3    H210133   3.503   4.562   4.993
 3398TIP3   OH210134   4.373   3.203   5.485
 3398TIP3    H110135   4.389   3.297   5.484
 3398TIP3    H210136   4.365   3.181   5.578
 3399TIP3   OH210137   3.614   5.222   1.492
 3399TIP3    H110138   3.590   5.186   1.578
 3399TIP3    H210139   3.631   5.144   1.438
 3400TIP3   OH210140   6.989   1.011   3.505
 3400TIP3    H110141   6.933   0.990   3.580
 3400TIP3    H210142   6.944   1.083   3.461
 3401TIP3   OH210143   2.406   3.695   0.803
 3401TIP3    H110144   2.436   3.672   0.891
 3401TIP3    H210145   2.331   3.638   0.788
 3402TIP3   OH210146   4.142   5.411   6.437
 3402TIP3    H110147   4.135   5.393   6.343
 3402TIP3    H210148   4.157   5.325   6.476
 3403TIP3   OH210149   6.410  -0.003   1.332
 3403TIP3    H110150   6.364   0.077   1.305
 3403TIP3    H210151   6.495   0.002   1.287
 3404TIP3   OH210152   3.069   0.216   5.060
 3404TIP3    H110153   3.101   0.196   4.972
 3404TIP3    H210154   2.996   0.155   5.074
 3405TIP3   OH210155   6.256   7.634   3.683
 3405TIP3    H110156   6.167   7.611   3.656
 3405TIP3    H210157   6.247   7.718   3.727
 3406TIP3   OH210158   6.705   0.491   6.157
 3406TIP3    H110159   6.611   0.484   6.138
 3406TIP3    H210160   6.715   0.578   6.196
 3407TIP3   OH210161   0.753   3.876   4.903
 3407TIP3    H110162   0.818   3.820   4.946
 3407TIP3    H210163   0.778   3.875   4.811
 3408TIP3   OH210164   1.706   7.393   6.722
 3408TIP3    H110165   1.777   7.454   6.742
 3408TIP3    H210166   1.737   7.345   6.646
 3409TIP3   OH210167   7.060   1.211   4.404
 3409TIP3    H110168   7.137   1.199   4.349
 3409TIP3    H210169   6.990   1.233   4.343
 3410TIP3   OH210170   4.731   5.683   2.121
 3410TIP3    H110171   4.792   5.610   2.136
 3410TIP3    H210172   4.737   5.699   2.026
 3411TIP3   OH210173   6.477   3.383   2.747
 3411TIP3    H110174   6.545   3.417   2.805
 3411TIP3    H210175   6.460   3.453   2.684
 3412TIP3   OH210176   3.178   3.009   6.682
 3412TIP3    H110177   3.085   3.028   6.687
 3412TIP3    H210178   3.213   3.036   6.767
 3413TIP3   OH210179   4.684   2.070   6.628
 3413TIP3    H110180   4.760   2.012   6.619
 3413TIP3    H210181   4.678   2.115   6.544
 3414TIP3   OH210182   1.984   7.212   5.107
 3414TIP3    H110183   1.919   7.195   5.038
 3414TIP3    H210184   2.067   7.213   5.060
 3415TIP3   OH210185   4.614   2.948   0.196
 3415TIP3    H110186   4.597   3.042   0.200
 3415TIP3    H210187   4.669   2.936   0.119
 3416TIP3   OH210188   4.794   1.880   3.799
 3416TIP3    H110189   4.751   1.960   3.769
 3416TIP3    H210190   4.854   1.857   3.728
 3417TIP3   OH210191   1.368   1.120   1.912
 3417TIP3    H110192   1.381   1.175   1.990
 3417TIP3    H210193   1.329   1.040   1.946
 3418TIP3   OH210194   7.788   3.323   0.901
 3418TIP3    H110195   7.866   3.282   0.938
 3418TIP3    H210196   7.723   3.320   0.971
 3419TIP3   OH210197   7.705   5.983   2.830
 3419TIP3    H110198   7.696   5.905   2.776
 3419TIP3    H210199   7.631   6.038   2.805
 3420TIP3   OH210200   1.251   0.751   0.273
 3420TIP3    H110201   1.167   0.761   0.229
 3420TIP3    H210202   1.315   0.786   0.210
 3421TIP3   OH210203   3.586   5.558   2.363
 3421TIP3    H110204   3.577   5.653   2.350
 3421TIP3    H210205   3.675   5.547   2.397
 3422TIP3   OH210206   7.320   4.445   6.528
 3422TIP3    H110207   7.257   4.373   6.519
 3422TIP3    H210208   7.405   4.406   6.505
 3423TIP3   OH210209   7.639   7.160   3.847
 3423TIP3    H110210   7.673   7.245   3.874
 3423TIP3    H210211   7.551   7.178   3.815
 3424TIP3   OH210212   5.694   0.620   1.702
 3424TIP3    H110213   5.762   0.687   1.691
 3424TIP3    H210214   5.705   0.590   1.792
 3425TIP3   OH210215   8.366   3.311   1.882
 3425TIP3    H110216   8.272   3.321   1.893
 3425TIP3    H210217   8.395   3.396   1.849
 3426TIP3   OH210218   8.135   0.306   3.663
 3426TIP3    H110219   8.152   0.393   3.699
 3426TIP3    H210220   8.205   0.251   3.699
 3427TIP3   OH210221   7.077   1.993   6.072
 3427TIP3    H110222   7.114   1.955   6.152
 3427TIP3    H210223   7.091   1.925   6.006
 3428TIP3   OH210224   1.537   7.422   0.257
 3428TIP3    H110225   1.461   7.369   0.232
 3428TIP3    H210226   1.560   7.391   0.345
 3429TIP3   OH210227   6.838   2.524   6.098
 3429TIP3    H110228   6.774   2.540   6.167
 3429TIP3    H210229   6.910   2.478   6.141
 3430TIP3   OH210230   6.110   3.712   0.856
 3430TIP3    H110231   6.023   3.740   0.827
 3430TIP3    H210232   6.097   3.624   0.889
 3431TIP3   OH210233   3.053   2.239   5.357
 3431TIP3    H110234   3.148   2.226   5.355
 3431TIP3    H210235   3.037   2.288   5.437
 3432TIP3   OH210236   4.047   0.926   6.112
 3432TIP3    H110237   4.025   0.976   6.190
 3432TIP3    H210238   3.996   0.967   6.042
 3433TIP3   OH210239   6.700   4.000   3.614
 3433TIP3    H110240   6.770   3.980   3.677
 3433TIP3    H210241   6.708   3.931   3.547
 3434TIP3   OH210242   7.694   5.533   0.912
 3434TIP3    H110243   7.660   5.490   0.834
 3434TIP3    H210244   7.696   5.626   0.890
 3435TIP3   OH210245   7.489   2.535   6.608
 3435TIP3    H110246   7.533   2.583   6.678
 3435TIP3    H210247   7.543   2.456   6.596
 3436TIP3   OH210248   4.514   4.355   5.568
 3436TIP3    H110249   4.534   4.264   5.586
 3436TIP3    H210250   4.559   4.404   5.636
 3437TIP3   OH210251   2.488   6.910   5.580
 3437TIP3    H110252   2.474   6.969   5.653
 3437TIP3    H210253   2.581   6.918   5.560
 3438TIP3   OH210254   4.083   4.978   0.358
 3438TIP3    H110255   4.014   4.916   0.335
 3438TIP3    H210256   4.128   4.996   0.276
 3439TIP3   OH210257   3.166   4.549   4.090
 3439TIP3    H110258   3.088   4.518   4.044
 3439TIP3    H210259   3.141   4.635   4.123
 3440TIP3   OH210260   2.000   5.746   6.428
 3440TIP3    H110261   2.025   5.653   6.424
 3440TIP3    H210262   2.039   5.778   6.509
 3441TIP3   OH210263   5.624   0.872   3.217
 3441TIP3    H110264   5.613   0.937   3.287
 3441TIP3    H210265   5.536   0.836   3.204
 3442TIP3   OH210266   4.229   2.895   6.272
 3442TIP3    H110267   4.217   2.801   6.261
 3442TIP3    H210268   4.238   2.928   6.183
 3443TIP3   OH210269   8.030   7.263   3.573
 3443TIP3    H110270   8.086   7.245   3.649
 3443TIP3    H210271   8.045   7.189   3.514
 3444TIP3   OH210272   7.756   0.532   4.519
 3444TIP3    H110273   7.826   0.512   4.582
 3444TIP3    H210274   7.675   0.518   4.568
 3445TIP3   OH210275   3.047   5.550   0.162
 3445TIP3    H110276   3.048   5.635   0.206
 3445TIP3    H210277   3.082   5.568   0.075
 3446TIP3   OH210278   4.671   2.269   6.809
 3446TIP3    H110279   4.646   2.330   6.740
 3446TIP3    H210280   4.695   2.189   6.763
 3447TIP3   OH210281   6.886   4.221   3.015
 3447TIP3    H110282   6.836   4.169   2.952
 3447TIP3    H210283   6.836   4.213   3.097
 3448TIP3   OH210284   0.574   7.318   2.976
 3448TIP3    H110285   0.582   7.365   3.059
 3448TIP3    H210286   0.515   7.245   2.994
 3449TIP3   OH210287   7.655   2.042   0.875
 3449TIP3    H110288   7.716   2.073   0.808
 3449TIP3    H210289   7.665   1.947   0.874
 3450TIP3   OH210290   5.540   5.989   3.584
 3450TIP3    H110291   5.526   6.049   3.658
 3450TIP3    H210292   5.451   5.966   3.555
 3451TIP3   OH210293   6.692   7.324   5.812
 3451TIP3    H110294   6.606   7.311   5.851
 3451TIP3    H210295   6.708   7.418   5.822
 3452TIP3   OH210296   3.235   1.500   3.938
 3452TIP3    H110297   3.261   1.544   3.858
 3452TIP3    H210298   3.303   1.434   3.953
 3453TIP3   OH210299   3.678   7.439   4.073
 3453TIP3    H110300   3.614   7.500   4.037
 3453TIP3    H210301   3.742   7.494   4.117
 3454TIP3   OH210302   5.778   7.740   2.269
 3454TIP3    H110303   5.772   7.835   2.275
 3454TIP3    H210304   5.744   7.709   2.353
 3455TIP3   OH210305   7.845   2.465   1.758
 3455TIP3    H110306   7.853   2.556   1.731
 3455TIP3    H210307   7.883   2.462   1.846
 3456TIP3   OH210308   1.485   7.191   3.602
 3456TIP3    H110309   1.466   7.234   3.685
 3456TIP3    H210310   1.445   7.248   3.536
 3457TIP3   OH210311   2.350   4.329   5.120
 3457TIP3    H110312   2.372   4.281   5.041
 3457TIP3    H210313   2.295   4.269   5.171
 3458TIP3   OH210314   7.364   6.731   5.398
 3458TIP3    H110315   7.364   6.647   5.442
 3458TIP3    H210316   7.361   6.795   5.469
 3459TIP3   OH210317   0.464   7.435   0.052
 3459TIP3    H110318   0.439   7.372  -0.015
 3459TIP3    H210319   0.391   7.435   0.114
 3460TIP3   OH210320   2.433  -0.004   2.570
 3460TIP3    H110321   2.411   0.086   2.594
 3460TIP3    H210322   2.434  -0.003   2.474
 3461TIP3   OH210323   7.784   2.893   1.491
 3461TIP3    H110324   7.723   2.890   1.418
 3461TIP3    H210325   7.830   2.976   1.482
 3462TIP3   OH210326   1.929   1.066   1.310
 3462TIP3    H110327   1.860   1.131   1.312
 3462TIP3    H210328   1.919   1.016   1.391
 3463TIP3   OH210329   4.687   2.269   5.653
 3463TIP3    H110330   4.719   2.353   5.619
 3463TIP3    H210331   4.626   2.237   5.585
 3464TIP3   OH210332   6.067   7.124   4.905
 3464TIP3    H110333   5.993   7.182   4.919
 3464TIP3    H210334   6.142   7.170   4.943
 3465TIP3   OH210335   5.352   5.643   3.540
 3465TIP3    H110336   5.298   5.720   3.558
 3465TIP3    H210337   5.415   5.674   3.474
 3466TIP3   OH210338   5.411   5.172   6.533
 3466TIP3    H110339   5.453   5.223   6.602
 3466TIP3    H210340   5.390   5.088   6.574
 3467TIP3   OH210341   2.685   1.063   6.263
 3467TIP3    H110342   2.636   0.982   6.276
 3467TIP3    H210343   2.702   1.095   6.351
 3468TIP3   OH210344   3.763   3.267   2.327
 3468TIP3    H110345   3.813   3.248   2.248
 3468TIP3    H210346   3.696   3.329   2.299
 3469TIP3   OH210347   3.893   0.841   3.858
 3469TIP3    H110348   3.953   0.766   3.854
 3469TIP3    H210349   3.910   0.881   3.943
 3470TIP3   OH210350   1.318   5.379   2.514
 3470TIP3    H110351   1.322   5.450   2.450
 3470TIP3    H210352   1.226   5.352   2.515
 3471TIP3   OH210353   5.665   1.809   1.174
 3471TIP3    H110354   5.648   1.829   1.266
 3471TIP3    H210355   5.582   1.825   1.130
 3472TIP3   OH210356   4.752   3.659   3.923
 3472TIP3    H110357   4.811   3.719   3.967
 3472TIP3    H210358   4.756   3.684   3.831
 3473TIP3   OH210359   1.819   3.784   1.352
 3473TIP3    H110360   1.751   3.784   1.419
 3473TIP3    H210361   1.891   3.834   1.390
 3474TIP3   OH210362   3.627   2.629   5.616
 3474TIP3    H110363   3.558   2.644   5.680
 3474TIP3    H210364   3.706   2.667   5.656
 3475TIP3   OH210365   0.802   2.072   0.290
 3475TIP3    H110366   0.878   2.079   0.348
 3475TIP3    H210367   0.814   2.143   0.226
 3476TIP3   OH210368   4.884   5.331   3.703
 3476TIP3    H110369   4.911   5.308   3.614
 3476TIP3    H210370   4.810   5.390   3.691
 3477TIP3   OH210371   7.436   2.556   4.064
 3477TIP3    H110372   7.356   2.605   4.086
 3477TIP3    H210373   7.409   2.497   3.994
 3478TIP3   OH210374   0.909   6.225   3.134
 3478TIP3    H110375   1.003   6.218   3.116
 3478TIP3    H210376   0.885   6.312   3.102
 3479TIP3   OH210377   3.052   0.041   1.609
 3479TIP3    H110378   3.100  -0.008   1.542
 3479TIP3    H210379   2.987   0.092   1.560
 3480TIP3   OH210380   0.574   1.110   3.417
 3480TIP3    H110381   0.509   1.084   3.484
 3480TIP3    H210382   0.531   1.090   3.334
 3481TIP3   OH210383   7.112   0.439   4.922
 3481TIP3    H110384   7.104   0.524   4.879
 3481TIP3    H210385   7.034   0.391   4.896
 3482TIP3   OH210386   8.295   7.231   1.347
 3482TIP3    H110387   8.273   7.221   1.440
 3482TIP3    H210388   8.380   7.189   1.337
 3483TIP3   OH210389   5.021   5.755   6.015
 3483TIP3    H110390   4.964   5.709   6.078
 3483TIP3    H210391   5.038   5.840   6.056
 3484TIP3   OH210392   6.835   0.250   2.450
 3484TIP3    H110393   6.777   0.273   2.523
 3484TIP3    H210394   6.822   0.156   2.438
 3485TIP3   OH210395   4.207   3.268   5.739
 3485TIP3    H110396   4.164   3.353   5.731
 3485TIP3    H210397   4.148   3.207   5.694
 3486TIP3   OH210398   7.217   4.191   1.927
 3486TIP3    H110399   7.249   4.251   1.995
 3486TIP3    H210400   7.296   4.149   1.892
 3487TIP3   OH210401   5.896   4.338   3.805
 3487TIP3    H110402   5.939   4.371   3.883
 3487TIP3    H210403   5.886   4.244   3.821
 3488TIP3   OH210404   2.693   7.827   6.129
 3488TIP3    H110405   2.681   7.815   6.034
 3488TIP3    H210406   2.708   7.738   6.162
 3489TIP3   OH210407   7.621   2.751   4.111
 3489TIP3    H110408   7.645   2.728   4.201
 3489TIP3    H210409   7.563   2.681   4.082
 3490TIP3   OH210410   1.936   6.281   3.645
 3490TIP3    H110411   1.867   6.347   3.635
 3490TIP3    H210412   1.934   6.258   3.738
 3491TIP3   OH210413   7.579   1.978   4.284
 3491TIP3    H110414   7.577   1.983   4.380
 3491TIP3    H210415   7.671   1.963   4.263
 3492TIP3   OH210416   0.108   1.547   4.799
 3492TIP3    H110417   0.161   1.564   4.876
 3492TIP3    H210418   0.157   1.482   4.749
 3493TIP3   OH210419   4.675   7.211   3.000
 3493TIP3    H110420   4.683   7.214   3.096
 3493TIP3    H210421   4.763   7.187   2.970
 3494TIP3   OH210422   4.488   0.206   3.727
 3494TIP3    H110423   4.474   0.179   3.818
 3494TIP3    H210424   4.459   0.297   3.724
 3495TIP3   OH210425   5.155   5.985   2.363
 3495TIP3    H110426   5.231   6.039   2.341
 3495TIP3    H210427   5.186   5.895   2.354
 3496TIP3   OH210428   5.755   1.911   3.151
 3496TIP3    H110429   5.690   1.965   3.105
 3496TIP3    H210430   5.741   1.823   3.116
 3497TIP3   OH210431   6.023   4.596   2.129
 3497TIP3    H110432   6.048   4.562   2.215
 3497TIP3    H210433   6.105   4.599   2.080
 3498TIP3   OH210434   4.653   5.616   0.380
 3498TIP3    H110435   4.641   5.677   0.453
 3498TIP3    H210436   4.574   5.563   0.380
 3499TIP3   OH210437   4.534   5.842   5.363
 3499TIP3    H110438   4.584   5.818   5.285
 3499TIP3    H210439   4.524   5.937   5.356
 3500TIP3   OH210440   7.142   7.432   5.341
 3500TIP3    H110441   7.090   7.423   5.261
 3500TIP3    H210442   7.208   7.498   5.320
 3501TIP3   OH210443   1.802   3.984   6.736
 3501TIP3    H110444   1.817   3.893   6.711
 3501TIP3    H210445   1.721   4.009   6.692
 3502TIP3   OH210446   7.432   3.983   4.246
 3502TIP3    H110447   7.379   4.041   4.191
 3502TIP3    H210448   7.382   3.902   4.251
 3503TIP3   OH210449   4.865   6.370   6.911
 3503TIP3    H110450   4.835   6.292   6.959
 3503TIP3    H210451   4.797   6.435   6.926
 3504TIP3   OH210452   3.452   7.739   2.560
 3504TIP3    H110453   3.379   7.682   2.534
 3504TIP3    H210454   3.525   7.679   2.573
 3505TIP3   OH210455   1.529   4.267   3.318
 3505TIP3    H110456   1.501   4.187   3.363
 3505TIP3    H210457   1.592   4.307   3.378
 3506TIP3   OH210458   6.564   4.132   3.418
 3506TIP3    H110459   6.489   4.185   3.445
 3506TIP3    H210460   6.606   4.105   3.500
 3507TIP3   OH210461   3.331   0.919   1.807
 3507TIP3    H110462   3.301   1.005   1.780
 3507TIP3    H210463   3.251   0.872   1.832
 3508TIP3   OH210464   2.393   4.284   2.445
 3508TIP3    H110465   2.455   4.265   2.515
 3508TIP3    H210466   2.387   4.380   2.444
 3509TIP3   OH210467   5.448   6.232   0.777
 3509TIP3    H110468   5.394   6.284   0.837
 3509TIP3    H210469   5.538   6.247   0.806
 3510TIP3   OH210470   5.328   0.132   4.153
 3510TIP3    H110471   5.242   0.159   4.184
 3510TIP3    H210472   5.388   0.197   4.189
 3511TIP3   OH210473   5.431   6.423   5.872
 3511TIP3    H110474   5.502   6.378   5.825
 3511TIP3    H210475   5.375   6.458   5.803
 3512TIP3   OH210476   4.862   2.305   2.612
 3512TIP3    H110477   4.828   2.215   2.608
 3512TIP3    H210478   4.915   2.314   2.533
 3513TIP3   OH210479   7.255   2.990  -0.028
 3513TIP3    H110480   7.246   2.922   0.039
 3513TIP3    H210481   7.206   2.955  -0.103
 3514TIP3   OH210482   7.880   2.310   5.386
 3514TIP3    H110483   7.829   2.273   5.458
 3514TIP3    H210484   7.962   2.339   5.427
 3515TIP3   OH210485   7.932   2.983   3.007
 3515TIP3    H110486   7.963   2.897   3.035
 3515TIP3    H210487   7.913   3.029   3.089
 3516TIP3   OH210488   5.036   6.343   5.661
 3516TIP3    H110489   5.039   6.313   5.571
 3516TIP3    H210490   4.985   6.276   5.707
 3517TIP3   OH210491   6.301   6.447   0.659
 3517TIP3    H110492   6.332   6.537   0.671
 3517TIP3    H210493   6.313   6.406   0.744
 3518TIP3   OH210494   5.686   1.238   1.832
 3518TIP3    H110495   5.689   1.218   1.925
 3518TIP3    H210496   5.704   1.332   1.827
 3519TIP3   OH210497   6.502   6.695   1.358
 3519TIP3    H110498   6.593   6.688   1.328
 3519TIP3    H210499   6.503   6.767   1.421
 3520TIP3   OH210500   4.275   6.439   0.793
 3520TIP3    H110501   4.345   6.448   0.858
 3520TIP3    H210502   4.312   6.384   0.725
 3521TIP3   OH210503   1.875   4.351   6.375
 3521TIP3    H110504   1.789   4.310   6.386
 3521TIP3    H210505   1.895   4.340   6.282
 3522TIP3   OH210506   5.829   0.508   5.888
 3522TIP3    H110507   5.862   0.418   5.896
 3522TIP3    H210508   5.808   0.517   5.795
 3523TIP3   OH210509   8.185   5.367   1.940
 3523TIP3    H110510   8.102   5.413   1.949
 3523TIP3    H210511   8.164   5.276   1.961
 3524TIP3   OH210512   4.548   1.137   2.062
 3524TIP3    H110513   4.569   1.044   2.067
 3524TIP3    H210514   4.597   1.177   2.134
 3525TIP3   OH210515   2.579   7.545   1.004
 3525TIP3    H110516   2.627   7.464   1.019
 3525TIP3    H210517   2.633   7.594   0.941
 3526TIP3   OH210518   1.653   0.840   0.343
 3526TIP3    H110519   1.725   0.883   0.390
 3526TIP3    H210520   1.690   0.755   0.317
 3527TIP3   OH210521   7.790   6.939   3.421
 3527TIP3    H110522   7.886   6.940   3.413
 3527TIP3    H210523   7.774   6.965   3.511
 3528TIP3   OH210524   1.744   4.943   5.678
 3528TIP3    H110525   1.779   5.013   5.733
 3528TIP3    H210526   1.728   4.870   5.738
 3529TIP3   OH210527   7.825   1.804   0.263
 3529TIP3    H110528   7.742   1.826   0.306
 3529TIP3    H210529   7.882   1.878   0.283
 3530TIP3   OH210530   7.646   7.015   5.324
 3530TIP3    H110531   7.608   7.061   5.399
 3530TIP3    H210532   7.585   7.031   5.253
 3531TIP3   OH210533   2.704   7.337   3.114
 3531TIP3    H110534   2.761   7.268   3.081
 3531TIP3    H210535   2.761   7.414   3.122
 3532TIP3   OH210536   6.238   7.018   4.412
 3532TIP3    H110537   6.161   7.031   4.467
 3532TIP3    H210538   6.310   7.058   4.461
 3533TIP3   OH210539   1.843   3.551   5.568
 3533TIP3    H110540   1.883   3.518   5.649
 3533TIP3    H210541   1.851   3.647   5.576
 3534TIP3   OH210542   3.724   0.694   2.196
 3534TIP3    H110543   3.771   0.776   2.182
 3534TIP3    H210544   3.632   0.717   2.186
 3535TIP3   OH210545   2.488   7.831   0.484
 3535TIP3    H110546   2.537   7.788   0.414
 3535TIP3    H210547   2.466   7.761   0.545
 3536TIP3   OH210548   1.895   7.293   3.691
 3536TIP3    H110549   1.905   7.330   3.779
 3536TIP3    H210550   1.848   7.361   3.642
 3537TIP3   OH210551   5.400   2.003   4.221
 3537TIP3    H110552   5.428   1.911   4.223
 3537TIP3    H210553   5.476   2.050   4.187
 3538TIP3   OH210554   0.903   3.272   4.851
 3538TIP3    H110555   0.873   3.351   4.806
 3538TIP3    H210556   0.841   3.260   4.922
 3539TIP3   OH210557   6.286  -0.028   3.719
 3539TIP3    H110558   6.201  -0.026   3.763
 3539TIP3    H210559   6.301   0.062   3.691
 3540TIP3   OH210560   3.881   7.635   1.664
 3540TIP3    H110561   3.875   7.586   1.581
 3540TIP3    H210562   3.972   7.621   1.692
 3541TIP3   OH210563   8.050   7.494   6.650
 3541TIP3    H110564   8.098   7.559   6.598
 3541TIP3    H210565   8.112   7.422   6.661
 3542TIP3   OH210566   5.285   7.564   5.526
 3542TIP3    H110567   5.274   7.524   5.612
 3542TIP3    H210568   5.243   7.502   5.465
 3543TIP3   OH210569   0.790   6.269   6.420
 3543TIP3    H110570   0.788   6.364   6.435
 3543TIP3    H210571   0.726   6.234   6.482
 3544TIP3   OH210572   6.668   5.397   3.923
 3544TIP3    H110573   6.746   5.436   3.963
 3544TIP3    H210574   6.671   5.425   3.832
 3545TIP3   OH210575   7.690   5.852   4.728
 3545TIP3    H110576   7.620   5.804   4.685
 3545TIP3    H210577   7.748   5.881   4.657
 3546TIP3   OH210578   1.810   3.350   0.201
 3546TIP3    H110579   1.840   3.408   0.271
 3546TIP3    H210580   1.832   3.396   0.120
 3547TIP3   OH210581   1.442   6.903   4.912
 3547TIP3    H110582   1.418   6.882   5.002
 3547TIP3    H210583   1.373   6.864   4.859
 3548TIP3   OH210584   1.780   5.119   3.690
 3548TIP3    H110585   1.744   5.072   3.766
 3548TIP3    H210586   1.732   5.202   3.688
 3549TIP3   OH210587   2.592   2.448   1.303
 3549TIP3    H110588   2.620   2.382   1.239
 3549TIP3    H210589   2.659   2.516   1.299
 3550TIP3   OH210590   6.267   3.060   1.475
 3550TIP3    H110591   6.313   3.144   1.472
 3550TIP3    H210592   6.295   3.019   1.557
 3551TIP3   OH210593   2.485   0.071   0.333
 3551TIP3    H110594   2.494   0.143   0.271
 3551TIP3    H210595   2.414   0.017   0.297
 3552TIP3   OH210596   1.637   4.232   6.434
 3552TIP3    H110597   1.642   4.143   6.468
 3552TIP3    H210598   1.586   4.223   6.353
 3553TIP3   OH210599   4.839   4.369   5.688
 3553TIP3    H110600   4.823   4.447   5.633
 3553TIP3    H210601   4.780   4.380   5.762
 3554TIP3   OH210602   5.391   0.923   4.777
 3554TIP3    H110603   5.438   0.990   4.827
 3554TIP3    H210604   5.300   0.950   4.780
 3555TIP3   OH210605   1.523   7.236   6.051
 3555TIP3    H110606   1.615   7.263   6.046
 3555TIP3    H210607   1.514   7.196   6.137
 3556TIP3   OH210608   6.300   0.388   5.853
 3556TIP3    H110609   6.294   0.324   5.924
 3556TIP3    H210610   6.252   0.464   5.885
 3557TIP3   OH210611   3.396   1.398   1.307
 3557TIP3    H110612   3.365   1.367   1.222
 3557TIP3    H210613   3.481   1.439   1.288
 3558TIP3   OH210614   6.037   4.977   0.827
 3558TIP3    H110615   6.056   5.065   0.795
 3558TIP3    H210616   5.941   4.972   0.829
 3559TIP3   OH210617   5.236   5.461   0.799
 3559TIP3    H110618   5.275   5.484   0.884
 3559TIP3    H210619   5.294   5.500   0.734
 3560TIP3   OH210620   6.074   6.283   0.218
 3560TIP3    H110621   6.134   6.332   0.274
 3560TIP3    H210622   5.992   6.282   0.266
 3561TIP3   OH210623   4.990   4.602   6.171
 3561TIP3    H110624   5.000   4.511   6.197
 3561TIP3    H210625   4.941   4.643   6.242
 3562TIP3   OH210626   7.945   6.166   6.728
 3562TIP3    H110627   7.923   6.176   6.821
 3562TIP3    H210628   8.026   6.115   6.728
 3563TIP3   OH210629   8.328   6.246   0.284
 3563TIP3    H110630   8.374   6.329   0.299
 3563TIP3    H210631   8.238   6.272   0.262
 3564TIP3   OH210632   0.206   4.774   6.050
 3564TIP3    H110633   0.220   4.841   5.984
 3564TIP3    H210634   0.262   4.702   6.023
 3565TIP3   OH210635   0.333   0.441   5.407
 3565TIP3    H110636   0.320   0.471   5.317
 3565TIP3    H210637   0.267   0.488   5.458
 3566TIP3   OH210638   6.177   4.775   2.379
 3566TIP3    H110639   6.102   4.718   2.395
 3566TIP3    H210640   6.233   4.762   2.456
 3567TIP3   OH210641   0.827   4.258   5.331
 3567TIP3    H110642   0.769   4.199   5.379
 3567TIP3    H210643   0.861   4.205   5.259
 3568TIP3   OH210644   5.823   6.842   0.986
 3568TIP3    H110645   5.788   6.838   0.897
 3568TIP3    H210646   5.832   6.935   1.005
 3569TIP3   OH210647   7.039   6.124   4.153
 3569TIP3    H110648   6.993   6.041   4.152
 3569TIP3    H210649   7.015   6.164   4.237
 3570TIP3   OH210650   0.588   5.713   3.726
 3570TIP3    H110651   0.514   5.714   3.666
 3570TIP3    H210652   0.665   5.699   3.670
 3571TIP3   OH210653   6.257   4.080   5.928
 3571TIP3    H110654   6.185   4.141   5.943
 3571TIP3    H210655   6.294   4.106   5.844
 3572TIP3   OH210656   2.539   4.472   4.302
 3572TIP3    H110657   2.467   4.409   4.302
 3572TIP3    H210658   2.497   4.557   4.314
 3573TIP3   OH210659   2.777   1.929   3.354
 3573TIP3    H110660   2.872   1.939   3.357
 3573TIP3    H210661   2.748   1.957   3.441
 3574TIP3   OH210662   3.538   3.383   4.161
 3574TIP3    H110663   3.494   3.298   4.154
 3574TIP3    H210664   3.585   3.378   4.244
 3575TIP3   OH210665   4.280   2.616   0.660
 3575TIP3    H110666   4.306   2.625   0.752
 3575TIP3    H210667   4.312   2.695   0.618
 3576TIP3   OH210668   6.642   6.836   3.898
 3576TIP3    H110669   6.577   6.774   3.863
 3576TIP3    H210670   6.709   6.840   3.830
 3577TIP3   OH210671   1.937   5.202   0.845
 3577TIP3    H110672   1.996   5.274   0.869
 3577TIP3    H210673   1.951   5.191   0.751
 3578TIP3   OH210674   1.726   0.988   4.283
 3578TIP3    H110675   1.707   0.905   4.241
 3578TIP3    H210676   1.646   1.039   4.275
 3579TIP3   OH210677   3.874   2.391   2.602
 3579TIP3    H110678   3.903   2.476   2.634
 3579TIP3    H210679   3.955   2.341   2.591
 3580TIP3   OH210680   7.709   2.587   4.948
 3580TIP3    H110681   7.751   2.533   5.015
 3580TIP3    H210682   7.728   2.543   4.866
 3581TIP3   OH210683   6.750   2.698   2.185
 3581TIP3    H110684   6.709   2.649   2.114
 3581TIP3    H210685   6.699   2.674   2.263
 3582TIP3   OH210686   4.991   0.495   0.428
 3582TIP3    H110687   5.065   0.436   0.447
 3582TIP3    H210688   5.029   0.563   0.373
 3583TIP3   OH210689   6.822   1.038   5.698
 3583TIP3    H110690   6.864   0.954   5.711
 3583TIP3    H210691   6.893   1.098   5.674
 3584TIP3   OH210692   5.018   1.396   4.731
 3584TIP3    H110693   5.081   1.426   4.797
 3584TIP3    H210694   5.057   1.420   4.647
 3585TIP3   OH210695   6.493   3.426   0.176
 3585TIP3    H110696   6.491   3.406   0.269
 3585TIP3    H210697   6.568   3.376   0.142
 3586TIP3   OH210698   1.020   7.382   3.705
 3586TIP3    H110699   1.046   7.468   3.739
 3586TIP3    H210700   1.057   7.379   3.617
 3587TIP3   OH210701   0.473   0.822   0.803
 3587TIP3    H110702   0.519   0.892   0.756
 3587TIP3    H210703   0.527   0.806   0.880
 3588TIP3   OH210704   6.518   7.616   1.281
 3588TIP3    H110705   6.449   7.653   1.337
 3588TIP3    H210706   6.545   7.689   1.225
 3589TIP3   OH210707   1.600   1.947   4.119
 3589TIP3    H110708   1.559   1.909   4.197
 3589TIP3    H210709   1.593   2.042   4.133
 3590TIP3   OH210710   8.399   1.985   1.478
 3590TIP3    H110711   8.409   1.942   1.563
 3590TIP3    H210712   8.360   1.918   1.421
 3591TIP3   OH210713   8.346   7.783   5.301
 3591TIP3    H110714   8.278   7.727   5.338
 3591TIP3    H210715   8.405   7.802   5.374
 3592TIP3   OH210716   6.892   4.099   4.768
 3592TIP3    H110717   6.802   4.110   4.799
 3592TIP3    H210718   6.946   4.131   4.840
 3593TIP3   OH210719   6.518   0.636   5.751
 3593TIP3    H110720   6.513   0.613   5.844
 3593TIP3    H210721   6.500   0.730   5.748
 3594TIP3   OH210722   4.421   2.553   0.188
 3594TIP3    H110723   4.335   2.545   0.230
 3594TIP3    H210724   4.472   2.480   0.224
 3595TIP3   OH210725   8.238   3.970   3.762
 3595TIP3    H110726   8.236   3.894   3.820
 3595TIP3    H210727   8.206   3.937   3.678
 3596TIP3   OH210728   0.143   3.734   0.606
 3596TIP3    H110729   0.172   3.736   0.697
 3596TIP3    H210730   0.060   3.782   0.606
 3597TIP3   OH210731   7.571   2.317   6.238
 3597TIP3    H110732   7.528   2.396   6.207
 3597TIP3    H210733   7.503   2.270   6.286
 3598TIP3   OH210734   7.725   0.003   3.098
 3598TIP3    H110735   7.652  -0.035   3.147
 3598TIP3    H210736   7.785   0.033   3.166
 3599TIP3   OH210737   6.396   6.228   5.544
 3599TIP3    H110738   6.431   6.155   5.493
 3599TIP3    H210739   6.306   6.236   5.515
 3600TIP3   OH210740   3.377   5.947   5.468
 3600TIP3    H110741   3.292   5.931   5.507
 3600TIP3    H210742   3.366   5.925   5.375
 3601TIP3   OH210743   6.601   4.295   5.171
 3601TIP3    H110744   6.621   4.353   5.098
 3601TIP3    H210745   6.639   4.210   5.146
 3602TIP3   OH210746   7.223   6.629   3.014
 3602TIP3    H110747   7.169   6.668   2.946
 3602TIP3    H210748   7.291   6.694   3.032
 3603TIP3   OH210749   2.760   5.736   4.149
 3603TIP3    H110750   2.810   5.800   4.200
 3603TIP3    H210751   2.810   5.655   4.157
 3604TIP3   OH210752   1.677   2.313   6.555
 3604TIP3    H110753   1.679   2.404   6.584
 3604TIP3    H210754   1.595   2.278   6.591
 3605TIP3   OH210755   1.595   3.476   6.727
 3605TIP3    H110756   1.563   3.391   6.697
 3605TIP3    H210757   1.685   3.460   6.754
 3606TIP3   OH210758   6.380   7.282   5.786
 3606TIP3    H110759   6.392   7.332   5.706
 3606TIP3    H210760   6.318   7.334   5.838
 3607TIP3   OH210761   0.537   0.664   6.873
 3607TIP3    H110762   0.509   0.743   6.826
 3607TIP3    H210763   0.592   0.617   6.811
 3608TIP3   OH210764   0.627   1.625   4.828
 3608TIP3    H110765   0.622   1.715   4.797
 3608TIP3    H210766   0.665   1.576   4.755
 3609TIP3   OH210767   6.131   2.514   1.805
 3609TIP3    H110768   6.105   2.599   1.840
 3609TIP3    H210769   6.222   2.526   1.778
 3610TIP3   OH210770   7.435   0.201   4.561
 3610TIP3    H110771   7.388   0.118   4.559
 3610TIP3    H210772   7.395   0.250   4.633
 3611TIP3   OH210773   0.862   7.139   4.138
 3611TIP3    H110774   0.930   7.184   4.087
 3611TIP3    H210775   0.907   7.109   4.217
 3612TIP3   OH210776   4.682   3.344   4.125
 3612TIP3    H110777   4.615   3.303   4.071
 3612TIP3    H210778   4.756   3.360   4.066
 3613TIP3   OH210779   6.157   7.577   5.151
 3613TIP3    H110780   6.097   7.646   5.124
 3613TIP3    H210781   6.153   7.513   5.080
 3614TIP3   OH210782   0.545   3.815   3.511
 3614TIP3    H110783   0.519   3.742   3.456
 3614TIP3    H210784   0.531   3.893   3.457
 3615TIP3   OH210785   8.211   6.565  -0.068
 3615TIP3    H110786   8.187   6.480  -0.029
 3615TIP3    H210787   8.239   6.618   0.007
 3616TIP3   OH210788   1.791   0.620   0.221
 3616TIP3    H110789   1.799   0.525   0.224
 3616TIP3    H210790   1.870   0.653   0.263
 3617TIP3   OH210791   3.484   0.682   4.474
 3617TIP3    H110792   3.562   0.733   4.496
 3617TIP3    H210793   3.458   0.714   4.388
 3618TIP3   OH210794   7.839   5.293   2.265
 3618TIP3    H110795   7.758   5.290   2.214
 3618TIP3    H210796   7.853   5.386   2.282
 3619TIP3   OH210797   5.338   4.590   4.106
 3619TIP3    H110798   5.409   4.564   4.164
 3619TIP3    H210799   5.306   4.507   4.069
 3620TIP3   OH210800   1.701   5.368   5.022
 3620TIP3    H110801   1.796   5.358   5.019
 3620TIP3    H210802   1.675   5.331   5.106
 3621TIP3   OH210803   5.918   3.126  -0.037
 3621TIP3    H110804   5.972   3.127   0.042
 3621TIP3    H210805   5.873   3.042  -0.035
 3622TIP3   OH210806   2.106   0.584   6.262
 3622TIP3    H110807   2.047   0.516   6.230
 3622TIP3    H210808   2.163   0.539   6.324
 3623TIP3   OH210809   7.613   6.561   6.392
 3623TIP3    H110810   7.538   6.617   6.410
 3623TIP3    H210811   7.618   6.557   6.296
 3624TIP3   OH210812   5.122   1.655   6.665
 3624TIP3    H110813   5.135   1.650   6.760
 3624TIP3    H210814   5.211   1.664   6.630
 3625TIP3   OH210815   1.144   1.787   5.441
 3625TIP3    H110816   1.058   1.802   5.401
 3625TIP3    H210817   1.199   1.857   5.405
 3626TIP3   OH210818   3.780   6.092   3.785
 3626TIP3    H110819   3.868   6.125   3.800
 3626TIP3    H210820   3.737   6.098   3.871
 3627TIP3   OH210821   0.855   0.001   0.603
 3627TIP3    H110822   0.930   0.039   0.648
 3627TIP3    H210823   0.879   0.002   0.510
 3628TIP3   OH210824   2.802   2.282   3.974
 3628TIP3    H110825   2.828   2.333   3.898
 3628TIP3    H210826   2.785   2.195   3.940
 3629TIP3   OH210827   1.276   2.803   2.555
 3629TIP3    H110828   1.300   2.894   2.538
 3629TIP3    H210829   1.182   2.801   2.540
 3630TIP3   OH210830   0.650   4.544   4.137
 3630TIP3    H110831   0.688   4.499   4.213
 3630TIP3    H210832   0.644   4.477   4.069
 3631TIP3   OH210833   1.584   5.751   0.256
 3631TIP3    H110834   1.649   5.757   0.186
 3631TIP3    H210835   1.506   5.793   0.220
 3632TIP3   OH210836   0.998   3.976   2.199
 3632TIP3    H110837   1.023   3.998   2.288
 3632TIP3    H210838   0.996   3.880   2.197
 3633TIP3   OH210839   1.797   2.775   4.485
 3633TIP3    H110840   1.862   2.718   4.526
 3633TIP3    H210841   1.779   2.734   4.401
 3634TIP3   OH210842   7.439   1.328   5.335
 3634TIP3    H110843   7.488   1.261   5.382
 3634TIP3    H210844   7.488   1.340   5.253
 3635TIP3   OH210845   8.040   5.572   2.701
 3635TIP3    H110846   8.025   5.665   2.680
 3635TIP3    H210847   8.107   5.574   2.769
 3636TIP3   OH210848   0.159   0.147   4.440
 3636TIP3    H110849   0.242   0.185   4.469
 3636TIP3    H210850   0.182   0.062   4.404
 3637TIP3   OH210851   3.659   7.296   1.805
 3637TIP3    H110852   3.618   7.346   1.735
 3637TIP3    H210853   3.629   7.339   1.886
 3638TIP3   OH210854   7.755   0.907   0.113
 3638TIP3    H110855   7.697   0.890   0.187
 3638TIP3    H210856   7.799   0.989   0.136
 3639TIP3   OH210857   3.111   5.592   2.790
 3639TIP3    H110858   3.057   5.591   2.711
 3639TIP3    H210859   3.067   5.531   2.849
 3640TIP3   OH210860   1.002   3.556   1.223
 3640TIP3    H110861   1.003   3.495   1.297
 3640TIP3    H210862   0.946   3.514   1.158
 3641TIP3   OH210863   1.617   1.095   2.315
 3641TIP3    H110864   1.690   1.151   2.339
 3641TIP3    H210865   1.588   1.056   2.397
 3642TIP3   OH210866   0.360   3.006   1.736
 3642TIP3    H110867   0.374   2.947   1.810
 3642TIP3    H210868   0.304   2.958   1.676
 3643TIP3   OH210869   6.551   7.135   5.273
 3643TIP3    H110870   6.615   7.206   5.281
 3643TIP3    H210871   6.587   7.077   5.207
 3644TIP3   OH210872   5.182   7.621   2.915
 3644TIP3    H110873   5.167   7.709   2.880
 3644TIP3    H210874   5.244   7.634   2.987
 3645TIP3   OH210875   5.210   2.349   6.100
 3645TIP3    H110876   5.233   2.386   6.186
 3645TIP3    H210877   5.139   2.405   6.068
 3646TIP3   OH210878   1.334   4.454   3.332
 3646TIP3    H110879   1.394   4.380   3.345
 3646TIP3    H210880   1.385   4.531   3.360
 3647TIP3   OH210881   0.203   6.997   0.594
 3647TIP3    H110882   0.121   6.979   0.548
 3647TIP3    H210883   0.261   6.926   0.568
 3648TIP3   OH210884   3.635   5.452   0.136
 3648TIP3    H110885   3.685   5.529   0.164
 3648TIP3    H210886   3.668   5.381   0.191
 3649TIP3   OH210887   3.285   7.823   5.791
 3649TIP3    H110888   3.261   7.806   5.700
 3649TIP3    H210889   3.207   7.866   5.828
 3650TIP3   OH210890   8.053   5.825   0.603
 3650TIP3    H110891   8.121   5.891   0.589
 3650TIP3    H210892   8.003   5.858   0.678
 3651TIP3   OH210893   2.867   0.855   6.803
 3651TIP3    H110894   2.930   0.788   6.779
 3651TIP3    H210895   2.788   0.806   6.826
 3652TIP3   OH210896   3.979   2.454   1.594
 3652TIP3    H110897   3.920   2.452   1.519
 3652TIP3    H210898   3.948   2.382   1.650
 3653TIP3   OH210899   4.565   3.230   0.224
 3653TIP3    H110900   4.610   3.216   0.307
 3653TIP3    H210901   4.560   3.325   0.215
 3654TIP3   OH210902   7.333   5.508   3.227
 3654TIP3    H110903   7.426   5.515   3.250
 3654TIP3    H210904   7.314   5.587   3.178
 3655TIP3   OH210905   4.314   5.422   3.142
 3655TIP3    H110906   4.345   5.375   3.065
 3655TIP3    H210907   4.373   5.393   3.212
 3656TIP3   OH210908   3.080   5.910   1.489
 3656TIP3    H110909   2.987   5.933   1.481
 3656TIP3    H210910   3.126   5.982   1.446
 3657TIP3   OH210911   8.236   1.834   5.577
 3657TIP3    H110912   8.179   1.774   5.625
 3657TIP3    H210913   8.259   1.902   5.640
 3658TIP3   OH210914   2.315   6.454   6.209
 3658TIP3    H110915   2.277   6.489   6.129
 3658TIP3    H210916   2.336   6.363   6.188
 3659TIP3   OH210917   7.345   7.175   1.454
 3659TIP3    H110918   7.386   7.231   1.388
 3659TIP3    H210919   7.418   7.127   1.493
 3660TIP3   OH210920   6.190   7.892   3.769
 3660TIP3    H110921   6.204   7.969   3.714
 3660TIP3    H210922   6.141   7.925   3.845
 3661TIP3   OH210923   7.680   1.236   4.781
 3661TIP3    H110924   7.673   1.180   4.704
 3661TIP3    H210925   7.765   1.280   4.770
 3662TIP3   OH210926   0.524   4.062   5.810
 3662TIP3    H110927   0.467   4.139   5.813
 3662TIP3    H210928   0.474   3.998   5.758
 3663TIP3   OH210929   6.369   4.008   1.296
 3663TIP3    H110930   6.433   4.072   1.326
 3663TIP3    H210931   6.284   4.044   1.322
 3664TIP3   OH210932   4.848   5.104   3.882
 3664TIP3    H110933   4.859   5.183   3.829
 3664TIP3    H210934   4.824   5.137   3.969
 3665TIP3   OH210935   4.877   2.901   4.853
 3665TIP3    H110936   4.956   2.867   4.893
 3665TIP3    H210937   4.822   2.824   4.837
 3666TIP3   OH210938   5.237   3.397   4.771
 3666TIP3    H110939   5.143   3.379   4.770
 3666TIP3    H210940   5.276   3.324   4.723
 3667TIP3   OH210941   5.545   0.647   1.463
 3667TIP3    H110942   5.596   0.569   1.443
 3667TIP3    H210943   5.577   0.676   1.549
 3668TIP3   OH210944   6.651   7.471   5.127
 3668TIP3    H110945   6.700   7.544   5.165
 3668TIP3    H210946   6.570   7.510   5.094
 3669TIP3   OH210947   7.506   0.400   4.017
 3669TIP3    H110948   7.440   0.416   3.949
 3669TIP3    H210949   7.458   0.407   4.099
 3670TIP3   OH210950   7.340   5.737   1.154
 3670TIP3    H110951   7.258   5.724   1.203
 3670TIP3    H210952   7.363   5.829   1.171
 3671TIP3   OH210953   0.593   7.860   3.815
 3671TIP3    H110954   0.531   7.849   3.888
 3671TIP3    H210955   0.539   7.884   3.741
 3672TIP3   OH210956   7.849   0.099   6.658
 3672TIP3    H110957   7.784   0.136   6.599
 3672TIP3    H210958   7.922   0.076   6.601
 3673TIP3   OH210959   3.854   4.658   2.323
 3673TIP3    H110960   3.769   4.671   2.365
 3673TIP3    H210961   3.910   4.624   2.392
 3674TIP3   OH210962   1.023   5.327   1.472
 3674TIP3    H110963   1.043   5.233   1.465
 3674TIP3    H210964   0.971   5.335   1.552
 3675TIP3   OH210965   5.681   0.508   6.124
 3675TIP3    H110966   5.734   0.526   6.201
 3675TIP3    H210967   5.738   0.530   6.050
 3676TIP3   OH210968   0.996   5.654   3.680
 3676TIP3    H110969   1.081   5.622   3.651
 3676TIP3    H210970   0.973   5.597   3.753
 3677TIP3   OH210971   5.341   7.003   6.323
 3677TIP3    H110972   5.290   7.037   6.249
 3677TIP3    H210973   5.287   6.933   6.359
 3678TIP3   OH210974   1.696   3.139   3.846
 3678TIP3    H110975   1.638   3.214   3.837
 3678TIP3    H210976   1.706   3.128   3.941
 3679TIP3   OH210977   2.317   1.051   4.048
 3679TIP3    H110978   2.314   0.992   4.124
 3679TIP3    H210979   2.410   1.071   4.036
 3680TIP3   OH210980   7.179   1.682   0.640
 3680TIP3    H110981   7.198   1.759   0.586
 3680TIP3    H210982   7.137   1.621   0.579
 3681TIP3   OH210983   1.674   6.776   0.677
 3681TIP3    H110984   1.712   6.800   0.593
 3681TIP3    H210985   1.725   6.824   0.742
 3682TIP3   OH210986   6.150   2.491   5.877
 3682TIP3    H110987   6.178   2.561   5.818
 3682TIP3    H210988   6.215   2.422   5.865
 3683TIP3   OH210989   7.494   7.786   0.137
 3683TIP3    H110990   7.445   7.864   0.109
 3683TIP3    H210991   7.428   7.717   0.145
 3684TIP3   OH210992   6.649   4.103   4.927
 3684TIP3    H110993   6.593   4.176   4.900
 3684TIP3    H210994   6.589   4.041   4.969
 3685TIP3   OH210995   4.118   6.418   6.470
 3685TIP3    H110996   4.175   6.360   6.520
 3685TIP3    H210997   4.119   6.383   6.381
 3686TIP3   OH210998   3.776   3.792   3.531
 3686TIP3    H110999   3.740   3.754   3.611
 3686TIP3    H211000   3.844   3.852   3.561
 3687TIP3   OH211001   6.434   2.391   6.483
 3687TIP3    H111002   6.415   2.331   6.554
 3687TIP3    H211003   6.447   2.476   6.525
 3688TIP3   OH211004   4.479   5.208   0.981
 3688TIP3    H111005   4.492   5.113   0.991
 3688TIP3    H211006   4.559   5.246   1.018
 3689TIP3   OH211007   6.902   2.084   0.730
 3689TIP3    H111008   6.943   2.003   0.759
 3689TIP3    H211009   6.942   2.152   0.785
 3690TIP3   OH211010   3.803   7.545   6.546
 3690TIP3    H111011   3.834   7.472   6.492
 3690TIP3    H211012   3.778   7.504   6.629
 3691TIP3   OH211013   5.264   0.256   0.968
 3691TIP3    H111014   5.247   0.259   0.874
 3691TIP3    H211015   5.353   0.289   0.977
 3692TIP3   OH211016   1.455   4.778   4.635
 3692TIP3    H111017   1.549   4.781   4.653
 3692TIP3    H211018   1.413   4.803   4.717
 3693TIP3   OH211019   6.281   4.611   0.000
 3693TIP3    H111020   6.278   4.527   0.047
 3693TIP3    H211021   6.321   4.672   0.063
 3694TIP3   OH211022   8.405   5.917   1.549
 3694TIP3    H111023   8.449   5.911   1.464
 3694TIP3    H211024   8.392   6.011   1.562
 3695TIP3   OH211025   0.635   6.523   0.957
 3695TIP3    H111026   0.627   6.427   0.964
 3695TIP3    H211027   0.555   6.557   0.996
 3696TIP3   OH211028   0.646   1.078   4.229
 3696TIP3    H111029   0.655   0.984   4.215
 3696TIP3    H211030   0.735   1.108   4.250
 3697TIP3   OH211031   0.547   3.882   4.101
 3697TIP3    H111032   0.558   3.846   4.014
 3697TIP3    H211033   0.588   3.819   4.159
 3698TIP3   OH211034   4.282   3.668   5.587
 3698TIP3    H111035   4.205   3.630   5.629
 3698TIP3    H211036   4.319   3.596   5.535
 3699TIP3   OH211037   2.705   1.178   2.110
 3699TIP3    H111038   2.749   1.105   2.155
 3699TIP3    H211039   2.736   1.256   2.156
 3700TIP3   OH211040   0.301   3.665   5.088
 3700TIP3    H111041   0.366   3.694   5.023
 3700TIP3    H211042   0.220   3.657   5.038
 3701TIP3   OH211043   2.771   3.776   2.206
 3701TIP3    H111044   2.701   3.777   2.141
 3701TIP3    H211045   2.845   3.817   2.161
 3702TIP3   OH211046   2.226   0.993   0.951
 3702TIP3    H111047   2.213   0.999   1.045
 3702TIP3    H211048   2.300   1.051   0.933
 3703TIP3   OH211049   0.645   6.143   3.512
 3703TIP3    H111050   0.646   6.072   3.448
 3703TIP3    H211051   0.649   6.099   3.597
 3704TIP3   OH211052   6.761   6.358   3.949
 3704TIP3    H111053   6.813   6.438   3.944
 3704TIP3    H211054   6.783   6.310   3.869
 3705TIP3   OH211055   0.541   4.853   2.020
 3705TIP3    H111056   0.622   4.882   2.060
 3705TIP3    H211057   0.505   4.930   1.976
 3706TIP3   OH211058   0.852   0.272   1.344
 3706TIP3    H111059   0.810   0.326   1.412
 3706TIP3    H211060   0.916   0.331   1.304
 3707TIP3   OH211061   2.125   1.113   6.153
 3707TIP3    H111062   2.127   1.101   6.058
 3707TIP3    H211063   2.057   1.053   6.183
 3708TIP3   OH211064   4.099   6.596   0.332
 3708TIP3    H111065   4.111   6.599   0.427
 3708TIP3    H211066   4.123   6.683   0.301
 3709TIP3   OH211067   1.950   2.747   1.015
 3709TIP3    H111068   1.990   2.803   1.081
 3709TIP3    H211069   2.024   2.696   0.980
 3710TIP3   OH211070   6.813   6.639   1.984
 3710TIP3    H111071   6.846   6.728   1.988
 3710TIP3    H211072   6.846   6.597   2.063
 3711TIP3   OH211073   1.139   1.374   6.223
 3711TIP3    H111074   1.193   1.302   6.191
 3711TIP3    H211075   1.202   1.435   6.263
 3712TIP3   OH211076   4.475   0.786   1.490
 3712TIP3    H111077   4.531   0.741   1.553
 3712TIP3    H211078   4.522   0.867   1.469
 3713TIP3   OH211079   1.126   3.880   6.553
 3713TIP3    H111080   1.045   3.854   6.596
 3713TIP3    H211081   1.168   3.940   6.615
 3714TIP3   OH211082   2.563   1.629   0.838
 3714TIP3    H111083   2.601   1.690   0.775
 3714TIP3    H211084   2.473   1.617   0.809
 3715TIP3   OH211085   4.821   4.705   2.692
 3715TIP3    H111086   4.752   4.654   2.735
 3715TIP3    H211087   4.862   4.644   2.631
 3716TIP3   OH211088   0.587   0.542   6.605
 3716TIP3    H111089   0.493   0.531   6.614
 3716TIP3    H211090   0.621   0.455   6.585
 3717TIP3   OH211091   6.470   0.889   3.158
 3717TIP3    H111092   6.467   0.799   3.125
 3717TIP3    H211093   6.431   0.884   3.245
 3718TIP3   OH211094   8.094   5.965   4.033
 3718TIP3    H111095   8.013   5.978   3.984
 3718TIP3    H211096   8.156   6.026   3.994
 3719TIP3   OH211097   2.741   1.571   1.483
 3719TIP3    H111098   2.653   1.609   1.480
 3719TIP3    H211099   2.746   1.530   1.569
 3720TIP3   OH211100   0.964   0.190   6.513
 3720TIP3    H111101   0.923   0.109   6.480
 3720TIP3    H211102   0.976   0.174   6.607
 3721TIP3   OH211103   6.025   1.110   6.099
 3721TIP3    H111104   5.935   1.083   6.084
 3721TIP3    H211105   6.029   1.134   6.192
 3722TIP3   OH211106   3.390   5.800   6.244
 3722TIP3    H111107   3.440   5.870   6.287
 3722TIP3    H211108   3.446   5.770   6.173
 3723TIP3   OH211109   0.088   3.810   5.799
 3723TIP3    H111110   0.066   3.846   5.713
 3723TIP3    H211111   0.030   3.856   5.860
 3724TIP3   OH211112   8.178   3.714   2.295
 3724TIP3    H111113   8.189   3.796   2.342
 3724TIP3    H211114   8.257   3.706   2.242
 3725TIP3   OH211115   6.125   1.566   6.584
 3725TIP3    H111116   6.108   1.648   6.631
 3725TIP3    H211117   6.194   1.523   6.635
 3726TIP3   OH211118   1.704   5.956   0.453
 3726TIP3    H111119   1.721   5.902   0.375
 3726TIP3    H211120   1.617   5.993   0.439
 3727TIP3   OH211121   5.833   5.645   3.173
 3727TIP3    H111122   5.829   5.630   3.079
 3727TIP3    H211123   5.905   5.709   3.184
 3728TIP3   OH211124   0.552   5.611   0.116
 3728TIP3    H111125   0.537   5.660   0.197
 3728TIP3    H211126   0.533   5.520   0.139
 3729TIP3   OH211127   0.822   5.650   4.788
 3729TIP3    H111128   0.818   5.581   4.855
 3729TIP3    H211129   0.763   5.718   4.820
 3730TIP3   OH211130   4.490   1.696   0.953
 3730TIP3    H111131   4.449   1.615   0.926
 3730TIP3    H211132   4.417   1.752   0.980
 3731TIP3   OH211133   5.501   0.930   6.549
 3731TIP3    H111134   5.518   0.860   6.612
 3731TIP3    H211135   5.569   0.920   6.483
 3732TIP3   OH211136   0.810   7.048   2.125
 3732TIP3    H111137   0.857   6.989   2.066
 3732TIP3    H211138   0.795   6.996   2.204
 3733TIP3   OH211139   4.958   7.492   3.980
 3733TIP3    H111140   4.863   7.500   3.966
 3733TIP3    H211141   4.973   7.398   3.990
 3734TIP3   OH211142   5.429   4.834   1.568
 3734TIP3    H111143   5.507   4.878   1.534
 3734TIP3    H211144   5.463   4.768   1.629
 3735TIP3   OH211145   5.823   2.288   0.613
 3735TIP3    H111146   5.891   2.315   0.675
 3735TIP3    H211147   5.871   2.272   0.531
 3736TIP3   OH211148   6.494   7.026   4.032
 3736TIP3    H111149   6.550   6.971   3.977
 3736TIP3    H211150   6.408   7.022   3.991
 3737TIP3   OH211151   6.222   2.199   3.748
 3737TIP3    H111152   6.216   2.208   3.843
 3737TIP3    H211153   6.131   2.184   3.720
 3738TIP3   OH211154   4.950   1.495   2.103
 3738TIP3    H111155   4.985   1.572   2.148
 3738TIP3    H211156   4.967   1.423   2.164
 3739TIP3   OH211157   0.579   0.078   5.313
 3739TIP3    H111158   0.630   0.023   5.373
 3739TIP3    H211159   0.497   0.095   5.360
 3740TIP3   OH211160   0.086   0.165   3.230
 3740TIP3    H111161   0.113   0.179   3.139
 3740TIP3    H211162  -0.010   0.173   3.227
 3741TIP3   OH211163   5.419   0.114   0.586
 3741TIP3    H111164   5.475   0.049   0.628
 3741TIP3    H211165   5.357   0.062   0.535
 3742TIP3   OH211166   8.089   6.943   5.559
 3742TIP3    H111167   8.099   7.030   5.598
 3742TIP3    H211168   8.005   6.911   5.591
 3743TIP3   OH211169   3.277   7.755   5.490
 3743TIP3    H111170   3.199   7.805   5.466
 3743TIP3    H211171   3.250   7.664   5.485
 3744TIP3   OH211172   1.898   0.787   3.109
 3744TIP3    H111173   1.928   0.709   3.062
 3744TIP3    H211174   1.834   0.754   3.172
 3745TIP3   OH211175   8.367   4.185   4.941
 3745TIP3    H111176   8.394   4.228   4.860
 3745TIP3    H211177   8.291   4.236   4.970
 3746TIP3   OH211178   1.668   0.464   1.544
 3746TIP3    H111179   1.657   0.390   1.485
 3746TIP3    H211180   1.688   0.425   1.629
 3747TIP3   OH211181   3.105   0.097   5.976
 3747TIP3    H111182   3.081   0.158   5.907
 3747TIP3    H211183   3.027   0.091   6.031
 3748TIP3   OH211184   7.098   6.474   3.664
 3748TIP3    H111185   7.116   6.558   3.621
 3748TIP3    H211186   7.182   6.448   3.701
 3749TIP3   OH211187   8.200   2.754   1.580
 3749TIP3    H111188   8.251   2.822   1.623
 3749TIP3    H211189   8.216   2.767   1.487
 3750TIP3   OH211190   3.102   6.178   1.022
 3750TIP3    H111191   3.192   6.149   1.014
 3750TIP3    H211192   3.101   6.231   1.102
 3751TIP3   OH211193   5.073   0.964   5.729
 3751TIP3    H111194   4.986   0.934   5.754
 3751TIP3    H211195   5.060   1.009   5.645
 3752TIP3   OH211196   3.696   0.206   5.847
 3752TIP3    H111197   3.682   0.121   5.889
 3752TIP3    H211198   3.663   0.195   5.758
 3753TIP3   OH211199   2.052   7.141   0.233
 3753TIP3    H111200   2.068   7.235   0.234
 3753TIP3    H211201   2.058   7.115   0.325
 3754TIP3   OH211202   5.345   6.449   2.041
 3754TIP3    H111203   5.381   6.381   1.983
 3754TIP3    H211204   5.297   6.400   2.108
 3755TIP3   OH211205   0.384   1.617   6.774
 3755TIP3    H111206   0.359   1.558   6.703
 3755TIP3    H211207   0.452   1.570   6.821
 3756TIP3   OH211208   4.257   3.272   1.069
 3756TIP3    H111209   4.351   3.256   1.058
 3756TIP3    H211210   4.232   3.217   1.144
 3757TIP3   OH211211   0.543   5.378   0.811
 3757TIP3    H111212   0.565   5.380   0.904
 3757TIP3    H211213   0.627   5.386   0.766
 3758TIP3   OH211214   7.238   1.822   1.243
 3758TIP3    H111215   7.297   1.749   1.225
 3758TIP3    H211216   7.266   1.891   1.182
 3759TIP3   OH211217   5.277   7.585   1.427
 3759TIP3    H111218   5.237   7.523   1.487
 3759TIP3    H211219   5.296   7.662   1.481
 3760TIP3   OH211220   3.574   6.233   6.075
 3760TIP3    H111221   3.636   6.303   6.095
 3760TIP3    H211222   3.629   6.157   6.057
 3761TIP3   OH211223   4.957   2.525   2.160
 3761TIP3    H111224   4.865   2.499   2.166
 3761TIP3    H211225   4.964   2.568   2.074
 3762TIP3   OH211226   0.433   2.634   1.380
 3762TIP3    H111227   0.413   2.556   1.432
 3762TIP3    H211228   0.529   2.638   1.378
 3763TIP3   OH211229   3.056   7.279   5.509
 3763TIP3    H111230   2.973   7.322   5.491
 3763TIP3    H211231   3.102   7.339   5.568
 3764TIP3   OH211232   6.984   6.426   2.186
 3764TIP3    H111233   7.060   6.394   2.236
 3764TIP3    H211234   6.927   6.350   2.178
 3765TIP3   OH211235   5.188   7.458   5.784
 3765TIP3    H111236   5.169   7.439   5.876
 3765TIP3    H211237   5.243   7.385   5.755
 3766TIP3   OH211238   1.024   4.961   6.718
 3766TIP3    H111239   0.965   5.033   6.742
 3766TIP3    H211240   1.078   4.948   6.796
 3767TIP3   OH211241   5.087   6.324   1.960
 3767TIP3    H111242   5.054   6.413   1.965
 3767TIP3    H211243   5.113   6.302   2.049
 3768TIP3   OH211244   6.003   1.527   3.835
 3768TIP3    H111245   6.006   1.451   3.777
 3768TIP3    H211246   6.046   1.498   3.916
 3769TIP3   OH211247   4.074   7.139   0.459
 3769TIP3    H111248   4.126   7.111   0.534
 3769TIP3    H211249   4.049   7.229   0.478
 3770TIP3   OH211250   0.929   0.136   5.395
 3770TIP3    H111251   1.002   0.191   5.424
 3770TIP3    H211252   0.897   0.178   5.316
 3771TIP3   OH211253   0.857   5.518   0.135
 3771TIP3    H111254   0.815   5.491   0.217
 3771TIP3    H211255   0.901   5.600   0.156
 3772TIP3   OH211256   5.522   0.520   0.558
 3772TIP3    H111257   5.616   0.537   0.552
 3772TIP3    H211258   5.492   0.523   0.467
 3773TIP3   OH211259   6.301   7.100   5.405
 3773TIP3    H111260   6.376   7.146   5.367
 3773TIP3    H211261   6.336   7.057   5.482
 3774TIP3   OH211262   7.438   6.601   1.753
 3774TIP3    H111263   7.431   6.578   1.846
 3774TIP3    H211264   7.504   6.670   1.750
 3775TIP3   OH211265   4.757   4.153   3.154
 3775TIP3    H111266   4.848   4.123   3.146
 3775TIP3    H211267   4.738   4.148   3.248
 3776TIP3   OH211268   2.370   0.558   4.183
 3776TIP3    H111269   2.395   0.467   4.169
 3776TIP3    H211270   2.397   0.576   4.273
 3777TIP3   OH211271   0.500   3.492   0.945
 3777TIP3    H111272   0.516   3.402   0.973
 3777TIP3    H211273   0.428   3.522   1.002
 3778TIP3   OH211274   0.829   6.135   4.160
 3778TIP3    H111275   0.868   6.179   4.235
 3778TIP3    H211276   0.896   6.071   4.134
 3779TIP3   OH211277   5.940   0.839   0.369
 3779TIP3    H111278   6.014   0.864   0.424
 3779TIP3    H211279   5.919   0.919   0.321
 3780TIP3   OH211280   3.979   6.262   3.952
 3780TIP3    H111281   3.979   6.345   3.904
 3780TIP3    H211282   3.975   6.287   4.044
 3781TIP3   OH211283   4.955   0.815   4.674
 3781TIP3    H111284   4.901   0.739   4.693
 3781TIP3    H211285   4.937   0.835   4.582
 3782TIP3   OH211286   8.172   3.064   0.760
 3782TIP3    H111287   8.114   2.989   0.770
 3782TIP3    H211288   8.217   3.049   0.676
 3783TIP3   OH211289   6.191   3.969   6.368
 3783TIP3    H111290   6.129   4.007   6.430
 3783TIP3    H211291   6.139   3.956   6.288
 3784TIP3   OH211292   1.888   3.953   6.261
 3784TIP3    H111293   1.877   3.870   6.308
 3784TIP3    H211294   1.800   3.988   6.253
 3785TIP3   OH211295   5.111   5.742   1.254
 3785TIP3    H111296   5.194   5.717   1.295
 3785TIP3    H211297   5.072   5.660   1.225
 3786TIP3   OH211298   0.542   5.294   4.063
 3786TIP3    H111299   0.473   5.229   4.052
 3786TIP3    H211300   0.579   5.305   3.976
 3787TIP3   OH211301   7.646   4.058   3.480
 3787TIP3    H111302   7.656   4.101   3.395
 3787TIP3    H211303   7.552   4.066   3.499
 3788TIP3   OH211304   2.725   7.130   4.171
 3788TIP3    H111305   2.689   7.207   4.215
 3788TIP3    H211306   2.668   7.058   4.199
 3789TIP3   OH211307   7.543   6.971   6.824
 3789TIP3    H111308   7.504   6.983   6.738
 3789TIP3    H211309   7.630   6.935   6.807
 3790TIP3   OH211310   4.872   7.122   0.269
 3790TIP3    H111311   4.956   7.144   0.310
 3790TIP3    H211312   4.808   7.132   0.339
 3791TIP3   OH211313   2.458   3.093   4.498
 3791TIP3    H111314   2.447   3.016   4.555
 3791TIP3    H211315   2.552   3.105   4.492
 3792TIP3   OH211316   5.027   4.221   5.844
 3792TIP3    H111317   4.934   4.201   5.826
 3792TIP3    H211318   5.071   4.203   5.761
 3793TIP3   OH211319   7.222   6.413   2.297
 3793TIP3    H111320   7.238   6.383   2.387
 3793TIP3    H211321   7.283   6.362   2.244
 3794TIP3   OH211322   1.292   0.771   6.749
 3794TIP3    H111323   1.333   0.857   6.736
 3794TIP3    H211324   1.202   0.792   6.777
 3795TIP3   OH211325   3.145   0.248   3.425
 3795TIP3    H111326   3.166   0.242   3.332
 3795TIP3    H211327   3.056   0.284   3.426
 3796TIP3   OH211328   4.974   6.518   0.488
 3796TIP3    H111329   4.893   6.556   0.452
 3796TIP3    H211330   5.042   6.581   0.466
 3797TIP3   OH211331   4.691   5.142   5.868
 3797TIP3    H111332   4.632   5.076   5.832
 3797TIP3    H211333   4.646   5.225   5.852
 3798TIP3   OH211334   1.826   4.747   6.174
 3798TIP3    H111335   1.918   4.741   6.149
 3798TIP3    H211336   1.786   4.802   6.106
 3799TIP3   OH211337   4.375   7.007   4.961
 3799TIP3    H111338   4.409   6.933   4.911
 3799TIP3    H211339   4.280   6.995   4.960
 3800TIP3   OH211340   1.170   4.749   2.580
 3800TIP3    H111341   1.075   4.755   2.567
 3800TIP3    H211342   1.188   4.806   2.655
 3801TIP3   OH211343   5.313   3.481   3.108
 3801TIP3    H111344   5.347   3.394   3.089
 3801TIP3    H211345   5.298   3.481   3.202
 3802TIP3   OH211346   3.895   0.510   1.114
 3802TIP3    H111347   3.938   0.571   1.175
 3802TIP3    H211348   3.965   0.452   1.085
 3803TIP3   OH211349   6.159   2.264   6.705
 3803TIP3    H111350   6.094   2.301   6.646
 3803TIP3    H211351   6.110   2.205   6.762
 3804TIP3   OH211352   6.039   1.590   0.643
 3804TIP3    H111353   6.011   1.642   0.718
 3804TIP3    H211354   6.123   1.627   0.617
 3805TIP3   OH211355   0.379   1.448   6.569
 3805TIP3    H111356   0.286   1.424   6.562
 3805TIP3    H211357   0.425   1.366   6.552
 3806TIP3   OH211358   5.428   3.029   3.771
 3806TIP3    H111359   5.382   3.037   3.855
 3806TIP3    H211360   5.365   2.986   3.713
 3807TIP3   OH211361   1.523   0.135   3.398
 3807TIP3    H111362   1.564   0.054   3.429
 3807TIP3    H211363   1.578   0.205   3.432
 3808TIP3   OH211364   3.662   1.253   5.563
 3808TIP3    H111365   3.680   1.269   5.471
 3808TIP3    H211366   3.617   1.332   5.593
 3809TIP3   OH211367   0.612   5.242   3.778
 3809TIP3    H111368   0.663   5.162   3.785
 3809TIP3    H211369   0.567   5.235   3.693
 3810TIP3   OH211370   1.229   0.584   0.813
 3810TIP3    H111371   1.213   0.594   0.907
 3810TIP3    H211372   1.278   0.663   0.789
 3811TIP3   OH211373   6.146   7.361   1.864
 3811TIP3    H111374   6.231   7.403   1.866
 3811TIP3    H211375   6.086   7.425   1.902
 3812TIP3   OH211376   3.498   6.340   1.109
 3812TIP3    H111377   3.514   6.261   1.058
 3812TIP3    H211378   3.505   6.312   1.201
 3813TIP3   OH211379   5.595   5.044   5.905
 3813TIP3    H111380   5.621   4.952   5.893
 3813TIP3    H211381   5.508   5.049   5.867
 3814TIP3   OH211382   5.415   3.024   5.516
 3814TIP3    H111383   5.417   3.083   5.440
 3814TIP3    H211384   5.444   3.078   5.589
 3815TIP3   OH211385   5.342   0.226   1.259
 3815TIP3    H111386   5.269   0.275   1.221
 3815TIP3    H211387   5.418   0.252   1.208
 3816TIP3   OH211388   1.354   2.019   2.475
 3816TIP3    H111389   1.417   1.951   2.450
 3816TIP3    H211390   1.408   2.091   2.508
 3817TIP3   OH211391   2.725   4.287   1.053
 3817TIP3    H111392   2.640   4.246   1.038
 3817TIP3    H211393   2.730   4.297   1.148
 3818TIP3   OH211394   2.617   7.286   1.662
 3818TIP3    H111395   2.700   7.246   1.687
 3818TIP3    H211396   2.641   7.369   1.620
 3819TIP3   OH211397   7.111   6.721   0.764
 3819TIP3    H111398   7.145   6.809   0.780
 3819TIP3    H211399   7.136   6.701   0.674
 3820TIP3   OH211400   6.570   0.897   6.432
 3820TIP3    H111401   6.568   0.948   6.513
 3820TIP3    H211402   6.664   0.884   6.415
 3821TIP3   OH211403   1.219   0.394  -0.002
 3821TIP3    H111404   1.264   0.421   0.078
 3821TIP3    H211405   1.149   0.458  -0.013
 3822TIP3   OH211406   0.779   0.845   6.230
 3822TIP3    H111407   0.824   0.766   6.259
 3822TIP3    H211408   0.839   0.916   6.251
 3823TIP3   OH211409   7.808   7.399   4.912
 3823TIP3    H111410   7.756   7.323   4.939
 3823TIP3    H211411   7.834   7.379   4.822
 3824TIP3   OH211412   6.895   5.660   4.852
 3824TIP3    H111413   6.972   5.610   4.826
 3824TIP3    H211414   6.847   5.675   4.771
 3825TIP3   OH211415   7.215   7.815   2.157
 3825TIP3    H111416   7.135   7.839   2.110
 3825TIP3    H211417   7.186   7.791   2.245
 3826TIP3   OH211418   7.922   6.141   0.900
 3826TIP3    H111419   7.889   6.142   0.810
 3826TIP3    H211420   7.987   6.071   0.901
 3827TIP3   OH211421   6.012   0.219   3.685
 3827TIP3    H111422   5.952   0.275   3.734
 3827TIP3    H211423   6.020   0.140   3.739
 3828TIP3   OH211424   5.617   7.110   0.930
 3828TIP3    H111425   5.697   7.117   0.876
 3828TIP3    H211426   5.549   7.149   0.876
 3829TIP3   OH211427   2.029   3.219   4.137
 3829TIP3    H111428   2.030   3.150   4.071
 3829TIP3    H211429   2.010   3.173   4.219
 3830TIP3   OH211430   1.466   2.710   3.232
 3830TIP3    H111431   1.405   2.779   3.258
 3830TIP3    H211432   1.414   2.649   3.180
 3831TIP3   OH211433   2.509   0.564   3.497
 3831TIP3    H111434   2.561   0.618   3.438
 3831TIP3    H211435   2.564   0.552   3.574
 3832TIP3   OH211436   3.282   4.770   4.484
 3832TIP3    H111437   3.338   4.693   4.490
 3832TIP3    H211438   3.266   4.795   4.575
 3833TIP3   OH211439   4.228   6.987   5.604
 3833TIP3    H111440   4.228   6.910   5.662
 3833TIP3    H211441   4.196   6.954   5.521
 3834TIP3   OH211442   5.046   1.726   2.733
 3834TIP3    H111443   5.036   1.633   2.709
 3834TIP3    H211444   4.957   1.755   2.752
 3835TIP3   OH211445   3.577   6.339   6.555
 3835TIP3    H111446   3.495   6.335   6.507
 3835TIP3    H211447   3.580   6.428   6.591
 3836TIP3   OH211448   2.056   1.705   3.251
 3836TIP3    H111449   2.034   1.686   3.159
 3836TIP3    H211450   2.097   1.791   3.248
 3837TIP3   OH211451   3.758   3.311   4.300
 3837TIP3    H111452   3.824   3.293   4.233
 3837TIP3    H211453   3.808   3.347   4.373
 3838TIP3   OH211454   1.299   5.286   4.096
 3838TIP3    H111455   1.359   5.274   4.022
 3838TIP3    H211456   1.275   5.197   4.122
 3839TIP3   OH211457   6.850   2.255   0.533
 3839TIP3    H111458   6.837   2.188   0.601
 3839TIP3    H211459   6.934   2.295   0.555
 3840TIP3   OH211460   3.246   3.172   1.285
 3840TIP3    H111461   3.158   3.210   1.280
 3840TIP3    H211462   3.259   3.132   1.199
 3841TIP3   OH211463   2.002   1.278   0.646
 3841TIP3    H111464   1.934   1.232   0.596
 3841TIP3    H211465   2.077   1.279   0.587
 3842TIP3   OH211466   5.742   0.697   2.720
 3842TIP3    H111467   5.652   0.725   2.735
 3842TIP3    H211468   5.735   0.605   2.695
 3843TIP3   OH211469   7.386   7.804   2.609
 3843TIP3    H111470   7.396   7.717   2.647
 3843TIP3    H211471   7.433   7.862   2.669
 3844TIP3   OH211472   0.358   0.928   6.250
 3844TIP3    H111473   0.445   0.967   6.247
 3844TIP3    H211474   0.333   0.917   6.159
 3845TIP3   OH211475   0.579   2.724   6.833
 3845TIP3    H111476   0.586   2.809   6.875
 3845TIP3    H211477   0.568   2.662   6.905
 3846TIP3   OH211478   5.351   6.775   4.616
 3846TIP3    H111479   5.278   6.724   4.580
 3846TIP3    H211480   5.417   6.711   4.638
 3847TIP3   OH211481   4.025   0.855   1.005
 3847TIP3    H111482   4.014   0.878   0.913
 3847TIP3    H211483   4.084   0.779   1.005
 3848TIP3   OH211484   1.047   6.048   1.130
 3848TIP3    H111485   1.124   5.993   1.114
 3848TIP3    H211486   1.073   6.105   1.202
 3849TIP3   OH211487   0.717   7.780   2.654
 3849TIP3    H111488   0.653   7.716   2.624
 3849TIP3    H211489   0.664   7.852   2.690
 3850TIP3   OH211490   2.576   2.678   0.052
 3850TIP3    H111491   2.616   2.610  -0.002
 3850TIP3    H211492   2.641   2.748   0.055
 3851TIP3   OH211493   7.443   4.940   1.406
 3851TIP3    H111494   7.451   4.849   1.434
 3851TIP3    H211495   7.421   4.988   1.486
 3852TIP3   OH211496   2.973   1.450   4.025
 3852TIP3    H111497   3.041   1.465   3.959
 3852TIP3    H211498   2.897   1.422   3.974
 3853TIP3   OH211499   2.305   2.541   2.311
 3853TIP3    H111500   2.370   2.573   2.249
 3853TIP3    H211501   2.256   2.475   2.263
 3854TIP3   OH211502   2.612   2.242   5.064
 3854TIP3    H111503   2.532   2.216   5.110
 3854TIP3    H211504   2.611   2.189   4.984
 3855TIP3   OH211505   4.099   4.456   4.197
 3855TIP3    H111506   4.140   4.373   4.173
 3855TIP3    H211507   4.041   4.433   4.270
 3856TIP3   OH211508   6.552   6.635   4.340
 3856TIP3    H111509   6.578   6.603   4.253
 3856TIP3    H211510   6.497   6.711   4.322
 3857TIP3   OH211511   7.586   0.333   3.308
 3857TIP3    H111512   7.553   0.245   3.327
 3857TIP3    H211513   7.641   0.321   3.230
 3858TIP3   OH211514   3.756   4.653   3.052
 3858TIP3    H111515   3.681   4.594   3.044
 3858TIP3    H211516   3.783   4.646   3.144
 3859TIP3   OH211517   6.859   7.696   4.337
 3859TIP3    H111518   6.819   7.735   4.415
 3859TIP3    H211519   6.821   7.608   4.334
 3860TIP3   OH211520   2.827   7.603   3.209
 3860TIP3    H111521   2.879   7.671   3.167
 3860TIP3    H211522   2.877   7.578   3.286
 3861TIP3   OH211523   7.795   2.832   2.612
 3861TIP3    H111524   7.831   2.826   2.524
 3861TIP3    H211525   7.815   2.921   2.641
 3862TIP3   OH211526   0.256   3.406   1.384
 3862TIP3    H111527   0.280   3.401   1.291
 3862TIP3    H211528   0.183   3.468   1.386
 3863TIP3   OH211529   6.798   5.924   0.696
 3863TIP3    H111530   6.805   6.016   0.719
 3863TIP3    H211531   6.722   5.919   0.638
 3864TIP3   OH211532   3.367   6.093   4.082
 3864TIP3    H111533   3.292   6.142   4.049
 3864TIP3    H211534   3.439   6.156   4.080
 3865TIP3   OH211535   5.716   2.017   0.223
 3865TIP3    H111536   5.810   2.004   0.233
 3865TIP3    H211537   5.685   1.936   0.182
 3866TIP3   OH211538   3.747   3.596   3.201
 3866TIP3    H111539   3.737   3.647   3.120
 3866TIP3    H211540   3.721   3.507   3.176
 3867TIP3   OH211541   4.340   6.222   6.043
 3867TIP3    H111542   4.323   6.148   5.984
 3867TIP3    H211543   4.434   6.218   6.061
 3868TIP3   OH211544   7.769   2.179   6.086
 3868TIP3    H111545   7.717   2.257   6.104
 3868TIP3    H211546   7.769   2.131   6.168
 3869TIP3   OH211547   8.097   0.551   1.289
 3869TIP3    H111548   8.044   0.627   1.264
 3869TIP3    H211549   8.144   0.527   1.208
 3870TIP3   OH211550   7.255   0.983   3.560
 3870TIP3    H111551   7.244   0.896   3.522
 3870TIP3    H211552   7.168   1.022   3.555
 3871TIP3   OH211553   5.013   1.463   4.455
 3871TIP3    H111554   5.024   1.470   4.360
 3871TIP3    H211555   4.971   1.545   4.480
 3872TIP3   OH211556   2.887   0.007   4.348
 3872TIP3    H111557   2.966  -0.024   4.303
 3872TIP3    H211558   2.852   0.075   4.289
 3873TIP3   OH211559   4.151   0.327   1.383
 3873TIP3    H111560   4.096   0.250   1.370
 3873TIP3    H211561   4.218   0.299   1.445
 3874TIP3   OH211562   5.337   6.163   0.529
 3874TIP3    H111563   5.386   6.196   0.605
 3874TIP3    H211564   5.246   6.188   0.547
 3875TIP3   OH211565   2.646   1.871   1.226
 3875TIP3    H111566   2.558   1.865   1.189
 3875TIP3    H211567   2.632   1.882   1.320
 3876TIP3   OH211568   4.971   6.770   4.663
 3876TIP3    H111569   5.038   6.757   4.596
 3876TIP3    H211570   4.921   6.688   4.662
 3877TIP3   OH211571   2.723   4.628   1.801
 3877TIP3    H111572   2.643   4.575   1.809
 3877TIP3    H211573   2.725   4.652   1.708
 3878TIP3   OH211574   5.270   6.776   5.234
 3878TIP3    H111575   5.360   6.773   5.266
 3878TIP3    H211576   5.261   6.864   5.197
 3879TIP3   OH211577   7.184   7.244   0.911
 3879TIP3    H111578   7.168   7.338   0.904
 3879TIP3    H211579   7.227   7.233   0.996
 3880TIP3   OH211580   0.405   7.928   5.323
 3880TIP3    H111581   0.447   7.851   5.284
 3880TIP3    H211582   0.334   7.951   5.263
 3881TIP3   OH211583   5.507   6.332   1.391
 3881TIP3    H111584   5.574   6.388   1.351
 3881TIP3    H211585   5.557   6.269   1.442
 3882TIP3   OH211586   6.428   2.197   4.713
 3882TIP3    H111587   6.497   2.213   4.777
 3882TIP3    H211588   6.440   2.266   4.647
 3883TIP3   OH211589   4.439   5.834   4.635
 3883TIP3    H111590   4.397   5.817   4.551
 3883TIP3    H211591   4.527   5.864   4.612
 3884TIP3   OH211592   8.135   2.367   2.308
 3884TIP3    H111593   8.064   2.333   2.363
 3884TIP3    H211594   8.193   2.411   2.369
 3885TIP3   OH211595   5.184   5.921   6.348
 3885TIP3    H111596   5.102   5.926   6.398
 3885TIP3    H211597   5.253   5.934   6.413
 3886TIP3   OH211598   1.560   4.002   6.600
 3886TIP3    H111599   1.503   4.044   6.665
 3886TIP3    H211600   1.520   3.916   6.585
 3887TIP3   OH211601   7.349   2.470   2.856
 3887TIP3    H111602   7.261   2.505   2.871
 3887TIP3    H211603   7.394   2.480   2.940
 3888TIP3   OH211604   7.670   0.342   5.077
 3888TIP3    H111605   7.622   0.278   5.130
 3888TIP3    H211606   7.604   0.377   5.018
 3889TIP3   OH211607   5.818   4.495   0.251
 3889TIP3    H111608   5.840   4.413   0.206
 3889TIP3    H211609   5.786   4.467   0.337
 3890TIP3   OH211610   5.616   5.066   1.136
 3890TIP3    H111611   5.659   4.985   1.111
 3890TIP3    H211612   5.662   5.134   1.087
 3891TIP3   OH211613   5.712   7.317   5.001
 3891TIP3    H111614   5.629   7.347   5.037
 3891TIP3    H211615   5.708   7.221   5.009
 3892TIP3   OH211616   2.000   1.285   5.802
 3892TIP3    H111617   2.020   1.274   5.709
 3892TIP3    H211618   2.036   1.206   5.843
 3893TIP3   OH211619   1.636   4.008   2.486
 3893TIP3    H111620   1.660   3.970   2.401
 3893TIP3    H211621   1.697   3.968   2.547
 3894TIP3   OH211622   4.413   0.380   0.436
 3894TIP3    H111623   4.506   0.371   0.457
 3894TIP3    H211624   4.371   0.397   0.521
 3895TIP3   OH211625   5.542   1.077   4.063
 3895TIP3    H111626   5.566   1.071   3.971
 3895TIP3    H211627   5.513   1.168   4.075
 3896TIP3   OH211628   4.289   6.427   2.195
 3896TIP3    H111629   4.323   6.496   2.138
 3896TIP3    H211630   4.364   6.399   2.247
 3897TIP3   OH211631   7.684   1.457   2.821
 3897TIP3    H111632   7.640   1.427   2.742
 3897TIP3    H211633   7.615   1.461   2.887
 3898TIP3   OH211634   5.233   1.544   4.839
 3898TIP3    H111635   5.264   1.593   4.916
 3898TIP3    H211636   5.221   1.610   4.771
 3899TIP3   OH211637   0.532   1.898   1.623
 3899TIP3    H111638   0.445   1.862   1.608
 3899TIP3    H211639   0.532   1.982   1.578
 3900TIP3   OH211640   7.167   6.855   5.951
 3900TIP3    H111641   7.109   6.929   5.971
 3900TIP3    H211642   7.210   6.835   6.034
 3901TIP3   OH211643   5.355   6.721   1.559
 3901TIP3    H111644   5.397   6.749   1.478
 3901TIP3    H211645   5.362   6.625   1.558
 3902TIP3   OH211646   8.080   1.225   4.833
 3902TIP3    H111647   8.118   1.309   4.861
 3902TIP3    H211648   8.107   1.216   4.742
 3903TIP3   OH211649   4.057   6.771   2.073
 3903TIP3    H111650   3.992   6.723   2.125
 3903TIP3    H211651   4.098   6.704   2.018
 3904TIP3   OH211652   3.232   4.102   6.190
 3904TIP3    H111653   3.237   4.009   6.167
 3904TIP3    H211654   3.143   4.113   6.224
 3905TIP3   OH211655   6.892   2.016   2.816
 3905TIP3    H111656   6.826   2.062   2.868
 3905TIP3    H211657   6.961   1.993   2.877
 3906TIP3   OH211658   5.490   3.503   3.586
 3906TIP3    H111659   5.542   3.431   3.622
 3906TIP3    H211660   5.408   3.500   3.636
 3907TIP3   OH211661   2.759   6.847   0.909
 3907TIP3    H111662   2.692   6.779   0.911
 3907TIP3    H211663   2.833   6.805   0.865
 3908TIP3   OH211664   2.689   1.918   0.629
 3908TIP3    H111665   2.696   1.928   0.534
 3908TIP3    H211666   2.611   1.968   0.653
 3909TIP3   OH211667   3.624   3.013   5.691
 3909TIP3    H111668   3.704   2.986   5.647
 3909TIP3    H211669   3.618   3.108   5.674
 3910TIP3   OH211670   5.714   3.466   0.471
 3910TIP3    H111671   5.749   3.511   0.548
 3910TIP3    H211672   5.788   3.415   0.437
 3911TIP3   OH211673   1.905   1.613   2.988
 3911TIP3    H111674   1.837   1.616   3.054
 3911TIP3    H211675   1.861   1.635   2.906
 3912TIP3   OH211676   4.274   2.623   6.348
 3912TIP3    H111677   4.322   2.613   6.430
 3912TIP3    H211678   4.199   2.564   6.357
 3913TIP3   OH211679   5.332   1.045   5.242
 3913TIP3    H111680   5.387   0.968   5.230
 3913TIP3    H211681   5.381   1.117   5.203
 3914TIP3   OH211682   0.133   6.867   4.292
 3914TIP3    H111683   0.051   6.916   4.292
 3914TIP3    H211684   0.171   6.886   4.206
 3915TIP3   OH211685   6.650   1.960   2.234
 3915TIP3    H111686   6.668   1.960   2.140
 3915TIP3    H211687   6.565   2.003   2.242
 3916TIP3   OH211688   3.051   0.272   2.196
 3916TIP3    H111689   3.014   0.203   2.140
 3916TIP3    H211690   3.045   0.351   2.143
 3917TIP3   OH211691   1.732   1.667   2.225
 3917TIP3    H111692   1.642   1.675   2.193
 3917TIP3    H211693   1.777   1.746   2.194
 3918TIP3   OH211694   6.794   4.678   1.466
 3918TIP3    H111695   6.841   4.617   1.408
 3918TIP3    H211696   6.837   4.762   1.450
 3919TIP3   OH211697   1.039   1.190   6.609
 3919TIP3    H111698   1.034   1.147   6.695
 3919TIP3    H211699   0.959   1.164   6.564
 3920TIP3   OH211700   3.479   6.503   5.382
 3920TIP3    H111701   3.538   6.456   5.322
 3920TIP3    H211702   3.468   6.443   5.456
 3921TIP3   OH211703   2.582   1.720   5.394
 3921TIP3    H111704   2.590   1.731   5.489
 3921TIP3    H211705   2.653   1.774   5.358
 3922TIP3   OH211706   6.401   2.124   0.799
 3922TIP3    H111707   6.477   2.146   0.853
 3922TIP3    H211708   6.388   2.201   0.743
 3923TIP3   OH211709   3.027   4.219   1.547
 3923TIP3    H111710   2.963   4.282   1.581
 3923TIP3    H211711   3.015   4.221   1.453
 3924TIP3   OH211712   5.395   3.400   5.711
 3924TIP3    H111713   5.359   3.445   5.787
 3924TIP3    H211714   5.412   3.470   5.648
 3925TIP3   OH211715   7.115   0.038   2.209
 3925TIP3    H111716   7.041   0.073   2.160
 3925TIP3    H211717   7.075  -0.005   2.285
 3926TIP3   OH211718   3.394   6.242   5.822
 3926TIP3    H111719   3.398   6.232   5.917
 3926TIP3    H211720   3.321   6.302   5.807
 3927TIP3   OH211721   7.360   3.187   2.478
 3927TIP3    H111722   7.402   3.101   2.472
 3927TIP3    H211723   7.288   3.183   2.415
 3928TIP3   OH211724   4.540   7.554   4.460
 3928TIP3    H111725   4.556   7.471   4.416
 3928TIP3    H211726   4.465   7.538   4.516
 3929TIP3   OH211727   0.497   4.891   6.566
 3929TIP3    H111728   0.527   4.837   6.494
 3929TIP3    H211729   0.461   4.829   6.630
 3930TIP3   OH211730   4.334   7.659   4.226
 3930TIP3    H111731   4.428   7.667   4.237
 3930TIP3    H211732   4.305   7.748   4.202
 3931TIP3   OH211733   2.846   1.847   0.865
 3931TIP3    H111734   2.797   1.857   0.784
 3931TIP3    H211735   2.780   1.816   0.928
 3932TIP3   OH211736   0.842   5.153   5.121
 3932TIP3    H111737   0.849   5.227   5.182
 3932TIP3    H211738   0.924   5.105   5.132
 3933TIP3   OH211739   3.640   4.104   1.627
 3933TIP3    H111740   3.699   4.084   1.700
 3933TIP3    H211741   3.563   4.143   1.669
 3934TIP3   OH211742   3.643   4.118   4.103
 3934TIP3    H111743   3.567   4.176   4.108
 3934TIP3    H211744   3.686   4.128   4.188
 3935TIP3   OH211745   2.834   3.599   1.358
 3935TIP3    H111746   2.804   3.521   1.405
 3935TIP3    H211747   2.926   3.607   1.383
 3936TIP3   OH211748   1.165   6.984   2.880
 3936TIP3    H111749   1.105   7.002   2.807
 3936TIP3    H211750   1.203   7.069   2.901
 3937TIP3   OH211751   0.593   2.779   5.359
 3937TIP3    H111752   0.610   2.791   5.453
 3937TIP3    H211753   0.572   2.687   5.350
 3938TIP3   OH211754   8.099   2.538   4.125
 3938TIP3    H111755   8.005   2.557   4.126
 3938TIP3    H211756   8.130   2.575   4.043
 3939TIP3   OH211757   0.968   2.129   3.909
 3939TIP3    H111758   0.991   2.086   3.827
 3939TIP3    H211759   0.875   2.148   3.901
 3940TIP3   OH211760   6.774   3.558   4.249
 3940TIP3    H111761   6.742   3.530   4.163
 3940TIP3    H211762   6.695   3.586   4.295
 3941TIP3   OH211763   0.536   0.222   0.281
 3941TIP3    H111764   0.520   0.199   0.373
 3941TIP3    H211765   0.484   0.159   0.231
 3942TIP3   OH211766   4.630   0.971   5.329
 3942TIP3    H111767   4.597   1.009   5.411
 3942TIP3    H211768   4.607   0.878   5.335
 3943TIP3   OH211769   4.789   2.958   5.883
 3943TIP3    H111770   4.830   3.040   5.909
 3943TIP3    H211771   4.831   2.936   5.800
 3944TIP3   OH211772   7.300   2.169   5.355
 3944TIP3    H111773   7.387   2.148   5.389
 3944TIP3    H211774   7.286   2.106   5.285
 3945TIP3   OH211775   0.309   1.887   4.815
 3945TIP3    H111776   0.222   1.885   4.855
 3945TIP3    H211777   0.314   1.973   4.773
 3946TIP3   OH211778   0.146   0.895   0.655
 3946TIP3    H111779   0.104   0.980   0.662
 3946TIP3    H211780   0.176   0.890   0.564
 3947TIP3   OH211781   7.233   1.920   3.667
 3947TIP3    H111782   7.195   1.884   3.587
 3947TIP3    H211783   7.326   1.899   3.661
 3948TIP3   OH211784   4.384   3.558   0.068
 3948TIP3    H111785   4.312   3.495   0.072
 3948TIP3    H211786   4.462   3.506   0.086
 3949TIP3   OH211787   2.519   0.026   4.368
 3949TIP3    H111788   2.557  -0.020   4.443
 3949TIP3    H211789   2.484   0.107   4.404
 3950TIP3   OH211790   4.426   1.087   2.885
 3950TIP3    H111791   4.501   1.049   2.930
 3950TIP3    H211792   4.362   1.102   2.954
 3951TIP3   OH211793   5.058   7.536   0.435
 3951TIP3    H111794   4.989   7.548   0.370
 3951TIP3    H211795   5.139   7.532   0.384
 3952TIP3   OH211796   0.417   5.922   1.670
 3952TIP3    H111797   0.357   5.996   1.677
 3952TIP3    H211798   0.503   5.961   1.653
 3953TIP3   OH211799   8.167   3.983   2.396
 3953TIP3    H111800   8.100   4.032   2.349
 3953TIP3    H211801   8.209   4.048   2.453
 3954TIP3   OH211802   1.383   5.734   4.023
 3954TIP3    H111803   1.455   5.705   4.079
 3954TIP3    H211804   1.376   5.666   3.956
 3955TIP3   OH211805   5.369   3.184   4.670
 3955TIP3    H111806   5.367   3.099   4.625
 3955TIP3    H211807   5.407   3.165   4.756
 3956TIP3   OH211808   4.765   7.472   4.596
 3956TIP3    H111809   4.698   7.514   4.542
 3956TIP3    H211810   4.845   7.479   4.543
 3957TIP3   OH211811   6.262   2.691   3.952
 3957TIP3    H111812   6.188   2.632   3.966
 3957TIP3    H211813   6.291   2.715   4.040
 3958TIP3   OH211814   2.190   2.713   4.837
 3958TIP3    H111815   2.262   2.680   4.891
 3958TIP3    H211816   2.115   2.716   4.896
 3959TIP3   OH211817   4.148   5.570   4.166
 3959TIP3    H111818   4.160   5.545   4.075
 3959TIP3    H211819   4.235   5.557   4.205
 3960TIP3   OH211820   1.099   1.334   4.101
 3960TIP3    H111821   1.178   1.387   4.101
 3960TIP3    H211822   1.028   1.397   4.086
 3961TIP3   OH211823   0.893   5.184   3.192
 3961TIP3    H111824   0.805   5.211   3.165
 3961TIP3    H211825   0.879   5.120   3.261
 3962TIP3   OH211826   2.604   4.211   2.648
 3962TIP3    H111827   2.643   4.146   2.591
 3962TIP3    H211828   2.676   4.270   2.671
 3963TIP3   OH211829   2.503   4.822   5.832
 3963TIP3    H111830   2.484   4.744   5.885
 3963TIP3    H211831   2.418   4.846   5.794
 3964TIP3   OH211832   1.879   2.181   1.064
 3964TIP3    H111833   1.834   2.177   1.148
 3964TIP3    H211834   1.831   2.247   1.014
 3965TIP3   OH211835   4.079   1.869   5.493
 3965TIP3    H111836   4.169   1.889   5.519
 3965TIP3    H211837   4.031   1.864   5.575
 3966TIP3   OH211838   3.765   6.608   1.860
 3966TIP3    H111839   3.801   6.585   1.946
 3966TIP3    H211840   3.771   6.526   1.810
 3967TIP3   OH211841   4.092   1.326   4.135
 3967TIP3    H111842   4.030   1.254   4.148
 3967TIP3    H211843   4.100   1.367   4.221
 3968TIP3   OH211844   2.772   6.537   6.826
 3968TIP3    H111845   2.712   6.505   6.893
 3968TIP3    H211846   2.857   6.539   6.870
 3969TIP3   OH211847   3.006   5.755   3.806
 3969TIP3    H111848   2.913   5.769   3.789
 3969TIP3    H211849   3.028   5.819   3.874
 3970TIP3   OH211850   5.830   1.472   5.333
 3970TIP3    H111851   5.890   1.546   5.338
 3970TIP3    H211852   5.879   1.399   5.370
 3971TIP3   OH211853   5.256   5.657   1.000
 3971TIP3    H111854   5.268   5.670   1.094
 3971TIP3    H211855   5.161   5.660   0.987
 3972TIP3   OH211856   6.614   3.290   0.715
 3972TIP3    H111857   6.688   3.326   0.666
 3972TIP3    H211858   6.568   3.367   0.749
 3973TIP3   OH211859   5.729   6.285   4.239
 3973TIP3    H111860   5.708   6.217   4.175
 3973TIP3    H211861   5.824   6.280   4.248
 3974TIP3   OH211862   4.346   3.199   0.644
 3974TIP3    H111863   4.369   3.106   0.643
 3974TIP3    H211864   4.353   3.226   0.553
 3975TIP3   OH211865   7.150   5.354   2.480
 3975TIP3    H111866   7.240   5.324   2.490
 3975TIP3    H211867   7.126   5.332   2.390
 3976TIP3   OH211868   7.893   3.227   5.042
 3976TIP3    H111869   7.887   3.263   5.130
 3976TIP3    H211870   7.959   3.158   5.049
 3977TIP3   OH211871   5.087   1.711   3.391
 3977TIP3    H111872   5.162   1.713   3.451
 3977TIP3    H211873   5.011   1.702   3.449
 3978TIP3   OH211874   5.836   2.638   5.304
 3978TIP3    H111875   5.861   2.660   5.394
 3978TIP3    H211876   5.787   2.714   5.274
 3979TIP3   OH211877   4.442   7.053   5.964
 3979TIP3    H111878   4.433   7.149   5.965
 3979TIP3    H211879   4.389   7.024   6.038
 3980TIP3   OH211880   7.115   4.269   1.658
 3980TIP3    H111881   7.109   4.183   1.617
 3980TIP3    H211882   7.168   4.254   1.737
 3981TIP3   OH211883   6.256   2.782   4.481
 3981TIP3    H111884   6.179   2.764   4.427
 3981TIP3    H211885   6.233   2.861   4.530
 3982TIP3   OH211886   3.258   7.902   2.726
 3982TIP3    H111887   3.297   7.859   2.649
 3982TIP3    H211888   3.248   7.993   2.700
 3983TIP3   OH211889   7.946   3.280   4.019
 3983TIP3    H111890   7.858   3.317   4.019
 3983TIP3    H211891   7.968   3.271   4.112
 3984TIP3   OH211892   1.118   5.336   6.800
 3984TIP3    H111893   1.126   5.418   6.752
 3984TIP3    H211894   1.207   5.313   6.824
 3985TIP3   OH211895   6.493   3.782   3.280
 3985TIP3    H111896   6.553   3.786   3.206
 3985TIP3    H211897   6.541   3.822   3.353
 3986TIP3   OH211898   8.334   2.926   1.720
 3986TIP3    H111899   8.356   3.014   1.690
 3986TIP3    H211900   8.268   2.940   1.788
 3987TIP3   OH211901   5.641   4.248   3.227
 3987TIP3    H111902   5.626   4.316   3.161
 3987TIP3    H211903   5.649   4.167   3.176
 3988TIP3   OH211904   0.240   3.151   3.350
 3988TIP3    H111905   0.287   3.232   3.369
 3988TIP3    H211906   0.216   3.117   3.437
 3989TIP3   OH211907   6.595   0.364   5.348
 3989TIP3    H111908   6.597   0.452   5.310
 3989TIP3    H211909   6.550   0.376   5.432
 3990TIP3   OH211910   5.006   1.342   5.725
 3990TIP3    H111911   4.941   1.292   5.774
 3990TIP3    H211912   5.089   1.298   5.742
 3991TIP3   OH211913   8.356   0.012   1.922
 3991TIP3    H111914   8.423   0.010   1.853
 3991TIP3    H211915   8.364   0.100   1.960
 3992TIP3   OH211916   6.902   3.651   0.381
 3992TIP3    H111917   6.865   3.563   0.379
 3992TIP3    H211918   6.980   3.646   0.327
 3993TIP3   OH211919   1.073   3.704   1.763
 3993TIP3    H111920   1.110   3.777   1.715
 3993TIP3    H211921   1.110   3.626   1.721
 3994TIP3   OH211922   6.410   3.516   3.962
 3994TIP3    H111923   6.363   3.448   3.914
 3994TIP3    H211924   6.502   3.491   3.956
 3995TIP3   OH211925   3.567   6.032   5.718
 3995TIP3    H111926   3.513   5.989   5.652
 3995TIP3    H211927   3.505   6.079   5.773
 3996TIP3   OH211928   7.097   7.572   5.961
 3996TIP3    H111929   7.060   7.654   5.993
 3996TIP3    H211930   7.182   7.597   5.924
 3997TIP3   OH211931   1.371   4.357   1.850
 3997TIP3    H111932   1.304   4.395   1.906
 3997TIP3    H211933   1.367   4.263   1.866
 3998TIP3   OH211934   6.531   0.080   6.022
 3998TIP3    H111935   6.487   0.001   6.053
 3998TIP3    H211936   6.513   0.145   6.090
 3999TIP3   OH211937   7.347   1.386   6.256
 3999TIP3    H111938   7.342   1.293   6.280
 3999TIP3    H211939   7.436   1.397   6.222
 4000TIP3   OH211940   0.412   7.757   2.629
 4000TIP3    H111941   0.328   7.792   2.600
 4000TIP3    H211942   0.460   7.834   2.661
 4001TIP3   OH211943   6.219   5.724   2.584
 4001TIP3    H111944   6.180   5.810   2.594
 4001TIP3    H211945   6.298   5.740   2.531
 4002TIP3   OH211946   0.210   5.162   1.669
 4002TIP3    H111947   0.184   5.102   1.599
 4002TIP3    H211948   0.183   5.118   1.750
 4003TIP3   OH211949   5.449   4.610   6.370
 4003TIP3    H111950   5.530   4.620   6.319
 4003TIP3    H211951   5.414   4.526   6.343
 4004TIP3   OH211952   1.944   2.814   1.433
 4004TIP3    H111953   1.956   2.729   1.391
 4004TIP3    H211954   1.896   2.793   1.514
 4005TIP3   OH211955   4.928   1.579   1.314
 4005TIP3    H111956   5.003   1.601   1.259
 4005TIP3    H211957   4.965   1.535   1.390
 4006TIP3   OH211958   0.996   6.917   1.977
 4006TIP3    H111959   0.969   6.891   1.888
 4006TIP3    H211960   1.055   6.991   1.963
 4007TIP3   OH211961   5.164   7.037   6.129
 4007TIP3    H111962   5.103   6.964   6.137
 4007TIP3    H211963   5.123   7.096   6.067
 4008TIP3   OH211964   0.651   4.590   3.814
 4008TIP3    H111965   0.657   4.571   3.721
 4008TIP3    H211966   0.738   4.569   3.849
 4009TIP3   OH211967   5.080   5.409   0.535
 4009TIP3    H111968   5.076   5.318   0.507
 4009TIP3    H211969   5.171   5.421   0.564
 4010TIP3   OH211970   3.824   2.357   1.375
 4010TIP3    H111971   3.750   2.416   1.363
 4010TIP3    H211972   3.828   2.306   1.294
 4011TIP3   OH211973   4.296   1.478   1.213
 4011TIP3    H111974   4.289   1.470   1.118
 4011TIP3    H211975   4.297   1.572   1.229
 4012TIP3   OH211976   6.337   4.040   1.834
 4012TIP3    H111977   6.329   3.951   1.799
 4012TIP3    H211978   6.264   4.049   1.895
 4013TIP3   OH211979   3.225   1.901   0.819
 4013TIP3    H111980   3.201   1.883   0.909
 4013TIP3    H211981   3.295   1.838   0.800
 4014TIP3   OH211982   3.320   1.324   3.654
 4014TIP3    H111983   3.365   1.304   3.736
 4014TIP3    H211984   3.389   1.362   3.599
 4015TIP3   OH211985   3.468   5.169   5.711
 4015TIP3    H111986   3.487   5.176   5.805
 4015TIP3    H211987   3.475   5.259   5.678
 4016TIP3   OH211988   6.727   3.436   3.654
 4016TIP3    H111989   6.766   3.365   3.705
 4016TIP3    H211990   6.801   3.484   3.619
 4017TIP3   OH211991   0.690   5.549   5.263
 4017TIP3    H111992   0.674   5.517   5.175
 4017TIP3    H211993   0.665   5.476   5.320
 4018TIP3   OH211994   1.939   2.336   6.183
 4018TIP3    H111995   1.864   2.277   6.180
 4018TIP3    H211996   1.997   2.304   6.114
 4019TIP3   OH211997   4.584   2.465   0.895
 4019TIP3    H111998   4.566   2.559   0.895
 4019TIP3    H211999   4.550   2.435   0.811
 4020TIP3   OH212000   0.763   0.318   3.417
 4020TIP3    H112001   0.822   0.391   3.437
 4020TIP3    H212002   0.708   0.350   3.346
 4021TIP3   OH212003   0.133   1.826   3.488
 4021TIP3    H112004   0.083   1.900   3.454
 4021TIP3    H212005   0.182   1.862   3.562
 4022TIP3   OH212006   4.205   0.463   6.257
 4022TIP3    H112007   4.236   0.543   6.214
 4022TIP3    H212008   4.136   0.493   6.316
 4023TIP3   OH212009   2.419   2.369   2.500
 4023TIP3    H112010   2.513   2.385   2.488
 4023TIP3    H212011   2.377   2.439   2.450
 4024TIP3   OH212012   7.525   1.464   4.024
 4024TIP3    H112013   7.607   1.420   3.999
 4024TIP3    H212014   7.500   1.422   4.106
 4025TIP3   OH212015   7.562   2.319   4.160
 4025TIP3    H112016   7.524   2.408   4.162
 4025TIP3    H212017   7.490   2.262   4.187
 4026TIP3   OH212018   3.248   1.177   1.762
 4026TIP3    H112019   3.313   1.198   1.696
 4026TIP3    H212020   3.167   1.163   1.713
 4027TIP3   OH212021   6.215   0.417   3.756
 4027TIP3    H112022   6.138   0.367   3.731
 4027TIP3    H212023   6.285   0.382   3.700
 4028TIP3   OH212024   2.191   1.995   2.840
 4028TIP3    H112025   2.230   2.075   2.806
 4028TIP3    H212026   2.099   2.016   2.852
 4029TIP3   OH212027   4.311   5.776   2.944
 4029TIP3    H112028   4.285   5.686   2.920
 4029TIP3    H212029   4.323   5.773   3.039
 4030TIP3   OH212030   0.706   1.684   1.547
 4030TIP3    H112031   0.653   1.758   1.576
 4030TIP3    H212032   0.657   1.647   1.474
 4031TIP3   OH212033   2.917   1.328   1.398
 4031TIP3    H112034   2.869   1.377   1.465
 4031TIP3    H212035   2.986   1.387   1.369
 4032TIP3   OH212036   6.206   4.326   4.853
 4032TIP3    H112037   6.150   4.330   4.930
 4032TIP3    H212038   6.146   4.319   4.779
 4033TIP3   OH212039   8.054   4.351   6.424
 4033TIP3    H112040   7.990   4.309   6.481
 4033TIP3    H212041   8.011   4.431   6.394
 4034TIP3   OH212042   4.692   7.841   4.904
 4034TIP3    H112043   4.731   7.755   4.889
 4034TIP3    H212044   4.598   7.826   4.897
 4035TIP3   OH212045   0.780   6.276   4.815
 4035TIP3    H112046   0.870   6.298   4.793
 4035TIP3    H212047   0.780   6.181   4.825
 4036TIP3   OH212048   5.837   4.350   5.383
 4036TIP3    H112049   5.782   4.315   5.313
 4036TIP3    H212050   5.792   4.431   5.410
 4037TIP3   OH212051   8.213   4.857   6.004
 4037TIP3    H112052   8.263   4.863   5.923
 4037TIP3    H212053   8.279   4.858   6.073
 4038TIP3   OH212054   8.284   6.711   3.107
 4038TIP3    H112055   8.338   6.708   3.186
 4038TIP3    H212056   8.197   6.737   3.139
 4039TIP3   OH212057   0.451   2.237   3.572
 4039TIP3    H112058   0.364   2.204   3.590
 4039TIP3    H212059   0.437   2.310   3.512
 4040TIP3   OH212060   1.921   3.313   1.225
 4040TIP3    H112061   1.991   3.317   1.159
 4040TIP3    H212062   1.871   3.394   1.212
 4041TIP3   OH212063   5.338   0.153   1.730
 4041TIP3    H112064   5.382   0.085   1.781
 4041TIP3    H212065   5.409   0.201   1.688
 4042TIP3   OH212066   5.488   6.821   0.923
 4042TIP3    H112067   5.555   6.855   0.863
 4042TIP3    H212068   5.408   6.868   0.899
 4043TIP3   OH212069   6.220   0.476   2.661
 4043TIP3    H112070   6.150   0.524   2.705
 4043TIP3    H212071   6.252   0.414   2.726
 4044TIP3   OH212072   2.083   3.596   4.720
 4044TIP3    H112073   1.997   3.623   4.754
 4044TIP3    H212074   2.078   3.613   4.626
 4045TIP3   OH212075   5.684   0.107   1.213
 4045TIP3    H112076   5.698   0.083   1.121
 4045TIP3    H212077   5.761   0.072   1.258
 4046TIP3   OH212078   5.906   7.194   5.196
 4046TIP3    H112079   5.925   7.184   5.289
 4046TIP3    H212080   5.909   7.288   5.180
 4047TIP3   OH212081   6.499   2.171   1.542
 4047TIP3    H112082   6.445   2.101   1.504
 4047TIP3    H212083   6.489   2.244   1.481
 4048TIP3   OH212084   1.125   4.748   4.967
 4048TIP3    H112085   1.132   4.654   4.980
 4048TIP3    H212086   1.034   4.769   4.989
 4049TIP3   OH212087   2.625   2.408   3.119
 4049TIP3    H112088   2.617   2.312   3.120
 4049TIP3    H212089   2.541   2.439   3.152
 4050TIP3   OH212090   0.120   1.762   6.668
 4050TIP3    H112091   0.213   1.745   6.680
 4050TIP3    H212092   0.113   1.794   6.578
 4051TIP3   OH212093   1.184   1.844   1.640
 4051TIP3    H112094   1.162   1.921   1.693
 4051TIP3    H212095   1.121   1.846   1.568
 4052TIP3   OH212096   8.220   7.560   3.155
 4052TIP3    H112097   8.203   7.581   3.063
 4052TIP3    H212098   8.181   7.632   3.204
 4053TIP3   OH212099   8.106   6.058   2.911
 4053TIP3    H112100   8.043   6.113   2.956
 4053TIP3    H212101   8.132   6.109   2.834
 4054TIP3   OH212102   3.971   3.227   0.071
 4054TIP3    H112103   3.965   3.204   0.164
 4054TIP3    H212104   3.917   3.306   0.062
 4055TIP3   OH212105   5.747   1.248   3.464
 4055TIP3    H112106   5.834   1.228   3.500
 4055TIP3    H212107   5.699   1.289   3.536
 4056TIP3   OH212108   1.700   0.138   6.288
 4056TIP3    H112109   1.753   0.060   6.304
 4056TIP3    H212110   1.740   0.206   6.343
 4057TIP3   OH212111   0.022   4.419   3.921
 4057TIP3    H112112   0.014   4.326   3.898
 4057TIP3    H212113  -0.045   4.462   3.868
 4058TIP3   OH212114   8.308   1.668   5.120
 4058TIP3    H112115   8.350   1.732   5.063
 4058TIP3    H212116   8.215   1.692   5.119
 4059TIP3   OH212117   2.776   5.189   4.298
 4059TIP3    H112118   2.712   5.221   4.235
 4059TIP3    H212119   2.855   5.242   4.282
 4060TIP3   OH212120   1.925   5.074   5.072
 4060TIP3    H112121   1.879   5.039   5.149
 4060TIP3    H212122   2.003   5.019   5.063
 4061TIP3   OH212123   0.675   2.455   1.530
 4061TIP3    H112124   0.759   2.414   1.510
 4061TIP3    H212125   0.698   2.541   1.567
 4062TIP3   OH212126   2.190   2.190   4.751
 4062TIP3    H112127   2.226   2.226   4.670
 4062TIP3    H212128   2.243   2.229   4.821
 4063TIP3   OH212129   7.188   2.688   1.111
 4063TIP3    H112130   7.095   2.706   1.097
 4063TIP3    H212131   7.190   2.625   1.184
 4064TIP3   OH212132   6.303   1.399   3.158
 4064TIP3    H112133   6.210   1.378   3.154
 4064TIP3    H212134   6.307   1.487   3.193
 4065TIP3   OH212135   4.741   1.498   3.315
 4065TIP3    H112136   4.730   1.496   3.220
 4065TIP3    H212137   4.816   1.441   3.331
 4066TIP3   OH212138   8.401   1.960   2.608
 4066TIP3    H112139   8.476   2.014   2.582
 4066TIP3    H212140   8.432   1.870   2.601
 4067TIP3   OH212141   6.852   2.103   4.500
 4067TIP3    H112142   6.863   2.166   4.429
 4067TIP3    H212143   6.921   2.123   4.562
 4068TIP3   OH212144   0.335   7.919   0.592
 4068TIP3    H112145   0.419   7.910   0.636
 4068TIP3    H212146   0.326   7.839   0.540
 4069TIP3   OH212147   1.736   2.563   0.648
 4069TIP3    H112148   1.727   2.566   0.553
 4069TIP3    H212149   1.815   2.614   0.666
 4070TIP3   OH212150   4.306   4.811   0.557
 4070TIP3    H112151   4.368   4.881   0.536
 4070TIP3    H212152   4.340   4.774   0.639
 4071TIP3   OH212153   5.396   7.749   4.710
 4071TIP3    H112154   5.314   7.790   4.682
 4071TIP3    H212155   5.464   7.805   4.673
 4072TIP3   OH212156   3.354   1.677   4.558
 4072TIP3    H112157   3.364   1.753   4.501
 4072TIP3    H212158   3.440   1.636   4.558
 4073TIP3   OH212159   2.431   1.838   1.762
 4073TIP3    H112160   2.437   1.879   1.849
 4073TIP3    H212161   2.391   1.753   1.779
 4074TIP3   OH212162   8.100   0.579   0.548
 4074TIP3    H112163   8.113   0.638   0.623
 4074TIP3    H212164   8.128   0.631   0.472
 4075TIP3   OH212165   1.968   1.828   6.166
 4075TIP3    H112166   2.018   1.893   6.215
 4075TIP3    H212167   1.940   1.765   6.232
 4076TIP3   OH212168   5.213   6.439   1.367
 4076TIP3    H112169   5.221   6.473   1.278
 4076TIP3    H212170   5.292   6.387   1.380
 4077TIP3   OH212171   2.186   5.489   1.226
 4077TIP3    H112172   2.264   5.436   1.242
 4077TIP3    H212173   2.217   5.579   1.229
 4078TIP3   OH212174   1.102   4.027   4.873
 4078TIP3    H112175   1.111   3.964   4.945
 4078TIP3    H212176   1.167   4.094   4.892
 4079TIP3   OH212177   1.223   3.977   5.594
 4079TIP3    H112178   1.137   4.018   5.592
 4079TIP3    H212179   1.258   3.991   5.505
 4080TIP3   OH212180   5.945   1.256   5.803
 4080TIP3    H112181   5.977   1.196   5.870
 4080TIP3    H212182   5.897   1.200   5.741
 4081TIP3   OH212183   7.110   7.925   2.814
 4081TIP3    H112184   7.173   7.857   2.791
 4081TIP3    H212185   7.132   7.949   2.904
 4082TIP3   OH212186   7.548   3.953   6.111
 4082TIP3    H112187   7.547   3.962   6.206
 4082TIP3    H212188   7.455   3.950   6.086
 4083TIP3   OH212189   7.899   7.407   4.172
 4083TIP3    H112190   7.936   7.479   4.223
 4083TIP3    H212191   7.971   7.377   4.117
 4084TIP3   OH212192   7.198   6.058   3.336
 4084TIP3    H112193   7.226   5.989   3.395
 4084TIP3    H212194   7.128   6.104   3.383
 4085TIP3   OH212195   4.453   0.354   6.305
 4085TIP3    H112196   4.459   0.421   6.373
 4085TIP3    H212197   4.368   0.369   6.264
 4086TIP3   OH212198   1.780   7.117   3.015
 4086TIP3    H112199   1.729   7.071   3.082
 4086TIP3    H212200   1.715   7.165   2.964
 4087TIP3   OH212201   3.819   3.050   5.465
 4087TIP3    H112202   3.826   2.984   5.396
 4087TIP3    H212203   3.774   3.124   5.424
 4088TIP3   OH212204   3.401   5.490   3.176
 4088TIP3    H112205   3.328   5.552   3.177
 4088TIP3    H212206   3.423   5.480   3.084
 4089TIP3   OH212207   5.507   4.541   2.198
 4089TIP3    H112208   5.496   4.524   2.292
 4089TIP3    H212209   5.600   4.527   2.182
 4090TIP3   OH212210   7.743   3.244   6.431
 4090TIP3    H112211   7.665   3.225   6.379
 4090TIP3    H212212   7.748   3.171   6.494
 4091TIP3   OH212213   7.577   5.144   4.159
 4091TIP3    H112214   7.566   5.097   4.242
 4091TIP3    H212215   7.645   5.095   4.113
 4092TIP3   OH212216   7.955   6.042   6.498
 4092TIP3    H112217   7.906   6.111   6.544
 4092TIP3    H212218   8.021   6.014   6.560
 4093TIP3   OH212219   7.452   2.729   6.413
 4093TIP3    H112220   7.546   2.742   6.401
 4093TIP3    H212221   7.446   2.655   6.474
 4094TIP3   OH212222   3.034   5.270   4.260
 4094TIP3    H112223   3.080   5.191   4.232
 4094TIP3    H212224   3.104   5.331   4.285
 4095TIP3   OH212225   2.072   4.767   4.766
 4095TIP3    H112226   1.983   4.798   4.783
 4095TIP3    H212227   2.120   4.787   4.847
 4096TIP3   OH212228   3.861   2.445   6.583
 4096TIP3    H112229   3.925   2.441   6.512
 4096TIP3    H212230   3.912   2.463   6.661
 4097TIP3   OH212231   0.035   5.804   4.303
 4097TIP3    H112232   0.040   5.893   4.337
 4097TIP3    H212233   0.126   5.779   4.287
 4098TIP3   OH212234   6.964   1.228   1.228
 4098TIP3    H112235   7.033   1.224   1.162
 4098TIP3    H212236   6.985   1.157   1.289
 4099TIP3   OH212237   3.853   7.358   6.285
 4099TIP3    H112238   3.948   7.356   6.268
 4099TIP3    H212239   3.827   7.266   6.280
 4100TIP3   OH212240   2.425   5.105   4.580
 4100TIP3    H112241   2.485   5.180   4.587
 4100TIP3    H212242   2.446   5.064   4.497
 4101TIP3   OH212243   5.791   5.101   5.093
 4101TIP3    H112244   5.812   5.175   5.036
 4101TIP3    H212245   5.814   5.131   5.181
 4102TIP3   OH212246   0.679   4.458   5.902
 4102TIP3    H112247   0.695   4.422   5.815
 4102TIP3    H212248   0.615   4.398   5.941
 4103TIP3   OH212249   6.992   0.921   4.464
 4103TIP3    H112250   6.942   0.998   4.490
 4103TIP3    H212251   6.945   0.847   4.503
 4104TIP3   OH212252   0.983   7.919   4.422
 4104TIP3    H112253   0.952   7.831   4.399
 4104TIP3    H212254   1.072   7.923   4.387
 4105TIP3   OH212255   0.722   6.064   0.692
 4105TIP3    H112256   0.637   6.039   0.727
 4105TIP3    H212257   0.782   5.996   0.723
 4106TIP3   OH212258   7.823   4.572   6.812
 4106TIP3    H112259   7.896   4.529   6.857
 4106TIP3    H212260   7.803   4.648   6.866
 4107TIP3   OH212261   2.095   0.862   6.290
 4107TIP3    H112262   2.177   0.901   6.318
 4107TIP3    H212263   2.109   0.768   6.298
 4108TIP3   OH212264   7.802   2.495   4.067
 4108TIP3    H112265   7.781   2.471   4.158
 4108TIP3    H212266   7.783   2.417   4.016
 4109TIP3   OH212267   3.142   7.270   2.033
 4109TIP3    H112268   3.110   7.180   2.046
 4109TIP3    H212269   3.150   7.304   2.122
 4110TIP3   OH212270   3.570   2.881   2.156
 4110TIP3    H112271   3.504   2.926   2.208
 4110TIP3    H212272   3.625   2.952   2.121
 4111TIP3   OH212273   4.245   5.003   4.489
 4111TIP3    H112274   4.153   5.022   4.507
 4111TIP3    H212275   4.292   5.079   4.522
 4112TIP3   OH212276   1.217   5.202   1.742
 4112TIP3    H112277   1.172   5.165   1.666
 4112TIP3    H212278   1.299   5.235   1.707
 4113TIP3   OH212279   3.034   5.272   4.628
 4113TIP3    H112280   3.003   5.189   4.664
 4113TIP3    H212281   3.126   5.255   4.607
 4114TIP3   OH212282   3.487   4.345   4.566
 4114TIP3    H112283   3.429   4.346   4.642
 4114TIP3    H212284   3.429   4.361   4.491
 4115TIP3   OH212285   6.831   3.964   5.587
 4115TIP3    H112286   6.766   4.028   5.615
 4115TIP3    H212287   6.913   4.014   5.583
 4116TIP3   OH212288   3.947   3.917   3.682
 4116TIP3    H112289   4.016   3.977   3.713
 4116TIP3    H212290   3.885   3.914   3.754
 4117TIP3   OH212291   8.250   3.733   1.534
 4117TIP3    H112292   8.164   3.775   1.525
 4117TIP3    H212293   8.309   3.805   1.559
 4118TIP3   OH212294   0.767   6.156   5.147
 4118TIP3    H112295   0.695   6.217   5.130
 4118TIP3    H212296   0.725   6.076   5.176
 4119TIP3   OH212297   1.181   1.144   4.470
 4119TIP3    H112298   1.133   1.065   4.444
 4119TIP3    H212299   1.146   1.166   4.556
 4120TIP3   OH212300   1.879   7.289   0.418
 4120TIP3    H112301   1.844   7.375   0.399
 4120TIP3    H212302   1.819   7.228   0.376
 4121TIP3   OH212303   7.223   0.438   0.358
 4121TIP3    H112304   7.234   0.483   0.274
 4121TIP3    H212305   7.312   0.423   0.389
 4122TIP3   OH212306   6.452   0.218   3.603
 4122TIP3    H112307   6.490   0.130   3.596
 4122TIP3    H212308   6.511   0.265   3.663
 4123TIP3   OH212309   0.116   3.011   3.577
 4123TIP3    H112310   0.052   3.041   3.513
 4123TIP3    H212311   0.111   3.074   3.649
 4124TIP3   OH212312   1.500   0.890   2.855
 4124TIP3    H112313   1.461   0.864   2.938
 4124TIP3    H212314   1.483   0.984   2.848
 4125TIP3   OH212315   4.151   2.294   0.500
 4125TIP3    H112316   4.121   2.206   0.524
 4125TIP3    H212317   4.171   2.287   0.406
 4126TIP3   OH212318   8.183   0.690   1.497
 4126TIP3    H112319   8.161   0.622   1.432
 4126TIP3    H212320   8.110   0.690   1.558
 4127TIP3   OH212321   1.274   0.707   6.115
 4127TIP3    H112322   1.233   0.768   6.053
 4127TIP3    H212323   1.313   0.764   6.181
 4128TIP3   OH212324   3.099   7.376   2.987
 4128TIP3    H112325   3.165   7.445   2.997
 4128TIP3    H212326   3.150   7.298   2.966
 4129TIP3   OH212327   4.899   4.960   1.471
 4129TIP3    H112328   4.884   5.054   1.457
 4129TIP3    H212329   4.984   4.956   1.515
 4130TIP3   OH212330   3.314   0.313   5.735
 4130TIP3    H112331   3.403   0.292   5.707
 4130TIP3    H212332   3.258   0.273   5.669
 4131TIP3   OH212333   7.271   2.359   6.641
 4131TIP3    H112334   7.181   2.390   6.657
 4131TIP3    H212335   7.326   2.431   6.670
 4132TIP3   OH212336   7.797   0.437   6.628
 4132TIP3    H112337   7.883   0.394   6.627
 4132TIP3    H212338   7.802   0.502   6.558
 4133TIP3   OH212339   7.209   3.826   6.345
 4133TIP3    H112340   7.218   3.921   6.334
 4133TIP3    H212341   7.172   3.816   6.432
 4134TIP3   OH212342   1.955   3.147   5.569
 4134TIP3    H112343   1.950   3.232   5.526
 4134TIP3    H212344   1.881   3.098   5.534
 4135TIP3   OH212345   1.953   3.496   1.933
 4135TIP3    H112346   1.944   3.485   1.838
 4135TIP3    H212347   2.027   3.556   1.944
 4136TIP3   OH212348   2.409   2.864   4.667
 4136TIP3    H112349   2.382   2.773   4.663
 4136TIP3    H212350   2.331   2.911   4.696
 4137TIP3   OH212351   7.864   3.400   4.847
 4137TIP3    H112352   7.825   3.475   4.891
 4137TIP3    H212353   7.884   3.338   4.918
 4138TIP3   OH212354   8.061   3.546   0.671
 4138TIP3    H112355   8.109   3.474   0.712
 4138TIP3    H212356   8.013   3.587   0.743
 4139TIP3   OH212357   0.252   1.693   3.109
 4139TIP3    H112358   0.213   1.609   3.084
 4139TIP3    H212359   0.218   1.755   3.045
 4140TIP3   OH212360   3.737   0.662   6.080
 4140TIP3    H112361   3.688   0.581   6.066
 4140TIP3    H212362   3.829   0.636   6.075
 4141TIP3   OH212363   3.463   2.624   0.639
 4141TIP3    H112364   3.447   2.583   0.554
 4141TIP3    H212365   3.464   2.718   0.621
 4142TIP3   OH212366   2.572   0.535   1.444
 4142TIP3    H112367   2.560   0.450   1.487
 4142TIP3    H212368   2.484   0.563   1.421
 4143TIP3   OH212369   1.607   3.748   6.290
 4143TIP3    H112370   1.615   3.709   6.203
 4143TIP3    H212371   1.522   3.792   6.289
 4144TIP3   OH212372   6.934   3.049   1.097
 4144TIP3    H112373   6.897   3.111   1.160
 4144TIP3    H212374   6.902   2.964   1.124
 4145TIP3   OH212375   3.121   4.974   3.441
 4145TIP3    H112376   3.169   4.959   3.523
 4145TIP3    H212377   3.094   5.065   3.445
 4146TIP3   OH212378   5.475   6.060   5.531
 4146TIP3    H112379   5.535   5.993   5.498
 4146TIP3    H212380   5.436   6.098   5.453
 4147TIP3   OH212381   0.609   4.537   2.230
 4147TIP3    H112382   0.552   4.512   2.158
 4147TIP3    H212383   0.688   4.570   2.188
 4148TIP3   OH212384   5.887   4.723   3.937
 4148TIP3    H112385   5.804   4.751   3.898
 4148TIP3    H212386   5.946   4.798   3.923
 4149TIP3   OH212387   3.657   1.469   1.178
 4149TIP3    H112388   3.660   1.524   1.100
 4149TIP3    H212389   3.645   1.380   1.144
 4150TIP3   OH212390   1.545   0.479   0.098
 4150TIP3    H112391   1.596   0.511   0.173
 4150TIP3    H212392   1.524   0.388   0.122
 4151TIP3   OH212393   8.185   5.671   6.147
 4151TIP3    H112394   8.113   5.625   6.191
 4151TIP3    H212395   8.151   5.760   6.134
 4152TIP3   OH212396   0.351   2.099   4.584
 4152TIP3    H112397   0.439   2.086   4.547
 4152TIP3    H212398   0.300   2.025   4.551
 4153TIP3   OH212399   1.222   2.139   0.873
 4153TIP3    H112400   1.268   2.220   0.856
 4153TIP3    H212401   1.139   2.148   0.824
 4154TIP3   OH212402   2.710   6.019   4.400
 4154TIP3    H112403   2.796   6.014   4.441
 4154TIP3    H212404   2.673   5.931   4.412
 4155TIP3   OH212405   1.090   4.414   3.478
 4155TIP3    H112406   1.134   4.496   3.454
 4155TIP3    H212407   1.156   4.365   3.528
 4156TIP3   OH212408   6.117   2.899   1.909
 4156TIP3    H112409   6.192   2.852   1.945
 4156TIP3    H212410   6.061   2.916   1.985
 4157TIP3   OH212411   0.724   6.241   6.105
 4157TIP3    H112412   0.696   6.244   6.197
 4157TIP3    H212413   0.777   6.162   6.099
 4158TIP3   OH212414   5.666   0.965   5.363
 4158TIP3    H112415   5.741   0.926   5.319
 4158TIP3    H212416   5.704   1.020   5.431
 4159TIP3   OH212417   3.384   7.034   2.087
 4159TIP3    H112418   3.309   6.985   2.053
 4159TIP3    H212419   3.445   7.037   2.014
 4160TIP3   OH212420   0.590   7.655   1.929
 4160TIP3    H112421   0.509   7.625   1.969
 4160TIP3    H212422   0.563   7.708   1.854
 4161TIP3   OH212423   1.844   7.512   5.297
 4161TIP3    H112424   1.904   7.585   5.316
 4161TIP3    H212425   1.899   7.434   5.303
 4162TIP3   OH212426   5.004   0.314   1.877
 4162TIP3    H112427   4.963   0.275   1.799
 4162TIP3    H212428   4.937   0.307   1.945
 4163TIP3   OH212429   0.968   7.589   2.368
 4163TIP3    H112430   1.038   7.568   2.430
 4163TIP3    H212431   0.941   7.678   2.390
 4164TIP3   OH212432   1.201   1.820   0.385
 4164TIP3    H112433   1.189   1.801   0.292
 4164TIP3    H212434   1.296   1.811   0.399
 4165TIP3   OH212435   3.697   3.713   6.294
 4165TIP3    H112436   3.695   3.760   6.377
 4165TIP3    H212437   3.616   3.662   6.293
 4166TIP3   OH212438   8.129   1.155   0.389
 4166TIP3    H112439   8.165   1.237   0.357
 4166TIP3    H212440   8.181   1.087   0.347
 4167TIP3   OH212441   3.871   5.010   6.260
 4167TIP3    H112442   3.845   5.100   6.279
 4167TIP3    H212443   3.967   5.010   6.269
 4168TIP3   OH212444   7.813   4.327   0.567
 4168TIP3    H112445   7.802   4.283   0.651
 4168TIP3    H212446   7.884   4.390   0.582
 4169TIP3   OH212447   1.510   3.583   2.049
 4169TIP3    H112448   1.458   3.525   1.995
 4169TIP3    H212449   1.596   3.542   2.054
 4170TIP3   OH212450   2.735   3.430   5.705
 4170TIP3    H112451   2.752   3.344   5.666
 4170TIP3    H212452   2.738   3.414   5.799
 4171TIP3   OH212453   0.227   6.287   4.973
 4171TIP3    H112454   0.197   6.373   5.001
 4171TIP3    H212455   0.218   6.288   4.877
 4172TIP3   OH212456   1.828   5.300   5.364
 4172TIP3    H112457   1.856   5.389   5.345
 4172TIP3    H212458   1.764   5.310   5.435
 4173TIP3   OH212459   1.812   5.781   0.663
 4173TIP3    H112460   1.878   5.765   0.595
 4173TIP3    H212461   1.748   5.839   0.622
 4174TIP3   OH212462   1.078   6.336   5.407
 4174TIP3    H112463   1.049   6.416   5.451
 4174TIP3    H212464   1.045   6.345   5.317
 4175TIP3   OH212465   4.844   2.868   0.687
 4175TIP3    H112466   4.870   2.935   0.624
 4175TIP3    H212467   4.851   2.786   0.639
 4176TIP3   OH212468   4.002   2.308   1.052
 4176TIP3    H112469   4.094   2.298   1.028
 4176TIP3    H212470   3.957   2.323   0.969
 4177TIP3   OH212471   2.748   3.748   6.492
 4177TIP3    H112472   2.661   3.712   6.474
 4177TIP3    H212473   2.732   3.820   6.553
 4178TIP3   OH212474   1.101   7.500   1.305
 4178TIP3    H112475   1.113   7.405   1.295
 4178TIP3    H212476   1.006   7.511   1.311
 4179TIP3   OH212477   3.859   0.324   2.211
 4179TIP3    H112478   3.793   0.373   2.262
 4179TIP3    H212479   3.890   0.387   2.146
 4180TIP3   OH212480   8.121   0.889   2.258
 4180TIP3    H112481   8.119   0.981   2.232
 4180TIP3    H212482   8.038   0.854   2.225
 4181TIP3   OH212483   6.918   7.447   0.096
 4181TIP3    H112484   6.901   7.541   0.106
 4181TIP3    H212485   6.849   7.416   0.037
 4182TIP3   OH212486   0.035   3.646   4.923
 4182TIP3    H112487   0.054   3.734   4.889
 4182TIP3    H212488   0.017   3.594   4.845
 4183TIP3   OH212489   0.140   2.388   0.643
 4183TIP3    H112490   0.129   2.306   0.691
 4183TIP3    H212491   0.228   2.383   0.607
 4184TIP3   OH212492   0.806   3.814   3.613
 4184TIP3    H112493   0.858   3.873   3.558
 4184TIP3    H212494   0.718   3.820   3.577
 4185TIP3   OH212495   6.858   5.089   0.984
 4185TIP3    H112496   6.804   5.168   0.979
 4185TIP3    H212497   6.855   5.064   1.076
 4186TIP3   OH212498   1.364   1.910   0.766
 4186TIP3    H112499   1.352   1.953   0.851
 4186TIP3    H212500   1.429   1.963   0.721
 4187TIP3   OH212501   5.579   2.120   5.895
 4187TIP3    H112502   5.542   2.200   5.932
 4187TIP3    H212503   5.502   2.071   5.863
 4188TIP3   OH212504   8.368   5.168   2.214
 4188TIP3    H112505   8.274   5.181   2.227
 4188TIP3    H212506   8.374   5.089   2.162
 4189TIP3   OH212507   0.081   6.224   5.747
 4189TIP3    H112508   0.117   6.146   5.703
 4189TIP3    H212509   0.136   6.235   5.824
 4190TIP3   OH212510   5.969   4.580   1.391
 4190TIP3    H112511   5.980   4.575   1.486
 4190TIP3    H212512   6.000   4.667   1.367
 4191TIP3   OH212513   2.028   6.769   0.644
 4191TIP3    H112514   2.069   6.704   0.702
 4191TIP3    H212515   1.981   6.828   0.703
 4192TIP3   OH212516   1.453   2.329   1.258
 4192TIP3    H112517   1.474   2.274   1.183
 4192TIP3    H212518   1.459   2.419   1.225
 4193TIP3   OH212519   0.924   5.928   3.977
 4193TIP3    H112520   0.972   5.858   4.022
 4193TIP3    H212521   0.969   5.938   3.893
 4194TIP3   OH212522   7.250   2.333   0.261
 4194TIP3    H112523   7.324   2.355   0.205
 4194TIP3    H212524   7.267   2.380   0.343
 4195TIP3   OH212525   7.057   6.110   4.856
 4195TIP3    H112526   7.044   6.016   4.873
 4195TIP3    H212527   7.120   6.138   4.922
 4196TIP3   OH212528   1.121   3.662   3.215
 4196TIP3    H112529   1.171   3.624   3.143
 4196TIP3    H212530   1.153   3.752   3.223
 4197TIP3   OH212531   0.300   3.814   2.241
 4197TIP3    H112532   0.318   3.870   2.165
 4197TIP3    H212533   0.257   3.737   2.205
 4198TIP3   OH212534   4.067   2.795   2.868
 4198TIP3    H112535   4.037   2.880   2.900
 4198TIP3    H212536   4.156   2.786   2.903
 4199TIP3   OH212537   6.584   1.909   4.667
 4199TIP3    H112538   6.619   1.987   4.710
 4199TIP3    H212539   6.489   1.914   4.682
 4200TIP3   OH212540   4.578   7.484   2.592
 4200TIP3    H112541   4.570   7.489   2.496
 4200TIP3    H212542   4.656   7.536   2.612
 4201TIP3   OH212543   7.542   3.740   4.349
 4201TIP3    H112544   7.631   3.706   4.345
 4201TIP3    H212545   7.539   3.808   4.282
 4202TIP3   OH212546   7.259   6.931   1.047
 4202TIP3    H112547   7.325   7.000   1.054
 4202TIP3    H212548   7.309   6.854   1.020
 4203TIP3   OH212549   3.827   4.798   2.737
 4203TIP3    H112550   3.918   4.807   2.709
 4203TIP3    H212551   3.800   4.886   2.761
 4204TIP3   OH212552   2.210   3.915   2.051
 4204TIP3    H112553   2.288   3.863   2.034
 4204TIP3    H212554   2.218   3.943   2.142
 4205TIP3   OH212555   6.916   0.208   2.114
 4205TIP3    H112556   6.825   0.224   2.091
 4205TIP3    H212557   6.946   0.291   2.152
 4206TIP3   OH212558   2.172   6.485   4.331
 4206TIP3    H112559   2.113   6.558   4.347
 4206TIP3    H212560   2.191   6.450   4.419
 4207TIP3   OH212561   4.895   4.304   2.079
 4207TIP3    H112562   4.930   4.383   2.037
 4207TIP3    H212563   4.801   4.306   2.059
 4208TIP3   OH212564   2.171   4.579   4.025
 4208TIP3    H112565   2.134   4.580   3.937
 4208TIP3    H212566   2.124   4.649   4.072
 4209TIP3   OH212567   1.647   6.193   1.691
 4209TIP3    H112568   1.566   6.218   1.735
 4209TIP3    H212569   1.716   6.234   1.743
 4210TIP3   OH212570   6.718   4.703   6.257
 4210TIP3    H112571   6.627   4.728   6.241
 4210TIP3    H212572   6.768   4.747   6.188
 4211TIP3   OH212573   0.611   0.121   5.054
 4211TIP3    H112574   0.530   0.116   5.004
 4211TIP3    H212575   0.586   0.095   5.143
 4212TIP3   OH212576   4.986   2.298   2.325
 4212TIP3    H112577   5.003   2.376   2.273
 4212TIP3    H212578   4.937   2.240   2.268
 4213TIP3   OH212579   2.181   1.030   4.840
 4213TIP3    H112580   2.176   1.086   4.762
 4213TIP3    H212581   2.236   1.079   4.901
 4214TIP3   OH212582   1.050   2.180   4.181
 4214TIP3    H112583   1.023   2.179   4.089
 4214TIP3    H212584   1.058   2.087   4.204
 4215TIP3   OH212585   0.416   6.848   6.237
 4215TIP3    H112586   0.426   6.786   6.165
 4215TIP3    H212587   0.350   6.910   6.207
 4216TIP3   OH212588   8.190   1.491   3.130
 4216TIP3    H112589   8.138   1.436   3.189
 4216TIP3    H212590   8.257   1.530   3.186
 4217TIP3   OH212591   0.877   2.457   6.636
 4217TIP3    H112592   0.925   2.470   6.554
 4217TIP3    H212593   0.861   2.546   6.668
 4218TIP3   OH212594   5.826   4.082   3.877
 4218TIP3    H112595   5.811   3.991   3.853
 4218TIP3    H212596   5.741   4.125   3.864
 4219TIP3   OH212597   6.234   1.765   6.375
 4219TIP3    H112598   6.225   1.806   6.461
 4219TIP3    H212599   6.145   1.753   6.344
 4220TIP3   OH212600   5.903   6.635   5.538
 4220TIP3    H112601   5.832   6.680   5.493
 4220TIP3    H212602   5.975   6.699   5.539
 4221TIP3   OH212603   7.744   1.824   0.658
 4221TIP3    H112604   7.793   1.784   0.729
 4221TIP3    H212605   7.801   1.893   0.625
 4222TIP3   OH212606   2.007   5.107   0.590
 4222TIP3    H112607   1.930   5.078   0.540
 4222TIP3    H212608   2.079   5.055   0.554
 4223TIP3   OH212609   4.193   5.433   6.176
 4223TIP3    H112610   4.163   5.440   6.085
 4223TIP3    H212611   4.287   5.417   6.169
 4224TIP3   OH212612   3.626   7.668   3.673
 4224TIP3    H112613   3.585   7.629   3.595
 4224TIP3    H212614   3.569   7.741   3.696
 4225TIP3   OH212615   1.871   4.547   4.740
 4225TIP3    H112616   1.934   4.548   4.668
 4225TIP3    H212617   1.924   4.535   4.818
 4226TIP3   OH212618   5.854   5.460   1.928
 4226TIP3    H112619   5.950   5.459   1.929
 4226TIP3    H212620   5.830   5.527   1.992
 4227TIP3   OH212621   1.732   5.536   1.468
 4227TIP3    H112622   1.761   5.520   1.557
 4227TIP3    H212623   1.732   5.632   1.460
 4228TIP3   OH212624   8.229   7.552   0.148
 4228TIP3    H112625   8.169   7.479   0.132
 4228TIP3    H212626   8.308   7.510   0.182
 4229TIP3   OH212627   7.568   2.575   3.563
 4229TIP3    H112628   7.633   2.552   3.630
 4229TIP3    H212629   7.517   2.646   3.602
 4230TIP3   OH212630   2.441   7.186   4.137
 4230TIP3    H112631   2.392   7.104   4.123
 4230TIP3    H212632   2.503   7.189   4.064
 4231TIP3   OH212633   3.053   4.057   5.051
 4231TIP3    H112634   2.968   4.095   5.072
 4231TIP3    H212635   3.087   4.111   4.980
 4232TIP3   OH212636   5.804   4.885   5.641
 4232TIP3    H112637   5.809   4.811   5.702
 4232TIP3    H212638   5.849   4.956   5.687
 4233TIP3   OH212639   7.066   2.684   2.086
 4233TIP3    H112640   7.157   2.675   2.115
 4233TIP3    H212641   7.063   2.636   2.003
 4234TIP3   OH212642   1.042   4.692   0.394
 4234TIP3    H112643   0.956   4.699   0.352
 4234TIP3    H212644   1.056   4.778   0.434
 4235TIP3   OH212645   7.444   1.747   4.205
 4235TIP3    H112646   7.472   1.738   4.114
 4235TIP3    H212647   7.480   1.832   4.233
 4236TIP3   OH212648   4.732   1.034   0.244
 4236TIP3    H112649   4.731   1.111   0.187
 4236TIP3    H212650   4.749   1.069   0.332
 4237TIP3   OH212651   6.804   3.188   1.291
 4237TIP3    H112652   6.739   3.257   1.295
 4237TIP3    H212653   6.798   3.143   1.375
 4238TIP3   OH212654   7.370   1.534   2.227
 4238TIP3    H112655   7.374   1.548   2.133
 4238TIP3    H212656   7.291   1.581   2.256
 4239TIP3   OH212657   4.568   2.414   5.048
 4239TIP3    H112658   4.619   2.446   4.974
 4239TIP3    H212659   4.518   2.340   5.013
 4240TIP3   OH212660   5.765   4.486   6.069
 4240TIP3    H112661   5.695   4.439   6.022
 4240TIP3    H212662   5.833   4.499   6.002
 4241TIP3   OH212663   1.915   7.349   3.966
 4241TIP3    H112664   1.820   7.336   3.971
 4241TIP3    H212665   1.941   7.370   4.056
 4242TIP3   OH212666   6.526   7.541   2.641
 4242TIP3    H112667   6.537   7.564   2.733
 4242TIP3    H212668   6.554   7.619   2.593
 4243TIP3   OH212669   1.991   0.839   4.820
 4243TIP3    H112670   2.062   0.901   4.803
 4243TIP3    H212671   1.954   0.867   4.904
 4244TIP3   OH212672   7.148   1.340   0.615
 4244TIP3    H112673   7.161   1.288   0.536
 4244TIP3    H212674   7.080   1.404   0.591
 4245TIP3   OH212675   6.333   0.241   5.249
 4245TIP3    H112676   6.422   0.247   5.283
 4245TIP3    H212677   6.294   0.168   5.296
 4246TIP3   OH212678   1.946   1.968   5.407
 4246TIP3    H112679   1.961   1.874   5.411
 4246TIP3    H212680   1.874   1.983   5.468
 4247TIP3   OH212681   4.886   5.518   6.091
 4247TIP3    H112682   4.980   5.508   6.101
 4247TIP3    H212683   4.871   5.511   5.996
 4248TIP3   OH212684   1.192   5.943   6.709
 4248TIP3    H112685   1.285   5.925   6.699
 4248TIP3    H212686   1.162   5.881   6.775
 4249TIP3   OH212687   0.594   2.243   1.775
 4249TIP3    H112688   0.593   2.197   1.690
 4249TIP3    H212689   0.633   2.328   1.755
 4250TIP3   OH212690   6.210   7.339   4.336
 4250TIP3    H112691   6.153   7.302   4.269
 4250TIP3    H212692   6.177   7.304   4.419
 4251TIP3   OH212693   4.447   0.758   5.379
 4251TIP3    H112694   4.374   0.802   5.423
 4251TIP3    H212695   4.451   0.671   5.420
 4252TIP3   OH212696   5.825   5.228   1.029
 4252TIP3    H112697   5.825   5.237   0.933
 4252TIP3    H212698   5.917   5.236   1.053
 4253TIP3   OH212699   3.399   3.772   4.465
 4253TIP3    H112700   3.481   3.727   4.447
 4253TIP3    H212701   3.331   3.708   4.445
 4254TIP3   OH212702   7.841   4.800   3.566
 4254TIP3    H112703   7.871   4.784   3.477
 4254TIP3    H212704   7.920   4.794   3.620
 4255TIP3   OH212705   0.161   5.895   6.652
 4255TIP3    H112706   0.066   5.905   6.646
 4255TIP3    H212707   0.191   5.899   6.561
 4256TIP3   OH212708   2.467   4.952   4.371
 4256TIP3    H112709   2.423   4.871   4.345
 4256TIP3    H212710   2.559   4.938   4.348
 4257TIP3   OH212711   3.712   5.032   0.618
 4257TIP3    H112712   3.736   4.956   0.564
 4257TIP3    H212713   3.680   5.097   0.556
 4258TIP3   OH212714   2.394   6.384   1.870
 4258TIP3    H112715   2.432   6.335   1.942
 4258TIP3    H212716   2.302   6.359   1.869
 4259TIP3   OH212717   2.135   0.997   5.202
 4259TIP3    H112718   2.197   1.005   5.274
 4259TIP3    H212719   2.169   1.056   5.134
 4260TIP3   OH212720   2.682   6.046   6.727
 4260TIP3    H112721   2.666   6.064   6.634
 4260TIP3    H212722   2.660   6.127   6.772
 4261TIP3   OH212723   2.025   1.783   2.167
 4261TIP3    H112724   2.088   1.824   2.107
 4261TIP3    H212725   2.062   1.697   2.186
 4262TIP3   OH212726   6.934   5.730   0.055
 4262TIP3    H112727   6.861   5.668   0.048
 4262TIP3    H212728   6.899   5.802   0.107
 4263TIP3   OH212729   3.993   6.646   1.175
 4263TIP3    H112730   3.932   6.696   1.121
 4263TIP3    H212731   3.992   6.558   1.138
 4264TIP3   OH212732   2.862   4.419   1.658
 4264TIP3    H112733   2.940   4.475   1.661
 4264TIP3    H212734   2.829   4.419   1.748
 4265TIP3   OH212735   2.796   7.135   6.830
 4265TIP3    H112736   2.873   7.130   6.772
 4265TIP3    H212737   2.754   7.049   6.822
 4266TIP3   OH212738   0.553   2.693   0.666
 4266TIP3    H112739   0.605   2.761   0.624
 4266TIP3    H212740   0.489   2.742   0.718
 4267TIP3   OH212741   7.709   7.929   0.239
 4267TIP3    H112742   7.732   7.987   0.166
 4267TIP3    H212743   7.643   7.870   0.203
 4268TIP3   OH212744   7.069   4.889   0.206
 4268TIP3    H112745   7.138   4.948   0.178
 4268TIP3    H212746   7.055   4.830   0.132
 4269TIP3   OH212747   5.956   6.900   3.002
 4269TIP3    H112748   5.882   6.849   2.970
 4269TIP3    H212749   5.920   6.987   3.019
 4270TIP3   OH212750   6.035   0.648   3.264
 4270TIP3    H112751   5.940   0.659   3.260
 4270TIP3    H212752   6.064   0.668   3.175
 4271TIP3   OH212753   2.873   1.091   6.055
 4271TIP3    H112754   2.788   1.075   6.096
 4271TIP3    H212755   2.924   1.136   6.122
 4272TIP3   OH212756   3.108   2.459   5.186
 4272TIP3    H112757   3.070   2.389   5.239
 4272TIP3    H212758   3.042   2.528   5.185
 4273TIP3   OH212759   8.237   7.244   3.782
 4273TIP3    H112760   8.208   7.167   3.829
 4273TIP3    H212761   8.332   7.231   3.771
 4274TIP3   OH212762   0.882   5.835   1.496
 4274TIP3    H112763   0.974   5.821   1.516
 4274TIP3    H212764   0.842   5.748   1.500
 4275TIP3   OH212765   0.086   6.962   6.253
 4275TIP3    H112766   0.032   6.900   6.302
 4275TIP3    H212767   0.139   7.005   6.319
 4276TIP3   OH212768   6.066   5.954   1.277
 4276TIP3    H112769   6.068   5.940   1.182
 4276TIP3    H212770   5.974   5.947   1.301
 4277TIP3   OH212771   3.126   4.912   3.073
 4277TIP3    H112772   3.214   4.872   3.069
 4277TIP3    H212773   3.138   4.991   3.126
 4278TIP3   OH212774   3.691   0.630   6.453
 4278TIP3    H112775   3.668   0.538   6.461
 4278TIP3    H212776   3.615   0.677   6.488
 4279TIP3   OH212777   7.925   5.463   1.942
 4279TIP3    H112778   7.839   5.421   1.929
 4279TIP3    H212779   7.913   5.518   2.019
 4280TIP3   OH212780   8.450   7.709   2.031
 4280TIP3    H112781   8.415   7.787   1.988
 4280TIP3    H212782   8.425   7.719   2.123
 4281TIP3   OH212783   0.527   6.765   6.469
 4281TIP3    H112784   0.435   6.750   6.492
 4281TIP3    H212785   0.525   6.790   6.377
 4282TIP3   OH212786   5.529   6.356   3.242
 4282TIP3    H112787   5.594   6.290   3.266
 4282TIP3    H212788   5.502   6.395   3.326
 4283TIP3   OH212789   4.135   6.921   2.967
 4283TIP3    H112790   4.193   6.917   2.891
 4283TIP3    H212791   4.109   7.013   2.973
 4284TIP3   OH212792   0.559   0.052   6.104
 4284TIP3    H112793   0.468   0.026   6.118
 4284TIP3    H212794   0.608  -0.030   6.105
 4285TIP3   OH212795   5.011   7.390   3.235
 4285TIP3    H112796   5.065   7.461   3.202
 4285TIP3    H212797   4.934   7.434   3.273
 4286TIP3   OH212798   7.416   0.458   2.199
 4286TIP3    H112799   7.361   0.489   2.272
 4286TIP3    H212800   7.445   0.537   2.155
 4287TIP3   OH212801   4.099   5.464   4.709
 4287TIP3    H112802   4.118   5.520   4.785
 4287TIP3    H212803   4.078   5.526   4.639
 4288TIP3   OH212804   5.222   4.766   4.947
 4288TIP3    H112805   5.235   4.676   4.918
 4288TIP3    H212806   5.296   4.785   5.004
 4289TIP3   OH212807   4.758   0.575   4.584
 4289TIP3    H112808   4.721   0.510   4.525
 4289TIP3    H212809   4.681   0.621   4.619
 4290TIP3   OH212810   3.245   7.405   5.930
 4290TIP3    H112811   3.288   7.427   6.012
 4290TIP3    H212812   3.220   7.313   5.939
 4291TIP3   OH212813   2.502   4.448   5.812
 4291TIP3    H112814   2.572   4.393   5.849
 4291TIP3    H212815   2.474   4.401   5.733
 4292TIP3   OH212816   0.628   4.817   4.935
 4292TIP3    H112817   0.579   4.751   4.984
 4292TIP3    H212818   0.578   4.897   4.947
 4293TIP3   OH212819   5.786   2.526   0.452
 4293TIP3    H112820   5.813   2.455   0.510
 4293TIP3    H212821   5.695   2.543   0.475
 4294TIP3   OH212822   4.104   5.325   4.375
 4294TIP3    H112823   4.173   5.333   4.309
 4294TIP3    H212824   4.148   5.289   4.452
 4295TIP3   OH212825   4.081   5.253   3.609
 4295TIP3    H112826   4.098   5.251   3.515
 4295TIP3    H212827   3.985   5.261   3.616
 4296TIP3   OH212828   0.265   3.998   5.073
 4296TIP3    H112829   0.214   4.007   4.992
 4296TIP3    H212830   0.355   3.986   5.043
 4297TIP3   OH212831   2.201   1.924   4.959
 4297TIP3    H112832   2.211   1.869   5.037
 4297TIP3    H212833   2.277   1.902   4.905
 4298TIP3   OH212834   7.029   7.264   0.473
 4298TIP3    H112835   7.064   7.277   0.384
 4298TIP3    H212836   7.014   7.353   0.505
 4299TIP3   OH212837   4.907   1.313   3.819
 4299TIP3    H112838   4.949   1.357   3.745
 4299TIP3    H212839   4.839   1.258   3.779
 4300TIP3   OH212840   1.180   7.620   3.721
 4300TIP3    H112841   1.158   7.608   3.629
 4300TIP3    H212842   1.193   7.714   3.731
 4301TIP3   OH212843   0.075   3.153   1.654
 4301TIP3    H112844   0.142   3.215   1.622
 4301TIP3    H212845   0.056   3.184   1.743
 4302TIP3   OH212846   7.496   7.544   1.046
 4302TIP3    H112847   7.472   7.604   1.116
 4302TIP3    H212848   7.446   7.464   1.065
 4303TIP3   OH212849   7.567   1.718   1.568
 4303TIP3    H112850   7.614   1.739   1.648
 4303TIP3    H212851   7.474   1.726   1.591
 4304TIP3   OH212852   4.259   4.220   4.179
 4304TIP3    H112853   4.323   4.234   4.249
 4304TIP3    H212854   4.312   4.213   4.099
 4305TIP3   OH212855   5.501   2.872   2.271
 4305TIP3    H112856   5.412   2.899   2.248
 4305TIP3    H212857   5.525   2.806   2.205
 4306TIP3   OH212858   3.420   4.703   2.082
 4306TIP3    H112859   3.409   4.637   2.014
 4306TIP3    H212860   3.340   4.696   2.136
 4307TIP3   OH212861   2.910   2.320   0.584
 4307TIP3    H112862   2.947   2.233   0.600
 4307TIP3    H212863   2.819   2.313   0.612
 4308TIP3   OH212864   7.698   0.174   1.203
 4308TIP3    H112865   7.675   0.152   1.112
 4308TIP3    H212866   7.615   0.193   1.245
 4309TIP3   OH212867   4.430   3.813   2.167
 4309TIP3    H112868   4.372   3.877   2.209
 4309TIP3    H212869   4.518   3.837   2.196
 4310TIP3   OH212870   7.619   6.898   3.909
 4310TIP3    H112871   7.657   6.978   3.875
 4310TIP3    H212872   7.525   6.915   3.911
 4311TIP3   OH212873   4.972   5.212   4.121
 4311TIP3    H112874   4.986   5.183   4.211
 4311TIP3    H212875   5.052   5.188   4.075
 4312TIP3   OH212876   7.531   4.754   6.548
 4312TIP3    H112877   7.541   4.781   6.457
 4312TIP3    H212878   7.537   4.835   6.598
 4313TIP3   OH212879   6.854   5.798   2.919
 4313TIP3    H112880   6.859   5.844   2.835
 4313TIP3    H212881   6.937   5.817   2.962
 4314TIP3   OH212882   4.146   5.670   6.732
 4314TIP3    H112883   4.135   5.577   6.751
 4314TIP3    H212884   4.098   5.684   6.650
 4315TIP3   OH212885   4.744   3.472   1.741
 4315TIP3    H112886   4.784   3.506   1.822
 4315TIP3    H212887   4.771   3.534   1.674
 4316TIP3   OH212888   3.216   2.675   1.154
 4316TIP3    H112889   3.252   2.763   1.152
 4316TIP3    H212890   3.245   2.634   1.072
 4317TIP3   OH212891   2.967   1.300   4.252
 4317TIP3    H112892   2.926   1.223   4.213
 4317TIP3    H212893   2.973   1.363   4.181
 4318TIP3   OH212894   4.391   6.119   4.141
 4318TIP3    H112895   4.417   6.119   4.234
 4318TIP3    H212896   4.325   6.188   4.135
 4319TIP3   OH212897   4.725   6.816   1.329
 4319TIP3    H112898   4.706   6.724   1.350
 4319TIP3    H212899   4.715   6.821   1.234
 4320TIP3   OH212900   7.911   1.126   0.176
 4320TIP3    H112901   7.950   1.148   0.261
 4320TIP3    H212902   7.986   1.116   0.118
 4321TIP3   OH212903   8.027   7.093   4.933
 4321TIP3    H112904   7.965   7.137   4.991
 4321TIP3    H212905   7.973   7.058   4.862
 4322TIP3   OH212906   8.208   0.452   5.930
 4322TIP3    H112907   8.164   0.519   5.982
 4322TIP3    H212908   8.207   0.374   5.985
 4323TIP3   OH212909   4.671   3.730   1.263
 4323TIP3    H112910   4.724   3.656   1.232
 4323TIP3    H212911   4.593   3.728   1.207
 4324TIP3   OH212912   6.794   6.964   2.277
 4324TIP3    H112913   6.709   6.999   2.249
 4324TIP3    H212914   6.820   7.020   2.350
 4325TIP3   OH212915   4.226   1.030   3.777
 4325TIP3    H112916   4.157   1.017   3.712
 4325TIP3    H212917   4.299   1.066   3.727
 4326TIP3   OH212918   4.761   5.327   3.195
 4326TIP3    H112919   4.756   5.233   3.209
 4326TIP3    H212920   4.680   5.361   3.234
 4327TIP3   OH212921   2.091   5.687   2.595
 4327TIP3    H112922   2.109   5.613   2.536
 4327TIP3    H212923   2.072   5.646   2.679
 4328TIP3   OH212924   6.053   2.986   6.786
 4328TIP3    H112925   6.105   2.907   6.806
 4328TIP3    H212926   5.962   2.956   6.789
 4329TIP3   OH212927   8.309   6.500   1.327
 4329TIP3    H112928   8.400   6.515   1.354
 4329TIP3    H212929   8.295   6.559   1.254
 4330TIP3   OH212930   3.766   4.103   2.482
 4330TIP3    H112931   3.853   4.112   2.521
 4330TIP3    H212932   3.782   4.062   2.397
 4331TIP3   OH212933   0.609   4.039   6.178
 4331TIP3    H112934   0.622   4.086   6.260
 4331TIP3    H212935   0.669   3.964   6.183
 4332TIP3   OH212936   7.226   2.275   6.393
 4332TIP3    H112937   7.243   2.310   6.481
 4332TIP3    H212938   7.296   2.211   6.380
 4333TIP3   OH212939   5.719   7.283   1.996
 4333TIP3    H112940   5.676   7.364   1.969
 4333TIP3    H212941   5.780   7.309   2.065
 4334TIP3   OH212942   3.602   3.615   4.365
 4334TIP3    H112943   3.533   3.550   4.355
 4334TIP3    H212944   3.664   3.575   4.426
 4335TIP3   OH212945   2.735   2.991   6.643
 4335TIP3    H112946   2.725   2.949   6.557
 4335TIP3    H212947   2.715   2.922   6.706
 4336TIP3   OH212948   8.123   2.388   2.684
 4336TIP3    H112949   8.180   2.437   2.625
 4336TIP3    H212950   8.090   2.454   2.745
 4337TIP3   OH212951   7.399   1.626   1.967
 4337TIP3    H112952   7.354   1.703   1.932
 4337TIP3    H212953   7.394   1.561   1.897
 4338TIP3   OH212954   6.095   1.114   6.365
 4338TIP3    H112955   6.035   1.054   6.408
 4338TIP3    H212956   6.169   1.059   6.338
 4339TIP3   OH212957   6.695   6.085   5.981
 4339TIP3    H112958   6.642   6.158   5.948
 4339TIP3    H212959   6.776   6.089   5.932
 4340TIP3   OH212960   1.264   2.184   3.061
 4340TIP3    H112961   1.275   2.245   2.989
 4340TIP3    H212962   1.170   2.180   3.075
 4341TIP3   OH212963   4.666   1.950   5.413
 4341TIP3    H112964   4.713   2.027   5.381
 4341TIP3    H212965   4.589   1.985   5.457
 4342TIP3   OH212966   2.846   2.387   3.737
 4342TIP3    H112967   2.752   2.408   3.738
 4342TIP3    H212968   2.889   2.472   3.739
 4343TIP3   OH212969   8.354   6.810   5.772
 4343TIP3    H112970   8.417   6.791   5.842
 4343TIP3    H212971   8.395   6.882   5.723
 4344TIP3   OH212972   4.112   5.147   0.047
 4344TIP3    H112973   4.156   5.171  -0.035
 4344TIP3    H212974   4.151   5.204   0.113
 4345TIP3   OH212975   6.776   7.858   1.851
 4345TIP3    H112976   6.801   7.780   1.801
 4345TIP3    H212977   6.723   7.823   1.923
 4346TIP3   OH212978   6.799   0.699   5.590
 4346TIP3    H112979   6.806   0.733   5.680
 4346TIP3    H212980   6.724   0.640   5.593
 4347TIP3   OH212981   7.323   6.290   4.622
 4347TIP3    H112982   7.331   6.251   4.535
 4347TIP3    H212983   7.410   6.327   4.640
 4348TIP3   OH212984   8.397   6.976   0.174
 4348TIP3    H112985   8.374   6.986   0.081
 4348TIP3    H212986   8.467   7.039   0.188
 4349TIP3   OH212987   4.119   7.491   5.519
 4349TIP3    H112988   4.185   7.452   5.576
 4349TIP3    H212989   4.106   7.579   5.554
 4350TIP3   OH212990   2.846   3.486   4.847
 4350TIP3    H112991   2.921   3.501   4.904
 4350TIP3    H212992   2.880   3.497   4.758
 4351TIP3   OH212993   7.979   6.522   3.779
 4351TIP3    H112994   7.887   6.511   3.800
 4351TIP3    H212995   7.981   6.587   3.709
 4352TIP3   OH212996   3.236   1.972   3.220
 4352TIP3    H112997   3.198   2.005   3.302
 4352TIP3    H212998   3.326   2.003   3.221
 4353TIP3   OH212999   3.205   1.831   2.924
 4353TIP3    H113000   3.256   1.769   2.871
 4353TIP3    H213001   3.210   1.913   2.876
 4354TIP3   OH213002   2.070   2.498   0.437
 4354TIP3    H113003   2.137   2.525   0.500
 4354TIP3    H213004   2.027   2.579   0.411
 4355TIP3   OH213005   2.231   2.706   3.897
 4355TIP3    H113006   2.293   2.692   3.968
 4355TIP3    H213007   2.151   2.739   3.940
 4356TIP3   OH213008   3.713   5.040   3.804
 4356TIP3    H113009   3.696   4.968   3.864
 4356TIP3    H213010   3.759   4.999   3.730
 4357TIP3   OH213011   3.653   4.471   6.484
 4357TIP3    H113012   3.569   4.427   6.496
 4357TIP3    H213013   3.694   4.423   6.412
 4358TIP3   OH213014   2.320   4.822   2.586
 4358TIP3    H113015   2.403   4.821   2.538
 4358TIP3    H213016   2.259   4.865   2.526
 4359TIP3   OH213017   1.443   1.337   1.461
 4359TIP3    H113018   1.354   1.365   1.441
 4359TIP3    H213019   1.492   1.418   1.472
 4360TIP3   OH213020   2.681   1.265   0.826
 4360TIP3    H113021   2.773   1.266   0.853
 4360TIP3    H213022   2.650   1.354   0.843
 4361TIP3   OH213023   0.918   1.136   4.027
 4361TIP3    H113024   0.864   1.183   3.964
 4361TIP3    H213025   0.903   1.180   4.110
 4362TIP3   OH213026   6.374   4.602   3.572
 4362TIP3    H113027   6.409   4.683   3.609
 4362TIP3    H213028   6.317   4.567   3.640
 4363TIP3   OH213029   0.636   3.319   2.466
 4363TIP3    H113030   0.623   3.392   2.405
 4363TIP3    H213031   0.693   3.258   2.420
 4364TIP3   OH213032   6.996   0.829   4.191
 4364TIP3    H113033   6.986   0.873   4.275
 4364TIP3    H213034   7.090   0.837   4.172
 4365TIP3   OH213035   1.761   3.334   0.916
 4365TIP3    H113036   1.686   3.330   0.975
 4365TIP3    H213037   1.731   3.287   0.838
 4366TIP3   OH213038   4.020   4.543   5.039
 4366TIP3    H113039   4.086   4.611   5.023
 4366TIP3    H213040   3.973   4.535   4.956
 4367TIP3   OH213041   6.041   1.146   6.720
 4367TIP3    H113042   6.001   1.067   6.683
 4367TIP3    H213043   6.132   1.144   6.689
 4368TIP3   OH213044   2.563   6.768   5.937
 4368TIP3    H113045   2.489   6.827   5.956
 4368TIP3    H213046   2.637   6.808   5.982
 4369TIP3   OH213047   8.127   5.265   6.112
 4369TIP3    H113048   8.204   5.228   6.155
 4369TIP3    H213049   8.162   5.323   6.045
 4370TIP3   OH213050   3.586   4.931   1.579
 4370TIP3    H113051   3.527   4.947   1.505
 4370TIP3    H213052   3.608   4.838   1.571
 4371TIP3   OH213053   6.849   0.876   0.392
 4371TIP3    H113054   6.874   0.905   0.480
 4371TIP3    H213055   6.928   0.836   0.357
 4372TIP3   OH213056   3.359   3.890   2.598
 4372TIP3    H113057   3.289   3.852   2.652
 4372TIP3    H213058   3.313   3.926   2.522
 4373TIP3   OH213059   2.412   4.547   2.492
 4373TIP3    H113060   2.427   4.529   2.585
 4373TIP3    H213061   2.426   4.641   2.484
 4374TIP3   OH213062   0.187   4.050   0.938
 4374TIP3    H113063   0.123   4.109   0.978
 4374TIP3    H213064   0.272   4.089   0.958
 4375TIP3   OH213065   2.203   6.173   2.187
 4375TIP3    H113066   2.112   6.143   2.184
 4375TIP3    H213067   2.197   6.263   2.219
 4376TIP3   OH213068   3.146   3.868   4.281
 4376TIP3    H113069   3.151   3.802   4.350
 4376TIP3    H213070   3.052   3.876   4.261
 4377TIP3   OH213071   0.662   4.263   2.754
 4377TIP3    H113072   0.579   4.309   2.741
 4377TIP3    H213073   0.721   4.300   2.688
 4378TIP3   OH213074   2.974   4.763   3.742
 4378TIP3    H113075   3.016   4.765   3.828
 4378TIP3    H213076   2.881   4.778   3.761
 4379TIP3   OH213077   6.065   7.668   1.680
 4379TIP3    H113078   6.057   7.746   1.735
 4379TIP3    H213079   6.159   7.647   1.683
 4380TIP3   OH213080   3.101   6.686   1.821
 4380TIP3    H113081   3.191   6.685   1.790
 4380TIP3    H213082   3.094   6.608   1.876
 4381TIP3   OH213083   4.299   1.354   5.159
 4381TIP3    H113084   4.367   1.325   5.098
 4381TIP3    H213085   4.293   1.284   5.224
 4382TIP3   OH213086   4.300   5.025   2.385
 4382TIP3    H113087   4.258   4.939   2.386
 4382TIP3    H213088   4.239   5.082   2.431
 4383TIP3   OH213089   3.461   2.917   6.425
 4383TIP3    H113090   3.545   2.963   6.439
 4383TIP3    H213091   3.408   2.980   6.377
 4384TIP3   OH213092   4.856   2.545   5.568
 4384TIP3    H113093   4.911   2.513   5.497
 4384TIP3    H213094   4.862   2.640   5.562
 4385TIP3   OH213095   4.262   0.680   6.124
 4385TIP3    H113096   4.232   0.663   6.035
 4385TIP3    H213097   4.199   0.743   6.159
 4386TIP3   OH213098   5.865   5.761   4.890
 4386TIP3    H113099   5.782   5.796   4.923
 4386TIP3    H213100   5.885   5.687   4.947
 4387TIP3   OH213101   6.941   0.098   1.007
 4387TIP3    H113102   6.918   0.174   1.061
 4387TIP3    H213103   7.036   0.095   1.011
 4388TIP3   OH213104   4.743   0.591   1.508
 4388TIP3    H113105   4.676   0.581   1.576
 4388TIP3    H213106   4.820   0.544   1.543
 4389TIP3   OH213107   2.321   6.948   0.407
 4389TIP3    H113108   2.227   6.965   0.398
 4389TIP3    H213109   2.343   6.983   0.493
 4390TIP3   OH213110   5.827   4.039   6.384
 4390TIP3    H113111   5.792   4.128   6.395
 4390TIP3    H213112   5.753   3.982   6.403
 4391TIP3   OH213113   8.000   6.942   6.384
 4391TIP3    H113114   8.059   6.986   6.446
 4391TIP3    H213115   8.036   6.963   6.298
 4392TIP3   OH213116   0.090   1.819   2.279
 4392TIP3    H113117   0.028   1.882   2.316
 4392TIP3    H213118   0.176   1.859   2.293
 4393TIP3   OH213119   5.147   4.775   0.539
 4393TIP3    H113120   5.076   4.830   0.505
 4393TIP3    H213121   5.125   4.687   0.509
 4394TIP3   OH213122   3.590   6.014   6.658
 4394TIP3    H113123   3.498   6.036   6.673
 4394TIP3    H213124   3.617   5.967   6.737
 4395TIP3   OH213125   5.137   1.836   0.397
 4395TIP3    H113126   5.056   1.812   0.351
 4395TIP3    H213127   5.164   1.755   0.440
 4396TIP3   OH213128   2.621   6.605   3.847
 4396TIP3    H113129   2.556   6.554   3.798
 4396TIP3    H213130   2.703   6.591   3.799
 4397TIP3   OH213131   4.384   0.984   0.185
 4397TIP3    H113132   4.347   0.917   0.127
 4397TIP3    H213133   4.394   0.940   0.269
 4398TIP3   OH213134   0.983   2.637   5.559
 4398TIP3    H113135   1.044   2.565   5.547
 4398TIP3    H213136   0.899   2.595   5.579
 4399TIP3   OH213137   6.542   2.009   6.515
 4399TIP3    H113138   6.505   2.032   6.429
 4399TIP3    H213139   6.509   2.077   6.574
 4400TIP3   OH213140   2.359   0.851   2.764
 4400TIP3    H113141   2.438   0.800   2.782
 4400TIP3    H213142   2.296   0.823   2.831
 4401TIP3   OH213143   3.890   3.121   3.882
 4401TIP3    H113144   3.914   3.114   3.789
 4401TIP3    H213145   3.880   3.030   3.911
 4402TIP3   OH213146   5.698   6.814   1.533
 4402TIP3    H113147   5.632   6.816   1.464
 4402TIP3    H213148   5.776   6.852   1.493
 4403TIP3   OH213149   4.036   7.676   6.710
 4403TIP3    H113150   3.958   7.650   6.661
 4403TIP3    H213151   4.045   7.608   6.777
 4404TIP3   OH213152   5.486   4.804   2.765
 4404TIP3    H113153   5.458   4.874   2.824
 4404TIP3    H213154   5.421   4.805   2.695
 4405TIP3   OH213155   5.708   1.589   0.652
 4405TIP3    H113156   5.745   1.508   0.620
 4405TIP3    H213157   5.663   1.565   0.734
 4406TIP3   OH213158   6.913   0.857   2.608
 4406TIP3    H113159   6.932   0.908   2.529
 4406TIP3    H213160   6.843   0.798   2.581
 4407TIP3   OH213161   7.216   2.989   2.784
 4407TIP3    H113162   7.197   2.932   2.710
 4407TIP3    H213163   7.208   2.932   2.861
 4408TIP3   OH213164   2.669   5.132   0.147
 4408TIP3    H113165   2.663   5.153   0.054
 4408TIP3    H213166   2.693   5.215   0.189
 4409TIP3   OH213167   1.246   3.798   3.737
 4409TIP3    H113168   1.284   3.833   3.656
 4409TIP3    H213169   1.182   3.734   3.707
 4410TIP3   OH213170   6.234   3.905   2.309
 4410TIP3    H113171   6.155   3.925   2.258
 4410TIP3    H213172   6.214   3.937   2.397
 4411TIP3   OH213173   2.852   4.011   0.914
 4411TIP3    H113174   2.880   4.088   0.864
 4411TIP3    H213175   2.809   4.048   0.991
 4412TIP3   OH213176   1.980   4.782   3.662
 4412TIP3    H113177   1.957   4.844   3.594
 4412TIP3    H213178   1.970   4.696   3.622
 4413TIP3   OH213179   4.054   0.603   1.341
 4413TIP3    H113180   4.121   0.534   1.347
 4413TIP3    H213181   4.100   0.683   1.366
 4414TIP3   OH213182   3.563   7.510   3.448
 4414TIP3    H113183   3.495   7.545   3.390
 4414TIP3    H213184   3.619   7.458   3.391
 4415TIP3   OH213185   0.741   4.879   4.673
 4415TIP3    H113186   0.737   4.968   4.637
 4415TIP3    H213187   0.705   4.887   4.761
 4416TIP3   OH213188   7.080   4.885   2.716
 4416TIP3    H113189   7.141   4.936   2.663
 4416TIP3    H213190   7.127   4.803   2.732
 4417TIP3   OH213191   3.940   6.116   2.533
 4417TIP3    H113192   4.028   6.114   2.495
 4417TIP3    H213193   3.881   6.117   2.458
 4418TIP3   OH213194   6.354   5.618   5.939
 4418TIP3    H113195   6.371   5.523   5.941
 4418TIP3    H213196   6.259   5.625   5.933
 4419TIP3   OH213197   3.744   3.135   6.647
 4419TIP3    H113198   3.655   3.114   6.677
 4419TIP3    H213199   3.744   3.111   6.554
 4420TIP3   OH213200   6.735   3.347   6.611
 4420TIP3    H113201   6.649   3.355   6.652
 4420TIP3    H213202   6.732   3.406   6.536
 4421TIP3   OH213203   4.497   4.501  -0.028
 4421TIP3    H113204   4.425   4.546   0.017
 4421TIP3    H213205   4.470   4.409  -0.031
 4422TIP3   OH213206   5.995   0.875   0.998
 4422TIP3    H113207   5.959   0.960   1.022
 4422TIP3    H213208   6.089   0.890   0.987
 4423TIP3   OH213209   6.636   3.468   5.615
 4423TIP3    H113210   6.658   3.553   5.654
 4423TIP3    H213211   6.543   3.474   5.594
 4424TIP3   OH213212   2.093   7.880   6.010
 4424TIP3    H113213   2.033   7.885   6.084
 4424TIP3    H213214   2.039   7.848   5.937
 4425TIP3   OH213215   8.191   5.075   3.145
 4425TIP3    H113216   8.183   5.101   3.053
 4425TIP3    H213217   8.101   5.055   3.172
 4426TIP3   OH213218   5.097   6.455   5.976
 4426TIP3    H113219   5.181   6.444   6.022
 4426TIP3    H213220   5.093   6.379   5.917
 4427TIP3   OH213221   3.670   6.493   0.768
 4427TIP3    H113222   3.663   6.488   0.863
 4427TIP3    H213223   3.595   6.443   0.736
 4428TIP3   OH213224   3.942   2.273   4.818
 4428TIP3    H113225   3.887   2.270   4.740
 4428TIP3    H213226   4.010   2.336   4.797
 4429TIP3   OH213227   2.796   5.663   0.834
 4429TIP3    H113228   2.749   5.746   0.835
 4429TIP3    H213229   2.874   5.678   0.888
 4430TIP3   OH213230   2.285   4.469   4.658
 4430TIP3    H113231   2.214   4.500   4.601
 4430TIP3    H213232   2.245   4.462   4.744
 4431TIP3   OH213233   7.327   1.058   2.753
 4431TIP3    H113234   7.248   1.016   2.787
 4431TIP3    H213235   7.300   1.148   2.736
 4432TIP3   OH213236   0.643   2.386   2.361
 4432TIP3    H113237   0.737   2.370   2.357
 4432TIP3    H213238   0.603   2.303   2.336
 4433TIP3   OH213239   1.187   6.850   2.567
 4433TIP3    H113240   1.106   6.848   2.619
 4433TIP3    H213241   1.157   6.858   2.477
 4434TIP3   OH213242   0.053   6.510   3.337
 4434TIP3    H113243   0.091   6.597   3.350
 4434TIP3    H213244   0.128   6.454   3.318
 4435TIP3   OH213245   3.738   3.038   6.368
 4435TIP3    H113246   3.821   2.990   6.361
 4435TIP3    H213247   3.701   3.034   6.280
 4436TIP3   OH213248   3.597   4.681   5.497
 4436TIP3    H113249   3.641   4.617   5.441
 4436TIP3    H213250   3.653   4.688   5.575
 4437TIP3   OH213251   3.330   0.532   5.570
 4437TIP3    H113252   3.297   0.473   5.638
 4437TIP3    H213253   3.251   0.559   5.523
 4438TIP3   OH213254   6.516   6.963   1.400
 4438TIP3    H113255   6.556   6.987   1.484
 4438TIP3    H213256   6.434   7.012   1.397
 4439TIP3   OH213257   2.257   1.761   5.184
 4439TIP3    H113258   2.315   1.793   5.253
 4439TIP3    H213259   2.171   1.755   5.225
 4440TIP3   OH213260   0.401   5.118   6.423
 4440TIP3    H113261   0.442   5.068   6.493
 4440TIP3    H213262   0.472   5.136   6.362
 4441TIP3   OH213263   3.667   0.796   4.184
 4441TIP3    H113264   3.613   0.857   4.235
 4441TIP3    H213265   3.663   0.831   4.095
 4442TIP3   OH213266   6.782   1.861   5.629
 4442TIP3    H113267   6.764   1.767   5.622
 4442TIP3    H213268   6.767   1.882   5.721
 4443TIP3   OH213269   1.977   7.033   3.806
 4443TIP3    H113270   2.066   6.997   3.803
 4443TIP3    H213271   1.985   7.119   3.765
 4444TIP3   OH213272   0.033   4.466   1.371
 4444TIP3    H113273   0.028   4.499   1.282
 4444TIP3    H213274   0.004   4.539   1.425
 4445TIP3   OH213275   3.608   4.432   3.514
 4445TIP3    H113276   3.622   4.343   3.481
 4445TIP3    H213277   3.677   4.445   3.579
 4446TIP3   OH213278   6.538   3.431   6.139
 4446TIP3    H113279   6.527   3.358   6.200
 4446TIP3    H213280   6.450   3.466   6.128
 4447TIP3   OH213281   1.742   6.793   4.218
 4447TIP3    H113282   1.793   6.852   4.273
 4447TIP3    H213283   1.722   6.844   4.139
 4448TIP3   OH213284   3.665   2.714   4.527
 4448TIP3    H113285   3.696   2.760   4.605
 4448TIP3    H213286   3.595   2.769   4.492
 4449TIP3   OH213287   1.404   0.092   5.705
 4449TIP3    H113288   1.393   0.183   5.733
 4449TIP3    H213289   1.494   0.088   5.671
 4450TIP3   OH213290   4.348   6.304   5.611
 4450TIP3    H113291   4.365   6.248   5.687
 4450TIP3    H213292   4.259   6.280   5.584
 4451TIP3   OH213293   4.991   6.142   3.412
 4451TIP3    H113294   5.081   6.127   3.385
 4451TIP3    H213295   4.995   6.219   3.469
 4452TIP3   OH213296   4.745   5.963   4.012
 4452TIP3    H113297   4.817   5.943   3.952
 4452TIP3    H213298   4.702   6.039   3.972
 4453TIP3   OH213299   0.924   7.383   4.340
 4453TIP3    H113300   0.847   7.387   4.397
 4453TIP3    H213301   0.953   7.292   4.344
 4454TIP3   OH213302   2.085   3.438   2.947
 4454TIP3    H113303   2.099   3.514   2.889
 4454TIP3    H213304   1.994   3.413   2.933
 4455TIP3   OH213305   3.927   3.815   2.070
 4455TIP3    H113306   3.956   3.896   2.113
 4455TIP3    H213307   3.923   3.751   2.141
 4456TIP3   OH213308   3.465   1.816   4.344
 4456TIP3    H113309   3.500   1.728   4.329
 4456TIP3    H213310   3.376   1.812   4.310
 4457TIP3   OH213311   5.726   3.208   6.653
 4457TIP3    H113312   5.678   3.286   6.683
 4457TIP3    H213313   5.683   3.183   6.571
 4458TIP3   OH213314   3.570   5.500   0.557
 4458TIP3    H113315   3.642   5.476   0.498
 4458TIP3    H213316   3.562   5.425   0.615
 4459TIP3   OH213317   2.908   7.829   3.457
 4459TIP3    H113318   2.929   7.866   3.372
 4459TIP3    H213319   2.934   7.737   3.450
 4460TIP3   OH213320   2.138   7.909   4.833
 4460TIP3    H113321   2.115   7.981   4.774
 4460TIP3    H213322   2.118   7.830   4.783
 4461TIP3   OH213323   4.323   4.512   3.841
 4461TIP3    H113324   4.305   4.456   3.767
 4461TIP3    H213325   4.396   4.469   3.887
 4462TIP3   OH213326   1.040   2.813   5.357
 4462TIP3    H113327   1.031   2.747   5.425
 4462TIP3    H213328   0.987   2.779   5.284
 4463TIP3   OH213329   0.258   5.480   6.696
 4463TIP3    H113330   0.238   5.388   6.683
 4463TIP3    H213331   0.342   5.481   6.742
 4464TIP3   OH213332   7.020   6.815   4.174
 4464TIP3    H113333   7.044   6.782   4.261
 4464TIP3    H213334   6.927   6.834   4.179
 4465TIP3   OH213335   6.784   2.986   2.216
 4465TIP3    H113336   6.703   3.022   2.251
 4465TIP3    H213337   6.776   2.891   2.229
 4466TIP3   OH213338   1.398   2.200   6.129
 4466TIP3    H113339   1.485   2.236   6.111
 4466TIP3    H213340   1.403   2.110   6.097
 4467TIP3   OH213341   4.571   1.028   1.295
 4467TIP3    H113342   4.587   1.117   1.266
 4467TIP3    H213343   4.478   1.013   1.278
 4468TIP3   OH213344   3.310   0.543   2.282
 4468TIP3    H113345   3.318   0.638   2.278
 4468TIP3    H213346   3.240   0.522   2.219
 4469TIP3   OH213347   1.598   1.168   3.945
 4469TIP3    H113348   1.671   1.115   3.914
 4469TIP3    H213349   1.640   1.246   3.984
 4470TIP3   OH213350   2.901   1.013   2.194
 4470TIP3    H113351   2.991   1.020   2.225
 4470TIP3    H213352   2.895   0.926   2.154
 4471TIP3   OH213353   8.157   6.023   4.511
 4471TIP3    H113354   8.154   6.108   4.466
 4471TIP3    H213355   8.132   5.960   4.444
 4472TIP3   OH213356   0.261   2.464   4.433
 4472TIP3    H113357   0.286   2.442   4.523
 4472TIP3    H213358   0.201   2.538   4.443
 4473TIP3   OH213359   1.307   7.403   3.382
 4473TIP3    H113360   1.340   7.483   3.424
 4473TIP3    H213361   1.367   7.387   3.309
 4474TIP3   OH213362   6.971   1.590   1.678
 4474TIP3    H113363   6.942   1.594   1.587
 4474TIP3    H213364   6.921   1.659   1.722
 4475TIP3   OH213365   3.450   6.003   4.676
 4475TIP3    H113366   3.488   5.918   4.699
 4475TIP3    H213367   3.363   5.982   4.642
 4476TIP3   OH213368   3.486   2.163   4.320
 4476TIP3    H113369   3.441   2.100   4.264
 4476TIP3    H213370   3.558   2.112   4.359
 4477TIP3   OH213371   5.889   6.749   2.528
 4477TIP3    H113372   5.812   6.799   2.555
 4477TIP3    H213373   5.930   6.722   2.610
 4478TIP3   OH213374   6.311   5.389   4.100
 4478TIP3    H113375   6.288   5.473   4.060
 4478TIP3    H213376   6.248   5.327   4.062
 4479TIP3   OH213377   3.751   5.204   0.255
 4479TIP3    H113378   3.674   5.184   0.307
 4479TIP3    H213379   3.745   5.146   0.179
 4480TIP3   OH213380   1.512   3.639   0.118
 4480TIP3    H113381   1.602   3.650   0.148
 4480TIP3    H213382   1.521   3.608   0.028
 4481TIP3   OH213383   1.489   6.272   2.179
 4481TIP3    H113384   1.395   6.260   2.166
 4481TIP3    H213385   1.497   6.310   2.266
 4482TIP3   OH213386   5.813   5.460   5.028
 4482TIP3    H113387   5.755   5.485   5.100
 4482TIP3    H213388   5.901   5.467   5.065
 4483TIP3   OH213389   4.763   4.856   2.946
 4483TIP3    H113390   4.820   4.815   2.881
 4483TIP3    H213391   4.681   4.807   2.940
 4484TIP3   OH213392   3.618   1.990   5.063
 4484TIP3    H113393   3.671   1.911   5.061
 4484TIP3    H213394   3.617   2.017   5.154
 4485TIP3   OH213395   5.841   5.224   0.725
 4485TIP3    H113396   5.934   5.236   0.707
 4485TIP3    H213397   5.809   5.171   0.652
 4486TIP3   OH213398   4.206   6.837   0.657
 4486TIP3    H113399   4.287   6.793   0.683
 4486TIP3    H213400   4.229   6.930   0.655
 4487TIP3   OH213401   3.744   7.319   4.701
 4487TIP3    H113402   3.731   7.414   4.703
 4487TIP3    H213403   3.803   7.305   4.627
 4488TIP3   OH213404   6.885   0.296   4.821
 4488TIP3    H113405   6.932   0.213   4.835
 4488TIP3    H213406   6.792   0.272   4.829
 4489TIP3   OH213407   4.237   7.769   5.647
 4489TIP3    H113408   4.298   7.807   5.584
 4489TIP3    H213409   4.274   7.792   5.732
 4490TIP3   OH213410   3.611   4.513   3.823
 4490TIP3    H113411   3.659   4.432   3.809
 4490TIP3    H213412   3.522   4.485   3.843
 4491TIP3   OH213413   6.910   4.894   6.391
 4491TIP3    H113414   6.836   4.853   6.347
 4491TIP3    H213415   6.978   4.899   6.323
 4492TIP3   OH213416   7.351   2.932   6.575
 4492TIP3    H113417   7.288   2.881   6.626
 4492TIP3    H213418   7.393   2.867   6.519
 4493TIP3   OH213419   2.956   0.295   0.244
 4493TIP3    H113420   2.890   0.270   0.179
 4493TIP3    H213421   2.940   0.237   0.319
 4494TIP3   OH213422   1.867   0.968   0.082
 4494TIP3    H113423   1.833   0.931   0.001
 4494TIP3    H213424   1.920   0.898   0.120
 4495TIP3   OH213425   7.066   3.008   5.706
 4495TIP3    H113426   6.980   3.050   5.721
 4495TIP3    H213427   7.062   2.927   5.757
 4496TIP3   OH213428   6.760   4.599   1.060
 4496TIP3    H113429   6.772   4.535   0.990
 4496TIP3    H213430   6.727   4.677   1.017
 4497TIP3   OH213431   4.448   4.730   5.657
 4497TIP3    H113432   4.463   4.819   5.625
 4497TIP3    H213433   4.373   4.699   5.606
 4498TIP3   OH213434   7.574   3.118   5.301
 4498TIP3    H113435   7.535   3.032   5.282
 4498TIP3    H213436   7.499   3.173   5.324
 4499TIP3   OH213437   1.973   6.102   1.269
 4499TIP3    H113438   2.005   6.118   1.358
 4499TIP3    H213439   1.878   6.092   1.279
 4500TIP3   OH213440   5.517   4.212   0.236
 4500TIP3    H113441   5.516   4.207   0.331
 4500TIP3    H213442   5.566   4.135   0.208
 4501TIP3   OH213443   0.068   5.494   0.162
 4501TIP3    H113444   0.051   5.402   0.182
 4501TIP3    H213445  -0.019   5.531   0.146
 4502TIP3   OH213446   0.235   4.300   6.676
 4502TIP3    H113447   0.223   4.341   6.590
 4502TIP3    H213448   0.150   4.262   6.696
 4503TIP3   OH213449   2.424   0.441   3.780
 4503TIP3    H113450   2.426   0.385   3.858
 4503TIP3    H213451   2.334   0.435   3.748
 4504TIP3   OH213452   5.711   4.483   4.011
 4504TIP3    H113453   5.804   4.502   4.018
 4504TIP3    H213454   5.704   4.389   4.028
 4505TIP3   OH213455   5.239   7.555   1.827
 4505TIP3    H113456   5.268   7.643   1.804
 4505TIP3    H213457   5.226   7.558   1.922
 4506TIP3   OH213458   0.812   5.386   4.974
 4506TIP3    H113459   0.784   5.311   4.922
 4506TIP3    H213460   0.907   5.375   4.983
 4507TIP3   OH213461   3.891   1.522   3.502
 4507TIP3    H113462   3.944   1.486   3.432
 4507TIP3    H213463   3.904   1.462   3.576
 4508TIP3   OH213464   5.535   5.578   6.158
 4508TIP3    H113465   5.611   5.539   6.116
 4508TIP3    H213466   5.469   5.509   6.157
 4509TIP3   OH213467   6.607   0.026   4.684
 4509TIP3    H113468   6.606   0.115   4.718
 4509TIP3    H213469   6.592  -0.029   4.761
 4510TIP3   OH213470   7.953   5.244   2.667
 4510TIP3    H113471   7.951   5.318   2.606
 4510TIP3    H213472   8.007   5.179   2.623
 4511TIP3   OH213473   6.708   2.633   1.365
 4511TIP3    H113474   6.781   2.607   1.422
 4511TIP3    H213475   6.644   2.563   1.374
 4512TIP3   OH213476   5.573   1.400   4.730
 4512TIP3    H113477   5.636   1.452   4.680
 4512TIP3    H213478   5.613   1.313   4.737
 4513TIP3   OH213479   3.524   4.081   6.331
 4513TIP3    H113480   3.536   4.081   6.236
 4513TIP3    H213481   3.507   3.989   6.353
 4514TIP3   OH213482   6.955   0.066   3.906
 4514TIP3    H113483   7.048   0.086   3.896
 4514TIP3    H213484   6.952  -0.028   3.924
 4515TIP3   OH213485   7.679   3.878   0.199
 4515TIP3    H113486   7.609   3.862   0.262
 4515TIP3    H213487   7.745   3.812   0.219
 4516TIP3   OH213488   1.080   6.585   1.757
 4516TIP3    H113489   1.039   6.600   1.842
 4516TIP3    H213490   1.028   6.516   1.717
 4517TIP3   OH213491   1.673   6.918   5.363
 4517TIP3    H113492   1.692   6.968   5.442
 4517TIP3    H213493   1.744   6.939   5.302
 4518TIP3   OH213494   3.798   6.490   3.694
 4518TIP3    H113495   3.893   6.479   3.699
 4518TIP3    H213496   3.776   6.550   3.765
 4519TIP3   OH213497   7.414   4.942   1.887
 4519TIP3    H113498   7.434   4.849   1.897
 4519TIP3    H213499   7.477   4.986   1.945
 4520TIP3   OH213500   3.320   6.912   3.009
 4520TIP3    H113501   3.317   6.972   3.083
 4520TIP3    H213502   3.229   6.897   2.986
 4521TIP3   OH213503   1.417   0.544   6.589
 4521TIP3    H113504   1.442   0.635   6.607
 4521TIP3    H213505   1.335   0.552   6.540
 4522TIP3   OH213506   1.976   3.239   2.553
 4522TIP3    H113507   2.032   3.313   2.577
 4522TIP3    H213508   1.890   3.278   2.540
 4523TIP3   OH213509   3.071   2.052   1.629
 4523TIP3    H113510   3.037   2.140   1.619
 4523TIP3    H213511   3.012   1.997   1.576
 4524TIP3   OH213512   6.240   0.848   6.087
 4524TIP3    H113513   6.150   0.880   6.090
 4524TIP3    H213514   6.281   0.885   6.165
 4525TIP3   OH213515   1.463   3.744   6.644
 4525TIP3    H113516   1.490   3.790   6.723
 4525TIP3    H213517   1.522   3.668   6.639
 4526TIP3   OH213518   6.412   1.914   0.314
 4526TIP3    H113519   6.324   1.934   0.346
 4526TIP3    H213520   6.424   1.973   0.239
 4527TIP3   OH213521   2.607   3.694   0.338
 4527TIP3    H113522   2.583   3.699   0.430
 4527TIP3    H213523   2.594   3.783   0.305
 4528TIP3   OH213524   3.667   6.563   6.711
 4528TIP3    H113525   3.625   6.558   6.797
 4528TIP3    H213526   3.761   6.555   6.729
 4529TIP3   OH213527   3.197   2.044   2.745
 4529TIP3    H113528   3.212   2.138   2.736
 4529TIP3    H213529   3.188   2.012   2.655
 4530TIP3   OH213530   6.513   2.511   6.034
 4530TIP3    H113531   6.602   2.480   6.015
 4530TIP3    H213532   6.491   2.469   6.117
 4531TIP3   OH213533   6.457   2.082   0.102
 4531TIP3    H113534   6.462   2.153   0.167
 4531TIP3    H213535   6.481   2.124   0.019
 4532TIP3   OH213536   0.281   4.026   1.314
 4532TIP3    H113537   0.224   3.951   1.328
 4532TIP3    H213538   0.235   4.100   1.353
 4533TIP3   OH213539   6.758   0.221   1.383
 4533TIP3    H113540   6.772   0.264   1.467
 4533TIP3    H213541   6.726   0.133   1.407
 4534TIP3   OH213542   8.241   7.644   6.513
 4534TIP3    H113543   8.278   7.683   6.434
 4534TIP3    H213544   8.316   7.629   6.570
 4535TIP3   OH213545   8.005   0.899   6.489
 4535TIP3    H113546   8.083   0.844   6.500
 4535TIP3    H213547   7.979   0.921   6.578
 4536TIP3   OH213548   4.707   4.224   0.371
 4536TIP3    H113549   4.723   4.188   0.458
 4536TIP3    H213550   4.612   4.220   0.361
 4537TIP3   OH213551   4.179   0.811   3.442
 4537TIP3    H113552   4.182   0.892   3.493
 4537TIP3    H213553   4.086   0.796   3.426
 4538TIP3   OH213554   8.017   2.339   0.179
 4538TIP3    H113555   7.955   2.275   0.142
 4538TIP3    H213556   7.963   2.399   0.229
 4539TIP3   OH213557   7.054   3.870   4.781
 4539TIP3    H113558   7.034   3.963   4.769
 4539TIP3    H213559   7.010   3.826   4.708
 4540TIP3   OH213560   3.474   6.381   0.455
 4540TIP3    H113561   3.437   6.297   0.481
 4540TIP3    H213562   3.401   6.443   0.464
 4541TIP3   OH213563   5.153   5.354   1.815
 4541TIP3    H113564   5.243   5.330   1.795
 4541TIP3    H213565   5.132   5.302   1.893
 4542TIP3   OH213566   8.113   5.250   2.300
 4542TIP3    H113567   8.020   5.266   2.289
 4542TIP3    H213568   8.150   5.336   2.319
 4543TIP3   OH213569   5.053   0.162   4.174
 4543TIP3    H113570   4.985   0.229   4.170
 4543TIP3    H213571   5.008   0.085   4.210
 4544TIP3   OH213572   5.273   7.032   3.216
 4544TIP3    H113573   5.352   6.977   3.218
 4544TIP3    H213574   5.221   6.998   3.143
 4545TIP3   OH213575   6.463   1.700   5.771
 4545TIP3    H113576   6.392   1.751   5.811
 4545TIP3    H213577   6.423   1.661   5.693
 4546TIP3   OH213578   1.523   4.023   0.393
 4546TIP3    H113579   1.558   4.112   0.398
 4546TIP3    H213580   1.505   4.009   0.300
 4547TIP3   OH213581   6.871   3.882   1.658
 4547TIP3    H113582   6.889   3.961   1.711
 4547TIP3    H213583   6.844   3.816   1.723
 4548TIP3   OH213584   4.165   2.732   5.540
 4548TIP3    H113585   4.140   2.789   5.468
 4548TIP3    H213586   4.260   2.724   5.534
 4549TIP3   OH213587   4.312   5.553   0.421
 4549TIP3    H113588   4.315   5.596   0.506
 4549TIP3    H213589   4.237   5.591   0.377
 4550TIP3   OH213590   1.881   6.274   5.005
 4550TIP3    H113591   1.890   6.200   5.064
 4550TIP3    H213592   1.876   6.351   5.062
 4551TIP3   OH213593   6.869   1.477   4.096
 4551TIP3    H113594   6.841   1.421   4.024
 4551TIP3    H213595   6.847   1.428   4.175
 4552TIP3   OH213596   0.018   7.565   1.649
 4552TIP3    H113597   0.106   7.530   1.634
 4552TIP3    H213598   0.032   7.659   1.658
 4553TIP3   OH213599   7.797   3.279   4.584
 4553TIP3    H113600   7.841   3.320   4.659
 4553TIP3    H213601   7.806   3.185   4.600
 4554TIP3   OH213602   7.935   0.702   4.144
 4554TIP3    H113603   7.856   0.705   4.199
 4554TIP3    H213604   7.929   0.618   4.099
 4555TIP3   OH213605   2.438   3.506   4.633
 4555TIP3    H113606   2.394   3.427   4.602
 4555TIP3    H213607   2.478   3.480   4.716
 4556TIP3   OH213608   0.314   0.466   1.663
 4556TIP3    H113609   0.272   0.401   1.719
 4556TIP3    H213610   0.250   0.537   1.657
 4557TIP3   OH213611   5.145   3.043   4.903
 4557TIP3    H113612   5.202   3.043   4.980
 4557TIP3    H213613   5.160   2.957   4.862
 4558TIP3   OH213614   5.404   1.339   2.954
 4558TIP3    H113615   5.356   1.422   2.949
 4558TIP3    H213616   5.367   1.294   3.029
 4559TIP3   OH213617   5.359   3.649   4.916
 4559TIP3    H113618   5.387   3.577   4.973
 4559TIP3    H213619   5.440   3.686   4.881
 4560TIP3   OH213620   6.630   6.489   2.307
 4560TIP3    H113621   6.707   6.545   2.315
 4560TIP3    H213622   6.573   6.534   2.245
 4561TIP3   OH213623   3.006   2.515   2.607
 4561TIP3    H113624   3.047   2.535   2.523
 4561TIP3    H213625   2.969   2.598   2.637
 4562TIP3   OH213626   0.744   1.281   4.504
 4562TIP3    H113627   0.731   1.224   4.580
 4562TIP3    H213628   0.662   1.331   4.498
 4563TIP3   OH213629   7.407   2.088   6.294
 4563TIP3    H113630   7.472   2.069   6.227
 4563TIP3    H213631   7.347   2.013   6.292
 4564TIP3   OH213632   4.200   4.115   4.499
 4564TIP3    H113633   4.287   4.140   4.467
 4564TIP3    H213634   4.163   4.196   4.533
 4565TIP3   OH213635   3.290   2.843   5.195
 4565TIP3    H113636   3.342   2.916   5.160
 4565TIP3    H213637   3.201   2.876   5.195
 4566TIP3   OH213638   6.775   6.143   1.963
 4566TIP3    H113639   6.720   6.217   1.986
 4566TIP3    H213640   6.756   6.127   1.871
 4567TIP3   OH213641   7.884   0.518   0.239
 4567TIP3    H113642   7.898   0.562   0.155
 4567TIP3    H213643   7.866   0.589   0.301
 4568TIP3   OH213644   7.297   5.018   5.685
 4568TIP3    H113645   7.239   5.055   5.618
 4568TIP3    H213646   7.280   5.072   5.762
 4569TIP3   OH213647   7.001   0.835   5.251
 4569TIP3    H113648   7.079   0.791   5.285
 4569TIP3    H213649   7.025   0.863   5.163
 4570TIP3   OH213650   0.983   3.996   6.336
 4570TIP3    H113651   0.939   4.063   6.388
 4570TIP3    H213652   1.053   3.964   6.392
 4571TIP3   OH213653   0.508   3.923   5.015
 4571TIP3    H113654   0.584   3.905   4.960
 4571TIP3    H213655   0.506   3.851   5.077
 4572TIP3   OH213656   7.254   6.475   0.948
 4572TIP3    H113657   7.199   6.425   0.888
 4572TIP3    H213658   7.247   6.566   0.918
 4573TIP3   OH213659   7.032   2.440   3.912
 4573TIP3    H113660   7.074   2.354   3.905
 4573TIP3    H213661   7.095   2.501   3.875
 4574TIP3   OH213662   6.982   6.287   0.013
 4574TIP3    H113663   7.012   6.212  -0.038
 4574TIP3    H213664   7.060   6.314   0.063
 4575TIP3   OH213665   0.786   2.498   5.676
 4575TIP3    H113666   0.821   2.473   5.761
 4575TIP3    H213667   0.710   2.553   5.696
 4576TIP3   OH213668   5.329   0.190   5.495
 4576TIP3    H113669   5.336   0.282   5.521
 4576TIP3    H213670   5.348   0.190   5.401
 4577TIP3   OH213671   0.610   5.444   1.866
 4577TIP3    H113672   0.523   5.407   1.877
 4577TIP3    H213673   0.613   5.519   1.925
 4578TIP3   OH213674   5.398   2.943   6.213
 4578TIP3    H113675   5.411   2.909   6.301
 4578TIP3    H213676   5.305   2.931   6.195
 4579TIP3   OH213677   6.525   4.495   5.659
 4579TIP3    H113678   6.620   4.507   5.662
 4579TIP3    H213679   6.503   4.504   5.567
 4580TIP3   OH213680   7.662   5.676   5.180
 4580TIP3    H113681   7.732   5.700   5.120
 4580TIP3    H213682   7.623   5.597   5.143
 4581TIP3   OH213683   6.267   7.600   4.797
 4581TIP3    H113684   6.300   7.657   4.727
 4581TIP3    H213685   6.172   7.604   4.788
 4582TIP3   OH213686   7.932   1.385   0.015
 4582TIP3    H113687   7.905   1.306   0.061
 4582TIP3    H213688   8.023   1.367  -0.012
 4583TIP3   OH213689   1.821   0.100   2.232
 4583TIP3    H113690   1.857   0.034   2.291
 4583TIP3    H213691   1.745   0.057   2.191
 4584TIP3   OH213692   2.382   6.192   6.170
 4584TIP3    H113693   2.464   6.196   6.121
 4584TIP3    H213694   2.401   6.135   6.244
 4585TIP3   OH213695   1.641   5.222   6.770
 4585TIP3    H113696   1.703   5.151   6.749
 4585TIP3    H213697   1.555   5.180   6.767
 4586TIP3   OH213698   7.927   3.413   2.563
 4586TIP3    H113699   7.919   3.497   2.518
 4586TIP3    H213700   7.901   3.432   2.653
 4587TIP3   OH213701   5.280   3.245   0.547
 4587TIP3    H113702   5.308   3.153   0.552
 4587TIP3    H213703   5.308   3.273   0.460
 4588TIP3   OH213704   3.638   1.131   1.163
 4588TIP3    H113705   3.708   1.067   1.159
 4588TIP3    H213706   3.587   1.117   1.083
 4589TIP3   OH213707   7.455   5.630   0.362
 4589TIP3    H113708   7.369   5.662   0.335
 4589TIP3    H213709   7.454   5.635   0.457
 4590TIP3   OH213710   7.429   2.378   4.953
 4590TIP3    H113711   7.413   2.423   5.036
 4590TIP3    H213712   7.343   2.348   4.924
 4591TIP3   OH213713   4.447   0.563   2.466
 4591TIP3    H113714   4.529   0.540   2.423
 4591TIP3    H213715   4.472   0.592   2.554
 4592TIP3   OH213716   6.533   5.808   2.147
 4592TIP3    H113717   6.570   5.837   2.064
 4592TIP3    H213718   6.461   5.868   2.163
 4593TIP3   OH213719   5.439   2.801   1.055
 4593TIP3    H113720   5.462   2.726   0.999
 4593TIP3    H213721   5.513   2.861   1.046
 4594TIP3   OH213722   6.925   7.336   6.217
 4594TIP3    H113723   6.904   7.251   6.257
 4594TIP3    H213724   6.847   7.361   6.169
 4595TIP3   OH213725   7.703   0.600   2.081
 4595TIP3    H113726   7.704   0.648   2.164
 4595TIP3    H213727   7.619   0.623   2.042
 4596TIP3   OH213728   0.778   6.614   2.656
 4596TIP3    H113729   0.713   6.636   2.590
 4596TIP3    H213730   0.825   6.696   2.672
 4597TIP3   OH213731   3.691   2.172   1.583
 4597TIP3    H113732   3.707   2.247   1.526
 4597TIP3    H213733   3.655   2.105   1.526
 4598TIP3   OH213734   5.709   4.510   3.368
 4598TIP3    H113735   5.730   4.501   3.461
 4598TIP3    H213736   5.779   4.565   3.332
 4599TIP3   OH213737   5.698   2.161   5.627
 4599TIP3    H113738   5.768   2.225   5.641
 4599TIP3    H213739   5.650   2.159   5.710
 4600TIP3   OH213740   2.207   5.492   5.280
 4600TIP3    H113741   2.218   5.510   5.187
 4600TIP3    H213742   2.115   5.514   5.298
 4601TIP3   OH213743   5.502   5.098   4.986
 4601TIP3    H113744   5.587   5.087   5.028
 4601TIP3    H213745   5.499   5.191   4.961
 4602TIP3   OH213746   0.220   7.855   4.065
 4602TIP3    H113747   0.276   7.828   3.991
 4602TIP3    H213748   0.131   7.854   4.029
 4603TIP3   OH213749   0.784   5.652   3.509
 4603TIP3    H113750   0.851   5.643   3.576
 4603TIP3    H213751   0.823   5.614   3.431
 4604TIP3   OH213752   4.109   0.928   4.400
 4604TIP3    H113753   4.020   0.963   4.407
 4604TIP3    H213754   4.148   0.943   4.486
 4605TIP3   OH213755   6.377   2.312   6.215
 4605TIP3    H113756   6.418   2.333   6.299
 4605TIP3    H213757   6.295   2.361   6.215
 4606TIP3   OH213758   3.613   6.330   1.627
 4606TIP3    H113759   3.548   6.353   1.694
 4606TIP3    H213760   3.693   6.373   1.655
 4607TIP3   OH213761   1.075   4.613   5.593
 4607TIP3    H113762   1.044   4.522   5.591
 4607TIP3    H213763   1.162   4.608   5.631
 4608TIP3   OH213764   2.996   4.267   1.036
 4608TIP3    H113765   3.034   4.247   0.950
 4608TIP3    H213766   2.901   4.262   1.021
 4609TIP3   OH213767   2.646   2.710   5.595
 4609TIP3    H113768   2.617   2.772   5.528
 4609TIP3    H213769   2.742   2.713   5.589
 4610TIP3   OH213770   7.625   1.559   0.681
 4610TIP3    H113771   7.566   1.544   0.607
 4610TIP3    H213772   7.668   1.642   0.661
 4611TIP3   OH213773   2.719   1.995   0.364
 4611TIP3    H113774   2.772   2.075   0.368
 4611TIP3    H213775   2.783   1.925   0.358
 4612TIP3   OH213776   2.493   4.350   0.698
 4612TIP3    H113777   2.563   4.378   0.756
 4612TIP3    H213778   2.425   4.416   0.708
 4613TIP3   OH213779   5.780   5.992   0.252
 4613TIP3    H113780   5.717   5.920   0.255
 4613TIP3    H213781   5.800   6.004   0.159
 4614TIP3   OH213782   6.331   0.970   1.649
 4614TIP3    H113783   6.420   0.970   1.685
 4614TIP3    H213784   6.341   0.931   1.562
 4615TIP3   OH213785   3.171   3.638   0.185
 4615TIP3    H113786   3.133   3.705   0.127
 4615TIP3    H213787   3.140   3.555   0.149
 4616TIP3   OH213788   4.937   0.322   2.317
 4616TIP3    H113789   4.976   0.377   2.385
 4616TIP3    H213790   4.943   0.233   2.351
 4617TIP3   OH213791   4.661   2.489   6.117
 4617TIP3    H113792   4.665   2.583   6.138
 4617TIP3    H213793   4.660   2.486   6.022
 4618TIP3   OH213794   8.267   3.272   3.536
 4618TIP3    H113795   8.343   3.322   3.506
 4618TIP3    H213796   8.267   3.194   3.479
 4619TIP3   OH213797   8.202   6.027   0.509
 4619TIP3    H113798   8.295   6.052   0.504
 4619TIP3    H213799   8.155   6.101   0.471
 4620TIP3   OH213800   7.836   2.290   1.278
 4620TIP3    H113801   7.802   2.273   1.365
 4620TIP3    H213802   7.907   2.352   1.291
 4621TIP3   OH213803   5.606   5.990   0.539
 4621TIP3    H113804   5.619   5.954   0.451
 4621TIP3    H213805   5.600   6.085   0.526
 4622TIP3   OH213806   2.908   7.164   3.049
 4622TIP3    H113807   2.848   7.098   3.085
 4622TIP3    H213808   2.973   7.176   3.118
 4623TIP3   OH213809   2.947   5.009   4.684
 4623TIP3    H113810   3.015   4.947   4.711
 4623TIP3    H213811   2.883   4.955   4.637
 4624TIP3   OH213812   3.449   7.739   6.021
 4624TIP3    H113813   3.424   7.669   6.082
 4624TIP3    H213814   3.388   7.730   5.948
 4625TIP3   OH213815   6.786   6.062   6.606
 4625TIP3    H113816   6.739   5.979   6.607
 4625TIP3    H213817   6.853   6.051   6.539
 4626TIP3   OH213818   5.121   2.271   4.603
 4626TIP3    H113819   5.108   2.212   4.677
 4626TIP3    H213820   5.160   2.215   4.535
 4627TIP3   OH213821   2.023   1.636   4.485
 4627TIP3    H113822   2.109   1.674   4.505
 4627TIP3    H213823   1.961   1.694   4.529
 4628TIP3   OH213824   2.693   2.157   4.541
 4628TIP3    H113825   2.669   2.120   4.456
 4628TIP3    H213826   2.639   2.235   4.551
 4629TIP3   OH213827   1.788   3.038   4.835
 4629TIP3    H113828   1.717   3.086   4.878
 4629TIP3    H213829   1.754   2.949   4.823
 4630TIP3   OH213830   5.591   3.509   3.319
 4630TIP3    H113831   5.497   3.505   3.297
 4630TIP3    H213832   5.593   3.517   3.414
 4631TIP3   OH213833   6.647   5.608   0.374
 4631TIP3    H113834   6.689   5.549   0.312
 4631TIP3    H213835   6.701   5.687   0.373
 4632TIP3   OH213836   6.803   1.206   6.790
 4632TIP3    H113837   6.834   1.241   6.874
 4632TIP3    H213838   6.836   1.268   6.725
 4633TIP3   OH213839   2.571   4.749   3.545
 4633TIP3    H113840   2.632   4.705   3.605
 4633TIP3    H213841   2.627   4.796   3.484
 4634TIP3   OH213842   5.282   3.155   2.252
 4634TIP3    H113843   5.352   3.198   2.301
 4634TIP3    H213844   5.204   3.168   2.305
 4635TIP3   OH213845   1.819   3.818   5.619
 4635TIP3    H113846   1.867   3.899   5.640
 4635TIP3    H213847   1.727   3.845   5.614
 4636TIP3   OH213848   5.127   5.093   1.205
 4636TIP3    H113849   5.213   5.121   1.175
 4636TIP3    H213850   5.145   5.037   1.280
 4637TIP3   OH213851   4.515   6.295   4.642
 4637TIP3    H113852   4.423   6.313   4.626
 4637TIP3    H213853   4.540   6.355   4.712
 4638TIP3   OH213854   8.069   0.360   5.691
 4638TIP3    H113855   8.142   0.342   5.631
 4638TIP3    H213856   8.103   0.428   5.750
 4639TIP3   OH213857   6.401   7.064   2.701
 4639TIP3    H113858   6.396   7.151   2.661
 4639TIP3    H213859   6.334   7.065   2.770
 4640TIP3   OH213860   2.213   1.057   3.801
 4640TIP3    H113861   2.248   0.978   3.760
 4640TIP3    H213862   2.232   1.046   3.894
 4641TIP3   OH213863   8.151   5.349   5.143
 4641TIP3    H113864   8.150   5.338   5.238
 4641TIP3    H213865   8.209   5.423   5.128
 4642TIP3   OH213866   4.512   7.617   5.120
 4642TIP3    H113867   4.435   7.673   5.129
 4642TIP3    H213868   4.493   7.563   5.044
 4643TIP3   OH213869   7.064   3.480   4.552
 4643TIP3    H113870   7.085   3.422   4.479
 4643TIP3    H213871   7.130   3.460   4.618
 4644TIP3   OH213872   6.251   1.230   6.046
 4644TIP3    H113873   6.284   1.183   5.970
 4644TIP3    H213874   6.199   1.165   6.094
 4645TIP3   OH213875   1.302   0.187   1.796
 4645TIP3    H113876   1.264   0.103   1.821
 4645TIP3    H213877   1.242   0.221   1.730
 4646TIP3   OH213878   5.764   5.335   4.457
 4646TIP3    H113879   5.787   5.259   4.510
 4646TIP3    H213880   5.683   5.310   4.413
 4647TIP3   OH213881   4.417   3.646   1.405
 4647TIP3    H113882   4.347   3.644   1.339
 4647TIP3    H213883   4.395   3.720   1.461
 4648TIP3   OH213884   1.703   1.798   4.393
 4648TIP3    H113885   1.736   1.708   4.394
 4648TIP3    H213886   1.748   1.841   4.466
 4649TIP3   OH213887   4.881   1.032   4.845
 4649TIP3    H113888   4.909   0.958   4.792
 4649TIP3    H213889   4.824   0.994   4.912
 4650TIP3   OH213890   0.156   0.502   2.825
 4650TIP3    H113891   0.202   0.579   2.859
 4650TIP3    H213892   0.212   0.472   2.753
 4651TIP3   OH213893   4.283   6.224   6.593
 4651TIP3    H113894   4.249   6.147   6.639
 4651TIP3    H213895   4.374   6.230   6.620
 4652TIP3   OH213896   0.954   0.519   5.805
 4652TIP3    H113897   0.937   0.600   5.758
 4652TIP3    H213898   0.929   0.538   5.895
 4653TIP3   OH213899   2.785   7.193   0.147
 4653TIP3    H113900   2.833   7.117   0.115
 4653TIP3    H213901   2.694   7.173   0.129
 4654TIP3   OH213902   2.633   5.232   4.065
 4654TIP3    H113903   2.595   5.278   3.990
 4654TIP3    H213904   2.562   5.225   4.128
 4655TIP3   OH213905   4.629   5.235   0.346
 4655TIP3    H113906   4.627   5.293   0.270
 4655TIP3    H213907   4.693   5.275   0.405
 4656TIP3   OH213908   5.695   3.507   0.138
 4656TIP3    H113909   5.776   3.496   0.189
 4656TIP3    H213910   5.710   3.454   0.059
 4657TIP3   OH213911   4.888   7.591   1.768
 4657TIP3    H113912   4.834   7.553   1.699
 4657TIP3    H213913   4.851   7.557   1.849
 4658TIP3   OH213914   2.147   3.638   5.639
 4658TIP3    H113915   2.189   3.557   5.611
 4658TIP3    H213916   2.081   3.611   5.703
 4659TIP3   OH213917   3.569   4.786   3.897
 4659TIP3    H113918   3.486   4.777   3.850
 4659TIP3    H213919   3.621   4.711   3.870
 4660TIP3   OH213920   2.824   3.684   0.177
 4660TIP3    H113921   2.873   3.763   0.196
 4660TIP3    H213922   2.741   3.695   0.223
 4661TIP3   OH213923   1.231   2.550   6.528
 4661TIP3    H113924   1.152   2.528   6.480
 4661TIP3    H213925   1.269   2.624   6.480
 4662TIP3   OH213926   5.671   1.330   3.728
 4662TIP3    H113927   5.751   1.346   3.778
 4662TIP3    H213928   5.607   1.392   3.765
 4663TIP3   OH213929   6.048   4.379   5.940
 4663TIP3    H113930   6.085   4.358   6.026
 4663TIP3    H213931   6.123   4.406   5.888
 4664TIP3   OH213932   5.179   0.367   0.083
 4664TIP3    H113933   5.137   0.290   0.044
 4664TIP3    H213934   5.268   0.366   0.046
 4665TIP3   OH213935   4.038   2.374   6.029
 4665TIP3    H113936   3.992   2.436   5.972
 4665TIP3    H213937   4.104   2.427   6.074
 4666TIP3   OH213938   0.175   2.952   1.454
 4666TIP3    H113939   0.120   2.996   1.519
 4666TIP3    H213940   0.205   2.873   1.498
 4667TIP3   OH213941   2.660   6.660   1.861
 4667TIP3    H113942   2.684   6.612   1.781
 4667TIP3    H213943   2.571   6.632   1.880
 4668TIP3   OH213944   7.227   3.557   3.868
 4668TIP3    H113945   7.194   3.494   3.804
 4668TIP3    H213946   7.227   3.641   3.821
 4669TIP3   OH213947   0.216   5.596   0.433
 4669TIP3    H113948   0.175   5.562   0.354
 4669TIP3    H213949   0.281   5.529   0.457
 4670TIP3   OH213950   1.883   6.265   1.842
 4670TIP3    H113951   1.836   6.335   1.887
 4670TIP3    H213952   1.971   6.300   1.828
 4671TIP3   OH213953   0.312   3.644   1.118
 4671TIP3    H113954   0.289   3.722   1.067
 4671TIP3    H213955   0.404   3.657   1.141
 4672TIP3   OH213956   6.358   6.135   1.383
 4672TIP3    H113957   6.348   6.126   1.289
 4672TIP3    H213958   6.428   6.200   1.394
 4673TIP3   OH213959   1.418   2.771   3.927
 4673TIP3    H113960   1.479   2.770   3.853
 4673TIP3    H213961   1.351   2.836   3.903
 4674TIP3   OH213962   6.046   6.521   1.938
 4674TIP3    H113963   5.953   6.504   1.924
 4674TIP3    H213964   6.080   6.541   1.850
 4675TIP3   OH213965   5.154   7.412   1.132
 4675TIP3    H113966   5.203   7.477   1.082
 4675TIP3    H213967   5.201   7.330   1.117
 4676TIP3   OH213968   2.195   5.617   4.085
 4676TIP3    H113969   2.113   5.568   4.089
 4676TIP3    H213970   2.236   5.602   4.169
 4677TIP3   OH213971   2.338   1.127   1.429
 4677TIP3    H113972   2.285   1.138   1.508
 4677TIP3    H213973   2.392   1.206   1.425
 4678TIP3   OH213974   2.192   2.284   1.470
 4678TIP3    H113975   2.191   2.360   1.528
 4678TIP3    H213976   2.162   2.317   1.386
 4679TIP3   OH213977   1.179   4.509   4.305
 4679TIP3    H113978   1.218   4.427   4.275
 4679TIP3    H213979   1.238   4.577   4.273
 4680TIP3   OH213980   4.733   0.650   3.227
 4680TIP3    H113981   4.654   0.606   3.258
 4680TIP3    H213982   4.705   0.740   3.208
 4681TIP3   OH213983   1.390   7.047   5.705
 4681TIP3    H113984   1.309   7.099   5.709
 4681TIP3    H213985   1.360   6.956   5.709
 4682TIP3   OH213986   5.842   7.453   3.414
 4682TIP3    H113987   5.902   7.439   3.487
 4682TIP3    H213988   5.850   7.546   3.394
 4683TIP3   OH213989   6.733   3.140   6.012
 4683TIP3    H113990   6.757   3.209   6.074
 4683TIP3    H213991   6.775   3.062   6.046
 4684TIP3   OH213992   6.452   1.591   2.652
 4684TIP3    H113993   6.411   1.664   2.607
 4684TIP3    H213994   6.389   1.565   2.719
 4685TIP3   OH213995   2.068   1.540   5.604
 4685TIP3    H113996   2.120   1.620   5.603
 4685TIP3    H213997   2.113   1.483   5.667
 4686TIP3   OH213998   7.814   4.678   0.453
 4686TIP3    H113999   7.772   4.611   0.399
 4686TIP3    H214000   7.892   4.704   0.404
 4687TIP3   OH214001   0.069   5.281   1.908
 4687TIP3    H114002  -0.025   5.289   1.923
 4687TIP3    H214003   0.083   5.322   1.822
 4688TIP3   OH214004   1.853   7.358   4.672
 4688TIP3    H114005   1.822   7.440   4.633
 4688TIP3    H214006   1.914   7.385   4.741
 4689TIP3   OH214007   0.882   0.040   2.248
 4689TIP3    H114008   0.901   0.021   2.340
 4689TIP3    H214009   0.828   0.119   2.250
 4690TIP3   OH214010   5.500   7.320   3.959
 4690TIP3    H114011   5.584   7.275   3.967
 4690TIP3    H214012   5.437   7.261   4.000
 4691TIP3   OH214013   0.094   3.687   4.362
 4691TIP3    H114014   0.186   3.714   4.368
 4691TIP3    H214015   0.066   3.718   4.276
 4692TIP3   OH214016   1.607   6.081   4.624
 4692TIP3    H114017   1.620   6.137   4.701
 4692TIP3    H214018   1.590   5.994   4.661
 4693TIP3   OH214019   5.442   0.932   4.505
 4693TIP3    H114020   5.382   0.995   4.544
 4693TIP3    H214021   5.414   0.847   4.539
 4694TIP3   OH214022   0.509   3.437   4.511
 4694TIP3    H114023   0.523   3.359   4.457
 4694TIP3    H214024   0.431   3.479   4.473
 4695TIP3   OH214025   0.263   1.180   6.298
 4695TIP3    H114026   0.241   1.120   6.227
 4695TIP3    H214027   0.354   1.158   6.320
 4696TIP3   OH214028   0.841   7.311   5.794
 4696TIP3    H114029   0.752   7.318   5.760
 4696TIP3    H214030   0.895   7.359   5.730
 4697TIP3   OH214031   1.638   5.521   0.619
 4697TIP3    H114032   1.729   5.546   0.634
 4697TIP3    H214033   1.637   5.426   0.634
 4698TIP3   OH214034   1.097   7.222   5.063
 4698TIP3    H114035   1.168   7.211   5.000
 4698TIP3    H214036   1.136   7.200   5.148
 4699TIP3   OH214037   0.519   4.500   1.045
 4699TIP3    H114038   0.570   4.546   0.979
 4699TIP3    H214039   0.479   4.570   1.097
 4700TIP3   OH214040   7.945   7.004   4.136
 4700TIP3    H114041   8.000   6.959   4.200
 4700TIP3    H214042   7.881   7.052   4.187
 4701TIP3   OH214043   3.875   4.687   5.956
 4701TIP3    H114044   3.849   4.673   6.047
 4701TIP3    H214045   3.961   4.728   5.962
 4702TIP3   OH214046   2.977   1.044   2.812
 4702TIP3    H114047   2.957   1.137   2.822
 4702TIP3    H214048   3.067   1.036   2.843
 4703TIP3   OH214049   4.968   1.673   5.306
 4703TIP3    H114050   5.047   1.727   5.303
 4703TIP3    H214051   4.997   1.586   5.280
 4704TIP3   OH214052   2.850   4.256   4.723
 4704TIP3    H114053   2.781   4.199   4.688
 4704TIP3    H214054   2.809   4.302   4.796
 4705TIP3   OH214055   7.809   7.363  -0.010
 4705TIP3    H114056   7.790   7.324  -0.096
 4705TIP3    H214057   7.750   7.318   0.050
 4706TIP3   OH214058   1.927   1.230   2.727
 4706TIP3    H114059   1.860   1.215   2.794
 4706TIP3    H214060   1.881   1.278   2.657
 4707TIP3   OH214061   3.376   7.091   0.338
 4707TIP3    H114062   3.415   7.172   0.371
 4707TIP3    H214063   3.363   7.037   0.416
 4708TIP3   OH214064   6.136   0.412   2.991
 4708TIP3    H114065   6.204   0.431   3.056
 4708TIP3    H214066   6.055   0.444   3.031
 4709TIP3   OH214067   3.707   1.609   2.894
 4709TIP3    H114068   3.694   1.571   2.981
 4709TIP3    H214069   3.802   1.619   2.887
 4710TIP3   OH214070   8.250   0.479   1.061
 4710TIP3    H114071   8.285   0.556   1.017
 4710TIP3    H214072   8.325   0.443   1.108
 4711TIP3   OH214073   1.472   7.007   0.288
 4711TIP3    H114074   1.486   6.912   0.293
 4711TIP3    H214075   1.402   7.024   0.351
 4712TIP3   OH214076   5.576   1.478   6.742
 4712TIP3    H114077   5.634   1.488   6.819
 4712TIP3    H214078   5.571   1.384   6.729
 4713TIP3   OH214079   4.071   2.081   3.752
 4713TIP3    H114080   3.998   2.143   3.749
 4713TIP3    H214081   4.107   2.082   3.663
 4714TIP3   OH214082   4.321   3.998   5.198
 4714TIP3    H114083   4.409   4.023   5.172
 4714TIP3    H214084   4.326   3.903   5.213
 4715TIP3   OH214085   4.425   2.831   4.267
 4715TIP3    H114086   4.372   2.900   4.306
 4715TIP3    H214087   4.515   2.854   4.289
 4716TIP3   OH214088   4.706   6.467   4.089
 4716TIP3    H114089   4.685   6.447   4.180
 4716TIP3    H214090   4.648   6.409   4.039
 4717TIP3   OH214091   2.898   6.342   5.670
 4717TIP3    H114092   2.844   6.418   5.647
 4717TIP3    H214093   2.896   6.339   5.765
 4718TIP3   OH214094   3.042   4.402   5.968
 4718TIP3    H114095   3.121   4.454   5.953
 4718TIP3    H214096   3.040   4.388   6.062
 4719TIP3   OH214097   4.057   3.790   6.188
 4719TIP3    H114098   4.022   3.873   6.222
 4719TIP3    H214099   4.093   3.813   6.103
 4720TIP3   OH214100   3.315   5.364   1.799
 4720TIP3    H114101   3.387   5.340   1.856
 4720TIP3    H214102   3.256   5.414   1.855
 4721TIP3   OH214103   4.880   1.108   5.217
 4721TIP3    H114104   4.835   1.041   5.269
 4721TIP3    H214105   4.965   1.069   5.197
 4722TIP3   OH214106   2.307   4.895   3.250
 4722TIP3    H114107   2.350   4.811   3.236
 4722TIP3    H214108   2.240   4.900   3.182
 4723TIP3   OH214109   8.099   4.015   0.032
 4723TIP3    H114110   8.055   4.075  -0.028
 4723TIP3    H214111   8.187   4.004  -0.004
 4724TIP3   OH214112   7.839   7.645   5.025
 4724TIP3    H114113   7.831   7.566   4.972
 4724TIP3    H214114   7.913   7.692   4.987
 4725TIP3   OH214115   6.791   2.601   3.883
 4725TIP3    H114116   6.859   2.535   3.878
 4725TIP3    H214117   6.780   2.631   3.793
 4726TIP3   OH214118   3.610   4.379   1.009
 4726TIP3    H114119   3.585   4.363   1.101
 4726TIP3    H214120   3.620   4.292   0.972
 4727TIP3   OH214121   6.310   3.623   6.432
 4727TIP3    H114122   6.370   3.690   6.400
 4727TIP3    H214123   6.273   3.660   6.512
 4728TIP3   OH214124   7.295   0.232   2.046
 4728TIP3    H114125   7.344   0.302   2.089
 4728TIP3    H214126   7.293   0.161   2.110
 4729TIP3   OH214127   7.994   2.019   0.339
 4729TIP3    H114128   8.060   2.067   0.288
 4729TIP3    H214129   7.939   2.088   0.376
 4730TIP3   OH214130   2.882   6.662   3.457
 4730TIP3    H114131   2.921   6.737   3.503
 4730TIP3    H214132   2.814   6.700   3.402
 4731TIP3   OH214133   8.232   7.327   2.601
 4731TIP3    H114134   8.215   7.233   2.594
 4731TIP3    H214135   8.148   7.364   2.630
 4732TIP3   OH214136   7.716   7.385   5.534
 4732TIP3    H114137   7.789   7.444   5.553
 4732TIP3    H214138   7.714   7.378   5.439
 4733TIP3   OH214139   7.777   6.693   4.539
 4733TIP3    H114140   7.731   6.776   4.550
 4733TIP3    H214141   7.788   6.685   4.444
 4734TIP3   OH214142   2.055   2.644   3.431
 4734TIP3    H114143   2.007   2.584   3.374
 4734TIP3    H214144   1.998   2.721   3.439
 4735TIP3   OH214145   5.151  -0.036   6.109
 4735TIP3    H114146   5.219  -0.015   6.045
 4735TIP3    H214147   5.068  -0.015   6.064
 4736TIP3   OH214148   3.600   1.469   1.666
 4736TIP3    H114149   3.608   1.487   1.572
 4736TIP3    H214150   3.681   1.422   1.688
 4737TIP3   OH214151   6.110   4.816   5.379
 4737TIP3    H114152   6.189   4.762   5.371
 4737TIP3    H214153   6.121   4.862   5.462
 4738TIP3   OH214154   3.291   3.188   4.254
 4738TIP3    H114155   3.214   3.217   4.205
 4738TIP3    H214156   3.301   3.096   4.230
 4739TIP3   OH214157   1.220   6.002   3.254
 4739TIP3    H114158   1.218   6.043   3.168
 4739TIP3    H214159   1.134   6.020   3.292
 4740TIP3   OH214160   1.585   4.068   0.960
 4740TIP3    H114161   1.492   4.086   0.973
 4740TIP3    H214162   1.619   4.145   0.915
 4741TIP3   OH214163   0.958   6.072   5.674
 4741TIP3    H114164   1.005   6.142   5.719
 4741TIP3    H214165   0.866   6.097   5.681
 4742TIP3   OH214166   2.050   7.900   4.214
 4742TIP3    H114167   1.967   7.923   4.256
 4742TIP3    H214168   2.080   7.822   4.260
 4743TIP3   OH214169   3.428   2.070   6.468
 4743TIP3    H114170   3.353   2.081   6.526
 4743TIP3    H214171   3.494   2.130   6.501
 4744TIP3   OH214172   2.567   3.329   1.151
 4744TIP3    H114173   2.529   3.403   1.104
 4744TIP3    H214174   2.647   3.308   1.103
 4745TIP3   OH214175   4.419   4.854   4.636
 4745TIP3    H114176   4.363   4.897   4.572
 4745TIP3    H214177   4.443   4.771   4.595
 4746TIP3   OH214178   5.304   5.929   1.614
 4746TIP3    H114179   5.383   5.881   1.586
 4746TIP3    H214180   5.331   5.976   1.693
 4747TIP3   OH214181   0.075   1.979   1.138
 4747TIP3    H114182   0.068   1.910   1.204
 4747TIP3    H214183   0.136   2.042   1.175
 4748TIP3   OH214184   1.063   2.818   6.592
 4748TIP3    H114185   0.993   2.770   6.637
 4748TIP3    H214186   1.022   2.851   6.512
 4749TIP3   OH214187   8.378   6.497   0.352
 4749TIP3    H114188   8.455   6.552   0.368
 4749TIP3    H214189   8.319   6.552   0.301
 4750TIP3   OH214190   7.469   4.060   1.550
 4750TIP3    H114191   7.481   4.004   1.473
 4750TIP3    H214192   7.524   4.136   1.533
 4751TIP3   OH214193   0.342   5.806   6.847
 4751TIP3    H114194   0.407   5.874   6.831
 4751TIP3    H214195   0.275   5.822   6.781
 4752TIP3   OH214196   5.409   2.925   4.487
 4752TIP3    H114197   5.503   2.940   4.480
 4752TIP3    H214198   5.398   2.832   4.466
 4753TIP3   OH214199   6.222   6.620   1.014
 4753TIP3    H114200   6.303   6.649   0.972
 4753TIP3    H214201   6.250   6.560   1.082
 4754TIP3   OH214202   5.879   5.765   0.829
 4754TIP3    H114203   5.938   5.716   0.887
 4754TIP3    H214204   5.797   5.717   0.833
 4755TIP3   OH214205   1.199   2.739   0.933
 4755TIP3    H114206   1.179   2.691   1.013
 4755TIP3    H214207   1.280   2.785   0.951
 4756TIP3   OH214208   0.122   1.035   5.466
 4756TIP3    H114209   0.062   1.042   5.392
 4756TIP3    H214210   0.080   1.084   5.537
 4757TIP3   OH214211   4.995   3.157   5.521
 4757TIP3    H114212   4.901   3.155   5.502
 4757TIP3    H214213   5.016   3.066   5.545
 4758TIP3   OH214214   7.767   5.623   5.559
 4758TIP3    H114215   7.752   5.570   5.481
 4758TIP3    H214216   7.687   5.676   5.568
 4759TIP3   OH214217   6.894   4.675   4.608
 4759TIP3    H114218   6.879   4.658   4.515
 4759TIP3    H214219   6.989   4.680   4.617
 4760TIP3   OH214220   6.816   4.630   6.513
 4760TIP3    H114221   6.819   4.626   6.417
 4760TIP3    H214222   6.809   4.723   6.532
 4761TIP3   OH214223   0.968   7.400   1.909
 4761TIP3    H114224   1.001   7.324   1.860
 4761TIP3    H214225   0.951   7.466   1.843
 4762TIP3   OH214226   5.250   0.396   2.835
 4762TIP3    H114227   5.241   0.302   2.818
 4762TIP3    H214228   5.311   0.426   2.767
 4763TIP3   OH214229   7.625   7.570   4.393
 4763TIP3    H114230   7.674   7.639   4.437
 4763TIP3    H214231   7.594   7.611   4.312
 4764TIP3   OH214232   5.859   7.111   2.487
 4764TIP3    H114233   5.939   7.064   2.511
 4764TIP3    H214234   5.821   7.138   2.571
 4765TIP3   OH214235   4.503   1.229   4.997
 4765TIP3    H114236   4.486   1.147   5.045
 4765TIP3    H214237   4.598   1.236   4.994
 4766TIP3   OH214238   3.877   6.850   0.319
 4766TIP3    H114239   3.793   6.839   0.362
 4766TIP3    H214240   3.937   6.793   0.367
 4767TIP3   OH214241   3.595   3.548   1.388
 4767TIP3    H114242   3.556   3.484   1.328
 4767TIP3    H214243   3.617   3.622   1.332
 4768TIP3   OH214244   6.385   1.597   0.307
 4768TIP3    H114245   6.295   1.570   0.325
 4768TIP3    H214246   6.388   1.690   0.330
 4769TIP3   OH214247   3.975   3.621   5.088
 4769TIP3    H114248   4.013   3.708   5.099
 4769TIP3    H214249   4.006   3.571   5.163
 4770TIP3   OH214250   3.060   2.768   3.909
 4770TIP3    H114251   3.050   2.844   3.967
 4770TIP3    H214252   3.141   2.786   3.861
 4771TIP3   OH214253   3.199   5.442   0.869
 4771TIP3    H114254   3.168   5.528   0.899
 4771TIP3    H214255   3.271   5.421   0.929
 4772TIP3   OH214256   4.253   0.358   5.254
 4772TIP3    H114257   4.266   0.442   5.211
 4772TIP3    H214258   4.232   0.381   5.345
 4773TIP3   OH214259   1.238   7.780   6.831
 4773TIP3    H114260   1.283   7.858   6.862
 4773TIP3    H214261   1.193   7.809   6.751
 4774TIP3   OH214262   8.253   6.326   3.246
 4774TIP3    H114263   8.288   6.265   3.310
 4774TIP3    H214264   8.284   6.412   3.275
 4775TIP3   OH214265   8.328   5.892   1.075
 4775TIP3    H114266   8.337   5.797   1.084
 4775TIP3    H214267   8.235   5.909   1.093
 4776TIP3   OH214268   5.378   2.435   2.178
 4776TIP3    H114269   5.348   2.388   2.100
 4776TIP3    H214270   5.312   2.417   2.245
 4777TIP3   OH214271   7.329   2.156   5.947
 4777TIP3    H114272   7.376   2.098   6.006
 4777TIP3    H214273   7.265   2.099   5.904
 4778TIP3   OH214274   6.738   1.205   2.486
 4778TIP3    H114275   6.698   1.118   2.485
 4778TIP3    H214276   6.720   1.239   2.573
 4779TIP3   OH214277   2.931   2.407   6.061
 4779TIP3    H114278   2.911   2.435   5.972
 4779TIP3    H214279   2.919   2.486   6.114
 4780TIP3   OH214280   8.070   2.231   4.121
 4780TIP3    H114281   8.060   2.206   4.029
 4780TIP3    H214282   8.084   2.326   4.118
 4781TIP3   OH214283   3.688   1.237   3.012
 4781TIP3    H114284   3.679   1.152   3.055
 4781TIP3    H214285   3.689   1.300   3.084
 4782TIP3   OH214286   0.381   1.900   2.354
 4782TIP3    H114287   0.424   1.830   2.305
 4782TIP3    H214288   0.446   1.970   2.357
 4783TIP3   OH214289   6.734   6.718   0.853
 4783TIP3    H114290   6.792   6.712   0.929
 4783TIP3    H214291   6.774   6.785   0.797
 4784TIP3   OH214292   2.426   0.442   0.575
 4784TIP3    H114293   2.477   0.444   0.656
 4784TIP3    H214294   2.479   0.492   0.512
 4785TIP3   OH214295   5.926   2.158   3.173
 4785TIP3    H114296   6.013   2.134   3.206
 4785TIP3    H214297   5.881   2.075   3.161
 4786TIP3   OH214298   1.635   7.807   2.290
 4786TIP3    H114299   1.544   7.825   2.269
 4786TIP3    H214300   1.647   7.715   2.268
 4787TIP3   OH214301   0.689   2.126   5.380
 4787TIP3    H114302   0.676   2.219   5.401
 4787TIP3    H214303   0.646   2.114   5.296
 4788TIP3   OH214304   5.766   0.608   4.809
 4788TIP3    H114305   5.823   0.539   4.842
 4788TIP3    H214306   5.809   0.689   4.834
 4789TIP3   OH214307   6.423   1.510   0.862
 4789TIP3    H114308   6.476   1.444   0.816
 4789TIP3    H214309   6.452   1.593   0.826
 4790TIP3   OH214310   4.040   3.688   2.352
 4790TIP3    H114311   4.113   3.700   2.413
 4790TIP3    H214312   4.071   3.622   2.290
 4791TIP3   OH214313   6.981   6.994   0.423
 4791TIP3    H114314   6.908   6.956   0.472
 4791TIP3    H214315   6.991   7.082   0.460
 4792TIP3   OH214316   7.018   4.916   6.652
 4792TIP3    H114317   7.099   4.968   6.648
 4792TIP3    H214318   7.005   4.884   6.563
 4793TIP3   OH214319   7.854   2.485   0.332
 4793TIP3    H114320   7.783   2.520   0.278
 4793TIP3    H214321   7.820   2.488   0.422
 4794TIP3   OH214322   6.156   5.834   5.656
 4794TIP3    H114323   6.233   5.888   5.674
 4794TIP3    H214324   6.155   5.824   5.561
 4795TIP3   OH214325   2.462   2.070   0.690
 4795TIP3    H114326   2.496   2.081   0.779
 4795TIP3    H214327   2.384   2.124   0.687
 4796TIP3   OH214328   1.172   6.206   3.756
 4796TIP3    H114329   1.122   6.129   3.732
 4796TIP3    H214330   1.159   6.267   3.683
 4797TIP3   OH214331   2.461   6.947   4.672
 4797TIP3    H114332   2.474   6.856   4.699
 4797TIP3    H214333   2.500   6.952   4.585
 4798TIP3   OH214334   5.636   5.860   2.713
 4798TIP3    H114335   5.658   5.937   2.765
 4798TIP3    H214336   5.548   5.879   2.679
 4799TIP3   OH214337   1.690   2.800   6.120
 4799TIP3    H114338   1.672   2.717   6.162
 4799TIP3    H214339   1.674   2.866   6.188
 4800TIP3   OH214340   3.393   7.841   1.955
 4800TIP3    H114341   3.307   7.875   1.981
 4800TIP3    H214342   3.373   7.761   1.906
 4801TIP3   OH214343   3.767   4.428   4.126
 4801TIP3    H114344   3.754   4.347   4.076
 4801TIP3    H214345   3.806   4.488   4.063
 4802TIP3   OH214346   1.565   6.039   3.453
 4802TIP3    H114347   1.548   6.023   3.361
 4802TIP3    H214348   1.562   5.952   3.494
 4803TIP3   OH214349   2.768   5.238   0.886
 4803TIP3    H114350   2.795   5.299   0.954
 4803TIP3    H214351   2.851   5.201   0.854
 4804TIP3   OH214352   0.339   6.958   1.726
 4804TIP3    H114353   0.412   7.010   1.761
 4804TIP3    H214354   0.278   6.951   1.800
 4805TIP3   OH214355   7.363   0.644   0.841
 4805TIP3    H114356   7.317   0.637   0.925
 4805TIP3    H214357   7.296   0.625   0.776
 4806TIP3   OH214358   7.200   1.301   2.005
 4806TIP3    H114359   7.139   1.314   1.932
 4806TIP3    H214360   7.144   1.273   2.078
 4807TIP3   OH214361   6.663   2.865   5.576
 4807TIP3    H114362   6.677   2.771   5.582
 4807TIP3    H214363   6.674   2.897   5.665
 4808TIP3   OH214364   6.597   0.848   4.842
 4808TIP3    H114365   6.632   0.885   4.924
 4808TIP3    H214366   6.589   0.923   4.783
 4809TIP3   OH214367   1.136   0.340   2.566
 4809TIP3    H114368   1.223   0.371   2.591
 4809TIP3    H214369   1.085   0.419   2.550
 4810TIP3   OH214370   6.316   2.595   2.816
 4810TIP3    H114371   6.289   2.642   2.738
 4810TIP3    H214372   6.353   2.513   2.783
 4811TIP3   OH214373   8.069   2.146   4.807
 4811TIP3    H114374   8.089   2.151   4.714
 4811TIP3    H214375   7.978   2.120   4.811
 4812TIP3   OH214376   6.507   0.387   2.552
 4812TIP3    H114377   6.549   0.324   2.610
 4812TIP3    H214378   6.414   0.381   2.572
 4813TIP3   OH214379   0.176   2.799   3.396
 4813TIP3    H114380   0.185   2.855   3.473
 4813TIP3    H214381   0.157   2.713   3.431
 4814TIP3   OH214382   4.870   6.208   0.254
 4814TIP3    H114383   4.848   6.300   0.239
 4814TIP3    H214384   4.965   6.204   0.245
 4815TIP3   OH214385   8.161   5.628   3.618
 4815TIP3    H114386   8.230   5.664   3.675
 4815TIP3    H214387   8.208   5.571   3.557
 4816TIP3   OH214388   5.116   0.543   1.998
 4816TIP3    H114389   5.093   0.462   1.952
 4816TIP3    H214390   5.069   0.538   2.081
 4817TIP3   OH214391   1.987   0.961   3.371
 4817TIP3    H114392   1.970   0.946   3.278
 4817TIP3    H214393   2.012   1.053   3.376
 4818TIP3   OH214394   1.353   4.826   1.894
 4818TIP3    H114395   1.420   4.863   1.951
 4818TIP3    H214396   1.299   4.773   1.952
 4819TIP3   OH214397   1.023   0.667   2.165
 4819TIP3    H114398   0.946   0.722   2.182
 4819TIP3    H214399   1.098   0.721   2.189
 4820TIP3   OH214400   5.216   7.378   4.246
 4820TIP3    H114401   5.223   7.447   4.180
 4820TIP3    H214402   5.225   7.296   4.197
 4821TIP3   OH214403   3.551   3.287   5.646
 4821TIP3    H114404   3.618   3.337   5.692
 4821TIP3    H214405   3.469   3.314   5.687
 4822TIP3   OH214406   5.581   0.774   0.122
 4822TIP3    H114407   5.590   0.679   0.134
 4822TIP3    H214408   5.630   0.792   0.041
 4823TIP3   OH214409   0.056   6.795   3.301
 4823TIP3    H114410   0.013   6.854   3.239
 4823TIP3    H214411   0.041   6.835   3.386
 4824TIP3   OH214412   8.255   1.296   5.347
 4824TIP3    H114413   8.292   1.370   5.299
 4824TIP3    H214414   8.232   1.332   5.432
 4825TIP3   OH214415   3.953   4.092   0.433
 4825TIP3    H114416   3.953   4.064   0.341
 4825TIP3    H214417   3.871   4.058   0.468
 4826TIP3   OH214418   7.576   1.722   3.949
 4826TIP3    H114419   7.588   1.630   3.973
 4826TIP3    H214420   7.614   1.729   3.862
 4827TIP3   OH214421   5.289   0.732   2.338
 4827TIP3    H114422   5.338   0.732   2.256
 4827TIP3    H214423   5.199   0.712   2.313
 4828TIP3   OH214424   4.181   1.074   4.052
 4828TIP3    H114425   4.193   1.046   3.961
 4828TIP3    H214426   4.213   1.164   4.053
 4829TIP3   OH214427   8.188   4.252   0.241
 4829TIP3    H114428   8.120   4.185   0.234
 4829TIP3    H214429   8.270   4.203   0.235
 4830TIP3   OH214430   4.934   1.922   6.437
 4830TIP3    H114431   4.961   1.837   6.403
 4830TIP3    H214432   4.980   1.986   6.382
 4831TIP3   OH214433   1.310   0.692   5.417
 4831TIP3    H114434   1.222   0.694   5.453
 4831TIP3    H214435   1.328   0.783   5.393
 4832TIP3   OH214436   6.525   4.619   0.776
 4832TIP3    H114437   6.568   4.534   0.785
 4832TIP3    H214438   6.431   4.599   0.779
 4833TIP3   OH214439   6.086   1.066   0.065
 4833TIP3    H114440   6.032   1.144   0.077
 4833TIP3    H214441   6.151   1.070   0.136
 4834TIP3   OH214442   1.345   1.172   3.896
 4834TIP3    H114443   1.436   1.152   3.918
 4834TIP3    H214444   1.293   1.111   3.948
 4835TIP3   OH214445   3.174   2.895   5.729
 4835TIP3    H114446   3.215   2.981   5.724
 4835TIP3    H214447   3.081   2.912   5.711
 4836TIP3   OH214448   1.403   2.490   5.698
 4836TIP3    H114449   1.433   2.462   5.784
 4836TIP3    H214450   1.352   2.570   5.714
 4837TIP3   OH214451   5.398   5.285   4.074
 4837TIP3    H114452   5.311   5.322   4.062
 4837TIP3    H214453   5.448   5.354   4.116
 4838TIP3   OH214454   2.904   1.136   0.558
 4838TIP3    H114455   2.990   1.173   0.577
 4838TIP3    H214456   2.922   1.051   0.519
 4839TIP3   OH214457   2.022   3.931   1.469
 4839TIP3    H114458   2.112   3.950   1.494
 4839TIP3    H214459   1.994   4.008   1.419
 4840TIP3   OH214460   7.553   2.113   2.606
 4840TIP3    H114461   7.572   2.121   2.512
 4840TIP3    H214462   7.572   2.022   2.627
 4841TIP3   OH214463   1.654   0.980   3.229
 4841TIP3    H114464   1.566   1.010   3.208
 4841TIP3    H214465   1.641   0.907   3.290
 4842TIP3   OH214466   5.025   2.271   6.587
 4842TIP3    H114467   5.091   2.207   6.561
 4842TIP3    H214468   4.948   2.250   6.534
 4843TIP3   OH214469   1.880   2.652   5.314
 4843TIP3    H114470   1.792   2.642   5.278
 4843TIP3    H214471   1.889   2.579   5.375
 4844TIP3   OH214472   8.101   7.781   2.109
 4844TIP3    H114473   8.048   7.819   2.179
 4844TIP3    H214474   8.165   7.848   2.088
 4845TIP3   OH214475   3.841   5.375   4.185
 4845TIP3    H114476   3.825   5.418   4.101
 4845TIP3    H214477   3.869   5.446   4.243
 4846TIP3   OH214478   5.607   2.027   6.537
 4846TIP3    H114479   5.611   2.111   6.492
 4846TIP3    H214480   5.623   2.047   6.629
 4847TIP3   OH214481   7.447   2.837   5.258
 4847TIP3    H114482   7.459   2.785   5.178
 4847TIP3    H214483   7.353   2.844   5.269
 4848TIP3   OH214484   4.250   7.656   0.813
 4848TIP3    H114485   4.175   7.714   0.798
 4848TIP3    H214486   4.316   7.713   0.854
 4849TIP3   OH214487   7.752   4.460   4.823
 4849TIP3    H114488   7.793   4.544   4.844
 4849TIP3    H214489   7.791   4.399   4.886
 4850TIP3   OH214490   6.713   0.885   2.818
 4850TIP3    H114491   6.783   0.869   2.755
 4850TIP3    H214492   6.732   0.827   2.891
 4851TIP3   OH214493   2.076   7.208   0.580
 4851TIP3    H114494   2.009   7.244   0.522
 4851TIP3    H214495   2.093   7.120   0.545
 4852TIP3   OH214496   4.610   5.484   4.059
 4852TIP3    H114497   4.619   5.534   4.140
 4852TIP3    H214498   4.698   5.452   4.040
 4853TIP3   OH214499   6.373   1.076   4.831
 4853TIP3    H114500   6.455   1.097   4.786
 4853TIP3    H214501   6.324   1.158   4.832
 4854TIP3   OH214502   7.776   7.282   6.365
 4854TIP3    H114503   7.857   7.245   6.399
 4854TIP3    H214504   7.707   7.245   6.420
 4855TIP3   OH214505   6.476   3.251   3.097
 4855TIP3    H114506   6.503   3.207   3.178
 4855TIP3    H214507   6.471   3.181   3.032
 4856TIP3   OH214508   4.085   1.400   1.668
 4856TIP3    H114509   4.037   1.470   1.626
 4856TIP3    H214510   4.128   1.353   1.597
 4857TIP3   OH214511   4.646   0.287   2.668
 4857TIP3    H114512   4.588   0.235   2.612
 4857TIP3    H214513   4.636   0.249   2.755
 4858TIP3   OH214514   8.017   7.810   3.561
 4858TIP3    H114515   8.034   7.797   3.655
 4858TIP3    H214516   8.039   7.726   3.521
 4859TIP3   OH214517   5.294   3.101   5.151
 4859TIP3    H114518   5.388   3.091   5.135
 4859TIP3    H214519   5.289   3.165   5.223
 4860TIP3   OH214520   7.388   7.453   3.032
 4860TIP3    H114521   7.418   7.544   3.023
 4860TIP3    H214522   7.447   7.403   2.977
 4861TIP3   OH214523   4.337   0.933   1.878
 4861TIP3    H114524   4.283   0.961   1.951
 4861TIP3    H214525   4.355   0.841   1.896
 4862TIP3   OH214526   6.387   1.400   2.025
 4862TIP3    H114527   6.444   1.406   2.101
 4862TIP3    H214528   6.392   1.308   1.998
 4863TIP3   OH214529   1.876   3.796   3.914
 4863TIP3    H114530   1.919   3.745   3.846
 4863TIP3    H214531   1.782   3.789   3.894
 4864TIP3   OH214532   1.324   0.451   5.955
 4864TIP3    H114533   1.409   0.417   5.981
 4864TIP3    H214534   1.310   0.525   6.014
 4865TIP3   OH214535   1.846   1.672   5.220
 4865TIP3    H114536   1.831   1.585   5.181
 4865TIP3    H214537   1.935   1.669   5.253
 4866TIP3   OH214538   4.778   7.654   2.617
 4866TIP3    H114539   4.831   7.672   2.539
 4866TIP3    H214540   4.842   7.632   2.684
 4867TIP3   OH214541   0.036   5.111   1.300
 4867TIP3    H114542   0.032   5.207   1.299
 4867TIP3    H214543   0.059   5.087   1.210
 4868TIP3   OH214544   2.890   1.309   3.610
 4868TIP3    H114545   2.945   1.314   3.532
 4868TIP3    H214546   2.800   1.314   3.576
 4869TIP3   OH214547   5.081   3.696   6.815
 4869TIP3    H114548   5.038   3.644   6.883
 4869TIP3    H214549   5.118   3.631   6.755
 4870TIP3   OH214550   5.438   6.386   3.519
 4870TIP3    H114551   5.361   6.439   3.540
 4870TIP3    H214552   5.504   6.413   3.583
 4871TIP3   OH214553   2.327   3.507   2.686
 4871TIP3    H114554   2.393   3.455   2.731
 4871TIP3    H214555   2.367   3.593   2.673
 4872TIP3   OH214556   1.596   1.315   3.035
 4872TIP3    H114557   1.655   1.368   3.088
 4872TIP3    H214558   1.508   1.339   3.066
 4873TIP3   OH214559   4.057   1.797   0.378
 4873TIP3    H114560   4.081   1.890   0.385
 4873TIP3    H214561   3.965   1.798   0.351
 4874TIP3   OH214562   6.233   2.676   2.168
 4874TIP3    H114563   6.139   2.682   2.148
 4874TIP3    H214564   6.257   2.586   2.143
 4875TIP3   OH214565   8.147   7.548   4.607
 4875TIP3    H114566   8.178   7.458   4.599
 4875TIP3    H214567   8.105   7.566   4.523
 4876TIP3   OH214568   5.137   4.219   3.605
 4876TIP3    H114569   5.154   4.275   3.529
 4876TIP3    H214570   5.204   4.151   3.600
 4877TIP3   OH214571   1.253   5.119   2.016
 4877TIP3    H114572   1.235   5.133   1.923
 4877TIP3    H214573   1.192   5.176   2.062
 4878TIP3   OH214574   0.975   4.588   0.005
 4878TIP3    H114575   1.048   4.528   0.019
 4878TIP3    H214576   1.016   4.669  -0.024
 4879TIP3   OH214577   7.691   2.807   0.350
 4879TIP3    H114578   7.720   2.878   0.293
 4879TIP3    H214579   7.606   2.836   0.383
 4880TIP3   OH214580   4.131   2.156   2.402
 4880TIP3    H114581   4.226   2.147   2.397
 4880TIP3    H214582   4.112   2.239   2.358
 4881TIP3   OH214583   6.100   3.322   2.776
 4881TIP3    H114584   6.182   3.314   2.826
 4881TIP3    H214585   6.044   3.376   2.831
 4882TIP3   OH214586   2.996   2.743   4.409
 4882TIP3    H114587   2.930   2.675   4.419
 4882TIP3    H214588   3.047   2.716   4.333
 4883TIP3   OH214589   4.602   2.670   4.497
 4883TIP3    H114590   4.588   2.743   4.557
 4883TIP3    H214591   4.697   2.669   4.483
 4884TIP3   OH214592   2.708   0.739   5.682
 4884TIP3    H114593   2.743   0.655   5.651
 4884TIP3    H214594   2.706   0.730   5.778
 4885TIP3   OH214595   5.176   0.937   5.983
 4885TIP3    H114596   5.263   0.900   5.972
 4885TIP3    H214597   5.133   0.922   5.898
 4886TIP3   OH214598   6.924   4.263   3.377
 4886TIP3    H114599   6.940   4.353   3.350
 4886TIP3    H214600   6.831   4.248   3.357
 4887TIP3   OH214601   3.405   6.050   3.798
 4887TIP3    H114602   3.427   6.060   3.891
 4887TIP3    H214603   3.467   5.984   3.766
 4888TIP3   OH214604   2.466   0.248   1.107
 4888TIP3    H114605   2.390   0.293   1.145
 4888TIP3    H214606   2.428   0.181   1.050
 4889TIP3   OH214607   3.949   2.043   2.119
 4889TIP3    H114608   3.949   2.022   2.212
 4889TIP3    H214609   4.001   1.973   2.078
 4890TIP3   OH214610   6.585   0.951   1.778
 4890TIP3    H114611   6.668   0.984   1.744
 4890TIP3    H214612   6.592   0.963   1.873
 4891TIP3   OH214613   0.121   0.637   2.384
 4891TIP3    H114614   0.075   0.639   2.468
 4891TIP3    H214615   0.053   0.655   2.319
 4892TIP3   OH214616   2.073   2.366   6.575
 4892TIP3    H114617   2.029   2.445   6.608
 4892TIP3    H214618   2.126   2.398   6.502
 4893TIP3   OH214619   0.785   0.888   3.691
 4893TIP3    H114620   0.830   0.848   3.766
 4893TIP3    H214621   0.821   0.976   3.686
 4894TIP3   OH214622   1.283   6.743   0.352
 4894TIP3    H114623   1.234   6.728   0.271
 4894TIP3    H214624   1.241   6.820   0.392
 4895TIP3   OH214625   2.679   3.016   2.208
 4895TIP3    H114626   2.618   2.952   2.245
 4895TIP3    H214627   2.700   3.074   2.281
 4896TIP3   OH214628   3.574   2.461   0.412
 4896TIP3    H114629   3.577   2.428   0.322
 4896TIP3    H214630   3.641   2.411   0.458
 4897TIP3   OH214631   3.468   6.512   2.679
 4897TIP3    H114632   3.420   6.436   2.645
 4897TIP3    H214633   3.434   6.525   2.768
 4898TIP3   OH214634   1.462   4.142   3.046
 4898TIP3    H114635   1.501   4.150   3.134
 4898TIP3    H214636   1.369   4.128   3.063
 4899TIP3   OH214637   6.948   5.582   5.136
 4899TIP3    H114638   6.936   5.599   5.043
 4899TIP3    H214639   6.990   5.496   5.140
 4900TIP3   OH214640   8.341   1.064   5.772
 4900TIP3    H114641   8.371   1.136   5.717
 4900TIP3    H214642   8.412   1.001   5.771
 4901TIP3   OH214643   5.208   2.167   0.166
 4901TIP3    H114644   5.155   2.100   0.122
 4901TIP3    H214645   5.273   2.117   0.216
 4902TIP3   OH214646   2.279   7.124   6.624
 4902TIP3    H114647   2.243   7.200   6.671
 4902TIP3    H214648   2.329   7.162   6.552
 4903TIP3   OH214649   6.712   0.239   5.110
 4903TIP3    H114650   6.663   0.232   5.193
 4903TIP3    H214651   6.789   0.291   5.132
 4904TIP3   OH214652   7.084   5.185   0.573
 4904TIP3    H114653   7.157   5.213   0.518
 4904TIP3    H214654   7.047   5.266   0.608
 4905TIP3   OH214655   2.182   2.820   6.012
 4905TIP3    H114656   2.102   2.798   6.060
 4905TIP3    H214657   2.168   2.910   5.982
 4906TIP3   OH214658   7.219   6.353   0.145
 4906TIP3    H114659   7.295   6.401   0.111
 4906TIP3    H214660   7.212   6.382   0.236
 4907TIP3   OH214661   4.710   2.669   3.651
 4907TIP3    H114662   4.697   2.578   3.677
 4907TIP3    H214663   4.646   2.682   3.581
 4908TIP3   OH214664   5.795   2.698   4.220
 4908TIP3    H114665   5.847   2.700   4.140
 4908TIP3    H214666   5.710   2.735   4.194
 4909TIP3   OH214667   3.542   5.236   6.714
 4909TIP3    H114668   3.555   5.143   6.730
 4909TIP3    H214669   3.450   5.243   6.687
 4910TIP3   OH214670   2.193   7.097   4.729
 4910TIP3    H114671   2.134   7.031   4.766
 4910TIP3    H214672   2.276   7.084   4.776
 4911TIP3   OH214673   3.369   3.623   6.676
 4911TIP3    H114674   3.424   3.676   6.733
 4911TIP3    H214675   3.429   3.561   6.635
 4912TIP3   OH214676   8.036   1.301   1.566
 4912TIP3    H114677   7.975   1.234   1.533
 4912TIP3    H214678   8.048   1.278   1.658
 4913TIP3   OH214679   6.309   1.929   2.745
 4913TIP3    H114680   6.277   1.994   2.808
 4913TIP3    H214681   6.395   1.962   2.718
 4914TIP3   OH214682   6.051   4.080   6.659
 4914TIP3    H114683   5.958   4.060   6.648
 4914TIP3    H214684   6.059   4.104   6.752
 4915TIP3   OH214685   1.596   5.251   0.610
 4915TIP3    H114686   1.510   5.239   0.651
 4915TIP3    H214687   1.638   5.165   0.617
 4916TIP3   OH214688   6.082   3.163   2.330
 4916TIP3    H114689   6.014   3.155   2.263
 4916TIP3    H214690   6.162   3.130   2.288
 4917TIP3   OH214691   2.232   6.959   3.833
 4917TIP3    H114692   2.284   7.021   3.783
 4917TIP3    H214693   2.267   6.964   3.922
 4918TIP3   OH214694   1.554   6.534   2.409
 4918TIP3    H114695   1.500   6.603   2.448
 4918TIP3    H214696   1.625   6.521   2.472
 4919TIP3   OH214697   3.295   0.801   5.010
 4919TIP3    H114698   3.292   0.873   5.074
 4919TIP3    H214699   3.338   0.839   4.934
 4920TIP3   OH214700   0.390   3.883   5.632
 4920TIP3    H114701   0.436   3.799   5.624
 4920TIP3    H214702   0.299   3.863   5.611
 4921TIP3   OH214703   6.001   4.340   4.663
 4921TIP3    H114704   5.947   4.276   4.616
 4921TIP3    H214705   5.988   4.422   4.615
 4922TIP3   OH214706   2.394   2.835   2.567
 4922TIP3    H114707   2.432   2.749   2.584
 4922TIP3    H214708   2.402   2.847   2.472
 4923TIP3   OH214709   4.868   6.832   1.589
 4923TIP3    H114710   4.788   6.841   1.538
 4923TIP3    H214711   4.865   6.742   1.622
 4924TIP3   OH214712   0.099   0.060   1.685
 4924TIP3    H114713   0.045   0.077   1.608
 4924TIP3    H214714   0.144   0.143   1.702
 4925TIP3   OH214715   2.118   7.909   5.093
 4925TIP3    H114716   2.027   7.933   5.109
 4925TIP3    H214717   2.132   7.930   5.001
 4926TIP3   OH214718   3.195   7.340   2.575
 4926TIP3    H114719   3.100   7.334   2.569
 4926TIP3    H214720   3.222   7.257   2.614
 4927TIP3   OH214721   7.608   0.476   0.195
 4927TIP3    H114722   7.593   0.528   0.116
 4927TIP3    H214723   7.703   0.464   0.199
 4928TIP3   OH214724   1.437   6.922   2.609
 4928TIP3    H114725   1.342   6.925   2.602
 4928TIP3    H214726   1.454   6.860   2.680
 4929TIP3   OH214727   0.310   3.175   2.228
 4929TIP3    H114728   0.238   3.227   2.193
 4929TIP3    H214729   0.311   3.194   2.322
 4930TIP3   OH214730   6.294   2.734   6.475
 4930TIP3    H114731   6.279   2.829   6.480
 4930TIP3    H214732   6.206   2.697   6.464
 4931TIP3   OH214733   4.684   3.456   6.865
 4931TIP3    H114734   4.620   3.500   6.920
 4931TIP3    H214735   4.769   3.490   6.896
 4932TIP3   OH214736   5.928   7.871   3.600
 4932TIP3    H114737   5.951   7.893   3.690
 4932TIP3    H214738   6.005   7.894   3.548
 4933TIP3   OH214739   4.866   1.431   0.479
 4933TIP3    H114740   4.817   1.403   0.401
 4933TIP3    H214741   4.808   1.409   0.552
 4934TIP3   OH214742   4.402   4.738   2.560
 4934TIP3    H114743   4.461   4.669   2.593
 4934TIP3    H214744   4.405   4.729   2.465
 4935TIP3   OH214745   3.424   2.615   6.507
 4935TIP3    H114746   3.440   2.697   6.460
 4935TIP3    H214747   3.495   2.610   6.572
 4936TIP3   OH214748   1.373   3.503   3.510
 4936TIP3    H114749   1.393   3.410   3.522
 4936TIP3    H214750   1.280   3.505   3.486
 4937TIP3   OH214751   7.854   3.443   0.533
 4937TIP3    H114752   7.784   3.502   0.560
 4937TIP3    H214753   7.927   3.462   0.592
 4938TIP3   OH214754   4.707   1.968   1.197
 4938TIP3    H114755   4.612   1.959   1.198
 4938TIP3    H214756   4.740   1.890   1.242
 4939TIP3   OH214757   4.208   2.252   4.153
 4939TIP3    H114758   4.204   2.343   4.124
 4939TIP3    H214759   4.133   2.243   4.212
 4940TIP3   OH214760   7.868   1.906   3.953
 4940TIP3    H114761   7.875   1.999   3.974
 4940TIP3    H214762   7.824   1.867   4.029
 4941TIP3   OH214763   7.796   1.780   4.196
 4941TIP3    H114764   7.722   1.733   4.158
 4941TIP3    H214765   7.865   1.715   4.202
 4942TIP3   OH214766   1.010   0.611   0.042
 4942TIP3    H114767   0.958   0.608   0.123
 4942TIP3    H214768   0.946   0.631  -0.026
 4943TIP3   OH214769   2.300   4.512   5.432
 4943TIP3    H114770   2.384   4.555   5.448
 4943TIP3    H214771   2.238   4.585   5.421
 4944TIP3   OH214772   7.522   6.147   2.693
 4944TIP3    H114773   7.491   6.101   2.614
 4944TIP3    H214774   7.615   6.160   2.678
 4945TIP3   OH214775   0.855   4.777   6.592
 4945TIP3    H114776   0.802   4.847   6.554
 4945TIP3    H214777   0.912   4.821   6.655
 4946TIP3   OH214778   8.288   6.642   1.602
 4946TIP3    H114779   8.331   6.618   1.520
 4946TIP3    H214780   8.326   6.583   1.667
 4947TIP3   OH214781   2.472   3.748   2.677
 4947TIP3    H114782   2.510   3.787   2.598
 4947TIP3    H214783   2.460   3.821   2.737
 4948TIP3   OH214784   6.932   3.317   5.024
 4948TIP3    H114785   6.906   3.399   5.067
 4948TIP3    H214786   6.883   3.315   4.942
 4949TIP3   OH214787   4.798   1.039   0.822
 4949TIP3    H114788   4.832   0.997   0.901
 4949TIP3    H214789   4.812   1.132   0.837
 4950TIP3   OH214790   7.833   2.775   3.290
 4950TIP3    H114791   7.903   2.765   3.226
 4950TIP3    H214792   7.777   2.845   3.255
 4951TIP3   OH214793   5.759   5.582   0.480
 4951TIP3    H114794   5.845   5.625   0.478
 4951TIP3    H214795   5.727   5.589   0.390
 4952TIP3   OH214796   1.361   3.263   3.796
 4952TIP3    H114797   1.448   3.293   3.824
 4952TIP3    H214798   1.359   3.282   3.702
 4953TIP3   OH214799   1.780   5.199   0.061
 4953TIP3    H114800   1.823   5.134   0.006
 4953TIP3    H214801   1.847   5.265   0.077
 4954TIP3   OH214802   5.554   4.573   3.141
 4954TIP3    H114803   5.594   4.570   3.228
 4954TIP3    H214804   5.499   4.651   3.143
 4955TIP3   OH214805   1.598   2.620   4.953
 4955TIP3    H114806   1.590   2.598   5.046
 4955TIP3    H214807   1.683   2.585   4.927
 4956TIP3   OH214808   0.819   5.955   2.085
 4956TIP3    H114809   0.753   5.930   2.021
 4956TIP3    H214810   0.898   5.909   2.057
 4957TIP3   OH214811   0.400   5.747   1.443
 4957TIP3    H114812   0.441   5.778   1.524
 4957TIP3    H214813   0.355   5.823   1.408
 4958TIP3   OH214814   8.372   7.593   2.498
 4958TIP3    H114815   8.292   7.560   2.539
 4958TIP3    H214816   8.431   7.611   2.571
 4959TIP3   OH214817   7.473   0.743   1.752
 4959TIP3    H114818   7.408   0.686   1.711
 4959TIP3    H214819   7.528   0.773   1.680
 4960TIP3   OH214820   4.464   5.055   3.389
 4960TIP3    H114821   4.541   5.004   3.365
 4960TIP3    H214822   4.417   5.069   3.306
 4961TIP3   OH214823   6.788   3.130   1.576
 4961TIP3    H114824   6.811   3.046   1.614
 4961TIP3    H214825   6.708   3.156   1.623
 4962TIP3   OH214826   7.269   7.831   1.760
 4962TIP3    H114827   7.244   7.923   1.761
 4962TIP3    H214828   7.331   7.822   1.833
 4963TIP3   OH214829   5.919   3.627   4.375
 4963TIP3    H114830   5.955   3.551   4.422
 4963TIP3    H214831   5.845   3.591   4.326
 4964TIP3   OH214832   8.115   3.829   4.550
 4964TIP3    H114833   8.097   3.865   4.463
 4964TIP3    H214834   8.062   3.749   4.554
 4965TIP3   OH214835   2.661   5.614   6.249
 4965TIP3    H114836   2.694   5.528   6.224
 4965TIP3    H214837   2.577   5.621   6.203
 4966TIP3   OH214838   6.432   0.949   2.877
 4966TIP3    H114839   6.444   0.919   2.967
 4966TIP3    H214840   6.522   0.956   2.843
 4967TIP3   OH214841   1.517   2.974   1.530
 4967TIP3    H114842   1.452   2.905   1.515
 4967TIP3    H214843   1.483   3.049   1.481
 4968TIP3   OH214844   3.025   0.996   6.481
 4968TIP3    H114845   3.016   0.929   6.413
 4968TIP3    H214846   3.077   1.065   6.440
 4969TIP3   OH214847   7.560   1.424   2.591
 4969TIP3    H114848   7.584   1.490   2.527
 4969TIP3    H214849   7.484   1.379   2.553
 4970TIP3   OH214850   5.802   7.330   1.421
 4970TIP3    H114851   5.815   7.318   1.328
 4970TIP3    H214852   5.734   7.397   1.427
 4971TIP3   OH214853   6.242   2.041   4.838
 4971TIP3    H114854   6.316   2.076   4.788
 4971TIP3    H214855   6.166   2.055   4.782
 4972TIP3   OH214856   8.243   3.721   1.207
 4972TIP3    H114857   8.191   3.723   1.288
 4972TIP3    H214858   8.333   3.736   1.237
 4973TIP3   OH214859   4.229   2.795   3.339
 4973TIP3    H114860   4.245   2.881   3.378
 4973TIP3    H214861   4.268   2.733   3.401
 4974TIP3   OH214862   1.835   6.808   1.795
 4974TIP3    H114863   1.747   6.811   1.834
 4974TIP3    H214864   1.892   6.844   1.863
 4975TIP3   OH214865   1.859   3.371   3.379
 4975TIP3    H114866   1.918   3.327   3.441
 4975TIP3    H214867   1.901   3.359   3.294
 4976TIP3   OH214868   6.851   0.300   0.761
 4976TIP3    H114869   6.834   0.334   0.673
 4976TIP3    H214870   6.775   0.327   0.812
 4977TIP3   OH214871   4.825   3.913   4.959
 4977TIP3    H114872   4.857   3.887   5.045
 4977TIP3    H214873   4.828   4.009   4.960
 4978TIP3   OH214874   8.097   3.543   6.006
 4978TIP3    H114875   8.098   3.612   5.939
 4978TIP3    H214876   8.044   3.473   5.967
 4979TIP3   OH214877   6.466   7.214   3.055
 4979TIP3    H114878   6.430   7.261   3.130
 4979TIP3    H214879   6.432   7.125   3.065
 4980TIP3   OH214880   7.600   5.010   5.750
 4980TIP3    H114881   7.664   5.078   5.770
 4980TIP3    H214882   7.583   5.020   5.656
 4981TIP3   OH214883   2.584   6.120   4.096
 4981TIP3    H114884   2.548   6.033   4.081
 4981TIP3    H214885   2.678   6.106   4.111
 4982TIP3   OH214886   4.156   1.818   0.635
 4982TIP3    H114887   4.100   1.757   0.683
 4982TIP3    H214888   4.128   1.809   0.544
 4983TIP3   OH214889   5.013   7.205   6.618
 4983TIP3    H114890   5.002   7.294   6.652
 4983TIP3    H214891   4.996   7.148   6.693
 4984TIP3   OH214892   6.981   1.013   6.282
 4984TIP3    H114893   6.930   1.081   6.325
 4984TIP3    H214894   7.041   1.060   6.224
 4985TIP3   OH214895   7.819   3.138   0.701
 4985TIP3    H114896   7.816   3.208   0.765
 4985TIP3    H214897   7.882   3.168   0.635
 4986TIP3   OH214898   4.852   5.619   4.642
 4986TIP3    H114899   4.765   5.591   4.670
 4986TIP3    H214900   4.848   5.615   4.546
 4987TIP3   OH214901   1.616   2.209   4.131
 4987TIP3    H114902   1.627   2.272   4.202
 4987TIP3    H214903   1.537   2.238   4.085
 4988TIP3   OH214904   1.616   0.498   0.524
 4988TIP3    H114905   1.616   0.518   0.617
 4988TIP3    H214906   1.701   0.529   0.493
 4989TIP3   OH214907   7.109   0.425   1.686
 4989TIP3    H114908   7.045   0.486   1.724
 4989TIP3    H214909   7.106   0.348   1.743
 4990TIP3   OH214910   3.431   1.668   1.221
 4990TIP3    H114911   3.443   1.745   1.165
 4990TIP3    H214912   3.337   1.668   1.242
 4991TIP3   OH214913   1.481   7.360   3.825
 4991TIP3    H114914   1.422   7.403   3.887
 4991TIP3    H214915   1.520   7.432   3.775
 4992TIP3   OH214916   5.384   6.741   0.527
 4992TIP3    H114917   5.477   6.752   0.507
 4992TIP3    H214918   5.380   6.738   0.623
 4993TIP3   OH214919   3.966   3.635   4.742
 4993TIP3    H114920   3.965   3.546   4.708
 4993TIP3    H214921   3.874   3.659   4.749
 4994TIP3   OH214922   6.866   6.996   0.879
 4994TIP3    H114923   6.788   7.010   0.825
 4994TIP3    H214924   6.938   6.998   0.816
 4995TIP3   OH214925   1.925   2.998   2.667
 4995TIP3    H114926   1.966   3.010   2.752
 4995TIP3    H214927   1.955   3.073   2.615
 4996TIP3   OH214928   3.921   0.646   4.271
 4996TIP3    H114929   3.997   0.696   4.241
 4996TIP3    H214930   3.845   0.702   4.250
 4997TIP3   OH214931   7.998   5.118   1.112
 4997TIP3    H114932   7.959   5.080   1.191
 4997TIP3    H214933   7.926   5.164   1.069
 4998TIP3   OH214934   2.457   0.348   5.329
 4998TIP3    H114935   2.546   0.317   5.313
 4998TIP3    H214936   2.458   0.380   5.419
 4999TIP3   OH214937   2.557   1.815   3.870
 4999TIP3    H114938   2.544   1.843   3.779
 4999TIP3    H214939   2.612   1.738   3.863
 5000TIP3   OH214940   0.156   6.108   6.178
 5000TIP3    H114941   0.121   6.171   6.241
 5000TIP3    H214942   0.161   6.156   6.096
 5001TIP3   OH214943   8.205   5.972   5.041
 5001TIP3    H114944   8.122   5.991   5.085
 5001TIP3    H214945   8.252   6.055   5.041
 5002TIP3   OH214946   6.441   5.219   4.948
 5002TIP3    H114947   6.495   5.281   4.998
 5002TIP3    H214948   6.499   5.187   4.879
 5003TIP3   OH214949   7.821   7.512   2.194
 5003TIP3    H114950   7.903   7.509   2.144
 5003TIP3    H214951   7.773   7.586   2.157
 5004TIP3   OH214952   3.289   5.707   3.596
 5004TIP3    H114953   3.335   5.770   3.541
 5004TIP3    H214954   3.214   5.755   3.630
 5005TIP3   OH214955   8.115   7.453   0.521
 5005TIP3    H114956   8.135   7.450   0.615
 5005TIP3    H214957   8.186   7.404   0.480
 5006TIP3   OH214958   7.469   1.938   1.135
 5006TIP3    H114959   7.505   1.919   1.221
 5006TIP3    H214960   7.486   2.031   1.120
 5007TIP3   OH214961   6.123   2.724   3.646
 5007TIP3    H114962   6.093   2.634   3.638
 5007TIP3    H214963   6.188   2.721   3.716
 5008TIP3   OH214964   2.145   3.721   2.891
 5008TIP3    H114965   2.157   3.807   2.931
 5008TIP3    H214966   2.071   3.732   2.832
 5009TIP3   OH214967   8.283   6.729   0.171
 5009TIP3    H114968   8.336   6.807   0.181
 5009TIP3    H214969   8.195   6.756   0.195
 5010TIP3   OH214970   6.817   3.701   2.869
 5010TIP3    H114971   6.901   3.657   2.879
 5010TIP3    H214972   6.828   3.756   2.790
 5011TIP3   OH214973   1.982   0.846   2.405
 5011TIP3    H114974   1.997   0.916   2.468
 5011TIP3    H214975   1.999   0.886   2.320
 5012TIP3   OH214976   0.458   6.160   6.317
 5012TIP3    H114977   0.465   6.193   6.228
 5012TIP3    H214978   0.375   6.195   6.350
 5013TIP3   OH214979   1.163   3.276   6.218
 5013TIP3    H114980   1.069   3.289   6.207
 5013TIP3    H214981   1.177   3.185   6.191
 5014TIP3   OH214982   0.660   5.689   1.386
 5014TIP3    H114983   0.572   5.712   1.354
 5014TIP3    H214984   0.716   5.758   1.352
 5015TIP3   OH214985   2.373   5.184   5.110
 5015TIP3    H114986   2.322   5.229   5.043
 5015TIP3    H214987   2.325   5.200   5.191
 5016TIP3   OH214988   8.096   3.918   6.435
 5016TIP3    H114989   8.144   3.836   6.438
 5016TIP3    H214990   8.010   3.894   6.399
 5017TIP3   OH214991   4.558   1.143   6.316
 5017TIP3    H114992   4.621   1.174   6.381
 5017TIP3    H214993   4.497   1.216   6.304
 5018TIP3   OH214994   6.479   2.649   5.683
 5018TIP3    H114995   6.435   2.566   5.666
 5018TIP3    H214996   6.544   2.628   5.750
 5019TIP3   OH214997   7.114   0.053   2.938
 5019TIP3    H114998   7.104   0.145   2.962
 5019TIP3    H214999   7.093   0.050   2.845
 5020TIP3   OH215000   4.225   1.700   1.449
 5020TIP3    H115001   4.192   1.788   1.430
 5020TIP3    H215002   4.148   1.644   1.443
 5021TIP3   OH215003   7.751   1.635   4.504
 5021TIP3    H115004   7.758   1.727   4.526
 5021TIP3    H215005   7.785   1.628   4.415
 5022TIP3   OH215006   3.882   2.072   2.424
 5022TIP3    H115007   3.831   2.152   2.419
 5022TIP3    H215008   3.973   2.102   2.433
 5023TIP3   OH215009   2.790   2.905   2.977
 5023TIP3    H115010   2.732   2.930   2.905
 5023TIP3    H215011   2.744   2.835   3.022
 5024TIP3   OH215012   6.097   5.250   1.139
 5024TIP3    H115013   6.112   5.155   1.145
 5024TIP3    H215014   6.043   5.271   1.215
 5025TIP3   OH215015   0.447   0.253   2.267
 5025TIP3    H115016   0.437   0.345   2.244
 5025TIP3    H215017   0.539   0.233   2.247
 5026TIP3   OH215018   6.458   3.833   3.960
 5026TIP3    H115019   6.504   3.838   4.044
 5026TIP3    H215020   6.414   3.748   3.962
 5027TIP3   OH215021   4.780   6.671   0.358
 5027TIP3    H115022   4.717   6.742   0.350
 5027TIP3    H215023   4.750   6.606   0.293
 5028TIP3   OH215024   6.881   3.858   4.415
 5028TIP3    H115025   6.941   3.794   4.377
 5028TIP3    H215026   6.831   3.809   4.480
 5029TIP3   OH215027   4.203   6.017   5.316
 5029TIP3    H115028   4.255   5.990   5.240
 5029TIP3    H215029   4.216   5.947   5.380
 5030TIP3   OH215030   5.847   7.791   6.889
 5030TIP3    H115031   5.898   7.861   6.850
 5030TIP3    H215032   5.817   7.826   6.973
 5031TIP3   OH215033   2.052   5.976   4.898
 5031TIP3    H115034   2.134   6.018   4.925
 5031TIP3    H215035   2.014   6.035   4.834
 5032TIP3   OH215036   3.562   6.771   5.274
 5032TIP3    H115037   3.551   6.822   5.354
 5032TIP3    H215038   3.507   6.694   5.286
 5033TIP3   OH215039   8.010   3.077   2.192
 5033TIP3    H115040   7.994   3.150   2.251
 5033TIP3    H215041   7.963   3.099   2.112
 5034TIP3   OH215042   4.711   0.294   1.325
 5034TIP3    H115043   4.659   0.367   1.358
 5034TIP3    H215044   4.648   0.223   1.313
 5035TIP3   OH215045   2.010   3.851   0.921
 5035TIP3    H115046   1.949   3.777   0.924
 5035TIP3    H215047   1.954   3.928   0.934
 5036TIP3   OH215048   8.286   5.083   4.987
 5036TIP3    H115049   8.298   5.144   5.060
 5036TIP3    H215050   8.363   5.096   4.931
 5037TIP3   OH215051   4.283   3.852   6.428
 5037TIP3    H115052   4.279   3.907   6.507
 5037TIP3    H215053   4.331   3.905   6.365
 5038TIP3   OH215054   7.996   3.996   1.777
 5038TIP3    H115055   8.052   3.988   1.855
 5038TIP3    H215056   7.918   4.042   1.809
 5039TIP3   OH215057   0.152   2.329   3.366
 5039TIP3    H115058   0.084   2.387   3.331
 5039TIP3    H215059   0.204   2.386   3.423
 5040TIP3   OH215060   0.221   2.219   5.144
 5040TIP3    H115061   0.177   2.204   5.061
 5040TIP3    H215062   0.215   2.313   5.158
 5041TIP3   OH215063   8.148   1.217   1.198
 5041TIP3    H115064   8.212   1.254   1.136
 5041TIP3    H215065   8.192   1.141   1.235
 5042TIP3   OH215066   3.714   0.140   2.081
 5042TIP3    H115067   3.764   0.188   2.146
 5042TIP3    H215068   3.638   0.195   2.063
 5043TIP3   OH215069   7.858   3.053   5.896
 5043TIP3    H115070   7.885   3.014   5.980
 5043TIP3    H215071   7.777   3.007   5.874
 5044TIP3   OH215072   2.008   3.852   0.369
 5044TIP3    H115073   2.012   3.871   0.463
 5044TIP3    H215074   1.931   3.899   0.338
 5045TIP3   OH215075   0.393   2.893   6.527
 5045TIP3    H115076   0.433   2.880   6.441
 5045TIP3    H215077   0.467   2.902   6.587
 5046TIP3   OH215078   6.180   7.039   2.890
 5046TIP3    H115079   6.096   7.001   2.916
 5046TIP3    H215080   6.244   6.998   2.948
 5047TIP3   OH215081   2.317   1.603   1.849
 5047TIP3    H115082   2.302   1.530   1.790
 5047TIP3    H215083   2.359   1.564   1.926
 5048TIP3   OH215084   6.830   6.173   3.743
 5048TIP3    H115085   6.794   6.177   3.655
 5048TIP3    H215086   6.769   6.115   3.791
 5049TIP3   OH215087   2.746   2.665   3.134
 5049TIP3    H115088   2.699   2.582   3.137
 5049TIP3    H215089   2.838   2.640   3.126
 5050TIP3   OH215090   5.844   6.509   4.976
 5050TIP3    H115091   5.853   6.573   4.905
 5050TIP3    H215092   5.927   6.462   4.976
 5051TIP3   OH215093   1.421   3.228   3.522
 5051TIP3    H115094   1.463   3.260   3.442
 5051TIP3    H215095   1.467   3.147   3.542
 5052TIP3   OH215096   1.365   7.588   6.021
 5052TIP3    H115097   1.294   7.555   5.966
 5052TIP3    H215098   1.343   7.558   6.109
 5053TIP3   OH215099   4.669   5.752   1.324
 5053TIP3    H115100   4.674   5.666   1.281
 5053TIP3    H215101   4.750   5.795   1.300
 5054TIP3   OH215102   5.938   1.025   0.721
 5054TIP3    H115103   5.846   1.022   0.749
 5054TIP3    H215104   5.960   0.933   0.704
 5055TIP3   OH215105   1.985   0.228   4.711
 5055TIP3    H115106   1.910   0.278   4.743
 5055TIP3    H215107   2.032   0.201   4.790
 5056TIP3   OH215108   8.466   7.742   2.306
 5056TIP3    H115109   8.415   7.820   2.325
 5056TIP3    H215110   8.441   7.679   2.373
 5057TIP3   OH215111   0.156   2.352   1.069
 5057TIP3    H115112   0.109   2.411   1.128
 5057TIP3    H215113   0.171   2.273   1.121
 5058TIP3   OH215114   4.655   1.442   4.510
 5058TIP3    H115115   4.640   1.412   4.421
 5058TIP3    H215116   4.699   1.368   4.553
 5059TIP3   OH215117   7.069   7.470   5.704
 5059TIP3    H115118   7.051   7.463   5.798
 5059TIP3    H215119   7.094   7.562   5.692
 5060TIP3   OH215120   1.610   1.628   1.685
 5060TIP3    H115121   1.615   1.597   1.776
 5060TIP3    H215122   1.659   1.562   1.636
 5061TIP3   OH215123   2.288   3.824   0.546
 5061TIP3    H115124   2.367   3.877   0.538
 5061TIP3    H215125   2.312   3.753   0.606
 5062TIP3   OH215126   2.775   4.546   6.523
 5062TIP3    H115127   2.774   4.517   6.432
 5062TIP3    H215128   2.867   4.567   6.540
 5063TIP3   OH215129   4.028   6.415   2.474
 5063TIP3    H115130   4.055   6.498   2.434
 5063TIP3    H215131   4.109   6.378   2.509
 5064TIP3   OH215132   4.931   0.239   2.701
 5064TIP3    H115133   4.956   0.148   2.686
 5064TIP3    H215134   4.844   0.246   2.662
 5065TIP3   OH215135   6.793   3.001   2.789
 5065TIP3    H115136   6.708   3.042   2.775
 5065TIP3    H215137   6.797   2.931   2.724
 5066TIP3   OH215138   0.840   0.602   6.360
 5066TIP3    H115139   0.869   0.512   6.345
 5066TIP3    H215140   0.856   0.617   6.453
 5067TIP3   OH215141   5.429   1.706   0.525
 5067TIP3    H115142   5.497   1.643   0.551
 5067TIP3    H215143   5.436   1.776   0.590
 5068TIP3   OH215144   7.827   4.855   0.938
 5068TIP3    H115145   7.745   4.811   0.915
 5068TIP3    H215146   7.819   4.873   1.032
 5069TIP3   OH215147   4.450   2.361   1.131
 5069TIP3    H115148   4.479   2.361   1.040
 5069TIP3    H215149   4.389   2.288   1.137
 5070TIP3   OH215150   4.423   5.525   1.614
 5070TIP3    H115151   4.395   5.612   1.644
 5070TIP3    H215152   4.516   5.535   1.597
 5071TIP3   OH215153   5.290   1.503   3.338
 5071TIP3    H115154   5.324   1.523   3.425
 5071TIP3    H215155   5.208   1.552   3.333
 5072TIP3   OH215156   6.979   4.369   6.810
 5072TIP3    H115157   6.892   4.402   6.833
 5072TIP3    H215158   7.004   4.420   6.732
 5073TIP3   OH215159   3.675   7.809   3.241
 5073TIP3    H115160   3.741   7.780   3.304
 5073TIP3    H215161   3.601   7.838   3.295
 5074TIP3   OH215162   5.493   5.292   5.269
 5074TIP3    H115163   5.420   5.250   5.314
 5074TIP3    H215164   5.563   5.293   5.335
 5075TIP3   OH215165   3.042   3.141   2.389
 5075TIP3    H115166   3.123   3.183   2.359
 5075TIP3    H215167   2.981   3.213   2.401
 5076TIP3   OH215168   5.629   5.292   6.355
 5076TIP3    H115169   5.590   5.231   6.417
 5076TIP3    H215170   5.566   5.299   6.284
 5077TIP3   OH215171   2.434   3.290   0.550
 5077TIP3    H115172   2.447   3.239   0.470
 5077TIP3    H215173   2.341   3.310   0.552
 5078TIP3   OH215174   0.207   0.627   3.566
 5078TIP3    H115175   0.170   0.691   3.505
 5078TIP3    H215176   0.226   0.550   3.513
 5079TIP3   OH215177   5.092   2.894   1.222
 5079TIP3    H115178   5.010   2.848   1.202
 5079TIP3    H215179   5.160   2.827   1.214
 5080TIP3   OH215180   0.746   7.197  -0.001
 5080TIP3    H115181   0.834   7.226  -0.027
 5080TIP3    H215182   0.687   7.241  -0.062
 5081TIP3   OH215183   5.079   2.785   4.492
 5081TIP3    H115184   5.144   2.773   4.560
 5081TIP3    H215185   5.026   2.705   4.495
 5082TIP3   OH215186   5.168   6.251   5.020
 5082TIP3    H115187   5.209   6.299   5.093
 5082TIP3    H215188   5.089   6.213   5.058
 5083TIP3   OH215189   1.542   5.340   3.161
 5083TIP3    H115190   1.609   5.281   3.128
 5083TIP3    H215191   1.488   5.361   3.085
 5084TIP3   OH215192   3.777   5.233   5.777
 5084TIP3    H115193   3.816   5.218   5.691
 5084TIP3    H215194   3.844   5.204   5.839
 5085TIP3   OH215195   2.802   1.106   4.166
 5085TIP3    H115196   2.854   1.078   4.090
 5085TIP3    H215197   2.827   1.045   4.235
 5086TIP3   OH215198   4.670   3.382   2.067
 5086TIP3    H115199   4.731   3.455   2.056
 5086TIP3    H215200   4.677   3.332   1.986
 5087TIP3   OH215201   6.818   5.926   0.202
 5087TIP3    H115202   6.809   6.021   0.202
 5087TIP3    H215203   6.829   5.903   0.294
 5088TIP3   OH215204   2.695   3.762   1.908
 5088TIP3    H115205   2.656   3.688   1.861
 5088TIP3    H215206   2.749   3.806   1.842
 5089TIP3   OH215207   5.042   1.479   0.711
 5089TIP3    H115208   4.999   1.456   0.629
 5089TIP3    H215209   5.136   1.478   0.690
 5090TIP3   OH215210   5.708   6.192   0.866
 5090TIP3    H115211   5.773   6.210   0.934
 5090TIP3    H215212   5.696   6.097   0.869
 5091TIP3   OH215213   7.273   7.016   0.122
 5091TIP3    H115214   7.215   7.092   0.121
 5091TIP3    H215215   7.293   7.000   0.030
 5092TIP3   OH215216   6.925   6.380   4.905
 5092TIP3    H115217   6.928   6.286   4.886
 5092TIP3    H215218   6.919   6.386   5.000
 5093TIP3   OH215219   0.243   2.241   5.868
 5093TIP3    H115220   0.280   2.217   5.953
 5093TIP3    H215221   0.304   2.204   5.804
 5094TIP3   OH215222   1.163   1.522   4.838
 5094TIP3    H115223   1.219   1.449   4.809
 5094TIP3    H215224   1.167   1.519   4.933
 5095TIP3   OH215225   3.870   0.524   5.766
 5095TIP3    H115226   3.884   0.503   5.858
 5095TIP3    H215227   3.783   0.489   5.746
 5096TIP3   OH215228   7.889   0.261   0.032
 5096TIP3    H115229   7.877   0.284   0.124
 5096TIP3    H215230   7.866   0.168   0.027
 5097TIP3   OH215231   7.695   1.630   3.151
 5097TIP3    H115232   7.611   1.622   3.196
 5097TIP3    H215233   7.709   1.546   3.109
 5098TIP3   OH215234   6.045   1.665   1.322
 5098TIP3    H115235   5.998   1.746   1.303
 5098TIP3    H215236   6.134   1.682   1.293
 5099TIP3   OH215237   6.142   3.373   5.691
 5099TIP3    H115238   6.222   3.376   5.745
 5099TIP3    H215239   6.087   3.443   5.726
 5100TIP3   OH215240   0.473   3.541   0.076
 5100TIP3    H115241   0.447   3.469   0.019
 5100TIP3    H215242   0.461   3.508   0.165
 5101TIP3   OH215243   7.707   3.199   5.530
 5101TIP3    H115244   7.656   3.156   5.461
 5101TIP3    H215245   7.679   3.156   5.610
 5102TIP3   OH215246   4.983   2.633   1.422
 5102TIP3    H115247   4.977   2.698   1.492
 5102TIP3    H215248   4.909   2.653   1.365
 5103TIP3   OH215249   3.677   1.836   1.002
 5103TIP3    H115250   3.731   1.872   0.932
 5103TIP3    H215251   3.591   1.876   0.988
 5104TIP3   OH215252   0.962   0.854   3.431
 5104TIP3    H115253   0.894   0.833   3.494
 5104TIP3    H215254   0.926   0.927   3.380
 5105TIP3   OH215255   1.563   7.438   2.973
 5105TIP3    H115256   1.523   7.524   2.982
 5105TIP3    H215257   1.594   7.435   2.883
 5106TIP3   OH215258   5.092   3.234   4.265
 5106TIP3    H115259   5.187   3.222   4.257
 5106TIP3    H215260   5.083   3.308   4.325
 5107TIP3   OH215261   6.013   0.590   1.920
 5107TIP3    H115262   6.047   0.611   2.007
 5107TIP3    H215263   6.064   0.645   1.861
 5108TIP3   OH215264   4.495   4.563   6.602
 5108TIP3    H115265   4.460   4.621   6.534
 5108TIP3    H215266   4.418   4.519   6.638
 5109TIP3   OH215267   6.193   4.616   0.374
 5109TIP3    H115268   6.213   4.545   0.436
 5109TIP3    H215269   6.278   4.653   0.352
 5110TIP3   OH215270   4.981   2.483   4.260
 5110TIP3    H115271   5.076   2.490   4.255
 5110TIP3    H215272   4.963   2.389   4.251
 5111TIP3   OH215273   1.956   7.182   1.838
 5111TIP3    H115274   1.975   7.193   1.745
 5111TIP3    H215275   1.975   7.268   1.877
 5112TIP3   OH215276   5.933   2.653   3.957
 5112TIP3    H115277   5.911   2.591   3.888
 5112TIP3    H215278   5.935   2.738   3.913
 5113TIP3   OH215279   2.848   5.749   5.470
 5113TIP3    H115280   2.778   5.791   5.520
 5113TIP3    H215281   2.857   5.802   5.390
 5114TIP3   OH215282   2.401   4.443   2.770
 5114TIP3    H115283   2.405   4.362   2.719
 5114TIP3    H215284   2.416   4.415   2.860
 5115TIP3   OH215285   1.209   2.992   1.525
 5115TIP3    H115286   1.141   2.958   1.584
 5115TIP3    H215287   1.248   2.914   1.486
 5116TIP3   OH215288   0.429   3.260   1.783
 5116TIP3    H115289   0.407   3.168   1.767
 5116TIP3    H215290   0.423   3.270   1.878
 5117TIP3   OH215291   6.562   0.392   0.023
 5117TIP3    H115292   6.526   0.304   0.035
 5117TIP3    H215293   6.489   0.442  -0.014
 5118TIP3   OH215294   5.003   7.530   6.334
 5118TIP3    H115295   5.056   7.609   6.319
 5118TIP3    H215296   5.057   7.459   6.299
 5119TIP3   OH215297   2.681   7.390   1.278
 5119TIP3    H115298   2.710   7.356   1.193
 5119TIP3    H215299   2.745   7.357   1.340
 5120TIP3   OH215300   3.643   7.483   5.880
 5120TIP3    H115301   3.607   7.500   5.968
 5120TIP3    H215302   3.738   7.495   5.890
 5121TIP3   OH215303   0.481   7.572   4.109
 5121TIP3    H115304   0.445   7.633   4.174
 5121TIP3    H215305   0.541   7.516   4.159
 5122TIP3   OH215306   1.350   1.427   5.928
 5122TIP3    H115307   1.391   1.511   5.948
 5122TIP3    H215308   1.403   1.363   5.976
 5123TIP3   OH215309   0.652   1.358   6.454
 5123TIP3    H115310   0.724   1.394   6.403
 5123TIP3    H215311   0.688   1.348   6.542
 5124TIP3   OH215312   6.266   6.389   6.154
 5124TIP3    H115313   6.305   6.474   6.171
 5124TIP3    H215314   6.235   6.394   6.064
 5125TIP3   OH215315   3.315   2.773   0.279
 5125TIP3    H115316   3.272   2.710   0.221
 5125TIP3    H215317   3.340   2.846   0.223
 5126TIP3   OH215318   6.612   4.381   2.232
 5126TIP3    H115319   6.635   4.435   2.308
 5126TIP3    H215320   6.646   4.294   2.254
 5127TIP3   OH215321   0.743   2.741   1.865
 5127TIP3    H115322   0.786   2.822   1.837
 5127TIP3    H215323   0.653   2.767   1.886
 5128TIP3   OH215324   5.237   6.862   2.264
 5128TIP3    H115325   5.332   6.852   2.263
 5128TIP3    H215326   5.211   6.854   2.172
 5129TIP3   OH215327   5.961   5.314   2.631
 5129TIP3    H115328   5.962   5.315   2.727
 5129TIP3    H215329   6.046   5.348   2.606
 5130TIP3   OH215330   3.545   3.847   3.393
 5130TIP3    H115331   3.497   3.902   3.455
 5130TIP3    H215332   3.624   3.821   3.440
 5131TIP3   OH215333   1.107   4.246   5.769
 5131TIP3    H115334   1.062   4.169   5.803
 5131TIP3    H215335   1.074   4.255   5.680
 5132TIP3   OH215336   2.985   3.276   1.311
 5132TIP3    H115337   2.970   3.231   1.395
 5132TIP3    H215338   3.008   3.365   1.335
 5133TIP3   OH215339   2.012   6.930   6.411
 5133TIP3    H115340   1.975   6.890   6.490
 5133TIP3    H215341   2.021   7.023   6.433
 5134TIP3   OH215342   1.581   1.724   6.223
 5134TIP3    H115343   1.630   1.651   6.261
 5134TIP3    H215344   1.630   1.802   6.250
 5135TIP3   OH215345   3.434   6.241   1.436
 5135TIP3    H115346   3.512   6.265   1.486
 5135TIP3    H215347   3.365   6.299   1.469
 5136TIP3   OH215348   7.660   1.681   2.013
 5136TIP3    H115349   7.676   1.596   2.055
 5136TIP3    H215350   7.574   1.672   1.973
 5137TIP3   OH215351   5.918   2.531   1.108
 5137TIP3    H115352   5.917   2.447   1.155
 5137TIP3    H215353   5.894   2.508   1.019
 5138TIP3   OH215354   7.628   2.302   6.626
 5138TIP3    H115355   7.564   2.254   6.679
 5138TIP3    H215356   7.711   2.260   6.647
 5139TIP3   OH215357   6.321   1.452   6.746
 5139TIP3    H115358   6.397   1.479   6.695
 5139TIP3    H215359   6.338   1.483   6.834
 5140TIP3   OH215360   2.727   2.993   1.237
 5140TIP3    H115361   2.756   2.965   1.150
 5140TIP3    H215362   2.639   3.029   1.222
 5141TIP3   OH215363   1.059   1.212   2.065
 5141TIP3    H115364   0.993   1.277   2.043
 5141TIP3    H215365   1.143   1.256   2.050
 5142TIP3   OH215366   0.626   4.835   5.236
 5142TIP3    H115367   0.666   4.861   5.319
 5142TIP3    H215368   0.553   4.895   5.225
 5143TIP3   OH215369   7.999   1.651   1.784
 5143TIP3    H115370   8.025   1.604   1.862
 5143TIP3    H215371   7.933   1.595   1.743
 5144TIP3   OH215372   8.410   3.273   4.996
 5144TIP3    H115373   8.426   3.297   5.087
 5144TIP3    H215374   8.356   3.345   4.962
 5145TIP3   OH215375   0.640   3.574   6.044
 5145TIP3    H115376   0.670   3.609   5.960
 5145TIP3    H215377   0.720   3.564   6.096
 5146TIP3   OH215378   3.464   0.282   3.764
 5146TIP3    H115379   3.491   0.271   3.855
 5146TIP3    H215380   3.415   0.202   3.743
 5147TIP3   OH215381   7.393   2.172   4.706
 5147TIP3    H115382   7.446   2.249   4.689
 5147TIP3    H215383   7.309   2.190   4.662
 5148TIP3   OH215384   4.988   5.699   0.898
 5148TIP3    H115385   5.022   5.711   0.809
 5148TIP3    H215386   4.894   5.714   0.890
 5149TIP3   OH215387   1.026   2.673   2.499
 5149TIP3    H115388   1.064   2.626   2.424
 5149TIP3    H215389   0.933   2.678   2.479
 5150TIP3   OH215390   5.229   3.996   0.551
 5150TIP3    H115391   5.136   4.010   0.567
 5150TIP3    H215392   5.241   3.902   0.558
 5151TIP3   OH215393   4.152   5.715   6.422
 5151TIP3    H115394   4.120   5.633   6.384
 5151TIP3    H215395   4.233   5.691   6.467
 5152TIP3   OH215396   0.631   6.468   5.868
 5152TIP3    H115397   0.644   6.502   5.779
 5152TIP3    H215398   0.586   6.384   5.855
 5153TIP3   OH215399   4.101   4.936   3.643
 5153TIP3    H115400   4.174   4.980   3.598
 5153TIP3    H215401   4.023   4.972   3.601
 5154TIP3   OH215402   2.106   7.143   4.207
 5154TIP3    H115403   2.061   7.058   4.207
 5154TIP3    H215404   2.121   7.161   4.300
 5155TIP3   OH215405   2.236   0.603   4.892
 5155TIP3    H115406   2.143   0.583   4.905
 5155TIP3    H215407   2.281   0.562   4.965
 5156TIP3   OH215408   6.814   0.199   2.906
 5156TIP3    H115409   6.797   0.171   2.996
 5156TIP3    H215410   6.865   0.127   2.868
 5157TIP3   OH215411   7.087   7.824   0.570
 5157TIP3    H115412   7.017   7.878   0.534
 5157TIP3    H215413   7.096   7.851   0.661
 5158TIP3   OH215414   1.303   4.645   0.258
 5158TIP3    H115415   1.222   4.667   0.303
 5158TIP3    H215416   1.337   4.729   0.227
 5159TIP3   OH215417   3.443   0.266   5.419
 5159TIP3    H115418   3.368   0.306   5.375
 5159TIP3    H215419   3.464   0.189   5.365
 5160TIP3   OH215420   4.062   3.266   0.532
 5160TIP3    H115421   4.033   3.248   0.621
 5160TIP3    H215422   4.158   3.261   0.536
 5161TIP3   OH215423   6.517   1.135   2.222
 5161TIP3    H115424   6.557   1.071   2.163
 5161TIP3    H215425   6.578   1.210   2.220
 5162TIP3   OH215426   4.875   0.210   4.676
 5162TIP3    H115427   4.894   0.213   4.583
 5162TIP3    H215428   4.941   0.265   4.717
 5163TIP3   OH215429   2.769   6.291   2.533
 5163TIP3    H115430   2.784   6.203   2.568
 5163TIP3    H215431   2.805   6.349   2.600
 5164TIP3   OH215432   8.400   2.890   4.633
 5164TIP3    H115433   8.440   2.955   4.690
 5164TIP3    H215434   8.329   2.937   4.589
 5165TIP3   OH215435   7.240   0.418   5.176
 5165TIP3    H115436   7.247   0.338   5.123
 5165TIP3    H215437   7.216   0.486   5.113
 5166TIP3   OH215438   1.585   0.179   1.781
 5166TIP3    H115439   1.498   0.166   1.742
 5166TIP3    H215440   1.569   0.182   1.875
 5167TIP3   OH215441   6.877   7.426   6.596
 5167TIP3    H115442   6.904   7.336   6.579
 5167TIP3    H215443   6.944   7.480   6.553
 5168TIP3   OH215444   6.727   4.329   3.984
 5168TIP3    H115445   6.676   4.342   4.064
 5168TIP3    H215446   6.679   4.260   3.937
 5169TIP3   OH215447   2.460   7.258   0.815
 5169TIP3    H115448   2.521   7.211   0.871
 5169TIP3    H215449   2.513   7.287   0.740
 5170TIP3   OH215450   7.347   4.258   5.908
 5170TIP3    H115451   7.396   4.177   5.926
 5170TIP3    H215452   7.415   4.322   5.885
 5171TIP3   OH215453   6.510   1.850   4.182
 5171TIP3    H115454   6.426   1.894   4.193
 5171TIP3    H215455   6.560   1.874   4.260
 5172TIP3   OH215456   1.145   3.343   4.653
 5172TIP3    H115457   1.125   3.325   4.745
 5172TIP3    H215458   1.184   3.261   4.621
 5173TIP3   OH215459   2.146   6.873   1.447
 5173TIP3    H115460   2.209   6.860   1.377
 5173TIP3    H215461   2.184   6.942   1.501
 5174TIP3   OH215462   3.093   6.423   4.236
 5174TIP3    H115463   3.090   6.519   4.244
 5174TIP3    H215464   3.165   6.397   4.293
 5175TIP3   OH215465   1.262   1.148   5.889
 5175TIP3    H115466   1.269   1.101   5.807
 5175TIP3    H215467   1.270   1.241   5.865
 5176TIP3   OH215468   8.124   3.398   4.705
 5176TIP3    H115469   8.179   3.429   4.777
 5176TIP3    H215470   8.055   3.348   4.749
 5177TIP3   OH215471   6.758   2.972   6.818
 5177TIP3    H115472   6.675   3.004   6.854
 5177TIP3    H215473   6.808   3.052   6.798
 5178TIP3   OH215474   1.007   0.990   0.841
 5178TIP3    H115475   1.043   0.925   0.780
 5178TIP3    H215476   1.018   1.074   0.796
 5179TIP3   OH215477   5.715   2.971   0.620
 5179TIP3    H115478   5.720   2.933   0.533
 5179TIP3    H215479   5.760   3.055   0.612
 5180TIP3   OH215480   7.519   2.923   4.426
 5180TIP3    H115481   7.466   2.922   4.506
 5180TIP3    H215482   7.552   2.834   4.418
 5181TIP3   OH215483   2.224   2.918   0.633
 5181TIP3    H115484   2.139   2.949   0.604
 5181TIP3    H215485   2.282   2.931   0.558
 5182TIP3   OH215486   1.485   0.206   0.168
 5182TIP3    H115487   1.459   0.159   0.247
 5182TIP3    H215488   1.416   0.187   0.104
 5183TIP3   OH215489   2.044   2.719   5.734
 5183TIP3    H115490   2.064   2.668   5.655
 5183TIP3    H215491   2.088   2.673   5.805
 5184TIP3   OH215492   5.517   1.082   3.771
 5184TIP3    H115493   5.570   1.009   3.740
 5184TIP3    H215494   5.556   1.159   3.730
 5185TIP3   OH215495   5.968   3.788   1.776
 5185TIP3    H115496   6.035   3.786   1.845
 5185TIP3    H215497   5.975   3.875   1.738
 5186TIP3   OH215498   0.318   7.158   2.040
 5186TIP3    H115499   0.402   7.173   2.084
 5186TIP3    H215500   0.276   7.244   2.039
 5187TIP3   OH215501   6.457   7.295   2.449
 5187TIP3    H115502   6.439   7.383   2.416
 5187TIP3    H215503   6.552   7.293   2.460
 5188TIP3   OH215504   5.145   0.429   5.246
 5188TIP3    H115505   5.160   0.494   5.314
 5188TIP3    H215506   5.218   0.440   5.186
 5189TIP3   OH215507   4.352   5.752   1.731
 5189TIP3    H115508   4.313   5.733   1.817
 5189TIP3    H215509   4.380   5.843   1.738
 5190TIP3   OH215510   6.540   2.398   1.356
 5190TIP3    H115511   6.465   2.413   1.298
 5190TIP3    H215512   6.613   2.383   1.296
 5191TIP3   OH215513   2.908   0.032   6.509
 5191TIP3    H115514   2.867   0.049   6.594
 5191TIP3    H215515   2.986   0.088   6.510
 5192TIP3   OH215516   5.466   4.888   6.550
 5192TIP3    H115517   5.503   4.911   6.636
 5192TIP3    H215518   5.451   4.793   6.556
 5193TIP3   OH215519   8.240   6.464   4.162
 5193TIP3    H115520   8.293   6.503   4.093
 5193TIP3    H215521   8.149   6.480   4.136
 5194TIP3   OH215522   2.833   3.865   5.722
 5194TIP3    H115523   2.786   3.823   5.795
 5194TIP3    H215524   2.854   3.952   5.755
 5195TIP3   OH215525   0.347   5.468   1.442
 5195TIP3    H115526   0.280   5.489   1.507
 5195TIP3    H215527   0.392   5.550   1.426
 5196TIP3   OH215528   0.208   0.882   1.225
 5196TIP3    H115529   0.121   0.848   1.247
 5196TIP3    H215530   0.211   0.878   1.129
 5197TIP3   OH215531   3.077   3.012   0.714
 5197TIP3    H115532   2.995   3.056   0.691
 5197TIP3    H215533   3.085   3.026   0.809
 5198TIP3   OH215534   3.845   6.123   2.271
 5198TIP3    H115535   3.905   6.184   2.229
 5198TIP3    H215536   3.808   6.072   2.199
 5199TIP3   OH215537   0.957   0.356   1.970
 5199TIP3    H115538   0.869   0.318   1.965
 5199TIP3    H215539   1.011   0.288   2.009
 5200TIP3   OH215540   3.615   3.791   2.591
 5200TIP3    H115541   3.537   3.837   2.559
 5200TIP3    H215542   3.585   3.701   2.605
 5201TIP3   OH215543   7.495   1.790   4.950
 5201TIP3    H115544   7.512   1.868   5.002
 5201TIP3    H215545   7.434   1.820   4.882
 5202TIP3   OH215546   6.187   2.851   5.510
 5202TIP3    H115547   6.264   2.845   5.454
 5202TIP3    H215548   6.161   2.943   5.507
 5203TIP3   OH215549   3.753   6.445   6.139
 5203TIP3    H115550   3.808   6.367   6.134
 5203TIP3    H215551   3.777   6.486   6.222
 5204TIP3   OH215552   2.690   3.933   2.439
 5204TIP3    H115553   2.693   3.893   2.352
 5204TIP3    H215554   2.775   3.975   2.449
 5205TIP3   OH215555   6.873   2.581   0.056
 5205TIP3    H115556   6.925   2.543   0.127
 5205TIP3    H215557   6.893   2.527  -0.021
 5206TIP3   OH215558   0.895   4.751   6.183
 5206TIP3    H115559   0.928   4.687   6.245
 5206TIP3    H215560   0.804   4.725   6.168
 5207TIP3   OH215561   3.161   4.222   5.730
 5207TIP3    H115562   3.135   4.312   5.749
 5207TIP3    H215563   3.203   4.191   5.810
 5208TIP3   OH215564   7.518   4.783   4.776
 5208TIP3    H115565   7.498   4.720   4.846
 5208TIP3    H215566   7.558   4.857   4.821
 5209TIP3   OH215567   4.003   0.885   0.720
 5209TIP3    H115568   4.057   0.954   0.684
 5209TIP3    H215569   4.019   0.809   0.664
 5210TIP3   OH215570   2.529   2.451   2.819
 5210TIP3    H115571   2.616   2.431   2.852
 5210TIP3    H215572   2.545   2.496   2.736
 5211TIP3   OH215573   7.785   5.456   4.068
 5211TIP3    H115574   7.750   5.532   4.021
 5211TIP3    H215575   7.709   5.403   4.088
 5212TIP3   OH215576   4.543   0.859   4.348
 5212TIP3    H115577   4.536   0.790   4.281
 5212TIP3    H215578   4.621   0.909   4.323
 5213TIP3   OH215579   5.804   6.721   5.150
 5213TIP3    H115580   5.800   6.640   5.099
 5213TIP3    H215581   5.874   6.706   5.214
 5214TIP3   OH215582   6.850   0.627   5.340
 5214TIP3    H115583   6.893   0.708   5.313
 5214TIP3    H215584   6.809   0.647   5.424
 5215TIP3   OH215585   2.048   7.750   0.022
 5215TIP3    H115586   2.022   7.800   0.099
 5215TIP3    H215587   1.968   7.707  -0.008
 5216TIP3   OH215588   4.990   0.830   3.776
 5216TIP3    H115589   4.974   0.768   3.705
 5216TIP3    H215590   5.028   0.777   3.846
 5217TIP3   OH215591   4.437   6.548   6.005
 5217TIP3    H115592   4.477   6.537   6.091
 5217TIP3    H215593   4.504   6.519   5.944
 5218TIP3   OH215594   4.363   5.086   3.655
 5218TIP3    H115595   4.433   5.056   3.714
 5218TIP3    H215596   4.396   5.067   3.567
 5219TIP3   OH215597   3.144   2.949   4.513
 5219TIP3    H115598   3.113   2.986   4.431
 5219TIP3    H215599   3.106   2.861   4.516
 5220TIP3   OH215600   5.532   6.821   5.121
 5220TIP3    H115601   5.619   6.784   5.106
 5220TIP3    H215602   5.548   6.907   5.158
 5221TIP3   OH215603   4.589   1.582   6.478
 5221TIP3    H115604   4.599   1.659   6.534
 5221TIP3    H215605   4.494   1.569   6.471
 5222TIP3   OH215606   4.046   7.846   0.782
 5222TIP3    H115607   4.072   7.884   0.698
 5222TIP3    H215608   4.075   7.911   0.847
 5223TIP3   OH215609   7.544   3.343   2.366
 5223TIP3    H115610   7.584   3.271   2.319
 5223TIP3    H215611   7.478   3.302   2.422
 5224TIP3   OH215612   0.139   1.281   5.883
 5224TIP3    H115613   0.138   1.203   5.938
 5224TIP3    H215614   0.214   1.332   5.913
 5225TIP3   OH215615   6.686   7.129   3.224
 5225TIP3    H115616   6.603   7.128   3.177
 5225TIP3    H215617   6.736   7.200   3.184
 5226TIP3   OH215618   4.882   2.162   1.640
 5226TIP3    H115619   4.796   2.124   1.660
 5226TIP3    H215620   4.880   2.176   1.545
 5227TIP3   OH215621   4.992   7.238   1.797
 5227TIP3    H115622   4.976   7.293   1.874
 5227TIP3    H215623   5.079   7.201   1.812
 5228TIP3   OH215624   5.358   3.197   6.083
 5228TIP3    H115625   5.398   3.117   6.118
 5228TIP3    H215626   5.420   3.227   6.017
 5229TIP3   OH215627   3.156   4.826   4.742
 5229TIP3    H115628   3.192   4.802   4.827
 5229TIP3    H215629   3.095   4.755   4.722
 5230TIP3   OH215630   6.203   1.276   4.372
 5230TIP3    H115631   6.173   1.228   4.449
 5230TIP3    H215632   6.196   1.213   4.300
 5231TIP3   OH215633   7.923   7.028   1.356
 5231TIP3    H115634   8.004   6.978   1.340
 5231TIP3    H215635   7.953   7.107   1.400
 5232TIP3   OH215636   4.424   6.294   0.583
 5232TIP3    H115637   4.339   6.262   0.553
 5232TIP3    H215638   4.488   6.234   0.543
 5233TIP3   OH215639   6.218   2.547   4.955
 5233TIP3    H115640   6.197   2.454   4.969
 5233TIP3    H215641   6.233   2.554   4.861
 5234TIP3   OH215642   4.191   3.586   0.731
 5234TIP3    H115643   4.185   3.498   0.768
 5234TIP3    H215644   4.105   3.602   0.693
 5235TIP3   OH215645   3.769   1.835   6.669
 5235TIP3    H115646   3.796   1.744   6.658
 5235TIP3    H215647   3.711   1.853   6.595
 5236TIP3   OH215648   1.873   7.695   1.489
 5236TIP3    H115649   1.933   7.631   1.451
 5236TIP3    H215650   1.929   7.759   1.533
 5237TIP3   OH215651   4.408   1.158   1.504
 5237TIP3    H115652   4.485   1.119   1.547
 5237TIP3    H215653   4.411   1.125   1.415
 5238TIP3   OH215654   1.013   2.391   0.530
 5238TIP3    H115655   0.968   2.328   0.473
 5238TIP3    H215656   1.051   2.455   0.470
 5239TIP3   OH215657   7.792   1.274   1.059
 5239TIP3    H115658   7.722   1.275   0.994
 5239TIP3    H215659   7.778   1.353   1.111
 5240TIP3   OH215660   2.272   4.855   4.588
 5240TIP3    H115661   2.323   4.870   4.509
 5240TIP3    H215662   2.266   4.941   4.630
 5241TIP3   OH215663   4.450   0.475   3.770
 5241TIP3    H115664   4.435   0.505   3.860
 5241TIP3    H215665   4.383   0.518   3.719
 5242TIP3   OH215666   3.017   1.899   4.496
 5242TIP3    H115667   2.942   1.850   4.529
 5242TIP3    H215668   3.071   1.915   4.573
 5243TIP3   OH215669   4.539   4.363   0.827
 5243TIP3    H115670   4.445   4.376   0.811
 5243TIP3    H215671   4.546   4.272   0.856
 5244TIP3   OH215672   7.009   7.530   4.850
 5244TIP3    H115673   6.978   7.620   4.861
 5244TIP3    H215674   7.101   7.534   4.875
 5245TIP3   OH215675   5.852   1.536   6.613
 5245TIP3    H115676   5.867   1.505   6.702
 5245TIP3    H215677   5.759   1.557   6.610
 5246TIP3   OH215678   1.526   7.771   4.464
 5246TIP3    H115679   1.610   7.788   4.505
 5246TIP3    H215680   1.485   7.705   4.520
 5247TIP3   OH215681   3.167   6.589   3.684
 5247TIP3    H115682   3.088   6.641   3.673
 5247TIP3    H215683   3.229   6.649   3.727
 5248TIP3   OH215684   2.843   6.801   2.776
 5248TIP3    H115685   2.818   6.739   2.844
 5248TIP3    H215686   2.795   6.772   2.698
 5249TIP3   OH215687   6.665   2.497   0.681
 5249TIP3    H115688   6.653   2.403   0.690
 5249TIP3    H215689   6.755   2.513   0.707
 5250TIP3   OH215690   4.417   7.637   3.858
 5250TIP3    H115691   4.471   7.583   3.800
 5250TIP3    H215692   4.441   7.607   3.946
 5251TIP3   OH215693   7.739   0.653   3.328
 5251TIP3    H115694   7.661   0.598   3.328
 5251TIP3    H215695   7.733   0.704   3.408
 5252TIP3   OH215696   8.124   0.920   1.178
 5252TIP3    H115697   8.065   0.995   1.165
 5252TIP3    H215698   8.071   0.844   1.153
 5253TIP3   OH215699   2.560   3.740   4.304
 5253TIP3    H115700   2.594   3.771   4.220
 5253TIP3    H215701   2.597   3.652   4.314
 5254TIP3   OH215702   6.242   2.520   6.818
 5254TIP3    H115703   6.331   2.494   6.841
 5254TIP3    H215704   6.203   2.440   6.781
 5255TIP3   OH215705   2.572   0.147   0.067
 5255TIP3    H115706   2.503   0.213   0.062
 5255TIP3    H215707   2.553   0.087  -0.005
 5256TIP3   OH215708   8.167   6.765   6.634
 5256TIP3    H115709   8.097   6.703   6.615
 5256TIP3    H215710   8.125   6.851   6.627
 5257TIP3   OH215711   0.118   1.485   0.515
 5257TIP3    H115712   0.037   1.537   0.518
 5257TIP3    H215713   0.177   1.529   0.576
 5258TIP3   OH215714   2.439   5.663   6.469
 5258TIP3    H115715   2.419   5.745   6.515
 5258TIP3    H215716   2.507   5.687   6.406
 5259TIP3   OH215717   7.972   6.599   5.929
 5259TIP3    H115718   7.996   6.527   5.987
 5259TIP3    H215719   7.925   6.661   5.987
 5260TIP3   OH215720   2.101   4.859   5.140
 5260TIP3    H115721   2.186   4.819   5.121
 5260TIP3    H215722   2.056   4.793   5.193
 5261TIP3   OH215723   3.935   1.162   0.300
 5261TIP3    H115724   3.877   1.089   0.322
 5261TIP3    H215725   3.885   1.213   0.236
 5262TIP3   OH215726   5.938   4.666   5.831
 5262TIP3    H115727   5.998   4.649   5.759
 5262TIP3    H215728   5.967   4.749   5.867
 5263TIP3   OH215729   2.999   2.048   0.646
 5263TIP3    H115730   2.958   1.969   0.610
 5263TIP3    H215731   3.038   2.019   0.729
 5264TIP3   OH215732   7.074   6.809   4.493
 5264TIP3    H115733   6.981   6.785   4.498
 5264TIP3    H215734   7.110   6.750   4.427
 5265TIP3   OH215735   5.733   5.855   4.005
 5265TIP3    H115736   5.695   5.923   4.061
 5265TIP3    H215737   5.682   5.777   4.024
 5266TIP3   OH215738   4.306   1.025   0.926
 5266TIP3    H115739   4.360   0.958   0.883
 5266TIP3    H215740   4.233   1.040   0.865
 5267TIP3   OH215741   1.334   4.992   0.639
 5267TIP3    H115742   1.343   5.061   0.705
 5267TIP3    H215743   1.423   4.963   0.622
 5268TIP3   OH215744   0.845   2.474   2.101
 5268TIP3    H115745   0.771   2.532   2.121
 5268TIP3    H215746   0.859   2.425   2.182
 5269TIP3   OH215747   6.446   7.619   5.036
 5269TIP3    H115748   6.420   7.682   5.102
 5269TIP3    H215749   6.383   7.630   4.965
 5270TIP3   OH215750   7.941   6.148   5.090
 5270TIP3    H115751   7.903   6.086   5.029
 5270TIP3    H215752   7.938   6.104   5.175
 5271TIP3   OH215753   0.820   6.206   1.642
 5271TIP3    H115754   0.846   6.291   1.608
 5271TIP3    H215755   0.900   6.154   1.640
 5272TIP3   OH215756   6.242   5.562   1.704
 5272TIP3    H115757   6.315   5.617   1.674
 5272TIP3    H215758   6.191   5.544   1.625
 5273TIP3   OH215759   8.073   2.938   4.557
 5273TIP3    H115760   8.130   3.014   4.561
 5273TIP3    H215761   8.084   2.895   4.642
 5274TIP3   OH215762   3.064   5.424   3.006
 5274TIP3    H115763   3.094   5.491   3.067
 5274TIP3    H215764   2.981   5.393   3.043
 5275TIP3   OH215765   1.666   0.978   1.659
 5275TIP3    H115766   1.664   0.890   1.621
 5275TIP3    H215767   1.576   1.009   1.652
 5276TIP3   OH215768   3.085   4.408   4.616
 5276TIP3    H115769   3.038   4.329   4.590
 5276TIP3    H215770   3.066   4.471   4.547
 5277TIP3   OH215771   4.886   2.600   4.494
 5277TIP3    H115772   4.904   2.584   4.401
 5277TIP3    H215773   4.879   2.512   4.532
 5278TIP3   OH215774   7.708   1.906   3.247
 5278TIP3    H115775   7.707   1.918   3.152
 5278TIP3    H215776   7.754   1.822   3.259
 5279TIP3   OH215777   5.229   3.660   1.697
 5279TIP3    H115778   5.309   3.710   1.714
 5279TIP3    H215779   5.217   3.607   1.776
 5280TIP3   OH215780   6.524   5.153   0.347
 5280TIP3    H115781   6.499   5.235   0.304
 5280TIP3    H215782   6.444   5.125   0.393
 5281TIP3   OH215783   7.830   5.797   6.442
 5281TIP3    H115784   7.871   5.884   6.444
 5281TIP3    H215785   7.746   5.809   6.488
 5282TIP3   OH215786   5.174   4.999   3.024
 5282TIP3    H115787   5.230   4.932   3.063
 5282TIP3    H215788   5.197   4.999   2.931
 5283TIP3   OH215789   6.500   4.121   0.944
 5283TIP3    H115790   6.410   4.152   0.956
 5283TIP3    H215791   6.553   4.181   0.995
 5284TIP3   OH215792   1.914   7.774   2.784
 5284TIP3    H115793   1.912   7.678   2.778
 5284TIP3    H215794   1.826   7.799   2.812
 5285TIP3   OH215795   7.016   1.964   3.864
 5285TIP3    H115796   7.062   1.951   3.781
 5285TIP3    H215797   7.031   1.884   3.913
 5286TIP3   OH215798   1.569   3.715   2.290
 5286TIP3    H115799   1.561   3.638   2.234
 5286TIP3    H215800   1.621   3.777   2.238
 5287TIP3   OH215801   7.758   4.247   3.649
 5287TIP3    H115802   7.722   4.173   3.600
 5287TIP3    H215803   7.833   4.211   3.697
 5288TIP3   OH215804   6.336   2.471   1.569
 5288TIP3    H115805   6.336   2.544   1.506
 5288TIP3    H215806   6.278   2.406   1.530
 5289TIP3   OH215807   6.603   3.099   5.431
 5289TIP3    H115808   6.630   3.023   5.483
 5289TIP3    H215809   6.685   3.143   5.410
 5290TIP3   OH215810   4.599   1.252   5.495
 5290TIP3    H115811   4.509   1.225   5.512
 5290TIP3    H215812   4.652   1.181   5.529
 5291TIP3   OH215813   0.525   2.289   5.132
 5291TIP3    H115814   0.448   2.233   5.130
 5291TIP3    H215815   0.586   2.249   5.070
 5292TIP3   OH215816   6.438   7.366   1.330
 5292TIP3    H115817   6.438   7.457   1.299
 5292TIP3    H215818   6.513   7.361   1.390
 5293TIP3   OH215819   8.023   3.225   0.943
 5293TIP3    H115820   8.099   3.281   0.961
 5293TIP3    H215821   8.049   3.172   0.868
 5294TIP3   OH215822   1.921   0.540   2.519
 5294TIP3    H115823   1.857   0.607   2.545
 5294TIP3    H215824   2.006   0.578   2.542
 5295TIP3   OH215825   7.050   7.580   6.451
 5295TIP3    H115826   7.102   7.660   6.446
 5295TIP3    H215827   7.115   7.510   6.459
 5296TIP3   OH215828   2.484   4.190   1.028
 5296TIP3    H115829   2.404   4.138   1.019
 5296TIP3    H215830   2.456   4.280   1.010
 5297TIP3   OH215831   4.989   0.720   6.319
 5297TIP3    H115832   4.993   0.790   6.384
 5297TIP3    H215833   4.959   0.764   6.239
 5298TIP3   OH215834   3.496   0.974   4.330
 5298TIP3    H115835   3.451   1.048   4.288
 5298TIP3    H215836   3.532   1.011   4.411
 5299TIP3   OH215837   3.660   3.290   5.395
 5299TIP3    H115838   3.610   3.284   5.477
 5299TIP3    H215839   3.638   3.377   5.361
 5300TIP3   OH215840   6.524   0.117   1.088
 5300TIP3    H115841   6.597   0.064   1.118
 5300TIP3    H215842   6.519   0.101   0.994
 5301TIP3   OH215843   2.935   6.285   4.552
 5301TIP3    H115844   2.908   6.197   4.580
 5301TIP3    H215845   2.853   6.328   4.528
 5302TIP3   OH215846   5.347   2.926   3.031
 5302TIP3    H115847   5.397   2.895   3.107
 5302TIP3    H215848   5.407   2.919   2.958
 5303TIP3   OH215849   0.742   5.480   3.873
 5303TIP3    H115850   0.688   5.407   3.842
 5303TIP3    H215851   0.683   5.555   3.871
 5304TIP3   OH215852   2.493   6.346   5.180
 5304TIP3    H115853   2.437   6.345   5.103
 5304TIP3    H215854   2.445   6.396   5.245
 5305TIP3   OH215855   6.828   6.859   3.657
 5305TIP3    H115856   6.776   6.807   3.595
 5305TIP3    H215857   6.905   6.805   3.674
 5306TIP3   OH215858   2.828   6.476   4.165
 5306TIP3    H115859   2.899   6.422   4.200
 5306TIP3    H215860   2.788   6.421   4.098
 5307TIP3   OH215861   6.633   0.607   1.355
 5307TIP3    H115862   6.586   0.538   1.308
 5307TIP3    H215863   6.603   0.599   1.445
 5308TIP3   OH215864   5.497   7.544   0.837
 5308TIP3    H115865   5.539   7.539   0.751
 5308TIP3    H215866   5.560   7.505   0.897
 5309TIP3   OH215867   5.601   1.942   2.374
 5309TIP3    H115868   5.683   1.990   2.389
 5309TIP3    H215869   5.585   1.897   2.457
 5310TIP3   OH215870   3.295   4.985   0.427
 5310TIP3    H115871   3.247   4.912   0.468
 5310TIP3    H215872   3.339   4.945   0.352
 5311TIP3   OH215873   5.333   0.767   0.023
 5311TIP3    H115874   5.415   0.791   0.066
 5311TIP3    H215875   5.349   0.783  -0.070
 5312TIP3   OH215876   5.032   4.087   2.135
 5312TIP3    H115877   5.005   4.179   2.131
 5312TIP3    H215878   4.960   4.040   2.093
 5313TIP3   OH215879   5.473   0.294   0.369
 5313TIP3    H115880   5.492   0.222   0.310
 5313TIP3    H215881   5.486   0.257   0.457
 5314TIP3   OH215882   2.857   3.968   6.120
 5314TIP3    H115883   2.913   3.990   6.195
 5314TIP3    H215884   2.919   3.948   6.050
 5315TIP3   OH215885   2.649   6.530   6.571
 5315TIP3    H115886   2.688   6.506   6.654
 5315TIP3    H215887   2.598   6.454   6.545
 5316TIP3   OH215888   1.009   1.619   4.403
 5316TIP3    H115889   1.048   1.611   4.316
 5316TIP3    H215890   0.982   1.711   4.409
 5317TIP3   OH215891   5.967   3.324   2.519
 5317TIP3    H115892   6.016   3.321   2.601
 5317TIP3    H215893   6.010   3.259   2.463
 5318TIP3   OH215894   7.035   7.247   6.849
 5318TIP3    H115895   6.955   7.214   6.891
 5318TIP3    H215896   7.006   7.323   6.798
 5319TIP3   OH215897   0.997   6.874   0.973
 5319TIP3    H115898   1.069   6.820   0.941
 5319TIP3    H215899   0.960   6.914   0.894
 5320TIP3   OH215900   6.663   5.832   6.548
 5320TIP3    H115901   6.574   5.798   6.554
 5320TIP3    H215902   6.682   5.831   6.454
 5321TIP3   OH215903   6.416   0.799   4.315
 5321TIP3    H115904   6.350   0.807   4.384
 5321TIP3    H215905   6.438   0.706   4.313
 5322TIP3   OH215906   7.930   0.995   3.593
 5322TIP3    H115907   7.894   1.052   3.525
 5322TIP3    H215908   8.020   0.979   3.567
 5323TIP3   OH215909   0.332   6.353   1.239
 5323TIP3    H115910   0.403   6.355   1.302
 5323TIP3    H215911   0.254   6.335   1.291
 5324TIP3   OH215912   5.578   6.000   6.814
 5324TIP3    H115913   5.527   5.921   6.829
 5324TIP3    H215914   5.620   5.986   6.729
 5325TIP3   OH215915   2.347   0.839   3.720
 5325TIP3    H115916   2.351   0.811   3.812
 5325TIP3    H215917   2.301   0.768   3.676
 5326TIP3   OH215918   6.760   2.319   0.135
 5326TIP3    H115919   6.770   2.229   0.166
 5326TIP3    H215920   6.813   2.371   0.196
 5327TIP3   OH215921   3.740   4.931   6.531
 5327TIP3    H115922   3.654   4.972   6.538
 5327TIP3    H215923   3.763   4.939   6.439
 5328TIP3   OH215924   0.409   1.166   4.347
 5328TIP3    H115925   0.351   1.176   4.271
 5328TIP3    H215926   0.489   1.129   4.311
 5329TIP3   OH215927   2.677   2.293   0.716
 5329TIP3    H115928   2.606   2.330   0.662
 5329TIP3    H215929   2.633   2.234   0.777
 5330TIP3   OH215930   2.996   7.567   5.540
 5330TIP3    H115931   2.998   7.603   5.629
 5330TIP3    H215932   2.921   7.508   5.540
 5331TIP3   OH215933   5.584   1.965   6.181
 5331TIP3    H115934   5.647   2.034   6.161
 5331TIP3    H215935   5.508   1.985   6.126
 5332TIP3   OH215936   1.433   5.229   5.774
 5332TIP3    H115937   1.448   5.323   5.787
 5332TIP3    H215938   1.341   5.217   5.797
 5333TIP3   OH215939   5.055   3.672   0.881
 5333TIP3    H115940   5.081   3.747   0.934
 5333TIP3    H215941   5.137   3.627   0.862
 5334TIP3   OH215942   7.131   2.591   0.429
 5334TIP3    H115943   7.208   2.557   0.476
 5334TIP3    H215944   7.068   2.610   0.498
 5335TIP3   OH215945   0.988   1.447   3.599
 5335TIP3    H115946   0.914   1.395   3.570
 5335TIP3    H215947   1.035   1.391   3.661
 5336TIP3   OH215948   1.464   6.233   5.079
 5336TIP3    H115949   1.436   6.257   5.168
 5336TIP3    H215950   1.449   6.313   5.028
 5337TIP3   OH215951   6.283   5.500   3.411
 5337TIP3    H115952   6.299   5.478   3.319
 5337TIP3    H215953   6.195   5.467   3.428
 5338TIP3   OH215954   1.307   2.692   3.530
 5338TIP3    H115955   1.287   2.785   3.519
 5338TIP3    H215956   1.222   2.649   3.533
 5339TIP3   OH215957   1.081   0.932   4.780
 5339TIP3    H115958   0.988   0.936   4.803
 5339TIP3    H215959   1.082   0.897   4.691
 5340TIP3   OH215960   7.619   3.174   3.267
 5340TIP3    H115961   7.638   3.266   3.248
 5340TIP3    H215962   7.705   3.132   3.269
 5341TIP3   OH215963   0.970   6.305   2.447
 5341TIP3    H115964   0.987   6.240   2.379
 5341TIP3    H215965   0.964   6.388   2.399
 5342TIP3   OH215966   5.908   5.965   2.138
 5342TIP3    H115967   5.996   6.001   2.151
 5342TIP3    H215968   5.890   5.914   2.217
 5343TIP3   OH215969   5.574   0.276   2.142
 5343TIP3    H115970   5.548   0.303   2.230
 5343TIP3    H215971   5.493   0.279   2.091
 5344TIP3   OH215972   1.235   6.261   4.575
 5344TIP3    H115973   1.284   6.185   4.543
 5344TIP3    H215974   1.286   6.336   4.546
 5345TIP3   OH215975   0.532   0.621   2.826
 5345TIP3    H115976   0.602   0.654   2.770
 5345TIP3    H215977   0.574   0.558   2.884
 5346TIP3   OH215978   6.008   7.323   0.704
 5346TIP3    H115979   5.916   7.346   0.689
 5346TIP3    H215980   6.046   7.321   0.617
 5347TIP3   OH215981   6.604   2.962   6.528
 5347TIP3    H115982   6.567   3.049   6.538
 5347TIP3    H215983   6.623   2.955   6.435
 5348TIP3   OH215984   4.427   3.965   1.277
 5348TIP3    H115985   4.509   4.013   1.265
 5348TIP3    H215986   4.436   3.887   1.221
 5349TIP3   OH215987   7.536   4.685   0.170
 5349TIP3    H115988   7.536   4.709   0.262
 5349TIP3    H215989   7.622   4.712   0.137
 5350TIP3   OH215990   2.301   0.547   4.621
 5350TIP3    H115991   2.255   0.583   4.697
 5350TIP3    H215992   2.244   0.476   4.590
 5351TIP3   OH215993   6.783   3.302   5.421
 5351TIP3    H115994   6.716   3.306   5.490
 5351TIP3    H215995   6.844   3.372   5.443
 5352TIP3   OH215996   6.175   6.545   1.671
 5352TIP3    H115997   6.084   6.562   1.645
 5352TIP3    H215998   6.209   6.486   1.603
 5353TIP3   OH215999   0.946   1.845   4.690
 5353TIP3    H116000   1.003   1.911   4.728
 5353TIP3    H216001   0.958   1.854   4.596
 5354TIP3   OH216002   8.041   2.455   4.724
 5354TIP3    H116003   8.037   2.493   4.812
 5354TIP3    H216004   8.134   2.435   4.711
 5355TIP3   OH216005   3.389   3.778   5.266
 5355TIP3    H116006   3.440   3.797   5.188
 5355TIP3    H216007   3.299   3.766   5.235
 5356TIP3   OH216008   3.533   3.662   0.593
 5356TIP3    H116009   3.469   3.699   0.532
 5356TIP3    H216010   3.594   3.615   0.538
 5357TIP3   OH216011   0.139   0.571   5.204
 5357TIP3    H116012   0.053   0.531   5.211
 5357TIP3    H216013   0.121   0.665   5.201
 5358TIP3   OH216014   3.439   4.610   1.726
 5358TIP3    H116015   3.517   4.661   1.704
 5358TIP3    H216016   3.468   4.553   1.798
 5359TIP3   OH216017   4.033   7.055   6.384
 5359TIP3    H116018   3.977   6.979   6.371
 5359TIP3    H216019   4.097   7.050   6.314
 5360TIP3   OH216020   4.020   4.240   2.380
 5360TIP3    H116021   4.009   4.189   2.460
 5360TIP3    H216022   4.030   4.330   2.411
 5361TIP3   OH216023   3.261   1.368   2.322
 5361TIP3    H116024   3.227   1.457   2.326
 5361TIP3    H216025   3.193   1.319   2.274
 5362TIP3   OH216026   3.741   4.946   5.097
 5362TIP3    H116027   3.653   4.931   5.132
 5362TIP3    H216028   3.729   4.959   5.003
 5363TIP3   OH216029   7.755   6.564   4.256
 5363TIP3    H116030   7.716   6.621   4.189
 5363TIP3    H216031   7.700   6.486   4.256
 5364TIP3   OH216032   1.397   0.964   3.667
 5364TIP3    H116033   1.409   1.011   3.750
 5364TIP3    H216034   1.312   0.994   3.635
 5365TIP3   OH216035   4.097   4.229   6.158
 5365TIP3    H116036   4.071   4.169   6.228
 5365TIP3    H216037   4.176   4.271   6.191
 5366TIP3   OH216038   5.132   3.604   2.013
 5366TIP3    H116039   5.199   3.603   2.082
 5366TIP3    H216040   5.123   3.696   1.990
 5367TIP3   OH216041   7.161   6.450   3.367
 5367TIP3    H116042   7.240   6.445   3.421
 5367TIP3    H216043   7.101   6.387   3.407
 5368TIP3   OH216044   6.538   4.774   3.796
 5368TIP3    H116045   6.564   4.856   3.755
 5368TIP3    H216046   6.521   4.798   3.887
 5369TIP3   OH216047   1.224   5.571   5.698
 5369TIP3    H116048   1.152   5.513   5.724
 5369TIP3    H216049   1.185   5.658   5.697
 5370TIP3   OH216050   2.990   5.590   2.526
 5370TIP3    H116051   2.970   5.499   2.505
 5370TIP3    H216052   2.977   5.637   2.443
 5371TIP3   OH216053   0.699   4.607   0.871
 5371TIP3    H116054   0.744   4.523   0.885
 5371TIP3    H216055   0.719   4.630   0.781
 5372TIP3   OH216056   7.664   4.057   2.187
 5372TIP3    H116057   7.579   4.074   2.148
 5372TIP3    H216058   7.655   4.085   2.278
 5373TIP3   OH216059   2.141   4.246   2.513
 5373TIP3    H116060   2.220   4.251   2.461
 5373TIP3    H216061   2.081   4.193   2.461
 5374TIP3   OH216062   6.751   4.182   6.883
 5374TIP3    H116063   6.840   4.166   6.914
 5374TIP3    H216064   6.748   4.276   6.865
 5375TIP3   OH216065   4.675   1.686   1.245
 5375TIP3    H116066   4.746   1.670   1.307
 5375TIP3    H216067   4.624   1.605   1.247
 5376TIP3   OH216068   4.268   5.209   1.161
 5376TIP3    H116069   4.288   5.287   1.214
 5376TIP3    H216070   4.340   5.205   1.098
 5377TIP3   OH216071   0.962   0.368   6.305
 5377TIP3    H116072   0.956   0.307   6.379
 5377TIP3    H216073   0.904   0.331   6.239
 5378TIP3   OH216074   4.623   0.964   6.102
 5378TIP3    H116075   4.607   1.028   6.172
 5378TIP3    H216076   4.714   0.936   6.116
 5379TIP3   OH216077   4.543   0.720   4.102
 5379TIP3    H116078   4.495   0.638   4.091
 5379TIP3    H216079   4.497   0.782   4.045
 5380TIP3   OH216080   8.058   6.828   0.473
 5380TIP3    H116081   8.037   6.766   0.403
 5380TIP3    H216082   7.973   6.861   0.501
 5381TIP3   OH216083   2.586   2.912   1.647
 5381TIP3    H116084   2.679   2.936   1.643
 5381TIP3    H216085   2.564   2.891   1.556
 5382TIP3   OH216086   1.802   1.531   4.372
 5382TIP3    H116087   1.792   1.436   4.380
 5382TIP3    H216088   1.882   1.551   4.421
 5383TIP3   OH216089   5.375   4.412   5.316
 5383TIP3    H116090   5.435   4.394   5.389
 5383TIP3    H216091   5.414   4.488   5.271
 5384TIP3   OH216092   7.314   4.224   1.279
 5384TIP3    H116093   7.374   4.219   1.204
 5384TIP3    H216094   7.362   4.276   1.344
 5385TIP3   OH216095   2.165   6.416   2.054
 5385TIP3    H116096   2.112   6.423   2.133
 5385TIP3    H216097   2.142   6.493   2.003
 5386TIP3   OH216098   5.089   1.436   2.790
 5386TIP3    H116099   5.066   1.463   2.701
 5386TIP3    H216100   5.142   1.357   2.777
 5387TIP3   OH216101   1.241   5.453   0.900
 5387TIP3    H116102   1.267   5.544   0.912
 5387TIP3    H216103   1.154   5.448   0.941
 5388TIP3   OH216104   6.354   0.836   5.843
 5388TIP3    H116105   6.340   0.931   5.834
 5388TIP3    H216106   6.312   0.813   5.925
 5389TIP3   OH216107   3.031   2.031   4.041
 5389TIP3    H116108   3.033   2.035   4.137
 5389TIP3    H216109   2.948   2.072   4.017
 5390TIP3   OH216110   1.168   5.043   6.220
 5390TIP3    H116111   1.136   5.026   6.131
 5390TIP3    H216112   1.097   5.013   6.276
 5391TIP3   OH216113   2.056   6.409   5.498
 5391TIP3    H116114   2.036   6.502   5.500
 5391TIP3    H216115   2.111   6.395   5.575
 5392TIP3   OH216116   6.046   5.660   4.715
 5392TIP3    H116117   6.073   5.584   4.767
 5392TIP3    H216118   5.971   5.697   4.761
 5393TIP3   OH216119   3.492   1.575   6.731
 5393TIP3    H116120   3.484   1.521   6.652
 5393TIP3    H216121   3.439   1.529   6.797
 5394TIP3   OH216122   4.305   1.975   3.188
 5394TIP3    H116123   4.356   2.004   3.112
 5394TIP3    H216124   4.276   2.057   3.229
 5395TIP3   OH216125   1.560   4.316   1.139
 5395TIP3    H116126   1.596   4.234   1.105
 5395TIP3    H216127   1.477   4.290   1.180
 5396TIP3   OH216128   4.965   4.334   1.151
 5396TIP3    H116129   4.950   4.271   1.081
 5396TIP3    H216130   4.910   4.409   1.129
 5397TIP3   OH216131   6.032   4.644   4.812
 5397TIP3    H116132   5.943   4.641   4.847
 5397TIP3    H216133   6.069   4.558   4.832
 5398TIP3   OH216134   5.236   1.795   5.294
 5398TIP3    H116135   5.224   1.847   5.214
 5398TIP3    H216136   5.256   1.859   5.361
 5399TIP3   OH216137   5.029   6.971   3.903
 5399TIP3    H116138   5.015   6.926   3.820
 5399TIP3    H216139   4.945   6.964   3.949
 5400TIP3   OH216140   2.577   5.693   1.303
 5400TIP3    H116141   2.617   5.623   1.251
 5400TIP3    H216142   2.483   5.685   1.287
 5401TIP3   OH216143   6.221   5.157   4.292
 5401TIP3    H116144   6.157   5.212   4.248
 5401TIP3    H216145   6.172   5.111   4.360
 5402TIP3   OH216146   0.003   5.426   1.285
 5402TIP3    H116147   0.029   5.481   1.358
 5402TIP3    H216148  -0.079   5.465   1.253
 5403TIP3   OH216149   3.306   4.767   3.807
 5403TIP3    H116150   3.238   4.781   3.874
 5403TIP3    H216151   3.285   4.830   3.738
 5404TIP3   OH216152   4.645   3.717   5.212
 5404TIP3    H116153   4.611   3.804   5.228
 5404TIP3    H216154   4.655   3.712   5.117
 5405TIP3   OH216155   3.674   3.853   0.773
 5405TIP3    H116156   3.616   3.789   0.731
 5405TIP3    H216157   3.739   3.800   0.819
 5406TIP3   OH216158   4.865   6.775   5.126
 5406TIP3    H116159   4.901   6.801   5.211
 5406TIP3    H216160   4.939   6.779   5.066
 5407TIP3   OH216161   5.156   1.054   3.765
 5407TIP3    H116162   5.230   1.025   3.713
 5407TIP3    H216163   5.111   0.974   3.791
 5408TIP3   OH216164   3.131   0.300   1.869
 5408TIP3    H116165   3.167   0.292   1.781
 5408TIP3    H216166   3.089   0.216   1.886
 5409TIP3   OH216167   0.187   4.570   6.816
 5409TIP3    H116168   0.227   4.483   6.818
 5409TIP3    H216169   0.260   4.630   6.836
 5410TIP3   OH216170   3.238   5.235   2.038
 5410TIP3    H116171   3.328   5.229   2.008
 5410TIP3    H216172   3.239   5.306   2.103
 5411TIP3   OH216173   5.225   2.538   4.673
 5411TIP3    H116174   5.250   2.531   4.765
 5411TIP3    H216175   5.159   2.470   4.661
 5412TIP3   OH216176   4.133   5.384   5.833
 5412TIP3    H116177   4.149   5.316   5.768
 5412TIP3    H216178   4.069   5.347   5.893
 5413TIP3   OH216179   7.397   6.543   6.828
 5413TIP3    H116180   7.368   6.613   6.769
 5413TIP3    H216181   7.331   6.542   6.898
 5414TIP3   OH216182   4.645   3.202   6.697
 5414TIP3    H116183   4.657   3.289   6.735
 5414TIP3    H216184   4.610   3.218   6.610
 5415TIP3   OH216185   1.729   4.363   3.477
 5415TIP3    H116186   1.801   4.371   3.415
 5415TIP3    H216187   1.738   4.275   3.514
 5416TIP3   OH216188   0.592   4.235   4.801
 5416TIP3    H116189   0.569   4.292   4.727
 5416TIP3    H216190   0.687   4.229   4.799
 5417TIP3   OH216191   1.950   0.519   5.436
 5417TIP3    H116192   1.871   0.493   5.482
 5417TIP3    H216193   1.994   0.580   5.494
 5418TIP3   OH216194   6.176   0.153   5.038
 5418TIP3    H116195   6.255   0.207   5.032
 5418TIP3    H216196   6.142   0.169   5.126
 5419TIP3   OH216197   0.560   2.250   2.054
 5419TIP3    H116198   0.548   2.239   1.959
 5419TIP3    H216199   0.640   2.202   2.074
 5420TIP3   OH216200   6.398   2.668   4.742
 5420TIP3    H116201   6.419   2.584   4.703
 5420TIP3    H216202   6.304   2.679   4.729
 5421TIP3   OH216203   0.530   5.731   6.318
 5421TIP3    H116204   0.462   5.669   6.342
 5421TIP3    H216205   0.536   5.725   6.222
 5422TIP3   OH216206   0.388   2.092   0.557
 5422TIP3    H116207   0.308   2.064   0.601
 5422TIP3    H216208   0.375   2.186   0.541
 5423TIP3   OH216209   2.791   4.864   6.443
 5423TIP3    H116210   2.834   4.947   6.461
 5423TIP3    H216211   2.769   4.868   6.349
 5424TIP3   OH216212   1.951   0.810   4.119
 5424TIP3    H116213   1.952   0.864   4.040
 5424TIP3    H216214   1.863   0.771   4.119
 5425TIP3   OH216215   1.438   4.604   2.884
 5425TIP3    H116216   1.456   4.698   2.887
 5425TIP3    H216217   1.389   4.587   2.964
 5426TIP3   OH216218   0.612   3.659   6.328
 5426TIP3    H116219   0.670   3.713   6.274
 5426TIP3    H216220   0.572   3.598   6.265
 5427TIP3   OH216221   5.882   2.779   0.462
 5427TIP3    H116222   5.866   2.689   0.490
 5427TIP3    H216223   5.928   2.820   0.536
 5428TIP3   OH216224   1.019   5.342   1.853
 5428TIP3    H116225   1.022   5.324   1.947
 5428TIP3    H216226   1.080   5.278   1.814
 5429TIP3   OH216227   0.625   0.240   1.946
 5429TIP3    H116228   0.602   0.321   1.991
 5429TIP3    H216229   0.615   0.261   1.853
 5430TIP3   OH216230   0.195   3.287   2.883
 5430TIP3    H116231   0.190   3.338   2.964
 5430TIP3    H216232   0.258   3.217   2.904
 5431TIP3   OH216233   1.755   6.142   6.340
 5431TIP3    H116234   1.702   6.195   6.280
 5431TIP3    H216235   1.692   6.110   6.405
 5432TIP3   OH216236   4.036   4.570   3.610
 5432TIP3    H116237   4.043   4.479   3.581
 5432TIP3    H216238   4.070   4.622   3.537
 5433TIP3   OH216239   6.831   0.338   1.720
 5433TIP3    H116240   6.779   0.258   1.710
 5433TIP3    H216241   6.888   0.320   1.794
 5434TIP3   OH216242   7.691   7.114   1.043
 5434TIP3    H116243   7.745   7.192   1.030
 5434TIP3    H216244   7.743   7.060   1.103
 5435TIP3   OH216245   5.647   5.866   5.452
 5435TIP3    H116246   5.716   5.872   5.517
 5435TIP3    H216247   5.616   5.776   5.457
 5436TIP3   OH216248   2.149   0.296   5.411
 5436TIP3    H116249   2.101   0.377   5.425
 5436TIP3    H216250   2.236   0.324   5.384
 5437TIP3   OH216251   0.420   6.382   6.114
 5437TIP3    H116252   0.513   6.408   6.116
 5437TIP3    H216253   0.379   6.438   6.180
 5438TIP3   OH216254   1.409   6.779   3.734
 5438TIP3    H116255   1.493   6.733   3.731
 5438TIP3    H216256   1.343   6.711   3.725
 5439TIP3   OH216257   6.050   5.793   5.203
 5439TIP3    H116258   6.115   5.862   5.212
 5439TIP3    H216259   5.967   5.839   5.192
 5440TIP3   OH216260   7.686   1.532   5.157
 5440TIP3    H116261   7.727   1.520   5.243
 5440TIP3    H216262   7.672   1.443   5.125
 5441TIP3   OH216263   6.558   1.973   5.735
 5441TIP3    H116264   6.536   2.010   5.820
 5441TIP3    H216265   6.534   1.881   5.742
 5442TIP3   OH216266   3.101   2.593   2.368
 5442TIP3    H116267   3.098   2.683   2.337
 5442TIP3    H216268   3.174   2.553   2.320
 5443TIP3   OH216269   6.674   5.940   3.785
 5443TIP3    H116270   6.707   5.861   3.741
 5443TIP3    H216271   6.583   5.920   3.805
 5444TIP3   OH216272   1.912   0.151   1.936
 5444TIP3    H116273   1.962   0.173   1.857
 5444TIP3    H216274   1.855   0.227   1.949
 5445TIP3   OH216275   6.211   0.579   3.979
 5445TIP3    H116276   6.225   0.536   3.894
 5445TIP3    H216277   6.119   0.562   3.999
 5446TIP3   OH216278   6.362   0.996   3.944
 5446TIP3    H116279   6.405   1.007   4.028
 5446TIP3    H216280   6.269   0.992   3.965
 5447TIP3   OH216281   0.892   4.209   4.777
 5447TIP3    H116282   0.947   4.144   4.732
 5447TIP3    H216283   0.953   4.256   4.834
 5448TIP3   OH216284   1.325   4.406   5.897
 5448TIP3    H116285   1.377   4.326   5.906
 5448TIP3    H216286   1.236   4.375   5.883
 5449TIP3   OH216287   6.527   0.188   2.353
 5449TIP3    H116288   6.499   0.280   2.364
 5449TIP3    H216289   6.444   0.140   2.346
 5450TIP3   OH216290   7.421   0.119   0.930
 5450TIP3    H116291   7.399   0.139   1.021
 5450TIP3    H216292   7.347   0.066   0.898
 5451TIP3   OH216293   5.897   0.383   0.473
 5451TIP3    H116294   5.985   0.412   0.499
 5451TIP3    H216295   5.852   0.464   0.448
 5452TIP3   OH216296   2.705   7.651   1.781
 5452TIP3    H116297   2.660   7.735   1.777
 5452TIP3    H216298   2.795   7.673   1.803
 5453TIP3   OH216299   4.076   4.594   2.967
 5453TIP3    H116300   4.109   4.662   2.909
 5453TIP3    H216301   3.983   4.613   2.977
 5454TIP3   OH216302   5.829   5.787   1.892
 5454TIP3    H116303   5.866   5.817   1.809
 5454TIP3    H216304   5.856   5.854   1.956
 5455TIP3   OH216305   2.271   2.051   3.519
 5455TIP3    H116306   2.211   2.116   3.484
 5455TIP3    H216307   2.254   2.051   3.613
 5456TIP3   OH216308   1.805   0.123   0.039
 5456TIP3    H116309   1.828   0.194   0.100
 5456TIP3    H216310   1.709   0.125   0.036
 5457TIP3   OH216311   5.089   4.635   1.164
 5457TIP3    H116312   5.162   4.583   1.129
 5457TIP3    H216313   5.131   4.707   1.211
 5458TIP3   OH216314   7.726   1.301   5.823
 5458TIP3    H116315   7.632   1.292   5.842
 5458TIP3    H216316   7.730   1.307   5.727
 5459TIP3   OH216317   4.115   5.760   2.126
 5459TIP3    H116318   4.149   5.849   2.118
 5459TIP3    H216319   4.038   5.769   2.182
 5460TIP3   OH216320   2.292   2.237   2.703
 5460TIP3    H116321   2.211   2.246   2.652
 5460TIP3    H216322   2.349   2.306   2.668
 5461TIP3   OH216323   6.584   5.359   5.252
 5461TIP3    H116324   6.544   5.307   5.322
 5461TIP3    H216325   6.644   5.418   5.296
 5462TIP3   OH216326   3.317   3.087   1.943
 5462TIP3    H116327   3.334   2.995   1.965
 5462TIP3    H216328   3.320   3.133   2.027
 5463TIP3   OH216329   1.186   5.534   3.140
 5463TIP3    H116330   1.248   5.555   3.070
 5463TIP3    H216331   1.114   5.490   3.095
 5464TIP3   OH216332   3.853   0.977   4.420
 5464TIP3    H116333   3.809   0.894   4.437
 5464TIP3    H216334   3.821   1.036   4.489
 5465TIP3   OH216335   2.092   4.119   5.053
 5465TIP3    H116336   2.032   4.144   5.123
 5465TIP3    H216337   2.043   4.137   4.973
 5466TIP3   OH216338   6.963   7.265   4.890
 5466TIP3    H116339   7.044   7.215   4.883
 5466TIP3    H216340   6.978   7.343   4.837
 5467TIP3   OH216341   2.301   0.369   1.721
 5467TIP3    H116342   2.252   0.290   1.743
 5467TIP3    H216343   2.257   0.439   1.768
 5468TIP3   OH216344   6.986   4.524   3.682
 5468TIP3    H116345   6.910   4.538   3.740
 5468TIP3    H216346   7.034   4.607   3.685
 5469TIP3   OH216347   3.032   0.592   2.592
 5469TIP3    H116348   3.033   0.677   2.637
 5469TIP3    H216349   3.071   0.531   2.655
 5470TIP3   OH216350   3.919   7.287   4.458
 5470TIP3    H116351   3.840   7.237   4.435
 5470TIP3    H216352   3.990   7.223   4.453
 5471TIP3   OH216353   5.245   7.008   6.607
 5471TIP3    H116354   5.241   7.043   6.518
 5471TIP3    H216355   5.218   7.081   6.663
 5472TIP3   OH216356   2.051   1.408   4.649
 5472TIP3    H116357   1.965   1.404   4.690
 5472TIP3    H216358   2.076   1.500   4.652
 5473TIP3   OH216359   6.771   1.253   1.874
 5473TIP3    H116360   6.710   1.264   1.946
 5473TIP3    H216361   6.769   1.337   1.828
 5474TIP3   OH216362   5.471   0.746   2.834
 5474TIP3    H116363   5.449   0.836   2.809
 5474TIP3    H216364   5.427   0.734   2.919
 5475TIP3   OH216365   3.799   5.283   3.546
 5475TIP3    H116366   3.756   5.317   3.468
 5475TIP3    H216367   3.778   5.347   3.615
 5476TIP3   OH216368   5.427   2.254   3.818
 5476TIP3    H116369   5.374   2.238   3.740
 5476TIP3    H216370   5.368   2.238   3.892
 5477TIP3   OH216371   8.149   0.733   5.300
 5477TIP3    H116372   8.074   0.773   5.256
 5477TIP3    H216373   8.163   0.786   5.378
 5478TIP3   OH216374   3.749   5.674   0.231
 5478TIP3    H116375   3.816   5.639   0.290
 5478TIP3    H216376   3.767   5.768   0.228
 5479TIP3   OH216377   3.043   7.399   1.124
 5479TIP3    H116378   3.069   7.489   1.106
 5479TIP3    H216379   3.100   7.370   1.195
 5480TIP3   OH216380   3.862   1.267   2.679
 5480TIP3    H116381   3.826   1.311   2.602
 5480TIP3    H216382   3.786   1.242   2.731
 5481TIP3   OH216383   7.195   2.337   5.173
 5481TIP3    H116384   7.229   2.284   5.244
 5481TIP3    H216385   7.147   2.275   5.117
 5482TIP3   OH216386   0.041   5.715   5.345
 5482TIP3    H116387   0.091   5.685   5.269
 5482TIP3    H216388   0.066   5.654   5.415
 5483TIP3   OH216389   7.334   5.285   0.738
 5483TIP3    H116390   7.242   5.296   0.760
 5483TIP3    H216391   7.344   5.190   0.728
 5484TIP3   OH216392   7.814   3.610   5.849
 5484TIP3    H116393   7.773   3.653   5.924
 5484TIP3    H216394   7.744   3.557   5.810
 5485TIP3   OH216395   5.173   4.527   2.594
 5485TIP3    H116396   5.252   4.484   2.627
 5485TIP3    H216397   5.108   4.516   2.664
 5486TIP3   OH216398   7.074   4.901   5.812
 5486TIP3    H116399   7.146   4.903   5.875
 5486TIP3    H216400   7.028   4.819   5.831
 5487TIP3   OH216401   2.199   0.134   4.132
 5487TIP3    H116402   2.159   0.215   4.100
 5487TIP3    H216403   2.132   0.094   4.187
 5488TIP3   OH216404   7.106   4.373   1.195
 5488TIP3    H116405   7.098   4.312   1.122
 5488TIP3    H216406   7.173   4.333   1.252
 5489TIP3   OH216407   4.685   0.457   0.990
 5489TIP3    H116408   4.713   0.514   0.918
 5489TIP3    H216409   4.744   0.479   1.062
 5490TIP3   OH216410   6.117   4.018   0.164
 5490TIP3    H116411   6.148   4.024   0.254
 5490TIP3    H216412   6.194   4.035   0.110
 5491TIP3   OH216413   8.382   0.508   3.378
 5491TIP3    H116414   8.356   0.417   3.376
 5491TIP3    H216415   8.307   0.555   3.415
 5492TIP3   OH216416   5.166   7.251   6.370
 5492TIP3    H116417   5.114   7.223   6.294
 5492TIP3    H216418   5.120   7.214   6.445
 5493TIP3   OH216419   6.097   3.183   1.046
 5493TIP3    H116420   6.051   3.118   1.100
 5493TIP3    H216421   6.174   3.206   1.097
 5494TIP3   OH216422   7.534   5.769   5.587
 5494TIP3    H116423   7.543   5.759   5.682
 5494TIP3    H216424   7.472   5.700   5.563
 5495TIP3   OH216425   1.082   3.319   0.372
 5495TIP3    H116426   1.127   3.400   0.396
 5495TIP3    H216427   1.125   3.251   0.423
 5496TIP3   OH216428   6.425   5.350   4.559
 5496TIP3    H116429   6.365   5.390   4.496
 5496TIP3    H216430   6.420   5.407   4.636
 5497TIP3   OH216431   4.956   3.967   6.187
 5497TIP3    H116432   4.944   3.904   6.257
 5497TIP3    H216433   4.893   3.941   6.119
 5498TIP3   OH216434   0.213   5.714   0.075
 5498TIP3    H116435   0.174   5.628   0.090
 5498TIP3    H216436   0.160   5.774   0.127
 5499TIP3   OH216437   4.535   0.767   6.328
 5499TIP3    H116438   4.508   0.824   6.400
 5499TIP3    H216439   4.518   0.819   6.249
 5500TIP3   OH216440   5.484   3.723   0.071
 5500TIP3    H116441   5.572   3.700   0.043
 5500TIP3    H216442   5.462   3.658   0.138
 5501TIP3   OH216443   3.021   4.332   4.920
 5501TIP3    H116444   2.937   4.318   4.963
 5501TIP3    H216445   3.000   4.333   4.826
 5502TIP3   OH216446   4.024   6.320   2.160
 5502TIP3    H116447   4.087   6.373   2.111
 5502TIP3    H216448   4.072   6.295   2.239
 5503TIP3   OH216449   2.819   0.400   1.761
 5503TIP3    H116450   2.811   0.336   1.690
 5503TIP3    H216451   2.894   0.454   1.736
 5504TIP3   OH216452   4.687   7.528   0.501
 5504TIP3    H116453   4.597   7.548   0.475
 5504TIP3    H216454   4.739   7.545   0.422
 5505TIP3   OH216455   6.539   4.499   3.394
 5505TIP3    H116456   6.629   4.503   3.426
 5505TIP3    H216457   6.485   4.510   3.473
 5506TIP3   OH216458   6.952   3.139   1.868
 5506TIP3    H116459   6.942   3.076   1.939
 5506TIP3    H216460   7.009   3.095   1.805
 5507TIP3   OH216461   5.020   4.934   5.830
 5507TIP3    H116462   4.955   4.952   5.899
 5507TIP3    H216463   5.022   4.839   5.823
 5508TIP3   OH216464   5.793   3.973   5.814
 5508TIP3    H116465   5.848   3.939   5.884
 5508TIP3    H216466   5.838   4.051   5.782
 5509TIP3   OH216467   7.306   4.370   3.906
 5509TIP3    H116468   7.264   4.351   3.822
 5509TIP3    H216469   7.399   4.381   3.884
 5510TIP3   OH216470   0.874   1.156   6.370
 5510TIP3    H116471   0.832   1.129   6.452
 5510TIP3    H216472   0.809   1.211   6.327
 5511TIP3   OH216473   8.301   4.598   1.596
 5511TIP3    H116474   8.307   4.534   1.667
 5511TIP3    H216475   8.211   4.631   1.601
 5512TIP3   OH216476   0.156   7.777   2.834
 5512TIP3    H116477   0.131   7.750   2.922
 5512TIP3    H216478   0.073   7.800   2.792
 5513TIP3   OH216479   5.758   4.711   4.922
 5513TIP3    H116480   5.718   4.783   4.874
 5513TIP3    H216481   5.817   4.754   4.984
 5514TIP3   OH216482   4.249   7.839   3.670
 5514TIP3    H116483   4.185   7.884   3.725
 5514TIP3    H216484   4.297   7.783   3.731
 5515TIP3   OH216485   6.124   6.225   1.228
 5515TIP3    H116486   6.051   6.267   1.272
 5515TIP3    H216487   6.111   6.131   1.245
 5516TIP3   OH216488   3.526   5.382   5.539
 5516TIP3    H116489   3.552   5.402   5.448
 5516TIP3    H216490   3.521   5.468   5.581
 5517TIP3   OH216491   5.225   4.378   6.015
 5517TIP3    H116492   5.169   4.313   5.972
 5517TIP3    H216493   5.185   4.462   5.994
 5518TIP3   OH216494   0.104   5.222   0.305
 5518TIP3    H116495   0.188   5.178   0.290
 5518TIP3    H216496   0.049   5.194   0.232
 5519TIP3   OH216497   7.711   5.398   5.907
 5519TIP3    H116498   7.771   5.472   5.896
 5519TIP3    H216499   7.719   5.349   5.825
 5520TIP3   OH216500   6.008   5.734   3.691
 5520TIP3    H116501   6.025   5.746   3.784
 5520TIP3    H216502   5.929   5.786   3.674
 5521TIP3   OH216503   2.445   2.985   5.012
 5521TIP3    H116504   2.433   2.925   5.085
 5521TIP3    H216505   2.463   3.070   5.052
 5522TIP3   OH216506   3.061   1.650   4.341
 5522TIP3    H116507   2.987   1.685   4.292
 5522TIP3    H216508   3.054   1.692   4.427
 5523TIP3   OH216509   5.665   7.658   3.577
 5523TIP3    H116510   5.701   7.577   3.613
 5523TIP3    H216511   5.740   7.717   3.573
 5524TIP3   OH216512   6.269   7.873   2.664
 5524TIP3    H116513   6.204   7.855   2.597
 5524TIP3    H216514   6.353   7.850   2.623
 5525TIP3   OH216515   6.495   2.084   1.836
 5525TIP3    H116516   6.513   2.075   1.742
 5525TIP3    H216517   6.399   2.089   1.841
 5526TIP3   OH216518   2.408   1.051   4.326
 5526TIP3    H116519   2.463   0.978   4.295
 5526TIP3    H216520   2.327   1.009   4.354
 5527TIP3   OH216521   4.970   1.703   4.851
 5527TIP3    H116522   4.970   1.608   4.856
 5527TIP3    H216523   4.906   1.723   4.782
 5528TIP3   OH216524   2.126   3.551   4.313
 5528TIP3    H116525   2.198   3.604   4.279
 5528TIP3    H216526   2.151   3.461   4.291
 5529TIP3   OH216527   6.440   6.810   5.532
 5529TIP3    H116528   6.432   6.886   5.590
 5529TIP3    H216529   6.440   6.735   5.591
 5530TIP3   OH216530   6.553   6.826   2.600
 5530TIP3    H116531   6.482   6.886   2.621
 5530TIP3    H216532   6.510   6.741   2.591
 5531TIP3   OH216533   2.386   0.839   4.748
 5531TIP3    H116534   2.349   0.756   4.719
 5531TIP3    H216535   2.316   0.881   4.798
 5532TIP3   OH216536   6.932   3.297   0.952
 5532TIP3    H116537   6.958   3.221   1.004
 5532TIP3    H216538   6.971   3.372   0.998
 5533TIP3   OH216539   1.202   2.654   0.106
 5533TIP3    H116540   1.214   2.740   0.147
 5533TIP3    H216541   1.208   2.671   0.012
 5534TIP3   OH216542   1.578   1.435   3.315
 5534TIP3    H116543   1.501   1.438   3.259
 5534TIP3    H216544   1.550   1.479   3.395
 5535TIP3   OH216545   6.686   4.095   2.263
 5535TIP3    H116546   6.758   4.043   2.227
 5535TIP3    H216547   6.642   4.037   2.325
 5536TIP3   OH216548   8.410   7.936   0.431
 5536TIP3    H116549   8.395   7.906   0.341
 5536TIP3    H216550   8.328   7.915   0.477
 5537TIP3   OH216551   6.152   6.118   6.634
 5537TIP3    H116552   6.174   6.168   6.713
 5537TIP3    H216553   6.231   6.121   6.581
 5538TIP3   OH216554   1.552   4.186  -0.002
 5538TIP3    H116555   1.517   4.102   0.027
 5538TIP3    H216556   1.485   4.250   0.023
 5539TIP3   OH216557   4.517   2.218   5.287
 5539TIP3    H116558   4.612   2.211   5.299
 5539TIP3    H216559   4.481   2.142   5.332
 5540TIP3   OH216560   8.288   7.849   1.486
 5540TIP3    H116561   8.206   7.827   1.532
 5540TIP3    H216562   8.263   7.920   1.427
 5541TIP3   OH216563   4.572   4.046   3.421
 5541TIP3    H116564   4.581   4.079   3.511
 5541TIP3    H216565   4.481   4.062   3.399
 5542TIP3   OH216566   2.299   7.085   5.417
 5542TIP3    H116567   2.354   7.068   5.340
 5542TIP3    H216568   2.338   7.032   5.486
 5543TIP3   OH216569   3.910   1.933   0.839
 5543TIP3    H116570   3.934   1.848   0.802
 5543TIP3    H216571   3.992   1.966   0.876
 5544TIP3   OH216572   4.200   7.822   4.696
 5544TIP3    H116573   4.186   7.902   4.645
 5544TIP3    H216574   4.191   7.751   4.632
 5545TIP3   OH216575   0.203   1.703   5.350
 5545TIP3    H116576   0.197   1.785   5.300
 5545TIP3    H216577   0.119   1.660   5.337
 5546TIP3   OH216578   7.644   3.571   1.493
 5546TIP3    H116579   7.676   3.606   1.410
 5546TIP3    H216580   7.549   3.582   1.489
 5547TIP3   OH216581   2.949   7.375   4.614
 5547TIP3    H116582   3.008   7.449   4.625
 5547TIP3    H216583   2.923   7.378   4.522
 5548TIP3   OH216584   1.803   5.810   1.477
 5548TIP3    H116585   1.891   5.821   1.441
 5548TIP3    H216586   1.750   5.874   1.430
 5549TIP3   OH216587   5.914   6.448   0.717
 5549TIP3    H116588   5.972   6.389   0.670
 5549TIP3    H216589   5.907   6.410   0.805
 5550TIP3   OH216590   7.020   4.961   5.552
 5550TIP3    H116591   6.976   5.046   5.556
 5550TIP3    H216592   7.045   4.944   5.643
 5551TIP3   OH216593   2.722   7.006   0.460
 5551TIP3    H116594   2.707   6.923   0.414
 5551TIP3    H216595   2.789   7.050   0.408
 5552TIP3   OH216596   3.936   0.769   0.016
 5552TIP3    H116597   3.983   0.786   0.098
 5552TIP3    H216598   3.885   0.849   0.001
 5553TIP3   OH216599   8.095   0.001   5.730
 5553TIP3    H116600   8.151   0.063   5.775
 5553TIP3    H216601   8.121  -0.085   5.765
 5554TIP3   OH216602   2.478   6.903   6.531
 5554TIP3    H116603   2.432   6.977   6.572
 5554TIP3    H216604   2.466   6.916   6.437
 5555TIP3   OH216605   3.675   1.999   5.345
 5555TIP3    H116606   3.684   2.040   5.431
 5555TIP3    H216607   3.745   2.038   5.293
 5556TIP3   OH216608   4.082   3.060   2.644
 5556TIP3    H116609   4.007   3.024   2.691
 5556TIP3    H216610   4.055   3.150   2.622
 5557TIP3   OH216611   7.046   1.034   2.754
 5557TIP3    H116612   6.992   1.112   2.770
 5557TIP3    H216613   6.991   0.978   2.699
 5558TIP3   OH216614   5.294   7.693   5.927
 5558TIP3    H116615   5.225   7.733   5.979
 5558TIP3    H216616   5.248   7.630   5.871
 5559TIP3   OH216617   3.550   0.120   3.360
 5559TIP3    H116618   3.474   0.069   3.332
 5559TIP3    H216619   3.521   0.162   3.441
 5560TIP3   OH216620   1.632   4.599   1.263
 5560TIP3    H116621   1.719   4.603   1.303
 5560TIP3    H216622   1.637   4.526   1.201
 5561TIP3   OH216623   7.127   5.539   3.541
 5561TIP3    H116624   7.142   5.487   3.463
 5561TIP3    H216625   7.033   5.531   3.557
 5562TIP3   OH216626   4.822   2.368   3.406
 5562TIP3    H116627   4.818   2.463   3.409
 5562TIP3    H216628   4.881   2.348   3.334
 5563TIP3   OH216629   3.100   0.397   1.204
 5563TIP3    H116630   3.153   0.397   1.284
 5563TIP3    H216631   3.013   0.369   1.233
 5564TIP3   OH216632   1.465   7.599   2.771
 5564TIP3    H116633   1.390   7.569   2.822
 5564TIP3    H216634   1.447   7.567   2.682
 5565TIP3   OH216635   8.427   1.687   4.289
 5565TIP3    H116636   8.361   1.731   4.236
 5565TIP3    H216637   8.394   1.690   4.378
 5566TIP3   OH216638   4.920   6.121   6.733
 5566TIP3    H116639   4.997   6.117   6.789
 5566TIP3    H216640   4.895   6.213   6.731
 5567TIP3   OH216641   2.254   3.246   0.360
 5567TIP3    H116642   2.265   3.154   0.387
 5567TIP3    H216643   2.184   3.279   0.415
 5568TIP3   OH216644   7.930   2.577   3.442
 5568TIP3    H116645   7.895   2.656   3.399
 5568TIP3    H216646   7.870   2.560   3.514
 5569TIP3   OH216647   4.429   1.971   1.223
 5569TIP3    H116648   4.379   1.907   1.173
 5569TIP3    H216649   4.387   1.972   1.309
 5570TIP3   OH216650   3.510   4.627   1.042
 5570TIP3    H116651   3.562   4.557   1.002
 5570TIP3    H216652   3.425   4.587   1.062
 5571TIP3   OH216653   0.706   3.633   2.549
 5571TIP3    H116654   0.680   3.685   2.625
 5571TIP3    H216655   0.632   3.640   2.489
 5572TIP3   OH216656   4.928   5.559   2.932
 5572TIP3    H116657   4.940   5.481   2.878
 5572TIP3    H216658   4.969   5.629   2.882
 5573TIP3   OH216659   4.789   5.473   5.810
 5573TIP3    H116660   4.809   5.517   5.728
 5573TIP3    H216661   4.719   5.411   5.787
 5574TIP3   OH216662   6.835   7.067   5.033
 5574TIP3    H116663   6.763   7.033   4.980
 5574TIP3    H216664   6.862   7.147   4.988
 5575TIP3   OH216665   5.444   6.127   3.858
 5575TIP3    H116666   5.534   6.158   3.866
 5575TIP3    H216667   5.393   6.185   3.915
 5576TIP3   OH216668   5.984   0.092   1.288
 5576TIP3    H116669   5.976   0.186   1.300
 5576TIP3    H216670   6.032   0.081   1.206
 5577TIP3   OH216671   7.241   3.097   6.333
 5577TIP3    H116672   7.307   3.145   6.383
 5577TIP3    H216673   7.290   3.057   6.261
 5578TIP3   OH216674   4.040   4.711   0.476
 5578TIP3    H116675   4.066   4.802   0.465
 5578TIP3    H216676   4.112   4.661   0.438
 5579TIP3   OH216677   5.621   6.650   3.558
 5579TIP3    H116678   5.696   6.602   3.523
 5579TIP3    H216679   5.545   6.603   3.526
 5580TIP3   OH216680   1.986   0.719   6.021
 5580TIP3    H116681   2.066   0.701   5.971
 5580TIP3    H216682   2.013   0.785   6.086
 5581TIP3   OH216683   0.184   6.555   6.206
 5581TIP3    H116684   0.236   6.618   6.156
 5581TIP3    H216685   0.100   6.552   6.161
 5582TIP3   OH216686   6.557   0.248   0.590
 5582TIP3    H116687   6.583   0.270   0.500
 5582TIP3    H216688   6.527   0.331   0.627
 5583TIP3   OH216689   7.158   3.333   1.780
 5583TIP3    H116690   7.104   3.253   1.781
 5583TIP3    H216691   7.163   3.359   1.872
 5584TIP3   OH216692   4.580   4.298   6.137
 5584TIP3    H116693   4.668   4.262   6.130
 5584TIP3    H216694   4.593   4.393   6.146
 5585TIP3   OH216695   3.655   3.268   4.846
 5585TIP3    H116696   3.745   3.296   4.860
 5585TIP3    H216697   3.642   3.196   4.908
 5586TIP3   OH216698   3.074   1.624   5.426
 5586TIP3    H116699   3.047   1.542   5.467
 5586TIP3    H216700   3.146   1.656   5.481
 5587TIP3   OH216701   6.770   2.348   6.530
 5587TIP3    H116702   6.737   2.269   6.573
 5587TIP3    H216703   6.771   2.326   6.437
 5588TIP3   OH216704   2.730   4.987   1.393
 5588TIP3    H116705   2.810   4.987   1.447
 5588TIP3    H216706   2.659   4.997   1.456
 5589TIP3   OH216707   3.860   5.172   1.967
 5589TIP3    H116708   3.776   5.159   1.923
 5589TIP3    H216709   3.925   5.146   1.901
 5590TIP3   OH216710   7.802   2.120   4.892
 5590TIP3    H116711   7.729   2.163   4.937
 5590TIP3    H216712   7.831   2.053   4.953
 5591TIP3   OH216713   0.348   7.572   4.616
 5591TIP3    H116714   0.405   7.585   4.540
 5591TIP3    H216715   0.405   7.534   4.683
 5592TIP3   OH216716   4.906   0.522   6.679
 5592TIP3    H116717   4.908   0.617   6.669
 5592TIP3    H216718   4.985   0.492   6.634
 5593TIP3   OH216719   1.642   6.116   5.924
 5593TIP3    H116720   1.628   6.061   5.847
 5593TIP3    H216721   1.631   6.056   5.998
 5594TIP3   OH216722   3.613   7.895   2.113
 5594TIP3    H116723   3.554   7.945   2.170
 5594TIP3    H216724   3.557   7.861   2.044
 5595TIP3   OH216725   4.459   4.701   2.265
 5595TIP3    H116726   4.386   4.750   2.226
 5595TIP3    H216727   4.466   4.622   2.211
 5596TIP3   OH216728   2.697   0.261   5.250
 5596TIP3    H116729   2.746   0.181   5.232
 5596TIP3    H216730   2.763   0.330   5.253
 5597TIP3   OH216731   2.794   7.491   4.914
 5597TIP3    H116732   2.886   7.472   4.929
 5597TIP3    H216733   2.764   7.423   4.855
 5598TIP3   OH216734   1.728   4.759   4.654
 5598TIP3    H116735   1.772   4.825   4.707
 5598TIP3    H216736   1.768   4.676   4.681
 5599TIP3   OH216737   4.053   0.405   0.668
 5599TIP3    H116738   4.098   0.338   0.720
 5599TIP3    H216739   3.983   0.436   0.725
 5600TIP3   OH216740   6.417   7.147   1.083
 5600TIP3    H116741   6.464   7.198   1.017
 5600TIP3    H216742   6.446   7.184   1.166
 5601TIP3   OH216743   7.245   6.333   1.495
 5601TIP3    H116744   7.203   6.327   1.408
 5601TIP3    H216745   7.171   6.340   1.556
 5602TIP3   OH216746   1.251   2.129   5.730
 5602TIP3    H116747   1.269   2.035   5.726
 5602TIP3    H216748   1.175   2.142   5.674
 5603TIP3   OH216749   2.579   0.657   3.873
 5603TIP3    H116750   2.513   0.721   3.899
 5603TIP3    H216751   2.528   0.580   3.845
 5604TIP3   OH216752   0.849   0.638   0.282
 5604TIP3    H116753   0.868   0.732   0.284
 5604TIP3    H216754   0.901   0.601   0.353
 5605TIP3   OH216755   2.778   6.734   4.206
 5605TIP3    H116756   2.810   6.648   4.179
 5605TIP3    H216757   2.688   6.738   4.173
 5606TIP3   OH216758   5.008   0.153   0.852
 5606TIP3    H116759   4.955   0.200   0.916
 5606TIP3    H216760   5.041   0.077   0.899
 5607TIP3   OH216761   4.607   3.157   2.550
 5607TIP3    H116762   4.520   3.151   2.590
 5607TIP3    H216763   4.593   3.133   2.458
 5608TIP3   OH216764   4.249   7.105   2.640
 5608TIP3    H116765   4.171   7.149   2.675
 5608TIP3    H216766   4.280   7.050   2.711
 5609TIP3   OH216767   0.657   2.103   2.375
 5609TIP3    H116768   0.666   2.055   2.293
 5609TIP3    H216769   0.654   2.035   2.442
 5610TIP3   OH216770   0.011   7.037   6.668
 5610TIP3    H116771   0.043   7.007   6.753
 5610TIP3    H216772   0.089   7.038   6.613
 5611TIP3   OH216773   6.493   5.519   1.542
 5611TIP3    H116774   6.450   5.584   1.486
 5611TIP3    H216775   6.442   5.439   1.530
 5612TIP3   OH216776   3.951   2.510   2.061
 5612TIP3    H116777   3.923   2.535   2.148
 5612TIP3    H216778   4.010   2.435   2.075
 5613TIP3   OH216779   0.772   1.556   3.288
 5613TIP3    H116780   0.681   1.526   3.281
 5613TIP3    H216781   0.797   1.576   3.198
 5614TIP3   OH216782   6.332   7.785   4.602
 5614TIP3    H116783   6.282   7.757   4.526
 5614TIP3    H216784   6.355   7.876   4.584
 5615TIP3   OH216785   5.429   3.110   2.613
 5615TIP3    H116786   5.417   3.170   2.687
 5615TIP3    H216787   5.449   3.026   2.654
 5616TIP3   OH216788   1.476   5.493   5.791
 5616TIP3    H116789   1.532   5.570   5.785
 5616TIP3    H216790   1.412   5.504   5.721
 5617TIP3   OH216791   7.239   3.974   5.117
 5617TIP3    H116792   7.316   3.925   5.089
 5617TIP3    H216793   7.218   3.940   5.203
 5618TIP3   OH216794   5.255   1.649   2.510
 5618TIP3    H116795   5.288   1.709   2.443
 5618TIP3    H216796   5.259   1.699   2.591
 5619TIP3   OH216797   0.831   1.496   1.268
 5619TIP3    H116798   0.754   1.539   1.230
 5619TIP3    H216799   0.906   1.536   1.223
 5620TIP3   OH216800   5.946   5.418   6.770
 5620TIP3    H116801   5.977   5.436   6.681
 5620TIP3    H216802   5.981   5.332   6.791
 5621TIP3   OH216803   5.006   5.317   0.828
 5621TIP3    H116804   5.022   5.234   0.781
 5621TIP3    H216805   5.085   5.369   0.812
 5622TIP3   OH216806   6.767   0.999   6.064
 5622TIP3    H116807   6.678   1.033   6.065
 5622TIP3    H216808   6.803   1.023   6.150
 5623TIP3   OH216809   2.935   6.302   3.050
 5623TIP3    H116810   2.909   6.240   3.118
 5623TIP3    H216811   2.964   6.379   3.098
 5624TIP3   OH216812   2.824   5.987   1.487
 5624TIP3    H116813   2.795   6.045   1.417
 5624TIP3    H216814   2.761   6.002   1.558
 5625TIP3   OH216815   2.175   0.975   4.474
 5625TIP3    H116816   2.082   0.954   4.480
 5625TIP3    H216817   2.181   1.067   4.499
 5626TIP3   OH216818   5.947   3.798   2.490
 5626TIP3    H116819   5.978   3.823   2.578
 5626TIP3    H216820   5.905   3.713   2.503
 5627TIP3   OH216821   0.591   4.272   6.677
 5627TIP3    H116822   0.531   4.266   6.751
 5627TIP3    H216823   0.668   4.317   6.711
 5628TIP3   OH216824   0.267   0.787   3.160
 5628TIP3    H116825   0.184   0.751   3.192
 5628TIP3    H216826   0.331   0.761   3.227
 5629TIP3   OH216827   7.195   2.089   0.096
 5629TIP3    H116828   7.200   2.142   0.175
 5629TIP3    H216829   7.157   2.148   0.030
 5630TIP3   OH216830   8.234   3.698   3.892
 5630TIP3    H116831   8.199   3.636   3.828
 5630TIP3    H216832   8.175   3.690   3.967
 5631TIP3   OH216833   7.108   3.639   5.222
 5631TIP3    H116834   7.022   3.671   5.195
 5631TIP3    H216835   7.140   3.704   5.284
 5632TIP3   OH216836   7.241   7.285   5.536
 5632TIP3    H116837   7.202   7.339   5.605
 5632TIP3    H216838   7.191   7.306   5.457
 5633TIP3   OH216839   6.577   6.518   4.088
 5633TIP3    H116840   6.520   6.551   4.019
 5633TIP3    H216841   6.649   6.475   4.041
 5634TIP3   OH216842   3.859   7.836   2.998
 5634TIP3    H116843   3.783   7.831   3.056
 5634TIP3    H216844   3.934   7.829   3.057
 5635TIP3   OH216845   1.670   6.251   0.486
 5635TIP3    H116846   1.695   6.208   0.568
 5635TIP3    H216847   1.720   6.204   0.419
 5636TIP3   OH216848   7.477   6.958   0.653
 5636TIP3    H116849   7.445   7.048   0.639
 5636TIP3    H216850   7.421   6.923   0.722
 5637TIP3   OH216851   4.410   0.270   4.248
 5637TIP3    H116852   4.324   0.238   4.276
 5637TIP3    H216853   4.418   0.355   4.291
 5638TIP3   OH216854   6.175   2.457   3.005
 5638TIP3    H116855   6.243   2.440   3.070
 5638TIP3    H216856   6.215   2.520   2.945
 5639TIP3   OH216857   0.196  -0.024   5.366
 5639TIP3    H116858   0.154  -0.030   5.452
 5639TIP3    H216859   0.160   0.056   5.327
 5640TIP3   OH216860   4.691   3.653   1.535
 5640TIP3    H116861   4.657   3.677   1.448
 5640TIP3    H216862   4.619   3.674   1.595
 5641TIP3   OH216863   3.118   3.635   5.967
 5641TIP3    H116864   3.097   3.543   5.982
 5641TIP3    H216865   3.102   3.648   5.873
 5642TIP3   OH216866   0.534   4.414   4.587
 5642TIP3    H116867   0.467   4.397   4.520
 5642TIP3    H216868   0.497   4.485   4.640
 5643TIP3   OH216869   0.511   1.864   5.598
 5643TIP3    H116870   0.441   1.921   5.565
 5643TIP3    H216871   0.570   1.853   5.523
 5644TIP3   OH216872   4.635   5.161   1.914
 5644TIP3    H116873   4.598   5.249   1.916
 5644TIP3    H216874   4.717   5.169   1.962
 5645TIP3   OH216875   3.763   2.874   1.377
 5645TIP3    H116876   3.747   2.947   1.317
 5645TIP3    H216877   3.730   2.904   1.462
 5646TIP3   OH216878   5.310   0.629   1.655
 5646TIP3    H116879   5.337   0.645   1.746
 5646TIP3    H216880   5.392   0.629   1.606
 5647TIP3   OH216881   0.926   3.156   1.087
 5647TIP3    H116882   0.878   3.237   1.102
 5647TIP3    H216883   1.017   3.185   1.074
 5648TIP3   OH216884   5.565   1.029   3.416
 5648TIP3    H116885   5.629   1.100   3.421
 5648TIP3    H216886   5.485   1.067   3.454
 5649TIP3   OH216887   5.416   1.526   2.276
 5649TIP3    H116888   5.346   1.558   2.333
 5649TIP3    H216889   5.496   1.548   2.322
 5650TIP3   OH216890  -0.001   0.187   5.041
 5650TIP3    H116891   0.041   0.145   4.966
 5650TIP3    H216892   0.012   0.280   5.027
 5651TIP3   OH216893   3.212   3.457   0.599
 5651TIP3    H116894   3.181   3.447   0.508
 5651TIP3    H216895   3.306   3.473   0.591
 5652TIP3   OH216896   1.217   4.951   2.224
 5652TIP3    H116897   1.278   4.999   2.168
 5652TIP3    H216898   1.149   5.015   2.246
 5653TIP3   OH216899   2.359   6.661   0.439
 5653TIP3    H116900   2.366   6.678   0.533
 5653TIP3    H216901   2.399   6.738   0.398
 5654TIP3   OH216902   7.037   6.892   6.601
 5654TIP3    H116903   7.023   6.804   6.567
 5654TIP3    H216904   6.949   6.925   6.618
 5655TIP3   OH216905   0.837   6.697   1.129
 5655TIP3    H116906   0.831   6.740   1.044
 5655TIP3    H216907   0.805   6.608   1.113
 5656TIP3   OH216908   6.890   7.812   1.233
 5656TIP3    H116909   6.920   7.781   1.318
 5656TIP3    H216910   6.841   7.892   1.252
 5657TIP3   OH216911   1.376   6.732   1.181
 5657TIP3    H116912   1.280   6.727   1.183
 5657TIP3    H216913   1.405   6.643   1.162
 5658TIP3   OH216914   3.546   4.265   1.263
 5658TIP3    H116915   3.482   4.283   1.331
 5658TIP3    H216916   3.631   4.273   1.307
 5659TIP3   OH216917   2.041   3.116   2.192
 5659TIP3    H116918   2.115   3.056   2.184
 5659TIP3    H216919   2.038   3.162   2.108
 5660TIP3   OH216920   7.698   4.982   4.870
 5660TIP3    H116921   7.766   4.958   4.933
 5660TIP3    H216922   7.738   4.969   4.784
 5661TIP3   OH216923   1.729   2.864   2.535
 5661TIP3    H116924   1.667   2.890   2.603
 5661TIP3    H216925   1.812   2.902   2.563
 5662TIP3   OH216926   5.806   2.515   0.154
 5662TIP3    H116927   5.771   2.429   0.179
 5662TIP3    H216928   5.851   2.546   0.233
 5663TIP3   OH216929   3.860   0.174   1.846
 5663TIP3    H116930   3.840   0.258   1.805
 5663TIP3    H216931   3.802   0.170   1.922
 5664TIP3   OH216932   3.512   5.700   5.532
 5664TIP3    H116933   3.473   5.766   5.475
 5664TIP3    H216934   3.561   5.643   5.472
 5665TIP3   OH216935   8.074   7.172   5.747
 5665TIP3    H116936   7.994   7.196   5.795
 5665TIP3    H216937   8.110   7.256   5.718
 5666TIP3   OH216938   5.372   5.547   6.566
 5666TIP3    H116939   5.381   5.625   6.621
 5666TIP3    H216940   5.458   5.535   6.527
 5667TIP3   OH216941   6.634   7.805   5.468
 5667TIP3    H116942   6.597   7.890   5.445
 5667TIP3    H216943   6.728   7.819   5.471
 5668TIP3   OH216944   2.880   4.229   0.742
 5668TIP3    H116945   2.821   4.248   0.669
 5668TIP3    H216946   2.950   4.293   0.733
 5669TIP3   OH216947   3.392   5.264   2.677
 5669TIP3    H116948   3.418   5.219   2.757
 5669TIP3    H216949   3.417   5.355   2.691
 5670TIP3   OH216950   7.650   7.792   1.749
 5670TIP3    H116951   7.698   7.729   1.696
 5670TIP3    H216952   7.561   7.758   1.753
 5671TIP3   OH216953   2.525   7.862   4.409
 5671TIP3    H116954   2.599   7.823   4.456
 5671TIP3    H216955   2.565   7.933   4.358
 5672TIP3   OH216956   4.368   1.415   1.666
 5672TIP3    H116957   4.401   1.422   1.755
 5672TIP3    H216958   4.277   1.447   1.671
 5673TIP3   OH216959   1.686   5.298   5.637
 5673TIP3    H116960   1.656   5.284   5.727
 5673TIP3    H216961   1.607   5.321   5.589
 5674TIP3   OH216962   4.608   7.825   4.538
 5674TIP3    H116963   4.605   7.819   4.634
 5674TIP3    H216964   4.574   7.740   4.508
 5675TIP3   OH216965   4.502   2.078   0.738
 5675TIP3    H116966   4.411   2.108   0.747
 5675TIP3    H216967   4.496   1.984   0.723
 5676TIP3   OH216968   3.544   1.373   5.284
 5676TIP3    H116969   3.469   1.319   5.263
 5676TIP3    H216970   3.611   1.348   5.220
 5677TIP3   OH216971   1.756   1.873   0.261
 5677TIP3    H116972   1.790   1.787   0.286
 5677TIP3    H216973   1.829   1.933   0.275
 5678TIP3   OH216974   4.734   6.501   5.562
 5678TIP3    H116975   4.818   6.544   5.579
 5678TIP3    H216976   4.731   6.491   5.467
 5679TIP3   OH216977  -0.005   0.600   2.622
 5679TIP3    H116978   0.048   0.674   2.650
 5679TIP3    H216979   0.009   0.533   2.689
 5680TIP3   OH216980   6.822   2.871   0.713
 5680TIP3    H116981   6.819   2.955   0.758
 5680TIP3    H216982   6.735   2.833   0.729
 5681TIP3   OH216983   5.561   4.532   2.738
 5681TIP3    H116984   5.533   4.619   2.767
 5681TIP3    H216985   5.500   4.472   2.781
 5682TIP3   OH216986   5.277   2.869   5.660
 5682TIP3    H116987   5.225   2.815   5.600
 5682TIP3    H216988   5.321   2.932   5.604
 5683TIP3   OH216989   7.120   5.897   1.075
 5683TIP3    H116990   7.096   5.887   0.983
 5683TIP3    H216991   7.214   5.916   1.072
 5684TIP3   OH216992   6.098   6.957   5.271
 5684TIP3    H116993   6.038   7.009   5.218
 5684TIP3    H216994   6.158   7.021   5.309
 5685TIP3   OH216995   3.356   7.474   5.391
 5685TIP3    H116996   3.340   7.471   5.486
 5685TIP3    H216997   3.435   7.422   5.379
 5686TIP3   OH216998   6.670   0.109   1.722
 5686TIP3    H116999   6.597   0.079   1.668
 5686TIP3    H217000   6.682   0.040   1.787
 5687TIP3   OH217001   8.348   3.632   5.600
 5687TIP3    H117002   8.432   3.677   5.608
 5687TIP3    H217003   8.348   3.596   5.511
 5688TIP3   OH217004   5.250   7.138   2.288
 5688TIP3    H117005   5.327   7.145   2.344
 5688TIP3    H217006   5.250   7.047   2.259
 5689TIP3   OH217007   0.096   4.727   3.300
 5689TIP3    H117008   0.029   4.750   3.365
 5689TIP3    H217009   0.076   4.783   3.224
 5690TIP3   OH217010   1.887   7.885   0.684
 5690TIP3    H117011   1.802   7.842   0.670
 5690TIP3    H217012   1.890   7.902   0.778
 5691TIP3   OH217013   7.470   0.539   3.437
 5691TIP3    H117014   7.505   0.469   3.382
 5691TIP3    H217015   7.510   0.524   3.523
 5692TIP3   OH217016   7.470   5.059   1.645
 5692TIP3    H117017   7.445   5.006   1.721
 5692TIP3    H217018   7.494   5.144   1.682
 5693TIP3   OH217019   6.083   7.702   6.536
 5693TIP3    H117020   6.144   7.645   6.489
 5693TIP3    H217021   6.040   7.643   6.599
 5694TIP3   OH217022   6.974   2.964   5.013
 5694TIP3    H117023   6.975   2.927   5.101
 5694TIP3    H217024   6.904   3.030   5.015
 5695TIP3   OH217025   6.881   2.344   1.951
 5695TIP3    H117026   6.895   2.250   1.940
 5695TIP3    H217027   6.873   2.378   1.862
 5696TIP3   OH217028   0.272   3.542   2.132
 5696TIP3    H117029   0.328   3.563   2.058
 5696TIP3    H217030   0.214   3.473   2.100
 5697TIP3   OH217031   3.902   2.873   3.962
 5697TIP3    H117032   3.839   2.822   3.911
 5697TIP3    H217033   3.935   2.812   4.028
 5698TIP3   OH217034   7.420   0.388   6.202
 5698TIP3    H117035   7.332   0.373   6.236
 5698TIP3    H217036   7.439   0.311   6.149
 5699TIP3   OH217037   5.046   7.040   1.415
 5699TIP3    H117038   4.982   7.052   1.344
 5699TIP3    H217039   5.115   7.104   1.396
 5700TIP3   OH217040   4.845   0.926   4.427
 5700TIP3    H117041   4.891   1.007   4.448
 5700TIP3    H217042   4.804   0.943   4.342
 5701TIP3   OH217043   3.311   6.281   6.120
 5701TIP3    H117044   3.284   6.190   6.126
 5701TIP3    H217045   3.403   6.278   6.095
 5702TIP3   OH217046   3.253   5.444   2.495
 5702TIP3    H117047   3.160   5.429   2.511
 5702TIP3    H217048   3.297   5.367   2.532
 5703TIP3   OH217049   3.612   6.830   1.847
 5703TIP3    H117050   3.655   6.744   1.855
 5703TIP3    H217051   3.637   6.876   1.927
 5704TIP3   OH217052   2.304   1.379   3.061
 5704TIP3    H117053   2.295   1.389   2.966
 5704TIP3    H217054   2.286   1.287   3.078
 5705TIP3   OH217055   2.271   6.136   5.004
 5705TIP3    H117056   2.289   6.226   4.976
 5705TIP3    H217057   2.246   6.144   5.096
 5706TIP3   OH217058   8.185   0.428   4.443
 5706TIP3    H117059   8.146   0.462   4.363
 5706TIP3    H217060   8.143   0.343   4.455
 5707TIP3   OH217061   2.465   7.035   5.222
 5707TIP3    H117062   2.454   7.048   5.128
 5707TIP3    H217063   2.496   6.945   5.230
 5708TIP3   OH217064   0.054   2.545   1.231
 5708TIP3    H117065   0.129   2.605   1.233
 5708TIP3    H217066  -0.018   2.596   1.268
 5709TIP3   OH217067   2.040   1.006   0.368
 5709TIP3    H117068   2.110   1.043   0.422
 5709TIP3    H217069   1.964   1.061   0.386
 5710TIP3   OH217070   3.786   0.886   3.624
 5710TIP3    H117071   3.845   0.838   3.565
 5710TIP3    H217072   3.807   0.853   3.711
 5711TIP3   OH217073   0.167   3.006   5.549
 5711TIP3    H117074   0.134   3.023   5.637
 5711TIP3    H217075   0.089   2.996   5.495
 5712TIP3   OH217076   1.450   7.594   3.495
 5712TIP3    H117077   1.545   7.598   3.483
 5712TIP3    H217078   1.427   7.678   3.535
 5713TIP3   OH217079   3.486   3.599   3.291
 5713TIP3    H117080   3.572   3.622   3.256
 5713TIP3    H217081   3.455   3.678   3.335
 5714TIP3   OH217082   6.221   3.141   6.021
 5714TIP3    H117083   6.258   3.217   5.977
 5714TIP3    H217084   6.295   3.102   6.069
 5715TIP3   OH217085   0.674   7.353   0.834
 5715TIP3    H117086   0.693   7.440   0.870
 5715TIP3    H217087   0.580   7.344   0.842
 5716TIP3   OH217088   7.327   6.740   0.133
 5716TIP3    H117089   7.406   6.689   0.152
 5716TIP3    H217090   7.356   6.808   0.072
 5717TIP3   OH217091   0.388   0.956   5.778
 5717TIP3    H117092   0.469   1.006   5.784
 5717TIP3    H217093   0.331   0.995   5.845
 5718TIP3   OH217094   3.662   2.354   5.552
 5718TIP3    H117095   3.706   2.343   5.468
 5718TIP3    H217096   3.652   2.449   5.561
 5719TIP3   OH217097   6.580   3.496   0.433
 5719TIP3    H117098   6.568   3.566   0.498
 5719TIP3    H217099   6.670   3.467   0.446
 5720TIP3   OH217100   8.357   3.986  -0.007
 5720TIP3    H117101   8.413   4.062  -0.024
 5720TIP3    H217102   8.404   3.936   0.059
 5721TIP3   OH217103   3.902   0.326   6.644
 5721TIP3    H117104   3.911   0.420   6.661
 5721TIP3    H217105   3.861   0.321   6.557
 5722TIP3   OH217106   7.832   0.842   3.130
 5722TIP3    H117107   7.756   0.810   3.179
 5722TIP3    H217108   7.798   0.917   3.081
 5723TIP3   OH217109   2.456   2.172   5.266
 5723TIP3    H117110   2.513   2.203   5.337
 5723TIP3    H217111   2.486   2.084   5.247
 5724TIP3   OH217112   4.938   3.543   5.456
 5724TIP3    H117113   4.996   3.534   5.531
 5724TIP3    H217114   4.851   3.522   5.490
 5725TIP3   OH217115   2.171   5.120   1.107
 5725TIP3    H117116   2.192   5.204   1.067
 5725TIP3    H217117   2.081   5.103   1.081
 5726TIP3   OH217118   4.271   3.239   6.898
 5726TIP3    H117119   4.307   3.265   6.813
 5726TIP3    H217120   4.221   3.315   6.927
 5727TIP3   OH217121   0.878   4.776   5.094
 5727TIP3    H117122   0.897   4.689   5.127
 5727TIP3    H217123   0.788   4.794   5.122
 5728TIP3   OH217124   6.292   7.406   1.611
 5728TIP3    H117125   6.242   7.407   1.529
 5728TIP3    H217126   6.360   7.472   1.598
 5729TIP3   OH217127   5.176   0.596   6.138
 5729TIP3    H117128   5.187   0.506   6.167
 5729TIP3    H217129   5.118   0.636   6.203
 5730TIP3   OH217130   8.107   3.791   5.552
 5730TIP3    H117131   8.064   3.716   5.511
 5730TIP3    H217132   8.192   3.797   5.510
 5731TIP3   OH217133   4.621   0.515   6.729
 5731TIP3    H117134   4.713   0.538   6.741
 5731TIP3    H217135   4.579   0.543   6.811
 5732TIP3   OH217136   6.306   7.734   0.012
 5732TIP3    H117137   6.358   7.814   0.011
 5732TIP3    H217138   6.246   7.745   0.086
 5733TIP3   OH217139   2.067   7.550   1.384
 5733TIP3    H117140   2.129   7.564   1.456
 5733TIP3    H217141   2.108   7.590   1.308
 5734TIP3   OH217142   2.982   5.259   3.771
 5734TIP3    H117143   3.001   5.346   3.805
 5734TIP3    H217144   3.060   5.208   3.793
 5735TIP3   OH217145   2.343   7.603   5.394
 5735TIP3    H117146   2.366   7.687   5.353
 5735TIP3    H217147   2.419   7.582   5.448
 5736TIP3   OH217148   1.809   0.693   2.247
 5736TIP3    H117149   1.756   0.620   2.282
 5736TIP3    H217150   1.847   0.733   2.325
 5737TIP3   OH217151   0.043   0.201   6.609
 5737TIP3    H117152   0.132   0.216   6.576
 5737TIP3    H217153  -0.013   0.210   6.532
 5738TIP3   OH217154   3.851   2.065   3.497
 5738TIP3    H117155   3.845   2.108   3.581
 5738TIP3    H217156   3.894   1.981   3.515
 5739TIP3   OH217157   3.685   6.300   2.829
 5739TIP3    H117158   3.743   6.368   2.864
 5739TIP3    H217159   3.615   6.294   2.893
 5740TIP3   OH217160   7.225   2.753   4.118
 5740TIP3    H117161   7.141   2.764   4.162
 5740TIP3    H217162   7.277   2.829   4.147
 5741TIP3   OH217163   6.546   0.283   4.139
 5741TIP3    H117164   6.626   0.302   4.189
 5741TIP3    H217165   6.490   0.237   4.201
 5742TIP3   OH217166   2.526   1.318   1.508
 5742TIP3    H117167   2.502   1.410   1.520
 5742TIP3    H217168   2.580   1.318   1.429
 5743TIP3   OH217169   8.124   1.948   5.352
 5743TIP3    H117170   8.032   1.933   5.372
 5743TIP3    H217171   8.169   1.938   5.436
 5744TIP3   OH217172   2.443   2.318   3.879
 5744TIP3    H117173   2.493   2.388   3.836
 5744TIP3    H217174   2.423   2.353   3.966
 5745TIP3   OH217175   1.475   4.224   6.865
 5745TIP3    H117176   1.562   4.215   6.903
 5745TIP3    H217177   1.487   4.282   6.790
 5746TIP3   OH217178   4.715   0.874   1.893
 5746TIP3    H117179   4.645   0.842   1.949
 5746TIP3    H217180   4.794   0.831   1.926
 5747TIP3   OH217181   8.022   5.176   4.793
 5747TIP3    H117182   8.044   5.135   4.877
 5747TIP3    H217183   8.098   5.231   4.773
 5748TIP3   OH217184   5.803   0.361   1.975
 5748TIP3    H117185   5.828   0.450   1.953
 5748TIP3    H217186   5.708   0.364   1.986
 5749TIP3   OH217187   8.055   4.162   1.417
 5749TIP3    H117188   7.987   4.168   1.483
 5749TIP3    H217189   8.008   4.148   1.335
 5750TIP3   OH217190   8.327   5.088   5.314
 5750TIP3    H117191   8.269   5.160   5.339
 5750TIP3    H217192   8.270   5.011   5.313
 5751TIP3   OH217193   1.139   7.413   4.587
 5751TIP3    H117194   1.094   7.490   4.622
 5751TIP3    H217195   1.156   7.435   4.496
 5752TIP3   OH217196   1.160   7.147   5.727
 5752TIP3    H117197   1.112   7.070   5.696
 5752TIP3    H217198   1.135   7.217   5.666
 5753TIP3   OH217199   6.089   1.521   0.307
 5753TIP3    H117200   6.113   1.445   0.360
 5753TIP3    H217201   6.011   1.556   0.349
 5754TIP3   OH217202   1.339   7.845   3.567
 5754TIP3    H117203   1.382   7.901   3.503
 5754TIP3    H217204   1.264   7.896   3.598
 5755TIP3   OH217205   5.206   1.410   1.093
 5755TIP3    H117206   5.138   1.364   1.143
 5755TIP3    H217207   5.204   1.499   1.126
 5756TIP3   OH217208   0.754   1.909   0.894
 5756TIP3    H117209   0.718   1.991   0.858
 5756TIP3    H217210   0.772   1.855   0.817
 5757TIP3   OH217211   5.003   4.372   6.330
 5757TIP3    H117212   5.092   4.339   6.320
 5757TIP3    H217213   5.004   4.420   6.412
 5758TIP3   OH217214   2.759   4.867   0.208
 5758TIP3    H117215   2.786   4.957   0.225
 5758TIP3    H217216   2.699   4.873   0.134
 5759TIP3   OH217217   0.614   6.970   1.579
 5759TIP3    H117218   0.634   7.052   1.623
 5759TIP3    H217219   0.642   6.902   1.640
 5760TIP3   OH217220   3.810   4.637   5.218
 5760TIP3    H117221   3.842   4.594   5.139
 5760TIP3    H217222   3.801   4.729   5.194
 5761TIP3   OH217223   6.285   1.679   3.291
 5761TIP3    H117224   6.293   1.749   3.226
 5761TIP3    H217225   6.220   1.711   3.353
 5762TIP3   OH217226   4.105   7.233   2.956
 5762TIP3    H117227   4.099   7.272   2.869
 5762TIP3    H217228   4.165   7.290   3.004
 5763TIP3   OH217229   8.322   7.123   1.623
 5763TIP3    H117230   8.315   7.143   1.716
 5763TIP3    H217231   8.337   7.029   1.619
 5764TIP3   OH217232   7.607   1.977   6.592
 5764TIP3    H117233   7.642   1.916   6.657
 5764TIP3    H217234   7.531   2.017   6.635
 5765TIP3   OH217235   8.302   3.571   3.452
 5765TIP3    H117236   8.373   3.523   3.409
 5765TIP3    H217237   8.223   3.541   3.407
 5766TIP3   OH217238   6.529   2.403   4.908
 5766TIP3    H117239   6.556   2.421   4.998
 5766TIP3    H217240   6.446   2.452   4.899
 5767TIP3   OH217241   5.363   1.151   4.956
 5767TIP3    H117242   5.410   1.234   4.954
 5767TIP3    H217243   5.273   1.175   4.977
 5768TIP3   OH217244   0.240   4.198   4.538
 5768TIP3    H117245   0.296   4.230   4.467
 5768TIP3    H217246   0.158   4.176   4.495
 5769TIP3   OH217247   7.216   2.784   2.990
 5769TIP3    H117248   7.273   2.753   3.059
 5769TIP3    H217249   7.158   2.710   2.971
 5770TIP3   OH217250   4.888   0.986   6.404
 5770TIP3    H117251   4.951   1.032   6.348
 5770TIP3    H217252   4.823   1.053   6.427
 5771TIP3   OH217253   7.701   7.092   2.820
 5771TIP3    H117254   7.640   7.034   2.774
 5771TIP3    H217255   7.788   7.059   2.797
 5772TIP3   OH217256   5.343   0.688   2.075
 5772TIP3    H117257   5.351   0.768   2.023
 5772TIP3    H217258   5.266   0.643   2.040
 5773TIP3   OH217259   3.280   3.940   3.525
 5773TIP3    H117260   3.245   3.979   3.444
 5773TIP3    H217261   3.217   3.966   3.592
 5774TIP3   OH217262   4.663   5.177   4.114
 5774TIP3    H117263   4.595   5.244   4.100
 5774TIP3    H217264   4.715   5.211   4.186
 5775TIP3   OH217265   2.829   3.105   1.761
 5775TIP3    H117266   2.745   3.148   1.775
 5775TIP3    H217267   2.834   3.092   1.666
 5776TIP3   OH217268   3.552   3.176   4.627
 5776TIP3    H117269   3.479   3.124   4.660
 5776TIP3    H217270   3.594   3.211   4.705
 5777TIP3   OH217271   4.812   7.597   0.262
 5777TIP3    H117272   4.778   7.674   0.216
 5777TIP3    H217273   4.866   7.553   0.197
 5778TIP3   OH217274   3.030   1.210   3.831
 5778TIP3    H117275   2.963   1.143   3.850
 5778TIP3    H217276   2.996   1.256   3.755
 5779TIP3   OH217277   7.225   2.365   2.244
 5779TIP3    H117278   7.133   2.386   2.261
 5779TIP3    H217279   7.253   2.316   2.321
 5780TIP3   OH217280   4.183   6.119   2.367
 5780TIP3    H117281   4.197   6.112   2.273
 5780TIP3    H217282   4.228   6.043   2.404
 5781TIP3   OH217283   1.805   4.300   1.837
 5781TIP3    H117284   1.899   4.305   1.819
 5781TIP3    H217285   1.774   4.391   1.832
 5782TIP3   OH217286   4.319   4.762   3.668
 5782TIP3    H117287   4.245   4.822   3.670
 5782TIP3    H217288   4.289   4.686   3.718
 5783TIP3   OH217289   5.594   5.527   6.744
 5783TIP3    H117290   5.534   5.455   6.766
 5783TIP3    H217291   5.672   5.484   6.711
 5784TIP3   OH217292   7.844   6.411   0.679
 5784TIP3    H117293   7.880   6.332   0.638
 5784TIP3    H217294   7.921   6.461   0.707
 5785TIP3   OH217295   1.839   4.819   0.644
 5785TIP3    H117296   1.775   4.748   0.648
 5785TIP3    H217297   1.918   4.782   0.684
 5786TIP3   OH217298   5.146   1.426   0.107
 5786TIP3    H117299   5.109   1.376   0.034
 5786TIP3    H217300   5.163   1.361   0.175
 5787TIP3   OH217301   6.940   2.823   1.449
 5787TIP3    H117302   6.982   2.905   1.423
 5787TIP3    H217303   6.913   2.783   1.366
 5788TIP3   OH217304   2.418   4.038   2.764
 5788TIP3    H117305   2.397   4.066   2.853
 5788TIP3    H217306   2.483   4.102   2.734
 5789TIP3   OH217307   4.094   3.023   2.323
 5789TIP3    H117308   4.135   2.990   2.403
 5789TIP3    H217309   4.149   3.097   2.297
 5790TIP3   OH217310   1.919   4.036   4.052
 5790TIP3    H117311   1.939   3.996   4.136
 5790TIP3    H217312   1.911   3.962   3.992
 5791TIP3   OH217313   5.056   3.500   4.361
 5791TIP3    H117314   5.011   3.538   4.436
 5791TIP3    H217315   5.149   3.510   4.381
 5792TIP3   OH217316   8.030   1.665   4.343
 5792TIP3    H117317   8.039   1.579   4.303
 5792TIP3    H217318   8.102   1.716   4.306
 5793TIP3   OH217319   5.955   3.466   2.975
 5793TIP3    H117320   5.867   3.439   2.999
 5793TIP3    H217321   5.990   3.508   3.053
 5794TIP3   OH217322   3.100   0.709   2.950
 5794TIP3    H117323   3.015   0.748   2.972
 5794TIP3    H217324   3.132   0.673   3.033
 5795TIP3   OH217325   2.032   6.014   6.099
 5795TIP3    H117326   2.037   6.017   6.194
 5795TIP3    H217327   1.976   6.088   6.076
 5796TIP3   OH217328   4.758   4.208   5.419
 5796TIP3    H117329   4.680   4.153   5.424
 5796TIP3    H217330   4.782   4.224   5.510
 5797TIP3   OH217331   6.278   0.891   1.053
 5797TIP3    H117332   6.267   0.918   1.144
 5797TIP3    H217333   6.234   0.806   1.048
 5798TIP3   OH217334   1.247   0.662   3.044
 5798TIP3    H117335   1.316   0.632   3.103
 5798TIP3    H217336   1.174   0.684   3.102
 5799TIP3   OH217337   5.762   6.183   3.334
 5799TIP3    H117338   5.777   6.250   3.400
 5799TIP3    H217339   5.794   6.102   3.374
 5800TIP3   OH217340   5.720   3.647   4.104
 5800TIP3    H117341   5.719   3.624   4.012
 5800TIP3    H217342   5.677   3.573   4.148
 5801TIP3   OH217343   2.722   6.096   5.544
 5801TIP3    H117344   2.658   6.026   5.528
 5801TIP3    H217345   2.671   6.177   5.537
 5802TIP3   OH217346   1.427   2.510   1.906
 5802TIP3    H117347   1.488   2.576   1.937
 5802TIP3    H217348   1.342   2.536   1.942
 5803TIP3   OH217349   6.234   4.747   4.269
 5803TIP3    H117350   6.244   4.818   4.205
 5803TIP3    H217351   6.157   4.698   4.238
 5804TIP3   OH217352   4.623   4.675   6.817
 5804TIP3    H117353   4.612   4.632   6.901
 5804TIP3    H217354   4.576   4.620   6.755
 5805TIP3   OH217355   6.397   5.772   0.818
 5805TIP3    H117356   6.321   5.739   0.771
 5805TIP3    H217357   6.445   5.824   0.754
 5806TIP3   OH217358   3.942   7.547   4.498
 5806TIP3    H117359   3.923   7.454   4.486
 5806TIP3    H217360   3.914   7.566   4.588
 5807TIP3   OH217361   6.752   0.627   0.328
 5807TIP3    H117362   6.776   0.719   0.342
 5807TIP3    H217363   6.730   0.621   0.235
 5808TIP3   OH217364   2.701   0.529   6.585
 5808TIP3    H117365   2.784   0.542   6.631
 5808TIP3    H217366   2.667   0.447   6.620
 5809TIP3   OH217367   7.918   3.366   1.226
 5809TIP3    H117368   7.937   3.281   1.265
 5809TIP3    H217369   7.998   3.389   1.179
 5810TIP3   OH217370   6.437   3.585   2.179
 5810TIP3    H117371   6.350   3.559   2.151
 5810TIP3    H217372   6.442   3.560   2.271
 5811TIP3   OH217373   1.513   4.983   2.381
 5811TIP3    H117374   1.496   4.889   2.384
 5811TIP3    H217375   1.449   5.021   2.442
 5812TIP3   OH217376   1.283   1.465   1.107
 5812TIP3    H117377   1.345   1.535   1.084
 5812TIP3    H217378   1.335   1.385   1.105
 5813TIP3   OH217379   0.628   6.631   4.669
 5813TIP3    H117380   0.637   6.726   4.655
 5813TIP3    H217381   0.665   6.592   4.590
 5814TIP3   OH217382   2.097   1.224   3.286
 5814TIP3    H117383   2.029   1.251   3.224
 5814TIP3    H217384   2.140   1.306   3.311
 5815TIP3   OH217385   0.612   6.999   1.303
 5815TIP3    H117386   0.615   6.999   1.399
 5815TIP3    H217387   0.577   6.913   1.280
 5816TIP3   OH217388   7.615   7.510   0.582
 5816TIP3    H117389   7.520   7.525   0.584
 5816TIP3    H217390   7.653   7.594   0.607
 5817TIP3   OH217391   3.096   7.077   4.321
 5817TIP3    H117392   3.042   7.035   4.254
 5817TIP3    H217393   3.047   7.155   4.346
 5818TIP3   OH217394   7.341   5.081   4.047
 5818TIP3    H117395   7.435   5.087   4.064
 5818TIP3    H217396   7.310   5.013   4.108
 5819TIP3   OH217397   7.603   1.975   5.171
 5819TIP3    H117398   7.630   2.065   5.153
 5819TIP3    H217399   7.555   1.981   5.254
 5820TIP3   OH217400   2.296   5.023   1.620
 5820TIP3    H117401   2.315   5.097   1.562
 5820TIP3    H217402   2.353   5.037   1.696
 5821TIP3   OH217403   0.553   2.884   3.943
 5821TIP3    H117404   0.570   2.933   3.863
 5821TIP3    H217405   0.458   2.869   3.942
 5822TIP3   OH217406   2.056   1.052   2.552
 5822TIP3    H117407   2.088   1.130   2.505
 5822TIP3    H217408   2.031   1.085   2.638
 5823TIP3   OH217409   3.978   3.748   3.341
 5823TIP3    H117410   3.977   3.669   3.286
 5823TIP3    H217411   3.891   3.750   3.381
 5824TIP3   OH217412   3.563   7.778   6.865
 5824TIP3    H117413   3.601   7.792   6.778
 5824TIP3    H217414   3.472   7.754   6.847
 5825TIP3   OH217415   4.702   1.803   4.905
 5825TIP3    H117416   4.778   1.750   4.927
 5825TIP3    H217417   4.639   1.741   4.869
 5826TIP3   OH217418   7.385   0.951   6.241
 5826TIP3    H117419   7.416   0.912   6.322
 5826TIP3    H217420   7.310   1.004   6.267
 5827TIP3   OH217421   7.484   3.697   5.966
 5827TIP3    H117422   7.550   3.766   5.969
 5827TIP3    H217423   7.464   3.679   6.058
 5828TIP3   OH217424   6.249   2.656   1.358
 5828TIP3    H117425   6.293   2.734   1.325
 5828TIP3    H217426   6.198   2.686   1.433
 5829TIP3   OH217427   2.495   7.138   2.108
 5829TIP3    H117428   2.460   7.062   2.061
 5829TIP3    H217429   2.571   7.164   2.056
 5830TIP3   OH217430   4.625   2.055   1.826
 5830TIP3    H117431   4.540   2.089   1.801
 5830TIP3    H217432   4.667   2.126   1.874
 5831TIP3   OH217433   2.269   6.600   6.842
 5831TIP3    H117434   2.212   6.638   6.775
 5831TIP3    H217435   2.357   6.611   6.807
 5832TIP3   OH217436   5.552   5.035   6.777
 5832TIP3    H117437   5.501   5.104   6.820
 5832TIP3    H217438   5.626   5.081   6.738
 5833TIP3   OH217439   0.820   5.949   0.323
 5833TIP3    H117440   0.881   5.946   0.397
 5833TIP3    H217441   0.749   5.890   0.349
 5834TIP3   OH217442   2.801   1.805   5.249
 5834TIP3    H117443   2.842   1.851   5.322
 5834TIP3    H217444   2.872   1.758   5.206
 5835TIP3   OH217445   5.575   4.298   4.454
 5835TIP3    H117446   5.655   4.300   4.506
 5835TIP3    H217447   5.594   4.357   4.380
 5836TIP3   OH217448   3.576   1.035   3.519
 5836TIP3    H117449   3.535   1.090   3.585
 5836TIP3    H217450   3.632   0.975   3.568
 5837TIP3   OH217451   7.854   4.575   3.396
 5837TIP3    H117452   7.772   4.548   3.437
 5837TIP3    H217453   7.922   4.530   3.446
 5838TIP3   OH217454   4.647   6.072   1.830
 5838TIP3    H117455   4.686   6.058   1.916
 5838TIP3    H217456   4.682   6.001   1.776
 5839TIP3   OH217457   3.153   7.274   5.181
 5839TIP3    H117458   3.230   7.222   5.157
 5839TIP3    H217459   3.106   7.219   5.243
 5840TIP3   OH217460   7.201   1.090   0.186
 5840TIP3    H117461   7.272   1.146   0.154
 5840TIP3    H217462   7.190   1.023   0.118
 5841TIP3   OH217463   6.879   4.569   2.708
 5841TIP3    H117464   6.815   4.624   2.662
 5841TIP3    H217465   6.832   4.489   2.728
 5842TIP3   OH217466   6.508   6.674   0.447
 5842TIP3    H117467   6.567   6.633   0.511
 5842TIP3    H217468   6.566   6.703   0.376
 5843TIP3   OH217469   6.148   5.029   2.252
 5843TIP3    H117470   6.145   4.950   2.305
 5843TIP3    H217471   6.087   5.089   2.296
 5844TIP3   OH217472   0.385   3.377   3.464
 5844TIP3    H117473   0.434   3.443   3.416
 5844TIP3    H217474   0.453   3.325   3.508
 5845TIP3   OH217475   7.071   4.796   1.837
 5845TIP3    H117476   7.107   4.756   1.917
 5845TIP3    H217477   6.991   4.748   1.820
 5846TIP3   OH217478   3.509   3.254   6.360
 5846TIP3    H117479   3.540   3.193   6.293
 5846TIP3    H217480   3.453   3.201   6.417
 5847TIP3   OH217481   4.962   6.673   5.910
 5847TIP3    H117482   5.019   6.598   5.926
 5847TIP3    H217483   4.950   6.714   5.995
 5848TIP3   OH217484   2.269   5.097   4.837
 5848TIP3    H117485   2.339   5.055   4.888
 5848TIP3    H217486   2.309   5.116   4.753
 5849TIP3   OH217487   2.062   6.230   2.786
 5849TIP3    H117488   1.997   6.185   2.733
 5849TIP3    H217489   2.135   6.169   2.794
 5850TIP3   OH217490   5.991   3.136   4.359
 5850TIP3    H117491   5.962   3.141   4.268
 5850TIP3    H217492   6.080   3.170   4.358
 5851TIP3   OH217493   0.597   1.709   6.090
 5851TIP3    H117494   0.586   1.771   6.163
 5851TIP3    H217495   0.587   1.762   6.012
 5852TIP3   OH217496   1.905   3.686  -0.037
 5852TIP3    H117497   1.825   3.729  -0.066
 5852TIP3    H217498   1.961   3.758  -0.007
 5853TIP3   OH217499   1.787   7.242   3.337
 5853TIP3    H117500   1.701   7.265   3.303
 5853TIP3    H217501   1.812   7.316   3.393
 5854TIP3   OH217502   6.994   2.965   0.388
 5854TIP3    H117503   6.913   2.933   0.349
 5854TIP3    H217504   7.011   2.905   0.461
 5855TIP3   OH217505   4.200   7.583   4.998
 5855TIP3    H117506   4.192   7.530   5.077
 5855TIP3    H217507   4.191   7.520   4.926
 5856TIP3   OH217508   7.636   4.675   5.071
 5856TIP3    H117509   7.706   4.727   5.032
 5856TIP3    H217510   7.681   4.610   5.125
 5857TIP3   OH217511   0.414   3.306   6.480
 5857TIP3    H117512   0.388   3.358   6.404
 5857TIP3    H217513   0.340   3.246   6.495
 5858TIP3   OH217514   4.706   7.697   3.914
 5858TIP3    H117515   4.679   7.788   3.899
 5858TIP3    H217516   4.801   7.699   3.909
 5859TIP3   OH217517   0.796   3.497   5.697
 5859TIP3    H117518   0.872   3.443   5.678
 5859TIP3    H217519   0.830   3.567   5.753
 5860TIP3   OH217520   8.064   7.042   2.286
 5860TIP3    H117521   8.115   7.113   2.246
 5860TIP3    H217522   8.129   6.975   2.305
 5861TIP3   OH217523   3.311   4.502   5.972
 5861TIP3    H117524   3.391   4.518   6.023
 5861TIP3    H217525   3.320   4.558   5.895
 5862TIP3   OH217526   2.321   7.815  -0.040
 5862TIP3    H117527   2.336   7.843   0.050
 5862TIP3    H217528   2.230   7.785  -0.041
 5863TIP3   OH217529   0.769   0.674   5.569
 5863TIP3    H117530   0.715   0.595   5.576
 5863TIP3    H217531   0.708   0.741   5.540
 5864TIP3   OH217532   0.303   6.447   2.613
 5864TIP3    H117533   0.297   6.537   2.581
 5864TIP3    H217534   0.329   6.456   2.705
 5865TIP3   OH217535   5.283   2.550   0.650
 5865TIP3    H117536   5.348   2.553   0.580
 5865TIP3    H217537   5.257   2.642   0.663
 5866TIP3   OH217538   0.854   2.481   3.964
 5866TIP3    H117539   0.931   2.429   3.940
 5866TIP3    H217540   0.829   2.525   3.882
 5867TIP3   OH217541   4.125   0.784   4.176
 5867TIP3    H117542   4.147   0.841   4.249
 5867TIP3    H217543   4.150   0.833   4.098
 5868TIP3   OH217544   0.360   5.740   5.644
 5868TIP3    H117545   0.325   5.821   5.606
 5868TIP3    H217546   0.337   5.672   5.582
 5869TIP3   OH217547   4.470   1.231   2.647
 5869TIP3    H117548   4.391   1.283   2.637
 5869TIP3    H217549   4.457   1.183   2.729
 5870TIP3   OH217550   4.220   0.761   3.869
 5870TIP3    H117551   4.245   0.701   3.799
 5870TIP3    H217552   4.236   0.848   3.833
 5871TIP3   OH217553   1.448   2.261   2.587
 5871TIP3    H117554   1.447   2.304   2.502
 5871TIP3    H217555   1.534   2.282   2.624
 5872TIP3   OH217556   0.054   6.146   1.076
 5872TIP3    H117557   0.048   6.063   1.030
 5872TIP3    H217558   0.123   6.132   1.142
 5873TIP3   OH217559   6.770   5.451   6.582
 5873TIP3    H117560   6.740   5.504   6.656
 5873TIP3    H217561   6.840   5.502   6.542
 5874TIP3   OH217562   6.820   0.397   0.159
 5874TIP3    H117563   6.891   0.452   0.124
 5874TIP3    H217564   6.758   0.389   0.086
 5875TIP3   OH217565   8.147   6.442   5.109
 5875TIP3    H117566   8.214   6.496   5.067
 5875TIP3    H217567   8.119   6.381   5.040
 5876TIP3   OH217568   7.773   6.880   5.778
 5876TIP3    H117569   7.831   6.898   5.852
 5876TIP3    H217570   7.691   6.925   5.799
 5877TIP3   OH217571   2.529   5.395   1.895
 5877TIP3    H117572   2.473   5.444   1.834
 5877TIP3    H217573   2.618   5.412   1.864
 5878TIP3   OH217574   0.201   7.189   1.420
 5878TIP3    H117575   0.253   7.109   1.420
 5878TIP3    H217576   0.187   7.209   1.512
 5879TIP3   OH217577   7.475   6.036   1.630
 5879TIP3    H117578   7.407   5.968   1.628
 5879TIP3    H217579   7.426   6.119   1.634
 5880TIP3   OH217580   5.178   3.907   1.997
 5880TIP3    H117581   5.219   3.928   1.913
 5880TIP3    H217582   5.084   3.918   1.981
 5881TIP3   OH217583   1.909   7.352   0.860
 5881TIP3    H117584   1.919   7.384   0.950
 5881TIP3    H217585   1.982   7.391   0.813
 5882TIP3   OH217586   1.890   4.341   1.022
 5882TIP3    H117587   1.927   4.368   1.106
 5882TIP3    H217588   1.949   4.378   0.957
 5883TIP3   OH217589   8.315   1.782   3.770
 5883TIP3    H117590   8.245   1.769   3.834
 5883TIP3    H217591   8.281   1.744   3.688
 5884TIP3   OH217592   5.258   5.875   3.590
 5884TIP3    H117593   5.187   5.929   3.626
 5884TIP3    H217594   5.243   5.875   3.496
 5885TIP3   OH217595   2.247   0.469   5.952
 5885TIP3    H117596   2.321   0.486   6.010
 5885TIP3    H217597   2.226   0.555   5.915
 5886TIP3   OH217598   4.543   0.570   1.724
 5886TIP3    H117599   4.458   0.534   1.750
 5886TIP3    H217600   4.604   0.538   1.790
 5887TIP3   OH217601   2.566   7.822   5.527
 5887TIP3    H117602   2.574   7.918   5.534
 5887TIP3    H217603   2.552   7.806   5.434
 5888TIP3   OH217604   2.000   0.534   2.057
 5888TIP3    H117605   1.978   0.601   2.121
 5888TIP3    H217606   1.917   0.488   2.041
 5889TIP3   OH217607   6.547   6.935   4.582
 5889TIP3    H117608   6.549   6.891   4.497
 5889TIP3    H217609   6.528   7.026   4.562
 5890TIP3   OH217610   4.170   1.423   2.362
 5890TIP3    H117611   4.252   1.437   2.315
 5890TIP3    H217612   4.190   1.445   2.453
 5891TIP3   OH217613   2.865   1.442   1.709
 5891TIP3    H117614   2.923   1.508   1.670
 5891TIP3    H217615   2.812   1.491   1.772
 5892TIP3   OH217616   3.605   5.155   1.076
 5892TIP3    H117617   3.553   5.076   1.065
 5892TIP3    H217618   3.668   5.134   1.146
 5893TIP3   OH217619   2.736   4.803   3.861
 5893TIP3    H117620   2.679   4.778   3.934
 5893TIP3    H217621   2.728   4.898   3.856
 5894TIP3   OH217622   3.327   5.924   4.331
 5894TIP3    H117623   3.363   5.981   4.263
 5894TIP3    H217624   3.268   5.980   4.381
 5895TIP3   OH217625   0.026   0.492   4.050
 5895TIP3    H117626   0.098   0.552   4.068
 5895TIP3    H217627   0.039   0.466   3.959
 5896TIP3   OH217628   5.114   3.792   3.662
 5896TIP3    H117629   5.170   3.732   3.711
 5896TIP3    H217630   5.086   3.856   3.727
 5897TIP3   OH217631   2.450   5.214   2.373
 5897TIP3    H117632   2.527   5.181   2.419
 5897TIP3    H217633   2.379   5.207   2.438
 5898TIP3   OH217634   2.181   4.527   3.010
 5898TIP3    H117635   2.154   4.613   2.975
 5898TIP3    H217636   2.106   4.470   2.995
 5899TIP3   OH217637   4.531   5.498   5.559
 5899TIP3    H117638   4.452   5.521   5.510
 5899TIP3    H217639   4.585   5.452   5.495
 5900TIP3   OH217640   1.549   5.162   0.198
 5900TIP3    H117641   1.630   5.158   0.149
 5900TIP3    H217642   1.562   5.234   0.261
 5901TIP3   OH217643   6.358   3.150   1.763
 5901TIP3    H117644   6.310   3.232   1.750
 5901TIP3    H217645   6.450   3.176   1.759
 5902TIP3   OH217646   2.088   2.624   2.726
 5902TIP3    H117647   2.114   2.542   2.767
 5902TIP3    H217648   1.993   2.625   2.734
 5903TIP3   OH217649   5.529   6.809   4.196
 5903TIP3    H117650   5.614   6.813   4.239
 5903TIP3    H217651   5.480   6.743   4.245
 5904TIP3   OH217652   5.584   5.165   0.811
 5904TIP3    H117653   5.668   5.204   0.786
 5904TIP3    H217654   5.580   5.083   0.761
 5905TIP3   OH217655   8.166   1.772   2.168
 5905TIP3    H117656   8.192   1.847   2.222
 5905TIP3    H217657   8.080   1.796   2.134
 5906TIP3   OH217658   5.401   4.173   4.209
 5906TIP3    H117659   5.396   4.264   4.236
 5906TIP3    H217660   5.395   4.123   4.290
 5907TIP3   OH217661   2.136   1.325   4.057
 5907TIP3    H117662   2.063   1.262   4.066
 5907TIP3    H217663   2.167   1.337   4.146
 5908TIP3   OH217664   6.822   0.410   0.496
 5908TIP3    H117665   6.796   0.479   0.435
 5908TIP3    H217666   6.873   0.349   0.442
 5909TIP3   OH217667   1.071   7.283   3.444
 5909TIP3    H117668   1.047   7.244   3.360
 5909TIP3    H217669   1.137   7.349   3.421
 5910TIP3   OH217670   1.906   6.224   5.901
 5910TIP3    H117671   1.920   6.192   5.812
 5910TIP3    H217672   1.813   6.211   5.917
 5911TIP3   OH217673   7.523   5.049   3.535
 5911TIP3    H117674   7.505   5.021   3.445
 5911TIP3    H217675   7.579   5.126   3.526
 5912TIP3   OH217676   5.576   5.202   3.865
 5912TIP3    H117677   5.510   5.228   3.930
 5912TIP3    H217678   5.657   5.242   3.897
 5913TIP3   OH217679   1.705   6.619   2.993
 5913TIP3    H117680   1.673   6.708   2.982
 5913TIP3    H217681   1.625   6.566   3.005
 5914TIP3   OH217682   2.632   0.140   6.324
 5914TIP3    H117683   2.550   0.133   6.276
 5914TIP3    H217684   2.614   0.097   6.408
 5915TIP3   OH217685   7.973   2.746   4.375
 5915TIP3    H117686   7.942   2.779   4.290
 5915TIP3    H217687   7.995   2.824   4.425
 5916TIP3   OH217688   1.200   0.547   1.821
 5916TIP3    H117689   1.153   0.625   1.851
 5916TIP3    H217690   1.140   0.507   1.758
 5917TIP3   OH217691   3.087   0.196   6.710
 5917TIP3    H117692   3.100   0.104   6.734
 5917TIP3    H217693   3.063   0.238   6.792
 5918TIP3   OH217694   0.061   0.920   2.623
 5918TIP3    H117695   0.093   0.998   2.668
 5918TIP3    H217696  -0.014   0.951   2.571
 5919TIP3   OH217697   5.127   6.379   4.184
 5919TIP3    H117698   5.144   6.470   4.161
 5919TIP3    H217699   5.104   6.382   4.277
 5920TIP3   OH217700   1.394   1.397   2.728
 5920TIP3    H117701   1.416   1.440   2.645
 5920TIP3    H217702   1.366   1.469   2.786
 5921TIP3   OH217703   0.294   2.577   4.690
 5921TIP3    H117704   0.209   2.591   4.731
 5921TIP3    H217705   0.352   2.554   4.763
 5922TIP3   OH217706   2.463   0.526   6.103
 5922TIP3    H117707   2.550   0.498   6.075
 5922TIP3    H217708   2.473   0.618   6.126
 5923TIP3   OH217709   1.096   1.818   0.847
 5923TIP3    H117710   1.025   1.819   0.782
 5923TIP3    H217711   1.170   1.856   0.801
 5924TIP3   OH217712   6.698   3.499   1.512
 5924TIP3    H117713   6.762   3.449   1.563
 5924TIP3    H217714   6.656   3.556   1.577
 5925TIP3   OH217715   8.117   2.010   2.720
 5925TIP3    H117716   8.039   2.049   2.680
 5925TIP3    H217717   8.191   2.054   2.678
 5926TIP3   OH217718   8.199   1.819   4.183
 5926TIP3    H117719   8.165   1.784   4.101
 5926TIP3    H217720   8.250   1.896   4.157
 5927TIP3   OH217721   7.306   0.343   0.684
 5927TIP3    H117722   7.270   0.427   0.658
 5927TIP3    H217723   7.335   0.302   0.602
 5928TIP3   OH217724   7.155   3.989   0.456
 5928TIP3    H117725   7.243   4.028   0.455
 5928TIP3    H217726   7.155   3.929   0.381
 5929TIP3   OH217727   3.453   2.978   5.471
 5929TIP3    H117728   3.369   2.933   5.459
 5929TIP3    H217729   3.475   2.962   5.563
 5930TIP3   OH217730   3.494   2.468   4.615
 5930TIP3    H117731   3.534   2.467   4.703
 5930TIP3    H217732   3.484   2.560   4.594
 5931TIP3   OH217733   7.186   2.828   2.556
 5931TIP3    H117734   7.182   2.886   2.479
 5931TIP3    H217735   7.145   2.747   2.526
 5932TIP3   OH217736   7.986   3.566   1.778
 5932TIP3    H117737   7.986   3.656   1.745
 5932TIP3    H217738   7.968   3.512   1.701
 5933TIP3   OH217739   4.614   3.148   6.368
 5933TIP3    H117740   4.573   3.062   6.383
 5933TIP3    H217741   4.543   3.202   6.334
 5934TIP3   OH217742   7.220   1.621   5.284
 5934TIP3    H117743   7.247   1.560   5.215
 5934TIP3    H217744   7.302   1.649   5.324
 5935TIP3   OH217745   7.781   6.796   5.446
 5935TIP3    H117746   7.723   6.867   5.420
 5935TIP3    H217747   7.790   6.741   5.368
 5936TIP3   OH217748   6.335   2.376   4.142
 5936TIP3    H117749   6.280   2.408   4.071
 5936TIP3    H217750   6.404   2.442   4.151
 5937TIP3   OH217751   3.952   6.206   2.784
 5937TIP3    H117752   3.954   6.197   2.689
 5937TIP3    H217753   3.874   6.257   2.803
 5938TIP3   OH217754   2.499   3.728   6.709
 5938TIP3    H117755   2.512   3.811   6.754
 5938TIP3    H217756   2.437   3.748   6.639
 5939TIP3   OH217757   8.153   4.851   4.917
 5939TIP3    H117758   8.191   4.927   4.961
 5939TIP3    H217759   8.216   4.830   4.847
 5940TIP3   OH217760   2.495   4.534   1.450
 5940TIP3    H117761   2.540   4.575   1.524
 5940TIP3    H217762   2.539   4.570   1.372
 5941TIP3   OH217763   5.303   0.314   2.101
 5941TIP3    H117764   5.242   0.250   2.065
 5941TIP3    H217765   5.284   0.395   2.053
 5942TIP3   OH217766   3.166   0.269   0.032
 5942TIP3    H117767   3.230   0.258   0.102
 5942TIP3    H217768   3.082   0.280   0.077
 5943TIP3   OH217769   2.239   1.600   4.735
 5943TIP3    H117770   2.312   1.601   4.798
 5943TIP3    H217771   2.165   1.634   4.784
 5944TIP3   OH217772   1.677   3.029   0.380
 5944TIP3    H117773   1.713   3.068   0.300
 5944TIP3    H217774   1.749   3.032   0.443
 5945TIP3   OH217775   6.032   6.956   6.303
 5945TIP3    H117776   5.999   6.965   6.392
 5945TIP3    H217777   5.968   7.004   6.249
 5946TIP3   OH217778   3.166   6.578   5.461
 5946TIP3    H117779   3.240   6.556   5.405
 5946TIP3    H217780   3.089   6.544   5.416
 5947TIP3   OH217781   8.209   2.661   5.191
 5947TIP3    H117782   8.206   2.754   5.168
 5947TIP3    H217783   8.252   2.659   5.276
 5948TIP3   OH217784   4.150   6.074   0.811
 5948TIP3    H117785   4.137   5.990   0.768
 5948TIP3    H217786   4.241   6.072   0.841
 5949TIP3   OH217787   5.493   3.999   5.101
 5949TIP3    H117788   5.507   3.917   5.054
 5949TIP3    H217789   5.455   4.058   5.035
 5950TIP3   OH217790   0.646   5.083   4.825
 5950TIP3    H117791   0.740   5.102   4.832
 5950TIP3    H217792   0.623   5.109   4.736
 5951TIP3   OH217793   4.124   7.447   2.112
 5951TIP3    H117794   4.195   7.428   2.174
 5951TIP3    H217795   4.167   7.497   2.042
 5952TIP3   OH217796   7.453   5.568   6.667
 5952TIP3    H117797   7.464   5.561   6.762
 5952TIP3    H217798   7.370   5.614   6.656
 5953TIP3   OH217799   4.345   3.307   0.395
 5953TIP3    H117800   4.368   3.238   0.332
 5953TIP3    H217801   4.278   3.359   0.350
 5954TIP3   OH217802   2.364   1.029   5.338
 5954TIP3    H117803   2.435   1.068   5.288
 5954TIP3    H217804   2.359   1.081   5.418
 5955TIP3   OH217805   6.845   4.471   2.078
 5955TIP3    H117806   6.924   4.419   2.094
 5955TIP3    H217807   6.782   4.439   2.143
 5956TIP3   OH217808   0.083   1.414   4.287
 5956TIP3    H117809   0.039   1.497   4.271
 5956TIP3    H217810   0.110   1.383   4.201
 5957TIP3   OH217811   5.802   4.945   6.486
 5957TIP3    H117812   5.727   4.975   6.436
 5957TIP3    H217813   5.856   5.023   6.499
 5958TIP3   OH217814   2.647   4.502   0.873
 5958TIP3    H117815   2.651   4.586   0.919
 5958TIP3    H217816   2.672   4.437   0.939
 5959TIP3   OH217817   5.779   3.556   0.739
 5959TIP3    H117818   5.837   3.502   0.791
 5959TIP3    H217819   5.744   3.621   0.800
 5960TIP3   OH217820   5.594   5.692   3.345
 5960TIP3    H117821   5.653   5.699   3.271
 5960TIP3    H217822   5.623   5.614   3.393
 5961TIP3   OH217823   1.320   7.546   3.933
 5961TIP3    H117824   1.357   7.632   3.954
 5961TIP3    H217825   1.273   7.560   3.851
 5962TIP3   OH217826   7.831   4.511   5.180
 5962TIP3    H117827   7.922   4.540   5.173
 5962TIP3    H217828   7.833   4.420   5.149
 5963TIP3   OH217829   2.892   2.952   2.006
 5963TIP3    H117830   2.813   2.956   2.061
 5963TIP3    H217831   2.871   3.007   1.931
 5964TIP3   OH217832   4.126   0.226   2.239
 5964TIP3    H117833   4.035   0.255   2.245
 5964TIP3    H217834   4.135   0.159   2.306
 5965TIP3   OH217835   3.197   1.936   5.229
 5965TIP3    H117836   3.135   1.863   5.224
 5965TIP3    H217837   3.259   1.911   5.297
 5966TIP3   OH217838   0.962   3.076   0.262
 5966TIP3    H117839   1.025   3.147   0.272
 5966TIP3    H217840   0.938   3.077   0.170
 5967TIP3   OH217841   7.853   4.566   3.871
 5967TIP3    H117842   7.930   4.598   3.917
 5967TIP3    H217843   7.886   4.532   3.788
 5968TIP3   OH217844   5.409   5.318   2.469
 5968TIP3    H117845   5.491   5.333   2.516
 5968TIP3    H217846   5.345   5.373   2.514
 5969TIP3   OH217847   3.778   6.193   6.450
 5969TIP3    H117848   3.771   6.098   6.440
 5969TIP3    H217849   3.697   6.218   6.495
 5970TIP3   OH217850   3.815   7.678   0.452
 5970TIP3    H117851   3.800   7.764   0.413
 5970TIP3    H217852   3.780   7.616   0.388
 5971TIP3   OH217853   6.013   0.176   2.078
 5971TIP3    H117854   5.928   0.216   2.060
 5971TIP3    H217855   6.003   0.139   2.166
 5972TIP3   OH217856   2.412   5.154   6.312
 5972TIP3    H117857   2.492   5.144   6.261
 5972TIP3    H217858   2.342   5.158   6.247
 5973TIP3   OH217859   3.695   5.535   4.002
 5973TIP3    H117860   3.626   5.544   4.068
 5973TIP3    H217861   3.677   5.604   3.939
 5974TIP3   OH217862   3.295   5.532   0.330
 5974TIP3    H117863   3.270   5.493   0.414
 5974TIP3    H217864   3.355   5.603   0.353
 5975TIP3   OH217865   3.117   6.091   4.269
 5975TIP3    H117866   3.110   6.145   4.347
 5975TIP3    H217867   3.188   6.131   4.218
 5976TIP3   OH217868   2.715   5.999   2.727
 5976TIP3    H117869   2.756   5.913   2.731
 5976TIP3    H217870   2.722   6.033   2.816
 5977TIP3   OH217871   3.182   1.741   1.377
 5977TIP3    H117872   3.223   1.827   1.388
 5977TIP3    H217873   3.092   1.761   1.352
 5978TIP3   OH217874   7.522   6.513   3.064
 5978TIP3    H117875   7.464   6.436   3.064
 5978TIP3    H217876   7.480   6.574   3.004
 5979TIP3   OH217877   7.434   7.550   3.423
 5979TIP3    H117878   7.466   7.463   3.401
 5979TIP3    H217879   7.346   7.536   3.457
 5980TIP3   OH217880   1.447   4.218   0.697
 5980TIP3    H117881   1.443   4.135   0.650
 5980TIP3    H217882   1.540   4.230   0.716
 5981TIP3   OH217883   6.877   4.445   0.609
 5981TIP3    H117884   6.864   4.389   0.532
 5981TIP3    H217885   6.819   4.520   0.594
 5982TIP3   OH217886   5.568   0.308   4.638
 5982TIP3    H117887   5.484   0.263   4.645
 5982TIP3    H217888   5.595   0.324   4.728
 5983TIP3   OH217889   5.057   6.034   1.829
 5983TIP3    H117890   5.115   5.975   1.878
 5983TIP3    H217891   5.068   6.119   1.871
 5984TIP3   OH217892   0.727   6.730   5.742
 5984TIP3    H117893   0.813   6.702   5.713
 5984TIP3    H217894   0.672   6.723   5.664
 5985TIP3   OH217895   1.391   7.937   1.216
 5985TIP3    H117896   1.296   7.933   1.229
 5985TIP3    H217897   1.423   7.852   1.246
 5986TIP3   OH217898   0.358   2.413   6.743
 5986TIP3    H117899   0.434   2.355   6.746
 5986TIP3    H217900   0.309   2.393   6.822
 5987TIP3   OH217901   8.021   4.755   1.484
 5987TIP3    H117902   7.981   4.671   1.460
 5987TIP3    H217903   8.090   4.768   1.419
 5988TIP3   OH217904   4.772   7.111   0.638
 5988TIP3    H117905   4.849   7.053   0.640
 5988TIP3    H217906   4.807   7.198   0.656
 5989TIP3   OH217907   1.975   2.744   5.052
 5989TIP3    H117908   1.978   2.663   5.102
 5989TIP3    H217909   1.894   2.787   5.081
 5990TIP3   OH217910   3.408   5.682   1.955
 5990TIP3    H117911   3.346   5.686   2.028
 5990TIP3    H217912   3.370   5.737   1.887
 5991TIP3   OH217913   5.767   1.337   4.063
 5991TIP3    H117914   5.747   1.416   4.113
 5991TIP3    H217915   5.836   1.364   4.002
 5992TIP3   OH217916   1.600   1.074   5.626
 5992TIP3    H117917   1.573   1.162   5.653
 5992TIP3    H217918   1.534   1.016   5.664
 5993TIP3   OH217919   5.930   6.681   1.364
 5993TIP3    H117920   5.964   6.633   1.289
 5993TIP3    H217921   5.923   6.772   1.334
 5994TIP3   OH217922   6.911   0.599   2.873
 5994TIP3    H117923   6.861   0.648   2.938
 5994TIP3    H217924   6.845   0.565   2.813
 5995TIP3   OH217925   0.128   2.639   3.044
 5995TIP3    H117926   0.125   2.719   3.096
 5995TIP3    H217927   0.071   2.578   3.091
 5996TIP3   OH217928   0.619   7.884   4.926
 5996TIP3    H117929   0.524   7.897   4.923
 5996TIP3    H217930   0.630   7.790   4.937
 5997TIP3   OH217931   5.091   5.865   0.526
 5997TIP3    H117932   5.143   5.820   0.593
 5997TIP3    H217933   5.155   5.896   0.462
 5998TIP3   OH217934   2.946   2.954   5.977
 5998TIP3    H117935   2.924   3.030   6.031
 5998TIP3    H217936   2.909   2.880   6.024
 5999TIP3   OH217937   7.655   7.784   0.691
 5999TIP3    H117938   7.582   7.842   0.713
 5999TIP3    H217939   7.699   7.827   0.618
 6000TIP3   OH217940   7.536   1.443   4.307
 6000TIP3    H117941   7.557   1.534   4.329
 6000TIP3    H217942   7.505   1.406   4.389
 6001TIP3   OH217943   2.797   5.291   1.656
 6001TIP3    H117944   2.807   5.281   1.562
 6001TIP3    H217945   2.764   5.381   1.667
 6002TIP3   OH217946   0.320   2.752   4.215
 6002TIP3    H117947   0.317   2.659   4.192
 6002TIP3    H217948   0.265   2.759   4.293
 6003TIP3   OH217949   3.149   7.911   4.085
 6003TIP3    H117950   3.060   7.940   4.107
 6003TIP3    H217951   3.175   7.858   4.160
 6004TIP3   OH217952   1.751   6.533   1.674
 6004TIP3    H117953   1.722   6.560   1.761
 6004TIP3    H217954   1.834   6.578   1.661
 6005TIP3   OH217955   0.564   2.296   2.619
 6005TIP3    H117956   0.642   2.279   2.567
 6005TIP3    H217957   0.506   2.222   2.602
 6006TIP3   OH217958   4.907   6.089   0.574
 6006TIP3    H117959   4.967   6.017   0.593
 6006TIP3    H217960   4.962   6.168   0.576
 6007TIP3   OH217961   5.682   4.225   5.177
 6007TIP3    H117962   5.630   4.245   5.099
 6007TIP3    H217963   5.642   4.145   5.212
 6008TIP3   OH217964   6.797   3.696   1.863
 6008TIP3    H117965   6.841   3.659   1.939
 6008TIP3    H217966   6.733   3.757   1.899
 6009TIP3   OH217967   3.756   5.464   1.407
 6009TIP3    H117968   3.683   5.408   1.435
 6009TIP3    H217969   3.806   5.409   1.347
 6010TIP3   OH217970   0.193   5.361   2.198
 6010TIP3    H117971   0.137   5.284   2.184
 6010TIP3    H217972   0.133   5.427   2.233
 6011TIP3   OH217973   3.291   7.618   3.062
 6011TIP3    H117974   3.298   7.642   2.969
 6011TIP3    H217975   3.303   7.700   3.109
 6012TIP3   OH217976   5.775   4.200   0.424
 6012TIP3    H117977   5.704   4.146   0.458
 6012TIP3    H217978   5.829   4.220   0.500
 6013TIP3   OH217979   3.786   1.768   0.366
 6013TIP3    H117980   3.743   1.827   0.304
 6013TIP3    H217981   3.732   1.775   0.446
 6014TIP3   OH217982   2.024   5.190   3.982
 6014TIP3    H117983   2.063   5.234   3.907
 6014TIP3    H217984   1.993   5.106   3.947
 6015TIP3   OH217985   1.550   3.679   1.595
 6015TIP3    H117986   1.580   3.706   1.681
 6015TIP3    H217987   1.516   3.760   1.555
 6016TIP3   OH217988   4.366   7.447   6.715
 6016TIP3    H117989   4.452   7.475   6.684
 6016TIP3    H217990   4.335   7.386   6.647
 6017TIP3   OH217991   3.413   7.859   2.928
 6017TIP3    H117992   3.368   7.895   3.005
 6017TIP3    H217993   3.354   7.879   2.855
 6018TIP3   OH217994   4.396   3.887   3.110
 6018TIP3    H117995   4.312   3.868   3.067
 6018TIP3    H217996   4.399   3.983   3.116
 6019TIP3   OH217997   3.869   5.288   4.952
 6019TIP3    H117998   3.922   5.253   5.023
 6019TIP3    H217999   3.780   5.255   4.969
 6020TIP3   OH218000   7.750   0.420   5.589
 6020TIP3    H118001   7.763   0.467   5.671
 6020TIP3    H218002   7.828   0.441   5.537
 6021TIP3   OH218003   5.023   0.222   6.339
 6021TIP3    H118004   4.971   0.302   6.355
 6021TIP3    H218005   5.087   0.247   6.273
 6022TIP3   OH218006   2.707   3.511   2.683
 6022TIP3    H118007   2.630   3.477   2.637
 6022TIP3    H218008   2.734   3.439   2.740
 6023TIP3   OH218009   7.965   7.792   1.263
 6023TIP3    H118010   7.989   7.786   1.171
 6023TIP3    H218011   7.984   7.705   1.299
 6024TIP3   OH218012   6.940   3.881   5.025
 6024TIP3    H118013   7.011   3.944   5.039
 6024TIP3    H218014   6.949   3.854   4.934
 6025TIP3   OH218015   1.094   6.880   5.077
 6025TIP3    H118016   1.031   6.811   5.056
 6025TIP3    H218017   1.061   6.957   5.030
 6026TIP3   OH218018   4.128   2.127   2.944
 6026TIP3    H118019   4.069   2.057   2.917
 6026TIP3    H218020   4.071   2.203   2.958
 6027TIP3   OH218021   1.873   4.568   1.392
 6027TIP3    H118022   1.939   4.523   1.340
 6027TIP3    H218023   1.886   4.536   1.481
 6028TIP3   OH218024   5.435   4.372   4.674
 6028TIP3    H118025   5.466   4.337   4.591
 6028TIP3    H218026   5.496   4.444   4.694
 6029TIP3   OH218027   8.161   1.082   2.892
 6029TIP3    H118028   8.140   1.145   2.823
 6029TIP3    H218029   8.213   1.015   2.848
 6030TIP3   OH218030   1.417   0.926   1.058
 6030TIP3    H118031   1.349   0.875   1.101
 6030TIP3    H218032   1.416   1.010   1.103
 6031TIP3   OH218033   5.182   4.451   3.781
 6031TIP3    H118034   5.231   4.397   3.844
 6031TIP3    H218035   5.144   4.387   3.720
 6032TIP3   OH218036   5.787   1.246   4.466
 6032TIP3    H118037   5.716   1.221   4.406
 6032TIP3    H218038   5.767   1.199   4.546
 6033TIP3   OH218039   6.063   7.899   2.447
 6033TIP3    H118040   5.981   7.912   2.494
 6033TIP3    H218041   6.061   7.963   2.375
 6034TIP3   OH218042   1.635   1.207   0.863
 6034TIP3    H118043   1.591   1.230   0.945
 6034TIP3    H218044   1.565   1.205   0.798
 6035TIP3   OH218045   0.389   7.644   1.383
 6035TIP3    H118046   0.294   7.652   1.370
 6035TIP3    H218047   0.398   7.593   1.464
 6036TIP3   OH218048   7.636   1.497   1.412
 6036TIP3    H118049   7.588   1.556   1.470
 6036TIP3    H218050   7.655   1.550   1.335
 6037TIP3   OH218051   1.121   3.410   4.206
 6037TIP3    H118052   1.152   3.430   4.118
 6037TIP3    H218053   1.026   3.414   4.199
 6038TIP3   OH218054   4.816   3.162   4.398
 6038TIP3    H118055   4.826   3.079   4.444
 6038TIP3    H218056   4.880   3.158   4.327
 6039TIP3   OH218057   0.580   5.927   6.880
 6039TIP3    H118058   0.666   5.970   6.879
 6039TIP3    H218059   0.594   5.844   6.834
 6040TIP3   OH218060   3.504   2.867   5.882
 6040TIP3    H118061   3.428   2.917   5.912
 6040TIP3    H218062   3.535   2.914   5.805
 6041TIP3   OH218063   1.623   1.696   3.064
 6041TIP3    H118064   1.640   1.714   2.972
 6041TIP3    H218065   1.538   1.652   3.065
 6042TIP3   OH218066   2.469   6.182   2.065
 6042TIP3    H118067   2.457   6.145   1.978
 6042TIP3    H218068   2.395   6.148   2.116
 6043TIP3   OH218069   2.216   5.824   0.525
 6043TIP3    H118070   2.297   5.874   0.515
 6043TIP3    H218071   2.239   5.751   0.583
 6044TIP3   OH218072   1.882   7.355   1.211
 6044TIP3    H118073   1.926   7.433   1.244
 6044TIP3    H218074   1.834   7.320   1.286
 6045TIP3   OH218075   0.800   7.284   1.220
 6045TIP3    H118076   0.839   7.326   1.143
 6045TIP3    H218077   0.828   7.339   1.294
 6046TIP3   OH218078   1.431   2.932   2.906
 6046TIP3    H118079   1.462   3.007   2.855
 6046TIP3    H218080   1.501   2.915   2.968
 6047TIP3   OH218081   5.203   1.993   1.774
 6047TIP3    H118082   5.118   1.956   1.798
 6047TIP3    H218083   5.239   2.025   1.857
 6048TIP3   OH218084   7.291   6.768   6.692
 6048TIP3    H118085   7.221   6.816   6.647
 6048TIP3    H218086   7.283   6.794   6.784
 6049TIP3   OH218087   6.226   6.716   4.415
 6049TIP3    H118088   6.151   6.746   4.363
 6049TIP3    H218089   6.250   6.791   4.469
 6050TIP3   OH218090   2.065   7.154   1.125
 6050TIP3    H118091   2.040   7.237   1.165
 6050TIP3    H218092   2.161   7.159   1.117
 6051TIP3   OH218093   1.038   0.626   2.539
 6051TIP3    H118094   1.041   0.668   2.624
 6051TIP3    H218095   0.946   0.627   2.514
 6052TIP3   OH218096   1.711   4.864   2.642
 6052TIP3    H118097   1.653   4.823   2.578
 6052TIP3    H218098   1.794   4.877   2.596
 6053TIP3   OH218099   7.947   4.031   5.026
 6053TIP3    H118100   7.873   3.970   5.029
 6053TIP3    H218101   7.998   4.002   4.950
 6054TIP3   OH218102   5.317   7.160   1.382
 6054TIP3    H118103   5.340   7.136   1.472
 6054TIP3    H218104   5.400   7.188   1.343
 6055TIP3   OH218105   7.141   5.055   0.929
 6055TIP3    H118106   7.228   5.042   0.891
 6055TIP3    H218107   7.141   5.146   0.958
 6056TIP3   OH218108   2.327   3.870   6.452
 6056TIP3    H118109   2.385   3.936   6.490
 6056TIP3    H218110   2.293   3.911   6.373
 6057TIP3   OH218111   3.540   6.580   1.044
 6057TIP3    H118112   3.526   6.490   1.072
 6057TIP3    H218113   3.463   6.628   1.076
 6058TIP3   OH218114   3.547   1.876   0.247
 6058TIP3    H118115   3.473   1.905   0.193
 6058TIP3    H218116   3.556   1.944   0.313
 6059TIP3   OH218117   6.880   7.617   2.760
 6059TIP3    H118118   6.816   7.607   2.831
 6059TIP3    H218119   6.922   7.701   2.778
 6060TIP3   OH218120   5.125   1.860   4.013
 6060TIP3    H118121   5.076   1.778   4.003
 6060TIP3    H218122   5.060   1.929   4.002
 6061TIP3   OH218123   8.113   3.454   2.176
 6061TIP3    H118124   8.112   3.537   2.223
 6061TIP3    H218125   8.191   3.408   2.208
 6062TIP3   OH218126   6.805   5.185   3.050
 6062TIP3    H118127   6.885   5.151   3.010
 6062TIP3    H218128   6.741   5.115   3.042
 6063TIP3   OH218129   7.510   5.448   2.267
 6063TIP3    H118130   7.492   5.388   2.339
 6063TIP3    H218131   7.441   5.514   2.273
 6064TIP3   OH218132   1.022   6.278   4.303
 6064TIP3    H118133   1.103   6.232   4.283
 6064TIP3    H218134   1.045   6.371   4.296
 6065TIP3   OH218135   6.909   7.291   3.493
 6065TIP3    H118136   6.826   7.336   3.478
 6065TIP3    H218137   6.886   7.199   3.496
 6066TIP3   OH218138   1.547   2.981   6.320
 6066TIP3    H118139   1.589   2.942   6.396
 6066TIP3    H218140   1.454   2.987   6.343
 6067TIP3   OH218141   5.210   3.507   2.846
 6067TIP3    H118142   5.243   3.524   2.934
 6067TIP3    H218143   5.243   3.580   2.794
 6068TIP3   OH218144   0.485   4.370   3.974
 6068TIP3    H118145   0.518   4.371   3.885
 6068TIP3    H218146   0.408   4.427   3.972
 6069TIP3   OH218147   2.367   3.268   5.070
 6069TIP3    H118148   2.316   3.293   4.993
 6069TIP3    H218149   2.316   3.302   5.144
 6070TIP3   OH218150   7.619   6.074   6.108
 6070TIP3    H118151   7.579   5.991   6.136
 6070TIP3    H218152   7.565   6.103   6.035
 6071TIP3   OH218153   4.796   7.921   3.392
 6071TIP3    H118154   4.744   7.848   3.356
 6071TIP3    H218155   4.859   7.878   3.451
 6072TIP3   OH218156   5.262   6.052   3.317
 6072TIP3    H118157   5.358   6.059   3.320
 6072TIP3    H218158   5.245   5.985   3.251
 6073TIP3   OH218159   1.168   2.556   2.897
 6073TIP3    H118160   1.091   2.533   2.845
 6073TIP3    H218161   1.171   2.652   2.894
 6074TIP3   OH218162   0.695   3.374   0.528
 6074TIP3    H118163   0.731   3.355   0.615
 6074TIP3    H218164   0.723   3.463   0.510
 6075TIP3   OH218165   4.794   0.627   6.035
 6075TIP3    H118166   4.832   0.545   6.065
 6075TIP3    H218167   4.703   0.624   6.064
 6076TIP3   OH218168   6.793   1.317   4.332
 6076TIP3    H118169   6.767   1.375   4.403
 6076TIP3    H218170   6.711   1.279   4.301
 6077TIP3   OH218171   0.452   0.048   6.774
 6077TIP3    H118172   0.531  -0.005   6.784
 6077TIP3    H218173   0.436   0.050   6.680
 6078TIP3   OH218174   6.183   0.607   0.916
 6078TIP3    H118175   6.121   0.546   0.877
 6078TIP3    H218176   6.268   0.563   0.908
 6079TIP3   OH218177   3.857   1.312   0.102
 6079TIP3    H118178   3.907   1.388   0.131
 6079TIP3    H218179   3.794   1.346   0.039
 6080TIP3   OH218180   1.977   7.807   5.334
 6080TIP3    H118181   1.931   7.875   5.285
 6080TIP3    H218182   2.053   7.786   5.279
 6081TIP3   OH218183   1.932   1.952   2.885
 6081TIP3    H118184   1.847   1.969   2.926
 6081TIP3    H218185   1.912   1.938   2.792
 6082TIP3   OH218186   0.009   2.760   0.392
 6082TIP3    H118187   0.102   2.750   0.412
 6082TIP3    H218188   0.006   2.763   0.296
 6083TIP3   OH218189   4.134   3.845   2.708
 6083TIP3    H118190   4.073   3.771   2.705
 6083TIP3    H218191   4.106   3.897   2.782
 6084TIP3   OH218192   8.198   3.478   3.713
 6084TIP3    H118193   8.253   3.409   3.677
 6084TIP3    H218194   8.110   3.440   3.713
 6085TIP3   OH218195   3.591   0.965   1.926
 6085TIP3    H118196   3.516   0.957   1.867
 6085TIP3    H218197   3.660   1.004   1.872
 6086TIP3   OH218198   7.989   4.821   6.526
 6086TIP3    H118199   7.909   4.767   6.532
 6086TIP3    H218200   7.968   4.887   6.460
 6087TIP3   OH218201   3.328   3.951   0.750
 6087TIP3    H118202   3.286   4.034   0.727
 6087TIP3    H218203   3.260   3.885   0.736
 6088TIP3   OH218204   3.154   7.561   4.517
 6088TIP3    H118205   3.185   7.532   4.432
 6088TIP3    H218206   3.142   7.656   4.507
 6089TIP3   OH218207   1.374   3.192   1.397
 6089TIP3    H118208   1.297   3.140   1.423
 6089TIP3    H218209   1.377   3.264   1.460
 6090TIP3   OH218210   0.863   0.533   1.062
 6090TIP3    H118211   0.906   0.613   1.034
 6090TIP3    H218212   0.775   0.560   1.088
 6091TIP3   OH218213   0.157   7.575   5.087
 6091TIP3    H118214   0.113   7.518   5.151
 6091TIP3    H218215   0.230   7.613   5.135
 6092TIP3   OH218216   7.768   3.316   5.304
 6092TIP3    H118217   7.711   3.244   5.277
 6092TIP3    H218218   7.778   3.305   5.398
 6093TIP3   OH218219   7.334   6.880   6.175
 6093TIP3    H118220   7.347   6.877   6.270
 6093TIP3    H218221   7.311   6.971   6.157
 6094TIP3   OH218222   0.121   0.249   4.174
 6094TIP3    H118223   0.107   0.343   4.185
 6094TIP3    H218224   0.111   0.213   4.262
 6095TIP3   OH218225   1.344   3.082   1.151
 6095TIP3    H118226   1.310   3.158   1.103
 6095TIP3    H218227   1.367   3.116   1.237
 6096TIP3   OH218228   7.851   5.009   2.292
 6096TIP3    H118229   7.812   5.096   2.287
 6096TIP3    H218230   7.902   5.010   2.373
 6097TIP3   OH218231   1.698   2.197   2.730
 6097TIP3    H118232   1.659   2.277   2.766
 6097TIP3    H218233   1.792   2.213   2.733
 6098TIP3   OH218234   1.274   7.881   2.862
 6098TIP3    H118235   1.186   7.858   2.892
 6098TIP3    H218236   1.331   7.813   2.899
 6099TIP3   OH218237   1.211   5.764   0.241
 6099TIP3    H118238   1.196   5.856   0.264
 6099TIP3    H218239   1.149   5.715   0.294
 6100TIP3   OH218240   8.105   1.022   5.036
 6100TIP3    H118241   8.126   1.102   4.988
 6100TIP3    H218242   8.135   0.951   4.979
 6101TIP3   OH218243   2.871   6.937   4.782
 6101TIP3    H118244   2.836   6.976   4.702
 6101TIP3    H218245   2.946   6.885   4.753
 6102TIP3   OH218246   5.594   5.772   4.691
 6102TIP3    H118247   5.631   5.744   4.775
 6102TIP3    H218248   5.505   5.736   4.691
 6103TIP3   OH218249   4.979   2.730   3.210
 6103TIP3    H118250   5.052   2.706   3.268
 6103TIP3    H218251   4.901   2.721   3.265
 6104TIP3   OH218252   1.361   5.141   3.476
 6104TIP3    H118253   1.311   5.155   3.396
 6104TIP3    H218254   1.442   5.100   3.446
 6105TIP3   OH218255   4.247   4.210   5.749
 6105TIP3    H118256   4.231   4.156   5.671
 6105TIP3    H218257   4.300   4.283   5.716
 6106TIP3   OH218258   5.732   0.238   6.731
 6106TIP3    H118259   5.805   0.203   6.781
 6106TIP3    H218260   5.704   0.166   6.674
 6107TIP3   OH218261   5.395   7.576   3.898
 6107TIP3    H118262   5.419   7.484   3.906
 6107TIP3    H218263   5.380   7.589   3.804
 6108TIP3   OH218264   4.062   2.531   6.718
 6108TIP3    H118265   4.124   2.594   6.754
 6108TIP3    H218266   4.098   2.446   6.742
 6109TIP3   OH218267   3.139   0.086   6.323
 6109TIP3    H118268   3.077   0.113   6.256
 6109TIP3    H218269   3.157  -0.006   6.304
 6110TIP3   OH218270   8.142   0.151   0.203
 6110TIP3    H118271   8.061   0.191   0.235
 6110TIP3    H218272   8.210   0.215   0.221
 6111TIP3   OH218273   2.518   7.075   2.765
 6111TIP3    H118274   2.606   7.112   2.758
 6111TIP3    H218275   2.476   7.126   2.834
 6112TIP3   OH218276   3.324   4.674   5.399
 6112TIP3    H118277   3.364   4.628   5.325
 6112TIP3    H218278   3.396   4.685   5.461
 6113TIP3   OH218279   3.773   0.170   3.899
 6113TIP3    H118280   3.716   0.103   3.937
 6113TIP3    H218281   3.838   0.187   3.967
 6114TIP3   OH218282   6.117   7.008   1.240
 6114TIP3    H118283   6.186   6.957   1.198
 6114TIP3    H218284   6.163   7.064   1.303
 6115TIP3   OH218285   7.037   0.597   2.618
 6115TIP3    H118286   6.977   0.669   2.638
 6115TIP3    H218287   7.115   0.615   2.671
 6116TIP3   OH218288   1.477   1.102   4.221
 6116TIP3    H118289   1.382   1.097   4.212
 6116TIP3    H218290   1.509   1.116   4.131
 6117TIP3   OH218291   6.529   7.064   5.896
 6117TIP3    H118292   6.506   7.156   5.910
 6117TIP3    H218293   6.501   7.019   5.976
 6118TIP3   OH218294   2.006   5.812   1.310
 6118TIP3    H118295   1.995   5.893   1.261
 6118TIP3    H218296   1.953   5.748   1.263
 6119TIP3   OH218297   1.310  -0.035   5.416
 6119TIP3    H118298   1.405  -0.029   5.416
 6119TIP3    H218299   1.280   0.048   5.379
 6120TIP3   OH218300   3.283   7.967   0.659
 6120TIP3    H118301   3.188   7.959   0.658
 6120TIP3    H218302   3.315   7.878   0.642
 6121TIP3   OH218303   5.756   4.732   4.486
 6121TIP3    H118304   5.717   4.771   4.565
 6121TIP3    H218305   5.700   4.762   4.415
 6122TIP3   OH218306   0.006   1.209   4.957
 6122TIP3    H118307   0.021   1.280   5.020
 6122TIP3    H218308   0.005   1.253   4.872
 6123TIP3   OH218309   0.323   5.465   3.368
 6123TIP3    H118310   0.281   5.546   3.338
 6123TIP3    H218311   0.299   5.400   3.302
 6124TIP3   OH218312   0.782   0.473   1.526
 6124TIP3    H118313   0.812   0.524   1.450
 6124TIP3    H218314   0.761   0.539   1.592
 6125TIP3   OH218315   5.804   3.227   4.517
 6125TIP3    H118316   5.798   3.154   4.579
 6125TIP3    H218317   5.846   3.189   4.439
 6126TIP3   OH218318   7.738   3.798   2.897
 6126TIP3    H118319   7.738   3.836   2.985
 6126TIP3    H218320   7.738   3.704   2.912
 6127TIP3   OH218321   3.385   4.710   5.734
 6127TIP3    H118322   3.446   4.742   5.668
 6127TIP3    H218323   3.380   4.780   5.798
 6128TIP3   OH218324   7.100   6.188   2.525
 6128TIP3    H118325   7.099   6.122   2.594
 6128TIP3    H218326   7.183   6.234   2.536
 6129TIP3   OH218327   4.257   0.178   1.583
 6129TIP3    H118328   4.196   0.196   1.654
 6129TIP3    H218329   4.249   0.084   1.567
 6130TIP3   OH218330   1.563   6.008   2.668
 6130TIP3    H118331   1.556   5.925   2.620
 6130TIP3    H218332   1.647   6.003   2.712
 6131TIP3   OH218333   0.323   6.131   3.472
 6131TIP3    H118334   0.409   6.143   3.513
 6131TIP3    H218335   0.277   6.071   3.530
 6132TIP3   OH218336   0.118   6.038   0.280
 6132TIP3    H118337   0.061   6.112   0.260
 6132TIP3    H218338   0.118   6.033   0.376
 6133TIP3   OH218339   0.729   6.165   2.875
 6133TIP3    H118340   0.675   6.242   2.856
 6133TIP3    H218341   0.801   6.170   2.812
 6134TIP3   OH218342   8.367   5.924   6.250
 6134TIP3    H118343   8.428   5.982   6.204
 6134TIP3    H218344   8.285   5.931   6.201
 6135TIP3   OH218345   6.654   7.652   4.788
 6135TIP3    H118346   6.606   7.662   4.870
 6135TIP3    H218347   6.680   7.559   4.787
 6136TIP3   OH218348   6.632   3.770   5.669
 6136TIP3    H118349   6.685   3.838   5.627
 6136TIP3    H218350   6.621   3.800   5.759
 6137TIP3   OH218351   6.144   0.239   0.426
 6137TIP3    H118352   6.074   0.219   0.488
 6137TIP3    H218353   6.167   0.330   0.444
 6138TIP3   OH218354   4.256   5.229   2.006
 6138TIP3    H118355   4.234   5.295   2.071
 6138TIP3    H218356   4.326   5.178   2.046
 6139TIP3   OH218357   7.102   6.417   4.506
 6139TIP3    H118358   7.152   6.353   4.557
 6139TIP3    H218359   7.029   6.442   4.562
 6140TIP3   OH218360   6.053   6.256   5.448
 6140TIP3    H118361   5.964   6.222   5.442
 6140TIP3    H218362   6.069   6.299   5.364
 6141TIP3   OH218363   3.104   7.365   2.281
 6141TIP3    H118364   3.046   7.303   2.326
 6141TIP3    H218365   3.161   7.399   2.350
 6142TIP3   OH218366   2.202   1.017   1.237
 6142TIP3    H118367   2.246   1.072   1.302
 6142TIP3    H218368   2.109   1.037   1.246
 6143TIP3   OH218369   7.545   5.294   2.884
 6143TIP3    H118370   7.635   5.272   2.909
 6143TIP3    H218371   7.554   5.373   2.830
 6144TIP3   OH218372   8.188   4.968   0.516
 6144TIP3    H118373   8.274   5.008   0.519
 6144TIP3    H218374   8.141   5.006   0.590
 6145TIP3   OH218375   7.294   7.544   1.968
 6145TIP3    H118376   7.386   7.563   1.985
 6145TIP3    H218377   7.247   7.612   2.016
 6146TIP3   OH218378   0.676   3.065   1.807
 6146TIP3    H118379   0.615   3.012   1.859
 6146TIP3    H218380   0.622   3.137   1.773
 6147TIP3   OH218381   2.351   2.058   6.840
 6147TIP3    H118382   2.418   1.990   6.835
 6147TIP3    H218383   2.281   2.018   6.892
 6148TIP3   OH218384   2.170   6.095   1.567
 6148TIP3    H118385   2.076   6.084   1.551
 6148TIP3    H218386   2.174   6.152   1.644
 6149TIP3   OH218387   7.468   3.581   2.011
 6149TIP3    H118388   7.554   3.550   2.039
 6149TIP3    H218389   7.486   3.640   1.938
 6150TIP3   OH218390   7.348   6.209   5.570
 6150TIP3    H118391   7.384   6.162   5.494
 6150TIP3    H218392   7.269   6.159   5.593
 6151TIP3   OH218393   6.190   3.072   3.696
 6151TIP3    H118394   6.104   3.082   3.736
 6151TIP3    H218395   6.173   3.074   3.602
 6152TIP3   OH218396   4.630   3.334   4.526
 6152TIP3    H118397   4.614   3.297   4.613
 6152TIP3    H218398   4.709   3.289   4.495
 6153TIP3   OH218399   3.930   6.763   4.245
 6153TIP3    H118400   3.868   6.829   4.276
 6153TIP3    H218401   3.903   6.682   4.288
 6154TIP3   OH218402   1.944   2.090   5.738
 6154TIP3    H118403   1.909   2.014   5.785
 6154TIP3    H218404   1.896   2.164   5.775
 6155TIP3   OH218405   0.300   3.335   5.025
 6155TIP3    H118406   0.283   3.399   5.095
 6155TIP3    H218407   0.241   3.263   5.043
 6156TIP3   OH218408   2.560   3.289   1.788
 6156TIP3    H118409   2.553   3.264   1.880
 6156TIP3    H218410   2.491   3.240   1.744
 6157TIP3   OH218411   0.120   3.328   5.700
 6157TIP3    H118412   0.106   3.236   5.721
 6157TIP3    H218413   0.070   3.376   5.767
 6158TIP3   OH218414   0.783   2.694   3.804
 6158TIP3    H118415   0.802   2.739   3.886
 6158TIP3    H218416   0.689   2.675   3.809
 6159TIP3   OH218417   4.364   3.151   2.029
 6159TIP3    H118418   4.405   3.149   1.942
 6159TIP3    H218419   4.285   3.097   2.019
 6160TIP3   OH218420   1.210   3.868   5.850
 6160TIP3    H118421   1.225   3.898   5.760
 6160TIP3    H218422   1.121   3.896   5.871
 6161TIP3   OH218423   5.606   0.787   5.603
 6161TIP3    H118424   5.614   0.788   5.507
 6161TIP3    H218425   5.544   0.857   5.622
 6162TIP3   OH218426   6.191   7.235   2.470
 6162TIP3    H118427   6.188   7.140   2.481
 6162TIP3    H218428   6.284   7.255   2.464
 6163TIP3   OH218429   4.509   6.318   1.413
 6163TIP3    H118430   4.481   6.350   1.499
 6163TIP3    H218431   4.577   6.380   1.385
 6164TIP3   OH218432   0.845   4.792   2.847
 6164TIP3    H118433   0.919   4.733   2.833
 6164TIP3    H218434   0.885   4.872   2.884
 6165TIP3   OH218435   3.951   1.879   1.659
 6165TIP3    H118436   3.978   1.876   1.567
 6165TIP3    H218437   3.865   1.838   1.659
 6166TIP3   OH218438   4.891   2.005   4.009
 6166TIP3    H118439   4.843   1.951   3.947
 6166TIP3    H218440   4.824   2.043   4.066
 6167TIP3   OH218441   8.267   4.728   3.716
 6167TIP3    H118442   8.232   4.711   3.803
 6167TIP3    H218443   8.293   4.641   3.684
 6168TIP3   OH218444   5.737   1.648   2.348
 6168TIP3    H118445   5.805   1.587   2.318
 6168TIP3    H218446   5.758   1.731   2.304
 6169TIP3   OH218447   2.433   3.546   4.911
 6169TIP3    H118448   2.350   3.515   4.948
 6169TIP3    H218449   2.421   3.641   4.903
 6170TIP3   OH218450   0.911   1.408   0.568
 6170TIP3    H118451   0.842   1.378   0.510
 6170TIP3    H218452   0.869   1.473   0.624
 6171TIP3   OH218453   2.463   0.539   2.730
 6171TIP3    H118454   2.544   0.582   2.759
 6171TIP3    H218455   2.481   0.514   2.639
 6172TIP3   OH218456   7.381   4.631   2.378
 6172TIP3    H118457   7.463   4.613   2.332
 6172TIP3    H218458   7.317   4.576   2.334
 6173TIP3   OH218459   6.195   1.618   4.971
 6173TIP3    H118460   6.141   1.563   4.915
 6173TIP3    H218461   6.133   1.674   5.017
 6174TIP3   OH218462   4.218   4.125   1.738
 6174TIP3    H118463   4.249   4.105   1.650
 6174TIP3    H218464   4.212   4.040   1.781
 6175TIP3   OH218465   4.279   3.005   0.444
 6175TIP3    H118466   4.288   3.033   0.353
 6175TIP3    H218467   4.185   3.008   0.462
 6176TIP3   OH218468   2.224   6.714   2.290
 6176TIP3    H118469   2.141   6.749   2.323
 6176TIP3    H218470   2.217   6.619   2.302
 6177TIP3   OH218471   3.971   7.674   4.796
 6177TIP3    H118472   3.992   7.625   4.876
 6177TIP3    H218473   4.044   7.735   4.785
 6178TIP3   OH218474   2.643   0.443   4.649
 6178TIP3    H118475   2.567   0.414   4.701
 6178TIP3    H218476   2.646   0.538   4.661
 6179TIP3   OH218477   4.537   3.148   5.805
 6179TIP3    H118478   4.525   3.098   5.885
 6179TIP3    H218479   4.544   3.239   5.834
 6180TIP3   OH218480   2.203   7.109   1.565
 6180TIP3    H118481   2.249   7.183   1.525
 6180TIP3    H218482   2.264   7.077   1.631
 6181TIP3   OH218483   0.975   0.598   4.415
 6181TIP3    H118484   1.067   0.573   4.405
 6181TIP3    H218485   0.926   0.516   4.400
 6182TIP3   OH218486   5.866   6.226   3.087
 6182TIP3    H118487   5.957   6.209   3.113
 6182TIP3    H218488   5.816   6.213   3.168
 6183TIP3   OH218489   7.754   6.888   1.191
 6183TIP3    H118490   7.815   6.819   1.167
 6183TIP3    H218491   7.804   6.945   1.250
 6184TIP3   OH218492   0.874   3.948   2.954
 6184TIP3    H118493   0.968   3.933   2.960
 6184TIP3    H218494   0.834   3.861   2.962
 6185TIP3   OH218495   1.664   6.202   0.105
 6185TIP3    H118496   1.642   6.295   0.111
 6185TIP3    H218497   1.744   6.192   0.156
 6186TIP3   OH218498   2.635   3.379   5.002
 6186TIP3    H118499   2.695   3.404   4.931
 6186TIP3    H218500   2.551   3.418   4.977
 6187TIP3   OH218501   1.168   5.974   6.034
 6187TIP3    H118502   1.209   6.042   5.981
 6187TIP3    H218503   1.241   5.918   6.061
 6188TIP3   OH218504   6.607   2.494   1.610
 6188TIP3    H118505   6.568   2.577   1.585
 6188TIP3    H218506   6.541   2.428   1.586
 6189TIP3   OH218507   1.559   6.887   4.650
 6189TIP3    H118508   1.613   6.964   4.635
 6189TIP3    H218509   1.519   6.901   4.736
 6190TIP3   OH218510   8.409   3.859   4.151
 6190TIP3    H118511   8.420   3.953   4.145
 6190TIP3    H218512   8.328   3.841   4.102
 6191TIP3   OH218513   6.316   7.876   6.800
 6191TIP3    H118514   6.368   7.800   6.825
 6191TIP3    H218515   6.377   7.949   6.804
 6192TIP3   OH218516   1.106   0.375   1.515
 6192TIP3    H118517   1.069   0.301   1.564
 6192TIP3    H218518   1.050   0.383   1.437
 6193TIP3   OH218519   1.367   1.427   3.133
 6193TIP3    H118520   1.350   1.513   3.094
 6193TIP3    H218521   1.280   1.393   3.155
 6194TIP3   OH218522   8.147   0.807   5.753
 6194TIP3    H118523   8.202   0.839   5.681
 6194TIP3    H218524   8.066   0.859   5.746
 6195TIP3   OH218525   3.126   0.242   4.761
 6195TIP3    H118526   3.202   0.263   4.708
 6195TIP3    H218527   3.059   0.305   4.734
 6196TIP3   OH218528   2.199   0.861   4.211
 6196TIP3    H118529   2.161   0.875   4.298
 6196TIP3    H218530   2.125   0.835   4.156
 6197TIP3   OH218531   5.369   1.719   0.145
 6197TIP3    H118532   5.332   1.769   0.072
 6197TIP3    H218533   5.330   1.633   0.137
 6198TIP3   OH218534   0.914   2.795   4.394
 6198TIP3    H118535   0.819   2.798   4.384
 6198TIP3    H218536   0.948   2.840   4.317
 6199TIP3   OH218537   6.690   5.703   4.355
 6199TIP3    H118538   6.763   5.646   4.381
 6199TIP3    H218539   6.726   5.791   4.359
 6200TIP3   OH218540   1.155   2.269   4.601
 6200TIP3    H118541   1.210   2.310   4.534
 6200TIP3    H218542   1.217   2.230   4.663
 6201TIP3   OH218543   7.736   6.004   4.971
 6201TIP3    H118544   7.715   5.972   4.883
 6201TIP3    H218545   7.721   5.929   5.028
 6202TIP3   OH218546   1.445   0.575   3.227
 6202TIP3    H118547   1.531   0.597   3.265
 6202TIP3    H218548   1.382   0.607   3.291
 6203TIP3   OH218549   5.004   6.990   6.787
 6203TIP3    H118550   5.044   7.031   6.864
 6203TIP3    H218551   5.065   6.920   6.763
 6204TIP3   OH218552   4.900   4.539   2.481
 6204TIP3    H118553   4.995   4.541   2.474
 6204TIP3    H218554   4.872   4.477   2.413
 6205TIP3   OH218555   1.855   1.725   1.961
 6205TIP3    H118556   1.919   1.725   1.890
 6205TIP3    H218557   1.905   1.744   2.039
 6206TIP3   OH218558   5.661   0.989   2.576
 6206TIP3    H118559   5.717   0.959   2.505
 6206TIP3    H218560   5.704   0.957   2.655
 6207TIP3   OH218561   7.442   7.259   3.501
 6207TIP3    H118562   7.368   7.283   3.556
 6207TIP3    H218563   7.518   7.264   3.560
 6208TIP3   OH218564   2.884   1.941   4.875
 6208TIP3    H118565   2.790   1.942   4.858
 6208TIP3    H218566   2.908   1.849   4.871
 6209TIP3   OH218567   7.725   4.973   1.166
 6209TIP3    H118568   7.710   5.049   1.221
 6209TIP3    H218569   7.647   4.966   1.111
 6210TIP3   OH218570   5.172   5.618   0.260
 6210TIP3    H118571   5.216   5.660   0.186
 6210TIP3    H218572   5.081   5.646   0.252
 6211TIP3   OH218573   0.657   5.972   4.574
 6211TIP3    H118574   0.565   5.961   4.601
 6211TIP3    H218575   0.652   5.986   4.479
 6212TIP3   OH218576   6.793   2.260   3.813
 6212TIP3    H118577   6.820   2.343   3.851
 6212TIP3    H218578   6.860   2.240   3.748
 6213TIP3   OH218579   1.842   1.054   4.671
 6213TIP3    H118580   1.828   1.023   4.581
 6213TIP3    H218581   1.877   0.978   4.717
 6214TIP3   OH218582   5.343   4.365   1.429
 6214TIP3    H118583   5.311   4.418   1.502
 6214TIP3    H218584   5.311   4.277   1.448
 6215TIP3   OH218585   2.531   2.040   4.023
 6215TIP3    H118586   2.533   1.956   3.978
 6215TIP3    H218587   2.474   2.095   3.970
 6216TIP3   OH218588   3.259   5.073   0.036
 6216TIP3    H118589   3.175   5.035   0.010
 6216TIP3    H218590   3.263   5.156  -0.010
 6217TIP3   OH218591   2.751   6.581   5.818
 6217TIP3    H118592   2.719   6.663   5.856
 6217TIP3    H218593   2.671   6.530   5.802
 6218TIP3   OH218594   5.792   4.877   2.937
 6218TIP3    H118595   5.882   4.854   2.960
 6218TIP3    H218596   5.791   4.878   2.842
 6219TIP3   OH218597   3.529   4.174   3.478
 6219TIP3    H118598   3.555   4.105   3.539
 6219TIP3    H218599   3.434   4.179   3.487
 6220TIP3   OH218600   2.182   5.031   3.011
 6220TIP3    H118601   2.222   4.981   2.940
 6220TIP3    H218602   2.210   5.121   2.996
 6221TIP3   OH218603   2.112   1.626   4.208
 6221TIP3    H118604   2.018   1.627   4.223
 6221TIP3    H218605   2.150   1.621   4.296
 6222TIP3   OH218606   1.119   2.515   6.845
 6222TIP3    H118607   1.109   2.601   6.888
 6222TIP3    H218608   1.114   2.535   6.752
 6223TIP3   OH218609   7.567   6.645   0.211
 6223TIP3    H118610   7.531   6.558   0.224
 6223TIP3    H218611   7.580   6.679   0.300
 6224TIP3   OH218612   4.806   0.218   3.184
 6224TIP3    H118613   4.841   0.159   3.117
 6224TIP3    H218614   4.780   0.296   3.135
 6225TIP3   OH218615   0.802   6.884   2.348
 6225TIP3    H118616   0.818   6.892   2.442
 6225TIP3    H218617   0.720   6.835   2.341
 6226TIP3   OH218618   4.175   4.636   4.027
 6226TIP3    H118619   4.237   4.590   3.970
 6226TIP3    H218620   4.146   4.569   4.089
 6227TIP3   OH218621   5.370   5.246   2.202
 6227TIP3    H118622   5.378   5.273   2.293
 6227TIP3    H218623   5.447   5.283   2.159
 6228TIP3   OH218624   0.982   3.272   2.354
 6228TIP3    H118625   0.962   3.181   2.333
 6228TIP3    H218626   0.957   3.321   2.275
 6229TIP3   OH218627   5.052   3.265   3.962
 6229TIP3    H118628   4.982   3.330   3.961
 6229TIP3    H218629   5.093   3.276   4.048
 6230TIP3   OH218630   0.034   1.032   4.317
 6230TIP3    H118631   0.004   0.972   4.385
 6230TIP3    H218632   0.091   0.980   4.261
 6231TIP3   OH218633   0.621   2.337   6.081
 6231TIP3    H118634   0.696   2.357   6.137
 6231TIP3    H218635   0.566   2.279   6.134
 6232TIP3   OH218636   6.540   4.839   1.905
 6232TIP3    H118637   6.603   4.816   1.836
 6232TIP3    H218638   6.504   4.924   1.878
 6233TIP3   OH218639   5.374   1.972   0.309
 6233TIP3    H118640   5.432   1.896   0.315
 6233TIP3    H218641   5.287   1.939   0.330
 6234TIP3   OH218642   6.060   5.114   5.309
 6234TIP3    H118643   6.106   5.060   5.373
 6234TIP3    H218644   6.114   5.109   5.230
 6235TIP3   OH218645   6.066   7.246   4.121
 6235TIP3    H118646   6.035   7.297   4.046
 6235TIP3    H218647   6.022   7.161   4.112
 6236TIP3   OH218648   5.285   3.560   2.270
 6236TIP3    H118649   5.352   3.559   2.339
 6236TIP3    H218650   5.203   3.542   2.315
 6237TIP3   OH218651   2.552   3.241   2.062
 6237TIP3    H118652   2.462   3.207   2.059
 6237TIP3    H218653   2.602   3.172   2.105
 6238TIP3   OH218654   3.349   7.433   1.874
 6238TIP3    H118655   3.279   7.498   1.875
 6238TIP3    H218656   3.389   7.441   1.961
 6239TIP3   OH218657   5.711   3.242   5.789
 6239TIP3    H118658   5.644   3.174   5.794
 6239TIP3    H218659   5.752   3.243   5.876
 6240TIP3   OH218660   1.140   2.335   1.247
 6240TIP3    H118661   1.171   2.369   1.163
 6240TIP3    H218662   1.117   2.244   1.229
 6241TIP3   OH218663   8.180   5.292   0.963
 6241TIP3    H118664   8.102   5.279   1.017
 6241TIP3    H218665   8.253   5.266   1.019
 6242TIP3   OH218666   3.672   3.937   6.085
 6242TIP3    H118667   3.673   3.856   6.137
 6242TIP3    H218668   3.728   3.916   6.010
 6243TIP3   OH218669   5.881   4.865   6.047
 6243TIP3    H118670   5.852   4.795   6.105
 6243TIP3    H218671   5.851   4.945   6.089
 6244TIP3   OH218672   7.705   4.165   4.623
 6244TIP3    H118673   7.662   4.157   4.537
 6244TIP3    H218674   7.642   4.215   4.676
 6245TIP3   OH218675   3.958   4.174   3.111
 6245TIP3    H118676   3.944   4.255   3.161
 6245TIP3    H218677   3.988   4.111   3.177
 6246TIP3   OH218678   4.449   3.744   1.096
 6246TIP3    H118679   4.472   3.690   1.021
 6246TIP3    H218680   4.367   3.707   1.129
 6247TIP3   OH218681   2.016   2.819   6.238
 6247TIP3    H118682   1.983   2.729   6.244
 6247TIP3    H218683   1.938   2.874   6.249
 6248TIP3   OH218684   4.544   6.767   2.219
 6248TIP3    H118685   4.555   6.778   2.314
 6248TIP3    H218686   4.558   6.854   2.183
 6249TIP3   OH218687   8.014   2.624   0.992
 6249TIP3    H118688   8.068   2.599   0.917
 6249TIP3    H218689   7.987   2.542   1.031
 6250TIP3   OH218690   8.321   2.323   0.453
 6250TIP3    H118691   8.276   2.405   0.434
 6250TIP3    H218692   8.400   2.350   0.500
 6251TIP3   OH218693   5.468   3.822   6.224
 6251TIP3    H118694   5.375   3.844   6.219
 6251TIP3    H218695   5.501   3.839   6.136
 6252TIP3   OH218696   0.630   1.513   0.703
 6252TIP3    H118697   0.584   1.592   0.673
 6252TIP3    H218698   0.607   1.446   0.638
 6253TIP3   OH218699   5.629   5.048   0.214
 6253TIP3    H118700   5.623   4.965   0.167
 6253TIP3    H218701   5.722   5.058   0.234
 6254TIP3   OH218702   7.845   5.359   6.141
 6254TIP3    H118703   7.936   5.350   6.115
 6254TIP3    H218704   7.797   5.367   6.059
 6255TIP3   OH218705   0.264   2.992   6.175
 6255TIP3    H118706   0.212   2.943   6.111
 6255TIP3    H218707   0.280   2.930   6.246
 6256TIP3   OH218708   2.685   6.352   3.393
 6256TIP3    H118709   2.618   6.319   3.453
 6256TIP3    H218710   2.637   6.377   3.315
 6257TIP3   OH218711   3.689   4.192   2.054
 6257TIP3    H118712   3.705   4.267   2.112
 6257TIP3    H218713   3.738   4.212   1.975
 6258TIP3   OH218714   8.209   1.338   2.686
 6258TIP3    H118715   8.294   1.294   2.688
 6258TIP3    H218716   8.223   1.418   2.737
 6259TIP3   OH218717   7.252   4.669   2.613
 6259TIP3    H118718   7.284   4.591   2.658
 6259TIP3    H218719   7.295   4.667   2.527
 6260TIP3   OH218720   3.358   1.720   0.564
 6260TIP3    H118721   3.451   1.723   0.587
 6260TIP3    H218722   3.346   1.633   0.527
 6261TIP3   OH218723   6.297   5.789   3.105
 6261TIP3    H118724   6.333   5.849   3.040
 6261TIP3    H218725   6.370   5.732   3.128
 6262TIP3   OH218726   7.027   0.755   6.843
 6262TIP3    H118727   6.942   0.799   6.857
 6262TIP3    H218728   7.013   0.699   6.768
 6263TIP3   OH218729   4.123   5.277   3.303
 6263TIP3    H118730   4.038   5.318   3.287
 6263TIP3    H218731   4.186   5.333   3.258
 6264TIP3   OH218732   6.263   5.668   3.615
 6264TIP3    H118733   6.171   5.692   3.623
 6264TIP3    H218734   6.268   5.619   3.533
 6265TIP3   OH218735   6.696   6.986   1.142
 6265TIP3    H118736   6.618   7.018   1.095
 6265TIP3    H218737   6.661   6.924   1.205
 6266TIP3   OH218738   1.476   2.099   3.224
 6266TIP3    H118739   1.403   2.114   3.163
 6266TIP3    H218740   1.434   2.094   3.310
 6267TIP3   OH218741   5.014   4.658   5.755
 6267TIP3    H118742   5.084   4.610   5.712
 6267TIP3    H218743   4.944   4.662   5.689
 6268TIP3   OH218744   6.178   3.761   4.048
 6268TIP3    H118745   6.197   3.794   4.136
 6268TIP3    H218746   6.126   3.830   4.007
 6269TIP3   OH218747   7.020   6.696   5.789
 6269TIP3    H118748   7.070   6.754   5.846
 6269TIP3    H218749   6.929   6.723   5.801
 6270TIP3   OH218750   1.304   0.747   1.288
 6270TIP3    H118751   1.360   0.815   1.326
 6270TIP3    H218752   1.221   0.754   1.335
 6271TIP3   OH218753   8.245   5.739   3.295
 6271TIP3    H118754   8.157   5.769   3.319
 6271TIP3    H218755   8.246   5.744   3.199
 6272TIP3   OH218756   4.954   3.214   1.699
 6272TIP3    H118757   5.008   3.250   1.769
 6272TIP3    H218758   5.015   3.162   1.646
 6273TIP3   OH218759   0.345   6.392   4.683
 6273TIP3    H118760   0.329   6.462   4.746
 6273TIP3    H218761   0.440   6.388   4.675
 6274TIP3   OH218762   7.179   0.126   5.132
 6274TIP3    H118763   7.105   0.116   5.072
 6274TIP3    H218764   7.139   0.146   5.217
 6275TIP3   OH218765   1.394   2.808   5.055
 6275TIP3    H118766   1.445   2.727   5.058
 6275TIP3    H218767   1.366   2.822   5.146
 6276TIP3   OH218768   0.148   2.225   0.135
 6276TIP3    H118769   0.068   2.246   0.183
 6276TIP3    H218770   0.193   2.161   0.190
 6277TIP3   OH218771   6.087   5.259   3.991
 6277TIP3    H118772   6.038   5.270   4.073
 6277TIP3    H218773   6.059   5.332   3.936
 6278TIP3   OH218774   7.371   6.285   2.920
 6278TIP3    H118775   7.339   6.213   2.974
 6278TIP3    H218776   7.426   6.242   2.854
 6279TIP3   OH218777   6.679   2.679   4.586
 6279TIP3    H118778   6.742   2.608   4.574
 6279TIP3    H218779   6.621   2.647   4.655
 6280TIP3   OH218780   4.366   5.258   4.119
 6280TIP3    H118781   4.378   5.163   4.112
 6280TIP3    H218782   4.278   5.273   4.084
 6281TIP3   OH218783   1.926   5.409   1.322
 6281TIP3    H118784   1.963   5.472   1.260
 6281TIP3    H218785   1.856   5.458   1.366
 6282TIP3   OH218786   2.372   3.196   0.092
 6282TIP3    H118787   2.464   3.173   0.106
 6282TIP3    H218788   2.343   3.230   0.177
 6283TIP3   OH218789   1.865   1.032   1.046
 6283TIP3    H118790   1.908   1.106   1.004
 6283TIP3    H218791   1.905   1.027   1.133
 6284TIP3   OH218792   6.496   7.594   1.865
 6284TIP3    H118793   6.518   7.514   1.914
 6284TIP3    H218794   6.571   7.651   1.877
 6285TIP3   OH218795   6.845   5.496   4.477
 6285TIP3    H118796   6.860   5.408   4.440
 6285TIP3    H218797   6.776   5.482   4.542
 6286TIP3   OH218798   0.231   2.340   2.300
 6286TIP3    H118799   0.278   2.369   2.222
 6286TIP3    H218800   0.245   2.409   2.364
 6287TIP3   OH218801   5.924   6.849   0.360
 6287TIP3    H118802   5.951   6.772   0.310
 6287TIP3    H218803   6.006   6.894   0.380
 6288TIP3   OH218804   5.640   3.160   4.141
 6288TIP3    H118805   5.697   3.237   4.129
 6288TIP3    H218806   5.552   3.194   4.127
 6289TIP3   OH218807   4.373   5.845   3.819
 6289TIP3    H118808   4.321   5.772   3.853
 6289TIP3    H218809   4.316   5.886   3.753
 6290TIP3   OH218810   5.289   4.400   0.138
 6290TIP3    H118811   5.260   4.477   0.187
 6290TIP3    H218812   5.368   4.371   0.182
 6291TIP3   OH218813   1.232   5.740   0.876
 6291TIP3    H118814   1.228   5.811   0.940
 6291TIP3    H218815   1.142   5.730   0.845
 6292TIP3   OH218816   4.940   5.789   2.533
 6292TIP3    H118817   4.987   5.786   2.617
 6292TIP3    H218818   4.848   5.794   2.558
 6293TIP3   OH218819   5.928   3.973   3.462
 6293TIP3    H118820   5.982   4.021   3.525
 6293TIP3    H218821   5.841   3.970   3.503
 6294TIP3   OH218822   4.928   5.718   3.406
 6294TIP3    H118823   4.849   5.765   3.379
 6294TIP3    H218824   4.919   5.630   3.370
 6295TIP3   OH218825   7.001   1.558   0.450
 6295TIP3    H118826   6.968   1.645   0.427
 6295TIP3    H218827   6.957   1.498   0.390
 6296TIP3   OH218828   4.971   5.527   1.153
 6296TIP3    H118829   4.967   5.529   1.057
 6296TIP3    H218830   4.977   5.434   1.175
 6297TIP3   OH218831   3.466   0.786   5.596
 6297TIP3    H118832   3.434   0.696   5.585
 6297TIP3    H218833   3.546   0.776   5.647
 6298TIP3   OH218834   6.144   3.399   5.407
 6298TIP3    H118835   6.115   3.407   5.498
 6298TIP3    H218836   6.229   3.356   5.412
 6299TIP3   OH218837   7.526   2.571   1.468
 6299TIP3    H118838   7.483   2.518   1.535
 6299TIP3    H218839   7.480   2.655   1.469
 6300TIP3   OH218840   1.500   2.632   1.182
 6300TIP3    H118841   1.407   2.652   1.186
 6300TIP3    H218842   1.532   2.647   1.271
 6301TIP3   OH218843   2.757   5.070   3.854
 6301TIP3    H118844   2.705   5.139   3.895
 6301TIP3    H218845   2.847   5.103   3.854
 6302TIP3   OH218846   6.469   4.949   2.497
 6302TIP3    H118847   6.414   5.017   2.536
 6302TIP3    H218848   6.414   4.871   2.496
 6303TIP3   OH218849   4.423   5.835   1.295
 6303TIP3    H118850   4.511   5.799   1.290
 6303TIP3    H218851   4.421   5.884   1.377
 6304TIP3   OH218852   6.011   2.255   2.904
 6304TIP3    H118853   6.064   2.335   2.907
 6304TIP3    H218854   5.996   2.232   2.995
 6305TIP3   OH218855   4.763   3.601   0.304
 6305TIP3    H118856   4.772   3.695   0.321
 6305TIP3    H218857   4.851   3.572   0.280
 6306TIP3   OH218858   2.023   6.330   4.160
 6306TIP3    H118859   2.089   6.388   4.197
 6306TIP3    H218860   1.972   6.300   4.235
 6307TIP3   OH218861   0.947   5.560   5.529
 6307TIP3    H118862   0.903   5.633   5.486
 6307TIP3    H218863   1.003   5.600   5.595
 6308TIP3   OH218864   6.851   0.783   4.657
 6308TIP3    H118865   6.890   0.699   4.680
 6308TIP3    H218866   6.825   0.822   4.740
 6309TIP3   OH218867   8.346   3.331   5.499
 6309TIP3    H118868   8.345   3.236   5.511
 6309TIP3    H218869   8.409   3.362   5.563
 6310TIP3   OH218870   0.995   1.124   5.280
 6310TIP3    H118871   0.918   1.181   5.290
 6310TIP3    H218872   1.068   1.184   5.269
 6311TIP3   OH218873   4.029   0.218   5.674
 6311TIP3    H118874   3.953   0.199   5.619
 6311TIP3    H218875   4.090   0.145   5.657
 6312TIP3   OH218876   2.897   6.736   2.065
 6312TIP3    H118877   2.816   6.766   2.106
 6312TIP3    H218878   2.868   6.685   1.990
 6313TIP3   OH218879   4.312   0.343   2.680
 6313TIP3    H118880   4.381   0.298   2.632
 6313TIP3    H218881   4.273   0.274   2.735
 6314TIP3   OH218882   2.200   1.328   5.321
 6314TIP3    H118883   2.271   1.385   5.350
 6314TIP3    H218884   2.174   1.280   5.400
 6315TIP3   OH218885   7.399   4.310   5.342
 6315TIP3    H118886   7.494   4.323   5.347
 6315TIP3    H218887   7.373   4.284   5.430
 6316TIP3   OH218888   1.135   5.224   1.128
 6316TIP3    H118889   1.092   5.295   1.080
 6316TIP3    H218890   1.067   5.188   1.185
 6317TIP3   OH218891   1.685   1.011   6.487
 6317TIP3    H118892   1.752   1.002   6.419
 6317TIP3    H218893   1.626   1.078   6.453
 6318TIP3   OH218894   7.071   1.563   4.471
 6318TIP3    H118895   7.111   1.533   4.389
 6318TIP3    H218896   6.979   1.538   4.463
 6319TIP3   OH218897   4.205   2.122   5.415
 6319TIP3    H118898   4.222   2.186   5.346
 6319TIP3    H218899   4.159   2.171   5.483
 6320TIP3   OH218900   8.045   3.968   4.767
 6320TIP3    H118901   7.955   3.936   4.777
 6320TIP3    H218902   8.081   3.917   4.694
 6321TIP3   OH218903   6.799   2.457   4.823
 6321TIP3    H118904   6.827   2.453   4.915
 6321TIP3    H218905   6.708   2.428   4.825
 6322TIP3   OH218906   7.832   5.275   2.947
 6322TIP3    H118907   7.864   5.312   3.029
 6322TIP3    H218908   7.907   5.227   2.911
 6323TIP3   OH218909   6.512   5.791   2.602
 6323TIP3    H118910   6.570   5.754   2.668
 6323TIP3    H218911   6.523   5.734   2.525
 6324TIP3   OH218912   1.235   6.903   0.787
 6324TIP3    H118913   1.257   6.817   0.822
 6324TIP3    H218914   1.320   6.941   0.763
 6325TIP3   OH218915   0.075   5.374   0.992
 6325TIP3    H118916   0.085   5.416   1.078
 6325TIP3    H218917   0.037   5.443   0.937
 6326TIP3   OH218918   0.568   1.792   1.896
 6326TIP3    H118919   0.485   1.822   1.931
 6326TIP3    H218920   0.570   1.825   1.806
 6327TIP3   OH218921   7.244   1.119   6.403
 6327TIP3    H118922   7.181   1.142   6.471
 6327TIP3    H218923   7.328   1.114   6.449
 6328TIP3   OH218924   6.884   0.253   4.101
 6328TIP3    H118925   6.881   0.172   4.051
 6328TIP3    H218926   6.859   0.321   4.039
 6329TIP3   OH218927   0.426   6.437   2.858
 6329TIP3    H118928   0.501   6.492   2.836
 6329TIP3    H218929   0.388   6.478   2.935
 6330TIP3   OH218930   3.550   4.778   3.560
 6330TIP3    H118931   3.637   4.788   3.599
 6330TIP3    H218932   3.565   4.732   3.478
 6331TIP3   OH218933   4.915   2.797   2.949
 6331TIP3    H118934   4.993   2.834   2.909
 6331TIP3    H218935   4.941   2.776   3.039
 6332TIP3   OH218936   4.283   6.992   4.318
 6332TIP3    H118937   4.248   7.005   4.230
 6332TIP3    H218938   4.375   7.018   4.311
 6333TIP3   OH218939   5.223   0.589   0.736
 6333TIP3    H118940   5.239   0.495   0.732
 6333TIP3    H218941   5.176   0.602   0.819
 6334TIP3   OH218942   6.705   0.439   5.678
 6334TIP3    H118943   6.634   0.498   5.703
 6334TIP3    H218944   6.679   0.354   5.713
 6335TIP3   OH218945   7.131   2.083   3.325
 6335TIP3    H118946   7.036   2.082   3.315
 6335TIP3    H218947   7.159   2.165   3.286
 6336TIP3   OH218948   8.289   0.519   5.407
 6336TIP3    H118949   8.376   0.551   5.429
 6336TIP3    H218950   8.241   0.597   5.378
 6337TIP3   OH218951   6.232   7.461   5.914
 6337TIP3    H118952   6.191   7.421   5.992
 6337TIP3    H218953   6.245   7.552   5.938
 6338TIP3   OH218954   7.336   6.955   3.938
 6338TIP3    H118955   7.281   6.876   3.936
 6338TIP3    H218956   7.276   7.025   3.964
 6339TIP3   OH218957   6.730   1.657   6.424
 6339TIP3    H118958   6.732   1.751   6.405
 6339TIP3    H218959   6.817   1.638   6.457
 6340TIP3   OH218960   4.279   3.723   5.230
 6340TIP3    H118961   4.230   3.679   5.300
 6340TIP3    H218962   4.314   3.653   5.176
 6341TIP3   OH218963   1.822   6.282   5.423
 6341TIP3    H118964   1.904   6.325   5.445
 6341TIP3    H218965   1.754   6.334   5.466
 6342TIP3   OH218966   5.215   5.165   1.528
 6342TIP3    H118967   5.282   5.130   1.469
 6342TIP3    H218968   5.261   5.181   1.610
 6343TIP3   OH218969   2.070   6.971   0.449
 6343TIP3    H118970   1.980   6.977   0.417
 6343TIP3    H218971   2.071   6.889   0.499
 6344TIP3   OH218972   2.461   1.001  -0.026
 6344TIP3    H118973   2.435   1.017   0.064
 6344TIP3    H218974   2.465   0.906  -0.034
 6345TIP3   OH218975   0.401   3.053   4.200
 6345TIP3    H118976   0.364   3.116   4.138
 6345TIP3    H218977   0.377   2.968   4.164
 6346TIP3   OH218978   0.339   0.312   1.072
 6346TIP3    H118979   0.355   0.228   1.029
 6346TIP3    H218980   0.326   0.374   1.000
 6347TIP3   OH218981   5.803   4.096   2.168
 6347TIP3    H118982   5.805   4.145   2.250
 6347TIP3    H218983   5.868   4.140   2.112
 6348TIP3   OH218984   2.394   1.592   3.443
 6348TIP3    H118985   2.413   1.599   3.537
 6348TIP3    H218986   2.431   1.672   3.406
 6349TIP3   OH218987   8.398   1.698   4.560
 6349TIP3    H118988   8.353   1.782   4.560
 6349TIP3    H218989   8.420   1.683   4.652
 6350TIP3   OH218990   3.569   1.182   0.905
 6350TIP3    H118991   3.496   1.161   0.847
 6350TIP3    H218992   3.595   1.271   0.880
 6351TIP3   OH218993   2.931   6.817   5.209
 6351TIP3    H118994   3.012   6.831   5.158
 6351TIP3    H218995   2.862   6.811   5.143
 6352TIP3   OH218996   0.886   3.838   6.682
 6352TIP3    H118997   0.872   3.754   6.726
 6352TIP3    H218998   0.815   3.843   6.617
 6353TIP3   OH218999   8.028   7.765   0.162
 6353TIP3    H119000   8.100   7.702   0.173
 6353TIP3    H219001   7.997   7.751   0.073
 6354TIP3   OH219002   0.719   6.542   6.504
 6354TIP3    H119003   0.665   6.621   6.509
 6354TIP3    H219004   0.798   6.564   6.554
 6355TIP3   OH219005   8.401   7.374   2.919
 6355TIP3    H119006   8.442   7.418   2.844
 6355TIP3    H219007   8.411   7.280   2.899
 6356TIP3   OH219008   3.761   1.394   3.241
 6356TIP3    H119009   3.698   1.339   3.288
 6356TIP3    H219010   3.721   1.481   3.242
 6357TIP3   OH219011   5.252   5.496   4.988
 6357TIP3    H119012   5.269   5.414   5.035
 6357TIP3    H219013   5.296   5.563   5.041
 6358TIP3   OH219014   6.861   7.114   3.812
 6358TIP3    H119015   6.835   7.034   3.768
 6358TIP3    H219016   6.806   7.182   3.773
 6359TIP3   OH219017   0.857   6.582   0.244
 6359TIP3    H119018   0.935   6.630   0.272
 6359TIP3    H219019   0.888   6.525   0.173
 6360TIP3   OH219020   1.072   2.404   6.108
 6360TIP3    H119021   1.107   2.332   6.055
 6360TIP3    H219022   0.995   2.435   6.060
 6361TIP3   OH219023   0.183   6.623   0.639
 6361TIP3    H119024   0.208   6.621   0.546
 6361TIP3    H219025   0.250   6.570   0.683
 6362TIP3   OH219026   1.787   4.919   2.295
 6362TIP3    H119027   1.706   4.943   2.341
 6362TIP3    H219028   1.841   4.998   2.297
 6363TIP3   OH219029   0.612   6.537   6.203
 6363TIP3    H119030   0.674   6.572   6.139
 6363TIP3    H219031   0.660   6.535   6.286
 6364TIP3   OH219032   1.621   0.610   4.812
 6364TIP3    H119033   1.634   0.612   4.906
 6364TIP3    H219034   1.562   0.537   4.797
 6365TIP3   OH219035   0.859   1.651   0.980
 6365TIP3    H119036   0.928   1.654   1.046
 6365TIP3    H219037   0.871   1.731   0.929
 6366TIP3   OH219038   5.912   0.872   4.253
 6366TIP3    H119039   5.877   0.957   4.227
 6366TIP3    H219040   5.984   0.856   4.192
 6367TIP3   OH219041   8.048   1.652   6.568
 6367TIP3    H119042   8.053   1.584   6.501
 6367TIP3    H219043   8.046   1.605   6.651
 6368TIP3   OH219044   2.989   7.917   5.434
 6368TIP3    H119045   2.967   7.998   5.388
 6368TIP3    H219046   2.912   7.861   5.424
 6369TIP3   OH219047   5.006   0.541   1.666
 6369TIP3    H119048   5.059   0.517   1.589
 6369TIP3    H219049   5.037   0.483   1.735
 6370TIP3   OH219050   6.436   0.005   1.599
 6370TIP3    H119051   6.393   0.083   1.635
 6370TIP3    H219052   6.413   0.005   1.506
 6371TIP3   OH219053   0.929   6.670   6.654
 6371TIP3    H119054   0.979   6.751   6.645
 6371TIP3    H219055   0.984   6.603   6.614
 6372TIP3   OH219056   3.851   2.126   6.802
 6372TIP3    H119057   3.810   2.045   6.830
 6372TIP3    H219058   3.845   2.184   6.878
 6373TIP3   OH219059   6.314   0.189   1.783
 6373TIP3    H119060   6.225   0.202   1.750
 6373TIP3    H219061   6.305   0.122   1.851
 6374TIP3   OH219062   1.719   6.677   4.551
 6374TIP3    H119063   1.738   6.662   4.644
 6374TIP3    H219064   1.645   6.738   4.552
 6375TIP3   OH219065   2.971   5.876   0.487
 6375TIP3    H119066   3.012   5.896   0.402
 6375TIP3    H219067   3.035   5.821   0.532
 6376TIP3   OH219068   2.166   2.540   3.657
 6376TIP3    H119069   2.134   2.599   3.588
 6376TIP3    H219070   2.190   2.598   3.729
 6377TIP3   OH219071   0.144   0.505   3.166
 6377TIP3    H119072   0.091   0.484   3.243
 6377TIP3    H219073   0.081   0.534   3.100
 6378TIP3   OH219074   6.927   5.414   2.773
 6378TIP3    H119075   6.869   5.471   2.723
 6378TIP3    H219076   6.922   5.329   2.728
 6379TIP3   OH219077   1.815   2.519   5.728
 6379TIP3    H119078   1.756   2.450   5.760
 6379TIP3    H219079   1.835   2.571   5.805
 6380TIP3   OH219080   1.832   2.390   3.612
 6380TIP3    H119081   1.795   2.432   3.691
 6380TIP3    H219082   1.827   2.458   3.545
 6381TIP3   OH219083   0.022   7.621   5.861
 6381TIP3    H119084   0.106   7.620   5.814
 6381TIP3    H219085   0.046   7.605   5.952
 6382TIP3   OH219086   3.710   6.928   5.522
 6382TIP3    H119087   3.738   6.839   5.545
 6382TIP3    H219088   3.615   6.922   5.515
 6383TIP3   OH219089   3.681   1.763   4.664
 6383TIP3    H119090   3.747   1.765   4.733
 6383TIP3    H219091   3.600   1.789   4.708
 6384TIP3   OH219092   1.986   4.093   2.355
 6384TIP3    H119093   1.932   4.067   2.429
 6384TIP3    H219094   1.930   4.080   2.278
 6385TIP3   OH219095   2.930   0.743   4.563
 6385TIP3    H119096   2.842   0.741   4.599
 6385TIP3    H219097   2.987   0.758   4.638
 6386TIP3   OH219098   7.831   2.087   3.405
 6386TIP3    H119099   7.782   2.046   3.333
 6386TIP3    H219100   7.764   2.132   3.456
 6387TIP3   OH219101   7.473   4.162   5.580
 6387TIP3    H119102   7.501   4.149   5.671
 6387TIP3    H219103   7.528   4.234   5.549
 6388TIP3   OH219104   1.991   6.335   6.160
 6388TIP3    H119105   1.900   6.350   6.184
 6388TIP3    H219106   1.991   6.332   6.064
 6389TIP3   OH219107   5.176   7.909   0.541
 6389TIP3    H119108   5.225   7.829   0.559
 6389TIP3    H219109   5.162   7.948   0.627
 6390TIP3   OH219110   5.801   4.244   5.884
 6390TIP3    H119111   5.771   4.302   5.815
 6390TIP3    H219112   5.887   4.278   5.909
 6391TIP3   OH219113   7.155   3.515   1.031
 6391TIP3    H119114   7.217   3.579   0.996
 6391TIP3    H219115   7.133   3.549   1.118
 6392TIP3   OH219116   4.421   1.804   3.880
 6392TIP3    H119117   4.424   1.859   3.958
 6392TIP3    H219118   4.408   1.715   3.913
 6393TIP3   OH219119   0.870   7.077   4.600
 6393TIP3    H119120   0.796   7.136   4.588
 6393TIP3    H219121   0.930   7.126   4.656
 6394TIP3   OH219122   7.670   4.588   2.665
 6394TIP3    H119123   7.614   4.661   2.637
 6394TIP3    H219124   7.758   4.616   2.642
 6395TIP3   OH219125   5.933   0.877   1.616
 6395TIP3    H119126   5.927   0.969   1.590
 6395TIP3    H219127   5.984   0.877   1.696
 6396TIP3   OH219128   0.379   1.152   6.011
 6396TIP3    H119129   0.461   1.154   6.060
 6396TIP3    H219130   0.370   1.241   5.976
 6397TIP3   OH219131   3.024   2.480   0.373
 6397TIP3    H119132   2.992   2.409   0.429
 6397TIP3    H219133   3.011   2.449   0.284
 6398TIP3   OH219134   5.979   3.173   3.847
 6398TIP3    H119135   5.886   3.150   3.851
 6398TIP3    H219136   6.011   3.158   3.935
 6399TIP3   OH219137   1.217   1.913   4.187
 6399TIP3    H119138   1.291   1.901   4.247
 6399TIP3    H219139   1.212   1.830   4.139
 6400TIP3   OH219140   7.849   1.470   3.565
 6400TIP3    H119141   7.774   1.446   3.511
 6400TIP3    H219142   7.854   1.402   3.632
 6401TIP3   OH219143   7.459   2.726   0.019
 6401TIP3    H119144   7.442   2.656  -0.044
 6401TIP3    H219145   7.498   2.682   0.094
 6402TIP3   OH219146   5.217   0.364   0.350
 6402TIP3    H119147   5.300   0.320   0.369
 6402TIP3    H219148   5.213   0.368   0.254
 6403TIP3   OH219149   3.387   7.096   6.776
 6403TIP3    H119150   3.400   7.014   6.727
 6403TIP3    H219151   3.368   7.067   6.866
 6404TIP3   OH219152   8.141   4.229   3.157
 6404TIP3    H119153   8.067   4.172   3.179
 6404TIP3    H219154   8.209   4.170   3.125
 6405TIP3   OH219155   2.022   0.371   6.729
 6405TIP3    H119156   2.047   0.279   6.743
 6405TIP3    H219157   2.099   0.410   6.687
 6406TIP3   OH219158   6.739   0.376   4.348
 6406TIP3    H119159   6.797   0.415   4.414
 6406TIP3    H219160   6.795   0.362   4.272
 6407TIP3   OH219161   2.380   3.678   0.104
 6407TIP3    H119162   2.347   3.647   0.188
 6407TIP3    H219163   2.471   3.648   0.102
 6408TIP3   OH219164   4.300   5.082   5.361
 6408TIP3    H119165   4.368   5.104   5.425
 6408TIP3    H219166   4.287   4.987   5.372
 6409TIP3   OH219167   1.313   7.253   4.880
 6409TIP3    H119168   1.339   7.340   4.849
 6409TIP3    H219169   1.393   7.216   4.916
 6410TIP3   OH219170   4.445   5.851   5.809
 6410TIP3    H119171   4.512   5.838   5.742
 6410TIP3    H219172   4.414   5.763   5.830
 6411TIP3   OH219173   7.928   4.506   6.051
 6411TIP3    H119174   7.996   4.532   6.112
 6411TIP3    H219175   7.847   4.509   6.102
 6412TIP3   OH219176   2.831   6.517   3.703
 6412TIP3    H119177   2.891   6.589   3.684
 6412TIP3    H219178   2.779   6.508   3.623
 6413TIP3   OH219179   3.026   4.190   2.695
 6413TIP3    H119180   3.000   4.108   2.737
 6413TIP3    H219181   3.038   4.251   2.768
 6414TIP3   OH219182   0.984   7.226   2.864
 6414TIP3    H119183   0.964   7.217   2.957
 6414TIP3    H219184   0.954   7.144   2.825
 6415TIP3   OH219185   2.689   0.619   6.278
 6415TIP3    H119186   2.614   0.675   6.263
 6415TIP3    H219187   2.684   0.596   6.371
 6416TIP3   OH219188   4.091   1.044   1.449
 6416TIP3    H119189   4.106   1.128   1.494
 6416TIP3    H219190   3.998   1.046   1.426
 6417TIP3   OH219191   7.208   3.240   0.716
 6417TIP3    H119192   7.153   3.316   0.738
 6417TIP3    H219193   7.201   3.183   0.793
 6418TIP3   OH219194   4.864   4.703   1.550
 6418TIP3    H119195   4.899   4.776   1.499
 6418TIP3    H219196   4.891   4.625   1.501
 6419TIP3   OH219197   2.286   1.103   0.179
 6419TIP3    H119198   2.210   1.083   0.125
 6419TIP3    H219199   2.305   1.020   0.224
 6420TIP3   OH219200   6.504   7.393   0.202
 6420TIP3    H119201   6.559   7.469   0.223
 6420TIP3    H219202   6.561   7.337   0.148
 6421TIP3   OH219203   4.559   1.917   2.724
 6421TIP3    H119204   4.481   1.889   2.677
 6421TIP3    H219205   4.575   2.006   2.694
 6422TIP3   OH219206   7.466   3.594   2.301
 6422TIP3    H119207   7.500   3.504   2.305
 6422TIP3    H219208   7.407   3.594   2.226
 6423TIP3   OH219209   5.128   0.878   6.840
 6423TIP3    H119210   5.180   0.866   6.761
 6423TIP3    H219211   5.181   0.935   6.896
 6424TIP3   OH219212   2.338   2.971   0.357
 6424TIP3    H119213   2.354   2.880   0.332
 6424TIP3    H219214   2.422   3.015   0.339
 6425TIP3   OH219215   4.926   3.288   2.216
 6425TIP3    H119216   4.876   3.208   2.197
 6425TIP3    H219217   4.982   3.263   2.289
 6426TIP3   OH219218   8.090   1.505   6.797
 6426TIP3    H119219   8.030   1.432   6.810
 6426TIP3    H219220   8.088   1.553   6.881
 6427TIP3   OH219221   6.281   3.805   4.306
 6427TIP3    H119222   6.287   3.901   4.301
 6427TIP3    H219223   6.242   3.788   4.392
 6428TIP3   OH219224   0.166   6.991   5.053
 6428TIP3    H119225   0.136   7.013   5.141
 6428TIP3    H219226   0.090   7.007   4.997
 6429TIP3   OH219227   0.356   5.356   1.787
 6429TIP3    H119228   0.272   5.319   1.759
 6429TIP3    H219229   0.351   5.448   1.761
 6430TIP3   OH219230   0.860   2.744   0.822
 6430TIP3    H119231   0.921   2.697   0.765
 6430TIP3    H219232   0.883   2.836   0.812
 6431TIP3   OH219233   0.163   4.380   3.555
 6431TIP3    H119234   0.176   4.388   3.460
 6431TIP3    H219235   0.191   4.291   3.576
 6432TIP3   OH219236   3.289   5.243   6.637
 6432TIP3    H119237   3.248   5.165   6.599
 6432TIP3    H219238   3.293   5.306   6.565
 6433TIP3   OH219239   6.372   0.298   2.814
 6433TIP3    H119240   6.371   0.294   2.910
 6433TIP3    H219241   6.411   0.215   2.787
 6434TIP3   OH219242   1.442   4.199   5.298
 6434TIP3    H119243   1.460   4.140   5.224
 6434TIP3    H219244   1.522   4.195   5.351
 6435TIP3   OH219245   0.077   2.281   3.921
 6435TIP3    H119246   0.161   2.237   3.909
 6435TIP3    H219247   0.048   2.301   3.832
 6436TIP3   OH219248   4.903   7.590   5.931
 6436TIP3    H119249   4.939   7.586   5.842
 6436TIP3    H219250   4.840   7.518   5.934
 6437TIP3   OH219251   3.992   5.173   5.948
 6437TIP3    H119252   3.912   5.129   5.978
 6437TIP3    H219253   4.063   5.121   5.985
 6438TIP3   OH219254   5.695   1.034   5.022
 6438TIP3    H119255   5.715   1.100   5.089
 6438TIP3    H219256   5.606   1.055   4.994
 6439TIP3   OH219257   4.541   4.391   1.549
 6439TIP3    H119258   4.462   4.381   1.496
 6439TIP3    H219259   4.594   4.455   1.501
 6440TIP3   OH219260   2.191   6.776   4.850
 6440TIP3    H119261   2.269   6.803   4.899
 6440TIP3    H219262   2.225   6.751   4.764
 6441TIP3   OH219263   5.939   3.055   2.993
 6441TIP3    H119264   5.903   3.099   2.917
 6441TIP3    H219265   5.913   2.963   2.982
 6442TIP3   OH219266   5.487   2.500   3.318
 6442TIP3    H119267   5.427   2.427   3.331
 6442TIP3    H219268   5.552   2.490   3.388
 6443TIP3   OH219269   2.367   1.814   6.354
 6443TIP3    H119270   2.362   1.750   6.283
 6443TIP3    H219271   2.417   1.887   6.317
 6444TIP3   OH219272   2.410   4.003   3.214
 6444TIP3    H119273   2.331   4.040   3.255
 6444TIP3    H219274   2.483   4.046   3.260
 6445TIP3   OH219275   8.294   1.692   3.486
 6445TIP3    H119276   8.313   1.642   3.407
 6445TIP3    H219277   8.375   1.742   3.503
 6446TIP3   OH219278   3.216   7.467   3.293
 6446TIP3    H119279   3.238   7.531   3.225
 6446TIP3    H219280   3.222   7.382   3.249
 6447TIP3   OH219281   5.518   4.895   3.459
 6447TIP3    H119282   5.552   4.865   3.375
 6447TIP3    H219283   5.582   4.960   3.489
 6448TIP3   OH219284   3.303   0.957   0.476
 6448TIP3    H119285   3.345   0.886   0.429
 6448TIP3    H219286   3.250   0.913   0.544
 6449TIP3   OH219287   3.994   2.751   0.751
 6449TIP3    H119288   4.033   2.764   0.837
 6449TIP3    H219289   3.914   2.803   0.753
 6450TIP3   OH219290   6.142   3.028   2.708
 6450TIP3    H119291   6.196   2.985   2.775
 6450TIP3    H219292   6.113   3.109   2.748
 6451TIP3   OH219293   7.809   0.651   6.405
 6451TIP3    H119294   7.858   0.732   6.419
 6451TIP3    H219295   7.800   0.645   6.310
 6452TIP3   OH219296   3.990   0.058   2.431
 6452TIP3    H119297   3.969   0.143   2.468
 6452TIP3    H219298   3.907   0.025   2.396
 6453TIP3   OH219299   5.405   0.790   5.943
 6453TIP3    H119300   5.351   0.717   5.915
 6453TIP3    H219301   5.474   0.750   5.996
 6454TIP3   OH219302   1.157   2.073   1.126
 6454TIP3    H119303   1.170   2.096   1.034
 6454TIP3    H219304   1.062   2.068   1.136
 6455TIP3   OH219305   3.863   6.443   6.382
 6455TIP3    H119306   3.949   6.432   6.423
 6455TIP3    H219307   3.824   6.356   6.383
 6456TIP3   OH219308   6.560   2.025   2.762
 6456TIP3    H119309   6.571   1.964   2.836
 6456TIP3    H219310   6.539   2.108   2.803
 6457TIP3   OH219311   3.182   1.932   4.725
 6457TIP3    H119312   3.122   1.945   4.799
 6457TIP3    H219313   3.257   1.887   4.762
 6458TIP3   OH219314   5.278   4.084   1.491
 6458TIP3    H119315   5.184   4.096   1.475
 6458TIP3    H219316   5.300   4.003   1.446
 6459TIP3   OH219317   3.828   4.910   4.821
 6459TIP3    H119318   3.838   4.819   4.849
 6459TIP3    H219319   3.811   4.904   4.727
 6460TIP3   OH219320   6.308   2.759   2.405
 6460TIP3    H119321   6.270   2.724   2.324
 6460TIP3    H219322   6.307   2.685   2.466
 6461TIP3   OH219323   5.235   1.540   1.720
 6461TIP3    H119324   5.276   1.534   1.634
 6461TIP3    H219325   5.277   1.472   1.772
 6462TIP3   OH219326   3.558   6.248   3.523
 6462TIP3    H119327   3.497   6.219   3.456
 6462TIP3    H219328   3.595   6.168   3.559
 6463TIP3   OH219329   7.454   1.997   0.067
 6463TIP3    H119330   7.361   2.020   0.076
 6463TIP3    H219331   7.483   2.044  -0.012
 6464TIP3   OH219332   0.140   4.957   5.185
 6464TIP3    H119333   0.085   5.012   5.241
 6464TIP3    H219334   0.079   4.899   5.140
 6465TIP3   OH219335   3.518   4.138   2.699
 6465TIP3    H119336   3.432   4.099   2.710
 6465TIP3    H219337   3.552   4.097   2.619
 6466TIP3   OH219338   4.779   7.377   6.832
 6466TIP3    H119339   4.747   7.457   6.791
 6466TIP3    H219340   4.870   7.370   6.803
 6467TIP3   OH219341   7.580   4.347   6.492
 6467TIP3    H119342   7.558   4.313   6.579
 6467TIP3    H219343   7.634   4.424   6.510
 6468TIP3   OH219344   3.958   6.499   4.100
 6468TIP3    H119345   3.996   6.527   4.184
 6468TIP3    H219346   3.941   6.580   4.053
 6469TIP3   OH219347   7.175   5.638   2.536
 6469TIP3    H119348   7.219   5.638   2.621
 6469TIP3    H219349   7.145   5.548   2.525
 6470TIP3   OH219350   7.895   2.789   5.126
 6470TIP3    H119351   7.825   2.758   5.184
 6470TIP3    H219352   7.898   2.725   5.055
 6471TIP3   OH219353   0.583   6.984   3.533
 6471TIP3    H119354   0.616   6.928   3.603
 6471TIP3    H219355   0.661   7.028   3.498
 6472TIP3   OH219356   3.352   5.444   6.482
 6472TIP3    H119357   3.296   5.509   6.441
 6472TIP3    H219358   3.423   5.495   6.522
 6473TIP3   OH219359   5.172   3.197   6.528
 6473TIP3    H119360   5.231   3.209   6.453
 6473TIP3    H219361   5.084   3.201   6.489
 6474TIP3   OH219362   7.077   2.574   1.836
 6474TIP3    H119363   6.996   2.558   1.789
 6474TIP3    H219364   7.146   2.547   1.774
 6475TIP3   OH219365   3.740   6.010   6.133
 6475TIP3    H119366   3.729   5.988   6.225
 6475TIP3    H219367   3.822   6.060   6.130
 6476TIP3   OH219368   4.584   3.131   6.081
 6476TIP3    H119369   4.648   3.150   6.149
 6476TIP3    H219370   4.578   3.212   6.030
 6477TIP3   OH219371   4.565   7.222   2.740
 6477TIP3    H119372   4.621   7.239   2.815
 6477TIP3    H219373   4.583   7.294   2.680
 6478TIP3   OH219374   7.020   3.195   5.275
 6478TIP3    H119375   7.026   3.226   5.185
 6478TIP3    H219376   6.951   3.249   5.314
 6479TIP3   OH219377   7.553   0.289   2.402
 6479TIP3    H119378   7.520   0.310   2.315
 6479TIP3    H219379   7.582   0.373   2.438
 6480TIP3   OH219380   4.010   3.817   1.390
 6480TIP3    H119381   4.047   3.826   1.478
 6480TIP3    H219382   3.921   3.851   1.398
 6481TIP3   OH219383   1.518   4.221   2.187
 6481TIP3    H119384   1.510   4.301   2.238
 6481TIP3    H219385   1.608   4.221   2.155
 6482TIP3   OH219386   5.617   5.784   5.011
 6482TIP3    H119387   5.657   5.718   5.069
 6482TIP3    H219388   5.588   5.853   5.070
 6483TIP3   OH219389   5.893   4.003   4.939
 6483TIP3    H119390   5.947   3.959   5.004
 6483TIP3    H219391   5.841   3.933   4.899
 6484TIP3   OH219392   3.027   7.030   3.299
 6484TIP3    H119393   3.050   6.940   3.277
 6484TIP3    H219394   3.111   7.076   3.303
 6485TIP3   OH219395   2.297   1.758   5.553
 6485TIP3    H119396   2.262   1.831   5.604
 6485TIP3    H219397   2.380   1.738   5.594
 6486TIP3   OH219398   5.290   4.258   6.417
 6486TIP3    H119399   5.375   4.216   6.415
 6486TIP3    H219400   5.281   4.290   6.507
 6487TIP3   OH219401   1.763   4.548   0.143
 6487TIP3    H119402   1.826   4.535   0.072
 6487TIP3    H219403   1.808   4.516   0.221
 6488TIP3   OH219404   7.347   2.901   1.106
 6488TIP3    H119405   7.305   2.816   1.095
 6488TIP3    H219406   7.441   2.881   1.103
 6489TIP3   OH219407   7.501   2.892   2.169
 6489TIP3    H119408   7.516   2.817   2.111
 6489TIP3    H219409   7.448   2.952   2.117
 6490TIP3   OH219410   1.478   7.251   4.551
 6490TIP3    H119411   1.401   7.234   4.605
 6490TIP3    H219412   1.450   7.229   4.462
 6491TIP3   OH219413   2.846   6.559   0.102
 6491TIP3    H119414   2.908   6.564   0.029
 6491TIP3    H219415   2.821   6.650   0.118
 6492TIP3   OH219416   5.363   1.214   6.351
 6492TIP3    H119417   5.387   1.195   6.441
 6492TIP3    H219418   5.294   1.151   6.331
 6493TIP3   OH219419   7.971   4.936   2.887
 6493TIP3    H119420   7.967   4.843   2.911
 6493TIP3    H219421   8.062   4.950   2.863
 6494TIP3   OH219422   1.274   2.571   6.223
 6494TIP3    H119423   1.269   2.650   6.168
 6494TIP3    H219424   1.198   2.519   6.196
 6495TIP3   OH219425   2.603   2.113   0.923
 6495TIP3    H119426   2.677   2.106   0.984
 6495TIP3    H219427   2.539   2.167   0.970
 6496TIP3   OH219428   5.383   2.651   4.458
 6496TIP3    H119429   5.456   2.590   4.470
 6496TIP3    H219430   5.316   2.622   4.520
 6497TIP3   OH219431   6.105   5.409   0.042
 6497TIP3    H119432   6.156   5.395   0.121
 6497TIP3    H219433   6.018   5.374   0.063
 6498TIP3   OH219434   5.565   5.800   4.412
 6498TIP3    H119435   5.629   5.748   4.363
 6498TIP3    H219436   5.584   5.783   4.504
 6499TIP3   OH219437   3.420   3.000   0.197
 6499TIP3    H119438   3.434   3.055   0.120
 6499TIP3    H219439   3.437   3.058   0.271
 6500TIP3   OH219440   6.239   3.333   6.349
 6500TIP3    H119441   6.301   3.406   6.353
 6500TIP3    H219442   6.168   3.358   6.408
 6501TIP3   OH219443   7.214   6.706   2.722
 6501TIP3    H119444   7.240   6.761   2.649
 6501TIP3    H219445   7.168   6.633   2.682
 6502TIP3   OH219446   5.659   1.563   5.624
 6502TIP3    H119447   5.750   1.589   5.613
 6502TIP3    H219448   5.608   1.642   5.604
 6503TIP3   OH219449   8.404   6.031   2.600
 6503TIP3    H119450   8.462   6.042   2.675
 6503TIP3    H219451   8.328   6.086   2.620
 6504TIP3   OH219452   6.685   6.865   3.013
 6504TIP3    H119453   6.656   6.783   2.975
 6504TIP3    H219454   6.730   6.839   3.094
 6505TIP3   OH219455   7.158   7.717   3.891
 6505TIP3    H119456   7.119   7.630   3.885
 6505TIP3    H219457   7.188   7.724   3.981
 6506TIP3   OH219458   6.217   7.816   0.257
 6506TIP3    H119459   6.130   7.856   0.257
 6506TIP3    H219460   6.219   7.764   0.337
 6507TIP3   OH219461   2.016   4.138   3.533
 6507TIP3    H119462   2.066   4.192   3.595
 6507TIP3    H219463   1.983   4.065   3.586
 6508TIP3   OH219464   7.223   4.138   6.812
 6508TIP3    H119465   7.236   4.171   6.723
 6508TIP3    H219466   7.300   4.085   6.830
 6509TIP3   OH219467   7.778   0.280   6.891
 6509TIP3    H119468   7.813   0.290   6.802
 6509TIP3    H219469   7.801   0.362   6.935
 6510TIP3   OH219470   6.775   6.338   4.618
 6510TIP3    H119471   6.736   6.383   4.543
 6510TIP3    H219472   6.825   6.406   4.664
 6511TIP3   OH219473   6.387   0.383   0.972
 6511TIP3    H119474   6.480   0.382   0.948
 6511TIP3    H219475   6.350   0.310   0.922
 6512TIP3   OH219476   0.775   1.128   4.728
 6512TIP3    H119477   0.780   1.035   4.748
 6512TIP3    H219478   0.841   1.168   4.784
 6513TIP3   OH219479   2.592   2.144   5.521
 6513TIP3    H119480   2.610   2.221   5.576
 6513TIP3    H219481   2.553   2.081   5.581
 6514TIP3   OH219482   6.337   1.108   2.616
 6514TIP3    H119483   6.332   1.036   2.679
 6514TIP3    H219484   6.339   1.064   2.530
 6515TIP3   OH219485   7.154   1.747   5.968
 6515TIP3    H119486   7.140   1.680   6.036
 6515TIP3    H219487   7.152   1.698   5.886
 6516TIP3   OH219488   6.485   2.384   1.852
 6516TIP3    H119489   6.522   2.296   1.840
 6516TIP3    H219490   6.476   2.418   1.763
 6517TIP3   OH219491   4.423   7.471   0.672
 6517TIP3    H119492   4.473   7.436   0.746
 6517TIP3    H219493   4.371   7.543   0.709
 6518TIP3   OH219494   6.672   2.269   2.171
 6518TIP3    H119495   6.697   2.358   2.148
 6518TIP3    H219496   6.737   2.242   2.236
 6519TIP3   OH219497   1.228   3.910   3.180
 6519TIP3    H119498   1.212   3.879   3.091
 6519TIP3    H219499   1.169   3.984   3.191
 6520TIP3   OH219500   3.244   6.449   1.530
 6520TIP3    H119501   3.306   6.508   1.487
 6520TIP3    H219502   3.284   6.429   1.614
 6521TIP3   OH219503   4.463   0.068   2.567
 6521TIP3    H119504   4.452   0.133   2.497
 6521TIP3    H219505   4.379   0.023   2.571
 6522TIP3   OH219506   4.054   5.809   4.704
 6522TIP3    H119507   4.074   5.823   4.611
 6522TIP3    H219508   4.070   5.894   4.744
 6523TIP3   OH219509   0.317   6.625   2.234
 6523TIP3    H119510   0.387   6.567   2.265
 6523TIP3    H219511   0.290   6.587   2.150
 6524TIP3   OH219512   1.680   0.180   1.451
 6524TIP3    H119513   1.696   0.134   1.368
 6524TIP3    H219514   1.621   0.122   1.499
 6525TIP3   OH219515   0.089   0.323   1.470
 6525TIP3    H119516   0.014   0.266   1.454
 6525TIP3    H219517   0.142   0.316   1.391
 6526TIP3   OH219518   3.575   3.487   3.898
 6526TIP3    H119519   3.559   3.427   3.971
 6526TIP3    H219520   3.596   3.430   3.824
 6527TIP3   OH219521   5.531   2.146   2.185
 6527TIP3    H119522   5.603   2.179   2.132
 6527TIP3    H219523   5.566   2.068   2.228
 6528TIP3   OH219524   5.516   2.946   6.767
 6528TIP3    H119525   5.444   2.883   6.761
 6528TIP3    H219526   5.475   3.031   6.747
 6529TIP3   OH219527   5.848   4.801   3.565
 6529TIP3    H119528   5.791   4.871   3.596
 6529TIP3    H219529   5.929   4.813   3.613
 6530TIP3   OH219530   3.261   0.080   4.061
 6530TIP3    H119531   3.263   0.073   4.157
 6530TIP3    H219532   3.171   0.057   4.038
 6531TIP3   OH219533   3.251   1.503   2.998
 6531TIP3    H119534   3.178   1.563   3.015
 6531TIP3    H219535   3.233   1.466   2.912
 6532TIP3   OH219536   2.761   7.005   5.588
 6532TIP3    H119537   2.810   6.947   5.530
 6532TIP3    H219538   2.744   7.083   5.535
 6533TIP3   OH219539   6.190   0.352   3.384
 6533TIP3    H119540   6.276   0.388   3.403
 6533TIP3    H219541   6.130   0.406   3.436
 6534TIP3   OH219542   2.249   7.254   5.035
 6534TIP3    H119543   2.307   7.325   5.064
 6534TIP3    H219544   2.305   7.199   4.980
 6535TIP3   OH219545   1.528   6.521   0.110
 6535TIP3    H119546   1.554   6.499   0.199
 6535TIP3    H219547   1.438   6.551   0.118
 6536TIP3   OH219548   0.008   6.942   1.317
 6536TIP3    H119549   0.086   6.929   1.262
 6536TIP3    H219550   0.043   6.948   1.406
 6537TIP3   OH219551   0.125   5.477   6.091
 6537TIP3    H119552   0.104   5.524   6.172
 6537TIP3    H219553   0.210   5.511   6.064
 6538TIP3   OH219554   4.518   7.063   5.185
 6538TIP3    H119555   4.463   7.058   5.106
 6538TIP3    H219556   4.570   6.983   5.182
 6539TIP3   OH219557   0.170   3.911   6.551
 6539TIP3    H119558   0.223   3.837   6.522
 6539TIP3    H219559   0.157   3.964   6.472
 6540TIP3   OH219560   7.115   3.853   3.861
 6540TIP3    H119561   7.098   3.895   3.945
 6540TIP3    H219562   7.192   3.898   3.827
 6541TIP3   OH219563   6.837   5.784   0.448
 6541TIP3    H119564   6.894   5.713   0.476
 6541TIP3    H219565   6.865   5.859   0.501
 6542TIP3   OH219566   5.406   5.699   2.327
 6542TIP3    H119567   5.318   5.677   2.360
 6542TIP3    H219568   5.462   5.628   2.359
 6543TIP3   OH219569   0.481   7.627   0.669
 6543TIP3    H119570   0.510   7.670   0.750
 6543TIP3    H219571   0.544   7.656   0.603
 6544TIP3   OH219572   5.810   4.250   4.868
 6544TIP3    H119573   5.889   4.274   4.819
 6544TIP3    H219574   5.814   4.155   4.876
 6545TIP3   OH219575   4.268   1.004   6.565
 6545TIP3    H119576   4.248   0.998   6.471
 6545TIP3    H219577   4.363   0.994   6.570
 6546TIP3   OH219578   1.548   4.531   4.220
 6546TIP3    H119579   1.607   4.591   4.265
 6546TIP3    H219580   1.536   4.458   4.281
 6547TIP3   OH219581   5.550   4.228   5.758
 6547TIP3    H119582   5.510   4.155   5.710
 6547TIP3    H219583   5.595   4.186   5.832
 6548TIP3   OH219584   3.775   0.422   1.737
 6548TIP3    H119585   3.784   0.488   1.670
 6548TIP3    H219586   3.805   0.465   1.818
 6549TIP3   OH219587   6.268   4.044   2.551
 6549TIP3    H119588   6.317   3.982   2.604
 6549TIP3    H219589   6.332   4.109   2.523
 6550TIP3   OH219590   5.402   5.829   2.968
 6550TIP3    H119591   5.386   5.745   2.927
 6550TIP3    H219592   5.492   5.824   2.999
 6551TIP3   OH219593   1.987   5.995   2.130
 6551TIP3    H119594   1.959   6.013   2.040
 6551TIP3    H219595   2.008   5.901   2.130
 6552TIP3   OH219596   4.337   6.913   2.786
 6552TIP3    H119597   4.398   6.936   2.857
 6552TIP3    H219598   4.357   6.823   2.765
 6553TIP3   OH219599   6.505   4.836   0.602
 6553TIP3    H119600   6.581   4.852   0.546
 6553TIP3    H219601   6.519   4.748   0.637
 6554TIP3   OH219602   8.048   2.052   6.020
 6554TIP3    H119603   7.965   2.094   6.042
 6554TIP3    H219604   8.107   2.124   5.999
 6555TIP3   OH219605   5.729   5.617   4.290
 6555TIP3    H119606   5.759   5.594   4.202
 6555TIP3    H219607   5.804   5.599   4.346
 6556TIP3   OH219608   8.208   6.554   2.295
 6556TIP3    H119609   8.123   6.520   2.323
 6556TIP3    H219610   8.272   6.502   2.344
 6557TIP3   OH219611   5.529   5.048   4.155
 6557TIP3    H119612   5.485   5.125   4.118
 6557TIP3    H219613   5.493   4.974   4.106
 6558TIP3   OH219614   0.017   1.087   1.905
 6558TIP3    H119615   0.026   0.992   1.898
 6558TIP3    H219616   0.106   1.119   1.919
 6559TIP3   OH219617   2.418   0.808   1.363
 6559TIP3    H119618   2.379   0.770   1.441
 6559TIP3    H219619   2.360   0.783   1.292
 6560TIP3   OH219620   6.747   6.659   3.470
 6560TIP3    H119621   6.676   6.624   3.523
 6560TIP3    H219622   6.790   6.582   3.434
 6561TIP3   OH219623   2.581   5.940   1.135
 6561TIP3    H119624   2.519   5.903   1.073
 6561TIP3    H219625   2.588   5.876   1.205
 6562TIP3   OH219626   4.908   5.031   6.053
 6562TIP3    H119627   4.910   5.040   6.149
 6562TIP3    H219628   4.822   5.063   6.028
 6563TIP3   OH219629   2.216   4.508   1.513
 6563TIP3    H119630   2.305   4.500   1.479
 6563TIP3    H219631   2.216   4.592   1.560
 6564TIP3   OH219632   3.973   0.215   2.770
 6564TIP3    H119633   3.944   0.124   2.761
 6564TIP3    H219634   3.956   0.236   2.862
 6565TIP3   OH219635   3.852   5.025   0.041
 6565TIP3    H119636   3.929   5.076   0.069
 6565TIP3    H219637   3.884   4.935   0.036
 6566TIP3   OH219638   8.015   5.446   3.123
 6566TIP3    H119639   8.037   5.526   3.171
 6566TIP3    H219640   8.097   5.397   3.121
 6567TIP3   OH219641   0.287   2.469   3.571
 6567TIP3    H119642   0.197   2.499   3.579
 6567TIP3    H219643   0.329   2.494   3.653
 6568TIP3   OH219644   2.750   0.390   0.057
 6568TIP3    H119645   2.711   0.305   0.041
 6568TIP3    H219646   2.690   0.433   0.118
 6569TIP3   OH219647   8.206   7.339   6.444
 6569TIP3    H119648   8.196   7.245   6.451
 6569TIP3    H219649   8.277   7.361   6.503
 6570TIP3   OH219650   1.248   0.372   3.023
 6570TIP3    H119651   1.250   0.315   2.946
 6570TIP3    H219652   1.327   0.425   3.015
 6571TIP3   OH219653   4.038   4.341   0.344
 6571TIP3    H119654   4.015   4.251   0.364
 6571TIP3    H219655   4.119   4.356   0.393
 6572TIP3   OH219656   5.735   1.520   1.906
 6572TIP3    H119657   5.694   1.601   1.876
 6572TIP3    H219658   5.778   1.543   1.988
 6573TIP3   OH219659   1.555   4.596   3.440
 6573TIP3    H119660   1.616   4.523   3.423
 6573TIP3    H219661   1.594   4.641   3.515
 6574TIP3   OH219662   5.512   2.111   2.771
 6574TIP3    H119663   5.513   2.175   2.700
 6574TIP3    H219664   5.513   2.026   2.726
 6575TIP3   OH219665   5.262   1.871   2.022
 6575TIP3    H119666   5.349   1.838   1.998
 6575TIP3    H219667   5.201   1.819   1.969
 6576TIP3   OH219668   4.244   4.314   3.644
 6576TIP3    H119669   4.202   4.253   3.705
 6576TIP3    H219670   4.178   4.330   3.577
 6577TIP3   OH219671   0.558   7.550   1.191
 6577TIP3    H119672   0.485   7.549   1.129
 6577TIP3    H219673   0.523   7.592   1.269
 6578TIP3   OH219674   5.535   4.220   3.459
 6578TIP3    H119675   5.580   4.221   3.374
 6578TIP3    H219676   5.452   4.264   3.442
 6579TIP3   OH219677   5.170   6.744   0.769
 6579TIP3    H119678   5.105   6.677   0.747
 6579TIP3    H219679   5.248   6.695   0.793
 6580TIP3   OH219680   0.503   7.639   2.909
 6580TIP3    H119681   0.462   7.722   2.883
 6580TIP3    H219682   0.438   7.597   2.966
 6581TIP3   OH219683   1.345   7.274   1.616
 6581TIP3    H119684   1.361   7.347   1.675
 6581TIP3    H219685   1.362   7.309   1.528
 6582TIP3   OH219686   2.452   6.791   4.999
 6582TIP3    H119687   2.452   6.706   4.956
 6582TIP3    H219688   2.545   6.812   5.009
 6583TIP3   OH219689   2.081   5.979   4.563
 6583TIP3    H119690   2.055   6.052   4.620
 6583TIP3    H219691   1.998   5.944   4.531
 6584TIP3   OH219692   5.563   4.801   2.362
 6584TIP3    H119693   5.500   4.741   2.403
 6584TIP3    H219694   5.516   4.838   2.288
 6585TIP3   OH219695   3.808   6.110   5.608
 6585TIP3    H119696   3.721   6.070   5.613
 6585TIP3    H219697   3.856   6.054   5.547
 6586TIP3   OH219698   7.180   7.311   3.934
 6586TIP3    H119699   7.121   7.370   3.886
 6586TIP3    H219700   7.160   7.224   3.901
 6587TIP3   OH219701   5.862   2.025   5.450
 6587TIP3    H119702   5.956   2.039   5.461
 6587TIP3    H219703   5.823   2.059   5.530
 6588TIP3   OH219704   3.002   1.332   2.827
 6588TIP3    H119705   2.996   1.398   2.758
 6588TIP3    H219706   3.004   1.383   2.908
 6589TIP3   OH219707   3.333   0.974   3.372
 6589TIP3    H119708   3.290   1.024   3.440
 6589TIP3    H219709   3.427   0.988   3.388
 6590TIP3   OH219710   5.706   6.846   0.728
 6590TIP3    H119711   5.697   6.900   0.649
 6590TIP3    H219712   5.699   6.756   0.696
 6591TIP3   OH219713   7.239   5.617   1.814
 6591TIP3    H119714   7.179   5.633   1.886
 6591TIP3    H219715   7.240   5.522   1.804
 6592TIP3   OH219716   6.846   2.768   4.888
 6592TIP3    H119717   6.911   2.721   4.836
 6592TIP3    H219718   6.879   2.858   4.891
 6593TIP3   OH219719   5.998   4.157   2.648
 6593TIP3    H119720   5.949   4.195   2.575
 6593TIP3    H219721   6.081   4.129   2.609
 6594TIP3   OH219722   7.376   0.184   5.355
 6594TIP3    H119723   7.360   0.190   5.261
 6594TIP3    H219724   7.431   0.106   5.365
 6595TIP3   OH219725   2.829   5.830   0.151
 6595TIP3    H119726   2.804   5.891   0.082
 6595TIP3    H219727   2.924   5.838   0.157
 6596TIP3   OH219728   1.834   6.014   1.904
 6596TIP3    H119729   1.757   6.007   1.960
 6596TIP3    H219730   1.841   6.107   1.883
 6597TIP3   OH219731   4.973   2.275   3.876
 6597TIP3    H119732   4.957   2.363   3.910
 6597TIP3    H219733   5.033   2.236   3.938
 6598TIP3   OH219734   5.682   4.955   2.048
 6598TIP3    H119735   5.603   4.977   2.097
 6598TIP3    H219736   5.751   4.948   2.114
 6599TIP3   OH219737   4.321   6.544   2.972
 6599TIP3    H119738   4.368   6.530   3.054
 6599TIP3    H219739   4.299   6.456   2.941
 6600TIP3   OH219740   4.543   7.051   4.285
 6600TIP3    H119741   4.554   7.035   4.192
 6600TIP3    H219742   4.596   6.985   4.328
 6601TIP3   OH219743   4.539   4.777   0.378
 6601TIP3    H119744   4.550   4.697   0.430
 6601TIP3    H219745   4.575   4.755   0.293
 6602TIP3   OH219746   1.818   3.308   3.071
 6602TIP3    H119747   1.816   3.326   2.977
 6602TIP3    H219748   1.855   3.220   3.078
 6603TIP3   OH219749   5.982   7.623   5.406
 6603TIP3    H119750   6.022   7.579   5.331
 6603TIP3    H219751   5.935   7.697   5.369
 6604TIP3   OH219752   5.553   3.142   0.155
 6604TIP3    H119753   5.522   3.063   0.110
 6604TIP3    H219754   5.609   3.109   0.226
 6605TIP3   OH219755   3.225   3.271   0.881
 6605TIP3    H119756   3.272   3.206   0.829
 6605TIP3    H219757   3.165   3.219   0.935
 6606TIP3   OH219758   2.790   4.154   6.445
 6606TIP3    H119759   2.798   4.119   6.534
 6606TIP3    H219760   2.863   4.115   6.397
 6607TIP3   OH219761   4.213   4.306   4.785
 6607TIP3    H119762   4.120   4.315   4.808
 6607TIP3    H219763   4.250   4.393   4.800
 6608TIP3   OH219764   3.635   2.817   6.881
 6608TIP3    H119765   3.722   2.857   6.874
 6608TIP3    H219766   3.594   2.834   6.796
 6609TIP3   OH219767   2.682   6.115   2.963
 6609TIP3    H119768   2.617   6.183   2.976
 6609TIP3    H219769   2.746   6.129   3.033
 6610TIP3   OH219770   4.271   4.600   0.372
 6610TIP3    H119771   4.315   4.672   0.417
 6610TIP3    H219772   4.287   4.616   0.279
 6611TIP3   OH219773   5.067   0.431   3.184
 6611TIP3    H119774   5.025   0.407   3.101
 6611TIP3    H219775   5.103   0.349   3.218
 6612TIP3   OH219776   4.810   6.339   2.212
 6612TIP3    H119777   4.856   6.419   2.238
 6612TIP3    H219778   4.852   6.270   2.263
 6613TIP3   OH219779   6.356   1.533   6.264
 6613TIP3    H119780   6.414   1.573   6.198
 6613TIP3    H219781   6.309   1.607   6.302
 6614TIP3   OH219782   5.601   3.139   2.278
 6614TIP3    H119783   5.672   3.133   2.342
 6614TIP3    H219784   5.565   3.051   2.273
 6615TIP3   OH219785   7.376   5.645   6.376
 6615TIP3    H119786   7.323   5.685   6.307
 6615TIP3    H219787   7.352   5.552   6.373
 6616TIP3   OH219788   0.486   0.545   4.286
 6616TIP3    H119789   0.541   0.518   4.212
 6616TIP3    H219790   0.496   0.475   4.350
 6617TIP3   OH219791   6.723   7.355   3.769
 6617TIP3    H119792   6.663   7.361   3.843
 6617TIP3    H219793   6.686   7.414   3.703
 6618TIP3   OH219794   0.601   5.996   4.265
 6618TIP3    H119795   0.520   6.046   4.259
 6618TIP3    H219796   0.668   6.055   4.229
 6619TIP3   OH219797   4.916   1.077   6.918
 6619TIP3    H119798   4.951   1.162   6.895
 6619TIP3    H219799   4.985   1.015   6.895
 6620TIP3   OH219800   0.249   1.672   0.652
 6620TIP3    H119801   0.237   1.639   0.741
 6620TIP3    H219802   0.309   1.746   0.661
 6621TIP3   OH219803   3.565   2.724   1.223
 6621TIP3    H119804   3.489   2.782   1.226
 6621TIP3    H219805   3.636   2.776   1.261
 6622TIP3   OH219806   2.359   4.003   0.051
 6622TIP3    H119807   2.297   4.030   0.118
 6622TIP3    H219808   2.316   4.025  -0.032
 6623TIP3   OH219809   2.131   6.210   1.050
 6623TIP3    H119810   2.178   6.274   1.104
 6623TIP3    H219811   2.064   6.174   1.109
 6624TIP3   OH219812   5.360   7.553   6.194
 6624TIP3    H119813   5.357   7.648   6.202
 6624TIP3    H219814   5.290   7.531   6.133
 6625TIP3   OH219815   3.277   1.688   4.179
 6625TIP3    H119816   3.267   1.629   4.104
 6625TIP3    H219817   3.209   1.662   4.241
 6626TIP3   OH219818   5.672   4.498   4.634
 6626TIP3    H119819   5.727   4.550   4.575
 6626TIP3    H219820   5.701   4.524   4.722
 6627TIP3   OH219821   0.901   4.567   3.956
 6627TIP3    H119822   0.928   4.632   4.020
 6627TIP3    H219823   0.859   4.498   4.008
 6628TIP3   OH219824   0.855   1.739   3.085
 6628TIP3    H119825   0.798   1.748   3.009
 6628TIP3    H219826   0.829   1.810   3.144
 6629TIP3   OH219827   6.006   1.666   5.650
 6629TIP3    H119828   6.045   1.742   5.693
 6629TIP3    H219829   6.048   1.591   5.692
 6630TIP3   OH219830   6.002   5.140   1.931
 6630TIP3    H119831   6.081   5.135   1.984
 6630TIP3    H219832   6.033   5.142   1.841
 6631TIP3   OH219833   0.080   6.933   3.527
 6631TIP3    H119834   0.138   6.894   3.593
 6631TIP3    H219835   0.084   7.027   3.546
 6632TIP3   OH219836   7.431   2.140   6.718
 6632TIP3    H119837   7.367   2.123   6.787
 6632TIP3    H219838   7.384   2.196   6.655
 6633TIP3   OH219839   1.800   3.202   6.614
 6633TIP3    H119840   1.828   3.112   6.602
 6633TIP3    H219841   1.705   3.199   6.607
 6634TIP3   OH219842   5.498   1.265   1.488
 6634TIP3    H119843   5.478   1.280   1.395
 6634TIP3    H219844   5.519   1.172   1.493
 6635TIP3   OH219845   0.684   5.272   3.388
 6635TIP3    H119846   0.619   5.319   3.440
 6635TIP3    H219847   0.699   5.191   3.435
 6636TIP3   OH219848   7.594   4.145   5.834
 6636TIP3    H119849   7.630   4.071   5.882
 6636TIP3    H219850   7.654   4.218   5.854
 6637TIP3   OH219851   5.783   0.144   0.310
 6637TIP3    H119852   5.829   0.213   0.357
 6637TIP3    H219853   5.847   0.073   0.301
 6638TIP3   OH219854   7.270   2.187   4.443
 6638TIP3    H119855   7.200   2.127   4.469
 6638TIP3    H219856   7.274   2.180   4.348
 6639TIP3   OH219857   7.803   3.826   5.669
 6639TIP3    H119858   7.821   3.765   5.741
 6639TIP3    H219859   7.783   3.769   5.595
 6640TIP3   OH219860   7.094   0.782   3.737
 6640TIP3    H119861   7.056   0.868   3.756
 6640TIP3    H219862   7.061   0.759   3.651
 6641TIP3   OH219863   2.565   2.463   1.650
 6641TIP3    H119864   2.632   2.460   1.583
 6641TIP3    H219865   2.532   2.373   1.654
 6642TIP3   OH219866   5.730   0.001   0.664
 6642TIP3    H119867   5.705  -0.040   0.582
 6642TIP3    H219868   5.738   0.094   0.643
 6643TIP3   OH219869   5.916   2.925   1.730
 6643TIP3    H119870   5.836   2.887   1.765
 6643TIP3    H219871   5.984   2.901   1.793
 6644TIP3   OH219872   1.642   0.533   2.704
 6644TIP3    H119873   1.692   0.451   2.700
 6644TIP3    H219874   1.602   0.531   2.791
 6645TIP3   OH219875   1.217   5.053   4.237
 6645TIP3    H119876   1.272   4.997   4.292
 6645TIP3    H219877   1.127   5.034   4.265
 6646TIP3   OH219878   1.552   3.034   4.993
 6646TIP3    H119879   1.514   3.081   4.919
 6646TIP3    H219880   1.477   2.995   5.038
 6647TIP3   OH219881   2.717   2.303   0.062
 6647TIP3    H119882   2.641   2.314   0.120
 6647TIP3    H219883   2.728   2.209   0.054
 6648TIP3   OH219884   2.831   4.636   3.327
 6648TIP3    H119885   2.873   4.698   3.268
 6648TIP3    H219886   2.744   4.621   3.289
 6649TIP3   OH219887   7.743   6.436   5.505
 6649TIP3    H119888   7.818   6.401   5.553
 6649TIP3    H219889   7.780   6.468   5.423
 6650TIP3   OH219890   4.971   3.039   0.526
 6650TIP3    H119891   4.983   3.039   0.431
 6650TIP3    H219892   5.059   3.026   0.561
 6651TIP3   OH219893   2.466   2.524   6.793
 6651TIP3    H119894   2.426   2.439   6.772
 6651TIP3    H219895   2.521   2.506   6.869
 6652TIP3   OH219896   0.928   6.486   3.022
 6652TIP3    H119897   0.982   6.458   2.948
 6652TIP3    H219898   0.855   6.532   2.982
 6653TIP3   OH219899   4.308   3.991   0.905
 6653TIP3    H119900   4.214   3.974   0.904
 6653TIP3    H219901   4.345   3.927   0.845
 6654TIP3   OH219902   7.111   7.696   4.185
 6654TIP3    H119903   7.024   7.690   4.225
 6654TIP3    H219904   7.165   7.634   4.233
 6655TIP3   OH219905   0.929   3.518   0.214
 6655TIP3    H119906   0.936   3.534   0.120
 6655TIP3    H219907   1.006   3.465   0.236
 6656TIP3   OH219908   5.352   7.292   5.629
 6656TIP3    H119909   5.441   7.268   5.653
 6656TIP3    H219910   5.312   7.211   5.597
 6657TIP3   OH219911   6.497   2.231   2.974
 6657TIP3    H119912   6.534   2.296   3.033
 6657TIP3    H219913   6.460   2.283   2.902
 6658TIP3   OH219914  -0.017   1.508   2.477
 6658TIP3    H119915   0.001   1.439   2.414
 6658TIP3    H219916  -0.097   1.550   2.444
 6659TIP3   OH219917   5.536   0.236   1.018
 6659TIP3    H119918   5.610   0.272   0.971
 6659TIP3    H219919   5.565   0.149   1.046
 6660TIP3   OH219920   6.510   0.391   4.538
 6660TIP3    H119921   6.584   0.394   4.478
 6660TIP3    H219922   6.490   0.483   4.556
 6661TIP3   OH219923   5.382   5.825   6.166
 6661TIP3    H119924   5.399   5.750   6.223
 6661TIP3    H219925   5.318   5.877   6.214
 6662TIP3   OH219926   2.387   5.098   1.260
 6662TIP3    H119927   2.363   5.149   1.337
 6662TIP3    H219928   2.306   5.090   1.211
 6663TIP3   OH219929   7.002   4.842   2.463
 6663TIP3    H119930   7.042   4.818   2.547
 6663TIP3    H219931   6.908   4.842   2.481
 6664TIP3   OH219932   6.660   2.978   4.302
 6664TIP3    H119933   6.640   2.885   4.315
 6664TIP3    H219934   6.713   3.002   4.377
 6665TIP3   OH219935   2.350   2.791   3.419
 6665TIP3    H119936   2.429   2.833   3.386
 6665TIP3    H219937   2.296   2.775   3.341
 6666TIP3   OH219938   5.055   7.122   3.392
 6666TIP3    H119939   5.065   7.217   3.378
 6666TIP3    H219940   5.106   7.082   3.322
 6667TIP3   OH219941   2.683   6.607   5.115
 6667TIP3    H119942   2.631   6.528   5.103
 6667TIP3    H219943   2.735   6.614   5.035
 6668TIP3   OH219944   3.849   0.164   6.251
 6668TIP3    H119945   3.884   0.079   6.278
 6668TIP3    H219946   3.887   0.180   6.165
 6669TIP3   OH219947   2.672   3.311   4.547
 6669TIP3    H119948   2.742   3.364   4.585
 6669TIP3    H219949   2.714   3.229   4.523
 6670TIP3   OH219950   7.333   4.419   0.871
 6670TIP3    H119951   7.315   4.501   0.917
 6670TIP3    H219952   7.411   4.438   0.819
 6671TIP3   OH219953   1.672   7.026   5.830
 6671TIP3    H119954   1.598   7.085   5.818
 6671TIP3    H219955   1.633   6.938   5.832
 6672TIP3   OH219956   5.574   0.601   6.409
 6672TIP3    H119957   5.626   0.551   6.472
 6672TIP3    H219958   5.546   0.536   6.344
 6673TIP3   OH219959   1.372   4.204   1.325
 6673TIP3    H119960   1.428   4.151   1.381
 6673TIP3    H219961   1.288   4.157   1.323
 6674TIP3   OH219962   7.410   2.808   1.406
 6674TIP3    H119963   7.330   2.804   1.354
 6674TIP3    H219964   7.410   2.896   1.443
 6675TIP3   OH219965   6.517   1.646   4.398
 6675TIP3    H119966   6.578   1.719   4.396
 6675TIP3    H219967   6.470   1.651   4.315
 6676TIP3   OH219968   0.591   1.235   2.169
 6676TIP3    H119969   0.599   1.184   2.089
 6676TIP3    H219970   0.577   1.325   2.139
 6677TIP3   OH219971   4.312   7.089   0.658
 6677TIP3    H119972   4.365   7.140   0.597
 6677TIP3    H219973   4.351   7.106   0.744
 6678TIP3   OH219974   2.876   7.794   1.569
 6678TIP3    H119975   2.891   7.843   1.650
 6678TIP3    H219976   2.828   7.855   1.513
 6679TIP3   OH219977   4.992   6.692   3.173
 6679TIP3    H119978   5.018   6.638   3.248
 6679TIP3    H219979   5.012   6.638   3.096
 6680TIP3   OH219980   1.664   5.899   3.843
 6680TIP3    H119981   1.618   5.844   3.781
 6680TIP3    H219982   1.595   5.945   3.891
 6681TIP3   OH219983   3.797   2.734   2.234
 6681TIP3    H119984   3.725   2.784   2.195
 6681TIP3    H219985   3.777   2.733   2.328
 6682TIP3   OH219986   3.630   4.897   2.052
 6682TIP3    H119987   3.656   4.911   2.143
 6682TIP3    H219988   3.558   4.834   2.057
 6683TIP3   OH219989   7.384   4.771   5.798
 6683TIP3    H119990   7.459   4.784   5.855
 6683TIP3    H219991   7.376   4.854   5.750
 6684TIP3   OH219992   7.848   5.897   6.059
 6684TIP3    H119993   7.829   5.980   6.013
 6684TIP3    H219994   7.765   5.873   6.100
 6685TIP3   OH219995   0.270   2.861   3.959
 6685TIP3    H119996   0.214   2.831   3.888
 6685TIP3    H219997   0.257   2.797   4.029
 6686TIP3   OH219998   2.664   1.109   1.837
 6686TIP3    H119999   2.749   1.140   1.806
 6686TIP3    H220000   2.664   1.127   1.931
 6687TIP3   OH220001   1.464   0.275   1.170
 6687TIP3    H120002   1.553   0.307   1.155
 6687TIP3    H220003   1.441   0.309   1.257
 6688TIP3   OH220004   5.470   5.298   6.149
 6688TIP3    H120005   5.535   5.238   6.113
 6688TIP3    H220006   5.421   5.329   6.072
 6689TIP3   OH220007   6.119   5.915   0.999
 6689TIP3    H120008   6.200   5.865   0.987
 6689TIP3    H220009   6.119   5.977   0.926
 6690TIP3   OH220010   4.053   7.172   1.330
 6690TIP3    H120011   4.125   7.114   1.305
 6690TIP3    H220012   4.079   7.258   1.296
 6691TIP3   OH220013   7.479   4.920   5.178
 6691TIP3    H120014   7.516   4.832   5.180
 6691TIP3    H220015   7.394   4.909   5.136
 6692TIP3   OH220016   2.850   6.579   4.876
 6692TIP3    H120017   2.919   6.637   4.908
 6692TIP3    H220018   2.869   6.569   4.782
 6693TIP3   OH220019   3.623   7.094   3.412
 6693TIP3    H120020   3.687   7.150   3.456
 6693TIP3    H220021   3.542   7.107   3.462
 6694TIP3   OH220022   5.438   3.879   4.040
 6694TIP3    H120023   5.450   3.918   3.954
 6694TIP3    H220024   5.523   3.888   4.083
 6695TIP3   OH220025   5.975   3.916   4.355
 6695TIP3    H120026   6.017   3.946   4.436
 6695TIP3    H220027   5.971   3.821   4.364
 6696TIP3   OH220028   5.079   0.761   4.932
 6696TIP3    H120029   5.035   0.789   4.852
 6696TIP3    H220030   5.149   0.703   4.901
 6697TIP3   OH220031   2.606   7.761   3.153
 6697TIP3    H120032   2.561   7.678   3.136
 6697TIP3    H220033   2.683   7.737   3.204
 6698TIP3   OH220034   0.657   6.789   0.265
 6698TIP3    H120035   0.715   6.864   0.278
 6698TIP3    H220036   0.716   6.714   0.259
 6699TIP3   OH220037   8.325   0.659   2.209
 6699TIP3    H120038   8.253   0.721   2.218
 6699TIP3    H220039   8.293   0.592   2.148
 6700TIP3   OH220040   1.193   0.903   2.892
 6700TIP3    H120041   1.118   0.850   2.865
 6700TIP3    H220042   1.232   0.855   2.965
 6701TIP3   OH220043   3.744   4.668   5.730
 6701TIP3    H120044   3.788   4.660   5.815
 6701TIP3    H220045   3.705   4.755   5.732
 6702TIP3   OH220046   2.588   2.193   3.641
 6702TIP3    H120047   2.545   2.204   3.726
 6702TIP3    H220048   2.558   2.267   3.588
 6703TIP3   OH220049   3.819   4.341   6.302
 6703TIP3    H120050   3.746   4.305   6.253
 6703TIP3    H220051   3.891   4.279   6.289
 6704TIP3   OH220052   7.989   7.113   4.464
 6704TIP3    H120053   7.900   7.115   4.428
 6704TIP3    H220054   7.991   7.036   4.521
 6705TIP3   OH220055   0.219   4.649   0.053
 6705TIP3    H120056   0.242   4.736   0.087
 6705TIP3    H220057   0.299   4.618   0.011
 6706TIP3   OH220058   8.280   7.057   1.079
 6706TIP3    H120059   8.256   6.980   1.026
 6706TIP3    H220060   8.313   7.020   1.161
 6707TIP3   OH220061   6.860   3.324   6.175
 6707TIP3    H120062   6.854   3.404   6.228
 6707TIP3    H220063   6.953   3.311   6.160
 6708TIP3   OH220064   3.742   0.478   5.429
 6708TIP3    H120065   3.730   0.408   5.493
 6708TIP3    H220066   3.654   0.515   5.417
 6709TIP3   OH220067   5.655   4.943   3.716
 6709TIP3    H120068   5.646   5.011   3.782
 6709TIP3    H220069   5.625   4.863   3.760
 6710TIP3   OH220070   6.406   3.283   2.383
 6710TIP3    H120071   6.412   3.238   2.298
 6710TIP3    H220072   6.312   3.293   2.398
 6711TIP3   OH220073   6.717   3.729   0.204
 6711TIP3    H120074   6.768   3.785   0.145
 6711TIP3    H220075   6.782   3.694   0.265
 6712TIP3   OH220076   4.273   5.688   3.510
 6712TIP3    H120077   4.247   5.771   3.551
 6712TIP3    H220078   4.364   5.676   3.536
 6713TIP3   OH220079   2.849   7.780   0.448
 6713TIP3    H120080   2.854   7.695   0.493
 6713TIP3    H220081   2.766   7.778   0.402
 6714TIP3   OH220082   2.238   6.490   5.247
 6714TIP3    H120083   2.287   6.571   5.264
 6714TIP3    H220084   2.169   6.517   5.187
 6715TIP3   OH220085   1.115   6.070   3.519
 6715TIP3    H120086   1.195   6.116   3.495
 6715TIP3    H220087   1.045   6.133   3.498
 6716TIP3   OH220088   1.307   5.931   5.437
 6716TIP3    H120089   1.241   5.890   5.382
 6716TIP3    H220090   1.382   5.943   5.379
 6717TIP3   OH220091   2.627   4.034   5.353
 6717TIP3    H120092   2.575   4.055   5.276
 6717TIP3    H220093   2.600   3.946   5.378
 6718TIP3   OH220094   5.344   7.799   1.602
 6718TIP3    H120095   5.323   7.800   1.696
 6718TIP3    H220096   5.439   7.790   1.598
 6719TIP3   OH220097   1.198   1.878   3.095
 6719TIP3    H120098   1.194   1.974   3.105
 6719TIP3    H220099   1.187   1.844   3.183
 6720TIP3   OH220100   6.945   3.550   3.535
 6720TIP3    H120101   6.999   3.627   3.521
 6720TIP3    H220102   7.004   3.485   3.572
 6721TIP3   OH220103   3.319   4.377   2.701
 6721TIP3    H120104   3.327   4.468   2.731
 6721TIP3    H220105   3.392   4.366   2.640
 6722TIP3   OH220106   4.315   0.669   2.015
 6722TIP3    H120107   4.276   0.607   2.077
 6722TIP3    H220108   4.321   0.621   1.933
 6723TIP3   OH220109   0.584   7.049   1.883
 6723TIP3    H120110   0.614   7.114   1.819
 6723TIP3    H220111   0.560   7.101   1.960
 6724TIP3   OH220112   8.350   3.316   1.407
 6724TIP3    H120113   8.426   3.279   1.362
 6724TIP3    H220114   8.275   3.290   1.353
 6725TIP3   OH220115   7.789   7.397   1.486
 6725TIP3    H120116   7.854   7.327   1.485
 6725TIP3    H220117   7.716   7.360   1.537
 6726TIP3   OH220118   2.631   0.767   3.311
 6726TIP3    H120119   2.722   0.785   3.285
 6726TIP3    H220120   2.583   0.766   3.228
 6727TIP3   OH220121   7.073   3.006   4.202
 6727TIP3    H120122   7.164   2.984   4.221
 6727TIP3    H220123   7.073   3.101   4.192
 6728TIP3   OH220124   0.233   7.260   4.812
 6728TIP3    H120125   0.240   7.246   4.718
 6728TIP3    H220126   0.140   7.246   4.832
 6729TIP3   OH220127   6.959   6.666   2.863
 6729TIP3    H120128   6.931   6.720   2.789
 6729TIP3    H220129   7.035   6.618   2.830
 6730TIP3   OH220130   8.199   4.941   1.021
 6730TIP3    H120131   8.275   4.997   1.038
 6730TIP3    H220132   8.128   4.982   1.071
 6731TIP3   OH220133   3.662   0.950   6.676
 6731TIP3    H120134   3.609   0.987   6.747
 6731TIP3    H220135   3.604   0.888   6.632
 6732TIP3   OH220136   1.598   0.564   5.075
 6732TIP3    H120137   1.655   0.512   5.132
 6732TIP3    H220138   1.510   0.533   5.095
 6733TIP3   OH220139   5.770   3.899   2.914
 6733TIP3    H120140   5.759   3.994   2.915
 6733TIP3    H220141   5.717   3.867   2.987
 6734TIP3   OH220142   2.095   5.466   0.345
 6734TIP3    H120143   2.095   5.553   0.384
 6734TIP3    H220144   2.002   5.447   0.328
 6735TIP3   OH220145   5.926   7.407   1.707
 6735TIP3    H120146   5.930   7.502   1.715
 6735TIP3    H220147   6.000   7.374   1.757
 6736TIP3   OH220148   2.480   0.643   4.429
 6736TIP3    H120149   2.417   0.611   4.494
 6736TIP3    H220150   2.496   0.734   4.454
 6737TIP3   OH220151   2.460   5.113   3.166
 6737TIP3    H120152   2.522   5.064   3.112
 6737TIP3    H220153   2.388   5.052   3.182
 6738TIP3   OH220154   6.140   1.479   6.083
 6738TIP3    H120155   6.161   1.389   6.059
 6738TIP3    H220156   6.208   1.503   6.147
 6739TIP3   OH220157   3.533   2.080   2.285
 6739TIP3    H120158   3.464   2.130   2.241
 6739TIP3    H220159   3.611   2.135   2.278
 6740TIP3   OH220160   6.155   5.438   2.027
 6740TIP3    H120161   6.085   5.428   2.091
 6740TIP3    H220162   6.162   5.532   2.013
 6741TIP3   OH220163   2.137   3.704   1.345
 6741TIP3    H120164   2.108   3.630   1.398
 6741TIP3    H220165   2.088   3.779   1.379
 6742TIP3   OH220166   7.842   4.281   5.553
 6742TIP3    H120167   7.900   4.205   5.557
 6742TIP3    H220168   7.836   4.311   5.644
 6743TIP3   OH220169   3.383   1.917   1.098
 6743TIP3    H120170   3.300   1.935   1.141
 6743TIP3    H220171   3.412   2.002   1.064
 6744TIP3   OH220172   7.788   4.635   6.542
 6744TIP3    H120173   7.806   4.601   6.630
 6744TIP3    H220174   7.693   4.646   6.541
 6745TIP3   OH220175   7.227   0.504   5.905
 6745TIP3    H120176   7.269   0.560   5.969
 6745TIP3    H220177   7.296   0.482   5.843
 6746TIP3   OH220178   7.114  -0.044   0.286
 6746TIP3    H120179   7.101   0.049   0.305
 6746TIP3    H220180   7.061  -0.090   0.351
 6747TIP3   OH220181   6.875   2.199   3.061
 6747TIP3    H120182   6.869   2.188   3.156
 6747TIP3    H220183   6.800   2.255   3.039
 6748TIP3   OH220184   7.129   5.323   1.286
 6748TIP3    H120185   7.087   5.381   1.349
 6748TIP3    H220186   7.223   5.337   1.299
 6749TIP3   OH220187   6.711   2.838   1.137
 6749TIP3    H120188   6.691   2.767   1.198
 6749TIP3    H220189   6.626   2.877   1.117
 6750TIP3   OH220190   6.399   1.828   5.258
 6750TIP3    H120191   6.384   1.741   5.223
 6750TIP3    H220192   6.494   1.835   5.267
 6751TIP3   OH220193   0.492   1.544   5.686
 6751TIP3    H120194   0.558   1.479   5.710
 6751TIP3    H220195   0.475   1.592   5.768
 6752TIP3   OH220196   2.551   5.381   5.831
 6752TIP3    H120197   2.562   5.476   5.823
 6752TIP3    H220198   2.466   5.370   5.872
 6753TIP3   OH220199   6.891   1.142   4.618
 6753TIP3    H120200   6.927   1.156   4.706
 6753TIP3    H220201   6.945   1.196   4.561
 6754TIP3   OH220202   4.235   6.333   4.167
 6754TIP3    H120203   4.187   6.408   4.131
 6754TIP3    H220204   4.252   6.355   4.258
 6755TIP3   OH220205   7.805   2.646   0.717
 6755TIP3    H120206   7.897   2.651   0.742
 6755TIP3    H220207   7.764   2.721   0.760
 6756TIP3   OH220208   5.317   1.845   2.310
 6756TIP3    H120209   5.412   1.856   2.320
 6756TIP3    H220210   5.298   1.879   2.223
 6757TIP3   OH220211   7.113   6.847   4.770
 6757TIP3    H120212   7.097   6.753   4.782
 6757TIP3    H220213   7.126   6.857   4.676
 6758TIP3   OH220214   6.664   1.560   1.140
 6758TIP3    H120215   6.666   1.555   1.045
 6758TIP3    H220216   6.650   1.470   1.169
 6759TIP3   OH220217   4.702   6.078   0.059
 6759TIP3    H120218   4.745   6.041  -0.018
 6759TIP3    H220219   4.772   6.125   0.105
 6760TIP3   OH220220   0.395   1.033   1.605
 6760TIP3    H120221   0.343   0.956   1.628
 6760TIP3    H220222   0.340   1.108   1.627
 6761TIP3   OH220223   2.634   3.795   5.557
 6761TIP3    H120224   2.573   3.853   5.604
 6761TIP3    H220225   2.714   3.796   5.610
 6762TIP3   OH220226   7.715   6.287   2.297
 6762TIP3    H120227   7.622   6.307   2.291
 6762TIP3    H220228   7.736   6.245   2.214
 6763TIP3   OH220229   8.025   6.582   4.034
 6763TIP3    H120230   7.994   6.552   3.949
 6763TIP3    H220231   7.994   6.672   4.041
 6764TIP3   OH220232   4.004   5.767   5.614
 6764TIP3    H120233   4.038   5.715   5.687
 6764TIP3    H220234   4.069   5.756   5.545
 6765TIP3   OH220235   5.345   1.156   6.670
 6765TIP3    H120236   5.357   1.064   6.647
 6765TIP3    H220237   5.330   1.155   6.765
 6766TIP3   OH220238   8.304   4.082   0.850
 6766TIP3    H120239   8.227   4.052   0.899
 6766TIP3    H220240   8.330   4.007   0.798
 6767TIP3   OH220241   4.819   3.750   6.617
 6767TIP3    H120242   4.841   3.715   6.703
 6767TIP3    H220243   4.819   3.845   6.629
 6768TIP3   OH220244   4.809   2.208   1.102
 6768TIP3    H120245   4.771   2.127   1.134
 6768TIP3    H220246   4.794   2.206   1.007
 6769TIP3   OH220247   5.394   5.173   1.754
 6769TIP3    H120248   5.484   5.183   1.785
 6769TIP3    H220249   5.369   5.085   1.782
 6770TIP3   OH220250   0.615   3.374   0.232
 6770TIP3    H120251   0.710   3.391   0.227
 6770TIP3    H220252   0.594   3.382   0.325
 6771TIP3   OH220253   2.419   2.780   6.748
 6771TIP3    H120254   2.514   2.785   6.760
 6771TIP3    H220255   2.397   2.692   6.779
 6772TIP3   OH220256   3.584   3.970   3.160
 6772TIP3    H120257   3.507   3.926   3.122
 6772TIP3    H220258   3.599   3.924   3.243
 6773TIP3   OH220259   1.073   3.518   3.428
 6773TIP3    H120260   1.091   3.576   3.354
 6773TIP3    H220261   1.011   3.454   3.395
 6774TIP3   OH220262   1.278   0.050   6.331
 6774TIP3    H120263   1.340   0.050   6.258
 6774TIP3    H220264   1.194   0.026   6.291
 6775TIP3   OH220265   1.440   5.775   2.992
 6775TIP3    H120266   1.509   5.743   2.934
 6775TIP3    H220267   1.358   5.755   2.945
 6776TIP3   OH220268   1.587   2.595   5.268
 6776TIP3    H120269   1.589   2.617   5.361
 6776TIP3    H220270   1.501   2.554   5.255
 6777TIP3   OH220271   0.382   0.322   6.877
 6777TIP3    H120272   0.313   0.351   6.817
 6777TIP3    H220273   0.420   0.246   6.834
 6778TIP3   OH220274   7.474   4.602   4.138
 6778TIP3    H120275   7.434   4.665   4.078
 6778TIP3    H220276   7.417   4.603   4.215
 6779TIP3   OH220277   8.138   3.391   6.674
 6779TIP3    H120278   8.099   3.307   6.648
 6779TIP3    H220279   8.063   3.445   6.699
 6780TIP3   OH220280   2.831   0.691   3.091
 6780TIP3    H120281   2.850   0.772   3.138
 6780TIP3    H220282   2.899   0.630   3.118
 6781TIP3   OH220283   5.268   5.982   4.101
 6781TIP3    H120284   5.281   6.074   4.081
 6781TIP3    H220285   5.223   5.981   4.186
 6782TIP3   OH220286   7.024   7.902   0.839
 6782TIP3    H120287   7.033   7.868   0.928
 6782TIP3    H220288   6.933   7.930   0.833
 6783TIP3   OH220289   1.614   1.932   2.451
 6783TIP3    H120290   1.704   1.957   2.433
 6783TIP3    H220291   1.620   1.872   2.525
 6784TIP3   OH220292   4.431   3.524   5.069
 6784TIP3    H120293   4.361   3.507   5.005
 6784TIP3    H220294   4.508   3.541   5.016
 6785TIP3   OH220295   1.865   2.317   0.500
 6785TIP3    H120296   1.934   2.380   0.479
 6785TIP3    H220297   1.789   2.348   0.451
 6786TIP3   OH220298   4.930   4.550   4.074
 6786TIP3    H120299   4.929   4.636   4.032
 6786TIP3    H220300   4.985   4.496   4.016
 6787TIP3   OH220301   1.571   2.920   5.358
 6787TIP3    H120302   1.479   2.927   5.330
 6787TIP3    H220303   1.565   2.903   5.452
 6788TIP3   OH220304   2.435   2.884   1.404
 6788TIP3    H120305   2.344   2.912   1.392
 6788TIP3    H220306   2.472   2.885   1.316
 6789TIP3   OH220307   4.622   6.425   5.820
 6789TIP3    H120308   4.681   6.446   5.747
 6789TIP3    H220309   4.629   6.330   5.830
 6790TIP3   OH220310   6.949   2.521   1.477
 6790TIP3    H120311   7.024   2.580   1.480
 6790TIP3    H220312   6.979   2.448   1.423
 6791TIP3   OH220313   7.671   6.393   1.635
 6791TIP3    H120314   7.593   6.425   1.591
 6791TIP3    H220315   7.728   6.363   1.564
 6792TIP3   OH220316   1.160   3.540   5.558
 6792TIP3    H120317   1.188   3.541   5.466
 6792TIP3    H220318   1.242   3.547   5.607
 6793TIP3   OH220319   5.236   4.226   5.640
 6793TIP3    H120320   5.167   4.182   5.590
 6793TIP3    H220321   5.305   4.161   5.647
 6794TIP3   OH220322   0.934   2.630   1.627
 6794TIP3    H120323   0.932   2.681   1.546
 6794TIP3    H220324   1.006   2.668   1.677
 6795TIP3   OH220325   6.171   0.894   5.535
 6795TIP3    H120326   6.141   0.867   5.449
 6795TIP3    H220327   6.249   0.841   5.551
 6796TIP3   OH220328   6.318   1.112   5.814
 6796TIP3    H120329   6.412   1.121   5.798
 6796TIP3    H220330   6.277   1.164   5.745
 6797TIP3   OH220331   4.314   4.995   4.180
 6797TIP3    H120332   4.345   4.906   4.200
 6797TIP3    H220333   4.271   5.024   4.260
 6798TIP3   OH220334   3.829   7.685   3.440
 6798TIP3    H120335   3.898   7.622   3.419
 6798TIP3    H220336   3.761   7.633   3.482
 6799TIP3   OH220337   2.648   0.687   1.987
 6799TIP3    H120338   2.635   0.768   1.939
 6799TIP3    H220339   2.605   0.620   1.934
 6800TIP3   OH220340   1.102   2.486   4.810
 6800TIP3    H120341   1.023   2.438   4.836
 6800TIP3    H220342   1.070   2.552   4.749
 6801TIP3   OH220343   5.910   1.708   4.452
 6801TIP3    H120344   5.912   1.742   4.363
 6801TIP3    H220345   5.998   1.671   4.465
 6802TIP3   OH220346   1.440   5.701   5.215
 6802TIP3    H120347   1.433   5.795   5.202
 6802TIP3    H220348   1.523   5.688   5.260
 6803TIP3   OH220349   7.694   7.259   0.707
 6803TIP3    H120350   7.628   7.210   0.757
 6803TIP3    H220351   7.653   7.344   0.691
 6804TIP3   OH220352   7.703   0.988   6.354
 6804TIP3    H120353   7.777   0.985   6.414
 6804TIP3    H220354   7.635   0.937   6.397
 6805TIP3   OH220355   6.228   6.500   0.384
 6805TIP3    H120356   6.266   6.569   0.437
 6805TIP3    H220357   6.207   6.430   0.446
 6806TIP3   OH220358   6.095   1.300   5.358
 6806TIP3    H120359   6.183   1.302   5.396
 6806TIP3    H220360   6.055   1.221   5.396
 6807TIP3   OH220361   3.912   6.601   5.941
 6807TIP3    H120362   3.841   6.562   5.992
 6807TIP3    H220363   3.976   6.531   5.931
 6808TIP3   OH220364   0.409   2.427   5.538
 6808TIP3    H120365   0.480   2.396   5.482
 6808TIP3    H220366   0.453   2.457   5.618
 6809TIP3   OH220367   1.750   0.422   4.519
 6809TIP3    H120368   1.806   0.467   4.582
 6809TIP3    H220369   1.793   0.338   4.504
 6810TIP3   OH220370   0.057   3.916   4.831
 6810TIP3    H120371   0.024   4.002   4.856
 6810TIP3    H220372   0.052   3.914   4.736
 6811TIP3   OH220373   6.480   3.909   2.658
 6811TIP3    H120374   6.569   3.902   2.625
 6811TIP3    H220375   6.476   3.846   2.731
 6812TIP3   OH220376   5.713   7.338   0.664
 6812TIP3    H120377   5.636   7.288   0.691
 6812TIP3    H220378   5.679   7.401   0.599
 6813TIP3   OH220379   5.867   5.922   6.305
 6813TIP3    H120380   5.912   5.972   6.237
 6813TIP3    H220381   5.936   5.870   6.346
 6814TIP3   OH220382   7.544   4.044   6.368
 6814TIP3    H120383   7.491   3.997   6.433
 6814TIP3    H220384   7.552   4.133   6.403
 6815TIP3   OH220385   6.151   4.158   1.369
 6815TIP3    H120386   6.056   4.173   1.371
 6815TIP3    H220387   6.189   4.245   1.384
 6816TIP3   OH220388   7.270   3.940   2.075
 6816TIP3    H120389   7.264   3.973   2.165
 6816TIP3    H220390   7.226   4.007   2.022
 6817TIP3   OH220391   6.664   1.462   3.563
 6817TIP3    H120392   6.718   1.528   3.606
 6817TIP3    H220393   6.698   1.458   3.473
 6818TIP3   OH220394   4.103   6.223   5.519
 6818TIP3    H120395   4.144   6.155   5.466
 6818TIP3    H220396   4.044   6.176   5.578
 6819TIP3   OH220397   3.513   0.189   4.796
 6819TIP3    H120398   3.480   0.106   4.829
 6819TIP3    H220399   3.586   0.165   4.740
 6820TIP3   OH220400   4.651   4.021   5.236
 6820TIP3    H120401   4.634   4.050   5.146
 6820TIP3    H220402   4.744   4.041   5.250
 6821TIP3   OH220403   3.892   6.379   0.650
 6821TIP3    H120404   3.962   6.440   0.627
 6821TIP3    H220405   3.820   6.434   0.680
 6822TIP3   OH220406   2.054   5.481   6.506
 6822TIP3    H120407   1.961   5.461   6.501
 6822TIP3    H220408   2.092   5.408   6.555
 6823TIP3   OH220409   6.106   5.302   0.416
 6823TIP3    H120410   6.185   5.349   0.391
 6823TIP3    H220411   6.121   5.277   0.507
 6824TIP3   OH220412   1.287   3.901   0.499
 6824TIP3    H120413   1.232   3.948   0.437
 6824TIP3    H220414   1.373   3.943   0.491
 6825TIP3   OH220415   1.755   7.860   1.724
 6825TIP3    H120416   1.722   7.795   1.661
 6825TIP3    H220417   1.850   7.860   1.709
 6826TIP3   OH220418   7.968   4.947   4.104
 6826TIP3    H120419   7.998   4.866   4.145
 6826TIP3    H220420   7.879   4.959   4.138
 6827TIP3   OH220421   5.124   3.837   5.607
 6827TIP3    H120422   5.206   3.846   5.655
 6827TIP3    H220423   5.085   3.756   5.641
 6828TIP3   OH220424   2.359   7.852   3.867
 6828TIP3    H120425   2.354   7.769   3.914
 6828TIP3    H220426   2.320   7.833   3.781
 6829TIP3   OH220427   2.840   5.461   3.390
 6829TIP3    H120428   2.810   5.382   3.436
 6829TIP3    H220429   2.913   5.494   3.444
 6830TIP3   OH220430   1.645   2.803   4.762
 6830TIP3    H120431   1.708   2.761   4.704
 6830TIP3    H220432   1.621   2.734   4.825
 6831TIP3   OH220433   5.932   5.545   3.482
 6831TIP3    H120434   5.955   5.588   3.564
 6831TIP3    H220435   5.845   5.508   3.499
 6832TIP3   OH220436   0.162   0.114   1.288
 6832TIP3    H120437   0.254   0.107   1.263
 6832TIP3    H220438   0.135   0.024   1.306
 6833TIP3   OH220439   7.230   0.335   4.046
 6833TIP3    H120440   7.204   0.394   3.975
 6833TIP3    H220441   7.222   0.248   4.008
 6834TIP3   OH220442   7.377   0.710   4.542
 6834TIP3    H120443   7.429   0.631   4.556
 6834TIP3    H220444   7.388   0.761   4.623
 6835TIP3   OH220445   2.864   7.862   3.737
 6835TIP3    H120446   2.789   7.814   3.775
 6835TIP3    H220447   2.873   7.827   3.649
 6836TIP3   OH220448   8.086   5.218   5.675
 6836TIP3    H120449   8.094   5.306   5.711
 6836TIP3    H220450   8.097   5.160   5.751
 6837TIP3   OH220451   7.922   3.301   2.312
 6837TIP3    H120452   7.932   3.335   2.401
 6837TIP3    H220453   7.944   3.375   2.256
 6838TIP3   OH220454   4.475   0.365   1.525
 6838TIP3    H120455   4.400   0.317   1.562
 6838TIP3    H220456   4.537   0.371   1.598
 6839TIP3   OH220457   1.681   7.565   3.269
 6839TIP3    H120458   1.721   7.618   3.200
 6839TIP3    H220459   1.622   7.506   3.222
 6840TIP3   OH220460   0.365   4.729   3.220
 6840TIP3    H120461   0.272   4.712   3.233
 6840TIP3    H220462   0.386   4.687   3.137
 6841TIP3   OH220463   8.137   4.463   1.039
 6841TIP3    H120464   8.092   4.504   0.965
 6841TIP3    H220465   8.117   4.519   1.113
 6842TIP3   OH220466   8.311   7.012   3.230
 6842TIP3    H120467   8.329   7.106   3.234
 6842TIP3    H220468   8.219   7.006   3.203
 6843TIP3   OH220469   3.243   0.490   5.949
 6843TIP3    H120470   3.299   0.561   5.918
 6843TIP3    H220471   3.284   0.411   5.914
 6844TIP3   OH220472   7.184   6.258   1.233
 6844TIP3    H120473   7.108   6.258   1.174
 6844TIP3    H220474   7.257   6.227   1.179
 6845TIP3   OH220475   3.763   2.244   2.093
 6845TIP3    H120476   3.829   2.176   2.099
 6845TIP3    H220477   3.774   2.296   2.173
 6846TIP3   OH220478   6.518   7.059   4.985
 6846TIP3    H120479   6.548   7.025   4.901
 6846TIP3    H220480   6.463   6.989   5.021
 6847TIP3   OH220481   6.605   1.907   3.017
 6847TIP3    H120482   6.540   1.838   3.026
 6847TIP3    H220483   6.569   1.982   3.065
 6848TIP3   OH220484   6.259   5.995   2.653
 6848TIP3    H120485   6.266   6.090   2.653
 6848TIP3    H220486   6.348   5.965   2.635
 6849TIP3   OH220487   3.145   6.947   2.646
 6849TIP3    H120488   3.130   6.977   2.736
 6849TIP3    H220489   3.129   6.852   2.651
 6850TIP3   OH220490   2.305   1.550   0.731
 6850TIP3    H120491   2.324   1.549   0.637
 6850TIP3    H220492   2.229   1.608   0.739
 6851TIP3   OH220493   0.007   2.162   6.025
 6851TIP3    H120494  -0.058   2.183   5.959
 6851TIP3    H220495   0.091   2.180   5.982
 6852TIP3   OH220496   6.554   4.146   6.430
 6852TIP3    H120497   6.488   4.175   6.367
 6852TIP3    H220498   6.616   4.219   6.434
 6853TIP3   OH220499   6.687   5.972   4.344
 6853TIP3    H120500   6.717   6.043   4.288
 6853TIP3    H220501   6.687   6.008   4.432
 6854TIP3   OH220502   7.558   4.540   3.442
 6854TIP3    H120503   7.495   4.470   3.457
 6854TIP3    H220504   7.575   4.577   3.529
 6855TIP3   OH220505   2.396   3.729   3.237
 6855TIP3    H120506   2.485   3.728   3.272
 6855TIP3    H220507   2.381   3.821   3.212
 6856TIP3   OH220508   2.082   4.569   6.076
 6856TIP3    H120509   2.076   4.664   6.079
 6856TIP3    H220510   2.156   4.548   6.134
 6857TIP3   OH220511   6.007   6.323   2.643
 6857TIP3    H120512   5.926   6.290   2.604
 6857TIP3    H220513   6.072   6.318   2.572
 6858TIP3   OH220514   6.534   0.691   0.498
 6858TIP3    H120515   6.595   0.679   0.425
 6858TIP3    H220516   6.465   0.747   0.463
 6859TIP3   OH220517   4.657   7.080   1.810
 6859TIP3    H120518   4.568   7.052   1.788
 6859TIP3    H220519   4.697   7.102   1.726
 6860TIP3   OH220520   4.066   7.586   1.334
 6860TIP3    H120521   4.141   7.545   1.378
 6860TIP3    H220522   3.990   7.542   1.371
 6861TIP3   OH220523   0.539   0.527   0.460
 6861TIP3    H120524   0.498   0.525   0.373
 6861TIP3    H220525   0.596   0.450   0.461
 6862TIP3   OH220526   6.796   0.149   3.184
 6862TIP3    H120527   6.702   0.141   3.199
 6862TIP3    H220528   6.836   0.111   3.262
 6863TIP3   OH220529   6.153   4.281   2.311
 6863TIP3    H120530   6.062   4.281   2.338
 6863TIP3    H220531   6.158   4.215   2.242
 6864TIP3   OH220532   0.251   2.496   5.263
 6864TIP3    H120533   0.204   2.577   5.242
 6864TIP3    H220534   0.342   2.515   5.243
 6865TIP3   OH220535   8.134   4.313   4.022
 6865TIP3    H120536   8.209   4.281   4.072
 6865TIP3    H220537   8.082   4.362   4.085
 6866TIP3   OH220538   2.497   0.388   6.733
 6866TIP3    H120539   2.523   0.398   6.824
 6866TIP3    H220540   2.479   0.294   6.723
 6867TIP3   OH220541   3.578   5.820   2.264
 6867TIP3    H120542   3.642   5.860   2.204
 6867TIP3    H220543   3.508   5.884   2.271
 6868TIP3   OH220544   1.083   5.688   5.183
 6868TIP3    H120545   1.144   5.759   5.166
 6868TIP3    H220546   1.018   5.725   5.243
 6869TIP3   OH220547   3.919   2.942   3.404
 6869TIP3    H120548   3.893   2.850   3.409
 6869TIP3    H220549   3.990   2.943   3.339
 6870TIP3   OH220550   7.242   2.254   1.977
 6870TIP3    H120551   7.152   2.225   1.967
 6870TIP3    H220552   7.245   2.296   2.063
 6871TIP3   OH220553   7.067   7.761   4.515
 6871TIP3    H120554   6.999   7.758   4.448
 6871TIP3    H220555   7.069   7.671   4.550
 6872TIP3   OH220556   1.833   3.102   0.062
 6872TIP3    H120557   1.928   3.087   0.064
 6872TIP3    H220558   1.817   3.161   0.135
 6873TIP3   OH220559   7.379   3.263   5.394
 6873TIP3    H120560   7.326   3.323   5.342
 6873TIP3    H220561   7.327   3.249   5.473
 6874TIP3   OH220562   3.740   7.410   6.783
 6874TIP3    H120563   3.833   7.398   6.800
 6874TIP3    H220564   3.705   7.322   6.775
 6875TIP3   OH220565   1.525   4.453   3.946
 6875TIP3    H120566   1.433   4.456   3.920
 6875TIP3    H220567   1.527   4.497   4.031
 6876TIP3   OH220568   2.082   0.638   3.282
 6876TIP3    H120569   2.140   0.587   3.226
 6876TIP3    H220570   2.059   0.714   3.230
 6877TIP3   OH220571   4.996   6.700   0.173
 6877TIP3    H120572   4.909   6.703   0.213
 6877TIP3    H220573   5.006   6.610   0.143
 6878TIP3   OH220574   5.819   1.803   4.900
 6878TIP3    H120575   5.893   1.807   4.961
 6878TIP3    H220576   5.770   1.884   4.918
 6879TIP3   OH220577   2.619   1.514   2.200
 6879TIP3    H120578   2.707   1.490   2.228
 6879TIP3    H220579   2.568   1.518   2.281
 6880TIP3   OH220580   8.027   0.712   4.592
 6880TIP3    H120581   7.980   0.649   4.646
 6880TIP3    H220582   8.082   0.658   4.535
 6881TIP3   OH220583   1.567   3.814   3.290
 6881TIP3    H120584   1.605   3.732   3.323
 6881TIP3    H220585   1.510   3.786   3.219
 6882TIP3   OH220586   7.030   4.447   3.182
 6882TIP3    H120587   7.079   4.529   3.178
 6882TIP3    H220588   6.996   4.436   3.093
 6883TIP3   OH220589   5.403   7.664   3.641
 6883TIP3    H120590   5.366   7.752   3.631
 6883TIP3    H220591   5.495   7.674   3.619
 6884TIP3   OH220592   5.738   2.927   0.015
 6884TIP3    H120593   5.733   2.831   0.015
 6884TIP3    H220594   5.723   2.951   0.107
 6885TIP3   OH220595   4.990   7.203   4.032
 6885TIP3    H120596   5.031   7.135   3.978
 6885TIP3    H220597   5.004   7.174   4.122
 6886TIP3   OH220598   0.838   1.642   0.292
 6886TIP3    H120599   0.922   1.604   0.265
 6886TIP3    H220600   0.835   1.629   0.387
 6887TIP3   OH220601   1.126   5.811   1.593
 6887TIP3    H120602   1.208   5.854   1.616
 6887TIP3    H220603   1.151   5.721   1.574
 6888TIP3   OH220604   6.424   6.520   4.875
 6888TIP3    H120605   6.421   6.429   4.845
 6888TIP3    H220606   6.505   6.527   4.925
 6889TIP3   OH220607   4.437   4.642   5.025
 6889TIP3    H120608   4.373   4.602   5.085
 6889TIP3    H220609   4.459   4.726   5.065
 6890TIP3   OH220610   1.310   5.009   1.136
 6890TIP3    H120611   1.353   5.023   1.221
 6890TIP3    H220612   1.262   5.090   1.120
 6891TIP3   OH220613   7.501   1.156   6.538
 6891TIP3    H120614   7.555   1.092   6.584
 6891TIP3    H220615   7.557   1.186   6.466
 6892TIP3   OH220616   5.680   0.912   3.638
 6892TIP3    H120617   5.643   0.843   3.693
 6892TIP3    H220618   5.645   0.894   3.551
 6893TIP3   OH220619   3.778   7.505   2.831
 6893TIP3    H120620   3.719   7.553   2.890
 6893TIP3    H220621   3.751   7.532   2.743
 6894TIP3   OH220622   1.251   5.631   3.555
 6894TIP3    H120623   1.273   5.695   3.487
 6894TIP3    H220624   1.232   5.550   3.506
 6895TIP3   OH220625   6.745   1.968   6.695
 6895TIP3    H120626   6.718   1.910   6.766
 6895TIP3    H220627   6.667   1.974   6.639
 6896TIP3   OH220628   4.825   2.922   4.550
 6896TIP3    H120629   4.795   2.941   4.639
 6896TIP3    H220630   4.912   2.885   4.562
 6897TIP3   OH220631   4.207   7.653   4.486
 6897TIP3    H120632   4.246   7.647   4.399
 6897TIP3    H220633   4.128   7.599   4.481
 6898TIP3   OH220634   7.553   3.502  -0.012
 6898TIP3    H120635   7.612   3.540   0.054
 6898TIP3    H220636   7.607   3.442  -0.062
 6899TIP3   OH220637   8.009   3.650   5.035
 6899TIP3    H120638   7.962   3.638   5.118
 6899TIP3    H220639   7.940   3.673   4.972
 6900TIP3   OH220640   4.618   5.246   3.495
 6900TIP3    H120641   4.566   5.170   3.470
 6900TIP3    H220642   4.596   5.261   3.587
 6901TIP3   OH220643   5.138   4.756   3.832
 6901TIP3    H120644   5.120   4.662   3.822
 6901TIP3    H220645   5.227   4.767   3.799
 6902TIP3   OH220646   6.401   3.739   0.850
 6902TIP3    H120647   6.305   3.743   0.855
 6902TIP3    H220648   6.431   3.778   0.932
 6903TIP3   OH220649   6.200   4.844   1.922
 6903TIP3    H120650   6.216   4.753   1.895
 6903TIP3    H220651   6.122   4.871   1.873
 6904TIP3   OH220652   4.875   1.325   0.868
 6904TIP3    H120653   4.900   1.361   0.953
 6904TIP3    H220654   4.917   1.383   0.804
 6905TIP3   OH220655   0.993   5.261   4.107
 6905TIP3    H120656   1.078   5.264   4.151
 6905TIP3    H220657   1.013   5.252   4.014
 6906TIP3   OH220658   7.110   5.388   6.602
 6906TIP3    H120659   7.098   5.379   6.507
 6906TIP3    H220660   7.115   5.483   6.616
 6907TIP3   OH220661   6.555   6.750   5.261
 6907TIP3    H120662   6.552   6.784   5.351
 6907TIP3    H220663   6.488   6.682   5.260
 6908TIP3   OH220664   8.053   7.765   5.592
 6908TIP3    H120665   8.006   7.848   5.592
 6908TIP3    H220666   8.111   7.770   5.668
 6909TIP3   OH220667   2.281   5.289   2.951
 6909TIP3    H120668   2.273   5.374   2.908
 6909TIP3    H220669   2.370   5.289   2.988
 6910TIP3   OH220670   8.112   3.914   0.931
 6910TIP3    H120671   8.173   3.840   0.930
 6910TIP3    H220672   8.060   3.901   1.011
 6911TIP3   OH220673   3.455   5.284   2.325
 6911TIP3    H120674   3.455   5.362   2.381
 6911TIP3    H220675   3.547   5.272   2.301
 6912TIP3   OH220676   6.531   6.378   1.678
 6912TIP3    H120677   6.530   6.283   1.663
 6912TIP3    H220678   6.483   6.414   1.603
 6913TIP3   OH220679   1.632   6.499   3.333
 6913TIP3    H120680   1.663   6.575   3.381
 6913TIP3    H220681   1.583   6.535   3.259
 6914TIP3   OH220682   1.381   1.306   6.651
 6914TIP3    H120683   1.351   1.255   6.575
 6914TIP3    H220684   1.328   1.385   6.648
 6915TIP3   OH220685   6.037   5.364   3.300
 6915TIP3    H120686   6.092   5.395   3.227
 6915TIP3    H220687   6.006   5.444   3.342
 6916TIP3   OH220688   7.322   6.320   2.541
 6916TIP3    H120689   7.406   6.274   2.548
 6916TIP3    H220690   7.329   6.391   2.605
 6917TIP3   OH220691   5.945   6.703   3.928
 6917TIP3    H120692   5.910   6.786   3.896
 6917TIP3    H220693   5.869   6.646   3.937
 6918TIP3   OH220694   3.439   4.206   5.193
 6918TIP3    H120695   3.525   4.205   5.235
 6918TIP3    H220696   3.457   4.184   5.101
 6919TIP3   OH220697   0.803   1.543   4.601
 6919TIP3    H120698   0.887   1.577   4.571
 6919TIP3    H220699   0.804   1.451   4.575
 6920TIP3   OH220700   7.711   2.415   0.572
 6920TIP3    H120701   7.665   2.372   0.645
 6920TIP3    H220702   7.750   2.493   0.612
 6921TIP3   OH220703   6.055   2.912   0.637
 6921TIP3    H120704   6.054   2.975   0.708
 6921TIP3    H220705   6.136   2.930   0.589
 6922TIP3   OH220706   6.822   6.430   6.424
 6922TIP3    H120707   6.768   6.356   6.398
 6922TIP3    H220708   6.880   6.445   6.350
 6923TIP3   OH220709   1.011   5.936   2.922
 6923TIP3    H120710   0.973   5.978   3.000
 6923TIP3    H220711   0.977   5.847   2.923
 6924TIP3   OH220712   0.412   4.286   6.461
 6924TIP3    H120713   0.446   4.298   6.550
 6924TIP3    H220714   0.440   4.198   6.435
 6925TIP3   OH220715   1.449   0.907   0.511
 6925TIP3    H120716   1.530   0.876   0.472
 6925TIP3    H220717   1.380   0.858   0.467
 6926TIP3   OH220718   1.481   0.144   6.100
 6926TIP3    H120719   1.552   0.113   6.156
 6926TIP3    H220720   1.520   0.214   6.048
 6927TIP3   OH220721   7.852   4.342   5.826
 6927TIP3    H120722   7.865   4.271   5.889
 6927TIP3    H220723   7.867   4.422   5.877
 6928TIP3   OH220724   3.586   7.200   3.066
 6928TIP3    H120725   3.609   7.111   3.039
 6928TIP3    H220726   3.668   7.238   3.097
 6929TIP3   OH220727   6.150   4.433   3.667
 6929TIP3    H120728   6.088   4.366   3.638
 6929TIP3    H220729   6.132   4.443   3.760
 6930TIP3   OH220730   0.515   4.775   1.584
 6930TIP3    H120731   0.557   4.727   1.656
 6930TIP3    H220732   0.456   4.837   1.627
 6931TIP3   OH220733   4.118   7.401   6.238
 6931TIP3    H120734   4.135   7.378   6.329
 6931TIP3    H220735   4.196   7.449   6.211
 6932TIP3   OH220736   1.033   1.370   5.947
 6932TIP3    H120737   1.060   1.422   6.023
 6932TIP3    H220738   1.070   1.416   5.872
 6933TIP3   OH220739   4.601   3.298   1.412
 6933TIP3    H120740   4.606   3.333   1.501
 6933TIP3    H220741   4.690   3.305   1.378
 6934TIP3   OH220742   7.992   6.068   3.766
 6934TIP3    H120743   7.958   6.157   3.773
 6934TIP3    H220744   7.936   6.025   3.701
 6935TIP3   OH220745   6.940   6.664   0.466
 6935TIP3    H120746   7.031   6.674   0.438
 6935TIP3    H220747   6.892   6.727   0.412
 6936TIP3   OH220748   1.313   7.267   0.991
 6936TIP3    H120749   1.357   7.341   0.948
 6936TIP3    H220750   1.338   7.274   1.083
 6937TIP3   OH220751   0.729   2.549   3.123
 6937TIP3    H120752   0.669   2.621   3.104
 6937TIP3    H220753   0.709   2.483   3.057
 6938TIP3   OH220754   4.157   7.424   4.759
 6938TIP3    H120755   4.066   7.450   4.745
 6938TIP3    H220756   4.171   7.351   4.698
 6939TIP3   OH220757   4.387   2.601   5.142
 6939TIP3    H120758   4.446   2.534   5.107
 6939TIP3    H220759   4.422   2.683   5.110
 6940TIP3   OH220760   0.040   1.812   4.897
 6940TIP3    H120761   0.051   1.722   4.865
 6940TIP3    H220762  -0.045   1.839   4.863
 6941TIP3   OH220763   3.441   1.301   3.929
 6941TIP3    H120764   3.425   1.207   3.927
 6941TIP3    H220765   3.519   1.311   3.983
 6942TIP3   OH220766   5.887   2.779   5.850
 6942TIP3    H120767   5.913   2.819   5.933
 6942TIP3    H220768   5.855   2.853   5.797
 6943TIP3   OH220769   2.600   4.798   2.175
 6943TIP3    H120770   2.671   4.808   2.112
 6943TIP3    H220771   2.534   4.746   2.129
 6944TIP3   OH220772   5.516   6.324   1.872
 6944TIP3    H120773   5.582   6.388   1.899
 6944TIP3    H220774   5.486   6.355   1.787
 6945TIP3   OH220775   5.583   7.403   1.049
 6945TIP3    H120776   5.636   7.324   1.052
 6945TIP3    H220777   5.529   7.398   1.128
 6946TIP3   OH220778   2.925   3.919   0.549
 6946TIP3    H120779   2.860   3.940   0.616
 6946TIP3    H220780   2.966   4.004   0.529
 6947TIP3   OH220781   3.778   1.604   3.903
 6947TIP3    H120782   3.859   1.625   3.950
 6947TIP3    H220783   3.763   1.679   3.845
 6948TIP3   OH220784   6.681   1.959   1.246
 6948TIP3    H120785   6.692   2.031   1.309
 6948TIP3    H220786   6.636   1.891   1.296
 6949TIP3   OH220787   4.842   0.358   6.144
 6949TIP3    H120788   4.857   0.402   6.227
 6949TIP3    H220789   4.780   0.288   6.164
 6950TIP3   OH220790   2.713   1.133   5.704
 6950TIP3    H120791   2.699   1.193   5.778
 6950TIP3    H220792   2.788   1.080   5.730
 6951TIP3   OH220793   0.129   0.724   4.873
 6951TIP3    H120794   0.184   0.801   4.886
 6951TIP3    H220795   0.170   0.678   4.800
 6952TIP3   OH220796   4.088   2.177   1.296
 6952TIP3    H120797   4.116   2.233   1.223
 6952TIP3    H220798   4.071   2.238   1.367
 6953TIP3   OH220799   3.246   4.580   1.516
 6953TIP3    H120800   3.312   4.632   1.470
 6953TIP3    H220801   3.288   4.552   1.597
 6954TIP3   OH220802   0.818   0.373   0.409
 6954TIP3    H120803   0.791   0.384   0.318
 6954TIP3    H220804   0.805   0.280   0.427
 6955TIP3   OH220805   1.983   7.269   1.567
 6955TIP3    H120806   1.949   7.217   1.494
 6955TIP3    H220807   2.073   7.239   1.578
 6956TIP3   OH220808   7.660   4.398   5.411
 6956TIP3    H120809   7.719   4.365   5.478
 6956TIP3    H220810   7.716   4.413   5.334
 6957TIP3   OH220811   3.187   6.080   3.604
 6957TIP3    H120812   3.148   6.152   3.654
 6957TIP3    H220813   3.272   6.065   3.645
 6958TIP3   OH220814   4.607   7.742   2.954
 6958TIP3    H120815   4.551   7.665   2.958
 6958TIP3    H220816   4.682   7.719   3.009
 6959TIP3   OH220817   4.863   1.351   1.156
 6959TIP3    H120818   4.918   1.305   1.220
 6959TIP3    H220819   4.883   1.444   1.170
 6960TIP3   OH220820   1.689   3.072   2.763
 6960TIP3    H120821   1.705   3.081   2.857
 6960TIP3    H220822   1.772   3.042   2.727
 6961TIP3   OH220823   6.725   4.238   5.586
 6961TIP3    H120824   6.779   4.266   5.512
 6961TIP3    H220825   6.726   4.313   5.645
 6962TIP3   OH220826   0.582   1.088   0.411
 6962TIP3    H120827   0.588   0.999   0.444
 6962TIP3    H220828   0.529   1.134   0.475
 6963TIP3   OH220829   7.263   1.805   5.607
 6963TIP3    H120830   7.305   1.808   5.520
 6963TIP3    H220831   7.326   1.757   5.661
 6964TIP3   OH220832   3.535   0.373   3.344
 6964TIP3    H120833   3.512   0.418   3.262
 6964TIP3    H220834   3.559   0.285   3.317
 6965TIP3   OH220835   4.808   3.900   0.299
 6965TIP3    H120836   4.794   3.966   0.231
 6965TIP3    H220837   4.903   3.896   0.309
 6966TIP3   OH220838   1.211   1.124   2.427
 6966TIP3    H120839   1.135   1.085   2.385
 6966TIP3    H220840   1.247   1.054   2.481
 6967TIP3   OH220841   7.199   5.106   4.556
 6967TIP3    H120842   7.270   5.153   4.512
 6967TIP3    H220843   7.232   5.017   4.568
 6968TIP3   OH220844   5.095   6.130   2.598
 6968TIP3    H120845   5.093   6.089   2.685
 6968TIP3    H220846   5.103   6.057   2.537
 6969TIP3   OH220847   4.034   1.954   4.612
 6969TIP3    H120848   4.061   1.936   4.702
 6969TIP3    H220849   4.055   1.873   4.564
 6970TIP3   OH220850   6.155   4.070   5.391
 6970TIP3    H120851   6.215   4.101   5.324
 6970TIP3    H220852   6.123   4.150   5.434
 6971TIP3   OH220853   5.005   4.176   4.173
 6971TIP3    H120854   5.069   4.111   4.144
 6971TIP3    H220855   4.944   4.127   4.229
 6972TIP3   OH220856   2.776   5.517   5.147
 6972TIP3    H120857   2.820   5.594   5.113
 6972TIP3    H220858   2.833   5.484   5.216
 6973TIP3   OH220859   0.627   3.685   0.765
 6973TIP3    H120860   0.718   3.655   0.761
 6973TIP3    H220861   0.588   3.632   0.835
 6974TIP3   OH220862   6.607   2.473   0.402
 6974TIP3    H120863   6.620   2.520   0.484
 6974TIP3    H220864   6.572   2.539   0.342
 6975TIP3   OH220865   3.410   2.804   4.453
 6975TIP3    H120866   3.338   2.743   4.466
 6975TIP3    H220867   3.372   2.891   4.466
 6976TIP3   OH220868   4.187   2.002   0.845
 6976TIP3    H120869   4.197   1.930   0.784
 6976TIP3    H220870   4.212   2.080   0.795
 6977TIP3   OH220871   5.010   7.503   4.984
 6977TIP3    H120872   5.041   7.543   4.902
 6977TIP3    H220873   5.074   7.434   5.002
 6978TIP3   OH220874   7.273   7.571   4.935
 6978TIP3    H120875   7.286   7.480   4.961
 6978TIP3    H220876   7.358   7.600   4.904
 6979TIP3   OH220877   4.663   5.227   5.170
 6979TIP3    H120878   4.685   5.135   5.156
 6979TIP3    H220879   4.711   5.274   5.102
 6980TIP3   OH220880   1.006   0.738   2.800
 6980TIP3    H120881   0.988   0.649   2.833
 6980TIP3    H220882   0.933   0.756   2.741
 6981TIP3   OH220883   4.431   7.795   4.809
 6981TIP3    H120884   4.355   7.817   4.755
 6981TIP3    H220885   4.444   7.701   4.794
 6982TIP3   OH220886   0.533   6.827   0.882
 6982TIP3    H120887   0.488   6.765   0.941
 6982TIP3    H220888   0.532   6.783   0.797
 6983TIP3   OH220889   4.636   5.466   1.268
 6983TIP3    H120890   4.630   5.371   1.278
 6983TIP3    H220891   4.649   5.480   1.175
 6984TIP3   OH220892   1.032   6.590   5.191
 6984TIP3    H120893   1.013   6.497   5.185
 6984TIP3    H220894   1.074   6.612   5.108
 6985TIP3   OH220895   4.452   5.382   4.590
 6985TIP3    H120896   4.497   5.298   4.596
 6985TIP3    H220897   4.390   5.382   4.663
 6986TIP3   OH220898   6.934   0.493   1.932
 6986TIP3    H120899   6.958   0.582   1.906
 6986TIP3    H220900   6.975   0.481   2.017
 6987TIP3   OH220901   1.583   5.766   2.534
 6987TIP3    H120902   1.612   5.732   2.619
 6987TIP3    H220903   1.499   5.722   2.518
 6988TIP3   OH220904   3.885   7.821   2.723
 6988TIP3    H120905   3.960   7.761   2.729
 6988TIP3    H220906   3.854   7.829   2.813
 6989TIP3   OH220907   1.625   1.540   5.919
 6989TIP3    H120908   1.659   1.491   5.994
 6989TIP3    H220909   1.682   1.514   5.846
 6990TIP3   OH220910   1.921   1.624   4.797
 6990TIP3    H120911   1.906   1.689   4.865
 6990TIP3    H220912   1.837   1.580   4.787
 6991TIP3   OH220913   3.806   4.523   0.389
 6991TIP3    H120914   3.874   4.470   0.429
 6991TIP3    H220915   3.844   4.611   0.383
 6992TIP3   OH220916   0.693   2.734   2.499
 6992TIP3    H120917   0.610   2.709   2.539
 6992TIP3    H220918   0.701   2.827   2.516
 6993TIP3   OH220919   5.477   6.806   2.148
 6993TIP3    H120920   5.564   6.766   2.158
 6993TIP3    H220921   5.447   6.778   2.062
 6994TIP3   OH220922   1.071   5.266   2.153
 6994TIP3    H120923   1.095   5.348   2.195
 6994TIP3    H220924   1.001   5.230   2.207
 6995TIP3   OH220925   2.121   6.719   6.646
 6995TIP3    H120926   2.031   6.752   6.644
 6995TIP3    H220927   2.130   6.671   6.563
 6996TIP3   OH220928   7.402   3.475   5.620
 6996TIP3    H120929   7.387   3.532   5.544
 6996TIP3    H220930   7.315   3.455   5.653
 6997TIP3   OH220931   0.372   1.786   2.615
 6997TIP3    H120932   0.344   1.827   2.533
 6997TIP3    H220933   0.322   1.705   2.620
 6998TIP3   OH220934   5.229   5.117   0.871
 6998TIP3    H120935   5.284   5.117   0.950
 6998TIP3    H220936   5.228   5.026   0.842
 6999TIP3   OH220937   8.048   3.449   0.233
 6999TIP3    H120938   8.099   3.403   0.166
 6999TIP3    H220939   7.969   3.396   0.244
 7000TIP3   OH220940   6.044   5.465   3.806
 7000TIP3    H120941   6.111   5.509   3.859
 7000TIP3    H220942   5.983   5.534   3.783
 7001TIP3   OH220943   4.983   0.078   2.415
 7001TIP3    H120944   4.908   0.049   2.467
 7001TIP3    H220945   5.059   0.043   2.461
 7002TIP3   OH220946   2.624   0.503   0.304
 7002TIP3    H120947   2.612   0.549   0.387
 7002TIP3    H220948   2.716   0.517   0.282
 7003TIP3   OH220949   2.222   7.337   1.951
 7003TIP3    H120950   2.243   7.416   1.902
 7003TIP3    H220951   2.171   7.368   2.026
 7004TIP3   OH220952   1.447   0.126   4.563
 7004TIP3    H120953   1.518   0.127   4.628
 7004TIP3    H220954   1.439   0.035   4.536
 7005TIP3   OH220955   5.463  -0.028   1.944
 7005TIP3    H120956   5.554  -0.050   1.928
 7005TIP3    H220957   5.437  -0.085   2.017
 7006TIP3   OH220958   5.985   2.975   6.048
 7006TIP3    H120959   5.928   3.041   6.009
 7006TIP3    H220960   6.071   2.990   6.009
 7007TIP3   OH220961   8.216   2.578   0.465
 7007TIP3    H120962   8.300   2.623   0.466
 7007TIP3    H220963   8.190   2.574   0.557
 7008TIP3   OH220964   7.291   2.072   3.880
 7008TIP3    H120965   7.229   2.063   3.953
 7008TIP3    H220966   7.257   2.014   3.812
 7009TIP3   OH220967   3.357   4.234   6.682
 7009TIP3    H120968   3.450   4.223   6.699
 7009TIP3    H220969   3.345   4.198   6.594
 7010TIP3   OH220970   2.125   0.222   4.965
 7010TIP3    H120971   2.094   0.310   4.987
 7010TIP3    H220972   2.199   0.207   5.024
 7011TIP3   OH220973   5.177   1.137   1.804
 7011TIP3    H120974   5.096   1.086   1.804
 7011TIP3    H220975   5.172   1.190   1.725
 7012TIP3   OH220976   2.819   7.223   0.768
 7012TIP3    H120977   2.750   7.215   0.703
 7012TIP3    H220978   2.900   7.203   0.721
 7013TIP3   OH220979   1.916   1.837   5.878
 7013TIP3    H120980   1.971   1.781   5.822
 7013TIP3    H220981   1.948   1.821   5.966
 7014TIP3   OH220982   3.273   5.614   1.642
 7014TIP3    H120983   3.199   5.588   1.587
 7014TIP3    H220984   3.290   5.536   1.696
 7015TIP3   OH220985   1.355   0.706   3.701
 7015TIP3    H120986   1.285   0.670   3.755
 7015TIP3    H220987   1.351   0.800   3.715
 7016TIP3   OH220988   0.350   3.233   2.480
 7016TIP3    H120989   0.445   3.250   2.479
 7016TIP3    H220990   0.342   3.146   2.518
 7017TIP3   OH220991   5.696   5.545   2.292
 7017TIP3    H120992   5.734   5.503   2.369
 7017TIP3    H220993   5.739   5.631   2.289
 7018TIP3   OH220994   2.018   3.769   4.162
 7018TIP3    H120995   2.002   3.779   4.068
 7018TIP3    H220996   2.113   3.777   4.171
 7019TIP3   OH220997   8.209   7.552   5.453
 7019TIP3    H120998   8.174   7.465   5.473
 7019TIP3    H220999   8.156   7.611   5.507
 7020TIP3   OH221000   2.682   3.916   0.711
 7020TIP3    H121001   2.595   3.936   0.745
 7020TIP3    H221002   2.742   3.938   0.782
 7021TIP3   OH221003   3.310   1.895   2.204
 7021TIP3    H121004   3.334   1.826   2.142
 7021TIP3    H221005   3.391   1.944   2.218
 7022TIP3   OH221006   3.682   0.719   5.156
 7022TIP3    H121007   3.606   0.676   5.196
 7022TIP3    H221008   3.728   0.758   5.231
 7023TIP3   OH221009   4.526   3.013   1.361
 7023TIP3    H121010   4.550   3.105   1.347
 7023TIP3    H221011   4.455   3.016   1.425
 7024TIP3   OH221012   4.037   2.828   3.147
 7024TIP3    H121013   4.057   2.922   3.148
 7024TIP3    H221014   4.106   2.788   3.199
 7025TIP3   OH221015   6.987   0.922   0.634
 7025TIP3    H121016   6.996   0.831   0.660
 7025TIP3    H221017   7.064   0.940   0.580
 7026TIP3   OH221018   3.080   4.769   1.937
 7026TIP3    H121019   3.068   4.675   1.923
 7026TIP3    H221020   3.092   4.806   1.849
 7027TIP3   OH221021   6.681   7.843   6.878
 7027TIP3    H121022   6.613   7.777   6.866
 7027TIP3    H221023   6.763   7.796   6.865
 7028TIP3   OH221024   2.743   1.718   6.894
 7028TIP3    H121025   2.735   1.808   6.861
 7028TIP3    H221026   2.694   1.666   6.830
 7029TIP3   OH221027   4.208   7.166   4.620
 7029TIP3    H121028   4.166   7.103   4.561
 7029TIP3    H221029   4.292   7.126   4.642
 7030TIP3   OH221030   4.115   4.723   3.350
 7030TIP3    H121031   4.141   4.641   3.308
 7030TIP3    H221032   4.178   4.788   3.319
 7031TIP3   OH221033   7.310   0.433   3.112
 7031TIP3    H121034   7.235   0.412   3.057
 7031TIP3    H221035   7.375   0.470   3.052
 7032TIP3   OH221036   7.121   7.413   3.110
 7032TIP3    H121037   7.205   7.402   3.066
 7032TIP3    H221038   7.125   7.354   3.185
 7033TIP3   OH221039   6.885   5.955   6.886
 7033TIP3    H121040   6.981   5.957   6.875
 7033TIP3    H221041   6.851   5.996   6.807
 7034TIP3   OH221042   8.318   6.714   4.860
 7034TIP3    H121043   8.231   6.750   4.842
 7034TIP3    H221044   8.356   6.699   4.773
 7035TIP3   OH221045   6.290   1.281   3.527
 7035TIP3    H121046   6.366   1.244   3.483
 7035TIP3    H221047   6.327   1.342   3.591
 7036TIP3   OH221048   3.623   4.960   0.360
 7036TIP3    H121049   3.566   4.917   0.296
 7036TIP3    H221050   3.662   4.888   0.410
 7037TIP3   OH221051   6.689   6.902   4.822
 7037TIP3    H121052   6.656   6.915   4.733
 7037TIP3    H221053   6.728   6.815   4.821
 7038TIP3   OH221054   7.665   3.562   0.763
 7038TIP3    H121055   7.745   3.614   0.773
 7038TIP3    H221056   7.692   3.472   0.778
 7039TIP3   OH221057   4.080   0.217   3.671
 7039TIP3    H121058   4.126   0.295   3.701
 7039TIP3    H221059   4.066   0.165   3.750
 7040TIP3   OH221060   2.593   5.612   6.703
 7040TIP3    H121061   2.578   5.698   6.742
 7040TIP3    H221062   2.514   5.595   6.653
 7041TIP3   OH221063   3.668   2.676   2.900
 7041TIP3    H121064   3.633   2.587   2.893
 7041TIP3    H221065   3.723   2.686   2.822
 7042TIP3   OH221066   0.042   1.198   2.782
 7042TIP3    H121067   0.122   1.251   2.777
 7042TIP3    H221068   0.061   1.131   2.847
 7043TIP3   OH221069   0.784   4.500   1.827
 7043TIP3    H121070   0.800   4.508   1.733
 7043TIP3    H221071   0.815   4.413   1.849
 7044TIP3   OH221072   6.692   0.225   2.669
 7044TIP3    H121073   6.663   0.135   2.655
 7044TIP3    H221074   6.742   0.221   2.751
 7045TIP3   OH221075   2.586   6.785   2.968
 7045TIP3    H121076   2.574   6.714   2.904
 7045TIP3    H221077   2.568   6.865   2.918
 7046TIP3   OH221078   6.289   2.824   6.010
 7046TIP3    H121079   6.277   2.780   5.926
 7046TIP3    H221080   6.361   2.885   5.996
 7047TIP3   OH221081   8.025   6.590   1.521
 7047TIP3    H121082   8.021   6.577   1.426
 7047TIP3    H221083   8.119   6.584   1.541
 7048TIP3   OH221084   7.751   4.068   5.392
 7048TIP3    H121085   7.844   4.047   5.379
 7048TIP3    H221086   7.749   4.121   5.471
 7049TIP3   OH221087   1.074   1.727   6.195
 7049TIP3    H121088   1.035   1.753   6.279
 7049TIP3    H221089   1.139   1.661   6.218
 7050TIP3   OH221090   7.569   7.673   4.941
 7050TIP3    H121091   7.563   7.618   5.019
 7050TIP3    H221092   7.662   7.697   4.935
 7051TIP3   OH221093   3.145   4.343   2.501
 7051TIP3    H121094   3.124   4.263   2.549
 7051TIP3    H221095   3.192   4.398   2.564
 7052TIP3   OH221096   2.584   0.451   1.869
 7052TIP3    H121097   2.556   0.489   1.786
 7052TIP3    H221098   2.679   0.438   1.859
 7053TIP3   OH221099   5.221   4.573   4.471
 7053TIP3    H121100   5.191   4.520   4.545
 7053TIP3    H221101   5.221   4.513   4.397
 7054TIP3   OH221102   4.879   5.795   5.357
 7054TIP3    H121103   4.968   5.827   5.372
 7054TIP3    H221104   4.881   5.703   5.384
 7055TIP3   OH221105   8.162   7.074   2.620
 7055TIP3    H121106   8.150   7.000   2.560
 7055TIP3    H221107   8.106   7.054   2.695
 7056TIP3   OH221108   3.120   6.410   4.708
 7056TIP3    H121109   3.070   6.490   4.695
 7056TIP3    H221110   3.066   6.341   4.671
 7057TIP3   OH221111   1.939   4.988   6.699
 7057TIP3    H121112   2.030   4.963   6.716
 7057TIP3    H221113   1.932   4.989   6.603
 7058TIP3   OH221114   6.666   1.441   1.679
 7058TIP3    H121115   6.632   1.354   1.661
 7058TIP3    H221116   6.627   1.497   1.612
 7059TIP3   OH221117   3.375   1.764   1.984
 7059TIP3    H121118   3.349   1.819   1.910
 7059TIP3    H221119   3.375   1.675   1.949
 7060TIP3   OH221120   4.109   6.027   0.355
 7060TIP3    H121121   4.021   5.993   0.377
 7060TIP3    H221122   4.109   6.116   0.389
 7061TIP3   OH221123   6.796   5.210   4.319
 7061TIP3    H121124   6.821   5.170   4.235
 7061TIP3    H221125   6.711   5.251   4.301
 7062TIP3   OH221126   5.038   1.164   6.249
 7062TIP3    H121127   5.035   1.209   6.165
 7062TIP3    H221128   5.086   1.083   6.232
 7063TIP3   OH221129   8.310   0.397   6.793
 7063TIP3    H121130   8.371   0.339   6.748
 7063TIP3    H221131   8.258   0.339   6.849
 7064TIP3   OH221132   1.559   0.684   2.474
 7064TIP3    H121133   1.478   0.640   2.448
 7064TIP3    H221134   1.579   0.648   2.560
 7065TIP3   OH221135   3.532   5.715   4.408
 7065TIP3    H121136   3.467   5.783   4.422
 7065TIP3    H221137   3.518   5.654   4.481
 7066TIP3   OH221138   7.419   7.244   3.226
 7066TIP3    H121139   7.378   7.324   3.192
 7066TIP3    H221140   7.379   7.231   3.312
 7067TIP3   OH221141   1.178   2.838   2.915
 7067TIP3    H121142   1.175   2.822   3.009
 7067TIP3    H221143   1.266   2.873   2.899
 7068TIP3   OH221144   0.098   6.285   1.402
 7068TIP3    H121145   0.070   6.248   1.485
 7068TIP3    H221146   0.018   6.322   1.364
 7069TIP3   OH221147   2.329   3.287   3.381
 7069TIP3    H121148   2.251   3.235   3.361
 7069TIP3    H221149   2.333   3.288   3.476
 7070TIP3   OH221150   0.751   3.378   1.898
 7070TIP3    H121151   0.825   3.332   1.940
 7070TIP3    H221152   0.751   3.465   1.938
 7071TIP3   OH221153   2.062   1.328   0.281
 7071TIP3    H121154   1.970   1.315   0.304
 7071TIP3    H221155   2.073   1.279   0.200
 7072TIP3   OH221156   7.734   1.784   5.685
 7072TIP3    H121157   7.798   1.737   5.632
 7072TIP3    H221158   7.701   1.854   5.627
 7073TIP3   OH221159   4.427   0.540   5.525
 7073TIP3    H121160   4.419   0.577   5.613
 7073TIP3    H221161   4.363   0.469   5.523
 7074TIP3   OH221162   5.716   3.114   4.759
 7074TIP3    H121163   5.740   3.107   4.852
 7074TIP3    H221164   5.634   3.066   4.751
 7075TIP3   OH221165   0.469   2.923   2.888
 7075TIP3    H121166   0.514   2.894   2.967
 7075TIP3    H221167   0.474   2.848   2.828
 7076TIP3   OH221168   1.929   1.153   4.145
 7076TIP3    H121169   1.977   1.164   4.227
 7076TIP3    H221170   1.843   1.121   4.172
 7077TIP3   OH221171   4.315   6.804   1.565
 7077TIP3    H121172   4.327   6.835   1.475
 7077TIP3    H221173   4.350   6.875   1.619
 7078TIP3   OH221174   4.881   2.517   5.031
 7078TIP3    H121175   4.868   2.603   5.071
 7078TIP3    H221176   4.799   2.499   4.985
 7079TIP3   OH221177   0.949   2.573   1.221
 7079TIP3    H121178   0.995   2.509   1.166
 7079TIP3    H221179   0.866   2.531   1.243
 7080TIP3   OH221180   0.066   0.827   5.204
 7080TIP3    H121181   0.118   0.874   5.139
 7080TIP3    H221182   0.017   0.895   5.250
 7081TIP3   OH221183   6.052   6.179   0.593
 7081TIP3    H121184   5.983   6.203   0.532
 7081TIP3    H221185   6.011   6.116   0.653
 7082TIP3   OH221186   1.502   1.009   0.186
 7082TIP3    H121187   1.471   1.073   0.250
 7082TIP3    H221188   1.566   0.956   0.233
 7083TIP3   OH221189   8.265   7.825   6.147
 7083TIP3    H121190   8.258   7.729   6.142
 7083TIP3    H221191   8.286   7.842   6.239
 7084TIP3   OH221192   4.095   6.590   0.597
 7084TIP3    H121193   4.098   6.682   0.623
 7084TIP3    H221194   4.167   6.550   0.646
 7085TIP3   OH221195   6.439   4.719   0.193
 7085TIP3    H121196   6.461   4.812   0.202
 7085TIP3    H221197   6.510   4.674   0.237
 7086TIP3   OH221198   0.491   4.466   5.238
 7086TIP3    H121199   0.474   4.382   5.196
 7086TIP3    H221200   0.550   4.445   5.310
 7087TIP3   OH221201   4.634   4.448   3.243
 7087TIP3    H121202   4.566   4.471   3.180
 7087TIP3    H221203   4.697   4.521   3.238
 7088TIP3   OH221204   0.640   6.528   1.398
 7088TIP3    H121205   0.598   6.539   1.483
 7088TIP3    H221206   0.640   6.615   1.359
 7089TIP3   OH221207   5.733   3.897   4.233
 7089TIP3    H121208   5.804   3.891   4.297
 7089TIP3    H221209   5.734   3.812   4.189
 7090TIP3   OH221210   5.798   1.881   2.817
 7090TIP3    H121211   5.886   1.916   2.831
 7090TIP3    H221212   5.793   1.804   2.873
 7091TIP3   OH221213   2.777   5.117   0.490
 7091TIP3    H121214   2.865   5.142   0.462
 7091TIP3    H221215   2.753   5.183   0.555
 7092TIP3   OH221216   5.330   3.013   4.013
 7092TIP3    H121217   5.333   3.076   4.084
 7092TIP3    H221218   5.323   2.928   4.056
 7093TIP3   OH221219   4.453   4.742   4.147
 7093TIP3    H121220   4.543   4.774   4.161
 7093TIP3    H221221   4.435   4.761   4.055
 7094TIP3   OH221222   0.953   0.452   2.805
 7094TIP3    H121223   0.899   0.395   2.750
 7094TIP3    H221224   0.932   0.425   2.895
 7095TIP3   OH221225   1.312   3.435   4.399
 7095TIP3    H121226   1.333   3.528   4.390
 7095TIP3    H221227   1.234   3.423   4.344
 7096TIP3   OH221228   0.552   2.675   0.314
 7096TIP3    H121229   0.487   2.729   0.270
 7096TIP3    H221230   0.601   2.736   0.369
 7097TIP3   OH221231   3.359   7.715   4.047
 7097TIP3    H121232   3.442   7.734   4.090
 7097TIP3    H221233   3.331   7.799   4.011
 7098TIP3   OH221234   7.280   0.659   1.533
 7098TIP3    H121235   7.325   0.575   1.524
 7098TIP3    H221236   7.197   0.637   1.576
 7099TIP3   OH221237   3.707   1.966   2.940
 7099TIP3    H121238   3.634   1.935   2.887
 7099TIP3    H221239   3.746   1.886   2.976
 7100TIP3   OH221240   0.911   6.196   4.544
 7100TIP3    H121241   0.837   6.178   4.487
 7100TIP3    H221242   0.976   6.236   4.487
 7101TIP3   OH221243   4.977   7.441   4.435
 7101TIP3    H121244   5.001   7.370   4.375
 7101TIP3    H221245   5.060   7.466   4.477
 7102TIP3   OH221246   1.163   0.234   2.324
 7102TIP3    H121247   1.191   0.323   2.302
 7102TIP3    H221248   1.120   0.243   2.409
 7103TIP3   OH221249   2.445   5.543   0.231
 7103TIP3    H121250   2.514   5.594   0.273
 7103TIP3    H221251   2.460   5.453   0.260
 7104TIP3   OH221252   4.815   4.416   4.345
 7104TIP3    H121253   4.842   4.441   4.257
 7104TIP3    H221254   4.892   4.435   4.399
 7105TIP3   OH221255   6.597   5.729   3.415
 7105TIP3    H121256   6.664   5.722   3.483
 7105TIP3    H221257   6.613   5.814   3.374
 7106TIP3   OH221258   5.181   4.742   6.040
 7106TIP3    H121259   5.110   4.694   6.083
 7106TIP3    H221260   5.219   4.796   6.109
 7107TIP3   OH221261   0.613   2.032   3.424
 7107TIP3    H121262   0.576   2.111   3.463
 7107TIP3    H221263   0.548   1.964   3.441
 7108TIP3   OH221264   3.131   0.882   1.323
 7108TIP3    H121265   3.186   0.914   1.395
 7108TIP3    H221266   3.042   0.883   1.358
 7109TIP3   OH221267   0.407   5.476   2.817
 7109TIP3    H121268   0.444   5.476   2.905
 7109TIP3    H221269   0.422   5.565   2.785
 7110TIP3   OH221270   2.627   6.729   3.293
 7110TIP3    H121271   2.579   6.812   3.297
 7110TIP3    H221272   2.561   6.662   3.305
 7111TIP3   OH221273   1.531   6.508   5.992
 7111TIP3    H121274   1.533   6.601   6.016
 7111TIP3    H221275   1.438   6.484   5.996
 7112TIP3   OH221276   2.839   7.188   1.384
 7112TIP3    H121277   2.915   7.225   1.428
 7112TIP3    H221278   2.835   7.097   1.415
 7113TIP3   OH221279   8.294   7.902   3.658
 7113TIP3    H121280   8.240   7.861   3.591
 7113TIP3    H221281   8.250   7.985   3.677
 7114TIP3   OH221282   1.441   7.179   2.054
 7114TIP3    H121283   1.427   7.208   2.144
 7114TIP3    H221284   1.354   7.155   2.023
 7115TIP3   OH221285   3.071   0.550   3.931
 7115TIP3    H121286   3.123   0.494   3.989
 7115TIP3    H221287   2.982   0.542   3.963
 7116TIP3   OH221288   5.643   1.246   5.893
 7116TIP3    H121289   5.564   1.217   5.939
 7116TIP3    H221290   5.706   1.176   5.909
 7117TIP3   OH221291   8.046   7.250   6.193
 7117TIP3    H121292   8.116   7.185   6.182
 7117TIP3    H221293   8.080   7.310   6.260
 7118TIP3   OH221294   3.971   3.416   5.497
 7118TIP3    H121295   3.920   3.349   5.543
 7118TIP3    H221296   3.998   3.373   5.416
 7119TIP3   OH221297   3.708   1.578   0.934
 7119TIP3    H121298   3.681   1.670   0.943
 7119TIP3    H221299   3.737   1.570   0.843
 7120TIP3   OH221300   5.765   2.832   4.589
 7120TIP3    H121301   5.719   2.749   4.574
 7120TIP3    H221302   5.728   2.892   4.524
 7121TIP3   OH221303   7.809   6.154   3.019
 7121TIP3    H121304   7.785   6.113   2.936
 7121TIP3    H221305   7.849   6.084   3.071
 7122TIP3   OH221306   2.699   5.686   3.264
 7122TIP3    H121307   2.659   5.758   3.215
 7122TIP3    H221308   2.785   5.719   3.289
 7123TIP3   OH221309   4.019   1.680   0.866
 7123TIP3    H121310   4.084   1.610   0.879
 7123TIP3    H221311   3.944   1.635   0.828
 7124TIP3   OH221312   3.162   6.072   6.471
 7124TIP3    H121313   3.075   6.045   6.499
 7124TIP3    H221314   3.163   6.057   6.377
 7125TIP3   OH221315   6.777   5.630   5.347
 7125TIP3    H121316   6.787   5.723   5.364
 7125TIP3    H221317   6.828   5.614   5.268
 7126TIP3   OH221318   3.568   1.518   0.298
 7126TIP3    H121319   3.555   1.487   0.208
 7126TIP3    H221320   3.663   1.511   0.312
 7127TIP3   OH221321   4.638   4.452   5.847
 7127TIP3    H121322   4.554   4.462   5.891
 7127TIP3    H221323   4.698   4.507   5.898
 7128TIP3   OH221324   2.909   3.969   3.551
 7128TIP3    H121325   2.969   3.983   3.624
 7128TIP3    H221326   2.888   3.876   3.555
 7129TIP3   OH221327   3.997   6.769   5.435
 7129TIP3    H121328   4.024   6.722   5.514
 7129TIP3    H221329   3.914   6.728   5.411
 7130TIP3   OH221330   4.526   6.285   2.983
 7130TIP3    H121331   4.478   6.203   2.977
 7130TIP3    H221332   4.515   6.326   2.897
 7131TIP3   OH221333   5.839   7.717   3.895
 7131TIP3    H121334   5.760   7.669   3.919
 7131TIP3    H221335   5.824   7.806   3.928
 7132TIP3   OH221336   6.517   7.280   1.655
 7132TIP3    H121337   6.530   7.186   1.645
 7132TIP3    H221338   6.427   7.295   1.627
 7133TIP3   OH221339   1.378   5.236   0.800
 7133TIP3    H121340   1.332   5.312   0.836
 7133TIP3    H221341   1.436   5.208   0.870
 7134TIP3   OH221342   1.139   0.237   0.316
 7134TIP3    H121343   1.200   0.310   0.314
 7134TIP3    H221344   1.053   0.277   0.326
 7135TIP3   OH221345   1.940   6.899   2.977
 7135TIP3    H121346   1.901   6.986   2.984
 7135TIP3    H221347   1.905   6.864   2.895
 7136TIP3   OH221348   5.733   5.459   2.577
 7136TIP3    H121349   5.772   5.542   2.602
 7136TIP3    H221350   5.803   5.395   2.589
 7137TIP3   OH221351   1.670   4.301   1.429
 7137TIP3    H121352   1.611   4.314   1.504
 7137TIP3    H221353   1.616   4.319   1.352
 7138TIP3   OH221354   3.620   7.595   2.301
 7138TIP3    H121355   3.654   7.642   2.225
 7138TIP3    H221356   3.529   7.623   2.309
 7139TIP3   OH221357   4.204   5.756   5.412
 7139TIP3    H121358   4.286   5.716   5.440
 7139TIP3    H221359   4.204   5.748   5.317
 7140TIP3   OH221360   1.580   1.620   5.329
 7140TIP3    H121361   1.569   1.699   5.382
 7140TIP3    H221362   1.661   1.636   5.281
 7141TIP3   OH221363   6.339   1.419   0.096
 7141TIP3    H121364   6.333   1.501   0.145
 7141TIP3    H221365   6.253   1.410   0.055
 7142TIP3   OH221366   3.535   0.095   5.176
 7142TIP3    H121367   3.551   0.185   5.147
 7142TIP3    H221368   3.506   0.049   5.097
 7143TIP3   OH221369   7.905   5.290   3.897
 7143TIP3    H121370   7.848   5.350   3.946
 7143TIP3    H221371   7.898   5.319   3.806
 7144TIP3   OH221372   5.766   4.923   0.837
 7144TIP3    H121373   5.782   4.851   0.898
 7144TIP3    H221374   5.673   4.941   0.844
 7145TIP3   OH221375   4.419   4.138   5.980
 7145TIP3    H121376   4.373   4.178   5.906
 7145TIP3    H221377   4.470   4.211   6.017
 7146TIP3   OH221378   2.074   2.629   6.694
 7146TIP3    H121379   2.128   2.693   6.648
 7146TIP3    H221380   1.985   2.661   6.683
 7147TIP3   OH221381   1.987   2.670   0.146
 7147TIP3    H121382   1.947   2.744   0.100
 7147TIP3    H221383   1.979   2.692   0.238
 7148TIP3   OH221384   7.593   6.317   4.198
 7148TIP3    H121385   7.590   6.240   4.254
 7148TIP3    H221386   7.502   6.340   4.183
 7149TIP3   OH221387   2.052   7.238   5.381
 7149TIP3    H121388   2.019   7.225   5.292
 7149TIP3    H221389   2.116   7.168   5.393
 7150TIP3   OH221390   2.503   7.404   5.686
 7150TIP3    H121391   2.411   7.383   5.677
 7150TIP3    H221392   2.527   7.447   5.604
 7151TIP3   OH221393   7.421   6.461   1.991
 7151TIP3    H121394   7.411   6.380   2.040
 7151TIP3    H221395   7.492   6.507   2.036
 7152TIP3   OH221396   8.046   5.219   4.134
 7152TIP3    H121397   8.005   5.134   4.117
 7152TIP3    H221398   7.992   5.282   4.085
 7153TIP3   OH221399   5.309   2.766   5.902
 7153TIP3    H121400   5.285   2.791   5.813
 7153TIP3    H221401   5.398   2.800   5.913
 7154TIP3   OH221402   6.139   7.648   4.385
 7154TIP3    H121403   6.214   7.593   4.362
 7154TIP3    H221404   6.063   7.597   4.359
 7155TIP3   OH221405   2.257   3.280   4.543
 7155TIP3    H121406   2.335   3.225   4.533
 7155TIP3    H221407   2.198   3.228   4.598
 7156TIP3   OH221408   7.403   0.840   2.929
 7156TIP3    H121409   7.364   0.819   3.013
 7156TIP3    H221410   7.350   0.910   2.893
 7157TIP3   OH221411   1.155   4.686   3.374
 7157TIP3    H121412   1.234   4.639   3.345
 7157TIP3    H221413   1.154   4.765   3.320
 7158TIP3   OH221414   1.318   5.415   4.572
 7158TIP3    H121415   1.302   5.487   4.512
 7158TIP3    H221416   1.276   5.441   4.654
 7159TIP3   OH221417   7.996   4.663   1.157
 7159TIP3    H121418   7.987   4.731   1.091
 7159TIP3    H221419   7.925   4.680   1.219
 7160TIP3   OH221420   8.144   4.157   6.236
 7160TIP3    H121421   8.100   4.077   6.265
 7160TIP3    H221422   8.107   4.226   6.291
 7161TIP3   OH221423   0.237   5.046   3.064
 7161TIP3    H121424   0.279   4.986   3.003
 7161TIP3    H221425   0.167   4.994   3.104
 7162TIP3   OH221426   4.075   1.360   6.139
 7162TIP3    H121427   4.107   1.281   6.097
 7162TIP3    H221428   3.980   1.351   6.139
 7163TIP3   OH221429   3.000   5.713   4.589
 7163TIP3    H121430   2.925   5.709   4.649
 7163TIP3    H221431   3.069   5.665   4.635
 7164TIP3   OH221432   7.581   5.297   0.365
 7164TIP3    H121433   7.668   5.337   0.370
 7164TIP3    H221434   7.586   5.221   0.422
 7165TIP3   OH221435   1.670   5.748   1.899
 7165TIP3    H121436   1.590   5.774   1.944
 7165TIP3    H221437   1.686   5.817   1.835
 7166TIP3   OH221438   0.903   2.052   1.199
 7166TIP3    H121439   0.834   2.098   1.151
 7166TIP3    H221440   0.877   2.059   1.291
 7167TIP3   OH221441   6.472   5.561   1.976
 7167TIP3    H121442   6.509   5.628   2.033
 7167TIP3    H221443   6.465   5.483   2.032
 7168TIP3   OH221444   0.394   7.866   6.787
 7168TIP3    H121445   0.441   7.892   6.866
 7168TIP3    H221446   0.302   7.874   6.810
 7169TIP3   OH221447   3.954   6.369   0.294
 7169TIP3    H121448   3.865   6.373   0.329
 7169TIP3    H221449   3.993   6.453   0.316
 7170TIP3   OH221450   8.219   0.037   3.076
 7170TIP3    H121451   8.250   0.122   3.044
 7170TIP3    H221452   8.241  -0.024   3.006
 7171TIP3   OH221453   7.696   7.536   3.698
 7171TIP3    H121454   7.629   7.583   3.747
 7171TIP3    H221455   7.694   7.575   3.611
 7172TIP3   OH221456   2.669   6.383   6.252
 7172TIP3    H121457   2.747   6.332   6.273
 7172TIP3    H221458   2.664   6.450   6.321
 7173TIP3   OH221459   7.431   4.639   1.220
 7173TIP3    H121460   7.486   4.664   1.294
 7173TIP3    H221461   7.431   4.544   1.221
 7174TIP3   OH221462   6.225   1.889   4.554
 7174TIP3    H121463   6.279   1.831   4.608
 7174TIP3    H221464   6.165   1.931   4.615
 7175TIP3   OH221465   4.800   2.652   4.105
 7175TIP3    H121466   4.770   2.725   4.159
 7175TIP3    H221467   4.866   2.609   4.159
 7176TIP3   OH221468   6.017   0.704   5.699
 7176TIP3    H121469   6.049   0.657   5.777
 7176TIP3    H221470   6.097   0.734   5.655
 7177TIP3   OH221471   7.399   5.275   2.498
 7177TIP3    H121472   7.467   5.328   2.540
 7177TIP3    H221473   7.444   5.195   2.471
 7178TIP3   OH221474   1.921   0.513   3.485
 7178TIP3    H121475   1.973   0.530   3.564
 7178TIP3    H221476   1.973   0.551   3.414
 7179TIP3   OH221477   6.409   4.229   6.199
 7179TIP3    H121478   6.427   4.310   6.151
 7179TIP3    H221479   6.314   4.229   6.212
 7180TIP3   OH221480   2.572   0.863   1.790
 7180TIP3    H121481   2.619   0.842   1.708
 7180TIP3    H221482   2.596   0.954   1.808
 7181TIP3   OH221483   5.437   6.235   4.597
 7181TIP3    H121484   5.360   6.269   4.642
 7181TIP3    H221485   5.472   6.167   4.655
 7182TIP3   OH221486   4.676   4.089   0.084
 7182TIP3    H121487   4.642   4.149   0.017
 7182TIP3    H221488   4.600   4.036   0.110
 7183TIP3   OH221489   5.310   1.869   6.642
 7183TIP3    H121490   5.318   1.826   6.557
 7183TIP3    H221491   5.383   1.834   6.694
 7184TIP3   OH221492   3.958   3.023   4.608
 7184TIP3    H121493   3.937   2.957   4.542
 7184TIP3    H221494   3.932   2.984   4.691
 7185TIP3   OH221495   7.172   1.871   2.084
 7185TIP3    H121496   7.190   1.813   2.158
 7185TIP3    H221497   7.240   1.939   2.090
 7186TIP3   OH221498   3.613   0.061   6.494
 7186TIP3    H121499   3.625  -0.010   6.430
 7186TIP3    H221500   3.519   0.077   6.494
 7187TIP3   OH221501   0.717   5.120   0.927
 7187TIP3    H121502   0.707   5.205   0.970
 7187TIP3    H221503   0.800   5.086   0.960
 7188TIP3   OH221504   5.878   1.297   2.206
 7188TIP3    H121505   5.872   1.210   2.167
 7188TIP3    H221506   5.847   1.285   2.296
 7189TIP3   OH221507   4.211   1.614   6.492
 7189TIP3    H121508   4.257   1.553   6.549
 7189TIP3    H221509   4.217   1.699   6.538
 7190TIP3   OH221510   2.185   1.978   1.714
 7190TIP3    H121511   2.270   1.969   1.757
 7190TIP3    H221512   2.139   2.045   1.765
 7191TIP3   OH221513   2.308   1.365   4.306
 7191TIP3    H121514   2.398   1.357   4.275
 7191TIP3    H221515   2.307   1.444   4.359
 7192TIP3   OH221516   2.706   6.741   4.496
 7192TIP3    H121517   2.685   6.718   4.406
 7192TIP3    H221518   2.657   6.679   4.549
 7193TIP3   OH221519   7.776   2.245   4.369
 7193TIP3    H121520   7.735   2.264   4.284
 7193TIP3    H221521   7.853   2.301   4.372
 7194TIP3   OH221522   5.820   3.358   4.063
 7194TIP3    H121523   5.799   3.410   3.986
 7194TIP3    H221524   5.911   3.379   4.083
 7195TIP3   OH221525   0.944   4.009   2.486
 7195TIP3    H121526   0.984   3.925   2.509
 7195TIP3    H221527   1.011   4.074   2.504
 7196TIP3   OH221528   1.014   3.249   3.808
 7196TIP3    H121529   1.020   3.179   3.743
 7196TIP3    H221530   0.973   3.208   3.884
 7197TIP3   OH221531   6.122   1.975   2.514
 7197TIP3    H121532   6.161   1.923   2.444
 7197TIP3    H221533   6.175   1.954   2.591
 7198TIP3   OH221534   6.867   2.358   5.403
 7198TIP3    H121535   6.860   2.297   5.477
 7198TIP3    H221536   6.785   2.406   5.402
 7199TIP3   OH221537   5.576   1.126   2.900
 7199TIP3    H121538   5.516   1.197   2.924
 7199TIP3    H221539   5.519   1.058   2.865
 7200TIP3   OH221540   7.195   4.594   3.986
 7200TIP3    H121541   7.261   4.655   3.953
 7200TIP3    H221542   7.220   4.510   3.949
 7201TIP3   OH221543   7.421   7.337   3.765
 7201TIP3    H121544   7.361   7.304   3.832
 7201TIP3    H221545   7.462   7.414   3.806
 7202TIP3   OH221546   1.118   2.933   1.214
 7202TIP3    H121547   1.060   3.005   1.190
 7202TIP3    H221548   1.205   2.973   1.219
 7203TIP3   OH221549   4.375   3.662   1.927
 7203TIP3    H121550   4.348   3.574   1.954
 7203TIP3    H221551   4.430   3.694   1.998
 7204TIP3   OH221552   0.632   6.793   3.788
 7204TIP3    H121553   0.643   6.700   3.804
 7204TIP3    H221554   0.712   6.832   3.825
 7205TIP3   OH221555   1.818   6.094   5.212
 7205TIP3    H121556   1.815   6.168   5.272
 7205TIP3    H221557   1.876   6.031   5.254
 7206TIP3   OH221558   4.239   4.798   2.108
 7206TIP3    H121559   4.162   4.846   2.076
 7206TIP3    H221560   4.202   4.721   2.152
 7207TIP3   OH221561   0.674   1.331   5.774
 7207TIP3    H121562   0.644   1.243   5.754
 7207TIP3    H221563   0.685   1.332   5.869
 7208TIP3   OH221564   0.661   7.798   4.246
 7208TIP3    H121565   0.646   7.882   4.291
 7208TIP3    H221566   0.700   7.742   4.313
 7209TIP3   OH221567   3.651   2.539   3.418
 7209TIP3    H121568   3.694   2.456   3.394
 7209TIP3    H221569   3.603   2.519   3.498
 7210TIP3   OH221570   1.417   2.065  -0.019
 7210TIP3    H121571   1.367   1.988  -0.045
 7210TIP3    H221572   1.373   2.098   0.059
 7211TIP3   OH221573   1.077   1.637   1.164
 7211TIP3    H121574   1.145   1.572   1.148
 7211TIP3    H221575   1.123   1.720   1.168
 7212TIP3   OH221576   2.391   2.207   0.025
 7212TIP3    H121577   2.377   2.292   0.067
 7212TIP3    H221578   2.416   2.149   0.096
 7213TIP3   OH221579   5.435   1.820   3.157
 7213TIP3    H121580   5.470   1.730   3.158
 7213TIP3    H221581   5.389   1.827   3.074
 7214TIP3   OH221582   7.605   4.962   4.388
 7214TIP3    H121583   7.671   4.896   4.367
 7214TIP3    H221584   7.653   5.029   4.437
 7215TIP3   OH221585   0.141   1.864   3.883
 7215TIP3    H121586   0.056   1.833   3.853
 7215TIP3    H221587   0.171   1.797   3.944
 7216TIP3   OH221588   4.917   5.662   0.568
 7216TIP3    H121589   4.984   5.598   0.544
 7216TIP3    H221590   4.953   5.746   0.539
 7217TIP3   OH221591   4.145   4.553   2.206
 7217TIP3    H121592   4.063   4.549   2.156
 7217TIP3    H221593   4.122   4.521   2.293
 7218TIP3   OH221594   3.785   5.755   6.617
 7218TIP3    H121595   3.866   5.805   6.628
 7218TIP3    H221596   3.813   5.674   6.573
 7219TIP3   OH221597   0.532   3.192   5.722
 7219TIP3    H121598   0.481   3.256   5.772
 7219TIP3    H221599   0.564   3.130   5.788
 7220TIP3   OH221600   4.564   3.532   0.944
 7220TIP3    H121601   4.538   3.498   1.030
 7220TIP3    H221602   4.659   3.522   0.942
 7221TIP3   OH221603   0.231   0.245   1.843
 7221TIP3    H121604   0.147   0.259   1.886
 7221TIP3    H221605   0.296   0.278   1.906
 7222TIP3   OH221606   2.775  -0.050   3.916
 7222TIP3    H121607   2.750  -0.009   3.833
 7222TIP3    H221608   2.721  -0.006   3.982
 7223TIP3   OH221609   1.136   4.448   0.504
 7223TIP3    H121610   1.155   4.377   0.443
 7223TIP3    H221611   1.082   4.509   0.455
 7224TIP3   OH221612   5.301   3.139   1.984
 7224TIP3    H121613   5.268   3.218   1.942
 7224TIP3    H221614   5.302   3.160   2.077
 7225TIP3   OH221615   6.374   4.471   4.689
 7225TIP3    H121616   6.343   4.561   4.702
 7225TIP3    H221617   6.321   4.419   4.749
 7226TIP3   OH221618   7.940   6.919   2.726
 7226TIP3    H121619   8.007   6.888   2.788
 7226TIP3    H221620   7.912   6.840   2.680
 7227TIP3   OH221621   4.014   1.838   3.082
 7227TIP3    H121622   3.971   1.756   3.057
 7227TIP3    H221623   4.105   1.827   3.055
 7228TIP3   OH221624   4.351   2.637   1.236
 7228TIP3    H121625   4.321   2.618   1.325
 7228TIP3    H221626   4.352   2.552   1.192
 7229TIP3   OH221627   5.443   4.026   5.631
 7229TIP3    H121628   5.444   4.011   5.536
 7229TIP3    H221629   5.432   3.939   5.669
 7230TIP3   OH221630   7.736   5.234   3.592
 7230TIP3    H121631   7.794   5.309   3.609
 7230TIP3    H221632   7.764   5.202   3.506
 7231TIP3   OH221633   5.223   0.864   1.493
 7231TIP3    H121634   5.128   0.865   1.500
 7231TIP3    H221635   5.248   0.778   1.525
 7232TIP3   OH221636   7.908   1.837   3.535
 7232TIP3    H121637   7.882   1.913   3.484
 7232TIP3    H221638   7.980   1.798   3.484
 7233TIP3   OH221639   7.131   0.297   6.197
 7233TIP3    H121640   7.113   0.267   6.108
 7233TIP3    H221641   7.158   0.218   6.244
 7234TIP3   OH221642   6.769   4.469   0.120
 7234TIP3    H121643   6.709   4.500   0.052
 7234TIP3    H221644   6.843   4.434   0.072
 7235TIP3   OH221645   5.081   3.647   2.568
 7235TIP3    H121646   5.129   3.565   2.583
 7235TIP3    H221647   5.027   3.629   2.491
 7236TIP3   OH221648   0.955   3.342   5.947
 7236TIP3    H121649   0.884   3.299   5.899
 7236TIP3    H221650   0.988   3.409   5.887
 7237TIP3   OH221651   5.645   3.502   1.766
 7237TIP3    H121652   5.671   3.531   1.853
 7237TIP3    H221653   5.597   3.421   1.782
 7238TIP3   OH221654   7.481   6.022   0.612
 7238TIP3    H121655   7.540   5.967   0.560
 7238TIP3    H221656   7.411   5.963   0.639
 7239TIP3   OH221657   3.237   4.173   0.664
 7239TIP3    H121658   3.185   4.184   0.584
 7239TIP3    H221659   3.287   4.254   0.671
 7240TIP3   OH221660   0.989   5.911   3.726
 7240TIP3    H121661   1.006   5.822   3.696
 7240TIP3    H221662   1.019   5.967   3.654
 7241TIP3   OH221663   1.929   7.432   5.652
 7241TIP3    H121664   1.902   7.456   5.563
 7241TIP3    H221665   1.847   7.406   5.695
 7242TIP3   OH221666   7.649   5.658   0.190
 7242TIP3    H121667   7.611   5.647   0.103
 7242TIP3    H221668   7.575   5.650   0.250
 7243TIP3   OH221669   2.293   4.178   0.609
 7243TIP3    H121670   2.340   4.095   0.613
 7243TIP3    H221671   2.349   4.240   0.657
 7244TIP3   OH221672   7.653   7.438   5.909
 7244TIP3    H121673   7.594   7.494   5.858
 7244TIP3    H221674   7.729   7.494   5.927
 7245TIP3   OH221675   2.988   2.826   5.289
 7245TIP3    H121676   2.918   2.889   5.310
 7245TIP3    H221677   2.943   2.755   5.244
 7246TIP3   OH221678   5.015   7.243   2.100
 7246TIP3    H121679   5.090   7.201   2.059
 7246TIP3    H221680   5.040   7.336   2.105
 7247TIP3   OH221681   6.751   1.834   1.599
 7247TIP3    H121682   6.777   1.922   1.573
 7247TIP3    H221683   6.681   1.810   1.538
 7248TIP3   OH221684   6.997   2.436   0.255
 7248TIP3    H121685   7.037   2.497   0.316
 7248TIP3    H221686   7.070   2.383   0.223
 7249TIP3   OH221687   7.598   3.714   6.552
 7249TIP3    H121688   7.551   3.790   6.587
 7249TIP3    H221689   7.568   3.707   6.462
 7250TIP3   OH221690   7.744   3.989   0.695
 7250TIP3    H121691   7.654   4.008   0.665
 7250TIP3    H221692   7.799   4.021   0.624
 7251TIP3   OH221693   8.308   3.990   1.561
 7251TIP3    H121694   8.350   4.070   1.529
 7251TIP3    H221695   8.215   4.011   1.561
 7252TIP3   OH221696   3.650   5.057   2.604
 7252TIP3    H121697   3.590   5.098   2.667
 7252TIP3    H221698   3.599   5.052   2.523
 7253TIP3   OH221699   2.448   5.479   4.162
 7253TIP3    H121700   2.449   5.388   4.192
 7253TIP3    H221701   2.468   5.474   4.069
 7254TIP3   OH221702   6.725   3.261   0.102
 7254TIP3    H121703   6.802   3.255   0.158
 7254TIP3    H221704   6.760   3.256   0.013
 7255TIP3   OH221705   4.681   0.199   5.538
 7255TIP3    H121706   4.732   0.196   5.619
 7255TIP3    H221707   4.592   0.178   5.565
 7256TIP3   OH221708   3.163   7.095   3.601
 7256TIP3    H121709   3.171   7.121   3.693
 7256TIP3    H221710   3.098   7.156   3.565
 7257TIP3   OH221711   4.877   1.697   2.290
 7257TIP3    H121712   4.824   1.745   2.355
 7257TIP3    H221713   4.890   1.761   2.220
 7258TIP3   OH221714   6.813   2.353   2.419
 7258TIP3    H121715   6.878   2.384   2.355
 7258TIP3    H221716   6.860   2.288   2.471
 7259TIP3   OH221717   0.937   1.026   2.597
 7259TIP3    H121718   0.873   0.960   2.569
 7259TIP3    H221719   1.009   0.975   2.634
 7260TIP3   OH221720   5.289   3.086   1.171
 7260TIP3    H121721   5.258   3.041   1.250
 7260TIP3    H221722   5.278   3.022   1.101
 7261TIP3   OH221723   6.985   5.819   3.409
 7261TIP3    H121724   7.074   5.796   3.435
 7261TIP3    H221725   6.973   5.777   3.324
 7262TIP3   OH221726   1.507   4.330   4.380
 7262TIP3    H121727   1.517   4.381   4.460
 7262TIP3    H221728   1.473   4.245   4.409
 7263TIP3   OH221729   1.264   0.317   0.742
 7263TIP3    H121730   1.268   0.409   0.767
 7263TIP3    H221731   1.332   0.308   0.675
 7264TIP3   OH221732   1.407   0.821   0.799
 7264TIP3    H121733   1.420   0.837   0.892
 7264TIP3    H221734   1.495   0.802   0.765
 7265TIP3   OH221735   2.729   3.324   0.222
 7265TIP3    H121736   2.802   3.348   0.164
 7265TIP3    H221737   2.737   3.384   0.296
 7266TIP3   OH221738   3.867   1.149   0.863
 7266TIP3    H121739   3.904   1.203   0.933
 7266TIP3    H221740   3.943   1.107   0.823
 7267TIP3   OH221741   2.778   0.044   2.420
 7267TIP3    H121742   2.746   0.073   2.505
 7267TIP3    H221743   2.741   0.107   2.358
 7268TIP3   OH221744   6.146   6.135   2.340
 7268TIP3    H121745   6.055   6.143   2.371
 7268TIP3    H221746   6.171   6.225   2.318
 7269TIP3   OH221747   5.898   7.303   1.178
 7269TIP3    H121748   5.870   7.354   1.102
 7269TIP3    H221749   5.985   7.271   1.155
 7270TIP3   OH221750   3.515   3.555   5.353
 7270TIP3    H121751   3.530   3.633   5.298
 7270TIP3    H221752   3.477   3.590   5.434
 7271TIP3   OH221753   4.425   1.893   5.748
 7271TIP3    H121754   4.427   1.861   5.838
 7271TIP3    H221755   4.406   1.816   5.695
 7272TIP3   OH221756   3.299   5.792   2.815
 7272TIP3    H121757   3.231   5.726   2.802
 7272TIP3    H221758   3.331   5.813   2.727
 7273TIP3   OH221759   2.473   0.796   5.458
 7273TIP3    H121760   2.444   0.880   5.421
 7273TIP3    H221761   2.462   0.807   5.552
 7274TIP3   OH221762   7.682   0.553   0.614
 7274TIP3    H121763   7.668   0.596   0.699
 7274TIP3    H221764   7.752   0.490   0.630
 7275TIP3   OH221765   6.822   7.303   4.404
 7275TIP3    H121766   6.856   7.225   4.449
 7275TIP3    H221767   6.834   7.283   4.311
 7276TIP3   OH221768   0.928   5.716   3.216
 7276TIP3    H121769   0.939   5.805   3.182
 7276TIP3    H221770   0.944   5.724   3.310
 7277TIP3   OH221771   6.417   6.111   6.550
 7277TIP3    H121772   6.419   6.032   6.497
 7277TIP3    H221773   6.450   6.180   6.492
 7278TIP3   OH221774   3.261   5.468   6.141
 7278TIP3    H121775   3.204   5.483   6.066
 7278TIP3    H221776   3.222   5.520   6.212
 7279TIP3   OH221777   2.185   4.737   2.826
 7279TIP3    H121778   2.279   4.734   2.808
 7279TIP3    H221779   2.148   4.790   2.756
 7280TIP3   OH221780   2.402   5.006   6.535
 7280TIP3    H121781   2.396   5.076   6.470
 7280TIP3    H221782   2.470   4.948   6.501
 7281TIP3   OH221783   7.365   1.432   1.797
 7281TIP3    H121784   7.315   1.393   1.869
 7281TIP3    H221785   7.434   1.368   1.779
 7282TIP3   OH221786   6.368   4.201   5.733
 7282TIP3    H121787   6.445   4.198   5.676
 7282TIP3    H221788   6.335   4.290   5.724
 7283TIP3   OH221789   2.564   7.132   5.749
 7283TIP3    H121790   2.626   7.086   5.692
 7283TIP3    H221791   2.553   7.218   5.708
 7284TIP3   OH221792   7.877   5.070   1.759
 7284TIP3    H121793   7.961   5.113   1.748
 7284TIP3    H221794   7.876   5.042   1.851
 7285TIP3   OH221795   2.981   5.098   0.198
 7285TIP3    H121796   3.047   5.144   0.250
 7285TIP3    H221797   2.927   5.167   0.161
 7286TIP3   OH221798   7.332   4.897   2.273
 7286TIP3    H121799   7.383   4.972   2.241
 7286TIP3    H221800   7.397   4.838   2.312
 7287TIP3   OH221801   3.123   3.714   5.250
 7287TIP3    H121802   3.061   3.769   5.299
 7287TIP3    H221803   3.096   3.624   5.270
 7288TIP3   OH221804   1.749   1.369   0.286
 7288TIP3    H121805   1.675   1.334   0.235
 7288TIP3    H221806   1.738   1.464   0.282
 7289TIP3   OH221807   4.268   6.882   3.643
 7289TIP3    H121808   4.289   6.850   3.730
 7289TIP3    H221809   4.203   6.950   3.657
 7290TIP3   OH221810   3.406   6.480   3.989
 7290TIP3    H121811   3.338   6.416   3.972
 7290TIP3    H221812   3.473   6.462   3.923
 7291TIP3   OH221813   8.072   6.538   0.745
 7291TIP3    H121814   8.061   6.620   0.793
 7291TIP3    H221815   8.166   6.535   0.724
 7292TIP3   OH221816   2.433   2.054   1.965
 7292TIP3    H121817   2.399   2.138   1.934
 7292TIP3    H221818   2.494   2.077   2.034
 7293TIP3   OH221819   4.470   1.100   4.154
 7293TIP3    H121820   4.553   1.071   4.192
 7293TIP3    H221821   4.463   1.050   4.072
 7294TIP3   OH221822   7.551   5.315   3.817
 7294TIP3    H121823   7.614   5.279   3.755
 7294TIP3    H221824   7.469   5.321   3.767
 7295TIP3   OH221825   7.967   5.071   6.256
 7295TIP3    H121826   8.027   5.141   6.233
 7295TIP3    H221827   7.881   5.113   6.260
 7296TIP3   OH221828   4.712   3.238   5.494
 7296TIP3    H121829   4.666   3.298   5.434
 7296TIP3    H221830   4.659   3.158   5.493
 7297TIP3   OH221831   0.885   3.194   4.044
 7297TIP3    H121832   0.858   3.278   4.081
 7297TIP3    H221833   0.819   3.132   4.075
 7298TIP3   OH221834   7.120   2.774   3.356
 7298TIP3    H121835   7.206   2.734   3.345
 7298TIP3    H221836   7.139   2.861   3.392
 7299TIP3   OH221837   3.643   5.927   6.384
 7299TIP3    H121838   3.661   5.833   6.385
 7299TIP3    H221839   3.619   5.949   6.474
 7300TIP3   OH221840   5.572   7.736   6.748
 7300TIP3    H121841   5.608   7.752   6.661
 7300TIP3    H221842   5.649   7.731   6.805
 7301TIP3   OH221843   4.923   2.900   5.623
 7301TIP3    H121844   4.982   2.836   5.584
 7301TIP3    H221845   4.840   2.887   5.577
 7302TIP3   OH221846   1.932   4.885   5.480
 7302TIP3    H121847   1.853   4.878   5.534
 7302TIP3    H221848   1.962   4.974   5.493
 7303TIP3   OH221849   7.211   7.418   2.347
 7303TIP3    H121850   7.295   7.463   2.336
 7303TIP3    H221851   7.146   7.479   2.311
 7304TIP3   OH221852   3.474   2.011   2.798
 7304TIP3    H121853   3.397   2.051   2.758
 7304TIP3    H221854   3.539   2.081   2.799
 7305TIP3   OH221855   4.613   3.037   3.946
 7305TIP3    H121856   4.701   3.031   3.983
 7305TIP3    H221857   4.564   2.967   3.989
 7306TIP3   OH221858   5.078   6.204   3.982
 7306TIP3    H121859   5.001   6.171   4.028
 7306TIP3    H221860   5.110   6.276   4.036
 7307TIP3   OH221861   7.756   3.444   3.872
 7307TIP3    H121862   7.802   3.479   3.795
 7307TIP3    H221863   7.745   3.351   3.852
 7308TIP3   OH221864   8.304   4.427   5.697
 7308TIP3    H121865   8.226   4.372   5.703
 7308TIP3    H221866   8.358   4.398   5.771
 7309TIP3   OH221867   1.687   5.374   3.618
 7309TIP3    H121868   1.700   5.432   3.693
 7309TIP3    H221869   1.599   5.396   3.586
 7310TIP3   OH221870   5.333   2.465   4.921
 7310TIP3    H121871   5.408   2.410   4.897
 7310TIP3    H221872   5.270   2.404   4.958
 7311TIP3   OH221873   4.009   4.898   6.580
 7311TIP3    H121874   3.915   4.915   6.593
 7311TIP3    H221875   4.035   4.848   6.657
 7312TIP3   OH221876   1.499   2.721   2.732
 7312TIP3    H121877   1.423   2.734   2.675
 7312TIP3    H221878   1.482   2.779   2.807
 7313TIP3   OH221879   2.402   2.076   4.521
 7313TIP3    H121880   2.354   2.028   4.453
 7313TIP3    H221881   2.347   2.152   4.539
 7314TIP3   OH221882   5.517   0.089   0.200
 7314TIP3    H121883   5.505   0.011   0.146
 7314TIP3    H221884   5.606   0.081   0.235
 7315TIP3   OH221885   4.114   0.772   2.369
 7315TIP3    H121886   4.207   0.796   2.374
 7315TIP3    H221887   4.076   0.809   2.449
 7316TIP3   OH221888   2.276   2.161   0.990
 7316TIP3    H121889   2.260   2.071   0.960
 7316TIP3    H221890   2.261   2.215   0.913
 7317TIP3   OH221891   8.328   5.175   4.067
 7317TIP3    H121892   8.352   5.082   4.059
 7317TIP3    H221893   8.244   5.182   4.021
 7318TIP3   OH221894   0.773   3.558   4.496
 7318TIP3    H121895   0.686   3.536   4.529
 7318TIP3    H221896   0.819   3.475   4.492
 7319TIP3   OH221897   0.560   3.764   5.271
 7319TIP3    H121898   0.558   3.777   5.365
 7319TIP3    H221899   0.552   3.669   5.260
 7320TIP3   OH221900   8.096   1.773   6.298
 7320TIP3    H121901   8.111   1.724   6.218
 7320TIP3    H221902   8.056   1.710   6.358
 7321TIP3   OH221903   0.435   1.643   2.835
 7321TIP3    H121904   0.460   1.705   2.766
 7321TIP3    H221905   0.383   1.695   2.897
 7322TIP3   OH221906   0.884   3.290   3.351
 7322TIP3    H121907   0.829   3.212   3.364
 7322TIP3    H221908   0.901   3.291   3.257
 7323TIP3   OH221909   7.565   3.880   0.475
 7323TIP3    H121910   7.518   3.799   0.454
 7323TIP3    H221911   7.497   3.947   0.479
 7324TIP3   OH221912   7.388   2.801   3.642
 7324TIP3    H121913   7.361   2.840   3.725
 7324TIP3    H221914   7.306   2.777   3.598
 7325TIP3   OH221915   4.705   0.561   2.337
 7325TIP3    H121916   4.789   0.516   2.326
 7325TIP3    H221917   4.648   0.522   2.270
 7326TIP3   OH221918   5.955   7.506   6.693
 7326TIP3    H121919   5.957   7.470   6.781
 7326TIP3    H221920   5.964   7.431   6.635
 7327TIP3   OH221921   5.877   7.169   0.303
 7327TIP3    H121922   5.962   7.171   0.346
 7327TIP3    H221923   5.880   7.091   0.248
 7328TIP3   OH221924   4.562   1.814   1.982
 7328TIP3    H121925   4.591   1.887   1.928
 7328TIP3    H221926   4.643   1.777   2.018
 7329TIP3   OH221927   6.259   1.116   0.274
 7329TIP3    H121928   6.266   1.080   0.362
 7329TIP3    H221929   6.338   1.168   0.263
 7330TIP3   OH221930   3.014   7.114   6.643
 7330TIP3    H121931   2.987   7.133   6.553
 7330TIP3    H221932   3.057   7.029   6.638
 7331TIP3   OH221933   6.834   6.717   1.110
 7331TIP3    H121934   6.925   6.687   1.103
 7331TIP3    H221935   6.824   6.743   1.202
 7332TIP3   OH221936   6.411   3.106   0.735
 7332TIP3    H121937   6.454   3.028   0.700
 7332TIP3    H221938   6.467   3.179   0.708
 7333TIP3   OH221939   1.731   4.476   2.518
 7333TIP3    H121940   1.817   4.450   2.550
 7333TIP3    H221941   1.727   4.571   2.534
 7334TIP3   OH221942   7.992   3.333   6.305
 7334TIP3    H121943   7.946   3.405   6.261
 7334TIP3    H221944   7.936   3.310   6.378
 7335TIP3   OH221945   1.975   5.251   2.913
 7335TIP3    H121946   2.068   5.257   2.935
 7335TIP3    H221947   1.971   5.184   2.845
 7336TIP3   OH221948   1.230   4.554   1.537
 7336TIP3    H121949   1.248   4.610   1.462
 7336TIP3    H221950   1.187   4.613   1.600
 7337TIP3   OH221951   0.168   5.661   4.669
 7337TIP3    H121952   0.247   5.621   4.634
 7337TIP3    H221953   0.099   5.636   4.608
 7338TIP3   OH221954   4.405   0.980   5.119
 7338TIP3    H121955   4.474   0.966   5.184
 7338TIP3    H221956   4.338   0.916   5.142
 7339TIP3   OH221957   2.851   5.811   6.177
 7339TIP3    H121958   2.868   5.830   6.270
 7339TIP3    H221959   2.790   5.737   6.178
 7340TIP3   OH221960   6.556   0.532   3.769
 7340TIP3    H121961   6.589   0.589   3.701
 7340TIP3    H221962   6.534   0.592   3.841
 7341TIP3   OH221963   8.140   7.586   4.872
 7341TIP3    H121964   8.228   7.614   4.897
 7341TIP3    H221965   8.144   7.575   4.777
 7342TIP3   OH221966   6.039   0.092   4.427
 7342TIP3    H121967   6.092   0.130   4.497
 7342TIP3    H221968   6.029   0.162   4.363
 7343TIP3   OH221969   3.199   2.326   2.706
 7343TIP3    H121970   3.132   2.390   2.731
 7343TIP3    H221971   3.272   2.379   2.673
 7344TIP3   OH221972   7.163   7.996   5.052
 7344TIP3    H121973   7.209   7.912   5.058
 7344TIP3    H221974   7.086   7.985   5.108
 7345TIP3   OH221975   0.333   3.059   4.511
 7345TIP3    H121976   0.378   3.061   4.426
 7345TIP3    H221977   0.344   2.969   4.541
 7346TIP3   OH221978   4.486   4.493   2.663
 7346TIP3    H121979   4.403   4.445   2.660
 7346TIP3    H221980   4.552   4.428   2.641
 7347TIP3   OH221981   4.497   2.810   5.849
 7347TIP3    H121982   4.583   2.840   5.879
 7347TIP3    H221983   4.434   2.859   5.902
 7348TIP3   OH221984   7.147   6.705   1.791
 7348TIP3    H121985   7.122   6.672   1.877
 7348TIP3    H221986   7.229   6.661   1.772
 7349TIP3   OH221987   6.611   7.770   2.044
 7349TIP3    H121988   6.544   7.730   2.100
 7349TIP3    H221989   6.620   7.860   2.078
 7350TIP3   OH221990   1.137   1.450   6.662
 7350TIP3    H121991   1.117   1.356   6.664
 7350TIP3    H221992   1.072   1.486   6.601
 7351TIP3   OH221993   7.027   2.444   2.672
 7351TIP3    H121994   7.020   2.512   2.605
 7351TIP3    H221995   6.996   2.365   2.629
 7352TIP3   OH221996   6.332   6.924   2.287
 7352TIP3    H121997   6.275   6.965   2.221
 7352TIP3    H221998   6.276   6.915   2.364
 7353TIP3   OH221999   8.416   0.427   4.898
 7353TIP3    H122000   8.369   0.393   4.822
 7353TIP3    H222001   8.353   0.483   4.942
 7354TIP3   OH222002   4.377   3.854   2.554
 7354TIP3    H122003   4.290   3.852   2.593
 7354TIP3    H222004   4.369   3.911   2.478
 7355TIP3   OH222005   5.558   4.417   2.451
 7355TIP3    H122006   5.568   4.475   2.527
 7355TIP3    H222007   5.647   4.386   2.433
 7356TIP3   OH222008   2.424   7.674   3.399
 7356TIP3    H122009   2.448   7.636   3.315
 7356TIP3    H222010   2.508   7.689   3.443
 7357TIP3   OH222011   4.482   4.411   3.586
 7357TIP3    H122012   4.508   4.337   3.532
 7357TIP3    H222013   4.390   4.395   3.607
 7358TIP3   OH222014   2.926   1.391   6.628
 7358TIP3    H122015   2.979   1.468   6.607
 7358TIP3    H222016   2.964   1.358   6.710
 7359TIP3   OH222017   1.804   0.328   0.252
 7359TIP3    H122018   1.749   0.259   0.289
 7359TIP3    H222019   1.872   0.342   0.317
 7360TIP3   OH222020   4.988   3.511   6.564
 7360TIP3    H122021   4.940   3.588   6.533
 7360TIP3    H222022   4.924   3.440   6.562
 7361TIP3   OH222023   2.059   2.960   4.665
 7361TIP3    H122024   2.060   2.879   4.715
 7361TIP3    H222025   2.106   3.023   4.720
 7362TIP3   OH222026   5.914   1.543   2.144
 7362TIP3    H122027   5.911   1.455   2.182
 7362TIP3    H222028   6.003   1.573   2.162
 7363TIP3   OH222029   7.377   5.614   4.890
 7363TIP3    H122030   7.347   5.533   4.932
 7363TIP3    H222031   7.472   5.614   4.903
 7364TIP3   OH222032   0.315   1.226  -0.001
 7364TIP3    H122033   0.388   1.171   0.027
 7364TIP3    H222034   0.353   1.283  -0.068
 7365TIP3   OH222035   3.088   1.823   1.027
 7365TIP3    H122036   3.075   1.734   1.060
 7365TIP3    H222037   3.011   1.841   0.974
 7366TIP3   OH222038   1.305   3.369   4.932
 7366TIP3    H122039   1.265   3.352   5.017
 7366TIP3    H222040   1.312   3.464   4.927
 7367TIP3   OH222041   1.909   1.297   3.053
 7367TIP3    H122042   1.898   1.372   2.994
 7367TIP3    H222043   1.824   1.254   3.054
 7368TIP3   OH222044   4.142   2.566   5.012
 7368TIP3    H122045   4.225   2.596   5.050
 7368TIP3    H222046   4.168   2.500   4.947
 7369TIP3   OH222047   1.988   6.705   2.041
 7369TIP3    H122048   2.025   6.779   2.089
 7369TIP3    H222049   1.919   6.672   2.098
 7370TIP3   OH222050   3.029   7.633   5.823
 7370TIP3    H122051   3.113   7.592   5.845
 7370TIP3    H222052   3.041   7.725   5.844
 7371TIP3   OH222053   7.661   3.769   3.461
 7371TIP3    H122054   7.591   3.743   3.520
 7371TIP3    H222055   7.669   3.864   3.473
 7372TIP3   OH222056   3.409   6.312   2.984
 7372TIP3    H122057   3.414   6.385   3.046
 7372TIP3    H222058   3.337   6.258   3.016
 7373TIP3   OH222059   1.350   2.088   0.419
 7373TIP3    H122060   1.358   2.121   0.508
 7373TIP3    H222061   1.397   2.005   0.419
 7374TIP3   OH222062   5.544   7.742   2.922
 7374TIP3    H122063   5.633   7.713   2.941
 7374TIP3    H222064   5.489   7.691   2.981
 7375TIP3   OH222065   6.528   1.512   5.461
 7375TIP3    H122066   6.457   1.512   5.525
 7375TIP3    H222067   6.494   1.562   5.387
 7376TIP3   OH222068   2.092   6.565   6.380
 7376TIP3    H122069   2.178   6.609   6.379
 7376TIP3    H222070   2.100   6.497   6.313
 7377TIP3   OH222071   7.680   7.447   2.412
 7377TIP3    H122072   7.666   7.352   2.415
 7377TIP3    H222073   7.752   7.458   2.350
 7378TIP3   OH222074   7.548   0.772   1.127
 7378TIP3    H122075   7.484   0.701   1.138
 7378TIP3    H222076   7.615   0.754   1.193
 7379TIP3   OH222077   5.663   2.284   0.217
 7379TIP3    H122078   5.692   2.193   0.213
 7379TIP3    H222079   5.599   2.286   0.288
 7380TIP3   OH222080   3.011   4.574   2.473
 7380TIP3    H122081   3.034   4.485   2.445
 7380TIP3    H222082   2.934   4.596   2.421
 7381TIP3   OH222083   1.041   3.156   3.551
 7381TIP3    H122084   1.067   3.247   3.566
 7381TIP3    H222085   0.979   3.161   3.478
 7382TIP3   OH222086   7.598   6.339   3.656
 7382TIP3    H122087   7.631   6.428   3.643
 7382TIP3    H222088   7.665   6.283   3.618
 7383TIP3   OH222089   8.083   5.184   6.519
 7383TIP3    H122090   8.042   5.167   6.434
 7383TIP3    H222091   8.010   5.206   6.577
 7384TIP3   OH222092   4.209   4.994   4.827
 7384TIP3    H122093   4.153   4.952   4.892
 7384TIP3    H222094   4.271   4.926   4.801
 7385TIP3   OH222095   0.092   7.618   6.698
 7385TIP3    H122096   0.125   7.531   6.721
 7385TIP3    H222097   0.147   7.679   6.748
 7386TIP3   OH222098   5.668   3.796   1.350
 7386TIP3    H122099   5.613   3.748   1.412
 7386TIP3    H222100   5.748   3.744   1.344
 7387TIP3   OH222101   0.737   2.193   3.045
 7387TIP3    H122102   0.745   2.152   2.959
 7387TIP3    H222103   0.653   2.240   3.041
 7388TIP3   OH222104   5.439   4.700   0.040
 7388TIP3    H122105   5.380   4.756   0.091
 7388TIP3    H222106   5.481   4.644   0.105
 7389TIP3   OH222107   3.800   1.404   2.019
 7389TIP3    H122108   3.817   1.403   2.113
 7389TIP3    H222109   3.832   1.489   1.990
 7390TIP3   OH222110   1.484   6.322   1.446
 7390TIP3    H122111   1.394   6.323   1.479
 7390TIP3    H222112   1.525   6.248   1.492
 7391TIP3   OH222113   0.189   0.111   2.248
 7391TIP3    H122114   0.276   0.149   2.254
 7391TIP3    H222115   0.141   0.168   2.189
 7392TIP3   OH222116   7.020   4.995   3.004
 7392TIP3    H122117   6.993   4.926   2.944
 7392TIP3    H222118   7.115   4.985   3.012
 7393TIP3   OH222119   0.665   4.573   6.187
 7393TIP3    H122120   0.641   4.499   6.243
 7393TIP3    H222121   0.655   4.539   6.098
 7394TIP3   OH222122   1.793   1.609   3.253
 7394TIP3    H122123   1.733   1.662   3.200
 7394TIP3    H222124   1.741   1.532   3.278
 7395TIP3   OH222125   2.363   4.632   5.958
 7395TIP3    H122126   2.274   4.634   5.923
 7395TIP3    H222127   2.403   4.556   5.916
 7396TIP3   OH222128   0.640   6.924   4.604
 7396TIP3    H122129   0.732   6.951   4.596
 7396TIP3    H222130   0.593   6.989   4.552
 7397TIP3   OH222131   7.973   0.311   3.430
 7397TIP3    H122132   7.900   0.368   3.454
 7397TIP3    H222133   8.039   0.326   3.498
 7398TIP3   OH222134   0.837   3.448   6.462
 7398TIP3    H122135   0.822   3.353   6.458
 7398TIP3    H222136   0.805   3.481   6.378
 7399TIP3   OH222137   0.442   1.928   5.059
 7399TIP3    H122138   0.411   1.891   4.976
 7399TIP3    H222139   0.526   1.967   5.038
 7400TIP3   OH222140   7.456   5.294   5.310
 7400TIP3    H122141   7.530   5.263   5.362
 7400TIP3    H222142   7.438   5.382   5.345
 7401TIP3   OH222143   3.107   1.676   2.229
 7401TIP3    H122144   3.175   1.741   2.244
 7401TIP3    H222145   3.029   1.715   2.269
 7402TIP3   OH222146   6.504   3.010   1.055
 7402TIP3    H122147   6.450   2.960   0.994
 7402TIP3    H222148   6.567   3.056   1.000
 7403TIP3   OH222149   4.491   1.537   5.448
 7403TIP3    H122150   4.518   1.446   5.459
 7403TIP3    H222151   4.569   1.582   5.416
 7404TIP3   OH222152   7.995   4.822   6.174
 7404TIP3    H122153   7.959   4.908   6.196
 7404TIP3    H222154   8.078   4.842   6.129
 7405TIP3   OH222155   1.526   1.936   6.659
 7405TIP3    H122156   1.443   1.899   6.690
 7405TIP3    H222157   1.506   2.028   6.640
 7406TIP3   OH222158   1.771   2.331   2.482
 7406TIP3    H122159   1.782   2.255   2.540
 7406TIP3    H222160   1.857   2.373   2.481
 7407TIP3   OH222161   7.032   0.185   3.505
 7407TIP3    H122162   7.000   0.096   3.518
 7407TIP3    H222163   7.117   0.174   3.463
 7408TIP3   OH222164   5.802   5.174   3.541
 7408TIP3    H122165   5.737   5.137   3.601
 7408TIP3    H222166   5.879   5.189   3.596
 7409TIP3   OH222167   2.924   3.951   2.777
 7409TIP3    H122168   2.883   3.877   2.733
 7409TIP3    H222169   2.877   3.959   2.860
 7410TIP3   OH222170   2.507   5.864   2.349
 7410TIP3    H122171   2.498   5.959   2.341
 7410TIP3    H222172   2.582   5.852   2.407
 7411TIP3   OH222173   1.644   3.021   2.303
 7411TIP3    H122174   1.669   2.931   2.325
 7411TIP3    H222175   1.557   3.031   2.343
 7412TIP3   OH222176   0.743   7.654   5.572
 7412TIP3    H122177   0.751   7.696   5.486
 7412TIP3    H222178   0.686   7.712   5.622
 7413TIP3   OH222179   1.361   6.452   6.654
 7413TIP3    H122180   1.270   6.422   6.650
 7413TIP3    H222181   1.376   6.493   6.569
 7414TIP3   OH222182   3.954   3.649   2.711
 7414TIP3    H122183   3.954   3.597   2.630
 7414TIP3    H222184   3.861   3.655   2.735
 7415TIP3   OH222185   3.283   7.379   1.289
 7415TIP3    H122186   3.326   7.464   1.295
 7415TIP3    H222187   3.331   7.333   1.220
 7416TIP3   OH222188   1.873   7.797   0.259
 7416TIP3    H122189   1.787   7.776   0.296
 7416TIP3    H222190   1.933   7.789   0.333
 7417TIP3   OH222191   6.531   6.365   0.980
 7417TIP3    H122192   6.516   6.458   0.960
 7417TIP3    H222193   6.604   6.366   1.042
 7418TIP3   OH222194   3.678   3.283   3.682
 7418TIP3    H122195   3.585   3.263   3.697
 7418TIP3    H222196   3.698   3.240   3.599
 7419TIP3   OH222197   1.079   3.728   2.221
 7419TIP3    H122198   1.051   3.676   2.296
 7419TIP3    H222199   1.077   3.668   2.147
 7420TIP3   OH222200   5.835   5.053   4.400
 7420TIP3    H122201   5.925   5.074   4.425
 7420TIP3    H222202   5.796   5.016   4.479
 7421TIP3   OH222203   5.183   5.027   3.978
 7421TIP3    H122204   5.205   5.096   3.916
 7421TIP3    H222205   5.245   4.957   3.959
 7422TIP3   OH222206   6.941   2.877   3.631
 7422TIP3    H122207   7.016   2.903   3.577
 7422TIP3    H222208   6.964   2.904   3.719
 7423TIP3   OH222209   4.705   1.386   0.246
 7423TIP3    H122210   4.664   1.470   0.265
 7423TIP3    H222211   4.685   1.368   0.154
 7424TIP3   OH222212   0.327   2.482   1.762
 7424TIP3    H122213   0.250   2.516   1.807
 7424TIP3    H222214   0.401   2.512   1.815
 7425TIP3   OH222215   2.631   0.066   0.876
 7425TIP3    H122216   2.628   0.023   0.790
 7425TIP3    H222217   2.561   0.131   0.873
 7426TIP3   OH222218   5.341   0.547   1.263
 7426TIP3    H122219   5.421   0.545   1.316
 7426TIP3    H222220   5.334   0.637   1.232
 7427TIP3   OH222221   2.036   1.246   4.390
 7427TIP3    H122222   2.132   1.250   4.384
 7427TIP3    H222223   2.014   1.306   4.462
 7428TIP3   OH222224   2.550   1.250   4.201
 7428TIP3    H122225   2.493   1.194   4.252
 7428TIP3    H222226   2.634   1.204   4.199
 7429TIP3   OH222227   7.166   7.837   1.373
 7429TIP3    H122228   7.184   7.874   1.287
 7429TIP3    H222229   7.152   7.744   1.357
 7430TIP3   OH222230   7.870   1.171   4.236
 7430TIP3    H122231   7.849   1.169   4.329
 7430TIP3    H222232   7.940   1.107   4.225
 7431TIP3   OH222233   0.905   1.199   4.308
 7431TIP3    H122234   0.993   1.192   4.343
 7431TIP3    H222235   0.852   1.232   4.381
 7432TIP3   OH222236   3.350   2.002   0.121
 7432TIP3    H122237   3.395   2.024   0.039
 7432TIP3    H222238   3.258   2.020   0.104
 7433TIP3   OH222239   3.601   3.394   0.997
 7433TIP3    H122240   3.641   3.326   0.943
 7433TIP3    H222241   3.544   3.347   1.057
 7434TIP3   OH222242   5.189   6.597   1.137
 7434TIP3    H122243   5.175   6.661   1.206
 7434TIP3    H222244   5.121   6.616   1.072
 7435TIP3   OH222245   1.398   7.172   4.298
 7435TIP3    H122246   1.359   7.235   4.238
 7435TIP3    H222247   1.348   7.091   4.284
 7436TIP3   OH222248   3.345   4.635   2.835
 7436TIP3    H122249   3.397   4.701   2.788
 7436TIP3    H222250   3.255   4.652   2.808
 7437TIP3   OH222251   3.255   6.794   5.191
 7437TIP3    H122252   3.279   6.839   5.110
 7437TIP3    H222253   3.236   6.704   5.163
 7438TIP3   OH222254   4.097   5.123   1.822
 7438TIP3    H122255   4.130   5.193   1.766
 7438TIP3    H222256   4.144   5.134   1.905
 7439TIP3   OH222257   4.938   4.991   4.735
 7439TIP3    H122258   4.987   5.031   4.806
 7439TIP3    H222259   4.857   5.042   4.729
 7440TIP3   OH222260   7.718   1.012   6.679
 7440TIP3    H122261   7.697   1.081   6.743
 7440TIP3    H222262   7.810   0.991   6.697
 7441TIP3   OH222263   1.455   4.427   0.081
 7441TIP3    H122264   1.518   4.488   0.044
 7441TIP3    H222265   1.415   4.475   0.154
 7442TIP3   OH222266   2.243   5.249   0.811
 7442TIP3    H122267   2.269   5.264   0.720
 7442TIP3    H222268   2.202   5.162   0.810
 7443TIP3   OH222269   3.565   0.542   3.845
 7443TIP3    H122270   3.545   0.449   3.830
 7443TIP3    H222271   3.618   0.568   3.770
 7444TIP3   OH222272   7.209   5.733   0.270
 7444TIP3    H122273   7.161   5.672   0.214
 7444TIP3    H222274   7.233   5.806   0.213
 7445TIP3   OH222275   0.438   7.635   5.214
 7445TIP3    H122276   0.479   7.550   5.196
 7445TIP3    H222277   0.480   7.696   5.154
 7446TIP3   OH222278   0.306   2.396   1.496
 7446TIP3    H122279   0.297   2.301   1.485
 7446TIP3    H222280   0.322   2.408   1.589
 7447TIP3   OH222281   0.403   1.553   4.204
 7447TIP3    H122282   0.496   1.560   4.180
 7447TIP3    H222283   0.404   1.505   4.287
 7448TIP3   OH222284   7.466   3.675   6.301
 7448TIP3    H122285   7.385   3.714   6.333
 7448TIP3    H222286   7.464   3.585   6.333
 7449TIP3   OH222287   3.137   5.298   0.321
 7449TIP3    H122288   3.220   5.259   0.345
 7449TIP3    H222289   3.160   5.379   0.276
 7450TIP3   OH222290   1.252   2.207   2.051
 7450TIP3    H122291   1.199   2.150   2.106
 7450TIP3    H222292   1.290   2.149   1.985
 7451TIP3   OH222293   0.074   1.253   5.610
 7451TIP3    H122294   0.133   1.318   5.571
 7451TIP3    H222295   0.067   1.280   5.701
 7452TIP3   OH222296   1.368   0.428   2.651
 7452TIP3    H122297   1.460   0.450   2.638
 7452TIP3    H222298   1.330   0.504   2.695
 7453TIP3   OH222299   2.799   0.364   6.248
 7453TIP3    H122300   2.756   0.438   6.291
 7453TIP3    H222301   2.762   0.287   6.290
 7454TIP3   OH222302   3.577   6.319   0.163
 7454TIP3    H122303   3.641   6.381   0.198
 7454TIP3    H222304   3.589   6.240   0.215
 7455TIP3   OH222305   5.968   2.850   3.204
 7455TIP3    H122306   6.045   2.848   3.261
 7455TIP3    H222307   5.941   2.942   3.203
 7456TIP3   OH222308   1.952   6.918   4.926
 7456TIP3    H122309   1.955   6.876   5.012
 7456TIP3    H222310   2.028   6.883   4.880
 7457TIP3   OH222311   0.858   3.938   3.871
 7457TIP3    H122312   0.815   3.906   3.791
 7457TIP3    H222313   0.801   4.007   3.904
 7458TIP3   OH222314   7.449   7.804   1.980
 7458TIP3    H122315   7.368   7.794   2.029
 7458TIP3    H222316   7.469   7.898   1.985
 7459TIP3   OH222317   5.812   3.686   5.069
 7459TIP3    H122318   5.882   3.749   5.086
 7459TIP3    H222319   5.800   3.640   5.153
 7460TIP3   OH222320   1.832   5.188   4.594
 7460TIP3    H122321   1.877   5.174   4.678
 7460TIP3    H222322   1.764   5.253   4.614
 7461TIP3   OH222323   1.783   1.578   6.323
 7461TIP3    H122324   1.875   1.593   6.345
 7461TIP3    H222325   1.786   1.514   6.252
 7462TIP3   OH222326   4.108   6.046   3.810
 7462TIP3    H122327   4.182   6.091   3.769
 7462TIP3    H222328   4.062   6.115   3.858
 7463TIP3   OH222329   2.962   5.663   1.231
 7463TIP3    H122330   2.955   5.755   1.206
 7463TIP3    H222331   2.898   5.618   1.176
 7464TIP3   OH222332   0.252   5.995   3.689
 7464TIP3    H122333   0.325   6.036   3.736
 7464TIP3    H222334   0.177   6.050   3.710
 7465TIP3   OH222335   7.592   6.875   5.997
 7465TIP3    H122336   7.570   6.966   6.017
 7465TIP3    H222337   7.517   6.842   5.947
 7466TIP3   OH222338   6.545   6.271   2.467
 7466TIP3    H122339   6.557   6.303   2.378
 7466TIP3    H222340   6.626   6.295   2.513
 7467TIP3   OH222341   0.439   5.445   0.443
 7467TIP3    H122342   0.422   5.369   0.498
 7467TIP3    H222343   0.534   5.446   0.432
 7468TIP3   OH222344   5.811   7.694   1.978
 7468TIP3    H122345   5.793   7.722   2.068
 7468TIP3    H222346   5.875   7.758   1.946
 7469TIP3   OH222347   2.926   0.350   3.738
 7469TIP3    H122348   2.972   0.415   3.791
 7469TIP3    H222349   2.843   0.392   3.715
 7470TIP3   OH222350   3.971   7.840   1.139
 7470TIP3    H122351   3.992   7.755   1.101
 7470TIP3    H222352   4.033   7.900   1.098
 7471TIP3   OH222353   7.756   2.221   2.077
 7471TIP3    H122354   7.689   2.198   2.013
 7471TIP3    H222355   7.839   2.207   2.032
 7472TIP3   OH222356   5.764   4.506   3.628
 7472TIP3    H122357   5.808   4.591   3.624
 7472TIP3    H222358   5.805   4.460   3.701
 7473TIP3   OH222359   1.548   4.276   0.334
 7473TIP3    H122360   1.575   4.312   0.250
 7473TIP3    H222361   1.562   4.348   0.396
 7474TIP3   OH222362   7.142   7.126   3.631
 7474TIP3    H122363   7.200   7.108   3.557
 7474TIP3    H222364   7.055   7.132   3.592
 7475TIP3   OH222365   5.960   1.303   0.130
 7475TIP3    H122366   5.867   1.312   0.110
 7475TIP3    H222367   5.967   1.328   0.222
 7476TIP3   OH222368   7.247   5.925   0.477
 7476TIP3    H122369   7.292   5.988   0.421
 7476TIP3    H222370   7.240   5.846   0.424
 7477TIP3   OH222371   2.563   4.913   2.978
 7477TIP3    H122372   2.522   4.838   3.020
 7477TIP3    H222373   2.657   4.893   2.979
 7478TIP3   OH222374   7.774   6.898   0.885
 7478TIP3    H122375   7.719   6.946   0.948
 7478TIP3    H222376   7.746   6.807   0.894
 7479TIP3   OH222377   7.555   0.252   6.516
 7479TIP3    H122378   7.469   0.237   6.556
 7479TIP3    H222379   7.589   0.330   6.560
 7480TIP3   OH222380   6.970   5.096   1.259
 7480TIP3    H122381   7.022   5.016   1.270
 7480TIP3    H222382   7.033   5.166   1.274
 7481TIP3   OH222383   7.864   3.234   1.692
 7481TIP3    H122384   7.833   3.225   1.602
 7481TIP3    H222385   7.959   3.242   1.684
 7482TIP3   OH222386   2.302   3.281   2.421
 7482TIP3    H122387   2.254   3.204   2.451
 7482TIP3    H222388   2.248   3.317   2.351
 7483TIP3   OH222389   7.473   6.065   2.433
 7483TIP3    H122390   7.543   6.017   2.389
 7483TIP3    H222391   7.397   6.007   2.427
 7484TIP3   OH222392   6.383   4.953   2.142
 7484TIP3    H122393   6.420   5.023   2.195
 7484TIP3    H222394   6.298   4.986   2.114
 7485TIP3   OH222395   2.670   3.735   5.917
 7485TIP3    H122396   2.579   3.716   5.894
 7485TIP3    H222397   2.664   3.787   5.997
 7486TIP3   OH222398   6.173   5.072   0.259
 7486TIP3    H122399   6.201   5.003   0.319
 7486TIP3    H222400   6.182   5.153   0.309
 7487TIP3   OH222401   5.931   4.728   4.233
 7487TIP3    H122402   5.843   4.750   4.266
 7487TIP3    H222403   5.926   4.743   4.139
 7488TIP3   OH222404   4.434   3.428   1.603
 7488TIP3    H122405   4.426   3.485   1.527
 7488TIP3    H222406   4.476   3.483   1.669
 7489TIP3   OH222407   1.141   1.315   3.390
 7489TIP3    H122408   1.119   1.342   3.301
 7489TIP3    H222409   1.094   1.377   3.446
 7490TIP3   OH222410   7.125   2.431   4.499
 7490TIP3    H122411   7.173   2.352   4.474
 7490TIP3    H222412   7.150   2.495   4.433
 7491TIP3   OH222413   7.109   2.336   0.581
 7491TIP3    H122414   7.195   2.368   0.556
 7491TIP3    H222415   7.107   2.245   0.553
 7492TIP3   OH222416   4.062   3.623   5.353
 7492TIP3    H122417   4.030   3.553   5.410
 7492TIP3    H222418   3.997   3.693   5.362
 7493TIP3   OH222419   2.622   6.772   1.416
 7493TIP3    H122420   2.627   6.689   1.464
 7493TIP3    H222421   2.680   6.761   1.341
 7494TIP3   OH222422   8.057   3.592   4.074
 7494TIP3    H122423   8.066   3.503   4.040
 7494TIP3    H222424   8.063   3.582   4.169
 7495TIP3   OH222425   0.453   0.043   6.488
 7495TIP3    H122426   0.389   0.038   6.417
 7495TIP3    H222427   0.477  -0.048   6.505
 7496TIP3   OH222428   1.289   6.940   4.165
 7496TIP3    H122429   1.219   6.889   4.124
 7496TIP3    H222430   1.351   6.958   4.094
 7497TIP3   OH222431   2.150   1.311   3.619
 7497TIP3    H122432   2.135   1.367   3.695
 7497TIP3    H222433   2.120   1.225   3.647
 7498TIP3   OH222434   5.472   5.488   0.675
 7498TIP3    H122435   5.555   5.530   0.699
 7498TIP3    H222436   5.495   5.432   0.600
 7499TIP3   OH222437   1.509   1.941   1.294
 7499TIP3    H122438   1.501   1.905   1.383
 7499TIP3    H222439   1.585   1.999   1.299
 7500TIP3   OH222440   2.214   3.282   6.723
 7500TIP3    H122441   2.174   3.198   6.703
 7500TIP3    H222442   2.279   3.263   6.790
 7501TIP3   OH222443   1.822   1.799   4.965
 7501TIP3    H122444   1.727   1.789   4.973
 7501TIP3    H222445   1.855   1.784   5.054
 7502TIP3   OH222446   7.228   5.174   5.247
 7502TIP3    H122447   7.310   5.223   5.237
 7502TIP3    H222448   7.246   5.089   5.208
 7503TIP3   OH222449   8.290   5.383   3.817
 7503TIP3    H122450   8.338   5.463   3.837
 7503TIP3    H222451   8.311   5.323   3.889
 7504TIP3   OH222452   8.233   2.676   1.307
 7504TIP3    H122453   8.244   2.767   1.277
 7504TIP3    H222454   8.138   2.664   1.310
 7505TIP3   OH222455   6.273   4.515   0.825
 7505TIP3    H122456   6.221   4.451   0.776
 7505TIP3    H222457   6.238   4.600   0.798
 7506TIP3   OH222458   0.633   5.321   5.392
 7506TIP3    H122459   0.607   5.357   5.477
 7506TIP3    H222460   0.688   5.246   5.414
 7507TIP3   OH222461   3.312   3.276   4.805
 7507TIP3    H122462   3.316   3.187   4.771
 7507TIP3    H222463   3.319   3.265   4.900
 7508TIP3   OH222464   7.447   6.107   4.936
 7508TIP3    H122465   7.540   6.087   4.929
 7508TIP3    H222466   7.441   6.201   4.921
 7509TIP3   OH222467   0.632   4.509   0.540
 7509TIP3    H122468   0.567   4.495   0.608
 7509TIP3    H222469   0.669   4.595   0.559
 7510TIP3   OH222470   2.170   2.988   1.332
 7510TIP3    H122471   2.121   2.946   1.261
 7510TIP3    H222472   2.232   3.045   1.287
 7511TIP3   OH222473   0.575   5.507   4.987
 7511TIP3    H122474   0.548   5.492   4.896
 7511TIP3    H222475   0.651   5.450   4.999
 7512TIP3   OH222476   2.501   4.546   4.889
 7512TIP3    H122477   2.445   4.596   4.830
 7512TIP3    H222478   2.493   4.590   4.973
 7513TIP3   OH222479   1.151   4.128   4.396
 7513TIP3    H122480   1.056   4.136   4.385
 7513TIP3    H222481   1.163   4.117   4.490
 7514TIP3   OH222482   3.037   1.697   5.179
 7514TIP3    H122483   3.048   1.672   5.270
 7514TIP3    H222484   3.024   1.614   5.133
 7515TIP3   OH222485   1.050   6.384   4.738
 7515TIP3    H122486   1.115   6.329   4.696
 7515TIP3    H222487   0.999   6.422   4.666
 7516TIP3   OH222488   6.631   2.762   5.055
 7516TIP3    H122489   6.611   2.847   5.096
 7516TIP3    H222490   6.694   2.784   4.986
 7517TIP3   OH222491   0.625   4.901   5.997
 7517TIP3    H122492   0.550   4.854   5.961
 7517TIP3    H222493   0.701   4.855   5.961
 7518TIP3   OH222494   4.395   6.303   1.657
 7518TIP3    H122495   4.390   6.208   1.666
 7518TIP3    H222496   4.453   6.330   1.728
 7519TIP3   OH222497   6.580   5.377   1.794
 7519TIP3    H122498   6.546   5.364   1.705
 7519TIP3    H222499   6.533   5.453   1.826
 7520TIP3   OH222500   2.101   6.048   0.348
 7520TIP3    H122501   2.120   5.975   0.290
 7520TIP3    H222502   2.174   6.109   0.334
 7521TIP3   OH222503   2.560   7.399   3.909
 7521TIP3    H122504   2.647   7.401   3.949
 7521TIP3    H222505   2.572   7.437   3.822
 7522TIP3   OH222506   6.510   7.199   6.183
 7522TIP3    H122507   6.571   7.128   6.203
 7522TIP3    H222508   6.458   7.209   6.263
 7523TIP3   OH222509   8.225   7.128   0.755
 7523TIP3    H122510   8.263   7.152   0.839
 7523TIP3    H222511   8.131   7.120   0.773
 7524TIP3   OH222512   7.727   6.999   0.287
 7524TIP3    H122513   7.716   6.984   0.381
 7524TIP3    H222514   7.726   6.911   0.250
 7525TIP3   OH222515   7.194   1.420   2.967
 7525TIP3    H122516   7.148   1.401   3.049
 7525TIP3    H222517   7.125   1.449   2.908
 7526TIP3   OH222518   2.569   2.400   4.588
 7526TIP3    H122519   2.475   2.396   4.609
 7526TIP3    H222520   2.605   2.461   4.654
 7527TIP3   OH222521   3.326   6.595   4.487
 7527TIP3    H122522   3.360   6.647   4.414
 7527TIP3    H222523   3.252   6.646   4.520
 7528TIP3   OH222524   1.872   1.879   2.621
 7528TIP3    H122525   1.891   1.947   2.557
 7528TIP3    H222526   1.893   1.797   2.576
 7529TIP3   OH222527   0.859   5.380   6.026
 7529TIP3    H122528   0.896   5.363   6.113
 7529TIP3    H222529   0.793   5.311   6.014
 7530TIP3   OH222530   3.196   7.299   6.773
 7530TIP3    H122531   3.117   7.262   6.732
 7530TIP3    H222532   3.257   7.225   6.777
 7531TIP3   OH222533   1.056   2.625   3.515
 7531TIP3    H122534   1.022   2.572   3.443
 7531TIP3    H222535   0.986   2.626   3.579
 7532TIP3   OH222536   7.390   6.607   4.062
 7532TIP3    H122537   7.388   6.587   4.155
 7532TIP3    H222538   7.395   6.521   4.019
 7533TIP3   OH222539   3.396   0.519   0.482
 7533TIP3    H122540   3.415   0.547   0.571
 7533TIP3    H222541   3.303   0.495   0.483
 7534TIP3   OH222542   5.848   7.744   5.999
 7534TIP3    H122543   5.863   7.797   5.921
 7534TIP3    H222544   5.755   7.721   5.995
 7535TIP3   OH222545   7.471   5.390   6.048
 7535TIP3    H122546   7.426   5.393   5.963
 7535TIP3    H222547   7.558   5.425   6.030
 7536TIP3   OH222548   6.621   0.945   2.479
 7536TIP3    H122549   6.532   0.976   2.495
 7536TIP3    H222550   6.614   0.850   2.482
 7537TIP3   OH222551   4.448   3.345   6.356
 7537TIP3    H122552   4.357   3.317   6.363
 7537TIP3    H222553   4.444   3.430   6.313
 7538TIP3   OH222554   7.005   6.960   1.177
 7538TIP3    H122555   7.082   6.930   1.130
 7538TIP3    H222556   7.031   6.960   1.269
 7539TIP3   OH222557   0.488   1.366   0.524
 7539TIP3    H122558   0.435   1.301   0.569
 7539TIP3    H222559   0.426   1.415   0.469
 7540TIP3   OH222560   7.920   5.978   5.749
 7540TIP3    H122561   7.956   5.906   5.698
 7540TIP3    H222562   7.997   6.027   5.779
 7541TIP3   OH222563   4.283   3.469   3.195
 7541TIP3    H122564   4.350   3.401   3.198
 7541TIP3    H222565   4.319   3.541   3.246
 7542TIP3   OH222566   4.597   7.536   3.689
 7542TIP3    H122567   4.669   7.479   3.663
 7542TIP3    H222568   4.640   7.611   3.731
 7543TIP3   OH222569   2.019   0.372   4.287
 7543TIP3    H122570   2.048   0.450   4.241
 7543TIP3    H222571   1.924   0.376   4.285
 7544TIP3   OH222572   2.968   0.088   3.690
 7544TIP3    H122573   2.945   0.179   3.708
 7544TIP3    H222574   2.885   0.045   3.670
 7545TIP3   OH222575   6.208   4.739   1.059
 7545TIP3    H122576   6.274   4.794   1.018
 7545TIP3    H222577   6.247   4.652   1.061
 7546TIP3   OH222578   5.544   5.929   0.982
 7546TIP3    H122579   5.460   5.957   1.018
 7546TIP3    H222580   5.524   5.904   0.891
 7547TIP3   OH222581   4.651   4.710   0.127
 7547TIP3    H122582   4.585   4.649   0.094
 7547TIP3    H222583   4.734   4.665   0.114
 7548TIP3   OH222584   5.072   5.091   4.962
 7548TIP3    H122585   5.155   5.100   5.009
 7548TIP3    H222586   5.057   5.177   4.922
 7549TIP3   OH222587   0.690   2.407   5.413
 7549TIP3    H122588   0.748   2.429   5.341
 7549TIP3    H222589   0.735   2.437   5.492
 7550TIP3   OH222590   3.401   1.305   4.494
 7550TIP3    H122591   3.327   1.336   4.441
 7550TIP3    H222592   3.365   1.294   4.582
 7551TIP3   OH222593   3.096   5.123   1.817
 7551TIP3    H122594   3.119   5.175   1.894
 7551TIP3    H222595   3.179   5.084   1.788
 7552TIP3   OH222596   2.295   5.891   2.987
 7552TIP3    H122597   2.206   5.867   3.009
 7552TIP3    H222598   2.286   5.966   2.928
 7553TIP3   OH222599   3.509   4.533   3.043
 7553TIP3    H122600   3.484   4.565   2.957
 7553TIP3    H222601   3.467   4.448   3.050
 7554TIP3   OH222602   0.079   0.552   1.927
 7554TIP3    H122603   0.022   0.500   1.983
 7554TIP3    H222604   0.167   0.518   1.943
 7555TIP3   OH222605   3.932   4.930   5.723
 7555TIP3    H122606   3.875   4.938   5.799
 7555TIP3    H222607   3.971   4.843   5.731
 7556TIP3   OH222608   0.165   1.938   5.750
 7556TIP3    H122609   0.209   1.992   5.815
 7556TIP3    H222610   0.072   1.949   5.769
 7557TIP3   OH222611   4.644   0.573   0.109
 7557TIP3    H122612   4.610   0.607   0.026
 7557TIP3    H222613   4.692   0.646   0.147
 7558TIP3   OH222614   0.400   3.602   3.868
 7558TIP3    H122615   0.367   3.594   3.957
 7558TIP3    H222616   0.328   3.571   3.813
 7559TIP3   OH222617   4.031   5.609   2.529
 7559TIP3    H122618   4.118   5.638   2.501
 7559TIP3    H222619   4.038   5.514   2.533
 7560TIP3   OH222620   7.718   4.932   4.030
 7560TIP3    H122621   7.686   4.936   3.940
 7560TIP3    H222622   7.723   4.838   4.050
 7561TIP3   OH222623   4.677   0.344   4.020
 7561TIP3    H122624   4.699   0.432   4.053
 7561TIP3    H222625   4.722   0.338   3.936
 7562TIP3   OH222626   4.415   7.382   6.084
 7562TIP3    H122627   4.373   7.468   6.079
 7562TIP3    H222628   4.506   7.399   6.059
 7563TIP3   OH222629   4.923   1.247   2.262
 7563TIP3    H122630   4.919   1.191   2.184
 7563TIP3    H222631   4.832   1.270   2.279
 7564TIP3   OH222632   4.261   1.759   2.795
 7564TIP3    H122633   4.268   1.769   2.889
 7564TIP3    H222634   4.242   1.847   2.762
 7565TIP3   OH222635   1.997   4.735   3.309
 7565TIP3    H122636   2.061   4.689   3.363
 7565TIP3    H222637   2.020   4.827   3.319
 7566TIP3   OH222638   1.018   0.709   3.204
 7566TIP3    H122639   1.002   0.747   3.290
 7566TIP3    H222640   0.936   0.721   3.156
 7567TIP3   OH222641   1.779   4.893   1.109
 7567TIP3    H122642   1.865   4.914   1.073
 7567TIP3    H222643   1.741   4.832   1.046
 7568TIP3   OH222644   1.650   0.178   4.808
 7568TIP3    H122645   1.619   0.268   4.792
 7568TIP3    H222646   1.633   0.163   4.901
 7569TIP3   OH222647   1.721   6.720   3.462
 7569TIP3    H122648   1.805   6.755   3.489
 7569TIP3    H222649   1.659   6.791   3.476
 7570TIP3   OH222650   5.604   7.097   1.381
 7570TIP3    H122651   5.699   7.081   1.383
 7570TIP3    H222652   5.573   7.061   1.465
 7571TIP3   OH222653   3.374   4.148   3.866
 7571TIP3    H122654   3.317   4.219   3.838
 7571TIP3    H222655   3.409   4.178   3.951
 7572TIP3   OH222656   6.206   6.172   0.960
 7572TIP3    H122657   6.186   6.221   1.040
 7572TIP3    H222658   6.275   6.111   0.986
 7573TIP3   OH222659   0.201   0.660   6.157
 7573TIP3    H122660   0.159   0.744   6.134
 7573TIP3    H222661   0.222   0.668   6.250
 7574TIP3   OH222662   7.781   4.721   1.313
 7574TIP3    H122663   7.709   4.735   1.251
 7574TIP3    H222664   7.752   4.645   1.365
 7575TIP3   OH222665   6.615   6.009   2.487
 7575TIP3    H122666   6.574   6.095   2.492
 7575TIP3    H222667   6.551   5.949   2.525
 7576TIP3   OH222668   2.777   7.749   5.338
 7576TIP3    H122669   2.829   7.670   5.325
 7576TIP3    H222670   2.765   7.785   5.250
 7577TIP3   OH222671   0.559   0.359   0.768
 7577TIP3    H122672   0.544   0.297   0.696
 7577TIP3    H222673   0.494   0.428   0.754
 7578TIP3   OH222674   0.901   5.199   4.715
 7578TIP3    H122675   0.995   5.197   4.700
 7578TIP3    H222676   0.868   5.263   4.651
 7579TIP3   OH222677   3.306   7.030   5.309
 7579TIP3    H122678   3.223   7.077   5.303
 7579TIP3    H222679   3.282   6.939   5.290
 7580TIP3   OH222680   2.308   6.390   0.494
 7580TIP3    H122681   2.301   6.485   0.482
 7580TIP3    H222682   2.368   6.380   0.568
 7581TIP3   OH222683   6.270   4.994   1.280
 7581TIP3    H122684   6.300   4.938   1.208
 7581TIP3    H222685   6.336   5.064   1.285
 7582TIP3   OH222686   5.967   2.873   3.820
 7582TIP3    H122687   5.887   2.897   3.772
 7582TIP3    H222688   6.027   2.843   3.753
 7583TIP3   OH222689   7.852   7.268   5.865
 7583TIP3    H122690   7.784   7.333   5.847
 7583TIP3    H222691   7.826   7.228   5.948
 7584TIP3   OH222692   1.537   3.331   0.285
 7584TIP3    H122693   1.621   3.329   0.239
 7584TIP3    H222694   1.558   3.312   0.376
 7585TIP3   OH222695   7.534   3.670   1.751
 7585TIP3    H122696   7.597   3.695   1.683
 7585TIP3    H222697   7.527   3.575   1.742
 7586TIP3   OH222698   2.444   1.586   5.959
 7586TIP3    H122699   2.482   1.660   5.912
 7586TIP3    H222700   2.519   1.531   5.983
 7587TIP3   OH222701   3.981   1.570   1.449
 7587TIP3    H122702   3.898   1.604   1.418
 7587TIP3    H222703   4.015   1.517   1.377
 7588TIP3   OH222704   5.109   5.460   1.480
 7588TIP3    H122705   5.075   5.479   1.393
 7588TIP3    H222706   5.154   5.377   1.471
 7589TIP3   OH222707   4.200   1.155   5.314
 7589TIP3    H122708   4.181   1.062   5.300
 7589TIP3    H222709   4.113   1.196   5.316
 7590TIP3   OH222710   2.348   6.138   0.603
 7590TIP3    H122711   2.341   6.186   0.520
 7590TIP3    H222712   2.258   6.111   0.622
 7591TIP3   OH222713   6.368   5.189   2.299
 7591TIP3    H122714   6.364   5.229   2.385
 7591TIP3    H222715   6.302   5.120   2.301
 7592TIP3   OH222716   2.650   5.548   3.574
 7592TIP3    H122717   2.665   5.593   3.657
 7592TIP3    H222718   2.699   5.466   3.582
 7593TIP3   OH222719   2.370   7.461   0.225
 7593TIP3    H122720   2.276   7.447   0.241
 7593TIP3    H222721   2.375   7.485   0.133
 7594TIP3   OH222722   2.506   3.623   6.412
 7594TIP3    H122723   2.495   3.550   6.473
 7594TIP3    H222724   2.421   3.667   6.412
 7595TIP3   OH222725   7.907   6.123   4.223
 7595TIP3    H122726   7.942   6.054   4.167
 7595TIP3    H222727   7.880   6.193   4.163
 7596TIP3   OH222728   2.554   0.851   4.212
 7596TIP3    H122729   2.629   0.892   4.169
 7596TIP3    H222730   2.574   0.757   4.210
 7597TIP3   OH222731   3.804   4.281   1.355
 7597TIP3    H122732   3.864   4.248   1.288
 7597TIP3    H222733   3.845   4.256   1.438
 7598TIP3   OH222734   3.871   3.373   3.387
 7598TIP3    H122735   3.832   3.459   3.368
 7598TIP3    H222736   3.924   3.387   3.465
 7599TIP3   OH222737   1.602   0.931   5.399
 7599TIP3    H122738   1.599   0.984   5.479
 7599TIP3    H222739   1.688   0.951   5.361
 7600TIP3   OH222740   3.502   0.590   5.349
 7600TIP3    H122741   3.450   0.560   5.423
 7600TIP3    H222742   3.471   0.539   5.274
 7601TIP3   OH222743   3.309   4.824   6.577
 7601TIP3    H122744   3.344   4.790   6.659
 7601TIP3    H222745   3.312   4.749   6.517
 7602TIP3   OH222746   6.651   7.402   3.445
 7602TIP3    H122747   6.590   7.330   3.462
 7602TIP3    H222748   6.624   7.471   3.506
 7603TIP3   OH222749   5.786   1.004   6.018
 7603TIP3    H122750   5.699   0.982   6.053
 7603TIP3    H222751   5.782   0.975   5.927
 7604TIP3   OH222752   2.214   5.623   0.743
 7604TIP3    H122753   2.218   5.530   0.721
 7604TIP3    H222754   2.143   5.631   0.806
 7605TIP3   OH222755   5.832   4.874   5.366
 7605TIP3    H122756   5.786   4.897   5.447
 7605TIP3    H222757   5.924   4.894   5.385
 7606TIP3   OH222758   4.581   7.063   1.459
 7606TIP3    H122759   4.658   7.079   1.514
 7606TIP3    H222760   4.582   6.968   1.444
 7607TIP3   OH222761   0.897   7.351   0.240
 7607TIP3    H122762   0.858   7.267   0.215
 7607TIP3    H222763   0.822   7.406   0.263
 7608TIP3   OH222764   0.461   3.540   1.940
 7608TIP3    H122765   0.456   3.533   1.845
 7608TIP3    H222766   0.522   3.611   1.956
 7609TIP3   OH222767   6.691   5.100   2.510
 7609TIP3    H122768   6.609   5.049   2.510
 7609TIP3    H222769   6.749   5.051   2.567
 7610TIP3   OH222770   7.365   7.395   1.763
 7610TIP3    H122771   7.272   7.374   1.754
 7610TIP3    H222772   7.368   7.459   1.834
 7611TIP3   OH222773   6.838   1.326   0.290
 7611TIP3    H122774   6.792   1.242   0.292
 7611TIP3    H222775   6.768   1.391   0.280
 7612TIP3   OH222776   0.936   2.987   1.691
 7612TIP3    H122777   0.855   3.033   1.711
 7612TIP3    H222778   0.959   2.941   1.771
 7613TIP3   OH222779   6.308   3.290   3.851
 7613TIP3    H122780   6.274   3.328   3.770
 7613TIP3    H222781   6.295   3.195   3.840
 7614TIP3   OH222782   6.371   1.042   0.812
 7614TIP3    H122783   6.303   1.017   0.875
 7614TIP3    H222784   6.332   1.114   0.762
 7615TIP3   OH222785   5.847   0.748   0.799
 7615TIP3    H122786   5.908   0.771   0.869
 7615TIP3    H222787   5.760   0.757   0.839
 7616TIP3   OH222788   1.698   7.288   1.442
 7616TIP3    H122789   1.647   7.207   1.441
 7616TIP3    H222790   1.744   7.286   1.526
 7617TIP3   OH222791   5.640   6.533   0.368
 7617TIP3    H122792   5.599   6.499   0.288
 7617TIP3    H222793   5.661   6.624   0.347
 7618TIP3   OH222794   3.495   6.648   1.484
 7618TIP3    H122795   3.561   6.594   1.441
 7618TIP3    H222796   3.499   6.732   1.439
 7619TIP3   OH222797   1.641   1.165   1.357
 7619TIP3    H122798   1.593   1.157   1.440
 7619TIP3    H222799   1.669   1.257   1.355
 7620TIP3   OH222800   7.262   3.421   2.021
 7620TIP3    H122801   7.220   3.450   2.102
 7620TIP3    H222802   7.332   3.485   2.006
 7621TIP3   OH222803   1.992   6.326   0.687
 7621TIP3    H122804   2.013   6.352   0.597
 7621TIP3    H222805   1.992   6.409   0.736
 7622TIP3   OH222806   1.233   7.495   6.633
 7622TIP3    H122807   1.151   7.533   6.663
 7622TIP3    H222808   1.287   7.571   6.611
 7623TIP3   OH222809   8.312   5.588   4.182
 7623TIP3    H122810   8.351   5.667   4.221
 7623TIP3    H222811   8.257   5.621   4.111
 7624TIP3   OH222812   2.650   1.299   2.768
 7624TIP3    H122813   2.632   1.390   2.788
 7624TIP3    H222814   2.565   1.255   2.776
 7625TIP3   OH222815   7.732   3.122   3.770
 7625TIP3    H122816   7.681   3.116   3.689
 7625TIP3    H222817   7.678   3.079   3.836
 7626TIP3   OH222818   8.047   1.101   3.930
 7626TIP3    H122819   8.086   1.074   4.013
 7626TIP3    H222820   8.086   1.187   3.912
 7627TIP3   OH222821   0.683   4.196   6.378
 7627TIP3    H122822   0.769   4.240   6.377
 7627TIP3    H222823   0.636   4.236   6.450
 7628TIP3   OH222824   5.885   7.044   4.401
 7628TIP3    H122825   5.886   7.060   4.307
 7628TIP3    H222826   5.965   7.086   4.433
 7629TIP3   OH222827   7.181   7.804   6.469
 7629TIP3    H122828   7.211   7.852   6.546
 7629TIP3    H222829   7.175   7.870   6.400
 7630TIP3   OH222830   5.611   2.873   6.058
 7630TIP3    H122831   5.681   2.840   6.115
 7630TIP3    H222832   5.547   2.911   6.119
 7631TIP3   OH222833   4.378   1.551   4.557
 7631TIP3    H122834   4.462   1.512   4.534
 7631TIP3    H222835   4.378   1.554   4.653
 7632TIP3   OH222836   6.301   1.240   1.445
 7632TIP3    H122837   6.347   1.289   1.377
 7632TIP3    H222838   6.228   1.297   1.470
 7633TIP3   OH222839   6.845   1.011   0.079
 7633TIP3    H122840   6.914   0.947   0.095
 7633TIP3    H222841   6.806   1.027   0.165
 7634TIP3   OH222842   3.531   3.529   2.676
 7634TIP3    H122843   3.472   3.558   2.745
 7634TIP3    H222844   3.608   3.497   2.722
 7635TIP3   OH222845   1.731   1.367   1.164
 7635TIP3    H122846   1.730   1.452   1.208
 7635TIP3    H222847   1.811   1.368   1.111
 7636TIP3   OH222848   3.430   7.311   2.157
 7636TIP3    H122849   3.397   7.222   2.145
 7636TIP3    H222850   3.502   7.302   2.219
 7637TIP3   OH222851   1.209   1.270   5.103
 7637TIP3    H122852   1.242   1.267   5.013
 7637TIP3    H222853   1.285   1.248   5.157
 7638TIP3   OH222854   6.313   1.856   5.943
 7638TIP3    H122855   6.370   1.902   6.005
 7638TIP3    H222856   6.225   1.889   5.962
 7639TIP3   OH222857   5.765   5.497   0.745
 7639TIP3    H122858   5.792   5.407   0.731
 7639TIP3    H222859   5.785   5.542   0.663
 7640TIP3   OH222860   2.107   0.031   3.211
 7640TIP3    H122861   2.060   0.074   3.282
 7640TIP3    H222862   2.199   0.035   3.237
 7641TIP3   OH222863   5.330   6.410   6.116
 7641TIP3    H122864   5.330   6.318   6.143
 7641TIP3    H222865   5.377   6.410   6.033
 7642TIP3   OH222866   4.283   4.046   3.463
 7642TIP3    H122867   4.234   4.083   3.389
 7642TIP3    H222868   4.267   3.952   3.458
 7643TIP3   OH222869   8.110   3.082   4.835
 7643TIP3    H122870   8.102   2.986   4.828
 7643TIP3    H222871   8.204   3.099   4.825
 7644TIP3   OH222872   7.257   6.376   0.424
 7644TIP3    H122873   7.183   6.315   0.420
 7644TIP3    H222874   7.334   6.321   0.411
 7645TIP3   OH222875   2.844   4.869   3.487
 7645TIP3    H122876   2.892   4.834   3.562
 7645TIP3    H222877   2.880   4.823   3.412
 7646TIP3   OH222878   1.046   6.966   0.577
 7646TIP3    H122879   1.014   7.051   0.606
 7646TIP3    H222880   1.082   6.925   0.656
 7647TIP3   OH222881   0.465   1.403   4.471
 7647TIP3    H122882   0.448   1.325   4.418
 7647TIP3    H222883   0.380   1.430   4.504
 7648TIP3   OH222884   3.592   0.980   6.134
 7648TIP3    H122885   3.669   0.934   6.168
 7648TIP3    H222886   3.520   0.919   6.147
 7649TIP3   OH222887   4.474   1.241   0.883
 7649TIP3    H122888   4.413   1.172   0.910
 7649TIP3    H222889   4.425   1.322   0.894
 7650TIP3   OH222890   7.404   6.571   1.476
 7650TIP3    H122891   7.397   6.598   1.567
 7650TIP3    H222892   7.343   6.497   1.468
 7651TIP3   OH222893   0.167   2.181   2.507
 7651TIP3    H122894   0.249   2.147   2.542
 7651TIP3    H222895   0.190   2.217   2.422
 7652TIP3   OH222896   6.160   2.122   5.489
 7652TIP3    H122897   6.234   2.068   5.518
 7652TIP3    H222898   6.128   2.162   5.570
 7653TIP3   OH222899   8.026   4.466   3.626
 7653TIP3    H122900   8.119   4.486   3.631
 7653TIP3    H222901   8.020   4.374   3.655
 7654TIP3   OH222902   3.004   1.416   5.160
 7654TIP3    H122903   3.004   1.381   5.070
 7654TIP3    H222904   2.912   1.434   5.179
 7655TIP3   OH222905   0.617   1.892   2.531
 7655TIP3    H122906   0.540   1.849   2.569
 7655TIP3    H222907   0.691   1.841   2.561
 7656TIP3   OH222908   5.831   2.629   3.195
 7656TIP3    H122909   5.894   2.700   3.189
 7656TIP3    H222910   5.780   2.649   3.274
 7657TIP3   OH222911   5.670   4.092   2.612
 7657TIP3    H122912   5.606   4.088   2.542
 7657TIP3    H222913   5.739   4.149   2.577
 7658TIP3   OH222914   8.043   6.711   4.634
 7658TIP3    H122915   7.961   6.701   4.585
 7658TIP3    H222916   8.015   6.725   4.725
 7659TIP3   OH222917   1.512   5.207   3.929
 7659TIP3    H122918   1.596   5.193   3.974
 7659TIP3    H222919   1.527   5.283   3.874
 7660TIP3   OH222920   2.741   7.474   0.117
 7660TIP3    H122921   2.817   7.419   0.098
 7660TIP3    H222922   2.722   7.518   0.035
 7661TIP3   OH222923  -0.007   6.704   4.563
 7661TIP3    H122924  -0.027   6.613   4.584
 7661TIP3    H222925   0.036   6.700   4.477
 7662TIP3   OH222926   3.350   5.261   4.014
 7662TIP3    H122927   3.434   5.251   4.058
 7662TIP3    H222928   3.365   5.330   3.949
 7663TIP3   OH222929   3.700   6.062   2.043
 7663TIP3    H122930   3.701   6.153   2.012
 7663TIP3    H222931   3.759   6.016   1.983
 7664TIP3   OH222932   0.581   2.833   3.118
 7664TIP3    H122933   0.542   2.883   3.189
 7664TIP3    H222934   0.661   2.880   3.096
 7665TIP3   OH222935   4.986   1.996   0.046
 7665TIP3    H122936   4.932   2.010   0.124
 7665TIP3    H222937   4.932   1.942  -0.011
 7666TIP3   OH222938   3.009   2.190   6.295
 7666TIP3    H122939   3.080   2.239   6.252
 7666TIP3    H222940   2.961   2.257   6.345
 7667TIP3   OH222941   4.505   1.198   0.350
 7667TIP3    H122942   4.569   1.238   0.290
 7667TIP3    H222943   4.448   1.147   0.292
 7668TIP3   OH222944   2.289   6.936   2.683
 7668TIP3    H122945   2.322   6.861   2.633
 7668TIP3    H222946   2.364   6.996   2.689
 7669TIP3   OH222947   3.480   0.281   2.045
 7669TIP3    H122948   3.465   0.362   2.093
 7669TIP3    H222949   3.487   0.308   1.954
 7670TIP3   OH222950   6.540   3.066   0.143
 7670TIP3    H122951   6.562   3.032   0.230
 7670TIP3    H222952   6.608   3.131   0.125
 7671TIP3   OH222953   3.804   0.362   3.449
 7671TIP3    H122954   3.721   0.400   3.420
 7671TIP3    H222955   3.804   0.375   3.544
 7672TIP3   OH222956   4.955   5.789   5.667
 7672TIP3    H122957   4.860   5.792   5.678
 7672TIP3    H222958   4.988   5.858   5.724
 7673TIP3   OH222959   4.115   5.858   4.403
 7673TIP3    H122960   4.076   5.825   4.323
 7673TIP3    H222961   4.209   5.862   4.385
 7674TIP3   OH222962   2.581   1.121   3.187
 7674TIP3    H122963   2.620   1.049   3.137
 7674TIP3    H222964   2.539   1.077   3.262
 7675TIP3   OH222965   1.009   3.348   5.667
 7675TIP3    H122966   1.049   3.279   5.614
 7675TIP3    H222967   1.038   3.430   5.626
 7676TIP3   OH222968   8.372   4.937   5.801
 7676TIP3    H122969   8.338   4.945   5.711
 7676TIP3    H222970   8.467   4.933   5.790
 7677TIP3   OH222971   3.380   1.523   1.844
 7677TIP3    H122972   3.468   1.510   1.809
 7677TIP3    H222973   3.322   1.510   1.769
 7678TIP3   OH222974   7.168   2.718   0.839
 7678TIP3    H122975   7.260   2.726   0.816
 7678TIP3    H222976   7.168   2.701   0.934
 7679TIP3   OH222977   4.562   1.952   6.931
 7679TIP3    H122978   4.589   1.863   6.911
 7679TIP3    H222979   4.603   2.006   6.862
 7680TIP3   OH222980   6.908   1.413   6.471
 7680TIP3    H122981   6.957   1.343   6.514
 7680TIP3    H222982   6.890   1.380   6.384
 7681TIP3   OH222983   2.871   2.124   6.037
 7681TIP3    H122984   2.909   2.211   6.046
 7681TIP3    H222985   2.827   2.108   6.120
 7682TIP3   OH222986   3.778   4.512   2.659
 7682TIP3    H122987   3.801   4.590   2.711
 7682TIP3    H222988   3.848   4.506   2.594
 7683TIP3   OH222989   5.866   5.087   1.317
 7683TIP3    H122990   5.831   5.055   1.234
 7683TIP3    H222991   5.923   5.017   1.348
 7684TIP3   OH222992   7.276   0.558   2.412
 7684TIP3    H122993   7.287   0.593   2.500
 7684TIP3    H222994   7.207   0.492   2.421
 7685TIP3   OH222995   5.911   0.250   5.982
 7685TIP3    H122996   5.882   0.273   6.071
 7685TIP3    H222997   5.990   0.198   5.996
 7686TIP3   OH222998   3.023   7.765   5.124
 7686TIP3    H122999   3.093   7.778   5.061
 7686TIP3    H223000   3.050   7.689   5.175
 7687TIP3   OH223001   7.143   2.384   3.496
 7687TIP3    H123002   7.190   2.332   3.431
 7687TIP3    H223003   7.084   2.439   3.444
 7688TIP3   OH223004   5.493   2.504   3.896
 7688TIP3    H123005   5.564   2.493   3.960
 7688TIP3    H223006   5.483   2.418   3.856
 7689TIP3   OH223007   7.029   7.463   2.074
 7689TIP3    H123008   7.121   7.466   2.051
 7689TIP3    H223009   7.013   7.371   2.099
 7690TIP3   OH223010   0.750   2.475   1.826
 7690TIP3    H123011   0.755   2.570   1.822
 7690TIP3    H223012   0.760   2.454   1.919
 7691TIP3   OH223013   6.138   2.613   6.145
 7691TIP3    H123014   6.195   2.688   6.130
 7691TIP3    H223015   6.139   2.565   6.062
 7692TIP3   OH223016   1.436   2.975   0.485
 7692TIP3    H123017   1.420   2.885   0.513
 7692TIP3    H223018   1.507   2.969   0.421
 7693TIP3   OH223019   6.646   4.206   3.173
 7693TIP3    H123020   6.620   4.160   3.253
 7693TIP3    H223021   6.584   4.278   3.165
 7694TIP3   OH223022   7.863   4.974   4.663
 7694TIP3    H123023   7.922   4.921   4.609
 7694TIP3    H223024   7.920   5.039   4.704
 7695TIP3   OH223025   4.483   7.434   1.726
 7695TIP3    H123026   4.471   7.355   1.674
 7695TIP3    H223027   4.444   7.504   1.675
 7696TIP3   OH223028   6.578   4.165   4.572
 7696TIP3    H123029   6.640   4.111   4.522
 7696TIP3    H223030   6.591   4.253   4.537
 7697TIP3   OH223031   5.511   6.899   6.797
 7697TIP3    H123032   5.487   6.992   6.797
 7697TIP3    H223033   5.494   6.870   6.708
 7698TIP3   OH223034   6.372   5.293   6.530
 7698TIP3    H123035   6.376   5.316   6.437
 7698TIP3    H223036   6.345   5.201   6.532
 7699TIP3   OH223037   4.133   1.239   6.571
 7699TIP3    H123038   4.160   1.147   6.575
 7699TIP3    H223039   4.205   1.287   6.614
 7700TIP3   OH223040   4.813   4.093   4.368
 7700TIP3    H123041   4.773   4.010   4.343
 7700TIP3    H223042   4.778   4.110   4.456
 7701TIP3   OH223043   3.837   5.561   5.515
 7701TIP3    H123044   3.841   5.590   5.424
 7701TIP3    H223045   3.891   5.624   5.563
 7702TIP3   OH223046   3.433   1.035   2.395
 7702TIP3    H123047   3.471   1.113   2.355
 7702TIP3    H223048   3.363   1.068   2.452
 7703TIP3   OH223049   7.143   3.734   1.470
 7703TIP3    H123050   7.061   3.688   1.454
 7703TIP3    H223051   7.142   3.807   1.408
 7704TIP3   OH223052   8.323   1.868   0.071
 7704TIP3    H123053   8.288   1.954   0.047
 7704TIP3    H223054   8.265   1.838   0.142
 7705TIP3   OH223055   4.880   6.862   3.425
 7705TIP3    H123056   4.897   6.955   3.438
 7705TIP3    H223057   4.901   6.822   3.509
 7706TIP3   OH223058   5.596   7.204   3.677
 7706TIP3    H123059   5.599   7.195   3.582
 7706TIP3    H223060   5.504   7.217   3.697
 7707TIP3   OH223061   4.207   5.858   0.571
 7707TIP3    H123062   4.197   5.921   0.499
 7707TIP3    H223063   4.297   5.869   0.601
 7708TIP3   OH223064   7.606   0.374   1.727
 7708TIP3    H123065   7.587   0.466   1.747
 7708TIP3    H223066   7.702   0.371   1.721
 7709TIP3   OH223067   5.633   3.311   5.527
 7709TIP3    H123068   5.720   3.308   5.486
 7709TIP3    H223069   5.651   3.304   5.621
 7710TIP3   OH223070   2.774   7.823   4.508
 7710TIP3    H123071   2.749   7.791   4.594
 7710TIP3    H223072   2.870   7.825   4.510
 7711TIP3   OH223073   7.785   4.965   5.272
 7711TIP3    H123074   7.812   5.018   5.198
 7711TIP3    H223075   7.837   4.885   5.265
 7712TIP3   OH223076   7.798   1.471   6.367
 7712TIP3    H123077   7.889   1.496   6.355
 7712TIP3    H223078   7.755   1.549   6.401
 7713TIP3   OH223079   7.108   0.364   2.717
 7713TIP3    H123080   7.056   0.441   2.692
 7713TIP3    H223081   7.195   0.382   2.682
 7714TIP3   OH223082   7.004   5.533   1.417
 7714TIP3    H123083   6.998   5.618   1.373
 7714TIP3    H223084   6.923   5.526   1.468
 7715TIP3   OH223085   3.413   7.183   3.600
 7715TIP3    H123086   3.434   7.126   3.674
 7715TIP3    H223087   3.328   7.152   3.569
 7716TIP3   OH223088   1.343   5.395   1.196
 7716TIP3    H123089   1.413   5.352   1.244
 7716TIP3    H223090   1.286   5.324   1.168
 7717TIP3   OH223091   6.687   6.038   5.660
 7717TIP3    H123092   6.703   6.128   5.687
 7717TIP3    H223093   6.764   5.989   5.692
 7718TIP3   OH223094   6.281   3.653   0.030
 7718TIP3    H123095   6.372   3.650  -0.001
 7718TIP3    H223096   6.289   3.669   0.124
 7719TIP3   OH223097   0.094   2.678   6.457
 7719TIP3    H123098   0.030   2.612   6.432
 7719TIP3    H223099   0.043   2.759   6.464
 7720TIP3   OH223100   2.439   1.431   2.027
 7720TIP3    H123101   2.512   1.457   2.083
 7720TIP3    H223102   2.424   1.339   2.049
 7721TIP3   OH223103   4.793   5.183   4.442
 7721TIP3    H123104   4.740   5.200   4.520
 7721TIP3    H223105   4.866   5.244   4.449
 7722TIP3   OH223106   6.040   3.983   4.019
 7722TIP3    H123107   6.032   4.034   4.099
 7722TIP3    H223108   5.959   4.002   3.971
 7723TIP3   OH223109   5.055   5.058   4.368
 7723TIP3    H123110   4.977   5.050   4.423
 7723TIP3    H223111   5.058   4.975   4.319
 7724TIP3   OH223112   5.067   7.703   3.239
 7724TIP3    H123113   5.097   7.790   3.215
 7724TIP3    H223114   5.132   7.672   3.303
 7725TIP3   OH223115   3.856   1.022   2.246
 7725TIP3    H123116   3.801   1.095   2.215
 7725TIP3    H223117   3.916   1.005   2.174
 7726TIP3   OH223118   6.031   0.612   0.229
 7726TIP3    H123119   6.062   0.612   0.320
 7726TIP3    H223120   5.968   0.684   0.226
 7727TIP3   OH223121   6.124   1.270   2.726
 7727TIP3    H123122   6.201   1.249   2.675
 7727TIP3    H223123   6.081   1.186   2.743
 7728TIP3   OH223124   6.862   5.997   5.222
 7728TIP3    H123125   6.919   5.952   5.159
 7728TIP3    H223126   6.921   6.027   5.291
 7729TIP3   OH223127   2.175   0.969   6.874
 7729TIP3    H123128   2.159   0.908   6.801
 7729TIP3    H223129   2.256   1.014   6.850
 7730TIP3   OH223130   6.401   1.999   6.266
 7730TIP3    H123131   6.358   1.913   6.270
 7730TIP3    H223132   6.331   2.060   6.245
 7731TIP3   OH223133   4.918   7.760   0.648
 7731TIP3    H123134   5.007   7.755   0.613
 7731TIP3    H223135   4.864   7.712   0.586
 7732TIP3   OH223136   2.565   5.374   1.465
 7732TIP3    H123137   2.629   5.331   1.408
 7732TIP3    H223138   2.616   5.436   1.516
 7733TIP3   OH223139   4.567   4.372   3.895
 7733TIP3    H123140   4.574   4.419   3.812
 7733TIP3    H223141   4.658   4.349   3.917
 7734TIP3   OH223142   5.975   3.889   2.204
 7734TIP3    H123143   5.984   3.863   2.295
 7734TIP3    H223144   5.906   3.955   2.204
 7735TIP3   OH223145   2.550   4.246   6.755
 7735TIP3    H123146   2.495   4.255   6.833
 7735TIP3    H223147   2.615   4.316   6.763
 7736TIP3   OH223148   1.728   2.999   2.003
 7736TIP3    H123149   1.726   3.035   1.915
 7736TIP3    H223150   1.820   3.005   2.029
 7737TIP3   OH223151   0.526   3.072   3.734
 7737TIP3    H123152   0.603   3.117   3.699
 7737TIP3    H223153   0.493   3.130   3.803
 7738TIP3   OH223154   2.462   6.347   6.579
 7738TIP3    H123155   2.395   6.317   6.641
 7738TIP3    H223156   2.474   6.274   6.519
 7739TIP3   OH223157   2.928   2.718   6.553
 7739TIP3    H123158   3.017   2.737   6.523
 7739TIP3    H223159   2.931   2.731   6.648
 7740TIP3   OH223160   4.728   2.325   1.974
 7740TIP3    H123161   4.669   2.385   1.928
 7740TIP3    H223162   4.736   2.361   2.062
 7741TIP3   OH223163   4.457   5.388   6.087
 7741TIP3    H123164   4.464   5.344   6.002
 7741TIP3    H223165   4.516   5.340   6.144
 7742TIP3   OH223166   2.600   5.589   0.624
 7742TIP3    H123167   2.613   5.612   0.532
 7742TIP3    H223168   2.680   5.619   0.668
 7743TIP3   OH223169   0.728   3.225   5.047
 7743TIP3    H123170   0.690   3.313   5.049
 7743TIP3    H223171   0.665   3.171   5.095
 7744TIP3   OH223172   1.550   7.309   3.206
 7744TIP3    H123173   1.546   7.214   3.198
 7744TIP3    H223174   1.567   7.340   3.117
 7745TIP3   OH223175   1.764   2.626   4.269
 7745TIP3    H123176   1.781   2.535   4.244
 7745TIP3    H223177   1.670   2.628   4.288
 7746TIP3   OH223178   1.905   0.167   5.302
 7746TIP3    H123179   1.935   0.098   5.244
 7746TIP3    H223180   1.985   0.200   5.343
 7747TIP3   OH223181   7.448   4.881   2.727
 7747TIP3    H123182   7.418   4.963   2.689
 7747TIP3    H223183   7.396   4.813   2.683
 7748TIP3   OH223184   2.892   1.829   3.659
 7748TIP3    H123185   2.944   1.853   3.583
 7748TIP3    H223186   2.828   1.766   3.625
 7749TIP3   OH223187   2.350   4.382   3.999
 7749TIP3    H123188   2.338   4.311   4.063
 7749TIP3    H223189   2.298   4.454   4.035
 7750TIP3   OH223190   4.228   2.383   3.735
 7750TIP3    H123191   4.215   2.433   3.816
 7750TIP3    H223192   4.188   2.298   3.753
 7751TIP3   OH223193   1.720   2.249   5.236
 7751TIP3    H123194   1.738   2.340   5.259
 7751TIP3    H223195   1.794   2.199   5.272
 7752TIP3   OH223196   7.713   4.526   2.918
 7752TIP3    H123197   7.714   4.567   2.831
 7752TIP3    H223198   7.621   4.531   2.945
 7753TIP3   OH223199   0.516   5.137   0.564
 7753TIP3    H123200   0.610   5.155   0.560
 7753TIP3    H223201   0.500   5.077   0.492
 7754TIP3   OH223202   8.192   3.705   6.218
 7754TIP3    H123203   8.197   3.615   6.185
 7754TIP3    H223204   8.117   3.743   6.171
 7755TIP3   OH223205   4.450   2.160   4.108
 7755TIP3    H123206   4.398   2.122   4.038
 7755TIP3    H223207   4.388   2.210   4.160
 7756TIP3   OH223208   5.978   3.902   2.746
 7756TIP3    H123209   5.967   3.992   2.714
 7756TIP3    H223210   5.932   3.900   2.830
 7757TIP3   OH223211   2.926   2.841   2.355
 7757TIP3    H123212   2.914   2.859   2.448
 7757TIP3    H223213   2.882   2.912   2.310
 7758TIP3   OH223214   8.338   0.331   4.666
 7758TIP3    H123215   8.298   0.374   4.591
 7758TIP3    H223216   8.311   0.239   4.659
 7759TIP3   OH223217   1.192   7.527   0.878
 7759TIP3    H123218   1.241   7.491   0.804
 7759TIP3    H223219   1.105   7.546   0.842
 7760TIP3   OH223220   4.621   5.729   6.139
 7760TIP3    H123221   4.705   5.773   6.152
 7760TIP3    H223222   4.644   5.646   6.097
 7761TIP3   OH223223   6.074   3.332   0.087
 7761TIP3    H123224   6.160   3.296   0.108
 7761TIP3    H223225   6.079   3.358  -0.005
 7762TIP3   OH223226   8.081   1.533   0.435
 7762TIP3    H123227   8.147   1.478   0.394
 7762TIP3    H223228   8.032   1.474   0.492
 7763TIP3   OH223229   6.709   6.177   0.790
 7763TIP3    H123230   6.614   6.182   0.775
 7763TIP3    H223231   6.735   6.268   0.807
 7764TIP3   OH223232   2.938   7.570   2.844
 7764TIP3    H123233   2.980   7.490   2.875
 7764TIP3    H223234   2.854   7.540   2.809
 7765TIP3   OH223235   3.244   5.095   0.670
 7765TIP3    H123236   3.204   5.015   0.707
 7765TIP3    H223237   3.265   5.071   0.580
 7766TIP3   OH223238   0.289   3.071   0.780
 7766TIP3    H123239   0.277   3.002   0.846
 7766TIP3    H223240   0.366   3.043   0.731
 7767TIP3   OH223241   1.918   7.040   1.422
 7767TIP3    H123242   1.977   6.978   1.465
 7767TIP3    H223243   1.934   7.028   1.328
 7768TIP3   OH223244   6.246   1.903   0.899
 7768TIP3    H123245   6.289   1.978   0.857
 7768TIP3    H223246   6.314   1.865   0.955
 7769TIP3   OH223247   6.307   0.386   6.467
 7769TIP3    H123248   6.377   0.349   6.521
 7769TIP3    H223249   6.307   0.479   6.489
 7770TIP3   OH223250   0.668   7.088   0.534
 7770TIP3    H123251   0.735   7.152   0.558
 7770TIP3    H223252   0.648   7.107   0.442
 7771TIP3   OH223253   1.857   3.558   4.471
 7771TIP3    H123254   1.800   3.580   4.544
 7771TIP3    H223255   1.813   3.484   4.428
 7772TIP3   OH223256   1.260   3.414   1.988
 7772TIP3    H123257   1.269   3.382   1.898
 7772TIP3    H223258   1.179   3.465   1.987
 7773TIP3   OH223259   5.410   6.422   1.628
 7773TIP3    H123260   5.321   6.392   1.644
 7773TIP3    H223261   5.434   6.381   1.545
 7774TIP3   OH223262   6.342   0.304   4.869
 7774TIP3    H123263   6.261   0.355   4.870
 7774TIP3    H223264   6.351   0.276   4.778
 7775TIP3   OH223265   7.914   0.915   6.162
 7775TIP3    H123266   7.921   0.956   6.075
 7775TIP3    H223267   7.820   0.916   6.181
 7776TIP3   OH223268   5.925   1.150   4.232
 7776TIP3    H123269   5.862   1.204   4.186
 7776TIP3    H223270   5.913   1.173   4.325
 7777TIP3   OH223271   5.048   6.094   2.867
 7777TIP3    H123272   4.955   6.074   2.861
 7777TIP3    H223273   5.053   6.171   2.924
 7778TIP3   OH223274   6.359   0.502   6.758
 7778TIP3    H123275   6.429   0.524   6.819
 7778TIP3    H223276   6.289   0.563   6.778
 7779TIP3   OH223277   2.432   3.147   3.614
 7779TIP3    H123278   2.405   3.056   3.605
 7779TIP3    H223279   2.528   3.143   3.619
 7780TIP3   OH223280   6.923   1.466   1.420
 7780TIP3    H123281   7.002   1.412   1.414
 7780TIP3    H223282   6.854   1.404   1.443
 7781TIP3   OH223283   7.497   7.878   1.464
 7781TIP3    H123284   7.443   7.897   1.387
 7781TIP3    H223285   7.472   7.789   1.490
 7782TIP3   OH223286   1.452   6.346   3.730
 7782TIP3    H123287   1.451   6.356   3.825
 7782TIP3    H223288   1.379   6.287   3.711
 7783TIP3   OH223289   6.435   5.092   1.865
 7783TIP3    H123290   6.516   5.140   1.885
 7783TIP3    H223291   6.370   5.160   1.847
 7784TIP3   OH223292   2.851   4.744   1.092
 7784TIP3    H123293   2.794   4.787   1.029
 7784TIP3    H223294   2.913   4.695   1.038
 7785TIP3   OH223295   8.141   2.801   2.594
 7785TIP3    H123296   8.200   2.872   2.616
 7785TIP3    H223297   8.063   2.844   2.558
 7786TIP3   OH223298   4.916   0.870   1.551
 7786TIP3    H123299   4.924   0.951   1.603
 7786TIP3    H223300   4.891   0.804   1.615
 7787TIP3   OH223301   1.486   5.478   3.422
 7787TIP3    H123302   1.515   5.442   3.338
 7787TIP3    H223303   1.392   5.461   3.424
 7788TIP3   OH223304   4.074   3.370   1.546
 7788TIP3    H123305   4.000   3.384   1.487
 7788TIP3    H223306   4.034   3.341   1.628
 7789TIP3   OH223307   2.602   3.879   6.130
 7789TIP3    H123308   2.677   3.938   6.137
 7789TIP3    H223309   2.526   3.935   6.145
 7790TIP3   OH223310   7.541   3.404   1.065
 7790TIP3    H123311   7.496   3.451   0.995
 7790TIP3    H223312   7.579   3.472   1.120
 7791TIP3   OH223313   0.335   5.641   6.029
 7791TIP3    H123314   0.276   5.710   6.058
 7791TIP3    H223315   0.409   5.687   5.990
 7792TIP3   OH223316   7.827   7.819   4.521
 7792TIP3    H123317   7.759   7.796   4.583
 7792TIP3    H223318   7.873   7.893   4.561
 7793TIP3   OH223319   3.919   1.407   3.736
 7793TIP3    H123320   4.002   1.391   3.781
 7793TIP3    H223321   3.871   1.465   3.794
 7794TIP3   OH223322   2.946   4.774   4.973
 7794TIP3    H123323   2.929   4.722   4.894
 7794TIP3    H223324   2.963   4.708   5.040
 7795TIP3   OH223325   2.944   5.743   1.696
 7795TIP3    H123326   2.979   5.665   1.652
 7795TIP3    H223327   2.961   5.815   1.635
 7796TIP3   OH223328   6.715   4.304   6.069
 7796TIP3    H123329   6.667   4.222   6.084
 7796TIP3    H223330   6.650   4.363   6.030
 7797TIP3   OH223331   7.508   2.651   5.831
 7797TIP3    H123332   7.593   2.609   5.817
 7797TIP3    H223333   7.461   2.591   5.888
 7798TIP3   OH223334   4.402   1.979   0.333
 7798TIP3    H123335   4.479   1.979   0.276
 7798TIP3    H223336   4.400   1.891   0.371
 7799TIP3   OH223337   4.559   5.362   0.678
 7799TIP3    H123338   4.632   5.373   0.618
 7799TIP3    H223339   4.524   5.451   0.690
 7800TIP3   OH223340   1.903   4.064   1.076
 7800TIP3    H123341   1.904   4.159   1.065
 7800TIP3    H223342   1.901   4.051   1.171
 7801TIP3   OH223343   6.413   4.440   5.999
 7801TIP3    H123344   6.349   4.492   6.048
 7801TIP3    H223345   6.389   4.454   5.907
 7802TIP3   OH223346   1.828   3.820   4.342
 7802TIP3    H123347   1.781   3.856   4.267
 7802TIP3    H223348   1.784   3.857   4.419
 7803TIP3   OH223349   7.151   1.667   2.306
 7803TIP3    H123350   7.129   1.576   2.328
 7803TIP3    H223351   7.067   1.713   2.309
 7804TIP3   OH223352   0.359   5.031   6.161
 7804TIP3    H123353   0.341   5.114   6.115
 7804TIP3    H223354   0.385   5.058   6.249
 7805TIP3   OH223355   6.125   2.400   3.963
 7805TIP3    H123356   6.059   2.415   3.895
 7805TIP3    H223357   6.075   2.364   4.037
 7806TIP3   OH223358   5.519   2.606   0.844
 7806TIP3    H123359   5.435   2.573   0.812
 7806TIP3    H223360   5.567   2.528   0.872
 7807TIP3   OH223361   7.244   4.672   4.906
 7807TIP3    H123362   7.243   4.729   4.983
 7807TIP3    H223363   7.311   4.607   4.925
 7808TIP3   OH223364   3.450   4.824   2.664
 7808TIP3    H123365   3.514   4.871   2.719
 7808TIP3    H223366   3.389   4.892   2.636
 7809TIP3   OH223367   7.620   6.258   1.914
 7809TIP3    H123368   7.528   6.231   1.923
 7809TIP3    H223369   7.622   6.311   1.835
 7810TIP3   OH223370   4.285   2.507   3.969
 7810TIP3    H123371   4.250   2.540   4.052
 7810TIP3    H223372   4.379   2.496   3.985
 7811TIP3   OH223373   1.195   7.071   1.884
 7811TIP3    H123374   1.193   7.156   1.841
 7811TIP3    H223375   1.260   7.021   1.834
 7812TIP3   OH223376   1.034   2.942   3.814
 7812TIP3    H123377   1.124   2.974   3.817
 7812TIP3    H223378   1.015   2.935   3.720
 7813TIP3   OH223379   3.927   5.949   5.435
 7813TIP3    H123380   4.009   5.970   5.392
 7813TIP3    H223381   3.948   5.878   5.495
 7814TIP3   OH223382   5.556   0.656   3.750
 7814TIP3    H123383   5.649   0.659   3.772
 7814TIP3    H223384   5.523   0.578   3.796
 7815TIP3   OH223385   8.188   6.812   3.943
 7815TIP3    H123386   8.192   6.887   4.003
 7815TIP3    H223387   8.095   6.790   3.938
 7816TIP3   OH223388   8.348   7.896   3.201
 7816TIP3    H123389   8.266   7.867   3.160
 7816TIP3    H223390   8.353   7.846   3.283
 7817TIP3   OH223391   3.245   1.792   6.113
 7817TIP3    H123392   3.336   1.763   6.128
 7817TIP3    H223393   3.237   1.873   6.164
 7818TIP3   OH223394   7.508   0.799   6.463
 7818TIP3    H123395   7.499   0.714   6.419
 7818TIP3    H223396   7.537   0.777   6.552
 7819TIP3   OH223397   6.544   7.708   0.828
 7819TIP3    H123398   6.623   7.747   0.793
 7819TIP3    H223399   6.536   7.745   0.916
 7820TIP3   OH223400   6.185   4.707   3.971
 7820TIP3    H123401   6.219   4.795   3.987
 7820TIP3    H223402   6.257   4.648   3.992
 7821TIP3   OH223403   5.503   0.534   1.011
 7821TIP3    H123404   5.573   0.475   1.042
 7821TIP3    H223405   5.428   0.513   1.067
 7822TIP3   OH223406   5.987   2.615   2.059
 7822TIP3    H123407   5.902   2.616   2.104
 7822TIP3    H223408   5.966   2.638   1.968
 7823TIP3   OH223409   1.656   2.930   5.669
 7823TIP3    H123410   1.733   2.931   5.726
 7823TIP3    H223411   1.589   2.886   5.721
 7824TIP3   OH223412   0.675   1.291   2.564
 7824TIP3    H123413   0.658   1.376   2.522
 7824TIP3    H223414   0.703   1.313   2.653
 7825TIP3   OH223415   3.464   2.114   0.688
 7825TIP3    H123416   3.397   2.102   0.622
 7825TIP3    H223417   3.417   2.107   0.771
 7826TIP3   OH223418   8.358   5.140   6.219
 7826TIP3    H123419   8.370   5.046   6.234
 7826TIP3    H223420   8.406   5.158   6.138
 7827TIP3   OH223421   3.581   5.962   0.562
 7827TIP3    H123422   3.568   5.881   0.512
 7827TIP3    H223423   3.505   5.967   0.619
 7828TIP3   OH223424   2.515   6.343   2.896
 7828TIP3    H123425   2.420   6.341   2.911
 7828TIP3    H223426   2.525   6.308   2.808
 7829TIP3   OH223427   5.440   3.643   1.100
 7829TIP3    H123428   5.465   3.553   1.121
 7829TIP3    H223429   5.521   3.683   1.067
 7830TIP3   OH223430   2.642   6.473   0.264
 7830TIP3    H123431   2.719   6.502   0.216
 7830TIP3    H223432   2.570   6.484   0.202
 7831TIP3   OH223433   7.597   1.245   1.370
 7831TIP3    H123434   7.614   1.187   1.296
 7831TIP3    H223435   7.644   1.326   1.348
 7832TIP3   OH223436   3.573   6.915   1.193
 7832TIP3    H123437   3.572   7.009   1.208
 7832TIP3    H223438   3.486   6.886   1.218
 7833TIP3   OH223439   2.538   7.663   2.730
 7833TIP3    H123440   2.507   7.583   2.772
 7833TIP3    H223441   2.539   7.642   2.637
 7834TIP3   OH223442   1.461   1.981   5.908
 7834TIP3    H123443   1.409   1.949   5.982
 7834TIP3    H223444   1.534   1.920   5.902
 7835TIP3   OH223445   2.599   0.799   2.288
 7835TIP3    H123446   2.601   0.793   2.192
 7835TIP3    H223447   2.518   0.755   2.313
 7836TIP3   OH223448   2.820   6.953   1.502
 7836TIP3    H123449   2.795   6.965   1.593
 7836TIP3    H223450   2.747   6.906   1.463
 7837TIP3   OH223451   1.954   6.666   4.385
 7837TIP3    H123452   1.860   6.665   4.403
 7837TIP3    H223453   1.989   6.737   4.440
 7838TIP3   OH223454   5.992   5.743   0.450
 7838TIP3    H123455   6.020   5.754   0.359
 7838TIP3    H223456   5.983   5.832   0.484
 7839TIP3   OH223457   3.636   7.717   4.976
 7839TIP3    H123458   3.620   7.809   4.998
 7839TIP3    H223459   3.577   7.668   5.033
 7840TIP3   OH223460   1.866   6.776   6.225
 7840TIP3    H123461   1.875   6.769   6.130
 7840TIP3    H223462   1.948   6.814   6.255
 7841TIP3   OH223463   8.373   1.471   1.621
 7841TIP3    H123464   8.407   1.477   1.710
 7841TIP3    H223465   8.375   1.378   1.600
 7842TIP3   OH223466   1.599   6.349   2.632
 7842TIP3    H123467   1.524   6.379   2.582
 7842TIP3    H223468   1.636   6.278   2.580
 7843TIP3   OH223469   2.326   2.807   5.660
 7843TIP3    H123470   2.256   2.749   5.628
 7843TIP3    H223471   2.312   2.889   5.612
 7844TIP3   OH223472   2.215   5.476   4.349
 7844TIP3    H123473   2.201   5.393   4.303
 7844TIP3    H223474   2.139   5.485   4.407
 7845TIP3   OH223475   8.155   2.195   1.318
 7845TIP3    H123476   8.145   2.194   1.413
 7845TIP3    H223477   8.070   2.165   1.285
 7846TIP3   OH223478   4.135   4.730   2.735
 7846TIP3    H123479   4.101   4.664   2.674
 7846TIP3    H223480   4.208   4.771   2.688
 7847TIP3   OH223481   0.201   5.011   4.215
 7847TIP3    H123482   0.183   5.100   4.186
 7847TIP3    H223483   0.244   4.969   4.140
 7848TIP3   OH223484   5.642   1.990   4.899
 7848TIP3    H123485   5.666   2.067   4.950
 7848TIP3    H223486   5.571   2.020   4.842
 7849TIP3   OH223487   0.256   1.806   1.995
 7849TIP3    H123488   0.202   1.795   1.916
 7849TIP3    H223489   0.262   1.900   2.007
 7850TIP3   OH223490   1.573   1.441   6.781
 7850TIP3    H123491   1.521   1.375   6.736
 7850TIP3    H223492   1.514   1.515   6.792
 7851TIP3   OH223493   3.830   6.803   6.477
 7851TIP3    H123494   3.782   6.786   6.396
 7851TIP3    H223495   3.898   6.735   6.479
 7852TIP3   OH223496   0.753   0.762   4.514
 7852TIP3    H123497   0.821   0.703   4.483
 7852TIP3    H223498   0.786   0.797   4.597
 7853TIP3   OH223499   4.964   6.111   4.754
 7853TIP3    H123500   5.055   6.099   4.781
 7853TIP3    H223501   4.921   6.029   4.778
 7854TIP3   OH223502   2.400   7.314   1.260
 7854TIP3    H123503   2.492   7.330   1.278
 7854TIP3    H223504   2.357   7.320   1.345
 7855TIP3   OH223505   5.408   5.868   2.540
 7855TIP3    H123506   5.325   5.821   2.548
 7855TIP3    H223507   5.446   5.836   2.457
 7856TIP3   OH223508   0.991   6.310   5.156
 7856TIP3    H123509   1.061   6.275   5.102
 7856TIP3    H223510   0.923   6.243   5.154
 7857TIP3   OH223511   1.239   4.534   3.092
 7857TIP3    H123512   1.271   4.494   3.173
 7857TIP3    H223513   1.145   4.514   3.091
 7858TIP3   OH223514   4.061   4.708   5.690
 7858TIP3    H123515   4.002   4.633   5.696
 7858TIP3    H223516   4.118   4.688   5.615
 7859TIP3   OH223517   0.322   7.621   2.011
 7859TIP3    H123518   0.367   7.596   2.092
 7859TIP3    H223519   0.230   7.631   2.037
 7860TIP3   OH223520   7.388   3.701   0.369
 7860TIP3    H123521   7.390   3.705   0.273
 7860TIP3    H223522   7.374   3.609   0.390
 7861TIP3   OH223523   2.300   6.451   3.034
 7861TIP3    H123524   2.212   6.416   3.050
 7861TIP3    H223525   2.285   6.531   2.983
 7862TIP3   OH223526   6.421   1.163   5.226
 7862TIP3    H123527   6.400   1.191   5.315
 7862TIP3    H223528   6.508   1.124   5.233
 7863TIP3   OH223529   3.562   3.995   3.682
 7863TIP3    H123530   3.544   4.035   3.767
 7863TIP3    H223531   3.572   3.902   3.702
 7864TIP3   OH223532   4.151   0.354   6.843
 7864TIP3    H123533   4.237   0.378   6.877
 7864TIP3    H223534   4.159   0.261   6.821
 7865TIP3   OH223535   3.108   5.528   3.489
 7865TIP3    H123536   3.101   5.557   3.398
 7865TIP3    H223537   3.176   5.583   3.526
 7866TIP3   OH223538   2.555   0.427   2.194
 7866TIP3    H123539   2.621   0.457   2.131
 7866TIP3    H223540   2.472   0.436   2.146
 7867TIP3   OH223541   6.616   5.072   5.701
 7867TIP3    H123542   6.645   4.984   5.676
 7867TIP3    H223543   6.698   5.120   5.718
 7868TIP3   OH223544   0.961   1.811   6.435
 7868TIP3    H123545   0.990   1.902   6.437
 7868TIP3    H223546   0.866   1.816   6.447
 7869TIP3   OH223547   1.191   3.624   4.646
 7869TIP3    H123548   1.200   3.530   4.636
 7869TIP3    H223549   1.109   3.645   4.601
 7870TIP3   OH223550   3.626   7.584   2.009
 7870TIP3    H123551   3.712   7.543   1.997
 7870TIP3    H223552   3.610   7.630   1.927
 7871TIP3   OH223553   5.970   7.240   5.507
 7871TIP3    H123554   6.058   7.222   5.474
 7871TIP3    H223555   5.984   7.285   5.590
 7872TIP3   OH223556   5.303   4.834   0.235
 7872TIP3    H123557   5.216   4.836   0.273
 7872TIP3    H223558   5.359   4.875   0.301
 7873TIP3   OH223559   5.873   5.797   2.335
 7873TIP3    H123560   5.859   5.797   2.429
 7873TIP3    H223561   5.959   5.757   2.323
 7874TIP3   OH223562   4.435   0.487   3.013
 7874TIP3    H123563   4.456   0.580   3.019
 7874TIP3    H223564   4.519   0.443   3.004
 7875TIP3   OH223565   0.755   1.379   6.700
 7875TIP3    H123566   0.794   1.456   6.659
 7875TIP3    H223567   0.769   1.391   6.793
 7876TIP3   OH223568   3.374   3.412   5.806
 7876TIP3    H123569   3.415   3.475   5.864
 7876TIP3    H223570   3.306   3.461   5.761
 7877TIP3   OH223571   5.784   6.361   3.567
 7877TIP3    H123572   5.721   6.367   3.640
 7877TIP3    H223573   5.834   6.281   3.586
 7878TIP3   OH223574   0.776   7.291   3.658
 7878TIP3    H123575   0.849   7.352   3.671
 7878TIP3    H223576   0.816   7.205   3.659
 7879TIP3   OH223577   4.838   5.871   6.218
 7879TIP3    H123578   4.873   5.900   6.302
 7879TIP3    H223579   4.875   5.933   6.154
 7880TIP3   OH223580   6.249   5.486   4.356
 7880TIP3    H123581   6.258   5.450   4.268
 7880TIP3    H223582   6.154   5.498   4.367
 7881TIP3   OH223583   0.844   4.343   0.498
 7881TIP3    H123584   0.901   4.373   0.570
 7881TIP3    H223585   0.762   4.389   0.512
 7882TIP3   OH223586   6.773   0.180   5.532
 7882TIP3    H123587   6.726   0.194   5.614
 7882TIP3    H223588   6.789   0.268   5.498
 7883TIP3   OH223589   2.919   5.921   2.139
 7883TIP3    H123590   2.877   5.921   2.053
 7883TIP3    H223591   2.993   5.982   2.129
 7884TIP3   OH223592   4.054   3.880   5.125
 7884TIP3    H123593   4.142   3.873   5.164
 7884TIP3    H223594   4.058   3.960   5.072
 7885TIP3   OH223595   5.519   7.927   2.663
 7885TIP3    H123596   5.513   7.859   2.731
 7885TIP3    H223597   5.443   7.983   2.678
 7886TIP3   OH223598   6.117   7.382   6.208
 7886TIP3    H123599   6.191   7.439   6.227
 7886TIP3    H223600   6.041   7.440   6.209
 7887TIP3   OH223601   7.118   4.268   2.666
 7887TIP3    H123602   7.124   4.312   2.750
 7887TIP3    H223603   7.025   4.248   2.656
 7888TIP3   OH223604   4.944   6.760   1.076
 7888TIP3    H123605   4.973   6.786   1.163
 7888TIP3    H223606   4.952   6.839   1.023
 7889TIP3   OH223607   1.959   0.335   3.185
 7889TIP3    H123608   2.000   0.344   3.099
 7889TIP3    H223609   2.032   0.339   3.247
 7890TIP3   OH223610   7.185   5.287   4.190
 7890TIP3    H123611   7.190   5.314   4.281
 7890TIP3    H223612   7.248   5.216   4.182
 7891TIP3   OH223613   1.335   1.598   2.521
 7891TIP3    H123614   1.241   1.597   2.539
 7891TIP3    H223615   1.343   1.559   2.434
 7892TIP3   OH223616   3.212   6.501   5.156
 7892TIP3    H123617   3.210   6.405   5.163
 7892TIP3    H223618   3.143   6.530   5.216
 7893TIP3   OH223619   0.086   0.819   5.754
 7893TIP3    H123620   0.048   0.731   5.756
 7893TIP3    H223621   0.151   0.816   5.684
 7894TIP3   OH223622   6.100   7.385   1.386
 7894TIP3    H123623   6.006   7.383   1.406
 7894TIP3    H223624   6.107   7.344   1.300
 7895TIP3   OH223625   8.336   6.762   2.645
 7895TIP3    H123626   8.264   6.785   2.586
 7895TIP3    H223627   8.400   6.720   2.588
 7896TIP3   OH223628   7.014   5.007   4.975
 7896TIP3    H123629   6.967   4.966   4.903
 7896TIP3    H223630   6.946   5.035   5.036
 7897TIP3   OH223631   1.100   6.599   4.929
 7897TIP3    H123632   1.107   6.519   4.876
 7897TIP3    H223633   1.046   6.658   4.876
 7898TIP3   OH223634   7.303   4.819   1.067
 7898TIP3    H123635   7.339   4.898   1.109
 7898TIP3    H223636   7.353   4.747   1.105
 7899TIP3   OH223637   4.287   3.150   4.665
 7899TIP3    H123638   4.255   3.111   4.584
 7899TIP3    H223639   4.212   3.149   4.724
 7900TIP3   OH223640   0.386   6.168   0.795
 7900TIP3    H123641   0.329   6.231   0.750
 7900TIP3    H223642   0.387   6.091   0.738
 7901TIP3   OH223643   4.315   7.402   2.550
 7901TIP3    H123644   4.399   7.424   2.591
 7901TIP3    H223645   4.283   7.327   2.600
 7902TIP3   OH223646   1.441   0.726   0.046
 7902TIP3    H123647   1.514   0.780   0.076
 7902TIP3    H223648   1.468   0.636   0.062
 7903TIP3   OH223649   5.437   7.330   5.358
 7903TIP3    H123650   5.525   7.320   5.396
 7903TIP3    H223651   5.386   7.372   5.427
 7904TIP3   OH223652   5.648   5.266   5.486
 7904TIP3    H123653   5.582   5.298   5.547
 7904TIP3    H223654   5.732   5.285   5.528
 7905TIP3   OH223655   2.307   1.559   2.584
 7905TIP3    H123656   2.288   1.637   2.636
 7905TIP3    H223657   2.274   1.486   2.636
 7906TIP3   OH223658   1.908   2.068   3.339
 7906TIP3    H123659   1.829   2.044   3.389
 7906TIP3    H223660   1.910   2.007   3.266
 7907TIP3   OH223661   2.488   5.862   3.507
 7907TIP3    H123662   2.506   5.792   3.445
 7907TIP3    H223663   2.417   5.828   3.562
 7908TIP3   OH223664   4.815   0.685   0.849
 7908TIP3    H123665   4.873   0.749   0.888
 7908TIP3    H223666   4.873   0.623   0.805
 7909TIP3   OH223667   6.021   0.168   1.813
 7909TIP3    H123668   6.025   0.172   1.908
 7909TIP3    H223669   5.994   0.257   1.787
 7910TIP3   OH223670   5.025   1.588   5.912
 7910TIP3    H123671   5.010   1.589   5.817
 7910TIP3    H223672   5.004   1.677   5.940
 7911TIP3   OH223673   2.367   7.155   1.832
 7911TIP3    H123674   2.297   7.208   1.870
 7911TIP3    H223675   2.435   7.219   1.808
 7912TIP3   OH223676   4.927   6.113   5.174
 7912TIP3    H123677   4.930   6.070   5.259
 7912TIP3    H223678   4.842   6.158   5.172
 7913TIP3   OH223679   4.794   5.262   2.948
 7913TIP3    H123680   4.818   5.293   3.035
 7913TIP3    H223681   4.720   5.203   2.963
 7914TIP3   OH223682   6.151   5.565   1.459
 7914TIP3    H123683   6.165   5.643   1.404
 7914TIP3    H223684   6.067   5.530   1.429
 7915TIP3   OH223685   0.379   2.465   4.204
 7915TIP3    H123686   0.471   2.453   4.227
 7915TIP3    H223687   0.331   2.457   4.287
 7916TIP3   OH223688   5.817   7.564   0.046
 7916TIP3    H123689   5.844   7.581   0.136
 7916TIP3    H223690   5.754   7.492   0.053
 7917TIP3   OH223691   7.333   0.265   0.044
 7917TIP3    H123692   7.363   0.203  -0.022
 7917TIP3    H223693   7.375   0.236   0.125
 7918TIP3   OH223694   1.918   2.763   0.699
 7918TIP3    H123695   1.943   2.764   0.792
 7918TIP3    H223696   1.936   2.851   0.668
 7919TIP3   OH223697   2.181   7.385   6.656
 7919TIP3    H123698   2.248   7.444   6.688
 7919TIP3    H223699   2.120   7.441   6.608
 7920TIP3   OH223700   2.522   7.661   4.118
 7920TIP3    H123701   2.465   7.737   4.125
 7920TIP3    H223702   2.463   7.586   4.128
 7921TIP3   OH223703   7.012   5.331   5.174
 7921TIP3    H123704   6.951   5.293   5.110
 7921TIP3    H223705   7.080   5.265   5.184
 7922TIP3   OH223706   3.790   7.800   5.792
 7922TIP3    H123707   3.752   7.875   5.839
 7922TIP3    H223708   3.722   7.773   5.731
 7923TIP3   OH223709   6.993   1.448   5.001
 7923TIP3    H123710   6.955   1.471   4.916
 7923TIP3    H223711   6.948   1.505   5.063
 7924TIP3   OH223712   1.560   3.009   6.033
 7924TIP3    H123713   1.635   2.951   6.043
 7924TIP3    H223714   1.533   3.029   6.123
 7925TIP3   OH223715   0.177   4.963   3.482
 7925TIP3    H123716   0.155   5.052   3.452
 7925TIP3    H223717   0.202   4.916   3.402
 7926TIP3   OH223718   5.521   6.018   4.830
 7926TIP3    H123719   5.539   6.009   4.923
 7926TIP3    H223720   5.545   5.933   4.793
 7927TIP3   OH223721   3.563   6.113   5.305
 7927TIP3    H123722   3.604   6.051   5.245
 7927TIP3    H223723   3.511   6.058   5.364
 7928TIP3   OH223724   5.542   6.851   3.716
 7928TIP3    H123725   5.511   6.925   3.664
 7928TIP3    H223726   5.563   6.783   3.653
 7929TIP3   OH223727   1.644   3.839   4.617
 7929TIP3    H123728   1.623   3.749   4.591
 7929TIP3    H223729   1.591   3.855   4.695
 7930TIP3   OH223730   7.951   7.720   1.001
 7930TIP3    H123731   7.960   7.718   0.905
 7930TIP3    H223732   7.860   7.743   1.016
 7931TIP3   OH223733   4.961   0.676   2.701
 7931TIP3    H123734   4.870   0.691   2.727
 7931TIP3    H223735   5.010   0.749   2.740
 7932TIP3   OH223736   5.797   2.690   2.258
 7932TIP3    H123737   5.721   2.637   2.284
 7932TIP3    H223738   5.860   2.678   2.329
 7933TIP3   OH223739   4.128   4.309   1.973
 7933TIP3    H123740   4.204   4.343   2.020
 7933TIP3    H223741   4.165   4.248   1.909
 7934TIP3   OH223742   2.860   2.802   3.696
 7934TIP3    H123743   2.874   2.725   3.641
 7934TIP3    H223744   2.934   2.801   3.757
 7935TIP3   OH223745   0.642   3.400   1.665
 7935TIP3    H123746   0.570   3.343   1.694
 7935TIP3    H223747   0.698   3.409   1.742
 7936TIP3   OH223748   6.556   3.629  -0.011
 7936TIP3    H123749   6.608   3.686   0.046
 7936TIP3    H223750   6.538   3.552   0.043
 7937TIP3   OH223751   8.324   7.853   1.809
 7937TIP3    H123752   8.326   7.937   1.763
 7937TIP3    H223753   8.257   7.802   1.762
 7938TIP3   OH223754   5.114   3.266   3.708
 7938TIP3    H123755   5.085   3.281   3.797
 7938TIP3    H223756   5.036   3.233   3.662
 7939TIP3   OH223757   4.793   2.918   1.445
 7939TIP3    H123758   4.722   2.960   1.397
 7939TIP3    H223759   4.871   2.934   1.392
 7940TIP3   OH223760   1.732   0.745   1.490
 7940TIP3    H123761   1.826   0.752   1.473
 7940TIP3    H223762   1.711   0.654   1.473
 7941TIP3   OH223763   1.354   2.412   4.909
 7941TIP3    H123764   1.277   2.450   4.867
 7941TIP3    H223765   1.424   2.476   4.894
 7942TIP3   OH223766   3.167   4.771   0.527
 7942TIP3    H123767   3.092   4.720   0.499
 7942TIP3    H223768   3.135   4.822   0.602
 7943TIP3   OH223769   5.410   1.421   1.920
 7943TIP3    H123770   5.332   1.383   1.961
 7943TIP3    H223771   5.484   1.382   1.966
 7944TIP3   OH223772   7.189   7.763   2.417
 7944TIP3    H123773   7.135   7.704   2.469
 7944TIP3    H223774   7.270   7.773   2.467
 7945TIP3   OH223775   5.021   6.314   3.045
 7945TIP3    H123776   4.951   6.273   3.096
 7945TIP3    H223777   5.093   6.325   3.107
 7946TIP3   OH223778   7.360   2.460   2.578
 7946TIP3    H123779   7.347   2.455   2.672
 7946TIP3    H223780   7.411   2.540   2.565
 7947TIP3   OH223781   7.249   1.911   2.774
 7947TIP3    H123782   7.183   1.941   2.837
 7947TIP3    H223783   7.322   1.972   2.785
 7948TIP3   OH223784   3.747   6.687   2.584
 7948TIP3    H123785   3.770   6.780   2.577
 7948TIP3    H223786   3.828   6.644   2.612
 7949TIP3   OH223787   3.900   1.648   1.935
 7949TIP3    H123788   3.986   1.644   1.977
 7949TIP3    H223789   3.871   1.738   1.950
 7950TIP3   OH223790   4.800   4.519   1.047
 7950TIP3    H123791   4.856   4.576   0.994
 7950TIP3    H223792   4.713   4.529   1.010
 7951TIP3   OH223793   1.933   2.041   0.477
 7951TIP3    H123794   1.943   2.132   0.504
 7951TIP3    H223795   1.846   2.016   0.508
 7952TIP3   OH223796   4.327   3.562   2.912
 7952TIP3    H123797   4.355   3.542   3.001
 7952TIP3    H223798   4.404   3.600   2.870
 7953TIP3   OH223799   0.279   1.170   4.593
 7953TIP3    H123800   0.300   1.124   4.512
 7953TIP3    H223801   0.337   1.132   4.659
 7954TIP3   OH223802   4.137   4.582   1.847
 7954TIP3    H123803   4.143   4.490   1.872
 7954TIP3    H223804   4.183   4.628   1.917
 7955TIP3   OH223805   7.854   5.533   4.331
 7955TIP3    H123806   7.843   5.478   4.253
 7955TIP3    H223807   7.765   5.561   4.353
 7956TIP3   OH223808   0.054   6.300  -0.059
 7956TIP3    H123809  -0.035   6.263  -0.053
 7956TIP3    H223810   0.047   6.387  -0.020
 7957TIP3   OH223811   1.429   6.049   6.309
 7957TIP3    H123812   1.360   5.996   6.350
 7957TIP3    H223813   1.384   6.125   6.273
 7958TIP3   OH223814   0.421   1.674   2.172
 7958TIP3    H123815   0.357   1.717   2.115
 7958TIP3    H223816   0.368   1.626   2.236
 7959TIP3   OH223817   5.869   1.968   1.640
 7959TIP3    H123818   5.819   2.049   1.651
 7959TIP3    H223819   5.814   1.901   1.683
 7960TIP3   OH223820   3.314   5.741   3.928
 7960TIP3    H123821   3.250   5.731   3.998
 7960TIP3    H223822   3.288   5.821   3.883
 7961TIP3   OH223823   0.394   4.335   0.228
 7961TIP3    H123824   0.387   4.333   0.324
 7961TIP3    H223825   0.332   4.268   0.199
 7962TIP3   OH223826   2.314   6.939   3.125
 7962TIP3    H123827   2.231   6.970   3.088
 7962TIP3    H223828   2.311   6.844   3.114
 7963TIP3   OH223829   4.416   4.231   2.449
 7963TIP3    H123830   4.473   4.163   2.486
 7963TIP3    H223831   4.348   4.243   2.515
 7964TIP3   OH223832   7.946   2.422   5.989
 7964TIP3    H123833   8.029   2.384   5.960
 7964TIP3    H223834   7.911   2.359   6.051
 7965TIP3   OH223835   7.046   2.762   6.248
 7965TIP3    H123836   7.013   2.785   6.334
 7965TIP3    H223837   7.064   2.668   6.253
 7966TIP3   OH223838   7.342   1.814   2.526
 7966TIP3    H123839   7.417   1.850   2.574
 7966TIP3    H223840   7.278   1.886   2.525
 7967TIP3   OH223841   4.285   7.752   5.210
 7967TIP3    H123842   4.233   7.716   5.137
 7967TIP3    H223843   4.233   7.826   5.242
 7968TIP3   OH223844   0.450   1.289   1.191
 7968TIP3    H123845   0.471   1.266   1.100
 7968TIP3    H223846   0.383   1.357   1.184
 7969TIP3   OH223847  -0.024   2.313   1.773
 7969TIP3    H123848  -0.027   2.364   1.855
 7969TIP3    H223849   0.041   2.358   1.719
 7970TIP3   OH223850   6.991   1.665   1.010
 7970TIP3    H123851   7.076   1.622   1.015
 7970TIP3    H223852   6.961   1.669   1.101
 7971TIP3   OH223853   3.171   0.705   6.751
 7971TIP3    H123854   3.250   0.697   6.804
 7971TIP3    H223855   3.203   0.726   6.663
 7972TIP3   OH223856   4.782   2.801   2.357
 7972TIP3    H123857   4.869   2.784   2.394
 7972TIP3    H223858   4.722   2.785   2.430
 7973TIP3   OH223859   4.861   7.795   6.530
 7973TIP3    H123860   4.770   7.822   6.517
 7973TIP3    H223861   4.912   7.873   6.508
 7974TIP3   OH223862   2.241   1.215   0.473
 7974TIP3    H123863   2.331   1.247   0.485
 7974TIP3    H223864   2.214   1.251   0.389
 7975TIP3   OH223865   2.961   5.357   6.601
 7975TIP3    H123866   2.905   5.434   6.588
 7975TIP3    H223867   3.050   5.393   6.608
 7976TIP3   OH223868   6.704   0.936   3.599
 7976TIP3    H123869   6.622   0.952   3.553
 7976TIP3    H223870   6.678   0.904   3.685
 7977TIP3   OH223871   4.742   6.609   4.401
 7977TIP3    H123872   4.648   6.607   4.420
 7977TIP3    H223873   4.784   6.592   4.486
 7978TIP3   OH223874   5.964   0.516   0.738
 7978TIP3    H123875   5.914   0.595   0.757
 7978TIP3    H223876   6.031   0.545   0.675
 7979TIP3   OH223877   4.230   5.769   5.127
 7979TIP3    H123878   4.293   5.743   5.060
 7979TIP3    H223879   4.155   5.802   5.078
 7980TIP3   OH223880   8.041   7.546   3.486
 7980TIP3    H123881   7.981   7.537   3.412
 7980TIP3    H223882   8.003   7.491   3.555
 7981TIP3   OH223883   6.942   1.984   1.104
 7981TIP3    H123884   6.980   1.897   1.116
 7981TIP3    H223885   6.873   1.990   1.170
 7982TIP3   OH223886   2.975   7.830   2.767
 7982TIP3    H123887   3.065   7.827   2.734
 7982TIP3    H223888   2.968   7.754   2.823
 7983TIP3   OH223889   3.673   6.183   0.416
 7983TIP3    H123890   3.613   6.232   0.472
 7983TIP3    H223891   3.687   6.100   0.461
 7984TIP3   OH223892   2.779   0.273   1.023
 7984TIP3    H123893   2.742   0.289   1.109
 7984TIP3    H223894   2.723   0.206   0.984
 7985TIP3   OH223895   4.337   1.688   5.610
 7985TIP3    H123896   4.393   1.636   5.552
 7985TIP3    H223897   4.257   1.636   5.619
 7986TIP3   OH223898   5.358   4.590   1.916
 7986TIP3    H123899   5.414   4.667   1.908
 7986TIP3    H223900   5.391   4.543   1.992
 7987TIP3   OH223901   7.200   2.088   0.493
 7987TIP3    H123902   7.208   2.003   0.451
 7987TIP3    H223903   7.275   2.094   0.552
 7988TIP3   OH223904   4.666   3.849   4.356
 7988TIP3    H123905   4.670   3.768   4.304
 7988TIP3    H223906   4.580   3.845   4.398
 7989TIP3   OH223907   2.293   4.752   1.645
 7989TIP3    H123908   2.305   4.761   1.740
 7989TIP3    H223909   2.288   4.842   1.613
 7990TIP3   OH223910   2.634   1.405   3.523
 7990TIP3    H123911   2.583   1.396   3.442
 7990TIP3    H223912   2.583   1.359   3.589
 7991TIP3   OH223913   5.708   2.190   5.075
 7991TIP3    H123914   5.756   2.262   5.116
 7991TIP3    H223915   5.650   2.233   5.012
 7992TIP3   OH223916   3.908   4.296   2.820
 7992TIP3    H123917   3.855   4.265   2.894
 7992TIP3    H223918   3.857   4.368   2.783
 7993TIP3   OH223919   5.958   6.120   3.616
 7993TIP3    H123920   5.927   6.032   3.638
 7993TIP3    H223921   6.027   6.105   3.551
 7994TIP3   OH223922   7.848   7.656   5.868
 7994TIP3    H123923   7.897   7.730   5.833
 7994TIP3    H223924   7.906   7.617   5.933
 7995TIP3   OH223925   7.328   5.973   3.921
 7995TIP3    H123926   7.297   5.903   3.978
 7995TIP3    H223927   7.251   6.027   3.904
 7996TIP3   OH223928   2.608   5.577   4.437
 7996TIP3    H123929   2.669   5.515   4.479
 7996TIP3    H223930   2.583   5.534   4.356
 7997TIP3   OH223931   3.236   1.072   2.888
 7997TIP3    H123932   3.307   1.016   2.857
 7997TIP3    H223933   3.267   1.105   2.972
 7998TIP3   OH223934  -0.003   1.605   3.261
 7998TIP3    H123935   0.056   1.530   3.273
 7998TIP3    H223936   0.037   1.656   3.191
 7999TIP3   OH223937   7.661   7.379   4.614
 7999TIP3    H123938   7.752   7.389   4.642
 7999TIP3    H223939   7.659   7.413   4.525
 8000TIP3   OH223940   0.466   7.788   6.051
 8000TIP3    H123941   0.425   7.874   6.043
 8000TIP3    H223942   0.557   7.802   6.026
 8001TIP3   OH223943   8.026   1.879   1.595
 8001TIP3    H123944   8.047   1.787   1.611
 8001TIP3    H223945   8.091   1.928   1.645
 8002TIP3   OH223946   3.996   3.666   0.524
 8002TIP3    H123947   4.058   3.677   0.452
 8002TIP3    H223948   3.925   3.727   0.506
 8003TIP3   OH223949   5.096   7.836   4.934
 8003TIP3    H123950   5.152   7.913   4.928
 8003TIP3    H223951   5.049   7.846   5.017
 8004TIP3   OH223952   2.748   6.347   3.932
 8004TIP3    H123953   2.692   6.269   3.933
 8004TIP3    H223954   2.756   6.371   3.840
 8005TIP3   OH223955   4.049   7.041   3.704
 8005TIP3    H123956   3.983   6.985   3.745
 8005TIP3    H223957   4.003   7.084   3.632
 8006TIP3   OH223958   4.455   0.288   2.398
 8006TIP3    H123959   4.424   0.378   2.404
 8006TIP3    H223960   4.500   0.284   2.313
 8007TIP3   OH223961   3.838   7.038   3.256
 8007TIP3    H123962   3.788   6.970   3.211
 8007TIP3    H223963   3.775   7.078   3.317
 8008TIP3   OH223964   2.837   5.059   5.820
 8008TIP3    H123965   2.904   5.048   5.887
 8008TIP3    H223966   2.879   5.032   5.738
 8009TIP3   OH223967   3.212   4.520   3.099
 8009TIP3    H123968   3.300   4.552   3.082
 8009TIP3    H223969   3.195   4.542   3.191
 8010TIP3   OH223970   1.993   7.157   6.571
 8010TIP3    H123971   1.982   7.121   6.659
 8010TIP3    H223972   2.078   7.201   6.574
 8011TIP3   OH223973   3.916   4.826   1.002
 8011TIP3    H123974   3.974   4.899   1.022
 8011TIP3    H223975   3.834   4.866   0.975
 8012TIP3   OH223976   3.114   2.999   3.333
 8012TIP3    H123977   3.168   2.981   3.410
 8012TIP3    H223978   3.149   3.081   3.298
 8013TIP3   OH223979   3.509   3.007   6.691
 8013TIP3    H123980   3.469   3.094   6.688
 8013TIP3    H223981   3.458   2.955   6.629
 8014TIP3   OH223982   5.280   5.976   0.338
 8014TIP3    H123983   5.247   6.043   0.277
 8014TIP3    H223984   5.311   6.026   0.414
 8015TIP3   OH223985   7.385   4.422   1.768
 8015TIP3    H123986   7.350   4.429   1.857
 8015TIP3    H223987   7.327   4.477   1.715
 8016TIP3   OH223988   8.286   3.687   0.933
 8016TIP3    H123989   8.316   3.609   0.885
 8016TIP3    H223990   8.273   3.656   1.023
 8017TIP3   OH223991   8.142   3.063   1.878
 8017TIP3    H123992   8.112   3.131   1.939
 8017TIP3    H223993   8.188   3.112   1.809
 8018TIP3   OH223994   8.291   6.170   3.965
 8018TIP3    H123995   8.382   6.188   3.946
 8018TIP3    H223996   8.242   6.242   3.925
 8019TIP3   OH223997   1.570   4.473   2.005
 8019TIP3    H123998   1.594   4.503   1.918
 8019TIP3    H223999   1.491   4.420   1.991
 8020TIP3   OH224000   1.597   7.880   4.033
 8020TIP3    H124001   1.556   7.844   3.954
 8020TIP3    H224002   1.677   7.921   4.002
 8021TIP3   OH224003   1.703   1.995   5.629
 8021TIP3    H124004   1.650   1.938   5.574
 8021TIP3    H224005   1.700   1.955   5.716
 8022TIP3   OH224006   4.689   4.739   0.779
 8022TIP3    H124007   4.667   4.831   0.767
 8022TIP3    H224008   4.777   4.740   0.817
 8023TIP3   OH224009   2.691   2.542   6.546
 8023TIP3    H124010   2.630   2.567   6.616
 8023TIP3    H224011   2.761   2.608   6.550
 8024TIP3   OH224012   5.628   6.290   2.516
 8024TIP3    H124013   5.581   6.244   2.585
 8024TIP3    H224014   5.561   6.342   2.472
 8025TIP3   OH224015   8.374   2.910   6.477
 8025TIP3    H124016   8.291   2.911   6.524
 8025TIP3    H224017   8.351   2.934   6.387
 8026TIP3   OH224018   2.942   2.035   6.586
 8026TIP3    H124019   2.988   2.108   6.627
 8026TIP3    H224020   2.853   2.067   6.572
 8027TIP3   OH224021   6.130   4.272   6.219
 8027TIP3    H124022   6.087   4.189   6.195
 8027TIP3    H224023   6.066   4.317   6.275
 8028TIP3   OH224024   4.115   5.797   2.725
 8028TIP3    H124025   4.063   5.746   2.663
 8028TIP3    H224026   4.168   5.732   2.771
 8029TIP3   OH224027   3.300   7.740   6.800
 8029TIP3    H124028   3.215   7.754   6.759
 8029TIP3    H224029   3.298   7.649   6.829
 8030TIP3   OH224030   3.775   6.979   0.731
 8030TIP3    H124031   3.735   7.066   0.730
 8030TIP3    H224032   3.803   6.965   0.640
 8031TIP3   OH224033   4.267   4.432   6.691
 8031TIP3    H124034   4.290   4.447   6.783
 8031TIP3    H224035   4.174   4.451   6.686
 8032TIP3   OH224036   7.981   0.975   6.759
 8032TIP3    H124037   8.065   0.935   6.739
 8032TIP3    H224038   7.952   0.932   6.839
 8033TIP3   OH224039   2.398   0.086   1.421
 8033TIP3    H124040   2.386  -0.001   1.383
 8033TIP3    H224041   2.330   0.140   1.381
 8034TIP3   OH224042   3.073   0.761   1.815
 8034TIP3    H124043   3.031   0.746   1.899
 8034TIP3    H224044   3.062   0.679   1.767
 8035TIP3   OH224045   1.048   0.416   1.222
 8035TIP3    H124046   1.122   0.445   1.169
 8035TIP3    H224047   0.972   0.460   1.184
 8036TIP3   OH224048   4.262   1.095   2.140
 8036TIP3    H124049   4.241   1.093   2.233
 8036TIP3    H224050   4.353   1.124   2.136
 8037TIP3   OH224051   8.157   7.390   4.040
 8037TIP3    H124052   8.228   7.454   4.033
 8037TIP3    H224053   8.127   7.378   3.950
 8038TIP3   OH224054   4.220   3.455   4.641
 8038TIP3    H124055   4.263   3.399   4.575
 8038TIP3    H224056   4.150   3.498   4.593
 8039TIP3   OH224057   6.937   4.407   5.969
 8039TIP3    H124058   6.971   4.335   5.915
 8039TIP3    H224059   6.856   4.372   6.007
 8040TIP3   OH224060   7.198   5.512   4.004
 8040TIP3    H124061   7.257   5.443   4.035
 8040TIP3    H224062   7.118   5.500   4.055
 8041TIP3   OH224063   2.887   2.658   1.691
 8041TIP3    H124064   2.831   2.699   1.625
 8041TIP3    H224065   2.922   2.579   1.648
 8042TIP3   OH224066   4.343   6.955   1.331
 8042TIP3    H124067   4.404   7.027   1.346
 8042TIP3    H224068   4.338   6.947   1.236
 8043TIP3   OH224069   6.661   6.567   5.036
 8043TIP3    H124070   6.625   6.638   5.089
 8043TIP3    H224071   6.644   6.488   5.088
 8044TIP3   OH224072   7.780   4.834   1.603
 8044TIP3    H124073   7.817   4.913   1.642
 8044TIP3    H224074   7.829   4.822   1.521
 8045TIP3   OH224075   0.401   1.341   3.520
 8045TIP3    H124076   0.395   1.247   3.503
 8045TIP3    H224077   0.442   1.347   3.606
 8046TIP3   OH224078   0.226   5.304   4.303
 8046TIP3    H124079   0.131   5.297   4.309
 8046TIP3    H224080   0.241   5.359   4.226
 8047TIP3   OH224081   6.855   6.199   2.212
 8047TIP3    H124082   6.834   6.169   2.124
 8047TIP3    H224083   6.842   6.122   2.268
 8048TIP3   OH224084   6.733   0.220   6.276
 8048TIP3    H124085   6.794   0.294   6.275
 8048TIP3    H224086   6.656   0.253   6.229
 8049TIP3   OH224087   3.502   5.159   3.632
 8049TIP3    H124088   3.573   5.137   3.691
 8049TIP3    H224089   3.514   5.252   3.613
 8050TIP3   OH224090   6.386   7.341   4.795
 8050TIP3    H124091   6.368   7.434   4.803
 8050TIP3    H224092   6.338   7.301   4.868
 8051TIP3   OH224093   1.633   7.719   5.681
 8051TIP3    H124094   1.600   7.637   5.646
 8051TIP3    H224095   1.711   7.739   5.628
 8052TIP3   OH224096   1.223   2.125   1.453
 8052TIP3    H124097   1.305   2.088   1.419
 8052TIP3    H224098   1.228   2.218   1.430
 8053TIP3   OH224099   2.301   4.841   0.152
 8053TIP3    H124100   2.299   4.750   0.180
 8053TIP3    H224101   2.209   4.869   0.152
 8054TIP3   OH224102   2.722   3.406   0.511
 8054TIP3    H124103   2.630   3.423   0.529
 8054TIP3    H224104   2.764   3.492   0.521
 8055TIP3   OH224105   6.304   5.463   1.147
 8055TIP3    H124106   6.264   5.525   1.208
 8055TIP3    H224107   6.241   5.391   1.141
 8056TIP3   OH224108   6.503   3.842   2.374
 8056TIP3    H124109   6.493   3.854   2.469
 8056TIP3    H224110   6.413   3.830   2.343
 8057TIP3   OH224111   5.437   2.229   0.360
 8057TIP3    H124112   5.355   2.261   0.399
 8057TIP3    H224113   5.424   2.135   0.351
 8058TIP3   OH224114   6.356   4.300   2.492
 8058TIP3    H124115   6.437   4.307   2.442
 8058TIP3    H224116   6.287   4.319   2.429
 8059TIP3   OH224117   1.267   2.291   6.420
 8059TIP3    H124118   1.340   2.277   6.359
 8059TIP3    H224119   1.265   2.385   6.434
 8060TIP3   OH224120   8.309   4.433   2.675
 8060TIP3    H124121   8.374   4.472   2.615
 8060TIP3    H224122   8.358   4.366   2.722
 8061TIP3   OH224123   0.315   1.495   2.418
 8061TIP3    H124124   0.230   1.512   2.459
 8061TIP3    H224125   0.308   1.406   2.385
 8062TIP3   OH224126   4.057   7.050   0.213
 8062TIP3    H124127   3.984   6.988   0.210
 8062TIP3    H224128   4.053   7.088   0.301
 8063TIP3   OH224129   4.676   7.502   5.322
 8063TIP3    H124130   4.624   7.542   5.252
 8063TIP3    H224131   4.763   7.539   5.312
 8064TIP3   OH224132   1.616   0.748   6.549
 8064TIP3    H124133   1.638   0.723   6.459
 8064TIP3    H224134   1.634   0.842   6.553
 8065TIP3   OH224135   7.317   2.656   2.206
 8065TIP3    H124136   7.392   2.597   2.214
 8065TIP3    H224137   7.354   2.743   2.221
 8066TIP3   OH224138   5.920   3.151   1.534
 8066TIP3    H124139   5.908   3.074   1.590
 8066TIP3    H224140   5.893   3.224   1.589
 8067TIP3   OH224141   0.051   7.055   4.667
 8067TIP3    H124142   0.106   7.099   4.601
 8067TIP3    H224143   0.023   7.126   4.725
 8068TIP3   OH224144   1.220   1.816   6.645
 8068TIP3    H124145   1.190   1.878   6.578
 8068TIP3    H224146   1.183   1.850   6.727
 8069TIP3   OH224147   1.858   4.676   5.852
 8069TIP3    H124148   1.922   4.606   5.868
 8069TIP3    H224149   1.907   4.757   5.869
 8070TIP3   OH224150   0.624   0.268   1.667
 8070TIP3    H124151   0.645   0.355   1.633
 8070TIP3    H224152   0.566   0.230   1.600
 8071TIP3   OH224153   2.537   7.408   2.822
 8071TIP3    H124154   2.631   7.389   2.826
 8071TIP3    H224155   2.501   7.366   2.901
 8072TIP3   OH224156   0.901   1.423   1.987
 8072TIP3    H124157   0.932   1.504   1.946
 8072TIP3    H224158   0.842   1.385   1.922
 8073TIP3   OH224159   5.166   1.370   6.586
 8073TIP3    H124160   5.207   1.455   6.601
 8073TIP3    H224161   5.240   1.311   6.570
 8074TIP3   OH224162   6.789   4.533   5.653
 8074TIP3    H124163   6.793   4.526   5.558
 8074TIP3    H224164   6.863   4.589   5.677
 8075TIP3   OH224165   7.814   0.431   3.634
 8075TIP3    H124166   7.847   0.521   3.630
 8075TIP3    H224167   7.720   0.441   3.646
 8076TIP3   OH224168   1.998   1.353   1.406
 8076TIP3    H124169   2.047   1.355   1.324
 8076TIP3    H224170   2.004   1.443   1.440
 8077TIP3   OH224171   6.968   2.536   3.359
 8077TIP3    H124172   7.009   2.622   3.343
 8077TIP3    H224173   6.879   2.546   3.326
 8078TIP3   OH224174   7.003   1.069   5.398
 8078TIP3    H124175   7.039   1.147   5.355
 8078TIP3    H224176   7.012   0.999   5.332
 8079TIP3   OH224177   2.065   2.236   3.486
 8079TIP3    H124178   2.025   2.166   3.434
 8079TIP3    H224179   1.992   2.278   3.531
 8080TIP3   OH224180   0.278   0.629   4.082
 8080TIP3    H124181   0.317   0.595   4.002
 8080TIP3    H224182   0.338   0.602   4.152
 8081TIP3   OH224183   2.196   3.367   4.836
 8081TIP3    H124184   2.184   3.425   4.761
 8081TIP3    H224185   2.108   3.339   4.860
 8082TIP3   OH224186   0.394   6.562   1.045
 8082TIP3    H124187   0.372   6.508   1.120
 8082TIP3    H224188   0.314   6.567   0.993
 8083TIP3   OH224189   1.326   6.193   0.169
 8083TIP3    H124190   1.306   6.283   0.193
 8083TIP3    H224191   1.389   6.200   0.097
 8084TIP3   OH224192   6.697   5.137   2.117
 8084TIP3    H124193   6.725   5.103   2.202
 8084TIP3    H224194   6.741   5.081   2.053
 8085TIP3   OH224195   8.322   6.393   0.593
 8085TIP3    H124196   8.330   6.429   0.505
 8085TIP3    H224197   8.229   6.369   0.601
 8086TIP3   OH224198   6.830   2.702   3.002
 8086TIP3    H124199   6.852   2.651   2.924
 8086TIP3    H224200   6.743   2.738   2.983
 8087TIP3   OH224201   6.753   7.706   2.461
 8087TIP3    H124202   6.801   7.721   2.380
 8087TIP3    H224203   6.812   7.738   2.530
 8088TIP3   OH224204   6.023   1.305   3.598
 8088TIP3    H124205   6.010   1.247   3.674
 8088TIP3    H224206   6.112   1.286   3.569
 8089TIP3   OH224207   1.178   1.616   5.186
 8089TIP3    H124208   1.145   1.650   5.269
 8089TIP3    H224209   1.099   1.600   5.134
 8090TIP3   OH224210   4.455   3.827   4.502
 8090TIP3    H124211   4.503   3.747   4.526
 8090TIP3    H224212   4.384   3.832   4.566
 8091TIP3   OH224213   0.543   6.818   2.093
 8091TIP3    H124214   0.542   6.905   2.054
 8091TIP3    H224215   0.535   6.758   2.018
 8092TIP3   OH224216   4.562   0.857   0.852
 8092TIP3    H124217   4.594   0.947   0.858
 8092TIP3    H224218   4.640   0.803   0.867
 8093TIP3   OH224219   6.660   5.965   1.312
 8093TIP3    H124220   6.725   5.993   1.377
 8093TIP3    H224221   6.713   5.927   1.242
 8094TIP3   OH224222   5.485   6.329   4.320
 8094TIP3    H124223   5.575   6.320   4.291
 8094TIP3    H224224   5.488   6.309   4.414
 8095TIP3   OH224225   1.905   4.451   2.927
 8095TIP3    H124226   1.908   4.436   2.832
 8095TIP3    H224227   1.816   4.423   2.952
 8096TIP3   OH224228   5.311   7.189   1.655
 8096TIP3    H124229   5.350   7.185   1.742
 8096TIP3    H224230   5.265   7.106   1.646
 8097TIP3   OH224231   3.942   5.812   3.492
 8097TIP3    H124232   3.987   5.824   3.409
 8097TIP3    H224233   3.849   5.822   3.470
 8098TIP3   OH224234   3.679   5.265   0.834
 8098TIP3    H124235   3.761   5.215   0.827
 8098TIP3    H224236   3.657   5.261   0.927
 8099TIP3   OH224237   6.127   7.424   0.251
 8099TIP3    H124238   6.113   7.430   0.156
 8099TIP3    H224239   6.204   7.477   0.267
 8100TIP3   OH224240   8.328   0.629   4.582
 8100TIP3    H124241   8.312   0.561   4.516
 8100TIP3    H224242   8.341   0.581   4.664
 8101TIP3   OH224243   7.565   3.221   6.206
 8101TIP3    H124244   7.643   3.275   6.190
 8101TIP3    H224245   7.533   3.199   6.119
 8102TIP3   OH224246   7.105   6.696   3.266
 8102TIP3    H124247   7.123   6.610   3.304
 8102TIP3    H224248   7.145   6.692   3.179
 8103TIP3   OH224249   2.509   4.374   3.476
 8103TIP3    H124250   2.443   4.305   3.477
 8103TIP3    H224251   2.486   4.430   3.549
 8104TIP3   OH224252   1.901   4.183   3.060
 8104TIP3    H124253   1.930   4.228   3.139
 8104TIP3    H224254   1.831   4.239   3.025
 8105TIP3   OH224255   4.429   4.174   0.339
 8105TIP3    H124256   4.380   4.235   0.393
 8105TIP3    H224257   4.414   4.089   0.379
 8106TIP3   OH224258   5.050   0.024   4.454
 8106TIP3    H124259   4.988  -0.048   4.444
 8106TIP3    H224260   5.134  -0.019   4.471
 8107TIP3   OH224261   3.751   7.599   5.482
 8107TIP3    H124262   3.704   7.645   5.413
 8107TIP3    H224263   3.832   7.649   5.494
 8108TIP3   OH224264   1.450   4.639   2.216
 8108TIP3    H124265   1.482   4.566   2.164
 8108TIP3    H224266   1.356   4.624   2.223
 8109TIP3   OH224267   3.622   5.500   1.141
 8109TIP3    H124268   3.529   5.524   1.146
 8109TIP3    H224269   3.644   5.472   1.230
 8110TIP3   OH224270   6.924   0.724   4.936
 8110TIP3    H124271   6.877   0.641   4.932
 8110TIP3    H224272   7.006   0.707   4.889
 8111TIP3   OH224273   8.067   7.822   1.652
 8111TIP3    H124274   7.997   7.758   1.650
 8111TIP3    H224275   8.022   7.907   1.654
 8112TIP3   OH224276   7.000   6.537   4.723
 8112TIP3    H124277   6.984   6.486   4.803
 8112TIP3    H224278   6.926   6.597   4.718
 8113TIP3   OH224279   1.854   4.898  -0.011
 8113TIP3    H124280   1.785   4.879   0.054
 8113TIP3    H224281   1.854   4.821  -0.068
 8114TIP3   OH224282   4.869   3.072   4.092
 8114TIP3    H124283   4.898   3.140   4.031
 8114TIP3    H224284   4.938   3.007   4.090
 8115TIP3   OH224285   6.227   6.733   2.647
 8115TIP3    H124286   6.275   6.655   2.620
 8115TIP3    H224287   6.161   6.701   2.708
 8116TIP3   OH224288   3.128   5.905   1.160
 8116TIP3    H124289   3.072   5.947   1.095
 8116TIP3    H224290   3.193   5.971   1.183
 8117TIP3   OH224291   7.499   7.179   2.039
 8117TIP3    H124292   7.469   7.265   2.009
 8117TIP3    H224293   7.568   7.155   1.978
 8118TIP3   OH224294   8.116   4.301   1.809
 8118TIP3    H124295   8.083   4.212   1.824
 8118TIP3    H224296   8.209   4.295   1.832
 8119TIP3   OH224297   1.322   2.406   0.504
 8119TIP3    H124298   1.234   2.439   0.522
 8119TIP3    H224299   1.341   2.433   0.414
 8120TIP3   OH224300   8.252   4.815   5.328
 8120TIP3    H124301   8.283   4.809   5.418
 8120TIP3    H224302   8.304   4.749   5.281
 8121TIP3   OH224303   5.762   7.625   1.053
 8121TIP3    H124304   5.826   7.581   0.997
 8121TIP3    H224305   5.686   7.566   1.054
 8122TIP3   OH224306   4.971   4.990   6.328
 8122TIP3    H124307   5.063   5.014   6.329
 8122TIP3    H224308   4.971   4.896   6.349
 8123TIP3   OH224309   4.501   1.970   4.963
 8123TIP3    H124310   4.555   1.892   4.952
 8123TIP3    H224311   4.455   1.956   5.046
 8124TIP3   OH224312   0.385   5.833   4.058
 8124TIP3    H124313   0.389   5.925   4.086
 8124TIP3    H224314   0.476   5.805   4.054
 8125TIP3   OH224315   3.244   6.751   5.663
 8125TIP3    H124316   3.233   6.706   5.580
 8125TIP3    H224317   3.166   6.727   5.714
 8126TIP3   OH224318   3.692   6.760   5.995
 8126TIP3    H124319   3.621   6.716   5.947
 8126TIP3    H224320   3.771   6.716   5.965
 8127TIP3   OH224321   1.714   4.682   6.649
 8127TIP3    H124322   1.783   4.664   6.585
 8127TIP3    H224323   1.679   4.596   6.671
 8128TIP3   OH224324   1.127   0.833   6.493
 8128TIP3    H124325   1.117   0.742   6.465
 8128TIP3    H224326   1.196   0.829   6.560
 8129TIP3   OH224327   0.900   1.087   1.817
 8129TIP3    H124328   0.961   1.104   1.889
 8129TIP3    H224329   0.869   1.173   1.791
 8130TIP3   OH224330   0.952   5.607   6.535
 8130TIP3    H124331   0.907   5.527   6.508
 8130TIP3    H224332   0.888   5.677   6.520
 8131TIP3   OH224333   5.535   4.372   1.714
 8131TIP3    H124334   5.577   4.366   1.800
 8131TIP3    H224335   5.529   4.466   1.697
 8132TIP3   OH224336   3.575   0.328   5.046
 8132TIP3    H124337   3.523   0.407   5.031
 8132TIP3    H224338   3.563   0.276   4.966
 8133TIP3   OH224339   8.327   3.598   6.714
 8133TIP3    H124340   8.418   3.580   6.691
 8133TIP3    H224341   8.277   3.530   6.670
 8134TIP3   OH224342   4.701   6.544   1.509
 8134TIP3    H124343   4.659   6.620   1.548
 8134TIP3    H224344   4.665   6.538   1.421
 8135TIP3   OH224345   3.386   4.367   5.612
 8135TIP3    H124346   3.297   4.402   5.613
 8135TIP3    H224347   3.377   4.280   5.651
 8136TIP3   OH224348   2.043   3.497   6.753
 8136TIP3    H124349   2.097   3.430   6.710
 8136TIP3    H224350   2.090   3.516   6.834
 8137TIP3   OH224351   5.352   1.808   1.374
 8137TIP3    H124352   5.384   1.897   1.357
 8137TIP3    H224353   5.428   1.752   1.357
 8138TIP3   OH224354   3.183   4.508   0.202
 8138TIP3    H124355   3.234   4.572   0.151
 8138TIP3    H224356   3.191   4.427   0.153
 8139TIP3   OH224357   4.443   2.312   6.205
 8139TIP3    H124358   4.521   2.363   6.182
 8139TIP3    H224359   4.370   2.363   6.171
 8140TIP3   OH224360   8.035   5.885   2.665
 8140TIP3    H124361   8.022   5.967   2.712
 8140TIP3    H224362   7.965   5.883   2.600
 8141TIP3   OH224363   4.965   7.580   2.354
 8141TIP3    H124364   4.996   7.605   2.441
 8141TIP3    H224365   5.010   7.498   2.335
 8142TIP3   OH224366   0.112   7.732   1.346
 8142TIP3    H124367   0.070   7.647   1.347
 8142TIP3    H224368   0.066   7.783   1.413
 8143TIP3   OH224369   5.044   0.461   2.543
 8143TIP3    H124370   5.030   0.386   2.601
 8143TIP3    H224371   5.011   0.536   2.593
 8144TIP3   OH224372   0.750   5.056   1.857
 8144TIP3    H124373   0.769   5.100   1.939
 8144TIP3    H224374   0.656   5.070   1.843
 8145TIP3   OH224375   7.382   7.301   4.898
 8145TIP3    H124376   7.456   7.289   4.957
 8145TIP3    H224377   7.328   7.223   4.910
 8146TIP3   OH224378   2.633   1.002   2.940
 8146TIP3    H124379   2.720   1.018   2.903
 8146TIP3    H224380   2.577   1.066   2.896
 8147TIP3   OH224381   5.187   5.587   6.316
 8147TIP3    H124382   5.193   5.679   6.293
 8147TIP3    H224383   5.229   5.580   6.402
 8148TIP3   OH224384   7.565   0.227   5.748
 8148TIP3    H124385   7.634   0.294   5.749
 8148TIP3    H224386   7.491   0.270   5.705
 8149TIP3   OH224387   6.077   7.711   3.085
 8149TIP3    H124388   6.143   7.758   3.034
 8149TIP3    H224389   6.126   7.646   3.135
 8150TIP3   OH224390   6.212   1.281   0.744
 8150TIP3    H124391   6.201   1.374   0.761
 8150TIP3    H224392   6.192   1.239   0.828
 8151TIP3   OH224393   5.847   5.762   5.923
 8151TIP3    H124394   5.789   5.820   5.972
 8151TIP3    H224395   5.809   5.675   5.934
 8152TIP3   OH224396   1.982   4.887   4.513
 8152TIP3    H124397   2.007   4.965   4.463
 8152TIP3    H224398   1.886   4.886   4.510
 8153TIP3   OH224399   0.836   3.562   6.713
 8153TIP3    H124400   0.855   3.550   6.620
 8153TIP3    H224401   0.745   3.534   6.723
 8154TIP3   OH224402   0.856   3.949   1.566
 8154TIP3    H124403   0.933   3.907   1.528
 8154TIP3    H224404   0.782   3.915   1.514
 8155TIP3   OH224405   2.136   1.054   5.893
 8155TIP3    H124406   2.227   1.027   5.903
 8155TIP3    H224407   2.102   0.999   5.822
 8156TIP3   OH224408   7.921   7.419   0.823
 8156TIP3    H124409   7.868   7.366   0.763
 8156TIP3    H224410   7.894   7.391   0.910
 8157TIP3   OH224411   0.465   6.235   5.751
 8157TIP3    H124412   0.453   6.211   5.659
 8157TIP3    H224413   0.432   6.160   5.800
 8158TIP3   OH224414   6.954   2.207   2.601
 8158TIP3    H124415   7.028   2.147   2.592
 8158TIP3    H224416   6.902   2.170   2.672
 8159TIP3   OH224417   6.521   5.323   4.275
 8159TIP3    H124418   6.466   5.322   4.353
 8159TIP3    H224419   6.460   5.311   4.203
 8160TIP3   OH224420   3.702   1.640   1.454
 8160TIP3    H124421   3.698   1.607   1.365
 8160TIP3    H224422   3.638   1.711   1.457
 8161TIP3   OH224423   4.010   2.699   5.225
 8161TIP3    H124424   4.061   2.650   5.161
 8161TIP3    H224425   4.007   2.643   5.303
 8162TIP3   OH224426   7.108   1.670   3.104
 8162TIP3    H124427   7.013   1.661   3.103
 8162TIP3    H224428   7.126   1.741   3.043
 8163TIP3   OH224429   6.598   7.869   6.291
 8163TIP3    H124430   6.533   7.869   6.361
 8163TIP3    H224431   6.642   7.784   6.300
 8164TIP3   OH224432   6.255   0.422   4.252
 8164TIP3    H124433   6.196   0.360   4.295
 8164TIP3    H224434   6.225   0.425   4.161
 8165TIP3   OH224435   7.934   0.265   0.320
 8165TIP3    H124436   7.946   0.360   0.315
 8165TIP3    H224437   7.870   0.253   0.390
 8166TIP3   OH224438   1.960   5.182   4.816
 8166TIP3    H124439   2.035   5.133   4.781
 8166TIP3    H224440   1.946   5.146   4.904
 8167TIP3   OH224441   6.947   7.910   2.494
 8167TIP3    H124442   6.982   7.982   2.545
 8167TIP3    H224443   7.023   7.874   2.447
 8168TIP3   OH224444   4.323   0.022   3.202
 8168TIP3    H124445   4.407   0.003   3.243
 8168TIP3    H224446   4.280   0.083   3.262
 8169TIP3   OH224447   6.876   4.387   1.373
 8169TIP3    H124448   6.890   4.346   1.288
 8169TIP3    H224449   6.868   4.314   1.434
 8170TIP3   OH224450   0.721   1.038   5.818
 8170TIP3    H124451   0.793   1.075   5.869
 8170TIP3    H224452   0.689   0.965   5.871
 8171TIP3   OH224453   2.521  -0.001   4.896
 8171TIP3    H124454   2.488  -0.041   4.977
 8171TIP3    H224455   2.474   0.082   4.890
 8172TIP3   OH224456   7.259   4.911   6.450
 8172TIP3    H124457   7.280   4.953   6.366
 8172TIP3    H224458   7.262   4.983   6.514
 8173TIP3   OH224459   0.737   2.522   4.223
 8173TIP3    H124460   0.735   2.618   4.231
 8173TIP3    H224461   0.788   2.506   4.144
 8174TIP3   OH224462   4.114   5.129   0.577
 8174TIP3    H124463   4.206   5.118   0.599
 8174TIP3    H224464   4.100   5.071   0.502
 8175TIP3   OH224465   1.466   6.568   1.579
 8175TIP3    H124466   1.451   6.478   1.548
 8175TIP3    H224467   1.554   6.566   1.615
 8176TIP3   OH224468   6.805   7.022   6.687
 8176TIP3    H124469   6.718   6.980   6.680
 8176TIP3    H224470   6.800   7.074   6.766
 8177TIP3   OH224471   5.108   6.250   6.396
 8177TIP3    H124472   5.171   6.248   6.467
 8177TIP3    H224473   5.127   6.171   6.345
 8178TIP3   OH224474   2.203   6.609   6.013
 8178TIP3    H124475   2.169   6.640   5.929
 8178TIP3    H224476   2.185   6.679   6.075
 8179TIP3   OH224477   7.525   2.336   0.776
 8179TIP3    H124478   7.566   2.382   0.850
 8179TIP3    H224479   7.436   2.318   0.805
 8180TIP3   OH224480   1.403   1.685   5.048
 8180TIP3    H124481   1.446   1.733   5.119
 8180TIP3    H224482   1.322   1.652   5.087
 8181TIP3   OH224483   7.519   0.755   3.814
 8181TIP3    H124484   7.443   0.809   3.835
 8181TIP3    H224485   7.567   0.806   3.748
 8182TIP3   OH224486   1.625   3.956   1.195
 8182TIP3    H124487   1.636   3.993   1.108
 8182TIP3    H224488   1.710   3.918   1.217
 8183TIP3   OH224489   0.389   4.038   4.726
 8183TIP3    H124490   0.334   4.091   4.669
 8183TIP3    H224491   0.449   4.101   4.767
 8184TIP3   OH224492   2.172   5.249   4.194
 8184TIP3    H124493   2.132   5.188   4.256
 8184TIP3    H224494   2.127   5.232   4.111
 8185TIP3   OH224495   4.920   3.557   3.166
 8185TIP3    H124496   4.923   3.537   3.072
 8185TIP3    H224497   4.932   3.472   3.209
 8186TIP3   OH224498   3.084   1.320   4.879
 8186TIP3    H124499   3.102   1.409   4.849
 8186TIP3    H224500   3.104   1.265   4.803
 8187TIP3   OH224501   3.750   3.015   0.150
 8187TIP3    H124502   3.683   3.044   0.212
 8187TIP3    H224503   3.826   3.071   0.169
 8188TIP3   OH224504   6.008   5.400   2.257
 8188TIP3    H124505   6.001   5.324   2.315
 8188TIP3    H224506   6.076   5.455   2.298
 8189TIP3   OH224507   0.041   7.387   0.750
 8189TIP3    H124508   0.045   7.339   0.833
 8189TIP3    H224509  -0.047   7.425   0.749
 8190TIP3   OH224510   5.634   3.943   4.502
 8190TIP3    H124511   5.634   3.950   4.407
 8190TIP3    H224512   5.557   3.891   4.523
 8191TIP3   OH224513   6.307   0.235   1.285
 8191TIP3    H124514   6.213   0.249   1.276
 8191TIP3    H224515   6.340   0.316   1.325
 8192TIP3   OH224516   4.099   1.405   0.683
 8192TIP3    H124517   4.159   1.427   0.754
 8192TIP3    H224518   4.154   1.366   0.616
 8193TIP3   OH224519   6.239   5.521   2.344
 8193TIP3    H124520   6.324   5.476   2.338
 8193TIP3    H224521   6.220   5.524   2.437
 8194TIP3   OH224522   2.567   3.612   5.287
 8194TIP3    H124523   2.555   3.583   5.196
 8194TIP3    H224524   2.610   3.698   5.280
 8195TIP3   OH224525   7.335   5.670   4.622
 8195TIP3    H124526   7.336   5.656   4.717
 8195TIP3    H224527   7.373   5.757   4.611
 8196TIP3   OH224528   4.407   4.911   3.028
 8196TIP3    H124529   4.395   4.910   2.933
 8196TIP3    H224530   4.328   4.952   3.062
 8197TIP3   OH224531   5.232   4.839   0.787
 8197TIP3    H124532   5.189   4.841   0.701
 8197TIP3    H224533   5.214   4.752   0.821
 8198TIP3   OH224534   0.519   1.312   3.749
 8198TIP3    H124535   0.518   1.220   3.776
 8198TIP3    H224536   0.486   1.359   3.826
 8199TIP3   OH224537   3.926   5.692   4.251
 8199TIP3    H124538   3.893   5.744   4.177
 8199TIP3    H224539   4.000   5.643   4.215
 8200TIP3   OH224540   0.565   4.227   5.137
 8200TIP3    H124541   0.535   4.150   5.088
 8200TIP3    H224542   0.661   4.220   5.134
 8201TIP3   OH224543   4.075   0.610   1.690
 8201TIP3    H124544   4.053   0.688   1.741
 8201TIP3    H224545   4.080   0.641   1.600
 8202TIP3   OH224546   4.690   0.953   5.014
 8202TIP3    H124547   4.679   0.988   5.103
 8202TIP3    H224548   4.647   0.867   5.017
 8203TIP3   OH224549   2.783   5.356   4.511
 8203TIP3    H124550   2.787   5.295   4.437
 8203TIP3    H224551   2.868   5.348   4.553
 8204TIP3   OH224552   0.458   7.796   0.230
 8204TIP3    H124553   0.513   7.760   0.299
 8204TIP3    H224554   0.369   7.794   0.267
 8205TIP3   OH224555   2.375   2.646   1.527
 8205TIP3    H124556   2.440   2.609   1.587
 8205TIP3    H224557   2.412   2.730   1.500
 8206TIP3   OH224558   8.267   5.540   4.732
 8206TIP3    H124559   8.232   5.606   4.792
 8206TIP3    H224560   8.281   5.587   4.650
 8207TIP3   OH224561   7.211   4.417   4.592
 8207TIP3    H124562   7.145   4.349   4.604
 8207TIP3    H224563   7.190   4.483   4.657
 8208TIP3   OH224564   6.973   5.546   5.867
 8208TIP3    H124565   6.931   5.632   5.865
 8208TIP3    H224566   7.033   5.547   5.792
 8209TIP3   OH224567   2.470   7.500   3.143
 8209TIP3    H124568   2.380   7.490   3.112
 8209TIP3    H224569   2.511   7.416   3.122
 8210TIP3   OH224570   1.466   5.060   5.394
 8210TIP3    H124571   1.371   5.050   5.389
 8210TIP3    H224572   1.487   5.045   5.486
 8211TIP3   OH224573   3.996   0.611   6.377
 8211TIP3    H124574   3.914   0.581   6.417
 8211TIP3    H224575   4.008   0.700   6.411
 8212TIP3   OH224576   0.075   1.661   5.724
 8212TIP3    H124577   0.159   1.681   5.681
 8212TIP3    H224578   0.073   1.719   5.800
 8213TIP3   OH224579   0.924   5.544   2.148
 8213TIP3    H124580   0.833   5.528   2.173
 8213TIP3    H224581   0.919   5.571   2.056
 8214TIP3   OH224582   6.386   1.560   5.181
 8214TIP3    H124583   6.452   1.503   5.142
 8214TIP3    H224584   6.324   1.578   5.111
 8215TIP3   OH224585   5.155   4.998   5.593
 8215TIP3    H124586   5.098   4.966   5.523
 8215TIP3    H224587   5.120   4.959   5.673
 8216TIP3   OH224588   1.581   4.702   3.187
 8216TIP3    H124589   1.668   4.699   3.147
 8216TIP3    H224590   1.587   4.645   3.263
 8217TIP3   OH224591   8.316   5.844   6.525
 8217TIP3    H124592   8.253   5.772   6.521
 8217TIP3    H224593   8.344   5.855   6.434
 8218TIP3   OH224594   0.832   2.505   4.922
 8218TIP3    H124595   0.837   2.598   4.902
 8218TIP3    H224596   0.759   2.473   4.868
 8219TIP3   OH224597   2.675   1.028   0.694
 8219TIP3    H124598   2.677   1.117   0.730
 8219TIP3    H224599   2.746   1.027   0.630
 8220TIP3   OH224600   2.749   7.253   4.754
 8220TIP3    H124601   2.667   7.273   4.709
 8220TIP3    H224602   2.817   7.268   4.689
 8221TIP3   OH224603   2.112   6.470   1.292
 8221TIP3    H124604   2.053   6.539   1.323
 8221TIP3    H224605   2.167   6.450   1.368
 8222TIP3   OH224606   7.829   4.010   6.262
 8222TIP3    H124607   7.828   3.924   6.305
 8222TIP3    H224608   7.739   4.042   6.270
 8223TIP3   OH224609   2.545   1.844   5.944
 8223TIP3    H124610   2.593   1.809   6.019
 8223TIP3    H224611   2.552   1.939   5.953
 8224TIP3   OH224612   0.427   3.736   1.595
 8224TIP3    H124613   0.337   3.763   1.576
 8224TIP3    H224614   0.419   3.648   1.632
 8225TIP3   OH224615   1.931   6.940   5.203
 8225TIP3    H124616   1.995   6.921   5.272
 8225TIP3    H224617   1.961   7.022   5.164
 8226TIP3   OH224618   0.557   2.974   0.903
 8226TIP3    H124619   0.594   2.967   0.991
 8226TIP3    H224620   0.631   2.955   0.845
 8227TIP3   OH224621   7.726   4.443   0.330
 8227TIP3    H124622   7.719   4.382   0.257
 8227TIP3    H224623   7.757   4.390   0.403
 8228TIP3   OH224624   5.710   7.051   4.915
 8228TIP3    H124625   5.711   7.059   4.819
 8228TIP3    H224626   5.756   6.970   4.933
 8229TIP3   OH224627   3.941   4.145   5.960
 8229TIP3    H124628   3.881   4.218   5.943
 8229TIP3    H224629   3.997   4.176   6.031
 8230TIP3   OH224630   3.855   4.567   4.590
 8230TIP3    H124631   3.931   4.626   4.590
 8230TIP3    H224632   3.871   4.507   4.517
 8231TIP3   OH224633   8.081   7.838   6.760
 8231TIP3    H124634   8.118   7.753   6.735
 8231TIP3    H224635   8.064   7.830   6.854
 8232TIP3   OH224636   5.899   1.951   3.385
 8232TIP3    H124637   5.968   1.885   3.397
 8232TIP3    H224638   5.854   1.923   3.305
 8233TIP3   OH224639   4.589   1.437   4.253
 8233TIP3    H124640   4.522   1.506   4.262
 8233TIP3    H224641   4.622   1.447   4.165
 8234TIP3   OH224642   4.465   7.760   2.712
 8234TIP3    H124643   4.527   7.787   2.780
 8234TIP3    H224644   4.517   7.708   2.651
 8235TIP3   OH224645   2.514   5.894   3.816
 8235TIP3    H124646   2.602   5.896   3.777
 8235TIP3    H224647   2.527   5.862   3.905
 8236TIP3   OH224648   5.316   3.727   2.764
 8236TIP3    H124649   5.262   3.761   2.693
 8236TIP3    H224650   5.402   3.768   2.751
 8237TIP3   OH224651   6.286   0.654   3.576
 8237TIP3    H124652   6.204   0.616   3.609
 8237TIP3    H224653   6.299   0.733   3.629
 8238TIP3   OH224654   0.849   1.934   6.034
 8238TIP3    H124655   0.906   1.977   6.099
 8238TIP3    H224656   0.760   1.957   6.062
 8239TIP3   OH224657   7.130   6.073   1.622
 8239TIP3    H124658   7.065   6.129   1.666
 8239TIP3    H224659   7.180   6.033   1.693
 8240TIP3   OH224660   7.618   2.971   2.857
 8240TIP3    H124661   7.712   2.963   2.841
 8240TIP3    H224662   7.590   3.040   2.797
 8241TIP3   OH224663   5.985   4.035   6.155
 8241TIP3    H124664   5.982   3.957   6.099
 8241TIP3    H224665   5.924   4.014   6.226
 8242TIP3   OH224666   4.334   1.608   3.667
 8242TIP3    H124667   4.342   1.691   3.714
 8242TIP3    H224668   4.239   1.593   3.662
 8243TIP3   OH224669   7.392   1.553   5.760
 8243TIP3    H124670   7.460   1.574   5.697
 8243TIP3    H224671   7.411   1.464   5.789
 8244TIP3   OH224672   5.208   7.251   0.082
 8244TIP3    H124673   5.276   7.308   0.048
 8244TIP3    H224674   5.256   7.176   0.118
 8245TIP3   OH224675   7.874   5.633   5.967
 8245TIP3    H124676   7.891   5.727   5.964
 8245TIP3    H224677   7.898   5.607   6.056
 8246TIP3   OH224678   4.060   7.871   3.435
 8246TIP3    H124679   3.966   7.871   3.453
 8246TIP3    H224680   4.095   7.801   3.489
 8247TIP3   OH224681   5.819   7.458   5.909
 8247TIP3    H124682   5.793   7.461   5.817
 8247TIP3    H224683   5.851   7.546   5.928
 8248TIP3   OH224684   5.413   0.989   2.721
 8248TIP3    H124685   5.474   0.993   2.648
 8248TIP3    H224686   5.345   1.053   2.700
 8249TIP3   OH224687   4.418   3.928   0.502
 8249TIP3    H124688   4.421   3.833   0.513
 8249TIP3    H224689   4.498   3.960   0.542
 8250TIP3   OH224690   0.324   2.171   1.855
 8250TIP3    H124691   0.397   2.192   1.798
 8250TIP3    H224692   0.249   2.160   1.796
 8251TIP3   OH224693   7.996   6.423   6.176
 8251TIP3    H124694   7.911   6.414   6.219
 8251TIP3    H224695   8.050   6.354   6.214
 8252TIP3   OH224696   2.493   3.958   1.628
 8252TIP3    H124697   2.457   3.985   1.712
 8252TIP3    H224698   2.470   3.866   1.620
 8253TIP3   OH224699   1.575   4.182   4.091
 8253TIP3    H124700   1.576   4.266   4.046
 8253TIP3    H224701   1.530   4.200   4.174
 8254TIP3   OH224702   1.638   4.187   5.694
 8254TIP3    H124703   1.588   4.167   5.774
 8254TIP3    H224704   1.616   4.115   5.634
 8255TIP3   OH224705   5.958   0.415   1.695
 8255TIP3    H124706   5.997   0.481   1.753
 8255TIP3    H224707   5.948   0.461   1.611
 8256TIP3   OH224708   6.622   1.678   4.943
 8256TIP3    H124709   6.558   1.726   4.892
 8256TIP3    H224710   6.658   1.614   4.883
 8257TIP3   OH224711   1.775   3.895   2.833
 8257TIP3    H124712   1.681   3.890   2.817
 8257TIP3    H224713   1.782   3.917   2.926
 8258TIP3   OH224714   2.979   6.640   2.343
 8258TIP3    H124715   3.000   6.547   2.356
 8258TIP3    H224716   2.936   6.642   2.258
 8259TIP3   OH224717   5.403   3.007   0.486
 8259TIP3    H124718   5.467   2.941   0.514
 8259TIP3    H224719   5.367   2.972   0.404
 8260TIP3   OH224720   4.216   2.056   3.521
 8260TIP3    H124721   4.214   2.118   3.448
 8260TIP3    H224722   4.301   2.013   3.513
 8261TIP3   OH224723   7.527   1.966   4.553
 8261TIP3    H124724   7.487   2.048   4.584
 8261TIP3    H224725   7.475   1.897   4.593
 8262TIP3   OH224726   5.680   1.141   5.603
 8262TIP3    H124727   5.652   1.232   5.610
 8262TIP3    H224728   5.638   1.097   5.678
 8263TIP3   OH224729   2.589   4.452   5.196
 8263TIP3    H124730   2.505   4.407   5.185
 8263TIP3    H224731   2.595   4.468   5.290
 8264TIP3   OH224732   4.969   2.178   0.515
 8264TIP3    H124733   5.063   2.190   0.509
 8264TIP3    H224734   4.957   2.102   0.571
 8265TIP3   OH224735   0.209   6.278   3.261
 8265TIP3    H124736   0.240   6.228   3.336
 8265TIP3    H224737   0.134   6.227   3.227
 8266TIP3   OH224738   6.902   3.993   0.197
 8266TIP3    H124739   6.940   4.079   0.215
 8266TIP3    H224740   6.973   3.931   0.213
 8267TIP3   OH224741   0.989   4.438   3.065
 8267TIP3    H124742   0.939   4.358   3.053
 8267TIP3    H224743   0.923   4.508   3.069
 8268TIP3   OH224744   5.682   5.656   2.868
 8268TIP3    H124745   5.684   5.731   2.808
 8268TIP3    H224746   5.595   5.619   2.858
 8269TIP3   OH224747   3.105   5.598   6.673
 8269TIP3    H124748   3.091   5.652   6.595
 8269TIP3    H224749   3.035   5.624   6.732
 8270TIP3   OH224750   8.253   1.300   1.976
 8270TIP3    H124751   8.310   1.232   1.941
 8270TIP3    H224752   8.309   1.377   1.982
 8271TIP3   OH224753   3.460   6.718   2.447
 8271TIP3    H124754   3.437   6.648   2.386
 8271TIP3    H224755   3.407   6.793   2.418
 8272TIP3   OH224756   3.443   2.185   0.312
 8272TIP3    H124757   3.363   2.155   0.355
 8272TIP3    H224758   3.427   2.171   0.219
 8273TIP3   OH224759   5.526   3.589   1.469
 8273TIP3    H124760   5.554   3.538   1.393
 8273TIP3    H224761   5.547   3.534   1.544
 8274TIP3   OH224762   7.777   6.694   1.965
 8274TIP3    H124763   7.832   6.771   1.982
 8274TIP3    H224764   7.824   6.646   1.897
 8275TIP3   OH224765   1.269   5.485   1.582
 8275TIP3    H124766   1.346   5.427   1.581
 8275TIP3    H224767   1.195   5.427   1.563
 8276TIP3   OH224768   7.143   3.310   6.194
 8276TIP3    H124769   7.176   3.240   6.250
 8276TIP3    H224770   7.125   3.382   6.254
 8277TIP3   OH224771   4.164   4.327   2.926
 8277TIP3    H124772   4.148   4.421   2.913
 8277TIP3    H224773   4.078   4.287   2.913
 8278TIP3   OH224774   7.593   1.277   5.124
 8278TIP3    H124775   7.566   1.208   5.062
 8278TIP3    H224776   7.684   1.254   5.146
 8279TIP3   OH224777   3.352   5.524   2.887
 8279TIP3    H124778   3.398   5.527   2.803
 8279TIP3    H224779   3.263   5.554   2.866
 8280TIP3   OH224780   6.242   4.610   6.160
 8280TIP3    H124781   6.233   4.578   6.250
 8280TIP3    H224782   6.153   4.610   6.125
 8281TIP3   OH224783   1.381   5.912   1.648
 8281TIP3    H124784   1.358   5.929   1.739
 8281TIP3    H224785   1.465   5.866   1.653
 8282TIP3   OH224786   4.894   6.766   2.871
 8282TIP3    H124787   4.911   6.811   2.789
 8282TIP3    H224788   4.975   6.717   2.889
 8283TIP3   OH224789   0.049   2.372   5.735
 8283TIP3    H124790  -0.039   2.365   5.772
 8283TIP3    H224791   0.104   2.321   5.794
 8284TIP3   OH224792   5.623   0.460   5.443
 8284TIP3    H124793   5.701   0.486   5.492
 8284TIP3    H224794   5.552   0.469   5.506
 8285TIP3   OH224795   4.874   6.148   6.211
 8285TIP3    H124796   4.788   6.106   6.209
 8285TIP3    H224797   4.854   6.241   6.221
 8286TIP3   OH224798   1.009   3.637   0.580
 8286TIP3    H124799   1.103   3.632   0.564
 8286TIP3    H224800   0.996   3.723   0.621
 8287TIP3   OH224801   4.021   5.388   0.963
 8287TIP3    H124802   4.115   5.372   0.956
 8287TIP3    H224803   4.000   5.439   0.885
 8288TIP3   OH224804   3.480   5.757   5.268
 8288TIP3    H124805   3.498   5.764   5.174
 8288TIP3    H224806   3.385   5.744   5.272
 8289TIP3   OH224807   1.731   1.360   2.612
 8289TIP3    H124808   1.661   1.410   2.654
 8289TIP3    H224809   1.772   1.421   2.552
 8290TIP3   OH224810   3.413   6.734   3.833
 8290TIP3    H124811   3.404   6.675   3.908
 8290TIP3    H224812   3.367   6.814   3.859
 8291TIP3   OH224813   4.962   5.146   2.378
 8291TIP3    H124814   4.994   5.073   2.324
 8291TIP3    H224815   4.956   5.109   2.466
 8292TIP3   OH224816   5.951   0.949   3.730
 8292TIP3    H124817   5.867   0.971   3.691
 8292TIP3    H224818   6.013   0.956   3.658
 8293TIP3   OH224819   6.820   3.713   3.213
 8293TIP3    H124820   6.762   3.647   3.176
 8293TIP3    H224821   6.808   3.790   3.157
 8294TIP3   OH224822   2.768   1.468   5.013
 8294TIP3    H124823   2.787   1.481   4.920
 8294TIP3    H224824   2.701   1.533   5.033
 8295TIP3   OH224825   1.152   0.331   5.464
 8295TIP3    H124826   1.115   0.414   5.433
 8295TIP3    H224827   1.173   0.347   5.556
 8296TIP3   OH224828   4.589   5.885   4.229
 8296TIP3    H124829   4.512   5.936   4.204
 8296TIP3    H224830   4.658   5.916   4.170
 8297TIP3   OH224831   0.691   7.557   6.456
 8297TIP3    H124832   0.623   7.535   6.393
 8297TIP3    H224833   0.649   7.617   6.517
 8298TIP3   OH224834   6.076   7.059   5.824
 8298TIP3    H124835   6.103   7.077   5.914
 8298TIP3    H224836   6.029   7.138   5.796
 8299TIP3   OH224837   3.251   2.918   3.564
 8299TIP3    H124838   3.337   2.945   3.594
 8299TIP3    H224839   3.244   2.827   3.590
 8300TIP3   OH224840   1.316   3.471   0.952
 8300TIP3    H124841   1.321   3.566   0.965
 8300TIP3    H224842   1.325   3.458   0.858
 8301TIP3   OH224843   1.797   1.322   4.729
 8301TIP3    H124844   1.702   1.334   4.726
 8301TIP3    H224845   1.812   1.241   4.680
 8302TIP3   OH224846   0.376   2.492   2.485
 8302TIP3    H124847   0.463   2.463   2.457
 8302TIP3    H224848   0.376   2.482   2.580
 8303TIP3   OH224849   0.903   2.780   2.202
 8303TIP3    H124850   0.958   2.702   2.200
 8303TIP3    H224851   0.815   2.747   2.220
 8304TIP3   OH224852   3.571   0.966   5.385
 8304TIP3    H124853   3.652   0.918   5.367
 8304TIP3    H224854   3.527   0.915   5.453
 8305TIP3   OH224855   1.362   3.294   2.234
 8305TIP3    H124856   1.290   3.317   2.175
 8305TIP3    H224857   1.423   3.244   2.179
 8306TIP3   OH224858   2.435   1.297   3.667
 8306TIP3    H124859   2.342   1.275   3.671
 8306TIP3    H224860   2.449   1.353   3.743
 8307TIP3   OH224861   4.559   0.990   3.900
 8307TIP3    H124862   4.502   1.045   3.847
 8307TIP3    H224863   4.608   0.938   3.836
 8308TIP3   OH224864   3.993   5.101   1.291
 8308TIP3    H124865   4.062   5.135   1.348
 8308TIP3    H224866   3.977   5.171   1.228
 8309TIP3   OH224867   4.379   5.278   5.181
 8309TIP3    H124868   4.325   5.219   5.233
 8309TIP3    H224869   4.468   5.245   5.193
 8310TIP3   OH224870   2.054   6.178   3.274
 8310TIP3    H124871   1.970   6.195   3.316
 8310TIP3    H224872   2.044   6.211   3.185
 8311TIP3   OH224873   5.623   3.433   6.770
 8311TIP3    H124874   5.636   3.454   6.863
 8311TIP3    H224875   5.528   3.422   6.761
 8312TIP3   OH224876   6.224   7.862   0.787
 8312TIP3    H124877   6.175   7.783   0.764
 8312TIP3    H224878   6.278   7.880   0.710
 8313TIP3   OH224879   7.528   7.323   2.792
 8313TIP3    H124880   7.463   7.322   2.723
 8313TIP3    H224881   7.573   7.239   2.785
 8314TIP3   OH224882   2.497   3.226   6.034
 8314TIP3    H124883   2.403   3.220   6.051
 8314TIP3    H224884   2.533   3.271   6.110
 8315TIP3   OH224885   4.220   1.840   6.644
 8315TIP3    H124886   4.182   1.830   6.731
 8315TIP3    H224887   4.172   1.914   6.606
 8316TIP3   OH224888   2.639   2.882   4.835
 8316TIP3    H124889   2.582   2.833   4.776
 8316TIP3    H224890   2.583   2.906   4.909
 8317TIP3   OH224891   2.694   5.522   2.395
 8317TIP3    H124892   2.771   5.467   2.413
 8317TIP3    H224893   2.667   5.497   2.306
 8318TIP3   OH224894   4.582   6.520   6.229
 8318TIP3    H124895   4.676   6.522   6.213
 8318TIP3    H224896   4.572   6.555   6.318
 8319TIP3   OH224897   1.089   2.416   5.245
 8319TIP3    H124898   1.059   2.326   5.256
 8319TIP3    H224899   1.008   2.468   5.243
 8320TIP3   OH224900   2.060   3.003   3.970
 8320TIP3    H124901   2.018   2.917   3.968
 8320TIP3    H224902   2.153   2.984   3.975
 8321TIP3   OH224903   2.433   1.792   4.172
 8321TIP3    H124904   2.513   1.786   4.225
 8321TIP3    H224905   2.443   1.721   4.108
 8322TIP3   OH224906   0.327   7.361   4.023
 8322TIP3    H124907   0.384   7.437   4.031
 8322TIP3    H224908   0.294   7.365   3.933
 8323TIP3   OH224909   7.269   3.243   1.201
 8323TIP3    H124910   7.255   3.212   1.112
 8323TIP3    H224911   7.238   3.333   1.201
 8324TIP3   OH224912   5.881   1.813   4.194
 8324TIP3    H124913   5.844   1.877   4.255
 8324TIP3    H224914   5.945   1.863   4.143
 8325TIP3   OH224915   3.857   1.545   0.663
 8325TIP3    H124916   3.952   1.534   0.662
 8325TIP3    H224917   3.822   1.457   0.652
 8326TIP3   OH224918   5.557   0.489   0.193
 8326TIP3    H124919   5.573   0.458   0.104
 8326TIP3    H224920   5.548   0.409   0.245
 8327TIP3   OH224921   2.673   7.434   1.954
 8327TIP3    H124922   2.664   7.506   1.892
 8327TIP3    H224923   2.705   7.361   1.901
 8328TIP3   OH224924   1.615   4.029   6.191
 8328TIP3    H124925   1.535   3.978   6.182
 8328TIP3    H224926   1.643   4.046   6.101
 8329TIP3   OH224927   7.627   6.574   3.308
 8329TIP3    H124928   7.577   6.542   3.233
 8329TIP3    H224929   7.718   6.553   3.287
 8330TIP3   OH224930   7.281   5.288   1.749
 8330TIP3    H124931   7.199   5.277   1.702
 8330TIP3    H224932   7.267   5.244   1.833
 8331TIP3   OH224933   7.330   2.854   6.224
 8331TIP3    H124934   7.236   2.842   6.236
 8331TIP3    H224935   7.371   2.801   6.292
 8332TIP3   OH224936   7.750   0.113   0.894
 8332TIP3    H124937   7.822   0.096   0.834
 8332TIP3    H224938   7.671   0.094   0.843
 8333TIP3   OH224939   3.871   1.418   4.275
 8333TIP3    H124940   3.872   1.406   4.370
 8333TIP3    H224941   3.934   1.488   4.259
 8334TIP3   OH224942   2.740   1.354   3.184
 8334TIP3    H124943   2.663   1.411   3.184
 8334TIP3    H224944   2.706   1.268   3.211
 8335TIP3   OH224945   7.673   3.536   5.599
 8335TIP3    H124946   7.580   3.559   5.596
 8335TIP3    H224947   7.674   3.441   5.595
 8336TIP3   OH224948   1.625   5.937   6.141
 8336TIP3    H124949   1.556   5.971   6.198
 8336TIP3    H224950   1.693   5.908   6.201
 8337TIP3   OH224951   1.275   7.326   4.103
 8337TIP3    H124952   1.293   7.407   4.056
 8337TIP3    H224953   1.190   7.297   4.070
 8338TIP3   OH224954   6.592   2.748   2.455
 8338TIP3    H124955   6.515   2.731   2.400
 8338TIP3    H224956   6.597   2.844   2.460
 8339TIP3   OH224957   8.327   2.469   6.371
 8339TIP3    H124958   8.324   2.483   6.276
 8339TIP3    H224959   8.235   2.471   6.398
 8340TIP3   OH224960   5.892   5.477   2.921
 8340TIP3    H124961   5.823   5.536   2.891
 8340TIP3    H224962   5.971   5.531   2.923
 8341TIP3   OH224963   6.079   5.092   3.378
 8341TIP3    H124964   6.071   5.183   3.348
 8341TIP3    H224965   5.989   5.061   3.381
 8342TIP3   OH224966   4.295   3.033   4.397
 8342TIP3    H124967   4.374   3.085   4.382
 8342TIP3    H224968   4.224   3.096   4.392
 8343TIP3   OH224969   0.266   0.291   3.814
 8343TIP3    H124970   0.356   0.264   3.831
 8343TIP3    H224971   0.212   0.222   3.853
 8344TIP3   OH224972   1.492   1.811   5.526
 8344TIP3    H124973   1.471   1.755   5.601
 8344TIP3    H224974   1.414   1.865   5.514
 8345TIP3   OH224975   3.745   1.890   2.023
 8345TIP3    H124976   3.671   1.924   1.971
 8345TIP3    H224977   3.795   1.968   2.047
 8346TIP3   OH224978   4.581   1.726   3.310
 8346TIP3    H124979   4.494   1.691   3.325
 8346TIP3    H224980   4.640   1.652   3.328
 8347TIP3   OH224981   0.597   7.304   3.874
 8347TIP3    H124982   0.680   7.302   3.825
 8347TIP3    H224983   0.541   7.242   3.827
 8348TIP3   OH224984   6.329   4.369   1.382
 8348TIP3    H124985   6.290   4.426   1.316
 8348TIP3    H224986   6.418   4.402   1.393
 8349TIP3   OH224987   7.011   6.021   6.410
 8349TIP3    H124988   6.988   5.971   6.332
 8349TIP3    H224989   7.106   6.017   6.414
 8350TIP3   OH224990   0.645   4.605   2.800
 8350TIP3    H124991   0.674   4.534   2.859
 8350TIP3    H224992   0.711   4.673   2.811
 8351TIP3   OH224993   6.843   5.627   1.784
 8351TIP3    H124994   6.922   5.665   1.747
 8351TIP3    H224995   6.798   5.587   1.710
 8352TIP3   OH224996   1.182   4.407   0.009
 8352TIP3    H124997   1.214   4.412  -0.080
 8352TIP3    H224998   1.259   4.417   0.064
 8353TIP3   OH224999   1.197   0.830   0.012
 8353TIP3    H125000   1.148   0.748   0.007
 8353TIP3    H225001   1.289   0.804   0.005
 8354TIP3   OH225002   3.341   5.040   2.244
 8354TIP3    H125003   3.418   4.983   2.243
 8354TIP3    H225004   3.377   5.129   2.251
 8355TIP3   OH225005   3.368   4.465   3.911
 8355TIP3    H125006   3.304   4.531   3.938
 8355TIP3    H225007   3.317   4.400   3.862
 8356TIP3   OH225008   0.108   1.464   3.021
 8356TIP3    H125009   0.155   1.412   2.956
 8356TIP3    H225010   0.032   1.498   2.974
 8357TIP3   OH225011   4.703   2.343   4.413
 8357TIP3    H125012   4.614   2.379   4.406
 8357TIP3    H225013   4.722   2.345   4.507
 8358TIP3   OH225014   0.548   5.379   5.685
 8358TIP3    H125015   0.461   5.347   5.708
 8358TIP3    H225016   0.560   5.457   5.739
 8359TIP3   OH225017   0.509   7.123   5.206
 8359TIP3    H125018   0.595   7.090   5.184
 8359TIP3    H225019   0.463   7.048   5.245
 8360TIP3   OH225020   6.033   4.269   1.749
 8360TIP3    H125021   5.998   4.352   1.717
 8360TIP3    H225022   6.123   4.268   1.716
 8361TIP3   OH225023   0.097   5.237   5.982
 8361TIP3    H125024   0.188   5.252   5.956
 8361TIP3    H225025   0.066   5.322   6.014
 8362TIP3   OH225026   3.528   7.917   5.771
 8362TIP3    H125027   3.499   8.005   5.745
 8362TIP3    H225028   3.448   7.871   5.796
 8363TIP3   OH225029   6.195   5.441   2.609
 8363TIP3    H125030   6.235   5.391   2.680
 8363TIP3    H225031   6.183   5.529   2.644
 8364TIP3   OH225032   6.051   2.746   2.943
 8364TIP3    H125033   6.138   2.786   2.931
 8364TIP3    H225034   6.064   2.681   3.011
 8365TIP3   OH225035   6.238   5.805   5.387
 8365TIP3    H125036   6.182   5.767   5.319
 8365TIP3    H225037   6.317   5.834   5.341
 8366TIP3   OH225038   1.939   3.052   4.331
 8366TIP3    H125039   2.010   2.990   4.346
 8366TIP3    H225040   1.895   3.060   4.415
 8367TIP3   OH225041   0.687   2.002   5.058
 8367TIP3    H125042   0.750   2.074   5.057
 8367TIP3    H225043   0.737   1.925   5.032
 8368TIP3   OH225044   6.849   6.336   1.506
 8368TIP3    H125045   6.805   6.351   1.589
 8368TIP3    H225046   6.924   6.395   1.507
 8369TIP3   OH225047   2.197   6.207   5.302
 8369TIP3    H125048   2.231   6.296   5.307
 8369TIP3    H225049   2.104   6.217   5.323
 8370TIP3   OH225050   3.299   4.037   3.065
 8370TIP3    H125051   3.250   4.024   2.984
 8370TIP3    H225052   3.330   3.950   3.089
 8371TIP3   OH225053   2.748   4.782   2.588
 8371TIP3    H125054   2.734   4.689   2.609
 8371TIP3    H225055   2.836   4.784   2.550
 8372TIP3   OH225056   6.358   7.225   6.764
 8372TIP3    H125057   6.347   7.235   6.858
 8372TIP3    H225058   6.348   7.314   6.729
 8373TIP3   OH225059   0.056   2.338   5.429
 8373TIP3    H125060   0.076   2.332   5.523
 8373TIP3    H225061   0.141   2.357   5.388
 8374TIP3   OH225062   3.752   3.977   1.859
 8374TIP3    H125063   3.815   3.908   1.881
 8374TIP3    H225064   3.742   4.027   1.939
 8375TIP3   OH225065   7.903   0.920   5.579
 8375TIP3    H125066   7.823   0.924   5.631
 8375TIP3    H225067   7.893   0.840   5.527
 8376TIP3   OH225068   2.787   5.147   6.533
 8376TIP3    H125069   2.709   5.198   6.510
 8376TIP3    H225070   2.857   5.213   6.540
 8377TIP3   OH225071   8.351   2.036   3.362
 8377TIP3    H125072   8.267   2.040   3.406
 8377TIP3    H225073   8.339   2.085   3.281
 8378TIP3   OH225074   4.031   7.333   0.653
 8378TIP3    H125075   4.121   7.342   0.686
 8378TIP3    H225076   3.984   7.288   0.724
 8379TIP3   OH225077   1.880   5.597   1.138
 8379TIP3    H125078   1.788   5.593   1.114
 8379TIP3    H225079   1.923   5.636   1.062
 8380TIP3   OH225080   6.194   3.438   4.759
 8380TIP3    H125081   6.210   3.347   4.785
 8380TIP3    H225082   6.112   3.434   4.708
 8381TIP3   OH225083   4.138   3.457   0.249
 8381TIP3    H125084   4.045   3.438   0.240
 8381TIP3    H225085   4.141   3.542   0.294
 8382TIP3   OH225086   3.997   7.897   6.901
 8382TIP3    H125087   3.962   7.863   6.819
 8382TIP3    H225088   3.938   7.863   6.968
 8383TIP3   OH225089   2.364   6.422   2.238
 8383TIP3    H125090   2.331   6.428   2.148
 8383TIP3    H225091   2.456   6.449   2.232
 8384TIP3   OH225092   1.675   7.310   5.748
 8384TIP3    H125093   1.592   7.351   5.725
 8384TIP3    H225094   1.674   7.306   5.844
 8385TIP3   OH225095   4.190   5.940   1.539
 8385TIP3    H125096   4.234   5.880   1.599
 8385TIP3    H225097   4.097   5.917   1.546
 8386TIP3   OH225098   4.314   2.585   3.525
 8386TIP3    H125099   4.228   2.554   3.553
 8386TIP3    H225100   4.362   2.600   3.607
 8387TIP3   OH225101   1.875   1.698   0.038
 8387TIP3    H125102   1.945   1.645  -0.001
 8387TIP3    H225103   1.798   1.680  -0.016
 8388TIP3   OH225104   0.203   6.911   1.963
 8388TIP3    H125105   0.225   6.999   1.995
 8388TIP3    H225106   0.245   6.852   2.025
 8389TIP3   OH225107   7.249   7.761   5.172
 8389TIP3    H125108   7.274   7.699   5.103
 8389TIP3    H225109   7.292   7.727   5.251
 8390TIP3   OH225110   2.397   5.036   2.787
 8390TIP3    H125111   2.390   4.956   2.733
 8390TIP3    H225112   2.458   5.012   2.857
 8391TIP3   OH225113   7.359   0.075   4.009
 8391TIP3    H125114   7.448   0.064   4.043
 8391TIP3    H225115   7.370   0.086   3.915
 8392TIP3   OH225116   2.309   2.729   6.422
 8392TIP3    H125117   2.285   2.639   6.445
 8392TIP3    H225118   2.225   2.774   6.410
 8393TIP3   OH225119   2.844   3.196   0.627
 8393TIP3    H125120   2.829   3.269   0.566
 8393TIP3    H225121   2.799   3.223   0.707
 8394TIP3   OH225122   7.968   7.739   0.728
 8394TIP3    H125123   7.874   7.753   0.742
 8394TIP3    H225124   7.978   7.739   0.632
 8395TIP3   OH225125   8.342   6.283   6.273
 8395TIP3    H125126   8.250   6.257   6.275
 8395TIP3    H225127   8.369   6.282   6.365
 8396TIP3   OH225128   0.421   6.756   5.129
 8396TIP3    H125129   0.328   6.758   5.107
 8396TIP3    H225130   0.464   6.806   5.060
 8397TIP3   OH225131   7.917   4.140   6.520
 8397TIP3    H125132   7.854   4.149   6.448
 8397TIP3    H225133   7.981   4.076   6.488
 8398TIP3   OH225134   3.520   4.329   1.783
 8398TIP3    H125135   3.573   4.361   1.856
 8398TIP3    H225136   3.547   4.383   1.708
 8399TIP3   OH225137   5.168   5.450   4.278
 8399TIP3    H125138   5.187   5.482   4.190
 8399TIP3    H225139   5.202   5.519   4.336
 8400TIP3   OH225140   6.104   3.050   3.422
 8400TIP3    H125141   6.133   2.967   3.384
 8400TIP3    H225142   6.181   3.107   3.416
 8401TIP3   OH225143   4.591   3.378   5.957
 8401TIP3    H125144   4.502   3.402   5.982
 8401TIP3    H225145   4.615   3.442   5.889
 8402TIP3   OH225146   6.532   1.973   6.023
 8402TIP3    H125147   6.514   2.006   6.110
 8402TIP3    H225148   6.598   1.904   6.036
 8403TIP3   OH225149   4.067   7.309   2.680
 8403TIP3    H125150   4.029   7.397   2.679
 8403TIP3    H225151   4.073   7.284   2.588
 8404TIP3   OH225152   4.380   5.775   3.219
 8404TIP3    H125153   4.416   5.775   3.307
 8404TIP3    H225154   4.321   5.850   3.216
 8405TIP3   OH225155   4.833   5.086   5.391
 8405TIP3    H125156   4.899   5.124   5.333
 8405TIP3    H225157   4.863   4.997   5.409
 8406TIP3   OH225158   0.187   6.764   5.471
 8406TIP3    H125159   0.219   6.718   5.549
 8406TIP3    H225160   0.127   6.830   5.505
 8407TIP3   OH225161   8.324   6.224   5.041
 8407TIP3    H125162   8.406   6.274   5.041
 8407TIP3    H225163   8.274   6.261   4.969
 8408TIP3   OH225164   7.575   0.901   0.331
 8408TIP3    H125165   7.642   0.864   0.389
 8408TIP3    H225166   7.498   0.846   0.345
 8409TIP3   OH225167   1.807   5.553   4.434
 8409TIP3    H125168   1.815   5.648   4.419
 8409TIP3    H225169   1.869   5.535   4.504
 8410TIP3   OH225170   4.278   2.164   1.070
 8410TIP3    H125171   4.305   2.095   1.130
 8410TIP3    H225172   4.252   2.118   0.990
 8411TIP3   OH225173   6.610   2.500   2.571
 8411TIP3    H125174   6.670   2.449   2.518
 8411TIP3    H225175   6.605   2.585   2.526
 8412TIP3   OH225176   0.517   4.629   0.023
 8412TIP3    H125177   0.543   4.712  -0.019
 8412TIP3    H225178   0.527   4.646   0.117
 8413TIP3   OH225179   2.364   6.863   1.294
 8413TIP3    H125180   2.384   6.929   1.228
 8413TIP3    H225181   2.450   6.841   1.331
 8414TIP3   OH225182   4.465   5.611   0.693
 8414TIP3    H125183   4.377   5.582   0.714
 8414TIP3    H225184   4.461   5.707   0.702
 8415TIP3   OH225185   1.147   5.086   4.966
 8415TIP3    H125186   1.203   5.157   4.999
 8415TIP3    H225187   1.132   5.108   4.874
 8416TIP3   OH225188   2.253   0.753   5.910
 8416TIP3    H125189   2.296   0.784   5.989
 8416TIP3    H225190   2.315   0.771   5.839
 8417TIP3   OH225191   1.851   0.006   2.832
 8417TIP3    H125192   1.920   0.050   2.881
 8417TIP3    H225193   1.785   0.073   2.817
 8418TIP3   OH225194   3.680   4.012   0.213
 8418TIP3    H125195   3.647   4.092   0.255
 8418TIP3    H225196   3.760   4.040   0.169
 8419TIP3   OH225197   2.590   2.623   2.599
 8419TIP3    H125198   2.638   2.548   2.564
 8419TIP3    H225199   2.652   2.696   2.592
 8420TIP3   OH225200   4.318   6.593   4.039
 8420TIP3    H125201   4.398   6.632   4.075
 8420TIP3    H225202   4.253   6.604   4.108
 8421TIP3   OH225203   3.314   6.569   1.974
 8421TIP3    H125204   3.329   6.644   1.916
 8421TIP3    H225205   3.292   6.608   2.058
 8422TIP3   OH225206   0.094   4.563   2.537
 8422TIP3    H125207   0.176   4.612   2.534
 8422TIP3    H225208   0.094   4.510   2.457
 8423TIP3   OH225209   5.032   1.027   2.048
 8423TIP3    H125210   5.114   0.989   2.016
 8423TIP3    H225211   4.978   0.952   2.071
 8424TIP3   OH225212   1.287   6.379   2.573
 8424TIP3    H125213   1.192   6.394   2.566
 8424TIP3    H225214   1.300   6.291   2.537
 8425TIP3   OH225215   3.336   5.688   2.554
 8425TIP3    H125216   3.285   5.761   2.518
 8425TIP3    H225217   3.306   5.611   2.505
 8426TIP3   OH225218   6.495   7.598   0.567
 8426TIP3    H125219   6.442   7.676   0.583
 8426TIP3    H225220   6.548   7.587   0.646
 8427TIP3   OH225221   3.932   0.489   2.859
 8427TIP3    H125222   3.846   0.495   2.817
 8427TIP3    H225223   3.973   0.412   2.820
 8428TIP3   OH225224   0.434   2.142   1.015
 8428TIP3    H125225   0.464   2.051   1.011
 8428TIP3    H225226   0.359   2.140   1.074
 8429TIP3   OH225227   4.370   6.057   2.937
 8429TIP3    H125228   4.300   6.011   2.982
 8429TIP3    H225229   4.369   6.022   2.848
 8430TIP3   OH225230   7.782   5.678   1.689
 8430TIP3    H125231   7.828   5.600   1.658
 8430TIP3    H225232   7.851   5.740   1.712
 8431TIP3   OH225233   6.319   4.698   2.604
 8431TIP3    H125234   6.319   4.761   2.676
 8431TIP3    H225235   6.296   4.614   2.644
 8432TIP3   OH225236   7.892   5.252   6.717
 8432TIP3    H125237   7.805   5.222   6.690
 8432TIP3    H225238   7.933   5.174   6.754
 8433TIP3   OH225239   1.144   4.970   5.465
 8433TIP3    H125240   1.068   5.028   5.470
 8433TIP3    H225241   1.138   4.929   5.379
 8434TIP3   OH225242   7.286   3.442   5.174
 8434TIP3    H125243   7.240   3.373   5.127
 8434TIP3    H225244   7.221   3.510   5.188
 8435TIP3   OH225245   3.364   1.121   5.594
 8435TIP3    H125246   3.345   1.213   5.612
 8435TIP3    H225247   3.421   1.123   5.517
 8436TIP3   OH225248   4.385   5.601   5.917
 8436TIP3    H125249   4.453   5.568   5.976
 8436TIP3    H225250   4.315   5.535   5.923
 8437TIP3   OH225251   7.325   0.975   1.024
 8437TIP3    H125252   7.319   0.891   1.070
 8437TIP3    H225253   7.269   0.964   0.948
 8438TIP3   OH225254   0.583   2.127   1.512
 8438TIP3    H125255   0.567   2.190   1.442
 8438TIP3    H225256   0.677   2.128   1.525
 8439TIP3   OH225257   8.320   6.786   6.388
 8439TIP3    H125258   8.236   6.755   6.354
 8439TIP3    H225259   8.317   6.765   6.481
 8440TIP3   OH225260   4.605   4.954   1.081
 8440TIP3    H125261   4.673   4.887   1.093
 8440TIP3    H225262   4.526   4.904   1.060
 8441TIP3   OH225263   5.368   3.228   2.839
 8441TIP3    H125264   5.339   3.317   2.861
 8441TIP3    H225265   5.384   3.187   2.924
 8442TIP3   OH225266   5.150   6.049   4.396
 8442TIP3    H125267   5.109   5.966   4.421
 8442TIP3    H225268   5.237   6.046   4.436
 8443TIP3   OH225269   7.171   2.025   5.751
 8443TIP3    H125270   7.186   1.946   5.698
 8443TIP3    H225271   7.182   2.097   5.690
 8444TIP3   OH225272   3.699   4.683   1.597
 8444TIP3    H125273   3.685   4.588   1.591
 8444TIP3    H225274   3.758   4.693   1.671
 8445TIP3   OH225275   7.010   3.464   5.508
 8445TIP3    H125276   7.005   3.556   5.481
 8445TIP3    H225277   7.030   3.468   5.602
 8446TIP3   OH225278   3.389   0.559   1.734
 8446TIP3    H125279   3.461   0.594   1.787
 8446TIP3    H225280   3.407   0.465   1.730
 8447TIP3   OH225281   1.934   3.524   5.279
 8447TIP3    H125282   1.882   3.549   5.355
 8447TIP3    H225283   1.871   3.519   5.207
 8448TIP3   OH225284   2.060   1.450   5.992
 8448TIP3    H125285   2.044   1.388   5.921
 8448TIP3    H225286   2.101   1.525   5.950
 8449TIP3   OH225287   1.264   3.021   3.892
 8449TIP3    H125288   1.242   3.059   3.977
 8449TIP3    H225289   1.319   3.087   3.849
 8450TIP3   OH225290   5.167   2.027   3.185
 8450TIP3    H125291   5.156   1.970   3.261
 8450TIP3    H225292   5.137   1.974   3.111
 8451TIP3   OH225293   7.663   6.536   0.495
 8451TIP3    H125294   7.698   6.531   0.406
 8451TIP3    H225295   7.738   6.517   0.551
 8452TIP3   OH225296   4.940   4.458   3.549
 8452TIP3    H125297   4.882   4.392   3.587
 8452TIP3    H225298   4.909   4.541   3.587
 8453TIP3   OH225299   4.735   5.689   0.773
 8453TIP3    H125300   4.651   5.697   0.729
 8453TIP3    H225301   4.800   5.704   0.704
 8454TIP3   OH225302   4.901   7.813   1.396
 8454TIP3    H125303   4.845   7.818   1.319
 8454TIP3    H225304   4.853   7.858   1.465
 8455TIP3   OH225305   3.717   3.654   4.987
 8455TIP3    H125306   3.786   3.677   5.050
 8455TIP3    H225307   3.752   3.578   4.940
 8456TIP3   OH225308   4.303   7.023   6.207
 8456TIP3    H125309   4.335   6.933   6.214
 8456TIP3    H225310   4.359   7.074   6.265
 8457TIP3   OH225311   6.770   4.562   3.839
 8457TIP3    H125312   6.689   4.610   3.823
 8457TIP3    H225313   6.743   4.486   3.890
 8458TIP3   OH225314   7.632   5.850   3.101
 8458TIP3    H125315   7.673   5.764   3.113
 8458TIP3    H225316   7.637   5.866   3.007
 8459TIP3   OH225317   0.164   1.579   0.919
 8459TIP3    H125318   0.071   1.560   0.919
 8459TIP3    H225319   0.169   1.674   0.931
 8460TIP3   OH225320   4.784   0.639   1.218
 8460TIP3    H125321   4.733   0.612   1.294
 8460TIP3    H225322   4.797   0.733   1.229
 8461TIP3   OH225323   5.898   6.200   6.475
 8461TIP3    H125324   5.900   6.109   6.445
 8461TIP3    H225325   5.987   6.232   6.459
 8462TIP3   OH225326   0.672   5.714   6.754
 8462TIP3    H125327   0.665   5.733   6.660
 8462TIP3    H225328   0.605   5.647   6.770
 8463TIP3   OH225329   3.238   4.833   1.169
 8463TIP3    H125330   3.264   4.741   1.176
 8463TIP3    H225331   3.153   4.837   1.211
 8464TIP3   OH225332   3.615   5.780   4.766
 8464TIP3    H125333   3.675   5.855   4.768
 8464TIP3    H225334   3.652   5.722   4.698
 8465TIP3   OH225335   5.566   6.517   6.699
 8465TIP3    H125336   5.522   6.584   6.646
 8465TIP3    H225337   5.658   6.524   6.676
 8466TIP3   OH225338   1.589   2.448   2.821
 8466TIP3    H125339   1.535   2.430   2.898
 8466TIP3    H225340   1.568   2.538   2.797
 8467TIP3   OH225341   3.689   6.943   3.036
 8467TIP3    H125342   3.749   6.912   2.968
 8467TIP3    H225343   3.604   6.907   3.012
 8468TIP3   OH225344   1.872   7.304   2.223
 8468TIP3    H125345   1.866   7.374   2.158
 8468TIP3    H225346   1.814   7.236   2.189
 8469TIP3   OH225347   5.589   6.036   4.159
 8469TIP3    H125348   5.517   6.010   4.216
 8469TIP3    H225349   5.550   6.042   4.072
 8470TIP3   OH225350   6.680   7.286   2.813
 8470TIP3    H125351   6.605   7.258   2.866
 8470TIP3    H225352   6.641   7.325   2.735
 8471TIP3   OH225353   4.497   2.865   6.335
 8471TIP3    H125354   4.403   2.864   6.319
 8471TIP3    H225355   4.511   2.797   6.401
 8472TIP3   OH225356   4.151   1.074   4.990
 8472TIP3    H125357   4.230   1.020   4.995
 8472TIP3    H225358   4.148   1.120   5.074
 8473TIP3   OH225359   1.109   5.976   5.232
 8473TIP3    H125360   1.115   6.054   5.287
 8473TIP3    H225361   1.090   6.010   5.145
 8474TIP3   OH225362   7.526   1.694   3.472
 8474TIP3    H125363   7.450   1.693   3.414
 8474TIP3    H225364   7.580   1.621   3.443
 8475TIP3   OH225365   4.059   1.521   0.120
 8475TIP3    H125366   4.034   1.532   0.211
 8475TIP3    H225367   4.007   1.585   0.072
 8476TIP3   OH225368   8.081   0.495   6.653
 8476TIP3    H125369   8.145   0.431   6.620
 8476TIP3    H225370   8.133   0.573   6.671
 8477TIP3   OH225371   6.496   5.993   4.813
 8477TIP3    H125372   6.533   5.912   4.779
 8477TIP3    H225373   6.569   6.037   4.856
 8478TIP3   OH225374   4.580   6.840   0.285
 8478TIP3    H125375   4.585   6.924   0.332
 8478TIP3    H225376   4.488   6.815   0.290
 8479TIP3   OH225377   7.107   6.388   3.123
 8479TIP3    H125378   7.154   6.449   3.067
 8479TIP3    H225379   7.140   6.405   3.211
 8480TIP3   OH225380   8.228   5.535   1.113
 8480TIP3    H125381   8.249   5.503   1.025
 8480TIP3    H225382   8.135   5.556   1.110
 8481TIP3   OH225383   6.915   2.627   6.506
 8481TIP3    H125384   6.960   2.562   6.560
 8481TIP3    H225385   6.869   2.576   6.439
 8482TIP3   OH225386   0.582   0.455   5.575
 8482TIP3    H125387   0.618   0.367   5.575
 8482TIP3    H225388   0.501   0.448   5.525
 8483TIP3   OH225389   1.102   1.397   3.096
 8483TIP3    H125390   1.103   1.324   3.034
 8483TIP3    H225391   1.024   1.448   3.073
 8484TIP3   OH225392   7.657   0.884   2.844
 8484TIP3    H125393   7.587   0.838   2.891
 8484TIP3    H225394   7.617   0.906   2.760
 8485TIP3   OH225395   2.976   1.130   6.760
 8485TIP3    H125396   2.927   1.062   6.806
 8485TIP3    H225397   2.994   1.093   6.674
 8486TIP3   OH225398   2.765   1.927   2.597
 8486TIP3    H125399   2.831   1.881   2.649
 8486TIP3    H225400   2.681   1.893   2.628
 8487TIP3   OH225401   6.268   3.642   2.612
 8487TIP3    H125402   6.353   3.625   2.571
 8487TIP3    H225403   6.205   3.605   2.550
 8488TIP3   OH225404   5.296   7.460   2.533
 8488TIP3    H125405   5.242   7.395   2.488
 8488TIP3    H225406   5.358   7.409   2.585
 8489TIP3   OH225407   4.551   0.386   4.773
 8489TIP3    H125408   4.544   0.319   4.705
 8489TIP3    H225409   4.548   0.469   4.726
 8490TIP3   OH225410   0.310   1.921   3.680
 8490TIP3    H125411   0.269   1.908   3.765
 8490TIP3    H225412   0.404   1.921   3.698
 8491TIP3   OH225413   5.569   1.150   0.539
 8491TIP3    H125414   5.590   1.079   0.479
 8491TIP3    H225415   5.574   1.110   0.626
 8492TIP3   OH225416   4.272   1.372   4.808
 8492TIP3    H125417   4.307   1.342   4.724
 8492TIP3    H225418   4.220   1.299   4.841
 8493TIP3   OH225419   7.891   1.444   5.992
 8493TIP3    H125420   7.829   1.406   5.929
 8493TIP3    H225421   7.838   1.463   6.069
 8494TIP3   OH225422   6.247   5.296   1.821
 8494TIP3    H125423   6.230   5.347   1.901
 8494TIP3    H225424   6.241   5.359   1.750
 8495TIP3   OH225425   0.071   6.932   0.832
 8495TIP3    H125426  -0.002   6.984   0.799
 8495TIP3    H225427   0.141   6.947   0.768
 8496TIP3   OH225428   3.277   3.745   0.405
 8496TIP3    H125429   3.361   3.757   0.360
 8496TIP3    H225430   3.219   3.709   0.337
 8497TIP3   OH225431   1.486   1.860   0.390
 8497TIP3    H125432   1.573   1.900   0.393
 8497TIP3    H225433   1.490   1.801   0.315
 8498TIP3   OH225434   3.114   1.608   6.671
 8498TIP3    H125435   3.183   1.644   6.615
 8498TIP3    H225436   3.146   1.620   6.760
 8499TIP3   OH225437   6.680   2.783   4.073
 8499TIP3    H125438   6.747   2.823   4.128
 8499TIP3    H225439   6.729   2.728   4.011
 8500TIP3   OH225440   0.139   7.528   2.712
 8500TIP3    H125441   0.166   7.610   2.754
 8500TIP3    H225442   0.216   7.472   2.717
 8501TIP3   OH225443   2.443   4.624   6.709
 8501TIP3    H125444   2.449   4.693   6.642
 8501TIP3    H225445   2.503   4.556   6.679
 8502TIP3   OH225446   1.672   3.401   4.762
 8502TIP3    H125447   1.624   3.419   4.843
 8502TIP3    H225448   1.758   3.371   4.791
 8503TIP3   OH225449   7.631   0.882   4.079
 8503TIP3    H125450   7.697   0.853   4.142
 8503TIP3    H225451   7.552   0.895   4.132
 8504TIP3   OH225452   7.869   1.817   5.915
 8504TIP3    H125453   7.929   1.892   5.909
 8504TIP3    H225454   7.839   1.804   5.825
 8505TIP3   OH225455   5.091   5.763   2.765
 8505TIP3    H125456   5.170   5.709   2.767
 8505TIP3    H225457   5.088   5.804   2.851
 8506TIP3   OH225458   6.202   6.365   2.857
 8506TIP3    H125459   6.295   6.381   2.842
 8506TIP3    H225460   6.172   6.321   2.778
 8507TIP3   OH225461   4.505   7.826   6.786
 8507TIP3    H125462   4.422   7.848   6.744
 8507TIP3    H225463   4.519   7.896   6.849
 8508TIP3   OH225464   0.151   7.627   0.936
 8508TIP3    H125465   0.137   7.696   0.871
 8508TIP3    H225466   0.072   7.573   0.932
 8509TIP3   OH225467   1.346   5.329   3.704
 8509TIP3    H125468   1.259   5.303   3.736
 8509TIP3    H225469   1.360   5.274   3.626
 8510TIP3   OH225470   4.867   7.610   4.234
 8510TIP3    H125471   4.928   7.590   4.164
 8510TIP3    H225472   4.896   7.556   4.308
 8511TIP3   OH225473   5.620   4.636   1.624
 8511TIP3    H125474   5.703   4.614   1.668
 8511TIP3    H225475   5.640   4.629   1.531
 8512TIP3   OH225476   4.109   4.799   6.077
 8512TIP3    H125477   4.097   4.707   6.053
 8512TIP3    H225478   4.095   4.801   6.172
 8513TIP3   OH225479   0.710   0.047   1.307
 8513TIP3    H125480   0.721   0.023   1.215
 8513TIP3    H225481   0.768   0.122   1.319
 8514TIP3   OH225482   6.194   3.669   4.549
 8514TIP3    H125483   6.133   3.646   4.619
 8514TIP3    H225484   6.160   3.626   4.471
 8515TIP3   OH225485   6.751   4.413   4.954
 8515TIP3    H125486   6.709   4.488   4.910
 8515TIP3    H225487   6.845   4.429   4.943
 8516TIP3   OH225488   3.956   6.187   0.962
 8516TIP3    H125489   3.887   6.205   0.899
 8516TIP3    H225490   4.024   6.142   0.911
 8517TIP3   OH225491   3.890   4.422   0.948
 8517TIP3    H125492   3.936   4.491   0.996
 8517TIP3    H225493   3.799   4.429   0.978
 8518TIP3   OH225494   8.184   4.942   1.627
 8518TIP3    H125495   8.182   4.899   1.713
 8518TIP3    H225496   8.133   4.884   1.571
 8519TIP3   OH225497   1.735   6.099   2.928
 8519TIP3    H125498   1.648   6.136   2.946
 8519TIP3    H225499   1.788   6.173   2.900
 8520TIP3   OH225500   5.092   7.271   2.484
 8520TIP3    H125501   5.143   7.224   2.418
 8520TIP3    H225502   5.016   7.216   2.500
 8521TIP3   OH225503   2.706   7.380   4.310
 8521TIP3    H125504   2.724   7.472   4.291
 8521TIP3    H225505   2.649   7.382   4.387
 8522TIP3   OH225506   1.482   6.636   0.802
 8522TIP3    H125507   1.520   6.672   0.722
 8522TIP3    H225508   1.555   6.593   0.845
 8523TIP3   OH225509   5.302   5.258   0.024
 8523TIP3    H125510   5.237   5.298   0.082
 8523TIP3    H225511   5.274   5.281  -0.064
 8524TIP3   OH225512   0.835   2.229   5.010
 8524TIP3    H125513   0.832   2.202   4.918
 8524TIP3    H225514   0.916   2.280   5.017
 8525TIP3   OH225515   7.323   6.998   3.433
 8525TIP3    H125516   7.386   6.935   3.399
 8525TIP3    H225517   7.376   7.069   3.468
 8526TIP3   OH225518   0.587   1.622   1.108
 8526TIP3    H125519   0.654   1.626   1.039
 8526TIP3    H225520   0.527   1.553   1.078
 8527TIP3   OH225521   6.422   1.288   4.112
 8527TIP3    H125522   6.443   1.199   4.139
 8527TIP3    H225523   6.475   1.302   4.033
 8528TIP3   OH225524   7.728   1.623   4.904
 8528TIP3    H125525   7.662   1.691   4.888
 8528TIP3    H225526   7.729   1.612   4.999
 8529TIP3   OH225527   3.778   2.233   5.036
 8529TIP3    H125528   3.833   2.227   4.958
 8529TIP3    H225529   3.722   2.155   5.031
 8530TIP3   OH225530   6.064   5.092   4.567
 8530TIP3    H125531   6.137   5.135   4.610
 8530TIP3    H225532   6.082   4.998   4.578
 8531TIP3   OH225533   5.477   2.741   0.437
 8531TIP3    H125534   5.509   2.661   0.480
 8531TIP3    H225535   5.394   2.714   0.397
 8532TIP3   OH225536   7.858   0.387   1.811
 8532TIP3    H125537   7.949   0.410   1.792
 8532TIP3    H225538   7.853   0.388   1.907
 8533TIP3   OH225539   8.243   1.033   3.352
 8533TIP3    H125540   8.255   1.104   3.289
 8533TIP3    H225541   8.278   1.068   3.435
 8534TIP3   OH225542   3.720   1.496   6.315
 8534TIP3    H125543   3.803   1.494   6.363
 8534TIP3    H225544   3.681   1.581   6.336
 8535TIP3   OH225545   5.374   5.450   5.947
 8535TIP3    H125546   5.370   5.422   5.855
 8535TIP3    H225547   5.334   5.537   5.946
 8536TIP3   OH225548   3.644   1.661   3.172
 8536TIP3    H125549   3.688   1.736   3.211
 8536TIP3    H225550   3.557   1.695   3.147
 8537TIP3   OH225551   2.115   6.572   0.794
 8537TIP3    H125552   2.108   6.543   0.884
 8537TIP3    H225553   2.208   6.567   0.774
 8538TIP3   OH225554   3.639   1.718   0.622
 8538TIP3    H125555   3.676   1.807   0.622
 8538TIP3    H225556   3.716   1.661   0.624
 8539TIP3   OH225557   1.783   6.370   4.577
 8539TIP3    H125558   1.709   6.372   4.638
 8539TIP3    H225559   1.790   6.460   4.545
 8540TIP3   OH225560   1.284   7.232   2.933
 8540TIP3    H125561   1.194   7.257   2.950
 8540TIP3    H225562   1.320   7.304   2.881
 8541TIP3   OH225563   3.182   5.093   2.872
 8541TIP3    H125564   3.162   5.165   2.930
 8541TIP3    H225565   3.129   5.020   2.905
 8542TIP3   OH225566   5.083   2.007   2.476
 8542TIP3    H125567   5.130   2.085   2.446
 8542TIP3    H225568   5.100   1.941   2.409
 8543TIP3   OH225569   6.942   5.155   4.075
 8543TIP3    H125570   6.995   5.123   4.002
 8543TIP3    H225571   7.005   5.195   4.135
 8544TIP3   OH225572   3.997   1.227   5.681
 8544TIP3    H125573   4.047   1.285   5.624
 8544TIP3    H225574   3.930   1.190   5.624
 8545TIP3   OH225575   6.577   1.768   3.928
 8545TIP3    H125576   6.540   1.805   4.008
 8545TIP3    H225577   6.636   1.837   3.896
 8546TIP3   OH225578   2.663   5.944   4.763
 8546TIP3    H125579   2.595   5.951   4.830
 8546TIP3    H225580   2.621   5.900   4.690
 8547TIP3   OH225581   1.069   1.205   0.655
 8547TIP3    H125582   1.146   1.250   0.689
 8547TIP3    H225583   1.008   1.276   0.633
 8548TIP3   OH225584   1.881   3.675   2.727
 8548TIP3    H125585   1.847   3.756   2.764
 8548TIP3    H225586   1.835   3.665   2.644
 8549TIP3   OH225587   2.916   7.530   6.104
 8549TIP3    H125588   2.956   7.523   6.017
 8549TIP3    H225589   2.852   7.458   6.107
 8550TIP3   OH225590   0.589   6.531   5.145
 8550TIP3    H125591   0.663   6.552   5.089
 8550TIP3    H225592   0.519   6.589   5.116
 8551TIP3   OH225593   2.260   5.359   0.571
 8551TIP3    H125594   2.208   5.391   0.497
 8551TIP3    H225595   2.349   5.385   0.551
 8552TIP3   OH225596   5.737   1.173   4.737
 8552TIP3    H125597   5.732   1.079   4.754
 8552TIP3    H225598   5.827   1.196   4.759
 8553TIP3   OH225599   8.327   1.395   0.318
 8553TIP3    H125600   8.418   1.389   0.348
 8553TIP3    H225601   8.327   1.470   0.258
 8554TIP3   OH225602   3.832   6.864   6.752
 8554TIP3    H125603   3.925   6.879   6.770
 8554TIP3    H225604   3.828   6.849   6.658
 8555TIP3   OH225605   7.351   4.635   6.726
 8555TIP3    H125606   7.428   4.661   6.676
 8555TIP3    H225607   7.307   4.570   6.670
 8556TIP3   OH225608   2.465   2.623   2.109
 8556TIP3    H125609   2.418   2.547   2.076
 8556TIP3    H225610   2.517   2.654   2.035
 8557TIP3   OH225611   7.355   2.987   4.200
 8557TIP3    H125612   7.390   2.964   4.286
 8557TIP3    H225613   7.346   3.082   4.201
 8558TIP3   OH225614   8.241   0.140   4.295
 8558TIP3    H125615   8.151   0.163   4.316
 8558TIP3    H225616   8.283   0.225   4.277
 8559TIP3   OH225617   3.998   7.654   5.292
 8559TIP3    H125618   4.004   7.706   5.212
 8559TIP3    H225619   3.994   7.719   5.363
 8560TIP3   OH225620   7.188   3.078   0.961
 8560TIP3    H125621   7.242   3.010   1.002
 8560TIP3    H225622   7.100   3.062   0.996
 8561TIP3   OH225623   4.788   1.490   4.893
 8561TIP3    H125624   4.817   1.461   4.806
 8561TIP3    H225625   4.776   1.410   4.943
 8562TIP3   OH225626   2.983   2.392   4.227
 8562TIP3    H125627   3.027   2.397   4.142
 8562TIP3    H225628   2.951   2.302   4.233
 8563TIP3   OH225629   7.839   0.354   2.074
 8563TIP3    H125630   7.848   0.328   2.166
 8563TIP3    H225631   7.794   0.439   2.078
 8564TIP3   OH225632   6.216   6.028   5.136
 8564TIP3    H125633   6.222   6.122   5.118
 8564TIP3    H225634   6.305   6.003   5.159
 8565TIP3   OH225635   5.780   1.995   4.356
 8565TIP3    H125636   5.779   1.952   4.441
 8565TIP3    H225637   5.822   2.080   4.374
 8566TIP3   OH225638   6.466   5.694   3.811
 8566TIP3    H125639   6.393   5.672   3.753
 8566TIP3    H225640   6.520   5.615   3.812
 8567TIP3   OH225641   1.901   1.551   2.406
 8567TIP3    H125642   1.905   1.471   2.355
 8567TIP3    H225643   1.845   1.610   2.355
 8568TIP3   OH225644   1.084   2.373   3.854
 8568TIP3    H125645   1.100   2.371   3.760
 8568TIP3    H225646   1.064   2.283   3.878
 8569TIP3   OH225647   7.949   4.429   4.591
 8569TIP3    H125648   7.886   4.422   4.663
 8569TIP3    H225649   8.017   4.365   4.612
 8570TIP3   OH225650   2.889   3.901   4.230
 8570TIP3    H125651   2.872   3.995   4.230
 8570TIP3    H225652   2.875   3.874   4.140
 8571TIP3   OH225653   0.907   6.030   6.110
 8571TIP3    H125654   0.997   6.015   6.080
 8571TIP3    H225655   0.854   5.970   6.059
 8572TIP3   OH225656   5.581   1.266   0.873
 8572TIP3    H125657   5.614   1.227   0.954
 8572TIP3    H225658   5.604   1.202   0.805
 8573TIP3   OH225659   5.252   4.315   5.102
 8573TIP3    H125660   5.166   4.351   5.123
 8573TIP3    H225661   5.307   4.341   5.175
 8574TIP3   OH225662   5.345   2.029   5.785
 8574TIP3    H125663   5.373   2.021   5.694
 8574TIP3    H225664   5.251   2.008   5.783
 8575TIP3   OH225665   5.841   7.797   0.831
 8575TIP3    H125666   5.826   7.761   0.918
 8575TIP3    H225667   5.754   7.816   0.796
 8576TIP3   OH225668   6.403   1.474   3.686
 8576TIP3    H125669   6.417   1.485   3.780
 8576TIP3    H225670   6.488   1.448   3.652
 8577TIP3   OH225671   5.724   0.178   4.213
 8577TIP3    H125672   5.659   0.245   4.193
 8577TIP3    H225673   5.749   0.195   4.304
 8578TIP3   OH225674   3.531   6.424   2.374
 8578TIP3    H125675   3.465   6.358   2.396
 8578TIP3    H225676   3.609   6.397   2.423
 8579TIP3   OH225677   5.597   3.971   3.142
 8579TIP3    H125678   5.527   3.929   3.092
 8579TIP3    H225679   5.650   3.897   3.175
 8580TIP3   OH225680   0.840   3.447   4.150
 8580TIP3    H125681   0.830   3.531   4.105
 8580TIP3    H225682   0.751   3.425   4.180
 8581TIP3   OH225683   6.700   7.467   1.560
 8581TIP3    H125684   6.742   7.496   1.641
 8581TIP3    H225685   6.640   7.397   1.586
 8582TIP3   OH225686   5.998   6.975   0.703
 8582TIP3    H125687   6.019   6.882   0.691
 8582TIP3    H225688   5.913   6.986   0.660
 8583TIP3   OH225689   4.069   2.871   0.989
 8583TIP3    H125690   4.028   2.799   1.037
 8583TIP3    H225691   4.155   2.882   1.032
 8584TIP3   OH225692   5.967   0.772   1.370
 8584TIP3    H125693   5.953   0.782   1.465
 8584TIP3    H225694   6.062   0.780   1.359
 8585TIP3   OH225695   7.123   0.923   4.711
 8585TIP3    H125696   7.095   0.932   4.620
 8585TIP3    H225697   7.101   1.008   4.750
 8586TIP3   OH225698   7.245   4.647   6.352
 8586TIP3    H125699   7.240   4.734   6.391
 8586TIP3    H225700   7.293   4.595   6.417
 8587TIP3   OH225701   2.816   5.926   5.251
 8587TIP3    H125702   2.850   6.016   5.259
 8587TIP3    H225703   2.723   5.938   5.233
 8588TIP3   OH225704   0.348   7.488   5.453
 8588TIP3    H125705   0.301   7.440   5.385
 8588TIP3    H225706   0.384   7.565   5.407
 8589TIP3   OH225707   7.183   2.706   1.585
 8589TIP3    H125708   7.112   2.733   1.644
 8589TIP3    H225709   7.255   2.765   1.607
 8590TIP3   OH225710   0.077   6.015   0.543
 8590TIP3    H125711   0.129   6.092   0.564
 8590TIP3    H225712   0.111   5.946   0.600
 8591TIP3   OH225713   7.680   7.664   3.449
 8591TIP3    H125714   7.605   7.615   3.417
 8591TIP3    H225715   7.748   7.650   3.384
 8592TIP3   OH225716   2.035   2.997   0.252
 8592TIP3    H125717   2.127   2.972   0.259
 8592TIP3    H225718   2.015   3.036   0.337
 8593TIP3   OH225719   0.864   0.124   4.556
 8593TIP3    H125720   0.957   0.147   4.561
 8593TIP3    H225721   0.819   0.208   4.547
 8594TIP3   OH225722   6.535   0.192   3.290
 8594TIP3    H125723   6.456   0.152   3.325
 8594TIP3    H225724   6.573   0.239   3.364
 8595TIP3   OH225725   3.801   7.722   0.744
 8595TIP3    H125726   3.892   7.747   0.758
 8595TIP3    H225727   3.798   7.696   0.652
 8596TIP3   OH225728   0.249   1.964   5.228
 8596TIP3    H125729   0.322   1.936   5.173
 8596TIP3    H225730   0.238   2.057   5.208
 8597TIP3   OH225731   4.248   0.609   3.642
 8597TIP3    H125732   4.256   0.652   3.557
 8597TIP3    H225733   4.157   0.623   3.668
 8598TIP3   OH225734   3.650   1.484   4.684
 8598TIP3    H125735   3.700   1.565   4.688
 8598TIP3    H225736   3.644   1.463   4.591
 8599TIP3   OH225737   7.378   3.175   2.040
 8599TIP3    H125738   7.351   3.262   2.010
 8599TIP3    H225739   7.469   3.186   2.068
 8600TIP3   OH225740   1.713   2.371   4.648
 8600TIP3    H125741   1.705   2.368   4.744
 8600TIP3    H225742   1.669   2.452   4.623
 8601TIP3   OH225743   1.278   7.521   2.260
 8601TIP3    H125744   1.340   7.450   2.248
 8601TIP3    H225745   1.205   7.499   2.202
 8602TIP3   OH225746   5.812   0.790   2.454
 8602TIP3    H125747   5.776   0.737   2.383
 8602TIP3    H225748   5.803   0.736   2.532
 8603TIP3   OH225749   3.351   0.832   1.530
 8603TIP3    H125750   3.346   0.846   1.624
 8603TIP3    H225751   3.410   0.901   1.498
 8604TIP3   OH225752   3.693   4.393   5.697
 8604TIP3    H125753   3.607   4.396   5.656
 8604TIP3    H225754   3.720   4.484   5.703
 8605TIP3   OH225755   1.217   3.643   5.290
 8605TIP3    H125756   1.159   3.582   5.244
 8605TIP3    H225757   1.157   3.702   5.335
 8606TIP3   OH225758   3.936   2.629   1.072
 8606TIP3    H125759   3.862   2.623   1.011
 8606TIP3    H225760   3.970   2.540   1.078
 8607TIP3   OH225761   3.222   2.795   2.640
 8607TIP3    H125762   3.221   2.754   2.726
 8607TIP3    H225763   3.216   2.722   2.578
 8608TIP3   OH225764   6.276   4.983  -0.012
 8608TIP3    H125765   6.213   5.040  -0.054
 8608TIP3    H225766   6.236   4.959   0.072
 8609TIP3   OH225767   5.438   2.916   0.042
 8609TIP3    H125768   5.457   2.835   0.088
 8609TIP3    H225769   5.431   2.891  -0.050
 8610TIP3   OH225770   4.512   0.874   2.141
 8610TIP3    H125771   4.464   0.792   2.143
 8610TIP3    H225772   4.495   0.914   2.227
 8611TIP3   OH225773   5.466   3.733   1.812
 8611TIP3    H125774   5.494   3.642   1.814
 8611TIP3    H225775   5.538   3.781   1.854
 8612TIP3   OH225776   1.278   3.148   4.177
 8612TIP3    H125777   1.358   3.191   4.207
 8612TIP3    H225778   1.214   3.219   4.167
 8613TIP3   OH225779   4.626   4.942   6.604
 8613TIP3    H125780   4.667   4.856   6.592
 8613TIP3    H225781   4.699   5.001   6.622
 8614TIP3   OH225782   1.074   7.662   6.454
 8614TIP3    H125783   1.021   7.730   6.497
 8614TIP3    H225784   1.010   7.607   6.409
 8615TIP3   OH225785   2.528   0.482   2.466
 8615TIP3    H125786   2.565   0.440   2.389
 8615TIP3    H225787   2.487   0.562   2.433
 8616TIP3   OH225788   5.923   6.318   1.402
 8616TIP3    H125789   5.847   6.347   1.351
 8616TIP3    H225790   5.886   6.291   1.486
 8617TIP3   OH225791   7.060   0.529   6.333
 8617TIP3    H125792   7.075   0.442   6.296
 8617TIP3    H225793   7.013   0.577   6.264
 8618TIP3   OH225794   2.793   2.377   2.812
 8618TIP3    H125795   2.841   2.302   2.849
 8618TIP3    H225796   2.846   2.453   2.836
 8619TIP3   OH225797   0.584   6.867   4.858
 8619TIP3    H125798   0.550   6.952   4.885
 8619TIP3    H225799   0.610   6.880   4.767
 8620TIP3   OH225800   4.200   3.147   1.327
 8620TIP3    H125801   4.199   3.067   1.381
 8620TIP3    H225802   4.188   3.218   1.390
 8621TIP3   OH225803   2.614   7.543   5.482
 8621TIP3    H125804   2.697   7.501   5.461
 8621TIP3    H225805   2.636   7.634   5.499
 8622TIP3   OH225806   5.486   5.546   5.415
 8622TIP3    H125807   5.423   5.609   5.379
 8622TIP3    H225808   5.470   5.465   5.366
 8623TIP3   OH225809   7.614   4.382   4.219
 8623TIP3    H125810   7.550   4.442   4.181
 8623TIP3    H225811   7.676   4.439   4.264
 8624TIP3   OH225812   0.508   2.505   5.777
 8624TIP3    H125813   0.444   2.491   5.847
 8624TIP3    H225814   0.549   2.589   5.799
 8625TIP3   OH225815   1.545   0.098   3.080
 8625TIP3    H125816   1.550   0.187   3.114
 8625TIP3    H225817   1.630   0.060   3.099
 8626TIP3   OH225818   2.741   1.224   5.177
 8626TIP3    H125819   2.747   1.278   5.098
 8626TIP3    H225820   2.744   1.134   5.145
 8627TIP3   OH225821   6.562   3.245   6.345
 8627TIP3    H125822   6.639   3.195   6.369
 8627TIP3    H225823   6.500   3.230   6.416
 8628TIP3   OH225824   1.973   6.600   3.076
 8628TIP3    H125825   1.877   6.592   3.076
 8628TIP3    H225826   1.991   6.675   3.019
 8629TIP3   OH225827   3.477   0.775   6.608
 8629TIP3    H125828   3.437   0.749   6.692
 8629TIP3    H225829   3.402   0.784   6.549
 8630TIP3   OH225830   2.236   4.061   0.949
 8630TIP3    H125831   2.167   3.997   0.968
 8630TIP3    H225832   2.189   4.144   0.938
 8631TIP3   OH225833   8.361   5.449   2.571
 8631TIP3    H125834   8.354   5.520   2.635
 8631TIP3    H225835   8.396   5.375   2.621
 8632TIP3   OH225836   7.536   7.183   5.933
 8632TIP3    H125837   7.565   7.273   5.921
 8632TIP3    H225838   7.450   7.179   5.892
 8633TIP3   OH225839   5.646   7.321   3.300
 8633TIP3    H125840   5.712   7.375   3.344
 8633TIP3    H225841   5.625   7.253   3.364
 8634TIP3   OH225842   4.591   5.046   3.783
 8634TIP3    H125843   4.567   5.135   3.809
 8634TIP3    H225844   4.681   5.037   3.812
 8635TIP3   OH225845   7.944   3.718   0.288
 8635TIP3    H125846   7.960   3.793   0.345
 8635TIP3    H225847   8.009   3.653   0.314
 8636TIP3   OH225848  -0.051   4.775   5.585
 8636TIP3    H125849  -0.067   4.706   5.649
 8636TIP3    H225850   0.044   4.779   5.578
 8637TIP3   OH225851   0.866   7.237   0.670
 8637TIP3    H125852   0.788   7.252   0.723
 8637TIP3    H225853   0.935   7.218   0.734
 8638TIP3   OH225854   7.319   1.139   1.739
 8638TIP3    H125855   7.225   1.128   1.725
 8638TIP3    H225856   7.353   1.160   1.652
 8639TIP3   OH225857   6.918   4.411   5.195
 8639TIP3    H125858   6.895   4.416   5.102
 8639TIP3    H225859   7.013   4.420   5.197
 8640TIP3   OH225860   1.060   7.200   0.870
 8640TIP3    H125861   1.040   7.129   0.931
 8640TIP3    H225862   1.154   7.216   0.884
 8641TIP3   OH225863   0.710   2.670   3.386
 8641TIP3    H125864   0.621   2.634   3.397
 8641TIP3    H225865   0.755   2.607   3.331
 8642TIP3   OH225866   0.226   0.408   0.850
 8642TIP3    H125867   0.150   0.349   0.847
 8642TIP3    H225868   0.250   0.420   0.758
 8643TIP3   OH225869   3.208   2.716   2.903
 8643TIP3    H125870   3.283   2.733   2.960
 8643TIP3    H225871   3.147   2.788   2.922
 8644TIP3   OH225872   3.395   2.237   3.754
 8644TIP3    H125873   3.413   2.161   3.699
 8644TIP3    H225874   3.463   2.234   3.822
 8645TIP3   OH225875   2.890   2.110   2.845
 8645TIP3    H125876   2.817   2.053   2.870
 8645TIP3    H225877   2.965   2.050   2.837
 8646TIP3   OH225878   6.575   3.588   1.747
 8646TIP3    H125879   6.504   3.651   1.763
 8646TIP3    H225880   6.646   3.618   1.804
 8647TIP3   OH225881   4.250   4.816   5.468
 8647TIP3    H125882   4.216   4.762   5.397
 8647TIP3    H225883   4.175   4.868   5.498
 8648TIP3   OH225884   5.418   6.017   4.406
 8648TIP3    H125885   5.441   6.073   4.480
 8648TIP3    H225886   5.472   5.938   4.418
 8649TIP3   OH225887   7.011   6.536   1.434
 8649TIP3    H125888   7.081   6.600   1.421
 8649TIP3    H225889   6.983   6.513   1.345
 8650TIP3   OH225890   6.338   5.618   2.816
 8650TIP3    H125891   6.304   5.671   2.745
 8650TIP3    H225892   6.426   5.653   2.833
 8651TIP3   OH225893   3.204   2.400   0.913
 8651TIP3    H125894   3.112   2.387   0.888
 8651TIP3    H225895   3.223   2.491   0.888
 8652TIP3   OH225896   7.790   1.784   5.175
 8652TIP3    H125897   7.734   1.708   5.161
 8652TIP3    H225898   7.730   1.859   5.177
 8653TIP3   OH225899   0.869   3.185   5.381
 8653TIP3    H125900   0.794   3.222   5.428
 8653TIP3    H225901   0.842   3.096   5.360
 8654TIP3   OH225902   5.292   2.421   0.112
 8654TIP3    H125903   5.258   2.334   0.132
 8654TIP3    H225904   5.305   2.420   0.017
 8655TIP3   OH225905   2.411   4.057   6.099
 8655TIP3    H125906   2.332   4.050   6.154
 8655TIP3    H225907   2.421   4.150   6.082
 8656TIP3   OH225908   7.039   7.005   5.503
 8656TIP3    H125909   7.058   7.049   5.420
 8656TIP3    H225910   6.970   7.058   5.543
 8657TIP3   OH225911   5.460   4.529   3.550
 8657TIP3    H125912   5.500   4.569   3.473
 8657TIP3    H225913   5.516   4.454   3.570
 8658TIP3   OH225914   7.628   2.941   6.619
 8658TIP3    H125915   7.667   3.026   6.640
 8658TIP3    H225916   7.537   2.961   6.599
 8659TIP3   OH225917   3.594   1.226   2.727
 8659TIP3    H125918   3.593   1.251   2.820
 8659TIP3    H225919   3.513   1.263   2.691
 8660TIP3   OH225920   8.095   2.927   6.553
 8660TIP3    H125921   8.050   2.974   6.483
 8660TIP3    H225922   8.043   2.848   6.566
 8661TIP3   OH225923   4.017   2.390   5.242
 8661TIP3    H125924   4.107   2.391   5.274
 8661TIP3    H225925   4.017   2.325   5.172
 8662TIP3   OH225926   7.062   1.083   5.015
 8662TIP3    H125927   7.031   1.135   5.090
 8662TIP3    H225928   7.117   1.142   4.965
 8663TIP3   OH225929   6.108   0.980   3.218
 8663TIP3    H125930   6.179   0.922   3.193
 8663TIP3    H225931   6.038   0.962   3.155
 8664TIP3   OH225932   4.405   6.000   0.327
 8664TIP3    H125933   4.354   6.075   0.360
 8664TIP3    H225934   4.392   6.004   0.232
 8665TIP3   OH225935   3.642   5.173   4.174
 8665TIP3    H125936   3.588   5.181   4.252
 8665TIP3    H225937   3.700   5.249   4.176
 8666TIP3   OH225938   1.590   7.618   1.638
 8666TIP3    H125939   1.614   7.526   1.643
 8666TIP3    H225940   1.540   7.634   1.718
 8667TIP3   OH225941   0.092   0.490   6.366
 8667TIP3    H125942   0.148   0.554   6.411
 8667TIP3    H225943   0.105   0.508   6.273
 8668TIP3   OH225944   0.672   1.547   4.147
 8668TIP3    H125945   0.758   1.506   4.148
 8668TIP3    H225946   0.683   1.624   4.091
 8669TIP3   OH225947   6.752   4.359   1.833
 8669TIP3    H125948   6.792   4.399   1.911
 8669TIP3    H225949   6.769   4.265   1.843
 8670TIP3   OH225950   2.633   6.129   2.307
 8670TIP3    H125951   2.697   6.167   2.367
 8670TIP3    H225952   2.548   6.144   2.349
 8671TIP3   OH225953   4.018   7.878   4.130
 8671TIP3    H125954   3.998   7.884   4.224
 8671TIP3    H225955   4.109   7.850   4.127
 8672TIP3   OH225956   4.690   1.937   0.525
 8672TIP3    H125957   4.609   1.909   0.568
 8672TIP3    H225958   4.756   1.875   0.558
 8673TIP3   OH225959   1.323   5.276   5.107
 8673TIP3    H125960   1.237   5.317   5.117
 8673TIP3    H225961   1.385   5.342   5.136
 8674TIP3   OH225962   4.321   1.326   0.510
 8674TIP3    H125963   4.396   1.274   0.482
 8674TIP3    H225964   4.258   1.317   0.438
 8675TIP3   OH225965   7.687   6.570   3.927
 8675TIP3    H125966   7.630   6.562   3.850
 8675TIP3    H225967   7.640   6.630   3.985
 8676TIP3   OH225968   4.177   7.206   0.029
 8676TIP3    H125969   4.120   7.140   0.070
 8676TIP3    H225970   4.257   7.205   0.082
 8677TIP3   OH225971   4.713   6.768   0.746
 8677TIP3    H125972   4.754   6.842   0.702
 8677TIP3    H225973   4.787   6.711   0.770
 8678TIP3   OH225974   4.832   0.317   3.736
 8678TIP3    H125975   4.883   0.247   3.778
 8678TIP3    H225976   4.835   0.296   3.643
 8679TIP3   OH225977   6.158   7.588   0.716
 8679TIP3    H125978   6.220   7.517   0.700
 8679TIP3    H225979   6.097   7.584   0.643
 8680TIP3   OH225980   6.347   7.539   0.349
 8680TIP3    H125981   6.400   7.475   0.301
 8680TIP3    H225982   6.392   7.549   0.433
 8681TIP3   OH225983   7.456   1.289   5.823
 8681TIP3    H125984   7.434   1.253   5.909
 8681TIP3    H225985   7.445   1.215   5.763
 8682TIP3   OH225986   7.620   5.831   2.255
 8682TIP3    H125987   7.543   5.786   2.219
 8682TIP3    H225988   7.665   5.865   2.178
 8683TIP3   OH225989   6.129   6.088   3.394
 8683TIP3    H125990   6.139   6.176   3.358
 8683TIP3    H225991   6.217   6.063   3.423
 8684TIP3   OH225992   6.622   2.535   3.307
 8684TIP3    H125993   6.534   2.560   3.337
 8684TIP3    H225994   6.653   2.472   3.372
 8685TIP3   OH225995   8.156   3.428   5.296
 8685TIP3    H125996   8.207   3.383   5.364
 8685TIP3    H225997   8.074   3.451   5.340
 8686TIP3   OH225998   0.136   3.577   1.878
 8686TIP3    H125999   0.200   3.550   1.812
 8686TIP3    H226000   0.081   3.640   1.833
 8687TIP3   OH226001   4.711   6.135   2.601
 8687TIP3    H126002   4.730   6.228   2.587
 8687TIP3    H226003   4.757   6.113   2.681
 8688TIP3   OH226004   3.911   7.529   6.049
 8688TIP3    H126005   3.929   7.470   6.122
 8688TIP3    H226006   3.989   7.524   5.994
 8689TIP3   OH226007   7.975   5.956   4.717
 8689TIP3    H126008   8.028   5.983   4.642
 8689TIP3    H226009   7.938   6.037   4.752
 8690TIP3   OH226010   7.360   0.386   1.568
 8690TIP3    H126011   7.421   0.348   1.632
 8690TIP3    H226012   7.276   0.390   1.615
 8691TIP3   OH226013   3.724   2.782   2.492
 8691TIP3    H126014   3.771   2.734   2.559
 8691TIP3    H226015   3.736   2.874   2.516
 8692TIP3   OH226016   0.887   1.901   4.419
 8692TIP3    H126017   0.801   1.871   4.450
 8692TIP3    H226018   0.876   1.910   4.325
 8693TIP3   OH226019   4.367   7.753   0.053
 8693TIP3    H126020   4.319   7.671   0.069
 8693TIP3    H226021   4.341   7.810   0.125
 8694TIP3   OH226022   5.325   4.071   2.891
 8694TIP3    H126023   5.327   3.976   2.904
 8694TIP3    H226024   5.417   4.096   2.879
 8695TIP3   OH226025   5.193   7.601   4.097
 8695TIP3    H126026   5.110   7.591   4.050
 8695TIP3    H226027   5.257   7.618   4.027
 8696TIP3   OH226028   3.482   3.280   6.776
 8696TIP3    H126029   3.514   3.351   6.721
 8696TIP3    H226030   3.392   3.305   6.796
 8697TIP3   OH226031   1.059   7.270   0.473
 8697TIP3    H126032   1.016   7.317   0.401
 8697TIP3    H226033   0.994   7.268   0.543
 8698TIP3   OH226034   7.433   6.778   0.914
 8698TIP3    H126035   7.511   6.752   0.964
 8698TIP3    H226036   7.430   6.717   0.841
 8699TIP3   OH226037   5.606   0.428   2.907
 8699TIP3    H126038   5.565   0.448   2.991
 8699TIP3    H226039   5.537   0.387   2.855
 8700TIP3   OH226040   2.794   2.931   0.979
 8700TIP3    H126041   2.752   2.985   0.912
 8700TIP3    H226042   2.785   2.841   0.947
 8701TIP3   OH226043   0.259   3.825   3.988
 8701TIP3    H126044   0.263   3.913   4.026
 8701TIP3    H226045   0.276   3.838   3.895
 8702TIP3   OH226046   2.159   2.324   3.830
 8702TIP3    H126047   2.254   2.315   3.837
 8702TIP3    H226048   2.146   2.378   3.752
 8703TIP3   OH226049   7.665   1.705   6.450
 8703TIP3    H126050   7.715   1.746   6.379
 8703TIP3    H226051   7.588   1.668   6.407
 8704TIP3   OH226052   5.321   3.300   0.237
 8704TIP3    H126053   5.393   3.250   0.197
 8704TIP3    H226054   5.271   3.333   0.162
 8705TIP3   OH226055   0.589   4.860   0.359
 8705TIP3    H126056   0.547   4.889   0.278
 8705TIP3    H226057   0.558   4.771   0.372
 8706TIP3   OH226058   1.826   1.909   0.958
 8706TIP3    H126059   1.759   1.928   0.892
 8706TIP3    H226060   1.862   1.995   0.981
 8707TIP3   OH226061   6.983   5.445   5.454
 8707TIP3    H126062   6.975   5.483   5.367
 8707TIP3    H226063   7.049   5.498   5.498
 8708TIP3   OH226064   6.976   4.120   2.268
 8708TIP3    H126065   6.965   4.054   2.200
 8708TIP3    H226066   7.000   4.200   2.220
 8709TIP3   OH226067   2.320   0.731   6.444
 8709TIP3    H126068   2.398   0.720   6.499
 8709TIP3    H226069   2.355   0.748   6.357
 8710TIP3   OH226070   1.521   2.999   3.601
 8710TIP3    H126071   1.566   2.915   3.606
 8710TIP3    H226072   1.554   3.049   3.676
 8711TIP3   OH226073   2.656   3.689   2.931
 8711TIP3    H126074   2.583   3.634   2.959
 8711TIP3    H226075   2.671   3.666   2.839
 8712TIP3   OH226076   7.651   1.903   2.973
 8712TIP3    H126077   7.629   1.930   2.884
 8712TIP3    H226078   7.631   1.809   2.975
 8713TIP3   OH226079   5.748   4.849   2.670
 8713TIP3    H126080   5.754   4.863   2.575
 8713TIP3    H226081   5.655   4.851   2.689
 8714TIP3   OH226082   5.754   0.631   0.404
 8714TIP3    H126083   5.690   0.648   0.335
 8714TIP3    H226084   5.799   0.715   0.416
 8715TIP3   OH226085   3.584   1.487   6.036
 8715TIP3    H126086   3.601   1.567   5.986
 8715TIP3    H226087   3.640   1.494   6.113
 8716TIP3   OH226088   3.917   0.217   4.123
 8716TIP3    H126089   3.870   0.260   4.194
 8716TIP3    H226090   3.984   0.165   4.167
 8717TIP3   OH226091   7.009   5.284   6.840
 8717TIP3    H126092   7.010   5.336   6.760
 8717TIP3    H226093   6.935   5.318   6.890
 8718TIP3   OH226094   2.764   0.093   6.763
 8718TIP3    H126095   2.683   0.051   6.791
 8718TIP3    H226096   2.772   0.170   6.819
 8719TIP3   OH226097   8.248   4.728   6.626
 8719TIP3    H126098   8.313   4.789   6.592
 8719TIP3    H226099   8.168   4.750   6.579
 8720TIP3   OH226100   4.088   4.397   1.354
 8720TIP3    H126101   4.069   4.341   1.279
 8720TIP3    H226102   4.040   4.477   1.337
 8721TIP3   OH226103   2.220   5.618   0.083
 8721TIP3    H126104   2.166   5.561   0.138
 8721TIP3    H226105   2.310   5.595   0.105
 8722TIP3   OH226106   2.121   4.071   3.266
 8722TIP3    H126107   2.083   4.025   3.341
 8722TIP3    H226108   2.102   4.014   3.191
 8723TIP3   OH226109   1.510   3.242   6.643
 8723TIP3    H126110   1.442   3.230   6.577
 8723TIP3    H226111   1.479   3.192   6.719
 8724TIP3   OH226112   0.121   5.038   6.875
 8724TIP3    H126113   0.135   5.132   6.869
 8724TIP3    H226114   0.046   5.020   6.819
 8725TIP3   OH226115   5.887   4.024   0.646
 8725TIP3    H126116   5.798   4.006   0.616
 8725TIP3    H226117   5.877   4.080   0.723
 8726TIP3   OH226118   2.899   2.033   5.437
 8726TIP3    H126119   2.972   2.078   5.395
 8726TIP3    H226120   2.822   2.083   5.411
 8727TIP3   OH226121   3.354   5.298   3.366
 8727TIP3    H126122   3.347   5.349   3.447
 8727TIP3    H226123   3.355   5.363   3.296
 8728TIP3   OH226124   4.337   2.035   1.491
 8728TIP3    H126125   4.382   2.059   1.571
 8728TIP3    H226126   4.277   2.108   1.474
 8729TIP3   OH226127   6.115   3.119   5.594
 8729TIP3    H126128   6.208   3.097   5.604
 8729TIP3    H226129   6.105   3.203   5.639
 8730TIP3   OH226130   4.633   4.965   2.585
 8730TIP3    H126131   4.612   5.027   2.515
 8730TIP3    H226132   4.638   4.880   2.540
 8731TIP3   OH226133   4.283   4.503   5.247
 8731TIP3    H126134   4.259   4.520   5.338
 8731TIP3    H226135   4.360   4.446   5.253
 8732TIP3   OH226136   0.406   0.580   0.687
 8732TIP3    H126137   0.425   0.673   0.700
 8732TIP3    H226138   0.442   0.560   0.601
 8733TIP3   OH226139   6.455   7.273   6.467
 8733TIP3    H126140   6.403   7.349   6.441
 8733TIP3    H226141   6.530   7.310   6.514
 8734TIP3   OH226142   0.217   2.137   1.545
 8734TIP3    H126143   0.134   2.105   1.510
 8734TIP3    H226144   0.273   2.059   1.546
 8735TIP3   OH226145   3.697   1.976   0.597
 8735TIP3    H126146   3.623   2.028   0.631
 8735TIP3    H226147   3.740   2.034   0.534
 8736TIP3   OH226148   4.263   1.395   2.664
 8736TIP3    H126149   4.220   1.480   2.660
 8736TIP3    H226150   4.209   1.344   2.724
 8737TIP3   OH226151   1.475   5.543   6.541
 8737TIP3    H126152   1.468   5.574   6.450
 8737TIP3    H226153   1.421   5.464   6.543
 8738TIP3   OH226154   5.286   5.213   4.434
 8738TIP3    H126155   5.286   5.276   4.362
 8738TIP3    H226156   5.212   5.156   4.417
 8739TIP3   OH226157   2.973   0.968   0.343
 8739TIP3    H126158   2.921   0.971   0.263
 8739TIP3    H226159   3.064   0.974   0.313
 8740TIP3   OH226160   6.940   7.038   2.506
 8740TIP3    H126161   6.957   6.950   2.541
 8740TIP3    H226162   7.026   7.074   2.487
 8741TIP3   OH226163   7.767   7.506   6.567
 8741TIP3    H126164   7.751   7.420   6.529
 8741TIP3    H226165   7.852   7.499   6.609
 8742TIP3   OH226166   3.027   4.027   6.336
 8742TIP3    H126167   3.060   4.063   6.419
 8742TIP3    H226168   3.037   3.932   6.346
 8743TIP3   OH226169   6.059   2.472   3.575
 8743TIP3    H126170   6.034   2.387   3.612
 8743TIP3    H226171   6.023   2.472   3.487
 8744TIP3   OH226172   1.067   7.628   1.727
 8744TIP3    H126173   1.075   7.684   1.805
 8744TIP3    H226174   1.033   7.687   1.659
 8745TIP3   OH226175   6.230   6.745   4.952
 8745TIP3    H126176   6.262   6.780   5.035
 8745TIP3    H226177   6.270   6.659   4.945
 8746TIP3   OH226178   1.058   1.563   1.606
 8746TIP3    H126179   1.060   1.537   1.698
 8746TIP3    H226180   0.995   1.635   1.603
 8747TIP3   OH226181   2.516   5.853   4.093
 8747TIP3    H126182   2.594   5.814   4.133
 8747TIP3    H226183   2.442   5.812   4.139
 8748TIP3   OH226184   8.249   0.992   2.481
 8748TIP3    H126185   8.197   1.064   2.517
 8748TIP3    H226186   8.184   0.934   2.441
 8749TIP3   OH226187   3.017   0.747   0.492
 8749TIP3    H126188   2.993   0.824   0.441
 8749TIP3    H226189   3.080   0.779   0.556
 8750TIP3   OH226190   4.122   6.271   0.491
 8750TIP3    H126191   4.048   6.306   0.441
 8750TIP3    H226192   4.082   6.240   0.572
 8751TIP3   OH226193   5.469   1.692   2.008
 8751TIP3    H126194   5.494   1.653   2.092
 8751TIP3    H226195   5.436   1.619   1.956
 8752TIP3   OH226196   3.640   7.697   1.756
 8752TIP3    H126197   3.624   7.773   1.701
 8752TIP3    H226198   3.730   7.671   1.734
 8753TIP3   OH226199   5.313   3.572   0.789
 8753TIP3    H126200   5.312   3.518   0.868
 8753TIP3    H226201   5.346   3.514   0.720
 8754TIP3   OH226202   4.609   3.498   5.707
 8754TIP3    H126203   4.617   3.545   5.624
 8754TIP3    H226204   4.516   3.501   5.728
 8755TIP3   OH226205   4.481   6.478   0.977
 8755TIP3    H126206   4.457   6.419   1.049
 8755TIP3    H226207   4.540   6.425   0.922
 8756TIP3   OH226208   1.661   1.973   3.427
 8756TIP3    H126209   1.600   1.902   3.447
 8756TIP3    H226210   1.675   1.967   3.333
 8757TIP3   OH226211   8.132   5.860   1.398
 8757TIP3    H126212   8.204   5.890   1.453
 8757TIP3    H226213   8.122   5.767   1.420
 8758TIP3   OH226214   7.913   0.854   5.179
 8758TIP3    H126215   7.820   0.842   5.197
 8758TIP3    H226216   7.920   0.945   5.150
 8759TIP3   OH226217   7.000   2.946   2.062
 8759TIP3    H126218   7.024   2.854   2.058
 8759TIP3    H226219   6.918   2.948   2.111
 8760TIP3   OH226220   6.764   6.646   4.772
 8760TIP3    H126221   6.676   6.625   4.741
 8760TIP3    H226222   6.762   6.621   4.865
 8761TIP3   OH226223   1.724   3.543   5.074
 8761TIP3    H126224   1.718   3.449   5.058
 8761TIP3    H226225   1.639   3.567   5.110
 8762TIP3   OH226226   6.361   4.321   1.970
 8762TIP3    H126227   6.401   4.328   1.883
 8762TIP3    H226228   6.397   4.240   2.006
 8763TIP3   OH226229   6.920   0.401   5.188
 8763TIP3    H126230   6.896   0.489   5.219
 8763TIP3    H226231   7.012   0.409   5.163
 8764TIP3   OH226232   1.584   5.715   5.642
 8764TIP3    H126233   1.589   5.703   5.547
 8764TIP3    H226234   1.669   5.688   5.675
 8765TIP3   OH226235   7.450   0.483   5.723
 8765TIP3    H126236   7.474   0.496   5.632
 8765TIP3    H226237   7.526   0.513   5.773
 8766TIP3   OH226238   6.564   3.012   5.829
 8766TIP3    H126239   6.601   3.069   5.896
 8766TIP3    H226240   6.574   2.924   5.865
 8767TIP3   OH226241   1.473   2.242   1.803
 8767TIP3    H126242   1.396   2.189   1.822
 8767TIP3    H226243   1.460   2.322   1.854
 8768TIP3   OH226244   0.981   1.317   2.372
 8768TIP3    H126245   0.911   1.256   2.352
 8768TIP3    H226246   1.058   1.262   2.388
 8769TIP3   OH226247   7.880   5.090   0.333
 8769TIP3    H126248   7.888   4.995   0.321
 8769TIP3    H226249   7.968   5.124   0.317
 8770TIP3   OH226250   3.987   0.586   5.497
 8770TIP3    H126251   3.979   0.600   5.591
 8770TIP3    H226252   3.896   0.582   5.466
 8771TIP3   OH226253   6.467   5.879   5.205
 8771TIP3    H126254   6.517   5.846   5.131
 8771TIP3    H226255   6.532   5.916   5.264
 8772TIP3   OH226256   5.158   5.608   5.674
 8772TIP3    H126257   5.099   5.683   5.663
 8772TIP3    H226258   5.133   5.570   5.758
 8773TIP3   OH226259   3.995   7.521   3.003
 8773TIP3    H126260   3.947   7.517   2.921
 8773TIP3    H226261   3.934   7.487   3.068
 8774TIP3   OH226262   0.910   6.394   4.009
 8774TIP3    H126263   0.901   6.303   4.036
 8774TIP3    H226264   0.835   6.438   4.050
 8775TIP3   OH226265   1.928   5.504   3.057
 8775TIP3    H126266   1.834   5.511   3.074
 8775TIP3    H226267   1.935   5.436   2.990
 8776TIP3   OH226268   7.512   1.922   3.617
 8776TIP3    H126269   7.570   1.943   3.690
 8776TIP3    H226270   7.546   1.839   3.583
 8777TIP3   OH226271   3.791   2.368   2.344
 8777TIP3    H126272   3.716   2.426   2.337
 8777TIP3    H226273   3.831   2.390   2.429
 8778TIP3   OH226274   0.222   3.704   3.162
 8778TIP3    H126275   0.307   3.745   3.170
 8778TIP3    H226276   0.177   3.723   3.245
 8779TIP3   OH226277   1.305   2.137   3.672
 8779TIP3    H126278   1.397   2.145   3.647
 8779TIP3    H226279   1.295   2.198   3.745
 8780TIP3   OH226280   3.460   5.558   1.401
 8780TIP3    H126281   3.432   5.481   1.450
 8780TIP3    H226282   3.381   5.588   1.356
 8781TIP3   OH226283   0.131   5.717   2.427
 8781TIP3    H126284   0.050   5.702   2.475
 8781TIP3    H226285   0.124   5.660   2.350
 8782TIP3   OH226286   2.959   2.705   1.002
 8782TIP3    H126287   2.973   2.689   0.908
 8782TIP3    H226288   3.044   2.685   1.042
 8783TIP3   OH226289   5.494   2.971   4.848
 8783TIP3    H126290   5.548   2.998   4.922
 8783TIP3    H226291   5.465   2.883   4.871
 8784TIP3   OH226292   4.062   1.612   4.207
 8784TIP3    H126293   4.041   1.613   4.114
 8784TIP3    H226294   4.121   1.686   4.219
 8785TIP3   OH226295   4.116   5.761   0.922
 8785TIP3    H126296   4.044   5.816   0.954
 8785TIP3    H226297   4.167   5.741   1.000
 8786TIP3   OH226298   0.852   1.054   3.051
 8786TIP3    H126299   0.808   0.987   2.999
 8786TIP3    H226300   0.929   1.078   2.999
 8787TIP3   OH226301   8.250   3.743   5.131
 8787TIP3    H126302   8.165   3.710   5.102
 8787TIP3    H226303   8.313   3.703   5.071
 8788TIP3   OH226304   6.536   1.598   6.069
 8788TIP3    H126305   6.543   1.504   6.052
 8788TIP3    H226306   6.496   1.634   5.989
 8789TIP3   OH226307   2.849   7.178   1.738
 8789TIP3    H126308   2.851   7.104   1.798
 8789TIP3    H226309   2.940   7.208   1.735
 8790TIP3   OH226310   0.949   7.442   4.958
 8790TIP3    H126311   0.867   7.401   4.931
 8790TIP3    H226312   1.003   7.370   4.991
 8791TIP3   OH226313   0.529   3.163   6.165
 8791TIP3    H126314   0.487   3.102   6.226
 8791TIP3    H226315   0.486   3.247   6.184
 8792TIP3   OH226316   2.804   5.141   3.283
 8792TIP3    H126317   2.880   5.085   3.265
 8792TIP3    H226318   2.752   5.090   3.347
 8793TIP3   OH226319   3.083   4.913   2.178
 8793TIP3    H126320   3.091   4.876   2.090
 8793TIP3    H226321   3.158   4.972   2.186
 8794TIP3   OH226322   2.806   2.471   1.501
 8794TIP3    H126323   2.860   2.409   1.550
 8794TIP3    H226324   2.864   2.506   1.434
 8795TIP3   OH226325   3.441   5.299   0.703
 8795TIP3    H126326   3.500   5.258   0.766
 8795TIP3    H226327   3.360   5.249   0.710
 8796TIP3   OH226328   0.798   7.130   4.900
 8796TIP3    H126329   0.890   7.120   4.874
 8796TIP3    H226330   0.793   7.089   4.986
 8797TIP3   OH226331   0.666   3.001   1.139
 8797TIP3    H126332   0.706   3.088   1.145
 8797TIP3    H226333   0.739   2.942   1.120
 8798TIP3   OH226334   5.018   7.863   5.215
 8798TIP3    H126335   5.067   7.859   5.297
 8798TIP3    H226336   4.955   7.935   5.229
 8799TIP3   OH226337   2.713   7.119   2.393
 8799TIP3    H126338   2.720   7.174   2.315
 8799TIP3    H226339   2.636   7.152   2.439
 8800TIP3   OH226340   2.530   6.353   1.588
 8800TIP3    H126341   2.446   6.338   1.632
 8800TIP3    H226342   2.530   6.294   1.513
 8801TIP3   OH226343   5.976   7.395   2.420
 8801TIP3    H126344   6.024   7.462   2.370
 8801TIP3    H226345   6.040   7.328   2.439
 8802TIP3   OH226346   1.944   7.908   6.522
 8802TIP3    H126347   1.918   7.992   6.558
 8802TIP3    H226348   2.008   7.874   6.585
 8803TIP3   OH226349   2.588   1.835   1.512
 8803TIP3    H126350   2.509   1.790   1.482
 8803TIP3    H226351   2.571   1.855   1.604
 8804TIP3   OH226352   4.870   0.215   3.464
 8804TIP3    H126353   4.819   0.142   3.498
 8804TIP3    H226354   4.865   0.206   3.369
 8805TIP3   OH226355   0.680   3.017   5.239
 8805TIP3    H126356   0.633   2.944   5.279
 8805TIP3    H226357   0.665   3.006   5.145
 8806TIP3   OH226358   4.411   6.735   4.836
 8806TIP3    H126359   4.505   6.739   4.817
 8806TIP3    H226360   4.406   6.703   4.926
 8807TIP3   OH226361   0.405   2.465   2.125
 8807TIP3    H126362   0.474   2.532   2.128
 8807TIP3    H226363   0.449   2.388   2.088
 8808TIP3   OH226364   2.419   1.125   2.789
 8808TIP3    H126365   2.394   1.037   2.762
 8808TIP3    H226366   2.347   1.180   2.760
 8809TIP3   OH226367   6.187   2.389   0.445
 8809TIP3    H126368   6.173   2.458   0.381
 8809TIP3    H226369   6.120   2.323   0.424
 8810TIP3   OH226370   4.127   0.774   0.239
 8810TIP3    H126371   4.144   0.808   0.327
 8810TIP3    H226372   4.213   0.751   0.205
 8811TIP3   OH226373   7.399   6.322   3.979
 8811TIP3    H126374   7.482   6.285   3.950
 8811TIP3    H226375   7.343   6.318   3.902
 8812TIP3   OH226376   1.082   1.066   0.427
 8812TIP3    H126377   1.065   1.070   0.521
 8812TIP3    H226378   1.097   1.156   0.401
 8813TIP3   OH226379   5.956   6.818   2.272
 8813TIP3    H126380   5.936   6.807   2.365
 8813TIP3    H226381   5.985   6.909   2.265
 8814TIP3   OH226382   0.912   4.793   2.499
 8814TIP3    H126383   0.828   4.755   2.473
 8814TIP3    H226384   0.888   4.872   2.547
 8815TIP3   OH226385   1.056   7.269   3.961
 8815TIP3    H126386   1.110   7.229   3.894
 8815TIP3    H226387   1.011   7.341   3.917
 8816TIP3   OH226388   3.500   3.774   0.275
 8816TIP3    H126389   3.487   3.725   0.194
 8816TIP3    H226390   3.532   3.860   0.246
 8817TIP3   OH226391   3.971   7.762   3.767
 8817TIP3    H126392   3.891   7.710   3.766
 8817TIP3    H226393   4.024   7.723   3.837
 8818TIP3   OH226394   0.146   6.524   5.873
 8818TIP3    H126395   0.143   6.601   5.929
 8818TIP3    H226396   0.060   6.484   5.882
 8819TIP3   OH226397   3.815   6.715   0.854
 8819TIP3    H126398   3.770   6.636   0.823
 8819TIP3    H226399   3.811   6.775   0.780
 8820TIP3   OH226400   2.303   5.795   4.951
 8820TIP3    H126401   2.283   5.807   4.858
 8820TIP3    H226402   2.385   5.843   4.963
 8821TIP3   OH226403   4.524   4.986   5.478
 8821TIP3    H126404   4.531   4.939   5.395
 8821TIP3    H226405   4.582   5.062   5.468
 8822TIP3   OH226406   6.277   3.769   1.719
 8822TIP3    H126407   6.249   3.776   1.810
 8822TIP3    H226408   6.230   3.839   1.674
 8823TIP3   OH226409   6.722   6.739   0.284
 8823TIP3    H126410   6.708   6.650   0.253
 8823TIP3    H226411   6.753   6.786   0.206
 8824TIP3   OH226412   8.466   4.081   6.738
 8824TIP3    H126413   8.474   4.041   6.651
 8824TIP3    H226414   8.496   4.014   6.799
 8825TIP3   OH226415   7.072   2.288   6.041
 8825TIP3    H126416   7.103   2.319   5.956
 8825TIP3    H226417   7.092   2.194   6.041
 8826TIP3   OH226418   0.815   3.194   6.801
 8826TIP3    H126419   0.896   3.217   6.845
 8826TIP3    H226420   0.750   3.255   6.836
 8827TIP3   OH226421   6.572   5.984   6.303
 8827TIP3    H126422   6.613   6.037   6.235
 8827TIP3    H226423   6.479   6.006   6.298
 8828TIP3   OH226424   6.370   6.711   1.925
 8828TIP3    H126425   6.438   6.644   1.916
 8828TIP3    H226426   6.319   6.683   2.001
 8829TIP3   OH226427  -0.032   1.359   3.829
 8829TIP3    H126428   0.033   1.405   3.775
 8829TIP3    H226429   0.014   1.338   3.909
 8830TIP3   OH226430   3.155   7.725   3.655
 8830TIP3    H126431   3.081   7.722   3.595
 8830TIP3    H226432   3.214   7.655   3.626
 8831TIP3   OH226433   5.847   0.906   5.752
 8831TIP3    H126434   5.927   0.855   5.738
 8831TIP3    H226435   5.776   0.848   5.726
 8832TIP3   OH226436   6.326   4.099   4.423
 8832TIP3    H126437   6.415   4.112   4.456
 8832TIP3    H226438   6.336   4.099   4.328
 8833TIP3   OH226439   0.489   5.514   4.289
 8833TIP3    H126440   0.512   5.447   4.225
 8833TIP3    H226441   0.539   5.591   4.263
 8834TIP3   OH226442   3.294   3.831   6.520
 8834TIP3    H126443   3.320   3.757   6.574
 8834TIP3    H226444   3.198   3.827   6.518
 8835TIP3   OH226445   4.764   6.101   2.079
 8835TIP3    H126446   4.810   6.053   2.148
 8835TIP3    H226447   4.779   6.193   2.100
 8836TIP3   OH226448   7.746   4.261   0.825
 8836TIP3    H126449   7.744   4.169   0.852
 8836TIP3    H226450   7.792   4.306   0.896
 8837TIP3   OH226451   5.782   7.145   2.759
 8837TIP3    H126452   5.764   7.231   2.723
 8837TIP3    H226453   5.776   7.156   2.854
 8838TIP3   OH226454   2.575   1.722   5.675
 8838TIP3    H126455   2.668   1.733   5.659
 8838TIP3    H226456   2.559   1.772   5.755
 8839TIP3   OH226457   5.230   1.683   4.605
 8839TIP3    H126458   5.304   1.743   4.613
 8839TIP3    H226459   5.265   1.608   4.556
 8840TIP3   OH226460   8.107   0.259   6.089
 8840TIP3    H126461   8.129   0.289   6.177
 8840TIP3    H226462   8.015   0.281   6.078
 8841TIP3   OH226463   2.091   4.691   0.637
 8841TIP3    H126464   2.090   4.786   0.648
 8841TIP3    H226465   2.152   4.676   0.564
 8842TIP3   OH226466   1.596   5.401   6.074
 8842TIP3    H126467   1.596   5.488   6.034
 8842TIP3    H226468   1.504   5.378   6.082
 8843TIP3   OH226469   8.011   5.744   5.601
 8843TIP3    H126470   8.068   5.722   5.527
 8843TIP3    H226471   7.937   5.684   5.593
 8844TIP3   OH226472   1.599   0.646   6.283
 8844TIP3    H126473   1.570   0.556   6.297
 8844TIP3    H226474   1.662   0.641   6.211
 8845TIP3   OH226475   0.344   1.998   0.100
 8845TIP3    H126476   0.412   1.936   0.074
 8845TIP3    H226477   0.320   1.971   0.189
 8846TIP3   OH226478   0.098   4.216   1.473
 8846TIP3    H126479   0.070   4.298   1.433
 8846TIP3    H226480   0.142   4.242   1.554
 8847TIP3   OH226481   4.093   7.137   4.879
 8847TIP3    H126482   4.006   7.149   4.841
 8847TIP3    H226483   4.153   7.150   4.806
 8848TIP3   OH226484   5.933   7.598   2.691
 8848TIP3    H126485   6.002   7.537   2.666
 8848TIP3    H226486   5.873   7.546   2.746
 8849TIP3   OH226487   3.903   0.206   4.872
 8849TIP3    H126488   3.965   0.187   4.943
 8849TIP3    H226489   3.877   0.297   4.886
 8850TIP3   OH226490   0.873   3.552   4.836
 8850TIP3    H126491   0.780   3.572   4.844
 8850TIP3    H226492   0.904   3.605   4.763
 8851TIP3   OH226493   2.387  -0.014   6.091
 8851TIP3    H126494   2.477  -0.026   6.059
 8851TIP3    H226495   2.371   0.080   6.083
 8852TIP3   OH226496   3.438   0.854   1.092
 8852TIP3    H126497   3.487   0.892   1.165
 8852TIP3    H226498   3.372   0.798   1.133
 8853TIP3   OH226499   5.651   7.325   4.433
 8853TIP3    H126500   5.650   7.231   4.451
 8853TIP3    H226501   5.559   7.352   4.439
 8854TIP3   OH226502   1.159   3.317   1.133
 8854TIP3    H126503   1.169   3.385   1.200
 8854TIP3    H226504   1.194   3.356   1.053
 8855TIP3   OH226505   7.540   6.358   0.187
 8855TIP3    H126506   7.523   6.289   0.251
 8855TIP3    H226507   7.556   6.312   0.105
 8856TIP3   OH226508   1.868   6.752   0.938
 8856TIP3    H126509   1.800   6.684   0.941
 8856TIP3    H226510   1.949   6.706   0.960
 8857TIP3   OH226511   0.102   1.336   6.576
 8857TIP3    H126512   0.074   1.328   6.485
 8857TIP3    H226513   0.040   1.397   6.615
 8858TIP3   OH226514   2.040   3.543   6.062
 8858TIP3    H126515   2.121   3.527   6.110
 8858TIP3    H226516   2.035   3.639   6.053
 8859TIP3   OH226517   7.849   1.477   1.619
 8859TIP3    H126518   7.772   1.487   1.563
 8859TIP3    H226519   7.904   1.415   1.572
 8860TIP3   OH226520   6.932   2.724   1.027
 8860TIP3    H126521   6.852   2.768   1.054
 8860TIP3    H226522   6.938   2.740   0.933
 8861TIP3   OH226523   5.094   3.023   6.782
 8861TIP3    H126524   5.019   3.081   6.768
 8861TIP3    H226525   5.148   3.034   6.704
 8862TIP3   OH226526   4.613   5.013   0.758
 8862TIP3    H126527   4.563   5.025   0.677
 8862TIP3    H226528   4.627   5.102   0.790
 8863TIP3   OH226529   2.600   5.284   4.707
 8863TIP3    H126530   2.610   5.303   4.800
 8863TIP3    H226531   2.684   5.308   4.668
 8864TIP3   OH226532   2.222   3.096   5.271
 8864TIP3    H126533   2.139   3.137   5.293
 8864TIP3    H226534   2.261   3.154   5.205
 8865TIP3   OH226535   7.712   6.211   6.578
 8865TIP3    H126536   7.766   6.193   6.654
 8865TIP3    H226537   7.638   6.260   6.612
 8866TIP3   OH226538   1.348   1.448   5.379
 8866TIP3    H126539   1.411   1.518   5.399
 8866TIP3    H226540   1.299   1.480   5.304
 8867TIP3   OH226541   6.299   3.530   6.160
 8867TIP3    H126542   6.322   3.551   6.251
 8867TIP3    H226543   6.246   3.605   6.131
 8868TIP3   OH226544   0.238   0.510   4.429
 8868TIP3    H126545   0.267   0.487   4.517
 8868TIP3    H226546   0.320   0.528   4.381
 8869TIP3   OH226547   1.439   3.702   4.318
 8869TIP3    H126548   1.508   3.760   4.286
 8869TIP3    H226549   1.483   3.644   4.380
 8870TIP3   OH226550   6.651   6.791   6.391
 8870TIP3    H126551   6.627   6.721   6.452
 8870TIP3    H226552   6.636   6.872   6.439
 8871TIP3   OH226553   2.162   2.381   2.165
 8871TIP3    H126554   2.092   2.316   2.178
 8871TIP3    H226555   2.136   2.429   2.086
 8872TIP3   OH226556   2.208   6.290   4.526
 8872TIP3    H126557   2.273   6.260   4.461
 8872TIP3    H226558   2.243   6.259   4.610
 8873TIP3   OH226559   1.320   2.249   0.205
 8873TIP3    H126560   1.230   2.241   0.175
 8873TIP3    H226561   1.324   2.197   0.286
 8874TIP3   OH226562   0.265   7.378   6.483
 8874TIP3    H126563   0.250   7.313   6.414
 8874TIP3    H226564   0.261   7.462   6.439
 8875TIP3   OH226565   2.363   0.678   2.323
 8875TIP3    H126566   2.300   0.711   2.387
 8875TIP3    H226567   2.321   0.601   2.285
 8876TIP3   OH226568   7.655   0.045   2.467
 8876TIP3    H126569   7.640   0.138   2.450
 8876TIP3    H226570   7.638   0.035   2.560
 8877TIP3   OH226571   0.891   0.314   5.185
 8877TIP3    H126572   0.896   0.288   5.093
 8877TIP3    H226573   0.918   0.406   5.185
 8878TIP3   OH226574   0.609   5.923   3.329
 8878TIP3    H126575   0.562   5.905   3.410
 8878TIP3    H226576   0.567   5.867   3.264
 8879TIP3   OH226577   1.735   7.614   2.485
 8879TIP3    H126578   1.714   7.579   2.399
 8879TIP3    H226579   1.673   7.685   2.498
 8880TIP3   OH226580   8.196   0.831   4.176
 8880TIP3    H126581   8.224   0.836   4.085
 8880TIP3    H226582   8.116   0.779   4.174
 8881TIP3   OH226583   3.031   6.229   0.369
 8881TIP3    H126584   3.036   6.235   0.274
 8881TIP3    H226585   2.941   6.202   0.387
 8882TIP3   OH226586   0.179   3.575   5.943
 8882TIP3    H126587   0.155   3.653   5.894
 8882TIP3    H226588   0.098   3.524   5.951
 8883TIP3   OH226589   4.677   2.145   0.082
 8883TIP3    H126590   4.679   2.057   0.045
 8883TIP3    H226591   4.738   2.142   0.156
 8884TIP3   OH226592   3.226   4.937   5.429
 8884TIP3    H126593   3.273   4.856   5.413
 8884TIP3    H226594   3.141   4.910   5.464
 8885TIP3   OH226595   6.937   4.721   4.002
 8885TIP3    H126596   7.029   4.704   3.982
 8885TIP3    H226597   6.889   4.652   3.957
 8886TIP3   OH226598   7.240   1.563   2.589
 8886TIP3    H126599   7.229   1.516   2.507
 8886TIP3    H226600   7.254   1.654   2.563
 8887TIP3   OH226601   1.715   4.355   5.044
 8887TIP3    H126602   1.797   4.403   5.053
 8887TIP3    H226603   1.728   4.276   5.097
 8888TIP3   OH226604   3.000   7.502   0.479
 8888TIP3    H126605   3.000   7.484   0.573
 8888TIP3    H226606   2.978   7.418   0.439
 8889TIP3   OH226607   8.159   2.523   1.798
 8889TIP3    H126608   8.201   2.506   1.714
 8889TIP3    H226609   8.132   2.615   1.794
 8890TIP3   OH226610   2.745   3.663   6.204
 8890TIP3    H126611   2.746   3.668   6.300
 8890TIP3    H226612   2.678   3.727   6.178
 8891TIP3   OH226613   0.998   7.173   1.660
 8891TIP3    H126614   1.000   7.078   1.662
 8891TIP3    H226615   1.055   7.196   1.586
 8892TIP3   OH226616   7.425   6.777   0.422
 8892TIP3    H126617   7.364   6.821   0.363
 8892TIP3    H226618   7.442   6.841   0.491
 8893TIP3   OH226619   6.490   1.223   3.852
 8893TIP3    H126620   6.428   1.153   3.874
 8893TIP3    H226621   6.521   1.200   3.764
 8894TIP3   OH226622   4.922   4.189   4.737
 8894TIP3    H126623   4.847   4.152   4.689
 8894TIP3    H226624   4.884   4.262   4.787
 8895TIP3   OH226625   2.345   7.781   2.463
 8895TIP3    H126626   2.440   7.795   2.464
 8895TIP3    H226627   2.335   7.695   2.421
 8896TIP3   OH226628   5.979   6.522   3.359
 8896TIP3    H126629   5.917   6.489   3.425
 8896TIP3    H226630   6.037   6.447   3.341
 8897TIP3   OH226631   8.092   7.011   3.078
 8897TIP3    H126632   8.002   6.978   3.070
 8897TIP3    H226633   8.126   7.011   2.989
 8898TIP3   OH226634   0.788   5.502   3.085
 8898TIP3    H126635   0.807   5.572   3.148
 8898TIP3    H226636   0.693   5.491   3.089
 8899TIP3   OH226637   7.431   3.304   3.902
 8899TIP3    H126638   7.461   3.232   3.957
 8899TIP3    H226639   7.464   3.383   3.945
 8900TIP3   OH226640   4.988   4.679   4.424
 8900TIP3    H126641   5.078   4.649   4.436
 8900TIP3    H226642   4.992   4.740   4.351
 8901TIP3   OH226643   5.928   5.233   6.223
 8901TIP3    H126644   5.983   5.194   6.292
 8901TIP3    H226645   5.840   5.198   6.240
 8902TIP3   OH226646   6.322   4.809   2.845
 8902TIP3    H126647   6.326   4.738   2.910
 8902TIP3    H226648   6.276   4.879   2.890
 8903TIP3   OH226649   4.721   6.925   5.457
 8903TIP3    H126650   4.630   6.926   5.428
 8903TIP3    H226651   4.762   6.855   5.406
 8904TIP3   OH226652   4.688   0.154   2.895
 8904TIP3    H126653   4.761   0.092   2.884
 8904TIP3    H226654   4.709   0.201   2.976
 8905TIP3   OH226655   2.954   3.804   5.011
 8905TIP3    H126656   2.991   3.771   4.929
 8905TIP3    H226657   2.993   3.891   5.021
 8906TIP3   OH226658   7.469   3.824   5.013
 8906TIP3    H126659   7.435   3.832   4.923
 8906TIP3    H226660   7.484   3.730   5.024
 8907TIP3   OH226661   1.711   1.665   3.702
 8907TIP3    H126662   1.755   1.631   3.780
 8907TIP3    H226663   1.734   1.758   3.700
 8908TIP3   OH226664   4.409   6.134   4.425
 8908TIP3    H126665   4.410   6.073   4.499
 8908TIP3    H226666   4.490   6.185   4.435
 8909TIP3   OH226667   3.463   5.059   2.846
 8909TIP3    H126668   3.369   5.072   2.856
 8909TIP3    H226669   3.481   4.977   2.892
 8910TIP3   OH226670   6.341   6.041   0.018
 8910TIP3    H126671   6.376   6.102   0.083
 8910TIP3    H226672   6.322   5.962   0.067
 8911TIP3   OH226673   0.378   0.462   0.175
 8911TIP3    H126674   0.436   0.529   0.138
 8911TIP3    H226675   0.436   0.392   0.203
 8912TIP3   OH226676   2.512   3.973   0.472
 8912TIP3    H126677   2.554   3.957   0.388
 8912TIP3    H226678   2.584   3.981   0.534
 8913TIP3   OH226679   0.579   5.465   6.028
 8913TIP3    H126680   0.630   5.514   5.964
 8913TIP3    H226681   0.503   5.520   6.046
 8914TIP3   OH226682   0.468   2.044   6.620
 8914TIP3    H126683   0.379   2.042   6.584
 8914TIP3    H226684   0.498   1.953   6.615
 8915TIP3   OH226685   4.553   4.087   0.873
 8915TIP3    H126686   4.565   4.005   0.823
 8915TIP3    H226687   4.459   4.095   0.882
 8916TIP3   OH226688   1.870   1.959   2.346
 8916TIP3    H126689   1.945   1.929   2.295
 8916TIP3    H226690   1.818   2.010   2.284
 8917TIP3   OH226691   3.622   2.027   4.520
 8917TIP3    H126692   3.699   1.973   4.503
 8917TIP3    H226693   3.549   1.974   4.488
 8918TIP3   OH226694   6.478   5.184   1.229
 8918TIP3    H126695   6.534   5.113   1.198
 8918TIP3    H226696   6.481   5.249   1.159
 8919TIP3   OH226697   2.741   6.172   2.022
 8919TIP3    H126698   2.664   6.188   2.077
 8919TIP3    H226699   2.814   6.206   2.072
 8920TIP3   OH226700   7.320   2.433   5.582
 8920TIP3    H126701   7.378   2.388   5.520
 8920TIP3    H226702   7.344   2.525   5.575
 8921TIP3   OH226703   6.990   7.191   6.508
 8921TIP3    H126704   7.001   7.109   6.557
 8921TIP3    H226705   7.079   7.227   6.503
 8922TIP3   OH226706   4.958   7.088   5.251
 8922TIP3    H126707   4.928   7.000   5.273
 8922TIP3    H226708   4.879   7.142   5.259
 8923TIP3   OH226709   6.535   4.827   4.791
 8923TIP3    H126710   6.493   4.846   4.708
 8923TIP3    H226711   6.571   4.739   4.781
 8924TIP3   OH226712   3.806   3.208   0.899
 8924TIP3    H126713   3.799   3.129   0.952
 8924TIP3    H226714   3.786   3.180   0.810
 8925TIP3   OH226715   5.301   7.321   3.150
 8925TIP3    H126716   5.336   7.275   3.227
 8925TIP3    H226717   5.287   7.252   3.085
 8926TIP3   OH226718   0.247   2.519   2.766
 8926TIP3    H126719   0.212   2.553   2.849
 8926TIP3    H226720   0.174   2.469   2.728
 8927TIP3   OH226721   0.628   2.435   4.756
 8927TIP3    H126722   0.613   2.340   4.763
 8927TIP3    H226723   0.593   2.458   4.670
 8928TIP3   OH226724   6.218   3.934   3.076
 8928TIP3    H126725   6.256   3.917   3.162
 8928TIP3    H226726   6.128   3.962   3.094
 8929TIP3   OH226727   0.822   0.313   0.887
 8929TIP3    H126728   0.843   0.395   0.931
 8929TIP3    H226729   0.734   0.326   0.851
 8930TIP3   OH226730   2.269   3.417   5.552
 8930TIP3    H126731   2.264   3.353   5.623
 8930TIP3    H226732   2.363   3.433   5.540
 8931TIP3   OH226733   3.552   6.854   0.900
 8931TIP3    H126734   3.637   6.894   0.879
 8931TIP3    H226735   3.564   6.815   0.986
 8932TIP3   OH226736   5.585   6.785   5.736
 8932TIP3    H126737   5.534   6.805   5.815
 8932TIP3    H226738   5.666   6.836   5.747
 8933TIP3   OH226739   5.385   1.601   6.583
 8933TIP3    H126740   5.464   1.581   6.634
 8933TIP3    H226741   5.413   1.590   6.492
 8934TIP3   OH226742   2.613   2.518   3.786
 8934TIP3    H126743   2.601   2.580   3.857
 8934TIP3    H226744   2.567   2.557   3.712
 8935TIP3   OH226745   1.380   1.435   1.887
 8935TIP3    H126746   1.461   1.480   1.863
 8935TIP3    H226747   1.311   1.495   1.859
 8936TIP3   OH226748   7.035   4.886   0.461
 8936TIP3    H126749   7.027   4.866   0.367
 8936TIP3    H226750   7.116   4.936   0.467
 8937TIP3   OH226751   6.861   0.884   2.203
 8937TIP3    H126752   6.883   0.945   2.274
 8937TIP3    H226753   6.865   0.798   2.244
 8938TIP3   OH226754   7.533   7.306   4.276
 8938TIP3    H126755   7.539   7.324   4.182
 8938TIP3    H226756   7.538   7.393   4.317
 8939TIP3   OH226757   0.295   2.126   3.221
 8939TIP3    H126758   0.244   2.174   3.286
 8939TIP3    H226759   0.349   2.066   3.272
 8940TIP3   OH226760   3.146   7.195   3.870
 8940TIP3    H126761   3.200   7.271   3.889
 8940TIP3    H226762   3.061   7.215   3.910
 8941TIP3   OH226763   4.557   1.216   0.075
 8941TIP3    H126764   4.590   1.230  -0.014
 8941TIP3    H226765   4.489   1.149   0.064
 8942TIP3   OH226766   7.160   4.708   4.635
 8942TIP3    H126767   7.182   4.718   4.728
 8942TIP3    H226768   7.243   4.721   4.590
 8943TIP3   OH226769   1.931   6.690   1.336
 8943TIP3    H126770   1.927   6.700   1.431
 8943TIP3    H226771   1.968   6.773   1.305
 8944TIP3   OH226772   4.223   1.243   0.266
 8944TIP3    H126773   4.135   1.206   0.259
 8944TIP3    H226774   4.249   1.259   0.175
 8945TIP3   OH226775   6.124   1.838   1.682
 8945TIP3    H126776   6.040   1.883   1.672
 8945TIP3    H226777   6.101   1.748   1.706
 8946TIP3   OH226778   1.149   6.390   3.547
 8946TIP3    H126779   1.188   6.474   3.523
 8946TIP3    H226780   1.190   6.327   3.488
 8947TIP3   OH226781   7.478   1.209   0.070
 8947TIP3    H126782   7.467   1.293   0.027
 8947TIP3    H226783   7.555   1.170   0.028
 8948TIP3   OH226784   7.130   4.068   5.561
 8948TIP3    H126785   7.085   4.134   5.510
 8948TIP3    H226786   7.161   4.115   5.639
 8949TIP3   OH226787   2.252   2.900   2.066
 8949TIP3    H126788   2.173   2.850   2.085
 8949TIP3    H226789   2.302   2.843   2.007
 8950TIP3   OH226790   6.831   3.166   4.425
 8950TIP3    H126791   6.895   3.144   4.493
 8950TIP3    H226792   6.749   3.178   4.472
 8951TIP3   OH226793   2.165   7.601   1.821
 8951TIP3    H126794   2.099   7.584   1.754
 8951TIP3    H226795   2.115   7.613   1.902
 8952TIP3   OH226796   2.335   1.601   0.462
 8952TIP3    H126797   2.260   1.577   0.408
 8952TIP3    H226798   2.411   1.583   0.406
 8953TIP3   OH226799   5.714   6.521   1.936
 8953TIP3    H126800   5.700   6.559   1.849
 8953TIP3    H226801   5.711   6.596   1.996
 8954TIP3   OH226802   5.497   6.986   1.185
 8954TIP3    H126803   5.537   6.986   1.098
 8954TIP3    H226804   5.561   7.029   1.241
 8955TIP3   OH226805   3.677   2.195   6.552
 8955TIP3    H126806   3.727   2.123   6.591
 8955TIP3    H226807   3.722   2.274   6.580
 8956TIP3   OH226808   8.369   7.492   1.326
 8956TIP3    H126809   8.334   7.405   1.346
 8956TIP3    H226810   8.311   7.526   1.258
 8957TIP3   OH226811   2.907   6.074   6.098
 8957TIP3    H126812   2.917   6.130   6.175
 8957TIP3    H226813   2.865   5.994   6.131
 8958TIP3   OH226814   3.470   3.822   2.262
 8958TIP3    H126815   3.510   3.814   2.349
 8958TIP3    H226816   3.470   3.916   2.244
 8959TIP3   OH226817   4.243   7.771   1.200
 8959TIP3    H126818   4.165   7.731   1.239
 8959TIP3    H226819   4.254   7.854   1.247
 8960TIP3   OH226820   5.504   0.318   4.271
 8960TIP3    H126821   5.536   0.405   4.244
 8960TIP3    H226822   5.442   0.336   4.341
 8961TIP3   OH226823   0.196   5.725   3.897
 8961TIP3    H126824   0.271   5.766   3.941
 8961TIP3    H226825   0.120   5.768   3.936
 8962TIP3   OH226826   8.342   1.234   0.959
 8962TIP3    H126827   8.346   1.139   0.971
 8962TIP3    H226828   8.432   1.261   0.945
 8963TIP3   OH226829   7.087   6.789   0.254
 8963TIP3    H126830   7.172   6.812   0.217
 8963TIP3    H226831   7.060   6.866   0.303
 8964TIP3   OH226832   0.028   5.621   6.716
 8964TIP3    H126833   0.116   5.583   6.717
 8964TIP3    H226834   0.033   5.691   6.651
 8965TIP3   OH226835   0.484   5.005   0.106
 8965TIP3    H126836   0.566   5.049   0.130
 8965TIP3    H226837   0.464   5.038   0.018
 8966TIP3   OH226838   1.389   5.581   3.788
 8966TIP3    H126839   1.371   5.488   3.777
 8966TIP3    H226840   1.333   5.624   3.723
 8967TIP3   OH226841   0.167   3.514   6.631
 8967TIP3    H126842   0.207   3.564   6.560
 8967TIP3    H226843   0.131   3.436   6.589
 8968TIP3   OH226844   0.765   4.200   3.615
 8968TIP3    H126845   0.817   4.264   3.664
 8968TIP3    H226846   0.750   4.242   3.530
 8969TIP3   OH226847   1.219   1.834   1.300
 8969TIP3    H126848   1.307   1.838   1.336
 8969TIP3    H226849   1.210   1.915   1.249
 8970TIP3   OH226850   3.805   2.228   6.182
 8970TIP3    H126851   3.862   2.259   6.112
 8970TIP3    H226852   3.719   2.221   6.141
 8971TIP3   OH226853   6.986   0.232   0.321
 8971TIP3    H126854   6.911   0.261   0.268
 8971TIP3    H226855   7.062   0.273   0.279
 8972TIP3   OH226856   5.111   6.542   5.110
 8972TIP3    H126857   5.168   6.603   5.157
 8972TIP3    H226858   5.153   6.531   5.025
 8973TIP3   OH226859   2.656   1.447   2.531
 8973TIP3    H126860   2.681   1.362   2.568
 8973TIP3    H226861   2.639   1.502   2.607
 8974TIP3   OH226862   4.439   5.413   6.480
 8974TIP3    H126863   4.354   5.427   6.438
 8974TIP3    H226864   4.481   5.499   6.479
 8975TIP3   OH226865  -0.001   0.253   0.851
 8975TIP3    H126866  -0.060   0.313   0.804
 8975TIP3    H226867  -0.042   0.242   0.937
 8976TIP3   OH226868   2.912   5.037   6.749
 8976TIP3    H126869   2.956   5.112   6.790
 8976TIP3    H226870   2.836   5.075   6.706
 8977TIP3   OH226871   3.177   1.111   3.550
 8977TIP3    H126872   3.140   1.068   3.628
 8977TIP3    H226873   3.221   1.188   3.585
 8978TIP3   OH226874   1.388   4.727   1.192
 8978TIP3    H126875   1.398   4.770   1.107
 8978TIP3    H226876   1.472   4.684   1.207
 8979TIP3   OH226877   5.192   4.505   2.237
 8979TIP3    H126878   5.270   4.462   2.202
 8979TIP3    H226879   5.151   4.437   2.292
 8980TIP3   OH226880   2.376   5.830   0.274
 8980TIP3    H126881   2.371   5.735   0.268
 8980TIP3    H226882   2.445   5.855   0.213
 8981TIP3   OH226883   0.707   1.353   3.524
 8981TIP3    H126884   0.665   1.300   3.457
 8981TIP3    H226885   0.723   1.437   3.482
 8982TIP3   OH226886   3.435   5.696   5.812
 8982TIP3    H126887   3.374   5.767   5.792
 8982TIP3    H226888   3.514   5.718   5.763
 8983TIP3   OH226889   7.857   3.095   2.728
 8983TIP3    H126890   7.950   3.073   2.724
 8983TIP3    H226891   7.855   3.191   2.731
 8984TIP3   OH226892   5.723   1.201   6.371
 8984TIP3    H126893   5.701   1.133   6.308
 8984TIP3    H226894   5.696   1.283   6.329
 8985TIP3   OH226895   1.067   1.217   4.700
 8985TIP3    H126896   1.077   1.136   4.749
 8985TIP3    H226897   1.048   1.284   4.766
 8986TIP3   OH226898   2.086   7.484   0.194
 8986TIP3    H126899   2.085   7.566   0.144
 8986TIP3    H226900   1.994   7.464   0.210
 8987TIP3   OH226901   6.800   0.889   1.037
 8987TIP3    H126902   6.852   0.929   0.968
 8987TIP3    H226903   6.726   0.949   1.050
 8988TIP3   OH226904   5.296   1.689   3.567
 8988TIP3    H126905   5.303   1.705   3.661
 8988TIP3    H226906   5.350   1.757   3.527
 8989TIP3   OH226907   1.946   1.706   3.526
 8989TIP3    H126908   1.978   1.795   3.539
 8989TIP3    H226909   1.878   1.695   3.592
 8990TIP3   OH226910   6.014   4.361   5.039
 8990TIP3    H126911   5.943   4.312   4.997
 8990TIP3    H226912   5.979   4.385   5.125
 8991TIP3   OH226913   1.592   2.616   5.533
 8991TIP3    H126914   1.525   2.599   5.598
 8991TIP3    H226915   1.672   2.632   5.584
 8992TIP3   OH226916   6.865   2.452   4.528
 8992TIP3    H126917   6.870   2.406   4.612
 8992TIP3    H226918   6.954   2.446   4.492
 8993TIP3   OH226919   5.386   3.107   1.568
 8993TIP3    H126920   5.297   3.107   1.534
 8993TIP3    H226921   5.398   3.019   1.605
 8994TIP3   OH226922   6.745   3.754   3.476
 8994TIP3    H126923   6.760   3.759   3.381
 8994TIP3    H226924   6.792   3.676   3.504
 8995TIP3   OH226925   1.024   0.147   1.671
 8995TIP3    H126926   0.948   0.105   1.630
 8995TIP3    H226927   1.036   0.100   1.753
 8996TIP3   OH226928   2.058   0.872   2.865
 8996TIP3    H126929   2.015   0.791   2.838
 8996TIP3    H226930   1.987   0.936   2.871
 8997TIP3   OH226931   4.698   3.593   4.944
 8997TIP3    H126932   4.761   3.654   4.907
 8997TIP3    H226933   4.750   3.519   4.975
 8998TIP3   OH226934   1.599   7.835   5.257
 8998TIP3    H126935   1.537   7.884   5.204
 8998TIP3    H226936   1.676   7.890   5.263
 8999TIP3   OH226937   6.192   6.362  -0.021
 8999TIP3    H126938   6.236   6.441   0.010
 8999TIP3    H226939   6.164   6.318   0.059
 9000TIP3   OH226940   6.379   6.146   3.180
 9000TIP3    H126941   6.430   6.112   3.254
 9000TIP3    H226942   6.424   6.112   3.103
 9001TIP3   OH226943   6.159   6.459   4.252
 9001TIP3    H126944   6.204   6.543   4.266
 9001TIP3    H226945   6.067   6.478   4.273
 9002TIP3   OH226946   3.316   6.089   1.211
 9002TIP3    H126947   3.398   6.116   1.170
 9002TIP3    H226948   3.308   6.144   1.288
 9003TIP3   OH226949   1.427   1.209   3.440
 9003TIP3    H126950   1.484   1.279   3.471
 9003TIP3    H226951   1.364   1.196   3.511
 9004TIP3   OH226952   0.424   4.013   6.485
 9004TIP3    H126953   0.373   3.981   6.559
 9004TIP3    H226954   0.367   4.003   6.409
 9005TIP3   OH226955   7.410   0.701   5.954
 9005TIP3    H126956   7.497   0.672   5.930
 9005TIP3    H226957   7.412   0.708   6.049
 9006TIP3   OH226958   5.769   6.728  -0.024
 9006TIP3    H126959   5.842   6.707   0.034
 9006TIP3    H226960   5.749   6.820  -0.005
 9007TIP3   OH226961   1.647   1.104   6.811
 9007TIP3    H126962   1.735   1.068   6.811
 9007TIP3    H226963   1.659   1.198   6.795
 9008TIP3   OH226964   4.991   4.663   3.016
 9008TIP3    H126965   4.942   4.745   3.024
 9008TIP3    H226966   4.979   4.620   3.101
 9009TIP3   OH226967   5.150   6.200   0.209
 9009TIP3    H126968   5.225   6.259   0.208
 9009TIP3    H226969   5.150   6.160   0.121
 9010TIP3   OH226970   3.638   1.828   5.759
 9010TIP3    H126971   3.598   1.890   5.820
 9010TIP3    H226972   3.642   1.875   5.676
 9011TIP3   OH226973   0.386   0.997   3.603
 9011TIP3    H126974   0.292   1.002   3.621
 9011TIP3    H226975   0.427   1.032   3.681
 9012TIP3   OH226976   6.133   2.738   1.071
 9012TIP3    H126977   6.051   2.774   1.103
 9012TIP3    H226978   6.150   2.663   1.128
 9013TIP3   OH226979   3.363   0.025   1.199
 9013TIP3    H126980   3.302   0.059   1.133
 9013TIP3    H226981   3.450   0.041   1.162
 9014TIP3   OH226982   0.410   4.851   2.727
 9014TIP3    H126983   0.421   4.866   2.821
 9014TIP3    H226984   0.481   4.900   2.686
 9015TIP3   OH226985   5.156   2.557   3.403
 9015TIP3    H126986   5.104   2.561   3.483
 9015TIP3    H226987   5.236   2.606   3.423
 9016TIP3   OH226988   1.977   5.679   0.898
 9016TIP3    H126989   2.024   5.762   0.904
 9016TIP3    H226990   1.903   5.697   0.840
 9017TIP3   OH226991   5.081   1.731   1.842
 9017TIP3    H126992   5.026   1.772   1.775
 9017TIP3    H226993   5.112   1.650   1.803
 9018TIP3   OH226994   6.817   7.157   5.586
 9018TIP3    H126995   6.762   7.199   5.653
 9018TIP3    H226996   6.795   7.204   5.506
 9019TIP3   OH226997   8.039   6.789   4.903
 9019TIP3    H126998   8.007   6.705   4.935
 9019TIP3    H226999   7.993   6.854   4.956
 9020TIP3   OH227000   5.307   0.793   3.706
 9020TIP3    H127001   5.392   0.748   3.711
 9020TIP3    H227002   5.289   0.821   3.795
 9021TIP3   OH227003   3.669   5.744   1.440
 9021TIP3    H127004   3.598   5.807   1.451
 9021TIP3    H227005   3.627   5.667   1.400
 9022TIP3   OH227006   2.748   6.463   4.436
 9022TIP3    H127007   2.652   6.456   4.433
 9022TIP3    H227008   2.773   6.486   4.346
 9023TIP3   OH227009   3.139   2.059   5.004
 9023TIP3    H127010   3.143   2.031   5.095
 9023TIP3    H227011   3.230   2.078   4.981
 9024TIP3   OH227012   3.543   3.290   0.674
 9024TIP3    H127013   3.508   3.239   0.747
 9024TIP3    H227014   3.539   3.231   0.599
 9025TIP3   OH227015   6.539   0.383   1.208
 9025TIP3    H127016   6.577   0.295   1.203
 9025TIP3    H227017   6.470   0.383   1.142
 9026TIP3   OH227018   7.873   7.202   5.289
 9026TIP3    H127019   7.814   7.129   5.305
 9026TIP3    H227020   7.956   7.161   5.267
 9027TIP3   OH227021   3.614   2.825   3.373
 9027TIP3    H127022   3.673   2.821   3.297
 9027TIP3    H227023   3.624   2.739   3.415
 9028TIP3   OH227024   0.824   4.706   5.919
 9028TIP3    H127025   0.804   4.612   5.919
 9028TIP3    H227026   0.904   4.714   5.970
 9029TIP3   OH227027   0.362   4.268   1.031
 9029TIP3    H127028   0.407   4.350   1.007
 9029TIP3    H227029   0.369   4.264   1.126
 9030TIP3   OH227030   6.198   3.687   5.505
 9030TIP3    H127031   6.265   3.657   5.566
 9030TIP3    H227032   6.175   3.775   5.535
 9031TIP3   OH227033   5.129   6.755   0.442
 9031TIP3    H127034   5.222   6.775   0.455
 9031TIP3    H227035   5.125   6.721   0.352
 9032TIP3   OH227036   7.075   2.855   0.626
 9032TIP3    H127037   7.128   2.828   0.701
 9032TIP3    H227038   6.985   2.855   0.659
 9033TIP3   OH227039   6.408   2.343   2.726
 9033TIP3    H127040   6.334   2.316   2.671
 9033TIP3    H227041   6.470   2.382   2.665
 9034TIP3   OH227042   3.461   2.697   1.503
 9034TIP3    H127043   3.502   2.774   1.462
 9034TIP3    H227044   3.454   2.720   1.596
 9035TIP3   OH227045   5.868   3.651   1.034
 9035TIP3    H127046   5.858   3.572   0.980
 9035TIP3    H227047   5.839   3.624   1.121
 9036TIP3   OH227048   5.736   7.094   3.125
 9036TIP3    H127049   5.698   7.168   3.172
 9036TIP3    H227050   5.672   7.024   3.136
 9037TIP3   OH227051   7.487   3.041   0.785
 9037TIP3    H127052   7.494   3.056   0.879
 9037TIP3    H227053   7.395   3.019   0.771
 9038TIP3   OH227054   2.643   2.943   2.722
 9038TIP3    H127055   2.548   2.948   2.709
 9038TIP3    H227056   2.679   2.991   2.648
 9039TIP3   OH227057   3.977   6.091   6.620
 9039TIP3    H127058   3.918   6.131   6.556
 9039TIP3    H227059   3.988   6.158   6.688
 9040TIP3   OH227060   4.013   7.758   6.225
 9040TIP3    H127061   4.014   7.802   6.140
 9040TIP3    H227062   3.989   7.667   6.205
 9041TIP3   OH227063   5.188   5.104   6.016
 9041TIP3    H127064   5.144   5.184   6.043
 9041TIP3    H227065   5.118   5.047   5.985
 9042TIP3   OH227066   4.488   1.991   2.412
 9042TIP3    H127067   4.455   2.074   2.447
 9042TIP3    H227068   4.433   1.974   2.335
 9043TIP3   OH227069   2.895   1.768   0.043
 9043TIP3    H127070   2.979   1.726   0.062
 9043TIP3    H227071   2.853   1.710  -0.021
 9044TIP3   OH227072   7.899   0.807   2.055
 9044TIP3    H127073   7.825   0.866   2.071
 9044TIP3    H227074   7.890   0.739   2.122
 9045TIP3   OH227075   7.471   6.560   4.332
 9045TIP3    H127076   7.527   6.631   4.365
 9045TIP3    H227077   7.499   6.483   4.380
 9046TIP3   OH227078   5.963   7.481   0.946
 9046TIP3    H127079   6.049   7.492   0.986
 9046TIP3    H227080   5.982   7.461   0.854
 9047TIP3   OH227081   3.725   4.439   5.381
 9047TIP3    H127082   3.760   4.488   5.306
 9047TIP3    H227083   3.631   4.433   5.363
 9048TIP3   OH227084   7.108   0.350   2.422
 9048TIP3    H127085   7.025   0.303   2.419
 9048TIP3    H227086   7.171   0.284   2.452
 9049TIP3   OH227087   4.701   0.381   0.417
 9049TIP3    H127088   4.713   0.299   0.368
 9049TIP3    H227089   4.774   0.436   0.389
 9050TIP3   OH227090   5.758   6.759   2.096
 9050TIP3    H127091   5.729   6.840   2.054
 9050TIP3    H227092   5.832   6.786   2.151
 9051TIP3   OH227093   4.854   4.537   0.080
 9051TIP3    H127094   4.839   4.470   0.013
 9051TIP3    H227095   4.947   4.558   0.072
 9052TIP3   OH227096   7.797   7.483   6.170
 9052TIP3    H127097   7.820   7.445   6.255
 9052TIP3    H227098   7.811   7.577   6.181
 9053TIP3   OH227099   2.806   7.641   4.288
 9053TIP3    H127100   2.731   7.691   4.255
 9053TIP3    H227101   2.834   7.688   4.367
 9054TIP3   OH227102   6.226   0.631   1.423
 9054TIP3    H127103   6.249   0.609   1.333
 9054TIP3    H227104   6.298   0.686   1.454
 9055TIP3   OH227105   4.072   1.223   1.068
 9055TIP3    H127106   4.114   1.142   1.042
 9055TIP3    H227107   4.136   1.291   1.049
 9056TIP3   OH227108   6.623   3.800   4.527
 9056TIP3    H127109   6.672   3.768   4.602
 9056TIP3    H227110   6.557   3.859   4.564
 9057TIP3   OH227111   6.838   1.826   1.873
 9057TIP3    H127112   6.805   1.839   1.784
 9057TIP3    H227113   6.862   1.914   1.902
 9058TIP3   OH227114   4.213   6.290   1.469
 9058TIP3    H127115   4.141   6.256   1.521
 9058TIP3    H227116   4.282   6.309   1.533
 9059TIP3   OH227117   3.874   5.824   3.985
 9059TIP3    H127118   3.818   5.900   3.973
 9059TIP3    H227119   3.950   5.840   3.929
 9060TIP3   OH227120   1.711   2.603   3.210
 9060TIP3    H127121   1.699   2.512   3.182
 9060TIP3    H227122   1.624   2.633   3.233
 9061TIP3   OH227123   6.985   5.131   5.911
 9061TIP3    H127124   7.025   5.049   5.883
 9061TIP3    H227125   6.923   5.106   5.979
 9062TIP3   OH227126   7.857   3.912   2.070
 9062TIP3    H127127   7.787   3.968   2.103
 9062TIP3    H227128   7.858   3.838   2.131
 9063TIP3   OH227129   5.658   3.906   2.373
 9063TIP3    H127130   5.619   3.821   2.393
 9063TIP3    H227131   5.747   3.900   2.407
 9064TIP3   OH227132   6.984   5.005   3.705
 9064TIP3    H127133   7.013   4.915   3.714
 9064TIP3    H227134   7.045   5.055   3.759
 9065TIP3   OH227135   6.344   3.944   0.622
 9065TIP3    H127136   6.431   3.981   0.607
 9065TIP3    H227137   6.358   3.875   0.687
 9066TIP3   OH227138   3.583   4.619   4.614
 9066TIP3    H127139   3.673   4.605   4.584
 9066TIP3    H227140   3.534   4.544   4.581
 9067TIP3   OH227141   0.085   0.601   1.611
 9067TIP3    H127142   0.082   0.518   1.563
 9067TIP3    H227143  -0.005   0.633   1.610
 9068TIP3   OH227144   4.401   6.421   3.837
 9068TIP3    H127145   4.361   6.447   3.920
 9068TIP3    H227146   4.360   6.476   3.771
 9069TIP3   OH227147   1.200   2.651   1.228
 9069TIP3    H127148   1.108   2.639   1.247
 9069TIP3    H227149   1.208   2.745   1.209
 9070TIP3   OH227150   3.062   7.774   6.682
 9070TIP3    H127151   2.984   7.829   6.693
 9070TIP3    H227152   3.038   7.691   6.723
 9071TIP3   OH227153   2.178   7.859   2.694
 9071TIP3    H127154   2.124   7.797   2.743
 9071TIP3    H227155   2.226   7.806   2.631
 9072TIP3   OH227156   7.237   5.114   6.645
 9072TIP3    H127157   7.175   5.178   6.678
 9072TIP3    H227158   7.298   5.165   6.592
 9073TIP3   OH227159   1.326   3.128   5.242
 9073TIP3    H127160   1.339   3.046   5.291
 9073TIP3    H227161   1.336   3.197   5.308
 9074TIP3   OH227162   5.669   3.370   5.089
 9074TIP3    H127163   5.662   3.435   5.159
 9074TIP3    H227164   5.746   3.395   5.039
 9075TIP3   OH227165   2.257   5.861   3.719
 9075TIP3    H127166   2.195   5.874   3.791
 9075TIP3    H227167   2.343   5.880   3.757
 9076TIP3   OH227168   7.630   0.887   5.088
 9076TIP3    H127169   7.685   0.926   5.020
 9076TIP3    H227170   7.553   0.943   5.092
 9077TIP3   OH227171   0.900   0.568   6.074
 9077TIP3    H127172   0.947   0.561   6.157
 9077TIP3    H227173   0.810   0.543   6.095
 9078TIP3   OH227174   2.170   6.072  -0.006
 9078TIP3    H127175   2.217   6.116   0.065
 9078TIP3    H227176   2.228   6.078  -0.081
 9079TIP3   OH227177   2.181   3.610   2.006
 9079TIP3    H127178   2.275   3.628   1.998
 9079TIP3    H227179   2.155   3.653   2.088
 9080TIP3   OH227180   5.490   3.399   0.641
 9080TIP3    H127181   5.435   3.331   0.602
 9080TIP3    H227182   5.561   3.411   0.579
 9081TIP3   OH227183   6.415   2.403   3.630
 9081TIP3    H127184   6.342   2.349   3.660
 9081TIP3    H227185   6.451   2.440   3.711
 9082TIP3   OH227186   5.508   0.853   0.399
 9082TIP3    H127187   5.507   0.918   0.328
 9082TIP3    H227188   5.452   0.782   0.368
 9083TIP3   OH227189   7.048   4.079   4.502
 9083TIP3    H127190   7.021   4.132   4.427
 9083TIP3    H227191   6.992   4.002   4.499
 9084TIP3   OH227192   8.260   1.122   1.480
 9084TIP3    H127193   8.215   1.203   1.505
 9084TIP3    H227194   8.214   1.053   1.528
 9085TIP3   OH227195   3.584   0.462   5.696
 9085TIP3    H127196   3.502   0.503   5.665
 9085TIP3    H227197   3.574   0.457   5.791
 9086TIP3   OH227198   3.208   1.359   5.344
 9086TIP3    H127199   3.151   1.303   5.397
 9086TIP3    H227200   3.158   1.375   5.264
 9087TIP3   OH227201   7.383   7.202   6.747
 9087TIP3    H127202   7.391   7.196   6.842
 9087TIP3    H227203   7.368   7.112   6.718
 9088TIP3   OH227204   1.859   7.604   1.029
 9088TIP3    H127205   1.893   7.675   1.083
 9088TIP3    H227206   1.775   7.581   1.069
 9089TIP3   OH227207   5.100   5.420   5.877
 9089TIP3    H127208   5.031   5.360   5.850
 9089TIP3    H227209   5.114   5.401   5.970
 9090TIP3   OH227210   5.229   2.102   6.505
 9090TIP3    H127211   5.310   2.134   6.467
 9090TIP3    H227212   5.256   2.029   6.561
 9091TIP3   OH227213   1.753   6.173   2.473
 9091TIP3    H127214   1.793   6.175   2.386
 9091TIP3    H227215   1.819   6.134   2.529
 9092TIP3   OH227216   1.629   1.961   2.885
 9092TIP3    H127217   1.559   1.906   2.851
 9092TIP3    H227218   1.629   2.038   2.827
 9093TIP3   OH227219   1.055   5.828   5.613
 9093TIP3    H127220   1.044   5.818   5.519
 9093TIP3    H227221   1.029   5.919   5.631
 9094TIP3   OH227222   7.678   7.264   3.250
 9094TIP3    H127223   7.589   7.246   3.222
 9094TIP3    H227224   7.679   7.241   3.343
 9095TIP3   OH227225   1.565   7.035   3.169
 9095TIP3    H127226   1.472   7.019   3.155
 9095TIP3    H227227   1.581   7.009   3.259
 9096TIP3   OH227228   4.043   4.601   1.073
 9096TIP3    H127229   4.053   4.632   1.163
 9096TIP3    H227230   4.005   4.676   1.026
 9097TIP3   OH227231   7.651   5.606   4.863
 9097TIP3    H127232   7.715   5.557   4.915
 9097TIP3    H227233   7.701   5.639   4.788
 9098TIP3   OH227234   5.495   4.167   0.539
 9098TIP3    H127235   5.423   4.107   0.519
 9098TIP3    H227236   5.525   4.140   0.626
 9099TIP3   OH227237   5.217   7.708   2.250
 9099TIP3    H127238   5.217   7.739   2.341
 9099TIP3    H227239   5.309   7.707   2.225
 9100TIP3   OH227240   6.215   7.272   3.631
 9100TIP3    H127241   6.234   7.365   3.635
 9100TIP3    H227242   6.133   7.261   3.679
 9101TIP3   OH227243   1.511   4.362   6.224
 9101TIP3    H127244   1.588   4.388   6.172
 9101TIP3    H227245   1.436   4.383   6.169
 9102TIP3   OH227246   0.876   4.078   0.493
 9102TIP3    H127247   0.909   4.042   0.575
 9102TIP3    H227248   0.857   4.170   0.513
 9103TIP3   OH227249   6.471   5.360   6.765
 9103TIP3    H127250   6.405   5.374   6.833
 9103TIP3    H227251   6.421   5.329   6.690
 9104TIP3   OH227252   7.453   6.356   1.090
 9104TIP3    H127253   7.524   6.399   1.042
 9104TIP3    H227254   7.373   6.395   1.056
 9105TIP3   OH227255   3.924   2.767   6.514
 9105TIP3    H127256   3.982   2.743   6.586
 9105TIP3    H227257   3.946   2.705   6.444
 9106TIP3   OH227258   2.674   3.521   3.282
 9106TIP3    H127259   2.661   3.615   3.281
 9106TIP3    H227260   2.756   3.508   3.330
 9107TIP3   OH227261   7.871   3.887   3.641
 9107TIP3    H127262   7.907   3.829   3.708
 9107TIP3    H227263   7.791   3.923   3.681
 9108TIP3   OH227264   4.524   3.448   1.205
 9108TIP3    H127265   4.515   3.532   1.252
 9108TIP3    H227266   4.532   3.383   1.275
 9109TIP3   OH227267   2.943   1.553   2.667
 9109TIP3    H127268   2.892   1.535   2.588
 9109TIP3    H227269   2.908   1.635   2.700
 9110TIP3   OH227270   2.016   0.283   2.598
 9110TIP3    H127271   2.041   0.363   2.643
 9110TIP3    H227272   2.075   0.279   2.523
 9111TIP3   OH227273   8.050   3.818   0.556
 9111TIP3    H127274   7.981   3.793   0.618
 9111TIP3    H227275   8.046   3.914   0.553
 9112TIP3   OH227276   7.242   5.814   6.662
 9112TIP3    H127277   7.146   5.811   6.668
 9112TIP3    H227278   7.262   5.903   6.635
 9113TIP3   OH227279   1.656   7.511   2.242
 9113TIP3    H127280   1.616   7.439   2.290
 9113TIP3    H227281   1.650   7.484   2.150
 9114TIP3   OH227282   3.713   4.062   5.674
 9114TIP3    H127283   3.723   4.156   5.658
 9114TIP3    H227284   3.637   4.037   5.622
 9115TIP3   OH227285   0.691   2.204   0.776
 9115TIP3    H127286   0.709   2.298   0.776
 9115TIP3    H227287   0.647   2.188   0.693
 9116TIP3   OH227288   3.240   3.019   0.494
 9116TIP3    H127289   3.192   2.980   0.567
 9116TIP3    H227290   3.172   3.047   0.433
 9117TIP3   OH227291   2.343   1.664   2.327
 9117TIP3    H127292   2.281   1.634   2.261
 9117TIP3    H227293   2.315   1.620   2.408
 9118TIP3   OH227294   5.483   4.508   5.876
 9118TIP3    H127295   5.424   4.434   5.861
 9118TIP3    H227296   5.466   4.533   5.967
 9119TIP3   OH227297   8.387   3.612   5.334
 9119TIP3    H127298   8.423   3.534   5.290
 9119TIP3    H227299   8.341   3.659   5.265
 9120TIP3   OH227300   3.974   3.404   3.624
 9120TIP3    H127301   3.886   3.385   3.657
 9120TIP3    H227302   4.006   3.475   3.680
 9121TIP3   OH227303   6.891   1.951   3.463
 9121TIP3    H127304   6.841   2.022   3.421
 9121TIP3    H227305   6.955   1.997   3.517
 9122TIP3   OH227306   6.133   7.775   5.840
 9122TIP3    H127307   6.159   7.701   5.785
 9122TIP3    H227308   6.152   7.745   5.930
 9123TIP3   OH227309   1.687   6.742   5.044
 9123TIP3    H127310   1.735   6.811   5.090
 9123TIP3    H227311   1.595   6.759   5.065
 9124TIP3   OH227312   4.878   0.748   0.523
 9124TIP3    H127313   4.868   0.840   0.548
 9124TIP3    H227314   4.970   0.728   0.540
 9125TIP3   OH227315   4.708   6.718   1.904
 9125TIP3    H127316   4.788   6.760   1.871
 9125TIP3    H227317   4.740   6.649   1.961
 9126TIP3   OH227318   6.543   4.777   5.721
 9126TIP3    H127319   6.548   4.681   5.720
 9126TIP3    H227320   6.591   4.803   5.642
 9127TIP3   OH227321   4.646   1.251   1.801
 9127TIP3    H127322   4.582   1.245   1.873
 9127TIP3    H227323   4.628   1.174   1.747
 9128TIP3   OH227324   6.217   3.748   5.834
 9128TIP3    H127325   6.265   3.796   5.902
 9128TIP3    H227326   6.204   3.812   5.764
 9129TIP3   OH227327   4.090   6.909   6.820
 9129TIP3    H127328   4.126   6.912   6.909
 9129TIP3    H227329   4.163   6.884   6.765
 9130TIP3   OH227330   4.208   3.293   3.851
 9130TIP3    H127331   4.160   3.215   3.822
 9130TIP3    H227332   4.144   3.364   3.845
 9131TIP3   OH227333   1.995   7.716   4.667
 9131TIP3    H127334   1.918   7.676   4.708
 9131TIP3    H227335   1.960   7.790   4.618
 9132TIP3   OH227336   0.624   3.803   2.240
 9132TIP3    H127337   0.542   3.755   2.247
 9132TIP3    H227338   0.622   3.865   2.312
 9133TIP3   OH227339   6.958   0.721   6.113
 9133TIP3    H127340   7.033   0.749   6.061
 9133TIP3    H227341   6.920   0.802   6.146
 9134TIP3   OH227342   0.884   4.666   5.400
 9134TIP3    H127343   0.843   4.752   5.409
 9134TIP3    H227344   0.949   4.663   5.471
 9135TIP3   OH227345   2.899   3.984   3.279
 9135TIP3    H127346   2.995   3.984   3.276
 9135TIP3    H227347   2.878   4.003   3.370
 9136TIP3   OH227348   7.332   1.998   0.880
 9136TIP3    H127349   7.358   2.005   0.972
 9136TIP3    H227350   7.357   1.909   0.855
 9137TIP3   OH227351   1.714   7.668   3.843
 9137TIP3    H127352   1.741   7.667   3.935
 9137TIP3    H227353   1.796   7.668   3.794
 9138TIP3   OH227354   0.274   7.215   4.237
 9138TIP3    H127355   0.306   7.244   4.152
 9138TIP3    H227356   0.242   7.295   4.279
 9139TIP3   OH227357   2.261   1.950   5.750
 9139TIP3    H127358   2.327   2.017   5.768
 9139TIP3    H227359   2.179   1.999   5.737
 9140TIP3   OH227360   6.949   3.740   5.500
 9140TIP3    H127361   6.932   3.824   5.542
 9140TIP3    H227362   6.887   3.737   5.427
 9141TIP3   OH227363   6.231   6.392   3.355
 9141TIP3    H127364   6.265   6.404   3.266
 9141TIP3    H227365   6.290   6.444   3.410
 9142TIP3   OH227366   2.704   2.236   6.262
 9142TIP3    H127367   2.780   2.285   6.295
 9142TIP3    H227368   2.652   2.302   6.217
 9143TIP3   OH227369   5.926   6.590   1.617
 9143TIP3    H127370   5.927   6.631   1.531
 9143TIP3    H227371   5.882   6.506   1.603
 9144TIP3   OH227372   2.941   1.610   6.341
 9144TIP3    H127373   2.916   1.677   6.405
 9144TIP3    H227374   2.948   1.657   6.258
 9145TIP3   OH227375   2.599   6.048   0.304
 9145TIP3    H127376   2.623   5.987   0.234
 9145TIP3    H227377   2.591   5.993   0.382
 9146TIP3   OH227378   4.459   7.130   0.900
 9146TIP3    H127379   4.522   7.200   0.916
 9146TIP3    H227380   4.501   7.051   0.933
 9147TIP3   OH227381   1.279   3.556   1.274
 9147TIP3    H127382   1.337   3.628   1.250
 9147TIP3    H227383   1.195   3.578   1.234
 9148TIP3   OH227384   1.063   6.070   1.675
 9148TIP3    H127385   1.128   6.051   1.743
 9148TIP3    H227386   1.033   5.984   1.646
 9149TIP3   OH227387   2.467   6.132   4.358
 9149TIP3    H127388   2.556   6.117   4.389
 9149TIP3    H227389   2.472   6.121   4.263
 9150TIP3   OH227390   7.941   0.470   4.747
 9150TIP3    H127391   7.931   0.377   4.771
 9150TIP3    H227392   7.977   0.510   4.826
 9151TIP3   OH227393   0.584   4.161   2.200
 9151TIP3    H127394   0.584   4.253   2.228
 9151TIP3    H227395   0.494   4.132   2.212
 9152TIP3   OH227396   2.926   7.435   6.552
 9152TIP3    H127397   2.920   7.345   6.522
 9152TIP3    H227398   2.906   7.488   6.474
 9153TIP3   OH227399   7.939   3.289   3.459
 9153TIP3    H127400   7.963   3.270   3.549
 9153TIP3    H227401   7.968   3.379   3.445
 9154TIP3   OH227402   8.366   6.253   2.984
 9154TIP3    H127403   8.292   6.260   3.043
 9154TIP3    H227404   8.392   6.344   2.967
 9155TIP3   OH227405   2.061   7.445   4.836
 9155TIP3    H127406   2.073   7.526   4.886
 9155TIP3    H227407   2.122   7.383   4.875
 9156TIP3   OH227408   5.308   1.751   3.848
 9156TIP3    H127409   5.370   1.822   3.834
 9156TIP3    H227410   5.257   1.779   3.924
 9157TIP3   OH227411   8.032   4.291   2.866
 9157TIP3    H127412   7.972   4.219   2.845
 9157TIP3    H227413   8.090   4.255   2.933
 9158TIP3   OH227414   7.546   3.468   5.859
 9158TIP3    H127415   7.502   3.452   5.775
 9158TIP3    H227416   7.505   3.548   5.892
 9159TIP3   OH227417   3.787   3.519   6.115
 9159TIP3    H127418   3.699   3.483   6.120
 9159TIP3    H227419   3.788   3.590   6.180
 9160TIP3   OH227420   6.030   3.681   0.211
 9160TIP3    H127421   6.064   3.663   0.123
 9160TIP3    H227422   6.104   3.718   0.259
 9161TIP3   OH227423   1.327   2.099   3.964
 9161TIP3    H127424   1.317   2.185   4.004
 9161TIP3    H227425   1.304   2.037   4.034
 9162TIP3   OH227426   7.908   0.931   0.804
 9162TIP3    H127427   7.947   1.015   0.828
 9162TIP3    H227428   7.814   0.947   0.806
 9163TIP3   OH227429   5.830   3.207   6.036
 9163TIP3    H127430   5.779   3.146   6.089
 9163TIP3    H227431   5.857   3.276   6.097
 9164TIP3   OH227432   6.707   1.085   0.321
 9164TIP3    H127433   6.638   1.048   0.266
 9164TIP3    H227434   6.747   1.010   0.365
 9165TIP3   OH227435   0.854   5.758   5.378
 9165TIP3    H127436   0.785   5.808   5.422
 9165TIP3    H227437   0.812   5.676   5.352
 9166TIP3   OH227438   2.078   2.035   6.312
 9166TIP3    H127439   2.159   2.086   6.304
 9166TIP3    H227440   2.011   2.100   6.332
 9167TIP3   OH227441   0.217   7.213   4.538
 9167TIP3    H127442   0.162   7.284   4.505
 9167TIP3    H227443   0.246   7.167   4.459
 9168TIP3   OH227444   7.952   5.640   1.118
 9168TIP3    H127445   7.880   5.691   1.081
 9168TIP3    H227446   7.911   5.561   1.151
 9169TIP3   OH227447   5.576   5.569   0.986
 9169TIP3    H127448   5.508   5.588   0.921
 9169TIP3    H227449   5.651   5.539   0.935
 9170TIP3   OH227450   6.417   7.187   4.555
 9170TIP3    H127451   6.431   7.261   4.613
 9170TIP3    H227452   6.426   7.224   4.467
 9171TIP3   OH227453   3.170   4.149   4.234
 9171TIP3    H127454   3.195   4.060   4.207
 9171TIP3    H227455   3.125   4.185   4.158
 9172TIP3   OH227456   3.930   2.026   5.235
 9172TIP3    H127457   3.983   1.949   5.254
 9172TIP3    H227458   3.927   2.075   5.317
 9173TIP3   OH227459   0.383   6.035   0.554
 9173TIP3    H127460   0.401   6.108   0.494
 9173TIP3    H227461   0.375   5.959   0.496
 9174TIP3   OH227462   7.047   4.149   4.996
 9174TIP3    H127463   7.097   4.110   5.068
 9174TIP3    H227464   7.108   4.209   4.953
 9175TIP3   OH227465   0.199   5.039   1.947
 9175TIP3    H127466   0.139   5.112   1.963
 9175TIP3    H227467   0.279   5.063   1.995
 9176TIP3   OH227468   0.420   5.008   3.844
 9176TIP3    H127469   0.499   4.956   3.828
 9176TIP3    H227470   0.404   5.054   3.762
 9177TIP3   OH227471   0.347   1.712   5.859
 9177TIP3    H127472   0.413   1.781   5.850
 9177TIP3    H227473   0.267   1.759   5.883
 9178TIP3   OH227474   5.613   4.726   3.861
 9178TIP3    H127475   5.541   4.679   3.819
 9178TIP3    H227476   5.657   4.660   3.915
 9179TIP3   OH227477   5.857   3.466   6.161
 9179TIP3    H127478   5.804   3.506   6.091
 9179TIP3    H227479   5.931   3.525   6.172
 9180TIP3   OH227480   4.801   0.567   4.077
 9180TIP3    H127481   4.854   0.612   4.143
 9180TIP3    H227482   4.758   0.637   4.029
 9181TIP3   OH227483   7.175   5.218   4.828
 9181TIP3    H127484   7.123   5.142   4.853
 9181TIP3    H227485   7.176   5.216   4.733
 9182TIP3   OH227486   1.279   2.154   5.023
 9182TIP3    H127487   1.293   2.242   4.988
 9182TIP3    H227488   1.359   2.135   5.073
 9183TIP3   OH227489   5.951   1.124   5.519
 9183TIP3    H127490   6.004   1.058   5.563
 9183TIP3    H227491   5.865   1.117   5.561
 9184TIP3   OH227492   8.064   2.978   3.992
 9184TIP3    H127493   8.010   2.958   4.069
 9184TIP3    H227494   8.121   3.049   4.020
 9185TIP3   OH227495   0.320   7.161   3.001
 9185TIP3    H127496   0.277   7.080   2.973
 9185TIP3    H227497   0.290   7.174   3.091
 9186TIP3   OH227498   6.325   0.735   2.258
 9186TIP3    H127499   6.308   0.711   2.168
 9186TIP3    H227500   6.389   0.672   2.289
 9187TIP3   OH227501   2.239   6.133   6.526
 9187TIP3    H127502   2.159   6.090   6.495
 9187TIP3    H227503   2.209   6.216   6.563
 9188TIP3   OH227504   7.543   0.189   0.215
 9188TIP3    H127505   7.566   0.281   0.214
 9188TIP3    H227506   7.613   0.147   0.265
 9189TIP3   OH227507   5.307   7.824   1.860
 9189TIP3    H127508   5.256   7.837   1.940
 9189TIP3    H227509   5.391   7.866   1.879
 9190TIP3   OH227510   1.633   4.556   1.758
 9190TIP3    H127511   1.572   4.487   1.730
 9190TIP3    H227512   1.610   4.632   1.704
 9191TIP3   OH227513   7.284   0.683   6.218
 9191TIP3    H127514   7.212   0.653   6.273
 9191TIP3    H227515   7.285   0.778   6.229
 9192TIP3   OH227516   6.252   0.030   5.438
 9192TIP3    H127517   6.248   0.089   5.513
 9192TIP3    H227518   6.195  -0.042   5.461
 9193TIP3   OH227519   6.492   0.688   4.010
 9193TIP3    H127520   6.512   0.679   4.104
 9193TIP3    H227521   6.399   0.668   4.004
 9194TIP3   OH227522   6.829   3.140   4.154
 9194TIP3    H127523   6.767   3.071   4.175
 9194TIP3    H227524   6.850   3.180   4.238
 9195TIP3   OH227525   1.993   6.915   0.116
 9195TIP3    H127526   2.024   6.991   0.166
 9195TIP3    H227527   2.033   6.840   0.161
 9196TIP3   OH227528   5.939   7.322   3.034
 9196TIP3    H127529   5.929   7.239   3.079
 9196TIP3    H227530   5.853   7.363   3.039
 9197TIP3   OH227531   4.723   7.843   1.701
 9197TIP3    H127532   4.706   7.938   1.701
 9197TIP3    H227533   4.636   7.803   1.699
 9198TIP3   OH227534   5.065   3.219   3.008
 9198TIP3    H127535   4.992   3.167   2.974
 9198TIP3    H227536   5.046   3.308   2.980
 9199TIP3   OH227537   4.022   0.986   2.575
 9199TIP3    H127538   3.935   1.021   2.551
 9199TIP3    H227539   4.080   1.017   2.505
 9200TIP3   OH227540   1.917   3.096   5.230
 9200TIP3    H127541   1.893   3.030   5.294
 9200TIP3    H227542   1.961   3.048   5.160
 9201TIP3   OH227543   1.971   0.440   1.294
 9201TIP3    H127544   1.991   0.521   1.247
 9201TIP3    H227545   2.007   0.453   1.381
 9202TIP3   OH227546   5.457   2.238   2.540
 9202TIP3    H127547   5.534   2.193   2.505
 9202TIP3    H227548   5.387   2.217   2.479
 9203TIP3   OH227549   1.072   6.472   6.504
 9203TIP3    H127550   1.085   6.406   6.436
 9203TIP3    H227551   1.098   6.427   6.585
 9204TIP3   OH227552   2.357   0.506   2.016
 9204TIP3    H127553   2.286   0.556   1.975
 9204TIP3    H227554   2.425   0.502   1.950
 9205TIP3   OH227555   0.269   3.329   0.851
 9205TIP3    H127556   0.265   3.241   0.815
 9205TIP3    H227557   0.349   3.330   0.904
 9206TIP3   OH227558   8.251   4.245   5.355
 9206TIP3    H127559   8.336   4.289   5.360
 9206TIP3    H227560   8.187   4.314   5.372
 9207TIP3   OH227561   3.238   7.510   6.502
 9207TIP3    H127562   3.275   7.444   6.560
 9207TIP3    H227563   3.151   7.529   6.538
 9208TIP3   OH227564   5.569   2.625   5.544
 9208TIP3    H127565   5.614   2.550   5.584
 9208TIP3    H227566   5.555   2.686   5.617
 9209TIP3   OH227567   0.538   4.855   3.382
 9209TIP3    H127568   0.480   4.813   3.318
 9209TIP3    H227569   0.487   4.856   3.463
 9210TIP3   OH227570   4.852   7.744   5.613
 9210TIP3    H127571   4.925   7.770   5.558
 9210TIP3    H227572   4.866   7.651   5.629
 9211TIP3   OH227573   8.277   7.192   2.149
 9211TIP3    H127574   8.330   7.254   2.199
 9211TIP3    H227575   8.305   7.106   2.181
 9212TIP3   OH227576   0.846   7.540   2.959
 9212TIP3    H127577   0.875   7.465   3.011
 9212TIP3    H227578   0.764   7.568   3.001
 9213TIP3   OH227579   1.527   5.741   4.497
 9213TIP3    H127580   1.499   5.803   4.429
 9213TIP3    H227581   1.481   5.660   4.474
 9214TIP3   OH227582   5.733   2.449   1.901
 9214TIP3    H127583   5.743   2.367   1.951
 9214TIP3    H227584   5.639   2.460   1.892
 9215TIP3   OH227585   7.492   7.200   5.485
 9215TIP3    H127586   7.545   7.251   5.546
 9215TIP3    H227587   7.403   7.233   5.498
 9216TIP3   OH227588   2.053   4.508   1.200
 9216TIP3    H127589   2.128   4.562   1.177
 9216TIP3    H227590   2.091   4.430   1.240
 9217TIP3   OH227591   0.624   2.600   2.207
 9217TIP3    H127592   0.584   2.685   2.223
 9217TIP3    H227593   0.599   2.547   2.282
 9218TIP3   OH227594   0.519   3.861   3.777
 9218TIP3    H127595   0.491   3.780   3.820
 9218TIP3    H227596   0.544   3.833   3.688
 9219TIP3   OH227597   6.086   3.013   4.051
 9219TIP3    H127598   6.037   2.959   3.989
 9219TIP3    H227599   6.168   2.966   4.064
 9220TIP3   OH227600   3.780   0.095   0.665
 9220TIP3    H127601   3.764   0.173   0.611
 9220TIP3    H227602   3.748   0.120   0.752
 9221TIP3   OH227603   6.120   4.730   0.745
 9221TIP3    H127604   6.032   4.693   0.759
 9221TIP3    H227605   6.117   4.815   0.789
 9222TIP3   OH227606   8.076   4.519   3.207
 9222TIP3    H127607   7.989   4.530   3.246
 9222TIP3    H227608   8.082   4.426   3.185
 9223TIP3   OH227609   1.111   2.301  -0.019
 9223TIP3    H127610   1.018   2.297   0.002
 9223TIP3    H227611   1.139   2.387   0.012
 9224TIP3   OH227612   7.651   5.939   0.215
 9224TIP3    H127613   7.666   5.844   0.216
 9224TIP3    H227614   7.557   5.948   0.203
 9225TIP3   OH227615   4.585   5.033   2.824
 9225TIP3    H127616   4.622   5.013   2.739
 9225TIP3    H227617   4.642   4.989   2.887
 9226TIP3   OH227618   7.548   1.083   2.624
 9226TIP3    H127619   7.535   1.137   2.547
 9226TIP3    H227620   7.465   1.089   2.672
 9227TIP3   OH227621   8.197   6.345   2.001
 9227TIP3    H127622   8.241   6.426   2.029
 9227TIP3    H227623   8.152   6.369   1.920
 9228TIP3   OH227624   1.697   4.272   0.836
 9228TIP3    H127625   1.752   4.277   0.758
 9228TIP3    H227626   1.756   4.292   0.909
 9229TIP3   OH227627   2.272   5.235   5.358
 9229TIP3    H127628   2.337   5.235   5.429
 9229TIP3    H227629   2.250   5.327   5.345
 9230TIP3   OH227630   6.447   6.658   2.216
 9230TIP3    H127631   6.460   6.746   2.251
 9230TIP3    H227632   6.353   6.642   2.228
 9231TIP3   OH227633   7.059   3.985   4.091
 9231TIP3    H127634   7.056   4.080   4.105
 9231TIP3    H227635   6.967   3.959   4.085
 9232TIP3   OH227636   7.568   1.572   5.556
 9232TIP3    H127637   7.658   1.599   5.540
 9232TIP3    H227638   7.571   1.476   5.553
 9233TIP3   OH227639   1.695   4.434   2.264
 9233TIP3    H127640   1.706   4.522   2.229
 9233TIP3    H227641   1.709   4.443   2.358
 9234TIP3   OH227642   7.127   4.776   3.704
 9234TIP3    H127643   7.133   4.734   3.618
 9234TIP3    H227644   7.211   4.822   3.714
 9235TIP3   OH227645   2.007   5.943   3.050
 9235TIP3    H127646   1.955   5.892   3.113
 9235TIP3    H227647   1.949   6.014   3.024
 9236TIP3   OH227648   3.056   1.416   6.088
 9236TIP3    H127649   3.135   1.381   6.047
 9236TIP3    H227650   3.047   1.365   6.169
 9237TIP3   OH227651   0.568   3.442   2.198
 9237TIP3    H127652   0.495   3.499   2.223
 9237TIP3    H227653   0.548   3.416   2.108
 9238TIP3   OH227654   7.412   6.008   5.369
 9238TIP3    H127655   7.405   5.947   5.295
 9238TIP3    H227656   7.501   6.042   5.364
 9239TIP3   OH227657   6.716   7.473   1.160
 9239TIP3    H127658   6.643   7.516   1.205
 9239TIP3    H227659   6.755   7.542   1.106
 9240TIP3   OH227660   4.862   5.474   4.130
 9240TIP3    H127661   4.907   5.390   4.138
 9240TIP3    H227662   4.899   5.514   4.051
 9241TIP3   OH227663   3.404   0.403   6.636
 9241TIP3    H127664   3.442   0.336   6.693
 9241TIP3    H227665   3.395   0.479   6.692
 9242TIP3   OH227666   2.217   5.296   0.182
 9242TIP3    H127667   2.184   5.362   0.243
 9242TIP3    H227668   2.248   5.225   0.238
 9243TIP3   OH227669   0.223   5.552   5.449
 9243TIP3    H127670   0.222   5.503   5.531
 9243TIP3    H227671   0.285   5.504   5.393
 9244TIP3   OH227672   3.389   1.718   3.147
 9244TIP3    H127673   3.326   1.791   3.151
 9244TIP3    H227674   3.362   1.668   3.070
 9245TIP3   OH227675   7.524   7.578   5.600
 9245TIP3    H127676   7.563   7.664   5.616
 9245TIP3    H227677   7.598   7.520   5.581
 9246TIP3   OH227678   0.735   7.707   5.980
 9246TIP3    H127679   0.788   7.757   5.918
 9246TIP3    H227680   0.797   7.648   6.023
 9247TIP3   OH227681   2.336   0.164   4.616
 9247TIP3    H127682   2.371   0.213   4.691
 9247TIP3    H227683   2.258   0.213   4.589
 9248TIP3   OH227684   4.921   0.896   1.009
 9248TIP3    H127685   5.015   0.886   1.023
 9248TIP3    H227686   4.882   0.887   1.096
 9249TIP3   OH227687   0.412   5.586   1.074
 9249TIP3    H127688   0.383   5.589   0.983
 9249TIP3    H227689   0.485   5.648   1.078
 9250TIP3   OH227690   4.140   3.616   6.545
 9250TIP3    H127691   4.176   3.636   6.632
 9250TIP3    H227692   4.196   3.665   6.485
 9251TIP3   OH227693   0.376   2.380   0.909
 9251TIP3    H127694   0.406   2.290   0.920
 9251TIP3    H227695   0.294   2.385   0.958
 9252TIP3   OH227696   5.773   5.560   3.797
 9252TIP3    H127697   5.731   5.633   3.843
 9252TIP3    H227698   5.710   5.535   3.730
 9253TIP3   OH227699   0.562   6.606   5.556
 9253TIP3    H127700   0.541   6.538   5.492
 9253TIP3    H227701   0.498   6.595   5.626
 9254TIP3   OH227702   7.894   2.475   4.455
 9254TIP3    H127703   7.931   2.559   4.427
 9254TIP3    H227704   7.926   2.464   4.545
 9255TIP3   OH227705   1.299   0.658   4.796
 9255TIP3    H127706   1.291   0.606   4.877
 9255TIP3    H227707   1.390   0.689   4.798
 9256TIP3   OH227708   1.696   3.114   4.131
 9256TIP3    H127709   1.761   3.085   4.195
 9256TIP3    H227710   1.624   3.149   4.183
 9257TIP3   OH227711   4.468   5.870   0.722
 9257TIP3    H127712   4.505   5.906   0.803
 9257TIP3    H227713   4.525   5.903   0.652
 9258TIP3   OH227714   1.469   1.608   5.705
 9258TIP3    H127715   1.523   1.615   5.783
 9258TIP3    H227716   1.386   1.651   5.729
 9259TIP3   OH227717   7.588   7.134   4.716
 9259TIP3    H127718   7.599   7.226   4.690
 9259TIP3    H227719   7.503   7.109   4.679
 9260TIP3   OH227720   4.466   0.198   5.701
 9260TIP3    H127721   4.437   0.160   5.785
 9260TIP3    H227722   4.386   0.229   5.659
 9261TIP3   OH227723   1.138   1.686   2.181
 9261TIP3    H127724   1.157   1.771   2.219
 9261TIP3    H227725   1.065   1.702   2.120
 9262TIP3   OH227726   4.613   1.276   1.141
 9262TIP3    H127727   4.583   1.276   1.051
 9262TIP3    H227728   4.708   1.289   1.135
 9263TIP3   OH227729   1.270   4.484   1.182
 9263TIP3    H127730   1.303   4.573   1.176
 9263TIP3    H227731   1.262   4.468   1.276
 9264TIP3   OH227732   3.951   3.973   4.451
 9264TIP3    H127733   3.955   3.979   4.355
 9264TIP3    H227734   4.023   4.028   4.481
 9265TIP3   OH227735   2.520   5.835   4.479
 9265TIP3    H127736   2.451   5.833   4.413
 9265TIP3    H227737   2.570   5.754   4.463
 9266TIP3   OH227738   6.390   2.381   2.387
 9266TIP3    H127739   6.337   2.305   2.364
 9266TIP3    H227740   6.475   2.344   2.411
 9267TIP3   OH227741   8.099   2.117   3.516
 9267TIP3    H127742   8.020   2.113   3.463
 9267TIP3    H227743   8.108   2.210   3.538
 9268TIP3   OH227744   8.023   5.442   0.104
 9268TIP3    H127745   8.112   5.447   0.069
 9268TIP3    H227746   7.997   5.534   0.114
 9269TIP3   OH227747   2.192   7.397   4.359
 9269TIP3    H127748   2.175   7.303   4.354
 9269TIP3    H227749   2.224   7.412   4.448
 9270TIP3   OH227750   0.176   3.066   6.580
 9270TIP3    H127751   0.258   3.017   6.589
 9270TIP3    H227752   0.115   3.005   6.539
 9271TIP3   OH227753   6.069   5.933   1.781
 9271TIP3    H127754   6.108   5.998   1.840
 9271TIP3    H227755   6.131   5.926   1.708
 9272TIP3   OH227756   1.805   6.256   3.372
 9272TIP3    H127757   1.775   6.249   3.462
 9272TIP3    H227758   1.752   6.326   3.333
 9273TIP3   OH227759   3.333   1.143   6.217
 9273TIP3    H127760   3.276   1.067   6.201
 9273TIP3    H227761   3.407   1.130   6.158
 9274TIP3   OH227762   6.817   5.233   1.786
 9274TIP3    H127763   6.737   5.285   1.791
 9274TIP3    H227764   6.804   5.163   1.851
 9275TIP3   OH227765   2.766   7.849   5.076
 9275TIP3    H127766   2.760   7.942   5.097
 9275TIP3    H227767   2.860   7.833   5.064
 9276TIP3   OH227768   1.471   4.406   1.593
 9276TIP3    H127769   1.404   4.465   1.558
 9276TIP3    H227770   1.435   4.375   1.676
 9277TIP3   OH227771   0.779   5.383   4.539
 9277TIP3    H127772   0.802   5.474   4.558
 9277TIP3    H227773   0.803   5.371   4.447
 9278TIP3   OH227774   0.465   6.716   1.536
 9278TIP3    H127775   0.495   6.797   1.576
 9278TIP3    H227776   0.456   6.655   1.610
 9279TIP3   OH227777   2.403   7.233   2.994
 9279TIP3    H127778   2.317   7.220   2.955
 9279TIP3    H227779   2.387   7.236   3.088
 9280TIP3   OH227780   5.844   0.299   3.333
 9280TIP3    H127781   5.840   0.279   3.240
 9280TIP3    H227782   5.863   0.393   3.337
 9281TIP3   OH227783   4.306   7.287   1.552
 9281TIP3    H127784   4.281   7.346   1.481
 9281TIP3    H227785   4.223   7.246   1.579
 9282TIP3   OH227786   0.441   7.699  -0.020
 9282TIP3    H127787   0.474   7.751   0.053
 9282TIP3    H227788   0.445   7.609   0.010
 9283TIP3   OH227789   7.419   5.557   5.422
 9283TIP3    H127790   7.339   5.586   5.467
 9283TIP3    H227791   7.410   5.590   5.333
 9284TIP3   OH227792   3.886   7.294   3.137
 9284TIP3    H127793   3.887   7.209   3.180
 9284TIP3    H227794   3.939   7.282   3.058
 9285TIP3   OH227795   3.449   4.967   4.620
 9285TIP3    H127796   3.460   4.888   4.673
 9285TIP3    H227797   3.355   4.971   4.604
 9286TIP3   OH227798   5.711   0.904   1.976
 9286TIP3    H127799   5.635   0.925   2.030
 9286TIP3    H227800   5.685   0.927   1.887
 9287TIP3   OH227801   2.294   5.870   1.678
 9287TIP3    H127802   2.260   5.948   1.634
 9287TIP3    H227803   2.235   5.856   1.752
 9288TIP3   OH227804   6.419   1.503   1.794
 9288TIP3    H127805   6.512   1.506   1.773
 9288TIP3    H227806   6.416   1.503   1.890
 9289TIP3   OH227807   0.272   3.788   0.872
 9289TIP3    H127808   0.230   3.874   0.873
 9289TIP3    H227809   0.366   3.806   0.875
 9290TIP3   OH227810   1.734   6.524   0.828
 9290TIP3    H127811   1.736   6.587   0.755
 9290TIP3    H227812   1.765   6.443   0.789
 9291TIP3   OH227813   0.446   0.858   6.695
 9291TIP3    H127814   0.373   0.916   6.677
 9291TIP3    H227815   0.489   0.846   6.610
 9292TIP3   OH227816   3.785   0.899   1.189
 9292TIP3    H127817   3.770   0.806   1.199
 9292TIP3    H227818   3.854   0.905   1.123
 9293TIP3   OH227819   0.536   6.912   3.271
 9293TIP3    H127820   0.448   6.876   3.272
 9293TIP3    H227821   0.549   6.946   3.360
 9294TIP3   OH227822   5.912   6.870   1.799
 9294TIP3    H127823   5.991   6.885   1.851
 9294TIP3    H227824   5.942   6.816   1.726
 9295TIP3   OH227825   3.916   1.072   4.173
 9295TIP3    H127826   3.892   1.057   4.265
 9295TIP3    H227827   3.999   1.025   4.162
 9296TIP3   OH227828   4.796   7.368   0.715
 9296TIP3    H127829   4.737   7.407   0.650
 9296TIP3    H227830   4.796   7.430   0.787
 9297TIP3   OH227831   3.267   7.492   3.555
 9297TIP3    H127832   3.287   7.495   3.461
 9297TIP3    H227833   3.264   7.399   3.576
 9298TIP3   OH227834   0.981   0.008   2.965
 9298TIP3    H127835   1.069  -0.006   3.001
 9298TIP3    H227836   0.996   0.052   2.881
 9299TIP3   OH227837   1.447   3.416   6.066
 9299TIP3    H127838   1.375   3.354   6.055
 9299TIP3    H227839   1.509   3.393   5.996
 9300TIP3   OH227840   3.572   2.462   1.369
 9300TIP3    H127841   3.531   2.540   1.404
 9300TIP3    H227842   3.500   2.411   1.332
 9301TIP3   OH227843   3.883   7.138   1.851
 9301TIP3    H127844   3.811   7.201   1.852
 9301TIP3    H227845   3.876   7.095   1.765
 9302TIP3   OH227846   6.141   3.519   2.396
 9302TIP3    H127847   6.076   3.450   2.408
 9302TIP3    H227848   6.151   3.527   2.302
 9303TIP3   OH227849   0.226   3.695   6.184
 9303TIP3    H127850   0.192   3.657   6.102
 9303TIP3    H227851   0.294   3.756   6.155
 9304TIP3   OH227852   1.036   7.617   4.755
 9304TIP3    H127853   1.044   7.708   4.784
 9304TIP3    H227854   0.983   7.575   4.823
 9305TIP3   OH227855   7.645   5.150   6.623
 9305TIP3    H127856   7.574   5.191   6.572
 9305TIP3    H227857   7.603   5.076   6.666
 9306TIP3   OH227858   2.302   0.159   5.177
 9306TIP3    H127859   2.354   0.079   5.179
 9306TIP3    H227860   2.328   0.208   5.255
 9307TIP3   OH227861   5.710   0.262   1.677
 9307TIP3    H127862   5.775   0.329   1.695
 9307TIP3    H227863   5.639   0.308   1.632
 9308TIP3   OH227864   0.907   4.411   5.021
 9308TIP3    H127865   0.849   4.471   4.974
 9308TIP3    H227866   0.953   4.467   5.083
 9309TIP3   OH227867   5.324   4.302   2.546
 9309TIP3    H127868   5.384   4.337   2.480
 9309TIP3    H227869   5.377   4.296   2.626
 9310TIP3   OH227870   3.908   5.480   4.460
 9310TIP3    H127871   3.916   5.567   4.420
 9310TIP3    H227872   3.974   5.427   4.416
 9311TIP3   OH227873   6.871   1.890   5.009
 9311TIP3    H127874   6.780   1.885   4.982
 9311TIP3    H227875   6.872   1.956   5.079
 9312TIP3   OH227876   2.491   5.974   4.982
 9312TIP3    H127877   2.406   6.013   5.003
 9312TIP3    H227878   2.555   6.040   5.009
 9313TIP3   OH227879   4.148   7.239   6.790
 9313TIP3    H127880   4.154   7.145   6.810
 9313TIP3    H227881   4.216   7.254   6.725
 9314TIP3   OH227882   6.000   4.706   0.199
 9314TIP3    H127883   5.937   4.648   0.240
 9314TIP3    H227884   6.084   4.681   0.237
 9315TIP3   OH227885   4.938   4.708   6.431
 9315TIP3    H127886   4.904   4.732   6.517
 9315TIP3    H227887   5.033   4.709   6.442
 9316TIP3   OH227888   2.403   6.635   1.753
 9316TIP3    H127889   2.377   6.544   1.768
 9316TIP3    H227890   2.378   6.681   1.833
 9317TIP3   OH227891   1.247   7.606   1.511
 9317TIP3    H127892   1.171   7.600   1.569
 9317TIP3    H227893   1.226   7.546   1.439
 9318TIP3   OH227894   7.050   3.079   6.527
 9318TIP3    H127895   7.124   3.083   6.466
 9318TIP3    H227896   7.040   2.986   6.546
 9319TIP3   OH227897   0.705   7.224   1.679
 9319TIP3    H127898   0.721   7.303   1.731
 9319TIP3    H227899   0.783   7.216   1.624
 9320TIP3   OH227900   8.253   2.044   3.753
 9320TIP3    H127901   8.196   2.031   3.677
 9320TIP3    H227902   8.286   1.957   3.774
 9321TIP3   OH227903   1.426   7.617   0.058
 9321TIP3    H127904   1.460   7.565   0.131
 9321TIP3    H227905   1.370   7.683   0.099
 9322TIP3   OH227906   1.110   3.146   5.495
 9322TIP3    H127907   1.021   3.161   5.462
 9322TIP3    H227908   1.101   3.072   5.556
 9323TIP3   OH227909   1.422   4.923   0.240
 9323TIP3    H127910   1.507   4.881   0.255
 9323TIP3    H227911   1.444   5.011   0.210
 9324TIP3   OH227912   6.411   3.169   6.574
 9324TIP3    H127913   6.373   3.250   6.608
 9324TIP3    H227914   6.339   3.106   6.577
 9325TIP3   OH227915   5.350   4.412   0.927
 9325TIP3    H127916   5.360   4.317   0.918
 9325TIP3    H227917   5.309   4.423   1.012
 9326TIP3   OH227918   2.911   2.465   0.112
 9326TIP3    H127919   2.872   2.505   0.033
 9326TIP3    H227920   2.878   2.376   0.112
 9327TIP3   OH227921   6.956   1.030   3.794
 9327TIP3    H127922   6.866   1.058   3.782
 9327TIP3    H227923   6.977   1.054   3.885
 9328TIP3   OH227924   0.372   5.031   1.072
 9328TIP3    H127925   0.373   5.038   0.977
 9328TIP3    H227926   0.379   5.122   1.103
 9329TIP3   OH227927   6.812   5.996   2.679
 9329TIP3    H127928   6.736   6.011   2.622
 9329TIP3    H227929   6.870   5.940   2.627
 9330TIP3   OH227930   7.011   7.115   5.234
 9330TIP3    H127931   6.946   7.110   5.164
 9330TIP3    H227932   7.037   7.207   5.236
 9331TIP3   OH227933   0.425   3.951   2.017
 9331TIP3    H127934   0.450   4.034   1.977
 9331TIP3    H227935   0.500   3.894   2.002
 9332TIP3   OH227936   4.877   3.838   1.649
 9332TIP3    H127937   4.794   3.790   1.646
 9332TIP3    H227938   4.925   3.810   1.571
 9333TIP3   OH227939   0.998   6.824   4.706
 9333TIP3    H127940   0.959   6.859   4.626
 9333TIP3    H227941   0.995   6.898   4.767
 9334TIP3   OH227942   1.547   0.274   2.427
 9334TIP3    H127943   1.486   0.345   2.406
 9334TIP3    H227944   1.622   0.291   2.370
 9335TIP3   OH227945   0.156   5.287   3.563
 9335TIP3    H127946   0.065   5.304   3.587
 9335TIP3    H227947   0.187   5.369   3.526
 9336TIP3   OH227948   4.438   6.574   2.002
 9336TIP3    H127949   4.488   6.653   2.022
 9336TIP3    H227950   4.504   6.509   1.979
 9337TIP3   OH227951   5.744   5.188   6.675
 9337TIP3    H127952   5.782   5.198   6.763
 9337TIP3    H227953   5.786   5.257   6.624
 9338TIP3   OH227954   2.807   1.193   2.583
 9338TIP3    H127955   2.751   1.218   2.657
 9338TIP3    H227956   2.813   1.097   2.589
 9339TIP3   OH227957   1.527   3.222   5.815
 9339TIP3    H127958   1.522   3.161   5.889
 9339TIP3    H227959   1.435   3.238   5.791
 9340TIP3   OH227960   0.937   5.017   4.334
 9340TIP3    H127961   0.901   4.938   4.374
 9340TIP3    H227962   0.931   5.000   4.239
 9341TIP3   OH227963   1.668   5.332   0.365
 9341TIP3    H127964   1.647   5.311   0.455
 9341TIP3    H227965   1.747   5.281   0.346
 9342TIP3   OH227966   0.316   5.576   6.406
 9342TIP3    H127967   0.235   5.583   6.356
 9342TIP3    H227968   0.288   5.567   6.497
 9343TIP3   OH227969   2.889   7.754   2.325
 9343TIP3    H127970   2.806   7.784   2.362
 9343TIP3    H227971   2.916   7.682   2.383
 9344TIP3   OH227972   5.679   4.374   6.455
 9344TIP3    H127973   5.607   4.314   6.433
 9344TIP3    H227974   5.661   4.400   6.545
 9345TIP3   OH227975   6.759   4.800   5.009
 9345TIP3    H127976   6.663   4.799   5.008
 9345TIP3    H227977   6.783   4.834   4.923
 9346TIP3   OH227978   4.969   6.614   5.639
 9346TIP3    H127979   4.945   6.640   5.728
 9346TIP3    H227980   5.021   6.534   5.651
 9347TIP3   OH227981   5.872   7.743   3.326
 9347TIP3    H127982   5.962   7.745   3.358
 9347TIP3    H227983   5.866   7.816   3.265
 9348TIP3   OH227984   0.161   0.061   3.928
 9348TIP3    H127985   0.158   0.091   4.019
 9348TIP3    H227986   0.078   0.016   3.915
 9349TIP3   OH227987   2.880   3.498   3.007
 9349TIP3    H127988   2.868   3.563   2.938
 9349TIP3    H227989   2.791   3.473   3.032
 9350TIP3   OH227990   4.878   0.384   6.915
 9350TIP3    H127991   4.900   0.463   6.866
 9350TIP3    H227992   4.927   0.314   6.871
 9351TIP3   OH227993   5.658   2.888   5.463
 9351TIP3    H127994   5.689   2.876   5.553
 9351TIP3    H227995   5.566   2.912   5.473
 9352TIP3   OH227996   0.781   1.294   3.856
 9352TIP3    H127997   0.794   1.254   3.770
 9352TIP3    H227998   0.692   1.330   3.853
 9353TIP3   OH227999   0.318   6.745   3.252
 9353TIP3    H128000   0.303   6.709   3.165
 9353TIP3    H228001   0.234   6.783   3.277
 9354TIP3   OH228002   4.729   7.247   5.233
 9354TIP3    H128003   4.719   7.327   5.285
 9354TIP3    H228004   4.639   7.216   5.219
 9355TIP3   OH228005   2.073   1.813   0.426
 9355TIP3    H128006   2.003   1.878   0.427
 9355TIP3    H228007   2.141   1.852   0.372
 9356TIP3   OH228008   8.120   5.936   6.106
 9356TIP3    H128009   8.029   5.919   6.082
 9356TIP3    H228010   8.159   5.972   6.026
 9357TIP3   OH228011   1.695   6.413   3.603
 9357TIP3    H128012   1.660   6.462   3.529
 9357TIP3    H228013   1.622   6.360   3.635
 9358TIP3   OH228014   7.893   1.247   5.183
 9358TIP3    H128015   7.886   1.177   5.117
 9358TIP3    H228016   7.948   1.313   5.142
 9359TIP3   OH228017   6.910   0.404   4.551
 9359TIP3    H128018   6.989   0.452   4.527
 9359TIP3    H228019   6.913   0.399   4.647
 9360TIP3   OH228020   4.751   6.074   3.729
 9360TIP3    H128021   4.672   6.080   3.674
 9360TIP3    H228022   4.812   6.021   3.677
 9361TIP3   OH228023   1.865   6.196   0.280
 9361TIP3    H128024   1.929   6.266   0.299
 9361TIP3    H228025   1.914   6.115   0.293
 9362TIP3   OH228026   3.044   3.364   2.710
 9362TIP3    H128027   3.001   3.281   2.729
 9362TIP3    H228028   3.133   3.339   2.682
 9363TIP3   OH228029   3.483   4.016   0.489
 9363TIP3    H128030   3.416   4.052   0.430
 9363TIP3    H228031   3.433   3.971   0.557
 9364TIP3   OH228032   4.701   3.855   0.955
 9364TIP3    H128033   4.775   3.805   0.988
 9364TIP3    H228034   4.643   3.865   1.030
 9365TIP3   OH228035   3.715   7.647   2.612
 9365TIP3    H128036   3.749   7.641   2.522
 9365TIP3    H228037   3.753   7.726   2.647
 9366TIP3   OH228038   2.174   0.482   2.722
 9366TIP3    H128039   2.182   0.568   2.681
 9366TIP3    H228040   2.264   0.456   2.741
 9367TIP3   OH228041   4.567   4.670   2.841
 9367TIP3    H128042   4.488   4.716   2.813
 9367TIP3    H228043   4.565   4.587   2.792
 9368TIP3   OH228044   0.564   4.776   4.280
 9368TIP3    H128045   0.635   4.743   4.336
 9368TIP3    H228046   0.575   4.871   4.281
 9369TIP3   OH228047   7.470   3.421   6.429
 9369TIP3    H128048   7.443   3.355   6.494
 9369TIP3    H228049   7.511   3.371   6.359
 9370TIP3   OH228050   2.184   2.907   4.396
 9370TIP3    H128051   2.148   2.822   4.371
 9370TIP3    H228052   2.159   2.918   4.487
 9371TIP3   OH228053   5.227   7.855   6.487
 9371TIP3    H128054   5.188   7.797   6.422
 9371TIP3    H228055   5.236   7.800   6.565
 9372TIP3   OH228056   7.267   7.525   4.398
 9372TIP3    H128057   7.184   7.522   4.445
 9372TIP3    H228058   7.333   7.513   4.467
 9373TIP3   OH228059   8.329   4.463   3.654
 9373TIP3    H128060   8.422   4.456   3.634
 9373TIP3    H228061   8.285   4.429   3.575
 9374TIP3   OH228062   4.845   3.532   1.144
 9374TIP3    H128063   4.879   3.468   1.207
 9374TIP3    H228064   4.826   3.481   1.066
 9375TIP3   OH228065   6.567   6.988   1.673
 9375TIP3    H128066   6.518   6.906   1.664
 9375TIP3    H228067   6.551   7.015   1.764
 9376TIP3   OH228068   1.562   1.956   3.843
 9376TIP3    H128069   1.518   2.041   3.850
 9376TIP3    H228070   1.570   1.926   3.934
 9377TIP3   OH228071   1.357   1.181   0.337
 9377TIP3    H128072   1.295   1.118   0.373
 9377TIP3    H228073   1.311   1.265   0.343
 9378TIP3   OH228074   3.137   7.673   4.809
 9378TIP3    H128075   3.104   7.602   4.863
 9378TIP3    H228076   3.145   7.635   4.722
 9379TIP3   OH228077   5.609   6.660   1.731
 9379TIP3    H128078   5.660   6.706   1.665
 9379TIP3    H228079   5.568   6.588   1.684
 9380TIP3   OH228080   5.127   7.131   2.940
 9380TIP3    H128081   5.154   7.057   2.885
 9380TIP3    H228082   5.147   7.208   2.887
 9381TIP3   OH228083   2.250   2.317   5.678
 9381TIP3    H128084   2.223   2.403   5.644
 9381TIP3    H228085   2.215   2.254   5.614
 9382TIP3   OH228086   1.457   7.180   5.451
 9382TIP3    H128087   1.541   7.221   5.429
 9382TIP3    H228088   1.476   7.128   5.529
 9383TIP3   OH228089   0.714   0.724   3.466
 9383TIP3    H128090   0.792   0.670   3.448
 9383TIP3    H228091   0.727   0.755   3.555
 9384TIP3   OH228092   0.257   6.708   6.510
 9384TIP3    H128093   0.235   6.672   6.596
 9384TIP3    H228094   0.212   6.649   6.448
 9385TIP3   OH228095   7.904   5.154   5.098
 9385TIP3    H128096   7.991   5.193   5.107
 9385TIP3    H228097   7.859   5.212   5.036
 9386TIP3   OH228098   4.568   3.198   2.251
 9386TIP3    H128099   4.613   3.270   2.207
 9386TIP3    H228100   4.498   3.173   2.191
 9387TIP3   OH228101   3.963   0.590   5.208
 9387TIP3    H128102   4.025   0.662   5.223
 9387TIP3    H228103   3.927   0.570   5.294
 9388TIP3   OH228104   3.585   0.458   2.259
 9388TIP3    H128105   3.643   0.527   2.225
 9388TIP3    H228106   3.500   0.501   2.269
 9389TIP3   OH228107   3.438   2.193   2.510
 9389TIP3    H128108   3.390   2.262   2.464
 9389TIP3    H228109   3.468   2.134   2.442
 9390TIP3   OH228110   8.025   7.540   2.027
 9390TIP3    H128111   8.046   7.632   2.046
 9390TIP3    H228112   8.097   7.510   1.972
 9391TIP3   OH228113   5.332   2.748   2.599
 9391TIP3    H128114   5.337   2.655   2.623
 9391TIP3    H228115   5.290   2.748   2.513
 9392TIP3   OH228116   4.542   3.129   4.317
 9392TIP3    H128117   4.538   3.162   4.227
 9392TIP3    H228118   4.630   3.150   4.346
 9393TIP3   OH228119   2.819   6.788   6.541
 9393TIP3    H128120   2.838   6.869   6.588
 9393TIP3    H228121   2.815   6.721   6.609
 9394TIP3   OH228122   6.347   3.964   6.837
 9394TIP3    H128123   6.430   3.972   6.883
 9394TIP3    H228124   6.369   3.977   6.745
 9395TIP3   OH228125   5.636   7.102   6.547
 9395TIP3    H128126   5.665   7.188   6.517
 9395TIP3    H228127   5.543   7.113   6.567
 9396TIP3   OH228128   1.798   5.727   4.134
 9396TIP3    H128129   1.791   5.632   4.141
 9396TIP3    H228130   1.741   5.761   4.203
 9397TIP3   OH228131   6.706   5.474   3.665
 9397TIP3    H128132   6.763   5.495   3.590
 9397TIP3    H228133   6.628   5.435   3.626
 9398TIP3   OH228134   1.388   7.840   5.960
 9398TIP3    H128135   1.410   7.748   5.971
 9398TIP3    H228136   1.292   7.842   5.956
 9399TIP3   OH228137   6.572   1.411   5.045
 9399TIP3    H128138   6.628   1.384   5.117
 9399TIP3    H228139   6.631   1.455   4.983
 9400TIP3   OH228140   4.172   0.621   0.933
 9400TIP3    H128141   4.199   0.544   0.882
 9400TIP3    H228142   4.240   0.632   0.998
 9401TIP3   OH228143   1.839   1.177   0.454
 9401TIP3    H128144   1.805   1.239   0.389
 9401TIP3    H228145   1.762   1.155   0.507
 9402TIP3   OH228146   4.760   6.057   2.854
 9402TIP3    H128147   4.728   6.127   2.910
 9402TIP3    H228148   4.713   5.979   2.884
 9403TIP3   OH228149   3.094   0.987   2.416
 9403TIP3    H128150   3.023   0.923   2.423
 9403TIP3    H228151   3.088   1.039   2.496
 9404TIP3   OH228152   1.735   3.808   0.441
 9404TIP3    H128153   1.668   3.872   0.415
 9404TIP3    H228154   1.735   3.811   0.536
 9405TIP3   OH228155   1.479   5.374   5.485
 9405TIP3    H128156   1.427   5.324   5.548
 9405TIP3    H228157   1.415   5.423   5.433
 9406TIP3   OH228158   1.989   4.586   0.364
 9406TIP3    H128159   2.068   4.533   0.362
 9406TIP3    H228160   1.992   4.638   0.283
 9407TIP3   OH228161   1.512   0.361   6.306
 9407TIP3    H128162   1.420   0.388   6.296
 9407TIP3    H228163   1.511   0.267   6.293
 9408TIP3   OH228164   5.713   6.575   3.977
 9408TIP3    H128165   5.627   6.601   4.010
 9408TIP3    H228166   5.757   6.537   4.053
 9409TIP3   OH228167   5.759   1.675   3.006
 9409TIP3    H128168   5.690   1.644   3.064
 9409TIP3    H228169   5.811   1.597   2.987
 9410TIP3   OH228170   5.919   7.100   1.641
 9410TIP3    H128171   6.005   7.090   1.600
 9410TIP3    H228172   5.922   7.042   1.717
 9411TIP3   OH228173   4.862   6.457   5.015
 9411TIP3    H128174   4.937   6.488   5.065
 9411TIP3    H228175   4.900   6.415   4.938
 9412TIP3   OH228176   6.253   3.686   3.362
 9412TIP3    H128177   6.210   3.650   3.285
 9412TIP3    H228178   6.331   3.729   3.328
 9413TIP3   OH228179   5.149   7.077   4.628
 9413TIP3    H128180   5.151   7.171   4.616
 9413TIP3    H228181   5.219   7.059   4.692
 9414TIP3   OH228182   6.496   5.587   4.174
 9414TIP3    H128183   6.520   5.622   4.260
 9414TIP3    H228184   6.494   5.492   4.186
 9415TIP3   OH228185   4.783   1.001   0.551
 9415TIP3    H128186   4.701   0.954   0.538
 9415TIP3    H228187   4.777   1.036   0.640
 9416TIP3   OH228188   4.338   1.613   5.241
 9416TIP3    H128189   4.405   1.591   5.305
 9416TIP3    H228190   4.309   1.528   5.206
 9417TIP3   OH228191   1.266   2.300   2.806
 9417TIP3    H128192   1.271   2.395   2.814
 9417TIP3    H228193   1.335   2.277   2.743
 9418TIP3   OH228194   2.671   2.345   1.923
 9418TIP3    H128195   2.607   2.341   1.994
 9418TIP3    H228196   2.672   2.437   1.897
 9419TIP3   OH228197   4.513   3.682   2.757
 9419TIP3    H128198   4.457   3.737   2.702
 9419TIP3    H228199   4.536   3.608   2.701
 9420TIP3   OH228200   7.185   0.100   6.399
 9420TIP3    H128201   7.247   0.044   6.445
 9420TIP3    H228202   7.146   0.155   6.467
 9421TIP3   OH228203   1.081   1.213   1.486
 9421TIP3    H128204   1.097   1.210   1.580
 9421TIP3    H228205   1.136   1.285   1.455
 9422TIP3   OH228206   4.635   0.423   5.892
 9422TIP3    H128207   4.626   0.476   5.972
 9422TIP3    H228208   4.546   0.405   5.865
 9423TIP3   OH228209   6.464   5.399   5.684
 9423TIP3    H128210   6.435   5.482   5.645
 9423TIP3    H228211   6.557   5.392   5.659
 9424TIP3   OH228212   7.264   6.034   1.381
 9424TIP3    H128213   7.216   6.026   1.463
 9424TIP3    H228214   7.249   6.124   1.353
 9425TIP3   OH228215   3.249   5.464   0.600
 9425TIP3    H128216   3.204   5.465   0.685
 9425TIP3    H228217   3.328   5.413   0.615
 9426TIP3   OH228218   1.849   0.937   5.798
 9426TIP3    H128219   1.790   1.012   5.788
 9426TIP3    H228220   1.829   0.903   5.885
 9427TIP3   OH228221   8.288   5.080   3.418
 9427TIP3    H128222   8.235   5.125   3.483
 9427TIP3    H228223   8.249   5.105   3.334
 9428TIP3   OH228224   7.227   5.289   3.369
 9428TIP3    H128225   7.140   5.264   3.337
 9428TIP3    H228226   7.262   5.345   3.301
 9429TIP3   OH228227   2.722   4.472   6.256
 9429TIP3    H128228   2.674   4.517   6.186
 9429TIP3    H228229   2.655   4.424   6.305
 9430TIP3   OH228230   4.959   1.609   0.156
 9430TIP3    H128231   5.008   1.532   0.126
 9430TIP3    H228232   4.956   1.599   0.251
 9431TIP3   OH228233   6.666   6.157   4.120
 9431TIP3    H128234   6.694   6.206   4.042
 9431TIP3    H228235   6.572   6.148   4.110
 9432TIP3   OH228236   2.205   2.153   5.123
 9432TIP3    H128237   2.293   2.157   5.160
 9432TIP3    H228238   2.205   2.075   5.068
 9433TIP3   OH228239   1.665   5.834   6.585
 9433TIP3    H128240   1.603   5.776   6.629
 9433TIP3    H228241   1.617   5.916   6.573
 9434TIP3   OH228242   6.500   5.615   3.184
 9434TIP3    H128243   6.535   5.653   3.265
 9434TIP3    H228244   6.567   5.554   3.155
 9435TIP3   OH228245   8.099   1.639   5.773
 9435TIP3    H128246   8.034   1.630   5.843
 9435TIP3    H228247   8.151   1.559   5.779
 9436TIP3   OH228248   6.197   2.166   4.187
 9436TIP3    H128249   6.265   2.233   4.191
 9436TIP3    H228250   6.123   2.203   4.234
 9437TIP3   OH228251   4.633   3.484   0.100
 9437TIP3    H128252   4.684   3.516   0.174
 9437TIP3    H228253   4.676   3.521   0.023
 9438TIP3   OH228254   5.729   3.580   6.556
 9438TIP3    H128255   5.684   3.534   6.627
 9438TIP3    H228256   5.676   3.562   6.479
 9439TIP3   OH228257   7.399   0.126   2.941
 9439TIP3    H128258   7.427   0.035   2.953
 9439TIP3    H228259   7.306   0.125   2.959
 9440TIP3   OH228260   1.051   5.373   5.334
 9440TIP3    H128261   1.012   5.450   5.375
 9440TIP3    H228262   1.103   5.333   5.403
 9441TIP3   OH228263   0.167   5.869   3.049
 9441TIP3    H128264   0.206   5.929   2.986
 9441TIP3    H228265   0.074   5.872   3.031
 9442TIP3   OH228266   7.377   6.018   1.119
 9442TIP3    H128267   7.356   6.060   1.202
 9442TIP3    H228268   7.466   6.046   1.100
 9443TIP3   OH228269   3.135   2.233   3.892
 9443TIP3    H128270   3.228   2.225   3.873
 9443TIP3    H228271   3.110   2.150   3.931
 9444TIP3   OH228272   8.041   0.106   0.777
 9444TIP3    H128273   8.133   0.082   0.785
 9444TIP3    H228274   8.031   0.181   0.835
 9445TIP3   OH228275   6.801   1.058   3.069
 9445TIP3    H128276   6.715   1.099   3.059
 9445TIP3    H228277   6.816   1.013   2.986
 9446TIP3   OH228278   1.216   1.667   1.844
 9446TIP3    H128279   1.125   1.658   1.870
 9446TIP3    H228280   1.214   1.724   1.768
 9447TIP3   OH228281   5.701   7.520   3.994
 9447TIP3    H128282   5.714   7.459   4.066
 9447TIP3    H228283   5.608   7.545   4.001
 9448TIP3   OH228284   3.308   4.443   0.665
 9448TIP3    H128285   3.344   4.438   0.576
 9448TIP3    H228286   3.352   4.519   0.704
 9449TIP3   OH228287   4.444   6.063   5.039
 9449TIP3    H128288   4.411   6.090   4.953
 9449TIP3    H228289   4.481   5.977   5.024
 9450TIP3   OH228290   0.224   3.474   3.703
 9450TIP3    H128291   0.148   3.521   3.669
 9450TIP3    H228292   0.269   3.441   3.625
 9451TIP3   OH228293   1.556   3.338   1.119
 9451TIP3    H128294   1.613   3.402   1.161
 9451TIP3    H228295   1.470   3.380   1.118
 9452TIP3   OH228296   0.342   0.502   1.982
 9452TIP3    H128297   0.438   0.502   1.976
 9452TIP3    H228298   0.324   0.521   2.074
 9453TIP3   OH228299   3.938   6.585   3.258
 9453TIP3    H128300   3.844   6.573   3.270
 9453TIP3    H228301   3.957   6.544   3.174
 9454TIP3   OH228302   4.993   0.124   6.802
 9454TIP3    H128303   5.046   0.087   6.731
 9454TIP3    H228304   4.931   0.055   6.824
 9455TIP3   OH228305   0.054   4.641   4.913
 9455TIP3    H128306   0.114   4.573   4.882
 9455TIP3    H228307   0.092   4.723   4.883
 9456TIP3   OH228308   4.179   1.877   4.259
 9456TIP3    H128309   4.233   1.905   4.333
 9456TIP3    H228310   4.221   1.917   4.183
 9457TIP3   OH228311   0.258   6.607   0.380
 9457TIP3    H128312   0.319   6.534   0.392
 9457TIP3    H228313   0.305   6.670   0.326
 9458TIP3   OH228314   7.353   1.551   1.317
 9458TIP3    H128315   7.420   1.494   1.354
 9458TIP3    H228316   7.287   1.559   1.386
 9459TIP3   OH228317   7.849   2.114   6.597
 9459TIP3    H128318   7.905   2.100   6.520
 9459TIP3    H228319   7.770   2.064   6.578
 9460TIP3   OH228320   0.358   4.145   2.532
 9460TIP3    H128321   0.431   4.135   2.593
 9460TIP3    H228322   0.375   4.227   2.486
 9461TIP3   OH228323   0.922   6.917   6.337
 9461TIP3    H128324   0.869   6.990   6.304
 9461TIP3    H228325   0.958   6.950   6.420
 9462TIP3   OH228326   3.515   6.961   3.720
 9462TIP3    H128327   3.490   6.874   3.688
 9462TIP3    H228328   3.559   6.945   3.803
 9463TIP3   OH228329   1.106   0.150   2.067
 9463TIP3    H128330   1.096   0.157   2.162
 9463TIP3    H228331   1.200   0.135   2.054
 9464TIP3   OH228332   1.009   7.792   2.094
 9464TIP3    H128333   0.937   7.729   2.096
 9464TIP3    H228334   0.968   7.876   2.116
 9465TIP3   OH228335   4.398   7.022   1.729
 9465TIP3    H128336   4.340   7.048   1.799
 9465TIP3    H228337   4.382   7.085   1.659
 9466TIP3   OH228338   1.116   3.819   2.944
 9466TIP3    H128339   1.167   3.744   2.976
 9466TIP3    H228340   1.141   3.827   2.852
 9467TIP3   OH228341   3.795   3.576   2.246
 9467TIP3    H128342   3.818   3.660   2.288
 9467TIP3    H228343   3.743   3.601   2.170
 9468TIP3   OH228344   2.778   7.351   1.026
 9468TIP3    H128345   2.777   7.284   0.957
 9468TIP3    H228346   2.870   7.357   1.052
 9469TIP3   OH228347   6.201   1.072   2.929
 9469TIP3    H128348   6.288   1.033   2.924
 9469TIP3    H228349   6.141   0.999   2.909
 9470TIP3   OH228350   3.419   3.216   0.432
 9470TIP3    H128351   3.356   3.151   0.462
 9470TIP3    H228352   3.376   3.300   0.445
 9471TIP3   OH228353   1.580   3.581   0.737
 9471TIP3    H128354   1.640   3.586   0.811
 9471TIP3    H228355   1.637   3.584   0.660
 9472TIP3   OH228356   5.357   5.935   6.548
 9472TIP3    H128357   5.365   5.863   6.610
 9472TIP3    H228358   5.447   5.962   6.531
 9473TIP3   OH228359   6.454   6.298   6.353
 9473TIP3    H128360   6.524   6.296   6.289
 9473TIP3    H228361   6.375   6.278   6.303
 9474TIP3   OH228362   3.819   3.039   2.502
 9474TIP3    H128363   3.887   3.012   2.439
 9474TIP3    H228364   3.775   3.112   2.458
 9475TIP3   OH228365   3.999   2.729   1.319
 9475TIP3    H128366   3.922   2.786   1.322
 9475TIP3    H228367   3.989   2.677   1.239
 9476TIP3   OH228368   7.205   0.930   0.474
 9476TIP3    H128369   7.244   0.895   0.394
 9476TIP3    H228370   7.176   1.018   0.450
 9477TIP3   OH228371   5.128   7.441   6.061
 9477TIP3    H128372   5.057   7.500   6.036
 9477TIP3    H228373   5.093   7.353   6.045
 9478TIP3   OH228374   5.640   7.444   6.857
 9478TIP3    H128375   5.642   7.532   6.896
 9478TIP3    H228376   5.606   7.458   6.768
 9479TIP3   OH228377   8.036   5.933   1.147
 9479TIP3    H128378   8.064   5.928   1.238
 9479TIP3    H228379   8.009   5.843   1.125
 9480TIP3   OH228380   0.384   5.265   5.972
 9480TIP3    H128381   0.462   5.310   6.006
 9480TIP3    H228382   0.419   5.202   5.909
 9481TIP3   OH228383   0.857   4.827   0.945
 9481TIP3    H128384   0.945   4.814   0.911
 9481TIP3    H228385   0.808   4.750   0.916
 9482TIP3   OH228386   1.741   3.546   4.028
 9482TIP3    H128387   1.707   3.622   3.980
 9482TIP3    H228388   1.821   3.521   3.982
 9483TIP3   OH228389   1.121   4.188   2.922
 9483TIP3    H128390   1.076   4.267   2.890
 9483TIP3    H228391   1.208   4.193   2.884
 9484TIP3   OH228392   4.412   7.196   0.173
 9484TIP3    H128393   4.487   7.237   0.130
 9484TIP3    H228394   4.406   7.241   0.257
 9485TIP3   OH228395   1.350   7.879   5.677
 9485TIP3    H128396   1.433   7.870   5.629
 9485TIP3    H228397   1.371   7.847   5.765
 9486TIP3   OH228398   4.787   2.079   4.729
 9486TIP3    H128399   4.845   2.011   4.764
 9486TIP3    H228400   4.700   2.054   4.760
 9487TIP3   OH228401   3.661   2.199   2.702
 9487TIP3    H128402   3.729   2.263   2.679
 9487TIP3    H228403   3.614   2.184   2.621
 9488TIP3   OH228404   1.834   0.144   6.044
 9488TIP3    H128405   1.914   0.176   6.086
 9488TIP3    H228406   1.766   0.157   6.110
 9489TIP3   OH228407   2.633   7.780   3.553
 9489TIP3    H128408   2.596   7.855   3.600
 9489TIP3    H228409   2.708   7.815   3.506
 9490TIP3   OH228410   7.560   4.279   6.750
 9490TIP3    H128411   7.610   4.215   6.802
 9490TIP3    H228412   7.521   4.337   6.815
 9491TIP3   OH228413   3.042   5.174   0.867
 9491TIP3    H128414   3.116   5.234   0.859
 9491TIP3    H228415   3.057   5.108   0.799
 9492TIP3   OH228416   1.556   0.183   0.709
 9492TIP3    H128417   1.580   0.243   0.779
 9492TIP3    H228418   1.514   0.109   0.753
 9493TIP3   OH228419   5.643   6.541   4.490
 9493TIP3    H128420   5.682   6.595   4.422
 9493TIP3    H228421   5.717   6.492   4.528
 9494TIP3   OH228422   4.662   4.165   4.608
 9494TIP3    H128423   4.589   4.153   4.669
 9494TIP3    H228424   4.678   4.259   4.607
 9495TIP3   OH228425   0.914   3.038   0.818
 9495TIP3    H128426   0.890   3.067   0.906
 9495TIP3    H228427   0.976   3.105   0.787
 9496TIP3   OH228428   4.191   3.208   5.278
 9496TIP3    H128429   4.228   3.200   5.366
 9496TIP3    H228430   4.097   3.219   5.293
 9497TIP3   OH228431   5.000   6.390   4.745
 9497TIP3    H128432   4.972   6.299   4.760
 9497TIP3    H228433   5.095   6.385   4.745
 9498TIP3   OH228434   1.179   3.089   0.497
 9498TIP3    H128435   1.269   3.059   0.507
 9498TIP3    H228436   1.160   3.135   0.578
 9499TIP3   OH228437   0.963   3.013   2.828
 9499TIP3    H128438   0.903   2.963   2.883
 9499TIP3    H228439   1.045   2.965   2.832
 9500TIP3   OH228440   3.564   2.284   6.060
 9500TIP3    H128441   3.521   2.332   5.989
 9500TIP3    H228442   3.536   2.328   6.140
 9501TIP3   OH228443   1.725   5.477   2.420
 9501TIP3    H128444   1.767   5.464   2.505
 9501TIP3    H228445   1.674   5.397   2.406
 9502TIP3   OH228446   3.465   5.041   6.457
 9502TIP3    H128447   3.424   4.957   6.475
 9502TIP3    H228448   3.405   5.084   6.395
 9503TIP3   OH228449   1.170   2.469   2.015
 9503TIP3    H128450   1.199   2.379   2.034
 9503TIP3    H228451   1.101   2.458   1.949
 9504TIP3   OH228452   1.062   3.799   5.064
 9504TIP3    H128453   0.975   3.820   5.098
 9504TIP3    H228454   1.113   3.774   5.141
 9505TIP3   OH228455   0.316   2.167   3.920
 9505TIP3    H128456   0.327   2.132   4.009
 9505TIP3    H228457   0.365   2.107   3.864
 9506TIP3   OH228458   4.003   2.888   0.472
 9506TIP3    H128459   4.047   2.827   0.412
 9506TIP3    H228460   4.002   2.842   0.556
 9507TIP3   OH228461   1.608   6.615   3.753
 9507TIP3    H128462   1.699   6.645   3.756
 9507TIP3    H228463   1.615   6.523   3.727
 9508TIP3   OH228464   6.114   0.972   1.806
 9508TIP3    H128465   6.068   1.054   1.793
 9508TIP3    H228466   6.190   0.978   1.748
 9509TIP3   OH228467   7.740   0.750   4.327
 9509TIP3    H128468   7.746   0.667   4.375
 9509TIP3    H228469   7.808   0.805   4.366
 9510TIP3   OH228470   3.249   0.695   3.381
 9510TIP3    H128471   3.272   0.787   3.378
 9510TIP3    H228472   3.299   0.660   3.455
 9511TIP3   OH228473   1.279   6.451   2.846
 9511TIP3    H128474   1.185   6.460   2.834
 9511TIP3    H228475   1.314   6.438   2.758
 9512TIP3   OH228476   4.061   3.362   3.107
 9512TIP3    H128477   3.991   3.398   3.162
 9512TIP3    H228478   4.141   3.401   3.143
 9513TIP3   OH228479   1.185   1.302   5.545
 9513TIP3    H128480   1.229   1.335   5.467
 9513TIP3    H228481   1.186   1.376   5.606
 9514TIP3   OH228482   5.318   6.132   1.355
 9514TIP3    H128483   5.391   6.194   1.358
 9514TIP3    H228484   5.309   6.102   1.446
 9515TIP3   OH228485   7.565   6.333   6.778
 9515TIP3    H128486   7.509   6.260   6.804
 9515TIP3    H228487   7.507   6.409   6.774
 9516TIP3   OH228488   6.830   4.169   2.587
 9516TIP3    H128489   6.872   4.104   2.530
 9516TIP3    H228490   6.780   4.224   2.527
 9517TIP3   OH228491   5.186   5.298   2.995
 9517TIP3    H128492   5.168   5.205   3.009
 9517TIP3    H228493   5.261   5.317   3.050
 9518TIP3   OH228494   5.787   0.587   5.627
 9518TIP3    H128495   5.856   0.649   5.647
 9518TIP3    H228496   5.707   0.640   5.627
 9519TIP3   OH228497   0.170   0.269   0.583
 9519TIP3    H128498   0.166   0.179   0.614
 9519TIP3    H228499   0.090   0.310   0.617
 9520TIP3   OH228500   2.039   3.779   3.377
 9520TIP3    H128501   2.091   3.707   3.415
 9520TIP3    H228502   1.989   3.738   3.307
 9521TIP3   OH228503   6.200   6.808   5.893
 9521TIP3    H128504   6.202   6.902   5.872
 9521TIP3    H228505   6.113   6.780   5.863
 9522TIP3   OH228506   4.114   2.175   5.022
 9522TIP3    H128507   4.042   2.138   5.074
 9522TIP3    H228508   4.070   2.233   4.959
 9523TIP3   OH228509   2.468   2.293   2.122
 9523TIP3    H128510   2.500   2.229   2.185
 9523TIP3    H228511   2.374   2.298   2.138
 9524TIP3   OH228512   7.061   1.095   1.611
 9524TIP3    H128513   7.094   1.060   1.528
 9524TIP3    H228514   6.968   1.071   1.612
 9525TIP3   OH228515   1.780   7.315   6.044
 9525TIP3    H128516   1.830   7.336   6.123
 9525TIP3    H228517   1.823   7.237   6.009
 9526TIP3   OH228518   2.398   5.658   2.603
 9526TIP3    H128519   2.478   5.612   2.627
 9526TIP3    H228520   2.357   5.602   2.537
 9527TIP3   OH228521   2.489   2.893   1.090
 9527TIP3    H128522   2.527   2.910   1.003
 9527TIP3    H228523   2.394   2.896   1.076
 9528TIP3   OH228524   2.602   1.730   3.049
 9528TIP3    H128525   2.531   1.793   3.059
 9528TIP3    H228526   2.576   1.656   3.104
 9529TIP3   OH228527   6.823   4.682   4.341
 9529TIP3    H128528   6.905   4.659   4.297
 9529TIP3    H228529   6.756   4.676   4.272
 9530TIP3   OH228530   0.099   5.597   1.986
 9530TIP3    H128531   0.008   5.621   1.967
 9530TIP3    H228532   0.107   5.508   1.951
 9531TIP3   OH228533   5.364   0.744   3.204
 9531TIP3    H128534   5.307   0.699   3.141
 9531TIP3    H228535   5.318   0.735   3.288
 9532TIP3   OH228536   1.842   0.176   4.395
 9532TIP3    H128537   1.917   0.139   4.348
 9532TIP3    H228538   1.828   0.118   4.469
 9533TIP3   OH228539   1.260   4.208   6.428
 9533TIP3    H128540   1.284   4.168   6.345
 9533TIP3    H228541   1.169   4.236   6.415
 9534TIP3   OH228542   1.041   7.819   4.034
 9534TIP3    H128543   0.951   7.847   4.019
 9534TIP3    H228544   1.033   7.735   4.080
 9535TIP3   OH228545   7.883   1.089   1.422
 9535TIP3    H128546   7.802   1.045   1.445
 9535TIP3    H228547   7.891   1.078   1.327
 9536TIP3   OH228548   8.243   6.933   4.278
 9536TIP3    H128549   8.209   6.939   4.367
 9536TIP3    H228550   8.185   6.871   4.233
 9537TIP3   OH228551   5.984   2.619   0.703
 9537TIP3    H128552   5.908   2.650   0.751
 9537TIP3    H228553   6.039   2.696   0.692
 9538TIP3   OH228554   3.582   5.678  -0.027
 9538TIP3    H128555   3.656   5.704   0.028
 9538TIP3    H228556   3.557   5.592   0.005
 9539TIP3   OH228557   3.892   5.768   3.170
 9539TIP3    H128558   3.967   5.710   3.182
 9539TIP3    H228559   3.818   5.720   3.209
 9540TIP3   OH228560   1.587   7.390   1.966
 9540TIP3    H128561   1.531   7.313   1.977
 9540TIP3    H228562   1.647   7.366   1.895
 9541TIP3   OH228563   0.188   1.859   2.878
 9541TIP3    H128564   0.120   1.926   2.881
 9541TIP3    H228565   0.158   1.796   2.812
 9542TIP3   OH228566   6.888   2.809   4.483
 9542TIP3    H128567   6.930   2.866   4.548
 9542TIP3    H228568   6.807   2.781   4.525
 9543TIP3   OH228569   0.549   7.490   6.007
 9543TIP3    H128570   0.585   7.575   5.982
 9543TIP3    H228571   0.507   7.457   5.927
 9544TIP3   OH228572   3.028  -0.010   3.183
 9544TIP3    H128573   2.935  -0.031   3.175
 9544TIP3    H228574   3.042  -0.002   3.278
 9545TIP3   OH228575   4.502   7.790   1.432
 9545TIP3    H128576   4.435   7.830   1.376
 9545TIP3    H228577   4.543   7.724   1.376
 9546TIP3   OH228578   3.089   0.523   1.668
 9546TIP3    H128579   3.163   0.570   1.630
 9546TIP3    H228580   3.033   0.502   1.593
 9547TIP3   OH228581   7.603   6.757   4.120
 9547TIP3    H128582   7.508   6.745   4.120
 9547TIP3    H228583   7.619   6.823   4.053
 9548TIP3   OH228584   3.111   7.022   5.585
 9548TIP3    H128585   3.085   6.959   5.518
 9548TIP3    H228586   3.087   7.108   5.548
 9549TIP3   OH228587   2.491   1.816   3.330
 9549TIP3    H128588   2.435   1.836   3.255
 9549TIP3    H228589   2.572   1.863   3.312
 9550TIP3   OH228590   6.433   2.360  -0.006
 9550TIP3    H128591   6.423   2.323   0.082
 9550TIP3    H228592   6.502   2.425   0.003
 9551TIP3   OH228593   1.441   1.783   1.513
 9551TIP3    H128594   1.485   1.712   1.560
 9551TIP3    H228595   1.357   1.793   1.557
 9552TIP3   OH228596   0.441   0.073   0.983
 9552TIP3    H128597   0.514   0.027   0.943
 9552TIP3    H228598   0.368   0.061   0.922
 9553TIP3   OH228599   7.238   1.208   3.841
 9553TIP3    H128600   7.251   1.113   3.844
 9553TIP3    H228601   7.282   1.236   3.761
 9554TIP3   OH228602   6.610   3.399   1.280
 9554TIP3    H128603   6.641   3.436   1.362
 9554TIP3    H228604   6.592   3.475   1.225
 9555TIP3   OH228605   2.810   7.487   4.022
 9555TIP3    H128606   2.839   7.517   4.107
 9555TIP3    H228607   2.814   7.564   3.966
 9556TIP3   OH228608   6.199   6.935   0.397
 9556TIP3    H128609   6.218   6.937   0.491
 9556TIP3    H228610   6.253   7.005   0.360
 9557TIP3   OH228611   4.601   2.469   1.780
 9557TIP3    H128612   4.641   2.556   1.778
 9557TIP3    H228613   4.588   2.447   1.688
 9558TIP3   OH228614   3.158   5.986   4.545
 9558TIP3    H128615   3.139   5.893   4.557
 9558TIP3    H228616   3.077   6.031   4.570
 9559TIP3   OH228617   4.369   2.985   6.013
 9559TIP3    H128618   4.319   3.066   6.006
 9559TIP3    H228619   4.446   3.008   6.065
 9560TIP3   OH228620   8.310   4.384   4.467
 9560TIP3    H128621   8.264   4.325   4.527
 9560TIP3    H228622   8.262   4.377   4.385
 9561TIP3   OH228623   7.369   5.059   6.237
 9561TIP3    H128624   7.307   5.124   6.205
 9561TIP3    H228625   7.453   5.106   6.242
 9562TIP3   OH228626   2.614   1.938   6.781
 9562TIP3    H128627   2.634   2.001   6.712
 9562TIP3    H228628   2.640   1.983   6.862
 9563TIP3   OH228629   1.972   3.031   3.182
 9563TIP3    H128630   2.062   3.047   3.212
 9563TIP3    H228631   1.983   2.999   3.092
 9564TIP3   OH228632   0.823   1.065   3.318
 9564TIP3    H128633   0.730   1.070   3.337
 9564TIP3    H228634   0.828   1.042   3.225
 9565TIP3   OH228635   0.324   2.739   2.030
 9565TIP3    H128636   0.271   2.810   2.068
 9565TIP3    H228637   0.278   2.659   2.055
 9566TIP3   OH228638   4.032   3.512   4.017
 9566TIP3    H128639   4.078   3.531   3.936
 9566TIP3    H228640   3.981   3.591   4.035
 9567TIP3   OH228641   0.582   5.012   2.591
 9567TIP3    H128642   0.555   5.103   2.575
 9567TIP3    H228643   0.603   4.978   2.504
 9568TIP3   OH228644   6.351   6.740   0.669
 9568TIP3    H128645   6.412   6.748   0.595
 9568TIP3    H228646   6.333   6.830   0.695
 9569TIP3   OH228647   2.704   3.117   2.451
 9569TIP3    H128648   2.630   3.150   2.502
 9569TIP3    H228649   2.774   3.181   2.466
 9570TIP3   OH228650   7.285   4.125   3.037
 9570TIP3    H128651   7.321   4.179   3.107
 9570TIP3    H228652   7.222   4.067   3.080
 9571TIP3   OH228653   2.335   6.048   5.510
 9571TIP3    H128654   2.298   6.029   5.424
 9571TIP3    H228655   2.258   6.055   5.567
 9572TIP3   OH228656   3.950   4.546   3.883
 9572TIP3    H128657   3.884   4.594   3.834
 9572TIP3    H228658   4.034   4.583   3.855
 9573TIP3   OH228659   5.045   7.495   0.130
 9573TIP3    H128660   5.075   7.404   0.126
 9573TIP3    H228661   5.117   7.542   0.172
 9574TIP3   OH228662   1.533   2.425   4.306
 9574TIP3    H128663   1.447   2.385   4.317
 9574TIP3    H228664   1.570   2.429   4.394
 9575TIP3   OH228665   4.980   4.478   2.783
 9575TIP3    H128666   4.968   4.546   2.849
 9575TIP3    H228667   5.028   4.409   2.829
 9576TIP3   OH228668   7.353   4.929   3.716
 9576TIP3    H128669   7.291   4.997   3.739
 9576TIP3    H228670   7.415   4.971   3.655
 9577TIP3   OH228671   3.886   2.987   5.904
 9577TIP3    H128672   3.955   3.038   5.948
 9577TIP3    H228673   3.809   3.043   5.908
 9578TIP3   OH228674   1.502   5.992   5.240
 9578TIP3    H128675   1.583   6.038   5.261
 9578TIP3    H228676   1.466   6.040   5.165
 9579TIP3   OH228677   0.208   2.978   2.894
 9579TIP3    H128678   0.300   2.950   2.886
 9579TIP3    H228679   0.185   2.959   2.985
 9580TIP3   OH228680   1.364   4.920   3.249
 9580TIP3    H128681   1.394   4.841   3.204
 9580TIP3    H228682   1.435   4.943   3.309
 9581TIP3   OH228683   6.765   3.820   2.246
 9581TIP3    H128684   6.771   3.726   2.226
 9581TIP3    H228685   6.672   3.834   2.266
 9582TIP3   OH228686   2.592   5.048   5.938
 9582TIP3    H128687   2.559   4.961   5.916
 9582TIP3    H228688   2.676   5.054   5.893
 9583TIP3   OH228689   5.178   3.683   5.380
 9583TIP3    H128690   5.085   3.670   5.360
 9583TIP3    H228691   5.180   3.754   5.444
 9584TIP3   OH228692   0.447   6.995   3.944
 9584TIP3    H128693   0.478   7.047   4.019
 9584TIP3    H228694   0.525   6.947   3.915
 9585TIP3   OH228695   4.191   0.353   1.105
 9585TIP3    H128696   4.166   0.335   1.195
 9585TIP3    H228697   4.279   0.389   1.111
 9586TIP3   OH228698   1.536   2.552   6.270
 9586TIP3    H128699   1.449   2.568   6.234
 9586TIP3    H228700   1.532   2.585   6.360
 9587TIP3   OH228701   3.858   6.158   4.668
 9587TIP3    H128702   3.917   6.103   4.719
 9587TIP3    H228703   3.896   6.160   4.581
 9588TIP3   OH228704   6.215   2.437   4.383
 9588TIP3    H128705   6.144   2.375   4.399
 9588TIP3    H228706   6.252   2.410   4.299
 9589TIP3   OH228707   3.002   1.750   0.640
 9589TIP3    H128708   2.970   1.742   0.730
 9589TIP3    H228709   3.097   1.748   0.649
 9590TIP3   OH228710   4.051   0.933   1.726
 9590TIP3    H128711   4.048   1.006   1.787
 9590TIP3    H228712   4.121   0.956   1.665
 9591TIP3   OH228713   3.525   1.058   4.589
 9591TIP3    H128714   3.491   1.144   4.565
 9591TIP3    H228715   3.617   1.074   4.612
 9592TIP3   OH228716   2.531   5.358   6.487
 9592TIP3    H128717   2.488   5.300   6.425
 9592TIP3    H228718   2.494   5.445   6.469
 9593TIP3   OH228719   0.710   3.447   3.505
 9593TIP3    H128720   0.717   3.436   3.600
 9593TIP3    H228721   0.792   3.411   3.471
 9594TIP3   OH228722   2.545   3.069   4.107
 9594TIP3    H128723   2.500   3.119   4.175
 9594TIP3    H228724   2.612   3.019   4.154
 9595TIP3   OH228725   6.790   6.445   1.069
 9595TIP3    H128726   6.867   6.444   1.012
 9595TIP3    H228727   6.768   6.537   1.078
 9596TIP3   OH228728   7.688   4.083   1.055
 9596TIP3    H128729   7.613   4.024   1.047
 9596TIP3    H228730   7.651   4.164   1.090
 9597TIP3   OH228731   6.734   5.018   6.619
 9597TIP3    H128732   6.820   4.995   6.654
 9597TIP3    H228733   6.681   5.038   6.696
 9598TIP3   OH228734   1.991   2.785   1.839
 9598TIP3    H128735   1.916   2.769   1.782
 9598TIP3    H228736   2.024   2.698   1.861
 9599TIP3   OH228737   7.079   0.964   6.636
 9599TIP3    H128738   7.108   0.936   6.723
 9599TIP3    H228739   7.030   0.889   6.602
 9600TIP3   OH228740   7.771   1.158   3.429
 9600TIP3    H128741   7.700   1.197   3.481
 9600TIP3    H228742   7.767   1.205   3.345
 9601TIP3   OH228743   7.301   1.238   4.209
 9601TIP3    H128744   7.369   1.204   4.267
 9601TIP3    H228745   7.273   1.163   4.157
 9602TIP3   OH228746   4.562   7.536   0.919
 9602TIP3    H128747   4.521   7.609   0.966
 9602TIP3    H228748   4.653   7.537   0.949
 9603TIP3   OH228749   4.106   3.971   1.167
 9603TIP3    H128750   4.089   3.946   1.258
 9603TIP3    H228751   4.155   3.898   1.131
 9604TIP3   OH228752   8.387   3.839   4.571
 9604TIP3    H128753   8.423   3.760   4.530
 9604TIP3    H228754   8.293   3.824   4.573
 9605TIP3   OH228755   0.331   7.633   3.154
 9605TIP3    H128756   0.332   7.726   3.178
 9605TIP3    H228757   0.240   7.616   3.131
 9606TIP3   OH228758   6.817   0.841   3.341
 9606TIP3    H128759   6.736   0.877   3.307
 9606TIP3    H228760   6.819   0.869   3.433
 9607TIP3   OH228761   2.671   4.438   4.027
 9607TIP3    H128762   2.706   4.408   4.111
 9607TIP3    H228763   2.625   4.519   4.047
 9608TIP3   OH228764   7.152   4.780   5.361
 9608TIP3    H128765   7.106   4.823   5.432
 9608TIP3    H228766   7.217   4.724   5.404
 9609TIP3   OH228767   7.099   3.053   1.407
 9609TIP3    H128768   7.156   3.090   1.340
 9609TIP3    H228769   7.064   3.130   1.453
 9610TIP3   OH228770   1.766   4.730   5.070
 9610TIP3    H128771   1.719   4.799   5.117
 9610TIP3    H228772   1.700   4.693   5.010
 9611TIP3   OH228773   3.913   7.920   2.468
 9611TIP3    H128774   3.839   7.972   2.437
 9611TIP3    H228775   3.889   7.896   2.558
 9612TIP3   OH228776   8.132   6.274   4.847
 9612TIP3    H128777   8.113   6.315   4.762
 9612TIP3    H228778   8.053   6.225   4.868
 9613TIP3   OH228779   4.576   1.006   1.704
 9613TIP3    H128780   4.482   1.004   1.724
 9613TIP3    H228781   4.616   0.950   1.770
 9614TIP3   OH228782   5.063   1.509   3.680
 9614TIP3    H128783   5.159   1.511   3.683
 9614TIP3    H228784   5.036   1.560   3.757
 9615TIP3   OH228785   4.806   2.012   2.497
 9615TIP3    H128786   4.763   1.926   2.495
 9615TIP3    H228787   4.896   1.994   2.468
 9616TIP3   OH228788   0.558   4.054   1.298
 9616TIP3    H128789   0.465   4.032   1.306
 9616TIP3    H228790   0.560   4.149   1.295
 9617TIP3   OH228791   4.713   6.183   6.557
 9617TIP3    H128792   4.719   6.088   6.559
 9617TIP3    H228793   4.783   6.211   6.498
 9618TIP3   OH228794   6.985   5.437   0.669
 9618TIP3    H128795   7.052   5.493   0.708
 9618TIP3    H228796   6.913   5.438   0.732
 9619TIP3   OH228797   2.026   6.520   1.045
 9619TIP3    H128798   2.059   6.485   1.127
 9619TIP3    H228799   1.943   6.474   1.030
 9620TIP3   OH228800   0.623   1.794   5.312
 9620TIP3    H128801   0.548   1.810   5.255
 9620TIP3    H228802   0.609   1.706   5.347
 9621TIP3   OH228803   2.079   7.099   0.858
 9621TIP3    H128804   2.078   7.162   0.786
 9621TIP3    H228805   2.056   7.150   0.935
 9622TIP3   OH228806   4.431   7.006   4.025
 9622TIP3    H128807   4.340   7.033   4.036
 9622TIP3    H228808   4.468   7.069   3.964
 9623TIP3   OH228809   3.949   3.134   0.325
 9623TIP3    H128810   3.946   3.055   0.377
 9623TIP3    H228811   4.001   3.196   0.377
 9624TIP3   OH228812   2.154   4.863   2.337
 9624TIP3    H128813   2.230   4.869   2.278
 9624TIP3    H228814   2.090   4.812   2.288
 9625TIP3   OH228815   2.734   4.900   5.348
 9625TIP3    H128816   2.718   4.873   5.257
 9625TIP3    H228817   2.759   4.992   5.341
 9626TIP3   OH228818   7.842   2.029   1.115
 9626TIP3    H128819   7.774   2.004   1.052
 9626TIP3    H228820   7.812   2.112   1.152
 9627TIP3   OH228821   5.744   3.372   1.057
 9627TIP3    H128822   5.807   3.305   1.084
 9627TIP3    H228823   5.704   3.337   0.977
 9628TIP3   OH228824   0.177   5.757   0.646
 9628TIP3    H128825   0.246   5.724   0.703
 9628TIP3    H228826   0.172   5.692   0.575
 9629TIP3   OH228827   5.969   6.379   6.035
 9629TIP3    H128828   5.879   6.403   6.058
 9629TIP3    H228829   5.961   6.334   5.950
 9630TIP3   OH228830   0.311   4.364   1.360
 9630TIP3    H128831   0.378   4.430   1.342
 9630TIP3    H228832   0.228   4.413   1.355
 9631TIP3   OH228833   4.095   6.651   2.812
 9631TIP3    H128834   4.153   6.627   2.739
 9631TIP3    H228835   4.154   6.666   2.886
 9632TIP3   OH228836   3.212   0.811   2.698
 9632TIP3    H128837   3.302   0.827   2.725
 9632TIP3    H228838   3.159   0.861   2.761
 9633TIP3   OH228839   2.489   6.928   4.365
 9633TIP3    H128840   2.523   6.839   4.359
 9633TIP3    H228841   2.397   6.917   4.389
 9634TIP3   OH228842   4.896   5.438   2.177
 9634TIP3    H128843   4.983   5.419   2.212
 9634TIP3    H228844   4.878   5.365   2.117
 9635TIP3   OH228845   3.698   3.455   0.487
 9635TIP3    H128846   3.666   3.408   0.564
 9635TIP3    H228847   3.793   3.450   0.493
 9636TIP3   OH228848   3.617   5.500   5.295
 9636TIP3    H128849   3.564   5.555   5.237
 9636TIP3    H228850   3.706   5.534   5.286
 9637TIP3   OH228851   7.021   6.441   6.191
 9637TIP3    H128852   7.010   6.382   6.116
 9637TIP3    H228853   6.982   6.523   6.163
 9638TIP3   OH228854   2.490   5.355   3.874
 9638TIP3    H128855   2.478   5.286   3.809
 9638TIP3    H228856   2.436   5.427   3.843
 9639TIP3   OH228857   4.449   3.257   3.157
 9639TIP3    H128858   4.453   3.205   3.078
 9639TIP3    H228859   4.520   3.321   3.148
 9640TIP3   OH228860   8.142   3.283   3.202
 9640TIP3    H128861   8.093   3.325   3.272
 9640TIP3    H228862   8.176   3.202   3.241
 9641TIP3   OH228863   2.207   1.712   5.860
 9641TIP3    H128864   2.230   1.791   5.810
 9641TIP3    H228865   2.289   1.664   5.868
 9642TIP3   OH228866   2.710   0.725   0.822
 9642TIP3    H128867   2.694   0.658   0.888
 9642TIP3    H228868   2.668   0.804   0.858
 9643TIP3   OH228869   4.567   0.018   4.269
 9643TIP3    H128870   4.535  -0.070   4.250
 9643TIP3    H228871   4.495   0.076   4.246
 9644TIP3   OH228872   4.733  -0.015   2.519
 9644TIP3    H128873   4.755  -0.035   2.610
 9644TIP3    H228874   4.645   0.021   2.523
 9645TIP3   OH228875   5.872   6.202   2.397
 9645TIP3    H128876   5.792   6.218   2.447
 9645TIP3    H228877   5.850   6.228   2.308
 9646TIP3   OH228878   2.823   4.428   5.847
 9646TIP3    H128879   2.897   4.421   5.908
 9646TIP3    H228880   2.857   4.394   5.765
 9647TIP3   OH228881   6.338   1.454   2.862
 9647TIP3    H128882   6.382   1.378   2.902
 9647TIP3    H228883   6.247   1.444   2.887
 9648TIP3   OH228884   7.706   7.132   1.843
 9648TIP3    H128885   7.778   7.105   1.785
 9648TIP3    H228886   7.737   7.211   1.885
 9649TIP3   OH228887   6.293   0.793   3.334
 9649TIP3    H128888   6.354   0.743   3.387
 9649TIP3    H228889   6.222   0.732   3.313
 9650TIP3   OH228890   0.365   2.447   3.933
 9650TIP3    H128891   0.360   2.461   4.027
 9650TIP3    H228892   0.326   2.360   3.920
 9651TIP3   OH228893   5.723   0.231   5.251
 9651TIP3    H128894   5.717   0.316   5.294
 9651TIP3    H228895   5.689   0.247   5.162
 9652TIP3   OH228896   0.023   2.619   4.756
 9652TIP3    H128897   0.034   2.691   4.694
 9652TIP3    H228898  -0.038   2.560   4.714
 9653TIP3   OH228899   8.338   5.216   0.063
 9653TIP3    H128900   8.250   5.249   0.048
 9653TIP3    H228901   8.347   5.143   0.002
 9654TIP3   OH228902   1.101   5.698   6.040
 9654TIP3    H128903   1.141   5.782   6.018
 9654TIP3    H228904   1.126   5.683   6.131
 9655TIP3   OH228905   3.084   6.323   3.745
 9655TIP3    H128906   2.996   6.361   3.750
 9655TIP3    H228907   3.140   6.395   3.718
 9656TIP3   OH228908   4.136   7.352   5.225
 9656TIP3    H128909   4.209   7.318   5.278
 9656TIP3    H228910   4.105   7.276   5.175
 9657TIP3   OH228911   7.835   6.432   3.062
 9657TIP3    H128912   7.748   6.462   3.039
 9657TIP3    H228913   7.829   6.336   3.060
 9658TIP3   OH228914   1.873   4.146   0.560
 9658TIP3    H128915   1.854   4.139   0.466
 9658TIP3    H228916   1.940   4.079   0.574
 9659TIP3   OH228917   3.571   0.553   4.119
 9659TIP3    H128918   3.564   0.569   4.025
 9659TIP3    H228919   3.643   0.610   4.148
 9660TIP3   OH228920   0.576   0.799   6.427
 9660TIP3    H128921   0.594   0.706   6.438
 9660TIP3    H228922   0.630   0.825   6.352
 9661TIP3   OH228923   5.181   3.780   6.529
 9661TIP3    H128924   5.140   3.779   6.442
 9661TIP3    H228925   5.245   3.709   6.526
 9662TIP3   OH228926   8.186   0.777   2.855
 9662TIP3    H128927   8.091   0.763   2.859
 9662TIP3    H228928   8.204   0.787   2.761
 9663TIP3   OH228929   6.042   2.690   4.346
 9663TIP3    H128930   6.050   2.596   4.363
 9663TIP3    H228931   5.952   2.702   4.316
 9664TIP3   OH228932   2.326   1.071   6.338
 9664TIP3    H128933   2.370   1.003   6.286
 9664TIP3    H228934   2.255   1.101   6.282
 9665TIP3   OH228935   4.721   0.426   5.176
 9665TIP3    H128936   4.652   0.362   5.194
 9665TIP3    H228937   4.678   0.494   5.125
 9666TIP3   OH228938   0.102   7.233   3.807
 9666TIP3    H128939   0.131   7.189   3.887
 9666TIP3    H228940   0.139   7.321   3.813
 9667TIP3   OH228941   7.637   4.827   2.310
 9667TIP3    H128942   7.636   4.732   2.306
 9667TIP3    H228943   7.729   4.850   2.294
 9668TIP3   OH228944   2.144   5.169   2.336
 9668TIP3    H128945   2.199   5.103   2.293
 9668TIP3    H228946   2.164   5.159   2.429
 9669TIP3   OH228947   0.018   3.058   5.763
 9669TIP3    H128948  -0.058   3.001   5.764
 9669TIP3    H228949   0.053   3.054   5.852
 9670TIP3   OH228950   6.628   4.980   3.019
 9670TIP3    H128951   6.617   4.935   3.102
 9670TIP3    H228952   6.660   4.913   2.959
 9671TIP3   OH228953   1.524   5.300   2.350
 9671TIP3    H128954   1.478   5.383   2.340
 9671TIP3    H228955   1.463   5.245   2.400
 9672TIP3   OH228956   0.045   0.634   6.710
 9672TIP3    H128957   0.138   0.633   6.731
 9672TIP3    H228958   0.010   0.555   6.751
 9673TIP3   OH228959   3.499   7.952   2.342
 9673TIP3    H128960   3.408   7.981   2.352
 9673TIP3    H228961   3.502   7.867   2.387
 9674TIP3   OH228962   2.564   0.049   4.075
 9674TIP3    H128963   2.553  -0.036   4.119
 9674TIP3    H228964   2.603   0.106   4.142
 9675TIP3   OH228965   6.148   2.163   5.754
 9675TIP3    H128966   6.071   2.147   5.808
 9675TIP3    H228967   6.219   2.179   5.817
 9676TIP3   OH228968   4.307   3.090   3.331
 9676TIP3    H128969   4.254   3.138   3.395
 9676TIP3    H228970   4.351   3.159   3.281
 9677TIP3   OH228971   7.706   5.619   0.529
 9677TIP3    H128972   7.752   5.542   0.497
 9677TIP3    H228973   7.629   5.584   0.574
 9678TIP3   OH228974   7.239   1.197   1.127
 9678TIP3    H128975   7.258   1.115   1.082
 9678TIP3    H228976   7.302   1.199   1.200
 9679TIP3   OH228977   0.120   2.714   4.416
 9679TIP3    H128978   0.095   2.780   4.481
 9679TIP3    H228979   0.038   2.669   4.395
 9680TIP3   OH228980   3.089   7.576   0.236
 9680TIP3    H128981   3.065   7.557   0.327
 9680TIP3    H228982   3.057   7.501   0.186
 9681TIP3   OH228983   0.529   2.358   3.022
 9681TIP3    H128984   0.558   2.395   2.938
 9681TIP3    H228985   0.468   2.289   2.997
 9682TIP3   OH228986   1.450   4.078   4.491
 9682TIP3    H128987   1.365   4.049   4.523
 9682TIP3    H228988   1.492   3.999   4.458
 9683TIP3   OH228989   0.988   7.872   4.875
 9683TIP3    H128990   1.024   7.961   4.871
 9683TIP3    H228991   0.919   7.877   4.941
 9684TIP3   OH228992   8.379   6.280   6.529
 9684TIP3    H128993   8.373   6.234   6.613
 9684TIP3    H228994   8.350   6.370   6.549
 9685TIP3   OH228995   2.727   4.373   4.930
 9685TIP3    H128996   2.685   4.371   5.016
 9685TIP3    H228997   2.683   4.443   4.883
 9686TIP3   OH228998   0.058   4.355   5.901
 9686TIP3    H128999   0.034   4.439   5.939
 9686TIP3    H229000   0.046   4.292   5.973
 9687TIP3   OH229001   3.228   7.136   0.102
 9687TIP3    H129002   3.279   7.121   0.181
 9687TIP3    H229003   3.148   7.086   0.115
 9688TIP3   OH229004   3.342   7.250   0.771
 9688TIP3    H129005   3.433   7.225   0.754
 9688TIP3    H229006   3.334   7.338   0.735
 9689TIP3   OH229007   2.024   7.448   2.891
 9689TIP3    H129008   1.951   7.488   2.844
 9689TIP3    H229009   1.999   7.356   2.900
 9690TIP3   OH229010   2.995   6.703   0.424
 9690TIP3    H129011   2.989   6.685   0.331
 9690TIP3    H229012   3.004   6.617   0.465
 9691TIP3   OH229013   3.734   5.502   1.689
 9691TIP3    H129014   3.644   5.493   1.657
 9691TIP3    H229015   3.785   5.526   1.612
 9692TIP3   OH229016   0.220   1.294   2.107
 9692TIP3    H129017   0.273   1.318   2.031
 9692TIP3    H229018   0.265   1.219   2.145
 9693TIP3   OH229019   4.378   3.409   2.107
 9693TIP3    H129020   4.473   3.408   2.112
 9693TIP3    H229021   4.354   3.321   2.080
 9694TIP3   OH229022   4.863   0.479   6.388
 9694TIP3    H129023   4.920   0.554   6.375
 9694TIP3    H229024   4.811   0.501   6.466
 9695TIP3   OH229025   7.654   0.519   2.507
 9695TIP3    H129026   7.724   0.471   2.551
 9695TIP3    H229027   7.615   0.574   2.575
 9696TIP3   OH229028   3.753   3.936   0.520
 9696TIP3    H129029   3.659   3.955   0.513
 9696TIP3    H229030   3.759   3.871   0.590
 9697TIP3   OH229031   7.679   2.309   1.606
 9697TIP3    H129032   7.710   2.220   1.624
 9697TIP3    H229033   7.730   2.364   1.666
 9698TIP3   OH229034   5.201   0.600   3.012
 9698TIP3    H129035   5.239   0.558   2.935
 9698TIP3    H229036   5.152   0.529   3.055
 9699TIP3   OH229037   6.304   5.402   6.198
 9699TIP3    H129038   6.287   5.372   6.108
 9699TIP3    H229039   6.375   5.345   6.229
 9700TIP3   OH229040   2.166   1.958   2.019
 9700TIP3    H129041   2.118   2.023   1.969
 9700TIP3    H229042   2.249   2.001   2.040
 9701TIP3   OH229043   2.032   2.009   6.689
 9701TIP3    H129044   2.082   1.941   6.644
 9701TIP3    H229045   1.986   2.055   6.618
 9702TIP3   OH229046   3.018   4.231   3.982
 9702TIP3    H129047   2.979   4.166   3.923
 9702TIP3    H229048   3.002   4.315   3.938
 9703TIP3   OH229049   7.494   7.468   5.169
 9703TIP3    H129050   7.583   7.451   5.200
 9703TIP3    H229051   7.453   7.382   5.168
 9704TIP3   OH229052   5.814   7.090   6.205
 9704TIP3    H129053   5.833   7.183   6.193
 9704TIP3    H229054   5.737   7.074   6.149
 9705TIP3   OH229055   3.896   4.736   0.104
 9705TIP3    H129056   3.815   4.686   0.096
 9705TIP3    H229057   3.958   4.674   0.143
 9706TIP3   OH229058   2.709   6.856   2.222
 9706TIP3    H129059   2.631   6.860   2.166
 9706TIP3    H229060   2.738   6.947   2.229
 9707TIP3   OH229061   0.085   6.241   4.705
 9707TIP3    H129062   0.166   6.228   4.655
 9707TIP3    H229063   0.065   6.155   4.741
 9708TIP3   OH229064   5.113   2.313   5.006
 9708TIP3    H129065   5.097   2.261   5.084
 9708TIP3    H229066   5.037   2.372   5.000
 9709TIP3   OH229067   2.916   2.688   1.956
 9709TIP3    H129068   2.902   2.782   1.954
 9709TIP3    H229069   2.923   2.662   1.864
 9710TIP3   OH229070   6.098   3.704   3.592
 9710TIP3    H129071   6.188   3.723   3.617
 9710TIP3    H229072   6.102   3.689   3.497
 9711TIP3   OH229073   6.038   2.095   4.663
 9711TIP3    H129074   6.026   2.135   4.577
 9711TIP3    H229075   5.951   2.097   4.703
 9712TIP3   OH229076   6.777   7.566   5.856
 9712TIP3    H129077   6.724   7.622   5.913
 9712TIP3    H229078   6.823   7.627   5.798
 9713TIP3   OH229079   5.549   0.296   6.470
 9713TIP3    H129080   5.587   0.223   6.422
 9713TIP3    H229081   5.512   0.256   6.549
 9714TIP3   OH229082   2.736   0.421   1.252
 9714TIP3    H129083   2.662   0.412   1.311
 9714TIP3    H229084   2.772   0.508   1.270
 9715TIP3   OH229085   1.358   4.522   4.590
 9715TIP3    H129086   1.394   4.611   4.598
 9715TIP3    H229087   1.280   4.533   4.536
 9716TIP3   OH229088   2.010   4.470   1.701
 9716TIP3    H129089   1.968   4.556   1.704
 9716TIP3    H229090   2.049   4.466   1.614
 9717TIP3   OH229091   1.756   5.170   3.348
 9717TIP3    H129092   1.841   5.204   3.374
 9717TIP3    H229093   1.715   5.243   3.302
 9718TIP3   OH229094   2.691   3.235   3.004
 9718TIP3    H129095   2.765   3.185   2.972
 9718TIP3    H229096   2.690   3.220   3.098
 9719TIP3   OH229097   2.753   2.204   1.400
 9719TIP3    H129098   2.749   2.297   1.426
 9719TIP3    H229099   2.693   2.160   1.460
 9720TIP3   OH229100   3.268   1.302   1.054
 9720TIP3    H129101   3.233   1.213   1.057
 9720TIP3    H229102   3.290   1.316   0.962
 9721TIP3   OH229103   6.451   3.048   6.172
 9721TIP3    H129104   6.508   2.982   6.212
 9721TIP3    H229105   6.474   3.129   6.217
 9722TIP3   OH229106   3.626   2.675   5.312
 9722TIP3    H129107   3.629   2.675   5.407
 9722TIP3    H229108   3.543   2.635   5.290
 9723TIP3   OH229109   7.881   1.418   3.002
 9723TIP3    H129110   7.972   1.434   2.978
 9723TIP3    H229111   7.833   1.428   2.919
 9724TIP3   OH229112   8.404   4.425   3.088
 9724TIP3    H129113   8.311   4.442   3.103
 9724TIP3    H229114   8.405   4.359   3.018
 9725TIP3   OH229115   0.292   1.450   5.525
 9725TIP3    H129116   0.362   1.479   5.584
 9725TIP3    H229117   0.276   1.525   5.467
 9726TIP3   OH229118   2.532   5.884   0.030
 9726TIP3    H129119   2.520   5.974  -0.002
 9726TIP3    H229120   2.536   5.831  -0.049
 9727TIP3   OH229121   3.804   6.833   1.085
 9727TIP3    H129122   3.794   6.807   0.993
 9727TIP3    H229123   3.717   6.823   1.122
 9728TIP3   OH229124   5.705   6.427   6.183
 9728TIP3    H129125   5.657   6.371   6.245
 9728TIP3    H229126   5.730   6.504   6.234
 9729TIP3   OH229127   6.279   1.345   4.958
 9729TIP3    H129128   6.371   1.330   4.978
 9729TIP3    H229129   6.275   1.435   4.928
 9730TIP3   OH229130   8.393   4.502   6.618
 9730TIP3    H129131   8.473   4.514   6.670
 9730TIP3    H229132   8.357   4.590   6.611
 9731TIP3   OH229133   0.662   5.736   4.267
 9731TIP3    H129134   0.630   5.825   4.255
 9731TIP3    H229135   0.723   5.722   4.195
 9732TIP3   OH229136   0.565   5.185   3.168
 9732TIP3    H129137   0.499   5.244   3.131
 9732TIP3    H229138   0.604   5.234   3.240
 9733TIP3   OH229139   5.378   5.248   3.395
 9733TIP3    H129140   5.299   5.214   3.352
 9733TIP3    H229141   5.439   5.263   3.323
 9734TIP3   OH229142   0.598   6.218   3.174
 9734TIP3    H129143   0.671   6.188   3.119
 9734TIP3    H229144   0.624   6.304   3.205
 9735TIP3   OH229145   4.991   4.854   2.339
 9735TIP3    H129146   5.000   4.884   2.430
 9735TIP3    H229147   4.899   4.828   2.331
 9736TIP3   OH229148   3.662   7.602   1.282
 9736TIP3    H129149   3.624   7.678   1.327
 9736TIP3    H229150   3.679   7.634   1.193
 9737TIP3   OH229151   1.634   3.902   4.161
 9737TIP3    H129152   1.602   3.858   4.083
 9737TIP3    H229153   1.623   3.995   4.142
 9738TIP3   OH229154   5.752   7.716   2.532
 9738TIP3    H129155   5.809   7.663   2.589
 9738TIP3    H229156   5.749   7.802   2.575
 9739TIP3   OH229157   2.944   4.581   5.188
 9739TIP3    H129158   2.975   4.598   5.277
 9739TIP3    H229159   2.948   4.486   5.179
 9740TIP3   OH229160   1.738   1.447   5.075
 9740TIP3    H129161   1.692   1.508   5.017
 9740TIP3    H229162   1.762   1.374   5.018
 9741TIP3   OH229163   2.462   6.877   1.652
 9741TIP3    H129164   2.420   6.805   1.698
 9741TIP3    H229165   2.534   6.837   1.603
 9742TIP3   OH229166   0.435   0.872   1.350
 9742TIP3    H129167   0.345   0.886   1.319
 9742TIP3    H229168   0.428   0.796   1.408
 9743TIP3   OH229169   7.913   6.538   1.772
 9743TIP3    H129170   7.955   6.575   1.695
 9743TIP3    H229171   7.834   6.496   1.738
 9744TIP3   OH229172   1.095   4.957   5.186
 9744TIP3    H129173   1.037   4.883   5.167
 9744TIP3    H229174   1.097   5.007   5.105
 9745TIP3   OH229175   6.540   2.162   3.488
 9745TIP3    H129176   6.535   2.092   3.553
 9745TIP3    H229177   6.478   2.228   3.520
 9746TIP3   OH229178   1.746   1.212   3.314
 9746TIP3    H129179   1.735   1.136   3.257
 9746TIP3    H229180   1.657   1.246   3.327
 9747TIP3   OH229181   7.872   7.611   1.658
 9747TIP3    H129182   7.851   7.563   1.578
 9747TIP3    H229183   7.864   7.546   1.728
 9748TIP3   OH229184   0.617   5.164   6.712
 9748TIP3    H129185   0.573   5.096   6.762
 9748TIP3    H229186   0.697   5.182   6.760
 9749TIP3   OH229187   6.247   2.065   3.000
 9749TIP3    H129188   6.323   2.122   3.012
 9749TIP3    H229189   6.193   2.079   3.078
 9750TIP3   OH229190   4.906   0.698   4.287
 9750TIP3    H129191   4.962   0.639   4.337
 9750TIP3    H229192   4.892   0.773   4.345
 9751TIP3   OH229193   0.813   5.754   6.093
 9751TIP3    H129194   0.879   5.704   6.045
 9751TIP3    H229195   0.864   5.808   6.154
 9752TIP3   OH229196   1.423   4.380   2.415
 9752TIP3    H129197   1.384   4.443   2.476
 9752TIP3    H229198   1.517   4.389   2.429
 9753TIP3   OH229199   0.829   1.791   3.882
 9753TIP3    H129200   0.914   1.766   3.848
 9753TIP3    H229201   0.785   1.835   3.809
 9754TIP3   OH229202   3.684   5.607   3.280
 9754TIP3    H129203   3.664   5.544   3.349
 9754TIP3    H229204   3.615   5.593   3.214
 9755TIP3   OH229205   1.551   6.918   1.140
 9755TIP3    H129206   1.484   6.849   1.135
 9755TIP3    H229207   1.623   6.878   1.189
 9756TIP3   OH229208   0.406   4.675   5.026
 9756TIP3    H129209   0.369   4.754   5.066
 9756TIP3    H229210   0.409   4.612   5.098
 9757TIP3   OH229211   2.396   1.671   6.775
 9757TIP3    H129212   2.413   1.747   6.720
 9757TIP3    H229213   2.478   1.622   6.774
 9758TIP3   OH229214   0.754   1.325   0.896
 9758TIP3    H129215   0.709   1.348   0.815
 9758TIP3    H229216   0.819   1.394   0.909
 9759TIP3   OH229217   7.510   4.949   6.766
 9759TIP3    H129218   7.546   4.892   6.835
 9759TIP3    H229219   7.416   4.952   6.785
 9760TIP3   OH229220   2.561   1.925   5.135
 9760TIP3    H129221   2.652   1.908   5.156
 9760TIP3    H229222   2.538   1.858   5.070
 9761TIP3   OH229223   6.049   2.904   2.480
 9761TIP3    H129224   6.087   2.931   2.563
 9761TIP3    H229225   6.118   2.919   2.416
 9762TIP3   OH229226   8.051   5.284   0.543
 9762TIP3    H129227   8.043   5.218   0.612
 9762TIP3    H229228   8.098   5.357   0.585
 9763TIP3   OH229229   2.644   6.803   5.319
 9763TIP3    H129230   2.650   6.758   5.235
 9763TIP3    H229231   2.721   6.775   5.368
 9764TIP3   OH229232   7.922   4.498   2.282
 9764TIP3    H129233   7.875   4.424   2.244
 9764TIP3    H229234   7.970   4.459   2.356
 9765TIP3   OH229235   5.173   6.760   6.736
 9765TIP3    H129236   5.237   6.710   6.786
 9765TIP3    H229237   5.225   6.824   6.688
 9766TIP3   OH229238   0.133   2.862   5.973
 9766TIP3    H129239   0.186   2.839   5.896
 9766TIP3    H229240   0.047   2.823   5.956
 9767TIP3   OH229241   2.096   5.772   4.359
 9767TIP3    H129242   2.123   5.847   4.412
 9767TIP3    H229243   2.006   5.753   4.388
 9768TIP3   OH229244   6.760   1.596   5.565
 9768TIP3    H129245   6.806   1.638   5.493
 9768TIP3    H229246   6.676   1.569   5.528
 9769TIP3   OH229247   0.258   0.939   0.114
 9769TIP3    H129248   0.285   0.859   0.069
 9769TIP3    H229249   0.263   1.007   0.047
 9770TIP3   OH229250   6.790   3.874   4.105
 9770TIP3    H129251   6.767   3.813   4.035
 9770TIP3    H229252   6.743   3.841   4.182
 9771TIP3   OH229253   4.163   4.899   1.371
 9771TIP3    H129254   4.127   4.965   1.311
 9771TIP3    H229255   4.091   4.878   1.430
 9772TIP3   OH229256   2.211   6.681   4.554
 9772TIP3    H129257   2.144   6.632   4.602
 9772TIP3    H229258   2.294   6.648   4.588
 9773TIP3   OH229259   1.075   1.906   6.864
 9773TIP3    H129260   1.045   1.987   6.824
 9773TIP3    H229261   1.149   1.932   6.920
 9774TIP3   OH229262   5.575   7.208   5.766
 9774TIP3    H129263   5.633   7.134   5.784
 9774TIP3    H229264   5.573   7.257   5.848
 9775TIP3   OH229265   6.203   7.280   2.138
 9775TIP3    H129266   6.245   7.364   2.159
 9775TIP3    H229267   6.185   7.286   2.044
 9776TIP3   OH229268   6.459   3.472   0.841
 9776TIP3    H129269   6.425   3.562   0.840
 9776TIP3    H229270   6.471   3.452   0.934
 9777TIP3   OH229271   0.830   0.368   4.748
 9777TIP3    H129272   0.844   0.315   4.827
 9777TIP3    H229273   0.887   0.443   4.760
 9778TIP3   OH229274   5.284   1.091   3.465
 9778TIP3    H129275   5.252   1.001   3.470
 9778TIP3    H229276   5.235   1.129   3.392
 9779TIP3   OH229277   1.464   4.878   2.960
 9779TIP3    H129278   1.504   4.966   2.961
 9779TIP3    H229279   1.518   4.827   3.021
 9780TIP3   OH229280   0.848   1.610   5.436
 9780TIP3    H129281   0.855   1.700   5.405
 9780TIP3    H229282   0.854   1.617   5.531
 9781TIP3   OH229283   0.094   0.823   4.141
 9781TIP3    H129284   0.005   0.808   4.172
 9781TIP3    H229285   0.126   0.736   4.115
 9782TIP3   OH229286   7.936   2.107   4.546
 9782TIP3    H129287   8.006   2.119   4.482
 9782TIP3    H229288   7.856   2.133   4.499
 9783TIP3   OH229289   3.083   6.738   4.901
 9783TIP3    H129290   3.134   6.678   4.845
 9783TIP3    H229291   3.140   6.814   4.912
 9784TIP3   OH229292   7.738   6.254   3.261
 9784TIP3    H129293   7.650   6.278   3.231
 9784TIP3    H229294   7.767   6.187   3.199
 9785TIP3   OH229295   0.461   5.732   2.765
 9785TIP3    H129296   0.399   5.789   2.719
 9785TIP3    H229297   0.507   5.791   2.825
 9786TIP3   OH229298   5.747   3.494   2.549
 9786TIP3    H129299   5.823   3.443   2.521
 9786TIP3    H229300   5.771   3.528   2.635
 9787TIP3   OH229301   6.240   7.541   2.559
 9787TIP3    H129302   6.322   7.532   2.608
 9787TIP3    H229303   6.173   7.507   2.619
 9788TIP3   OH229304   0.608   6.673   4.372
 9788TIP3    H129305   0.535   6.694   4.430
 9788TIP3    H229306   0.570   6.674   4.284
 9789TIP3   OH229307   5.043   4.934   0.300
 9789TIP3    H129308   5.025   4.952   0.208
 9789TIP3    H229309   4.958   4.913   0.338
 9790TIP3   OH229310   6.046   1.900   6.045
 9790TIP3    H129311   6.035   1.814   6.086
 9790TIP3    H229312   6.061   1.960   6.119
 9791TIP3   OH229313   4.365   2.831   0.122
 9791TIP3    H129314   4.434   2.879   0.168
 9791TIP3    H229315   4.380   2.739   0.145
 9792TIP3   OH229316   3.748   3.673   1.618
 9792TIP3    H129317   3.697   3.620   1.557
 9792TIP3    H229318   3.760   3.757   1.574
 9793TIP3   OH229319   0.336   4.304   0.499
 9793TIP3    H129320   0.298   4.254   0.571
 9793TIP3    H229321   0.427   4.276   0.496
 9794TIP3   OH229322   6.920   7.210   1.533
 9794TIP3    H129323   6.875   7.260   1.602
 9794TIP3    H229324   6.912   7.119   1.561
 9795TIP3   OH229325   6.404   1.172   1.874
 9795TIP3    H129326   6.423   1.094   1.823
 9795TIP3    H229327   6.346   1.141   1.944
 9796TIP3   OH229328   4.797   1.243   4.688
 9796TIP3    H129329   4.819   1.183   4.759
 9796TIP3    H229330   4.873   1.301   4.682
 9797TIP3   OH229331   7.794   6.999   3.685
 9797TIP3    H129332   7.706   7.030   3.669
 9797TIP3    H229333   7.823   7.046   3.764
 9798TIP3   OH229334   5.969   3.355   1.299
 9798TIP3    H129335   5.928   3.271   1.280
 9798TIP3    H229336   6.061   3.336   1.311
 9799TIP3   OH229337   8.132   0.588   3.458
 9799TIP3    H129338   8.058   0.610   3.515
 9799TIP3    H229339   8.132   0.657   3.391
 9800TIP3   OH229340   0.441   1.572   6.283
 9800TIP3    H129341   0.503   1.528   6.341
 9800TIP3    H229342   0.496   1.626   6.226
 9801TIP3   OH229343   4.182   0.410   3.103
 9801TIP3    H129344   4.162   0.327   3.060
 9801TIP3    H229345   4.261   0.441   3.059
 9802TIP3   OH229346   1.958   4.483   0.764
 9802TIP3    H129347   2.018   4.537   0.713
 9802TIP3    H229348   1.873   4.495   0.721
 9803TIP3   OH229349   2.668   3.702   4.616
 9803TIP3    H129350   2.585   3.654   4.621
 9803TIP3    H229351   2.692   3.717   4.707
 9804TIP3   OH229352   7.036   1.226   6.607
 9804TIP3    H129353   7.116   1.255   6.649
 9804TIP3    H229354   7.041   1.130   6.609
 9805TIP3   OH229355   0.313   4.833   6.837
 9805TIP3    H129356   0.243   4.895   6.814
 9805TIP3    H229357   0.384   4.888   6.871
 9806TIP3   OH229358   2.070   7.596   2.082
 9806TIP3    H129359   2.076   7.689   2.104
 9806TIP3    H229360   2.092   7.551   2.164
 9807TIP3   OH229361   7.954   2.940   1.241
 9807TIP3    H129362   7.912   2.942   1.155
 9807TIP3    H229363   7.934   2.853   1.276
 9808TIP3   OH229364   5.435   0.277   5.253
 9808TIP3    H129365   5.492   0.319   5.316
 9808TIP3    H229366   5.481   0.283   5.169
 9809TIP3   OH229367   0.548   2.019   3.826
 9809TIP3    H129368   0.608   1.986   3.759
 9809TIP3    H229369   0.590   2.096   3.862
 9810TIP3   OH229370   5.196   1.214   0.289
 9810TIP3    H129371   5.240   1.250   0.366
 9810TIP3    H229372   5.182   1.121   0.311
 9811TIP3   OH229373   4.555   3.591   4.597
 9811TIP3    H129374   4.601   3.586   4.681
 9811TIP3    H229375   4.567   3.505   4.558
 9812TIP3   OH229376   5.855   6.222   0.365
 9812TIP3    H129377   5.833   6.136   0.331
 9812TIP3    H229378   5.775   6.253   0.407
 9813TIP3   OH229379   3.145   3.781   0.672
 9813TIP3    H129380   3.064   3.831   0.657
 9813TIP3    H229381   3.182   3.770   0.585
 9814TIP3   OH229382   3.197   0.357   5.292
 9814TIP3    H129383   3.167   0.448   5.286
 9814TIP3    H229384   3.181   0.322   5.205
 9815TIP3   OH229385   5.955   7.930   0.205
 9815TIP3    H129386   5.926   7.934   0.113
 9815TIP3    H229387   5.876   7.947   0.256
 9816TIP3   OH229388   1.264   0.388   3.826
 9816TIP3    H129389   1.253   0.423   3.737
 9816TIP3    H229390   1.199   0.317   3.832
 9817TIP3   OH229391   3.471   5.932   1.410
 9817TIP3    H129392   3.429   6.018   1.408
 9817TIP3    H229393   3.412   5.875   1.360
 9818TIP3   OH229394   7.074   2.534   2.944
 9818TIP3    H129395   7.003   2.539   3.008
 9818TIP3    H229396   7.033   2.498   2.865
 9819TIP3   OH229397   4.314   6.306   5.179
 9819TIP3    H129398   4.284   6.240   5.242
 9819TIP3    H229399   4.287   6.389   5.218
 9820TIP3   OH229400   4.818   7.909   5.844
 9820TIP3    H129401   4.837   7.856   5.767
 9820TIP3    H229402   4.814   7.999   5.811
 9821TIP3   OH229403   5.100   5.368   2.747
 9821TIP3    H129404   5.036   5.303   2.717
 9821TIP3    H229405   5.118   5.343   2.838
 9822TIP3   OH229406   3.877   1.156   1.996
 9822TIP3    H129407   3.964   1.158   1.954
 9822TIP3    H229408   3.852   1.248   2.003
 9823TIP3   OH229409   6.397   1.728   3.002
 9823TIP3    H129410   6.414   1.647   2.955
 9823TIP3    H229411   6.303   1.743   2.990
 9824TIP3   OH229412   0.799   2.338   6.301
 9824TIP3    H129413   0.759   2.425   6.304
 9824TIP3    H229414   0.790   2.305   6.390
 9825TIP3   OH229415   1.849   7.472   6.265
 9825TIP3    H129416   1.916   7.482   6.332
 9825TIP3    H229417   1.827   7.561   6.240
 9826TIP3   OH229418   2.859   0.474   3.362
 9826TIP3    H129419   2.938   0.506   3.319
 9826TIP3    H229420   2.860   0.514   3.449
 9827TIP3   OH229421   3.103   0.482   0.761
 9827TIP3    H129422   3.085   0.396   0.799
 9827TIP3    H229423   3.017   0.524   0.754
 9828TIP3   OH229424   3.672   2.638   6.610
 9828TIP3    H129425   3.727   2.703   6.567
 9828TIP3    H229426   3.725   2.559   6.613
 9829TIP3   OH229427   6.784   6.131   0.410
 9829TIP3    H129428   6.760   6.112   0.501
 9829TIP3    H229429   6.720   6.195   0.381
 9830TIP3   OH229430   3.030   4.846   0.107
 9830TIP3    H129431   3.022   4.934   0.144
 9830TIP3    H229432   2.939   4.818   0.092
 9831TIP3   OH229433   7.332   0.563   1.126
 9831TIP3    H129434   7.386   0.492   1.092
 9831TIP3    H229435   7.286   0.525   1.201
 9832TIP3   OH229436   6.669   2.550   6.703
 9832TIP3    H129437   6.708   2.479   6.653
 9832TIP3    H229438   6.637   2.611   6.636
 9833TIP3   OH229439   1.308   2.553   1.649
 9833TIP3    H129440   1.228   2.582   1.693
 9833TIP3    H229441   1.374   2.550   1.718
 9834TIP3   OH229442   2.146   7.308   5.926
 9834TIP3    H129443   2.106   7.242   5.984
 9834TIP3    H229444   2.081   7.378   5.922
 9835TIP3   OH229445   1.484   7.463   0.905
 9835TIP3    H129446   1.539   7.412   0.845
 9835TIP3    H229447   1.516   7.553   0.898
 9836TIP3   OH229448   0.731   6.228   0.467
 9836TIP3    H129449   0.695   6.187   0.389
 9836TIP3    H229450   0.717   6.164   0.537
 9837TIP3   OH229451   6.567   5.458   0.633
 9837TIP3    H129452   6.576   5.497   0.546
 9837TIP3    H229453   6.569   5.364   0.617
 9838TIP3   OH229454   7.132   0.313   0.938
 9838TIP3    H129455   7.158   0.310   0.846
 9838TIP3    H229456   7.043   0.278   0.938
 9839TIP3   OH229457   8.069   1.142   0.902
 9839TIP3    H129458   8.057   1.194   0.982
 9839TIP3    H229459   8.163   1.150   0.882
 9840TIP3   OH229460   8.303   1.634   0.599
 9840TIP3    H129461   8.232   1.698   0.595
 9840TIP3    H229462   8.304   1.604   0.690
 9841TIP3   OH229463   3.748   3.478   2.840
 9841TIP3    H129464   3.723   3.436   2.922
 9841TIP3    H229465   3.810   3.417   2.800
 9842TIP3   OH229466   2.160   5.229   4.586
 9842TIP3    H129467   2.247   5.189   4.592
 9842TIP3    H229468   2.173   5.307   4.531
 9843TIP3   OH229469   3.390   7.348   0.052
 9843TIP3    H129470   3.343   7.266   0.064
 9843TIP3    H229471   3.381   7.367  -0.042
 9844TIP3   OH229472   8.047   3.518   3.346
 9844TIP3    H129473   8.014   3.596   3.390
 9844TIP3    H229474   8.092   3.552   3.268
 9845TIP3   OH229475   8.128   5.029   0.093
 9845TIP3    H129476   8.118   5.093   0.163
 9845TIP3    H229477   8.210   4.984   0.113
 9846TIP3   OH229478   1.247   6.804   6.467
 9846TIP3    H129479   1.302   6.881   6.451
 9846TIP3    H229480   1.195   6.826   6.544
 9847TIP3   OH229481   3.951   3.056   2.912
 9847TIP3    H129482   3.888   3.054   2.985
 9847TIP3    H229483   3.959   3.149   2.890
 9848TIP3   OH229484   0.492   5.687   4.558
 9848TIP3    H129485   0.465   5.770   4.597
 9848TIP3    H229486   0.517   5.709   4.468
 9849TIP3   OH229487   2.955   1.582   5.728
 9849TIP3    H129488   2.968   1.600   5.821
 9849TIP3    H229489   2.903   1.656   5.697
 9850TIP3   OH229490   1.510   3.945   2.783
 9850TIP3    H129491   1.418   3.918   2.775
 9850TIP3    H229492   1.507   4.025   2.835
 9851TIP3   OH229493   8.347   3.396   5.928
 9851TIP3    H129494   8.256   3.426   5.935
 9851TIP3    H229495   8.368   3.366   6.017
 9852TIP3   OH229496   4.678   1.168   3.152
 9852TIP3    H129497   4.657   1.251   3.109
 9852TIP3    H229498   4.756   1.137   3.105
 9853TIP3   OH229499   6.520   4.929   4.382
 9853TIP3    H129500   6.557   4.978   4.456
 9853TIP3    H229501   6.593   4.920   4.320
 9854TIP3   OH229502   3.742   3.156   3.444
 9854TIP3    H129503   3.775   3.237   3.405
 9854TIP3    H229504   3.803   3.089   3.413
 9855TIP3   OH229505   4.194   3.863   1.838
 9855TIP3    H129506   4.147   3.818   1.768
 9855TIP3    H229507   4.244   3.794   1.880
 9856TIP3   OH229508   0.892   6.059   0.058
 9856TIP3    H129509   0.974   6.099   0.086
 9856TIP3    H229510   0.853   6.024   0.138
 9857TIP3   OH229511   1.736   6.498   1.219
 9857TIP3    H129512   1.775   6.585   1.228
 9857TIP3    H229513   1.793   6.440   1.270
 9858TIP3   OH229514   0.766   6.403   4.364
 9858TIP3    H129515   0.743   6.484   4.319
 9858TIP3    H229516   0.851   6.421   4.405
 9859TIP3   OH229517   7.764   0.980   1.776
 9859TIP3    H129518   7.799   0.891   1.784
 9859TIP3    H229519   7.766   1.015   1.865
 9860TIP3   OH229520   2.139   6.951   2.009
 9860TIP3    H129521   2.085   6.983   2.082
 9860TIP3    H229522   2.104   6.996   1.932
 9861TIP3   OH229523   2.045   1.754   1.081
 9861TIP3    H129524   1.977   1.783   1.020
 9861TIP3    H229525   2.073   1.834   1.125
 9862TIP3   OH229526   4.088   2.087   1.795
 9862TIP3    H129527   4.042   2.019   1.746
 9862TIP3    H229528   4.025   2.159   1.800
 9863TIP3   OH229529   3.528   7.207   5.356
 9863TIP3    H129530   3.460   7.152   5.318
 9863TIP3    H229531   3.513   7.201   5.450
 9864TIP3   OH229532   2.113   7.702   4.403
 9864TIP3    H129533   2.058   7.677   4.477
 9864TIP3    H229534   2.197   7.658   4.420
 9865TIP3   OH229535   0.081   7.668   3.652
 9865TIP3    H129536   0.074   7.740   3.713
 9865TIP3    H229537   0.005   7.613   3.671
 9866TIP3   OH229538   3.775   0.577   3.087
 9866TIP3    H129539   3.779   0.661   3.041
 9866TIP3    H229540   3.838   0.522   3.041
 9867TIP3   OH229541   6.322   1.764   4.796
 9867TIP3    H129542   6.287   1.846   4.829
 9867TIP3    H229543   6.296   1.699   4.860
 9868TIP3   OH229544   2.392   0.783   5.072
 9868TIP3    H129545   2.344   0.762   4.992
 9868TIP3    H229546   2.327   0.778   5.142
 9869TIP3   OH229547   2.200   7.538   3.082
 9869TIP3    H129548   2.146   7.515   3.006
 9869TIP3    H229549   2.143   7.522   3.157
 9870TIP3   OH229550   6.908   3.676   4.653
 9870TIP3    H129551   6.847   3.611   4.689
 9870TIP3    H229552   6.982   3.625   4.621
 9871TIP3   OH229553   5.087   3.488   5.150
 9871TIP3    H129554   5.061   3.466   5.239
 9871TIP3    H229555   5.181   3.473   5.148
 9872TIP3   OH229556   2.097   6.497   2.693
 9872TIP3    H129557   2.058   6.430   2.748
 9872TIP3    H229558   2.162   6.450   2.640
 9873TIP3   OH229559   6.233   0.550   1.173
 9873TIP3    H129560   6.296   0.481   1.152
 9873TIP3    H229561   6.210   0.588   1.089
 9874TIP3   OH229562   6.568   2.691   6.515
 9874TIP3    H129563   6.474   2.708   6.524
 9874TIP3    H229564   6.607   2.777   6.505
 9875TIP3   OH229565   4.957   4.936   3.187
 9875TIP3    H129566   5.018   4.947   3.114
 9875TIP3    H229567   4.999   4.873   3.244
 9876TIP3   OH229568   3.791   6.152   4.343
 9876TIP3    H129569   3.870   6.143   4.290
 9876TIP3    H229570   3.752   6.064   4.342
 9877TIP3   OH229571   3.070   2.537   1.341
 9877TIP3    H129572   3.119   2.573   1.267
 9877TIP3    H229573   3.117   2.567   1.419
 9878TIP3   OH229574   3.889   5.430   3.134
 9878TIP3    H129575   3.892   5.436   3.039
 9878TIP3    H229576   3.914   5.517   3.165
 9879TIP3   OH229577   3.388   5.355   1.034
 9879TIP3    H129578   3.469   5.307   1.017
 9879TIP3    H229579   3.353   5.316   1.114
 9880TIP3   OH229580   5.280   0.302   4.446
 9880TIP3    H129581   5.204   0.348   4.480
 9880TIP3    H229582   5.296   0.231   4.508
 9881TIP3   OH229583   2.986   0.214   0.549
 9881TIP3    H129584   2.913   0.168   0.507
 9881TIP3    H229585   3.054   0.147   0.558
 9882TIP3   OH229586   0.287   1.354   2.791
 9882TIP3    H129587   0.353   1.423   2.785
 9882TIP3    H229588   0.317   1.286   2.730
 9883TIP3   OH229589   2.493   6.965   3.310
 9883TIP3    H129590   2.444   6.965   3.228
 9883TIP3    H229591   2.431   6.996   3.376
 9884TIP3   OH229592   6.348   5.619   5.566
 9884TIP3    H129593   6.343   5.688   5.499
 9884TIP3    H229594   6.304   5.656   5.642
 9885TIP3   OH229595   7.421   2.521   4.718
 9885TIP3    H129596   7.476   2.506   4.641
 9885TIP3    H229597   7.450   2.455   4.781
 9886TIP3   OH229598   4.640   3.773   0.710
 9886TIP3    H129599   4.679   3.804   0.791
 9886TIP3    H229600   4.588   3.696   0.736
 9887TIP3   OH229601   5.014   1.994   5.429
 9887TIP3    H129602   5.075   1.990   5.502
 9887TIP3    H229603   4.960   1.916   5.439
 9888TIP3   OH229604   4.442   7.067   2.990
 9888TIP3    H129605   4.454   7.158   2.961
 9888TIP3    H229606   4.532   7.034   3.002
 9889TIP3   OH229607   6.256   6.328   5.823
 9889TIP3    H129608   6.198   6.370   5.759
 9889TIP3    H229609   6.214   6.245   5.843
 9890TIP3   OH229610   0.813   3.929   5.219
 9890TIP3    H129611   0.731   3.890   5.249
 9890TIP3    H229612   0.793   3.962   5.132
 9891TIP3   OH229613   6.226   1.065   2.076
 9891TIP3    H129614   6.147   1.060   2.023
 9891TIP3    H229615   6.195   1.077   2.165
 9892TIP3   OH229616   3.688   4.167   4.373
 9892TIP3    H129617   3.594   4.150   4.382
 9892TIP3    H229618   3.728   4.112   4.440
 9893TIP3   OH229619   2.762   4.693   1.544
 9893TIP3    H129620   2.765   4.766   1.482
 9893TIP3    H229621   2.804   4.620   1.497
 9894TIP3   OH229622   2.128   7.156   2.415
 9894TIP3    H129623   2.075   7.219   2.465
 9894TIP3    H229624   2.182   7.113   2.482
 9895TIP3   OH229625   5.524   5.295   4.584
 9895TIP3    H129626   5.475   5.314   4.663
 9895TIP3    H229627   5.460   5.259   4.523
 9896TIP3   OH229628   0.334   5.524   3.718
 9896TIP3    H129629   0.339   5.572   3.800
 9896TIP3    H229630   0.264   5.567   3.669
 9897TIP3   OH229631   3.814   5.715   5.293
 9897TIP3    H129632   3.776   5.704   5.206
 9897TIP3    H229633   3.830   5.809   5.301
 9898TIP3   OH229634   0.241   7.459   3.766
 9898TIP3    H129635   0.324   7.503   3.747
 9898TIP3    H229636   0.174   7.522   3.740
 9899TIP3   OH229637   5.601   1.528   0.898
 9899TIP3    H129638   5.582   1.434   0.906
 9899TIP3    H229639   5.676   1.542   0.955
 9900TIP3   OH229640   2.650   6.158   5.066
 9900TIP3    H129641   2.687   6.203   4.990
 9900TIP3    H229642   2.587   6.219   5.102
 9901TIP3   OH229643   3.948   5.514   2.210
 9901TIP3    H129644   3.929   5.604   2.238
 9901TIP3    H229645   3.938   5.517   2.115
 9902TIP3   OH229646   7.470   6.708   4.661
 9902TIP3    H129647   7.437   6.757   4.586
 9902TIP3    H229648   7.399   6.649   4.685
 9903TIP3   OH229649   0.872   3.611   5.388
 9903TIP3    H129650   0.917   3.571   5.313
 9903TIP3    H229651   0.781   3.581   5.379
 9904TIP3   OH229652   3.236   2.086   0.503
 9904TIP3    H129653   3.170   2.072   0.571
 9904TIP3    H229654   3.215   2.021   0.436
 9905TIP3   OH229655   2.740   0.916   5.461
 9905TIP3    H129656   2.728   0.854   5.533
 9905TIP3    H229657   2.666   0.976   5.468
 9906TIP3   OH229658   2.503   4.639   6.185
 9906TIP3    H129659   2.442   4.594   6.244
 9906TIP3    H229660   2.455   4.647   6.103
 9907TIP3   OH229661   3.378   1.477   6.232
 9907TIP3    H129662   3.310   1.411   6.243
 9907TIP3    H229663   3.409   1.466   6.142
 9908TIP3   OH229664   7.741   2.251   0.147
 9908TIP3    H129665   7.738   2.163   0.111
 9908TIP3    H229666   7.691   2.246   0.229
 9909TIP3   OH229667   8.057   2.809   0.699
 9909TIP3    H129668   8.083   2.718   0.713
 9909TIP3    H229669   8.007   2.808   0.618
 9910TIP3   OH229670   3.983   5.933   1.279
 9910TIP3    H129671   3.971   5.881   1.358
 9910TIP3    H229672   4.061   5.986   1.296
 9911TIP3   OH229673   3.567   0.449   5.974
 9911TIP3    H129674   3.618   0.368   5.979
 9911TIP3    H229675   3.529   0.459   6.061
 9912TIP3   OH229676   4.104   6.662   4.548
 9912TIP3    H129677   4.097   6.634   4.639
 9912TIP3    H229678   4.177   6.724   4.547
 9913TIP3   OH229679   5.245   0.423   3.833
 9913TIP3    H129680   5.189   0.448   3.760
 9913TIP3    H229681   5.198   0.350   3.874
 9914TIP3   OH229682   6.975   2.108   6.403
 9914TIP3    H129683   7.050   2.131   6.349
 9914TIP3    H229684   7.011   2.052   6.473
 9915TIP3   OH229685   4.929   1.818   1.631
 9915TIP3    H129686   4.835   1.834   1.626
 9915TIP3    H229687   4.967   1.872   1.561
 9916TIP3   OH229688   0.753   7.621   4.614
 9916TIP3    H129689   0.686   7.688   4.604
 9916TIP3    H229690   0.814   7.656   4.679
 9917TIP3   OH229691   4.885   1.058   1.759
 9917TIP3    H129692   4.821   0.997   1.796
 9917TIP3    H229693   4.875   1.138   1.811
 9918TIP3   OH229694   2.177   7.148   4.472
 9918TIP3    H129695   2.181   7.127   4.565
 9918TIP3    H229696   2.228   7.079   4.430
 9919TIP3   OH229697   2.382   3.583   3.014
 9919TIP3    H129698   2.298   3.617   2.981
 9919TIP3    H229699   2.401   3.636   3.091
 9920TIP3   OH229700   3.820   0.838   5.375
 9920TIP3    H129701   3.899   0.856   5.324
 9920TIP3    H229702   3.850   0.837   5.466
 9921TIP3   OH229703   2.287   0.596   5.482
 9921TIP3    H129704   2.228   0.641   5.421
 9921TIP3    H229705   2.368   0.646   5.478
 9922TIP3   OH229706   6.436   3.869   4.745
 9922TIP3    H129707   6.351   3.839   4.711
 9922TIP3    H229708   6.422   3.962   4.763
 9923TIP3   OH229709   4.609   2.108   1.448
 9923TIP3    H129710   4.676   2.142   1.389
 9923TIP3    H229711   4.532   2.097   1.393
 9924TIP3   OH229712   6.444   6.464   5.255
 9924TIP3    H129713   6.473   6.461   5.346
 9924TIP3    H229714   6.348   6.467   5.261
 9925TIP3   OH229715   6.584   7.678   6.014
 9925TIP3    H129716   6.620   7.621   6.083
 9925TIP3    H229717   6.611   7.766   6.039
 9926TIP3   OH229718   4.477   1.155   3.651
 9926TIP3    H129719   4.548   1.211   3.620
 9926TIP3    H229720   4.397   1.196   3.618
 9927TIP3   OH229721   1.585   7.746   4.980
 9927TIP3    H129722   1.597   7.696   5.061
 9927TIP3    H229723   1.549   7.830   5.010
 9928TIP3   OH229724   1.328   3.296   5.611
 9928TIP3    H129725   1.271   3.226   5.582
 9928TIP3    H229726   1.382   3.317   5.534
 9929TIP3   OH229727   2.822   1.491   3.798
 9929TIP3    H129728   2.727   1.504   3.806
 9929TIP3    H229729   2.834   1.452   3.711
 9930TIP3   OH229730   6.049   1.510   4.771
 9930TIP3    H129731   6.069   1.513   4.677
 9930TIP3    H229732   5.963   1.550   4.779
 9931TIP3   OH229733   6.627   0.240   2.063
 9931TIP3    H129734   6.576   0.196   2.132
 9931TIP3    H229735   6.602   0.195   1.983
 9932TIP3   OH229736   7.878   0.178   4.717
 9932TIP3    H129737   7.899   0.190   4.809
 9932TIP3    H229738   7.783   0.163   4.716
 9933TIP3   OH229739   3.492   0.384   4.352
 9933TIP3    H129740   3.500   0.441   4.276
 9933TIP3    H229741   3.519   0.438   4.426
 9934TIP3   OH229742   6.493   2.604   4.159
 9934TIP3    H129743   6.446   2.629   4.239
 9934TIP3    H229744   6.552   2.677   4.141
 9935TIP3   OH229745   1.844   4.900   0.385
 9935TIP3    H129746   1.840   4.846   0.465
 9935TIP3    H229747   1.756   4.894   0.348
 9936TIP3   OH229748   0.488   4.034   3.357
 9936TIP3    H129749   0.556   4.034   3.289
 9936TIP3    H229750   0.414   4.080   3.317
 9937TIP3   OH229751   6.428   5.897   4.250
 9937TIP3    H129752   6.428   5.824   4.188
 9937TIP3    H229753   6.519   5.924   4.255
 9938TIP3   OH229754   1.973   5.098   6.205
 9938TIP3    H129755   1.879   5.079   6.208
 9938TIP3    H229756   1.992   5.135   6.291
 9939TIP3   OH229757   0.645   0.220   3.665
 9939TIP3    H129758   0.682   0.262   3.588
 9939TIP3    H229759   0.586   0.285   3.703
 9940TIP3   OH229760   4.020   5.940   6.383
 9940TIP3    H129761   4.066   5.856   6.389
 9940TIP3    H229762   4.023   5.977   6.471
 9941TIP3   OH229763   6.450   5.964   2.948
 9941TIP3    H129764   6.538   5.958   2.986
 9941TIP3    H229765   6.460   6.024   2.874
 9942TIP3   OH229766   3.627   0.642   1.917
 9942TIP3    H129767   3.570   0.669   1.989
 9942TIP3    H229768   3.693   0.710   1.911
 9943TIP3   OH229769   3.283   7.514   0.710
 9943TIP3    H129770   3.196   7.554   0.713
 9943TIP3    H229771   3.335   7.565   0.772
 9944TIP3   OH229772   7.191   0.520   5.441
 9944TIP3    H129773   7.276   0.477   5.451
 9944TIP3    H229774   7.160   0.493   5.355
 9945TIP3   OH229775   3.608   7.814   0.152
 9945TIP3    H129776   3.669   7.809   0.226
 9945TIP3    H229777   3.653   7.869   0.088
 9946TIP3   OH229778   3.309   2.709   3.750
 9946TIP3    H129779   3.383   2.765   3.773
 9946TIP3    H229780   3.345   2.643   3.691
 9947TIP3   OH229781   2.284   5.724   2.297
 9947TIP3    H129782   2.349   5.766   2.353
 9947TIP3    H229783   2.273   5.636   2.334
 9948TIP3   OH229784   5.193   1.129   2.632
 9948TIP3    H129785   5.193   1.218   2.596
 9948TIP3    H229786   5.123   1.084   2.585
 9949TIP3   OH229787   3.220   6.037   6.178
 9949TIP3    H129788   3.144   6.017   6.123
 9949TIP3    H229789   3.260   5.951   6.196
 9950TIP3   OH229790   3.639   5.833   0.977
 9950TIP3    H129791   3.733   5.840   0.994
 9950TIP3    H229792   3.632   5.822   0.882
 9951TIP3   OH229793   5.693   1.171   1.123
 9951TIP3    H129794   5.716   1.096   1.178
 9951TIP3    H229795   5.600   1.186   1.142
 9952TIP3   OH229796   4.924   6.974   0.896
 9952TIP3    H129797   4.932   6.949   0.804
 9952TIP3    H229798   4.850   7.034   0.899
 9953TIP3   OH229799   2.085   1.833   4.002
 9953TIP3    H129800   2.031   1.898   4.048
 9953TIP3    H229801   2.113   1.773   4.071
 9954TIP3   OH229802   6.552   4.855   3.269
 9954TIP3    H129803   6.583   4.864   3.359
 9954TIP3    H229804   6.459   4.876   3.273
 9955TIP3   OH229805   8.227   4.353   3.434
 9955TIP3    H129806   8.144   4.307   3.422
 9955TIP3    H229807   8.223   4.426   3.372
 9956TIP3   OH229808   3.210   3.119   3.753
 9956TIP3    H129809   3.233   3.047   3.694
 9956TIP3    H229810   3.116   3.132   3.739
 9957TIP3   OH229811   8.037   2.192   3.842
 9957TIP3    H129812   7.983   2.207   3.764
 9957TIP3    H229813   8.117   2.153   3.808
 9958TIP3   OH229814   7.142   5.337   0.989
 9958TIP3    H129815   7.067   5.384   1.026
 9958TIP3    H229816   7.218   5.388   1.017
 9959TIP3   OH229817   5.316   4.095   3.165
 9959TIP3    H129818   5.405   4.062   3.154
 9959TIP3    H229819   5.270   4.068   3.086
 9960TIP3   OH229820   1.164   1.504   5.761
 9960TIP3    H129821   1.237   1.468   5.811
 9960TIP3    H229822   1.182   1.598   5.756
 9961TIP3   OH229823   5.437   1.309   0.047
 9961TIP3    H129824   5.382   1.263   0.111
 9961TIP3    H229825   5.474   1.239  -0.007
 9962TIP3   OH229826   7.717   5.873   0.521
 9962TIP3    H129827   7.723   5.779   0.535
 9962TIP3    H229828   7.727   5.884   0.426
 9963TIP3   OH229829   2.868   2.623   5.892
 9963TIP3    H129830   2.847   2.664   5.807
 9963TIP3    H229831   2.783   2.594   5.926
 9964TIP3   OH229832   4.916   1.059   3.060
 9964TIP3    H129833   4.971   1.132   3.031
 9964TIP3    H229834   4.976   1.001   3.107
 9965TIP3   OH229835   7.255   5.778   4.088
 9965TIP3    H129836   7.196   5.808   4.157
 9965TIP3    H229837   7.224   5.690   4.067
 9966TIP3   OH229838   8.292   4.597   6.268
 9966TIP3    H129839   8.276   4.563   6.180
 9966TIP3    H229840   8.208   4.592   6.313
 9967TIP3   OH229841   4.701   4.973   0.026
 9967TIP3    H129842   4.787   4.934   0.037
 9967TIP3    H229843   4.639   4.905   0.052
 9968TIP3   OH229844   1.324   5.607   4.329
 9968TIP3    H129845   1.365   5.568   4.252
 9968TIP3    H229846   1.231   5.611   4.307
 9969TIP3   OH229847   3.358   5.503   6.839
 9969TIP3    H129848   3.402   5.550   6.769
 9969TIP3    H229849   3.316   5.429   6.795
 9970TIP3   OH229850   4.046   7.052   5.155
 9970TIP3    H129851   4.060   7.070   5.062
 9970TIP3    H229852   3.953   7.029   5.162
 9971TIP3   OH229853   6.023   1.400   1.911
 9971TIP3    H129854   6.047   1.318   1.952
 9971TIP3    H229855   5.955   1.437   1.969
 9972TIP3   OH229856   4.000   2.641   2.467
 9972TIP3    H129857   4.046   2.725   2.474
 9972TIP3    H229858   4.066   2.580   2.434
 9973TIP3   OH229859   6.272   0.805   1.989
 9973TIP3    H129860   6.224   0.859   1.926
 9973TIP3    H229861   6.275   0.859   2.068
 9974TIP3   OH229862   8.183   4.410   4.942
 9974TIP3    H129863   8.200   4.490   4.891
 9974TIP3    H229864   8.180   4.440   5.033
 9975TIP3   OH229865   0.677   3.858   5.512
 9975TIP3    H129866   0.639   3.803   5.580
 9975TIP3    H229867   0.750   3.806   5.477
 9976TIP3   OH229868   4.445   2.709   6.614
 9976TIP3    H129869   4.513   2.766   6.651
 9976TIP3    H229870   4.372   2.717   6.675
 9977TIP3   OH229871   5.861   5.538   6.240
 9977TIP3    H129872   5.824   5.521   6.153
 9977TIP3    H229873   5.884   5.451   6.274
 9978TIP3   OH229874   7.628   5.733   2.751
 9978TIP3    H129875   7.672   5.651   2.774
 9978TIP3    H229876   7.632   5.736   2.655
 9979TIP3   OH229877   7.105   3.004   1.686
 9979TIP3    H129878   7.106   2.982   1.593
 9979TIP3    H229879   7.198   3.006   1.711
 9980TIP3   OH229880   1.216   6.355   1.140
 9980TIP3    H129881   1.209   6.297   1.064
 9980TIP3    H229882   1.301   6.397   1.130
 9981TIP3   OH229883   7.007   4.487   6.291
 9981TIP3    H129884   7.072   4.557   6.298
 9981TIP3    H229885   7.023   4.448   6.205
 9982TIP3   OH229886   6.626   6.354   2.055
 9982TIP3    H129887   6.676   6.397   2.124
 9982TIP3    H229888   6.535   6.378   2.073
 9983TIP3   OH229889   3.376   0.542   0.753
 9983TIP3    H129890   3.414   0.605   0.815
 9983TIP3    H229891   3.283   0.539   0.776
 9984TIP3   OH229892   4.596   6.000   0.908
 9984TIP3    H129893   4.550   6.024   0.988
 9984TIP3    H229894   4.687   6.026   0.924
 9985TIP3   OH229895   7.390   4.110   0.409
 9985TIP3    H129896   7.469   4.108   0.356
 9985TIP3    H229897   7.377   4.202   0.432
 9986TIP3   OH229898   6.254   0.997   1.300
 9986TIP3    H129899   6.305   0.976   1.379
 9986TIP3    H229900   6.230   1.089   1.310
 9987TIP3   OH229901   5.279   6.484   0.453
 9987TIP3    H129902   5.331   6.559   0.482
 9987TIP3    H229903   5.314   6.463   0.367
 9988TIP3   OH229904   3.924   3.265   6.330
 9988TIP3    H129905   3.872   3.213   6.391
 9988TIP3    H229906   3.868   3.340   6.309
 9989TIP3   OH229907   2.964   6.519   5.288
 9989TIP3    H129908   2.897   6.450   5.295
 9989TIP3    H229909   2.914   6.598   5.267
 9990TIP3   OH229910   5.638   0.417   1.284
 9990TIP3    H129911   5.711   0.470   1.253
 9990TIP3    H229912   5.655   0.330   1.247
 9991TIP3   OH229913   5.802   2.489   5.678
 9991TIP3    H129914   5.853   2.554   5.630
 9991TIP3    H229915   5.834   2.495   5.768
 9992TIP3   OH229916   7.654   7.157   4.973
 9992TIP3    H129917   7.618   7.081   5.019
 9992TIP3    H229918   7.624   7.147   4.883
 9993TIP3   OH229919   7.861   5.254  -0.014
 9993TIP3    H129920   7.907   5.328   0.025
 9993TIP3    H229921   7.899   5.244  -0.101
 9994TIP3   OH229922   1.929   2.969   1.203
 9994TIP3    H129923   1.908   2.920   1.282
 9994TIP3    H229924   1.845   3.004   1.173
 9995TIP3   OH229925   7.390   3.207   6.586
 9995TIP3    H129926   7.377   3.114   6.571
 9995TIP3    H229927   7.318   3.233   6.644
 9996TIP3   OH229928   7.900   0.777   2.855
 9996TIP3    H129929   7.912   0.783   2.949
 9996TIP3    H229930   7.811   0.808   2.839
 9997TIP3   OH229931   5.918   2.100   5.917
 9997TIP3    H129932   5.953   2.018   5.952
 9997TIP3    H229933   5.845   2.122   5.975
 9998TIP3   OH229934   3.096   4.692   2.703
 9998TIP3    H129935   3.055   4.768   2.660
 9998TIP3    H229936   3.084   4.621   2.640
 9999TIP3   OH229937   0.893   5.709   2.892
 9999TIP3    H129938   0.829   5.688   2.824
 9999TIP3    H229939   0.864   5.657   2.968
10000TIP3   OH229940   6.445   5.521   4.774
10000TIP3    H129941   6.448   5.529   4.869
10000TIP3    H229942   6.452   5.611   4.743
10001TIP3   OH229943   4.601   3.947   1.877
10001TIP3    H129944   4.639   4.028   1.840
10001TIP3    H229945   4.529   3.978   1.932
10002TIP3   OH229946   0.603   0.468   5.950
10002TIP3    H129947   0.531   0.414   5.918
10002TIP3    H229948   0.679   0.410   5.950
10003TIP3   OH229949   4.958   1.220   1.369
10003TIP3    H129950   5.014   1.241   1.443
10003TIP3    H229951   4.920   1.135   1.391
10004TIP3   OH229952   1.649   3.470   5.828
10004TIP3    H129953   1.615   3.382   5.814
10004TIP3    H229954   1.737   3.469   5.791
10005TIP3   OH229955   3.496   2.020   3.922
10005TIP3    H129956   3.435   1.985   3.987
10005TIP3    H229957   3.583   1.996   3.955
10006TIP3   OH229958   3.302   1.957   4.090
10006TIP3    H129959   3.298   1.864   4.113
10006TIP3    H229960   3.217   1.976   4.051
10007TIP3   OH229961   4.384   4.476   6.004
10007TIP3    H129962   4.435   4.475   6.085
10007TIP3    H229963   4.369   4.568   5.986
10008TIP3   OH229964   8.079   6.316   1.044
10008TIP3    H129965   8.038   6.288   0.963
10008TIP3    H229966   8.166   6.276   1.042
10009TIP3   OH229967   2.178   3.017   3.460
10009TIP3    H129968   2.223   3.033   3.376
10009TIP3    H229969   2.196   2.924   3.478
10010TIP3   OH229970   2.507   1.284   0.529
10010TIP3    H129971   2.529   1.242   0.612
10010TIP3    H229972   2.591   1.317   0.496
10011TIP3   OH229973   4.670   6.412   2.527
10011TIP3    H129974   4.639   6.400   2.438
10011TIP3    H229975   4.715   6.496   2.526
10012TIP3   OH229976   5.671   2.404   4.075
10012TIP3    H129977   5.626   2.322   4.093
10012TIP3    H229978   5.709   2.430   4.159
10013TIP3   OH229979   2.267   5.746   1.361
10013TIP3    H129980   2.298   5.801   1.433
10013TIP3    H229981   2.174   5.768   1.352
10014TIP3   OH229982   3.417   6.915   0.112
10014TIP3    H129983   3.357   6.932   0.039
10014TIP3    H229984   3.422   6.998   0.159
10015TIP3   OH229985   1.073   7.104   4.807
10015TIP3    H129986   1.144   7.051   4.771
10015TIP3    H229987   1.115   7.188   4.829
10016TIP3   OH229988   3.550   2.787   0.068
10016TIP3    H129989   3.492   2.813  -0.004
10016TIP3    H229990   3.543   2.859   0.131
10017TIP3   OH229991   2.472   7.479   6.717
10017TIP3    H129992   2.485   7.414   6.786
10017TIP3    H229993   2.480   7.564   6.762
10018TIP3   OH229994   7.118   4.516   2.384
10018TIP3    H129995   7.182   4.475   2.442
10018TIP3    H229996   7.100   4.601   2.423
10019TIP3   OH229997   8.154   3.733   5.820
10019TIP3    H129998   8.107   3.750   5.738
10019TIP3    H229999   8.238   3.697   5.793
10020TIP3   OH230000   8.080   1.458   6.358
10020TIP3    H130001   8.072   1.363   6.362
10020TIP3    H230002   8.127   1.474   6.276
10021TIP3   OH230003   3.028   6.947   1.738
10021TIP3    H130004   2.936   6.942   1.765
10021TIP3    H230005   3.066   6.864   1.768
10022TIP3   OH230006   5.523   1.296   2.162
10022TIP3    H130007   5.574   1.294   2.243
10022TIP3    H230008   5.452   1.358   2.181
10023TIP3   OH230009   7.287   0.929   3.878
10023TIP3    H130010   7.235   0.882   3.813
10023TIP3    H230011   7.258   0.893   3.962
10024TIP3   OH230012   5.129   4.289   4.573
10024TIP3    H130013   5.066   4.235   4.620
10024TIP3    H230014   5.211   4.276   4.620
10025TIP3   OH230015   4.396   2.536   5.845
10025TIP3    H130016   4.430   2.619   5.812
10025TIP3    H230017   4.474   2.481   5.854
10026TIP3   OH230018   4.606  -0.039   4.565
10026TIP3    H130019   4.585   0.042   4.611
10026TIP3    H230020   4.587  -0.020   4.473
10027TIP3   OH230021   2.990   7.534   6.809
10027TIP3    H130022   2.980   7.487   6.726
10027TIP3    H230023   3.045   7.477   6.863
10028TIP3   OH230024   6.063   3.610   3.843
10028TIP3    H130025   6.062   3.668   3.767
10028TIP3    H230026   6.087   3.667   3.916
10029TIP3   OH230027   6.312   3.667   0.310
10029TIP3    H130028   6.375   3.598   0.291
10029TIP3    H230029   6.274   3.641   0.394
10030TIP3   OH230030   3.240   6.237   5.542
10030TIP3    H130031   3.295   6.173   5.587
10030TIP3    H230032   3.238   6.312   5.600
10031TIP3   OH230033   2.540   3.966   6.818
10031TIP3    H130034   2.557   4.047   6.770
10031TIP3    H230035   2.542   3.992   6.910
10032TIP3   OH230036   6.272   2.141   1.111
10032TIP3    H130037   6.259   2.222   1.063
10032TIP3    H230038   6.365   2.123   1.105
10033TIP3   OH230039   7.932   3.688   1.323
10033TIP3    H130040   7.960   3.745   1.395
10033TIP3    H230041   7.941   3.742   1.245
10034TIP3   OH230042   7.743   2.539   2.995
10034TIP3    H130043   7.681   2.605   2.964
10034TIP3    H230044   7.789   2.511   2.917
10035TIP3   OH230045   3.752   3.076   3.142
10035TIP3    H130046   3.750   2.981   3.147
10035TIP3    H230047   3.729   3.105   3.230
10036TIP3   OH230048   1.953   4.506   6.589
10036TIP3    H130049   1.913   4.468   6.510
10036TIP3    H230050   1.993   4.432   6.634
10037TIP3   OH230051   7.786   2.363   4.762
10037TIP3    H130052   7.879   2.380   4.746
10037TIP3    H230053   7.782   2.269   4.780
10038TIP3   OH230054   2.462   2.348   1.064
10038TIP3    H130055   2.370   2.321   1.063
10038TIP3    H230056   2.464   2.428   1.011
10039TIP3   OH230057   0.873   6.449   1.564
10039TIP3    H130058   0.805   6.491   1.510
10039TIP3    H230059   0.954   6.463   1.515
10040TIP3   OH230060   7.193   1.558   3.605
10040TIP3    H130061   7.206   1.636   3.552
10040TIP3    H230062   7.189   1.590   3.695
10041TIP3   OH230063   6.342   2.718   0.551
10041TIP3    H130064   6.328   2.673   0.468
10041TIP3    H230065   6.419   2.773   0.535
10042TIP3   OH230066   3.433   6.537   4.736
10042TIP3    H130067   3.399   6.562   4.651
10042TIP3    H230068   3.450   6.443   4.729
10043TIP3   OH230069   2.052   0.167   2.982
10043TIP3    H130070   2.120   0.176   2.915
10043TIP3    H230071   2.099   0.135   3.059
10044TIP3   OH230072   2.515   1.800   4.560
10044TIP3    H130073   2.492   1.892   4.546
10044TIP3    H230074   2.495   1.785   4.653
10045TIP3   OH230075   5.753   2.219   1.611
10045TIP3    H130076   5.717   2.240   1.525
10045TIP3    H230077   5.831   2.274   1.620
10046TIP3   OH230078   0.357   3.763   4.328
10046TIP3    H130079   0.417   3.688   4.323
10046TIP3    H230080   0.403   3.833   4.283
10047TIP3   OH230081   6.461   5.934   0.316
10047TIP3    H130082   6.471   5.878   0.239
10047TIP3    H230083   6.494   6.020   0.287
10048TIP3   OH230084   1.188   4.472   6.669
10048TIP3    H130085   1.123   4.426   6.616
10048TIP3    H230086   1.251   4.505   6.605
10049TIP3   OH230087   3.618   3.338   0.201
10049TIP3    H130088   3.699   3.382   0.174
10049TIP3    H230089   3.614   3.351   0.295
10050TIP3   OH230090   5.095   0.284   5.808
10050TIP3    H130091   5.029   0.349   5.832
10050TIP3    H230092   5.055   0.235   5.736
10051TIP3   OH230093   4.645   6.214   5.220
10051TIP3    H130094   4.583   6.152   5.183
10051TIP3    H230095   4.604   6.244   5.300
10052TIP3   OH230096   8.319   7.325   3.200
10052TIP3    H130097   8.286   7.414   3.212
10052TIP3    H230098   8.365   7.327   3.116
10053TIP3   OH230099   2.852   3.728   2.622
10053TIP3    H130100   2.824   3.772   2.542
10053TIP3    H230101   2.790   3.657   2.634
10054TIP3   OH230102   2.292   4.040   1.819
10054TIP3    H130103   2.261   4.004   1.903
10054TIP3    H230104   2.229   4.109   1.798
10055TIP3   OH230105   4.626   5.851   0.509
10055TIP3    H130106   4.718   5.874   0.494
10055TIP3    H230107   4.577   5.918   0.460
10056TIP3   OH230108   6.388   1.972   5.522
10056TIP3    H130109   6.475   1.975   5.561
10056TIP3    H230110   6.405   1.963   5.428
10057TIP3   OH230111   7.646   5.831   3.483
10057TIP3    H130112   7.672   5.755   3.431
10057TIP3    H230113   7.550   5.828   3.483
10058TIP3   OH230114   3.017   5.323   1.150
10058TIP3    H130115   3.066   5.386   1.098
10058TIP3    H230116   3.015   5.244   1.095
10059TIP3   OH230117   5.312   3.296   6.325
10059TIP3    H130118   5.309   3.294   6.229
10059TIP3    H230119   5.402   3.269   6.346
10060TIP3   OH230120   5.170   2.665   2.304
10060TIP3    H130121   5.132   2.585   2.267
10060TIP3    H230122   5.172   2.726   2.230
10061TIP3   OH230123   3.295   5.259   4.570
10061TIP3    H130124   3.298   5.217   4.483
10061TIP3    H230125   3.382   5.244   4.606
10062TIP3   OH230126   3.823   1.317   1.697
10062TIP3    H130127   3.797   1.225   1.694
10062TIP3    H230128   3.916   1.316   1.717
10063TIP3   OH230129   2.042   4.269   4.028
10063TIP3    H130130   1.980   4.198   4.042
10063TIP3    H230131   2.078   4.287   4.115
10064TIP3   OH230132   0.319   7.224   5.954
10064TIP3    H130133   0.355   7.279   5.884
10064TIP3    H230134   0.225   7.221   5.936
10065TIP3   OH230135   0.584   4.172   0.877
10065TIP3    H130136   0.625   4.231   0.815
10065TIP3    H230137   0.493   4.202   0.883
10066TIP3   OH230138   5.723   5.119   4.660
10066TIP3    H130139   5.791   5.139   4.724
10066TIP3    H230140   5.672   5.200   4.653
10067TIP3   OH230141   6.173   1.847   2.197
10067TIP3    H130142   6.231   1.868   2.124
10067TIP3    H230143   6.156   1.753   2.187
10068TIP3   OH230144   1.401   3.882   5.399
10068TIP3    H130145   1.370   3.801   5.440
10068TIP3    H230146   1.437   3.854   5.315
10069TIP3   OH230147   1.869   0.984   5.356
10069TIP3    H130148   1.930   0.990   5.283
10069TIP3    H230149   1.921   0.951   5.429
10070TIP3   OH230150   5.566   7.559   0.571
10070TIP3    H130151   5.525   7.488   0.521
10070TIP3    H230152   5.562   7.635   0.513
10071TIP3   OH230153   4.285   2.503   6.102
10071TIP3    H130154   4.321   2.566   6.039
10071TIP3    H230155   4.306   2.540   6.188
10072TIP3   OH230156   7.593   5.362   0.748
10072TIP3    H130157   7.501   5.337   0.757
10072TIP3    H230158   7.629   5.300   0.685
10073TIP3   OH230159   5.766   6.722   6.248
10073TIP3    H130160   5.701   6.778   6.292
10073TIP3    H230161   5.837   6.713   6.312
10074TIP3   OH230162   4.313   7.146   2.120
10074TIP3    H130163   4.368   7.087   2.170
10074TIP3    H230164   4.314   7.228   2.169
10075TIP3   OH230165   3.119   6.745   3.276
10075TIP3    H130166   3.123   6.693   3.195
10075TIP3    H230167   3.106   6.680   3.345
10076TIP3   OH230168   5.693   5.139   1.774
10076TIP3    H130169   5.709   5.095   1.858
10076TIP3    H230170   5.747   5.093   1.711
10077TIP3   OH230171   3.918   2.491   4.244
10077TIP3    H130172   3.912   2.495   4.339
10077TIP3    H230173   3.886   2.404   4.221
10078TIP3   OH230174   6.971   7.359   4.150
10078TIP3    H130175   6.902   7.292   4.147
10078TIP3    H230176   7.051   7.310   4.132
10079TIP3   OH230177   0.341   3.472   1.663
10079TIP3    H130178   0.357   3.388   1.707
10079TIP3    H230179   0.351   3.452   1.570
10080TIP3   OH230180   0.859   0.570   3.716
10080TIP3    H130181   0.840   0.608   3.802
10080TIP3    H230182   0.880   0.479   3.735
10081TIP3   OH230183   6.150   3.896   0.425
10081TIP3    H130184   6.092   3.841   0.479
10081TIP3    H230185   6.210   3.936   0.487
10082TIP3   OH230186   6.752   3.238   3.897
10082TIP3    H130187   6.782   3.240   3.988
10082TIP3    H230188   6.735   3.145   3.880
10083TIP3   OH230189   1.448   6.348   6.299
10083TIP3    H130190   1.368   6.327   6.251
10083TIP3    H230191   1.428   6.431   6.343
10084TIP3   OH230192   1.090   3.224   0.731
10084TIP3    H130193   1.159   3.288   0.747
10084TIP3    H230194   1.009   3.274   0.733
10085TIP3   OH230195   5.392   5.513   1.902
10085TIP3    H130196   5.468   5.485   1.851
10085TIP3    H230197   5.397   5.461   1.983
10086TIP3   OH230198   7.365   3.232   1.609
10086TIP3    H130199   7.446   3.278   1.632
10086TIP3    H230200   7.298   3.272   1.665
10087TIP3   OH230201   0.046   2.038   1.928
10087TIP3    H130202   0.026   2.124   1.892
10087TIP3    H230203   0.056   2.053   2.022
10088TIP3   OH230204   0.596   4.822   6.291
10088TIP3    H130205   0.595   4.737   6.247
10088TIP3    H230206   0.555   4.882   6.228
10089TIP3   OH230207   6.527   5.156   3.890
10089TIP3    H130208   6.577   5.232   3.920
10089TIP3    H230209   6.593   5.100   3.848
10090TIP3   OH230210   0.615   5.030   4.178
10090TIP3    H130211   0.710   5.018   4.183
10090TIP3    H230212   0.596   5.029   4.084
10091TIP3   OH230213   5.412   3.216   6.733
10091TIP3    H130214   5.363   3.266   6.798
10091TIP3    H230215   5.347   3.195   6.665
10092TIP3   OH230216   0.605   0.615   0.150
10092TIP3    H130217   0.686   0.628   0.201
10092TIP3    H230218   0.596   0.695   0.099
10093TIP3   OH230219   5.410   4.967   0.434
10093TIP3    H130220   5.488   5.020   0.450
10093TIP3    H230221   5.344   5.002   0.494
10094TIP3   OH230222   3.703   0.453   4.610
10094TIP3    H130223   3.798   0.463   4.611
10094TIP3    H230224   3.689   0.363   4.579
10095TIP3   OH230225   4.349   1.119   5.684
10095TIP3    H130226   4.287   1.071   5.628
10095TIP3    H230227   4.333   1.086   5.772
10096TIP3   OH230228   0.903   5.451   3.357
10096TIP3    H130229   0.824   5.396   3.356
10096TIP3    H230230   0.922   5.467   3.265
10097TIP3   OH230231   5.982   2.115   0.160
10097TIP3    H130232   6.066   2.078   0.131
10097TIP3    H230233   5.936   2.137   0.079
10098TIP3   OH230234   1.072   2.933   4.192
10098TIP3    H130235   1.117   3.017   4.199
10098TIP3    H230236   1.142   2.869   4.176
10099TIP3   OH230237   0.652   6.475   3.782
10099TIP3    H130238   0.738   6.443   3.755
10099TIP3    H230239   0.592   6.439   3.716
10100TIP3   OH230240   5.156   3.430   1.538
10100TIP3    H130241   5.192   3.499   1.593
10100TIP3    H230242   5.159   3.466   1.449
10101TIP3   OH230243   6.379   1.806   6.836
10101TIP3    H130244   6.353   1.757   6.914
10101TIP3    H230245   6.474   1.806   6.838
10102TIP3   OH230246   3.829   3.059   0.628
10102TIP3    H130247   3.882   3.020   0.559
10102TIP3    H230248   3.796   2.984   0.678
10103TIP3   OH230249   1.766   0.419   5.245
10103TIP3    H130250   1.796   0.337   5.205
10103TIP3    H230251   1.843   0.452   5.291
10104TIP3   OH230252   8.138   5.222   0.276
10104TIP3    H130253   8.171   5.223   0.366
10104TIP3    H230254   8.124   5.314   0.255
10105TIP3   OH230255   3.921   7.869   1.423
10105TIP3    H130256   3.948   7.825   1.342
10105TIP3    H230257   3.888   7.798   1.479
10106TIP3   OH230258   2.058   7.759   3.970
10106TIP3    H130259   2.106   7.680   3.994
10106TIP3    H230260   2.050   7.808   4.052
10107TIP3   OH230261   1.761   3.782   5.919
10107TIP3    H130262   1.802   3.747   5.840
10107TIP3    H230263   1.752   3.706   5.976
10108TIP3   OH230264   3.339   5.216   6.281
10108TIP3    H130265   3.290   5.266   6.216
10108TIP3    H230266   3.355   5.279   6.352
10109TIP3   OH230267   7.281   0.221   3.318
10109TIP3    H130268   7.331   0.278   3.258
10109TIP3    H230269   7.222   0.173   3.260
10110TIP3   OH230270   2.708   2.114   1.701
10110TIP3    H130271   2.613   2.124   1.691
10110TIP3    H230272   2.735   2.194   1.747
10111TIP3   OH230273   7.211   5.945   5.591
10111TIP3    H130274   7.216   5.850   5.593
10111TIP3    H230275   7.274   5.972   5.524
10112TIP3   OH230276   4.135   2.290   2.102
10112TIP3    H130277   4.206   2.296   2.038
10112TIP3    H230278   4.100   2.201   2.091
10113TIP3   OH230279   0.851   6.795   4.962
10113TIP3    H130280   0.767   6.836   4.943
10113TIP3    H230281   0.835   6.701   4.953
10114TIP3   OH230282   7.998   3.987   4.346
10114TIP3    H130283   8.023   4.076   4.371
10114TIP3    H230284   7.902   3.988   4.347
10115TIP3   OH230285   4.721   4.215   4.112
10115TIP3    H130286   4.692   4.224   4.203
10115TIP3    H230287   4.814   4.236   4.114
10116TIP3   OH230288   7.260   1.619   0.238
10116TIP3    H130289   7.214   1.689   0.192
10116TIP3    H230290   7.212   1.540   0.216
10117TIP3   OH230291   0.031   3.765   2.534
10117TIP3    H130292   0.042   3.672   2.514
10117TIP3    H230293   0.120   3.796   2.553
10118TIP3   OH230294   5.291   0.500   3.398
10118TIP3    H130295   5.207   0.494   3.444
10118TIP3    H230296   5.339   0.422   3.427
10119TIP3   OH230297   5.960   3.426   0.318
10119TIP3    H130298   5.988   3.513   0.288
10119TIP3    H230299   5.982   3.367   0.246
10120TIP3   OH230300   1.333   6.023   1.364
10120TIP3    H130301   1.358   5.973   1.442
10120TIP3    H230302   1.255   6.072   1.391
10121TIP3   OH230303   4.520   2.764   4.018
10121TIP3    H130304   4.563   2.680   4.034
10121TIP3    H230305   4.475   2.784   4.100
10122TIP3   OH230306   4.742   7.284   1.993
10122TIP3    H130307   4.808   7.246   2.049
10122TIP3    H230308   4.709   7.211   1.940
10123TIP3   OH230309   0.100   4.106   4.060
10123TIP3    H130310   0.075   4.087   3.969
10123TIP3    H230311   0.188   4.144   4.052
10124TIP3   OH230312   1.995   2.200   4.351
10124TIP3    H130313   1.900   2.200   4.366
10124TIP3    H230314   2.013   2.113   4.315
10125TIP3   OH230315   5.985   3.237   6.690
10125TIP3    H130316   6.018   3.150   6.710
10125TIP3    H230317   5.891   3.231   6.706
10126TIP3   OH230318   5.397   6.247   5.309
10126TIP3    H130319   5.481   6.270   5.269
10126TIP3    H230320   5.354   6.332   5.324
10127TIP3   OH230321   8.270   3.023   3.389
10127TIP3    H130322   8.212   2.963   3.437
10127TIP3    H230323   8.258   2.999   3.297
10128TIP3   OH230324   1.107   7.344   5.543
10128TIP3    H130325   1.057   7.424   5.559
10128TIP3    H230326   1.198   7.374   5.534
10129TIP3   OH230327   2.342   7.280   3.392
10129TIP3    H130328   2.323   7.206   3.448
10129TIP3    H230329   2.437   7.275   3.376
10130TIP3   OH230330   1.755   5.763   6.302
10130TIP3    H130331   1.844   5.749   6.334
10130TIP3    H230332   1.707   5.797   6.377
10131TIP3   OH230333   2.168   4.316   6.430
10131TIP3    H130334   2.076   4.321   6.406
10131TIP3    H230335   2.169   4.309   6.525
10132TIP3   OH230336   4.581   2.198   3.386
10132TIP3    H130337   4.642   2.257   3.430
10132TIP3    H230338   4.628   2.169   3.308
10133TIP3   OH230339   1.572   3.779   1.857
10133TIP3    H130340   1.656   3.816   1.886
10133TIP3    H230341   1.543   3.726   1.931
10134TIP3   OH230342   7.014   7.455   0.864
10134TIP3    H130343   6.946   7.513   0.898
10134TIP3    H230344   7.011   7.468   0.769
10135TIP3   OH230345   5.135   5.063   6.620
10135TIP3    H130346   5.195   5.035   6.688
10135TIP3    H230347   5.106   4.982   6.577
10136TIP3   OH230348   6.678   1.406   3.059
10136TIP3    H130349   6.612   1.338   3.047
10136TIP3    H230350   6.684   1.449   2.973
10137TIP3   OH230351   2.923   4.845   5.528
10137TIP3    H130352   2.971   4.764   5.513
10137TIP3    H230353   2.876   4.861   5.446
10138TIP3   OH230354   1.402   4.019   2.332
10138TIP3    H130355   1.478   4.017   2.391
10138TIP3    H230356   1.428   4.081   2.263
10139TIP3   OH230357   0.563   3.442   5.003
10139TIP3    H130358   0.483   3.389   5.000
10139TIP3    H230359   0.572   3.478   4.915
10140TIP3   OH230360   0.360   3.089   1.246
10140TIP3    H130361   0.435   3.063   1.298
10140TIP3    H230362   0.284   3.059   1.296
10141TIP3   OH230363   7.586   6.620   2.153
10141TIP3    H130364   7.657   6.650   2.095
10141TIP3    H230365   7.628   6.611   2.238
10142TIP3   OH230366   0.222   6.368   6.437
10142TIP3    H130367   0.135   6.340   6.466
10142TIP3    H230368   0.205   6.435   6.371
10143TIP3   OH230369   5.262   3.518   6.592
10143TIP3    H130370   5.280   3.433   6.551
10143TIP3    H230371   5.167   3.518   6.606
10144TIP3   OH230372   0.975   2.113   6.235
10144TIP3    H130373   0.922   2.192   6.249
10144TIP3    H230374   1.049   2.143   6.182
10145TIP3   OH230375   2.646   0.738   5.948
10145TIP3    H130376   2.665   0.646   5.962
10145TIP3    H230377   2.591   0.764   6.022
10146TIP3   OH230378   5.749   1.359   2.900
10146TIP3    H130379   5.709   1.278   2.867
10146TIP3    H230380   5.759   1.344   2.994
10147TIP3   OH230381   3.297   6.333   6.401
10147TIP3    H130382   3.296   6.323   6.306
10147TIP3    H230383   3.267   6.249   6.435
10148TIP3   OH230384   5.348   0.734   6.338
10148TIP3    H130385   5.317   0.696   6.256
10148TIP3    H230386   5.420   0.678   6.365
10149TIP3   OH230387   7.756   3.100   2.465
10149TIP3    H130388   7.800   3.171   2.417
10149TIP3    H230389   7.791   3.108   2.554
10150TIP3   OH230390   2.995   0.583   4.317
10150TIP3    H130391   3.073   0.630   4.286
10150TIP3    H230392   2.981   0.617   4.405
10151TIP3   OH230393   2.569   5.545   0.907
10151TIP3    H130394   2.662   5.563   0.920
10151TIP3    H230395   2.553   5.565   0.815
10152TIP3   OH230396   0.862   6.180   3.744
10152TIP3    H130397   0.867   6.210   3.653
10152TIP3    H230398   0.954   6.170   3.771
10153TIP3   OH230399   0.656   7.364   4.909
10153TIP3    H130400   0.565   7.352   4.938
10153TIP3    H230401   0.676   7.283   4.861
10154TIP3   OH230402   8.127   5.086   1.942
10154TIP3    H130403   8.202   5.034   1.970
10154TIP3    H230404   8.051   5.037   1.974
10155TIP3   OH230405   0.433   4.552   5.563
10155TIP3    H130406   0.381   4.472   5.560
10155TIP3    H230407   0.513   4.531   5.515
10156TIP3   OH230408   7.263   4.699   1.613
10156TIP3    H130409   7.193   4.645   1.575
10156TIP3    H230410   7.226   4.730   1.696
10157TIP3   OH230411   5.421   3.793   0.428
10157TIP3    H130412   5.362   3.765   0.499
10157TIP3    H230413   5.431   3.716   0.373
10158TIP3   OH230414   0.836   0.473   2.240
10158TIP3    H130415   0.821   0.511   2.327
10158TIP3    H230416   0.908   0.525   2.203
10159TIP3   OH230417   1.989   5.036   3.227
10159TIP3    H130418   1.908   5.088   3.232
10159TIP3    H230419   2.009   5.032   3.134
10160TIP3   OH230420   4.141   2.290   2.650
10160TIP3    H130421   4.220   2.271   2.701
10160TIP3    H230422   4.166   2.276   2.559
10161TIP3   OH230423   7.627   2.228   5.101
10161TIP3    H130424   7.661   2.296   5.158
10161TIP3    H230425   7.548   2.265   5.063
10162TIP3   OH230426   3.695   6.377   4.469
10162TIP3    H130427   3.720   6.291   4.435
10162TIP3    H230428   3.637   6.358   4.543
10163TIP3   OH230429   7.519   5.398   1.638
10163TIP3    H130430   7.483   5.486   1.628
10163TIP3    H230431   7.449   5.349   1.681
10164TIP3   OH230432   3.982   7.283   4.177
10164TIP3    H130433   3.963   7.275   4.271
10164TIP3    H230434   3.921   7.222   4.135
10165TIP3   OH230435   7.012   3.172   4.646
10165TIP3    H130436   7.104   3.181   4.623
10165TIP3    H230437   7.000   3.079   4.662
10166TIP3   OH230438   0.184   1.669   4.051
10166TIP3    H130439   0.108   1.657   4.108
10166TIP3    H230440   0.255   1.626   4.098
10167TIP3   OH230441   0.873   4.249   1.837
10167TIP3    H130442   0.871   4.215   1.927
10167TIP3    H230443   0.956   4.216   1.802
10168TIP3   OH230444   5.640   2.098   3.360
10168TIP3    H130445   5.622   2.096   3.266
10168TIP3    H230446   5.733   2.077   3.367
10169TIP3   OH230447   5.807   7.552   4.500
10169TIP3    H130448   5.876   7.506   4.548
10169TIP3    H230449   5.752   7.483   4.464
10170TIP3   OH230450   1.409   6.980   1.696
10170TIP3    H130451   1.425   7.061   1.649
10170TIP3    H230452   1.365   6.923   1.633
10171TIP3   OH230453   0.152   1.015   2.960
10171TIP3    H130454   0.197   0.930   2.953
10171TIP3    H230455   0.197   1.060   3.031
10172TIP3   OH230456   3.193   3.877   2.833
10172TIP3    H130457   3.184   3.798   2.885
10172TIP3    H230458   3.108   3.886   2.788
10173TIP3   OH230459   3.133   0.444   0.513
10173TIP3    H130460   3.112   0.477   0.601
10173TIP3    H230461   3.089   0.359   0.509
10174TIP3   OH230462   6.868   6.405   3.261
10174TIP3    H130463   6.833   6.450   3.184
10174TIP3    H230464   6.949   6.365   3.231
10175TIP3   OH230465   1.516   2.259   0.614
10175TIP3    H130466   1.455   2.316   0.567
10175TIP3    H230467   1.585   2.240   0.550
10176TIP3   OH230468   0.168   5.472   4.048
10176TIP3    H130469   0.187   5.534   3.977
10176TIP3    H230470   0.092   5.510   4.093
10177TIP3   OH230471   4.842   5.691   6.562
10177TIP3    H130472   4.785   5.622   6.527
10177TIP3    H230473   4.904   5.645   6.618
10178TIP3   OH230474   5.117   1.565   6.177
10178TIP3    H130475   5.134   1.474   6.201
10178TIP3    H230476   5.159   1.576   6.092
10179TIP3   OH230477   4.989   0.406   2.930
10179TIP3    H130478   4.934   0.359   2.867
10179TIP3    H230479   5.076   0.408   2.890
10180TIP3   OH230480   1.655   5.597   3.147
10180TIP3    H130481   1.609   5.612   3.064
10180TIP3    H230482   1.611   5.521   3.185
10181TIP3   OH230483   1.706   7.116   0.281
10181TIP3    H130484   1.732   7.077   0.197
10181TIP3    H230485   1.613   7.097   0.288
10182TIP3   OH230486   6.947   6.212   1.088
10182TIP3    H130487   6.892   6.137   1.068
10182TIP3    H230488   6.885   6.285   1.099
10183TIP3   OH230489   5.732   0.052   4.782
10183TIP3    H130490   5.696   0.068   4.870
10183TIP3    H230491   5.745   0.140   4.746
10184TIP3   OH230492   1.992   0.348   0.468
10184TIP3    H130493   1.933   0.357   0.542
10184TIP3    H230494   2.052   0.423   0.476
10185TIP3   OH230495   5.056   0.493   0.952
10185TIP3    H130496   5.125   0.429   0.967
10185TIP3    H230497   4.999   0.452   0.887
10186TIP3   OH230498   2.438   0.273   4.846
10186TIP3    H130499   2.376   0.323   4.900
10186TIP3    H230500   2.524   0.294   4.882
10187TIP3   OH230501   8.124   3.822   2.047
10187TIP3    H130502   8.036   3.860   2.046
10187TIP3    H230503   8.123   3.759   2.119
10188TIP3   OH230504   5.669   2.114   4.137
10188TIP3    H130505   5.675   2.053   4.064
10188TIP3    H230506   5.679   2.059   4.215
10189TIP3   OH230507   6.034   0.124   3.445
10189TIP3    H130508   5.965   0.176   3.405
10189TIP3    H230509   6.048   0.165   3.531
10190TIP3   OH230510   3.396   5.119   5.295
10190TIP3    H130511   3.379   5.095   5.204
10190TIP3    H230512   3.344   5.056   5.346
10191TIP3   OH230513   6.267   7.563   0.972
10191TIP3    H130514   6.216   7.616   1.033
10191TIP3    H230515   6.237   7.590   0.885
10192TIP3   OH230516   4.184   2.448   2.340
10192TIP3    H130517   4.276   2.473   2.352
10192TIP3    H230518   4.182   2.404   2.255
10193TIP3   OH230519   7.782   0.128   3.571
10193TIP3    H130520   7.855   0.182   3.541
10193TIP3    H230521   7.714   0.141   3.506
10194TIP3   OH230522   3.710   5.710   5.035
10194TIP3    H130523   3.763   5.659   4.974
10194TIP3    H230524   3.654   5.764   4.979
10195TIP3   OH230525   7.886   4.495   1.493
10195TIP3    H130526   7.968   4.473   1.450
10195TIP3    H230527   7.910   4.510   1.585
10196TIP3   OH230528   6.132   5.477   6.553
10196TIP3    H130529   6.129   5.530   6.473
10196TIP3    H230530   6.225   5.456   6.563
10197TIP3   OH230531   8.142   3.148   5.136
10197TIP3    H130532   8.182   3.223   5.092
10197TIP3    H230533   8.174   3.153   5.226
10198TIP3   OH230534   2.628   2.064   2.209
10198TIP3    H130535   2.685   2.080   2.285
10198TIP3    H230536   2.582   1.983   2.230
10199TIP3   OH230537   1.106   7.680   2.597
10199TIP3    H130538   1.059   7.759   2.570
10199TIP3    H230539   1.078   7.665   2.687
10200TIP3   OH230540   4.393   1.211   4.597
10200TIP3    H130541   4.377   1.183   4.508
10200TIP3    H230542   4.448   1.142   4.635
10201TIP3   OH230543   2.272   3.299   0.856
10201TIP3    H130544   2.363   3.312   0.828
10201TIP3    H230545   2.230   3.254   0.783
10202TIP3   OH230546   3.921   3.555   1.798
10202TIP3    H130547   3.919   3.637   1.848
10202TIP3    H230548   3.863   3.570   1.724
10203TIP3   OH230549   1.071   7.662   3.472
10203TIP3    H130550   1.010   7.594   3.444
10203TIP3    H230551   1.042   7.740   3.426
10204TIP3   OH230552   5.141   1.906   1.101
10204TIP3    H130553   5.136   1.998   1.124
10204TIP3    H230554   5.085   1.897   1.024
10205TIP3   OH230555   5.063   4.858   5.354
10205TIP3    H130556   5.029   4.771   5.375
10205TIP3    H230557   5.038   4.872   5.262
10206TIP3   OH230558   6.250   5.164   4.735
10206TIP3    H130559   6.218   5.096   4.794
10206TIP3    H230560   6.309   5.216   4.789
10207TIP3   OH230561   7.177   5.066   1.900
10207TIP3    H130562   7.265   5.034   1.917
10207TIP3    H230563   7.131   4.990   1.863
10208TIP3   OH230564   2.888   5.882   5.782
10208TIP3    H130565   2.803   5.921   5.803
10208TIP3    H230566   2.951   5.953   5.792
10209TIP3   OH230567   0.549   1.513   1.383
10209TIP3    H130568   0.550   1.418   1.368
10209TIP3    H230569   0.528   1.551   1.298
10210TIP3   OH230570   0.913   1.575   5.143
10210TIP3    H130571   0.907   1.612   5.231
10210TIP3    H230572   0.874   1.488   5.151
10211TIP3   OH230573   7.083   7.049   4.013
10211TIP3    H130574   7.046   6.993   4.081
10211TIP3    H230575   7.050   7.012   3.931
10212TIP3   OH230576   2.192   5.506   2.027
10212TIP3    H130577   2.243   5.587   2.025
10212TIP3    H230578   2.195   5.473   1.937
10213TIP3   OH230579   3.173   3.520   4.230
10213TIP3    H130580   3.247   3.556   4.182
10213TIP3    H230581   3.182   3.556   4.318
10214TIP3   OH230582   5.537   2.777   3.658
10214TIP3    H130583   5.522   2.705   3.720
10214TIP3    H230584   5.506   2.855   3.704
10215TIP3   OH230585   4.745   2.740   1.763
10215TIP3    H130586   4.727   2.829   1.794
10215TIP3    H230587   4.704   2.735   1.677
10216TIP3   OH230588   2.984   4.294   3.621
10216TIP3    H130589   2.929   4.373   3.618
10216TIP3    H230590   2.947   4.237   3.554
10217TIP3   OH230591   0.963   0.855   5.311
10217TIP3    H130592   0.870   0.833   5.303
10217TIP3    H230593   0.969   0.944   5.277
10218TIP3   OH230594   7.568   6.588   2.517
10218TIP3    H130595   7.526   6.552   2.595
10218TIP3    H230596   7.660   6.600   2.542
10219TIP3   OH230597   5.695   1.432   6.253
10219TIP3    H130598   5.771   1.459   6.202
10219TIP3    H230599   5.664   1.512   6.295
10220TIP3   OH230600   7.947   2.669   6.065
10220TIP3    H130601   7.948   2.583   6.022
10220TIP3    H230602   8.038   2.686   6.087
10221TIP3   OH230603   4.272   0.167   3.454
10221TIP3    H130604   4.333   0.236   3.427
10221TIP3    H230605   4.237   0.197   3.538
10222TIP3   OH230606   7.507   3.340   0.290
10222TIP3    H130607   7.478   3.339   0.198
10222TIP3    H230608   7.600   3.318   0.286
10223TIP3   OH230609   5.500   2.862   2.806
10223TIP3    H130610   5.458   2.842   2.722
10223TIP3    H230611   5.589   2.828   2.797
10224TIP3   OH230612   5.600   7.080   3.422
10224TIP3    H130613   5.692   7.054   3.415
10224TIP3    H230614   5.556   7.030   3.354
10225TIP3   OH230615   2.183   2.866   2.762
10225TIP3    H130616   2.268   2.844   2.724
10225TIP3    H230617   2.127   2.791   2.741
10226TIP3   OH230618   5.731   4.362   0.751
10226TIP3    H130619   5.822   4.337   0.766
10226TIP3    H230620   5.681   4.307   0.810
10227TIP3   OH230621   2.043   0.384   5.707
10227TIP3    H130622   2.053   0.407   5.799
10227TIP3    H230623   2.047   0.289   5.705
10228TIP3   OH230624   1.525   0.558   1.273
10228TIP3    H130625   1.478   0.641   1.279
10228TIP3    H230626   1.514   0.519   1.360
10229TIP3   OH230627   6.524   6.899   6.134
10229TIP3    H130628   6.430   6.888   6.143
10229TIP3    H230629   6.560   6.862   6.215
10230TIP3   OH230630   7.696   3.716   3.870
10230TIP3    H130631   7.692   3.620   3.866
10230TIP3    H230632   7.779   3.734   3.913
10231TIP3   OH230633   0.177   0.867   0.371
10231TIP3    H130634   0.204   0.896   0.284
10231TIP3    H230635   0.144   0.778   0.357
10232TIP3   OH230636   7.731   7.714   2.007
10232TIP3    H130637   7.727   7.741   1.915
10232TIP3    H230638   7.722   7.795   2.057
10233TIP3   OH230639   2.063   1.561   5.320
10233TIP3    H130640   2.069   1.563   5.416
10233TIP3    H230641   2.085   1.471   5.296
10234TIP3   OH230642   6.279   6.627   3.550
10234TIP3    H130643   6.362   6.581   3.559
10234TIP3    H230644   6.212   6.559   3.555
10235TIP3   OH230645   0.677   5.170   6.015
10235TIP3    H130646   0.642   5.089   6.051
10235TIP3    H230647   0.726   5.143   5.937
10236TIP3   OH230648   5.997   4.270   0.781
10236TIP3    H130649   6.046   4.268   0.698
10236TIP3    H230650   6.064   4.280   0.848
10237TIP3   OH230651   4.966   4.844   5.072
10237TIP3    H130652   5.001   4.931   5.055
10237TIP3    H230653   5.023   4.785   5.021
10238TIP3   OH230654   5.258   7.310   4.951
10238TIP3    H130655   5.322   7.239   4.961
10238TIP3    H230656   5.286   7.376   5.015
10239TIP3   OH230657   5.651   0.171   3.524
10239TIP3    H130658   5.660   0.077   3.543
10239TIP3    H230659   5.730   0.193   3.475
10240TIP3   OH230660   0.980   6.867   1.712
10240TIP3    H130661   1.067   6.829   1.700
10240TIP3    H230662   0.919   6.794   1.697
10241TIP3   OH230663   2.356   3.495   1.512
10241TIP3    H130664   2.262   3.487   1.495
10241TIP3    H230665   2.383   3.408   1.542
10242TIP3   OH230666   1.117   6.700   1.209
10242TIP3    H130667   1.051   6.721   1.143
10242TIP3    H230668   1.077   6.723   1.292
10243TIP3   OH230669   6.516   5.093   4.604
10243TIP3    H130670   6.446   5.028   4.606
10243TIP3    H230671   6.472   5.177   4.600
10244TIP3   OH230672   1.732   0.644   1.878
10244TIP3    H130673   1.749   0.564   1.927
10244TIP3    H230674   1.654   0.625   1.826
10245TIP3   OH230675   6.649   6.102   5.083
10245TIP3    H130676   6.711   6.058   5.141
10245TIP3    H230677   6.699   6.120   5.004
10246TIP3   OH230678   1.714   3.262   5.109
10246TIP3    H130679   1.767   3.211   5.171
10246TIP3    H230680   1.638   3.207   5.093
10247TIP3   OH230681   6.092   1.101   2.331
10247TIP3    H130682   6.054   1.078   2.416
10247TIP3    H230683   6.161   1.164   2.352
10248TIP3   OH230684   8.013   0.197   4.478
10248TIP3    H130685   7.954   0.140   4.429
10248TIP3    H230686   7.967   0.216   4.560
10249TIP3   OH230687   0.998   6.098   2.267
10249TIP3    H130688   0.912   6.069   2.235
10249TIP3    H230689   1.049   6.114   2.188
10250TIP3   OH230690   5.620   4.764   5.880
10250TIP3    H130691   5.677   4.718   5.942
10250TIP3    H230692   5.543   4.707   5.870
10251TIP3   OH230693   4.640   2.692   1.516
10251TIP3    H130694   4.687   2.767   1.480
10251TIP3    H230695   4.647   2.624   1.448
10252TIP3   OH230696   5.291   0.494   2.454
10252TIP3    H130697   5.200   0.494   2.482
10252TIP3    H230698   5.306   0.583   2.420
10253TIP3   OH230699   0.754   3.136   6.000
10253TIP3    H130700   0.680   3.147   6.059
10253TIP3    H230701   0.826   3.184   6.043
10254TIP3   OH230702   4.056   6.855   2.435
10254TIP3    H130703   4.149   6.833   2.447
10254TIP3    H230704   4.048   6.872   2.341
10255TIP3   OH230705   6.257   6.070   4.444
10255TIP3    H130706   6.296   6.026   4.369
10255TIP3    H230707   6.220   6.000   4.497
10256TIP3   OH230708   4.480   0.585   2.748
10256TIP3    H130709   4.492   0.498   2.710
10256TIP3    H230710   4.430   0.570   2.828
10257TIP3   OH230711   1.764   6.914   2.402
10257TIP3    H130712   1.796   6.852   2.469
10257TIP3    H230713   1.843   6.940   2.355
10258TIP3   OH230714   3.842   0.597   2.471
10258TIP3    H130715   3.784   0.672   2.458
10258TIP3    H230716   3.931   0.633   2.463
10259TIP3   OH230717   4.508   0.248   5.295
10259TIP3    H130718   4.425   0.278   5.259
10259TIP3    H230719   4.495   0.247   5.390
10260TIP3   OH230720   2.282   6.991   3.500
10260TIP3    H130721   2.216   7.022   3.561
10260TIP3    H230722   2.234   6.932   3.441
10261TIP3   OH230723   0.921   5.076   1.281
10261TIP3    H130724   0.833   5.104   1.305
10261TIP3    H230725   0.935   4.995   1.329
10262TIP3   OH230726   4.420   5.066   6.797
10262TIP3    H130727   4.395   5.022   6.878
10262TIP3    H230728   4.480   5.006   6.754
10263TIP3   OH230729   1.928   4.737   1.671
10263TIP3    H130730   1.907   4.763   1.581
10263TIP3    H230731   1.989   4.805   1.702
10264TIP3   OH230732   5.075   3.161   6.109
10264TIP3    H130733   5.161   3.193   6.084
10264TIP3    H230734   5.017   3.190   6.038
10265TIP3   OH230735   5.035   7.435   6.758
10265TIP3    H130736   5.124   7.407   6.734
10265TIP3    H230737   5.049   7.515   6.809
10266TIP3   OH230738   0.371   7.255   0.527
10266TIP3    H130739   0.377   7.317   0.600
10266TIP3    H230740   0.338   7.175   0.567
10267TIP3   OH230741   7.146   0.802   5.951
10267TIP3    H130742   7.236   0.772   5.941
10267TIP3    H230743   7.149   0.895   5.929
10268TIP3   OH230744   4.609   1.216   2.333
10268TIP3    H130745   4.565   1.177   2.408
10268TIP3    H230746   4.641   1.301   2.364
10269TIP3   OH230747   0.491   6.418   5.367
10269TIP3    H130748   0.544   6.437   5.290
10269TIP3    H230749   0.401   6.421   5.335
10270TIP3   OH230750   2.941   2.361   3.125
10270TIP3    H130751   2.855   2.324   3.147
10270TIP3    H230752   2.995   2.284   3.106
10271TIP3   OH230753   1.166   5.268   5.859
10271TIP3    H130754   1.107   5.344   5.862
10271TIP3    H230755   1.117   5.198   5.901
10272TIP3   OH230756   8.171   0.929   5.479
10272TIP3    H130757   8.099   0.973   5.523
10272TIP3    H230758   8.189   0.983   5.402
10273TIP3   OH230759   2.388   6.055   3.336
10273TIP3    H130760   2.448   6.128   3.323
10273TIP3    H230761   2.429   6.002   3.405
10274TIP3   OH230762   4.371   2.112   6.414
10274TIP3    H130763   4.399   2.188   6.363
10274TIP3    H230764   4.410   2.037   6.369
10275TIP3   OH230765   3.029   0.287   0.940
10275TIP3    H130766   3.051   0.336   1.019
10275TIP3    H230767   2.934   0.274   0.945
10276TIP3   OH230768   7.093   3.722   1.998
10276TIP3    H130769   7.134   3.700   1.915
10276TIP3    H230770   7.161   3.767   2.048
10277TIP3   OH230771   3.033   5.558   1.496
10277TIP3    H130772   3.027   5.468   1.465
10277TIP3    H230773   3.000   5.611   1.423
10278TIP3   OH230774   1.080   5.801   2.029
10278TIP3    H130775   1.086   5.767   1.940
10278TIP3    H230776   1.134   5.880   2.029
10279TIP3   OH230777   0.173   0.782   2.083
10279TIP3    H130778   0.227   0.706   2.061
10279TIP3    H230779   0.092   0.744   2.117
10280TIP3   OH230780   5.066   5.882   1.517
10280TIP3    H130781   5.145   5.893   1.570
10280TIP3    H230782   5.097   5.846   1.434
10281TIP3   OH230783   0.347   1.451   5.980
10281TIP3    H130784   0.325   1.492   6.064
10281TIP3    H230785   0.340   1.522   5.916
10282TIP3   OH230786   7.361   7.886   0.948
10282TIP3    H130787   7.393   7.942   0.877
10282TIP3    H230788   7.349   7.800   0.908
10283TIP3   OH230789   1.807   3.500   1.686
10283TIP3    H130790   1.784   3.453   1.606
10283TIP3    H230791   1.823   3.590   1.658
10284TIP3   OH230792   1.743   0.235   2.649
10284TIP3    H130793   1.828   0.256   2.610
10284TIP3    H230794   1.683   0.229   2.575
10285TIP3   OH230795   0.968   7.073   3.577
10285TIP3    H130796   1.021   7.012   3.629
10285TIP3    H230797   1.031   7.139   3.547
10286TIP3   OH230798   4.623   0.043   0.026
10286TIP3    H130799   4.703   0.083   0.060
10286TIP3    H230800   4.589  -0.008   0.100
10287TIP3   OH230801   8.321   5.993   5.932
10287TIP3    H130802   8.289   5.962   5.848
10287TIP3    H230803   8.312   6.088   5.928
10288TIP3   OH230804   4.181   3.371   6.352
10288TIP3    H130805   4.103   3.324   6.324
10288TIP3    H230806   4.147   3.450   6.394
10289TIP3   OH230807   7.600   2.611   3.296
10289TIP3    H130808   7.670   2.675   3.278
10289TIP3    H230809   7.606   2.596   3.390
10290TIP3   OH230810   5.051   3.166   2.427
10290TIP3    H130811   5.070   3.221   2.504
10290TIP3    H230812   5.010   3.088   2.463
10291TIP3   OH230813   4.162   5.109   6.477
10291TIP3    H130814   4.205   5.150   6.551
10291TIP3    H230815   4.090   5.058   6.516
10292TIP3   OH230816   6.663   7.782   3.253
10292TIP3    H130817   6.742   7.825   3.220
10292TIP3    H230818   6.606   7.854   3.279
10293TIP3   OH230819   5.086   2.759   3.992
10293TIP3    H130820   5.102   2.816   3.917
10293TIP3    H230821   5.088   2.818   4.067
10294TIP3   OH230822   2.594   3.258   3.280
10294TIP3    H130823   2.645   3.336   3.302
10294TIP3    H230824   2.506   3.277   3.311
10295TIP3   OH230825   7.804   3.941   1.381
10295TIP3    H130826   7.712   3.918   1.373
10295TIP3    H230827   7.804   4.026   1.425
10296TIP3   OH230828   3.806   2.467   5.911
10296TIP3    H130829   3.776   2.549   5.872
10296TIP3    H230830   3.785   2.475   6.004
10297TIP3   OH230831   4.510   3.082   3.671
10297TIP3    H130832   4.559   3.159   3.640
10297TIP3    H230833   4.568   3.043   3.736
10298TIP3   OH230834   3.244   7.819   1.468
10298TIP3    H130835   3.187   7.852   1.539
10298TIP3    H230836   3.223   7.875   1.394
10299TIP3   OH230837   1.964   7.661   3.719
10299TIP3    H130838   2.009   7.672   3.802
10299TIP3    H230839   2.025   7.610   3.665
10300TIP3   OH230840   1.341   7.535   2.526
10300TIP3    H130841   1.277   7.604   2.542
10300TIP3    H230842   1.336   7.519   2.432
10301TIP3   OH230843   5.529   7.444   2.797
10301TIP3    H130844   5.504   7.533   2.772
10301TIP3    H230845   5.615   7.432   2.758
10302TIP3   OH230846   5.572   1.567   2.779
10302TIP3    H130847   5.620   1.506   2.834
10302TIP3    H230848   5.541   1.635   2.839
10303TIP3   OH230849   0.715   0.251   2.350
10303TIP3    H130850   0.686   0.266   2.440
10303TIP3    H230851   0.772   0.325   2.330
10304TIP3   OH230852   2.910   3.457   4.083
10304TIP3    H130853   2.873   3.544   4.095
10304TIP3    H230854   2.999   3.462   4.118
10305TIP3   OH230855   0.200   4.866   1.298
10305TIP3    H130856   0.191   4.953   1.261
10305TIP3    H230857   0.278   4.830   1.256
10306TIP3   OH230858   1.777   5.541   2.050
10306TIP3    H130859   1.738   5.613   2.001
10306TIP3    H230860   1.763   5.564   2.142
10307TIP3   OH230861   1.150   6.780   3.995
10307TIP3    H130862   1.156   6.698   4.044
10307TIP3    H230863   1.080   6.765   3.932
10308TIP3   OH230864   1.501   3.302   4.242
10308TIP3    H130865   1.432   3.343   4.294
10308TIP3    H230866   1.565   3.371   4.229
10309TIP3   OH230867   4.999   1.962   6.711
10309TIP3    H130868   4.945   1.931   6.638
10309TIP3    H230869   5.069   1.897   6.718
10310TIP3   OH230870   0.305   3.865   2.548
10310TIP3    H130871   0.356   3.826   2.477
10310TIP3    H230872   0.310   3.959   2.532
10311TIP3   OH230873   8.088   6.162   6.254
10311TIP3    H130874   8.106   6.077   6.213
10311TIP3    H230875   8.027   6.141   6.325
10312TIP3   OH230876   5.606   5.721   1.233
10312TIP3    H130877   5.603   5.628   1.209
10312TIP3    H230878   5.569   5.766   1.158
10313TIP3   OH230879   3.013   7.316   3.525
10313TIP3    H130880   2.967   7.374   3.585
10313TIP3    H230881   2.944   7.272   3.476
10314TIP3   OH230882   4.959   2.230   5.667
10314TIP3    H130883   4.866   2.237   5.648
10314TIP3    H230884   4.964   2.233   5.763
10315TIP3   OH230885   6.239   7.841   2.924
10315TIP3    H130886   6.261   7.913   2.982
10315TIP3    H230887   6.263   7.871   2.837
10316TIP3   OH230888   1.275   1.912   6.122
10316TIP3    H130889   1.232   1.992   6.153
10316TIP3    H230890   1.206   1.845   6.124
10317TIP3   OH230891   4.775   4.762   5.321
10317TIP3    H130892   4.681   4.745   5.321
10317TIP3    H230893   4.798   4.770   5.228
10318TIP3   OH230894   7.202   2.576   1.358
10318TIP3    H130895   7.191   2.642   1.426
10318TIP3    H230896   7.221   2.496   1.405
10319TIP3   OH230897   6.842   5.947   4.059
10319TIP3    H130898   6.773   6.009   4.080
10319TIP3    H230899   6.795   5.868   4.030
10320TIP3   OH230900   2.552   1.378   5.701
10320TIP3    H130901   2.589   1.323   5.632
10320TIP3    H230902   2.606   1.458   5.700
10321TIP3   OH230903   4.784   4.024   6.646
10321TIP3    H130904   4.790   4.116   6.621
10321TIP3    H230905   4.700   4.017   6.692
10322TIP3   OH230906   6.096   5.514   5.174
10322TIP3    H130907   6.076   5.607   5.183
10322TIP3    H230908   6.188   5.506   5.200
10323TIP3   OH230909   5.963   2.713   5.566
10323TIP3    H130910   6.044   2.753   5.536
10323TIP3    H230911   5.953   2.741   5.657
10324TIP3   OH230912   3.203   5.341   5.265
10324TIP3    H130913   3.199   5.417   5.322
10324TIP3    H230914   3.287   5.299   5.286
10325TIP3   OH230915   1.505   2.224   5.791
10325TIP3    H130916   1.414   2.218   5.764
10325TIP3    H230917   1.526   2.136   5.824
10326TIP3   OH230918   7.901   0.311   4.971
10326TIP3    H130919   7.817   0.330   5.013
10326TIP3    H230920   7.967   0.347   5.031
10327TIP3   OH230921   0.614   6.504   3.114
10327TIP3    H130922   0.520   6.490   3.106
10327TIP3    H230923   0.636   6.562   3.041
10328TIP3   OH230924   0.432   6.431   0.678
10328TIP3    H130925   0.489   6.508   0.670
10328TIP3    H230926   0.485   6.366   0.724
10329TIP3   OH230927   5.563   3.401   1.258
10329TIP3    H130928   5.554   3.316   1.301
10329TIP3    H230929   5.648   3.397   1.215
10330TIP3   OH230930   7.582   2.203   3.893
10330TIP3    H130931   7.497   2.164   3.873
10330TIP3    H230932   7.588   2.197   3.988
10331TIP3   OH230933   5.913   4.407   6.702
10331TIP3    H130934   5.996   4.428   6.658
10331TIP3    H230935   5.932   4.327   6.752
10332TIP3   OH230936   4.655   7.746   0.726
10332TIP3    H130937   4.651   7.651   0.714
10332TIP3    H230938   4.747   7.768   0.711
10333TIP3   OH230939   1.801   4.614   2.026
10333TIP3    H130940   1.716   4.570   2.020
10333TIP3    H230941   1.808   4.662   1.944
10334TIP3   OH230942   7.635   3.451   3.179
10334TIP3    H130943   7.592   3.434   3.095
10334TIP3    H230944   7.582   3.520   3.219
10335TIP3   OH230945   6.367   3.135   5.696
10335TIP3    H130946   6.295   3.113   5.754
10335TIP3    H230947   6.441   3.081   5.728
10336TIP3   OH230948   5.856   6.205   5.032
10336TIP3    H130949   5.862   6.203   4.937
10336TIP3    H230950   5.946   6.222   5.062
10337TIP3   OH230951   3.760   6.345   3.321
10337TIP3    H130952   3.839   6.346   3.374
10337TIP3    H230953   3.688   6.346   3.385
10338TIP3   OH230954   1.221   5.820   2.803
10338TIP3    H130955   1.208   5.878   2.729
10338TIP3    H230956   1.154   5.846   2.866
10339TIP3   OH230957   7.304   3.735   4.761
10339TIP3    H130958   7.220   3.777   4.781
10339TIP3    H230959   7.362   3.808   4.738
10340TIP3   OH230960   1.670   4.301   2.953
10340TIP3    H130961   1.647   4.318   2.861
10340TIP3    H230962   1.589   4.266   2.991
10341TIP3   OH230963   5.827   7.375   6.187
10341TIP3    H130964   5.812   7.390   6.094
10341TIP3    H230965   5.857   7.460   6.220
10342TIP3   OH230966   4.354   3.353   4.431
10342TIP3    H130967   4.326   3.405   4.356
10342TIP3    H230968   4.446   3.331   4.413
10343TIP3   OH230969   3.686   5.262   2.170
10343TIP3    H130970   3.703   5.343   2.123
10343TIP3    H230971   3.758   5.204   2.146
10344TIP3   OH230972   1.340   5.499   2.259
10344TIP3    H130973   1.269   5.558   2.283
10344TIP3    H230974   1.334   5.491   2.164
10345TIP3   OH230975   6.946   1.890   4.310
10345TIP3    H130976   6.925   1.983   4.296
10345TIP3    H230977   6.867   1.843   4.281
10346TIP3   OH230978   5.363   7.829   3.331
10346TIP3    H130979   5.376   7.873   3.247
10346TIP3    H230980   5.419   7.752   3.327
10347TIP3   OH230981   7.149   3.993   1.303
10347TIP3    H130982   7.191   4.079   1.294
10347TIP3    H230983   7.079   4.007   1.365
10348TIP3   OH230984   1.535   1.741   2.604
10348TIP3    H130985   1.482   1.683   2.549
10348TIP3    H230986   1.479   1.758   2.680
10349TIP3   OH230987   7.143   3.454   1.352
10349TIP3    H130988   7.067   3.512   1.358
10349TIP3    H230989   7.128   3.388   1.421
10350TIP3   OH230990   1.133   6.133   4.969
10350TIP3    H130991   1.088   6.078   4.906
10350TIP3    H230992   1.206   6.172   4.920
10351TIP3   OH230993   1.579   5.985   2.321
10351TIP3    H130994   1.595   5.894   2.297
10351TIP3    H230995   1.637   6.001   2.396
10352TIP3   OH230996   7.417   6.814   5.797
10352TIP3    H130997   7.339   6.811   5.853
10352TIP3    H230998   7.385   6.849   5.714
10353TIP3   OH230999   6.488   1.214   4.410
10353TIP3    H131000   6.397   1.232   4.386
10353TIP3    H231001   6.513   1.139   4.355
10354TIP3   OH231002   0.806   3.946   4.627
10354TIP3    H131003   0.871   3.887   4.589
10354TIP3    H231004   0.812   4.026   4.574
10355TIP3   OH231005   3.796   1.055   1.673
10355TIP3    H131006   3.797   1.031   1.580
10355TIP3    H231007   3.855   0.992   1.715
10356TIP3   OH231008   0.687   3.137   0.384
10356TIP3    H131009   0.715   3.183   0.464
10356TIP3    H231010   0.763   3.143   0.326
10357TIP3   OH231011   1.624   5.314   1.367
10357TIP3    H131012   1.667   5.313   1.282
10357TIP3    H231013   1.662   5.389   1.413
10358TIP3   OH231014   6.885   3.868   1.193
10358TIP3    H131015   6.960   3.881   1.135
10358TIP3    H231016   6.849   3.956   1.205
10359TIP3   OH231017   3.528   4.717   6.212
10359TIP3    H131018   3.617   4.683   6.199
10359TIP3    H231019   3.526   4.798   6.161
10360TIP3   OH231020   1.419   7.406   5.765
10360TIP3    H131021   1.343   7.446   5.807
10360TIP3    H231022   1.422   7.317   5.801
10361TIP3   OH231023   6.768   5.492   1.568
10361TIP3    H131024   6.678   5.514   1.545
10361TIP3    H231025   6.780   5.402   1.538
10362TIP3   OH231026   5.917   5.215   4.849
10362TIP3    H131027   5.941   5.308   4.848
10362TIP3    H231028   5.998   5.170   4.873
10363TIP3   OH231029   1.535   7.181   5.015
10363TIP3    H131030   1.553   7.256   5.073
10363TIP3    H231031   1.621   7.152   4.987
10364TIP3   OH231032   3.457   4.692   1.404
10364TIP3    H131033   3.542   4.648   1.406
10364TIP3    H231034   3.477   4.780   1.371
10365TIP3   OH231035   6.291   1.777   1.933
10365TIP3    H131036   6.250   1.819   1.857
10365TIP3    H231037   6.283   1.683   1.916
10366TIP3   OH231038   8.217   2.907   1.150
10366TIP3    H131039   8.226   2.846   1.077
10366TIP3    H231040   8.123   2.908   1.169
10367TIP3   OH231041   5.284   5.188   5.426
10367TIP3    H131042   5.211   5.239   5.461
10367TIP3    H231043   5.276   5.103   5.470
10368TIP3   OH231044   6.700   1.275   1.152
10368TIP3    H131045   6.778   1.246   1.200
10368TIP3    H231046   6.723   1.267   1.060
10369TIP3   OH231047   7.781   6.112   0.641
10369TIP3    H131048   7.726   6.034   0.656
10369TIP3    H231049   7.809   6.104   0.550
10370TIP3   OH231050   1.335   6.141   5.882
10370TIP3    H131051   1.428   6.147   5.907
10370TIP3    H231052   1.327   6.197   5.805
10371TIP3   OH231053   7.914   6.763   3.646
10371TIP3    H131054   8.000   6.800   3.627
10371TIP3    H231055   7.857   6.839   3.658
10372TIP3   OH231056   3.667   2.325   0.958
10372TIP3    H131057   3.641   2.415   0.979
10372TIP3    H231058   3.682   2.325   0.864
10373TIP3   OH231059   3.347   7.621   0.162
10373TIP3    H131060   3.360   7.552   0.098
10373TIP3    H231061   3.258   7.607   0.195
10374TIP3   OH231062   1.588   3.314   3.317
10374TIP3    H131063   1.552   3.381   3.259
10374TIP3    H231064   1.679   3.339   3.329
10375TIP3   OH231065   0.912   2.240   2.603
10375TIP3    H131066   1.006   2.256   2.599
10375TIP3    H231067   0.884   2.231   2.512
10376TIP3   OH231068   4.693   2.256   3.947
10376TIP3    H131069   4.786   2.255   3.922
10376TIP3    H231070   4.655   2.183   3.899
10377TIP3   OH231071   5.734   4.763   6.700
10377TIP3    H131072   5.703   4.674   6.684
10377TIP3    H231073   5.723   4.808   6.616
10378TIP3   OH231074   8.064   6.894   0.145
10378TIP3    H131075   8.043   6.916   0.054
10378TIP3    H231076   8.030   6.968   0.196
10379TIP3   OH231077   1.696   5.494   3.865
10379TIP3    H131078   1.618   5.529   3.821
10379TIP3    H231079   1.765   5.557   3.842
10380TIP3   OH231080   7.031   7.479   4.552
10380TIP3    H131081   6.972   7.416   4.509
10380TIP3    H231082   7.008   7.474   4.644
10381TIP3   OH231083   4.568   0.168   6.145
10381TIP3    H131084   4.640   0.145   6.203
10381TIP3    H231085   4.531   0.248   6.183
10382TIP3   OH231086   0.722   1.455   6.056
10382TIP3    H131087   0.783   1.501   5.998
10382TIP3    H231088   0.643   1.509   6.056
10383TIP3   OH231089   7.060   7.161   1.835
10383TIP3    H131090   7.120   7.165   1.909
10383TIP3    H231091   7.104   7.102   1.773
10384TIP3   OH231092   3.138   5.518   1.923
10384TIP3    H131093   3.179   5.605   1.929
10384TIP3    H231094   3.044   5.536   1.922
10385TIP3   OH231095   3.434   1.393   0.522
10385TIP3    H131096   3.373   1.343   0.467
10385TIP3    H231097   3.505   1.417   0.463
10386TIP3   OH231098   0.493   1.396   1.627
10386TIP3    H131099   0.431   1.328   1.599
10386TIP3    H231100   0.516   1.441   1.546
10387TIP3   OH231101   8.339   2.458   0.811
10387TIP3    H131102   8.371   2.397   0.876
10387TIP3    H231103   8.417   2.485   0.763
10388TIP3   OH231104   6.527   3.226   4.042
10388TIP3    H131105   6.451   3.247   3.987
10388TIP3    H231106   6.602   3.239   3.984
10389TIP3   OH231107   0.398   6.200   3.846
10389TIP3    H131108   0.464   6.189   3.778
10389TIP3    H231109   0.422   6.138   3.914
10390TIP3   OH231110   5.997   2.183   0.417
10390TIP3    H131111   5.974   2.179   0.324
10390TIP3    H231112   6.058   2.110   0.430
10391TIP3   OH231113   4.138   3.945   5.603
10391TIP3    H131114   4.050   3.907   5.600
10391TIP3    H231115   4.196   3.869   5.604
10392TIP3   OH231116   7.909   6.114   0.370
10392TIP3    H131117   7.944   6.025   0.365
10392TIP3    H231118   7.881   6.134   0.281
10393TIP3   OH231119   8.122   3.036   2.774
10393TIP3    H131120   8.070   2.986   2.836
10393TIP3    H231121   8.199   3.063   2.823
10394TIP3   OH231122   0.992   2.138   0.739
10394TIP3    H131123   0.962   2.197   0.671
10394TIP3    H231124   0.915   2.122   0.794
10395TIP3   OH231125   0.027   6.096   2.330
10395TIP3    H131126   0.026   6.088   2.425
10395TIP3    H231127  -0.048   6.151   2.309
10396TIP3   OH231128   1.097   1.673   4.141
10396TIP3    H131129   1.173   1.620   4.119
10396TIP3    H231130   1.029   1.646   4.079
10397TIP3   OH231131   7.565   7.399   4.015
10397TIP3    H131132   7.480   7.425   4.051
10397TIP3    H231133   7.626   7.463   4.050
10398TIP3   OH231134   7.735   3.872   3.172
10398TIP3    H131135   7.726   3.822   3.253
10398TIP3    H231136   7.711   3.961   3.196
10399TIP3   OH231137   7.301   0.685   5.071
10399TIP3    H131138   7.393   0.665   5.088
10399TIP3    H231139   7.264   0.702   5.158
10400TIP3   OH231140   7.321   4.021   2.345
10400TIP3    H131141   7.251   4.025   2.410
10400TIP3    H231142   7.392   3.975   2.389
10401TIP3   OH231143   5.444   2.680   1.504
10401TIP3    H131144   5.362   2.664   1.551
10401TIP3    H231145   5.512   2.649   1.564
10402TIP3   OH231146   7.943   0.695   1.103
10402TIP3    H131147   7.909   0.610   1.074
10402TIP3    H231148   7.868   0.738   1.143
10403TIP3   OH231149   8.239   2.370   2.951
10403TIP3    H131150   8.215   2.320   2.873
10403TIP3    H231151   8.324   2.334   2.978
10404TIP3   OH231152   2.067   4.854   6.109
10404TIP3    H131153   2.092   4.877   6.019
10404TIP3    H231154   2.028   4.934   6.144
10405TIP3   OH231155   0.169   6.649   0.936
10405TIP3    H131156   0.139   6.712   0.871
10405TIP3    H231157   0.122   6.568   0.916
10406TIP3   OH231158   0.807   7.561   2.083
10406TIP3    H131159   0.731   7.594   2.035
10406TIP3    H231160   0.851   7.503   2.022
10407TIP3   OH231161   2.425   1.163   2.115
10407TIP3    H131162   2.417   1.189   2.206
10407TIP3    H231163   2.518   1.138   2.105
10408TIP3   OH231164   6.369   2.398   3.236
10408TIP3    H131165   6.403   2.463   3.297
10408TIP3    H231166   6.380   2.314   3.282
10409TIP3   OH231167   0.146   7.827   6.872
10409TIP3    H131168   0.129   7.811   6.965
10409TIP3    H231169   0.070   7.875   6.841
10410TIP3   OH231170   6.354   5.303   1.467
10410TIP3    H131171   6.399   5.239   1.412
10410TIP3    H231172   6.275   5.326   1.417
10411TIP3   OH231173   8.144   0.682   6.039
10411TIP3    H131174   8.175   0.720   6.122
10411TIP3    H231175   8.160   0.750   5.974
10412TIP3   OH231176   5.725   6.541   5.904
10412TIP3    H131177   5.689   6.616   5.951
10412TIP3    H231178   5.694   6.465   5.954
10413TIP3   OH231179   8.193   2.074   1.761
10413TIP3    H131180   8.277   2.086   1.805
10413TIP3    H231181   8.183   2.151   1.706
10414TIP3   OH231182   4.182   2.634   1.941
10414TIP3    H131183   4.145   2.652   1.855
10414TIP3    H231184   4.106   2.622   1.998
10415TIP3   OH231185   7.675   1.234   6.823
10415TIP3    H131186   7.620   1.307   6.795
10415TIP3    H231187   7.715   1.263   6.904
10416TIP3   OH231188   0.992   4.111   1.076
10416TIP3    H131189   0.897   4.098   1.067
10416TIP3    H231190   0.999   4.182   1.140
10417TIP3   OH231191   7.150   7.003   0.777
10417TIP3    H131192   7.168   6.993   0.870
10417TIP3    H231193   7.184   7.090   0.755
10418TIP3   OH231194   6.174   5.669   6.810
10418TIP3    H131195   6.151   5.636   6.723
10418TIP3    H231196   6.208   5.757   6.794
10419TIP3   OH231197   7.768   5.331   1.540
10419TIP3    H131198   7.846   5.354   1.589
10419TIP3    H231199   7.696   5.373   1.587
10420TIP3   OH231200   6.520   7.684   4.138
10420TIP3    H131201   6.591   7.637   4.095
10420TIP3    H231202   6.491   7.626   4.208
10421TIP3   OH231203   0.385   4.214   1.901
10421TIP3    H131204   0.291   4.201   1.916
10421TIP3    H231205   0.389   4.258   1.816
10422TIP3   OH231206   3.330   7.763   4.376
10422TIP3    H131207   3.317   7.855   4.351
10422TIP3    H231208   3.391   7.767   4.449
10423TIP3   OH231209   8.156   0.834   6.256
10423TIP3    H131210   8.175   0.906   6.317
10423TIP3    H231211   8.068   0.854   6.222
10424TIP3   OH231212   8.076   6.312   1.753
10424TIP3    H131213   8.084   6.305   1.658
10424TIP3    H231214   8.019   6.388   1.766
10425TIP3   OH231215   2.991   2.644   3.487
10425TIP3    H131216   2.955   2.559   3.463
10425TIP3    H231217   2.935   2.707   3.442
10426TIP3   OH231218   5.142   5.721   4.145
10426TIP3    H131219   5.111   5.666   4.074
10426TIP3    H231220   5.209   5.777   4.105
10427TIP3   OH231221   5.883   4.390   6.278
10427TIP3    H131222   5.842   4.446   6.211
10427TIP3    H231223   5.825   4.398   6.353
10428TIP3   OH231224   7.638   1.922   2.150
10428TIP3    H131225   7.569   1.965   2.098
10428TIP3    H231226   7.644   1.834   2.112
10429TIP3   OH231227   5.521   0.985   5.783
10429TIP3    H131228   5.463   1.061   5.780
10429TIP3    H231229   5.476   0.922   5.839
10430TIP3   OH231230   7.783   3.791   6.032
10430TIP3    H131231   7.717   3.859   6.044
10430TIP3    H231232   7.867   3.836   6.043
10431TIP3   OH231233   5.268   0.130   4.659
10431TIP3    H131234   5.311   0.055   4.617
10431TIP3    H231235   5.253   0.102   4.749
10432TIP3   OH231236   1.849   6.082   5.644
10432TIP3    H131237   1.827   6.136   5.568
10432TIP3    H231238   1.768   6.038   5.668
10433TIP3   OH231239   3.593   3.461   6.583
10433TIP3    H131240   3.682   3.495   6.571
10433TIP3    H231241   3.576   3.411   6.503
10434TIP3   OH231242   4.538   0.247   3.421
10434TIP3    H131243   4.583   0.194   3.355
10434TIP3    H231244   4.553   0.201   3.503
10435TIP3   OH231245   2.427   1.337   3.963
10435TIP3    H131246   2.335   1.310   3.972
10435TIP3    H231247   2.473   1.288   4.031
10436TIP3   OH231248   7.649   1.270   6.319
10436TIP3    H131249   7.693   1.186   6.312
10436TIP3    H231250   7.718   1.333   6.340
10437TIP3   OH231251   8.196   6.228   2.235
10437TIP3    H131252   8.185   6.283   2.156
10437TIP3    H231253   8.150   6.276   2.304
10438TIP3   OH231254   3.035   4.332   5.391
10438TIP3    H131255   2.951   4.327   5.346
10438TIP3    H231256   3.093   4.275   5.341
10439TIP3   OH231257   7.189   5.956   0.757
10439TIP3    H131258   7.109   5.903   0.757
10439TIP3    H231259   7.202   5.979   0.665
10440TIP3   OH231260   5.481   1.751   5.527
10440TIP3    H131261   5.436   1.831   5.499
10440TIP3    H231262   5.515   1.713   5.446
10441TIP3   OH231263   4.730   7.227   3.266
10441TIP3    H131264   4.763   7.310   3.302
10441TIP3    H231265   4.720   7.171   3.343
10442TIP3   OH231266   5.018   7.751   3.509
10442TIP3    H131267   5.092   7.692   3.494
10442TIP3    H231268   5.001   7.746   3.603
10443TIP3   OH231269   2.345   3.803   5.492
10443TIP3    H131270   2.427   3.755   5.506
10443TIP3    H231271   2.277   3.735   5.496
10444TIP3   OH231272   8.023   2.308   6.254
10444TIP3    H131273   8.068   2.392   6.249
10444TIP3    H231274   7.946   2.326   6.308
10445TIP3   OH231275   4.368   0.625   0.633
10445TIP3    H131276   4.452   0.611   0.589
10445TIP3    H231277   4.384   0.700   0.691
10446TIP3   OH231278   3.097   0.877   3.740
10446TIP3    H131279   3.148   0.886   3.821
10446TIP3    H231280   3.128   0.795   3.701
10447TIP3   OH231281   0.643   2.563   6.351
10447TIP3    H131282   0.637   2.531   6.441
10447TIP3    H231283   0.700   2.640   6.357
10448TIP3   OH231284   1.294   4.187   4.986
10448TIP3    H131285   1.369   4.128   4.987
10448TIP3    H231286   1.332   4.274   4.989
10449TIP3   OH231287   2.260   3.235   2.973
10449TIP3    H131288   2.205   3.312   2.981
10449TIP3    H231289   2.340   3.267   2.931
10450TIP3   OH231290   8.392   0.080   6.867
10450TIP3    H131291   8.432   0.115   6.788
10450TIP3    H231292   8.354  -0.004   6.841
10451TIP3   OH231293   3.748   2.801   3.136
10451TIP3    H131294   3.843   2.792   3.131
10451TIP3    H231295   3.718   2.774   3.049
10452TIP3   OH231296   2.001   7.624   3.418
10452TIP3    H131297   2.029   7.705   3.377
10452TIP3    H231298   2.030   7.555   3.358
10453TIP3   OH231299   0.553   0.064   4.434
10453TIP3    H131300   0.512   0.143   4.469
10453TIP3    H231301   0.532  -0.005   4.497
10454TIP3   OH231302   0.115   2.796   3.750
10454TIP3    H131303   0.085   2.718   3.703
10454TIP3    H231304   0.132   2.861   3.681
10455TIP3   OH231305   4.249   4.355   2.653
10455TIP3    H131306   4.200   4.409   2.592
10455TIP3    H231307   4.193   4.351   2.731
10456TIP3   OH231308   0.902   5.135   5.430
10456TIP3    H131309   0.874   5.191   5.503
10456TIP3    H231310   0.970   5.186   5.387
10457TIP3   OH231311   2.504   6.176   2.665
10457TIP3    H131312   2.572   6.107   2.662
10457TIP3    H231313   2.461   6.171   2.580
10458TIP3   OH231314   2.668   0.362   4.395
10458TIP3    H131315   2.657   0.389   4.486
10458TIP3    H231316   2.582   0.330   4.368
10459TIP3   OH231317   5.905   4.264   3.348
10459TIP3    H131318   5.880   4.176   3.375
10459TIP3    H231319   5.826   4.316   3.359
10460TIP3   OH231320   0.985   6.780   0.374
10460TIP3    H131321   0.958   6.839   0.304
10460TIP3    H231322   1.004   6.838   0.448
10461TIP3   OH231323   7.713   3.924   1.730
10461TIP3    H131324   7.620   3.924   1.709
10461TIP3    H231325   7.717   3.919   1.825
10462TIP3   OH231326   1.735   7.020   3.967
10462TIP3    H131327   1.703   7.109   3.980
10462TIP3    H231328   1.797   7.027   3.895
10463TIP3   OH231329   6.019   0.258   2.621
10463TIP3    H131330   5.952   0.274   2.688
10463TIP3    H231331   6.064   0.342   2.611
10464TIP3   OH231332   6.478   4.460   1.740
10464TIP3    H131333   6.477   4.540   1.687
10464TIP3    H231334   6.571   4.437   1.748
10465TIP3   OH231335   5.538   2.321   0.772
10465TIP3    H131336   5.589   2.260   0.718
10465TIP3    H231337   5.451   2.282   0.777
10466TIP3   OH231338   3.462   4.760   6.809
10466TIP3    H131339   3.541   4.721   6.771
10466TIP3    H231340   3.481   4.854   6.813
10467TIP3   OH231341   7.913   0.267   3.837
10467TIP3    H131342   7.891   0.287   3.746
10467TIP3    H231343   7.926   0.172   3.838
10468TIP3   OH231344   7.008   7.508   0.580
10468TIP3    H131345   6.933   7.545   0.532
10468TIP3    H231346   7.060   7.585   0.605
10469TIP3   OH231347   8.235   5.638   0.083
10469TIP3    H131348   8.279   5.675   0.006
10469TIP3    H231349   8.235   5.708   0.147
10470TIP3   OH231350   7.736   7.324   6.822
10470TIP3    H131351   7.695   7.264   6.884
10470TIP3    H231352   7.702   7.298   6.737
10471TIP3   OH231353   3.804   7.070   4.820
10471TIP3    H131354   3.804   7.111   4.907
10471TIP3    H231355   3.750   7.128   4.766
10472TIP3   OH231356   7.490   4.254   2.269
10472TIP3    H131357   7.449   4.335   2.241
10472TIP3    H231358   7.418   4.192   2.277
10473TIP3   OH231359   0.124   5.301   4.615
10473TIP3    H131360   0.163   5.367   4.557
10473TIP3    H231361   0.045   5.273   4.568
10474TIP3   OH231362   2.670   1.785   6.477
10474TIP3    H131363   2.641   1.695   6.464
10474TIP3    H231364   2.753   1.777   6.524
10475TIP3   OH231365   7.414   5.313   1.339
10475TIP3    H131366   7.484   5.253   1.365
10475TIP3    H231367   7.458   5.397   1.329
10476TIP3   OH231368   2.001   4.959   0.936
10476TIP3    H131369   1.946   5.017   0.883
10476TIP3    H231370   2.075   4.938   0.880
10477TIP3   OH231371   7.903   2.617   2.085
10477TIP3    H131372   7.817   2.607   2.126
10477TIP3    H231373   7.932   2.527   2.067
10478TIP3   OH231374   6.786   3.273   2.142
10478TIP3    H131375   6.827   3.199   2.187
10478TIP3    H231376   6.710   3.235   2.098
10479TIP3   OH231377   3.174   5.795   1.872
10479TIP3    H131378   3.197   5.787   1.780
10479TIP3    H231379   3.082   5.823   1.872
10480TIP3   OH231380   2.753   5.379   6.147
10480TIP3    H131381   2.815   5.378   6.074
10480TIP3    H231382   2.753   5.289   6.180
10481TIP3   OH231383   3.107   5.802   0.233
10481TIP3    H131384   3.165   5.839   0.167
10481TIP3    H231385   3.165   5.776   0.304
10482TIP3   OH231386   5.466   4.414   6.124
10482TIP3    H131387   5.380   4.383   6.095
10482TIP3    H231388   5.496   4.346   6.185
10483TIP3   OH231389   2.514   0.712   6.652
10483TIP3    H131390   2.553   0.741   6.734
10483TIP3    H231391   2.578   0.653   6.613
10484TIP3   OH231392   7.580   5.401   3.183
10484TIP3    H131393   7.500   5.372   3.140
10484TIP3    H231394   7.634   5.322   3.191
10485TIP3   OH231395   7.361   5.887   6.140
10485TIP3    H131396   7.313   5.894   6.058
10485TIP3    H231397   7.293   5.877   6.207
10486TIP3   OH231398   6.302   7.444   3.903
10486TIP3    H131399   6.321   7.512   3.838
10486TIP3    H231400   6.228   7.479   3.953
10487TIP3   OH231401   3.802   6.323   1.210
10487TIP3    H131402   3.872   6.295   1.151
10487TIP3    H231403   3.769   6.242   1.249
10488TIP3   OH231404   3.363   5.320   1.515
10488TIP3    H131405   3.452   5.286   1.515
10488TIP3    H231406   3.337   5.320   1.607
10489TIP3   OH231407   4.030   6.054   5.833
10489TIP3    H131408   4.020   5.980   5.893
10489TIP3    H231409   3.955   6.048   5.774
10490TIP3   OH231410   6.233   4.343   0.140
10490TIP3    H131411   6.184   4.356   0.221
10490TIP3    H231412   6.282   4.261   0.154
10491TIP3   OH231413   7.943   0.101   1.338
10491TIP3    H131414   7.866   0.106   1.282
10491TIP3    H231415   7.978   0.013   1.325
10492TIP3   OH231416   4.355   7.791   5.885
10492TIP3    H131417   4.420   7.724   5.905
10492TIP3    H231418   4.363   7.855   5.956
10493TIP3   OH231419   6.671   3.052   4.873
10493TIP3    H131420   6.649   3.016   4.786
10493TIP3    H231421   6.735   3.121   4.855
10494TIP3   OH231422   1.304   2.885   6.435
10494TIP3    H131423   1.265   2.846   6.514
10494TIP3    H231424   1.385   2.835   6.422
10495TIP3   OH231425   2.557   4.337   4.642
10495TIP3    H131426   2.568   4.325   4.548
10495TIP3    H231427   2.471   4.380   4.651
10496TIP3   OH231428   5.166   4.841   3.354
10496TIP3    H131429   5.152   4.757   3.398
10496TIP3    H231430   5.174   4.905   3.425
10497TIP3   OH231431   1.849   0.981   6.287
10497TIP3    H131432   1.912   0.910   6.292
10497TIP3    H231433   1.799   0.964   6.207
10498TIP3   OH231434   4.646   2.775   6.110
10498TIP3    H131435   4.586   2.805   6.178
10498TIP3    H231436   4.733   2.803   6.140
10499TIP3   OH231437   6.686   4.056   0.360
10499TIP3    H131438   6.611   4.029   0.306
10499TIP3    H231439   6.760   4.008   0.324
10500TIP3   OH231440   5.398   4.658   6.682
10500TIP3    H131441   5.435   4.571   6.665
10500TIP3    H231442   5.412   4.672   6.775
10501TIP3   OH231443   0.177   3.015   0.386
10501TIP3    H131444   0.216   2.928   0.380
10501TIP3    H231445   0.250   3.073   0.409
10502TIP3   OH231446   1.769   6.351   2.854
10502TIP3    H131447   1.718   6.359   2.773
10502TIP3    H231448   1.742   6.425   2.908
10503TIP3   OH231449   3.345   5.048   1.748
10503TIP3    H131450   3.378   5.119   1.804
10503TIP3    H231451   3.418   4.987   1.741
10504TIP3   OH231452   4.447   3.037   4.901
10504TIP3    H131453   4.365   2.988   4.891
10504TIP3    H231454   4.424   3.127   4.877
10505TIP3   OH231455   0.343   7.380   2.815
10505TIP3    H131456   0.436   7.393   2.838
10505TIP3    H231457   0.312   7.314   2.878
10506TIP3   OH231458   8.292   2.571   4.353
10506TIP3    H131459   8.329   2.501   4.300
10506TIP3    H231460   8.219   2.605   4.300
10507TIP3   OH231461   5.244   0.793   3.987
10507TIP3    H131462   5.228   0.705   4.021
10507TIP3    H231463   5.305   0.833   4.050
10508TIP3   OH231464   0.993   3.515   5.167
10508TIP3    H131465   1.011   3.421   5.162
10508TIP3    H231466   0.981   3.542   5.076
10509TIP3   OH231467   8.345   5.650   4.498
10509TIP3    H131468   8.381   5.686   4.417
10509TIP3    H231469   8.251   5.645   4.483
10510TIP3   OH231470   5.392   3.825   3.045
10510TIP3    H131471   5.316   3.834   3.104
10510TIP3    H231472   5.387   3.734   3.015
10511TIP3   OH231473   2.676   5.102   6.182
10511TIP3    H131474   2.676   5.007   6.195
10511TIP3    H231475   2.649   5.114   6.091
10512TIP3   OH231476   5.775   4.869   1.111
10512TIP3    H131477   5.762   4.784   1.070
10512TIP3    H231478   5.868   4.888   1.101
10513TIP3   OH231479   1.404   5.632   4.948
10513TIP3    H131480   1.408   5.650   5.042
10513TIP3    H231481   1.494   5.611   4.923
10514TIP3   OH231482   1.726   0.609   6.017
10514TIP3    H131483   1.697   0.655   5.938
10514TIP3    H231484   1.819   0.628   6.024
10515TIP3   OH231485   0.288   7.497   3.441
10515TIP3    H131486   0.300   7.432   3.371
10515TIP3    H231487   0.210   7.468   3.487
10516TIP3   OH231488   8.036   5.786   6.794
10516TIP3    H131489   7.945   5.802   6.818
10516TIP3    H231490   8.031   5.727   6.718
10517TIP3   OH231491   3.585   6.674   3.062
10517TIP3    H131492   3.618   6.584   3.055
10517TIP3    H231493   3.650   6.719   3.116
10518TIP3   OH231494   3.407   0.542   5.079
10518TIP3    H131495   3.380   0.629   5.050
10518TIP3    H231496   3.325   0.494   5.090
10519TIP3   OH231497   6.532   7.401   0.919
10519TIP3    H131498   6.623   7.414   0.947
10519TIP3    H231499   6.484   7.471   0.964
10520TIP3   OH231500   4.634   1.678   6.848
10520TIP3    H131501   4.693   1.626   6.794
10520TIP3    H231502   4.562   1.618   6.869
10521TIP3   OH231503   1.046   5.811   4.626
10521TIP3    H131504   0.964   5.788   4.583
10521TIP3    H231505   1.063   5.738   4.685
10522TIP3   OH231506   2.086   6.067   0.671
10522TIP3    H131507   2.071   6.043   0.579
10522TIP3    H231508   2.047   6.154   0.680
10523TIP3   OH231509   7.277   4.400   5.616
10523TIP3    H131510   7.352   4.393   5.675
10523TIP3    H231511   7.231   4.479   5.644
10524TIP3   OH231512   3.500   6.913   5.055
10524TIP3    H131513   3.546   6.869   4.984
10524TIP3    H231514   3.513   6.857   5.131
10525TIP3   OH231515   4.231   7.119   1.098
10525TIP3    H131516   4.296   7.150   1.035
10525TIP3    H231517   4.166   7.073   1.044
10526TIP3   OH231518   7.964   3.175   6.660
10526TIP3    H131519   7.988   3.083   6.675
10526TIP3    H231520   7.882   3.186   6.708
10527TIP3   OH231521   5.126   0.172   3.256
10527TIP3    H131522   5.103   0.084   3.227
10527TIP3    H231523   5.164   0.160   3.342
10528TIP3   OH231524   3.616   3.737   5.623
10528TIP3    H131525   3.520   3.734   5.623
10528TIP3    H231526   3.638   3.782   5.541
10529TIP3   OH231527   5.718   2.062   3.883
10529TIP3    H131528   5.729   2.121   3.808
10529TIP3    H231529   5.757   1.979   3.853
10530TIP3   OH231530   7.214   7.006   6.421
10530TIP3    H131531   7.120   6.989   6.409
10530TIP3    H231532   7.235   7.070   6.352
10531TIP3   OH231533   5.266   2.649   0.310
10531TIP3    H131534   5.289   2.596   0.234
10531TIP3    H231535   5.176   2.624   0.330
10532TIP3   OH231536   0.048   2.421   4.159
10532TIP3    H131537   0.122   2.391   4.211
10532TIP3    H231538   0.064   2.384   4.072
10533TIP3   OH231539   0.198   3.441   3.150
10533TIP3    H131540   0.208   3.533   3.175
10533TIP3    H231541   0.112   3.437   3.108
10534TIP3   OH231542   7.165   1.927   4.137
10534TIP3    H131543   7.116   1.906   4.217
10534TIP3    H231544   7.133   1.865   4.072
10535TIP3   OH231545   4.042   1.644   2.654
10535TIP3    H131546   4.011   1.711   2.593
10535TIP3    H231547   4.111   1.687   2.704
10536TIP3   OH231548   0.879   3.622   0.954
10536TIP3    H131549   0.826   3.664   1.022
10536TIP3    H231550   0.968   3.651   0.972
10537TIP3   OH231551   2.114   4.337   4.850
10537TIP3    H131552   2.039   4.282   4.827
10537TIP3    H231553   2.082   4.394   4.919
10538TIP3   OH231554   1.347   7.253   0.151
10538TIP3    H131555   1.336   7.199   0.072
10538TIP3    H231556   1.365   7.190   0.221
10539TIP3   OH231557   4.788   6.547   4.662
10539TIP3    H131558   4.844   6.484   4.708
10539TIP3    H231559   4.731   6.583   4.729
10540TIP3   OH231560   2.576   3.453   6.770
10540TIP3    H131561   2.544   3.413   6.689
10540TIP3    H231562   2.578   3.547   6.750
10541TIP3   OH231563   1.918   3.266   4.910
10541TIP3    H131564   1.890   3.263   5.001
10541TIP3    H231565   1.899   3.179   4.875
10542TIP3   OH231566   7.858   1.280   3.776
10542TIP3    H131567   7.828   1.190   3.793
10542TIP3    H231568   7.935   1.291   3.832
10543TIP3   OH231569   6.561   0.030   6.672
10543TIP3    H131570   6.528   0.120   6.676
10543TIP3    H231571   6.622   0.030   6.598
10544TIP3   OH231572   5.252   6.325   0.986
10544TIP3    H131573   5.159   6.302   0.984
10544TIP3    H231574   5.254   6.411   1.028
10545TIP3   OH231575   6.631   1.903   4.405
10545TIP3    H131576   6.718   1.940   4.392
10545TIP3    H231577   6.601   1.939   4.488
10546TIP3   OH231578   3.774   5.642   2.626
10546TIP3    H131579   3.747   5.733   2.611
10546TIP3    H231580   3.869   5.643   2.621
10547TIP3   OH231581   1.242   0.102   6.620
10547TIP3    H131582   1.286   0.186   6.607
10547TIP3    H231583   1.201   0.084   6.535
10548TIP3   OH231584   0.574   3.442   4.211
10548TIP3    H131585   0.561   3.380   4.283
10548TIP3    H231586   0.486   3.468   4.185
10549TIP3   OH231587   5.252   3.495   3.734
10549TIP3    H131588   5.179   3.534   3.783
10549TIP3    H231589   5.221   3.408   3.711
10550TIP3   OH231590   4.669   6.956   2.047
10550TIP3    H131591   4.664   7.011   1.969
10550TIP3    H231592   4.690   6.869   2.014
10551TIP3   OH231593   4.920   6.558   1.921
10551TIP3    H131594   4.979   6.589   1.852
10551TIP3    H231595   4.885   6.475   1.887
10552TIP3   OH231596   6.702   2.100   4.142
10552TIP3    H131597   6.639   2.162   4.104
10552TIP3    H231598   6.686   2.018   4.095
10553TIP3   OH231599   4.847   0.130   0.110
10553TIP3    H131600   4.922   0.112   0.054
10553TIP3    H231601   4.885   0.149   0.196
10554TIP3   OH231602   4.432   7.031   4.663
10554TIP3    H131603   4.510   7.065   4.619
10554TIP3    H231604   4.443   7.055   4.755
10555TIP3   OH231605   0.261   0.455   4.970
10555TIP3    H131606   0.258   0.527   5.032
10555TIP3    H231607   0.172   0.450   4.934
10556TIP3   OH231608   5.873   4.215   0.162
10556TIP3    H131609   5.821   4.227   0.241
10556TIP3    H231610   5.938   4.149   0.186
10557TIP3   OH231611   4.779   5.901   2.287
10557TIP3    H131612   4.823   5.860   2.362
10557TIP3    H231613   4.761   5.829   2.227
10558TIP3   OH231614   1.945   6.905   1.176
10558TIP3    H131615   2.002   6.972   1.139
10558TIP3    H231616   1.874   6.896   1.113
10559TIP3   OH231617   5.119   2.068   2.191
10559TIP3    H131618   5.173   2.037   2.119
10559TIP3    H231619   5.040   2.101   2.148
10560TIP3   OH231620   3.706   3.354   3.088
10560TIP3    H131621   3.735   3.264   3.080
10560TIP3    H231622   3.630   3.350   3.146
10561TIP3   OH231623   1.064   0.122   2.686
10561TIP3    H131624   1.059   0.198   2.628
10561TIP3    H231625   1.139   0.140   2.743
10562TIP3   OH231626   4.272   5.310   1.722
10562TIP3    H131627   4.284   5.308   1.817
10562TIP3    H231628   4.313   5.391   1.694
10563TIP3   OH231629   7.155   2.437   4.887
10563TIP3    H131630   7.104   2.501   4.937
10563TIP3    H231631   7.208   2.490   4.827
10564TIP3   OH231632   2.739   7.213   5.033
10564TIP3    H131633   2.786   7.214   4.950
10564TIP3    H231634   2.656   7.257   5.014
10565TIP3   OH231635   5.261   0.550   4.587
10565TIP3    H131636   5.316   0.576   4.513
10565TIP3    H231637   5.316   0.564   4.664
10566TIP3   OH231638   2.839   1.893   1.613
10566TIP3    H131639   2.805   1.979   1.638
10566TIP3    H231640   2.765   1.851   1.569
10567TIP3   OH231641   1.359   5.150   6.756
10567TIP3    H131642   1.326   5.097   6.829
10567TIP3    H231643   1.370   5.087   6.685
10568TIP3   OH231644   4.809   2.355   0.651
10568TIP3    H131645   4.736   2.330   0.594
10568TIP3    H231646   4.887   2.332   0.601
10569TIP3   OH231647   7.477   6.963   5.010
10569TIP3    H131648   7.437   6.945   5.095
10569TIP3    H231649   7.403   6.966   4.949
10570TIP3   OH231650   1.742   3.647   2.500
10570TIP3    H131651   1.818   3.624   2.447
10570TIP3    H231652   1.679   3.683   2.437
10571TIP3   OH231653   6.092   5.676   6.342
10571TIP3    H131654   6.161   5.727   6.300
10571TIP3    H231655   6.069   5.609   6.278
10572TIP3   OH231656   7.742   3.665   4.828
10572TIP3    H131657   7.662   3.657   4.775
10572TIP3    H231658   7.778   3.750   4.804
10573TIP3   OH231659   2.232   2.047   3.848
10573TIP3    H131660   2.177   1.995   3.906
10573TIP3    H231661   2.221   2.137   3.878
10574TIP3   OH231662   8.070   5.861   0.311
10574TIP3    H131663   8.048   5.842   0.402
10574TIP3    H231664   8.161   5.889   0.313
10575TIP3   OH231665   2.063   0.639   5.663
10575TIP3    H131666   2.156   0.647   5.642
10575TIP3    H231667   2.050   0.547   5.683
10576TIP3   OH231668   2.433   0.784   5.723
10576TIP3    H131669   2.456   0.853   5.786
10576TIP3    H231670   2.517   0.744   5.699
10577TIP3   OH231671   7.212   2.334   1.126
10577TIP3    H131672   7.262   2.339   1.045
10577TIP3    H231673   7.251   2.400   1.182
10578TIP3   OH231674   5.512   5.264   5.761
10578TIP3    H131675   5.577   5.218   5.815
10578TIP3    H231676   5.439   5.203   5.754
10579TIP3   OH231677   6.964   7.320   5.913
10579TIP3    H131678   6.964   7.402   5.963
10579TIP3    H231679   6.875   7.315   5.877
10580TIP3   OH231680   3.034   1.158   0.062
10580TIP3    H131681   2.966   1.093   0.077
10580TIP3    H231682   3.112   1.122   0.105
10581TIP3   OH231683   6.332   3.188   3.363
10581TIP3    H131684   6.418   3.147   3.371
10581TIP3    H231685   6.341   3.272   3.408
10582TIP3   OH231686   3.068   1.027   4.364
10582TIP3    H131687   2.979   1.002   4.388
10582TIP3    H231688   3.058   1.103   4.308
10583TIP3   OH231689   4.935   1.345   6.436
10583TIP3    H131690   4.974   1.275   6.383
10583TIP3    H231691   5.008   1.381   6.486
10584TIP3   OH231692   8.119   4.643   0.568
10584TIP3    H131693   8.174   4.689   0.631
10584TIP3    H231694   8.088   4.711   0.509
10585TIP3   OH231695   6.091   4.800   3.715
10585TIP3    H131696   6.094   4.888   3.751
10585TIP3    H231697   6.125   4.744   3.786
10586TIP3   OH231698   6.464   4.933   5.930
10586TIP3    H131699   6.506   4.902   5.850
10586TIP3    H231700   6.397   4.994   5.899
10587TIP3   OH231701   6.076   3.111   6.314
10587TIP3    H131702   6.135   3.186   6.324
10587TIP3    H231703   6.089   3.082   6.224
10588TIP3   OH231704   3.230   7.598   2.525
10588TIP3    H131705   3.236   7.569   2.435
10588TIP3    H231706   3.202   7.520   2.574
10589TIP3   OH231707   1.668   7.293   4.025
10589TIP3    H131708   1.600   7.307   3.960
10589TIP3    H231709   1.623   7.307   4.109
10590TIP3   OH231710   3.910   6.154   0.133
10590TIP3    H131711   3.977   6.177   0.069
10590TIP3    H231712   3.918   6.221   0.201
10591TIP3   OH231713   1.214   1.759   5.711
10591TIP3    H131714   1.153   1.821   5.751
10591TIP3    H231715   1.185   1.751   5.620
10592TIP3   OH231716   2.268   2.305   6.719
10592TIP3    H131717   2.195   2.314   6.657
10592TIP3    H231718   2.270   2.211   6.740
10593TIP3   OH231719   5.835   4.978   1.619
10593TIP3    H131720   5.900   4.939   1.561
10593TIP3    H231721   5.824   4.913   1.689
10594TIP3   OH231722   6.765   0.746   3.059
10594TIP3    H131723   6.681   0.704   3.077
10594TIP3    H231724   6.794   0.778   3.144
10595TIP3   OH231725   4.901   0.961   3.349
10595TIP3    H131726   4.943   0.890   3.300
10595TIP3    H231727   4.807   0.941   3.345
10596TIP3   OH231728   1.652   5.920   1.664
10596TIP3    H131729   1.728   5.878   1.623
10596TIP3    H231730   1.665   6.014   1.649
10597TIP3   OH231731   7.470   4.674   1.906
10597TIP3    H131732   7.533   4.618   1.860
10597TIP3    H231733   7.432   4.617   1.973
10598TIP3   OH231734   6.583   3.077   3.344
10598TIP3    H131735   6.654   3.121   3.298
10598TIP3    H231736   6.615   2.988   3.357
10599TIP3   OH231737   2.811   2.637   1.243
10599TIP3    H131738   2.849   2.566   1.192
10599TIP3    H231739   2.798   2.708   1.180
10600TIP3   OH231740   8.450   6.403   0.984
10600TIP3    H131741   8.439   6.444   1.070
10600TIP3    H231742   8.462   6.310   1.003
10601TIP3   OH231743   3.554   1.288   2.019
10601TIP3    H131744   3.581   1.208   1.974
10601TIP3    H231745   3.630   1.346   2.014
10602TIP3   OH231746   3.409   7.304   6.161
10602TIP3    H131747   3.480   7.362   6.188
10602TIP3    H231748   3.333   7.336   6.209
10603TIP3   OH231749   2.091   2.302   2.457
10603TIP3    H131750   2.072   2.383   2.409
10603TIP3    H231751   2.107   2.237   2.389
10604TIP3   OH231752   6.491   5.492   5.034
10604TIP3    H131753   6.521   5.582   5.047
10604TIP3    H231754   6.521   5.446   5.113
10605TIP3   OH231755   3.422   7.202   5.604
10605TIP3    H131756   3.414   7.288   5.645
10605TIP3    H231757   3.331   7.170   5.597
10606TIP3   OH231758   4.227   4.548   6.409
10606TIP3    H131759   4.152   4.504   6.450
10606TIP3    H231760   4.278   4.477   6.370
10607TIP3   OH231761   7.956   3.546   6.818
10607TIP3    H131762   7.878   3.509   6.776
10607TIP3    H231763   7.959   3.636   6.786
10608TIP3   OH231764   7.278   1.956   5.192
10608TIP3    H131765   7.292   1.871   5.232
10608TIP3    H231766   7.338   1.958   5.117
10609TIP3   OH231767   5.829   0.272   2.814
10609TIP3    H131768   5.773   0.206   2.773
10609TIP3    H231769   5.777   0.353   2.810
10610TIP3   OH231770   3.499   3.322   3.250
10610TIP3    H131771   3.411   3.284   3.248
10610TIP3    H231772   3.485   3.412   3.279
10611TIP3   OH231773   6.689   3.492   4.002
10611TIP3    H131774   6.726   3.424   3.945
10611TIP3    H231775   6.716   3.575   3.962
10612TIP3   OH231776   5.771   0.674   3.346
10612TIP3    H131777   5.736   0.749   3.297
10612TIP3    H231778   5.695   0.636   3.389
10613TIP3   OH231779   5.041   3.623   0.288
10613TIP3    H131780   5.079   3.601   0.203
10613TIP3    H231781   5.058   3.716   0.299
10614TIP3   OH231782   2.019   0.449   1.593
10614TIP3    H131783   1.968   0.368   1.594
10614TIP3    H231784   2.054   0.456   1.682
10615TIP3   OH231785   4.006   3.045   3.642
10615TIP3    H131786   3.974   3.019   3.555
10615TIP3    H231787   4.090   3.000   3.650
10616TIP3   OH231788   0.654   4.000   2.449
10616TIP3    H131789   0.747   3.980   2.437
10616TIP3    H231790   0.638   3.983   2.541
10617TIP3   OH231791   1.054   5.257   0.739
10617TIP3    H131792   1.141   5.269   0.775
10617TIP3    H231793   1.015   5.187   0.791
10618TIP3   OH231794   4.255   1.720   3.093
10618TIP3    H131795   4.246   1.671   3.175
10618TIP3    H231796   4.295   1.803   3.118
10619TIP3   OH231797   5.811   6.235   6.724
10619TIP3    H131798   5.719   6.245   6.700
10619TIP3    H231799   5.855   6.213   6.641
10620TIP3   OH231800   3.981   2.805   4.926
10620TIP3    H131801   4.026   2.727   4.958
10620TIP3    H231802   3.889   2.778   4.920
10621TIP3   OH231803   7.554   2.084   0.348
10621TIP3    H131804   7.505   2.012   0.388
10621TIP3    H231805   7.523   2.087   0.258
10622TIP3   OH231806   0.999   7.727   2.836
10622TIP3    H131807   0.913   7.766   2.820
10622TIP3    H231808   0.981   7.653   2.895
10623TIP3   OH231809   7.894   3.895   1.109
10623TIP3    H131810   7.824   3.931   1.054
10623TIP3    H231811   7.869   3.920   1.198
10624TIP3   OH231812   8.152   6.975   5.926
10624TIP3    H131813   8.142   7.041   5.858
10624TIP3    H231814   8.186   6.898   5.879
10625TIP3   OH231815   3.101   5.215   2.637
10625TIP3    H131816   3.098   5.143   2.699
10625TIP3    H231817   3.176   5.268   2.665
10626TIP3   OH231818   3.235   1.839   0.335
10626TIP3    H131819   3.280   1.802   0.410
10626TIP3    H231820   3.301   1.842   0.266
10627TIP3   OH231821   8.202   2.572   0.202
10627TIP3    H131822   8.159   2.490   0.180
10627TIP3    H231823   8.215   2.568   0.297
10628TIP3   OH231824   0.183   7.362   1.213
10628TIP3    H131825   0.133   7.433   1.253
10628TIP3    H231826   0.187   7.295   1.281
10629TIP3   OH231827   4.767   6.895   4.431
10629TIP3    H131828   4.726   6.810   4.419
10629TIP3    H231829   4.824   6.884   4.507
10630TIP3   OH231830   1.807   2.572   6.563
10630TIP3    H131831   1.733   2.560   6.623
10630TIP3    H231832   1.829   2.665   6.570
10631TIP3   OH231833   8.339   4.929   2.008
10631TIP3    H131834   8.398   4.942   1.933
10631TIP3    H231835   8.396   4.894   2.076
10632TIP3   OH231836   6.613   4.574   0.378
10632TIP3    H131837   6.677   4.619   0.433
10632TIP3    H231838   6.664   4.506   0.334
10633TIP3   OH231839   7.424   0.134   5.995
10633TIP3    H131840   7.495   0.074   5.973
10633TIP3    H231841   7.407   0.183   5.914
10634TIP3   OH231842   2.424   1.559   5.082
10634TIP3    H131843   2.349   1.617   5.096
10634TIP3    H231844   2.481   1.608   5.023
10635TIP3   OH231845   0.606   3.434   6.639
10635TIP3    H131846   0.536   3.397   6.586
10635TIP3    H231847   0.685   3.427   6.584
10636TIP3   OH231848   0.099   0.466   1.115
10636TIP3    H131849   0.146   0.398   1.068
10636TIP3    H231850   0.162   0.500   1.178
10637TIP3   OH231851   3.688   6.881   4.375
10637TIP3    H131852   3.700   6.814   4.442
10637TIP3    H231853   3.622   6.940   4.412
10638TIP3   OH231854   1.856   5.423   5.933
10638TIP3    H131855   1.944   5.437   5.968
10638TIP3    H231856   1.800   5.415   6.011
10639TIP3   OH231857   1.168   3.308   6.730
10639TIP3    H131858   1.208   3.324   6.644
10639TIP3    H231859   1.239   3.327   6.792
10640TIP3   OH231860   4.809   6.389   2.852
10640TIP3    H131861   4.736   6.441   2.886
10640TIP3    H231862   4.857   6.361   2.930
10641TIP3   OH231863   4.051   5.842   6.045
10641TIP3    H131864   3.994   5.820   6.119
10641TIP3    H231865   4.052   5.762   5.991
10642TIP3   OH231866   7.128   4.762   6.848
10642TIP3    H131867   7.040   4.778   6.813
10642TIP3    H231868   7.171   4.708   6.782
10643TIP3   OH231869   6.028   1.208   4.815
10643TIP3    H131870   6.043   1.302   4.825
10643TIP3    H231871   6.064   1.169   4.895
10644TIP3   OH231872   3.275   5.755   1.326
10644TIP3    H131873   3.225   5.749   1.408
10644TIP3    H231874   3.209   5.772   1.259
10645TIP3   OH231875   2.445   0.264   2.659
10645TIP3    H131876   2.461   0.339   2.716
10645TIP3    H231877   2.530   0.244   2.620
10646TIP3   OH231878   0.270   4.239   2.782
10646TIP3    H131879   0.329   4.314   2.775
10646TIP3    H231880   0.228   4.233   2.695
10647TIP3   OH231881   7.970   7.347   2.692
10647TIP3    H131882   7.975   7.359   2.787
10647TIP3    H231883   7.905   7.411   2.663
10648TIP3   OH231884   0.557   0.445   3.791
10648TIP3    H131885   0.483   0.503   3.774
10648TIP3    H231886   0.632   0.487   3.749
10649TIP3   OH231887   4.547   5.655   6.550
10649TIP3    H131888   4.505   5.667   6.635
10649TIP3    H231889   4.529   5.737   6.503
10650TIP3   OH231890   8.133   7.627   2.863
10650TIP3    H131891   8.043   7.661   2.863
10650TIP3    H231892   8.122   7.532   2.869
10651TIP3   OH231893   6.850   6.900   1.601
10651TIP3    H131894   6.886   6.836   1.662
10651TIP3    H231895   6.757   6.905   1.624
10652TIP3   OH231896   3.031   1.552   1.027
10652TIP3    H131897   3.041   1.487   1.097
10652TIP3    H231898   2.998   1.502   0.953
10653TIP3   OH231899   2.196   1.256   5.067
10653TIP3    H131900   2.203   1.273   5.161
10653TIP3    H231901   2.269   1.303   5.028
10654TIP3   OH231902   1.665   0.259   4.194
10654TIP3    H131903   1.592   0.201   4.175
10654TIP3    H231904   1.720   0.211   4.255
10655TIP3   OH231905   6.809   7.560   6.822
10655TIP3    H131906   6.812   7.482   6.767
10655TIP3    H231907   6.840   7.631   6.766
10656TIP3   OH231908   3.990   0.595   3.734
10656TIP3    H131909   3.900   0.563   3.731
10656TIP3    H231910   4.040   0.524   3.774
10657TIP3   OH231911   7.478   0.213   1.358
10657TIP3    H131912   7.457   0.275   1.427
10657TIP3    H231913   7.423   0.137   1.376
10658TIP3   OH231914   4.967   2.227   5.937
10658TIP3    H131915   5.022   2.154   5.967
10658TIP3    H231916   4.882   2.212   5.978
10659TIP3   OH231917   0.472   3.248   4.707
10659TIP3    H131918   0.460   3.329   4.657
10659TIP3    H231919   0.481   3.180   4.640
10660TIP3   OH231920   0.867   5.033   2.645
10660TIP3    H131921   0.897   5.012   2.734
10660TIP3    H231922   0.771   5.029   2.651
10661TIP3   OH231923   1.376   1.613   6.781
10661TIP3    H131924   1.304   1.669   6.751
10661TIP3    H231925   1.341   1.570   6.859
10662TIP3   OH231926   6.751   1.822   6.098
10662TIP3    H131927   6.760   1.727   6.110
10662TIP3    H231928   6.792   1.860   6.176
10663TIP3   OH231929   0.091   5.307   3.260
10663TIP3    H131930   0.051   5.373   3.316
10663TIP3    H231931   0.050   5.224   3.288
10664TIP3   OH231932   8.239   3.159   4.571
10664TIP3    H131933   8.214   3.249   4.591
10664TIP3    H231934   8.330   3.153   4.600
10665TIP3   OH231935   3.078   6.103   5.888
10665TIP3    H131936   3.062   6.179   5.832
10665TIP3    H231937   3.019   6.115   5.963
10666TIP3   OH231938   7.898   3.399   4.326
10666TIP3    H131939   7.846   3.332   4.371
10666TIP3    H231940   7.975   3.409   4.382
10667TIP3   OH231941   0.977   7.961   0.137
10667TIP3    H131942   1.021   8.024   0.081
10667TIP3    H231943   1.046   7.923   0.191
10668TIP3   OH231944   1.558   6.075   6.538
10668TIP3    H131945   1.504   6.072   6.459
10668TIP3    H231946   1.521   6.148   6.589
10669TIP3   OH231947   3.531   5.856   6.033
10669TIP3    H131948   3.458   5.883   5.977
10669TIP3    H231949   3.593   5.929   6.028
10670TIP3   OH231950   4.204   3.985   2.086
10670TIP3    H131951   4.196   3.946   1.999
10670TIP3    H231952   4.124   4.037   2.096
10671TIP3   OH231953   7.457   4.899   0.513
10671TIP3    H131954   7.513   4.931   0.441
10671TIP3    H231955   7.504   4.824   0.548
10672TIP3   OH231956   0.269   2.727   0.443
10672TIP3    H131957   0.260   2.725   0.538
10672TIP3    H231958   0.349   2.678   0.425
10673TIP3   OH231959   7.468   5.677   1.672
10673TIP3    H131960   7.420   5.694   1.753
10673TIP3    H231961   7.560   5.693   1.695
10674TIP3   OH231962   4.490   3.071   1.806
10674TIP3    H131963   4.430   3.092   1.734
10674TIP3    H231964   4.568   3.123   1.787
10675TIP3   OH231965   0.379   6.050   3.201
10675TIP3    H131966   0.330   6.087   3.274
10675TIP3    H231967   0.452   6.110   3.187
10676TIP3   OH231968   6.843   2.484   1.728
10676TIP3    H131969   6.750   2.485   1.706
10676TIP3    H231970   6.887   2.477   1.643
10677TIP3   OH231971   7.472   3.341   0.756
10677TIP3    H131972   7.531   3.271   0.785
10677TIP3    H231973   7.394   3.295   0.726
10678TIP3   OH231974   0.439   3.116   4.960
10678TIP3    H131975   0.372   3.158   5.014
10678TIP3    H231976   0.445   3.171   4.882
10679TIP3   OH231977   5.908   6.303   5.787
10679TIP3    H131978   5.813   6.312   5.782
10679TIP3    H231979   5.941   6.355   5.715
10680TIP3   OH231980   7.989   4.994   6.762
10680TIP3    H131981   8.028   4.935   6.697
10680TIP3    H231982   7.949   4.936   6.826
10681TIP3   OH231983   3.567   4.274   0.528
10681TIP3    H131984   3.557   4.318   0.444
10681TIP3    H231985   3.543   4.183   0.512
10682TIP3   OH231986   1.963   2.731   4.015
10682TIP3    H131987   1.896   2.710   3.950
10682TIP3    H231988   1.920   2.713   4.099
10683TIP3   OH231989   6.552   6.513   6.007
10683TIP3    H131990   6.604   6.591   5.986
10683TIP3    H231991   6.523   6.527   6.097
10684TIP3   OH231992   3.848   1.150   1.398
10684TIP3    H131993   3.863   1.225   1.456
10684TIP3    H231994   3.768   1.172   1.350
10685TIP3   OH231995   4.725   7.079   5.915
10685TIP3    H131996   4.645   7.033   5.939
10685TIP3    H231997   4.758   7.032   5.838
10686TIP3   OH231998   5.228   2.874   3.630
10686TIP3    H131999   5.282   2.821   3.572
10686TIP3    H232000   5.156   2.905   3.575
10687TIP3   OH232001   1.849   5.516   0.209
10687TIP3    H132002   1.826   5.609   0.219
10687TIP3    H232003   1.782   5.469   0.259
10688TIP3   OH232004   2.426   1.504   5.341
10688TIP3    H132005   2.476   1.582   5.363
10688TIP3    H232006   2.418   1.505   5.246
10689TIP3   OH232007   2.188   0.272   1.210
10689TIP3    H132008   2.121   0.334   1.240
10689TIP3    H232009   2.156   0.242   1.125
10690TIP3   OH232010   7.963   6.525   0.309
10690TIP3    H132011   7.971   6.487   0.222
10690TIP3    H232012   7.930   6.614   0.293
10691TIP3   OH232013   0.356   1.134   2.275
10691TIP3    H132014   0.361   1.040   2.291
10691TIP3    H232015   0.435   1.154   2.224
10692TIP3   OH232016   5.774   7.062   0.577
10692TIP3    H132017   5.757   7.148   0.616
10692TIP3    H232018   5.785   7.080   0.483
10693TIP3   OH232019   1.110   4.350   1.679
10693TIP3    H132020   1.102   4.392   1.765
10693TIP3    H232021   1.154   4.414   1.624
10694TIP3   OH232022   1.479   6.241   6.771
10694TIP3    H132023   1.519   6.325   6.793
10694TIP3    H232024   1.385   6.254   6.782
10695TIP3   OH232025   1.350   4.837   3.598
10695TIP3    H132026   1.434   4.816   3.557
10695TIP3    H232027   1.301   4.881   3.528
10696TIP3   OH232028   1.481   1.500   4.309
10696TIP3    H132029   1.396   1.536   4.336
10696TIP3    H232030   1.485   1.414   4.350
10697TIP3   OH232031   0.047   1.439   5.118
10697TIP3    H132032  -0.018   1.509   5.109
10697TIP3    H232033   0.128   1.477   5.086
10698TIP3   OH232034   8.175   5.502   6.727
10698TIP3    H132035   8.188   5.432   6.791
10698TIP3    H232036   8.261   5.541   6.717
10699TIP3   OH232037   6.441   2.295   5.350
10699TIP3    H132038   6.446   2.364   5.284
10699TIP3    H232039   6.391   2.225   5.308
10700TIP3   OH232040   1.323   3.488   0.249
10700TIP3    H132041   1.382   3.414   0.262
10700TIP3    H232042   1.378   3.556   0.209
10701TIP3   OH232043   2.502   4.324   3.012
10701TIP3    H132044   2.422   4.273   3.025
10701TIP3    H232045   2.571   4.259   3.005
10702TIP3   OH232046   1.705   1.669   2.806
10702TIP3    H132047   1.644   1.646   2.736
10702TIP3    H232048   1.751   1.746   2.774
10703TIP3   OH232049   3.525   5.638   6.619
10703TIP3    H132050   3.562   5.644   6.531
10703TIP3    H232051   3.597   5.663   6.677
10704TIP3   OH232052   7.338   3.178   5.752
10704TIP3    H132053   7.273   3.200   5.686
10704TIP3    H232054   7.287   3.149   5.828
10705TIP3   OH232055   3.687   6.355   5.727
10705TIP3    H132056   3.605   6.322   5.762
10705TIP3    H232057   3.724   6.281   5.678
10706TIP3   OH232058   6.666   0.190   5.802
10706TIP3    H132059   6.576   0.169   5.827
10706TIP3    H232060   6.719   0.160   5.876
10707TIP3   OH232061   3.903   3.431   0.741
10707TIP3    H132062   3.991   3.399   0.720
10707TIP3    H232063   3.868   3.365   0.802
10708TIP3   OH232064   4.720   2.369   6.368
10708TIP3    H132065   4.662   2.392   6.440
10708TIP3    H232066   4.680   2.408   6.291
10709TIP3   OH232067   6.380   4.441   0.512
10709TIP3    H132068   6.404   4.369   0.572
10709TIP3    H232069   6.463   4.487   0.496
10710TIP3   OH232070   2.858   4.333   2.024
10710TIP3    H132071   2.889   4.320   2.114
10710TIP3    H232072   2.835   4.246   1.993
10711TIP3   OH232073   6.716   1.375   5.281
10711TIP3    H132074   6.780   1.445   5.287
10711TIP3    H232075   6.657   1.390   5.355
10712TIP3   OH232076   0.902   1.565   6.531
10712TIP3    H132077   0.903   1.513   6.450
10712TIP3    H232078   0.909   1.656   6.500
10713TIP3   OH232079   0.904   6.237   3.447
10713TIP3    H132080   0.815   6.207   3.428
10713TIP3    H232081   0.910   6.323   3.405
10714TIP3   OH232082   4.388   0.866   2.717
10714TIP3    H132083   4.440   0.802   2.766
10714TIP3    H232084   4.376   0.938   2.778
10715TIP3   OH232085   0.459   5.223   1.553
10715TIP3    H132086   0.400   5.218   1.627
10715TIP3    H232087   0.443   5.309   1.514
10716TIP3   OH232088   4.372   3.527   5.836
10716TIP3    H132089   4.395   3.613   5.872
10716TIP3    H232090   4.280   3.536   5.810
10717TIP3   OH232091   7.609   7.781   4.672
10717TIP3    H132092   7.540   7.840   4.642
10717TIP3    H232093   7.576   7.744   4.754
10718TIP3   OH232094   2.564   5.917   5.410
10718TIP3    H132095   2.525   5.835   5.382
10718TIP3    H232096   2.490   5.975   5.428
10719TIP3   OH232097   1.734   1.018   0.684
10719TIP3    H132098   1.829   1.032   0.690
10719TIP3    H232099   1.699   1.056   0.765
10720TIP3   OH232100   3.831   2.227   4.023
10720TIP3    H132101   3.740   2.245   4.044
10720TIP3    H232102   3.873   2.211   4.108
10721TIP3   OH232103   8.333   6.861   1.858
10721TIP3    H132104   8.332   6.767   1.873
10721TIP3    H232105   8.422   6.888   1.883
10722TIP3   OH232106   7.698   2.711   5.316
10722TIP3    H132107   7.602   2.715   5.308
10722TIP3    H232108   7.714   2.737   5.407
10723TIP3   OH232109   5.499   3.423   4.154
10723TIP3    H132110   5.458   3.479   4.088
10723TIP3    H232111   5.453   3.445   4.235
10724TIP3   OH232112   5.713   7.014   1.941
10724TIP3    H132113   5.781   6.972   1.886
10724TIP3    H232114   5.727   7.108   1.927
10725TIP3   OH232115   2.572   6.430   3.158
10725TIP3    H132116   2.494   6.483   3.177
10725TIP3    H232117   2.555   6.392   3.072
10726TIP3   OH232118   7.549   4.721   5.537
10726TIP3    H132119   7.553   4.815   5.522
10726TIP3    H232120   7.544   4.712   5.632
10727TIP3   OH232121   1.338   3.090   2.440
10727TIP3    H132122   1.341   3.148   2.363
10727TIP3    H232123   1.313   3.147   2.512
10728TIP3   OH232124   5.569   5.854   1.560
10728TIP3    H132125   5.558   5.825   1.650
10728TIP3    H232126   5.645   5.804   1.528
10729TIP3   OH232127   7.021   4.255   4.034
10729TIP3    H132128   7.058   4.314   3.969
10729TIP3    H232129   6.927   4.275   4.034
10730TIP3   OH232130   6.152   2.787   3.373
10730TIP3    H132131   6.224   2.728   3.351
10730TIP3    H232132   6.120   2.755   3.458
10731TIP3   OH232133   3.851   1.631   5.597
10731TIP3    H132134   3.772   1.681   5.619
10731TIP3    H232135   3.826   1.579   5.521
10732TIP3   OH232136   2.207   1.208   6.589
10732TIP3    H132137   2.195   1.292   6.633
10732TIP3    H232138   2.119   1.169   6.588
10733TIP3   OH232139   4.705   6.967   4.826
10733TIP3    H132140   4.692   7.002   4.738
10733TIP3    H232141   4.799   6.973   4.841
10734TIP3   OH232142   3.063   6.003   2.781
10734TIP3    H132143   3.012   5.956   2.848
10734TIP3    H232144   3.154   5.984   2.802
10735TIP3   OH232145   6.156   4.541   6.418
10735TIP3    H132146   6.189   4.602   6.483
10735TIP3    H232147   6.151   4.457   6.463
10736TIP3   OH232148   0.657   0.275   6.243
10736TIP3    H132149   0.647   0.188   6.203
10736TIP3    H232150   0.574   0.319   6.226
10737TIP3   OH232151   5.823   0.707   3.822
10737TIP3    H132152   5.901   0.669   3.863
10737TIP3    H232153   5.855   0.786   3.779
10738TIP3   OH232154   4.568   7.576   5.827
10738TIP3    H132155   4.639   7.513   5.839
10738TIP3    H232156   4.549   7.573   5.733
10739TIP3   OH232157   6.158   6.679   5.272
10739TIP3    H132158   6.154   6.638   5.359
10739TIP3    H232159   6.131   6.769   5.287
10740TIP3   OH232160   4.625   6.738   3.540
10740TIP3    H132161   4.702   6.761   3.487
10740TIP3    H232162   4.559   6.802   3.515
10741TIP3   OH232163   1.336   0.901   5.665
10741TIP3    H132164   1.327   0.900   5.570
10741TIP3    H232165   1.296   0.820   5.695
10742TIP3   OH232166   6.526   1.342   4.655
10742TIP3    H132167   6.473   1.421   4.665
10742TIP3    H232168   6.520   1.321   4.561
10743TIP3   OH232169   5.237   1.568   2.973
10743TIP3    H132170   5.199   1.612   3.048
10743TIP3    H232171   5.162   1.538   2.922
10744TIP3   OH232172   2.470   3.333   2.872
10744TIP3    H132173   2.549   3.297   2.913
10744TIP3    H232174   2.455   3.415   2.919
10745TIP3   OH232175   2.094   3.802   4.470
10745TIP3    H132176   2.182   3.809   4.507
10745TIP3    H232177   2.038   3.849   4.533
10746TIP3   OH232178   1.691   7.291   2.573
10746TIP3    H132179   1.666   7.227   2.506
10746TIP3    H232180   1.638   7.267   2.650
10747TIP3   OH232181   7.681   4.951   3.737
10747TIP3    H132182   7.616   4.987   3.677
10747TIP3    H232183   7.736   4.895   3.683
10748TIP3   OH232184   1.072   6.828   2.313
10748TIP3    H132185   1.136   6.858   2.248
10748TIP3    H232186   0.996   6.885   2.299
10749TIP3   OH232187   3.798   6.896   5.237
10749TIP3    H132188   3.799   6.942   5.321
10749TIP3    H232189   3.717   6.846   5.238
10750TIP3   OH232190   3.153   0.755   0.073
10750TIP3    H132191   3.129   0.675   0.120
10750TIP3    H232192   3.081   0.770   0.012
10751TIP3   OH232193   7.492   0.861   3.279
10751TIP3    H132194   7.550   0.881   3.353
10751TIP3    H232195   7.415   0.822   3.319
10752TIP3   OH232196   1.577   6.778   5.784
10752TIP3    H132197   1.562   6.771   5.878
10752TIP3    H232198   1.494   6.751   5.745
10753TIP3   OH232199   5.610   2.132   3.048
10753TIP3    H132200   5.630   2.225   3.040
10753TIP3    H232201   5.601   2.102   2.957
10754TIP3   OH232202   0.260   0.167   3.435
10754TIP3    H132203   0.226   0.168   3.345
10754TIP3    H232204   0.238   0.080   3.468
10755TIP3   OH232205   0.518   5.540   3.108
10755TIP3    H132206   0.499   5.628   3.076
10755TIP3    H232207   0.447   5.521   3.170
10756TIP3   OH232208   1.135   5.037   1.517
10756TIP3    H132209   1.152   4.968   1.453
10756TIP3    H232210   1.102   4.991   1.594
10757TIP3   OH232211   3.886   2.041   6.385
10757TIP3    H132212   3.862   2.102   6.315
10757TIP3    H232213   3.812   1.980   6.390
10758TIP3   OH232214   2.219   5.205   6.130
10758TIP3    H132215   2.134   5.165   6.146
10758TIP3    H232216   2.265   5.142   6.075
10759TIP3   OH232217   7.860   1.569   3.996
10759TIP3    H132218   7.831   1.579   3.905
10759TIP3    H232219   7.821   1.486   4.025
10760TIP3   OH232220   6.006   2.099   1.018
10760TIP3    H132221   5.982   2.089   0.925
10760TIP3    H232222   6.098   2.075   1.021
10761TIP3   OH232223   3.710   4.157   2.983
10761TIP3    H132224   3.655   4.091   3.023
10761TIP3    H232225   3.792   4.154   3.033
10762TIP3   OH232226   5.233   3.737   3.392
10762TIP3    H132227   5.251   3.644   3.376
10762TIP3    H232228   5.199   3.739   3.482
10763TIP3   OH232229   1.999   0.484   5.007
10763TIP3    H132230   1.997   0.541   5.084
10763TIP3    H232231   1.950   0.533   4.941
10764TIP3   OH232232   0.141   4.225   2.264
10764TIP3    H132233   0.118   4.134   2.246
10764TIP3    H232234   0.137   4.232   2.359
10765TIP3   OH232235   2.868   4.326   5.603
10765TIP3    H132236   2.946   4.298   5.556
10765TIP3    H232237   2.802   4.339   5.535
10766TIP3   OH232238   1.429   4.521   5.318
10766TIP3    H132239   1.374   4.599   5.317
10766TIP3    H232240   1.497   4.541   5.383
10767TIP3   OH232241   4.743   5.269   0.869
10767TIP3    H132242   4.687   5.304   0.799
10767TIP3    H232243   4.828   5.310   0.855
10768TIP3   OH232244   6.092   2.819   0.054
10768TIP3    H132245   6.082   2.724   0.050
10768TIP3    H232246   6.160   2.839  -0.010
10769TIP3   OH232247   3.065   5.982   4.854
10769TIP3    H132248   3.114   6.037   4.915
10769TIP3    H232249   3.074   5.893   4.888
10770TIP3   OH232250   0.258   2.856   0.965
10770TIP3    H132251   0.245   2.823   1.054
10770TIP3    H232252   0.353   2.859   0.954
10771TIP3   OH232253   5.455   3.551   0.294
10771TIP3    H132254   5.383   3.489   0.298
10771TIP3    H232255   5.534   3.497   0.291
10772TIP3   OH232256   0.242   6.891   4.773
10772TIP3    H132257   0.277   6.947   4.843
10772TIP3    H232258   0.179   6.947   4.727
10773TIP3   OH232259   4.428   1.708   2.579
10773TIP3    H132260   4.376   1.721   2.658
10773TIP3    H232261   4.364   1.712   2.508
10774TIP3   OH232262   2.156   2.450   4.107
10774TIP3    H132263   2.190   2.374   4.154
10774TIP3    H232264   2.132   2.416   4.020
10775TIP3   OH232265   3.566   2.272   4.062
10775TIP3    H132266   3.514   2.350   4.041
10775TIP3    H232267   3.501   2.203   4.077
10776TIP3   OH232268   0.440   4.713   3.973
10776TIP3    H132269   0.514   4.719   3.913
10776TIP3    H232270   0.367   4.684   3.917
10777TIP3   OH232271   3.692   1.713   3.519
10777TIP3    H132272   3.769   1.676   3.478
10777TIP3    H232273   3.723   1.747   3.603
10778TIP3   OH232274   3.251   0.425   3.043
10778TIP3    H132275   3.224   0.394   2.957
10778TIP3    H232276   3.345   0.442   3.034
10779TIP3   OH232277   1.698   1.929   3.181
10779TIP3    H132278   1.680   1.852   3.128
10779TIP3    H232279   1.621   1.985   3.169
10780TIP3   OH232280   5.101   2.541   3.025
10780TIP3    H132281   5.076   2.476   3.091
10780TIP3    H232282   5.080   2.625   3.065
10781TIP3   OH232283   5.530   6.223   2.955
10781TIP3    H132284   5.455   6.222   2.896
10781TIP3    H232285   5.520   6.144   3.009
10782TIP3   OH232286   1.781   6.509   5.133
10782TIP3    H132287   1.753   6.588   5.088
10782TIP3    H232288   1.709   6.489   5.194
10783TIP3   OH232289   7.394   5.246   4.474
10783TIP3    H132290   7.475   5.201   4.449
10783TIP3    H232291   7.415   5.287   4.558
10784TIP3   OH232292   0.302   6.149   2.267
10784TIP3    H132293   0.325   6.088   2.337
10784TIP3    H232294   0.206   6.145   2.262
10785TIP3   OH232295   7.039   0.074   1.361
10785TIP3    H132296   6.946   0.094   1.352
10785TIP3    H232297   7.048   0.045   1.452
10786TIP3   OH232298   4.536   0.945   6.557
10786TIP3    H132299   4.608   0.930   6.618
10786TIP3    H232300   4.570   1.010   6.495
10787TIP3   OH232301   7.385   6.708   6.446
10787TIP3    H132302   7.371   6.757   6.527
10787TIP3    H232303   7.300   6.710   6.402
10788TIP3   OH232304   1.254   7.434   0.576
10788TIP3    H132305   1.343   7.404   0.556
10788TIP3    H232306   1.197   7.370   0.533
10789TIP3   OH232307   1.333   2.502   5.183
10789TIP3    H132308   1.247   2.466   5.207
10789TIP3    H232309   1.342   2.484   5.090
10790TIP3   OH232310   7.811   0.394   1.356
10790TIP3    H132311   7.821   0.328   1.287
10790TIP3    H232312   7.894   0.391   1.404
10791TIP3   OH232313   0.604   7.378   5.557
10791TIP3    H132314   0.529   7.359   5.501
10791TIP3    H232315   0.663   7.429   5.500
10792TIP3   OH232316   5.984   3.391   0.868
10792TIP3    H132317   6.032   3.360   0.791
10792TIP3    H232318   6.007   3.330   0.938
10793TIP3   OH232319   0.058   7.942   5.098
10793TIP3    H132320   0.042   7.864   5.152
10793TIP3    H232321   0.028   7.917   5.011
10794TIP3   OH232322   3.894   6.429   4.698
10794TIP3    H132323   3.883   6.334   4.696
10794TIP3    H232324   3.846   6.457   4.776
10795TIP3   OH232325   0.322   2.758   2.424
10795TIP3    H132326   0.325   2.666   2.450
10795TIP3    H232327   0.235   2.771   2.388
10796TIP3   OH232328   7.288   4.961   3.117
10796TIP3    H132329   7.300   5.042   3.068
10796TIP3    H232330   7.377   4.926   3.129
10797TIP3   OH232331   4.086   6.079   6.176
10797TIP3    H132332   4.047   6.025   6.244
10797TIP3    H232333   4.096   6.021   6.101
10798TIP3   OH232334   8.341   3.961   2.854
10798TIP3    H132335   8.303   3.946   2.941
10798TIP3    H232336   8.413   3.898   2.848
10799TIP3   OH232337   0.395   7.404   0.776
10799TIP3    H132338   0.440   7.462   0.715
10799TIP3    H232339   0.375   7.459   0.852
10800TIP3   OH232340   7.151   5.794   2.956
10800TIP3    H132341   7.090   5.722   2.945
10800TIP3    H232342   7.199   5.773   3.036
10801TIP3   OH232343   1.383   5.093   2.620
10801TIP3    H132344   1.454   5.155   2.636
10801TIP3    H232345   1.310   5.147   2.588
10802TIP3   OH232346   0.768   4.484   6.739
10802TIP3    H132347   0.717   4.528   6.806
10802TIP3    H232348   0.817   4.554   6.696
10803TIP3   OH232349   4.453   4.469   3.048
10803TIP3    H132350   4.455   4.545   2.990
10803TIP3    H232351   4.479   4.396   2.993
10804TIP3   OH232352   6.078   6.611   6.104
10804TIP3    H132353   6.044   6.646   6.021
10804TIP3    H232354   6.071   6.516   6.095
10805TIP3   OH232355   7.928   2.189   2.612
10805TIP3    H132356   7.837   2.217   2.602
10805TIP3    H232357   7.971   2.262   2.658
10806TIP3   OH232358   7.779   6.367   5.078
10806TIP3    H132359   7.832   6.289   5.099
10806TIP3    H232360   7.689   6.341   5.096
10807TIP3   OH232361   6.931   6.563   3.873
10807TIP3    H132362   6.996   6.629   3.896
10807TIP3    H232363   6.966   6.520   3.795
10808TIP3   OH232364   7.806   1.326   1.943
10808TIP3    H132365   7.879   1.293   1.891
10808TIP3    H232366   7.744   1.360   1.879
10809TIP3   OH232367   3.083   7.023   5.005
10809TIP3    H132368   3.049   7.004   4.918
10809TIP3    H232369   3.134   7.103   4.994
10810TIP3   OH232370   2.786   7.085   2.663
10810TIP3    H132371   2.779   7.090   2.567
10810TIP3    H232372   2.801   6.992   2.681
10811TIP3   OH232373   2.355   5.253   3.617
10811TIP3    H132374   2.417   5.195   3.572
10811TIP3    H232375   2.330   5.318   3.551
10812TIP3   OH232376   7.950   1.741   3.135
10812TIP3    H132377   7.979   1.772   3.049
10812TIP3    H232378   7.876   1.684   3.117
10813TIP3   OH232379   5.732   1.840   4.608
10813TIP3    H132380   5.791   1.779   4.563
10813TIP3    H232381   5.754   1.830   4.701
10814TIP3   OH232382   2.395   7.622   4.407
10814TIP3    H132383   2.433   7.623   4.495
10814TIP3    H232384   2.458   7.671   4.354
10815TIP3   OH232385   3.895   3.353   6.738
10815TIP3    H132386   3.828   3.292   6.708
10815TIP3    H232387   3.978   3.314   6.708
10816TIP3   OH232388   3.119   7.819   6.330
10816TIP3    H132389   3.200   7.775   6.305
10816TIP3    H232390   3.140   7.861   6.414
10817TIP3   OH232391   3.378   6.150   3.333
10817TIP3    H132392   3.371   6.136   3.239
10817TIP3    H232393   3.318   6.223   3.351
10818TIP3   OH232394   4.035   2.791   6.065
10818TIP3    H132395   3.978   2.857   6.026
10818TIP3    H232396   4.079   2.750   5.991
10819TIP3   OH232397   5.229   6.897   2.816
10819TIP3    H132398   5.307   6.912   2.763
10819TIP3    H232399   5.256   6.833   2.882
10820TIP3   OH232400   1.434   5.019   6.163
10820TIP3    H132401   1.354   5.051   6.204
10820TIP3    H232402   1.504   5.068   6.207
10821TIP3   OH232403   5.082   1.465   4.185
10821TIP3    H132404   5.024   1.495   4.114
10821TIP3    H232405   5.140   1.402   4.144
10822TIP3   OH232406   3.784   0.105   1.600
10822TIP3    H132407   3.821   0.132   1.684
10822TIP3    H232408   3.697   0.069   1.622
10823TIP3   OH232409   2.554   3.031   5.839
10823TIP3    H132410   2.535   2.945   5.878
10823TIP3    H232411   2.546   3.093   5.911
10824TIP3   OH232412   1.230   3.870   2.682
10824TIP3    H132413   1.245   3.946   2.626
10824TIP3    H232414   1.199   3.802   2.621
10825TIP3   OH232415   3.384   7.277   1.041
10825TIP3    H132416   3.337   7.261   0.959
10825TIP3    H232417   3.465   7.321   1.014
10826TIP3   OH232418   2.557   0.294   3.428
10826TIP3    H132419   2.542   0.283   3.334
10826TIP3    H232420   2.538   0.387   3.444
10827TIP3   OH232421   0.042   0.530   5.773
10827TIP3    H132422   0.108   0.537   5.842
10827TIP3    H232423  -0.032   0.485   5.814
10828TIP3   OH232424   6.397   6.217   4.076
10828TIP3    H132425   6.334   6.170   4.022
10828TIP3    H232426   6.352   6.299   4.099
10829TIP3   OH232427   2.753   2.770   3.394
10829TIP3    H132428   2.743   2.738   3.304
10829TIP3    H232429   2.726   2.862   3.390
10830TIP3   OH232430   7.508   4.181   4.412
10830TIP3    H132431   7.516   4.256   4.353
10830TIP3    H232432   7.459   4.116   4.361
10831TIP3   OH232433   6.964   3.881   6.499
10831TIP3    H132434   6.952   3.924   6.414
10831TIP3    H232435   6.893   3.915   6.554
10832TIP3   OH232436   0.345   2.511   4.972
10832TIP3    H132437   0.383   2.446   4.914
10832TIP3    H232438   0.413   2.527   5.038
10833TIP3   OH232439   7.640   2.837   1.106
10833TIP3    H132440   7.647   2.759   1.160
10833TIP3    H232441   7.717   2.834   1.049
10834TIP3   OH232442   4.959   6.962   3.108
10834TIP3    H132443   4.975   7.057   3.106
10834TIP3    H232444   5.008   6.928   3.034
10835TIP3   OH232445   5.351   0.459   5.607
10835TIP3    H132446   5.342   0.504   5.691
10835TIP3    H232447   5.301   0.513   5.545
10836TIP3   OH232448   3.571   6.543   3.553
10836TIP3    H132449   3.554   6.448   3.551
10836TIP3    H232450   3.659   6.551   3.590
10837TIP3   OH232451   5.273   3.362   1.116
10837TIP3    H132452   5.364   3.343   1.140
10837TIP3    H232453   5.230   3.277   1.113
10838TIP3   OH232454   8.034   0.793   2.603
10838TIP3    H132455   8.037   0.888   2.616
10838TIP3    H232456   7.961   0.764   2.658
10839TIP3   OH232457   8.177   4.498   5.446
10839TIP3    H132458   8.106   4.560   5.466
10839TIP3    H232459   8.212   4.474   5.531
10840TIP3   OH232460   1.521   1.412   3.589
10840TIP3    H132461   1.486   1.441   3.673
10840TIP3    H232462   1.616   1.417   3.600
10841TIP3   OH232463   3.219   0.068   2.360
10841TIP3    H132464   3.138   0.067   2.411
10841TIP3    H232465   3.204   0.133   2.291
10842TIP3   OH232466   3.598   7.670   3.001
10842TIP3    H132467   3.531   7.719   2.954
10842TIP3    H232468   3.586   7.694   3.093
10843TIP3   OH232469   7.878   0.181   4.142
10843TIP3    H132470   7.923   0.250   4.094
10843TIP3    H232471   7.786   0.187   4.114
10844TIP3   OH232472   0.499   7.318   4.388
10844TIP3    H132473   0.528   7.226   4.386
10844TIP3    H232474   0.411   7.315   4.351
10845TIP3   OH232475   7.225   1.896   6.329
10845TIP3    H132476   7.190   1.882   6.417
10845TIP3    H232477   7.204   1.815   6.282
10846TIP3   OH232478   0.997   5.677   0.424
10846TIP3    H132479   1.056   5.660   0.498
10846TIP3    H232480   0.914   5.639   0.451
10847TIP3   OH232481   2.003   3.176   1.476
10847TIP3    H132482   1.930   3.196   1.417
10847TIP3    H232483   2.055   3.111   1.428
10848TIP3   OH232484   3.148   6.474   2.759
10848TIP3    H132485   3.207   6.508   2.827
10848TIP3    H232486   3.120   6.552   2.712
10849TIP3   OH232487   7.276   0.712   3.390
10849TIP3    H132488   7.326   0.632   3.401
10849TIP3    H232489   7.191   0.693   3.429
10850TIP3   OH232490   2.268   1.888   0.886
10850TIP3    H132491   2.344   1.866   0.833
10850TIP3    H232492   2.193   1.854   0.837
10851TIP3   OH232493   6.512   4.157   1.642
10851TIP3    H132494   6.450   4.222   1.609
10851TIP3    H232495   6.462   4.106   1.705
10852TIP3   OH232496   3.424   7.159   1.815
10852TIP3    H132497   3.491   7.223   1.794
10852TIP3    H232498   3.346   7.210   1.835
10853TIP3   OH232499   6.508   0.064   0.779
10853TIP3    H132500   6.528  -0.014   0.729
10853TIP3    H232501   6.519   0.136   0.717
10854TIP3   OH232502   7.463   6.277   0.784
10854TIP3    H132503   7.483   6.208   0.721
10854TIP3    H232504   7.368   6.272   0.796
10855TIP3   OH232505   3.295   6.233   5.197
10855TIP3    H132506   3.385   6.247   5.224
10855TIP3    H232507   3.299   6.231   5.101
10856TIP3   OH232508   0.754   7.137   3.390
10856TIP3    H132509   0.815   7.172   3.455
10856TIP3    H232510   0.790   7.164   3.306
10857TIP3   OH232511   2.080   1.721   0.701
10857TIP3    H132512   1.986   1.710   0.716
10857TIP3    H232513   2.086   1.751   0.610
10858TIP3   OH232514   0.903   0.641   1.891
10858TIP3    H132515   0.923   0.550   1.870
10858TIP3    H232516   0.944   0.655   1.977
10859TIP3   OH232517   3.923   5.542   6.515
10859TIP3    H132518   3.997   5.481   6.505
10859TIP3    H232519   3.849   5.485   6.535
10860TIP3   OH232520   0.382   6.278   0.134
10860TIP3    H132521   0.359   6.297   0.226
10860TIP3    H232522   0.360   6.359   0.088
10861TIP3   OH232523   1.193   7.854   6.268
10861TIP3    H132524   1.286   7.876   6.263
10861TIP3    H232525   1.189   7.775   6.322
10862TIP3   OH232526   4.538   7.518   5.555
10862TIP3    H132527   4.583   7.465   5.490
10862TIP3    H232528   4.532   7.605   5.515
10863TIP3   OH232529   3.558   2.678   4.225
10863TIP3    H132530   3.511   2.710   4.302
10863TIP3    H232531   3.577   2.587   4.244
10864TIP3   OH232532   1.678   2.611   0.987
10864TIP3    H132533   1.762   2.650   1.011
10864TIP3    H232534   1.627   2.611   1.069
10865TIP3   OH232535   3.119   6.077   0.701
10865TIP3    H132536   3.063   6.098   0.776
10865TIP3    H232537   3.069   6.014   0.650
10866TIP3   OH232538   1.304   3.725   6.417
10866TIP3    H132539   1.376   3.748   6.476
10866TIP3    H232540   1.234   3.786   6.441
10867TIP3   OH232541   8.288   5.854   3.029
10867TIP3    H132542   8.222   5.912   2.992
10867TIP3    H232543   8.283   5.775   2.975
10868TIP3   OH232544   1.213   1.443   4.522
10868TIP3    H132545   1.144   1.509   4.517
10868TIP3    H232546   1.167   1.360   4.511
10869TIP3   OH232547   1.196   7.865   4.237
10869TIP3    H132548   1.155   7.844   4.154
10869TIP3    H232549   1.260   7.796   4.252
10870TIP3   OH232550   7.506   3.153   1.019
10870TIP3    H132551   7.459   3.109   1.089
10870TIP3    H232552   7.519   3.242   1.052
10871TIP3   OH232553   8.234   1.963   2.390
10871TIP3    H132554   8.284   1.971   2.471
10871TIP3    H232555   8.143   1.960   2.419
10872TIP3   OH232556   2.722   4.932   4.324
10872TIP3    H132557   2.751   5.023   4.322
10872TIP3    H232558   2.764   4.895   4.402
10873TIP3   OH232559   3.279   1.752   6.495
10873TIP3    H132560   3.346   1.737   6.429
10873TIP3    H232561   3.215   1.809   6.452
10874TIP3   OH232562   3.899   0.633   0.336
10874TIP3    H132563   3.956   0.669   0.268
10874TIP3    H232564   3.952   0.631   0.415
10875TIP3   OH232565   4.429   2.384   4.565
10875TIP3    H132566   4.368   2.392   4.492
10875TIP3    H232567   4.479   2.466   4.564
10876TIP3   OH232568   6.555   7.075   2.279
10876TIP3    H132569   6.557   7.114   2.367
10876TIP3    H232570   6.470   7.032   2.275
10877TIP3   OH232571   0.892   1.166   3.564
10877TIP3    H132572   0.805   1.203   3.556
10877TIP3    H232573   0.902   1.110   3.486
10878TIP3   OH232574   7.156   3.709   3.530
10878TIP3    H132575   7.161   3.755   3.447
10878TIP3    H232576   7.238   3.729   3.574
10879TIP3   OH232577   1.185   5.193   4.717
10879TIP3    H132578   1.210   5.274   4.673
10879TIP3    H232579   1.226   5.124   4.664
10880TIP3   OH232580   0.152   1.726   0.036
10880TIP3    H132581   0.215   1.743   0.106
10880TIP3    H232582   0.076   1.780   0.059
10881TIP3   OH232583   4.655   5.117   2.341
10881TIP3    H132584   4.661   5.209   2.314
10881TIP3    H232585   4.742   5.082   2.323
10882TIP3   OH232586   4.195   4.368  -0.014
10882TIP3    H132587   4.231   4.385  -0.101
10882TIP3    H232588   4.221   4.278   0.005
10883TIP3   OH232589   6.570   3.385   4.970
10883TIP3    H132590   6.618   3.368   4.889
10883TIP3    H232591   6.507   3.312   4.976
10884TIP3   OH232592   5.350   6.232   4.099
10884TIP3    H132593   5.274   6.285   4.123
10884TIP3    H232594   5.412   6.244   4.171
10885TIP3   OH232595   7.786   5.095   0.817
10885TIP3    H132596   7.756   5.149   0.891
10885TIP3    H232597   7.794   5.007   0.853
10886TIP3   OH232598   6.141   0.977   0.504
10886TIP3    H132599   6.134   0.974   0.599
10886TIP3    H232600   6.075   1.040   0.477
10887TIP3   OH232601   4.283   4.076   1.472
10887TIP3    H132602   4.318   4.015   1.406
10887TIP3    H232603   4.301   4.163   1.436
10888TIP3   OH232604   6.390   2.118   5.121
10888TIP3    H132605   6.331   2.079   5.057
10888TIP3    H232606   6.477   2.086   5.098
10889TIP3   OH232607   7.339   5.380   5.002
10889TIP3    H132608   7.279   5.317   4.961
10889TIP3    H232609   7.425   5.338   4.997
10890TIP3   OH232610   6.803   0.574   1.148
10890TIP3    H132611   6.815   0.655   1.099
10890TIP3    H232612   6.746   0.598   1.221
10891TIP3   OH232613   6.602   7.413   4.545
10891TIP3    H132614   6.688   7.381   4.516
10891TIP3    H232615   6.613   7.429   4.639
10892TIP3   OH232616   3.596   1.075   0.544
10892TIP3    H132617   3.501   1.061   0.534
10892TIP3    H232618   3.626   0.997   0.590
10893TIP3   OH232619   2.442   4.253   5.610
10893TIP3    H132620   2.362   4.201   5.597
10893TIP3    H232621   2.500   4.195   5.659
10894TIP3   OH232622   2.527   3.523   5.556
10894TIP3    H132623   2.553   3.566   5.474
10894TIP3    H232624   2.609   3.507   5.602
10895TIP3   OH232625   1.553   0.171   2.054
10895TIP3    H132626   1.495   0.117   2.108
10895TIP3    H232627   1.508   0.255   2.047
10896TIP3   OH232628   4.156   0.983   0.501
10896TIP3    H132629   4.243   0.955   0.530
10896TIP3    H232630   4.168   1.010   0.410
10897TIP3   OH232631   5.898   4.632   3.220
10897TIP3    H132632   5.912   4.538   3.213
10897TIP3    H232633   5.954   4.670   3.153
10898TIP3   OH232634   7.087   4.097   3.550
10898TIP3    H132635   7.030   4.051   3.612
10898TIP3    H232636   7.027   4.145   3.493
10899TIP3   OH232637   8.058   7.796   3.203
10899TIP3    H132638   8.015   7.853   3.266
10899TIP3    H232639   8.036   7.834   3.118
10900TIP3   OH232640   6.171   7.271   0.478
10900TIP3    H132641   6.248   7.213   0.477
10900TIP3    H232642   6.193   7.341   0.417
10901TIP3   OH232643   5.532   0.602   2.281
10901TIP3    H132644   5.573   0.545   2.347
10901TIP3    H232645   5.475   0.543   2.231
10902TIP3   OH232646   3.869   7.217   6.599
10902TIP3    H132647   3.786   7.173   6.581
10902TIP3    H232648   3.935   7.148   6.589
10903TIP3   OH232649   4.816   0.280   2.072
10903TIP3    H132650   4.732   0.242   2.100
10903TIP3    H232651   4.866   0.288   2.153
10904TIP3   OH232652   3.974   4.214   1.557
10904TIP3    H132653   4.005   4.295   1.516
10904TIP3    H232654   4.054   4.169   1.583
10905TIP3   OH232655   4.124   6.282   0.001
10905TIP3    H132656   4.071   6.359  -0.020
10905TIP3    H232657   4.178   6.310   0.075
10906TIP3   OH232658   4.887   3.899   1.927
10906TIP3    H132659   4.911   3.875   1.837
10906TIP3    H232660   4.791   3.902   1.926
10907TIP3   OH232661   7.845   4.146   6.007
10907TIP3    H132662   7.834   4.106   6.093
10907TIP3    H232663   7.927   4.111   5.974
10908TIP3   OH232664   3.804   6.783   1.388
10908TIP3    H132665   3.833   6.810   1.301
10908TIP3    H232666   3.789   6.689   1.380
10909TIP3   OH232667   4.591   6.794   6.108
10909TIP3    H132668   4.638   6.812   6.189
10909TIP3    H232669   4.507   6.759   6.136
10910TIP3   OH232670   1.596   5.969   5.713
10910TIP3    H132671   1.599   5.874   5.705
10910TIP3    H232672   1.543   5.998   5.639
10911TIP3   OH232673   0.911   2.510   2.708
10911TIP3    H132674   0.904   2.421   2.673
10911TIP3    H232675   0.933   2.564   2.632
10912TIP3   OH232676   4.913   6.097   0.995
10912TIP3    H132677   4.878   6.049   1.070
10912TIP3    H232678   4.990   6.047   0.968
10913TIP3   OH232679   5.082   0.020   6.518
10913TIP3    H132680   5.049   0.098   6.473
10913TIP3    H232681   5.162  -0.002   6.471
10914TIP3   OH232682   0.677   7.749   3.084
10914TIP3    H132683   0.621   7.780   3.155
10914TIP3    H232684   0.617   7.709   3.021
10915TIP3   OH232685   0.121   5.861   1.309
10915TIP3    H132686   0.193   5.914   1.275
10915TIP3    H232687   0.086   5.815   1.232
10916TIP3   OH232688   3.809   2.869   5.233
10916TIP3    H132689   3.739   2.811   5.264
10916TIP3    H232690   3.886   2.813   5.226
10917TIP3   OH232691   6.164   2.537   0.029
10917TIP3    H132692   6.106   2.474  -0.014
10917TIP3    H232693   6.251   2.518  -0.007
10918TIP3   OH232694   7.709   6.990   6.429
10918TIP3    H132695   7.776   7.051   6.460
10918TIP3    H232696   7.757   6.911   6.406
10919TIP3   OH232697   4.522   5.350   5.780
10919TIP3    H132698   4.517   5.396   5.696
10919TIP3    H232699   4.449   5.288   5.778
10920TIP3   OH232700   0.949   4.932   6.386
10920TIP3    H132701   0.914   4.887   6.308
10920TIP3    H232702   0.883   4.998   6.407
10921TIP3   OH232703   4.854   7.148   2.513
10921TIP3    H132704   4.782   7.097   2.550
10921TIP3    H232705   4.844   7.141   2.419
10922TIP3   OH232706   0.941   2.270   4.426
10922TIP3    H132707   0.972   2.250   4.338
10922TIP3    H232708   1.017   2.255   4.482
10923TIP3   OH232709   5.059   1.443   5.210
10923TIP3    H132710   5.098   1.388   5.142
10923TIP3    H232711   4.976   1.399   5.231
10924TIP3   OH232712   7.207   6.625   4.346
10924TIP3    H132713   7.300   6.605   4.334
10924TIP3    H232714   7.170   6.546   4.386
10925TIP3   OH232715   1.262   4.086   6.685
10925TIP3    H132716   1.287   4.148   6.754
10925TIP3    H232717   1.263   4.138   6.604
10926TIP3   OH232718   6.656   0.585   3.506
10926TIP3    H132719   6.720   0.523   3.471
10926TIP3    H232720   6.674   0.666   3.459
10927TIP3   OH232721   3.358   5.449   0.082
10927TIP3    H132722   3.411   5.372   0.105
10927TIP3    H232723   3.330   5.485   0.167
10928TIP3   OH232724   4.059   3.871   4.815
10928TIP3    H132725   4.025   3.787   4.785
10928TIP3    H232726   4.088   3.856   4.904
10929TIP3   OH232727   1.864   4.107   0.301
10929TIP3    H132728   1.926   4.180   0.313
10929TIP3    H232729   1.876   4.080   0.210
10930TIP3   OH232730   6.382   0.669   6.492
10930TIP3    H132731   6.434   0.740   6.455
10930TIP3    H232732   6.446   0.615   6.540
10931TIP3   OH232733   7.331   6.161   1.953
10931TIP3    H132734   7.240   6.138   1.970
10931TIP3    H232735   7.330   6.199   1.865
10932TIP3   OH232736   6.986   2.209   0.980
10932TIP3    H132737   7.065   2.228   1.030
10932TIP3    H232738   6.949   2.131   1.022
10933TIP3   OH232739   6.776   4.042   0.967
10933TIP3    H132740   6.853   3.998   0.931
10933TIP3    H232741   6.701   3.992   0.934
10934TIP3   OH232742   0.464   2.988   5.940
10934TIP3    H132743   0.488   3.061   5.997
10934TIP3    H232744   0.399   2.939   5.989
10935TIP3   OH232745   4.676   2.473   5.847
10935TIP3    H132746   4.742   2.530   5.806
10935TIP3    H232747   4.673   2.395   5.791
10936TIP3   OH232748   1.426   0.848   6.305
10936TIP3    H132749   1.496   0.783   6.300
10936TIP3    H232750   1.387   0.834   6.392
10937TIP3   OH232751   7.506   5.662   4.216
10937TIP3    H132752   7.482   5.591   4.155
10937TIP3    H232753   7.430   5.720   4.216
10938TIP3   OH232754   8.255   2.542   2.484
10938TIP3    H132755   8.249   2.626   2.530
10938TIP3    H232756   8.348   2.530   2.468
10939TIP3   OH232757   7.041   6.406   1.701
10939TIP3    H132758   7.049   6.474   1.634
10939TIP3    H232759   6.949   6.408   1.727
10940TIP3   OH232760   3.313   4.183   1.138
10940TIP3    H132761   3.343   4.157   1.051
10940TIP3    H232762   3.393   4.204   1.186
10941TIP3   OH232763   2.436   2.847   2.282
10941TIP3    H132764   2.450   2.767   2.232
10941TIP3    H232765   2.390   2.905   2.221
10942TIP3   OH232766   2.659   6.159   6.479
10942TIP3    H132767   2.599   6.102   6.431
10942TIP3    H232768   2.716   6.196   6.412
10943TIP3   OH232769   1.929   3.736   1.663
10943TIP3    H132770   1.943   3.816   1.613
10943TIP3    H232771   1.953   3.760   1.753
10944TIP3   OH232772   0.743   5.963   2.339
10944TIP3    H132773   0.752   5.918   2.255
10944TIP3    H232774   0.703   6.047   2.317
10945TIP3   OH232775   7.461   1.333   3.710
10945TIP3    H132776   7.526   1.341   3.780
10945TIP3    H232777   7.465   1.416   3.663
10946TIP3   OH232778   5.192   2.051   6.043
10946TIP3    H132779   5.243   1.979   6.004
10946TIP3    H232780   5.220   2.129   5.996
10947TIP3   OH232781   7.684   6.780   4.849
10947TIP3    H132782   7.658   6.721   4.778
10947TIP3    H232783   7.605   6.831   4.867
10948TIP3   OH232784   1.928   0.620   3.766
10948TIP3    H132785   1.834   0.626   3.785
10948TIP3    H232786   1.960   0.709   3.778
10949TIP3   OH232787   4.956   6.583   3.725
10949TIP3    H132788   4.902   6.506   3.741
10949TIP3    H232789   5.046   6.552   3.730
10950TIP3   OH232790   8.335   4.083   4.460
10950TIP3    H132791   8.391   4.006   4.470
10950TIP3    H232792   8.260   4.066   4.516
10951TIP3   OH232793   3.988   3.014   4.232
10951TIP3    H132794   4.012   2.941   4.174
10951TIP3    H232795   3.949   3.079   4.174
10952TIP3   OH232796   6.205   4.386   4.205
10952TIP3    H132797   6.275   4.386   4.270
10952TIP3    H232798   6.151   4.311   4.227
10953TIP3   OH232799   1.607   2.059   0.824
10953TIP3    H132800   1.584   2.152   0.813
10953TIP3    H232801   1.597   2.043   0.918
10954TIP3   OH232802   6.169   3.722   2.842
10954TIP3    H132803   6.187   3.683   2.757
10954TIP3    H232804   6.115   3.798   2.823
10955TIP3   OH232805   6.472   2.892   3.112
10955TIP3    H132806   6.396   2.910   3.167
10955TIP3    H232807   6.539   2.863   3.174
10956TIP3   OH232808   3.906   3.703   0.855
10956TIP3    H132809   3.942   3.649   0.925
10956TIP3    H232810   3.881   3.641   0.786
10957TIP3   OH232811   1.576   0.733   4.534
10957TIP3    H132812   1.523   0.654   4.518
10957TIP3    H232813   1.513   0.805   4.532
10958TIP3   OH232814   4.268   7.834   6.651
10958TIP3    H132815   4.199   7.774   6.680
10958TIP3    H232816   4.300   7.795   6.569
10959TIP3   OH232817   8.016   5.470   5.770
10959TIP3    H132818   7.961   5.529   5.822
10959TIP3    H232819   8.104   5.484   5.804
10960TIP3   OH232820   1.334   2.758   1.458
10960TIP3    H132821   1.298   2.702   1.389
10960TIP3    H232822   1.364   2.697   1.525
10961TIP3   OH232823   4.005   2.958   1.559
10961TIP3    H132824   3.998   2.871   1.598
10961TIP3    H232825   4.080   2.951   1.500
10962TIP3   OH232826   8.267   6.701   1.119
10962TIP3    H132827   8.232   6.728   1.034
10962TIP3    H232828   8.300   6.782   1.159
10963TIP3   OH232829   7.803   6.854   5.094
10963TIP3    H132830   7.767   6.831   5.009
10963TIP3    H232831   7.785   6.777   5.149
10964TIP3   OH232832   6.762   3.515   5.171
10964TIP3    H132833   6.712   3.455   5.226
10964TIP3    H232834   6.708   3.526   5.092
10965TIP3   OH232835   8.049   1.529   2.055
10965TIP3    H132836   8.120   1.465   2.063
10965TIP3    H232837   8.080   1.606   2.103
10966TIP3   OH232838   2.823   3.905   3.014
10966TIP3    H132839   2.856   3.908   3.104
10966TIP3    H232840   2.760   3.832   3.014
10967TIP3   OH232841   7.537   6.838   2.686
10967TIP3    H132842   7.540   6.911   2.624
10967TIP3    H232843   7.498   6.766   2.636
10968TIP3   OH232844   5.541   6.250   6.614
10968TIP3    H132845   5.480   6.216   6.679
10968TIP3    H232846   5.533   6.345   6.622
10969TIP3   OH232847   6.747   4.775   0.164
10969TIP3    H132848   6.771   4.683   0.159
10969TIP3    H232849   6.794   4.817   0.093
10970TIP3   OH232850   6.194   6.789   6.629
10970TIP3    H132851   6.105   6.823   6.641
10970TIP3    H232852   6.184   6.716   6.567
10971TIP3   OH232853   7.224   5.890   1.798
10971TIP3    H132854   7.256   5.800   1.801
10971TIP3    H232855   7.212   5.914   1.889
10972TIP3   OH232856   7.967   6.781   4.307
10972TIP3    H132857   7.876   6.807   4.323
10972TIP3    H232858   7.961   6.690   4.278
10973TIP3   OH232859   5.140   7.419   1.595
10973TIP3    H132860   5.189   7.338   1.608
10973TIP3    H232861   5.131   7.457   1.683
10974TIP3   OH232862   6.447   7.753   5.258
10974TIP3    H132863   6.369   7.761   5.312
10974TIP3    H232864   6.518   7.738   5.321
10975TIP3   OH232865   8.203   0.254   3.257
10975TIP3    H132866   8.136   0.268   3.325
10975TIP3    H232867   8.161   0.196   3.194
10976TIP3   OH232868   3.567   3.110   1.391
10976TIP3    H132869   3.480   3.094   1.428
10976TIP3    H232870   3.627   3.106   1.466
10977TIP3   OH232871   4.063   1.822   3.377
10977TIP3    H132872   4.108   1.906   3.381
10977TIP3    H232873   4.005   1.829   3.301
10978TIP3   OH232874   5.678   2.898   3.067
10978TIP3    H132875   5.654   2.825   3.124
10978TIP3    H232876   5.717   2.857   2.990
10979TIP3   OH232877   1.256   6.271   1.585
10979TIP3    H132878   1.283   6.287   1.675
10979TIP3    H232879   1.199   6.194   1.590
10980TIP3   OH232880   6.820   2.465   0.988
10980TIP3    H132881   6.877   2.534   1.021
10980TIP3    H232882   6.869   2.425   0.916
10981TIP3   OH232883   0.537   5.984   3.722
10981TIP3    H132884   0.534   6.001   3.816
10981TIP3    H232885   0.558   5.891   3.715
10982TIP3   OH232886   6.405   6.939   3.030
10982TIP3    H132887   6.413   6.896   3.115
10982TIP3    H232888   6.491   6.926   2.988
10983TIP3   OH232889   7.968   0.957   4.468
10983TIP3    H132890   8.011   0.873   4.485
10983TIP3    H232891   8.035   1.022   4.491
10984TIP3   OH232892   5.723   4.553   0.548
10984TIP3    H132893   5.632   4.580   0.537
10984TIP3    H232894   5.717   4.472   0.600
10985TIP3   OH232895   5.259   6.853   3.932
10985TIP3    H132896   5.178   6.900   3.951
10985TIP3    H232897   5.289   6.889   3.849
10986TIP3   OH232898   1.154   5.942   4.222
10986TIP3    H132899   1.165   5.906   4.310
10986TIP3    H232900   1.126   5.867   4.169
10987TIP3   OH232901   1.726   2.650   0.072
10987TIP3    H132902   1.702   2.558   0.064
10987TIP3    H232903   1.734   2.665   0.166
10988TIP3   OH232904   1.052   5.255   4.458
10988TIP3    H132905   0.978   5.195   4.460
10988TIP3    H232906   1.070   5.267   4.364
10989TIP3   OH232907   4.057   5.009   2.684
10989TIP3    H132908   4.147   4.983   2.701
10989TIP3    H232909   4.028   5.050   2.765
10990TIP3   OH232910   0.306   3.499   5.585
10990TIP3    H132911   0.244   3.540   5.523
10990TIP3    H232912   0.262   3.419   5.613
10991TIP3   OH232913   6.952   6.471   6.660
10991TIP3    H132914   6.914   6.443   6.577
10991TIP3    H232915   7.047   6.461   6.648
10992TIP3   OH232916   7.467   1.674   6.654
10992TIP3    H132917   7.471   1.651   6.561
10992TIP3    H232918   7.552   1.714   6.672
10993TIP3   OH232919   3.830   7.091   4.059
10993TIP3    H132920   3.752   7.145   4.048
10993TIP3    H232921   3.797   7.003   4.077
10994TIP3   OH232922   5.462   7.205   6.816
10994TIP3    H132923   5.434   7.275   6.757
10994TIP3    H232924   5.468   7.246   6.902
10995TIP3   OH232925   8.423   7.128   2.788
10995TIP3    H132926   8.337   7.120   2.748
10995TIP3    H232927   8.476   7.174   2.723
10996TIP3   OH232928   1.958   4.952   3.868
10996TIP3    H132929   1.899   4.913   3.933
10996TIP3    H232930   1.968   4.884   3.801
10997TIP3   OH232931   0.287   0.813   5.566
10997TIP3    H132932   0.242   0.878   5.512
10997TIP3    H232933   0.328   0.865   5.636
10998TIP3   OH232934   4.477   6.302   0.087
10998TIP3    H132935   4.410   6.312   0.155
10998TIP3    H232936   4.496   6.208   0.086
10999TIP3   OH232937   5.851   4.562   1.132
10999TIP3    H132938   5.901   4.555   1.213
10999TIP3    H232939   5.771   4.512   1.148
11000TIP3   OH232940   2.295   3.748   4.223
11000TIP3    H132941   2.334   3.791   4.146
11000TIP3    H232942   2.353   3.772   4.295
11001TIP3   OH232943   0.468   2.968   3.356
11001TIP3    H132944   0.408   3.040   3.335
11001TIP3    H232945   0.434   2.931   3.438
11002TIP3   OH232946   5.280   2.810   6.670
11002TIP3    H132947   5.279   2.716   6.689
11002TIP3    H232948   5.190   2.832   6.648
11003TIP3   OH232949   2.640   6.629   0.654
11003TIP3    H132950   2.632   6.534   0.668
11003TIP3    H232951   2.554   6.664   0.679
11004TIP3   OH232952   0.399   6.746   0.176
11004TIP3    H132953   0.384   6.840   0.165
11004TIP3    H232954   0.484   6.740   0.218
11005TIP3   OH232955   7.076   1.927   2.573
11005TIP3    H132956   6.996   1.875   2.581
11005TIP3    H232957   7.135   1.890   2.639
11006TIP3   OH232958   2.763   1.010   4.970
11006TIP3    H132959   2.762   1.035   4.877
11006TIP3    H232960   2.793   0.919   4.969
11007TIP3   OH232961   2.872   5.930   1.880
11007TIP3    H132962   2.877   5.847   1.833
11007TIP3    H232963   2.787   5.967   1.855
11008TIP3   OH232964   0.242   3.650   2.884
11008TIP3    H132965   0.223   3.740   2.859
11008TIP3    H232966   0.239   3.650   2.980
11009TIP3   OH232967   0.503   7.277   1.205
11009TIP3    H132968   0.497   7.371   1.225
11009TIP3    H232969   0.422   7.257   1.159
11010TIP3   OH232970   0.151   7.350   6.756
11010TIP3    H132971   0.172   7.373   6.666
11010TIP3    H232972   0.205   7.274   6.775
11011TIP3   OH232973   4.680   3.411   6.501
11011TIP3    H132974   4.611   3.385   6.439
11011TIP3    H232975   4.648   3.492   6.540
11012TIP3   OH232976   8.219   3.003   3.759
11012TIP3    H132977   8.157   2.997   3.831
11012TIP3    H232978   8.270   3.081   3.778
11013TIP3   OH232979   6.016   0.084   2.393
11013TIP3    H132980   6.020   0.155   2.456
11013TIP3    H232981   5.923   0.074   2.373
11014TIP3   OH232982   2.747   4.177   3.002
11014TIP3    H132983   2.781   4.091   3.029
11014TIP3    H232984   2.820   4.237   3.017
11015TIP3   OH232985   1.618   5.210   5.231
11015TIP3    H132986   1.687   5.241   5.289
11015TIP3    H232987   1.550   5.178   5.290
11016TIP3   OH232988   8.374   6.182   6.800
11016TIP3    H132989   8.383   6.205   6.892
11016TIP3    H232990   8.308   6.112   6.799
11017TIP3   OH232991   6.244   4.443   5.765
11017TIP3    H132992   6.171   4.436   5.703
11017TIP3    H232993   6.283   4.529   5.746
11018TIP3   OH232994   5.935   3.617   5.457
11018TIP3    H132995   6.022   3.581   5.441
11018TIP3    H232996   5.945   3.711   5.443
11019TIP3   OH232997   2.374   0.104   0.598
11019TIP3    H132998   2.289   0.131   0.564
11019TIP3    H232999   2.437   0.135   0.533
11020TIP3   OH233000   7.847   5.735   4.998
11020TIP3    H133001   7.929   5.735   5.048
11020TIP3    H233002   7.871   5.703   4.912
11021TIP3   OH233003   2.476   4.463   1.771
11021TIP3    H133004   2.389   4.485   1.803
11021TIP3    H233005   2.462   4.386   1.715
11022TIP3   OH233006   6.415   0.462   0.313
11022TIP3    H133007   6.396   0.469   0.406
11022TIP3    H233008   6.340   0.503   0.270
11023TIP3   OH233009   4.334   7.945   3.208
11023TIP3    H133010   4.287   7.863   3.227
11023TIP3    H233011   4.342   7.946   3.113
11024TIP3   OH233012   7.917   5.089   3.436
11024TIP3    H133013   7.899   4.998   3.413
11024TIP3    H233014   7.976   5.083   3.511
11025TIP3   OH233015   4.851   3.210   3.250
11025TIP3    H133016   4.817   3.129   3.289
11025TIP3    H233017   4.830   3.203   3.157
11026TIP3   OH233018   1.420   1.214   5.284
11026TIP3    H133019   1.514   1.214   5.297
11026TIP3    H233020   1.389   1.294   5.328
11027TIP3   OH233021   1.878   6.478   2.490
11027TIP3    H133022   1.943   6.503   2.555
11027TIP3    H233023   1.861   6.385   2.507
11028TIP3   OH233024   1.191   6.931   5.328
11028TIP3    H133025   1.155   6.918   5.240
11028TIP3    H233026   1.204   7.026   5.334
11029TIP3   OH233027   8.179   3.305   0.032
11029TIP3    H133028   8.130   3.232   0.069
11029TIP3    H233029   8.251   3.265  -0.016
11030TIP3   OH233030   7.509   5.369   4.701
11030TIP3    H133031   7.599   5.340   4.715
11030TIP3    H233032   7.497   5.440   4.764
11031TIP3   OH233033   8.046   2.283   1.631
11031TIP3    H133034   8.005   2.355   1.680
11031TIP3    H233035   7.980   2.258   1.566
11032TIP3   OH233036   1.054   5.011   0.156
11032TIP3    H133037   1.095   5.095   0.137
11032TIP3    H233038   1.082   4.990   0.245
11033TIP3   OH233039   0.919   7.857   5.808
11033TIP3    H133040   0.969   7.845   5.728
11033TIP3    H233041   0.979   7.832   5.878
11034TIP3   OH233042   2.190   0.722   1.229
11034TIP3    H133043   2.164   0.807   1.195
11034TIP3    H233044   2.160   0.722   1.320
11035TIP3   OH233045   8.168   7.823   4.625
11035TIP3    H133046   8.128   7.836   4.711
11035TIP3    H233047   8.183   7.728   4.619
11036TIP3   OH233048   4.184   0.192   0.181
11036TIP3    H133049   4.124   0.215   0.252
11036TIP3    H233050   4.195   0.098   0.189
11037TIP3   OH233051   6.274   3.055   4.581
11037TIP3    H133052   6.191   3.092   4.549
11037TIP3    H233053   6.270   3.067   4.676
11038TIP3   OH233054   3.103   6.856   6.580
11038TIP3    H133055   3.187   6.886   6.546
11038TIP3    H233056   3.079   6.783   6.523
11039TIP3   OH233057   3.899   4.413   4.373
11039TIP3    H133058   3.850   4.450   4.300
11039TIP3    H233059   3.865   4.324   4.382
11040TIP3   OH233060   0.629   2.193   5.840
11040TIP3    H133061   0.631   2.258   5.910
11040TIP3    H233062   0.544   2.204   5.798
11041TIP3   OH233063   4.568   6.897   0.953
11041TIP3    H133064   4.602   6.853   0.876
11041TIP3    H233065   4.483   6.857   0.968
11042TIP3   OH233066   2.443   5.205   4.263
11042TIP3    H133067   2.350   5.225   4.251
11042TIP3    H233068   2.443   5.117   4.301
11043TIP3   OH233069   0.555   4.404   3.022
11043TIP3    H133070   0.610   4.445   3.089
11043TIP3    H233071   0.575   4.310   3.028
11044TIP3   OH233072   1.101   4.643   3.663
11044TIP3    H133073   1.179   4.693   3.641
11044TIP3    H233074   1.028   4.704   3.647
11045TIP3   OH233075   7.817   3.002   4.633
11045TIP3    H133076   7.806   2.924   4.689
11045TIP3    H233077   7.906   2.994   4.599
11046TIP3   OH233078   6.858   6.657   6.204
11046TIP3    H133079   6.805   6.688   6.278
11046TIP3    H233080   6.806   6.680   6.127
11047TIP3   OH233081   6.623   0.074   5.301
11047TIP3    H133082   6.656   0.102   5.386
11047TIP3    H233083   6.547   0.019   5.321
11048TIP3   OH233084   4.530   1.520   4.801
11048TIP3    H133085   4.623   1.513   4.823
11048TIP3    H233086   4.491   1.440   4.836
11049TIP3   OH233087   2.091   1.904   4.671
11049TIP3    H133088   2.070   1.940   4.758
11049TIP3    H233089   2.163   1.959   4.639
11050TIP3   OH233090   6.704   3.924   1.436
11050TIP3    H133091   6.764   3.900   1.506
11050TIP3    H233092   6.628   3.867   1.448
11051TIP3   OH233093   6.541   2.100   1.068
11051TIP3    H133094   6.596   2.175   1.086
11051TIP3    H233095   6.581   2.028   1.117
11052TIP3   OH233096   7.275   4.041   0.019
11052TIP3    H133097   7.352   4.097   0.028
11052TIP3    H233098   7.310   3.952   0.027
11053TIP3   OH233099   0.520   3.737   0.483
11053TIP3    H133100   0.601   3.704   0.445
11053TIP3    H233101   0.531   3.728   0.578
11054TIP3   OH233102   6.864   7.651   1.014
11054TIP3    H133103   6.868   7.731   0.962
11054TIP3    H233104   6.905   7.674   1.097
11055TIP3   OH233105   0.921   5.352   2.894
11055TIP3    H133106   0.855   5.386   2.954
11055TIP3    H233107   0.996   5.410   2.906
11056TIP3   OH233108   6.211   7.187   6.038
11056TIP3    H133109   6.305   7.199   6.051
11056TIP3    H233110   6.170   7.235   6.111
11057TIP3   OH233111   6.586   3.136   2.027
11057TIP3    H133112   6.512   3.140   2.087
11057TIP3    H233113   6.576   3.052   1.981
11058TIP3   OH233114   0.856   0.661   1.325
11058TIP3    H133115   0.881   0.711   1.247
11058TIP3    H233116   0.928   0.674   1.386
11059TIP3   OH233117   8.270   7.310   6.758
11059TIP3    H133118   8.287   7.217   6.772
11059TIP3    H233119   8.348   7.355   6.790
11060TIP3   OH233120   3.320   7.148   3.251
11060TIP3    H133121   3.358   7.068   3.285
11060TIP3    H233122   3.394   7.206   3.236
11061TIP3   OH233123   1.573   3.629   3.651
11061TIP3    H133124   1.654   3.624   3.601
11061TIP3    H233125   1.504   3.607   3.587
11062TIP3   OH233126   4.666   2.621   3.165
11062TIP3    H133127   4.611   2.609   3.243
11062TIP3    H233128   4.706   2.535   3.151
11063TIP3   OH233129   2.852   0.905   0.097
11063TIP3    H133130   2.878   0.893   0.006
11063TIP3    H233131   2.773   0.958   0.092
11064TIP3   OH233132   1.124   6.244   0.760
11064TIP3    H133133   1.125   6.227   0.665
11064TIP3    H233134   1.214   6.230   0.787
11065TIP3   OH233135   1.907   0.420   6.454
11065TIP3    H133136   1.818   0.455   6.450
11065TIP3    H233137   1.945   0.460   6.532
11066TIP3   OH233138   4.139   3.788   3.055
11066TIP3    H133139   4.175   3.717   3.001
11066TIP3    H233140   4.058   3.813   3.011
11067TIP3   OH233141   8.138   3.174   0.382
11067TIP3    H133142   8.166   3.248   0.437
11067TIP3    H233143   8.182   3.098   0.420
11068TIP3   OH233144   4.666   1.875   4.463
11068TIP3    H133145   4.572   1.874   4.478
11068TIP3    H233146   4.692   1.966   4.477
11069TIP3   OH233147   0.155   0.072   2.523
11069TIP3    H133148   0.132   0.112   2.439
11069TIP3    H233149   0.071   0.052   2.564
11070TIP3   OH233150   5.659   7.249   1.675
11070TIP3    H133151   5.581   7.194   1.669
11070TIP3    H233152   5.637   7.314   1.741
11071TIP3   OH233153   4.531   6.431   2.760
11071TIP3    H133154   4.601   6.429   2.695
11071TIP3    H233155   4.553   6.504   2.817
11072TIP3   OH233156   2.175   7.256   3.947
11072TIP3    H133157   2.184   7.210   4.030
11072TIP3    H233158   2.085   7.288   3.946
11073TIP3   OH233159   4.954   6.425   0.053
11073TIP3    H133160   5.030   6.390   0.008
11073TIP3    H233161   4.908   6.477  -0.013
11074TIP3   OH233162   4.409   0.119   6.493
11074TIP3    H133163   4.407   0.158   6.405
11074TIP3    H233164   4.484   0.160   6.536
11075TIP3   OH233165   4.920   0.253   4.395
11075TIP3    H133166   4.990   0.189   4.409
11075TIP3    H233167   4.958   0.336   4.425
11076TIP3   OH233168   7.485   5.870   1.921
11076TIP3    H133169   7.453   5.957   1.944
11076TIP3    H233170   7.564   5.886   1.870
11077TIP3   OH233171   0.265   1.882   4.332
11077TIP3    H133172   0.204   1.812   4.310
11077TIP3    H233173   0.325   1.843   4.395
11078TIP3   OH233174   3.909   3.675   4.308
11078TIP3    H133175   3.989   3.626   4.328
11078TIP3    H233176   3.910   3.748   4.370
11079TIP3   OH233177   2.724   7.793   4.760
11079TIP3    H133178   2.699   7.788   4.852
11079TIP3    H233179   2.811   7.834   4.761
11080TIP3   OH233180   0.509   6.307   4.262
11080TIP3    H133181   0.442   6.363   4.302
11080TIP3    H233182   0.592   6.348   4.286
11081TIP3   OH233183   4.637   2.493   5.343
11081TIP3    H133184   4.723   2.450   5.343
11081TIP3    H233185   4.594   2.461   5.264
11082TIP3   OH233186   2.811   6.897   6.041
11082TIP3    H133187   2.874   6.919   5.972
11082TIP3    H233188   2.821   6.967   6.106
11083TIP3   OH233189   7.807   0.510   0.966
11083TIP3    H133190   7.759   0.580   0.922
11083TIP3    H233191   7.741   0.444   0.984
11084TIP3   OH233192   7.758   2.090   5.829
11084TIP3    H133193   7.757   2.127   5.917
11084TIP3    H233194   7.691   2.022   5.830
11085TIP3   OH233195   7.499   0.391   0.945
11085TIP3    H133196   7.476   0.303   0.914
11085TIP3    H233197   7.446   0.450   0.892
11086TIP3   OH233198   0.114   3.312   2.108
11086TIP3    H133199   0.085   3.305   2.017
11086TIP3    H233200   0.037   3.285   2.159
11087TIP3   OH233201   4.726   7.113   3.530
11087TIP3    H133202   4.638   7.088   3.500
11087TIP3    H233203   4.719   7.113   3.626
11088TIP3   OH233204   5.447   4.631   0.469
11088TIP3    H133205   5.384   4.594   0.531
11088TIP3    H233206   5.400   4.705   0.429
11089TIP3   OH233207   4.019   5.561   3.883
11089TIP3    H133208   3.929   5.552   3.915
11089TIP3    H233209   4.021   5.647   3.841
11090TIP3   OH233210   0.283   1.507   0.286
11090TIP3    H133211   0.235   1.473   0.211
11090TIP3    H233212   0.240   1.469   0.362
11091TIP3   OH233213   2.148   1.112   1.715
11091TIP3    H133214   2.169   1.205   1.717
11091TIP3    H233215   2.201   1.074   1.785
11092TIP3   OH233216   6.972   7.385   5.126
11092TIP3    H133217   6.878   7.400   5.137
11092TIP3    H233218   6.982   7.362   5.033
11093TIP3   OH233219   3.858   1.973   0.177
11093TIP3    H133220   3.784   2.006   0.125
11093TIP3    H233221   3.933   1.979   0.118
11094TIP3   OH233222   2.903   5.984   2.410
11094TIP3    H133223   2.855   5.914   2.455
11094TIP3    H233224   2.866   5.986   2.322
11095TIP3   OH233225   6.470   0.860   1.454
11095TIP3    H133226   6.519   0.917   1.394
11095TIP3    H233227   6.538   0.807   1.496
11096TIP3   OH233228   6.201   2.688   5.245
11096TIP3    H133229   6.164   2.613   5.290
11096TIP3    H233230   6.281   2.708   5.293
11097TIP3   OH233231   6.881   7.781   4.877
11097TIP3    H133232   6.854   7.793   4.969
11097TIP3    H233233   6.801   7.751   4.833
11098TIP3   OH233234   1.456   5.989   4.015
11098TIP3    H133235   1.448   6.010   4.107
11098TIP3    H233236   1.445   5.894   4.011
11099TIP3   OH233237   5.473   1.336   4.069
11099TIP3    H133238   5.568   1.326   4.073
11099TIP3    H233239   5.457   1.391   3.992
11100TIP3   OH233240   7.260   7.325   6.539
11100TIP3    H133241   7.320   7.395   6.513
11100TIP3    H233242   7.299   7.288   6.618
11101TIP3   OH233243   1.706   3.956   2.215
11101TIP3    H133244   1.730   4.047   2.228
11101TIP3    H233245   1.680   3.950   2.123
11102TIP3   OH233246   0.652   1.047   0.809
11102TIP3    H133247   0.710   0.998   0.751
11102TIP3    H233248   0.711   1.092   0.870
11103TIP3   OH233249   0.250   4.120   0.677
11103TIP3    H133250   0.165   4.123   0.633
11103TIP3    H233251   0.228   4.096   0.767
11104TIP3   OH233252   1.878   4.128   1.373
11104TIP3    H133253   1.793   4.166   1.395
11104TIP3    H233254   1.941   4.197   1.395
11105TIP3   OH233255   5.542   7.632   5.496
11105TIP3    H133256   5.462   7.592   5.529
11105TIP3    H233257   5.554   7.709   5.552
11106TIP3   OH233258   5.848   2.673   1.814
11106TIP3    H133259   5.799   2.596   1.842
11106TIP3    H233260   5.843   2.671   1.718
11107TIP3   OH233261   3.990   5.679   0.482
11107TIP3    H133262   3.994   5.584   0.498
11107TIP3    H233263   3.950   5.714   0.561
11108TIP3   OH233264   5.299   0.497   5.878
11108TIP3    H133265   5.296   0.504   5.974
11108TIP3    H233266   5.305   0.403   5.862
11109TIP3   OH233267   0.327   5.465   4.521
11109TIP3    H133268   0.339   5.397   4.454
11109TIP3    H233269   0.399   5.527   4.505
11110TIP3   OH233270   4.629   4.412   5.005
11110TIP3    H133271   4.704   4.433   4.950
11110TIP3    H233272   4.567   4.484   4.990
11111TIP3   OH233273   2.834   4.312   5.212
11111TIP3    H133274   2.749   4.345   5.242
11111TIP3    H233275   2.813   4.235   5.161
11112TIP3   OH233276   4.700   5.036   3.203
11112TIP3    H133277   4.665   4.954   3.166
11112TIP3    H233278   4.794   5.021   3.212
11113TIP3   OH233279   1.033   6.933   3.203
11113TIP3    H133280   1.043   6.888   3.119
11113TIP3    H233281   0.997   7.019   3.180
11114TIP3   OH233282   3.367   5.772   3.100
11114TIP3    H133283   3.279   5.738   3.091
11114TIP3    H233284   3.415   5.738   3.025
11115TIP3   OH233285   8.235   7.057   6.485
11115TIP3    H133286   8.273   6.988   6.432
11115TIP3    H233287   8.284   7.055   6.567
11116TIP3   OH233288   8.365   0.243   2.393
11116TIP3    H133289   8.349   0.252   2.300
11116TIP3    H233290   8.346   0.330   2.429
11117TIP3   OH233291   3.414   4.783   5.066
11117TIP3    H133292   3.467   4.819   5.138
11117TIP3    H233293   3.328   4.825   5.076
11118TIP3   OH233294   3.481   0.298   2.869
11118TIP3    H133295   3.476   0.370   2.806
11118TIP3    H233296   3.500   0.340   2.953
11119TIP3   OH233297   0.317   1.304   5.205
11119TIP3    H133298   0.360   1.374   5.157
11119TIP3    H233299   0.225   1.332   5.212
11120TIP3   OH233300   2.380   4.410   3.731
11120TIP3    H133301   2.333   4.485   3.693
11120TIP3    H233302   2.365   4.418   3.825
11121TIP3   OH233303   2.123   7.517   0.579
11121TIP3    H133304   2.120   7.435   0.529
11121TIP3    H233305   2.133   7.489   0.670
11122TIP3   OH233306   7.052   0.978   3.186
11122TIP3    H133307   6.982   0.957   3.248
11122TIP3    H233308   7.008   1.029   3.118
11123TIP3   OH233309   6.509   1.995   3.245
11123TIP3    H133310   6.506   2.026   3.335
11123TIP3    H233311   6.502   1.899   3.252
11124TIP3   OH233312   7.637   0.712   0.852
11124TIP3    H133313   7.542   0.710   0.840
11124TIP3    H233314   7.649   0.742   0.942
11125TIP3   OH233315   6.593   4.322   1.151
11125TIP3    H133316   6.621   4.405   1.189
11125TIP3    H233317   6.647   4.256   1.194
11126TIP3   OH233318   3.465   2.645   2.083
11126TIP3    H133319   3.545   2.598   2.060
11126TIP3    H233320   3.495   2.730   2.116
11127TIP3   OH233321   6.746   5.408   0.226
11127TIP3    H133322   6.808   5.336   0.212
11127TIP3    H233323   6.747   5.456   0.143
11128TIP3   OH233324   6.013   2.236   1.953
11128TIP3    H133325   6.040   2.216   2.042
11128TIP3    H233326   6.018   2.331   1.946
11129TIP3   OH233327   7.449   7.233   1.073
11129TIP3    H133328   7.476   7.269   1.158
11129TIP3    H233329   7.526   7.186   1.042
11130TIP3   OH233330   1.481   1.640   0.212
11130TIP3    H133331   1.477   1.580   0.286
11130TIP3    H233332   1.432   1.595   0.143
11131TIP3   OH233333   7.136   6.999   1.419
11131TIP3    H133334   7.176   7.080   1.388
11131TIP3    H233335   7.144   7.003   1.515
11132TIP3   OH233336   3.347   2.305   3.114
11132TIP3    H133337   3.280   2.249   3.074
11132TIP3    H233338   3.392   2.248   3.176
11133TIP3   OH233339   1.111   5.181   2.592
11133TIP3    H133340   1.029   5.135   2.611
11133TIP3    H233341   1.103   5.265   2.638
11134TIP3   OH233342   3.344   7.580   2.270
11134TIP3    H133343   3.321   7.653   2.213
11134TIP3    H233344   3.358   7.506   2.211
11135TIP3   OH233345   6.412   0.651   2.777
11135TIP3    H133346   6.375   0.597   2.707
11135TIP3    H233347   6.383   0.740   2.757
11136TIP3   OH233348   3.936   0.084   0.998
11136TIP3    H133349   3.889   0.152   0.949
11136TIP3    H233350   4.010   0.062   0.941
11137TIP3   OH233351   0.298   0.758   2.609
11137TIP3    H133352   0.218   0.798   2.575
11137TIP3    H233353   0.305   0.789   2.699
11138TIP3   OH233354   7.122   6.155   2.240
11138TIP3    H133355   7.029   6.149   2.218
11138TIP3    H233356   7.123   6.184   2.331
11139TIP3   OH233357   3.715   2.518   3.735
11139TIP3    H133358   3.632   2.516   3.688
11139TIP3    H233359   3.695   2.563   3.817
11140TIP3   OH233360   1.780   0.379   2.302
11140TIP3    H133361   1.802   0.288   2.283
11140TIP3    H233362   1.856   0.413   2.349
11141TIP3   OH233363   5.121   6.458   2.465
11141TIP3    H133364   5.181   6.529   2.489
11141TIP3    H233365   5.092   6.422   2.549
11142TIP3   OH233366   1.309   4.613   0.681
11142TIP3    H133367   1.253   4.574   0.613
11142TIP3    H233368   1.250   4.624   0.756
11143TIP3   OH233369   4.986   4.465   1.796
11143TIP3    H133370   4.901   4.494   1.763
11143TIP3    H233371   4.999   4.516   1.876
11144TIP3   OH233372   6.965   2.848   6.678
11144TIP3    H133373   6.924   2.783   6.622
11144TIP3    H233374   6.893   2.885   6.729
11145TIP3   OH233375   7.961   3.613   4.629
11145TIP3    H133376   7.998   3.532   4.665
11145TIP3    H233377   7.873   3.618   4.665
11146TIP3   OH233378   1.544   5.729   3.566
11146TIP3    H133379   1.474   5.679   3.608
11146TIP3    H233380   1.560   5.683   3.483
11147TIP3   OH233381   3.143   2.278   1.961
11147TIP3    H133382   3.085   2.202   1.965
11147TIP3    H233383   3.090   2.350   1.994
11148TIP3   OH233384   0.554   5.789   6.016
11148TIP3    H133385   0.531   5.878   5.990
11148TIP3    H233386   0.642   5.797   6.054
11149TIP3   OH233387   6.064   1.137   0.957
11149TIP3    H133388   6.012   1.200   1.007
11149TIP3    H233389   6.011   1.119   0.879
11150TIP3   OH233390   5.198   3.409   2.574
11150TIP3    H133391   5.275   3.376   2.528
11150TIP3    H233392   5.216   3.393   2.666
11151TIP3   OH233393   0.683   3.208   6.451
11151TIP3    H133394   0.677   3.137   6.514
11151TIP3    H233395   0.596   3.215   6.413
11152TIP3   OH233396   1.735   4.960   6.042
11152TIP3    H133397   1.751   5.046   6.002
11152TIP3    H233398   1.688   4.980   6.124
11153TIP3   OH233399   1.971   0.574   2.906
11153TIP3    H133400   2.044   0.543   2.852
11153TIP3    H233401   1.912   0.499   2.912
11154TIP3   OH233402   1.118   5.061   3.596
11154TIP3    H133403   1.187   5.026   3.652
11154TIP3    H233404   1.158   5.137   3.554
11155TIP3   OH233405   1.616   4.981   0.704
11155TIP3    H133406   1.599   5.000   0.796
11155TIP3    H233407   1.690   4.920   0.705
11156TIP3   OH233408   1.231   3.576   5.979
11156TIP3    H133409   1.313   3.542   6.015
11156TIP3    H233410   1.172   3.579   6.054
11157TIP3   OH233411   3.919   0.493  -0.006
11157TIP3    H133412   3.937   0.585  -0.023
11157TIP3    H233413   3.848   0.493   0.058
11158TIP3   OH233414   7.841   4.815   5.003
11158TIP3    H133415   7.906   4.815   5.073
11158TIP3    H233416   7.885   4.771   4.930
11159TIP3   OH233417   0.069   7.573   3.090
11159TIP3    H133418   0.048   7.498   3.035
11159TIP3    H233419  -0.009   7.586   3.144
11160TIP3   OH233420   5.688   5.419   3.243
11160TIP3    H133421   5.750   5.491   3.254
11160TIP3    H233422   5.742   5.340   3.247
11161TIP3   OH233423   6.433   2.782   5.365
11161TIP3    H133424   6.470   2.730   5.435
11161TIP3    H233425   6.506   2.834   5.332
11162TIP3   OH233426   2.996   6.857   3.625
11162TIP3    H133427   2.934   6.900   3.683
11162TIP3    H233428   3.066   6.921   3.612
11163TIP3   OH233429   0.558   4.140   0.465
11163TIP3    H133430   0.605   4.095   0.394
11163TIP3    H233431   0.603   4.114   0.544
11164TIP3   OH233432   0.815   4.124   5.034
11164TIP3    H133433   0.784   4.054   4.977
11164TIP3    H233434   0.842   4.194   4.975
11165TIP3   OH233435   3.407   6.375   1.809
11165TIP3    H133436   3.369   6.432   1.876
11165TIP3    H233437   3.382   6.286   1.836
11166TIP3   OH233438   0.567   4.668   1.827
11166TIP3    H133439   0.565   4.726   1.903
11166TIP3    H233440   0.651   4.623   1.833
11167TIP3   OH233441   1.650   6.414   5.554
11167TIP3    H133442   1.610   6.501   5.549
11167TIP3    H233443   1.648   6.393   5.647
11168TIP3   OH233444   4.654   5.969   4.520
11168TIP3    H133445   4.626   5.948   4.431
11168TIP3    H233446   4.717   6.040   4.509
11169TIP3   OH233447   6.016   6.758   4.208
11169TIP3    H133448   6.058   6.840   4.183
11169TIP3    H233449   5.992   6.717   4.125
11170TIP3   OH233450   1.819   2.395   0.860
11170TIP3    H133451   1.809   2.405   0.766
11170TIP3    H233452   1.771   2.469   0.898
11171TIP3   OH233453   0.315   5.529   0.817
11171TIP3    H133454   0.395   5.486   0.787
11171TIP3    H233455   0.257   5.458   0.843
11172TIP3   OH233456   1.717   4.048   1.587
11172TIP3    H133457   1.712   4.132   1.631
11172TIP3    H233458   1.800   4.050   1.539
11173TIP3   OH233459   5.961   1.686   6.331
11173TIP3    H133460   5.912   1.765   6.352
11173TIP3    H233461   5.932   1.663   6.242
11174TIP3   OH233462   7.595   5.445   2.566
11174TIP3    H133463   7.630   5.505   2.500
11174TIP3    H233464   7.667   5.434   2.628
11175TIP3   OH233465   3.890   6.869   5.721
11175TIP3    H133466   3.861   6.778   5.714
11175TIP3    H233467   3.932   6.874   5.807
11176TIP3   OH233468   6.501   6.199   0.222
11176TIP3    H133469   6.580   6.238   0.185
11176TIP3    H233470   6.490   6.243   0.306
11177TIP3   OH233471   4.725   1.431   6.309
11177TIP3    H133472   4.815   1.438   6.340
11177TIP3    H233473   4.674   1.485   6.370
11178TIP3   OH233474   6.122   4.271   0.542
11178TIP3    H133475   6.112   4.190   0.492
11178TIP3    H233476   6.217   4.282   0.550
11179TIP3   OH233477   5.281   4.362   0.593
11179TIP3    H133478   5.253   4.347   0.683
11179TIP3    H233479   5.363   4.314   0.585
11180TIP3   OH233480   0.049   5.358   5.249
11180TIP3    H133481   0.129   5.383   5.294
11180TIP3    H233482   0.041   5.264   5.265
11181TIP3   OH233483   0.916   7.651   0.098
11181TIP3    H133484   0.891   7.739   0.070
11181TIP3    H233485   0.989   7.665   0.159
11182TIP3   OH233486   3.377   6.714   1.751
11182TIP3    H133487   3.436   6.776   1.793
11182TIP3    H233488   3.428   6.678   1.679
11183TIP3   OH233489   2.840   0.907   4.349
11183TIP3    H133490   2.871   0.866   4.430
11183TIP3    H233491   2.775   0.845   4.315
11184TIP3   OH233492   5.811   1.525   4.949
11184TIP3    H133493   5.763   1.490   4.874
11184TIP3    H233494   5.784   1.616   4.955
11185TIP3   OH233495   0.756   5.424   1.384
11185TIP3    H133496   0.795   5.397   1.467
11185TIP3    H233497   0.738   5.517   1.395
11186TIP3   OH233498   2.828   7.164   3.383
11186TIP3    H133499   2.798   7.090   3.436
11186TIP3    H233500   2.892   7.126   3.323
11187TIP3   OH233501   1.691   1.946   0.585
11187TIP3    H133502   1.650   1.862   0.606
11187TIP3    H233503   1.675   2.000   0.663
11188TIP3   OH233504   0.532   3.579   3.342
11188TIP3    H133505   0.531   3.557   3.248
11188TIP3    H233506   0.618   3.550   3.371
11189TIP3   OH233507   7.279   6.067   3.044
11189TIP3    H133508   7.261   5.974   3.030
11189TIP3    H233509   7.235   6.087   3.127
11190TIP3   OH233510   6.676   2.698   3.643
11190TIP3    H133511   6.725   2.774   3.611
11190TIP3    H233512   6.588   2.731   3.659
11191TIP3   OH233513   5.564   5.305   1.468
11191TIP3    H133514   5.548   5.352   1.550
11191TIP3    H233515   5.550   5.213   1.490
11192TIP3   OH233516   2.705   4.466   6.772
11192TIP3    H133517   2.731   4.512   6.852
11192TIP3    H233518   2.744   4.516   6.701
11193TIP3   OH233519   2.477   7.212   4.429
11193TIP3    H133520   2.430   7.256   4.358
11193TIP3    H233521   2.499   7.126   4.392
11194TIP3   OH233522   7.698   3.167   6.744
11194TIP3    H133523   7.669   3.255   6.720
11194TIP3    H233524   7.658   3.151   6.829
11195TIP3   OH233525   6.311   5.890   6.764
11195TIP3    H133526   6.403   5.898   6.789
11195TIP3    H233527   6.307   5.927   6.676
11196TIP3   OH233528   3.549   2.041   5.935
11196TIP3    H133529   3.493   2.016   6.009
11196TIP3    H233530   3.573   2.133   5.952
11197TIP3   OH233531   4.591   7.331   4.325
11197TIP3    H133532   4.628   7.344   4.238
11197TIP3    H233533   4.559   7.240   4.324
11198TIP3   OH233534   7.550   1.964   6.097
11198TIP3    H133535   7.542   1.949   6.003
11198TIP3    H233536   7.591   1.884   6.130
11199TIP3   OH233537   7.032   1.021   0.937
11199TIP3    H133538   7.084   1.026   0.856
11199TIP3    H233539   6.991   1.107   0.944
11200TIP3   OH233540   1.124   6.741   3.357
11200TIP3    H133541   1.045   6.689   3.375
11200TIP3    H233542   1.090   6.824   3.324
11201TIP3   OH233543   0.781   4.554   1.558
11201TIP3    H133544   0.697   4.572   1.516
11201TIP3    H233545   0.835   4.631   1.539
11202TIP3   OH233546   1.908   7.747   5.844
11202TIP3    H133547   1.818   7.720   5.864
11202TIP3    H233548   1.904   7.778   5.753
11203TIP3   OH233549   6.143   1.508   1.689
11203TIP3    H133550   6.103   1.485   1.773
11203TIP3    H233551   6.234   1.530   1.711
11204TIP3   OH233552   5.296   4.301   3.367
11204TIP3    H133553   5.313   4.388   3.331
11204TIP3    H233554   5.282   4.246   3.289
11205TIP3   OH233555   3.944   1.291   5.296
11205TIP3    H133556   3.903   1.374   5.318
11205TIP3    H233557   3.897   1.261   5.217
11206TIP3   OH233558   3.658   7.357   0.987
11206TIP3    H133559   3.751   7.339   0.990
11206TIP3    H233560   3.651   7.452   0.999
11207TIP3   OH233561   0.532   3.804   4.624
11207TIP3    H133562   0.466   3.871   4.643
11207TIP3    H233563   0.599   3.850   4.574
11208TIP3   OH233564   0.198   6.408   5.330
11208TIP3    H133565   0.153   6.326   5.353
11208TIP3    H233566   0.138   6.477   5.360
11209TIP3   OH233567   3.500   4.945   6.030
11209TIP3    H133568   3.495   5.040   6.039
11209TIP3    H233569   3.409   4.916   6.025
11210TIP3   OH233570   6.549   5.973   0.565
11210TIP3    H133571   6.494   6.045   0.597
11210TIP3    H233572   6.516   5.956   0.476
11211TIP3   OH233573   3.018   6.074   3.395
11211TIP3    H133574   3.059   6.135   3.334
11211TIP3    H233575   3.074   6.075   3.472
11212TIP3   OH233576   4.300   4.689   0.090
11212TIP3    H133577   4.226   4.689   0.029
11212TIP3    H233578   4.311   4.781   0.114
11213TIP3   OH233579   0.575   2.937   4.757
11213TIP3    H133580   0.519   3.004   4.795
11213TIP3    H233581   0.646   2.985   4.715
11214TIP3   OH233582   1.463   0.793   1.991
11214TIP3    H133583   1.486   0.775   2.082
11214TIP3    H233584   1.544   0.827   1.952
11215TIP3   OH233585   6.486   7.651   6.819
11215TIP3    H133586   6.445   7.579   6.867
11215TIP3    H233587   6.511   7.613   6.735
11216TIP3   OH233588   7.154   1.811   3.425
11216TIP3    H133589   7.188   1.889   3.382
11216TIP3    H233590   7.120   1.757   3.354
11217TIP3   OH233591   0.208   2.724   0.736
11217TIP3    H133592   0.128   2.689   0.774
11217TIP3    H233593   0.255   2.763   0.810
11218TIP3   OH233594   4.362   6.033   1.779
11218TIP3    H133595   4.301   6.086   1.829
11218TIP3    H233596   4.448   6.054   1.816
11219TIP3   OH233597   4.527   0.909   3.499
11219TIP3    H133598   4.591   0.920   3.570
11219TIP3    H233599   4.447   0.948   3.533
11220TIP3   OH233600   0.643   2.489   2.811
11220TIP3    H133601   0.736   2.496   2.790
11220TIP3    H233602   0.612   2.415   2.758
11221TIP3   OH233603   4.174   6.313   6.232
11221TIP3    H133604   4.255   6.315   6.182
11221TIP3    H233605   4.150   6.221   6.235
11222TIP3   OH233606   6.505   5.010   6.470
11222TIP3    H133607   6.582   4.997   6.526
11222TIP3    H233608   6.516   4.946   6.399
11223TIP3   OH233609   1.464   7.314   2.333
11223TIP3    H133610   1.415   7.314   2.416
11223TIP3    H233611   1.518   7.235   2.337
11224TIP3   OH233612   4.163   1.403   3.887
11224TIP3    H133613   4.108   1.381   3.962
11224TIP3    H233614   4.247   1.363   3.907
11225TIP3   OH233615   3.634   1.441   4.957
11225TIP3    H133616   3.657   1.524   4.998
11225TIP3    H233617   3.666   1.450   4.867
11226TIP3   OH233618   4.801   1.335   6.767
11226TIP3    H133619   4.791   1.428   6.744
11226TIP3    H233620   4.886   1.331   6.811
11227TIP3   OH233621   7.380   1.673   3.192
11227TIP3    H133622   7.404   1.763   3.172
11227TIP3    H233623   7.287   1.667   3.170
11228TIP3   OH233624   5.642   2.564   6.059
11228TIP3    H133625   5.698   2.552   5.982
11228TIP3    H233626   5.615   2.656   6.054
11229TIP3   OH233627   7.426   1.712   6.066
11229TIP3    H133628   7.497   1.708   6.003
11229TIP3    H233629   7.348   1.732   6.013
11230TIP3   OH233630   0.430   4.401   2.434
11230TIP3    H133631   0.360   4.457   2.466
11230TIP3    H233632   0.493   4.460   2.394
11231TIP3   OH233633   0.311   3.494   4.156
11231TIP3    H133634   0.267   3.487   4.241
11231TIP3    H233635   0.250   3.541   4.100
11232TIP3   OH233636   6.019   7.716   4.923
11232TIP3    H133637   6.072   7.775   4.869
11232TIP3    H233638   5.987   7.771   4.995
11233TIP3   OH233639   1.380   4.606   6.509
11233TIP3    H133640   1.318   4.679   6.502
11233TIP3    H233641   1.434   4.614   6.430
11234TIP3   OH233642   7.584   5.705   5.884
11234TIP3    H133643   7.644   5.658   5.942
11234TIP3    H233644   7.583   5.795   5.918
11235TIP3   OH233645   3.067   7.248   0.684
11235TIP3    H133646   3.152   7.252   0.727
11235TIP3    H233647   3.086   7.222   0.594
11236TIP3   OH233648   1.712   0.661   0.761
11236TIP3    H133649   1.680   0.740   0.804
11236TIP3    H233650   1.790   0.636   0.811
11237TIP3   OH233651   6.691   5.837   1.919
11237TIP3    H133652   6.724   5.911   1.867
11237TIP3    H233653   6.732   5.760   1.880
11238TIP3   OH233654   4.057   1.030   3.568
11238TIP3    H133655   4.008   1.085   3.507
11238TIP3    H233656   3.997   1.014   3.640
11239TIP3   OH233657   4.351   5.414   4.935
11239TIP3    H133658   4.352   5.364   5.017
11239TIP3    H233659   4.360   5.505   4.963
11240TIP3   OH233660   1.646   4.751   3.650
11240TIP3    H133661   1.659   4.842   3.675
11240TIP3    H233662   1.682   4.701   3.724
11241TIP3   OH233663   1.956   4.060   0.048
11241TIP3    H133664   2.022   3.992   0.046
11241TIP3    H233665   2.005   4.142   0.036
11242TIP3   OH233666   3.109   5.882   5.517
11242TIP3    H133667   3.087   5.973   5.498
11242TIP3    H233668   3.024   5.838   5.528
11243TIP3   OH233669   2.173   3.385   5.246
11243TIP3    H133670   2.224   3.402   5.326
11243TIP3    H233671   2.087   3.421   5.265
11244TIP3   OH233672   8.063   5.119   0.760
11244TIP3    H133673   7.985   5.117   0.816
11244TIP3    H233674   8.122   5.181   0.804
11245TIP3   OH233675   2.990   7.570   3.434
11245TIP3    H133676   3.057   7.510   3.401
11245TIP3    H233677   2.967   7.535   3.520
11246TIP3   OH233678   3.932   1.373   4.555
11246TIP3    H133679   4.009   1.379   4.499
11246TIP3    H233680   3.959   1.417   4.636
11247TIP3   OH233681   7.318   3.914   5.761
11247TIP3    H133682   7.394   3.949   5.713
11247TIP3    H233683   7.267   3.870   5.694
11248TIP3   OH233684   0.983   7.841   6.646
11248TIP3    H133685   0.913   7.899   6.617
11248TIP3    H233686   0.948   7.801   6.726
11249TIP3   OH233687   6.328   0.787   0.372
11249TIP3    H133688   6.282   0.712   0.409
11249TIP3    H233689   6.265   0.859   0.379
11250TIP3   OH233690   2.666   0.686   4.768
11250TIP3    H133691   2.723   0.669   4.843
11250TIP3    H233692   2.588   0.726   4.805
11251TIP3   OH233693   7.396   5.579   0.641
11251TIP3    H133694   7.380   5.487   0.665
11251TIP3    H233695   7.393   5.626   0.724
11252TIP3   OH233696   7.051   0.781   0.201
11252TIP3    H133697   7.034   0.714   0.134
11252TIP3    H233698   7.144   0.771   0.221
11253TIP3   OH233699   5.420   5.594   0.392
11253TIP3    H133700   5.337   5.579   0.348
11253TIP3    H233701   5.428   5.520   0.453
11254TIP3   OH233702   0.975   1.834   1.492
11254TIP3    H133703   1.013   1.805   1.409
11254TIP3    H233704   0.891   1.788   1.498
11255TIP3   OH233705   6.791   6.275   6.769
11255TIP3    H133706   6.848   6.347   6.743
11255TIP3    H233707   6.800   6.211   6.698
11256TIP3   OH233708   4.853   5.178   6.594
11256TIP3    H133709   4.926   5.164   6.534
11256TIP3    H233710   4.808   5.256   6.560
11257TIP3   OH233711   2.739   2.380   2.548
11257TIP3    H133712   2.778   2.461   2.515
11257TIP3    H233713   2.761   2.379   2.642
11258TIP3   OH233714   4.688   4.018   0.558
11258TIP3    H133715   4.705   3.939   0.608
11258TIP3    H233716   4.714   3.997   0.469
11259TIP3   OH233717   5.805   0.630   3.014
11259TIP3    H133718   5.751   0.561   3.054
11259TIP3    H233719   5.771   0.638   2.925
11260TIP3   OH233720   6.672   5.133   4.821
11260TIP3    H133721   6.719   5.058   4.859
11260TIP3    H233722   6.646   5.103   4.734
11261TIP3   OH233723   7.664   7.914   4.317
11261TIP3    H133724   7.597   7.848   4.299
11261TIP3    H233725   7.709   7.882   4.395
11262TIP3   OH233726   6.791   1.288   3.900
11262TIP3    H133727   6.856   1.301   3.831
11262TIP3    H233728   6.710   1.271   3.853
11263TIP3   OH233729   7.145   7.321   1.577
11263TIP3    H133730   7.208   7.267   1.528
11263TIP3    H233731   7.059   7.289   1.550
11264TIP3   OH233732   5.372   4.779   3.659
11264TIP3    H133733   5.293   4.741   3.621
11264TIP3    H233734   5.414   4.825   3.586
11265TIP3   OH233735   4.552   0.095   2.137
11265TIP3    H133736   4.491   0.113   2.066
11265TIP3    H233737   4.509   0.025   2.187
11266TIP3   OH233738   6.226   0.873   6.714
11266TIP3    H133739   6.271   0.921   6.783
11266TIP3    H233740   6.284   0.878   6.639
11267TIP3   OH233741   3.923   5.833   2.288
11267TIP3    H133742   3.913   5.926   2.310
11267TIP3    H233743   3.838   5.794   2.308
11268TIP3   OH233744   3.086   2.979   4.937
11268TIP3    H133745   3.097   3.067   4.973
11268TIP3    H233746   3.162   2.968   4.879
11269TIP3   OH233747   7.874   6.221   4.786
11269TIP3    H133748   7.868   6.238   4.692
11269TIP3    H233749   7.809   6.280   4.825
11270TIP3   OH233750   5.632   0.769   0.970
11270TIP3    H133751   5.582   0.687   0.980
11270TIP3    H233752   5.623   0.813   1.054
11271TIP3   OH233753   0.304   1.531   1.195
11271TIP3    H133754   0.226   1.478   1.209
11271TIP3    H233755   0.273   1.622   1.202
11272TIP3   OH233756   3.113   5.498   5.017
11272TIP3    H133757   3.093   5.410   5.049
11272TIP3    H233758   3.063   5.557   5.074
11273TIP3   OH233759   4.072   0.667   0.533
11273TIP3    H133760   4.065   0.589   0.588
11273TIP3    H233761   4.156   0.705   0.556
11274TIP3   OH233762   4.765   1.249   5.019
11274TIP3    H133763   4.824   1.175   5.008
11274TIP3    H233764   4.772   1.273   5.111
11275TIP3   OH233765   1.682   0.370   3.207
11275TIP3    H133766   1.774   0.361   3.182
11275TIP3    H233767   1.681   0.349   3.300
11276TIP3   OH233768   4.857   4.760   6.702
11276TIP3    H133769   4.867   4.833   6.763
11276TIP3    H233770   4.771   4.723   6.723
11277TIP3   OH233771   1.043   2.574   0.322
11277TIP3    H133772   1.009   2.655   0.359
11277TIP3    H233773   1.086   2.600   0.241
11278TIP3   OH233774   0.553   7.803   4.580
11278TIP3    H133775   0.468   7.829   4.618
11278TIP3    H233776   0.587   7.883   4.541
11279TIP3   OH233777   6.461   0.071   4.957
11279TIP3    H133778   6.539   0.122   4.980
11279TIP3    H233779   6.402   0.135   4.916
11280TIP3   OH233780   6.975   3.895   0.863
11280TIP3    H133781   6.950   3.822   0.806
11280TIP3    H233782   7.067   3.877   0.885
11281TIP3   OH233783   0.102   1.457   1.909
11281TIP3    H133784   0.197   1.465   1.904
11281TIP3    H233785   0.077   1.510   1.984
11282TIP3   OH233786   7.388   3.989   1.820
11282TIP3    H133787   7.372   3.896   1.806
11282TIP3    H233788   7.413   4.023   1.734
11283TIP3   OH233789   2.253   1.974   0.266
11283TIP3    H133790   2.347   1.993   0.277
11283TIP3    H233791   2.211   2.059   0.277
11284TIP3   OH233792   5.460   3.855   0.765
11284TIP3    H133793   5.419   3.770   0.778
11284TIP3    H233794   5.553   3.839   0.780
11285TIP3   OH233795   2.995   0.431   5.832
11285TIP3    H133796   2.979   0.495   5.763
11285TIP3    H233797   3.077   0.460   5.873
11286TIP3   OH233798   4.815   2.375   3.103
11286TIP3    H133799   4.897   2.381   3.152
11286TIP3    H233800   4.837   2.408   3.016
11287TIP3   OH233801   0.667   5.467   2.246
11287TIP3    H133802   0.666   5.547   2.300
11287TIP3    H233803   0.591   5.418   2.275
11288TIP3   OH233804   2.755   2.442   5.447
11288TIP3    H133805   2.791   2.385   5.516
11288TIP3    H233806   2.801   2.525   5.460
11289TIP3   OH233807   7.422   6.876   2.197
11289TIP3    H133808   7.500   6.931   2.192
11289TIP3    H233809   7.456   6.786   2.198
11290TIP3   OH233810   7.346   5.658   2.748
11290TIP3    H133811   7.439   5.640   2.762
11290TIP3    H233812   7.313   5.681   2.835
11291TIP3   OH233813   0.319   5.317   5.022
11291TIP3    H133814   0.295   5.410   5.020
11291TIP3    H233815   0.406   5.314   4.982
11292TIP3   OH233816   6.893   6.804   2.654
11292TIP3    H133817   6.857   6.721   2.623
11292TIP3    H233818   6.820   6.865   2.650
11293TIP3   OH233819   8.054   7.373   2.968
11293TIP3    H133820   8.106   7.347   3.043
11293TIP3    H233821   7.971   7.325   2.979
11294TIP3   OH233822   0.725   2.406   4.464
11294TIP3    H133823   0.726   2.441   4.375
11294TIP3    H233824   0.807   2.359   4.473
11295TIP3   OH233825   0.714   7.681   3.500
11295TIP3    H133826   0.757   7.693   3.585
11295TIP3    H233827   0.781   7.644   3.444
11296TIP3   OH233828   3.190   2.592   0.118
11296TIP3    H133829   3.095   2.586   0.130
11296TIP3    H233830   3.207   2.539   0.041
11297TIP3   OH233831   6.023   2.084   6.509
11297TIP3    H133832   5.983   2.124   6.587
11297TIP3    H233833   6.092   2.028   6.544
11298TIP3   OH233834   5.226   6.055   4.821
11298TIP3    H133835   5.227   6.133   4.877
11298TIP3    H233836   5.313   6.016   4.832
11299TIP3   OH233837   2.538   3.246   3.876
11299TIP3    H133838   2.491   3.193   3.812
11299TIP3    H233839   2.526   3.200   3.959
11300TIP3   OH233840   2.241   4.958   0.789
11300TIP3    H133841   2.272   4.932   0.702
11300TIP3    H233842   2.320   4.972   0.840
11301TIP3   OH233843   8.173   7.599   1.129
11301TIP3    H133844   8.105   7.636   1.072
11301TIP3    H233845   8.126   7.572   1.208
11302TIP3   OH233846   7.311   0.538   0.103
11302TIP3    H133847   7.386   0.577   0.058
11302TIP3    H233848   7.313   0.446   0.076
11303TIP3   OH233849   4.463   7.325   0.440
11303TIP3    H133850   4.447   7.361   0.527
11303TIP3    H233851   4.457   7.400   0.381
11304TIP3   OH233852   3.471   7.505   6.715
11304TIP3    H133853   3.442   7.468   6.798
11304TIP3    H233854   3.566   7.490   6.714
11305TIP3   OH233855   7.878   2.112   3.015
11305TIP3    H133856   7.931   2.146   2.943
11305TIP3    H233857   7.836   2.033   2.980
11306TIP3   OH233858   1.352   2.657   4.751
11306TIP3    H133859   1.377   2.749   4.755
11306TIP3    H233860   1.261   2.659   4.721
11307TIP3   OH233861   0.068   0.256   3.601
11307TIP3    H133862   0.115   0.255   3.684
11307TIP3    H233863   0.136   0.261   3.534
11308TIP3   OH233864   0.453   2.856   0.148
11308TIP3    H133865   0.470   2.946   0.176
11308TIP3    H233866   0.509   2.843   0.072
11309TIP3   OH233867   4.548   7.785   2.180
11309TIP3    H133868   4.484   7.844   2.218
11309TIP3    H233869   4.627   7.798   2.232
11310TIP3   OH233870   6.299   2.879   2.888
11310TIP3    H133871   6.354   2.904   2.963
11310TIP3    H233872   6.317   2.786   2.875
11311TIP3   OH233873   2.569   6.534   2.448
11311TIP3    H133874   2.616   6.555   2.367
11311TIP3    H233875   2.629   6.478   2.497
11312TIP3   OH233876   5.137   7.692   2.517
11312TIP3    H133877   5.190   7.616   2.537
11312TIP3    H233878   5.141   7.746   2.596
11313TIP3   OH233879   7.808   3.319   0.310
11313TIP3    H133880   7.838   3.353   0.394
11313TIP3    H233881   7.809   3.224   0.321
11314TIP3   OH233882   3.307   1.591   5.227
11314TIP3    H133883   3.219   1.629   5.221
11314TIP3    H233884   3.294   1.507   5.272
11315TIP3   OH233885   2.411   1.566   1.459
11315TIP3    H133886   2.333   1.607   1.495
11315TIP3    H233887   2.404   1.581   1.364
11316TIP3   OH233888   6.877   5.496   6.135
11316TIP3    H133889   6.912   5.498   6.046
11316TIP3    H233890   6.816   5.570   6.138
11317TIP3   OH233891   6.926   4.265   6.427
11317TIP3    H133892   6.832   4.280   6.442
11317TIP3    H233893   6.955   4.343   6.380
11318TIP3   OH233894   0.084   4.929   1.538
11318TIP3    H133895   0.126   4.922   1.453
11318TIP3    H233896   0.009   4.870   1.533
11319TIP3   OH233897   0.829   5.968   3.150
11319TIP3    H133898   0.831   6.063   3.136
11319TIP3    H233899   0.757   5.955   3.212
11320TIP3   OH233900   6.623   3.736   6.424
11320TIP3    H133901   6.660   3.802   6.482
11320TIP3    H233902   6.588   3.786   6.350
11321TIP3   OH233903   3.765   7.428   0.600
11321TIP3    H133904   3.738   7.518   0.587
11321TIP3    H233905   3.859   7.428   0.581
11322TIP3   OH233906   8.011   6.328   5.684
11322TIP3    H133907   8.068   6.403   5.665
11322TIP3    H233908   7.942   6.364   5.740
11323TIP3   OH233909   2.078   2.868   6.513
11323TIP3    H133910   1.985   2.880   6.492
11323TIP3    H233911   2.088   2.908   6.600
11324TIP3   OH233912   3.513   5.127   0.095
11324TIP3    H133913   3.422   5.122   0.066
11324TIP3    H233914   3.559   5.061   0.044
11325TIP3   OH233915   0.338   5.096   2.177
11325TIP3    H133916   0.277   5.094   2.250
11325TIP3    H233917   0.371   5.186   2.175
11326TIP3   OH233918   3.407   1.260   4.779
11326TIP3    H133919   3.494   1.298   4.763
11326TIP3    H233920   3.401   1.254   4.874
11327TIP3   OH233921   6.673   4.131   0.015
11327TIP3    H133922   6.693   4.201  -0.047
11327TIP3    H233923   6.759   4.103   0.049
11328TIP3   OH233924   5.606   6.873   6.410
11328TIP3    H133925   5.630   6.935   6.479
11328TIP3    H233926   5.535   6.916   6.362
11329TIP3   OH233927   6.385   5.606   0.383
11329TIP3    H133928   6.473   5.628   0.354
11329TIP3    H233929   6.328   5.644   0.316
11330TIP3   OH233930   2.829   4.227   0.242
11330TIP3    H133931   2.785   4.195   0.163
11330TIP3    H233932   2.815   4.322   0.240
11331TIP3   OH233933   5.357   3.917   0.195
11331TIP3    H133934   5.409   3.851   0.150
11331TIP3    H233935   5.379   3.906   0.288
11332TIP3   OH233936   5.573   4.908   6.316
11332TIP3    H133937   5.589   4.819   6.285
11332TIP3    H233938   5.512   4.898   6.389
11333TIP3   OH233939   4.456   1.820   0.643
11333TIP3    H133940   4.487   1.732   0.664
11333TIP3    H233941   4.371   1.807   0.600
11334TIP3   OH233942   2.846   5.251   1.983
11334TIP3    H133943   2.904   5.218   1.914
11334TIP3    H233944   2.835   5.344   1.962
11335TIP3   OH233945   6.997   3.159   2.730
11335TIP3    H133946   7.072   3.103   2.750
11335TIP3    H233947   6.921   3.111   2.763
11336TIP3   OH233948   6.023   4.864   6.684
11336TIP3    H133949   5.932   4.876   6.660
11336TIP3    H233950   6.033   4.769   6.691
11337TIP3   OH233951   7.494   2.470   5.281
11337TIP3    H133952   7.547   2.496   5.356
11337TIP3    H233953   7.405   2.464   5.316
11338TIP3   OH233954   7.444   5.240   0.134
11338TIP3    H133955   7.500   5.275   0.203
11338TIP3    H233956   7.491   5.259   0.053
11339TIP3   OH233957   5.403   6.140   6.157
11339TIP3    H133958   5.424   6.052   6.125
11339TIP3    H233959   5.473   6.160   6.219
11340TIP3   OH233960   3.343   6.934   6.508
11340TIP3    H133961   3.380   7.008   6.459
11340TIP3    H233962   3.407   6.863   6.496
11341TIP3   OH233963   5.660   1.684   6.339
11341TIP3    H133964   5.566   1.703   6.342
11341TIP3    H233965   5.702   1.769   6.356
11342TIP3   OH233966   6.631   7.627   2.897
11342TIP3    H133967   6.642   7.604   2.989
11342TIP3    H233968   6.599   7.717   2.899
11343TIP3   OH233969   0.118   6.036   2.841
11343TIP3    H133970   0.055   6.083   2.897
11343TIP3    H233971   0.201   6.080   2.857
11344TIP3   OH233972   8.451   4.249   6.174
11344TIP3    H133973   8.479   4.335   6.207
11344TIP3    H233974   8.389   4.218   6.240
11345TIP3   OH233975   4.623   0.607   0.539
11345TIP3    H133976   4.709   0.648   0.547
11345TIP3    H233977   4.641   0.519   0.507
11346TIP3   OH233978   3.161   2.860   0.050
11346TIP3    H133979   3.122   2.897   0.129
11346TIP3    H233980   3.176   2.768   0.073
11347TIP3   OH233981   7.872   1.028   1.125
11347TIP3    H133982   7.822   0.979   1.059
11347TIP3    H233983   7.844   1.119   1.112
11348TIP3   OH233984   6.980   5.567   0.418
11348TIP3    H133985   6.992   5.527   0.331
11348TIP3    H233986   6.973   5.492   0.477
11349TIP3   OH233987   7.576   5.860   1.321
11349TIP3    H133988   7.618   5.905   1.394
11349TIP3    H233989   7.506   5.809   1.361
11350TIP3   OH233990   6.152   6.213   1.565
11350TIP3    H133991   6.182   6.138   1.513
11350TIP3    H233992   6.072   6.242   1.521
11351TIP3   OH233993   6.627   4.624   4.159
11351TIP3    H133994   6.567   4.698   4.169
11351TIP3    H233995   6.577   4.560   4.109
11352TIP3   OH233996   1.558   3.924   5.633
11352TIP3    H133997   1.502   3.881   5.697
11352TIP3    H233998   1.506   3.928   5.553
11353TIP3   OH233999   0.942   2.843   1.443
11353TIP3    H134000   0.993   2.879   1.370
11353TIP3    H234001   0.959   2.902   1.516
11354TIP3   OH234002   1.078   0.796   0.655
11354TIP3    H134003   1.103   0.838   0.573
11354TIP3    H234004   1.128   0.714   0.655
11355TIP3   OH234005   2.053   1.595   6.342
11355TIP3    H134006   2.133   1.620   6.389
11355TIP3    H234007   2.074   1.509   6.304
11356TIP3   OH234008   6.312   4.645   3.286
11356TIP3    H134009   6.382   4.623   3.348
11356TIP3    H234010   6.232   4.646   3.338
11357TIP3   OH234011   7.452   4.207   5.090
11357TIP3    H134012   7.457   4.229   5.183
11357TIP3    H234013   7.426   4.114   5.089
11358TIP3   OH234014   8.063   5.270   1.340
11358TIP3    H134015   8.098   5.246   1.254
11358TIP3    H234016   8.040   5.187   1.381
11359TIP3   OH234017   5.881   5.516   4.055
11359TIP3    H134018   5.936   5.595   4.052
11359TIP3    H234019   5.852   5.504   3.964
11360TIP3   OH234020   7.779   1.690   2.693
11360TIP3    H134021   7.738   1.609   2.724
11360TIP3    H234022   7.807   1.670   2.604
11361TIP3   OH234023   5.781   5.943   1.254
11361TIP3    H134024   5.714   5.874   1.251
11361TIP3    H234025   5.732   6.024   1.243
11362TIP3   OH234026   4.763   6.537   5.273
11362TIP3    H134027   4.799   6.623   5.251
11362TIP3    H234028   4.771   6.487   5.192
11363TIP3   OH234029   0.742   7.511   1.762
11363TIP3    H134030   0.683   7.553   1.825
11363TIP3    H234031   0.751   7.575   1.691
11364TIP3   OH234032   4.046   6.218   5.021
11364TIP3    H134033   4.096   6.290   4.983
11364TIP3    H234034   4.014   6.252   5.105
11365TIP3   OH234035   6.384   6.234   4.845
11365TIP3    H134036   6.396   6.224   4.940
11365TIP3    H234037   6.426   6.156   4.808
11366TIP3   OH234038   2.794   6.131   3.247
11366TIP3    H134039   2.842   6.066   3.298
11366TIP3    H234040   2.770   6.198   3.310
11367TIP3   OH234041   5.802   5.224   2.126
11367TIP3    H134042   5.854   5.174   2.063
11367TIP3    H234043   5.857   5.300   2.148
11368TIP3   OH234044   0.025   1.303   2.316
11368TIP3    H134045   0.051   1.211   2.321
11368TIP3    H234046   0.071   1.336   2.238
11369TIP3   OH234047   7.648   2.663   4.368
11369TIP3    H134048   7.616   2.573   4.372
11369TIP3    H234049   7.736   2.659   4.406
11370TIP3   OH234050   5.192   2.247   5.544
11370TIP3    H134051   5.233   2.325   5.581
11370TIP3    H234052   5.107   2.243   5.588
11371TIP3   OH234053   4.503   1.672   1.525
11371TIP3    H134054   4.422   1.713   1.497
11371TIP3    H234055   4.563   1.745   1.539
11372TIP3   OH234056   1.206   5.935   6.436
11372TIP3    H134057   1.203   5.910   6.528
11372TIP3    H234058   1.136   6.000   6.426
11373TIP3   OH234059   2.699   7.743   6.501
11373TIP3    H134060   2.761   7.690   6.450
11373TIP3    H234061   2.620   7.747   6.446
11374TIP3   OH234062   4.307   6.503   3.599
11374TIP3    H134063   4.245   6.535   3.533
11374TIP3    H234064   4.387   6.487   3.549
11375TIP3   OH234065   3.622   4.953   2.342
11375TIP3    H134066   3.699   5.004   2.317
11375TIP3    H234067   3.658   4.873   2.380
11376TIP3   OH234068   0.726   4.369   4.404
11376TIP3    H134069   0.673   4.393   4.479
11376TIP3    H234070   0.809   4.414   4.418
11377TIP3   OH234071   5.110   5.360   0.215
11377TIP3    H134072   5.128   5.450   0.244
11377TIP3    H234073   5.110   5.309   0.296
11378TIP3   OH234074   2.565   5.884   3.109
11378TIP3    H134075   2.588   5.937   3.032
11378TIP3    H234076   2.469   5.879   3.107
11379TIP3   OH234077   1.086   6.995   1.465
11379TIP3    H134078   1.140   6.919   1.485
11379TIP3    H234079   1.014   6.961   1.413
11380TIP3   OH234080   3.255   0.371   4.525
11380TIP3    H134081   3.270   0.428   4.450
11380TIP3    H234082   3.323   0.394   4.588
11381TIP3   OH234083   2.212   2.272   4.498
11381TIP3    H134084   2.132   2.248   4.451
11381TIP3    H234085   2.246   2.348   4.449
11382TIP3   OH234086   7.201   7.144   2.475
11382TIP3    H134087   7.179   7.236   2.461
11382TIP3    H234088   7.282   7.132   2.425
11383TIP3   OH234089   7.337   1.372   3.296
11383TIP3    H134090   7.258   1.410   3.335
11383TIP3    H234091   7.316   1.280   3.283
11384TIP3   OH234092   0.388   4.717   3.600
11384TIP3    H134093   0.357   4.628   3.618
11384TIP3    H234094   0.321   4.774   3.636
11385TIP3   OH234095   4.150   3.946   4.122
11385TIP3    H134096   4.200   3.892   4.182
11385TIP3    H234097   4.180   4.036   4.140
11386TIP3   OH234098   7.553   1.102   3.155
11386TIP3    H134099   7.544   1.011   3.184
11386TIP3    H234100   7.463   1.130   3.137
11387TIP3   OH234101   2.056   5.733   2.157
11387TIP3    H134102   2.139   5.740   2.205
11387TIP3    H234103   2.060   5.647   2.115
11388TIP3   OH234104   0.463   3.232   1.026
11388TIP3    H134105   0.435   3.164   0.964
11388TIP3    H234106   0.449   3.194   1.112
11389TIP3   OH234107   8.194   4.186   5.698
11389TIP3    H134108   8.166   4.188   5.790
11389TIP3    H234109   8.123   4.140   5.653
11390TIP3   OH234110   2.300   1.691   3.851
11390TIP3    H134111   2.262   1.716   3.936
11390TIP3    H234112   2.329   1.774   3.814
11391TIP3   OH234113   6.858   5.819   4.603
11391TIP3    H134114   6.913   5.758   4.553
11391TIP3    H234115   6.895   5.905   4.585
11392TIP3   OH234116   7.334   3.238   2.786
11392TIP3    H134117   7.352   3.248   2.692
11392TIP3    H234118   7.291   3.152   2.792
11393TIP3   OH234119   7.056   6.739   5.234
11393TIP3    H134120   6.965   6.765   5.250
11393TIP3    H234121   7.080   6.688   5.311
11394TIP3   OH234122   5.761   7.421   3.724
11394TIP3    H134123   5.740   7.430   3.817
11394TIP3    H234124   5.717   7.340   3.697
11395TIP3   OH234125   6.259   3.415   6.640
11395TIP3    H134126   6.340   3.464   6.655
11395TIP3    H234127   6.198   3.479   6.603
11396TIP3   OH234128   4.878   5.017   6.817
11396TIP3    H134129   4.862   5.062   6.734
11396TIP3    H234130   4.793   5.016   6.860
11397TIP3   OH234131   0.792   1.048  -0.017
11397TIP3    H134132   0.735   1.025   0.056
11397TIP3    H234133   0.879   1.058   0.023
11398TIP3   OH234134   8.367   5.215   2.709
11398TIP3    H134135   8.450   5.167   2.705
11398TIP3    H234136   8.302   5.148   2.729
11399TIP3   OH234137   1.927   2.907   5.414
11399TIP3    H134138   1.896   2.819   5.390
11399TIP3    H234139   1.961   2.897   5.503
11400TIP3   OH234140   1.284   3.464   2.427
11400TIP3    H134141   1.246   3.544   2.391
11400TIP3    H234142   1.321   3.419   2.351
11401TIP3   OH234143   4.303   6.439   4.424
11401TIP3    H134144   4.383   6.487   4.446
11401TIP3    H234145   4.267   6.412   4.509
11402TIP3   OH234146   3.756   1.716   2.262
11402TIP3    H134147   3.754   1.626   2.228
11402TIP3    H234148   3.753   1.771   2.184
11403TIP3   OH234149   2.015   5.158   5.484
11403TIP3    H134150   2.093   5.185   5.437
11403TIP3    H234151   1.947   5.220   5.455
11404TIP3   OH234152   1.465   7.751   3.820
11404TIP3    H134153   1.553   7.713   3.818
11404TIP3    H234154   1.456   7.795   3.735
11405TIP3   OH234155   7.677   7.879   1.209
11405TIP3    H134156   7.764   7.915   1.230
11405TIP3    H234157   7.689   7.839   1.122
11406TIP3   OH234158   0.774   0.476   2.524
11406TIP3    H134159   0.763   0.410   2.592
11406TIP3    H234160   0.755   0.560   2.568
11407TIP3   OH234161   5.575   1.796   6.715
11407TIP3    H134162   5.653   1.832   6.758
11407TIP3    H234163   5.591   1.807   6.621
11408TIP3   OH234164   4.521   5.599   3.088
11408TIP3    H134165   4.451   5.536   3.105
11408TIP3    H234166   4.495   5.678   3.136
11409TIP3   OH234167   0.233   3.452   4.470
11409TIP3    H134168   0.165   3.509   4.433
11409TIP3    H234169   0.239   3.478   4.561
11410TIP3   OH234170   4.307   5.391   3.725
11410TIP3    H134171   4.265   5.311   3.693
11410TIP3    H234172   4.266   5.462   3.675
11411TIP3   OH234173   6.064   1.604   0.017
11411TIP3    H134174   5.998   1.669   0.041
11411TIP3    H234175   6.070   1.547   0.094
11412TIP3   OH234176   0.086   2.544   5.954
11412TIP3    H134177   0.175   2.578   5.957
11412TIP3    H234178   0.074   2.512   5.865
11413TIP3   OH234179   5.213   7.004   0.818
11413TIP3    H134180   5.205   6.915   0.784
11413TIP3    H234181   5.124   7.030   0.840
11414TIP3   OH234182   5.215   4.066   0.865
11414TIP3    H134183   5.256   4.050   0.780
11414TIP3    H234184   5.226   3.985   0.913
11415TIP3   OH234185   3.628   5.066   5.469
11415TIP3    H134186   3.546   5.115   5.471
11415TIP3    H234187   3.696   5.133   5.461
11416TIP3   OH234188   4.182   0.260   0.849
11416TIP3    H134189   4.188   0.288   0.940
11416TIP3    H234190   4.222   0.173   0.848
11417TIP3   OH234191   3.072   3.451   5.335
11417TIP3    H134192   3.067   3.358   5.311
11417TIP3    H234193   3.027   3.456   5.419
11418TIP3   OH234194   7.108   1.405   2.365
11418TIP3    H134195   7.127   1.325   2.413
11418TIP3    H234196   7.083   1.375   2.277
11419TIP3   OH234197   5.361   2.687   4.027
11419TIP3    H134198   5.395   2.629   3.959
11419TIP3    H234199   5.268   2.697   4.006
11420TIP3   OH234200   7.358   6.899   4.476
11420TIP3    H134201   7.372   6.994   4.480
11420TIP3    H234202   7.276   6.889   4.427
11421TIP3   OH234203   6.664   7.372   4.854
11421TIP3    H134204   6.584   7.328   4.825
11421TIP3    H234205   6.679   7.339   4.943
11422TIP3   OH234206   1.180   4.848   6.522
11422TIP3    H134207   1.111   4.870   6.459
11422TIP3    H234208   1.144   4.876   6.607
11423TIP3   OH234209   1.676   4.571   0.686
11423TIP3    H134210   1.619   4.508   0.731
11423TIP3    H234211   1.694   4.531   0.601
11424TIP3   OH234212   6.845   0.805   5.850
11424TIP3    H134213   6.928   0.793   5.895
11424TIP3    H234214   6.799   0.871   5.903
11425TIP3   OH234215   1.617   6.017   2.048
11425TIP3    H134216   1.614   6.035   2.142
11425TIP3    H234217   1.538   6.059   2.013
11426TIP3   OH234218   8.130   2.789   4.809
11426TIP3    H134219   8.199   2.727   4.785
11426TIP3    H234220   8.134   2.793   4.905
11427TIP3   OH234221   1.003   6.651   2.024
11427TIP3    H134222   0.970   6.611   2.105
11427TIP3    H234223   0.989   6.745   2.036
11428TIP3   OH234224   0.650   5.793   3.990
11428TIP3    H134225   0.737   5.833   3.995
11428TIP3    H234226   0.644   5.759   3.901
11429TIP3   OH234227   0.928   2.384   1.458
11429TIP3    H134228   0.988   2.376   1.384
11429TIP3    H234229   0.948   2.469   1.497
11430TIP3   OH234230   6.534   5.618   2.360
11430TIP3    H134231   6.535   5.686   2.293
11430TIP3    H234232   6.602   5.556   2.332
11431TIP3   OH234233   6.361   5.814   6.470
11431TIP3    H134234   6.381   5.722   6.489
11431TIP3    H234235   6.348   5.815   6.375
11432TIP3   OH234236   4.692   5.597   1.589
11432TIP3    H134237   4.729   5.584   1.502
11432TIP3    H234238   4.686   5.692   1.599
11433TIP3   OH234239   3.932   0.816   5.657
11433TIP3    H134240   3.883   0.743   5.694
11433TIP3    H234241   3.913   0.890   5.715
11434TIP3   OH234242   7.914   6.405   0.059
11434TIP3    H134243   7.868   6.433  -0.021
11434TIP3    H234244   7.866   6.327   0.088
11435TIP3   OH234245   0.066   4.739   1.777
11435TIP3    H134246   0.150   4.694   1.785
11435TIP3    H234247   0.032   4.712   1.691
11436TIP3   OH234248   7.044   7.812   1.954
11436TIP3    H134249   6.970   7.873   1.946
11436TIP3    H234250   7.077   7.804   1.865
11437TIP3   OH234251   7.365   3.971   3.777
11437TIP3    H134252   7.450   3.987   3.819
11437TIP3    H234253   7.379   3.999   3.686
11438TIP3   OH234254   5.739   6.743   2.946
11438TIP3    H134255   5.691   6.660   2.947
11438TIP3    H234256   5.703   6.793   3.019
11439TIP3   OH234257   0.181   4.069   3.558
11439TIP3    H134258   0.187   3.974   3.548
11439TIP3    H234259   0.129   4.097   3.483
11440TIP3   OH234260   6.751   3.566   2.118
11440TIP3    H134261   6.784   3.485   2.158
11440TIP3    H234262   6.657   3.565   2.137
11441TIP3   OH234263   3.254   3.193   5.108
11441TIP3    H134264   3.336   3.147   5.123
11441TIP3    H234265   3.274   3.285   5.128
11442TIP3   OH234266   6.763   7.301   5.350
11442TIP3    H134267   6.710   7.354   5.291
11442TIP3    H234268   6.810   7.364   5.403
11443TIP3   OH234269   5.162   3.079   3.245
11443TIP3    H134270   5.108   3.133   3.187
11443TIP3    H234271   5.216   3.027   3.186
11444TIP3   OH234272   5.873   3.544   3.541
11444TIP3    H134273   5.859   3.544   3.446
11444TIP3    H234274   5.956   3.589   3.553
11445TIP3   OH234275   5.783   7.001   5.788
11445TIP3    H134276   5.773   6.961   5.874
11445TIP3    H234277   5.877   7.009   5.776
11446TIP3   OH234278   0.777   3.393   1.125
11446TIP3    H134279   0.735   3.349   1.199
11446TIP3    H234280   0.704   3.422   1.070
11447TIP3   OH234281   2.888   6.284   6.357
11447TIP3    H134282   2.927   6.357   6.310
11447TIP3    H234283   2.932   6.283   6.442
11448TIP3   OH234284   7.653   0.867   3.608
11448TIP3    H134285   7.743   0.896   3.600
11448TIP3    H234286   7.602   0.948   3.617
11449TIP3   OH234287   1.262   0.688   3.444
11449TIP3    H134288   1.233   0.773   3.410
11449TIP3    H234289   1.306   0.709   3.526
11450TIP3   OH234290   5.847   3.272   3.570
11450TIP3    H134291   5.943   3.275   3.564
11450TIP3    H234292   5.820   3.364   3.574
11451TIP3   OH234293   7.507   2.675   0.539
11451TIP3    H134294   7.594   2.650   0.509
11451TIP3    H234295   7.516   2.767   0.566
11452TIP3   OH234296   0.644   7.673   0.450
11452TIP3    H134297   0.664   7.608   0.383
11452TIP3    H234298   0.705   7.745   0.434
11453TIP3   OH234299   7.965   6.364   4.384
11453TIP3    H134300   7.922   6.428   4.327
11453TIP3    H234301   7.971   6.285   4.330
11454TIP3   OH234302   4.993   6.828   6.189
11454TIP3    H134303   5.059   6.803   6.253
11454TIP3    H234304   4.914   6.845   6.241
11455TIP3   OH234305   5.333   5.978   5.765
11455TIP3    H134306   5.390   5.916   5.810
11455TIP3    H234307   5.379   5.999   5.684
11456TIP3   OH234308   5.702   1.631   4.118
11456TIP3    H134309   5.702   1.641   4.023
11456TIP3    H234310   5.757   1.702   4.150
11457TIP3   OH234311   7.284   2.892   3.879
11457TIP3    H134312   7.270   2.843   3.961
11457TIP3    H234313   7.212   2.955   3.876
11458TIP3   OH234314   0.886   3.078   4.344
11458TIP3    H134315   0.816   3.057   4.282
11458TIP3    H234316   0.966   3.048   4.302
11459TIP3   OH234317   2.221   2.832   5.219
11459TIP3    H134318   2.229   2.925   5.242
11459TIP3    H234319   2.133   2.823   5.183
11460TIP3   OH234320   6.583   6.966   3.436
11460TIP3    H134321   6.606   7.011   3.355
11460TIP3    H234322   6.523   7.026   3.480
11461TIP3   OH234323   4.589   2.826   5.079
11461TIP3    H134324   4.683   2.843   5.072
11461TIP3    H234325   4.556   2.898   5.133
11462TIP3   OH234326   4.467   0.531   6.504
11462TIP3    H134327   4.523   0.556   6.577
11462TIP3    H234328   4.456   0.611   6.453
11463TIP3   OH234329   1.045   1.830   2.799
11463TIP3    H134330   1.123   1.882   2.778
11463TIP3    H234331   1.036   1.838   2.894
11464TIP3   OH234332   0.096   4.334   4.744
11464TIP3    H134333   0.182   4.315   4.781
11464TIP3    H234334   0.113   4.346   4.651
11465TIP3   OH234335   5.595   3.896   6.464
11465TIP3    H134336   5.543   3.840   6.407
11465TIP3    H234337   5.615   3.843   6.540
11466TIP3   OH234338   5.665   0.624   2.003
11466TIP3    H134339   5.700   0.713   1.995
11466TIP3    H234340   5.625   0.622   2.090
11467TIP3   OH234341   3.678   1.698   0.065
11467TIP3    H134342   3.595   1.697   0.017
11467TIP3    H234343   3.654   1.725   0.154
11468TIP3   OH234344   5.938   1.131   0.440
11468TIP3    H134345   5.927   1.111   0.534
11468TIP3    H234346   5.850   1.120   0.404
11469TIP3   OH234347   2.388   3.576   2.412
11469TIP3    H134348   2.377   3.508   2.479
11469TIP3    H234349   2.441   3.643   2.455
11470TIP3   OH234350   3.895   5.667   6.245
11470TIP3    H134351   3.811   5.700   6.215
11470TIP3    H234352   3.878   5.635   6.334
11471TIP3   OH234353   7.332   0.780   0.259
11471TIP3    H134354   7.322   0.830   0.178
11471TIP3    H234355   7.360   0.693   0.230
11472TIP3   OH234356   0.402   0.410   6.260
11472TIP3    H134357   0.326   0.372   6.215
11472TIP3    H234358   0.433   0.478   6.200
11473TIP3   OH234359   3.402   7.259   4.409
11473TIP3    H134360   3.478   7.266   4.351
11473TIP3    H234361   3.347   7.334   4.386
11474TIP3   OH234362   7.956   4.582   6.318
11474TIP3    H134363   7.910   4.604   6.399
11474TIP3    H234364   7.956   4.663   6.267
11475TIP3   OH234365   2.450   2.142   5.759
11475TIP3    H134366   2.389   2.213   5.738
11475TIP3    H234367   2.479   2.162   5.848
11476TIP3   OH234368   2.520   4.260   6.399
11476TIP3    H134369   2.597   4.220   6.438
11476TIP3    H234370   2.452   4.251   6.465
11477TIP3   OH234371   3.147   3.418   6.411
11477TIP3    H134372   3.125   3.446   6.500
11477TIP3    H234373   3.066   3.380   6.377
11478TIP3   OH234374   0.118   3.607   1.286
11478TIP3    H134375   0.140   3.667   1.358
11478TIP3    H234376   0.181   3.627   1.217
11479TIP3   OH234377   1.075   1.525   0.182
11479TIP3    H134378   1.130   1.582   0.129
11479TIP3    H234379   1.005   1.498   0.122
11480TIP3   OH234380   1.035   3.631   3.679
11480TIP3    H134381   1.037   3.591   3.592
11480TIP3    H234382   0.954   3.680   3.682
11481TIP3   OH234383   3.955   1.804   2.424
11481TIP3    H134384   3.881   1.772   2.373
11481TIP3    H234385   3.932   1.894   2.446
11482TIP3   OH234386   0.145   7.267   2.601
11482TIP3    H134387   0.057   7.306   2.595
11482TIP3    H234388   0.203   7.331   2.560
11483TIP3   OH234389   2.079   1.964   3.120
11483TIP3    H134390   2.038   1.942   3.036
11483TIP3    H234391   2.114   2.053   3.107
11484TIP3   OH234392   3.798   0.832   2.924
11484TIP3    H134393   3.763   0.873   2.845
11484TIP3    H234394   3.892   0.828   2.910
11485TIP3   OH234395   0.204   1.517   4.504
11485TIP3    H134396   0.138   1.584   4.521
11485TIP3    H234397   0.161   1.456   4.444
11486TIP3   OH234398   3.789   5.941   0.293
11486TIP3    H134399   3.803   6.025   0.249
11486TIP3    H234400   3.820   5.954   0.382
11487TIP3   OH234401   6.422   6.585   6.246
11487TIP3    H134402   6.383   6.672   6.254
11487TIP3    H234403   6.438   6.557   6.337
11488TIP3   OH234404   3.511   2.589   5.868
11488TIP3    H134405   3.548   2.677   5.873
11488TIP3    H234406   3.416   2.603   5.879
11489TIP3   OH234407   1.787   7.132   4.901
11489TIP3    H134408   1.835   7.052   4.881
11489TIP3    H234409   1.744   7.155   4.819
11490TIP3   OH234410   8.119   4.778   4.233
11490TIP3    H134411   8.063   4.802   4.308
11490TIP3    H234412   8.205   4.812   4.256
11491TIP3   OH234413   5.762   4.614   5.339
11491TIP3    H134414   5.784   4.705   5.360
11491TIP3    H234415   5.692   4.621   5.273
11492TIP3   OH234416   0.250   2.676   5.505
11492TIP3    H134417   0.270   2.727   5.426
11492TIP3    H234418   0.292   2.591   5.489
11493TIP3   OH234419   7.063   4.935   6.177
11493TIP3    H134420   7.134   4.884   6.138
11493TIP3    H234421   7.104   5.017   6.203
11494TIP3   OH234422   3.092   0.972   5.276
11494TIP3    H134423   3.035   1.037   5.317
11494TIP3    H234424   3.129   0.922   5.349
11495TIP3   OH234425   7.331   4.372   0.517
11495TIP3    H134426   7.266   4.438   0.540
11495TIP3    H234427   7.365   4.400   0.432
11496TIP3   OH234428   3.963   0.346   4.632
11496TIP3    H134429   3.962   0.297   4.715
11496TIP3    H234430   4.048   0.390   4.631
11497TIP3   OH234431   3.407   1.403   3.220
11497TIP3    H134432   3.479   1.464   3.231
11497TIP3    H234433   3.347   1.446   3.159
11498TIP3   OH234434   0.424   4.435   0.741
11498TIP3    H134435   0.381   4.354   0.714
11498TIP3    H234436   0.352   4.490   0.773
11499TIP3   OH234437   0.655   5.970   1.572
11499TIP3    H134438   0.723   5.908   1.546
11499TIP3    H234439   0.700   6.055   1.577
11500TIP3   OH234440   8.223   1.843   6.033
11500TIP3    H134441   8.179   1.760   6.016
11500TIP3    H234442   8.151   1.904   6.051
11501TIP3   OH234443   5.168   6.639   4.477
11501TIP3    H134444   5.246   6.620   4.426
11501TIP3    H234445   5.112   6.562   4.466
11502TIP3   OH234446   3.132   4.659   6.826
11502TIP3    H134447   3.202   4.598   6.803
11502TIP3    H234448   3.096   4.688   6.742
11503TIP3   OH234449   8.107   1.563   6.111
11503TIP3    H134450   8.044   1.523   6.052
11503TIP3    H234451   8.190   1.518   6.092
11504TIP3   OH234452   0.530   0.020   4.759
11504TIP3    H134453   0.496   0.103   4.792
11504TIP3    H234454   0.625   0.031   4.761
11505TIP3   OH234455   3.967   3.241   2.138
11505TIP3    H134456   4.008   3.316   2.180
11505TIP3    H234457   3.990   3.250   2.045
11506TIP3   OH234458   6.230   2.776   6.833
11506TIP3    H134459   6.222   2.686   6.803
11506TIP3    H234460   6.232   2.770   6.929
11507TIP3   OH234461   3.483   7.905   3.410
11507TIP3    H134462   3.501   7.858   3.492
11507TIP3    H234463   3.405   7.958   3.429
11508TIP3   OH234464   8.304   4.777   0.771
11508TIP3    H134465   8.385   4.813   0.735
11508TIP3    H234466   8.250   4.853   0.790
11509TIP3   OH234467   6.328   3.217   0.060
11509TIP3    H134468   6.399   3.154   0.071
11509TIP3    H234469   6.357   3.296   0.106
11510TIP3   OH234470   2.310   3.236   5.771
11510TIP3    H134471   2.380   3.231   5.835
11510TIP3    H234472   2.230   3.224   5.823
11511TIP3   OH234473   8.429   2.561   3.605
11511TIP3    H134474   8.389   2.478   3.630
11511TIP3    H234475   8.362   2.605   3.551
11512TIP3   OH234476   7.250   0.784   2.646
11512TIP3    H134477   7.212   0.791   2.558
11512TIP3    H234478   7.309   0.859   2.652
11513TIP3   OH234479   3.296   4.507   6.686
11513TIP3    H134480   3.336   4.421   6.696
11513TIP3    H234481   3.307   4.528   6.593
11514TIP3   OH234482   2.232   4.427   3.274
11514TIP3    H134483   2.269   4.496   3.329
11514TIP3    H234484   2.233   4.462   3.186
11515TIP3   OH234485   7.065   4.363   2.165
11515TIP3    H134486   7.140   4.392   2.113
11515TIP3    H234487   7.075   4.409   2.248
11516TIP3   OH234488   1.428   0.496   4.048
11516TIP3    H134489   1.399   0.440   4.120
11516TIP3    H234490   1.388   0.457   3.970
11517TIP3   OH234491   4.974   0.349   5.024
11517TIP3    H134492   5.068   0.328   5.018
11517TIP3    H234493   4.944   0.350   4.934
11518TIP3   OH234494   8.286   2.420   6.781
11518TIP3    H134495   8.272   2.447   6.690
11518TIP3    H234496   8.338   2.491   6.820
11519TIP3   OH234497   4.066   6.742   3.971
11519TIP3    H134498   4.144   6.687   3.975
11519TIP3    H234499   4.072   6.798   4.048
11520TIP3   OH234500   7.236   5.613   5.207
11520TIP3    H134501   7.236   5.540   5.146
11520TIP3    H234502   7.145   5.621   5.235
11521TIP3   OH234503   6.766   2.077   1.499
11521TIP3    H134504   6.683   2.109   1.534
11521TIP3    H234505   6.822   2.154   1.496
11522TIP3   OH234506   6.908   4.739   2.095
11522TIP3    H134507   6.901   4.647   2.071
11522TIP3    H234508   6.997   4.748   2.130
11523TIP3   OH234509   1.725   2.075   1.390
11523TIP3    H134510   1.786   2.147   1.410
11523TIP3    H234511   1.644   2.099   1.435
11524TIP3   OH234512   4.567   5.851   2.865
11524TIP3    H134513   4.568   5.780   2.929
11524TIP3    H234514   4.479   5.849   2.828
11525TIP3   OH234515   7.513   2.968   2.435
11525TIP3    H134516   7.507   2.913   2.357
11525TIP3    H234517   7.599   3.011   2.427
11526TIP3   OH234518   5.069   4.317   3.004
11526TIP3    H134519   5.018   4.370   3.065
11526TIP3    H234520   5.064   4.228   3.040
11527TIP3   OH234521   0.765   1.018   6.610
11527TIP3    H134522   0.775   0.977   6.696
11527TIP3    H234523   0.692   0.970   6.570
11528TIP3   OH234524   6.068   4.451   5.531
11528TIP3    H134525   6.013   4.397   5.475
11528TIP3    H234526   6.096   4.523   5.474
11529TIP3   OH234527   8.382   6.655   5.295
11529TIP3    H134528   8.445   6.690   5.358
11529TIP3    H234529   8.324   6.729   5.275
11530TIP3   OH234530   7.717   0.604   3.939
11530TIP3    H134531   7.666   0.682   3.918
11530TIP3    H234532   7.652   0.538   3.964
11531TIP3   OH234533   4.398   2.895   2.913
11531TIP3    H134534   4.462   2.838   2.869
11531TIP3    H234535   4.387   2.969   2.853
11532TIP3   OH234536   2.384   5.412   4.622
11532TIP3    H134537   2.437   5.473   4.570
11532TIP3    H234538   2.448   5.351   4.659
11533TIP3   OH234539   3.116   1.477   1.319
11533TIP3    H134540   3.194   1.456   1.268
11533TIP3    H234541   3.134   1.563   1.355
11534TIP3   OH234542   2.704   2.654   0.864
11534TIP3    H134543   2.755   2.617   0.936
11534TIP3    H234544   2.743   2.616   0.785
11535TIP3   OH234545   6.189   1.679   4.065
11535TIP3    H134546   6.217   1.609   4.123
11535TIP3    H234547   6.196   1.759   4.118
11536TIP3   OH234548   7.571   4.975   5.460
11536TIP3    H134549   7.648   4.994   5.406
11536TIP3    H234550   7.499   4.968   5.397
11537TIP3   OH234551   6.052   3.014   1.286
11537TIP3    H134552   6.020   2.924   1.292
11537TIP3    H234553   6.112   3.024   1.360
11538TIP3   OH234554   7.905   6.817   3.963
11538TIP3    H134555   7.905   6.893   4.021
11538TIP3    H234556   7.813   6.792   3.955
11539TIP3   OH234557   3.305   5.020   2.529
11539TIP3    H134558   3.299   5.096   2.586
11539TIP3    H234559   3.308   5.057   2.441
11540TIP3   OH234560   4.550   1.119   0.650
11540TIP3    H134561   4.567   1.177   0.576
11540TIP3    H234562   4.542   1.178   0.726
11541TIP3   OH234563   6.640   4.424   2.497
11541TIP3    H134564   6.611   4.515   2.504
11541TIP3    H234565   6.643   4.393   2.588
11542TIP3   OH234566   2.223   4.944   0.502
11542TIP3    H134567   2.216   4.888   0.425
11542TIP3    H234568   2.309   4.987   0.493
11543TIP3   OH234569   7.442   2.027   1.740
11543TIP3    H134570   7.403   1.969   1.675
11543TIP3    H234571   7.533   2.038   1.711
11544TIP3   OH234572   6.530   5.374   2.157
11544TIP3    H134573   6.607   5.322   2.136
11544TIP3    H234574   6.466   5.311   2.188
11545TIP3   OH234575   6.850   1.251   0.922
11545TIP3    H134576   6.856   1.344   0.898
11545TIP3    H234577   6.812   1.210   0.845
11546TIP3   OH234578   0.323   6.457   3.114
11546TIP3    H134579   0.296   6.382   3.168
11546TIP3    H234580   0.240   6.493   3.081
11547TIP3   OH234581   2.453   3.207   1.473
11547TIP3    H134582   2.407   3.224   1.390
11547TIP3    H234583   2.425   3.119   1.498
11548TIP3   OH234584   2.494   7.212   0.121
11548TIP3    H134585   2.457   7.271   0.186
11548TIP3    H234586   2.491   7.262   0.039
11549TIP3   OH234587   5.839   5.868   4.550
11549TIP3    H134588   5.748   5.854   4.575
11549TIP3    H234589   5.889   5.825   4.620
11550TIP3   OH234590   2.881   2.419   0.845
11550TIP3    H134591   2.933   2.422   0.765
11550TIP3    H234592   2.804   2.367   0.821
11551TIP3   OH234593   6.138   4.953   6.347
11551TIP3    H134594   6.162   4.902   6.425
11551TIP3    H234595   6.090   5.028   6.382
11552TIP3   OH234596   6.370   3.534   4.266
11552TIP3    H134597   6.324   3.617   4.256
11552TIP3    H234598   6.415   3.521   4.182
11553TIP3   OH234599   6.487   3.931   5.080
11553TIP3    H134600   6.516   3.930   5.171
11553TIP3    H234601   6.495   3.840   5.050
11554TIP3   OH234602   0.819   4.767   4.433
11554TIP3    H134603   0.781   4.796   4.517
11554TIP3    H234604   0.864   4.685   4.454
11555TIP3   OH234605   8.418   1.241   4.085
11555TIP3    H134606   8.381   1.181   4.021
11555TIP3    H234607   8.395   1.203   4.170
11556TIP3   OH234608   4.395   6.144   3.287
11556TIP3    H134609   4.355   6.226   3.317
11556TIP3    H234610   4.322   6.093   3.252
11557TIP3   OH234611   8.254   2.984   6.239
11557TIP3    H134612   8.268   3.079   6.237
11557TIP3    H234613   8.164   2.973   6.270
11558TIP3   OH234614   2.615   5.670   5.702
11558TIP3    H134615   2.706   5.654   5.675
11558TIP3    H234616   2.563   5.617   5.642
11559TIP3   OH234617  -0.025   7.651   4.365
11559TIP3    H134618  -0.013   7.659   4.459
11559TIP3    H234619  -0.014   7.740   4.332
11560TIP3   OH234620   3.653   1.903   6.436
11560TIP3    H134621   3.605   1.986   6.437
11560TIP3    H234622   3.592   1.840   6.399
11561TIP3   OH234623   6.995   0.024   4.937
11561TIP3    H134624   7.030  -0.022   4.861
11561TIP3    H234625   6.915  -0.024   4.959
11562TIP3   OH234626   2.854   5.955   0.724
11562TIP3    H134627   2.890   5.918   0.643
11562TIP3    H234628   2.761   5.964   0.707
11563TIP3   OH234629   2.146   6.841   5.389
11563TIP3    H134630   2.218   6.786   5.358
11563TIP3    H234631   2.186   6.927   5.401
11564TIP3   OH234632   3.814   0.013   3.671
11564TIP3    H134633   3.818   0.034   3.578
11564TIP3    H234634   3.811   0.098   3.715
11565TIP3   OH234635   0.724   2.312   3.406
11565TIP3    H134636   0.644   2.359   3.382
11565TIP3    H234637   0.701   2.219   3.396
11566TIP3   OH234638   4.352   5.459   1.256
11566TIP3    H134639   4.294   5.517   1.205
11566TIP3    H234640   4.436   5.504   1.257
11567TIP3   OH234641   4.086   3.356   1.907
11567TIP3    H134642   4.099   3.270   1.868
11567TIP3    H234643   4.053   3.411   1.836
11568TIP3   OH234644   1.734   3.558   6.076
11568TIP3    H134645   1.813   3.532   6.124
11568TIP3    H234646   1.701   3.477   6.038
11569TIP3   OH234647   6.475   0.106   4.353
11569TIP3    H134648   6.444   0.069   4.435
11569TIP3    H234649   6.567   0.079   4.347
11570TIP3   OH234650   1.905   1.576   3.910
11570TIP3    H134651   1.900   1.634   3.985
11570TIP3    H234652   1.993   1.588   3.875
11571TIP3   OH234653   4.186   1.131   2.418
11571TIP3    H134654   4.149   1.198   2.362
11571TIP3    H234655   4.233   1.180   2.486
11572TIP3   OH234656   7.602   1.439   3.386
11572TIP3    H134657   7.508   1.423   3.382
11572TIP3    H234658   7.635   1.405   3.302
11573TIP3   OH234659   1.069   0.992   6.254
11573TIP3    H134660   1.013   1.067   6.274
11573TIP3    H234661   1.085   0.951   6.339
11574TIP3   OH234662   4.585   5.986   6.007
11574TIP3    H134663   4.590   5.999   6.102
11574TIP3    H234664   4.542   5.901   5.997
11575TIP3   OH234665   1.167   7.243   1.311
11575TIP3    H134666   1.250   7.216   1.272
11575TIP3    H234667   1.135   7.164   1.354
11576TIP3   OH234668   2.108   3.830   0.108
11576TIP3    H134669   2.194   3.793   0.089
11576TIP3    H234670   2.102   3.829   0.204
11577TIP3   OH234671   7.325   4.574   4.379
11577TIP3    H134672   7.414   4.569   4.414
11577TIP3    H234673   7.271   4.534   4.447
11578TIP3   OH234674   0.401   2.018   4.138
11578TIP3    H134675   0.478   1.969   4.165
11578TIP3    H234676   0.339   2.006   4.210
11579TIP3   OH234677   1.971   0.117   3.458
11579TIP3    H134678   1.908   0.172   3.504
11579TIP3    H234679   1.955   0.029   3.492
11580TIP3   OH234680   5.556   5.300   0.496
11580TIP3    H134681   5.522   5.293   0.407
11580TIP3    H234682   5.651   5.291   0.487
11581TIP3   OH234683   7.444   4.422   0.284
11581TIP3    H134684   7.535   4.404   0.263
11581TIP3    H234685   7.404   4.449   0.201
11582TIP3   OH234686   8.310   5.356   0.698
11582TIP3    H134687   8.352   5.441   0.709
11582TIP3    H234688   8.248   5.349   0.771
11583TIP3   OH234689   5.760   0.125   2.331
11583TIP3    H134690   5.683   0.171   2.297
11583TIP3    H234691   5.735   0.032   2.330
11584TIP3   OH234692   0.845   6.678   0.803
11584TIP3    H134693   0.782   6.621   0.847
11584TIP3    H234694   0.924   6.624   0.796
11585TIP3   OH234695   1.403   1.700   6.029
11585TIP3    H134696   1.475   1.712   6.091
11585TIP3    H234697   1.342   1.770   6.049
11586TIP3   OH234698   1.929   3.566   3.760
11586TIP3    H134699   1.961   3.568   3.670
11586TIP3    H234700   1.956   3.480   3.793
11587TIP3   OH234701   3.332   0.753   5.880
11587TIP3    H134702   3.413   0.773   5.927
11587TIP3    H234703   3.349   0.779   5.790
11588TIP3   OH234704   7.238   0.983   4.336
11588TIP3    H134705   7.327   0.983   4.371
11588TIP3    H234706   7.182   0.990   4.413
11589TIP3   OH234707   2.963   3.202   6.696
11589TIP3    H134708   2.877   3.172   6.665
11589TIP3    H234709   2.952   3.297   6.706
11590TIP3   OH234710   2.230   3.047   2.550
11590TIP3    H134711   2.151   3.026   2.598
11590TIP3    H234712   2.294   2.981   2.577
11591TIP3   OH234713   7.834   7.007   4.751
11591TIP3    H134714   7.800   6.929   4.794
11591TIP3    H234715   7.756   7.061   4.733
11592TIP3   OH234716   3.829   1.257   6.009
11592TIP3    H134717   3.859   1.328   5.953
11592TIP3    H234718   3.735   1.250   5.991
11593TIP3   OH234719   0.306   2.851   5.283
11593TIP3    H134720   0.337   2.911   5.351
11593TIP3    H234721   0.385   2.820   5.240
11594TIP3   OH234722   4.511   4.885   2.004
11594TIP3    H134723   4.494   4.791   2.001
11594TIP3    H234724   4.451   4.919   2.070
11595TIP3   OH234725   8.140   2.702   2.266
11595TIP3    H134726   8.170   2.681   2.177
11595TIP3    H234727   8.213   2.677   2.322
11596TIP3   OH234728   6.723   4.874   5.537
11596TIP3    H134729   6.805   4.920   5.525
11596TIP3    H234730   6.699   4.843   5.449
11597TIP3   OH234731   0.809   4.910   0.061
11597TIP3    H134732   0.801   4.834   0.119
11597TIP3    H234733   0.890   4.953   0.089
11598TIP3   OH234734   8.051   5.596   4.065
11598TIP3    H134735   7.958   5.603   4.087
11598TIP3    H234736   8.059   5.512   4.019
11599TIP3   OH234737   5.347   4.332   3.984
11599TIP3    H134738   5.428   4.335   3.933
11599TIP3    H234739   5.351   4.248   4.030
11600TIP3   OH234740   1.584   2.532   6.727
11600TIP3    H134741   1.511   2.589   6.752
11600TIP3    H234742   1.587   2.466   6.795
11601TIP3   OH234743   1.853   2.631   2.101
11601TIP3    H134744   1.902   2.570   2.046
11601TIP3    H234745   1.915   2.701   2.119
11602TIP3   OH234746   6.815   2.234   5.127
11602TIP3    H134747   6.819   2.211   5.220
11602TIP3    H234748   6.814   2.329   5.125
11603TIP3   OH234749   2.329   5.569   3.840
11603TIP3    H134750   2.278   5.609   3.911
11603TIP3    H234751   2.313   5.625   3.764
11604TIP3   OH234752   8.277   6.276   5.314
11604TIP3    H134753   8.317   6.199   5.275
11604TIP3    H234754   8.231   6.319   5.241
11605TIP3   OH234755   0.227   6.270   5.970
11605TIP3    H134756   0.303   6.292   6.024
11605TIP3    H234757   0.208   6.351   5.922
11606TIP3   OH234758   1.012   2.520   0.760
11606TIP3    H134759   1.086   2.578   0.743
11606TIP3    H234760   1.012   2.458   0.687
11607TIP3   OH234761   5.146   2.548   2.759
11607TIP3    H134762   5.241   2.532   2.763
11607TIP3    H234763   5.121   2.569   2.849
11608TIP3   OH234764   7.136   6.893   2.177
11608TIP3    H134765   7.231   6.889   2.184
11608TIP3    H234766   7.106   6.807   2.204
11609TIP3   OH234767   6.573   4.259   4.234
11609TIP3    H134768   6.522   4.312   4.295
11609TIP3    H234769   6.635   4.212   4.289
11610TIP3   OH234770   0.100   4.224   2.558
11610TIP3    H134771   0.176   4.167   2.547
11610TIP3    H234772   0.030   4.166   2.590
11611TIP3   OH234773   0.421   3.379   5.891
11611TIP3    H134774   0.355   3.449   5.891
11611TIP3    H234775   0.503   3.423   5.912
11612TIP3   OH234776   5.036   3.338   3.394
11612TIP3    H134777   5.072   3.286   3.466
11612TIP3    H234778   4.974   3.280   3.350
11613TIP3   OH234779   6.442   2.139   2.511
11613TIP3    H134780   6.509   2.074   2.531
11613TIP3    H234781   6.367   2.089   2.481
11614TIP3   OH234782   5.111   0.118   3.542
11614TIP3    H134783   5.079   0.028   3.533
11614TIP3    H234784   5.032   0.171   3.535
11615TIP3   OH234785   0.837   6.507   6.058
11615TIP3    H134786   0.829   6.413   6.073
11615TIP3    H234787   0.758   6.530   6.007
11616TIP3   OH234788   4.695   1.635   5.887
11616TIP3    H134789   4.736   1.558   5.925
11616TIP3    H234790   4.607   1.606   5.863
11617TIP3   OH234791   8.191   7.288   4.534
11617TIP3    H134792   8.139   7.211   4.513
11617TIP3    H234793   8.247   7.301   4.458
11618TIP3   OH234794   2.928   1.856   0.311
11618TIP3    H134795   2.903   1.809   0.231
11618TIP3    H234796   3.023   1.858   0.309
11619TIP3   OH234797   2.475   4.055   5.134
11619TIP3    H134798   2.422   3.976   5.149
11619TIP3    H234799   2.438   4.094   5.055
11620TIP3   OH234800   5.704   2.053   6.839
11620TIP3    H134801   5.799   2.046   6.841
11620TIP3    H234802   5.687   2.146   6.821
11621TIP3   OH234803   5.421   6.395   2.354
11621TIP3    H134804   5.487   6.464   2.361
11621TIP3    H234805   5.337   6.440   2.359
11622TIP3   OH234806   7.607   1.765   0.946
11622TIP3    H134807   7.539   1.742   0.883
11622TIP3    H234808   7.562   1.768   1.031
11623TIP3   OH234809   2.230   7.462   4.621
11623TIP3    H134810   2.171   7.418   4.682
11623TIP3    H234811   2.250   7.546   4.663
11624TIP3   OH234812   1.350   1.963   3.480
11624TIP3    H134813   1.302   2.029   3.531
11624TIP3    H234814   1.286   1.892   3.469
11625TIP3   OH234815   5.903   4.847   5.102
11625TIP3    H134816   5.860   4.931   5.087
11625TIP3    H234817   5.899   4.835   5.197
11626TIP3   OH234818   1.166   7.354   2.073
11626TIP3    H134819   1.215   7.379   1.995
11626TIP3    H234820   1.074   7.359   2.046
11627TIP3   OH234821   1.882   7.832   5.596
11627TIP3    H134822   1.872   7.927   5.594
11627TIP3    H234823   1.936   7.811   5.521
11628TIP3   OH234824   7.386   0.424   2.711
11628TIP3    H134825   7.455   0.487   2.695
11628TIP3    H234826   7.331   0.464   2.778
11629TIP3   OH234827   6.208   3.667   4.909
11629TIP3    H134828   6.299   3.685   4.930
11629TIP3    H234829   6.201   3.572   4.909
11630TIP3   OH234830   6.241   3.293   4.349
11630TIP3    H134831   6.299   3.219   4.332
11630TIP3    H234832   6.288   3.369   4.316
11631TIP3   OH234833   6.671   2.529   1.997
11631TIP3    H134834   6.600   2.480   1.957
11631TIP3    H234835   6.750   2.495   1.954
11632TIP3   OH234836   4.650   2.247   2.403
11632TIP3    H134837   4.681   2.299   2.477
11632TIP3    H234838   4.660   2.156   2.431
11633TIP3   OH234839   3.290   1.598   0.921
11633TIP3    H134840   3.228   1.559   0.983
11633TIP3    H234841   3.332   1.668   0.971
11634TIP3   OH234842   3.364   2.779   4.783
11634TIP3    H134843   3.368   2.716   4.855
11634TIP3    H234844   3.309   2.737   4.718
11635TIP3   OH234845   1.323   4.761   5.627
11635TIP3    H134846   1.266   4.811   5.569
11635TIP3    H234847   1.399   4.818   5.640
11636TIP3   OH234848   8.314   6.678   0.693
11636TIP3    H134849   8.391   6.622   0.687
11636TIP3    H234850   8.320   6.735   0.616
11637TIP3   OH234851   1.338   5.319   6.484
11637TIP3    H134852   1.347   5.253   6.552
11637TIP3    H234853   1.254   5.299   6.442
11638TIP3   OH234854   6.179   1.106   4.144
11638TIP3    H134855   6.188   1.012   4.161
11638TIP3    H234856   6.085   1.122   4.147
11639TIP3   OH234857   1.667   0.754   4.123
11639TIP3    H134858   1.654   0.689   4.191
11639TIP3    H234859   1.578   0.775   4.093
11640TIP3   OH234860   2.099   5.263   6.714
11640TIP3    H134861   2.189   5.294   6.727
11640TIP3    H234862   2.046   5.318   6.771
11641TIP3   OH234863   0.329   7.712   4.303
11641TIP3    H134864   0.289   7.744   4.221
11641TIP3    H234865   0.340   7.790   4.356
11642TIP3   OH234866   3.609   3.747   3.795
11642TIP3    H134867   3.651   3.771   3.877
11642TIP3    H234868   3.581   3.657   3.807
11643TIP3   OH234869   3.870   5.763   0.722
11643TIP3    H134870   3.827   5.681   0.749
11643TIP3    H234871   3.919   5.791   0.799
11644TIP3   OH234872   7.496   5.120   2.156
11644TIP3    H134873   7.422   5.180   2.149
11644TIP3    H234874   7.559   5.152   2.092
11645TIP3   OH234875   2.145   1.819   6.508
11645TIP3    H134876   2.094   1.885   6.461
11645TIP3    H234877   2.231   1.823   6.467
11646TIP3   OH234878   3.548   5.300   4.720
11646TIP3    H134879   3.583   5.223   4.765
11646TIP3    H234880   3.512   5.355   4.789
11647TIP3   OH234881   0.919   6.260   1.927
11647TIP3    H134882   0.846   6.306   1.888
11647TIP3    H234883   0.924   6.177   1.880
11648TIP3   OH234884   1.753   3.636   0.232
11648TIP3    H134885   1.770   3.695   0.305
11648TIP3    H234886   1.811   3.667   0.162
11649TIP3   OH234887   5.836   4.588   2.675
11649TIP3    H134888   5.811   4.680   2.682
11649TIP3    H234889   5.755   4.539   2.694
11650TIP3   OH234890   6.791   0.639   4.074
11650TIP3    H134891   6.854   0.711   4.072
11650TIP3    H234892   6.745   0.650   4.157
11651TIP3   OH234893   4.575   7.223   1.191
11651TIP3    H134894   4.571   7.158   1.261
11651TIP3    H234895   4.669   7.241   1.181
11652TIP3   OH234896   2.191   3.272   1.681
11652TIP3    H134897   2.115   3.239   1.633
11652TIP3    H234898   2.234   3.194   1.715
11653TIP3   OH234899   5.037   7.542   2.089
11653TIP3    H134900   5.078   7.605   2.149
11653TIP3    H234901   4.987   7.596   2.028
11654TIP3   OH234902   2.025   5.753   5.113
11654TIP3    H134903   1.954   5.817   5.127
11654TIP3    H234904   2.087   5.799   5.057
11655TIP3   OH234905   6.279   4.323   1.643
11655TIP3    H134906   6.285   4.352   1.552
11655TIP3    H234907   6.354   4.364   1.687
11656TIP3   OH234908   1.034   0.493   4.017
11656TIP3    H134909   1.079   0.435   4.078
11656TIP3    H234910   0.979   0.435   3.964
11657TIP3   OH234911   4.959   0.195   0.345
11657TIP3    H134912   5.003   0.280   0.345
11657TIP3    H234913   4.931   0.183   0.436
11658TIP3   OH234914   1.844   5.308   1.864
11658TIP3    H134915   1.866   5.256   1.786
11658TIP3    H234916   1.787   5.378   1.830
11659TIP3   OH234917   3.119   5.583   5.428
11659TIP3    H134918   3.155   5.621   5.348
11659TIP3    H234919   3.154   5.639   5.498
11660TIP3   OH234920   3.785   2.829   1.881
11660TIP3    H134921   3.716   2.889   1.909
11660TIP3    H234922   3.864   2.861   1.924
11661TIP3   OH234923   0.220   6.582   1.977
11661TIP3    H134924   0.180   6.613   1.896
11661TIP3    H234925   0.265   6.501   1.952
11662TIP3   OH234926   1.748   2.749   1.711
11662TIP3    H134927   1.724   2.733   1.803
11662TIP3    H234928   1.696   2.825   1.686
11663TIP3   OH234929   3.296   5.951   5.868
11663TIP3    H134930   3.232   6.021   5.875
11663TIP3    H234931   3.253   5.875   5.908
11664TIP3   OH234932   2.329   2.450   3.121
11664TIP3    H134933   2.285   2.476   3.202
11664TIP3    H234934   2.330   2.529   3.067
11665TIP3   OH234935   6.393   3.981   6.565
11665TIP3    H134936   6.444   4.057   6.538
11665TIP3    H234937   6.316   3.982   6.509
11666TIP3   OH234938   6.578   3.839   5.340
11666TIP3    H134939   6.531   3.760   5.365
11666TIP3    H234940   6.669   3.811   5.330
11667TIP3   OH234941   2.748   2.585   0.308
11667TIP3    H134942   2.744   2.677   0.283
11667TIP3    H234943   2.803   2.544   0.241
11668TIP3   OH234944   0.020   1.294   4.682
11668TIP3    H134945  -0.024   1.340   4.611
11668TIP3    H234946   0.092   1.248   4.639
11669TIP3   OH234947   6.128   0.104   6.077
11669TIP3    H134948   6.180   0.028   6.050
11669TIP3    H234949   6.135   0.105   6.172
11670TIP3   OH234950   1.352   4.273   2.704
11670TIP3    H134951   1.347   4.366   2.680
11670TIP3    H234952   1.441   4.248   2.680
11671TIP3   OH234953   4.936   5.953   0.297
11671TIP3    H134954   4.997   5.961   0.370
11671TIP3    H234955   4.902   6.042   0.284
11672TIP3   OH234956   1.492   6.482   3.063
11672TIP3    H134957   1.466   6.397   3.098
11672TIP3    H234958   1.429   6.500   2.993
11673TIP3   OH234959   7.617   5.803   6.205
11673TIP3    H134960   7.521   5.801   6.200
11673TIP3    H234961   7.636   5.801   6.299
11674TIP3   OH234962   7.779   4.941   2.630
11674TIP3    H134963   7.849   4.879   2.611
11674TIP3    H234964   7.825   5.023   2.650
11675TIP3   OH234965   3.526   5.923   2.905
11675TIP3    H134966   3.445   5.881   2.874
11675TIP3    H234967   3.528   6.007   2.860
11676TIP3   OH234968   1.503  -0.008   1.108
11676TIP3    H134969   1.446  -0.051   1.171
11676TIP3    H234970   1.463   0.078   1.094
11677TIP3   OH234971   3.073   4.409   6.519
11677TIP3    H134972   3.022   4.337   6.557
11677TIP3    H234973   3.134   4.435   6.588
11678TIP3   OH234974   8.082   0.414   5.214
11678TIP3    H134975   8.141   0.470   5.165
11678TIP3    H234976   8.128   0.396   5.296
11679TIP3   OH234977   7.585   5.778   6.549
11679TIP3    H134978   7.520   5.736   6.493
11679TIP3    H234979   7.559   5.755   6.638
11680TIP3   OH234980   4.435   7.245   3.865
11680TIP3    H134981   4.397   7.312   3.920
11680TIP3    H234982   4.368   7.228   3.798
11681TIP3   OH234983   2.315   0.622   1.571
11681TIP3    H134984   2.260   0.561   1.620
11681TIP3    H234985   2.296   0.708   1.610
11682TIP3   OH234986   2.849   2.804   1.452
11682TIP3    H134987   2.839   2.731   1.390
11682TIP3    H234988   2.840   2.882   1.397
11683TIP3   OH234989   0.617   0.778   4.271
11683TIP3    H134990   0.664   0.795   4.352
11683TIP3    H234991   0.567   0.698   4.288
11684TIP3   OH234992   6.619   1.074   4.716
11684TIP3    H134993   6.598   1.167   4.712
11684TIP3    H234994   6.665   1.056   4.634
11685TIP3   OH234995   4.487   7.563   0.290
11685TIP3    H134996   4.551   7.607   0.233
11685TIP3    H234997   4.405   7.565   0.240
11686TIP3   OH234998   6.355   2.553   0.788
11686TIP3    H134999   6.320   2.607   0.717
11686TIP3    H235000   6.377   2.469   0.747
11687TIP3   OH235001   0.605   6.993   2.816
11687TIP3    H135002   0.638   7.000   2.905
11687TIP3    H235003   0.683   6.977   2.762
11688TIP3   OH235004   7.540   2.987   3.944
11688TIP3    H135005   7.571   2.905   3.981
11688TIP3    H235006   7.446   2.976   3.934
11689TIP3   OH235007   8.355   4.499   0.604
11689TIP3    H135008   8.343   4.444   0.682
11689TIP3    H235009   8.274   4.549   0.597
11690TIP3   OH235010   7.573   0.534   6.851
11690TIP3    H135011   7.654   0.484   6.851
11690TIP3    H235012   7.593   0.611   6.797
11691TIP3   OH235013   2.951   3.994   2.458
11691TIP3    H135014   2.968   4.047   2.537
11691TIP3    H235015   3.037   3.981   2.420
11692TIP3   OH235016   6.398   7.178   3.433
11692TIP3    H135017   6.345   7.216   3.503
11692TIP3    H235018   6.382   7.236   3.358
11693TIP3   OH235019   7.147   3.247   5.564
11693TIP3    H135020   7.093   3.179   5.605
11693TIP3    H235021   7.084   3.310   5.529
11694TIP3   OH235022   1.782   3.948   3.111
11694TIP3    H135023   1.714   3.950   3.178
11694TIP3    H235024   1.822   4.036   3.114
11695TIP3   OH235025   7.069   6.058   3.871
11695TIP3    H135026   7.056   6.052   3.966
11695TIP3    H235027   6.998   6.115   3.841
11696TIP3   OH235028   1.905   1.343   1.848
11696TIP3    H135029   1.830   1.402   1.848
11696TIP3    H235030   1.869   1.258   1.871
11697TIP3   OH235031   3.654   0.190   0.902
11697TIP3    H135032   3.569   0.223   0.874
11697TIP3    H235033   3.646   0.180   0.997
11698TIP3   OH235034   6.832   3.312   4.775
11698TIP3    H135035   6.803   3.377   4.712
11698TIP3    H235036   6.911   3.274   4.737
11699TIP3   OH235037   3.252   7.902   3.833
11699TIP3    H135038   3.200   7.895   3.913
11699TIP3    H235039   3.216   7.834   3.775
11700TIP3   OH235040   1.789   1.409   6.103
11700TIP3    H135041   1.882   1.425   6.085
11700TIP3    H235042   1.769   1.326   6.060
11701TIP3   OH235043   8.250   7.532   3.742
11701TIP3    H135044   8.162   7.557   3.771
11701TIP3    H235045   8.251   7.436   3.746
11702TIP3   OH235046   0.462   3.818   3.102
11702TIP3    H135047   0.436   3.897   3.055
11702TIP3    H235048   0.534   3.846   3.158
11703TIP3   OH235049   6.175   2.408   0.973
11703TIP3    H135050   6.206   2.490   0.934
11703TIP3    H235051   6.114   2.373   0.909
11704TIP3   OH235052   4.164   1.202   5.941
11704TIP3    H135053   4.246   1.242   5.911
11704TIP3    H235054   4.102   1.218   5.869
11705TIP3   OH235055   7.923   5.553   6.678
11705TIP3    H135056   7.862   5.484   6.651
11705TIP3    H235057   8.002   5.507   6.707
11706TIP3   OH235058   3.632   0.497   1.183
11706TIP3    H135059   3.709   0.466   1.134
11706TIP3    H235060   3.640   0.453   1.268
11707TIP3   OH235061   5.338   4.685   1.343
11707TIP3    H135062   5.352   4.600   1.385
11707TIP3    H235063   5.333   4.747   1.416
11708TIP3   OH235064   2.583   3.936   0.216
11708TIP3    H135065   2.496   3.929   0.176
11708TIP3    H235066   2.639   3.968   0.146
11709TIP3   OH235067   2.020   1.655   6.673
11709TIP3    H135068   2.098   1.609   6.706
11709TIP3    H235069   2.055   1.723   6.615
11710TIP3   OH235070   3.340   3.695   5.539
11710TIP3    H135071   3.299   3.716   5.455
11710TIP3    H235072   3.273   3.715   5.605
11711TIP3   OH235073   7.871   4.129   6.803
11711TIP3    H135074   7.880   4.132   6.708
11711TIP3    H235075   7.893   4.039   6.826
11712TIP3   OH235076   8.216   7.048   6.165
11712TIP3    H135077   8.309   7.029   6.171
11712TIP3    H235078   8.190   7.015   6.079
11713TIP3   OH235079   4.407   4.711   0.786
11713TIP3    H135080   4.380   4.759   0.865
11713TIP3    H235081   4.503   4.709   0.790
11714TIP3   OH235082   3.451   7.354   0.336
11714TIP3    H135083   3.428   7.431   0.386
11714TIP3    H235084   3.413   7.368   0.250
11715TIP3   OH235085   3.059   6.448   6.228
11715TIP3    H135086   3.007   6.522   6.260
11715TIP3    H235087   3.144   6.459   6.270
11716TIP3   OH235088   7.679   0.621   1.514
11716TIP3    H135089   7.691   0.528   1.495
11716TIP3    H235090   7.740   0.640   1.585
11717TIP3   OH235091   8.265   3.239   3.939
11717TIP3    H135092   8.192   3.275   3.989
11717TIP3    H235093   8.336   3.229   4.002
11718TIP3   OH235094   7.670   7.749   0.974
11718TIP3    H135095   7.625   7.672   1.010
11718TIP3    H235096   7.651   7.747   0.881
11719TIP3   OH235097   3.490   7.476   1.619
11719TIP3    H135098   3.416   7.523   1.657
11719TIP3    H235099   3.564   7.536   1.630
11720TIP3   OH235100   0.720   3.018   4.153
11720TIP3    H135101   0.627   3.024   4.134
11720TIP3    H235102   0.749   2.940   4.105
11721TIP3   OH235103   1.164   2.434   5.517
11721TIP3    H135104   1.258   2.446   5.535
11721TIP3    H235105   1.161   2.404   5.426
11722TIP3   OH235106   6.295   5.045   6.624
11722TIP3    H135107   6.268   4.954   6.634
11722TIP3    H235108   6.386   5.040   6.594
11723TIP3   OH235109   3.582   5.206   5.975
11723TIP3    H135110   3.576   5.300   5.955
11723TIP3    H235111   3.648   5.173   5.915
11724TIP3   OH235112   3.482   4.038   4.956
11724TIP3    H135113   3.418   4.031   4.884
11724TIP3    H235114   3.477   3.953   4.999
11725TIP3   OH235115   6.269   0.241   5.621
11725TIP3    H135116   6.303   0.284   5.543
11725TIP3    H235117   6.275   0.307   5.690
11726TIP3   OH235118   5.928   1.738   5.387
11726TIP3    H135119   5.873   1.811   5.416
11726TIP3    H235120   5.982   1.717   5.463
11727TIP3   OH235121   1.734   7.126   4.597
11727TIP3    H135122   1.776   7.210   4.618
11727TIP3    H235123   1.646   7.150   4.567
11728TIP3   OH235124   2.546   4.634   5.427
11728TIP3    H135125   2.577   4.722   5.404
11728TIP3    H235126   2.603   4.606   5.498
11729TIP3   OH235127   5.553   3.139   1.330
11729TIP3    H135128   5.495   3.153   1.405
11729TIP3    H235129   5.519   3.059   1.288
11730TIP3   OH235130   8.379   4.910   0.135
11730TIP3    H135131   8.441   4.983   0.141
11730TIP3    H235132   8.433   4.832   0.131
11731TIP3   OH235133   1.406   0.356   1.431
11731TIP3    H135134   1.315   0.376   1.453
11731TIP3    H235135   1.422   0.271   1.473
11732TIP3   OH235136   2.033   5.586   4.567
11732TIP3    H135137   2.062   5.577   4.658
11732TIP3    H235138   2.082   5.661   4.534
11733TIP3   OH235139   1.154   0.005   0.864
11733TIP3    H135140   1.106   0.040   0.939
11733TIP3    H235141   1.150   0.076   0.799
11734TIP3   OH235142   4.932   4.845   4.078
11734TIP3    H135143   4.927   4.905   4.003
11734TIP3    H235144   5.024   4.848   4.104
11735TIP3   OH235145   3.886   5.949   1.871
11735TIP3    H135146   3.824   5.998   1.817
11735TIP3    H235147   3.846   5.862   1.881
11736TIP3   OH235148   8.371   6.585   3.935
11736TIP3    H135149   8.324   6.512   3.895
11736TIP3    H235150   8.307   6.656   3.939
11737TIP3   OH235151   6.404   0.460   1.783
11737TIP3    H135152   6.499   0.464   1.791
11737TIP3    H235153   6.387   0.373   1.747
11738TIP3   OH235154   4.146   3.576   4.369
11738TIP3    H135155   4.173   3.497   4.323
11738TIP3    H235156   4.182   3.648   4.318
11739TIP3   OH235157   3.198   3.898   6.018
11739TIP3    H135158   3.262   3.917   5.949
11739TIP3    H235159   3.191   3.803   6.018
11740TIP3   OH235160   0.770   3.621   0.406
11740TIP3    H135161   0.848   3.642   0.458
11740TIP3    H235162   0.802   3.566   0.335
11741TIP3   OH235163   4.904   5.213   2.015
11741TIP3    H135164   4.888   5.163   1.935
11741TIP3    H235165   4.989   5.182   2.046
11742TIP3   OH235166   6.507   0.553   4.915
11742TIP3    H135167   6.427   0.502   4.918
11742TIP3    H235168   6.491   0.619   4.848
11743TIP3   OH235169   8.111   5.074   2.506
11743TIP3    H135170   8.132   4.988   2.470
11743TIP3    H235171   8.125   5.135   2.434
11744TIP3   OH235172   0.367   7.489   4.901
11744TIP3    H135173   0.326   7.411   4.864
11744TIP3    H235174   0.325   7.500   4.986
11745TIP3   OH235175   7.123   4.528   0.661
11745TIP3    H135176   7.028   4.522   0.667
11745TIP3    H235177   7.155   4.478   0.736
11746TIP3   OH235178   3.068   7.607   3.893
11746TIP3    H135179   3.099   7.655   3.816
11746TIP3    H235180   3.141   7.551   3.917
11747TIP3   OH235181   5.370   2.117   1.944
11747TIP3    H135182   5.420   2.111   2.025
11747TIP3    H235183   5.416   2.183   1.892
11748TIP3   OH235184   4.703   6.799   5.849
11748TIP3    H135185   4.782   6.747   5.866
11748TIP3    H235186   4.660   6.805   5.934
11749TIP3   OH235187   2.665   7.823   1.105
11749TIP3    H135188   2.754   7.804   1.075
11749TIP3    H235189   2.638   7.743   1.151
11750TIP3   OH235190   6.487   5.798   0.068
11750TIP3    H135191   6.505   5.819  -0.024
11750TIP3    H235192   6.437   5.716   0.064
11751TIP3   OH235193   7.398   3.609   0.913
11751TIP3    H135194   7.384   3.521   0.878
11751TIP3    H235195   7.450   3.654   0.847
11752TIP3   OH235196   1.315   6.752   5.739
11752TIP3    H135197   1.303   6.731   5.832
11752TIP3    H235198   1.302   6.669   5.694
11753TIP3   OH235199   3.241   6.492   6.815
11753TIP3    H135200   3.191   6.415   6.786
11753TIP3    H235201   3.327   6.457   6.836
11754TIP3   OH235202   0.024   6.519   2.930
11754TIP3    H135203   0.086   6.592   2.935
11754TIP3    H235204  -0.053   6.550   2.978
11755TIP3   OH235205   8.176   1.133   4.588
11755TIP3    H135206   8.237   1.059   4.581
11755TIP3    H235207   8.192   1.185   4.509
11756TIP3   OH235208   1.804   5.846   2.809
11756TIP3    H135209   1.759   5.771   2.848
11756TIP3    H235210   1.786   5.918   2.870
11757TIP3   OH235211   2.246   5.484   2.397
11757TIP3    H135212   2.290   5.421   2.340
11757TIP3    H235213   2.202   5.429   2.462
11758TIP3   OH235214   7.068   0.667   6.580
11758TIP3    H135215   7.149   0.644   6.626
11758TIP3    H235216   7.077   0.625   6.494
11759TIP3   OH235217   0.019   6.388   2.697
11759TIP3    H135218   0.007   6.437   2.778
11759TIP3    H235219   0.113   6.395   2.679
11760TIP3   OH235220   4.315   0.713   4.449
11760TIP3    H135221   4.377   0.759   4.393
11760TIP3    H235222   4.236   0.767   4.447
11761TIP3   OH235223   4.759   3.999   2.244
11761TIP3    H135224   4.779   4.074   2.188
11761TIP3    H235225   4.672   4.019   2.280
11762TIP3   OH235226   2.000   4.522   3.540
11762TIP3    H135227   2.009   4.483   3.453
11762TIP3    H235228   1.938   4.465   3.586
11763TIP3   OH235229   6.154   1.977   5.235
11763TIP3    H135230   6.242   1.942   5.224
11763TIP3    H235231   6.161   2.038   5.309
11764TIP3   OH235232   5.996   0.257   5.226
11764TIP3    H135233   5.906   0.235   5.251
11764TIP3    H235234   5.987   0.306   5.144
11765TIP3   OH235235   8.144   6.879   1.428
11765TIP3    H135236   8.147   6.876   1.524
11765TIP3    H235237   8.229   6.913   1.402
11766TIP3   OH235238   1.638   2.734   2.287
11766TIP3    H135239   1.723   2.730   2.243
11766TIP3    H235240   1.658   2.711   2.378
11767TIP3   OH235241   5.361   4.860   5.346
11767TIP3    H135242   5.269   4.852   5.370
11767TIP3    H235243   5.409   4.836   5.425
11768TIP3   OH235244   6.903   2.463   5.829
11768TIP3    H135245   6.906   2.472   5.924
11768TIP3    H235246   6.895   2.369   5.814
11769TIP3   OH235247   0.496   7.068   6.586
11769TIP3    H135248   0.437   7.106   6.652
11769TIP3    H235249   0.555   7.012   6.637
11770TIP3   OH235250   6.231   6.473   2.381
11770TIP3    H135251   6.249   6.418   2.304
11770TIP3    H235252   6.159   6.530   2.353
11771TIP3   OH235253   1.301   5.670   1.234
11771TIP3    H135254   1.333   5.580   1.231
11771TIP3    H235255   1.213   5.664   1.271
11772TIP3   OH235256   1.669   7.423   0.672
11772TIP3    H135257   1.714   7.470   0.601
11772TIP3    H235258   1.737   7.366   0.709
11773TIP3   OH235259   5.597   1.106   4.349
11773TIP3    H135260   5.526   1.052   4.382
11773TIP3    H235261   5.601   1.087   4.255
11774TIP3   OH235262   1.262   4.523   3.889
11774TIP3    H135263   1.232   4.495   3.803
11774TIP3    H235264   1.183   4.522   3.944
11775TIP3   OH235265   0.232   3.888   2.810
11775TIP3    H135266   0.273   3.878   2.724
11775TIP3    H235267   0.294   3.943   2.859
11776TIP3   OH235268   4.870   1.632   1.002
11776TIP3    H135269   4.919   1.715   1.006
11776TIP3    H235270   4.808   1.638   1.075
11777TIP3   OH235271   8.289   6.484   3.560
11777TIP3    H135272   8.351   6.480   3.488
11777TIP3    H235273   8.278   6.578   3.578
11778TIP3   OH235274   1.500   3.643   2.896
11778TIP3    H135275   1.513   3.732   2.864
11778TIP3    H235276   1.501   3.589   2.817
11779TIP3   OH235277   2.408   0.256   6.186
11779TIP3    H135278   2.435   0.346   6.167
11779TIP3    H235279   2.349   0.264   6.261
11780TIP3   OH235280   0.346   7.676   2.305
11780TIP3    H135281   0.392   7.755   2.333
11780TIP3    H235282   0.255   7.704   2.293
11781TIP3   OH235283   7.552   0.518   3.699
11781TIP3    H135284   7.472   0.468   3.712
11781TIP3    H235285   7.538   0.600   3.746
11782TIP3   OH235286   6.317   6.417   1.180
11782TIP3    H135287   6.266   6.337   1.195
11782TIP3    H235288   6.378   6.394   1.110
11783TIP3   OH235289   4.188   4.518   3.205
11783TIP3    H135290   4.272   4.473   3.217
11783TIP3    H235291   4.179   4.526   3.110
11784TIP3   OH235292   4.221   0.790   1.416
11784TIP3    H135293   4.314   0.805   1.434
11784TIP3    H235294   4.179   0.874   1.436
11785TIP3   OH235295   6.646   2.056   4.996
11785TIP3    H135296   6.701   2.106   5.055
11785TIP3    H235297   6.666   2.090   4.909
11786TIP3   OH235298   2.653   6.075   5.825
11786TIP3    H135299   2.687   6.115   5.745
11786TIP3    H235300   2.646   6.147   5.888
11787TIP3   OH235301   7.522   6.432   4.931
11787TIP3    H135302   7.503   6.437   5.025
11787TIP3    H235303   7.444   6.468   4.889
11788TIP3   OH235304   1.391   6.304   5.338
11788TIP3    H135305   1.428   6.281   5.424
11788TIP3    H235306   1.298   6.317   5.355
11789TIP3   OH235307   1.433   0.986   6.659
11789TIP3    H135308   1.506   1.041   6.690
11789TIP3    H235309   1.386   1.042   6.598
11790TIP3   OH235310   6.990   3.581   0.036
11790TIP3    H135311   6.924   3.646   0.009
11790TIP3    H235312   7.008   3.531  -0.044
11791TIP3   OH235313   3.055   4.627   4.410
11791TIP3    H135314   3.115   4.701   4.424
11791TIP3    H235315   2.994   4.658   4.342
11792TIP3   OH235316   2.294   5.849   4.674
11792TIP3    H135317   2.224   5.897   4.630
11792TIP3    H235318   2.364   5.844   4.609
11793TIP3   OH235319   7.183   6.129   6.069
11793TIP3    H135320   7.229   6.201   6.025
11793TIP3    H235321   7.241   6.103   6.140
11794TIP3   OH235322   5.148   1.931   2.891
11794TIP3    H135323   5.133   2.008   2.836
11794TIP3    H235324   5.125   1.857   2.835
11795TIP3   OH235325   4.205   1.609   4.928
11795TIP3    H135326   4.229   1.523   4.892
11795TIP3    H235327   4.286   1.642   4.967
11796TIP3   OH235328   6.315   2.824   4.968
11796TIP3    H135329   6.392   2.844   5.021
11796TIP3    H235330   6.352   2.801   4.882
11797TIP3   OH235331   3.915   0.765   3.419
11797TIP3    H135332   3.834   0.773   3.368
11797TIP3    H235333   3.943   0.674   3.406
11798TIP3   OH235334   6.298   6.281   2.574
11798TIP3    H135335   6.371   6.233   2.534
11798TIP3    H235336   6.285   6.356   2.516
11799TIP3   OH235337   6.799   1.569   4.491
11799TIP3    H135338   6.827   1.643   4.546
11799TIP3    H235339   6.708   1.590   4.468
11800TIP3   OH235340   8.269   5.617   2.862
11800TIP3    H135341   8.303   5.548   2.918
11800TIP3    H235342   8.346   5.661   2.827
11801TIP3   OH235343   0.271   4.224   5.796
11801TIP3    H135344   0.235   4.163   5.731
11801TIP3    H235345   0.197   4.277   5.824
11802TIP3   OH235346   8.349   3.922   6.050
11802TIP3    H135347   8.321   3.842   6.094
11802TIP3    H235348   8.342   3.990   6.117
11803TIP3   OH235349   0.284   1.535   5.004
11803TIP3    H135350   0.291   1.627   5.029
11803TIP3    H235351   0.374   1.505   4.995
11804TIP3   OH235352   0.784   1.666   2.552
11804TIP3    H135353   0.723   1.616   2.498
11804TIP3    H235354   0.767   1.636   2.641
11805TIP3   OH235355   6.451   4.910   5.295
11805TIP3    H135356   6.425   4.828   5.337
11805TIP3    H235357   6.467   4.886   5.204
11806TIP3   OH235358   5.826   0.993   2.833
11806TIP3    H135359   5.876   0.980   2.914
11806TIP3    H235360   5.752   1.047   2.860
11807TIP3   OH235361   6.436   0.495   0.667
11807TIP3    H135362   6.348   0.508   0.633
11807TIP3    H235363   6.490   0.556   0.619
11808TIP3   OH235364   8.285   7.379   4.288
11808TIP3    H135365   8.288   7.467   4.325
11808TIP3    H235366   8.232   7.387   4.209
11809TIP3   OH235367   3.661   6.821   4.820
11809TIP3    H135368   3.701   6.784   4.742
11809TIP3    H235369   3.674   6.915   4.812
11810TIP3   OH235370   7.068   5.372   0.244
11810TIP3    H135371   7.130   5.344   0.311
11810TIP3    H235372   7.009   5.297   0.234
11811TIP3   OH235373   3.706   3.746   2.966
11811TIP3    H135374   3.690   3.677   2.902
11811TIP3    H235375   3.746   3.817   2.915
11812TIP3   OH235376   1.786   1.391   3.736
11812TIP3    H135377   1.841   1.444   3.794
11812TIP3    H235378   1.768   1.311   3.787
11813TIP3   OH235379   3.709   4.897   4.579
11813TIP3    H135380   3.692   4.804   4.565
11813TIP3    H235381   3.627   4.940   4.554
11814TIP3   OH235382   6.858   6.316   2.497
11814TIP3    H135383   6.930   6.258   2.521
11814TIP3    H235384   6.843   6.299   2.404
11815TIP3   OH235385   2.648   4.292   5.433
11815TIP3    H135386   2.660   4.199   5.416
11815TIP3    H235387   2.585   4.295   5.506
11816TIP3   OH235388   0.301   3.756   4.825
11816TIP3    H135389   0.336   3.786   4.741
11816TIP3    H235390   0.227   3.815   4.842
11817TIP3   OH235391   2.378   1.867   1.172
11817TIP3    H135392   2.368   1.955   1.208
11817TIP3    H235393   2.345   1.873   1.083
11818TIP3   OH235394   5.050   6.935   5.874
11818TIP3    H135395   5.066   6.940   5.780
11818TIP3    H235396   5.045   6.841   5.893
11819TIP3   OH235397   3.916   7.282   2.196
11819TIP3    H135398   3.938   7.193   2.169
11819TIP3    H235399   3.992   7.335   2.171
11820TIP3   OH235400   3.332   1.265   5.058
11820TIP3    H135401   3.324   1.196   5.125
11820TIP3    H235402   3.252   1.256   5.006
11821TIP3   OH235403   5.283   4.929   1.897
11821TIP3    H135404   5.230   4.853   1.870
11821TIP3    H235405   5.360   4.891   1.938
11822TIP3   OH235406   3.089   5.058   1.365
11822TIP3    H135407   3.074   4.964   1.359
11822TIP3    H235408   3.043   5.085   1.445
11823TIP3   OH235409   1.226   6.643   0.923
11823TIP3    H135410   1.210   6.601   1.008
11823TIP3    H235411   1.321   6.635   0.911
11824TIP3   OH235412   8.182   7.704   4.162
11824TIP3    H135413   8.226   7.665   4.087
11824TIP3    H235414   8.246   7.699   4.233
11825TIP3   OH235415   5.278   0.320   4.937
11825TIP3    H135416   5.360   0.346   4.894
11825TIP3    H235417   5.296   0.232   4.970
11826TIP3   OH235418   5.087   2.728   4.989
11826TIP3    H135419   5.177   2.740   5.019
11826TIP3    H235420   5.072   2.634   4.993
11827TIP3   OH235421   8.398   1.996   6.727
11827TIP3    H135422   8.446   1.914   6.718
11827TIP3    H235423   8.325   1.988   6.666
11828TIP3   OH235424   3.534   5.514   2.654
11828TIP3    H135425   3.622   5.543   2.628
11828TIP3    H235426   3.476   5.545   2.585
11829TIP3   OH235427   6.548   7.441   2.151
11829TIP3    H135428   6.606   7.398   2.215
11829TIP3    H235429   6.475   7.474   2.204
11830TIP3   OH235430   5.647   6.791   5.436
11830TIP3    H135431   5.647   6.873   5.387
11830TIP3    H235432   5.629   6.816   5.526
11831TIP3   OH235433   4.594   2.926   6.741
11831TIP3    H135434   4.599   3.017   6.710
11831TIP3    H235435   4.674   2.885   6.708
11832TIP3   OH235436   2.815   2.903   6.362
11832TIP3    H135437   2.730   2.884   6.320
11832TIP3    H235438   2.829   2.830   6.422
11833TIP3   OH235439   1.515   7.204   6.779
11833TIP3    H135440   1.566   7.135   6.821
11833TIP3    H235441   1.580   7.269   6.753
11834TIP3   OH235442   6.718  -0.004   4.390
11834TIP3    H135443   6.693  -0.065   4.459
11834TIP3    H235444   6.783   0.054   4.431
11835TIP3   OH235445   1.615   7.736   1.353
11835TIP3    H135446   1.558   7.700   1.422
11835TIP3    H235447   1.700   7.746   1.396
11836TIP3   OH235448   4.867   3.256   5.944
11836TIP3    H135449   4.777   3.285   5.956
11836TIP3    H235450   4.884   3.272   5.851
11837TIP3   OH235451   5.566   5.386   2.090
11837TIP3    H135452   5.643   5.329   2.090
11837TIP3    H235453   5.592   5.461   2.144
11838TIP3   OH235454   7.877   4.867   5.860
11838TIP3    H135455   7.872   4.887   5.953
11838TIP3    H235456   7.907   4.948   5.819
11839TIP3   OH235457   1.247   7.253   5.291
11839TIP3    H135458   1.293   7.311   5.230
11839TIP3    H235459   1.310   7.234   5.360
11840TIP3   OH235460   1.884   2.295   1.444
11840TIP3    H135461   1.854   2.310   1.534
11840TIP3    H235462   1.896   2.383   1.408
11841TIP3   OH235463   4.574   5.596   3.465
11841TIP3    H135464   4.618   5.679   3.445
11841TIP3    H235465   4.614   5.567   3.547
11842TIP3   OH235466   5.289   2.716   1.289
11842TIP3    H135467   5.358   2.714   1.355
11842TIP3    H235468   5.332   2.747   1.209
11843TIP3   OH235469   6.209   3.024   3.148
11843TIP3    H135470   6.134   3.048   3.094
11843TIP3    H235471   6.225   3.100   3.204
11844TIP3   OH235472   3.760   5.536   5.799
11844TIP3    H135473   3.795   5.559   5.713
11844TIP3    H235474   3.727   5.447   5.788
11845TIP3   OH235475   7.976   0.507   3.185
11845TIP3    H135476   8.015   0.475   3.266
11845TIP3    H235477   7.920   0.580   3.213
11846TIP3   OH235478   1.030   0.527   0.529
11846TIP3    H135479   0.966   0.491   0.591
11846TIP3    H235480   1.078   0.450   0.498
11847TIP3   OH235481   5.564   1.601   5.313
11847TIP3    H135482   5.653   1.569   5.327
11847TIP3    H235483   5.547   1.582   5.220
11848TIP3   OH235484   7.226  -0.034   0.802
11848TIP3    H135485   7.310  -0.073   0.777
11848TIP3    H235486   7.188  -0.003   0.720
11849TIP3   OH235487   3.356   4.877   0.188
11849TIP3    H135488   3.355   4.951   0.127
11849TIP3    H235489   3.269   4.838   0.179
11850TIP3   OH235490   1.483   1.706   3.513
11850TIP3    H135491   1.422   1.767   3.553
11850TIP3    H235492   1.556   1.701   3.575
11851TIP3   OH235493   4.358   6.678   0.163
11851TIP3    H135494   4.343   6.695   0.070
11851TIP3    H235495   4.298   6.737   0.208
11852TIP3   OH235496   2.728   7.755   5.838
11852TIP3    H135497   2.806   7.700   5.833
11852TIP3    H235498   2.734   7.813   5.763
11853TIP3   OH235499   1.462   1.276   4.439
11853TIP3    H135500   1.478   1.218   4.364
11853TIP3    H235501   1.380   1.243   4.477
11854TIP3   OH235502   2.213   2.661   0.668
11854TIP3    H135503   2.216   2.756   0.656
11854TIP3    H235504   2.291   2.629   0.622
11855TIP3   OH235505   7.278   5.905   4.903
11855TIP3    H135506   7.324   5.845   4.961
11855TIP3    H235507   7.316   5.991   4.921
11856TIP3   OH235508   0.039   6.207   1.948
11856TIP3    H135509   0.065   6.117   1.967
11856TIP3    H235510  -0.038   6.222   2.004
11857TIP3   OH235511   0.035   3.493   2.477
11857TIP3    H135512   0.125   3.497   2.508
11857TIP3    H235513  -0.015   3.460   2.552
11858TIP3   OH235514   8.050   1.882   0.767
11858TIP3    H135515   8.069   1.846   0.681
11858TIP3    H235516   8.009   1.810   0.815
11859TIP3   OH235517   6.785   6.754   4.458
11859TIP3    H135518   6.769   6.723   4.547
11859TIP3    H235519   6.748   6.685   4.402
11860TIP3   OH235520   2.282   1.752   2.769
11860TIP3    H135521   2.254   1.685   2.831
11860TIP3    H235522   2.234   1.830   2.796
11861TIP3   OH235523   1.168   6.504   4.040
11861TIP3    H135524   1.129   6.420   4.012
11861TIP3    H235525   1.180   6.494   4.134
11862TIP3   OH235526   3.247   0.072   3.621
11862TIP3    H135527   3.249   0.110   3.532
11862TIP3    H235528   3.159   0.093   3.653
11863TIP3   OH235529   7.536   3.876   1.335
11863TIP3    H135530   7.526   3.892   1.242
11863TIP3    H235531   7.485   3.797   1.353
11864TIP3   OH235532   3.044   3.357   6.048
11864TIP3    H135533   3.024   3.329   6.137
11864TIP3    H235534   2.960   3.354   6.002
11865TIP3   OH235535   0.785   5.126   0.644
11865TIP3    H135536   0.788   5.123   0.739
11865TIP3    H235537   0.869   5.090   0.616
11866TIP3   OH235538   6.613   3.039   2.450
11866TIP3    H135539   6.530   3.046   2.497
11866TIP3    H235540   6.656   3.124   2.464
11867TIP3   OH235541   1.168   7.431   5.867
11867TIP3    H135542   1.131   7.366   5.927
11867TIP3    H235543   1.098   7.451   5.806
11868TIP3   OH235544   5.402   0.979   2.367
11868TIP3    H135545   5.479   0.946   2.413
11868TIP3    H235546   5.352   0.901   2.345
11869TIP3   OH235547   3.492   3.777   5.013
11869TIP3    H135548   3.439   3.724   4.953
11869TIP3    H235549   3.581   3.745   5.002
11870TIP3   OH235550   1.741   7.878   3.386
11870TIP3    H135551   1.778   7.790   3.393
11870TIP3    H235552   1.688   7.888   3.465
11871TIP3   OH235553   1.298   3.312   2.650
11871TIP3    H135554   1.204   3.317   2.664
11871TIP3    H235555   1.315   3.372   2.578
11872TIP3   OH235556   0.858   2.498   5.957
11872TIP3    H135557   0.778   2.447   5.967
11872TIP3    H235558   0.835   2.586   5.988
11873TIP3   OH235559   6.653   1.521   2.432
11873TIP3    H135560   6.710   1.457   2.475
11873TIP3    H235561   6.591   1.547   2.499
11874TIP3   OH235562   1.121   4.721   5.977
11874TIP3    H135563   1.098   4.748   6.066
11874TIP3    H235564   1.216   4.713   5.978
11875TIP3   OH235565   4.287   1.550   3.318
11875TIP3    H135566   4.192   1.540   3.326
11875TIP3    H235567   4.319   1.460   3.308
11876TIP3   OH235568   7.045   2.718   5.807
11876TIP3    H135569   7.005   2.634   5.830
11876TIP3    H235570   7.066   2.709   5.714
11877TIP3   OH235571   0.199   6.892   2.286
11877TIP3    H135572   0.260   6.821   2.268
11877TIP3    H235573   0.231   6.931   2.367
11878TIP3   OH235574   0.062   7.407   2.036
11878TIP3    H135575   0.035   7.401   2.128
11878TIP3    H235576   0.048   7.498   2.013
11879TIP3   OH235577   2.467   6.696   6.696
11879TIP3    H135578   2.444   6.763   6.633
11879TIP3    H235579   2.535   6.644   6.652
11880TIP3   OH235580   2.639   5.230   1.155
11880TIP3    H135581   2.551   5.217   1.190
11880TIP3    H235582   2.632   5.203   1.063
11881TIP3   OH235583   3.251   2.631   4.240
11881TIP3    H135584   3.317   2.574   4.280
11881TIP3    H235585   3.213   2.577   4.171
11882TIP3   OH235586   0.788   1.336   5.375
11882TIP3    H135587   0.730   1.270   5.414
11882TIP3    H235588   0.831   1.377   5.450
11883TIP3   OH235589   4.153   1.871   2.011
11883TIP3    H135590   4.186   1.869   1.922
11883TIP3    H235591   4.156   1.780   2.040
11884TIP3   OH235592   8.176   5.226   3.627
11884TIP3    H135593   8.241   5.276   3.676
11884TIP3    H235594   8.146   5.158   3.687
11885TIP3   OH235595   3.000   5.260   0.584
11885TIP3    H135596   3.075   5.295   0.536
11885TIP3    H235597   3.028   5.256   0.675
11886TIP3   OH235598   4.085   4.212   0.764
11886TIP3    H135599   4.136   4.190   0.843
11886TIP3    H235600   4.125   4.160   0.695
11887TIP3   OH235601   6.053   1.790   3.786
11887TIP3    H135602   6.034   1.707   3.828
11887TIP3    H235603   6.047   1.855   3.856
11888TIP3   OH235604   2.352   0.748   3.989
11888TIP3    H135605   2.310   0.805   4.052
11888TIP3    H235606   2.366   0.666   4.036
11889TIP3   OH235607   4.585   1.506   3.577
11889TIP3    H135608   4.533   1.483   3.500
11889TIP3    H235609   4.530   1.569   3.625
11890TIP3   OH235610   5.213   1.065   4.589
11890TIP3    H135611   5.119   1.073   4.601
11890TIP3    H235612   5.248   1.152   4.610
11891TIP3   OH235613   5.613   1.566   3.487
11891TIP3    H135614   5.606   1.659   3.509
11891TIP3    H235615   5.695   1.538   3.529
11892TIP3   OH235616   2.055   5.848   1.831
11892TIP3    H135617   2.009   5.926   1.800
11892TIP3    H235618   1.987   5.798   1.877
11893TIP3   OH235619   7.842   6.913   2.366
11893TIP3    H135620   7.853   6.827   2.405
11893TIP3    H235621   7.929   6.938   2.337
11894TIP3   OH235622   0.197   7.467   4.366
11894TIP3    H135623   0.120   7.524   4.370
11894TIP3    H235624   0.267   7.523   4.336
11895TIP3   OH235625   5.112   1.080   0.744
11895TIP3    H135626   5.136   1.173   0.746
11895TIP3    H235627   5.018   1.079   0.763
11896TIP3   OH235628   6.383   2.394   5.607
11896TIP3    H135629   6.422   2.315   5.644
11896TIP3    H235630   6.388   2.381   5.512
11897TIP3   OH235631   4.722   7.281   4.024
11897TIP3    H135632   4.694   7.240   3.942
11897TIP3    H235633   4.802   7.234   4.048
11898TIP3   OH235634   2.902   1.760   6.579
11898TIP3    H135635   2.934   1.849   6.595
11898TIP3    H235636   2.982   1.706   6.578
11899TIP3   OH235637   2.997   6.983   0.439
11899TIP3    H135638   2.949   6.912   0.482
11899TIP3    H235639   3.089   6.958   0.447
11900TIP3   OH235640   3.328   3.036   1.510
11900TIP3    H135641   3.306   3.071   1.424
11900TIP3    H235642   3.285   2.951   1.513
11901TIP3   OH235643   1.579   5.074   4.732
11901TIP3    H135644   1.546   5.085   4.821
11901TIP3    H235645   1.647   5.141   4.723
11902TIP3   OH235646   3.175   6.152   3.089
11902TIP3    H135647   3.113   6.212   3.049
11902TIP3    H235648   3.133   6.066   3.082
11903TIP3   OH235649   2.732   2.271   5.808
11903TIP3    H135650   2.686   2.344   5.849
11903TIP3    H235651   2.734   2.203   5.875
11904TIP3   OH235652   5.834   3.605   2.787
11904TIP3    H135653   5.877   3.549   2.851
11904TIP3    H235654   5.830   3.691   2.829
11905TIP3   OH235655   5.517   1.527   1.301
11905TIP3    H135656   5.490   1.534   1.209
11905TIP3    H235657   5.604   1.488   1.297
11906TIP3   OH235658   1.984   1.965   4.256
11906TIP3    H135659   1.928   1.985   4.181
11906TIP3    H235660   1.927   1.919   4.317
11907TIP3   OH235661   6.353   0.422   3.132
11907TIP3    H135662   6.333   0.419   3.225
11907TIP3    H235663   6.377   0.332   3.109
11908TIP3   OH235664   7.785   3.212   1.425
11908TIP3    H135665   7.740   3.281   1.377
11908TIP3    H235666   7.728   3.135   1.417
11909TIP3   OH235667   5.306   5.702   5.926
11909TIP3    H135668   5.340   5.744   6.004
11909TIP3    H235669   5.212   5.719   5.929
11910TIP3   OH235670   3.367   7.134   5.032
11910TIP3    H135671   3.415   7.052   5.032
11910TIP3    H235672   3.396   7.180   4.953
11911TIP3   OH235673   7.640   0.595   2.757
11911TIP3    H135674   7.729   0.621   2.781
11911TIP3    H235675   7.600   0.566   2.839
11912TIP3   OH235676   4.581   7.786   3.299
11912TIP3    H135677   4.530   7.849   3.247
11912TIP3    H235678   4.571   7.703   3.253
11913TIP3   OH235679   5.270   7.620   5.186
11913TIP3    H135680   5.197   7.566   5.217
11913TIP3    H235681   5.253   7.630   5.092
11914TIP3   OH235682   1.006   3.022   2.290
11914TIP3    H135683   1.088   3.015   2.243
11914TIP3    H235684   0.966   2.935   2.281
11915TIP3   OH235685   4.257   1.346   3.596
11915TIP3    H135686   4.308   1.422   3.623
11915TIP3    H235687   4.227   1.307   3.678
11916TIP3   OH235688   3.776   0.833   6.286
11916TIP3    H135689   3.751   0.781   6.362
11916TIP3    H235690   3.764   0.774   6.212
11917TIP3   OH235691   2.196   2.554   5.560
11917TIP3    H135692   2.128   2.522   5.501
11917TIP3    H235693   2.273   2.563   5.505
11918TIP3   OH235694   7.334   3.762   0.067
11918TIP3    H135695   7.277   3.713   0.007
11918TIP3    H235696   7.418   3.766   0.021
11919TIP3   OH235697   0.583   1.491   2.083
11919TIP3    H135698   0.640   1.537   2.022
11919TIP3    H235699   0.528   1.559   2.122
11920TIP3   OH235700   6.581   5.438   6.385
11920TIP3    H135701   6.575   5.346   6.359
11920TIP3    H235702   6.659   5.443   6.441
11921TIP3   OH235703   1.038   6.983   6.055
11921TIP3    H135704   1.113   7.043   6.058
11921TIP3    H235705   0.971   7.025   6.108
11922TIP3   OH235706   7.574   4.455   5.699
11922TIP3    H135707   7.642   4.494   5.753
11922TIP3    H235708   7.588   4.492   5.612
11923TIP3   OH235709   1.093   1.154   2.920
11923TIP3    H135710   1.069   1.203   2.842
11923TIP3    H235711   1.152   1.085   2.889
11924TIP3   OH235712   7.634   1.298   5.545
11924TIP3    H135713   7.723   1.307   5.509
11924TIP3    H235714   7.603   1.215   5.511
11925TIP3   OH235715   5.627   4.851   4.706
11925TIP3    H135716   5.540   4.834   4.671
11925TIP3    H235717   5.643   4.944   4.687
11926TIP3   OH235718   2.250   4.965   3.518
11926TIP3    H135719   2.189   5.023   3.472
11926TIP3    H235720   2.303   4.926   3.448
11927TIP3   OH235721   2.144   5.628   3.217
11927TIP3    H135722   2.210   5.597   3.155
11927TIP3    H235723   2.063   5.585   3.188
11928TIP3   OH235724   6.457   4.023   4.193
11928TIP3    H135725   6.500   4.103   4.163
11928TIP3    H235726   6.529   3.964   4.216
11929TIP3   OH235727   4.722   3.160   4.922
11929TIP3    H135728   4.629   3.170   4.942
11929TIP3    H235729   4.730   3.070   4.892
11930TIP3   OH235730   2.939   6.947   5.792
11930TIP3    H135731   2.873   6.974   5.729
11930TIP3    H235732   3.023   6.973   5.753
11931TIP3   OH235733   7.630   7.225   6.589
11931TIP3    H135734   7.536   7.227   6.604
11931TIP3    H235735   7.648   7.136   6.558
11932TIP3   OH235736   7.799   5.290   3.258
11932TIP3    H135737   7.876   5.341   3.235
11932TIP3    H235738   7.832   5.202   3.275
11933TIP3   OH235739   0.909   1.500   3.999
11933TIP3    H135740   0.955   1.542   3.927
11933TIP3    H235741   0.864   1.425   3.958
11934TIP3   OH235742   6.651   2.382   4.364
11934TIP3    H135743   6.664   2.308   4.306
11934TIP3    H235744   6.739   2.417   4.379
11935TIP3   OH235745   0.395   6.927   5.898
11935TIP3    H135746   0.405   7.014   5.936
11935TIP3    H235747   0.475   6.914   5.846
11936TIP3   OH235748   5.995   6.242   4.286
11936TIP3    H135749   6.000   6.169   4.348
11936TIP3    H235750   6.086   6.270   4.275
11937TIP3   OH235751   6.019   0.544   3.510
11937TIP3    H135752   5.924   0.540   3.521
11937TIP3    H235753   6.031   0.594   3.429
11938TIP3   OH235754   6.502   0.994   3.428
11938TIP3    H135755   6.409   0.991   3.450
11938TIP3    H235756   6.514   1.078   3.385
11939TIP3   OH235757   0.453   6.172   5.481
11939TIP3    H135758   0.477   6.256   5.441
11939TIP3    H235759   0.501   6.107   5.430
11940TIP3   OH235760   3.757   3.949   2.785
11940TIP3    H135761   3.720   3.895   2.714
11940TIP3    H235762   3.702   4.027   2.787
11941TIP3   OH235763   4.650   6.337   0.809
11941TIP3    H135764   4.717   6.268   0.816
11941TIP3    H235765   4.651   6.361   0.717
11942TIP3   OH235766   5.170   7.869   2.795
11942TIP3    H135767   5.250   7.920   2.804
11942TIP3    H235768   5.100   7.930   2.813
11943TIP3   OH235769   0.154   1.156   3.437
11943TIP3    H135770   0.123   1.240   3.471
11943TIP3    H235771   0.151   1.097   3.513
11944TIP3   OH235772   1.979   2.566   1.382
11944TIP3    H135773   1.988   2.524   1.296
11944TIP3    H235774   2.054   2.532   1.432
11945TIP3   OH235775   3.346   1.363   0.777
11945TIP3    H135776   3.392   1.374   0.694
11945TIP3    H235777   3.327   1.452   0.806
11946TIP3   OH235778   5.365   5.014   5.784
11946TIP3    H135779   5.313   4.989   5.860
11946TIP3    H235780   5.306   5.000   5.710
11947TIP3   OH235781   5.254   6.551   3.664
11947TIP3    H135782   5.302   6.579   3.742
11947TIP3    H235783   5.257   6.627   3.606
11948TIP3   OH235784   4.806   7.782   2.264
11948TIP3    H135785   4.816   7.854   2.327
11948TIP3    H235786   4.864   7.714   2.296
11949TIP3   OH235787   0.572   4.924   0.833
11949TIP3    H135788   0.646   4.894   0.886
11949TIP3    H235789   0.580   5.020   0.835
11950TIP3   OH235790   0.234   2.767   1.230
11950TIP3    H135791   0.239   2.855   1.268
11950TIP3    H235792   0.299   2.716   1.279
11951TIP3   OH235793   0.543   3.640   5.624
11951TIP3    H135794   0.619   3.583   5.635
11951TIP3    H235795   0.467   3.583   5.634
11952TIP3   OH235796   8.148   4.246   4.654
11952TIP3    H135797   8.109   4.178   4.710
11952TIP3    H235798   8.201   4.298   4.714
11953TIP3   OH235799   0.913   3.321   4.487
11953TIP3    H135800   0.994   3.335   4.537
11953TIP3    H235801   0.930   3.242   4.436
11954TIP3   OH235802   0.625   3.585   4.757
11954TIP3    H135803   0.653   3.663   4.709
11954TIP3    H235804   0.529   3.588   4.754
11955TIP3   OH235805   5.966   7.608   6.230
11955TIP3    H135806   5.997   7.667   6.298
11955TIP3    H235807   5.930   7.665   6.162
11956TIP3   OH235808   7.398   3.659   1.379
11956TIP3    H135809   7.311   3.671   1.419
11956TIP3    H235810   7.395   3.570   1.344
11957TIP3   OH235811   0.650   1.715   0.488
11957TIP3    H135812   0.655   1.627   0.450
11957TIP3    H235813   0.584   1.760   0.436
11958TIP3   OH235814   3.658   1.304   3.663
11958TIP3    H135815   3.622   1.246   3.729
11958TIP3    H235816   3.742   1.333   3.699
11959TIP3   OH235817   2.153   7.646   5.056
11959TIP3    H135818   2.159   7.608   5.144
11959TIP3    H235819   2.137   7.739   5.072
11960TIP3   OH235820   6.763   3.496   2.428
11960TIP3    H135821   6.782   3.405   2.452
11960TIP3    H235822   6.835   3.546   2.467
11961TIP3   OH235823   0.899   1.842   4.992
11961TIP3    H135824   0.898   1.750   5.017
11961TIP3    H235825   0.912   1.841   4.897
11962TIP3   OH235826   3.852   2.388   0.172
11962TIP3    H135827   3.946   2.409   0.167
11962TIP3    H235828   3.817   2.450   0.236
11963TIP3   OH235829   4.932   7.091   4.278
11963TIP3    H135830   4.857   7.041   4.311
11963TIP3    H235831   5.008   7.041   4.305
11964TIP3   OH235832   8.214   2.949   3.128
11964TIP3    H135833   8.238   3.016   3.063
11964TIP3    H235834   8.223   2.866   3.081
11965TIP3   OH235835   5.689   4.887   3.222
11965TIP3    H135836   5.653   4.853   3.140
11965TIP3    H235837   5.767   4.834   3.238
11966TIP3   OH235838   1.251   4.920   2.798
11966TIP3    H135839   1.282   5.000   2.756
11966TIP3    H235840   1.326   4.889   2.849
11967TIP3   OH235841   0.371   2.406   6.452
11967TIP3    H135842   0.378   2.422   6.546
11967TIP3    H235843   0.432   2.468   6.412
11968TIP3   OH235844   7.605   2.366   4.569
11968TIP3    H135845   7.642   2.321   4.492
11968TIP3    H235846   7.678   2.373   4.630
11969TIP3   OH235847   6.136   5.768   2.208
11969TIP3    H135848   6.167   5.699   2.267
11969TIP3    H235849   6.139   5.729   2.121
11970TIP3   OH235850   0.233   6.472   3.604
11970TIP3    H135851   0.304   6.425   3.560
11970TIP3    H235852   0.276   6.546   3.646
11971TIP3   OH235853   7.016   5.223   1.582
11971TIP3    H135854   6.943   5.251   1.637
11971TIP3    H235855   6.989   5.244   1.493
11972TIP3   OH235856   5.278   7.694   0.672
11972TIP3    H135857   5.214   7.628   0.697
11972TIP3    H235858   5.360   7.663   0.710
11973TIP3   OH235859   0.861   6.956   3.832
11973TIP3    H135860   0.921   6.936   3.760
11973TIP3    H235861   0.893   7.039   3.868
11974TIP3   OH235862   3.079   1.157   5.726
11974TIP3    H135863   3.064   1.108   5.645
11974TIP3    H235864   3.035   1.107   5.794
11975TIP3   OH235865   0.447   5.145   4.386
11975TIP3    H135866   0.383   5.212   4.363
11975TIP3    H235867   0.467   5.102   4.303
11976TIP3   OH235868   6.969   1.279   5.601
11976TIP3    H135869   7.054   1.323   5.590
11976TIP3    H235870   6.965   1.217   5.528
11977TIP3   OH235871   3.739   1.883   3.301
11977TIP3    H135872   3.793   1.962   3.304
11977TIP3    H235873   3.676   1.894   3.372
11978TIP3   OH235874   2.684   3.111   5.095
11978TIP3    H135875   2.650   3.201   5.096
11978TIP3    H235876   2.709   3.096   5.004
11979TIP3   OH235877   5.533   7.295   2.475
11979TIP3    H135878   5.529   7.341   2.390
11979TIP3    H235879   5.592   7.221   2.459
11980TIP3   OH235880   3.746   6.626   5.442
11980TIP3    H135881   3.662   6.629   5.395
11980TIP3    H235882   3.728   6.576   5.521
11981TIP3   OH235883   4.665   6.463   3.238
11981TIP3    H135884   4.620   6.419   3.166
11981TIP3    H235885   4.739   6.406   3.260
11982TIP3   OH235886   1.978   2.274   2.700
11982TIP3    H135887   2.044   2.285   2.769
11982TIP3    H235888   2.024   2.294   2.619
11983TIP3   OH235889   0.188   5.030   2.702
11983TIP3    H135890   0.205   4.974   2.778
11983TIP3    H235891   0.273   5.038   2.659
11984TIP3   OH235892   3.337   3.032   4.701
11984TIP3    H135893   3.351   2.939   4.717
11984TIP3    H235894   3.269   3.035   4.633
11985TIP3   OH235895   3.461   1.576   2.168
11985TIP3    H135896   3.441   1.653   2.115
11985TIP3    H235897   3.461   1.503   2.106
11986TIP3   OH235898   7.120   1.811   0.104
11986TIP3    H135899   7.067   1.781   0.030
11986TIP3    H235900   7.145   1.900   0.080
11987TIP3   OH235901   6.174   4.986   4.090
11987TIP3    H135902   6.186   5.052   4.158
11987TIP3    H235903   6.124   5.030   4.021
11988TIP3   OH235904   0.159   3.809   6.917
11988TIP3    H135905   0.067   3.785   6.931
11988TIP3    H235906   0.208   3.733   6.947
11989TIP3   OH235907   1.124   5.632   2.312
11989TIP3    H135908   1.083   5.695   2.371
11989TIP3    H235909   1.079   5.645   2.228
11990TIP3   OH235910   8.338   4.284   6.458
11990TIP3    H135911   8.360   4.367   6.501
11990TIP3    H235912   8.243   4.275   6.470
11991TIP3   OH235913   2.193   3.564   0.712
11991TIP3    H135914   2.115   3.548   0.766
11991TIP3    H235915   2.161   3.566   0.622
11992TIP3   OH235916   3.919   4.430   2.093
11992TIP3    H135917   3.999   4.381   2.076
11992TIP3    H235918   3.891   4.401   2.180
11993TIP3   OH235919   5.983   4.542   2.425
11993TIP3    H135920   5.976   4.563   2.518
11993TIP3    H235921   5.934   4.461   2.414
11994TIP3   OH235922   6.698   5.991   3.124
11994TIP3    H135923   6.716   6.005   3.217
11994TIP3    H235924   6.757   5.919   3.100
11995TIP3   OH235925   3.509   6.243   0.766
11995TIP3    H135926   3.445   6.313   0.777
11995TIP3    H235927   3.458   6.170   0.729
11996TIP3   OH235928   3.370   7.698   6.355
11996TIP3    H135929   3.337   7.617   6.394
11996TIP3    H235930   3.446   7.722   6.409
11997TIP3   OH235931   5.472   1.395   5.501
11997TIP3    H135932   5.391   1.443   5.482
11997TIP3    H235933   5.535   1.462   5.527
11998TIP3   OH235934   0.711   7.802   6.274
11998TIP3    H135935   0.775   7.832   6.209
11998TIP3    H235936   0.691   7.712   6.248
11999TIP3   OH235937   4.486   7.525   3.231
11999TIP3    H135938   4.413   7.506   3.172
11999TIP3    H235939   4.478   7.460   3.300
12000TIP3   OH235940   5.287   1.344   3.704
12000TIP3    H135941   5.243   1.300   3.776
12000TIP3    H235942   5.266   1.291   3.627
12001TIP3   OH235943   4.225   2.899   4.794
12001TIP3    H135944   4.224   2.850   4.712
12001TIP3    H235945   4.161   2.855   4.849
12002TIP3   OH235946   4.841   6.147   5.720
12002TIP3    H135947   4.891   6.102   5.788
12002TIP3    H235948   4.750   6.138   5.747
12003TIP3   OH235949   1.097   0.160   3.897
12003TIP3    H135950   1.159   0.096   3.861
12003TIP3    H235951   1.052   0.112   3.967
12004TIP3   OH235952   3.129   0.009   1.004
12004TIP3    H135953   3.102   0.090   0.959
12004TIP3    H235954   3.053  -0.013   1.058
12005TIP3   OH235955   8.281   7.041   4.940
12005TIP3    H135956   8.190   7.068   4.937
12005TIP3    H235957   8.282   6.954   4.899
12006TIP3   OH235958   7.665   7.588   1.292
12006TIP3    H135959   7.715   7.572   1.372
12006TIP3    H235960   7.725   7.636   1.235
12007TIP3   OH235961   7.848   6.228   3.520
12007TIP3    H135962   7.815   6.239   3.431
12007TIP3    H235963   7.922   6.289   3.526
12008TIP3   OH235964   4.847   6.437   6.223
12008TIP3    H135965   4.901   6.461   6.299
12008TIP3    H235966   4.904   6.452   6.147
12009TIP3   OH235967   0.539   7.863   1.457
12009TIP3    H135968   0.474   7.793   1.455
12009TIP3    H235969   0.551   7.888   1.365
12010TIP3   OH235970   2.515   2.368   3.433
12010TIP3    H135971   2.537   2.450   3.477
12010TIP3    H235972   2.421   2.372   3.420
12011TIP3   OH235973   6.670   2.521   6.313
12011TIP3    H135974   6.630   2.584   6.372
12011TIP3    H235975   6.629   2.438   6.335
12012TIP3   OH235976   5.336   4.039   3.559
12012TIP3    H135977   5.298   3.955   3.535
12012TIP3    H235978   5.384   4.067   3.481
12013TIP3   OH235979   0.664   3.315   5.506
12013TIP3    H135980   0.624   3.254   5.569
12013TIP3    H235981   0.719   3.372   5.559
12014TIP3   OH235982   2.765   7.190   2.128
12014TIP3    H135983   2.766   7.286   2.125
12014TIP3    H235984   2.844   7.164   2.080
12015TIP3   OH235985   4.735   3.951   6.028
12015TIP3    H135986   4.737   3.968   5.934
12015TIP3    H235987   4.642   3.938   6.048
12016TIP3   OH235988   3.701   7.582   4.713
12016TIP3    H135989   3.626   7.593   4.772
12016TIP3    H235990   3.765   7.646   4.745
12017TIP3   OH235991   6.225   3.552   1.151
12017TIP3    H135992   6.209   3.458   1.159
12017TIP3    H235993   6.317   3.559   1.126
12018TIP3   OH235994   3.919   2.005   2.722
12018TIP3    H135995   3.848   2.028   2.782
12018TIP3    H235996   3.893   2.046   2.639
12019TIP3   OH235997   7.952   3.470   1.489
12019TIP3    H135998   7.929   3.415   1.414
12019TIP3    H235999   7.956   3.559   1.453
12020TIP3   OH236000   0.498   6.101   4.813
12020TIP3    H136001   0.523   6.171   4.753
12020TIP3    H236002   0.519   6.136   4.900
12021TIP3   OH236003   4.151   3.321   0.823
12021TIP3    H136004   4.156   3.284   0.911
12021TIP3    H236005   4.221   3.276   0.775
12022TIP3   OH236006   3.079   6.518   0.815
12022TIP3    H136007   3.049   6.608   0.799
12022TIP3    H236008   3.017   6.463   0.768
12023TIP3   OH236009   7.063   1.417   3.411
12023TIP3    H136010   7.106   1.478   3.470
12023TIP3    H236011   6.989   1.383   3.461
12024TIP3   OH236012   8.236   4.249   6.867
12024TIP3    H136013   8.266   4.185   6.931
12024TIP3    H236014   8.290   4.232   6.789
12025TIP3   OH236015   0.039   3.505   2.738
12025TIP3    H136016   0.090   3.429   2.766
12025TIP3    H236017   0.072   3.577   2.792
12026TIP3   OH236018   1.541   3.551   4.577
12026TIP3    H136019   1.583   3.490   4.637
12026TIP3    H236020   1.453   3.516   4.565
12027TIP3   OH236021   2.774   5.008   2.764
12027TIP3    H136022   2.752   4.938   2.703
12027TIP3    H236023   2.797   5.082   2.708
12028TIP3   OH236024   6.544   3.615   1.096
12028TIP3    H136025   6.632   3.631   1.061
12028TIP3    H236026   6.507   3.703   1.106
12029TIP3   OH236027   4.506   4.542   1.059
12029TIP3    H136028   4.484   4.480   0.989
12029TIP3    H236029   4.432   4.602   1.062
12030TIP3   OH236030   5.488   6.606   1.148
12030TIP3    H136031   5.520   6.683   1.102
12030TIP3    H236032   5.395   6.601   1.124
12031TIP3   OH236033   4.699   0.763   2.721
12031TIP3    H136034   4.628   0.705   2.752
12031TIP3    H236035   4.719   0.818   2.797
12032TIP3   OH236036   3.570   3.027   6.144
12032TIP3    H136037   3.582   3.032   6.049
12032TIP3    H236038   3.475   3.022   6.155
12033TIP3   OH236039   3.776   3.691   4.064
12033TIP3    H136040   3.793   3.710   4.156
12033TIP3    H236041   3.720   3.613   4.066
12034TIP3   OH236042   7.976   0.504   3.941
12034TIP3    H136043   7.970   0.410   3.922
12034TIP3    H236044   7.897   0.542   3.903
12035TIP3   OH236045   8.312   0.263   2.951
12035TIP3    H136046   8.287   0.349   2.985
12035TIP3    H236047   8.394   0.279   2.904
12036TIP3   OH236048   2.279   3.080   4.789
12036TIP3    H136049   2.348   3.053   4.850
12036TIP3    H236050   2.279   3.176   4.795
12037TIP3   OH236051   6.551   6.332   0.478
12037TIP3    H136052   6.493   6.300   0.546
12037TIP3    H236053   6.592   6.410   0.516
12038TIP3   OH236054   5.929   5.315   1.455
12038TIP3    H136055   5.920   5.222   1.434
12038TIP3    H236056   5.867   5.359   1.396
12039TIP3   OH236057   3.446   6.065   2.152
12039TIP3    H136058   3.433   6.095   2.242
12039TIP3    H236059   3.537   6.086   2.133
12040TIP3   OH236060   7.668   5.117   1.394
12040TIP3    H136061   7.599   5.064   1.435
12040TIP3    H236062   7.712   5.159   1.468
12041TIP3   OH236063   7.657   5.543   1.894
12041TIP3    H136064   7.698   5.545   1.808
12041TIP3    H236065   7.669   5.631   1.929
12042TIP3   OH236066   1.727   4.672   0.938
12042TIP3    H136067   1.758   4.601   0.994
12042TIP3    H236068   1.716   4.631   0.852
12043TIP3   OH236069   6.611   0.007   0.311
12043TIP3    H136070   6.693  -0.004   0.262
12043TIP3    H236071   6.597   0.102   0.313
12044TIP3   OH236072   2.503   7.085   1.485
12044TIP3    H136073   2.461   7.027   1.548
12044TIP3    H236074   2.551   7.148   1.539
12045TIP3   OH236075   5.130   5.302   3.841
12045TIP3    H136076   5.198   5.327   3.779
12045TIP3    H236077   5.048   5.313   3.793
12046TIP3   OH236078   7.715   4.612   1.792
12046TIP3    H136079   7.780   4.611   1.863
12046TIP3    H236080   7.734   4.693   1.744
12047TIP3   OH236081   1.448   1.166   0.677
12047TIP3    H136082   1.431   1.072   0.689
12047TIP3    H236083   1.443   1.179   0.582
12048TIP3   OH236084   4.899   0.881   6.099
12048TIP3    H136085   4.852   0.810   6.056
12048TIP3    H236086   4.973   0.900   6.041
12049TIP3   OH236087  -0.013   1.632   2.098
12049TIP3    H136088  -0.092   1.685   2.111
12049TIP3    H236089   0.054   1.677   2.149
12050TIP3   OH236090   5.327   1.443   5.972
12050TIP3    H136091   5.406   1.496   5.974
12050TIP3    H236092   5.273   1.483   5.903
12051TIP3   OH236093   2.700   1.457   6.044
12051TIP3    H136094   2.726   1.527   6.104
12051TIP3    H236095   2.781   1.435   5.997
12052TIP3   OH236096   7.263   2.264   0.831
12052TIP3    H136097   7.191   2.264   0.767
12052TIP3    H236098   7.269   2.173   0.859
12053TIP3   OH236099   5.860   3.215   0.652
12053TIP3    H136100   5.954   3.206   0.632
12053TIP3    H236101   5.840   3.306   0.632
12054TIP3   OH236102   2.351   4.291   2.011
12054TIP3    H136103   2.427   4.261   1.961
12054TIP3    H236104   2.359   4.247   2.096
12055TIP3   OH236105   1.520   0.920   1.363
12055TIP3    H136106   1.551   1.006   1.334
12055TIP3    H236107   1.600   0.875   1.392
12056TIP3   OH236108   7.950   7.368   4.680
12056TIP3    H136109   8.003   7.443   4.651
12056TIP3    H236110   7.984   7.294   4.630
12057TIP3   OH236111   5.119   7.798   6.255
12057TIP3    H136112   5.064   7.866   6.296
12057TIP3    H236113   5.092   7.797   6.163
12058TIP3   OH236114   7.805   4.804   4.319
12058TIP3    H136115   7.847   4.750   4.386
12058TIP3    H236116   7.752   4.743   4.268
12059TIP3   OH236117   8.229   5.880   5.702
12059TIP3    H136118   8.241   5.929   5.620
12059TIP3    H236119   8.149   5.829   5.687
12060TIP3   OH236120   3.312   3.263   6.023
12060TIP3    H136121   3.352   3.306   5.948
12060TIP3    H236122   3.229   3.308   6.036
12061TIP3   OH236123   8.307   0.998   0.259
12061TIP3    H136124   8.289   0.935   0.189
12061TIP3    H236125   8.347   0.945   0.328
12062TIP3   OH236126   3.781   6.169   0.754
12062TIP3    H136127   3.686   6.164   0.747
12062TIP3    H236128   3.807   6.239   0.694
12063TIP3   OH236129   6.865   0.162   6.000
12063TIP3    H136130   6.846   0.068   5.998
12063TIP3    H236131   6.802   0.197   6.063
12064TIP3   OH236132   5.992   2.723   4.946
12064TIP3    H136133   5.964   2.642   4.904
12064TIP3    H236134   5.961   2.792   4.888
12065TIP3   OH236135   1.015   1.014   2.266
12065TIP3    H136136   0.929   0.979   2.292
12065TIP3    H236137   0.995   1.081   2.201
12066TIP3   OH236138   5.746   1.837   3.575
12066TIP3    H136139   5.812   1.869   3.515
12066TIP3    H236140   5.663   1.847   3.528
12067TIP3   OH236141   0.313   4.906   1.736
12067TIP3    H136142   0.275   4.939   1.817
12067TIP3    H236143   0.239   4.892   1.678
12068TIP3   OH236144   2.351   7.088   1.131
12068TIP3    H136145   2.432   7.089   1.081
12068TIP3    H236146   2.357   7.165   1.188
12069TIP3   OH236147   4.152   0.222   4.363
12069TIP3    H136148   4.103   0.140   4.365
12069TIP3    H236149   4.118   0.271   4.438
12070TIP3   OH236150   2.464   0.975   3.400
12070TIP3    H136151   2.525   0.903   3.387
12070TIP3    H236152   2.432   0.963   3.489
12071TIP3   OH236153   3.618   2.038   1.351
12071TIP3    H136154   3.680   2.078   1.290
12071TIP3    H236155   3.538   2.090   1.341
12072TIP3   OH236156   4.494   0.197   1.792
12072TIP3    H136157   4.400   0.192   1.778
12072TIP3    H236158   4.526   0.110   1.767
12073TIP3   OH236159   5.452   1.863   4.550
12073TIP3    H136160   5.460   1.850   4.456
12073TIP3    H236161   5.530   1.822   4.587
12074TIP3   OH236162   1.388   6.484   4.975
12074TIP3    H136163   1.301   6.513   5.000
12074TIP3    H236164   1.446   6.515   5.045
12075TIP3   OH236165   0.698   6.868   5.476
12075TIP3    H136166   0.606   6.852   5.455
12075TIP3    H236167   0.746   6.828   5.403
12076TIP3   OH236168   2.428   6.529   5.941
12076TIP3    H136169   2.488   6.603   5.954
12076TIP3    H236170   2.347   6.556   5.985
12077TIP3   OH236171   5.545   7.832   4.207
12077TIP3    H136172   5.472   7.776   4.234
12077TIP3    H236173   5.520   7.920   4.238
12078TIP3   OH236174   6.984   5.800   0.833
12078TIP3    H136175   6.956   5.762   0.916
12078TIP3    H236176   6.903   5.824   0.789
12079TIP3   OH236177   3.851   7.470   1.967
12079TIP3    H136178   3.848   7.435   1.877
12079TIP3    H236179   3.929   7.429   2.005
12080TIP3   OH236180   1.321   1.510   4.081
12080TIP3    H136181   1.355   1.530   3.994
12080TIP3    H236182   1.398   1.486   4.133
12081TIP3   OH236183   4.811   2.201   3.619
12081TIP3    H136184   4.823   2.244   3.534
12081TIP3    H236185   4.893   2.217   3.666
12082TIP3   OH236186   3.163   6.945   6.118
12082TIP3    H136187   3.113   6.907   6.190
12082TIP3    H236188   3.251   6.910   6.130
12083TIP3   OH236189   6.874   7.707   2.194
12083TIP3    H136190   6.802   7.712   2.131
12083TIP3    H236191   6.935   7.644   2.155
12084TIP3   OH236192   6.524   6.097   1.601
12084TIP3    H136193   6.495   6.025   1.657
12084TIP3    H236194   6.481   6.082   1.517
12085TIP3   OH236195   0.438   4.437   2.708
12085TIP3    H136196   0.486   4.519   2.723
12085TIP3    H236197   0.446   4.422   2.614
12086TIP3   OH236198   3.289   1.227   6.753
12086TIP3    H136199   3.217   1.193   6.808
12086TIP3    H236200   3.292   1.320   6.773
12087TIP3   OH236201   4.279   3.092   0.193
12087TIP3    H136202   4.293   3.007   0.151
12087TIP3    H236203   4.278   3.155   0.121
12088TIP3   OH236204   2.796   4.870   0.608
12088TIP3    H136205   2.796   4.775   0.595
12088TIP3    H236206   2.802   4.905   0.519
12089TIP3   OH236207   1.960   4.498   5.008
12089TIP3    H136208   2.033   4.515   5.067
12089TIP3    H236209   1.916   4.583   5.000
12090TIP3   OH236210   8.240   4.939   2.807
12090TIP3    H136211   8.247   4.878   2.733
12090TIP3    H236212   8.331   4.962   2.828
12091TIP3   OH236213   3.970   1.439   1.216
12091TIP3    H136214   3.893   1.455   1.161
12091TIP3    H236215   4.026   1.384   1.161
12092TIP3   OH236216   7.568   4.869   6.312
12092TIP3    H136217   7.492   4.909   6.272
12092TIP3    H236218   7.630   4.856   6.240
12093TIP3   OH236219   2.637   4.117   3.335
12093TIP3    H136220   2.627   4.158   3.421
12093TIP3    H236221   2.723   4.146   3.305
12094TIP3   OH236222   3.350   6.489   0.811
12094TIP3    H136223   3.350   6.543   0.890
12094TIP3    H236224   3.261   6.496   0.777
12095TIP3   OH236225   3.102   3.440   5.697
12095TIP3    H136226   3.067   3.367   5.646
12095TIP3    H236227   3.057   3.517   5.665
12096TIP3   OH236228   7.445   7.710   3.188
12096TIP3    H136229   7.455   7.802   3.213
12096TIP3    H236230   7.416   7.667   3.268
12097TIP3   OH236231   3.252   6.219   0.519
12097TIP3    H136232   3.201   6.193   0.596
12097TIP3    H236233   3.198   6.193   0.445
12098TIP3   OH236234   3.463   7.639   0.907
12098TIP3    H136235   3.543   7.646   0.959
12098TIP3    H236236   3.392   7.643   0.971
12099TIP3   OH236237   4.793   0.852   2.180
12099TIP3    H136238   4.707   0.879   2.146
12099TIP3    H236239   4.783   0.855   2.275
12100TIP3   OH236240   0.012   5.684   5.782
12100TIP3    H136241   0.101   5.709   5.806
12100TIP3    H236242  -0.033   5.767   5.770
12101TIP3   OH236243   3.486   4.772   4.794
12101TIP3    H136244   3.477   4.748   4.887
12101TIP3    H236245   3.517   4.691   4.752
12102TIP3   OH236246   2.775   3.799   5.214
12102TIP3    H136247   2.832   3.830   5.284
12102TIP3    H236248   2.834   3.759   5.151
12103TIP3   OH236249   5.310   0.055   5.918
12103TIP3    H136250   5.252   0.019   5.850
12103TIP3    H236251   5.394   0.067   5.874
12104TIP3   OH236252   6.311   1.538   5.606
12104TIP3    H136253   6.277   1.481   5.676
12104TIP3    H236254   6.233   1.583   5.573
12105TIP3   OH236255   4.736   7.789   1.201
12105TIP3    H136256   4.799   7.739   1.150
12105TIP3    H236257   4.652   7.775   1.157
12106TIP3   OH236258   3.627   0.801   5.864
12106TIP3    H136259   3.632   0.897   5.861
12106TIP3    H236260   3.669   0.778   5.947
12107TIP3   OH236261   6.683   4.388   2.772
12107TIP3    H136262   6.638   4.457   2.820
12107TIP3    H236263   6.650   4.306   2.809
12108TIP3   OH236264   8.238   4.585   4.725
12108TIP3    H136265   8.305   4.615   4.787
12108TIP3    H236266   8.274   4.606   4.639
12109TIP3   OH236267   6.402   1.853   2.370
12109TIP3    H136268   6.459   1.776   2.371
12109TIP3    H236269   6.331   1.830   2.310
12110TIP3   OH236270   2.588   6.284   6.823
12110TIP3    H136271   2.509   6.279   6.876
12110TIP3    H236272   2.564   6.342   6.750
12111TIP3   OH236273   3.207   5.677   4.183
12111TIP3    H136274   3.115   5.652   4.193
12111TIP3    H236275   3.231   5.712   4.269
12112TIP3   OH236276   4.597   2.749   0.361
12112TIP3    H136277   4.598   2.813   0.290
12112TIP3    H236278   4.514   2.764   0.405
12113TIP3   OH236279   6.150   1.435   5.810
12113TIP3    H136280   6.084   1.367   5.798
12113TIP3    H236281   6.125   1.477   5.893
12114TIP3   OH236282   7.153   2.575   2.422
12114TIP3    H136283   7.167   2.538   2.335
12114TIP3    H236284   7.228   2.545   2.473
12115TIP3   OH236285   6.585   1.166   5.756
12115TIP3    H136286   6.613   1.241   5.704
12115TIP3    H236287   6.654   1.101   5.742
12116TIP3   OH236288   0.957   4.295   6.386
12116TIP3    H136289   0.956   4.291   6.290
12116TIP3    H236290   0.972   4.387   6.406
12117TIP3   OH236291   7.971   4.487   4.198
12117TIP3    H136292   8.044   4.542   4.225
12117TIP3    H236293   7.904   4.548   4.169
12118TIP3   OH236294   2.606   5.502   5.499
12118TIP3    H136295   2.594   5.423   5.551
12118TIP3    H236296   2.614   5.471   5.409
12119TIP3   OH236297   6.644   0.428   0.912
12119TIP3    H136298   6.623   0.513   0.874
12119TIP3    H236299   6.683   0.450   0.997
12120TIP3   OH236300   1.254   3.744   6.859
12120TIP3    H136301   1.246   3.683   6.786
12120TIP3    H236302   1.302   3.695   6.926
12121TIP3   OH236303   0.656   0.155   4.211
12121TIP3    H136304   0.639   0.127   4.301
12121TIP3    H236305   0.675   0.074   4.164
12122TIP3   OH236306   1.915   4.622   6.846
12122TIP3    H136307   1.914   4.586   6.757
12122TIP3    H236308   2.005   4.653   6.859
12123TIP3   OH236309   7.859   6.183   1.167
12123TIP3    H136310   7.876   6.182   1.073
12123TIP3    H236311   7.895   6.101   1.199
12124TIP3   OH236312   0.995   2.690   4.673
12124TIP3    H136313   0.919   2.738   4.706
12124TIP3    H236314   0.992   2.702   4.578
12125TIP3   OH236315   0.167   4.879   4.800
12125TIP3    H136316   0.155   4.969   4.832
12125TIP3    H236317   0.258   4.876   4.770
12126TIP3   OH236318   1.284   3.848   2.056
12126TIP3    H136319   1.308   3.759   2.082
12126TIP3    H236320   1.211   3.870   2.113
12127TIP3   OH236321   3.192   5.631   6.358
12127TIP3    H136322   3.118   5.676   6.399
12127TIP3    H236323   3.249   5.702   6.327
12128TIP3   OH236324   8.374   4.602   5.993
12128TIP3    H136325   8.428   4.677   6.016
12128TIP3    H236326   8.314   4.636   5.926
12129TIP3   OH236327   0.620   0.392   4.089
12129TIP3    H136328   0.604   0.308   4.133
12129TIP3    H236329   0.612   0.372   3.996
12130TIP3   OH236330   8.151   1.017   6.000
12130TIP3    H136331   8.067   1.014   5.954
12130TIP3    H236332   8.216   1.013   5.930
12131TIP3   OH236333   7.301   0.745   5.644
12131TIP3    H136334   7.223   0.795   5.617
12131TIP3    H236335   7.266   0.665   5.682
12132TIP3   OH236336   3.617   4.333   3.202
12132TIP3    H136337   3.627   4.262   3.265
12132TIP3    H236338   3.567   4.295   3.130
12133TIP3   OH236339   4.879   2.764   5.168
12133TIP3    H136340   4.902   2.783   5.259
12133TIP3    H236341   4.936   2.821   5.116
12134TIP3   OH236342   7.794   2.580   5.702
12134TIP3    H136343   7.850   2.532   5.763
12134TIP3    H236344   7.855   2.621   5.641
12135TIP3   OH236345   5.181   2.082   4.378
12135TIP3    H136346   5.244   2.051   4.313
12135TIP3    H236347   5.121   2.009   4.391
12136TIP3   OH236348   6.634   0.683   2.552
12136TIP3    H136349   6.628   0.656   2.644
12136TIP3    H236350   6.641   0.602   2.503
12137TIP3   OH236351   1.140   3.766   4.251
12137TIP3    H136352   1.229   3.765   4.287
12137TIP3    H236353   1.152   3.761   4.156
12138TIP3   OH236354   6.889   4.577   1.764
12138TIP3    H136355   6.841   4.495   1.765
12138TIP3    H236356   6.958   4.564   1.699
12139TIP3   OH236357   4.215   7.608   3.499
12139TIP3    H136358   4.255   7.692   3.522
12139TIP3    H236359   4.289   7.551   3.478
12140TIP3   OH236360   1.227   2.921   0.276
12140TIP3    H136361   1.180   2.969   0.344
12140TIP3    H236362   1.283   2.986   0.234
12141TIP3   OH236363   7.381   5.715   0.878
12141TIP3    H136364   7.309   5.777   0.863
12141TIP3    H236365   7.382   5.702   0.973
12142TIP3   OH236366   2.457   2.560   5.476
12142TIP3    H136367   2.519   2.611   5.528
12142TIP3    H236368   2.512   2.502   5.423
12143TIP3   OH236369   3.094   0.616   5.470
12143TIP3    H136370   3.031   0.557   5.511
12143TIP3    H236371   3.042   0.684   5.428
12144TIP3   OH236372   0.625   1.164   1.414
12144TIP3    H136373   0.696   1.218   1.450
12144TIP3    H236374   0.602   1.205   1.331
12145TIP3   OH236375   4.669   2.470   2.186
12145TIP3    H136376   4.653   2.410   2.260
12145TIP3    H236377   4.582   2.504   2.164
12146TIP3   OH236378   2.929   0.659   3.564
12146TIP3    H136379   2.950   0.752   3.556
12146TIP3    H236380   3.008   0.619   3.600
12147TIP3   OH236381   4.906   5.636   3.915
12147TIP3    H136382   4.895   5.604   3.826
12147TIP3    H236383   4.918   5.731   3.906
12148TIP3   OH236384   5.544   7.456   1.802
12148TIP3    H136385   5.563   7.549   1.805
12148TIP3    H236386   5.451   7.450   1.824
12149TIP3   OH236387   6.868   4.733   2.934
12149TIP3    H136388   6.815   4.694   3.003
12149TIP3    H236389   6.861   4.672   2.861
12150TIP3   OH236390   4.560   7.377   6.526
12150TIP3    H136391   4.613   7.451   6.556
12150TIP3    H236392   4.621   7.303   6.524
12151TIP3   OH236393   4.281   5.304   0.782
12151TIP3    H136394   4.308   5.334   0.695
12151TIP3    H236395   4.359   5.265   0.820
12152TIP3   OH236396   1.817   5.493   6.325
12152TIP3    H136397   1.758   5.418   6.322
12152TIP3    H236398   1.768   5.565   6.285
12153TIP3   OH236399   5.325   1.521   4.408
12153TIP3    H136400   5.274   1.552   4.333
12153TIP3    H236401   5.313   1.426   4.407
12154TIP3   OH236402   0.734   7.687   1.530
12154TIP3    H136403   0.814   7.730   1.501
12154TIP3    H236404   0.663   7.743   1.498
12155TIP3   OH236405   5.034   6.315   5.370
12155TIP3    H136406   4.951   6.358   5.350
12155TIP3    H236407   5.015   6.222   5.364
12156TIP3   OH236408   8.137   0.056   4.925
12156TIP3    H136409   8.191   0.102   4.988
12156TIP3    H236410   8.174  -0.032   4.921
12157TIP3   OH236411   7.316   7.648   5.430
12157TIP3    H136412   7.283   7.669   5.517
12157TIP3    H236413   7.411   7.638   5.441
12158TIP3   OH236414   8.340   3.997   5.339
12158TIP3    H136415   8.319   4.089   5.351
12158TIP3    H236416   8.288   3.970   5.263
12159TIP3   OH236417   7.323   0.575   6.616
12159TIP3    H136418   7.391   0.586   6.549
12159TIP3    H236419   7.340   0.489   6.654
12160TIP3   OH236420   4.664   5.504   3.725
12160TIP3    H136421   4.642   5.585   3.771
12160TIP3    H236422   4.622   5.435   3.777
12161TIP3   OH236423   0.924   1.648   5.981
12161TIP3    H136424   0.952   1.658   6.072
12161TIP3    H236425   0.904   1.737   5.952
12162TIP3   OH236426   0.785   1.097   5.528
12162TIP3    H136427   0.879   1.113   5.516
12162TIP3    H236428   0.778   1.055   5.613
12163TIP3   OH236429   6.058   1.743   3.512
12163TIP3    H136430   5.991   1.675   3.515
12163TIP3    H236431   6.074   1.766   3.603
12164TIP3   OH236432   3.107   5.772   6.003
12164TIP3    H136433   3.014   5.792   6.003
12164TIP3    H236434   3.112   5.678   5.982
12165TIP3   OH236435   3.072   6.288   1.996
12165TIP3    H136436   3.134   6.226   2.035
12165TIP3    H236437   3.082   6.276   1.902
12166TIP3   OH236438   3.755   5.560   0.863
12166TIP3    H136439   3.699   5.551   0.940
12166TIP3    H236440   3.751   5.474   0.821
12167TIP3   OH236441   7.563   1.620   2.393
12167TIP3    H136442   7.502   1.681   2.435
12167TIP3    H236443   7.523   1.600   2.309
12168TIP3   OH236444   8.117   1.172   2.218
12168TIP3    H136445   8.181   1.220   2.165
12168TIP3    H236446   8.124   1.213   2.304
12169TIP3   OH236447   7.323   0.869   4.871
12169TIP3    H136448   7.253   0.880   4.807
12169TIP3    H236449   7.288   0.806   4.934
12170TIP3   OH236450   0.944   2.035   3.401
12170TIP3    H136451   1.030   1.998   3.420
12170TIP3    H236452   0.882   1.973   3.439
12171TIP3   OH236453   1.060   5.400   6.270
12171TIP3    H136454   1.059   5.349   6.351
12171TIP3    H236455   1.024   5.486   6.295
12172TIP3   OH236456   3.750   1.773   5.144
12172TIP3    H136457   3.835   1.753   5.183
12172TIP3    H236458   3.691   1.785   5.218
12173TIP3   OH236459   7.291   6.934   5.572
12173TIP3    H136460   7.197   6.944   5.584
12173TIP3    H236461   7.326   7.023   5.584
12174TIP3   OH236462   6.203   5.314   2.847
12174TIP3    H136463   6.185   5.364   2.927
12174TIP3    H236464   6.197   5.222   2.875
12175TIP3   OH236465   3.604   0.495   0.094
12175TIP3    H136466   3.513   0.469   0.106
12175TIP3    H236467   3.643   0.490   0.181
12176TIP3   OH236468   1.559   6.791   6.052
12176TIP3    H136469   1.482   6.806   6.107
12176TIP3    H236470   1.633   6.808   6.109
12177TIP3   OH236471   3.674   5.845   3.407
12177TIP3    H136472   3.670   5.763   3.359
12177TIP3    H236473   3.628   5.909   3.351
12178TIP3   OH236474   7.056   3.283   1.534
12178TIP3    H136475   7.076   3.344   1.605
12178TIP3    H236476   6.960   3.279   1.533
12179TIP3   OH236477   2.129   2.379   1.189
12179TIP3    H136478   2.196   2.443   1.211
12179TIP3    H236479   2.139   2.365   1.094
12180TIP3   OH236480   1.146   7.155   2.301
12180TIP3    H136481   1.195   7.092   2.248
12180TIP3    H236482   1.118   7.222   2.238
12181TIP3   OH236483   1.125   4.120   5.184
12181TIP3    H136484   1.201   4.136   5.128
12181TIP3    H236485   1.050   4.138   5.128
12182TIP3   OH236486   1.486   7.298   0.519
12182TIP3    H136487   1.451   7.220   0.564
12182TIP3    H236488   1.559   7.326   0.574
12183TIP3   OH236489   4.190   0.484   4.189
12183TIP3    H136490   4.166   0.450   4.275
12183TIP3    H236491   4.162   0.575   4.190
12184TIP3   OH236492   8.187   5.312   4.632
12184TIP3    H136493   8.123   5.340   4.567
12184TIP3    H236494   8.218   5.393   4.672
12185TIP3   OH236495   4.199   0.918   5.545
12185TIP3    H136496   4.163   0.914   5.457
12185TIP3    H236497   4.135   0.873   5.600
12186TIP3   OH236498   7.214   0.133   1.122
12186TIP3    H136499   7.193   0.211   1.071
12186TIP3    H236500   7.159   0.138   1.200
12187TIP3   OH236501   7.755   7.500   2.696
12187TIP3    H136502   7.686   7.463   2.750
12187TIP3    H236503   7.715   7.513   2.610
12188TIP3   OH236504   7.317   7.518   2.699
12188TIP3    H136505   7.280   7.443   2.745
12188TIP3    H236506   7.257   7.535   2.627
12189TIP3   OH236507   4.220   2.313   5.842
12189TIP3    H136508   4.157   2.317   5.913
12189TIP3    H236509   4.268   2.395   5.847
12190TIP3   OH236510   6.857   7.721   1.486
12190TIP3    H136511   6.917   7.669   1.538
12190TIP3    H236512   6.781   7.664   1.472
12191TIP3   OH236513   6.075   6.447   5.635
12191TIP3    H136514   6.068   6.389   5.559
12191TIP3    H236515   6.012   6.517   5.619
12192TIP3   OH236516   4.800   2.170   6.206
12192TIP3    H136517   4.886   2.157   6.244
12192TIP3    H236518   4.768   2.251   6.245
12193TIP3   OH236519   0.210   6.953   1.072
12193TIP3    H136520   0.149   6.933   1.001
12193TIP3    H236521   0.260   7.028   1.040
12194TIP3   OH236522   5.167   5.775   3.306
12194TIP3    H136523   5.097   5.759   3.369
12194TIP3    H236524   5.183   5.690   3.265
12195TIP3   OH236525   4.255   0.084   6.731
12195TIP3    H136526   4.308   0.112   6.656
12195TIP3    H236527   4.319   0.070   6.801
12196TIP3   OH236528   1.309   2.804   5.613
12196TIP3    H136529   1.365   2.822   5.689
12196TIP3    H236530   1.221   2.801   5.649
12197TIP3   OH236531   5.367   3.789   4.528
12197TIP3    H136532   5.406   3.710   4.565
12197TIP3    H236533   5.323   3.831   4.602
12198TIP3   OH236534   2.731   4.572   4.693
12198TIP3    H136535   2.674   4.495   4.692
12198TIP3    H236536   2.687   4.633   4.752
12199TIP3   OH236537   4.496   0.672   4.654
12199TIP3    H136538   4.469   0.746   4.708
12199TIP3    H236539   4.436   0.674   4.579
12200TIP3   OH236540   7.582   2.492   1.002
12200TIP3    H136541   7.601   2.558   1.068
12200TIP3    H236542   7.666   2.447   0.989
12201TIP3   OH236543   7.398   7.466   4.664
12201TIP3    H136544   7.493   7.476   4.657
12201TIP3    H236545   7.384   7.423   4.748
12202TIP3   OH236546   3.300   3.456   5.165
12202TIP3    H136547   3.372   3.511   5.198
12202TIP3    H236548   3.244   3.441   5.242
12203TIP3   OH236549   0.259   5.466   5.702
12203TIP3    H136550   0.288   5.538   5.758
12203TIP3    H236551   0.178   5.435   5.743
12204TIP3   OH236552   4.215   5.528   2.841
12204TIP3    H136553   4.180   5.439   2.843
12204TIP3    H236554   4.270   5.531   2.763
12205TIP3   OH236555   6.104   4.142   3.622
12205TIP3    H136556   6.190   4.131   3.581
12205TIP3    H236557   6.104   4.080   3.695
12206TIP3   OH236558   1.326   6.523   5.620
12206TIP3    H136559   1.298   6.435   5.646
12206TIP3    H236560   1.280   6.540   5.538
12207TIP3   OH236561   6.142   0.164   6.338
12207TIP3    H136562   6.189   0.240   6.372
12207TIP3    H236563   6.156   0.096   6.404
12208TIP3   OH236564   7.232   3.755   1.742
12208TIP3    H136565   7.314   3.706   1.754
12208TIP3    H236566   7.198   3.724   1.658
12209TIP3   OH236567   2.420   4.327   6.137
12209TIP3    H136568   2.458   4.291   6.217
12209TIP3    H236569   2.392   4.415   6.162
12210TIP3   OH236570   3.052   2.898   3.032
12210TIP3    H136571   2.959   2.919   3.020
12210TIP3    H236572   3.061   2.882   3.126
12211TIP3   OH236573   2.035   3.919   0.622
12211TIP3    H136574   2.131   3.917   0.616
12211TIP3    H236575   2.016   3.877   0.707
12212TIP3   OH236576   2.791   2.133   2.416
12212TIP3    H136577   2.816   2.212   2.464
12212TIP3    H236578   2.773   2.069   2.485
12213TIP3   OH236579   1.067   5.432   5.079
12213TIP3    H136580   1.068   5.390   5.165
12213TIP3    H236581   1.068   5.526   5.098
12214TIP3   OH236582   3.884   7.905   6.401
12214TIP3    H136583   3.900   7.983   6.348
12214TIP3    H236584   3.924   7.834   6.350
12215TIP3   OH236585   0.973   2.189   5.311
12215TIP3    H136586   0.887   2.152   5.329
12215TIP3    H236587   1.020   2.119   5.265
12216TIP3   OH236588   0.860   0.313   3.806
12216TIP3    H136589   0.789   0.269   3.759
12216TIP3    H236590   0.934   0.253   3.802
12217TIP3   OH236591   1.508   2.769   5.830
12217TIP3    H136592   1.519   2.679   5.859
12217TIP3    H236593   1.498   2.820   5.911
12218TIP3   OH236594   6.771   0.729   0.822
12218TIP3    H136595   6.708   0.762   0.759
12218TIP3    H236596   6.755   0.780   0.901
12219TIP3   OH236597   7.366   7.897   4.599
12219TIP3    H136598   7.314   7.817   4.589
12219TIP3    H236599   7.311   7.953   4.654
12220TIP3   OH236600   6.641   5.677   2.821
12220TIP3    H136601   6.720   5.696   2.872
12220TIP3    H236602   6.640   5.581   2.813
12221TIP3   OH236603   0.751   0.630   3.100
12221TIP3    H136604   0.750   0.539   3.071
12221TIP3    H236605   0.696   0.631   3.178
12222TIP3   OH236606   1.813   3.237   2.296
12222TIP3    H136607   1.743   3.173   2.293
12222TIP3    H236608   1.892   3.189   2.270
12223TIP3   OH236609   1.368   1.968   1.891
12223TIP3    H136610   1.446   1.974   1.836
12223TIP3    H236611   1.400   1.934   1.975
12224TIP3   OH236612   7.934   5.402   3.645
12224TIP3    H136613   8.013   5.376   3.599
12224TIP3    H236614   7.945   5.495   3.662
12225TIP3   OH236615   0.892   7.652   4.384
12225TIP3    H136616   0.835   7.635   4.458
12225TIP3    H236617   0.914   7.566   4.349
12226TIP3   OH236618   2.909   0.463   1.483
12226TIP3    H136619   2.895   0.535   1.421
12226TIP3    H236620   2.916   0.385   1.428
12227TIP3   OH236621   6.173   4.563   1.870
12227TIP3    H136622   6.088   4.546   1.828
12227TIP3    H236623   6.201   4.477   1.902
12228TIP3   OH236624   5.664   4.664   6.241
12228TIP3    H136625   5.672   4.574   6.212
12228TIP3    H236626   5.752   4.688   6.271
12229TIP3   OH236627   8.021   2.723   3.856
12229TIP3    H136628   8.025   2.816   3.833
12229TIP3    H236629   7.987   2.721   3.945
12230TIP3   OH236630   3.455   4.429   5.335
12230TIP3    H136631   3.401   4.408   5.412
12230TIP3    H236632   3.450   4.350   5.281
12231TIP3   OH236633   0.488   1.140   2.910
12231TIP3    H136634   0.502   1.082   2.986
12231TIP3    H236635   0.480   1.080   2.836
12232TIP3   OH236636   6.780   5.266   1.407
12232TIP3    H136637   6.799   5.174   1.388
12232TIP3    H236638   6.706   5.287   1.351
12233TIP3   OH236639   5.363   3.145   4.282
12233TIP3    H136640   5.381   3.078   4.347
12233TIP3    H236641   5.431   3.210   4.295
12234TIP3   OH236642   4.182   7.397   0.882
12234TIP3    H136643   4.220   7.471   0.836
12234TIP3    H236644   4.236   7.389   0.961
12235TIP3   OH236645   7.733   4.770   3.231
12235TIP3    H136646   7.708   4.717   3.156
12235TIP3    H236647   7.786   4.711   3.286
12236TIP3   OH236648   7.708   2.071   6.336
12236TIP3    H136649   7.650   2.137   6.298
12236TIP3    H236650   7.662   2.039   6.413
12237TIP3   OH236651   2.440   6.952   6.236
12237TIP3    H136652   2.450   6.998   6.153
12237TIP3    H236653   2.516   6.895   6.241
12238TIP3   OH236654   7.491   0.435   5.407
12238TIP3    H136655   7.586   0.427   5.418
12238TIP3    H236656   7.459   0.345   5.412
12239TIP3   OH236657   6.638   1.200   3.630
12239TIP3    H136658   6.692   1.134   3.586
12239TIP3    H236659   6.665   1.283   3.590
12240TIP3   OH236660   4.043   1.697   4.479
12240TIP3    H136661   4.082   1.625   4.429
12240TIP3    H236662   3.957   1.710   4.438
12241TIP3   OH236663   3.367   5.993   0.768
12241TIP3    H136664   3.381   5.898   0.774
12241TIP3    H236665   3.273   6.003   0.760
12242TIP3   OH236666   0.474   2.640   0.963
12242TIP3    H136667   0.450   2.559   0.918
12242TIP3    H236668   0.447   2.625   1.054
12243TIP3   OH236669   2.725   1.787   4.238
12243TIP3    H136670   2.697   1.697   4.252
12243TIP3    H236671   2.772   1.785   4.154
12244TIP3   OH236672   3.838   7.463   1.471
12244TIP3    H136673   3.818   7.375   1.501
12244TIP3    H236674   3.758   7.494   1.430
12245TIP3   OH236675   8.325   1.408   6.022
12245TIP3    H136676   8.252   1.393   5.962
12245TIP3    H236677   8.401   1.370   5.979
12246TIP3   OH236678   4.995   4.479   3.265
12246TIP3    H136679   4.945   4.560   3.269
12246TIP3    H236680   4.953   4.423   3.331
12247TIP3   OH236681   1.741   3.052   4.539
12247TIP3    H136682   1.758   2.963   4.508
12247TIP3    H236683   1.769   3.051   4.630
12248TIP3   OH236684   1.340   0.062   2.197
12248TIP3    H136685   1.301   0.107   2.272
12248TIP3    H236686   1.329  -0.031   2.216
12249TIP3   OH236687   5.679   0.195   3.874
12249TIP3    H136688   5.657   0.123   3.815
12249TIP3    H236689   5.663   0.160   3.961
12250TIP3   OH236690   4.407   1.650   4.299
12250TIP3    H136691   4.390   1.654   4.393
12250TIP3    H236692   4.481   1.710   4.286
12251TIP3   OH236693   5.083   1.974   5.723
12251TIP3    H136694   5.025   1.919   5.775
12251TIP3    H236695   5.026   2.041   5.685
12252TIP3   OH236696   4.789   7.530   6.556
12252TIP3    H136697   4.866   7.550   6.503
12252TIP3    H236698   4.748   7.615   6.571
12253TIP3   OH236699   4.146   7.557   2.398
12253TIP3    H136700   4.165   7.467   2.423
12253TIP3    H236701   4.133   7.553   2.303
12254TIP3   OH236702   5.714   6.872   2.702
12254TIP3    H136703   5.702   6.967   2.711
12254TIP3    H236704   5.732   6.842   2.791
12255TIP3   OH236705   0.518   0.677   1.086
12255TIP3    H136706   0.427   0.682   1.056
12255TIP3    H236707   0.517   0.720   1.171
12256TIP3   OH236708   1.456   6.438   4.459
12256TIP3    H136709   1.500   6.358   4.429
12256TIP3    H236710   1.482   6.505   4.395
12257TIP3   OH236711   6.983   1.431   4.704
12257TIP3    H136712   7.023   1.500   4.650
12257TIP3    H236713   7.050   1.363   4.708
12258TIP3   OH236714   7.772   5.820   4.273
12258TIP3    H136715   7.685   5.794   4.303
12258TIP3    H236716   7.763   5.827   4.177
12259TIP3   OH236717   5.428   1.919   1.000
12259TIP3    H136718   5.433   1.915   0.905
12259TIP3    H236719   5.334   1.927   1.019
12260TIP3   OH236720   1.280   6.811   4.402
12260TIP3    H136721   1.363   6.764   4.392
12260TIP3    H236722   1.276   6.870   4.327
12261TIP3   OH236723   2.813   4.799   1.998
12261TIP3    H136724   2.907   4.783   1.999
12261TIP3    H236725   2.781   4.747   1.925
12262TIP3   OH236726   7.998   6.044   2.221
12262TIP3    H136727   7.941   6.069   2.149
12262TIP3    H236728   8.078   6.096   2.208
12263TIP3   OH236729   4.820   6.364   1.679
12263TIP3    H136730   4.791   6.424   1.610
12263TIP3    H236731   4.867   6.295   1.633
12264TIP3   OH236732   5.331   5.177   0.607
12264TIP3    H136733   5.409   5.231   0.611
12264TIP3    H236734   5.292   5.185   0.694
12265TIP3   OH236735   4.093   5.272   5.348
12265TIP3    H136736   4.030   5.233   5.288
12265TIP3    H236737   4.172   5.219   5.338
12266TIP3   OH236738   3.329   6.479   0.147
12266TIP3    H136739   3.279   6.422   0.088
12266TIP3    H236740   3.387   6.419   0.194
12267TIP3   OH236741   5.000   6.404   4.467
12267TIP3    H136742   4.940   6.335   4.439
12267TIP3    H236743   4.983   6.415   4.560
12268TIP3   OH236744   1.817   1.639   0.738
12268TIP3    H136745   1.793   1.558   0.693
12268TIP3    H236746   1.741   1.696   0.727
12269TIP3   OH236747   5.516   5.770   5.777
12269TIP3    H136748   5.445   5.743   5.835
12269TIP3    H236749   5.554   5.687   5.747
12270TIP3   OH236750   6.465   7.880   0.332
12270TIP3    H136751   6.510   7.883   0.248
12270TIP3    H236752   6.376   7.852   0.310
12271TIP3   OH236753   0.823   2.778   1.096
12271TIP3    H136754   0.834   2.762   1.002
12271TIP3    H236755   0.881   2.716   1.139
12272TIP3   OH236756   7.590   2.975   3.569
12272TIP3    H136757   7.521   3.032   3.536
12272TIP3    H236758   7.544   2.906   3.616
12273TIP3   OH236759   7.516   4.302   1.068
12273TIP3    H136760   7.460   4.312   0.991
12273TIP3    H236761   7.578   4.374   1.063
12274TIP3   OH236762   5.748   6.423   5.409
12274TIP3    H136763   5.660   6.441   5.444
12274TIP3    H236764   5.805   6.484   5.456
12275TIP3   OH236765   0.204   7.510   0.557
12275TIP3    H136766   0.145   7.462   0.614
12275TIP3    H236767   0.249   7.572   0.614
12276TIP3   OH236768   4.120   5.616   1.521
12276TIP3    H136769   4.133   5.534   1.475
12276TIP3    H236770   4.185   5.615   1.591
12277TIP3   OH236771   4.539   6.727   4.156
12277TIP3    H136772   4.567   6.817   4.143
12277TIP3    H236773   4.619   6.675   4.146
12278TIP3   OH236774   5.515   6.492   2.906
12278TIP3    H136775   5.548   6.424   2.965
12278TIP3    H236776   5.465   6.444   2.840
12279TIP3   OH236777   3.024   4.185   4.465
12279TIP3    H136778   3.082   4.173   4.390
12279TIP3    H236779   2.936   4.182   4.428
12280TIP3   OH236780   0.503   0.187   2.809
12280TIP3    H136781   0.482   0.119   2.874
12280TIP3    H236782   0.419   0.209   2.769
12281TIP3   OH236783   4.102   6.698   4.812
12281TIP3    H136784   4.192   6.700   4.845
12281TIP3    H236785   4.047   6.714   4.890
12282TIP3   OH236786   7.897   2.778   4.118
12282TIP3    H136787   7.888   2.867   4.153
12282TIP3    H236788   7.809   2.757   4.086
12283TIP3   OH236789   2.353   6.528   0.192
12283TIP3    H136790   2.355   6.435   0.211
12283TIP3    H236791   2.378   6.570   0.274
12284TIP3   OH236792   1.513   5.305   2.708
12284TIP3    H136793   1.527   5.365   2.781
12284TIP3    H236794   1.464   5.357   2.644
12285TIP3   OH236795   6.771   6.000   3.385
12285TIP3    H136796   6.848   5.943   3.394
12285TIP3    H236797   6.793   6.077   3.438
12286TIP3   OH236798   0.739   1.324   1.765
12286TIP3    H136799   0.756   1.300   1.674
12286TIP3    H236800   0.650   1.359   1.765
12287TIP3   OH236801   5.238   7.332   0.551
12287TIP3    H136802   5.169   7.378   0.503
12287TIP3    H236803   5.317   7.346   0.499
12288TIP3   OH236804   1.086   0.261   4.198
12288TIP3    H136805   1.041   0.189   4.154
12288TIP3    H236806   1.060   0.254   4.289
12289TIP3   OH236807   3.513   5.169   4.414
12289TIP3    H136808   3.500   5.075   4.415
12289TIP3    H236809   3.588   5.184   4.473
12290TIP3   OH236810   2.348   7.455   4.128
12290TIP3    H136811   2.364   7.361   4.119
12290TIP3    H236812   2.323   7.465   4.220
12291TIP3   OH236813   0.855   7.521   3.321
12291TIP3    H136814   0.765   7.510   3.290
12291TIP3    H236815   0.905   7.454   3.275
12292TIP3   OH236816   0.770   7.795   5.329
12292TIP3    H136817   0.794   7.877   5.286
12292TIP3    H236818   0.799   7.727   5.267
12293TIP3   OH236819   3.014   3.198   5.245
12293TIP3    H136820   2.975   3.111   5.234
12293TIP3    H236821   3.091   3.198   5.188
12294TIP3   OH236822   4.117   0.917   6.819
12294TIP3    H136823   4.200   0.941   6.778
12294TIP3    H236824   4.055   0.914   6.746
12295TIP3   OH236825   0.371   4.584   2.971
12295TIP3    H136826   0.421   4.506   2.992
12295TIP3    H236827   0.411   4.618   2.891
12296TIP3   OH236828   3.870   2.494   4.505
12296TIP3    H136829   3.825   2.569   4.545
12296TIP3    H236830   3.829   2.417   4.545
12297TIP3   OH236831   4.372   6.784   5.893
12297TIP3    H136832   4.432   6.714   5.918
12297TIP3    H236833   4.424   6.864   5.901
12298TIP3   OH236834   1.782   2.322   0.225
12298TIP3    H136835   1.847   2.269   0.179
12298TIP3    H236836   1.714   2.340   0.160
12299TIP3   OH236837   6.036   5.176   6.462
12299TIP3    H136838   6.088   5.179   6.541
12299TIP3    H236839   5.970   5.245   6.473
12300TIP3   OH236840   8.194   7.440   5.788
12300TIP3    H136841   8.270   7.499   5.787
12300TIP3    H236842   8.148   7.462   5.869
12301TIP3   OH236843   0.081   5.085   1.031
12301TIP3    H136844   0.112   5.172   1.005
12301TIP3    H236845   0.073   5.038   0.948
12302TIP3   OH236846   0.728   0.597   4.963
12302TIP3    H136847   0.646   0.594   5.011
12302TIP3    H236848   0.702   0.614   4.872
12303TIP3   OH236849   5.093   7.407   3.660
12303TIP3    H136850   4.998   7.409   3.648
12303TIP3    H236851   5.110   7.470   3.729
12304TIP3   OH236852   5.885   6.425   4.540
12304TIP3    H136853   5.966   6.476   4.541
12304TIP3    H236854   5.909   6.342   4.501
12305TIP3   OH236855   0.568   7.381   5.237
12305TIP3    H136856   0.659   7.399   5.261
12305TIP3    H236857   0.564   7.286   5.229
12306TIP3   OH236858   5.422   4.674   1.089
12306TIP3    H136859   5.469   4.591   1.092
12306TIP3    H236860   5.396   4.691   1.179
12307TIP3   OH236861   1.493   0.047   4.117
12307TIP3    H136862   1.492  -0.047   4.138
12307TIP3    H236863   1.553   0.054   4.043
12308TIP3   OH236864   0.416   6.377   0.401
12308TIP3    H136865   0.411   6.355   0.494
12308TIP3    H236866   0.504   6.411   0.389
12309TIP3   OH236867   5.895   1.410   0.501
12309TIP3    H136868   5.946   1.330   0.489
12309TIP3    H236869   5.948   1.464   0.558
12310TIP3   OH236870   4.418   2.966   2.412
12310TIP3    H136871   4.380   3.054   2.405
12310TIP3    H236872   4.353   2.916   2.460
12311TIP3   OH236873   4.738   3.820   4.715
12311TIP3    H136874   4.758   3.864   4.798
12311TIP3    H236875   4.681   3.882   4.669
12312TIP3   OH236876   1.868   7.486   1.964
12312TIP3    H136877   1.944   7.525   2.008
12312TIP3    H236878   1.879   7.509   1.872
12313TIP3   OH236879   0.165   5.869   6.032
12313TIP3    H136880   0.195   5.941   6.087
12313TIP3    H236881   0.073   5.887   6.015
12314TIP3   OH236882   8.219   1.715   1.350
12314TIP3    H136883   8.210   1.641   1.290
12314TIP3    H236884   8.129   1.738   1.373
12315TIP3   OH236885   7.477   1.160   6.066
12315TIP3    H136886   7.504   1.181   6.155
12315TIP3    H236887   7.476   1.064   6.063
12316TIP3   OH236888   1.665   7.018   1.510
12316TIP3    H136889   1.754   7.018   1.474
12316TIP3    H236890   1.626   6.937   1.477
12317TIP3   OH236891   6.512   0.685   2.015
12317TIP3    H136892   6.536   0.620   1.949
12317TIP3    H236893   6.430   0.723   1.984
12318TIP3   OH236894   7.512   6.298   5.201
12318TIP3    H136895   7.554   6.232   5.256
12318TIP3    H236896   7.435   6.253   5.166
12319TIP3   OH236897   8.203   6.218   2.693
12319TIP3    H136898   8.276   6.279   2.698
12319TIP3    H236899   8.131   6.269   2.657
12320TIP3   OH236900   7.046   2.113   2.336
12320TIP3    H136901   7.133   2.138   2.366
12320TIP3    H236902   7.027   2.032   2.383
12321TIP3   OH236903   0.720   5.884   4.839
12321TIP3    H136904   0.795   5.942   4.851
12321TIP3    H236905   0.663   5.930   4.778
12322TIP3   OH236906   4.732   3.661   6.192
12322TIP3    H136907   4.667   3.591   6.194
12322TIP3    H236908   4.683   3.741   6.211
12323TIP3   OH236909   5.228   4.776   2.242
12323TIP3    H136910   5.141   4.802   2.275
12323TIP3    H236911   5.232   4.681   2.257
12324TIP3   OH236912   0.592   0.808   0.486
12324TIP3    H136913   0.609   0.728   0.435
12324TIP3    H236914   0.675   0.827   0.529
12325TIP3   OH236915   6.051   7.304   6.489
12325TIP3    H136916   6.122   7.249   6.520
12325TIP3    H236917   6.075   7.326   6.399
12326TIP3   OH236918   2.944   5.689   2.253
12326TIP3    H136919   2.994   5.658   2.178
12326TIP3    H236920   2.904   5.771   2.223
12327TIP3   OH236921   0.749   1.303   0.372
12327TIP3    H136922   0.713   1.382   0.332
12327TIP3    H236923   0.674   1.245   0.384
12328TIP3   OH236924   3.830   2.758   5.745
12328TIP3    H136925   3.900   2.697   5.765
12328TIP3    H236926   3.858   2.841   5.784
12329TIP3   OH236927   4.305   5.292   6.681
12329TIP3    H136928   4.376   5.319   6.622
12329TIP3    H236929   4.346   5.227   6.738
12330TIP3   OH236930   0.762   6.548   4.910
12330TIP3    H136931   0.789   6.458   4.890
12330TIP3    H236932   0.698   6.569   4.841
12331TIP3   OH236933   4.142   7.156   5.996
12331TIP3    H136934   4.190   7.083   6.034
12331TIP3    H236935   4.149   7.226   6.060
12332TIP3   OH236936   3.392   2.172   1.297
12332TIP3    H136937   3.407   2.260   1.263
12332TIP3    H236938   3.300   2.171   1.321
12333TIP3   OH236939   2.115   4.261   1.431
12333TIP3    H136940   2.177   4.195   1.462
12333TIP3    H236941   2.156   4.345   1.453
12334TIP3   OH236942   2.844   1.892   2.049
12334TIP3    H136943   2.843   1.801   2.018
12334TIP3    H236944   2.830   1.884   2.144
12335TIP3   OH236945   8.233   7.814   5.804
12335TIP3    H136946   8.250   7.889   5.861
12335TIP3    H236947   8.293   7.746   5.834
12336TIP3   OH236948   1.905   6.949   4.398
12336TIP3    H136949   1.832   6.970   4.457
12336TIP3    H236950   1.966   7.021   4.409
12337TIP3   OH236951   2.502   7.652   4.655
12337TIP3    H136952   2.441   7.642   4.728
12337TIP3    H236953   2.585   7.679   4.696
12338TIP3   OH236954   6.214   4.652   5.010
12338TIP3    H136955   6.166   4.691   4.937
12338TIP3    H236956   6.147   4.617   5.068
12339TIP3   OH236957   1.092   1.655   3.814
12339TIP3    H136958   1.084   1.599   3.736
12339TIP3    H236959   1.182   1.687   3.811
12340TIP3   OH236960   0.188   0.180   2.941
12340TIP3    H136961   0.185   0.106   2.880
12340TIP3    H236962   0.220   0.253   2.888
12341TIP3   OH236963   2.974   7.321   4.333
12341TIP3    H136964   3.009   7.369   4.258
12341TIP3    H236965   2.882   7.345   4.336
12342TIP3   OH236966   0.995   6.211   1.363
12342TIP3    H136967   1.034   6.298   1.351
12342TIP3    H236968   0.901   6.227   1.363
12343TIP3   OH236969   3.831   5.549   4.837
12343TIP3    H136970   3.872   5.463   4.851
12343TIP3    H236971   3.804   5.549   4.746
12344TIP3   OH236972   4.680   5.179   4.701
12344TIP3    H136973   4.629   5.097   4.701
12344TIP3    H236974   4.670   5.212   4.790
12345TIP3   OH236975   7.406   6.547   6.149
12345TIP3    H136976   7.370   6.634   6.169
12345TIP3    H236977   7.495   6.564   6.120
12346TIP3   OH236978   0.681   6.275   1.305
12346TIP3    H136979   0.683   6.363   1.343
12346TIP3    H236980   0.608   6.232   1.350
12347TIP3   OH236981   6.961   0.088   5.318
12347TIP3    H136982   6.901   0.112   5.248
12347TIP3    H236983   6.911   0.102   5.398
12348TIP3   OH236984   7.931   2.686   1.321
12348TIP3    H136985   7.835   2.682   1.320
12348TIP3    H236986   7.959   2.598   1.295
12349TIP3   OH236987   3.966   4.561   5.491
12349TIP3    H136988   4.009   4.490   5.538
12349TIP3    H236989   3.874   4.555   5.517
12350TIP3   OH236990   0.057   1.837   0.523
12350TIP3    H136991   0.138   1.790   0.545
12350TIP3    H236992  -0.013   1.773   0.538
12351TIP3   OH236993   3.899   4.238   5.426
12351TIP3    H136994   3.946   4.245   5.343
12351TIP3    H236995   3.849   4.320   5.432
12352TIP3   OH236996   7.104   0.549   3.890
12352TIP3    H136997   7.013   0.540   3.920
12352TIP3    H236998   7.104   0.626   3.834
12353TIP3   OH236999   4.119   7.242   3.357
12353TIP3    H137000   4.160   7.186   3.423
12353TIP3    H237001   4.157   7.213   3.274
12354TIP3   OH237002   1.868   1.832   1.447
12354TIP3    H137003   1.944   1.883   1.419
12354TIP3    H237004   1.793   1.887   1.423
12355TIP3   OH237005   2.763   1.325   0.410
12355TIP3    H137006   2.817   1.402   0.428
12355TIP3    H237007   2.800   1.257   0.467
12356TIP3   OH237008   1.935   2.464   5.495
12356TIP3    H137009   1.923   2.369   5.491
12356TIP3    H237010   1.902   2.488   5.581
12357TIP3   OH237011   2.130   4.333   6.716
12357TIP3    H137012   2.155   4.422   6.740
12357TIP3    H237013   2.177   4.278   6.779
12358TIP3   OH237014   0.501   4.783   1.147
12358TIP3    H137015   0.587   4.809   1.181
12358TIP3    H237016   0.468   4.862   1.105
12359TIP3   OH237017   5.429   3.591   5.278
12359TIP3    H137018   5.368   3.665   5.278
12359TIP3    H237019   5.396   3.533   5.209
12360TIP3   OH237020   2.399   0.967   6.626
12360TIP3    H137021   2.410   0.988   6.719
12360TIP3    H237022   2.397   0.871   6.624
12361TIP3   OH237023   0.899   4.954   4.090
12361TIP3    H137024   0.934   4.964   4.001
12361TIP3    H237025   0.937   4.873   4.122
12362TIP3   OH237026  -0.003   5.533   3.416
12362TIP3    H137027   0.051   5.587   3.475
12362TIP3    H237028  -0.050   5.596   3.362
12363TIP3   OH237029   1.587   7.572   5.371
12363TIP3    H137030   1.679   7.562   5.346
12363TIP3    H237031   1.563   7.659   5.340
12364TIP3   OH237032   7.427   1.106   4.987
12364TIP3    H137033   7.367   1.180   4.992
12364TIP3    H237034   7.370   1.030   4.975
12365TIP3   OH237035   1.504   0.840   2.260
12365TIP3    H137036   1.556   0.920   2.253
12365TIP3    H237037   1.534   0.799   2.341
12366TIP3   OH237038   2.573   3.528   4.012
12366TIP3    H137039   2.596   3.437   3.996
12366TIP3    H237040   2.491   3.524   4.061
12367TIP3   OH237041   7.372   2.869   1.724
12367TIP3    H137042   7.446   2.930   1.723
12367TIP3    H237043   7.326   2.889   1.806
12368TIP3   OH237044   5.290   0.145   2.731
12368TIP3    H137045   5.301   0.074   2.794
12368TIP3    H237046   5.264   0.103   2.650
12369TIP3   OH237047   6.058   6.716   0.670
12369TIP3    H137048   5.997   6.646   0.648
12369TIP3    H237049   6.124   6.674   0.725
12370TIP3   OH237050   2.902   7.632   1.281
12370TIP3    H137051   2.952   7.582   1.344
12370TIP3    H237052   2.819   7.651   1.326
12371TIP3   OH237053   0.286   5.659   1.740
12371TIP3    H137054   0.308   5.734   1.685
12371TIP3    H237055   0.245   5.698   1.817
12372TIP3   OH237056   7.488   7.548   6.650
12372TIP3    H137057   7.434   7.541   6.572
12372TIP3    H237058   7.577   7.530   6.620
12373TIP3   OH237059   5.849   5.727   1.548
12373TIP3    H137060   5.837   5.663   1.618
12373TIP3    H237061   5.874   5.675   1.472
12374TIP3   OH237062   0.414   0.651   5.795
12374TIP3    H137063   0.404   0.745   5.784
12374TIP3    H237064   0.494   0.641   5.846
12375TIP3   OH237065   3.873   3.832   5.341
12375TIP3    H137066   3.813   3.907   5.348
12375TIP3    H237067   3.929   3.853   5.266
12376TIP3   OH237068   5.765   5.172   3.275
12376TIP3    H137069   5.795   5.200   3.361
12376TIP3    H237070   5.754   5.078   3.282
12377TIP3   OH237071   0.633   1.902   4.241
12377TIP3    H137072   0.714   1.895   4.191
12377TIP3    H237073   0.642   1.837   4.311
12378TIP3   OH237074   5.703   0.877   6.340
12378TIP3    H137075   5.623   0.894   6.289
12378TIP3    H237076   5.709   0.781   6.343
12379TIP3   OH237077   3.852   4.686   3.320
12379TIP3    H137078   3.818   4.705   3.408
12379TIP3    H237079   3.943   4.713   3.323
12380TIP3   OH237080   7.634   7.818   5.567
12380TIP3    H137081   7.681   7.892   5.605
12380TIP3    H237082   7.679   7.802   5.483
12381TIP3   OH237083   7.149   1.212   4.677
12381TIP3    H137084   7.242   1.235   4.671
12381TIP3    H237085   7.122   1.201   4.586
12382TIP3   OH237086   8.248   1.722   1.672
12382TIP3    H137087   8.272   1.650   1.613
12382TIP3    H237088   8.166   1.693   1.713
12383TIP3   OH237089   5.173   0.172   1.482
12383TIP3    H137090   5.224   0.199   1.406
12383TIP3    H237091   5.224   0.201   1.557
12384TIP3   OH237092   0.259   1.273   1.533
12384TIP3    H137093   0.261   1.229   1.448
12384TIP3    H237094   0.166   1.280   1.554
12385TIP3   OH237095   7.887   5.927   3.199
12385TIP3    H137096   7.926   5.851   3.242
12385TIP3    H237097   7.796   5.902   3.183
12386TIP3   OH237098   0.532   4.296   6.070
12386TIP3    H137099   0.550   4.203   6.082
12386TIP3    H237100   0.442   4.307   6.101
12387TIP3   OH237101   7.232   6.259   5.120
12387TIP3    H137102   7.155   6.218   5.159
12387TIP3    H237103   7.206   6.350   5.104
12388TIP3   OH237104   0.357   4.537   4.199
12388TIP3    H137105   0.269   4.532   4.237
12388TIP3    H237106   0.392   4.448   4.208
12389TIP3   OH237107   7.774   6.212   2.573
12389TIP3    H137108   7.755   6.280   2.508
12389TIP3    H237109   7.853   6.242   2.618
12390TIP3   OH237110   2.238   4.688   5.715
12390TIP3    H137111   2.223   4.594   5.726
12390TIP3    H237112   2.248   4.700   5.621
12391TIP3   OH237113   0.926   2.028   1.906
12391TIP3    H137114   0.842   2.028   1.859
12391TIP3    H237115   0.987   2.069   1.845
12392TIP3   OH237116   0.387   7.706   3.887
12392TIP3    H137117   0.417   7.692   3.797
12392TIP3    H237118   0.443   7.649   3.939
12393TIP3   OH237119   1.461   3.483   6.331
12393TIP3    H137120   1.453   3.472   6.236
12393TIP3    H237121   1.461   3.578   6.344
12394TIP3   OH237122   1.163   4.706   2.044
12394TIP3    H137123   1.101   4.778   2.031
12394TIP3    H237124   1.181   4.705   2.138
12395TIP3   OH237125   7.486   1.715   0.086
12395TIP3    H137126   7.434   1.700   0.165
12395TIP3    H237127   7.489   1.811   0.078
12396TIP3   OH237128   3.616   7.471   6.215
12396TIP3    H137129   3.704   7.434   6.221
12396TIP3    H237130   3.613   7.538   6.283
12397TIP3   OH237131   5.592   5.763   0.663
12397TIP3    H137132   5.602   5.700   0.591
12397TIP3    H237133   5.608   5.848   0.623
12398TIP3   OH237134   6.667   6.256   1.315
12398TIP3    H137135   6.720   6.287   1.389
12398TIP3    H237136   6.693   6.165   1.303
12399TIP3   OH237137   0.148   2.933   3.159
12399TIP3    H137138   0.125   2.885   3.239
12399TIP3    H237139   0.147   3.025   3.186
12400TIP3   OH237140   4.994   7.458   2.733
12400TIP3    H137141   5.051   7.395   2.690
12400TIP3    H237142   5.054   7.514   2.783
12401TIP3   OH237143   7.896   4.234   4.331
12401TIP3    H137144   7.892   4.302   4.264
12401TIP3    H237145   7.837   4.265   4.400
12402TIP3   OH237146   2.822   1.781   2.349
12402TIP3    H137147   2.804   1.827   2.431
12402TIP3    H237148   2.741   1.734   2.329
12403TIP3   OH237149   1.576   0.689   5.513
12403TIP3    H137150   1.587   0.768   5.459
12403TIP3    H237151   1.487   0.659   5.494
12404TIP3   OH237152   5.144   2.729   6.120
12404TIP3    H137153   5.198   2.761   6.047
12404TIP3    H237154   5.111   2.645   6.090
12405TIP3   OH237155   6.203   1.816   0.636
12405TIP3    H137156   6.288   1.775   0.649
12405TIP3    H237157   6.181   1.853   0.722
12406TIP3   OH237158   6.584   7.469   6.191
12406TIP3    H137159   6.511   7.473   6.253
12406TIP3    H237160   6.586   7.378   6.161
12407TIP3   OH237161   0.391   4.123   4.078
12407TIP3    H137162   0.442   4.050   4.046
12407TIP3    H237163   0.416   4.197   4.022
12408TIP3   OH237164   6.614   1.055   6.661
12408TIP3    H137165   6.684   1.099   6.709
12408TIP3    H237166   6.543   1.119   6.659
12409TIP3   OH237167   5.436   3.249   5.345
12409TIP3    H137168   5.504   3.295   5.394
12409TIP3    H237169   5.362   3.309   5.344
12410TIP3   OH237170   2.140   0.076   5.766
12410TIP3    H137171   2.235   0.063   5.775
12410TIP3    H237172   2.108   0.079   5.856
12411TIP3   OH237173   7.192   7.040   2.895
12411TIP3    H137174   7.199   6.951   2.859
12411TIP3    H237175   7.223   7.032   2.985
12412TIP3   OH237176   1.033   1.316   1.089
12412TIP3    H137177   1.100   1.378   1.060
12412TIP3    H237178   1.011   1.344   1.178
12413TIP3   OH237179   3.137   0.557   5.068
12413TIP3    H137180   3.166   0.642   5.035
12413TIP3    H237181   3.093   0.516   4.993
12414TIP3   OH237182   1.290   2.013   5.429
12414TIP3    H137183   1.220   2.071   5.459
12414TIP3    H237184   1.334   2.062   5.359
12415TIP3   OH237185   7.500   6.806   1.362
12415TIP3    H137186   7.581   6.803   1.311
12415TIP3    H237187   7.465   6.717   1.358
12416TIP3   OH237188   4.660   1.031   5.611
12416TIP3    H137189   4.590   0.996   5.667
12416TIP3    H237190   4.732   0.969   5.621
12417TIP3   OH237191   4.427   3.668   3.326
12417TIP3    H137192   4.505   3.613   3.320
12417TIP3    H237193   4.452   3.750   3.284
12418TIP3   OH237194   6.443   1.359   1.229
12418TIP3    H137195   6.383   1.395   1.164
12418TIP3    H237196   6.495   1.294   1.181
12419TIP3   OH237197   6.065   0.370   6.627
12419TIP3    H137198   6.078   0.312   6.702
12419TIP3    H237199   6.146   0.363   6.577
12420TIP3   OH237200   6.529   6.396   6.782
12420TIP3    H137201   6.608   6.343   6.777
12420TIP3    H237202   6.506   6.396   6.875
12421TIP3   OH237203   6.578   4.625   6.649
12421TIP3    H137204   6.665   4.634   6.610
12421TIP3    H237205   6.592   4.640   6.743
12422TIP3   OH237206   2.217   0.102   1.690
12422TIP3    H137207   2.164   0.139   1.620
12422TIP3    H237208   2.167   0.026   1.720
12423TIP3   OH237209   3.105   3.371   0.055
12423TIP3    H137210   3.010   3.380   0.046
12423TIP3    H237211   3.125   3.287   0.014
12424TIP3   OH237212   8.349   0.132   1.082
12424TIP3    H137213   8.271   0.150   1.134
12424TIP3    H237214   8.421   0.133   1.145
12425TIP3   OH237215   1.744   5.732   2.308
12425TIP3    H137216   1.736   5.657   2.367
12425TIP3    H237217   1.792   5.798   2.358
12426TIP3   OH237218   6.183   1.566   2.156
12426TIP3    H137219   6.213   1.554   2.246
12426TIP3    H237220   6.229   1.499   2.106
12427TIP3   OH237221   4.204   3.498   2.586
12427TIP3    H137222   4.179   3.578   2.631
12427TIP3    H237223   4.241   3.528   2.502
12428TIP3   OH237224   2.245   5.149   2.594
12428TIP3    H137225   2.305   5.129   2.666
12428TIP3    H237226   2.158   5.134   2.630
12429TIP3   OH237227   6.916   4.926   1.562
12429TIP3    H137228   6.937   5.011   1.601
12429TIP3    H237229   6.973   4.919   1.486
12430TIP3   OH237230   6.840   5.210   6.448
12430TIP3    H137231   6.810   5.126   6.483
12430TIP3    H237232   6.811   5.275   6.512
12431TIP3   OH237233   1.932   2.603   2.461
12431TIP3    H137234   2.010   2.654   2.443
12431TIP3    H237235   1.910   2.623   2.552
12432TIP3   OH237236   2.161   5.449   4.774
12432TIP3    H137237   2.107   5.375   4.745
12432TIP3    H237238   2.242   5.441   4.723
12433TIP3   OH237239   5.108   2.754   5.457
12433TIP3    H137240   5.162   2.692   5.408
12433TIP3    H237241   5.087   2.823   5.395
12434TIP3   OH237242   5.294   4.949   6.206
12434TIP3    H137243   5.272   5.010   6.136
12434TIP3    H237244   5.387   4.963   6.222
12435TIP3   OH237245   1.891   6.002   4.283
12435TIP3    H137246   1.896   5.997   4.188
12435TIP3    H237247   1.929   6.087   4.305
12436TIP3   OH237248   4.157   3.991   0.582
12436TIP3    H137249   4.084   4.001   0.522
12436TIP3    H237250   4.235   3.990   0.526
12437TIP3   OH237251   6.421   2.272   0.274
12437TIP3    H137252   6.339   2.293   0.318
12437TIP3    H237253   6.488   2.314   0.328
12438TIP3   OH237254   8.383   4.192   0.561
12438TIP3    H137255   8.319   4.176   0.630
12438TIP3    H237256   8.381   4.287   0.549
12439TIP3   OH237257   2.028   3.123   5.847
12439TIP3    H137258   2.006   3.129   5.754
12439TIP3    H237259   1.969   3.056   5.882
12440TIP3   OH237260   6.427   5.935   5.971
12440TIP3    H137261   6.381   5.946   5.887
12440TIP3    H237262   6.502   5.995   5.965
12441TIP3   OH237263   3.684   3.448   4.579
12441TIP3    H137264   3.757   3.407   4.626
12441TIP3    H237265   3.606   3.418   4.625
12442TIP3   OH237266   8.072   6.448   2.919
12442TIP3    H137267   8.128   6.504   2.971
12442TIP3    H237268   7.993   6.437   2.972
12443TIP3   OH237269   4.761   2.879   4.277
12443TIP3    H137270   4.778   2.894   4.370
12443TIP3    H237271   4.786   2.961   4.235
12444TIP3   OH237272   6.513   6.261   5.888
12444TIP3    H137273   6.435   6.287   5.839
12444TIP3    H237274   6.547   6.342   5.924
12445TIP3   OH237275   6.994   2.191   3.630
12445TIP3    H137276   7.016   2.277   3.593
12445TIP3    H237277   7.078   2.147   3.638
12446TIP3   OH237278   0.971   5.320   3.645
12446TIP3    H137279   0.963   5.312   3.550
12446TIP3    H237280   0.892   5.367   3.672
12447TIP3   OH237281   6.343   7.009   5.698
12447TIP3    H137282   6.413   7.043   5.753
12447TIP3    H237283   6.263   7.047   5.735
12448TIP3   OH237284   7.044   5.057   3.437
12448TIP3    H137285   7.130   5.017   3.452
12448TIP3    H237286   6.997   5.044   3.519
12449TIP3   OH237287   2.622   3.490   4.355
12449TIP3    H137288   2.621   3.456   4.444
12449TIP3    H237289   2.648   3.415   4.301
12450TIP3   OH237290   5.409   7.084   4.824
12450TIP3    H137291   5.491   7.049   4.860
12450TIP3    H237292   5.418   7.072   4.730
12451TIP3   OH237293   2.156   1.315   2.042
12451TIP3    H137294   2.107   1.335   1.962
12451TIP3    H237295   2.244   1.292   2.012
12452TIP3   OH237296   7.805   6.328   5.863
12452TIP3    H137297   7.793   6.394   5.931
12452TIP3    H237298   7.716   6.301   5.840
12453TIP3   OH237299   5.887   6.437   2.902
12453TIP3    H137300   5.871   6.376   2.973
12453TIP3    H237301   5.952   6.393   2.846
12454TIP3   OH237302   7.270   5.000   2.546
12454TIP3    H137303   7.361   4.985   2.521
12454TIP3    H237304   7.219   4.969   2.471
12455TIP3   OH237305   7.427   6.231   2.210
12455TIP3    H137306   7.375   6.177   2.151
12455TIP3    H237307   7.428   6.182   2.292
12456TIP3   OH237308   7.045   0.846   5.597
12456TIP3    H137309   6.969   0.788   5.594
12456TIP3    H237310   7.028   0.911   5.528
12457TIP3   OH237311   2.962   0.554   6.733
12457TIP3    H137312   3.024   0.625   6.749
12457TIP3    H237313   3.016   0.482   6.701
12458TIP3   OH237314   0.293   5.716   4.313
12458TIP3    H137315   0.342   5.634   4.316
12458TIP3    H237316   0.345   5.773   4.257
12459TIP3   OH237317   0.039   4.856   2.249
12459TIP3    H137318   0.055   4.762   2.254
12459TIP3    H237319   0.110   4.895   2.299
12460TIP3   OH237320   8.018   7.083   3.887
12460TIP3    H137321   8.013   7.026   3.964
12460TIP3    H237322   7.940   7.139   3.894
12461TIP3   OH237323   5.669   7.679   5.085
12461TIP3    H137324   5.587   7.710   5.125
12461TIP3    H237325   5.718   7.759   5.066
12462TIP3   OH237326   2.740   4.584   0.595
12462TIP3    H137327   2.755   4.506   0.543
12462TIP3    H237328   2.683   4.555   0.667
12463TIP3   OH237329   7.628   4.496   6.090
12463TIP3    H137330   7.555   4.509   6.030
12463TIP3    H237331   7.593   4.436   6.157
12464TIP3   OH237332   4.570   6.146   5.787
12464TIP3    H137333   4.477   6.125   5.774
12464TIP3    H237334   4.598   6.088   5.858
12465TIP3   OH237335   6.432   7.515   4.362
12465TIP3    H137336   6.371   7.442   4.351
12465TIP3    H237337   6.505   7.477   4.411
12466TIP3   OH237338   4.019   4.877   4.283
12466TIP3    H137339   4.013   4.925   4.365
12466TIP3    H237340   4.064   4.796   4.306
12467TIP3   OH237341   5.863   4.624   0.809
12467TIP3    H137342   5.830   4.540   0.776
12467TIP3    H237343   5.799   4.650   0.875
12468TIP3   OH237344   1.142   0.684   3.857
12468TIP3    H137345   1.077   0.754   3.851
12468TIP3    H237346   1.094   0.609   3.893
12469TIP3   OH237347   1.848   6.211   2.231
12469TIP3    H137348   1.779   6.201   2.166
12469TIP3    H237349   1.909   6.139   2.213
12470TIP3   OH237350   2.224   1.778   1.506
12470TIP3    H137351   2.273   1.839   1.562
12470TIP3    H237352   2.163   1.834   1.459
12471TIP3   OH237353   5.248   7.363   2.827
12471TIP3    H137354   5.230   7.446   2.870
12471TIP3    H237355   5.344   7.355   2.828
12472TIP3   OH237356   2.799   1.185   6.498
12472TIP3    H137357   2.854   1.256   6.532
12472TIP3    H237358   2.852   1.106   6.510
12473TIP3   OH237359   1.912   2.469   4.506
12473TIP3    H137360   1.982   2.473   4.572
12473TIP3    H237361   1.864   2.389   4.527
12474TIP3   OH237362   2.383   6.135   3.774
12474TIP3    H137363   2.308   6.168   3.823
12474TIP3    H237364   2.411   6.058   3.822
12475TIP3   OH237365   0.897   1.883   5.361
12475TIP3    H137366   0.941   1.924   5.287
12475TIP3    H237367   0.805   1.879   5.334
12476TIP3   OH237368   6.278   4.038   3.902
12476TIP3    H137369   6.320   3.956   3.928
12476TIP3    H237370   6.192   4.035   3.944
12477TIP3   OH237371   3.648   1.078   5.824
12477TIP3    H137372   3.636   1.104   5.733
12477TIP3    H237373   3.594   1.139   5.874
12478TIP3   OH237374   2.799   0.068   4.586
12478TIP3    H137375   2.844   0.064   4.501
12478TIP3    H237376   2.706   0.063   4.564
12479TIP3   OH237377   4.481   0.546   1.316
12479TIP3    H137378   4.477   0.488   1.392
12479TIP3    H237379   4.500   0.632   1.353
12480TIP3   OH237380   3.498   2.741   6.169
12480TIP3    H137381   3.494   2.814   6.107
12480TIP3    H237382   3.582   2.752   6.213
12481TIP3   OH237383   3.210   1.544   2.711
12481TIP3    H137384   3.244   1.621   2.666
12481TIP3    H237385   3.115   1.547   2.696
12482TIP3   OH237386   6.812   7.637   5.256
12482TIP3    H137387   6.803   7.726   5.224
12482TIP3    H237388   6.852   7.646   5.342
12483TIP3   OH237389   1.921   1.332   2.204
12483TIP3    H137390   1.982   1.302   2.137
12483TIP3    H237391   1.835   1.327   2.162
12484TIP3   OH237392   2.987   6.558   6.600
12484TIP3    H137393   2.959   6.611   6.675
12484TIP3    H237394   2.944   6.473   6.614
12485TIP3   OH237395   0.653   4.705   2.448
12485TIP3    H137396   0.636   4.640   2.379
12485TIP3    H237397   0.568   4.720   2.488
12486TIP3   OH237398   8.359   0.833   1.317
12486TIP3    H137399   8.287   0.876   1.271
12486TIP3    H237400   8.319   0.798   1.397
12487TIP3   OH237401   2.977   4.597   4.777
12487TIP3    H137402   2.886   4.584   4.750
12487TIP3    H237403   3.022   4.518   4.747
12488TIP3   OH237404   5.935   2.659   2.559
12488TIP3    H137405   6.011   2.601   2.551
12488TIP3    H237406   5.957   2.736   2.508
12489TIP3   OH237407   4.735   4.472   6.337
12489TIP3    H137408   4.785   4.520   6.403
12489TIP3    H237409   4.795   4.403   6.308
12490TIP3   OH237410   7.736   5.177   4.516
12490TIP3    H137411   7.778   5.113   4.574
12490TIP3    H237412   7.809   5.221   4.472
12491TIP3   OH237413   7.225   1.420   1.528
12491TIP3    H137414   7.296   1.356   1.527
12491TIP3    H237415   7.202   1.430   1.620
12492TIP3   OH237416   1.350   3.769   2.424
12492TIP3    H137417   1.435   3.744   2.388
12492TIP3    H237418   1.342   3.862   2.405
12493TIP3   OH237419   6.676   0.524   2.761
12493TIP3    H137420   6.594   0.526   2.810
12493TIP3    H237421   6.684   0.433   2.732
12494TIP3   OH237422   3.877   4.998   2.267
12494TIP3    H137423   3.916   4.926   2.317
12494TIP3    H237424   3.949   5.031   2.214
12495TIP3   OH237425   6.543   2.388   0.914
12495TIP3    H137426   6.489   2.467   0.902
12495TIP3    H237427   6.616   2.418   0.969
12496TIP3   OH237428   0.101   6.963   3.002
12496TIP3    H137429   0.030   6.991   3.059
12496TIP3    H237430   0.084   7.007   2.919
12497TIP3   OH237431   6.980   7.449   3.747
12497TIP3    H137432   6.897   7.425   3.788
12497TIP3    H237433   6.990   7.386   3.674
12498TIP3   OH237434   4.043   6.523   1.445
12498TIP3    H137435   4.075   6.441   1.408
12498TIP3    H237436   4.024   6.578   1.369
12499TIP3   OH237437   7.777   7.200   4.298
12499TIP3    H137438   7.832   7.277   4.280
12499TIP3    H237439   7.688   7.230   4.281
12500TIP3   OH237440   5.531   2.650   2.088
12500TIP3    H137441   5.459   2.587   2.100
12500TIP3    H237442   5.599   2.621   2.148
12501TIP3   OH237443   6.710   6.747   5.981
12501TIP3    H137444   6.773   6.810   5.946
12501TIP3    H237445   6.641   6.801   6.021
12502TIP3   OH237446   5.821   5.063   4.104
12502TIP3    H137447   5.733   5.026   4.096
12502TIP3    H237448   5.833   5.075   4.198
12503TIP3   OH237449   3.871   7.344   5.319
12503TIP3    H137450   3.847   7.280   5.386
12503TIP3    H237451   3.786   7.376   5.286
12504TIP3   OH237452   6.379   4.214   0.653
12504TIP3    H137453   6.319   4.147   0.685
12504TIP3    H237454   6.442   4.225   0.725
12505TIP3   OH237455   5.407   4.317   6.676
12505TIP3    H137456   5.379   4.227   6.689
12505TIP3    H237457   5.503   4.313   6.676
12506TIP3   OH237458   3.662   4.219   6.114
12506TIP3    H137459   3.685   4.131   6.082
12506TIP3    H237460   3.714   4.278   6.059
12507TIP3   OH237461   4.776   4.650   1.817
12507TIP3    H137462   4.796   4.679   1.728
12507TIP3    H237463   4.781   4.730   1.870
12508TIP3   OH237464   1.982   2.558   3.163
12508TIP3    H137465   1.899   2.605   3.166
12508TIP3    H237466   1.958   2.466   3.170
12509TIP3   OH237467   5.247   0.846   6.588
12509TIP3    H137468   5.217   0.775   6.532
12509TIP3    H237469   5.341   0.852   6.572
12510TIP3   OH237470   3.913   3.362   4.995
12510TIP3    H137471   3.969   3.440   4.996
12510TIP3    H237472   3.971   3.292   4.964
12511TIP3   OH237473   8.037   4.027   0.292
12511TIP3    H137474   8.021   4.027   0.197
12511TIP3    H237475   8.121   3.981   0.302
12512TIP3   OH237476   5.133   3.169   1.501
12512TIP3    H137477   5.093   3.158   1.415
12512TIP3    H237478   5.157   3.262   1.505
12513TIP3   OH237479   7.354   2.426   5.860
12513TIP3    H137480   7.319   2.425   5.771
12513TIP3    H237481   7.341   2.337   5.892
12514TIP3   OH237482   0.886   6.105   0.932
12514TIP3    H137483   0.950   6.076   0.997
12514TIP3    H237484   0.937   6.148   0.865
12515TIP3   OH237485   2.171   7.700   6.282
12515TIP3    H137486   2.194   7.793   6.277
12515TIP3    H237487   2.213   7.661   6.205
12516TIP3   OH237488   7.610   4.948   0.284
12516TIP3    H137489   7.601   4.956   0.189
12516TIP3    H237490   7.687   5.002   0.305
12517TIP3   OH237491   5.163   0.014   0.195
12517TIP3    H137492   5.250   0.040   0.227
12517TIP3    H237493   5.106   0.024   0.272
12518TIP3   OH237494   0.693   4.782   0.642
12518TIP3    H137495   0.740   4.852   0.598
12518TIP3    H237496   0.627   4.827   0.696
12519TIP3   OH237497   1.478   3.588   5.557
12519TIP3    H137498   1.475   3.639   5.638
12519TIP3    H237499   1.567   3.553   5.553
12520TIP3   OH237500   1.690   0.410   5.599
12520TIP3    H137501   1.716   0.345   5.664
12520TIP3    H237502   1.719   0.493   5.635
12521TIP3   OH237503   2.850   0.204   3.392
12521TIP3    H137504   2.794   0.281   3.401
12521TIP3    H237505   2.800   0.144   3.337
12522TIP3   OH237506   5.746   2.336   4.634
12522TIP3    H137507   5.803   2.321   4.559
12522TIP3    H237508   5.805   2.359   4.706
12523TIP3   OH237509   1.400   3.229   3.068
12523TIP3    H137510   1.452   3.227   2.987
12523TIP3    H237511   1.463   3.211   3.138
12524TIP3   OH237512   4.593   0.644   5.025
12524TIP3    H137513   4.589   0.642   4.929
12524TIP3    H237514   4.502   0.633   5.053
12525TIP3   OH237515   3.298   5.408   4.317
12525TIP3    H137516   3.317   5.404   4.411
12525TIP3    H237517   3.377   5.444   4.278
12526TIP3   OH237518   3.486   2.279   5.261
12526TIP3    H137519   3.438   2.359   5.239
12526TIP3    H237520   3.572   2.310   5.290
12527TIP3   OH237521   3.674   4.339   2.306
12527TIP3    H137522   3.634   4.425   2.320
12527TIP3    H237523   3.680   4.301   2.394
12528TIP3   OH237524   1.357   4.551   2.629
12528TIP3    H137525   1.302   4.627   2.612
12528TIP3    H237526   1.391   4.565   2.717
12529TIP3   OH237527   4.399   0.788   0.395
12529TIP3    H137528   4.380   0.792   0.488
12529TIP3    H237529   4.473   0.727   0.388
12530TIP3   OH237530   5.871   7.859   2.813
12530TIP3    H137531   5.925   7.797   2.764
12530TIP3    H237532   5.839   7.808   2.888
12531TIP3   OH237533   4.835   4.072   1.526
12531TIP3    H137534   4.862   3.995   1.576
12531TIP3    H237535   4.911   4.093   1.472
12532TIP3   OH237536   1.270   0.144   4.807
12532TIP3    H137537   1.319   0.181   4.733
12532TIP3    H237538   1.325   0.071   4.837
12533TIP3   OH237539   3.059   5.109   5.238
12533TIP3    H137540   3.091   5.198   5.221
12533TIP3    H237541   3.095   5.086   5.324
12534TIP3   OH237542   4.247   0.958   4.622
12534TIP3    H137543   4.263   1.051   4.639
12534TIP3    H237544   4.310   0.913   4.678
12535TIP3   OH237545   1.146   1.795   3.351
12535TIP3    H137546   1.055   1.778   3.374
12535TIP3    H237547   1.190   1.711   3.365
12536TIP3   OH237548   3.414   6.777   6.780
12536TIP3    H137549   3.428   6.764   6.686
12536TIP3    H237550   3.452   6.699   6.821
12537TIP3   OH237551   8.078   5.549   0.780
12537TIP3    H137552   7.999   5.513   0.820
12537TIP3    H237553   8.050   5.633   0.743
12538TIP3   OH237554   5.875   3.314   5.367
12538TIP3    H137555   5.852   3.406   5.350
12538TIP3    H237556   5.971   3.315   5.372
12539TIP3   OH237557   5.153   0.944   0.324
12539TIP3    H137558   5.121   0.930   0.413
12539TIP3    H237559   5.181   0.857   0.295
12540TIP3   OH237560   4.390   2.216   4.921
12540TIP3    H137561   4.443   2.138   4.938
12540TIP3    H237562   4.309   2.202   4.970
12541TIP3   OH237563   2.701   3.573   2.413
12541TIP3    H137564   2.640   3.529   2.353
12541TIP3    H237565   2.722   3.656   2.369
12542TIP3   OH237566   0.206   5.972   1.992
12542TIP3    H137567   0.220   5.906   2.060
12542TIP3    H237568   0.149   5.930   1.928
12543TIP3   OH237569   2.606   0.742   0.104
12543TIP3    H137570   2.608   0.824   0.152
12543TIP3    H237571   2.669   0.686   0.149
12544TIP3   OH237572   0.959   1.028   1.332
12544TIP3    H137573   1.000   1.086   1.396
12544TIP3    H237574   0.899   1.084   1.283
12545TIP3   OH237575   5.877   5.286   0.098
12545TIP3    H137576   5.837   5.206   0.061
12545TIP3    H237577   5.804   5.346   0.109
12546TIP3   OH237578   0.583   3.198   4.371
12546TIP3    H137579   0.537   3.134   4.318
12546TIP3    H237580   0.672   3.165   4.378
12547TIP3   OH237581   2.512   4.686   3.992
12547TIP3    H137582   2.470   4.609   3.952
12547TIP3    H237583   2.440   4.747   4.008
12548TIP3   OH237584   1.521   4.469   0.899
12548TIP3    H137585   1.562   4.403   0.955
12548TIP3    H237586   1.452   4.421   0.854
12549TIP3   OH237587   3.674   4.758   2.511
12549TIP3    H137588   3.594   4.792   2.550
12549TIP3    H237589   3.729   4.732   2.585
12550TIP3   OH237590   8.332   0.350   0.321
12550TIP3    H137591   8.333   0.426   0.262
12550TIP3    H237592   8.277   0.378   0.394
12551TIP3   OH237593   3.997   4.270   3.945
12551TIP3    H137594   4.011   4.364   3.933
12551TIP3    H237595   4.025   4.252   4.035
12552TIP3   OH237596   3.469   5.572   4.182
12552TIP3    H137597   3.391   5.621   4.157
12552TIP3    H237598   3.512   5.627   4.248
12553TIP3   OH237599   7.206   6.628   0.520
12553TIP3    H137600   7.285   6.671   0.487
12553TIP3    H237601   7.224   6.535   0.513
12554TIP3   OH237602   1.837   3.743   6.441
12554TIP3    H137603   1.844   3.663   6.494
12554TIP3    H237604   1.762   3.728   6.384
12555TIP3   OH237605   2.126   6.095   5.665
12555TIP3    H137606   2.034   6.070   5.658
12555TIP3    H237607   2.125   6.188   5.689
12556TIP3   OH237608   7.554   6.841   3.350
12556TIP3    H137609   7.634   6.885   3.376
12556TIP3    H237610   7.581   6.752   3.326
12557TIP3   OH237611   8.393   4.862   6.216
12557TIP3    H137612   8.474   4.838   6.172
12557TIP3    H237613   8.372   4.786   6.271
12558TIP3   OH237614   2.587   0.787   0.494
12558TIP3    H137615   2.513   0.823   0.542
12558TIP3    H237616   2.664   0.820   0.541
12559TIP3   OH237617   1.424   0.326   0.470
12559TIP3    H137618   1.478   0.251   0.445
12559TIP3    H237619   1.486   0.392   0.499
12560TIP3   OH237620   2.032   6.128   6.352
12560TIP3    H137621   1.936   6.131   6.347
12560TIP3    H237622   2.061   6.201   6.298
12561TIP3   OH237623   6.746   2.830   1.651
12561TIP3    H137624   6.675   2.794   1.598
12561TIP3    H237625   6.824   2.820   1.596
12562TIP3   OH237626   2.451   7.814   5.258
12562TIP3    H137627   2.443   7.900   5.216
12562TIP3    H237628   2.479   7.756   5.187
12563TIP3   OH237629   2.425   4.940   5.378
12563TIP3    H137630   2.478   4.935   5.458
12563TIP3    H237631   2.437   5.031   5.348
12564TIP3   OH237632   5.481   6.631   6.041
12564TIP3    H137633   5.484   6.570   5.967
12564TIP3    H237634   5.435   6.582   6.110
12565TIP3   OH237635   3.727   3.262   1.825
12565TIP3    H137636   3.644   3.242   1.781
12565TIP3    H237637   3.706   3.331   1.887
12566TIP3   OH237638   4.975   2.790   0.914
12566TIP3    H137639   5.025   2.720   0.871
12566TIP3    H237640   4.929   2.834   0.843
12567TIP3   OH237641   2.173   4.295   5.357
12567TIP3    H137642   2.238   4.347   5.403
12567TIP3    H237643   2.118   4.359   5.312
12568TIP3   OH237644   1.899   1.228   4.987
12568TIP3    H137645   1.893   1.257   4.896
12568TIP3    H237646   1.989   1.247   5.013
12569TIP3   OH237647   2.191   0.543   0.482
12569TIP3    H137648   2.253   0.488   0.529
12569TIP3    H237649   2.243   0.585   0.414
12570TIP3   OH237650   0.523   1.153   6.322
12570TIP3    H137651   0.580   1.163   6.246
12570TIP3    H237652   0.546   1.226   6.380
12571TIP3   OH237653   1.236   0.468   2.132
12571TIP3    H137654   1.151   0.510   2.142
12571TIP3    H237655   1.223   0.406   2.060
12572TIP3   OH237656   7.777   1.153   2.769
12572TIP3    H137657   7.719   1.115   2.703
12572TIP3    H237658   7.754   1.246   2.770
12573TIP3   OH237659   3.034   4.897   2.498
12573TIP3    H137660   3.116   4.938   2.526
12573TIP3    H237661   3.035   4.903   2.403
12574TIP3   OH237662   2.807   5.482   1.101
12574TIP3    H137663   2.725   5.433   1.096
12574TIP3    H237664   2.865   5.427   1.155
12575TIP3   OH237665   5.802   0.540   5.214
12575TIP3    H137666   5.721   0.521   5.261
12575TIP3    H237667   5.828   0.627   5.245
12576TIP3   OH237668   7.757   5.226   5.389
12576TIP3    H137669   7.793   5.153   5.339
12576TIP3    H237670   7.798   5.304   5.351
12577TIP3   OH237671   1.067   5.491   3.928
12577TIP3    H137672   1.104   5.403   3.922
12577TIP3    H237673   0.982   5.479   3.970
12578TIP3   OH237674   1.119   5.211   3.868
12578TIP3    H137675   1.161   5.126   3.857
12578TIP3    H237676   1.077   5.228   3.784
12579TIP3   OH237677   1.855   5.493   3.434
12579TIP3    H137678   1.884   5.580   3.460
12579TIP3    H237679   1.794   5.466   3.503
12580TIP3   OH237680   4.827   6.904   6.599
12580TIP3    H137681   4.776   6.857   6.665
12580TIP3    H237682   4.892   6.954   6.649
12581TIP3   OH237683   4.395   5.701   4.892
12581TIP3    H137684   4.464   5.639   4.869
12581TIP3    H237685   4.384   5.755   4.814
12582TIP3   OH237686   3.338   2.129   1.779
12582TIP3    H137687   3.427   2.104   1.803
12582TIP3    H237688   3.330   2.221   1.804
12583TIP3   OH237689   7.529   1.822   0.468
12583TIP3    H137690   7.557   1.742   0.423
12583TIP3    H237691   7.592   1.832   0.539
12584TIP3   OH237692   2.439   3.369   6.558
12584TIP3    H137693   2.356   3.383   6.603
12584TIP3    H237694   2.415   3.328   6.475
12585TIP3   OH237695   2.893   7.233   3.947
12585TIP3    H137696   2.867   7.325   3.947
12585TIP3    H237697   2.839   7.193   4.014
12586TIP3   OH237698   1.770   6.576   4.824
12586TIP3    H137699   1.690   6.538   4.788
12586TIP3    H237700   1.740   6.638   4.890
12587TIP3   OH237701   4.714   6.718   3.229
12587TIP3    H137702   4.717   6.624   3.243
12587TIP3    H237703   4.625   6.736   3.199
12588TIP3   OH237704   2.182   6.762   5.746
12588TIP3    H137705   2.098   6.741   5.704
12588TIP3    H237706   2.200   6.852   5.719
12589TIP3   OH237707   5.428   1.836   1.706
12589TIP3    H137708   5.362   1.808   1.642
12589TIP3    H237709   5.385   1.907   1.755
12590TIP3   OH237710   6.651   2.245   6.281
12590TIP3    H137711   6.714   2.213   6.216
12590TIP3    H237712   6.566   2.236   6.238
12591TIP3   OH237713   3.275   0.966   4.563
12591TIP3    H137714   3.362   1.003   4.547
12591TIP3    H237715   3.227   0.981   4.481
12592TIP3   OH237716   5.653   4.140   6.071
12592TIP3    H137717   5.649   4.052   6.034
12592TIP3    H237718   5.695   4.193   6.003
12593TIP3   OH237719   6.012   3.437   0.586
12593TIP3    H137720   6.101   3.468   0.599
12593TIP3    H237721   6.002   3.429   0.491
12594TIP3   OH237722   7.286   1.784   4.738
12594TIP3    H137723   7.303   1.770   4.645
12594TIP3    H237724   7.208   1.731   4.756
12595TIP3   OH237725   5.431   5.551   2.918
12595TIP3    H137726   5.494   5.480   2.929
12595TIP3    H237727   5.379   5.525   2.842
12596TIP3   OH237728   7.338   5.577   3.759
12596TIP3    H137729   7.296   5.552   3.841
12596TIP3    H237730   7.427   5.602   3.785
12597TIP3   OH237731   2.917   2.284   5.607
12597TIP3    H137732   2.864   2.302   5.685
12597TIP3    H237733   2.936   2.190   5.611
12598TIP3   OH237734   4.020   5.798   4.965
12598TIP3    H137735   3.929   5.794   4.995
12598TIP3    H237736   4.014   5.786   4.870
12599TIP3   OH237737   6.740   2.403   3.558
12599TIP3    H137738   6.704   2.482   3.597
12599TIP3    H237739   6.685   2.332   3.591
12600TIP3   OH237740   7.811   7.752   6.205
12600TIP3    H137741   7.876   7.801   6.157
12600TIP3    H237742   7.820   7.780   6.296
12601TIP3   OH237743   4.914   3.191   0.189
12601TIP3    H137744   4.842   3.140   0.226
12601TIP3    H237745   4.945   3.245   0.262
12602TIP3   OH237746   7.750   4.642   4.094
12602TIP3    H137747   7.766   4.618   4.003
12602TIP3    H237748   7.657   4.626   4.108
12603TIP3   OH237749   3.618   3.133   3.971
12603TIP3    H137750   3.626   3.085   4.054
12603TIP3    H237751   3.704   3.126   3.931
12604TIP3   OH237752   2.891   5.115   2.217
12604TIP3    H137753   2.942   5.035   2.210
12604TIP3    H237754   2.895   5.155   2.130
12605TIP3   OH237755   6.334   5.713   6.195
12605TIP3    H137756   6.342   5.618   6.202
12605TIP3    H237757   6.370   5.733   6.108
12606TIP3   OH237758   7.928   5.629   4.739
12606TIP3    H137759   7.966   5.585   4.663
12606TIP3    H237760   7.945   5.722   4.724
12607TIP3   OH237761   3.536   0.282   4.043
12607TIP3    H137762   3.624   0.248   4.054
12607TIP3    H237763   3.526   0.348   4.111
12608TIP3   OH237764   0.083   7.833   1.109
12608TIP3    H137765   0.069   7.772   1.037
12608TIP3    H237766   0.087   7.776   1.187
12609TIP3   OH237767   7.701   5.143   0.562
12609TIP3    H137768   7.775   5.128   0.503
12609TIP3    H237769   7.734   5.116   0.648
12610TIP3   OH237770   0.295   2.024   5.506
12610TIP3    H137771   0.243   1.982   5.575
12610TIP3    H237772   0.280   1.970   5.429
12611TIP3   OH237773   3.025   6.676   5.813
12611TIP3    H137774   2.940   6.651   5.775
12611TIP3    H237775   3.008   6.760   5.856
12612TIP3   OH237776   5.345   4.799   3.119
12612TIP3    H137777   5.317   4.708   3.134
12612TIP3    H237778   5.322   4.844   3.201
12613TIP3   OH237779   0.998   4.704   4.176
12613TIP3    H137780   1.070   4.646   4.200
12613TIP3    H237781   0.935   4.696   4.247
12614TIP3   OH237782   6.054   7.610   4.043
12614TIP3    H137783   5.997   7.660   3.984
12614TIP3    H237784   5.995   7.574   4.108
12615TIP3   OH237785   4.643   7.203   4.581
12615TIP3    H137786   4.651   7.223   4.488
12615TIP3    H237787   4.651   7.289   4.624
12616TIP3   OH237788   8.088   7.868   5.162
12616TIP3    H137789   8.049   7.793   5.206
12616TIP3    H237790   8.182   7.858   5.177
12617TIP3   OH237791   2.305   4.581   0.796
12617TIP3    H137792   2.384   4.630   0.819
12617TIP3    H237793   2.241   4.649   0.772
12618TIP3   OH237794   0.459   4.662   4.750
12618TIP3    H137795   0.543   4.706   4.761
12618TIP3    H237796   0.421   4.661   4.838
12619TIP3   OH237797   4.760   3.465   0.561
12619TIP3    H137798   4.749   3.521   0.484
12619TIP3    H237799   4.671   3.447   0.590
12620TIP3   OH237800   3.419   5.712   0.751
12620TIP3    H137801   3.426   5.654   0.827
12620TIP3    H237802   3.432   5.655   0.676
12621TIP3   OH237803   6.762   0.291   3.469
12621TIP3    H137804   6.854   0.297   3.443
12621TIP3    H237805   6.762   0.231   3.544
12622TIP3   OH237806   5.036   6.950   0.099
12622TIP3    H137807   4.981   6.991   0.165
12622TIP3    H237808   5.025   6.856   0.113
12623TIP3   OH237809   5.543   2.493   0.564
12623TIP3    H137810   5.553   2.469   0.657
12623TIP3    H237811   5.573   2.415   0.517
12624TIP3   OH237812   8.005   4.765   5.230
12624TIP3    H137813   8.080   4.817   5.259
12624TIP3    H237814   7.974   4.720   5.308
12625TIP3   OH237815   0.810   7.512   1.358
12625TIP3    H137816   0.791   7.587   1.415
12625TIP3    H237817   0.740   7.512   1.293
12626TIP3   OH237818   2.289   4.519   6.281
12626TIP3    H137819   2.238   4.445   6.314
12626TIP3    H237820   2.250   4.595   6.324
12627TIP3   OH237821   6.957   4.643   1.237
12627TIP3    H137822   7.013   4.567   1.226
12627TIP3    H237823   6.873   4.617   1.199
12628TIP3   OH237824   0.382   6.338   6.699
12628TIP3    H137825   0.374   6.347   6.604
12628TIP3    H237826   0.344   6.252   6.718
12629TIP3   OH237827   4.057   4.865   2.416
12629TIP3    H137828   4.049   4.770   2.426
12629TIP3    H237829   4.037   4.899   2.503
12630TIP3   OH237830   5.357   3.151   0.873
12630TIP3    H137831   5.414   3.212   0.827
12630TIP3    H237832   5.416   3.101   0.930
12631TIP3   OH237833   0.720   4.051   1.072
12631TIP3    H137834   0.679   4.053   1.158
12631TIP3    H237835   0.662   4.103   1.016
12632TIP3   OH237836   1.109   1.948   3.737
12632TIP3    H137837   1.152   1.865   3.760
12632TIP3    H237838   1.180   2.012   3.735
12633TIP3   OH237839   8.341   0.584   0.173
12633TIP3    H137840   8.284   0.639   0.227
12633TIP3    H237841   8.428   0.595   0.210
12634TIP3   OH237842   2.668   0.381   5.725
12634TIP3    H137843   2.678   0.317   5.795
12634TIP3    H237844   2.574   0.403   5.725
12635TIP3   OH237845   3.747   3.240   5.965
12635TIP3    H137846   3.662   3.282   5.981
12635TIP3    H237847   3.811   3.307   5.987
12636TIP3   OH237848   6.796   7.246   1.811
12636TIP3    H137849   6.886   7.214   1.817
12636TIP3    H237850   6.745   7.185   1.864
12637TIP3   OH237851   3.270   4.253   1.831
12637TIP3    H137852   3.266   4.201   1.751
12637TIP3    H237853   3.360   4.287   1.833
12638TIP3   OH237854   7.013   3.830   2.658
12638TIP3    H137855   7.057   3.903   2.615
12638TIP3    H237856   7.071   3.805   2.729
12639TIP3   OH237857   6.507   1.927   3.646
12639TIP3    H137858   6.553   1.944   3.729
12639TIP3    H237859   6.447   1.856   3.666
12640TIP3   OH237860   1.750   5.387   4.224
12640TIP3    H137861   1.692   5.321   4.262
12640TIP3    H237862   1.772   5.445   4.298
12641TIP3   OH237863   3.876   5.263   6.804
12641TIP3    H137864   3.868   5.175   6.841
12641TIP3    H237865   3.787   5.298   6.806
12642TIP3   OH237866   1.287   7.734   3.288
12642TIP3    H137867   1.379   7.737   3.312
12642TIP3    H237868   1.242   7.706   3.369
12643TIP3   OH237869   3.851   2.652   0.310
12643TIP3    H137870   3.897   2.625   0.389
12643TIP3    H237871   3.780   2.708   0.341
12644TIP3   OH237872   0.995   7.773   1.494
12644TIP3    H137873   1.030   7.860   1.516
12644TIP3    H237874   1.048   7.745   1.419
12645TIP3   OH237875   7.812   1.191   0.573
12645TIP3    H137876   7.798   1.128   0.503
12645TIP3    H237877   7.729   1.192   0.621
12646TIP3   OH237878   2.655   6.394   4.902
12646TIP3    H137879   2.747   6.422   4.903
12646TIP3    H237880   2.610   6.462   4.851
12647TIP3   OH237881   5.956   3.888   5.477
12647TIP3    H137882   6.029   3.927   5.428
12647TIP3    H237883   5.904   3.963   5.505
12648TIP3   OH237884   5.358   5.036   2.501
12648TIP3    H137885   5.392   5.123   2.519
12648TIP3    H237886   5.417   4.999   2.436
12649TIP3   OH237887   0.372   2.074   2.656
12649TIP3    H137888   0.386   1.981   2.642
12649TIP3    H237889   0.347   2.082   2.748
12650TIP3   OH237890   8.037   7.189   1.984
12650TIP3    H137891   8.117   7.207   2.034
12650TIP3    H237892   7.966   7.201   2.048
12651TIP3   OH237893   5.638   6.134   1.533
12651TIP3    H137894   5.724   6.099   1.510
12651TIP3    H237895   5.592   6.059   1.571
12652TIP3   OH237896   5.853   7.932   5.789
12652TIP3    H137897   5.949   7.929   5.791
12652TIP3    H237898   5.832   8.022   5.816
12653TIP3   OH237899   0.913   6.758   5.948
12653TIP3    H137900   0.866   6.781   5.867
12653TIP3    H237901   0.948   6.842   5.979
12654TIP3   OH237902   1.204   1.255   1.743
12654TIP3    H137903   1.238   1.338   1.776
12654TIP3    H237904   1.251   1.188   1.792
12655TIP3   OH237905   2.809   6.657   1.190
12655TIP3    H137906   2.846   6.731   1.142
12655TIP3    H237907   2.740   6.623   1.133
12656TIP3   OH237908   6.341   5.043   3.541
12656TIP3    H137909   6.258   5.040   3.493
12656TIP3    H237910   6.316   5.062   3.631
12657TIP3   OH237911   0.598   6.009   6.492
12657TIP3    H137912   0.609   6.065   6.568
12657TIP3    H237913   0.553   6.065   6.428
12658TIP3   OH237914   2.530   1.860   2.731
12658TIP3    H137915   2.444   1.827   2.759
12658TIP3    H237916   2.527   1.954   2.751
12659TIP3   OH237917   5.144   2.996   0.745
12659TIP3    H137918   5.227   3.034   0.774
12659TIP3    H237919   5.124   2.929   0.810
12660TIP3   OH237920   7.806   7.795   5.340
12660TIP3    H137921   7.845   7.713   5.310
12660TIP3    H237922   7.797   7.848   5.261
12661TIP3   OH237923   2.953   2.676   5.542
12661TIP3    H137924   2.991   2.705   5.459
12661TIP3    H237925   3.016   2.703   5.609
12662TIP3   OH237926   4.393   2.256   2.478
12662TIP3    H137927   4.395   2.322   2.548
12662TIP3    H237928   4.474   2.270   2.429
12663TIP3   OH237929   0.374   7.142   0.955
12663TIP3    H137930   0.446   7.087   0.925
12663TIP3    H237931   0.359   7.204   0.883
12664TIP3   OH237932   6.049   5.687   2.866
12664TIP3    H137933   6.023   5.779   2.873
12664TIP3    H237934   6.142   5.686   2.887
12665TIP3   OH237935   4.347   1.634   0.028
12665TIP3    H137936   4.265   1.583   0.027
12665TIP3    H237937   4.339   1.693  -0.047
12666TIP3   OH237938   2.288   5.916   2.576
12666TIP3    H137939   2.365   5.861   2.586
12666TIP3    H237940   2.216   5.853   2.564
12667TIP3   OH237941   2.448   6.155   1.411
12667TIP3    H137942   2.374   6.107   1.447
12667TIP3    H237943   2.516   6.088   1.398
12668TIP3   OH237944   4.473   7.740   5.412
12668TIP3    H137945   4.408   7.756   5.344
12668TIP3    H237946   4.556   7.768   5.374
12669TIP3   OH237947   0.656   5.761   1.889
12669TIP3    H137948   0.596   5.818   1.840
12669TIP3    H237949   0.608   5.736   1.967
12670TIP3   OH237950   2.185   7.847   1.027
12670TIP3    H137951   2.143   7.789   1.090
12670TIP3    H237952   2.279   7.832   1.039
12671TIP3   OH237953   7.708   2.553   2.550
12671TIP3    H137954   7.787   2.543   2.496
12671TIP3    H237955   7.708   2.645   2.576
12672TIP3   OH237956   2.626   7.726   0.270
12672TIP3    H137957   2.659   7.639   0.293
12672TIP3    H237958   2.625   7.725   0.174
12673TIP3   OH237959   3.508   0.381   2.568
12673TIP3    H137960   3.586   0.397   2.621
12673TIP3    H237961   3.475   0.468   2.546
12674TIP3   OH237962   1.774   3.632   3.469
12674TIP3    H137963   1.811   3.544   3.474
12674TIP3    H237964   1.797   3.663   3.382
12675TIP3   OH237965   6.733   5.581   0.008
12675TIP3    H137966   6.713   5.560  -0.083
12675TIP3    H237967   6.651   5.616   0.043
12676TIP3   OH237968   0.859   5.317   5.635
12676TIP3    H137969   0.934   5.375   5.619
12676TIP3    H237970   0.798   5.370   5.685
12677TIP3   OH237971   2.852   6.078   4.180
12677TIP3    H137972   2.945   6.059   4.191
12677TIP3    H237973   2.810   6.044   4.259
12678TIP3   OH237974   4.822   3.065   5.219
12678TIP3    H137975   4.746   3.040   5.271
12678TIP3    H237976   4.791   3.136   5.162
12679TIP3   OH237977   8.344   6.605   2.041
12679TIP3    H137978   8.302   6.580   2.123
12679TIP3    H237979   8.434   6.625   2.065
12680TIP3   OH237980   1.405   1.590   4.654
12680TIP3    H137981   1.383   1.682   4.667
12680TIP3    H237982   1.326   1.551   4.618
12681TIP3   OH237983   1.100   2.424   0.995
12681TIP3    H137984   1.041   2.465   0.932
12681TIP3    H237985   1.182   2.412   0.947
12682TIP3   OH237986   2.008   0.887   3.858
12682TIP3    H137987   1.962   0.908   3.777
12682TIP3    H237988   2.088   0.940   3.855
12683TIP3   OH237989   4.214   3.316   2.862
12683TIP3    H137990   4.264   3.397   2.870
12683TIP3    H237991   4.180   3.299   2.950
12684TIP3   OH237992   6.947   5.691   3.950
12684TIP3    H137993   6.947   5.727   4.039
12684TIP3    H237994   6.855   5.671   3.933
12685TIP3   OH237995   7.170   6.017   5.211
12685TIP3    H137996   7.203   5.959   5.142
12685TIP3    H237997   7.232   6.007   5.283
12686TIP3   OH237998   4.489   5.778   2.200
12686TIP3    H137999   4.451   5.707   2.150
12686TIP3    H238000   4.577   5.789   2.164
12687TIP3   OH238001   6.500   3.524   2.459
12687TIP3    H138002   6.594   3.531   2.447
12687TIP3    H238003   6.480   3.433   2.437
12688TIP3   OH238004   4.557   5.670   2.467
12688TIP3    H138005   4.610   5.723   2.526
12688TIP3    H238006   4.572   5.708   2.380
12689TIP3   OH238007   6.746   6.247   3.476
12689TIP3    H138008   6.770   6.289   3.393
12689TIP3    H238009   6.679   6.304   3.513
12690TIP3   OH238010   7.430   2.010   3.365
12690TIP3    H138011   7.519   1.975   3.372
12690TIP3    H238012   7.402   2.021   3.456
12691TIP3   OH238013   1.234   2.952   2.168
12691TIP3    H138014   1.285   3.029   2.142
12691TIP3    H238015   1.279   2.878   2.126
12692TIP3   OH238016   5.298   6.715   3.422
12692TIP3    H138017   5.356   6.731   3.347
12692TIP3    H238018   5.239   6.647   3.392
12693TIP3   OH238019   0.576   0.931   5.005
12693TIP3    H138020   0.621   0.880   5.072
12693TIP3    H238021   0.590   1.022   5.030
12694TIP3   OH238022   7.667   3.152   4.342
12694TIP3    H138023   7.616   3.080   4.380
12694TIP3    H238024   7.627   3.231   4.378
12695TIP3   OH238025   0.857   6.960   0.208
12695TIP3    H138026   0.794   7.031   0.218
12695TIP3    H238027   0.865   6.948   0.113
12696TIP3   OH238028   4.509   4.818   3.883
12696TIP3    H138029   4.448   4.807   3.810
12696TIP3    H238030   4.556   4.900   3.864
12697TIP3   OH238031   7.873   0.177   5.812
12697TIP3    H138032   7.903   0.257   5.768
12697TIP3    H238033   7.930   0.108   5.778
12698TIP3   OH238034   6.566   2.589   0.052
12698TIP3    H138035   6.551   2.640  -0.027
12698TIP3    H238036   6.661   2.577   0.056
12699TIP3   OH238037   3.276   5.208   5.978
12699TIP3    H138038   3.279   5.293   5.934
12699TIP3    H238039   3.362   5.200   6.019
12700TIP3   OH238040   2.669   4.610   1.252
12700TIP3    H138041   2.706   4.522   1.242
12700TIP3    H238042   2.732   4.667   1.207
12701TIP3   OH238043   0.894   6.367   0.008
12701TIP3    H138044   0.933   6.426  -0.056
12701TIP3    H238045   0.949   6.288   0.004
12702TIP3   OH238046   2.652   5.608   3.850
12702TIP3    H138047   2.673   5.633   3.940
12702TIP3    H238048   2.611   5.522   3.857
12703TIP3   OH238049   1.092   4.177   0.120
12703TIP3    H138050   1.136   4.246   0.072
12703TIP3    H238051   1.140   4.097   0.097
12704TIP3   OH238052   0.751   0.162   3.047
12704TIP3    H138053   0.723   0.253   3.032
12704TIP3    H238054   0.846   0.166   3.043
12705TIP3   OH238055   4.479   2.418   0.643
12705TIP3    H138056   4.526   2.398   0.562
12705TIP3    H238057   4.410   2.478   0.616
12706TIP3   OH238058   3.670   2.889   4.764
12706TIP3    H138059   3.687   2.954   4.833
12706TIP3    H238060   3.643   2.810   4.811
12707TIP3   OH238061   5.012   0.146   5.584
12707TIP3    H138062   4.926   0.124   5.621
12707TIP3    H238063   5.071   0.080   5.621
12708TIP3   OH238064   6.903   7.471   5.500
12708TIP3    H138065   6.983   7.482   5.449
12708TIP3    H238066   6.934   7.436   5.584
12709TIP3   OH238067   4.502   1.396   1.359
12709TIP3    H138068   4.428   1.420   1.303
12709TIP3    H238069   4.551   1.332   1.307
12710TIP3   OH238070   1.395   2.725   0.538
12710TIP3    H138071   1.397   2.669   0.460
12710TIP3    H238072   1.427   2.669   0.609
12711TIP3   OH238073   4.667   4.208   1.735
12711TIP3    H138074   4.725   4.146   1.690
12711TIP3    H238075   4.619   4.251   1.664
12712TIP3   OH238076   0.790   6.762   3.272
12712TIP3    H138077   0.843   6.838   3.295
12712TIP3    H238078   0.702   6.797   3.259
12713TIP3   OH238079   6.857   3.158   3.287
12713TIP3    H138080   6.898   3.087   3.238
12713TIP3    H238081   6.897   3.238   3.252
12714TIP3   OH238082   0.756   2.053   2.763
12714TIP3    H138083   0.680   2.050   2.705
12714TIP3    H238084   0.821   2.105   2.716
12715TIP3   OH238085   5.605   6.216   6.349
12715TIP3    H138086   5.700   6.212   6.361
12715TIP3    H238087   5.569   6.209   6.437
12716TIP3   OH238088   3.649   2.328   0.672
12716TIP3    H138089   3.586   2.256   0.676
12716TIP3    H238090   3.595   2.407   0.673
12717TIP3   OH238091   5.144   4.477   1.574
12717TIP3    H138092   5.081   4.477   1.502
12717TIP3    H238093   5.090   4.495   1.652
12718TIP3   OH238094   8.300   1.177   3.107
12718TIP3    H138095   8.302   1.257   3.054
12718TIP3    H238096   8.233   1.123   3.066
12719TIP3   OH238097   3.506   5.722   0.379
12719TIP3    H138098   3.566   5.705   0.307
12719TIP3    H238099   3.535   5.665   0.449
12720TIP3   OH238100   4.912   4.747   0.911
12720TIP3    H138101   4.917   4.842   0.914
12720TIP3    H238102   5.003   4.718   0.918
12721TIP3   OH238103   8.268   5.765   2.552
12721TIP3    H138104   8.221   5.787   2.472
12721TIP3    H238105   8.209   5.790   2.622
12722TIP3   OH238106   2.670   4.721   5.127
12722TIP3    H138107   2.655   4.628   5.146
12722TIP3    H238108   2.765   4.727   5.114
12723TIP3   OH238109   2.969   3.239   6.311
12723TIP3    H138110   3.013   3.154   6.309
12723TIP3    H238111   2.878   3.219   6.286
12724TIP3   OH238112   1.532   6.949   3.477
12724TIP3    H138113   1.472   6.920   3.546
12724TIP3    H238114   1.549   7.041   3.497
12725TIP3   OH238115   5.528   7.831   3.943
12725TIP3    H138116   5.471   7.763   3.907
12725TIP3    H238117   5.516   7.824   4.038
12726TIP3   OH238118   0.259   1.967   6.449
12726TIP3    H138119   0.193   1.908   6.413
12726TIP3    H238120   0.211   2.047   6.470
12727TIP3   OH238121   2.999   3.019   3.992
12727TIP3    H138122   3.054   3.080   4.040
12727TIP3    H238123   2.979   3.063   3.909
12728TIP3   OH238124   5.164   2.874   2.144
12728TIP3    H138125   5.225   2.946   2.160
12728TIP3    H238126   5.095   2.914   2.090
12729TIP3   OH238127   5.219   7.059   5.554
12729TIP3    H138128   5.248   6.968   5.559
12729TIP3    H238129   5.222   7.081   5.461
12730TIP3   OH238130   7.620   1.581   0.364
12730TIP3    H138131   7.697   1.527   0.382
12730TIP3    H238132   7.584   1.547   0.282
12731TIP3   OH238133   1.659   4.790   0.148
12731TIP3    H138134   1.576   4.765   0.108
12731TIP3    H238135   1.709   4.709   0.152
12732TIP3   OH238136   2.655   2.852   6.066
12732TIP3    H138137   2.649   2.791   6.140
12732TIP3    H238138   2.603   2.811   5.997
12733TIP3   OH238139   0.493   6.053   2.046
12733TIP3    H138140   0.428   6.030   1.979
12733TIP3    H238141   0.441   6.088   2.118
12734TIP3   OH238142   3.344   5.483   3.854
12734TIP3    H138143   3.353   5.487   3.759
12734TIP3    H238144   3.339   5.575   3.881
12735TIP3   OH238145   3.829   4.769   3.651
12735TIP3    H138146   3.868   4.849   3.616
12735TIP3    H238147   3.904   4.712   3.667
12736TIP3   OH238148   0.339   4.333   4.881
12736TIP3    H138149   0.417   4.278   4.872
12736TIP3    H238150   0.351   4.379   4.964
12737TIP3   OH238151   0.935   4.007   5.654
12737TIP3    H138152   0.852   4.050   5.634
12737TIP3    H238153   0.921   3.915   5.631
12738TIP3   OH238154   6.017   7.660   1.404
12738TIP3    H138155   6.047   7.569   1.409
12738TIP3    H238156   6.024   7.692   1.494
12739TIP3   OH238157   6.830   4.718   0.526
12739TIP3    H138158   6.920   4.743   0.549
12739TIP3    H238159   6.796   4.794   0.478
12740TIP3   OH238160   2.592   4.963   5.588
12740TIP3    H138161   2.594   4.894   5.654
12740TIP3    H238162   2.641   4.927   5.514
12741TIP3   OH238163   1.128   5.640   6.746
12741TIP3    H138164   1.078   5.695   6.805
12741TIP3    H238165   1.079   5.641   6.664
12742TIP3   OH238166   3.550   0.620   0.942
12742TIP3    H138167   3.576   0.561   1.012
12742TIP3    H238168   3.550   0.707   0.981
12743TIP3   OH238169   1.659   0.047   6.669
12743TIP3    H138170   1.705   0.131   6.675
12743TIP3    H238171   1.717  -0.015   6.712
12744TIP3   OH238172   7.396   2.025   2.008
12744TIP3    H138173   7.362   2.115   2.010
12744TIP3    H238174   7.419   2.010   1.916
12745TIP3   OH238175   1.590   6.936   1.913
12745TIP3    H138176   1.557   6.962   1.998
12745TIP3    H238177   1.531   6.977   1.850
12746TIP3   OH238178   5.383   2.479   2.662
12746TIP3    H138179   5.471   2.516   2.658
12746TIP3    H238180   5.392   2.391   2.626
12747TIP3   OH238181   7.834   7.224   2.168
12747TIP3    H138182   7.802   7.311   2.146
12747TIP3    H238183   7.836   7.222   2.263
12748TIP3   OH238184   2.514   3.073   6.320
12748TIP3    H138185   2.470   3.157   6.310
12748TIP3    H238186   2.487   3.041   6.406
12749TIP3   OH238187   4.615   4.060   2.496
12749TIP3    H138188   4.596   3.999   2.568
12749TIP3    H238189   4.707   4.085   2.510
12750TIP3   OH238190   0.185   4.804   1.011
12750TIP3    H138191   0.212   4.893   1.033
12750TIP3    H238192   0.169   4.807   0.917
12751TIP3   OH238193   1.912   5.432   6.833
12751TIP3    H138194   1.905   5.519   6.871
12751TIP3    H238195   1.878   5.442   6.744
12752TIP3   OH238196   3.482   1.246   5.988
12752TIP3    H138197   3.403   1.272   5.942
12752TIP3    H238198   3.510   1.325   6.034
12753TIP3   OH238199   7.208   2.914   5.961
12753TIP3    H138200   7.268   2.918   6.036
12753TIP3    H238201   7.195   2.821   5.946
12754TIP3   OH238202   0.112   6.989   5.609
12754TIP3    H138203   0.203   6.996   5.640
12754TIP3    H238204   0.081   7.079   5.606
12755TIP3   OH238205   0.887   0.039   5.069
12755TIP3    H138206   0.860  -0.018   5.140
12755TIP3    H238207   0.805   0.072   5.033
12756TIP3   OH238208   0.879   3.806   4.127
12756TIP3    H138209   0.885   3.801   4.032
12756TIP3    H238210   0.970   3.818   4.156
12757TIP3   OH238211   0.189   1.037   5.077
12757TIP3    H138212   0.262   1.090   5.109
12757TIP3    H238213   0.121   1.101   5.054
12758TIP3   OH238214   6.380   1.286   6.389
12758TIP3    H138215   6.309   1.344   6.363
12758TIP3    H238216   6.458   1.341   6.385
12759TIP3   OH238217   7.967   4.229   3.427
12759TIP3    H138218   7.884   4.240   3.474
12759TIP3    H238219   7.950   4.158   3.365
12760TIP3   OH238220   4.625   5.267   5.445
12760TIP3    H138221   4.652   5.261   5.353
12760TIP3    H238222   4.698   5.230   5.494
12761TIP3   OH238223   6.929   4.966   0.720
12761TIP3    H138224   6.837   4.973   0.692
12761TIP3    H238225   6.979   4.983   0.640
12762TIP3   OH238226   7.050   4.508   1.543
12762TIP3    H138227   7.067   4.430   1.596
12762TIP3    H238228   6.997   4.477   1.470
12763TIP3   OH238229   8.012   4.664   4.485
12763TIP3    H138230   7.992   4.572   4.503
12763TIP3    H238231   8.107   4.668   4.483
12764TIP3   OH238232   1.672   4.734   4.371
12764TIP3    H138233   1.675   4.734   4.467
12764TIP3    H238234   1.687   4.825   4.347
12765TIP3   OH238235   0.576   4.124   3.803
12765TIP3    H138236   0.651   4.126   3.744
12765TIP3    H238237   0.538   4.037   3.790
12766TIP3   OH238238   4.512   2.477   3.351
12766TIP3    H138239   4.464   2.515   3.425
12766TIP3    H238240   4.495   2.383   3.358
12767TIP3   OH238241   3.021   7.057   5.290
12767TIP3    H138242   3.031   7.052   5.195
12767TIP3    H238243   2.942   7.006   5.308
12768TIP3   OH238244   1.964   4.857   2.559
12768TIP3    H138245   1.974   4.762   2.570
12768TIP3    H238246   2.030   4.880   2.493
12769TIP3   OH238247   0.664   6.255   2.155
12769TIP3    H138248   0.627   6.183   2.103
12769TIP3    H238249   0.714   6.306   2.092
12770TIP3   OH238250   7.646   4.359   1.681
12770TIP3    H138251   7.700   4.437   1.694
12770TIP3    H238252   7.563   4.380   1.723
12771TIP3   OH238253   4.274   3.729   6.805
12771TIP3    H138254   4.190   3.745   6.849
12771TIP3    H238255   4.324   3.810   6.819
12772TIP3   OH238256   8.268   4.502   4.182
12772TIP3    H138257   8.334   4.435   4.164
12772TIP3    H238258   8.306   4.583   4.150
12773TIP3   OH238259   2.119   6.587   1.836
12773TIP3    H138260   2.115   6.644   1.759
12773TIP3    H238261   2.046   6.617   1.892
12774TIP3   OH238262   6.247   1.377   0.495
12774TIP3    H138263   6.248   1.306   0.559
12774TIP3    H238264   6.337   1.382   0.464
12775TIP3   OH238265   4.548   6.227   3.514
12775TIP3    H138266   4.529   6.194   3.426
12775TIP3    H238267   4.570   6.319   3.501
12776TIP3   OH238268   4.581   5.727   1.010
12776TIP3    H138269   4.566   5.810   0.965
12776TIP3    H238270   4.638   5.678   0.951
12777TIP3   OH238271   2.341   0.721   0.895
12777TIP3    H138272   2.408   0.706   0.829
12777TIP3    H238273   2.343   0.815   0.911
12778TIP3   OH238274   6.259   5.159   3.802
12778TIP3    H138275   6.227   5.199   3.883
12778TIP3    H238276   6.352   5.142   3.820
12779TIP3   OH238277   1.942   2.746   0.391
12779TIP3    H138278   1.897   2.746   0.475
12779TIP3    H238279   1.959   2.838   0.373
12780TIP3   OH238280   5.515   5.983   3.287
12780TIP3    H138281   5.584   6.013   3.346
12780TIP3    H238282   5.556   5.913   3.235
12781TIP3   OH238283   1.281   7.549   6.315
12781TIP3    H138284   1.362   7.565   6.364
12781TIP3    H238285   1.212   7.569   6.378
12782TIP3   OH238286   4.444   4.133   4.773
12782TIP3    H138287   4.403   4.059   4.729
12782TIP3    H238288   4.373   4.196   4.785
12783TIP3   OH238289   4.394   4.041   6.248
12783TIP3    H138290   4.372   4.057   6.156
12783TIP3    H238291   4.489   4.026   6.247
12784TIP3   OH238292   1.181   1.777   0.108
12784TIP3    H138293   1.145   1.854   0.065
12784TIP3    H238294   1.239   1.738   0.043
12785TIP3   OH238295   1.326   1.255   4.865
12785TIP3    H138296   1.399   1.295   4.818
12785TIP3    H238297   1.354   1.165   4.881
12786TIP3   OH238298   2.470   2.920   0.765
12786TIP3    H138299   2.378   2.900   0.743
12786TIP3    H238300   2.521   2.869   0.702
12787TIP3   OH238301   5.310   0.957   1.233
12787TIP3    H138302   5.305   0.939   1.326
12787TIP3    H238303   5.251   0.892   1.193
12788TIP3   OH238304   5.898   1.889   2.227
12788TIP3    H138305   5.993   1.882   2.220
12788TIP3    H238306   5.881   1.894   2.321
12789TIP3   OH238307   8.249   2.158   0.252
12789TIP3    H138308   8.281   2.197   0.333
12789TIP3    H238309   8.198   2.228   0.210
12790TIP3   OH238310   3.028   4.720   6.539
12790TIP3    H138311   3.085   4.693   6.467
12790TIP3    H238312   2.950   4.755   6.497
12791TIP3   OH238313   2.710   7.187   5.387
12791TIP3    H138314   2.753   7.268   5.357
12791TIP3    H238315   2.629   7.182   5.337
12792TIP3   OH238316   3.057   1.322   6.332
12792TIP3    H138317   3.120   1.302   6.401
12792TIP3    H238318   3.025   1.410   6.352
12793TIP3   OH238319   1.732   3.524   1.279
12793TIP3    H138320   1.782   3.604   1.268
12793TIP3    H238321   1.704   3.524   1.371
12794TIP3   OH238322   2.928   6.816   5.482
12794TIP3    H138323   2.879   6.737   5.502
12794TIP3    H238324   2.946   6.811   5.388
12795TIP3   OH238325   5.198   2.322   0.468
12795TIP3    H138326   5.243   2.365   0.541
12795TIP3    H238327   5.132   2.385   0.440
12796TIP3   OH238328   8.203   6.628   5.604
12796TIP3    H138329   8.255   6.548   5.602
12796TIP3    H238330   8.256   6.689   5.656
12797TIP3   OH238331   5.770   4.495   2.189
12797TIP3    H138332   5.851   4.541   2.165
12797TIP3    H238333   5.797   4.430   2.254
12798TIP3   OH238334   1.205   5.630   0.575
12798TIP3    H138335   1.272   5.692   0.546
12798TIP3    H238336   1.200   5.643   0.670
12799TIP3   OH238337   3.333   4.601   6.404
12799TIP3    H138338   3.393   4.662   6.360
12799TIP3    H238339   3.369   4.514   6.385
12800TIP3   OH238340   1.430   3.050   1.800
12800TIP3    H138341   1.438   3.007   1.714
12800TIP3    H238342   1.391   3.135   1.780
12801TIP3   OH238343   0.380   1.091   5.390
12801TIP3    H138344   0.293   1.063   5.419
12801TIP3    H238345   0.367   1.181   5.358
12802TIP3   OH238346   6.352   2.838   1.752
12802TIP3    H138347   6.292   2.903   1.788
12802TIP3    H238348   6.424   2.834   1.815
12803TIP3   OH238349   0.651   1.859   4.705
12803TIP3    H138350   0.737   1.817   4.697
12803TIP3    H238351   0.668   1.952   4.689
12804TIP3   OH238352   0.883   3.157   6.291
12804TIP3    H138353   0.895   3.063   6.296
12804TIP3    H238354   0.818   3.177   6.359
12805TIP3   OH238355   2.215   4.628   3.692
12805TIP3    H138356   2.217   4.713   3.737
12805TIP3    H238357   2.124   4.619   3.663
12806TIP3   OH238358   3.762   3.907   1.448
12806TIP3    H138359   3.722   3.913   1.361
12806TIP3    H238360   3.711   3.968   1.502
12807TIP3   OH238361   4.023   4.923   1.630
12807TIP3    H138362   3.958   4.880   1.685
12807TIP3    H238363   4.069   4.982   1.690
12808TIP3   OH238364   4.812   0.910   1.294
12808TIP3    H138365   4.722   0.942   1.301
12808TIP3    H238366   4.836   0.888   1.384
12809TIP3   OH238367   7.522   1.101   3.607
12809TIP3    H138368   7.432   1.090   3.574
12809TIP3    H238369   7.520   1.185   3.653
12810TIP3   OH238370   4.416   4.319   3.331
12810TIP3    H138371   4.388   4.266   3.257
12810TIP3    H238372   4.507   4.342   3.312
12811TIP3   OH238373   4.157   7.534   1.650
12811TIP3    H138374   4.242   7.579   1.656
12811TIP3    H238375   4.151   7.485   1.732
12812TIP3   OH238376   7.772   2.253   3.715
12812TIP3    H138377   7.711   2.222   3.783
12812TIP3    H238378   7.716   2.268   3.638
12813TIP3   OH238379   5.472   7.405   1.302
12813TIP3    H138380   5.529   7.419   1.378
12813TIP3    H238381   5.394   7.458   1.321
12814TIP3   OH238382   2.145   0.342   4.513
12814TIP3    H138383   2.102   0.364   4.430
12814TIP3    H238384   2.078   0.297   4.564
12815TIP3   OH238385   7.530   3.367   4.480
12815TIP3    H138386   7.617   3.366   4.519
12815TIP3    H238387   7.537   3.428   4.406
12816TIP3   OH238388   5.655   3.428   6.348
12816TIP3    H138389   5.729   3.448   6.291
12816TIP3    H238390   5.657   3.333   6.358
12817TIP3   OH238391   2.554   1.275   4.728
12817TIP3    H138392   2.612   1.199   4.726
12817TIP3    H238393   2.519   1.276   4.817
12818TIP3   OH238394   6.792   5.468   2.015
12818TIP3    H138395   6.835   5.534   1.960
12818TIP3    H238396   6.710   5.448   1.969
12819TIP3   OH238397   1.432   3.604   2.630
12819TIP3    H138398   1.381   3.540   2.580
12819TIP3    H238399   1.407   3.688   2.591
12820TIP3   OH238400   5.636   2.482   2.301
12820TIP3    H138401   5.655   2.426   2.376
12820TIP3    H238402   5.545   2.463   2.279
12821TIP3   OH238403   3.879   4.916   3.100
12821TIP3    H138404   3.838   4.831   3.084
12821TIP3    H238405   3.821   4.958   3.164
12822TIP3   OH238406   3.222   1.408   4.343
12822TIP3    H138407   3.197   1.498   4.362
12822TIP3    H238408   3.146   1.371   4.297
12823TIP3   OH238409   7.354   5.930   4.645
12823TIP3    H138410   7.398   6.006   4.684
12823TIP3    H238411   7.291   5.902   4.711
12824TIP3   OH238412   1.057   5.752   0.015
12824TIP3    H138413   1.087   5.661   0.014
12824TIP3    H238414   1.086   5.786   0.100
12825TIP3   OH238415   4.141   0.428   2.476
12825TIP3    H138416   4.084   0.374   2.530
12825TIP3    H238417   4.224   0.429   2.522
12826TIP3   OH238418   6.338   6.903   5.145
12826TIP3    H138419   6.245   6.902   5.166
12826TIP3    H238420   6.382   6.914   5.229
12827TIP3   OH238421   1.381   5.734   6.719
12827TIP3    H138422   1.307   5.680   6.747
12827TIP3    H238423   1.426   5.681   6.653
12828TIP3   OH238424   2.563   2.694   3.998
12828TIP3    H138425   2.639   2.743   4.029
12828TIP3    H238426   2.497   2.706   4.067
12829TIP3   OH238427   0.640   6.474   4.061
12829TIP3    H138428   0.623   6.475   3.967
12829TIP3    H238429   0.554   6.461   4.101
12830TIP3   OH238430   4.193   3.568   6.085
12830TIP3    H138431   4.172   3.504   6.153
12830TIP3    H238432   4.143   3.646   6.108
12831TIP3   OH238433   0.658   1.670   4.405
12831TIP3    H138434   0.684   1.618   4.480
12831TIP3    H238435   0.585   1.623   4.366
12832TIP3   OH238436   8.322   0.426   0.618
12832TIP3    H138437   8.237   0.459   0.587
12832TIP3    H238438   8.372   0.505   0.638
12833TIP3   OH238439   7.446   2.688   0.827
12833TIP3    H138440   7.479   2.609   0.869
12833TIP3    H238441   7.460   2.673   0.733
12834TIP3   OH238442   4.143   1.131   0.727
12834TIP3    H138443   4.170   1.105   0.639
12834TIP3    H238444   4.146   1.227   0.725
12835TIP3   OH238445   1.629   4.589   6.027
12835TIP3    H138446   1.713   4.628   6.049
12835TIP3    H238447   1.631   4.579   5.932
12836TIP3   OH238448   1.829   7.747   6.182
12836TIP3    H138449   1.814   7.719   6.092
12836TIP3    H238450   1.793   7.836   6.186
12837TIP3   OH238451   5.713   3.149   2.029
12837TIP3    H138452   5.657   3.084   1.986
12837TIP3    H238453   5.672   3.162   2.115
12838TIP3   OH238454   4.162   7.148   1.842
12838TIP3    H138455   4.174   7.200   1.921
12838TIP3    H238456   4.075   7.110   1.851
12839TIP3   OH238457   1.737   0.189   5.791
12839TIP3    H138458   1.764   0.116   5.736
12839TIP3    H238459   1.786   0.176   5.873
12840TIP3   OH238460   7.625   0.770   6.712
12840TIP3    H138461   7.715   0.737   6.708
12840TIP3    H238462   7.632   0.863   6.692
12841TIP3   OH238463   3.582   4.836  -0.011
12841TIP3    H138464   3.518   4.773   0.021
12841TIP3    H238465   3.657   4.825   0.047
12842TIP3   OH238466   3.395   7.526   4.797
12842TIP3    H138467   3.365   7.509   4.708
12842TIP3    H238468   3.369   7.617   4.813
12843TIP3   OH238469   1.570   4.636   4.910
12843TIP3    H138470   1.513   4.706   4.879
12843TIP3    H238471   1.511   4.574   4.952
12844TIP3   OH238472   8.011   7.238   1.517
12844TIP3    H138473   8.022   7.180   1.592
12844TIP3    H238474   8.069   7.313   1.536
12845TIP3   OH238475   7.862   2.928   6.133
12845TIP3    H138476   7.887   2.836   6.130
12845TIP3    H238477   7.768   2.928   6.114
12846TIP3   OH238478   5.070   6.004   6.111
12846TIP3    H138479   5.021   6.085   6.126
12846TIP3    H238480   5.100   5.977   6.198
12847TIP3   OH238481   2.455   2.321   4.830
12847TIP3    H138482   2.491   2.240   4.793
12847TIP3    H238483   2.510   2.340   4.905
12848TIP3   OH238484   4.796   7.253   4.933
12848TIP3    H138485   4.789   7.236   5.027
12848TIP3    H238486   4.843   7.176   4.899
12849TIP3   OH238487   3.342   7.015   1.554
12849TIP3    H138488   3.372   7.079   1.618
12849TIP3    H238489   3.293   6.950   1.605
12850TIP3   OH238490   6.849   7.334   3.050
12850TIP3    H138491   6.795   7.404   3.085
12850TIP3    H238492   6.938   7.355   3.081
12851TIP3   OH238493   3.308   5.813   6.761
12851TIP3    H138494   3.248   5.745   6.732
12851TIP3    H238495   3.369   5.768   6.820
12852TIP3   OH238496   0.515   7.273   3.436
12852TIP3    H138497   0.499   7.266   3.531
12852TIP3    H238498   0.605   7.243   3.425
12853TIP3   OH238499   1.958   6.549   5.814
12853TIP3    H138500   1.945   6.591   5.729
12853TIP3    H238501   1.900   6.473   5.813
12854TIP3   OH238502   4.430   5.781   6.338
12854TIP3    H138503   4.470   5.745   6.258
12854TIP3    H238504   4.357   5.835   6.306
12855TIP3   OH238505   8.147   0.595   2.473
12855TIP3    H138506   8.126   0.678   2.517
12855TIP3    H238507   8.239   0.580   2.494
12856TIP3   OH238508   4.429   6.018   0.064
12856TIP3    H138509   4.524   6.010   0.075
12856TIP3    H238510   4.411   5.974  -0.019
12857TIP3   OH238511   2.277   4.019   1.471
12857TIP3    H138512   2.302   3.985   1.384
12857TIP3    H238513   2.355   4.003   1.525
12858TIP3   OH238514   1.085   3.889   5.310
12858TIP3    H138515   1.115   3.967   5.265
12858TIP3    H238516   0.991   3.886   5.293
12859TIP3   OH238517   7.836   6.175   2.047
12859TIP3    H138518   7.748   6.205   2.023
12859TIP3    H238519   7.894   6.234   1.999
12860TIP3   OH238520   7.067   0.328   2.993
12860TIP3    H138521   6.976   0.316   2.965
12860TIP3    H238522   7.107   0.381   2.924
12861TIP3   OH238523   3.714   5.285   6.223
12861TIP3    H138524   3.658   5.230   6.168
12861TIP3    H238525   3.769   5.333   6.161
12862TIP3   OH238526   1.688   1.011   6.052
12862TIP3    H138527   1.712   1.084   5.994
12862TIP3    H238528   1.620   0.964   6.005
12863TIP3   OH238529   2.030   1.579   1.544
12863TIP3    H138530   2.044   1.643   1.474
12863TIP3    H238531   2.022   1.632   1.623
12864TIP3   OH238532   7.356   2.439   0.532
12864TIP3    H138533   7.396   2.373   0.588
12864TIP3    H238534   7.429   2.492   0.499
12865TIP3   OH238535   4.958   1.166   4.103
12865TIP3    H138536   5.035   1.116   4.078
12865TIP3    H238537   4.928   1.206   4.021
12866TIP3   OH238538   2.038   6.809   2.550
12866TIP3    H138539   1.970   6.805   2.617
12866TIP3    H238540   2.113   6.849   2.594
12867TIP3   OH238541   4.061   0.818   2.803
12867TIP3    H138542   4.154   0.794   2.796
12867TIP3    H238543   4.042   0.866   2.723
12868TIP3   OH238544   1.424   2.806   6.740
12868TIP3    H138545   1.347   2.858   6.715
12868TIP3    H238546   1.488   2.872   6.768
12869TIP3   OH238547   1.423   5.613   6.251
12869TIP3    H138548   1.347   5.658   6.215
12869TIP3    H238549   1.423   5.527   6.208
12870TIP3   OH238550   7.234   3.859   5.385
12870TIP3    H138551   7.186   3.919   5.442
12870TIP3    H238552   7.326   3.881   5.398
12871TIP3   OH238553   5.393   7.265   6.194
12871TIP3    H138554   5.320   7.252   6.255
12871TIP3    H238555   5.401   7.360   6.188
12872TIP3   OH238556   3.667   1.125   3.277
12872TIP3    H138557   3.623   1.103   3.359
12872TIP3    H238558   3.715   1.046   3.253
12873TIP3   OH238559   7.107   1.966   4.514
12873TIP3    H138560   7.047   1.940   4.444
12873TIP3    H238561   7.185   1.912   4.499
12874TIP3   OH238562   1.269   0.552   1.087
12874TIP3    H138563   1.334   0.485   1.110
12874TIP3    H238564   1.286   0.624   1.148
12875TIP3   OH238565   5.044   7.613   4.731
12875TIP3    H138566   5.068   7.700   4.699
12875TIP3    H238567   4.950   7.619   4.749
12876TIP3   OH238568   5.798   3.052   5.236
12876TIP3    H138569   5.777   2.987   5.304
12876TIP3    H238570   5.824   3.130   5.284
12877TIP3   OH238571   0.686   6.866   6.670
12877TIP3    H138572   0.637   6.815   6.605
12877TIP3    H238573   0.768   6.818   6.681
12878TIP3   OH238574   1.539   6.757   6.650
12878TIP3    H138575   1.507   6.670   6.674
12878TIP3    H238576   1.589   6.742   6.570
12879TIP3   OH238577   4.819   3.402   3.892
12879TIP3    H138578   4.785   3.484   3.928
12879TIP3    H238579   4.753   3.374   3.829
12880TIP3   OH238580   0.218   6.977   2.571
12880TIP3    H138581   0.278   7.051   2.577
12880TIP3    H238582   0.132   7.013   2.593
12881TIP3   OH238583   6.879   6.560   5.366
12881TIP3    H138584   6.927   6.613   5.430
12881TIP3    H238585   6.833   6.625   5.312
12882TIP3   OH238586   6.498   1.268   3.331
12882TIP3    H138587   6.580   1.316   3.341
12882TIP3    H238588   6.440   1.331   3.287
12883TIP3   OH238589   6.534   7.952   4.084
12883TIP3    H138590   6.440   7.969   4.091
12883TIP3    H238591   6.541   7.856   4.092
12884TIP3   OH238592   2.809   2.545   4.435
12884TIP3    H138593   2.726   2.500   4.449
12884TIP3    H238594   2.854   2.495   4.367
12885TIP3   OH238595   1.992   6.657   0.392
12885TIP3    H138596   1.985   6.684   0.484
12885TIP3    H238597   1.911   6.687   0.351
12886TIP3   OH238598   0.716   1.290   2.912
12886TIP3    H138599   0.779   1.238   2.962
12886TIP3    H238600   0.637   1.236   2.908
12887TIP3   OH238601   8.182   6.286   1.469
12887TIP3    H138602   8.200   6.374   1.435
12887TIP3    H238603   8.196   6.228   1.394
12888TIP3   OH238604   0.526   2.610   3.767
12888TIP3    H138605   0.568   2.541   3.717
12888TIP3    H238606   0.476   2.565   3.835
12889TIP3   OH238607   6.780   4.554   5.381
12889TIP3    H138608   6.808   4.645   5.366
12889TIP3    H238609   6.809   4.507   5.303
12890TIP3   OH238610   2.658   1.339  -0.025
12890TIP3    H138611   2.698   1.375   0.054
12890TIP3    H238612   2.575   1.301   0.006
12891TIP3   OH238613   3.055   0.549   3.188
12891TIP3    H138614   3.106   0.490   3.133
12891TIP3    H238615   3.121   0.595   3.241
12892TIP3   OH238616   2.041   5.419   0.980
12892TIP3    H138617   2.071   5.435   1.069
12892TIP3    H238618   2.034   5.506   0.941
12893TIP3   OH238619   3.338   1.956   3.698
12893TIP3    H138620   3.260   1.926   3.746
12893TIP3    H238621   3.401   1.977   3.767
12894TIP3   OH238622   2.496   2.195   6.030
12894TIP3    H138623   2.535   2.137   6.095
12894TIP3    H238624   2.435   2.250   6.079
12895TIP3   OH238625   8.115   4.661   3.945
12895TIP3    H138626   8.148   4.697   4.028
12895TIP3    H238627   8.133   4.567   3.951
12896TIP3   OH238628   0.344   3.422   6.241
12896TIP3    H138629   0.307   3.505   6.213
12896TIP3    H238630   0.291   3.356   6.197
12897TIP3   OH238631   4.290   4.574   4.817
12897TIP3    H138632   4.310   4.617   4.734
12897TIP3    H238633   4.359   4.602   4.876
12898TIP3   OH238634   2.017   4.041   5.343
12898TIP3    H138635   2.081   4.111   5.355
12898TIP3    H238636   1.991   4.016   5.432
12899TIP3   OH238637   4.093   5.419   6.811
12899TIP3    H138638   4.022   5.356   6.797
12899TIP3    H238639   4.171   5.375   6.777
12900TIP3   OH238640   1.446   6.340   0.833
12900TIP3    H138641   1.507   6.266   0.822
12900TIP3    H238642   1.424   6.366   0.744
12901TIP3   OH238643   0.428   7.153   2.668
12901TIP3    H138644   0.480   7.098   2.727
12901TIP3    H238645   0.385   7.216   2.726
12902TIP3   OH238646   1.872   5.496   5.631
12902TIP3    H138647   1.805   5.430   5.650
12902TIP3    H238648   1.940   5.479   5.696
12903TIP3   OH238649   5.438   6.899   2.642
12903TIP3    H138650   5.442   6.971   2.579
12903TIP3    H238651   5.527   6.866   2.647
12904TIP3   OH238652   1.692   7.721   1.978
12904TIP3    H138653   1.738   7.745   1.897
12904TIP3    H238654   1.723   7.632   1.997
12905TIP3   OH238655   7.411   3.488   0.522
12905TIP3    H138656   7.437   3.450   0.605
12905TIP3    H238657   7.465   3.442   0.457
12906TIP3   OH238658   6.758   6.860   4.149
12906TIP3    H138659   6.736   6.823   4.064
12906TIP3    H238660   6.674   6.874   4.192
12907TIP3   OH238661   0.733   1.965   3.176
12907TIP3    H138662   0.745   2.054   3.140
12907TIP3    H238663   0.700   1.980   3.264
12908TIP3   OH238664   7.597   6.251   4.522
12908TIP3    H138665   7.654   6.316   4.565
12908TIP3    H238666   7.649   6.171   4.521
12909TIP3   OH238667   2.902   6.469   3.275
12909TIP3    H138668   2.849   6.415   3.334
12909TIP3    H238669   2.917   6.551   3.323
12910TIP3   OH238670   3.861   1.196   3.480
12910TIP3    H138671   3.812   1.207   3.398
12910TIP3    H238672   3.795   1.201   3.549
12911TIP3   OH238673   4.363   5.067   1.464
12911TIP3    H138674   4.443   5.016   1.453
12911TIP3    H238675   4.293   5.009   1.434
12912TIP3   OH238676   7.801   1.090   4.976
12912TIP3    H138677   7.879   1.124   4.932
12912TIP3    H238678   7.727   1.130   4.929
12913TIP3   OH238679   0.330   5.307   5.350
12913TIP3    H138680   0.331   5.266   5.263
12913TIP3    H238681   0.422   5.318   5.373
12914TIP3   OH238682   4.526   2.829   2.190
12914TIP3    H138683   4.497   2.892   2.256
12914TIP3    H238684   4.616   2.809   2.214
12915TIP3   OH238685   7.484   6.038   4.164
12915TIP3    H138686   7.432   6.007   4.237
12915TIP3    H238687   7.424   6.037   4.089
12916TIP3   OH238688   1.947   0.996   1.583
12916TIP3    H138689   2.001   1.065   1.622
12916TIP3    H238690   1.858   1.014   1.615
12917TIP3   OH238691   7.124   2.236   5.560
12917TIP3    H138692   7.150   2.323   5.589
12917TIP3    H238693   7.190   2.211   5.495
12918TIP3   OH238694   3.753   7.446   0.278
12918TIP3    H138695   3.663   7.416   0.291
12918TIP3    H238696   3.772   7.425   0.186
12919TIP3   OH238697   7.221   7.126   2.068
12919TIP3    H138698   7.314   7.132   2.047
12919TIP3    H238699   7.209   7.039   2.105
12920TIP3   OH238700   2.035   0.912   5.601
12920TIP3    H138701   1.966   0.925   5.667
12920TIP3    H238702   2.053   0.818   5.604
12921TIP3   OH238703   6.665   6.313   6.181
12921TIP3    H138704   6.624   6.384   6.131
12921TIP3    H238705   6.693   6.250   6.114
12922TIP3   OH238706   6.463   4.653   4.385
12922TIP3    H138707   6.496   4.742   4.400
12922TIP3    H238708   6.378   4.664   4.343
12923TIP3   OH238709   1.361   4.899   5.926
12923TIP3    H138710   1.427   4.837   5.954
12923TIP3    H238711   1.358   4.965   5.996
12924TIP3   OH238712   4.328   1.446   6.681
12924TIP3    H138713   4.333   1.500   6.760
12924TIP3    H238714   4.381   1.369   6.701
12925TIP3   OH238715   2.236   0.889   1.557
12925TIP3    H138716   2.183   0.951   1.607
12925TIP3    H238717   2.268   0.938   1.482
12926TIP3   OH238718   0.534   3.286   3.118
12926TIP3    H138719   0.452   3.294   3.168
12926TIP3    H238720   0.573   3.373   3.123
12927TIP3   OH238721   6.303   6.809   4.683
12927TIP3    H138722   6.288   6.777   4.772
12927TIP3    H238723   6.387   6.853   4.687
12928TIP3   OH238724   3.688   4.771   1.235
12928TIP3    H138725   3.626   4.760   1.163
12928TIP3    H238726   3.749   4.697   1.225
12929TIP3   OH238727   3.504   6.021   4.983
12929TIP3    H138728   3.469   6.057   4.901
12929TIP3    H238729   3.596   6.044   4.982
12930TIP3   OH238730   4.829   6.377   3.480
12930TIP3    H138731   4.751   6.335   3.515
12930TIP3    H238732   4.884   6.396   3.556
12931TIP3   OH238733   7.630   4.556   2.327
12931TIP3    H138734   7.658   4.511   2.407
12931TIP3    H238735   7.658   4.499   2.256
12932TIP3   OH238736   0.557   3.643   1.213
12932TIP3    H138737   0.575   3.610   1.302
12932TIP3    H238738   0.634   3.695   1.191
12933TIP3   OH238739   1.392   3.467   1.499
12933TIP3    H138740   1.426   3.546   1.541
12933TIP3    H238741   1.349   3.499   1.419
12934TIP3   OH238742   7.092   2.477   6.272
12934TIP3    H138743   7.130   2.409   6.329
12934TIP3    H238744   7.096   2.439   6.184
12935TIP3   OH238745   2.870   4.259   3.319
12935TIP3    H138746   2.944   4.240   3.261
12935TIP3    H238747   2.888   4.348   3.352
12936TIP3   OH238748   5.346   5.762   3.860
12936TIP3    H138749   5.319   5.848   3.891
12936TIP3    H238750   5.337   5.767   3.765
12937TIP3   OH238751   4.824   6.348   3.809
12937TIP3    H138752   4.760   6.278   3.797
12937TIP3    H238753   4.847   6.344   3.902
12938TIP3   OH238754   6.189   6.571   3.864
12938TIP3    H138755   6.152   6.487   3.893
12938TIP3    H238756   6.112   6.627   3.854
12939TIP3   OH238757   7.613   6.004   5.801
12939TIP3    H138758   7.707   5.989   5.812
12939TIP3    H238759   7.599   5.998   5.706
12940TIP3   OH238760   2.093   6.457   3.531
12940TIP3    H138761   2.103   6.511   3.610
12940TIP3    H238762   2.039   6.384   3.560
12941TIP3   OH238763   5.306   6.975   0.158
12941TIP3    H138764   5.224   6.977   0.109
12941TIP3    H238765   5.301   6.894   0.209
12942TIP3   OH238766   4.247   7.507   0.099
12942TIP3    H138767   4.275   7.472   0.015
12942TIP3    H238768   4.195   7.437   0.138
12943TIP3   OH238769   1.783   2.072   6.136
12943TIP3    H138770   1.723   2.059   6.210
12943TIP3    H238771   1.827   1.987   6.126
12944TIP3   OH238772   6.476   5.834   1.695
12944TIP3    H138773   6.533   5.779   1.749
12944TIP3    H238774   6.428   5.888   1.758
12945TIP3   OH238775   6.665   3.739   4.866
12945TIP3    H138776   6.721   3.808   4.903
12945TIP3    H238777   6.593   3.786   4.824
12946TIP3   OH238778   4.589   7.064   0.450
12946TIP3    H138779   4.634   7.056   0.534
12946TIP3    H238780   4.551   7.152   0.451
12947TIP3   OH238781   2.114   6.977   6.771
12947TIP3    H138782   2.176   7.021   6.713
12947TIP3    H238783   2.111   6.886   6.740
12948TIP3   OH238784   7.882   1.673   0.020
12948TIP3    H138785   7.829   1.668   0.100
12948TIP3    H238786   7.895   1.582  -0.005
12949TIP3   OH238787   1.162   2.592   4.019
12949TIP3    H138788   1.189   2.663   3.961
12949TIP3    H238789   1.150   2.517   3.961
12950TIP3   OH238790   1.808   5.820   3.228
12950TIP3    H138791   1.846   5.815   3.315
12950TIP3    H238792   1.765   5.736   3.215
12951TIP3   OH238793   6.122   5.685   1.919
12951TIP3    H138794   6.062   5.749   1.880
12951TIP3    H238795   6.166   5.646   1.844
12952TIP3   OH238796   3.632   6.947   1.600
12952TIP3    H138797   3.545   6.968   1.568
12952TIP3    H238798   3.620   6.928   1.693
12953TIP3   OH238799   7.484   6.583   0.731
12953TIP3    H138800   7.461   6.495   0.762
12953TIP3    H238801   7.505   6.571   0.639
12954TIP3   OH238802   2.336   3.206   1.229
12954TIP3    H138803   2.276   3.260   1.177
12954TIP3    H238804   2.423   3.227   1.195
12955TIP3   OH238805   2.132   3.432   3.216
12955TIP3    H138806   2.226   3.449   3.217
12955TIP3    H238807   2.101   3.476   3.137
12956TIP3   OH238808   3.185   0.514   2.015
12956TIP3    H138809   3.140   0.438   1.979
12956TIP3    H238810   3.194   0.573   1.940
12957TIP3   OH238811   1.790   5.780   0.071
12957TIP3    H138812   1.883   5.797   0.086
12957TIP3    H238813   1.786   5.749  -0.020
12958TIP3   OH238814   5.549   2.080   5.386
12958TIP3    H138815   5.611   2.127   5.441
12958TIP3    H238816   5.602   2.016   5.338
12959TIP3   OH238817   4.882   7.625   5.207
12959TIP3    H138818   4.903   7.602   5.116
12959TIP3    H238819   4.915   7.714   5.218
12960TIP3   OH238820   3.740   6.333   2.026
12960TIP3    H138821   3.673   6.394   2.056
12960TIP3    H238822   3.812   6.345   2.088
12961TIP3   OH238823   4.973   1.567   3.964
12961TIP3    H138824   4.893   1.620   3.963
12961TIP3    H238825   4.945   1.481   3.933
12962TIP3   OH238826   7.467   3.951   4.777
12962TIP3    H138827   7.556   3.960   4.741
12962TIP3    H238828   7.417   4.018   4.731
12963TIP3   OH238829   7.627   0.104   4.750
12963TIP3    H138830   7.574   0.110   4.670
12963TIP3    H238831   7.581   0.040   4.804
12964TIP3   OH238832   4.444   2.032   2.973
12964TIP3    H138833   4.397   2.109   2.942
12964TIP3    H238834   4.469   1.985   2.893
12965TIP3   OH238835   4.170   5.380   2.242
12965TIP3    H138836   4.092   5.435   2.238
12965TIP3    H238837   4.164   5.336   2.327
12966TIP3   OH238838   7.860   1.416   4.719
12966TIP3    H138839   7.805   1.492   4.698
12966TIP3    H238840   7.944   1.435   4.677
12967TIP3   OH238841   3.140   1.219   0.668
12967TIP3    H138842   3.214   1.274   0.693
12967TIP3    H238843   3.180   1.142   0.626
12968TIP3   OH238844   2.388   6.622   5.618
12968TIP3    H138845   2.319   6.619   5.685
12968TIP3    H238846   2.416   6.713   5.617
12969TIP3   OH238847   1.948   1.110   6.617
12969TIP3    H138848   1.979   1.066   6.696
12969TIP3    H238849   1.852   1.101   6.621
12970TIP3   OH238850   8.052   7.847   3.846
12970TIP3    H138851   8.117   7.870   3.912
12970TIP3    H238852   7.986   7.916   3.853
12971TIP3   OH238853   8.272   2.482   6.098
12971TIP3    H138854   8.352   2.515   6.057
12971TIP3    H238855   8.244   2.410   6.041
12972TIP3   OH238856   3.315   7.505   4.272
12972TIP3    H138857   3.254   7.537   4.206
12972TIP3    H238858   3.344   7.583   4.319
12973TIP3   OH238859   4.398   7.907   6.150
12973TIP3    H138860   4.383   7.950   6.234
12973TIP3    H238861   4.491   7.921   6.132
12974TIP3   OH238862   7.177   4.461   5.230
12974TIP3    H138863   7.230   4.388   5.262
12974TIP3    H238864   7.219   4.539   5.266
12975TIP3   OH238865   8.179   2.521   3.778
12975TIP3    H138866   8.120   2.593   3.798
12975TIP3    H238867   8.174   2.464   3.856
12976TIP3   OH238868   2.934   1.670   4.836
12976TIP3    H138869   2.862   1.638   4.782
12976TIP3    H238870   3.013   1.643   4.790
12977TIP3   OH238871   0.909   7.845   2.466
12977TIP3    H138872   0.880   7.926   2.424
12977TIP3    H238873   0.840   7.825   2.529
12978TIP3   OH238874   4.824   6.278   1.382
12978TIP3    H138875   4.754   6.219   1.409
12978TIP3    H238876   4.905   6.232   1.407
12979TIP3   OH238877   4.920   2.206   1.365
12979TIP3    H138878   4.972   2.126   1.361
12979TIP3    H238879   4.901   2.227   1.274
12980TIP3   OH238880   4.992   1.319   6.022
12980TIP3    H138881   5.006   1.406   5.986
12980TIP3    H238882   4.914   1.286   5.977
12981TIP3   OH238883   5.360   7.143   4.123
12981TIP3    H138884   5.316   7.058   4.117
12981TIP3    H238885   5.423   7.132   4.195
12982TIP3   OH238886   3.122   5.999   5.216
12982TIP3    H138887   3.187   6.069   5.218
12982TIP3    H238888   3.066   6.017   5.292
12983TIP3   OH238889   1.149   7.461   3.116
12983TIP3    H138890   1.082   7.405   3.155
12983TIP3    H238891   1.215   7.470   3.185
12984TIP3   OH238892   6.890   7.049   2.919
12984TIP3    H138893   6.978   7.038   2.953
12984TIP3    H238894   6.848   6.964   2.932
12985TIP3   OH238895   8.344   6.449   4.600
12985TIP3    H138896   8.258   6.413   4.625
12985TIP3    H238897   8.407   6.389   4.640
12986TIP3   OH238898   4.232   1.727   2.385
12986TIP3    H138899   4.151   1.772   2.410
12986TIP3    H238900   4.229   1.724   2.289
12987TIP3   OH238901   5.163   5.212   6.381
12987TIP3    H138902   5.256   5.227   6.396
12987TIP3    H238903   5.135   5.157   6.454
12988TIP3   OH238904   4.890   0.154   0.620
12988TIP3    H138905   4.935   0.138   0.703
12988TIP3    H238906   4.825   0.084   0.615
12989TIP3   OH238907   2.589   7.646   5.020
12989TIP3    H138908   2.653   7.590   4.977
12989TIP3    H238909   2.641   7.714   5.062
12990TIP3   OH238910   5.370   5.669   5.169
12990TIP3    H138911   5.355   5.763   5.177
12990TIP3    H238912   5.293   5.629   5.208
12991TIP3   OH238913   3.229   1.637   3.413
12991TIP3    H138914   3.254   1.545   3.408
12991TIP3    H238915   3.274   1.679   3.340
12992TIP3   OH238916   0.111   3.212   3.761
12992TIP3    H138917   0.151   3.299   3.754
12992TIP3    H238918   0.034   3.225   3.816
12993TIP3   OH238919   5.548   2.273   4.845
12993TIP3    H138920   5.599   2.315   4.776
12993TIP3    H238921   5.504   2.201   4.801
12994TIP3   OH238922   8.068   0.418   2.682
12994TIP3    H138923   8.129   0.475   2.729
12994TIP3    H238924   8.052   0.463   2.599
12995TIP3   OH238925   3.077   2.305   2.418
12995TIP3    H138926   3.057   2.316   2.511
12995TIP3    H238927   3.005   2.347   2.372
12996TIP3   OH238928   6.891   2.153   5.742
12996TIP3    H138929   6.890   2.057   5.742
12996TIP3    H238930   6.975   2.176   5.703
12997TIP3   OH238931   8.215   0.003   3.590
12997TIP3    H138932   8.298   0.049   3.590
12997TIP3    H238933   8.203  -0.026   3.499
12998TIP3   OH238934   3.214   2.117   5.855
12998TIP3    H138935   3.253   2.187   5.803
12998TIP3    H238936   3.238   2.137   5.945
12999TIP3   OH238937   6.431   5.145   5.466
12999TIP3    H138938   6.431   5.065   5.412
12999TIP3    H238939   6.497   5.127   5.533
13000TIP3   OH238940   6.665   3.531   4.673
13000TIP3    H138941   6.658   3.584   4.752
13000TIP3    H238942   6.576   3.530   4.637
13001TIP3   OH238943   4.651   0.379   4.394
13001TIP3    H138944   4.638   0.420   4.308
13001TIP3    H238945   4.718   0.312   4.379
13002TIP3   OH238946   2.840   4.039   3.876
13002TIP3    H138947   2.752   4.057   3.844
13002TIP3    H238948   2.864   3.956   3.834
13003TIP3   OH238949   2.017   0.891   0.806
13003TIP3    H138950   2.101   0.938   0.805
13003TIP3    H238951   1.977   0.915   0.890
13004TIP3   OH238952   1.360   6.471   0.546
13004TIP3    H138953   1.332   6.382   0.525
13004TIP3    H238954   1.284   6.525   0.527
13005TIP3   OH238955   6.998   2.916   4.714
13005TIP3    H138956   7.047   2.934   4.793
13005TIP3    H238957   7.014   2.823   4.695
13006TIP3   OH238958   6.650   0.471   1.919
13006TIP3    H138959   6.741   0.493   1.896
13006TIP3    H238960   6.657   0.386   1.964
13007TIP3   OH238961   6.716   4.977   3.746
13007TIP3    H138962   6.811   4.966   3.749
13007TIP3    H238963   6.698   5.004   3.656
13008TIP3   OH238964   2.328   7.865   1.318
13008TIP3    H138965   2.321   7.904   1.231
13008TIP3    H238966   2.344   7.940   1.377
13009TIP3   OH238967   8.175   1.896   6.596
13009TIP3    H138968   8.136   1.954   6.531
13009TIP3    H238969   8.142   1.809   6.573
13010TIP3   OH238970   2.875   0.076   0.027
13010TIP3    H138971   2.908  -0.010   0.002
13010TIP3    H238972   2.810   0.058   0.095
13011TIP3   OH238973   6.921   0.316   1.162
13011TIP3    H138974   6.925   0.408   1.135
13011TIP3    H238975   6.846   0.311   1.222
13012TIP3   OH238976   3.145   0.401   2.767
13012TIP3    H138977   3.091   0.334   2.808
13012TIP3    H238978   3.181   0.359   2.689
13013TIP3   OH238979   1.031   2.251   3.581
13013TIP3    H138980   0.987   2.193   3.520
13013TIP3    H238981   1.105   2.200   3.614
13014TIP3   OH238982   0.808   5.618   1.663
13014TIP3    H138983   0.804   5.522   1.662
13014TIP3    H238984   0.749   5.643   1.734
13015TIP3   OH238985   0.032   3.660   3.689
13015TIP3    H138986  -0.025   3.631   3.618
13015TIP3    H238987  -0.024   3.663   3.766
13016TIP3   OH238988   1.368   2.644   2.332
13016TIP3    H138989   1.452   2.683   2.307
13016TIP3    H238990   1.327   2.709   2.388
13017TIP3   OH238991   3.872   7.080   1.532
13017TIP3    H138992   3.797   7.139   1.527
13017TIP3    H238993   3.937   7.118   1.474
13018TIP3   OH238994   7.702   3.550   1.218
13018TIP3    H138995   7.751   3.473   1.188
13018TIP3    H238996   7.770   3.610   1.251
13019TIP3   OH238997   1.887   2.573   6.300
13019TIP3    H138998   1.855   2.578   6.391
13019TIP3    H238999   1.874   2.482   6.275
13020TIP3   OH239000   4.975   5.383   4.476
13020TIP3    H139001   5.047   5.393   4.413
13020TIP3    H239002   4.934   5.469   4.478
13021TIP3   OH239003   1.803   4.215   2.139
13021TIP3    H139004   1.772   4.299   2.175
13021TIP3    H239005   1.885   4.237   2.096
13022TIP3   OH239006   5.292   2.212   2.338
13022TIP3    H139007   5.378   2.199   2.298
13022TIP3    H239008   5.232   2.163   2.282
13023TIP3   OH239009   2.382   6.229   0.207
13023TIP3    H139010   2.418   6.212   0.120
13023TIP3    H239011   2.450   6.197   0.267
13024TIP3   OH239012   4.920   4.399   0.354
13024TIP3    H139013   4.845   4.350   0.387
13024TIP3    H239014   4.892   4.431   0.269
13025TIP3   OH239015   0.591   4.145  -0.032
13025TIP3    H139016   0.589   4.232   0.007
13025TIP3    H239017   0.683   4.117  -0.024
13026TIP3   OH239018   1.857   1.941   4.542
13026TIP3    H139019   1.945   1.950   4.577
13026TIP3    H239020   1.830   2.031   4.521
13027TIP3   OH239021   2.523   0.292   1.563
13027TIP3    H139022   2.486   0.215   1.519
13027TIP3    H239023   2.455   0.319   1.625
13028TIP3   OH239024   6.380   6.491   5.519
13028TIP3    H139025   6.312   6.525   5.578
13028TIP3    H239026   6.402   6.405   5.555
13029TIP3   OH239027   2.609   1.012   1.272
13029TIP3    H139028   2.521   0.999   1.308
13029TIP3    H239029   2.625   1.106   1.281
13030TIP3   OH239030   1.607   6.685   5.478
13030TIP3    H139031   1.636   6.715   5.564
13030TIP3    H239032   1.617   6.761   5.421
13031TIP3   OH239033   5.809   2.543   6.333
13031TIP3    H139034   5.749   2.518   6.263
13031TIP3    H239035   5.752   2.568   6.406
13032TIP3   OH239036   5.989   7.817   5.168
13032TIP3    H139037   5.912   7.856   5.209
13032TIP3    H239038   6.056   7.886   5.172
13033TIP3   OH239039   7.393   4.533   5.945
13033TIP3    H139040   7.419   4.574   5.863
13033TIP3    H239041   7.320   4.586   5.976
13034TIP3   OH239042   4.389   4.223   6.553
13034TIP3    H139043   4.358   4.234   6.463
13034TIP3    H239044   4.324   4.270   6.606
13035TIP3   OH239045   2.705   6.561   1.576
13035TIP3    H139046   2.645   6.492   1.604
13035TIP3    H239047   2.790   6.517   1.568
13036TIP3   OH239048   2.701   3.260   6.513
13036TIP3    H139049   2.672   3.172   6.537
13036TIP3    H239050   2.620   3.312   6.514
13037TIP3   OH239051   6.374   0.974   2.377
13037TIP3    H139052   6.427   1.018   2.310
13037TIP3    H239053   6.341   0.895   2.333
13038TIP3   OH239054   7.833   0.287   6.060
13038TIP3    H139055   7.841   0.240   5.977
13038TIP3    H239056   7.782   0.364   6.039
13039TIP3   OH239057   6.490   1.516   1.461
13039TIP3    H139058   6.416   1.478   1.508
13039TIP3    H239059   6.478   1.486   1.370
13040TIP3   OH239060   1.448   0.384   4.772
13040TIP3    H139061   1.377   0.340   4.818
13040TIP3    H239062   1.432   0.365   4.679
13041TIP3   OH239063   7.178   3.398   4.087
13041TIP3    H139064   7.187   3.478   4.034
13041TIP3    H239065   7.128   3.426   4.164
13042TIP3   OH239066   7.737   4.496   4.426
13042TIP3    H139067   7.662   4.505   4.484
13042TIP3    H239068   7.813   4.494   4.485
13043TIP3   OH239069   0.242   4.934   5.805
13043TIP3    H139070   0.282   5.016   5.777
13043TIP3    H239071   0.295   4.866   5.762
13044TIP3   OH239072   8.068   1.530   5.370
13044TIP3    H139073   8.095   1.510   5.280
13044TIP3    H239074   8.148   1.522   5.422
13045TIP3   OH239075   4.719   2.115   4.207
13045TIP3    H139076   4.734   2.189   4.265
13045TIP3    H239077   4.647   2.143   4.150
13046TIP3   OH239078   4.874   5.626   4.367
13046TIP3    H139079   4.909   5.709   4.335
13046TIP3    H239080   4.859   5.574   4.288
13047TIP3   OH239081   5.477   0.408   3.161
13047TIP3    H139082   5.402   0.456   3.196
13047TIP3    H239083   5.459   0.317   3.182
13048TIP3   OH239084   4.360   1.886   5.209
13048TIP3    H139085   4.364   1.791   5.195
13048TIP3    H239086   4.349   1.896   5.304
13049TIP3   OH239087   2.597   0.973   0.253
13049TIP3    H139088   2.558   0.913   0.316
13049TIP3    H239089   2.556   1.057   0.271
13050TIP3   OH239090  -0.059   3.075   2.937
13050TIP3    H139091  -0.022   3.163   2.927
13050TIP3    H239092   0.015   3.016   2.921
13051TIP3   OH239093   1.434   7.722   3.069
13051TIP3    H139094   1.479   7.803   3.095
13051TIP3    H239095   1.359   7.717   3.128
13052TIP3   OH239096   6.960   2.826   5.263
13052TIP3    H139097   6.926   2.743   5.295
13052TIP3    H239098   7.043   2.837   5.309
13053TIP3   OH239099   2.854   2.602   5.141
13053TIP3    H139100   2.772   2.553   5.142
13053TIP3    H239101   2.862   2.634   5.051
13054TIP3   OH239102   2.664   6.373   0.674
13054TIP3    H139103   2.661   6.302   0.610
13054TIP3    H239104   2.744   6.356   0.724
13055TIP3   OH239105   5.859   5.872   5.633
13055TIP3    H139106   5.939   5.820   5.636
13055TIP3    H239107   5.813   5.850   5.715
13056TIP3   OH239108   3.718   6.086   1.712
13056TIP3    H139109   3.663   6.164   1.713
13056TIP3    H239110   3.763   6.089   1.628
13057TIP3   OH239111   1.266   1.122   1.303
13057TIP3    H139112   1.209   1.114   1.379
13057TIP3    H239113   1.211   1.100   1.228
13058TIP3   OH239114   3.286   1.698   5.589
13058TIP3    H139115   3.294   1.721   5.682
13058TIP3    H239116   3.349   1.755   5.545
13059TIP3   OH239117   2.499   5.154   1.748
13059TIP3    H139118   2.499   5.219   1.818
13059TIP3    H239119   2.575   5.099   1.766
13060TIP3   OH239120   6.999   1.712   4.826
13060TIP3    H139121   6.973   1.753   4.909
13060TIP3    H239122   6.939   1.748   4.762
13061TIP3   OH239123   2.142   5.973   6.891
13061TIP3    H139124   2.126   5.899   6.950
13061TIP3    H239125   2.139   5.934   6.803
13062TIP3   OH239126   8.008   3.277   3.760
13062TIP3    H139127   8.080   3.214   3.757
13062TIP3    H239128   7.960   3.255   3.840
13063TIP3   OH239129   4.459   4.280   4.416
13063TIP3    H139130   4.544   4.246   4.445
13063TIP3    H239131   4.481   4.336   4.342
13064TIP3   OH239132   7.234   1.317   5.006
13064TIP3    H139133   7.291   1.390   5.031
13064TIP3    H239134   7.151   1.359   4.981
13065TIP3   OH239135   2.402   7.551   6.450
13065TIP3    H139136   2.446   7.509   6.524
13065TIP3    H239137   2.313   7.515   6.450
13066TIP3   OH239138   1.047   7.553   4.130
13066TIP3    H139139   1.002   7.554   4.046
13066TIP3    H239140   0.994   7.494   4.184
13067TIP3   OH239141   6.780   3.706   0.968
13067TIP3    H139142   6.806   3.686   0.879
13067TIP3    H239143   6.833   3.782   0.992
13068TIP3   OH239144   6.441   6.549   3.124
13068TIP3    H139145   6.375   6.603   3.080
13068TIP3    H239146   6.473   6.604   3.195
13069TIP3   OH239147   5.995   4.530   4.425
13069TIP3    H139148   5.959   4.608   4.383
13069TIP3    H239149   6.063   4.499   4.364
13070TIP3   OH239150   3.609   4.172   6.579
13070TIP3    H139151   3.698   4.207   6.584
13070TIP3    H239152   3.599   4.146   6.488
13071TIP3   OH239153   0.564   3.711   2.786
13071TIP3    H139154   0.577   3.616   2.777
13071TIP3    H239155   0.475   3.727   2.755
13072TIP3   OH239156   0.607   2.820   4.341
13072TIP3    H139157   0.520   2.809   4.302
13072TIP3    H239158   0.590   2.819   4.436
13073TIP3   OH239159   1.156   2.978   6.231
13073TIP3    H139160   1.067   2.948   6.249
13073TIP3    H239161   1.210   2.936   6.298
13074TIP3   OH239162   4.343   1.368   6.274
13074TIP3    H139163   4.343   1.453   6.230
13074TIP3    H239164   4.256   1.332   6.258
13075TIP3   OH239165   5.883   0.263   6.255
13075TIP3    H139166   5.956   0.214   6.292
13075TIP3    H239167   5.842   0.306   6.330
13076TIP3   OH239168   0.540   2.880   5.050
13076TIP3    H139169   0.557   2.850   4.961
13076TIP3    H239170   0.487   2.959   5.039
13077TIP3   OH239171   1.089   3.577   2.736
13077TIP3    H139172   1.030   3.534   2.797
13077TIP3    H239173   1.049   3.563   2.650
13078TIP3   OH239174   1.643   4.624   6.346
13078TIP3    H139175   1.725   4.662   6.316
13078TIP3    H239176   1.631   4.546   6.292
13079TIP3   OH239177   4.347   3.625   3.613
13079TIP3    H139178   4.297   3.704   3.590
13079TIP3    H239179   4.398   3.605   3.535
13080TIP3   OH239180   4.508   6.215   6.727
13080TIP3    H139181   4.477   6.129   6.756
13080TIP3    H239182   4.595   6.198   6.691
13081TIP3   OH239183   5.035   7.817   5.992
13081TIP3    H139184   5.025   7.889   5.930
13081TIP3    H239185   4.953   7.768   5.986
13082TIP3   OH239186   2.788   2.011   3.860
13082TIP3    H139187   2.816   1.948   3.793
13082TIP3    H239188   2.712   1.969   3.901
13083TIP3   OH239189   5.237   0.901   0.890
13083TIP3    H139190   5.188   0.961   0.833
13083TIP3    H239191   5.318   0.883   0.842
13084TIP3   OH239192   5.425   2.061   4.724
13084TIP3    H139193   5.332   2.040   4.724
13084TIP3    H239194   5.461   2.011   4.651
13085TIP3   OH239195   1.226   0.245   1.065
13085TIP3    H139196   1.226   0.281   0.977
13085TIP3    H239197   1.317   0.252   1.095
13086TIP3   OH239198   6.053   6.159   4.828
13086TIP3    H139199   6.110   6.175   4.753
13086TIP3    H239200   6.087   6.079   4.868
13087TIP3   OH239201   3.058   6.128   1.778
13087TIP3    H139202   3.141   6.080   1.785
13087TIP3    H239203   2.998   6.081   1.836
13088TIP3   OH239204   0.677   5.159   1.392
13088TIP3    H139205   0.592   5.157   1.436
13088TIP3    H239206   0.688   5.250   1.364
13089TIP3   OH239207   4.752   5.915   1.607
13089TIP3    H139208   4.831   5.912   1.553
13089TIP3    H239209   4.689   5.963   1.555
13090TIP3   OH239210   6.222   5.294   5.544
13090TIP3    H139211   6.266   5.371   5.579
13090TIP3    H239212   6.291   5.243   5.502
13091TIP3   OH239213   8.080   5.841   2.000
13091TIP3    H139214   8.060   5.902   1.929
13091TIP3    H239215   8.166   5.868   2.032
13092TIP3   OH239216  -0.015   2.036   5.130
13092TIP3    H139217  -0.006   2.073   5.042
13092TIP3    H239218   0.074   2.035   5.165
13093TIP3   OH239219   5.584   5.513   5.669
13093TIP3    H139220   5.516   5.450   5.693
13093TIP3    H239221   5.554   5.550   5.586
13094TIP3   OH239222   2.068   1.504   1.185
13094TIP3    H139223   2.039   1.595   1.180
13094TIP3    H239224   2.071   1.474   1.094
13095TIP3   OH239225   0.843   4.103   0.083
13095TIP3    H139226   0.855   4.029   0.023
13095TIP3    H239227   0.932   4.134   0.099
13096TIP3   OH239228   0.107   4.407   5.468
13096TIP3    H139229   0.053   4.446   5.536
13096TIP3    H239230   0.129   4.480   5.410
13097TIP3   OH239231   3.705   7.157   5.709
13097TIP3    H139232   3.635   7.215   5.680
13097TIP3    H239233   3.681   7.132   5.798
13098TIP3   OH239234   8.108   6.670   6.265
13098TIP3    H139235   8.059   6.588   6.264
13098TIP3    H239236   8.050   6.733   6.306
13099TIP3   OH239237   7.107   5.796   3.747
13099TIP3    H139238   7.114   5.891   3.752
13099TIP3    H239239   7.056   5.771   3.824
13100TIP3   OH239240   5.811   4.145   5.563
13100TIP3    H139241   5.807   4.217   5.500
13100TIP3    H239242   5.724   4.143   5.603
13101TIP3   OH239243   1.262  -0.021   0.427
13101TIP3    H139244   1.209   0.059   0.424
13101TIP3    H239245   1.283  -0.040   0.335
13102TIP3   OH239246   4.009   5.150   4.117
13102TIP3    H139247   4.037   5.216   4.054
13102TIP3    H239248   3.983   5.200   4.195
13103TIP3   OH239249   7.558   0.226   2.745
13103TIP3    H139250   7.497   0.191   2.810
13103TIP3    H239251   7.513   0.302   2.709
13104TIP3   OH239252   2.713   0.138   5.910
13104TIP3    H139253   2.770   0.137   5.832
13104TIP3    H239254   2.771   0.115   5.982
13105TIP3   OH239255   1.180   3.719   3.993
13105TIP3    H139256   1.189   3.624   3.984
13105TIP3    H239257   1.224   3.755   3.915
13106TIP3   OH239258   6.808   3.388   1.884
13106TIP3    H139259   6.854   3.306   1.903
13106TIP3    H239260   6.772   3.416   1.968
13107TIP3   OH239261   1.052   4.114   3.199
13107TIP3    H139262   1.045   4.203   3.234
13107TIP3    H239263   1.041   4.125   3.105
13108TIP3   OH239264   1.290   5.748   3.316
13108TIP3    H139265   1.255   5.692   3.247
13108TIP3    H239266   1.271   5.837   3.287
13109TIP3   OH239267   2.179   5.678   6.074
13109TIP3    H139268   2.111   5.718   6.020
13109TIP3    H239269   2.140   5.597   6.106
13110TIP3   OH239270   2.944   4.993   1.590
13110TIP3    H139271   3.017   4.942   1.624
13110TIP3    H239272   2.924   5.057   1.658
13111TIP3   OH239273   5.090   6.651   1.735
13111TIP3    H139274   5.179   6.687   1.726
13111TIP3    H239275   5.065   6.626   1.646
13112TIP3   OH239276   6.005   7.485   4.732
13112TIP3    H139277   5.950   7.414   4.764
13112TIP3    H239278   5.975   7.562   4.780
13113TIP3   OH239279   7.932   0.059   3.269
13113TIP3    H139280   8.007   0.017   3.312
13113TIP3    H239281   7.914   0.137   3.322
13114TIP3   OH239282   7.890   0.687   6.755
13114TIP3    H139283   7.898   0.659   6.846
13114TIP3    H239284   7.942   0.624   6.705
13115TIP3   OH239285   2.256   1.201   4.589
13115TIP3    H139286   2.197   1.264   4.631
13115TIP3    H239287   2.337   1.249   4.574
13116TIP3   OH239288   7.097   4.251   0.936
13116TIP3    H139289   7.175   4.301   0.914
13116TIP3    H239290   7.095   4.179   0.874
13117TIP3   OH239291   0.181   4.517   0.454
13117TIP3    H139292   0.233   4.437   0.462
13117TIP3    H239293   0.104   4.501   0.510
13118TIP3   OH239294   7.549   3.175   5.900
13118TIP3    H139295   7.472   3.178   5.843
13118TIP3    H239296   7.582   3.265   5.900
13119TIP3   OH239297   5.419   7.578   3.105
13119TIP3    H139298   5.489   7.605   3.165
13119TIP3    H239299   5.371   7.511   3.154
13120TIP3   OH239300   1.371   7.841   0.247
13120TIP3    H139301   1.281   7.814   0.266
13120TIP3    H239302   1.409   7.863   0.332
13121TIP3   OH239303   3.495   4.085   0.940
13121TIP3    H139304   3.423   4.055   0.883
13121TIP3    H239305   3.565   4.022   0.924
13122TIP3   OH239306   7.518   6.269   0.464
13122TIP3    H139307   7.530   6.186   0.510
13122TIP3    H239308   7.557   6.334   0.522
13123TIP3   OH239309   7.153   6.973   3.188
13123TIP3    H139310   7.208   6.949   3.263
13123TIP3    H239311   7.093   6.900   3.178
13124TIP3   OH239312   4.193   3.703   0.337
13124TIP3    H139313   4.224   3.723   0.249
13124TIP3    H239314   4.272   3.691   0.389
13125TIP3   OH239315   3.797   4.086   0.882
13125TIP3    H139316   3.749   4.078   0.799
13125TIP3    H239317   3.874   4.031   0.869
13126TIP3   OH239318   3.063   4.654   6.169
13126TIP3    H139319   2.986   4.660   6.112
13126TIP3    H239320   3.063   4.564   6.200
13127TIP3   OH239321   8.283   2.646   5.505
13127TIP3    H139322   8.246   2.665   5.592
13127TIP3    H239323   8.377   2.642   5.519
13128TIP3   OH239324   6.229   1.996   3.490
13128TIP3    H139325   6.273   2.033   3.566
13128TIP3    H239326   6.198   1.910   3.519
13129TIP3   OH239327   5.931   7.143   0.919
13129TIP3    H139328   5.937   7.072   0.855
13129TIP3    H239329   5.994   7.208   0.888
13130TIP3   OH239330   0.408   0.362   3.109
13130TIP3    H139331   0.339   0.428   3.115
13130TIP3    H239332   0.364   0.279   3.129
13131TIP3   OH239333   5.908   2.391   5.911
13131TIP3    H139334   5.943   2.304   5.888
13131TIP3    H239335   5.985   2.447   5.916
13132TIP3   OH239336   5.546   2.810   4.198
13132TIP3    H139337   5.476   2.837   4.258
13132TIP3    H239338   5.500   2.767   4.126
13133TIP3   OH239339   3.013   1.396   3.371
13133TIP3    H139340   3.030   1.475   3.422
13133TIP3    H239341   2.935   1.417   3.319
13134TIP3   OH239342   6.830   6.678   2.296
13134TIP3    H139343   6.823   6.772   2.309
13134TIP3    H239344   6.924   6.660   2.297
13135TIP3   OH239345   6.763   1.403   5.761
13135TIP3    H139346   6.771   1.480   5.704
13135TIP3    H239347   6.841   1.352   5.743
13136TIP3   OH239348   5.850   0.644   2.220
13136TIP3    H139349   5.863   0.558   2.262
13136TIP3    H239350   5.843   0.624   2.127
13137TIP3   OH239351   3.786   1.843   1.244
13137TIP3    H139352   3.750   1.820   1.158
13137TIP3    H239353   3.726   1.908   1.279
13138TIP3   OH239354   0.811   5.357   1.663
13138TIP3    H139355   0.725   5.345   1.702
13138TIP3    H239356   0.871   5.357   1.737
13139TIP3   OH239357   7.302   1.163   3.110
13139TIP3    H139358   7.258   1.180   3.027
13139TIP3    H239359   7.257   1.087   3.146
13140TIP3   OH239360   6.272   0.400   2.042
13140TIP3    H139361   6.321   0.416   1.962
13140TIP3    H239362   6.217   0.324   2.022
13141TIP3   OH239363   4.261   7.622   6.102
13141TIP3    H139364   4.290   7.712   6.113
13141TIP3    H239365   4.202   7.626   6.026
13142TIP3   OH239366   3.063   2.950   6.258
13142TIP3    H139367   3.113   2.884   6.306
13142TIP3    H239368   2.974   2.943   6.293
13143TIP3   OH239369   0.510   0.120   5.781
13143TIP3    H139370   0.585   0.158   5.735
13143TIP3    H239371   0.537   0.031   5.803
13144TIP3   OH239372   1.984   6.679   5.553
13144TIP3    H139373   2.048   6.727   5.500
13144TIP3    H239374   1.899   6.714   5.525
13145TIP3   OH239375   6.255   4.725   5.735
13145TIP3    H139376   6.347   4.748   5.749
13145TIP3    H239377   6.207   4.801   5.767
13146TIP3   OH239378   8.030   7.623   5.270
13146TIP3    H139379   8.041   7.549   5.211
13146TIP3    H239380   8.104   7.616   5.331
13147TIP3   OH239381   6.545   7.337   3.961
13147TIP3    H139382   6.513   7.254   3.995
13147TIP3    H239383   6.466   7.389   3.944
13148TIP3   OH239384   5.718   3.553   5.285
13148TIP3    H139385   5.625   3.568   5.302
13148TIP3    H239386   5.762   3.596   5.359
13149TIP3   OH239387   4.402   4.191   3.967
13149TIP3    H139388   4.461   4.265   3.956
13149TIP3    H239389   4.460   4.115   3.971
13150TIP3   OH239390   0.446   7.143   3.712
13150TIP3    H139391   0.401   7.085   3.773
13150TIP3    H239392   0.464   7.088   3.636
13151TIP3   OH239393   2.011   6.388   0.411
13151TIP3    H139394   1.982   6.478   0.396
13151TIP3    H239395   2.107   6.394   0.418
13152TIP3   OH239396   1.605   6.488   0.388
13152TIP3    H139397   1.656   6.408   0.382
13152TIP3    H239398   1.544   6.472   0.460
13153TIP3   OH239399   7.434   5.306   6.535
13153TIP3    H139400   7.405   5.342   6.451
13153TIP3    H239401   7.426   5.379   6.596
13154TIP3   OH239402   2.889   4.122   5.782
13154TIP3    H139403   2.984   4.112   5.782
13154TIP3    H239404   2.873   4.196   5.725
13155TIP3   OH239405   3.478   0.911   4.808
13155TIP3    H139406   3.405   0.862   4.769
13155TIP3    H239407   3.492   0.985   4.750
13156TIP3   OH239408   2.935   5.748   5.046
13156TIP3    H139409   2.872   5.742   4.975
13156TIP3    H239410   2.896   5.809   5.108
13157TIP3   OH239411   6.032   0.159   3.000
13157TIP3    H139412   6.083   0.240   2.993
13157TIP3    H239413   5.952   0.178   2.951
13158TIP3   OH239414   7.726   1.311   3.181
13158TIP3    H139415   7.796   1.336   3.121
13158TIP3    H239416   7.684   1.235   3.139
13159TIP3   OH239417   5.382   1.175   5.938
13159TIP3    H139418   5.313   1.172   5.872
13159TIP3    H239419   5.384   1.266   5.967
13160TIP3   OH239420   7.621   6.078   1.004
13160TIP3    H139421   7.667   6.102   1.084
13160TIP3    H239422   7.605   6.161   0.959
13161TIP3   OH239423   3.529   6.987   4.565
13161TIP3    H139424   3.571   7.068   4.593
13161TIP3    H239425   3.441   6.991   4.603
13162TIP3   OH239426   4.266   6.625   6.744
13162TIP3    H139427   4.212   6.647   6.668
13162TIP3    H239428   4.346   6.676   6.732
13163TIP3   OH239429   5.813   4.054   0.997
13163TIP3    H139430   5.808   4.105   1.077
13163TIP3    H239431   5.899   4.013   0.999
13164TIP3   OH239432   1.450   2.137   4.438
13164TIP3    H139433   1.420   2.124   4.528
13164TIP3    H239434   1.378   2.182   4.394
13165TIP3   OH239435   1.694   0.308   0.910
13165TIP3    H139436   1.763   0.244   0.923
13165TIP3    H239437   1.669   0.335   0.998
13166TIP3   OH239438  -0.016   3.049   4.842
13166TIP3    H139439   0.034   3.127   4.867
13166TIP3    H239440   0.022   2.978   4.894
13167TIP3   OH239441   2.340   0.872   0.359
13167TIP3    H139442   2.272   0.841   0.420
13167TIP3    H239443   2.381   0.792   0.327
13168TIP3   OH239444   0.103   3.814   3.380
13168TIP3    H139445   0.037   3.844   3.318
13168TIP3    H239446   0.057   3.807   3.464
13169TIP3   OH239447   3.328   7.564   0.453
13169TIP3    H139448   3.303   7.555   0.545
13169TIP3    H239449   3.385   7.641   0.451
13170TIP3   OH239450   5.928   2.264   1.204
13170TIP3    H139451   5.960   2.207   1.274
13170TIP3    H239452   5.963   2.226   1.124
13171TIP3   OH239453   2.726   7.843   2.662
13171TIP3    H139454   2.815   7.814   2.683
13171TIP3    H239455   2.669   7.774   2.696
13172TIP3   OH239456   5.528   6.027   5.114
13172TIP3    H139457   5.561   6.109   5.150
13172TIP3    H239458   5.436   6.024   5.139
13173TIP3   OH239459   5.721   7.329   6.432
13173TIP3    H139460   5.723   7.326   6.337
13173TIP3    H239461   5.812   7.310   6.458
13174TIP3   OH239462   2.909   7.652   6.338
13174TIP3    H139463   2.917   7.626   6.246
13174TIP3    H239464   2.979   7.716   6.350
13175TIP3   OH239465   1.171   6.554   4.347
13175TIP3    H139466   1.175   6.647   4.365
13175TIP3    H239467   1.251   6.518   4.386
13176TIP3   OH239468   2.308   6.380   2.529
13176TIP3    H139469   2.391   6.402   2.487
13176TIP3    H239470   2.301   6.285   2.520
13177TIP3   OH239471   7.609   6.640   5.659
13177TIP3    H139472   7.540   6.696   5.695
13177TIP3    H239473   7.562   6.567   5.619
13178TIP3   OH239474   2.953   6.676   6.321
13178TIP3    H139475   2.918   6.680   6.410
13178TIP3    H239476   2.879   6.696   6.264
13179TIP3   OH239477   2.872   2.389   6.393
13179TIP3    H139478   2.804   2.424   6.451
13179TIP3    H239479   2.945   2.450   6.402
13180TIP3   OH239480   1.051   6.517   0.754
13180TIP3    H139481   1.074   6.424   0.748
13180TIP3    H239482   1.122   6.556   0.805
13181TIP3   OH239483   3.975   7.739   5.583
13181TIP3    H139484   4.064   7.763   5.610
13181TIP3    H239485   3.927   7.729   5.665
13182TIP3   OH239486   1.850   2.886   5.857
13182TIP3    H139487   1.797   2.844   5.924
13182TIP3    H239488   1.912   2.818   5.830
13183TIP3   OH239489   1.876   1.423   3.471
13183TIP3    H139490   1.868   1.401   3.564
13183TIP3    H239491   1.840   1.347   3.425
13184TIP3   OH239492   5.126   5.788   3.037
13184TIP3    H139493   5.106   5.771   3.129
13184TIP3    H239494   5.219   5.810   3.036
13185TIP3   OH239495   1.676   2.324   6.271
13185TIP3    H139496   1.690   2.315   6.365
13185TIP3    H239497   1.639   2.412   6.260
13186TIP3   OH239498   0.681   0.790   5.200
13186TIP3    H139499   0.658   0.822   5.287
13186TIP3    H239500   0.665   0.696   5.203
13187TIP3   OH239501   2.616   5.326   0.643
13187TIP3    H139502   2.658   5.317   0.729
13187TIP3    H239503   2.591   5.418   0.638
13188TIP3   OH239504   1.430   7.195   1.231
13188TIP3    H139505   1.509   7.242   1.206
13188TIP3    H239506   1.450   7.103   1.216
13189TIP3   OH239507   3.729   5.895   4.304
13189TIP3    H139508   3.665   5.831   4.337
13189TIP3    H239509   3.802   5.842   4.271
13190TIP3   OH239510   5.570   6.504   5.625
13190TIP3    H139511   5.564   6.584   5.677
13190TIP3    H239512   5.612   6.441   5.683
13191TIP3   OH239513   5.766   7.508   5.636
13191TIP3    H139514   5.673   7.529   5.620
13191TIP3    H239515   5.810   7.535   5.555
13192TIP3   OH239516   0.560   1.474   5.068
13192TIP3    H139517   0.599   1.507   5.149
13192TIP3    H239518   0.600   1.529   4.999
13193TIP3   OH239519   0.836   4.139   2.077
13193TIP3    H139520   0.889   4.066   2.110
13193TIP3    H239521   0.747   4.119   2.108
13194TIP3   OH239522   3.955   2.615   6.261
13194TIP3    H139523   3.863   2.594   6.243
13194TIP3    H239524   3.985   2.662   6.183
13195TIP3   OH239525   4.466   5.053   5.746
13195TIP3    H139526   4.373   5.070   5.732
13195TIP3    H239527   4.501   5.032   5.659
13196TIP3   OH239528   5.683   6.582   0.626
13196TIP3    H139529   5.771   6.548   0.643
13196TIP3    H239530   5.658   6.542   0.543
13197TIP3   OH239531   7.383   1.551   5.086
13197TIP3    H139532   7.415   1.623   5.032
13197TIP3    H239533   7.457   1.529   5.143
13198TIP3   OH239534   3.370   6.749   6.190
13198TIP3    H139535   3.332   6.728   6.276
13198TIP3    H239536   3.324   6.692   6.129
13199TIP3   OH239537   5.425   6.636   3.860
13199TIP3    H139538   5.358   6.677   3.916
13199TIP3    H239539   5.470   6.710   3.820
13200TIP3   OH239540   2.918   6.294   6.618
13200TIP3    H139541   3.005   6.272   6.650
13200TIP3    H239542   2.858   6.251   6.680
13201TIP3   OH239543   7.629   2.489   5.507
13201TIP3    H139544   7.657   2.558   5.567
13201TIP3    H239545   7.672   2.410   5.540
13202TIP3   OH239546   6.990   2.959   3.878
13202TIP3    H139547   7.039   3.036   3.906
13202TIP3    H239548   6.989   2.901   3.955
13203TIP3   OH239549   1.933   0.883   4.436
13203TIP3    H139550   1.890   0.909   4.355
13203TIP3    H239551   1.893   0.799   4.459
13204TIP3   OH239552   7.084   1.171   0.409
13204TIP3    H139553   7.111   1.147   0.320
13204TIP3    H239554   6.992   1.195   0.401
13205TIP3   OH239555   5.632   5.699   6.402
13205TIP3    H139556   5.703   5.655   6.449
13205TIP3    H239557   5.656   5.690   6.310
13206TIP3   OH239558   4.020   6.408   3.080
13206TIP3    H139559   4.087   6.410   3.148
13206TIP3    H239560   4.060   6.360   3.008
13207TIP3   OH239561   3.091   7.540   5.290
13207TIP3    H139562   3.170   7.485   5.282
13207TIP3    H239563   3.074   7.541   5.384
13208TIP3   OH239564   7.467   2.645   5.066
13208TIP3    H139565   7.546   2.642   5.013
13208TIP3    H239566   7.484   2.586   5.138
13209TIP3   OH239567   6.719   1.656   2.052
13209TIP3    H139568   6.758   1.687   1.970
13209TIP3    H239569   6.630   1.692   2.050
13210TIP3   OH239570   6.599   5.762   4.682
13210TIP3    H139571   6.540   5.725   4.616
13210TIP3    H239572   6.680   5.780   4.634
13211TIP3   OH239573   6.178   6.960   4.126
13211TIP3    H139574   6.200   6.967   4.034
13211TIP3    H239575   6.205   7.044   4.164
13212TIP3   OH239576   4.091   3.978   3.248
13212TIP3    H139577   4.053   3.899   3.287
13212TIP3    H239578   4.119   3.952   3.161
13213TIP3   OH239579   1.127   2.698   1.791
13213TIP3    H139580   1.191   2.748   1.841
13213TIP3    H239581   1.048   2.698   1.846
13214TIP3   OH239582   3.155   7.262   4.764
13214TIP3    H139583   3.239   7.233   4.730
13214TIP3    H239584   3.095   7.253   4.690
13215TIP3   OH239585   2.932   6.447   0.515
13215TIP3    H139586   2.992   6.384   0.475
13215TIP3    H239587   2.848   6.400   0.519
13216TIP3   OH239588   1.119   4.139   0.387
13216TIP3    H139589   1.107   4.159   0.294
13216TIP3    H239590   1.034   4.103   0.414
13217TIP3   OH239591   8.215   2.241   5.319
13217TIP3    H139592   8.299   2.267   5.356
13217TIP3    H239593   8.150   2.276   5.380
13218TIP3   OH239594   1.094   7.785   5.620
13218TIP3    H139595   1.184   7.806   5.645
13218TIP3    H239596   1.083   7.823   5.533
13219TIP3   OH239597   0.632   6.215   6.687
13219TIP3    H139598   0.551   6.252   6.723
13219TIP3    H239599   0.699   6.234   6.753
13220TIP3   OH239600   5.250   4.919   4.715
13220TIP3    H139601   5.269   4.862   4.790
13220TIP3    H239602   5.155   4.932   4.718
13221TIP3   OH239603   5.582   7.144   6.064
13221TIP3    H139604   5.505   7.192   6.094
13221TIP3    H239605   5.548   7.060   6.033
13222TIP3   OH239606   7.886   5.933   3.550
13222TIP3    H139607   7.889   6.013   3.497
13222TIP3    H239608   7.794   5.908   3.552
13223TIP3   OH239609   0.246   7.568   5.681
13223TIP3    H139610   0.304   7.644   5.690
13223TIP3    H239611   0.277   7.523   5.603
13224TIP3   OH239612   0.236   6.133   6.776
13224TIP3    H139613   0.163   6.194   6.767
13224TIP3    H239614   0.206   6.053   6.734
13225TIP3   OH239615   4.988   6.941   0.634
13225TIP3    H139616   4.976   6.892   0.552
13225TIP3    H239617   5.073   6.984   0.624
13226TIP3   OH239618   8.140   4.541   5.169
13226TIP3    H139619   8.200   4.541   5.242
13226TIP3    H239620   8.123   4.634   5.151
13227TIP3   OH239621   4.343   2.085  -0.025
13227TIP3    H139622   4.408   2.078   0.045
13227TIP3    H239623   4.338   2.179  -0.041
13228TIP3   OH239624   2.163   6.588   3.282
13228TIP3    H139625   2.102   6.584   3.208
13228TIP3    H239626   2.132   6.521   3.343
13229TIP3   OH239627   7.404   4.885   4.555
13229TIP3    H139628   7.431   4.845   4.637
13229TIP3    H239629   7.484   4.886   4.502
13230TIP3   OH239630   0.890   3.548   6.182
13230TIP3    H139631   0.969   3.519   6.229
13230TIP3    H239632   0.904   3.519   6.092
13231TIP3   OH239633   7.399   1.297   4.676
13231TIP3    H139634   7.465   1.297   4.746
13231TIP3    H239635   7.406   1.385   4.638
13232TIP3   OH239636   6.522   5.637   1.047
13232TIP3    H139637   6.471   5.684   0.981
13232TIP3    H239638   6.456   5.588   1.097
13233TIP3   OH239639   2.577   2.968   3.402
13233TIP3    H139640   2.617   2.978   3.488
13233TIP3    H239641   2.610   3.041   3.351
13234TIP3   OH239642   4.551   4.090   5.587
13234TIP3    H139643   4.462   4.103   5.554
13234TIP3    H239644   4.557   3.996   5.603
13235TIP3   OH239645   3.292   7.807   4.999
13235TIP3    H139646   3.311   7.900   5.008
13235TIP3    H239647   3.252   7.799   4.913
13236TIP3   OH239648   8.059   6.538   5.390
13236TIP3    H139649   8.083   6.462   5.337
13236TIP3    H239650   8.132   6.550   5.451
13237TIP3   OH239651   2.339   3.742   1.624
13237TIP3    H139652   2.331   3.657   1.580
13237TIP3    H239653   2.288   3.732   1.704
13238TIP3   OH239654   0.390   2.661   3.286
13238TIP3    H139655   0.433   2.708   3.216
13238TIP3    H239656   0.311   2.712   3.305
13239TIP3   OH239657   6.952   0.138   4.503
13239TIP3    H139658   7.008   0.145   4.426
13239TIP3    H239659   6.936   0.228   4.530
13240TIP3   OH239660   4.286   2.383   5.284
13240TIP3    H139661   4.357   2.320   5.293
13240TIP3    H239662   4.323   2.454   5.232
13241TIP3   OH239663   8.112   2.017   4.356
13241TIP3    H139664   8.082   2.084   4.295
13241TIP3    H239665   8.105   1.935   4.307
13242TIP3   OH239666   1.508   2.187   1.518
13242TIP3    H139667   1.504   2.226   1.605
13242TIP3    H239668   1.495   2.261   1.458
13243TIP3   OH239669   4.113   5.385   0.191
13243TIP3    H139670   4.024   5.392   0.157
13243TIP3    H239671   4.133   5.473   0.225
13244TIP3   OH239672   5.541   5.299   0.163
13244TIP3    H139673   5.582   5.215   0.182
13244TIP3    H239674   5.467   5.277   0.105
13245TIP3   OH239675   0.897   5.014   3.418
13245TIP3    H139676   0.959   5.053   3.481
13245TIP3    H239677   0.899   4.920   3.438
13246TIP3   OH239678   5.537   3.442   6.079
13246TIP3    H139679   5.554   3.451   6.173
13246TIP3    H239680   5.611   3.485   6.037
13247TIP3   OH239681   0.446   0.229   0.553
13247TIP3    H139682   0.438   0.143   0.593
13247TIP3    H239683   0.357   0.254   0.531
13248TIP3   OH239684   5.478   2.242   1.067
13248TIP3    H139685   5.555   2.229   1.010
13248TIP3    H239686   5.411   2.277   1.008
13249TIP3   OH239687   7.346   1.743   0.844
13249TIP3    H139688   7.339   1.679   0.915
13249TIP3    H239689   7.279   1.716   0.781
13250TIP3   OH239690   1.223   0.815   2.256
13250TIP3    H139691   1.204   0.882   2.322
13250TIP3    H239692   1.319   0.810   2.255
13251TIP3   OH239693   0.569   1.489   0.262
13251TIP3    H139694   0.477   1.463   0.263
13251TIP3    H239695   0.581   1.532   0.177
13252TIP3   OH239696   0.142   1.846   0.918
13252TIP3    H139697   0.121   1.910   0.849
13252TIP3    H239698   0.118   1.890   0.999
13253TIP3   OH239699   7.323   6.316   3.698
13253TIP3    H139700   7.412   6.307   3.664
13253TIP3    H239701   7.287   6.228   3.695
13254TIP3   OH239702   3.174   6.022   2.097
13254TIP3    H139703   3.174   5.927   2.103
13254TIP3    H239704   3.259   6.049   2.133
13255TIP3   OH239705   2.088   2.654   4.362
13255TIP3    H139706   2.046   2.589   4.420
13255TIP3    H239707   2.067   2.624   4.274
13256TIP3   OH239708   5.102   7.440   5.327
13256TIP3    H139709   5.028   7.477   5.278
13256TIP3    H239710   5.068   7.360   5.366
13257TIP3   OH239711   5.769   7.798   4.345
13257TIP3    H139712   5.755   7.721   4.401
13257TIP3    H239713   5.695   7.796   4.284
13258TIP3   OH239714   4.051   6.513   5.557
13258TIP3    H139715   4.055   6.418   5.573
13258TIP3    H239716   4.071   6.552   5.642
13259TIP3   OH239717   1.422   5.511   1.851
13259TIP3    H139718   1.407   5.579   1.916
13259TIP3    H239719   1.351   5.521   1.788
13260TIP3   OH239720   2.790   7.295   2.832
13260TIP3    H139721   2.805   7.228   2.765
13260TIP3    H239722   2.827   7.257   2.912
13261TIP3   OH239723   4.674   1.456   1.629
13261TIP3    H139724   4.768   1.449   1.611
13261TIP3    H239725   4.661   1.401   1.706
13262TIP3   OH239726   4.904   5.850   4.229
13262TIP3    H139727   4.993   5.841   4.197
13262TIP3    H239728   4.853   5.876   4.151
13263TIP3   OH239729   4.719   4.769   2.409
13263TIP3    H139730   4.761   4.683   2.413
13263TIP3    H239731   4.646   4.757   2.348
13264TIP3   OH239732   0.113   7.172   0.356
13264TIP3    H139733   0.022   7.168   0.386
13264TIP3    H239734   0.160   7.215   0.427
13265TIP3   OH239735   3.312   6.971   0.804
13265TIP3    H139736   3.321   7.066   0.807
13265TIP3    H239737   3.398   6.938   0.831
13266TIP3   OH239738   4.144   6.434   5.963
13266TIP3    H139739   4.126   6.345   5.994
13266TIP3    H239740   4.238   6.446   5.977
13267TIP3   OH239741   3.940   3.733   5.610
13267TIP3    H139742   3.873   3.726   5.678
13267TIP3    H239743   3.891   3.751   5.530
13268TIP3   OH239744   1.261   5.285   0.164
13268TIP3    H139745   1.320   5.360   0.166
13268TIP3    H239746   1.242   5.267   0.256
13269TIP3   OH239747   5.787   0.301   4.430
13269TIP3    H139748   5.855   0.267   4.488
13269TIP3    H239749   5.717   0.329   4.490
13270TIP3   OH239750   6.060   1.243   3.091
13270TIP3    H139751   6.064   1.165   3.147
13270TIP3    H239752   6.097   1.213   3.008
13271TIP3   OH239753   7.574   5.990   3.779
13271TIP3    H139754   7.563   6.028   3.692
13271TIP3    H239755   7.489   6.005   3.822
13272TIP3   OH239756   3.197   2.009   6.861
13272TIP3    H139757   3.205   2.087   6.806
13272TIP3    H239758   3.258   1.946   6.823
13273TIP3   OH239759   4.602   4.598   1.339
13273TIP3    H139760   4.667   4.664   1.317
13273TIP3    H239761   4.549   4.589   1.260
13274TIP3   OH239762   4.664   4.434   4.574
13274TIP3    H139763   4.718   4.431   4.495
13274TIP3    H239764   4.688   4.515   4.617
13275TIP3   OH239765   7.780   0.688   5.415
13275TIP3    H139766   7.783   0.604   5.370
13275TIP3    H239767   7.827   0.673   5.497
13276TIP3   OH239768   4.397   5.433   4.325
13276TIP3    H139769   4.426   5.396   4.408
13276TIP3    H239770   4.409   5.362   4.261
13277TIP3   OH239771   0.329   7.441   0.300
13277TIP3    H139772   0.371   7.369   0.345
13277TIP3    H239773   0.295   7.497   0.370
13278TIP3   OH239774   3.860   7.135   2.720
13278TIP3    H139775   3.928   7.202   2.728
13278TIP3    H239776   3.796   7.157   2.788
13279TIP3   OH239777   2.996   1.368   5.571
13279TIP3    H139778   2.971   1.447   5.620
13279TIP3    H239779   3.022   1.305   5.639
13280TIP3   OH239780   2.946   5.347   2.399
13280TIP3    H139781   2.927   5.292   2.323
13280TIP3    H239782   2.960   5.284   2.471
13281TIP3   OH239783   3.067   5.499   3.881
13281TIP3    H139784   3.053   5.592   3.862
13281TIP3    H239785   3.162   5.489   3.888
13282TIP3   OH239786   7.678   4.142   3.216
13282TIP3    H139787   7.614   4.204   3.183
13282TIP3    H239788   7.762   4.172   3.181
13283TIP3   OH239789   2.452   4.666   1.053
13283TIP3    H139790   2.391   4.728   1.093
13283TIP3    H239791   2.519   4.651   1.120
13284TIP3   OH239792   6.677   6.361   4.350
13284TIP3    H139793   6.652   6.322   4.266
13284TIP3    H239794   6.635   6.447   4.350
13285TIP3   OH239795   0.516   2.833   2.252
13285TIP3    H139796   0.450   2.802   2.313
13285TIP3    H239797   0.533   2.923   2.279
13286TIP3   OH239798   4.413   3.838   6.000
13286TIP3    H139799   4.435   3.856   5.908
13286TIP3    H239800   4.337   3.893   6.018
13287TIP3   OH239801   1.492   3.248   2.814
13287TIP3    H139802   1.571   3.217   2.770
13287TIP3    H239803   1.436   3.280   2.743
13288TIP3   OH239804   7.460   3.445   3.635
13288TIP3    H139805   7.461   3.403   3.721
13288TIP3    H239806   7.535   3.408   3.589
13289TIP3   OH239807   4.080   4.353   3.434
13289TIP3    H139808   3.998   4.339   3.387
13289TIP3    H239809   4.145   4.364   3.364
13290TIP3   OH239810   1.169   0.921   1.642
13290TIP3    H139811   1.259   0.949   1.623
13290TIP3    H239812   1.149   0.960   1.727
13291TIP3   OH239813   3.442   0.764   2.091
13291TIP3    H139814   3.442   0.843   2.037
13291TIP3    H239815   3.361   0.769   2.141
13292TIP3   OH239816   4.171   5.018   3.201
13292TIP3    H139817   4.168   5.113   3.218
13292TIP3    H239818   4.082   4.997   3.172
13293TIP3   OH239819   3.915   3.882   6.478
13293TIP3    H139820   3.931   3.871   6.571
13293TIP3    H239821   3.920   3.794   6.441
13294TIP3   OH239822   5.440   2.325   6.548
13294TIP3    H139823   5.390   2.332   6.629
13294TIP3    H239824   5.499   2.400   6.549
13295TIP3   OH239825   4.794   2.641   0.537
13295TIP3    H139826   4.724   2.673   0.481
13295TIP3    H239827   4.752   2.576   0.593
13296TIP3   OH239828   3.387   4.341   6.332
13296TIP3    H139829   3.308   4.316   6.285
13296TIP3    H239830   3.443   4.263   6.330
13297TIP3   OH239831   2.338   4.400   1.020
13297TIP3    H139832   2.284   4.397   0.941
13297TIP3    H239833   2.367   4.490   1.026
13298TIP3   OH239834   5.786   3.832   3.756
13298TIP3    H139835   5.760   3.888   3.683
13298TIP3    H239836   5.774   3.743   3.722
13299TIP3   OH239837   6.403   3.642   5.682
13299TIP3    H139838   6.485   3.689   5.674
13299TIP3    H239839   6.364   3.674   5.763
13300TIP3   OH239840   0.109   4.981   0.774
13300TIP3    H139841   0.183   4.935   0.736
13300TIP3    H239842   0.077   5.038   0.704
13301TIP3   OH239843   1.970   3.466   0.851
13301TIP3    H139844   2.027   3.438   0.922
13301TIP3    H239845   1.886   3.423   0.869
13302TIP3   OH239846  -0.022   0.768   3.056
13302TIP3    H139847  -0.101   0.765   3.003
13302TIP3    H239848   0.027   0.843   3.022
13303TIP3   OH239849   6.814   1.182   3.393
13303TIP3    H139850   6.796   1.271   3.362
13303TIP3    H239851   6.782   1.125   3.324
13304TIP3   OH239852   1.613   0.956   5.131
13304TIP3    H139853   1.529   0.960   5.087
13304TIP3    H239854   1.592   0.925   5.219
13305TIP3   OH239855   5.755   3.606   5.970
13305TIP3    H139856   5.798   3.600   5.885
13305TIP3    H239857   5.724   3.696   5.975
13306TIP3   OH239858   3.045   0.803   4.810
13306TIP3    H139859   3.129   0.767   4.782
13306TIP3    H239860   3.069   0.883   4.857
13307TIP3   OH239861   1.659   0.888   0.955
13307TIP3    H139862   1.732   0.934   0.995
13307TIP3    H239863   1.581   0.925   0.995
13308TIP3   OH239864   8.305   0.165   5.788
13308TIP3    H139865   8.310   0.234   5.855
13308TIP3    H239866   8.296   0.213   5.705
13309TIP3   OH239867   6.989   3.447   3.277
13309TIP3    H139868   6.963   3.496   3.355
13309TIP3    H239869   7.080   3.472   3.262
13310TIP3   OH239870   8.031   2.533   5.009
13310TIP3    H139871   8.098   2.567   5.069
13310TIP3    H239872   7.962   2.501   5.067
13311TIP3   OH239873   3.331   6.082   1.838
13311TIP3    H139874   3.379   6.012   1.794
13311TIP3    H239875   3.320   6.051   1.928
13312TIP3   OH239876   0.877   4.321   4.109
13312TIP3    H139877   0.971   4.305   4.099
13312TIP3    H239878   0.842   4.237   4.140
13313TIP3   OH239879   5.917   0.389   2.340
13313TIP3    H139880   5.885   0.299   2.344
13313TIP3    H239881   6.012   0.381   2.338
13314TIP3   OH239882   2.249   6.703   4.145
13314TIP3    H139883   2.285   6.621   4.179
13314TIP3    H239884   2.168   6.676   4.101
13315TIP3   OH239885   5.348   5.622   4.424
13315TIP3    H139886   5.319   5.685   4.490
13315TIP3    H239887   5.429   5.660   4.390
13316TIP3   OH239888   2.288   0.067   5.528
13316TIP3    H139889   2.257   0.149   5.490
13316TIP3    H239890   2.278   0.003   5.458
13317TIP3   OH239891   7.892   1.304   6.653
13317TIP3    H139892   7.888   1.280   6.561
13317TIP3    H239893   7.818   1.258   6.694
13318TIP3   OH239894   7.685   5.733   6.800
13318TIP3    H139895   7.742   5.709   6.726
13318TIP3    H239896   7.702   5.666   6.866
13319TIP3   OH239897   3.948   1.424   6.473
13319TIP3    H139898   4.024   1.480   6.487
13319TIP3    H239899   3.979   1.336   6.497
13320TIP3   OH239900   3.336   4.553   3.623
13320TIP3    H139901   3.409   4.567   3.562
13320TIP3    H239902   3.357   4.609   3.698
13321TIP3   OH239903   8.184   6.924   4.545
13321TIP3    H139904   8.148   6.837   4.565
13321TIP3    H239905   8.276   6.918   4.571
13322TIP3   OH239906   1.709   3.079   1.088
13322TIP3    H139907   1.703   3.046   0.998
13322TIP3    H239908   1.651   3.156   1.089
13323TIP3   OH239909   7.761   1.780   1.790
13323TIP3    H139910   7.856   1.768   1.782
13323TIP3    H239911   7.740   1.749   1.878
13324TIP3   OH239912   4.778   1.760   2.840
13324TIP3    H139913   4.776   1.806   2.924
13324TIP3    H239914   4.708   1.801   2.789
13325TIP3   OH239915   3.494   2.900   0.580
13325TIP3    H139916   3.424   2.965   0.575
13325TIP3    H239917   3.524   2.889   0.490
13326TIP3   OH239918   2.958   6.859   4.461
13326TIP3    H139919   3.012   6.850   4.383
13326TIP3    H239920   2.869   6.837   4.432
13327TIP3   OH239921   0.194   2.595   0.091
13327TIP3    H139922   0.203   2.685   0.121
13327TIP3    H239923   0.268   2.581   0.033
13328TIP3   OH239924   3.952   4.101   0.157
13328TIP3    H139925   3.958   4.043   0.082
13328TIP3    H239926   4.038   4.142   0.163
13329TIP3   OH239927   0.779   7.127   6.167
13329TIP3    H139928   0.747   7.154   6.253
13329TIP3    H239929   0.703   7.135   6.110
13330TIP3   OH239930   2.361   5.725   4.276
13330TIP3    H139931   2.276   5.702   4.314
13330TIP3    H239932   2.401   5.640   4.255
13331TIP3   OH239933   7.492   4.777   3.026
13331TIP3    H139934   7.438   4.762   2.948
13331TIP3    H239935   7.540   4.858   3.006
13332TIP3   OH239936   5.279   0.284   6.704
13332TIP3    H139937   5.341   0.328   6.762
13332TIP3    H239938   5.231   0.355   6.662
13333TIP3   OH239939   4.887   0.578   3.689
13333TIP3    H139940   4.801   0.604   3.657
13333TIP3    H239941   4.873   0.491   3.727
13334TIP3   OH239942   4.650   6.147   0.496
13334TIP3    H139943   4.735   6.125   0.534
13334TIP3    H239944   4.671   6.184   0.410
13335TIP3   OH239945   0.000   5.409   1.675
13335TIP3    H139946  -0.025   5.481   1.617
13335TIP3    H239947  -0.032   5.330   1.632
13336TIP3   OH239948   3.519   2.490   0.126
13336TIP3    H139949   3.570   2.567   0.102
13336TIP3    H239950   3.429   2.522   0.133
13337TIP3   OH239951   4.998   1.943   0.675
13337TIP3    H139952   4.994   1.897   0.591
13337TIP3    H239953   5.030   1.877   0.737
13338TIP3   OH239954   0.318   4.825   0.718
13338TIP3    H139955   0.379   4.885   0.761
13338TIP3    H239956   0.324   4.744   0.769
13339TIP3   OH239957   6.439   3.613   5.067
13339TIP3    H139958   6.481   3.540   5.021
13339TIP3    H239959   6.448   3.591   5.160
13340TIP3   OH239960   1.550   5.083   1.763
13340TIP3    H139961   1.541   5.129   1.847
13340TIP3    H239962   1.626   5.027   1.774
13341TIP3   OH239963   7.518   0.411   4.394
13341TIP3    H139964   7.502   0.345   4.461
13341TIP3    H239965   7.614   0.411   4.383
13342TIP3   OH239966   6.459   3.153   4.281
13342TIP3    H139967   6.506   3.192   4.207
13342TIP3    H239968   6.490   3.062   4.283
13343TIP3   OH239969   5.122   6.799   1.314
13343TIP3    H139970   5.117   6.761   1.402
13343TIP3    H239971   5.095   6.890   1.325
13344TIP3   OH239972   3.567   2.951   4.171
13344TIP3    H139973   3.599   2.861   4.166
13344TIP3    H239974   3.585   2.978   4.261
13345TIP3   OH239975   0.460   4.725   5.798
13345TIP3    H139976   0.464   4.673   5.718
13345TIP3    H239977   0.443   4.661   5.867
13346TIP3   OH239978   6.259   4.417   2.713
13346TIP3    H139979   6.299   4.384   2.633
13346TIP3    H239980   6.300   4.366   2.783
13347TIP3   OH239981   1.735   0.634   4.351
13347TIP3    H139982   1.744   0.551   4.398
13347TIP3    H239983   1.678   0.686   4.408
13348TIP3   OH239984   0.296   7.231   3.292
13348TIP3    H139985   0.365   7.218   3.357
13348TIP3    H239986   0.214   7.227   3.342
13349TIP3   OH239987   7.987   7.099   1.739
13349TIP3    H139988   8.021   7.130   1.823
13349TIP3    H239989   8.013   7.007   1.735
13350TIP3   OH239990   6.703   2.845   0.339
13350TIP3    H139991   6.736   2.826   0.251
13350TIP3    H239992   6.729   2.769   0.391
13351TIP3   OH239993   7.967   0.924   0.505
13351TIP3    H139994   8.007   1.011   0.502
13351TIP3    H239995   7.906   0.929   0.579
13352TIP3   OH239996   8.063   0.510   6.353
13352TIP3    H139997   8.014   0.538   6.276
13352TIP3    H239998   8.030   0.566   6.424
13353TIP3   OH239999   7.401   0.888   1.410
13353TIP3    H140000   7.367   0.811   1.454
13353TIP3    H240001   7.356   0.890   1.325
13354TIP3   OH240002   2.807   5.719   4.797
13354TIP3    H140003   2.729   5.664   4.803
13354TIP3    H240004   2.773   5.807   4.781
13355TIP3   OH240005   3.462   5.231   0.354
13355TIP3    H140006   3.471   5.214   0.261
13355TIP3    H240007   3.428   5.148   0.389
13356TIP3   OH240008   6.701   4.923   0.382
13356TIP3    H140009   6.719   4.865   0.308
13356TIP3    H240010   6.692   5.009   0.342
13357TIP3   OH240011   0.127   0.214   6.155
13357TIP3    H140012   0.183   0.207   6.078
13357TIP3    H240013   0.045   0.171   6.130
13358TIP3   OH240014   3.677   5.631   6.060
13358TIP3    H140015   3.715   5.620   5.973
13358TIP3    H240016   3.613   5.702   6.049
13359TIP3   OH240017   2.881   3.475   0.907
13359TIP3    H140018   2.793   3.501   0.882
13359TIP3    H240019   2.869   3.414   0.980
13360TIP3   OH240020   0.661   6.121   3.932
13360TIP3    H140021   0.734   6.134   3.873
13360TIP3    H240022   0.701   6.115   4.019
13361TIP3   OH240023   8.057   7.317   0.070
13361TIP3    H140024   7.974   7.353   0.040
13361TIP3    H240025   8.036   7.271   0.151
13362TIP3   OH240026   6.723   3.498   6.353
13362TIP3    H140027   6.684   3.580   6.383
13362TIP3    H240028   6.661   3.464   6.289
13363TIP3   OH240029   1.970   2.087   4.892
13363TIP3    H140030   2.039   2.136   4.848
13363TIP3    H240031   2.015   2.038   4.961
13364TIP3   OH240032   6.796   1.075   1.650
13364TIP3    H140033   6.792   1.133   1.726
13364TIP3    H240034   6.713   1.091   1.604
13365TIP3   OH240035   0.860   4.306   2.539
13365TIP3    H140036   0.832   4.322   2.449
13365TIP3    H240037   0.868   4.211   2.545
13366TIP3   OH240038   5.246   7.609   0.961
13366TIP3    H140039   5.182   7.591   0.892
13366TIP3    H240040   5.331   7.594   0.920
13367TIP3   OH240041   1.221   3.974   4.634
13367TIP3    H140042   1.177   3.889   4.626
13367TIP3    H240043   1.169   4.021   4.699
13368TIP3   OH240044   0.631   3.489   5.276
13368TIP3    H140045   0.604   3.416   5.332
13368TIP3    H240046   0.594   3.467   5.190
13369TIP3   OH240047   7.184   6.252   0.793
13369TIP3    H140048   7.185   6.157   0.800
13369TIP3    H240049   7.093   6.277   0.805
13370TIP3   OH240050   6.367   1.563   4.606
13370TIP3    H140051   6.347   1.640   4.659
13370TIP3    H240052   6.418   1.597   4.532
13371TIP3   OH240053   8.202   0.816   6.836
13371TIP3    H140054   8.186   0.735   6.884
13371TIP3    H240055   8.275   0.796   6.778
13372TIP3   OH240056   2.146   2.217   0.291
13372TIP3    H140057   2.055   2.241   0.302
13372TIP3    H240058   2.194   2.300   0.289
13373TIP3   OH240059   6.207   5.060   2.992
13373TIP3    H140060   6.247   5.029   3.074
13373TIP3    H240061   6.121   5.091   3.017
13374TIP3   OH240062   2.629   1.537   6.682
13374TIP3    H140063   2.724   1.525   6.690
13374TIP3    H240064   2.609   1.518   6.591
13375TIP3   OH240065   4.226   2.006   4.016
13375TIP3    H140066   4.165   1.992   3.943
13375TIP3    H240067   4.197   2.088   4.055
13376TIP3   OH240068   4.239   4.084   0.095
13376TIP3    H140069   4.305   4.112   0.159
13376TIP3    H240070   4.245   3.988   0.095
13377TIP3   OH240071   1.457   3.178   4.789
13377TIP3    H140072   1.384   3.227   4.826
13377TIP3    H240073   1.501   3.241   4.731
13378TIP3   OH240074   7.585   7.290   1.636
13378TIP3    H140075   7.602   7.221   1.700
13378TIP3    H240076   7.501   7.328   1.663
13379TIP3   OH240077   1.256   0.860   2.578
13379TIP3    H140078   1.220   0.775   2.553
13379TIP3    H240079   1.251   0.861   2.674
13380TIP3   OH240080   8.000   0.118   5.490
13380TIP3    H140081   8.044   0.106   5.574
13380TIP3    H240082   8.071   0.118   5.425
13381TIP3   OH240083   1.200   4.142   2.097
13381TIP3    H140084   1.262   4.074   2.070
13381TIP3    H240085   1.118   4.096   2.110
13382TIP3   OH240086   6.789   2.201   3.350
13382TIP3    H140087   6.814   2.274   3.407
13382TIP3    H240088   6.693   2.196   3.358
13383TIP3   OH240089   7.746   6.925   0.572
13383TIP3    H140090   7.793   6.908   0.654
13383TIP3    H240091   7.656   6.900   0.591
13384TIP3   OH240092   7.491   2.984   0.472
13384TIP3    H140093   7.404   3.022   0.458
13384TIP3    H240094   7.531   3.037   0.540
13385TIP3   OH240095   7.849   2.153   0.728
13385TIP3    H140096   7.829   2.164   0.635
13385TIP3    H240097   7.943   2.141   0.732
13386TIP3   OH240098   6.321   3.358   1.427
13386TIP3    H140099   6.410   3.390   1.443
13386TIP3    H240100   6.267   3.405   1.491
13387TIP3   OH240101   6.302   2.434   1.219
13387TIP3    H140102   6.293   2.529   1.234
13387TIP3    H240103   6.251   2.418   1.140
13388TIP3   OH240104   7.723   4.347   2.462
13388TIP3    H140105   7.744   4.257   2.440
13388TIP3    H240106   7.642   4.342   2.513
13389TIP3   OH240107   5.323   0.322   0.709
13389TIP3    H140108   5.356   0.241   0.668
13389TIP3    H240109   5.396   0.384   0.702
13390TIP3   OH240110   1.246   2.783   6.044
13390TIP3    H140111   1.178   2.755   5.983
13390TIP3    H240112   1.213   2.866   6.080
13391TIP3   OH240113   4.191   2.045   5.727
13391TIP3    H140114   4.232   2.127   5.754
13391TIP3    H240115   4.250   1.977   5.759
13392TIP3   OH240116   3.411   3.827   6.253
13392TIP3    H140117   3.383   3.740   6.224
13392TIP3    H240118   3.344   3.855   6.316
13393TIP3   OH240119   0.517   6.269   5.065
13393TIP3    H140120   0.438   6.275   5.011
13393TIP3    H240121   0.534   6.358   5.093
13394TIP3   OH240122   6.939   0.639   0.628
13394TIP3    H140123   6.902   0.556   0.598
13394TIP3    H240124   6.883   0.665   0.702
13395TIP3   OH240125   1.603   4.842   5.264
13395TIP3    H140126   1.523   4.791   5.252
13395TIP3    H240127   1.575   4.919   5.313
13396TIP3   OH240128   0.189   6.824   3.754
13396TIP3    H140129   0.265   6.773   3.727
13396TIP3    H240130   0.204   6.844   3.846
13397TIP3   OH240131   0.387   4.063   2.997
13397TIP3    H140132   0.373   4.137   2.938
13397TIP3    H240133   0.323   4.075   3.067
13398TIP3   OH240134   0.620   4.304   1.206
13398TIP3    H140135   0.578   4.377   1.160
13398TIP3    H240136   0.712   4.329   1.210
13399TIP3   OH240137   6.560   3.833   1.925
13399TIP3    H140138   6.535   3.925   1.917
13399TIP3    H240139   6.484   3.791   1.966
13400TIP3   OH240140   1.654   0.641   3.818
13400TIP3    H140141   1.664   0.558   3.865
13400TIP3    H240142   1.560   0.648   3.802
13401TIP3   OH240143   2.217   6.876   4.375
13401TIP3    H140144   2.225   6.816   4.302
13401TIP3    H240145   2.208   6.819   4.452
13402TIP3   OH240146   1.135   0.020   5.982
13402TIP3    H140147   1.131   0.115   5.998
13402TIP3    H240148   1.135   0.012   5.887
13403TIP3   OH240149   3.894   5.455   6.073
13403TIP3    H140150   3.923   5.487   6.158
13403TIP3    H240151   3.809   5.496   6.059
13404TIP3   OH240152   3.220   4.003   2.356
13404TIP3    H140153   3.223   3.974   2.265
13404TIP3    H240154   3.259   4.091   2.355
13405TIP3   OH240155   6.127   2.293   2.665
13405TIP3    H140156   6.078   2.250   2.595
13405TIP3    H240157   6.088   2.259   2.745
13406TIP3   OH240158   3.258   3.594   6.219
13406TIP3    H140159   3.189   3.616   6.157
13406TIP3    H240160   3.219   3.530   6.278
13407TIP3   OH240161   3.619   4.607   0.166
13407TIP3    H140162   3.550   4.542   0.153
13407TIP3    H240163   3.670   4.574   0.240
13408TIP3   OH240164   8.361   7.296   4.788
13408TIP3    H140165   8.285   7.281   4.731
13408TIP3    H240166   8.369   7.391   4.792
13409TIP3   OH240167   2.765   6.827   0.166
13409TIP3    H140168   2.761   6.823   0.262
13409TIP3    H240169   2.681   6.865   0.140
13410TIP3   OH240170   1.115   5.743   4.025
13410TIP3    H140171   1.085   5.657   3.996
13410TIP3    H240172   1.211   5.735   4.028
13411TIP3   OH240173   1.487   0.894   5.918
13411TIP3    H140174   1.424   0.894   5.990
13411TIP3    H240175   1.437   0.863   5.842
13412TIP3   OH240176   8.238   1.497   0.822
13412TIP3    H140177   8.238   1.403   0.842
13412TIP3    H240178   8.165   1.532   0.872
13413TIP3   OH240179   5.627   7.365   0.041
13413TIP3    H140180   5.546   7.394  -0.001
13413TIP3    H240181   5.600   7.343   0.130
13414TIP3   OH240182   1.037   7.396   2.654
13414TIP3    H140183   1.049   7.313   2.608
13414TIP3    H240184   1.003   7.372   2.740
13415TIP3   OH240185   7.710   1.077   4.523
13415TIP3    H140186   7.651   1.031   4.583
13415TIP3    H240187   7.793   1.030   4.530
13416TIP3   OH240188   4.324   1.027   1.217
13416TIP3    H140189   4.236   1.005   1.248
13416TIP3    H240190   4.317   1.022   1.121
13417TIP3   OH240191   6.362   3.010   2.529
13417TIP3    H140192   6.356   2.928   2.481
13417TIP3    H240193   6.297   3.001   2.600
13418TIP3   OH240194   5.787   5.884   3.739
13418TIP3    H140195   5.783   5.876   3.834
13418TIP3    H240196   5.701   5.917   3.714
13419TIP3   OH240197   3.069   7.367   1.490
13419TIP3    H140198   3.137   7.365   1.422
13419TIP3    H240199   3.114   7.338   1.570
13420TIP3   OH240200   4.788   2.596   0.202
13420TIP3    H140201   4.760   2.571   0.114
13420TIP3    H240202   4.706   2.617   0.247
13421TIP3   OH240203   5.508   1.852   3.421
13421TIP3    H140204   5.478   1.803   3.344
13421TIP3    H240205   5.523   1.941   3.388
13422TIP3   OH240206   5.454   0.802   5.239
13422TIP3    H140207   5.475   0.732   5.177
13422TIP3    H240208   5.533   0.854   5.245
13423TIP3   OH240209   4.906   3.228   6.660
13423TIP3    H140210   4.905   3.208   6.566
13423TIP3    H240211   4.814   3.232   6.684
13424TIP3   OH240212   3.831   4.628   4.844
13424TIP3    H140213   3.842   4.577   4.764
13424TIP3    H240214   3.741   4.611   4.871
13425TIP3   OH240215   4.388   2.699   3.798
13425TIP3    H140216   4.386   2.603   3.800
13425TIP3    H240217   4.433   2.724   3.878
13426TIP3   OH240218   7.908   4.733   5.481
13426TIP3    H140219   7.889   4.820   5.516
13426TIP3    H240220   7.838   4.678   5.515
13427TIP3   OH240221   5.069   1.244   4.967
13427TIP3    H140222   5.029   1.157   4.965
13427TIP3    H240223   5.085   1.265   4.874
13428TIP3   OH240224   7.698   5.996   1.785
13428TIP3    H140225   7.636   5.997   1.712
13428TIP3    H240226   7.709   6.088   1.809
13429TIP3   OH240227   1.034   6.904   6.684
13429TIP3    H140228   1.082   6.909   6.767
13429TIP3    H240229   1.032   6.994   6.651
13430TIP3   OH240230   1.865   0.634   6.613
13430TIP3    H140231   1.831   0.577   6.683
13430TIP3    H240232   1.792   0.694   6.594
13431TIP3   OH240233   5.450   2.410   1.859
13431TIP3    H140234   5.385   2.467   1.899
13431TIP3    H240235   5.422   2.400   1.768
13432TIP3   OH240236   5.569   0.199   2.662
13432TIP3    H140237   5.571   0.111   2.625
13432TIP3    H240238   5.479   0.211   2.692
13433TIP3   OH240239   7.323   4.418   2.553
13433TIP3    H140240   7.413   4.409   2.585
13433TIP3    H240241   7.274   4.351   2.602
13434TIP3   OH240242   8.312   3.011   0.522
13434TIP3    H140243   8.403   3.028   0.495
13434TIP3    H240244   8.301   2.916   0.509
13435TIP3   OH240245   3.842   1.477   0.366
13435TIP3    H140246   3.854   1.415   0.438
13435TIP3    H240247   3.838   1.562   0.408
13436TIP3   OH240248   4.962   2.898   2.619
13436TIP3    H140249   5.025   2.905   2.691
13436TIP3    H240250   4.976   2.809   2.584
13437TIP3   OH240251   4.670   3.903   3.022
13437TIP3    H140252   4.699   3.991   3.046
13437TIP3    H240253   4.578   3.900   3.047
13438TIP3   OH240254   1.227   4.382   2.222
13438TIP3    H140255   1.254   4.302   2.177
13438TIP3    H240256   1.288   4.391   2.295
13439TIP3   OH240257   6.331   5.388   0.719
13439TIP3    H140258   6.288   5.474   0.725
13439TIP3    H240259   6.421   5.408   0.691
13440TIP3   OH240260   0.977   2.991   3.313
13440TIP3    H140261   0.905   2.951   3.263
13440TIP3    H240262   0.968   2.954   3.401
13441TIP3   OH240263   8.073   7.943   2.944
13441TIP3    H140264   7.989   7.915   2.908
13441TIP3    H240265   8.138   7.893   2.895
13442TIP3   OH240266   2.567   5.597   4.885
13442TIP3    H140267   2.593   5.506   4.896
13442TIP3    H240268   2.488   5.606   4.937
13443TIP3   OH240269   6.324   7.536   2.310
13443TIP3    H140270   6.263   7.537   2.383
13443TIP3    H240271   6.299   7.611   2.256
13444TIP3   OH240272   0.294   5.305   3.092
13444TIP3    H140273   0.296   5.214   3.064
13444TIP3    H240274   0.205   5.319   3.124
13445TIP3   OH240275   1.474   0.556   1.759
13445TIP3    H140276   1.379   0.565   1.762
13445TIP3    H240277   1.494   0.537   1.667
13446TIP3   OH240278   0.811   0.249   5.930
13446TIP3    H140279   0.899   0.236   5.897
13446TIP3    H240280   0.774   0.161   5.935
13447TIP3   OH240281   3.390   5.145   5.002
13447TIP3    H140282   3.332   5.089   4.950
13447TIP3    H240283   3.475   5.136   4.960
13448TIP3   OH240284   4.272   0.957   5.896
13448TIP3    H140285   4.215   1.025   5.932
13448TIP3    H240286   4.214   0.882   5.882
13449TIP3   OH240287   1.879   4.875   1.422
13449TIP3    H140288   1.880   4.816   1.347
13449TIP3    H240289   1.937   4.947   1.397
13450TIP3   OH240290   2.357   4.761   5.160
13450TIP3    H140291   2.361   4.839   5.215
13450TIP3    H240292   2.449   4.734   5.151
13451TIP3   OH240293   4.336   0.614   5.166
13451TIP3    H140294   4.254   0.656   5.192
13451TIP3    H240295   4.400   0.643   5.230
13452TIP3   OH240296   3.915   3.268   5.259
13452TIP3    H140297   3.826   3.271   5.292
13452TIP3    H240298   3.912   3.314   5.175
13453TIP3   OH240299   2.503   1.518   0.258
13453TIP3    H140300   2.598   1.524   0.247
13453TIP3    H240301   2.476   1.450   0.195
13454TIP3   OH240302   7.860   6.282   1.460
13454TIP3    H140303   7.954   6.302   1.460
13454TIP3    H240304   7.856   6.187   1.474
13455TIP3   OH240305   3.727   1.381   2.474
13455TIP3    H140306   3.658   1.315   2.483
13455TIP3    H240307   3.680   1.464   2.483
13456TIP3   OH240308   3.618   7.033   5.963
13456TIP3    H140309   3.533   7.030   5.920
13456TIP3    H240310   3.641   6.941   5.978
13457TIP3   OH240311   5.449   0.513   2.685
13457TIP3    H140312   5.454   0.594   2.735
13457TIP3    H240313   5.427   0.540   2.596
13458TIP3   OH240314   8.285   5.194   1.565
13458TIP3    H140315   8.211   5.146   1.604
13458TIP3    H240316   8.320   5.134   1.500
13459TIP3   OH240317   5.074   0.389   4.753
13459TIP3    H140318   5.138   0.359   4.818
13459TIP3    H240319   5.124   0.448   4.697
13460TIP3   OH240320   1.019   0.199   0.708
13460TIP3    H140321   0.970   0.254   0.769
13460TIP3    H240322   1.107   0.237   0.707
13461TIP3   OH240323   0.413   3.037   5.449
13461TIP3    H140324   0.468   3.061   5.524
13461TIP3    H240325   0.324   3.044   5.482
13462TIP3   OH240326   4.969   2.505   0.819
13462TIP3    H140327   4.910   2.469   0.753
13462TIP3    H240328   4.919   2.502   0.900
13463TIP3   OH240329   3.129   6.240   6.791
13463TIP3    H140330   3.197   6.176   6.771
13463TIP3    H240331   3.070   6.194   6.851
13464TIP3   OH240332   2.638   1.524   4.271
13464TIP3    H140333   2.610   1.446   4.223
13464TIP3    H240334   2.637   1.497   4.363
13465TIP3   OH240335   1.609   4.895   1.423
13465TIP3    H140336   1.704   4.890   1.431
13465TIP3    H240337   1.589   4.849   1.342
13466TIP3   OH240338   4.567   6.771   2.523
13466TIP3    H140339   4.650   6.729   2.544
13466TIP3    H240340   4.576   6.860   2.557
13467TIP3   OH240341   2.948   2.244   4.818
13467TIP3    H140342   2.948   2.338   4.832
13467TIP3    H240343   2.940   2.234   4.723
13468TIP3   OH240344   2.397   2.884   3.690
13468TIP3    H140345   2.362   2.811   3.740
13468TIP3    H240346   2.397   2.853   3.599
13469TIP3   OH240347   3.903   1.686  -0.090
13469TIP3    H140348   3.854   1.729  -0.160
13469TIP3    H240349   3.848   1.697  -0.012
13470TIP3   OH240350   7.779   6.062   4.456
13470TIP3    H140351   7.808   6.082   4.367
13470TIP3    H240352   7.765   5.967   4.456
13471TIP3   OH240353   0.400   0.469   1.276
13471TIP3    H140354   0.374   0.411   1.205
13471TIP3    H240355   0.489   0.444   1.297
13472TIP3   OH240356   6.925   6.900   1.948
13472TIP3    H140357   6.974   6.939   1.875
13472TIP3    H240358   6.983   6.908   2.023
13473TIP3   OH240359   3.919   1.918   4.205
13473TIP3    H140360   3.861   1.870   4.264
13473TIP3    H240361   4.006   1.883   4.224
13474TIP3   OH240362   4.093   1.239   2.817
13474TIP3    H140363   4.016   1.243   2.761
13474TIP3    H240364   4.080   1.161   2.871
13475TIP3   OH240365   2.470   2.189   1.599
13475TIP3    H140366   2.384   2.212   1.634
13475TIP3    H240367   2.454   2.170   1.507
13476TIP3   OH240368   6.934   3.921   2.059
13476TIP3    H140369   6.992   3.847   2.042
13476TIP3    H240370   6.874   3.889   2.127
13477TIP3   OH240371   1.054   7.781   6.021
13477TIP3    H140372   1.089   7.800   6.108
13477TIP3    H240373   1.002   7.702   6.032
13478TIP3   OH240374   6.596   3.966   0.599
13478TIP3    H140375   6.622   4.037   0.658
13478TIP3    H240376   6.611   4.002   0.511
13479TIP3   OH240377   0.249   5.786   2.185
13479TIP3    H140378   0.193   5.804   2.261
13479TIP3    H240379   0.215   5.704   2.149
13480TIP3   OH240380   8.406   0.679   0.900
13480TIP3    H140381   8.487   0.634   0.923
13480TIP3    H240382   8.378   0.638   0.818
13481TIP3   OH240383   4.074   3.089   3.174
13481TIP3    H140384   4.161   3.097   3.213
13481TIP3    H240385   4.040   3.179   3.173
13482TIP3   OH240386   2.181   3.611   5.061
13482TIP3    H140387   2.145   3.689   5.104
13482TIP3    H240388   2.176   3.542   5.127
13483TIP3   OH240389   6.403   2.888   1.307
13483TIP3    H140390   6.421   2.916   1.217
13483TIP3    H240391   6.379   2.968   1.353
13484TIP3   OH240392   0.457   1.087   3.890
13484TIP3    H140393   0.463   1.149   3.963
13484TIP3    H240394   0.466   1.001   3.931
13485TIP3   OH240395   0.845   3.648   2.959
13485TIP3    H140396   0.909   3.685   2.898
13485TIP3    H240397   0.852   3.553   2.948
13486TIP3   OH240398   7.033   6.730   5.524
13486TIP3    H140399   7.032   6.823   5.503
13486TIP3    H240400   7.031   6.726   5.619
13487TIP3   OH240401   2.324   2.299   1.855
13487TIP3    H140402   2.241   2.345   1.873
13487TIP3    H240403   2.392   2.361   1.881
13488TIP3   OH240404   6.244   3.077   0.329
13488TIP3    H140405   6.270   3.086   0.238
13488TIP3    H240406   6.316   3.115   0.379
13489TIP3   OH240407   6.827   0.990   4.048
13489TIP3    H140408   6.866   1.078   4.056
13489TIP3    H240409   6.881   0.935   4.104
13490TIP3   OH240410   1.096   0.291   5.996
13490TIP3    H140411   1.167   0.349   5.971
13490TIP3    H240412   1.019   0.348   6.001
13491TIP3   OH240413   3.519   1.495   3.540
13491TIP3    H140414   3.577   1.571   3.531
13491TIP3    H240415   3.571   1.431   3.588
13492TIP3   OH240416   3.712   0.335   6.400
13492TIP3    H140417   3.763   0.278   6.343
13492TIP3    H240418   3.656   0.275   6.450
13493TIP3   OH240419   7.354   4.685   0.774
13493TIP3    H140420   7.314   4.620   0.717
13493TIP3    H240421   7.331   4.770   0.735
13494TIP3   OH240422   7.914   4.940   2.029
13494TIP3    H140423   7.911   4.952   2.123
13494TIP3    H240424   7.829   4.902   2.006
13495TIP3   OH240425   5.873   4.166   2.912
13495TIP3    H140426   5.928   4.175   2.834
13495TIP3    H240427   5.852   4.256   2.936
13496TIP3   OH240428   2.000   7.778   6.789
13496TIP3    H140429   2.073   7.755   6.733
13496TIP3    H240430   2.035   7.773   6.878
13497TIP3   OH240431   7.310   6.377   5.936
13497TIP3    H140432   7.329   6.407   6.025
13497TIP3    H240433   7.394   6.344   5.903
13498TIP3   OH240434   6.780   1.517   0.854
13498TIP3    H140435   6.845   1.587   0.862
13498TIP3    H240436   6.700   1.562   0.828
13499TIP3   OH240437   5.100   1.150   3.271
13499TIP3    H140438   5.023   1.096   3.290
13499TIP3    H240439   5.064   1.234   3.243
13500TIP3   OH240440   2.334   2.972   3.975
13500TIP3    H140441   2.414   3.011   4.012
13500TIP3    H240442   2.354   2.959   3.883
13501TIP3   OH240443   6.832   1.801   4.641
13501TIP3    H140444   6.740   1.824   4.630
13501TIP3    H240445   6.879   1.868   4.591
13502TIP3   OH240446   5.391   3.651   5.554
13502TIP3    H140447   5.486   3.651   5.567
13502TIP3    H240448   5.379   3.631   5.462
13503TIP3   OH240449   2.296   4.643   0.434
13503TIP3    H140450   2.377   4.687   0.459
13503TIP3    H240451   2.294   4.648   0.339
13504TIP3   OH240452   6.456   5.805   1.429
13504TIP3    H140453   6.481   5.803   1.522
13504TIP3    H240454   6.521   5.861   1.388
13505TIP3   OH240455   7.564   4.331   2.683
13505TIP3    H140456   7.589   4.423   2.693
13505TIP3    H240457   7.498   4.317   2.751
13506TIP3   OH240458   7.012   1.351   3.755
13506TIP3    H140459   7.091   1.309   3.787
13506TIP3    H240460   7.043   1.419   3.695
13507TIP3   OH240461   6.082   4.414   1.083
13507TIP3    H140462   6.016   4.476   1.052
13507TIP3    H240463   6.047   4.380   1.165
13508TIP3   OH240464   7.334   5.931   4.366
13508TIP3    H140465   7.356   5.935   4.459
13508TIP3    H240466   7.238   5.929   4.365
13509TIP3   OH240467   6.293   3.986   3.361
13509TIP3    H140468   6.377   4.017   3.394
13509TIP3    H240469   6.265   3.921   3.425
13510TIP3   OH240470   1.945   5.720   5.470
13510TIP3    H140471   1.911   5.632   5.482
13510TIP3    H240472   2.019   5.726   5.530
13511TIP3   OH240473   2.121   3.293   0.610
13511TIP3    H140474   2.088   3.207   0.584
13511TIP3    H240475   2.050   3.332   0.661
13512TIP3   OH240476   6.837   5.321   5.751
13512TIP3    H140477   6.853   5.247   5.810
13512TIP3    H240478   6.882   5.395   5.792
13513TIP3   OH240479   6.045   6.069   5.870
13513TIP3    H140480   5.974   6.121   5.831
13513TIP3    H240481   6.058   5.997   5.809
13514TIP3   OH240482   2.154   2.735   2.409
13514TIP3    H140483   2.213   2.791   2.458
13514TIP3    H240484   2.211   2.670   2.368
13515TIP3   OH240485   7.014   2.166   6.784
13515TIP3    H140486   7.101   2.171   6.821
13515TIP3    H240487   7.013   2.083   6.736
13516TIP3   OH240488   1.203   5.521   4.816
13516TIP3    H140489   1.254   5.589   4.860
13516TIP3    H240490   1.153   5.480   4.887
13517TIP3   OH240491   1.003   5.253   6.501
13517TIP3    H140492   0.999   5.187   6.571
13517TIP3    H240493   0.912   5.279   6.487
13518TIP3   OH240494   5.141   5.363   6.663
13518TIP3    H140495   5.146   5.269   6.647
13518TIP3    H240496   5.214   5.400   6.612
13519TIP3   OH240497   8.261   3.123   2.524
13519TIP3    H140498   8.333   3.086   2.575
13519TIP3    H240499   8.191   3.139   2.587
13520TIP3   OH240500   6.164   3.440   5.110
13520TIP3    H140501   6.168   3.445   5.205
13520TIP3    H240502   6.240   3.490   5.079
13521TIP3   OH240503   5.671   3.906   0.494
13521TIP3    H140504   5.581   3.879   0.477
13521TIP3    H240505   5.722   3.866   0.423
13522TIP3   OH240506   6.891   5.010   2.270
13522TIP3    H140507   6.917   5.097   2.299
13522TIP3    H240508   6.947   4.950   2.320
13523TIP3   OH240509   7.087   1.312   5.268
13523TIP3    H140510   7.104   1.363   5.189
13523TIP3    H240511   7.115   1.369   5.340
13524TIP3   OH240512   1.754   0.281   6.711
13524TIP3    H140513   1.838   0.326   6.713
13524TIP3    H240514   1.701   0.331   6.649
13525TIP3   OH240515   3.555   3.968   5.409
13525TIP3    H140516   3.481   3.914   5.381
13525TIP3    H240517   3.561   4.037   5.343
13526TIP3   OH240518   5.297   7.398   2.135
13526TIP3    H140519   5.213   7.438   2.110
13526TIP3    H240520   5.275   7.340   2.208
13527TIP3   OH240521   5.233   4.988   0.021
13527TIP3    H140522   5.271   5.075   0.017
13527TIP3    H240523   5.279   4.945   0.093
13528TIP3   OH240524   3.953   3.845   6.742
13528TIP3    H140525   3.881   3.794   6.779
13528TIP3    H240526   4.008   3.868   6.817
13529TIP3   OH240527   7.750   7.455   5.253
13529TIP3    H140528   7.799   7.373   5.249
13529TIP3    H240529   7.802   7.517   5.202
13530TIP3   OH240530   6.001   6.992   3.876
13530TIP3    H140531   6.095   6.985   3.857
13530TIP3    H240532   5.963   7.031   3.797
13531TIP3   OH240533   4.522   0.604   6.108
13531TIP3    H140534   4.432   0.627   6.086
13531TIP3    H240535   4.532   0.631   6.200
13532TIP3   OH240536   0.131   4.490   4.336
13532TIP3    H140537   0.050   4.467   4.381
13532TIP3    H240538   0.181   4.539   4.402
13533TIP3   OH240539   6.927   2.191   4.255
13533TIP3    H140540   6.847   2.175   4.205
13533TIP3    H240541   6.958   2.276   4.225
13534TIP3   OH240542   0.700   5.133   0.238
13534TIP3    H140543   0.746   5.059   0.197
13534TIP3    H240544   0.770   5.190   0.269
13535TIP3   OH240545   1.748   3.326   6.232
13535TIP3    H140546   1.657   3.354   6.243
13535TIP3    H240547   1.799   3.391   6.281
13536TIP3   OH240548   7.264   2.308   3.228
13536TIP3    H140549   7.340   2.249   3.228
13536TIP3    H240550   7.293   2.385   3.179
13537TIP3   OH240551   8.130   0.498   4.175
13537TIP3    H140552   8.215   0.489   4.132
13537TIP3    H240553   8.071   0.525   4.104
13538TIP3   OH240554   0.379   4.027   5.335
13538TIP3    H140555   0.332   4.001   5.256
13538TIP3    H240556   0.362   3.958   5.398
13539TIP3   OH240557   3.863   4.407   3.263
13539TIP3    H140558   3.859   4.498   3.293
13539TIP3    H240559   3.772   4.381   3.252
13540TIP3   OH240560   7.266   3.222   4.526
13540TIP3    H140561   7.263   3.204   4.432
13540TIP3    H240562   7.359   3.240   4.543
13541TIP3   OH240563   7.037   7.565   1.658
13541TIP3    H140564   7.114   7.619   1.678
13541TIP3    H240565   7.073   7.488   1.613
13542TIP3   OH240566   5.945   3.633   5.747
13542TIP3    H140567   6.007   3.694   5.786
13542TIP3    H240568   5.939   3.659   5.655
13543TIP3   OH240569   1.378   3.884   6.095
13543TIP3    H140570   1.333   3.963   6.124
13543TIP3    H240571   1.326   3.851   6.022
13544TIP3   OH240572   3.984   2.527   3.316
13544TIP3    H140573   3.939   2.588   3.375
13544TIP3    H240574   3.937   2.444   3.327
13545TIP3   OH240575   3.463   7.226   2.495
13545TIP3    H140576   3.404   7.302   2.498
13545TIP3    H240577   3.541   7.259   2.450
13546TIP3   OH240578   8.427   7.281   0.996
13546TIP3    H140579   8.499   7.289   1.059
13546TIP3    H240580   8.366   7.221   1.037
13547TIP3   OH240581   1.591   2.628   1.492
13547TIP3    H140582   1.676   2.585   1.498
13547TIP3    H240583   1.540   2.589   1.563
13548TIP3   OH240584   3.568   5.943   3.173
13548TIP3    H140585   3.496   5.884   3.195
13548TIP3    H240586   3.568   5.946   3.078
13549TIP3   OH240587   6.327   5.357   0.262
13549TIP3    H140588   6.380   5.333   0.187
13549TIP3    H240589   6.344   5.450   0.275
13550TIP3   OH240590   1.479   4.987   5.654
13550TIP3    H140591   1.467   5.069   5.702
13550TIP3    H240592   1.573   4.972   5.656
13551TIP3   OH240593   5.121   6.626   2.905
13551TIP3    H140594   5.208   6.641   2.942
13551TIP3    H240595   5.126   6.539   2.866
13552TIP3   OH240596   2.355   7.851   5.700
13552TIP3    H140597   2.377   7.828   5.610
13552TIP3    H240598   2.300   7.778   5.730
13553TIP3   OH240599   3.048   2.507   2.100
13553TIP3    H140600   2.976   2.461   2.143
13553TIP3    H240601   3.008   2.586   2.065
13554TIP3   OH240602   4.401   7.674   1.644
13554TIP3    H140603   4.440   7.706   1.563
13554TIP3    H240604   4.388   7.753   1.696
13555TIP3   OH240605   3.419   0.362   1.120
13555TIP3    H140606   3.346   0.377   1.181
13555TIP3    H240607   3.480   0.434   1.138
13556TIP3   OH240608   1.458   6.621   2.120
13556TIP3    H140609   1.483   6.557   2.188
13556TIP3    H240610   1.363   6.617   2.118
13557TIP3   OH240611   5.884   2.301   5.436
13557TIP3    H140612   5.870   2.208   5.419
13557TIP3    H240613   5.809   2.344   5.397
13558TIP3   OH240614   2.624   6.433   2.182
13558TIP3    H140615   2.713   6.404   2.162
13558TIP3    H240616   2.567   6.370   2.138
13559TIP3   OH240617   8.303   3.841   0.709
13559TIP3    H140618   8.314   3.803   0.796
13559TIP3    H240619   8.210   3.831   0.689
13560TIP3   OH240620   3.640   7.693   3.955
13560TIP3    H140621   3.694   7.768   3.982
13560TIP3    H240622   3.650   7.689   3.860
13561TIP3   OH240623   0.894   5.192   6.806
13561TIP3    H140624   0.970   5.249   6.795
13561TIP3    H240625   0.837   5.240   6.866
13562TIP3   OH240626   3.497   5.265   1.976
13562TIP3    H140627   3.576   5.213   1.960
13562TIP3    H240628   3.520   5.322   2.049
13563TIP3   OH240629   6.757   7.857   5.094
13563TIP3    H140630   6.782   7.946   5.121
13563TIP3    H240631   6.663   7.864   5.077
13564TIP3   OH240632   5.590   3.105   5.066
13564TIP3    H140633   5.601   3.200   5.067
13564TIP3    H240634   5.670   3.072   5.107
13565TIP3   OH240635   2.742   2.976   5.328
13565TIP3    H140636   2.730   3.027   5.247
13565TIP3    H240637   2.660   2.927   5.338
13566TIP3   OH240638   4.287   0.484   1.824
13566TIP3    H140639   4.222   0.506   1.757
13566TIP3    H240640   4.267   0.394   1.848
13567TIP3   OH240641   4.831   4.618   5.956
13567TIP3    H140642   4.897   4.596   5.890
13567TIP3    H240643   4.874   4.599   6.039
13568TIP3   OH240644   3.998   7.488   3.308
13568TIP3    H140645   3.992   7.398   3.275
13568TIP3    H240646   4.057   7.482   3.383
13569TIP3   OH240647   7.940   3.558   5.431
13569TIP3    H140648   7.944   3.600   5.345
13569TIP3    H240649   7.846   3.550   5.449
13570TIP3   OH240650   7.900   3.757   5.258
13570TIP3    H140651   7.837   3.774   5.187
13570TIP3    H240652   7.954   3.836   5.260
13571TIP3   OH240653   2.162   2.397   2.869
13571TIP3    H140654   2.171   2.401   2.964
13571TIP3    H240655   2.241   2.353   2.839
13572TIP3   OH240656   7.802   7.143   6.112
13572TIP3    H140657   7.895   7.150   6.135
13572TIP3    H240658   7.756   7.173   6.191
13573TIP3   OH240659   1.745   5.887   5.046
13573TIP3    H140660   1.735   5.917   4.955
13573TIP3    H240661   1.757   5.968   5.097
13574TIP3   OH240662   3.520   6.279   4.691
13574TIP3    H140663   3.489   6.197   4.652
13574TIP3    H240664   3.577   6.252   4.763
13575TIP3   OH240665   2.969   3.853   5.421
13575TIP3    H140666   3.028   3.921   5.455
13575TIP3    H240667   2.903   3.843   5.489
13576TIP3   OH240668   0.682   7.627   4.967
13576TIP3    H140669   0.754   7.618   5.029
13576TIP3    H240670   0.668   7.538   4.934
13577TIP3   OH240671   5.809   3.121   1.207
13577TIP3    H140672   5.869   3.066   1.257
13577TIP3    H240673   5.740   3.144   1.270
13578TIP3   OH240674   7.075   6.735   3.553
13578TIP3    H140675   7.023   6.771   3.481
13578TIP3    H240676   7.148   6.797   3.562
13579TIP3   OH240677   3.951   2.564   0.558
13579TIP3    H140678   4.027   2.507   0.573
13579TIP3    H240679   3.948   2.620   0.635
13580TIP3   OH240680   1.873   2.858   3.420
13580TIP3    H140681   1.904   2.907   3.343
13580TIP3    H240682   1.831   2.924   3.475
13581TIP3   OH240683   2.275   5.364   3.306
13581TIP3    H140684   2.262   5.327   3.219
13581TIP3    H240685   2.208   5.321   3.360
13582TIP3   OH240686   0.280   0.680   0.917
13582TIP3    H140687   0.305   0.597   0.878
13582TIP3    H240688   0.340   0.744   0.878
13583TIP3   OH240689   5.179   0.320   6.105
13583TIP3    H140690   5.243   0.252   6.126
13583TIP3    H240691   5.143   0.294   6.021
13584TIP3   OH240692   5.016   1.624   3.124
13584TIP3    H140693   5.033   1.636   3.217
13584TIP3    H240694   4.955   1.695   3.102
13585TIP3   OH240695   8.028   2.043   6.400
13585TIP3    H140696   8.025   2.105   6.327
13585TIP3    H240697   8.044   1.958   6.359
13586TIP3   OH240698   7.392   1.100   2.000
13586TIP3    H140699   7.369   1.113   1.908
13586TIP3    H240700   7.368   1.182   2.042
13587TIP3   OH240701   4.631   5.937   6.636
13587TIP3    H140702   4.693   5.864   6.634
13587TIP3    H240703   4.586   5.928   6.720
13588TIP3   OH240704   0.918   6.517   3.618
13588TIP3    H140705   0.967   6.435   3.609
13588TIP3    H240706   0.891   6.539   3.529
13589TIP3   OH240707   5.649   2.811   2.516
13589TIP3    H140708   5.614   2.842   2.432
13589TIP3    H240709   5.594   2.736   2.539
13590TIP3   OH240710   1.305   7.601   1.151
13590TIP3    H140711   1.233   7.589   1.214
13590TIP3    H240712   1.274   7.558   1.071
13591TIP3   OH240713   7.896   3.021   4.238
13591TIP3    H140714   7.965   3.082   4.265
13591TIP3    H240715   7.815   3.066   4.257
13592TIP3   OH240716   6.711   5.485   5.559
13592TIP3    H140717   6.728   5.550   5.490
13592TIP3    H240718   6.796   5.447   5.579
13593TIP3   OH240719   0.235   1.138   6.728
13593TIP3    H140720   0.184   1.127   6.808
13593TIP3    H240721   0.200   1.219   6.689
13594TIP3   OH240722   3.447   6.876   5.508
13594TIP3    H140723   3.376   6.815   5.530
13594TIP3    H240724   3.403   6.960   5.497
13595TIP3   OH240725   2.444   7.795   6.360
13595TIP3    H140726   2.439   7.699   6.356
13595TIP3    H240727   2.423   7.823   6.271
13596TIP3   OH240728   0.034   7.025   5.299
13596TIP3    H140729   0.068   7.062   5.381
13596TIP3    H240730  -0.048   7.073   5.284
13597TIP3   OH240731   1.310   2.786   4.172
13597TIP3    H140732   1.267   2.700   4.177
13597TIP3    H240733   1.367   2.780   4.095
13598TIP3   OH240734   8.086   2.510   0.728
13598TIP3    H140735   8.058   2.424   0.696
13598TIP3    H240736   8.179   2.500   0.748
13599TIP3   OH240737   2.828   5.684   2.997
13599TIP3    H140738   2.901   5.671   3.058
13599TIP3    H240739   2.754   5.638   3.037
13600TIP3   OH240740   1.998   0.603   0.814
13600TIP3    H140741   2.050   0.581   0.891
13600TIP3    H240742   2.016   0.696   0.799
13601TIP3   OH240743   7.723   2.652   6.388
13601TIP3    H140744   7.732   2.671   6.295
13601TIP3    H240745   7.733   2.557   6.394
13602TIP3   OH240746   3.793   4.390   5.955
13602TIP3    H140747   3.860   4.459   5.957
13602TIP3    H240748   3.760   4.392   5.865
13603TIP3   OH240749   5.996   0.720   6.603
13603TIP3    H140750   6.020   0.631   6.630
13603TIP3    H240751   6.079   0.769   6.605
13604TIP3   OH240752   4.898   6.069   5.460
13604TIP3    H140753   4.860   5.982   5.452
13604TIP3    H240754   4.864   6.103   5.542
13605TIP3   OH240755   7.998   0.613   2.254
13605TIP3    H140756   8.071   0.603   2.314
13605TIP3    H240757   7.922   0.626   2.311
13606TIP3   OH240758   1.524   1.302   0.153
13606TIP3    H140759   1.449   1.265   0.198
13606TIP3    H240760   1.531   1.251   0.072
13607TIP3   OH240761   0.597   7.158   4.107
13607TIP3    H140762   0.582   7.216   4.032
13607TIP3    H240763   0.691   7.161   4.121
13608TIP3   OH240764   0.988   2.191   3.175
13608TIP3    H140765   0.975   2.140   3.255
13608TIP3    H240766   0.899   2.204   3.141
13609TIP3   OH240767   0.486   5.280   2.613
13609TIP3    H140768   0.569   5.317   2.643
13609TIP3    H240769   0.419   5.330   2.660
13610TIP3   OH240770   2.429   5.051   0.294
13610TIP3    H140771   2.385   4.981   0.244
13610TIP3    H240772   2.514   5.062   0.250
13611TIP3   OH240773   2.698   4.584   5.651
13611TIP3    H140774   2.629   4.624   5.703
13611TIP3    H240775   2.739   4.521   5.710
13612TIP3   OH240776   3.211   4.691   2.284
13612TIP3    H140777   3.153   4.657   2.353
13612TIP3    H240778   3.164   4.766   2.248
13613TIP3   OH240779   2.921   4.517   3.916
13613TIP3    H140780   2.838   4.473   3.936
13613TIP3    H240781   2.896   4.590   3.859
13614TIP3   OH240782   0.588   2.140   4.423
13614TIP3    H140783   0.621   2.227   4.402
13614TIP3    H240784   0.613   2.086   4.348
13615TIP3   OH240785   5.973   6.679   2.783
13615TIP3    H140786   5.964   6.587   2.809
13615TIP3    H240787   5.908   6.726   2.835
13616TIP3   OH240788   5.716   7.711   1.693
13616TIP3    H140789   5.755   7.684   1.776
13616TIP3    H240790   5.717   7.807   1.696
13617TIP3   OH240791   0.699   3.990   0.280
13617TIP3    H140792   0.778   3.977   0.333
13617TIP3    H240793   0.729   4.043   0.206
13618TIP3   OH240794   2.783   0.214   4.199
13618TIP3    H140795   2.789   0.282   4.132
13618TIP3    H240796   2.745   0.258   4.274
13619TIP3   OH240797   4.748   3.197   0.429
13619TIP3    H140798   4.786   3.152   0.504
13619TIP3    H240799   4.791   3.283   0.428
13620TIP3   OH240800   1.444   6.850   5.174
13620TIP3    H140801   1.496   6.927   5.193
13620TIP3    H240802   1.366   6.858   5.229
13621TIP3   OH240803   5.146   5.643   2.439
13621TIP3    H140804   5.062   5.688   2.452
13621TIP3    H240805   5.122   5.562   2.393
13622TIP3   OH240806   2.593   2.476   5.209
13622TIP3    H140807   2.578   2.400   5.153
13622TIP3    H240808   2.628   2.439   5.290
13623TIP3   OH240809   0.692   5.120   2.874
13623TIP3    H140810   0.643   5.172   2.938
13623TIP3    H240811   0.669   5.029   2.895
13624TIP3   OH240812   1.461   1.279   1.139
13624TIP3    H140813   1.434   1.264   1.230
13624TIP3    H240814   1.557   1.279   1.143
13625TIP3   OH240815   6.154   0.036   0.209
13625TIP3    H140816   6.177   0.058   0.300
13625TIP3    H240817   6.114   0.116   0.175
13626TIP3   OH240818   7.607   5.191   6.198
13626TIP3    H140819   7.594   5.272   6.149
13626TIP3    H240820   7.669   5.215   6.267
13627TIP3   OH240821   5.227   7.336   4.665
13627TIP3    H140822   5.244   7.300   4.752
13627TIP3    H240823   5.192   7.423   4.681
13628TIP3   OH240824   5.108   0.038   1.870
13628TIP3    H140825   5.142   0.082   1.948
13628TIP3    H240826   5.119   0.103   1.800
13629TIP3   OH240827   2.504   6.627   4.328
13629TIP3    H140828   2.463   6.572   4.394
13629TIP3    H240829   2.475   6.590   4.244
13630TIP3   OH240830   4.459   2.356   3.076
13630TIP3    H140831   4.519   2.428   3.093
13630TIP3    H240832   4.387   2.368   3.139
13631TIP3   OH240833   0.514   6.757   1.216
13631TIP3    H140834   0.485   6.745   1.307
13631TIP3    H240835   0.478   6.682   1.169
13632TIP3   OH240836   4.630   0.614   3.583
13632TIP3    H140837   4.589   0.547   3.638
13632TIP3    H240838   4.587   0.606   3.498
13633TIP3   OH240839   8.275   6.040   4.755
13633TIP3    H140840   8.233   6.023   4.671
13633TIP3    H240841   8.205   6.076   4.810
13634TIP3   OH240842   0.449   0.638   1.477
13634TIP3    H140843   0.455   0.576   1.550
13634TIP3    H240844   0.430   0.584   1.401
13635TIP3   OH240845   7.581   4.145   0.238
13635TIP3    H140846   7.584   4.193   0.155
13635TIP3    H240847   7.629   4.063   0.220
13636TIP3   OH240848   7.834   3.661   4.319
13636TIP3    H140849   7.833   3.565   4.313
13636TIP3    H240850   7.833   3.690   4.228
13637TIP3   OH240851   6.382   6.483   6.531
13637TIP3    H140852   6.441   6.413   6.500
13637TIP3    H240853   6.380   6.472   6.626
13638TIP3   OH240854   3.360   1.138   3.132
13638TIP3    H140855   3.308   1.094   3.200
13638TIP3    H240856   3.366   1.229   3.161
13639TIP3   OH240857   7.302   4.571   0.103
13639TIP3    H140858   7.387   4.612   0.120
13639TIP3    H240859   7.251   4.590   0.181
13640TIP3   OH240860   6.112   5.005   4.908
13640TIP3    H140861   6.150   5.009   4.996
13640TIP3    H240862   6.055   4.928   4.909
13641TIP3   OH240863   6.410   7.867   6.509
13641TIP3    H140864   6.368   7.790   6.471
13641TIP3    H240865   6.373   7.875   6.597
13642TIP3   OH240866   1.092   6.546   0.466
13642TIP3    H140867   1.077   6.636   0.436
13642TIP3    H240868   1.052   6.543   0.553
13643TIP3   OH240869   4.803   0.777   0.220
13643TIP3    H140870   4.753   0.858   0.233
13643TIP3    H240871   4.829   0.750   0.308
13644TIP3   OH240872   7.239   4.120   6.252
13644TIP3    H140873   7.269   4.209   6.232
13644TIP3    H240874   7.271   4.067   6.179
13645TIP3   OH240875   4.182   2.782   4.508
13645TIP3    H140876   4.102   2.831   4.488
13645TIP3    H240877   4.251   2.826   4.457
13646TIP3   OH240878   5.010   5.272   5.211
13646TIP3    H140879   5.089   5.219   5.201
13646TIP3    H240880   4.978   5.284   5.121
13647TIP3   OH240881   0.460   0.135   3.958
13647TIP3    H140882   0.538   0.170   4.002
13647TIP3    H240883   0.407   0.098   4.028
13648TIP3   OH240884   7.498   7.812   3.569
13648TIP3    H140885   7.467   7.747   3.632
13648TIP3    H240886   7.583   7.778   3.540
13649TIP3   OH240887   4.802   2.059   2.221
13649TIP3    H140888   4.742   2.132   2.207
13649TIP3    H240889   4.776   2.022   2.305
13650TIP3   OH240890   4.358   4.404   2.146
13650TIP3    H140891   4.293   4.465   2.181
13650TIP3    H240892   4.438   4.422   2.196
13651TIP3   OH240893   7.345   7.618   0.486
13651TIP3    H140894   7.288   7.688   0.455
13651TIP3    H240895   7.306   7.537   0.452
13652TIP3   OH240896   6.725   4.008   6.629
13652TIP3    H140897   6.731   4.061   6.708
13652TIP3    H240898   6.672   4.061   6.569
13653TIP3   OH240899   7.497   4.940   5.995
13653TIP3    H140900   7.522   4.962   5.905
13653TIP3    H240901   7.534   5.009   6.049
13654TIP3   OH240902   0.235   6.724   1.219
13654TIP3    H140903   0.265   6.803   1.174
13654TIP3    H240904   0.192   6.672   1.150
13655TIP3   OH240905   6.536   2.998   5.169
13655TIP3    H140906   6.541   3.049   5.250
13655TIP3    H240907   6.513   3.062   5.101
13656TIP3   OH240908   4.930   2.421   5.290
13656TIP3    H140909   4.902   2.486   5.225
13656TIP3    H240910   5.022   2.440   5.305
13657TIP3   OH240911   2.724   0.538   3.667
13657TIP3    H140912   2.687   0.594   3.736
13657TIP3    H240913   2.797   0.589   3.632
13658TIP3   OH240914   8.133   1.675   0.179
13658TIP3    H140915   8.054   1.712   0.139
13658TIP3    H240916   8.106   1.652   0.268
13659TIP3   OH240917   7.996   5.249   4.406
13659TIP3    H140918   7.981   5.344   4.407
13659TIP3    H240919   8.042   5.233   4.324
13660TIP3   OH240920   8.168   0.807   0.062
13660TIP3    H140921   8.114   0.750   0.008
13660TIP3    H240922   8.236   0.839   0.002
13661TIP3   OH240923   6.493   0.548   4.268
13661TIP3    H140924   6.412   0.497   4.261
13661TIP3    H240925   6.561   0.486   4.242
13662TIP3   OH240926   6.762   6.174   2.909
13662TIP3    H140927   6.772   6.094   2.859
13662TIP3    H240928   6.699   6.152   2.978
13663TIP3   OH240929   3.007   1.304   2.023
13663TIP3    H140930   3.100   1.281   2.016
13663TIP3    H240931   2.965   1.253   1.955
13664TIP3   OH240932   1.605   5.707   5.977
13664TIP3    H140933   1.618   5.793   6.019
13664TIP3    H240934   1.677   5.699   5.915
13665TIP3   OH240935   1.788   0.636   1.078
13665TIP3    H140936   1.724   0.595   1.136
13665TIP3    H240937   1.744   0.714   1.045
13666TIP3   OH240938   3.265   7.067   4.549
13666TIP3    H140939   3.181   7.060   4.502
13666TIP3    H240940   3.308   7.142   4.508
13667TIP3   OH240941   0.469   5.341   0.187
13667TIP3    H140942   0.519   5.260   0.200
13667TIP3    H240943   0.443   5.367   0.276
13668TIP3   OH240944   3.675   5.323   3.299
13668TIP3    H140945   3.586   5.326   3.262
13668TIP3    H240946   3.725   5.383   3.244
13669TIP3   OH240947   3.466   2.479   3.634
13669TIP3    H140948   3.404   2.501   3.564
13669TIP3    H240949   3.424   2.407   3.680
13670TIP3   OH240950   3.375   6.709   0.308
13670TIP3    H140951   3.397   6.761   0.230
13670TIP3    H240952   3.338   6.628   0.272
13671TIP3   OH240953   2.619   2.808   0.544
13671TIP3    H140954   2.556   2.761   0.490
13671TIP3    H240955   2.678   2.740   0.577
13672TIP3   OH240956   5.126   2.201   1.113
13672TIP3    H140957   5.194   2.249   1.162
13672TIP3    H240958   5.083   2.268   1.061
13673TIP3   OH240959   8.078   3.360   5.604
13673TIP3    H140960   8.172   3.368   5.590
13673TIP3    H240961   8.040   3.436   5.561
13674TIP3   OH240962   3.247   4.809   6.053
13674TIP3    H140963   3.208   4.726   6.080
13674TIP3    H240964   3.198   4.876   6.101
13675TIP3   OH240965   7.742   0.081   1.849
13675TIP3    H140966   7.768   0.110   1.762
13675TIP3    H240967   7.793   0.136   1.909
13676TIP3   OH240968   0.781   0.826   1.764
13676TIP3    H140969   0.843   0.760   1.793
13676TIP3    H240970   0.823   0.910   1.786
13677TIP3   OH240971   2.739   7.894   4.162
13677TIP3    H140972   2.795   7.962   4.199
13677TIP3    H240973   2.661   7.940   4.131
13678TIP3   OH240974   3.352   2.409   1.184
13678TIP3    H140975   3.266   2.393   1.145
13678TIP3    H240976   3.360   2.504   1.187
13679TIP3   OH240977   5.651   2.098   0.650
13679TIP3    H140978   5.712   2.167   0.624
13679TIP3    H240979   5.676   2.023   0.595
13680TIP3   OH240980   0.471   2.183   4.840
13680TIP3    H140981   0.551   2.153   4.797
13680TIP3    H240982   0.400   2.153   4.783
13681TIP3   OH240983   1.012   4.352   5.526
13681TIP3    H140984   0.940   4.332   5.466
13681TIP3    H240985   1.089   4.356   5.470
13682TIP3   OH240986   5.447   7.254   0.754
13682TIP3    H140987   5.415   7.314   0.821
13682TIP3    H240988   5.384   7.262   0.682
13683TIP3   OH240989   0.661   5.899   2.890
13683TIP3    H140990   0.665   5.993   2.871
13683TIP3    H240991   0.753   5.873   2.895
13684TIP3   OH240992   1.969   6.187   4.750
13684TIP3    H140993   1.935   6.249   4.686
13684TIP3    H240994   1.938   6.220   4.834
13685TIP3   OH240995   1.409   6.178   0.582
13685TIP3    H140996   1.423   6.101   0.637
13685TIP3    H240997   1.497   6.205   0.555
13686TIP3   OH240998   6.907   3.512   1.680
13686TIP3    H140999   6.865   3.456   1.745
13686TIP3    H241000   6.886   3.601   1.709
13687TIP3   OH241001   8.073   5.683   5.192
13687TIP3    H141002   8.119   5.674   5.276
13687TIP3    H241003   8.143   5.691   5.127
13688TIP3   OH241004   2.907   6.375   5.933
13688TIP3    H141005   2.863   6.460   5.939
13688TIP3    H241006   2.949   6.365   6.018
13689TIP3   OH241007   5.015   3.998   6.826
13689TIP3    H141008   5.021   3.902   6.818
13689TIP3    H241009   4.946   4.023   6.764
13690TIP3   OH241010   5.212   2.389   0.859
13690TIP3    H141011   5.246   2.431   0.780
13690TIP3    H241012   5.125   2.426   0.871
13691TIP3   OH241013   5.845   6.549   6.613
13691TIP3    H141014   5.865   6.534   6.521
13691TIP3    H241015   5.904   6.490   6.660
13692TIP3   OH241016   2.340   3.770   4.573
13692TIP3    H141017   2.360   3.683   4.606
13692TIP3    H241018   2.399   3.828   4.621
13693TIP3   OH241019   2.030   6.521   4.702
13693TIP3    H141020   1.942   6.552   4.725
13693TIP3    H241021   2.068   6.494   4.785
13694TIP3   OH241022   6.032   3.403   4.522
13694TIP3    H141023   6.098   3.350   4.477
13694TIP3    H241024   5.952   3.351   4.518
13695TIP3   OH241025   5.564   4.335  -0.023
13695TIP3    H141026   5.622   4.408  -0.046
13695TIP3    H241027   5.547   4.348   0.071
13696TIP3   OH241028   0.088   1.810   6.009
13696TIP3    H141029   0.098   1.742   6.076
13696TIP3    H241030   0.000   1.844   6.023
13697TIP3   OH241031   0.256   5.198   4.017
13697TIP3    H141032   0.216   5.139   3.954
13697TIP3    H241033   0.213   5.282   4.003
13698TIP3   OH241034   5.291   0.601   6.775
13698TIP3    H141035   5.279   0.640   6.861
13698TIP3    H241036   5.386   0.604   6.761
13699TIP3   OH241037   3.937   3.273   4.099
13699TIP3    H141038   3.911   3.240   4.013
13699TIP3    H241039   3.967   3.362   4.083
13700TIP3   OH241040   1.780   5.383   6.598
13700TIP3    H141041   1.726   5.369   6.520
13700TIP3    H241042   1.730   5.342   6.669
13701TIP3   OH241043   7.418   6.502   2.733
13701TIP3    H141044   7.407   6.442   2.807
13701TIP3    H241045   7.364   6.577   2.755
13702TIP3   OH241046   3.768   4.363   0.687
13702TIP3    H141047   3.719   4.446   0.690
13702TIP3    H241048   3.716   4.307   0.631
13703TIP3   OH241049   6.294   7.735   1.990
13703TIP3    H141050   6.311   7.829   1.998
13703TIP3    H241051   6.375   7.698   1.956
13704TIP3   OH241052   1.006   0.598   4.812
13704TIP3    H141053   1.096   0.588   4.781
13704TIP3    H241054   1.014   0.618   4.905
13705TIP3   OH241055   6.764   5.145   6.092
13705TIP3    H141056   6.683   5.173   6.048
13705TIP3    H241057   6.750   5.168   6.183
13706TIP3   OH241058   7.832   7.251   3.003
13706TIP3    H141059   7.791   7.193   2.940
13706TIP3    H241060   7.783   7.238   3.084
13707TIP3   OH241061   3.034   1.736   3.152
13707TIP3    H141062   3.085   1.774   3.080
13707TIP3    H241063   3.029   1.805   3.218
13708TIP3   OH241064   8.119   1.843   3.350
13708TIP3    H141065   8.089   1.779   3.286
13708TIP3    H241066   8.186   1.798   3.400
13709TIP3   OH241067   4.348   7.360   2.274
13709TIP3    H141068   4.353   7.363   2.370
13709TIP3    H241069   4.419   7.418   2.244
13710TIP3   OH241070   4.131   5.319   3.947
13710TIP3    H141071   4.131   5.277   3.861
13710TIP3    H241072   4.126   5.412   3.928
13711TIP3   OH241073   0.164   2.604   6.705
13711TIP3    H141074   0.168   2.655   6.624
13711TIP3    H241075   0.234   2.540   6.697
13712TIP3   OH241076   4.352   6.722   6.194
13712TIP3    H141077   4.269   6.688   6.227
13712TIP3    H241078   4.367   6.674   6.113
13713TIP3   OH241079   5.746   6.789   4.639
13713TIP3    H141080   5.822   6.744   4.675
13713TIP3    H241081   5.765   6.882   4.652
13714TIP3   OH241082   1.652   5.354   4.741
13714TIP3    H141083   1.622   5.440   4.712
13714TIP3    H241084   1.649   5.360   4.837
13715TIP3   OH241085   3.364   0.629   2.551
13715TIP3    H141086   3.339   0.584   2.470
13715TIP3    H241087   3.292   0.688   2.569
13716TIP3   OH241088   6.581   7.510   6.568
13716TIP3    H141089   6.551   7.561   6.493
13716TIP3    H241090   6.675   7.501   6.556
13717TIP3   OH241091   0.673   6.490   0.413
13717TIP3    H141092   0.698   6.401   0.436
13717TIP3    H241093   0.731   6.513   0.340
13718TIP3   OH241094   5.256   5.937   5.222
13718TIP3    H141095   5.173   5.969   5.187
13718TIP3    H241096   5.251   5.957   5.315
13719TIP3   OH241097   2.145   4.662   6.480
13719TIP3    H141098   2.086   4.613   6.536
13719TIP3    H241099   2.174   4.736   6.534
13720TIP3   OH241100   7.691   6.061   1.461
13720TIP3    H141101   7.609   6.065   1.509
13720TIP3    H241102   7.675   6.112   1.382
13721TIP3   OH241103   0.332   3.200   3.932
13721TIP3    H141104   0.289   3.172   3.851
13721TIP3    H241105   0.344   3.295   3.921
13722TIP3   OH241106   5.758   7.453   0.319
13722TIP3    H141107   5.679   7.445   0.372
13722TIP3    H241108   5.784   7.362   0.301
13723TIP3   OH241109   4.996   6.140   1.582
13723TIP3    H141110   4.974   6.102   1.667
13723TIP3    H241111   5.025   6.065   1.530
13724TIP3   OH241112   4.289   7.451   1.338
13724TIP3    H141113   4.377   7.460   1.376
13724TIP3    H241114   4.304   7.452   1.243
13725TIP3   OH241115   1.309   0.203   2.812
13725TIP3    H141116   1.354   0.278   2.772
13725TIP3    H241117   1.372   0.132   2.808
13726TIP3   OH241118   0.874   7.313   2.242
13726TIP3    H141119   0.893   7.234   2.191
13726TIP3    H241120   0.854   7.281   2.330
13727TIP3   OH241121   4.831   3.494   0.871
13727TIP3    H141122   4.894   3.565   0.857
13727TIP3    H241123   4.863   3.423   0.815
13728TIP3   OH241124   0.196   4.450   3.270
13728TIP3    H141125   0.132   4.451   3.199
13728TIP3    H241126   0.195   4.540   3.304
13729TIP3   OH241127   7.021   0.686   3.469
13729TIP3    H141128   7.030   0.596   3.437
13729TIP3    H241129   6.978   0.733   3.398
13730TIP3   OH241130   3.008   5.776   6.500
13730TIP3    H141131   2.990   5.854   6.552
13730TIP3    H241132   2.948   5.710   6.535
13731TIP3   OH241133   2.370   7.320   6.068
13731TIP3    H141134   2.312   7.317   5.992
13731TIP3    H241135   2.371   7.412   6.094
13732TIP3   OH241136   4.955   5.499   5.389
13732TIP3    H141137   4.969   5.453   5.306
13732TIP3    H241138   4.988   5.438   5.455
13733TIP3   OH241139   8.121   3.633   3.111
13733TIP3    H141140   8.132   3.607   3.020
13733TIP3    H241141   8.175   3.711   3.121
13734TIP3   OH241142   1.274   6.850   6.138
13734TIP3    H141143   1.192   6.885   6.104
13734TIP3    H241144   1.266   6.755   6.128
13735TIP3   OH241145   0.502   2.573   5.191
13735TIP3    H141146   0.560   2.644   5.163
13735TIP3    H241147   0.559   2.497   5.202
13736TIP3   OH241148   7.627   4.616   3.700
13736TIP3    H141149   7.700   4.677   3.696
13736TIP3    H241150   7.653   4.552   3.767
13737TIP3   OH241151   0.052   5.892   3.428
13737TIP3    H141152  -0.037   5.863   3.408
13737TIP3    H241153   0.053   5.985   3.407
13738TIP3   OH241154   2.475   1.243   2.365
13738TIP3    H141155   2.531   1.170   2.393
13738TIP3    H241156   2.514   1.320   2.405
13739TIP3   OH241157   1.879   4.228   5.835
13739TIP3    H141158   1.939   4.280   5.780
13739TIP3    H241159   1.799   4.222   5.783
13740TIP3   OH241160   1.590   4.959   3.415
13740TIP3    H141161   1.640   4.884   3.446
13740TIP3    H241162   1.656   5.027   3.399
13741TIP3   OH241163   7.950   2.623   2.723
13741TIP3    H141164   8.022   2.681   2.700
13741TIP3    H241165   7.878   2.683   2.744
13742TIP3   OH241166   3.068   7.694   0.737
13742TIP3    H141167   3.026   7.774   0.705
13742TIP3    H241168   2.998   7.647   0.783
13743TIP3   OH241169   7.624   2.697   6.772
13743TIP3    H141170   7.618   2.782   6.730
13743TIP3    H241171   7.650   2.717   6.862
13744TIP3   OH241172   1.155   6.276   2.068
13744TIP3    H141173   1.078   6.300   2.016
13744TIP3    H241174   1.197   6.206   2.018
13745TIP3   OH241175   2.580   4.485   3.227
13745TIP3    H141176   2.558   4.437   3.307
13745TIP3    H241177   2.546   4.431   3.156
13746TIP3   OH241178   3.469   4.102   2.185
13746TIP3    H141179   3.545   4.099   2.128
13746TIP3    H241180   3.476   4.187   2.230
13747TIP3   OH241181   0.748   3.007   2.586
13747TIP3    H141182   0.807   2.983   2.657
13747TIP3    H241183   0.725   3.098   2.604
13748TIP3   OH241184   1.306   3.244   6.472
13748TIP3    H141185   1.311   3.315   6.409
13748TIP3    H241186   1.258   3.174   6.427
13749TIP3   OH241187   5.368   5.020   1.290
13749TIP3    H141188   5.440   5.051   1.236
13749TIP3    H241189   5.410   4.970   1.360
13750TIP3   OH241190   1.854   5.181   2.404
13750TIP3    H141191   1.798   5.227   2.342
13750TIP3    H241192   1.910   5.249   2.442
13751TIP3   OH241193   6.719   4.107   1.243
13751TIP3    H141194   6.707   4.044   1.171
13751TIP3    H241195   6.730   4.053   1.321
13752TIP3   OH241196   0.092   3.468   0.536
13752TIP3    H141197   0.107   3.546   0.588
13752TIP3    H241198  -0.002   3.471   0.513
13753TIP3   OH241199   4.306   6.832   4.524
13753TIP3    H141200   4.288   6.883   4.446
13753TIP3    H241201   4.368   6.886   4.574
13754TIP3   OH241202   6.511   4.179   2.904
13754TIP3    H141203   6.539   4.205   2.992
13754TIP3    H241204   6.415   4.181   2.908
13755TIP3   OH241205   6.684   4.389   6.400
13755TIP3    H141206   6.704   4.410   6.308
13755TIP3    H241207   6.679   4.474   6.443
13756TIP3   OH241208   2.051   3.491   2.626
13756TIP3    H141209   2.143   3.482   2.651
13756TIP3    H241210   2.017   3.559   2.684
13757TIP3   OH241211   5.480   6.567   4.749
13757TIP3    H141212   5.524   6.536   4.828
13757TIP3    H241213   5.532   6.531   4.676
13758TIP3   OH241214   2.051   0.002   5.119
13758TIP3    H141215   2.027  -0.047   5.041
13758TIP3    H241216   2.069   0.090   5.087
13759TIP3   OH241217   2.464   1.868   3.636
13759TIP3    H141218   2.408   1.917   3.576
13759TIP3    H241219   2.522   1.817   3.580
13760TIP3   OH241220   2.902   5.831   3.373
13760TIP3    H141221   2.948   5.913   3.387
13760TIP3    H241222   2.970   5.769   3.346
13761TIP3   OH241223   5.794   3.528   3.840
13761TIP3    H141224   5.884   3.560   3.844
13761TIP3    H241225   5.780   3.504   3.749
13762TIP3   OH241226   3.827   1.531   5.337
13762TIP3    H141227   3.739   1.569   5.339
13762TIP3    H241228   3.869   1.572   5.262
13763TIP3   OH241229   6.913   2.793   4.199
13763TIP3    H141230   6.871   2.786   4.285
13763TIP3    H241231   6.953   2.880   4.200
13764TIP3   OH241232   2.792   4.067   5.068
13764TIP3    H141233   2.781   3.996   5.132
13764TIP3    H241234   2.728   4.049   5.000
13765TIP3   OH241235   7.954   4.980   1.331
13765TIP3    H141236   8.008   4.917   1.380
13765TIP3    H241237   7.871   4.934   1.317
13766TIP3   OH241238   1.160   5.698   6.313
13766TIP3    H141239   1.175   5.792   6.323
13766TIP3    H241240   1.138   5.667   6.401
13767TIP3   OH241241   4.021   7.538   4.074
13767TIP3    H141242   4.048   7.447   4.087
13767TIP3    H241243   3.972   7.561   4.153
13768TIP3   OH241244   4.122   0.376   0.405
13768TIP3    H141245   4.216   0.390   0.405
13768TIP3    H241246   4.095   0.395   0.495
13769TIP3   OH241247   3.852   3.926   5.856
13769TIP3    H141248   3.811   3.959   5.776
13769TIP3    H241249   3.890   4.003   5.898
13770TIP3   OH241250   1.406   2.367   4.019
13770TIP3    H141251   1.376   2.450   4.057
13770TIP3    H241252   1.437   2.391   3.932
13771TIP3   OH241253   6.264   0.187   0.815
13771TIP3    H141254   6.207   0.147   0.749
13771TIP3    H241255   6.350   0.148   0.798
13772TIP3   OH241256   4.394   3.652   0.522
13772TIP3    H141257   4.448   3.573   0.518
13772TIP3    H241258   4.327   3.633   0.587
13773TIP3   OH241259   2.920   0.154   1.921
13773TIP3    H141260   2.895   0.082   1.863
13773TIP3    H241261   2.911   0.233   1.867
13774TIP3   OH241262   4.061   0.726   3.049
13774TIP3    H141263   4.075   0.730   2.954
13774TIP3    H241264   4.055   0.633   3.069
13775TIP3   OH241265   7.273   5.720   1.496
13775TIP3    H141266   7.206   5.658   1.524
13775TIP3    H241267   7.352   5.693   1.542
13776TIP3   OH241268   0.410   6.679   6.032
13776TIP3    H141269   0.420   6.593   5.990
13776TIP3    H241270   0.378   6.736   5.962
13777TIP3   OH241271   0.925   2.215   4.743
13777TIP3    H141272   0.958   2.281   4.683
13777TIP3    H241273   1.003   2.166   4.769
13778TIP3   OH241274   5.273   6.509   5.419
13778TIP3    H141275   5.311   6.562   5.349
13778TIP3    H241276   5.191   6.477   5.383
13779TIP3   OH241277   6.172   6.199   1.825
13779TIP3    H141278   6.171   6.204   1.729
13779TIP3    H241279   6.081   6.214   1.851
13780TIP3   OH241280   5.033   7.820   1.645
13780TIP3    H141281   5.029   7.805   1.551
13780TIP3    H241282   5.056   7.912   1.654
13781TIP3   OH241283   7.664   6.659   0.996
13781TIP3    H141284   7.666   6.597   0.923
13781TIP3    H241285   7.740   6.636   1.049
13782TIP3   OH241286   2.386   3.074   1.765
13782TIP3    H141287   2.452   3.022   1.719
13782TIP3    H241288   2.303   3.028   1.749
13783TIP3   OH241289   4.179   3.696   1.201
13783TIP3    H141290   4.114   3.730   1.263
13783TIP3    H241291   4.128   3.647   1.137
13784TIP3   OH241292   3.762   3.067   2.046
13784TIP3    H141293   3.827   3.105   2.104
13784TIP3    H241294   3.723   3.142   2.001
13785TIP3   OH241295   2.823   5.376   3.128
13785TIP3    H141296   2.810   5.291   3.169
13785TIP3    H241297   2.827   5.438   3.200
13786TIP3   OH241298   3.569   6.230   4.167
13786TIP3    H141299   3.647   6.209   4.219
13786TIP3    H241300   3.568   6.326   4.164
13787TIP3   OH241301   6.281   3.440   3.487
13787TIP3    H141302   6.196   3.431   3.530
13787TIP3    H241303   6.279   3.527   3.447
13788TIP3   OH241304   2.226   4.896   3.808
13788TIP3    H141305   2.231   4.940   3.723
13788TIP3    H241306   2.140   4.920   3.842
13789TIP3   OH241307   1.362   0.915   4.453
13789TIP3    H141308   1.325   0.852   4.390
13789TIP3    H241309   1.394   0.987   4.398
13790TIP3   OH241310   5.501   2.704   5.281
13790TIP3    H141311   5.492   2.643   5.355
13790TIP3    H241312   5.510   2.790   5.322
13791TIP3   OH241313   3.737   6.370   2.533
13791TIP3    H141314   3.827   6.401   2.527
13791TIP3    H241315   3.725   6.348   2.625
13792TIP3   OH241316   1.865  -0.050   3.991
13792TIP3    H141317   1.805   0.020   3.966
13792TIP3    H241318   1.951  -0.009   3.990
13793TIP3   OH241319   4.105   0.045   3.884
13793TIP3    H141320   4.017   0.017   3.908
13793TIP3    H241321   4.162  -0.026   3.914
13794TIP3   OH241322   6.169   6.363   2.130
13794TIP3    H141323   6.224   6.319   2.066
13794TIP3    H241324   6.106   6.413   2.078
13795TIP3   OH241325   2.248   7.747   3.628
13795TIP3    H141326   2.281   7.723   3.541
13795TIP3    H241327   2.194   7.672   3.654
13796TIP3   OH241328   0.772   5.307   4.260
13796TIP3    H141329   0.846   5.273   4.211
13796TIP3    H241330   0.695   5.271   4.217
13797TIP3   OH241331   4.150   5.901   0.110
13797TIP3    H141332   4.203   5.939   0.040
13797TIP3    H241333   4.159   5.962   0.183
13798TIP3   OH241334   5.609   3.759   3.531
13798TIP3    H141335   5.538   3.698   3.553
13798TIP3    H241336   5.646   3.725   3.450
13799TIP3   OH241337   7.936   1.819   2.868
13799TIP3    H141338   7.992   1.863   2.804
13799TIP3    H241339   7.879   1.762   2.816
13800TIP3   OH241340   7.584   5.476   4.446
13800TIP3    H141341   7.526   5.441   4.378
13800TIP3    H241342   7.546   5.445   4.528
13801TIP3   OH241343   0.443   3.636   2.390
13801TIP3    H141344   0.415   3.592   2.470
13801TIP3    H241345   0.362   3.663   2.347
13802TIP3   OH241346   5.440   3.547   4.644
13802TIP3    H141347   5.429   3.511   4.556
13802TIP3    H241348   5.372   3.505   4.696
13803TIP3   OH241349   3.378   2.197   0.967
13803TIP3    H141350   3.320   2.272   0.958
13803TIP3    H241351   3.466   2.235   0.971
13804TIP3   OH241352   3.317   3.581   2.884
13804TIP3    H141353   3.228   3.584   2.849
13804TIP3    H241354   3.330   3.490   2.909
13805TIP3   OH241355   6.428   4.081   2.121
13805TIP3    H141356   6.504   4.097   2.177
13805TIP3    H241357   6.363   4.042   2.179
13806TIP3   OH241358   3.699   3.703   4.702
13806TIP3    H141359   3.609   3.728   4.720
13806TIP3    H241360   3.693   3.620   4.655
13807TIP3   OH241361   1.905   3.876   4.684
13807TIP3    H141362   1.810   3.870   4.673
13807TIP3    H241363   1.921   3.845   4.773
13808TIP3   OH241364   0.649   4.200   1.630
13808TIP3    H141365   0.737   4.225   1.657
13808TIP3    H241366   0.648   4.104   1.635
13809TIP3   OH241367   4.983   3.761   4.279
13809TIP3    H141368   4.952   3.718   4.358
13809TIP3    H241369   5.043   3.829   4.310
13810TIP3   OH241370   6.049   4.958   1.098
13810TIP3    H141371   6.108   4.889   1.128
13810TIP3    H241372   6.053   4.953   1.003
13811TIP3   OH241373   4.177   7.837   2.401
13811TIP3    H141374   4.176   7.743   2.412
13811TIP3    H241375   4.085   7.861   2.388
13812TIP3   OH241376   1.151   1.923   2.297
13812TIP3    H141377   1.225   1.963   2.342
13812TIP3    H241378   1.085   1.910   2.365
13813TIP3   OH241379   8.209   5.669   5.426
13813TIP3    H141380   8.225   5.591   5.480
13813TIP3    H241381   8.296   5.696   5.397
13814TIP3   OH241382   5.120   5.522   3.195
13814TIP3    H141383   5.184   5.450   3.200
13814TIP3    H241384   5.060   5.495   3.126
13815TIP3   OH241385   4.966   5.352   3.422
13815TIP3    H141386   4.895   5.352   3.358
13815TIP3    H241387   5.037   5.305   3.379
13816TIP3   OH241388   7.536   6.268   5.811
13816TIP3    H141389   7.471   6.271   5.741
13816TIP3    H241390   7.571   6.179   5.809
13817TIP3   OH241391   3.632   2.917   1.621
13817TIP3    H141392   3.591   2.989   1.668
13817TIP3    H241393   3.627   2.843   1.682
13818TIP3   OH241394   0.856   4.968   0.398
13818TIP3    H141395   0.763   4.953   0.385
13818TIP3    H241396   0.866   5.063   0.402
13819TIP3   OH241397   0.504   5.400   3.552
13819TIP3    H141398   0.447   5.417   3.478
13819TIP3    H241399   0.462   5.444   3.626
13820TIP3   OH241400   1.962   5.184   6.477
13820TIP3    H141401   2.011   5.157   6.555
13820TIP3    H241402   1.911   5.260   6.505
13821TIP3   OH241403   5.211   7.005   3.596
13821TIP3    H141404   5.180   7.064   3.527
13821TIP3    H241405   5.264   6.940   3.549
13822TIP3   OH241406   8.016   4.489   0.795
13822TIP3    H141407   8.038   4.406   0.753
13822TIP3    H241408   8.031   4.555   0.727
13823TIP3   OH241409   2.995   2.693   0.737
13823TIP3    H141410   3.027   2.755   0.672
13823TIP3    H241411   2.947   2.627   0.687
13824TIP3   OH241412   7.560   1.856   2.711
13824TIP3    H141413   7.642   1.808   2.702
13824TIP3    H241414   7.501   1.795   2.757
13825TIP3   OH241415   2.593   7.512   3.649
13825TIP3    H141416   2.569   7.604   3.635
13825TIP3    H241417   2.558   7.466   3.573
13826TIP3   OH241418   8.397   5.902   4.008
13826TIP3    H141419   8.402   5.891   4.103
13826TIP3    H241420   8.349   5.984   3.996
13827TIP3   OH241421   8.071   4.007   4.079
13827TIP3    H141422   8.135   4.078   4.079
13827TIP3    H241423   8.044   3.998   4.170
13828TIP3   OH241424   8.254   3.406   0.838
13828TIP3    H141425   8.257   3.390   0.933
13828TIP3    H241426   8.345   3.412   0.812
13829TIP3   OH241427   8.355   3.411   3.049
13829TIP3    H141428   8.315   3.479   2.995
13829TIP3    H241429   8.280   3.367   3.090
13830TIP3   OH241430   8.320   2.996   5.404
13830TIP3    H141431   8.301   2.902   5.401
13830TIP3    H241432   8.245   3.034   5.449
13831TIP3   OH241433   3.139   5.527   4.755
13831TIP3    H141434   3.131   5.517   4.850
13831TIP3    H241435   3.111   5.443   4.720
13832TIP3   OH241436   6.638   2.526   5.414
13832TIP3    H141437   6.707   2.567   5.467
13832TIP3    H241438   6.592   2.469   5.476
13833TIP3   OH241439   5.056   3.552   5.726
13833TIP3    H141440   5.056   3.457   5.740
13833TIP3    H241441   4.994   3.585   5.791
13834TIP3   OH241442   3.091  -0.030   4.649
13834TIP3    H141443   3.006  -0.030   4.605
13834TIP3    H241444   3.089   0.048   4.705
13835TIP3   OH241445   3.537   2.325   6.354
13835TIP3    H141446   3.443   2.338   6.369
13835TIP3    H241447   3.573   2.309   6.442
13836TIP3   OH241448   2.190   4.005   6.747
13836TIP3    H141449   2.111   3.976   6.700
13836TIP3    H241450   2.243   3.926   6.754
13837TIP3   OH241451   8.165   7.459   1.560
13837TIP3    H141452   8.144   7.456   1.653
13837TIP3    H241453   8.256   7.486   1.556
13838TIP3   OH241454   5.278   7.372   6.647
13838TIP3    H141455   5.225   7.388   6.569
13838TIP3    H241456   5.362   7.413   6.628
13839TIP3   OH241457   8.201   0.503   3.027
13839TIP3    H141458   8.135   0.529   3.092
13839TIP3    H241459   8.236   0.586   2.995
13840TIP3   OH241460   6.872   5.191   5.509
13840TIP3    H141461   6.907   5.259   5.451
13840TIP3    H241462   6.844   5.238   5.587
13841TIP3   OH241463   7.539   2.193   1.070
13841TIP3    H141464   7.568   2.161   0.985
13841TIP3    H241465   7.534   2.288   1.059
13842TIP3   OH241466   7.852   3.762   6.411
13842TIP3    H141467   7.840   3.685   6.356
13842TIP3    H241468   7.786   3.753   6.480
13843TIP3   OH241469   0.352   4.805   2.267
13843TIP3    H141470   0.444   4.830   2.253
13843TIP3    H241471   0.302   4.874   2.223
13844TIP3   OH241472   6.464   1.222   2.997
13844TIP3    H141473   6.430   1.137   2.971
13844TIP3    H241474   6.404   1.253   3.065
13845TIP3   OH241475   7.428   5.058   1.164
13845TIP3    H141476   7.380   5.139   1.184
13845TIP3    H241477   7.438   5.015   1.248
13846TIP3   OH241478   1.402   5.065   1.378
13846TIP3    H141479   1.373   5.104   1.460
13846TIP3    H241480   1.482   5.017   1.401
13847TIP3   OH241481   3.896   2.941   6.835
13847TIP3    H141482   3.877   2.998   6.760
13847TIP3    H241483   3.987   2.962   6.857
13848TIP3   OH241484   7.320   0.194   2.518
13848TIP3    H141485   7.355   0.158   2.599
13848TIP3    H241486   7.395   0.232   2.474
13849TIP3   OH241487   0.932   0.528   3.445
13849TIP3    H141488   1.021   0.540   3.415
13849TIP3    H241489   0.936   0.541   3.540
13850TIP3   OH241490   1.412   1.098   3.189
13850TIP3    H141491   1.339   1.128   3.135
13850TIP3    H241492   1.407   1.152   3.268
13851TIP3   OH241493   5.383   2.284   5.279
13851TIP3    H141494   5.312   2.224   5.303
13851TIP3    H241495   5.463   2.235   5.297
13852TIP3   OH241496   0.331   1.972   5.989
13852TIP3    H141497   0.252   1.940   6.031
13852TIP3    H241498   0.403   1.935   6.040
13853TIP3   OH241499   0.668   1.187   5.067
13853TIP3    H141500   0.631   1.275   5.076
13853TIP3    H241501   0.658   1.148   5.154
13854TIP3   OH241502   2.984   5.635   5.706
13854TIP3    H141503   2.968   5.618   5.613
13854TIP3    H241504   2.955   5.726   5.720
13855TIP3   OH241505   4.820   4.290   2.347
13855TIP3    H141506   4.875   4.238   2.405
13855TIP3    H241507   4.873   4.302   2.268
13856TIP3   OH241508   4.086   6.963   0.926
13856TIP3    H141509   4.088   6.940   0.833
13856TIP3    H241510   4.025   6.901   0.965
13857TIP3   OH241511   0.225   0.985   0.913
13857TIP3    H141512   0.219   0.924   0.839
13857TIP3    H241513   0.137   0.987   0.950
13858TIP3   OH241514   4.978   4.443   0.733
13858TIP3    H141515   4.918   4.380   0.774
13858TIP3    H241516   4.934   4.470   0.653
13859TIP3   OH241517   0.899   0.658   6.637
13859TIP3    H141518   0.809   0.683   6.658
13859TIP3    H241519   0.946   0.741   6.634
13860TIP3   OH241520   1.058   5.601   4.357
13860TIP3    H141521   1.010   5.595   4.274
13860TIP3    H241522   0.993   5.628   4.421
13861TIP3   OH241523   6.210   6.656   2.993
13861TIP3    H141524   6.140   6.721   2.995
13861TIP3    H241525   6.168   6.577   2.960
13862TIP3   OH241526   1.333   0.543   2.366
13862TIP3    H141527   1.330   0.503   2.279
13862TIP3    H241528   1.262   0.607   2.366
13863TIP3   OH241529   7.470   1.163   4.440
13863TIP3    H141530   7.451   1.192   4.529
13863TIP3    H241531   7.564   1.147   4.440
13864TIP3   OH241532   5.548   4.545   0.222
13864TIP3    H141533   5.511   4.542   0.311
13864TIP3    H241534   5.643   4.547   0.236
13865TIP3   OH241535   8.297   2.362   5.019
13865TIP3    H141536   8.262   2.352   5.107
13865TIP3    H241537   8.343   2.446   5.020
13866TIP3   OH241538   7.839   3.546   3.596
13866TIP3    H141539   7.797   3.467   3.562
13866TIP3    H241540   7.811   3.616   3.536
13867TIP3   OH241541   0.699   2.731   1.354
13867TIP3    H141542   0.667   2.771   1.274
13867TIP3    H241543   0.788   2.765   1.365
13868TIP3   OH241544   6.023   4.593   5.202
13868TIP3    H141545   5.929   4.586   5.219
13868TIP3    H241546   6.046   4.681   5.231
13869TIP3   OH241547   2.206   6.070   3.539
13869TIP3    H141548   2.206   5.984   3.581
13869TIP3    H241549   2.281   6.116   3.576
13870TIP3   OH241550   3.270   0.270   2.563
13870TIP3    H141551   3.265   0.207   2.491
13870TIP3    H241552   3.356   0.311   2.552
13871TIP3   OH241553   5.210   4.312   1.868
13871TIP3    H141554   5.271   4.380   1.838
13871TIP3    H241555   5.124   4.347   1.848
13872TIP3   OH241556   3.930   6.918   6.160
13872TIP3    H141557   3.947   6.998   6.111
13872TIP3    H241558   3.955   6.848   6.101
13873TIP3   OH241559   4.714   4.337   2.658
13873TIP3    H141560   4.777   4.404   2.630
13873TIP3    H241561   4.769   4.262   2.683
13874TIP3   OH241562   6.204   4.236   3.268
13874TIP3    H141563   6.118   4.249   3.309
13874TIP3    H241564   6.227   4.146   3.290
13875TIP3   OH241565   0.244   7.270   6.209
13875TIP3    H141566   0.296   7.269   6.128
13875TIP3    H241567   0.200   7.185   6.210
13876TIP3   OH241568   0.294   6.141   1.726
13876TIP3    H141569   0.205   6.147   1.761
13876TIP3    H241570   0.324   6.231   1.720
13877TIP3   OH241571   6.513   2.763   4.399
13877TIP3    H141572   6.578   2.720   4.455
13877TIP3    H241573   6.433   2.766   4.452
13878TIP3   OH241574   2.440   4.685   3.081
13878TIP3    H141575   2.497   4.634   3.138
13878TIP3    H241576   2.386   4.620   3.036
13879TIP3   OH241577   4.056   2.063   6.640
13879TIP3    H141578   4.010   2.063   6.557
13879TIP3    H241579   3.987   2.057   6.706
13880TIP3   OH241580   0.550   0.671   4.722
13880TIP3    H141581   0.479   0.710   4.772
13880TIP3    H241582   0.561   0.728   4.646
13881TIP3   OH241583   3.032   4.516   1.913
13881TIP3    H141584   3.118   4.492   1.946
13881TIP3    H241585   2.974   4.447   1.944
13882TIP3   OH241586   1.431   6.213   3.151
13882TIP3    H141587   1.398   6.215   3.241
13882TIP3    H241588   1.490   6.138   3.149
13883TIP3   OH241589   1.531   4.790   1.665
13883TIP3    H141590   1.484   4.853   1.718
13883TIP3    H241591   1.540   4.832   1.579
13884TIP3   OH241592   5.683   7.922   0.618
13884TIP3    H141593   5.660   7.846   0.564
13884TIP3    H241594   5.620   7.919   0.691
13885TIP3   OH241595   0.290   2.055   2.129
13885TIP3    H141596   0.333   2.060   2.214
13885TIP3    H241597   0.348   2.104   2.070
13886TIP3   OH241598   1.849   4.350   3.767
13886TIP3    H141599   1.787   4.286   3.734
13886TIP3    H241600   1.934   4.306   3.764
13887TIP3   OH241601   2.306   4.113   2.997
13887TIP3    H141602   2.341   4.072   3.076
13887TIP3    H241603   2.216   4.080   2.992
13888TIP3   OH241604   6.795   6.832   5.189
13888TIP3    H141605   6.826   6.915   5.154
13888TIP3    H241606   6.701   6.833   5.174
13889TIP3   OH241607   6.795   4.246   1.588
13889TIP3    H141608   6.782   4.306   1.662
13889TIP3    H241609   6.717   4.190   1.589
13890TIP3   OH241610   7.498   6.974   3.126
13890TIP3    H141611   7.471   7.066   3.135
13890TIP3    H241612   7.522   6.947   3.215
13891TIP3   OH241613   6.973   4.698   3.385
13891TIP3    H141614   6.956   4.792   3.391
13891TIP3    H241615   7.033   4.688   3.311
13892TIP3   OH241616   5.135   7.155   0.377
13892TIP3    H141617   5.185   7.162   0.296
13892TIP3    H241618   5.197   7.179   0.446
13893TIP3   OH241619   5.302   4.172   2.099
13893TIP3    H141620   5.255   4.222   2.031
13893TIP3    H241621   5.394   4.178   2.074
13894TIP3   OH241622   2.769   6.571   5.511
13894TIP3    H141623   2.771   6.490   5.461
13894TIP3    H241624   2.678   6.578   5.540
13895TIP3   OH241625   6.662   6.544   0.634
13895TIP3    H141626   6.748   6.509   0.611
13895TIP3    H241627   6.676   6.588   0.719
13896TIP3   OH241628   8.373   6.928   0.465
13896TIP3    H141629   8.282   6.906   0.486
13896TIP3    H241630   8.380   6.915   0.371
13897TIP3   OH241631   2.613   1.392   4.496
13897TIP3    H141632   2.580   1.339   4.569
13897TIP3    H241633   2.704   1.366   4.486
13898TIP3   OH241634   0.542   3.450   2.713
13898TIP3    H141635   0.591   3.413   2.639
13898TIP3    H241636   0.536   3.378   2.776
13899TIP3   OH241637   3.471   3.158   1.715
13899TIP3    H141638   3.419   3.123   1.788
13899TIP3    H241639   3.425   3.128   1.637
13900TIP3   OH241640   0.271   1.837   1.537
13900TIP3    H141641   0.286   1.746   1.514
13900TIP3    H241642   0.199   1.835   1.600
13901TIP3   OH241643   4.038   7.379   0.246
13901TIP3    H141644   4.055   7.290   0.214
13901TIP3    H241645   3.946   7.376   0.275
13902TIP3   OH241646   0.980   1.754   1.986
13902TIP3    H141647   0.982   1.850   1.986
13902TIP3    H241648   0.914   1.732   1.921
13903TIP3   OH241649   1.132   3.464   1.649
13903TIP3    H141650   1.063   3.434   1.590
13903TIP3    H241651   1.206   3.406   1.630
13904TIP3   OH241652   2.454   5.078   6.805
13904TIP3    H141653   2.432   5.060   6.713
13904TIP3    H241654   2.528   5.138   6.800
13905TIP3   OH241655   3.280   7.656   1.698
13905TIP3    H141656   3.193   7.619   1.684
13905TIP3    H241657   3.298   7.707   1.618
13906TIP3   OH241658   0.964   0.407   3.073
13906TIP3    H141659   1.059   0.407   3.064
13906TIP3    H241660   0.947   0.469   3.145
13907TIP3   OH241661   0.223   5.711   3.281
13907TIP3    H141662   0.230   5.733   3.188
13907TIP3    H241663   0.170   5.782   3.319
13908TIP3   OH241664   1.661   7.572   5.984
13908TIP3    H141665   1.687   7.480   5.994
13908TIP3    H241666   1.566   7.570   5.994
13909TIP3   OH241667   5.478   1.266   3.234
13909TIP3    H141668   5.443   1.187   3.194
13909TIP3    H241669   5.414   1.291   3.300
13910TIP3   OH241670   2.753   1.822   6.135
13910TIP3    H141671   2.732   1.881   6.207
13910TIP3    H241672   2.845   1.839   6.116
13911TIP3   OH241673   3.920   5.823   1.528
13911TIP3    H141674   3.831   5.798   1.502
13911TIP3    H241675   3.959   5.741   1.559
13912TIP3   OH241676   1.033   6.666   6.252
13912TIP3    H141677   0.996   6.751   6.275
13912TIP3    H241678   1.050   6.624   6.336
13913TIP3   OH241679   5.636   4.686   0.918
13913TIP3    H141680   5.553   4.697   0.965
13913TIP3    H241681   5.610   4.675   0.826
13914TIP3   OH241682   5.974   3.794   6.024
13914TIP3    H141683   5.943   3.710   6.058
13914TIP3    H241684   6.068   3.780   6.008
13915TIP3   OH241685   1.776   1.699   4.120
13915TIP3    H141686   1.725   1.720   4.199
13915TIP3    H241687   1.746   1.763   4.055
13916TIP3   OH241688   1.227   7.104   3.833
13916TIP3    H141689   1.306   7.125   3.783
13916TIP3    H241690   1.259   7.048   3.905
13917TIP3   OH241691   1.459   3.711   5.150
13917TIP3    H141692   1.436   3.688   5.060
13917TIP3    H241693   1.378   3.699   5.199
13918TIP3   OH241694   6.281   7.820   4.131
13918TIP3    H141695   6.222   7.767   4.184
13918TIP3    H241696   6.366   7.777   4.138
13919TIP3   OH241697   1.565   1.716   0.714
13919TIP3    H141698   1.545   1.622   0.712
13919TIP3    H241699   1.487   1.757   0.751
13920TIP3   OH241700   4.924   6.559   0.765
13920TIP3    H141701   4.927   6.469   0.795
13920TIP3    H241702   4.934   6.553   0.670
13921TIP3   OH241703   5.306   6.803   5.620
13921TIP3    H141704   5.391   6.782   5.658
13921TIP3    H241705   5.256   6.721   5.626
13922TIP3   OH241706   1.105   2.582   2.267
13922TIP3    H141707   1.191   2.623   2.259
13922TIP3    H241708   1.099   2.524   2.191
13923TIP3   OH241709   2.419   4.214   4.877
13923TIP3    H141710   2.476   4.209   4.801
13923TIP3    H241711   2.331   4.226   4.841
13924TIP3   OH241712   3.086   1.929   6.393
13924TIP3    H141713   3.050   1.957   6.477
13924TIP3    H241714   3.071   2.004   6.335
13925TIP3   OH241715   7.560   4.794   0.907
13925TIP3    H141716   7.466   4.795   0.925
13925TIP3    H241717   7.568   4.747   0.824
13926TIP3   OH241718   4.135   2.362   5.595
13926TIP3    H141719   4.210   2.415   5.570
13926TIP3    H241720   4.154   2.332   5.683
13927TIP3   OH241721   6.984   0.097   2.681
13927TIP3    H141722   7.033   0.180   2.677
13927TIP3    H241723   6.975   0.071   2.589
13928TIP3   OH241724   6.247   1.575   2.420
13928TIP3    H141725   6.187   1.600   2.490
13928TIP3    H241726   6.301   1.505   2.459
13929TIP3   OH241727   2.951   0.741   2.070
13929TIP3    H141728   2.868   0.700   2.044
13929TIP3    H241729   2.987   0.682   2.136
13930TIP3   OH241730   6.969   6.476   0.843
13930TIP3    H141731   6.961   6.460   0.749
13930TIP3    H241732   6.999   6.567   0.850
13931TIP3   OH241733   6.032   0.705   2.736
13931TIP3    H141734   6.033   0.726   2.642
13931TIP3    H241735   5.944   0.728   2.765
13932TIP3   OH241736   4.411   7.512   4.707
13932TIP3    H141737   4.443   7.452   4.775
13932TIP3    H241738   4.316   7.502   4.710
13933TIP3   OH241739   5.176   4.341   4.313
13933TIP3    H141740   5.101   4.311   4.261
13933TIP3    H241741   5.150   4.324   4.404
13934TIP3   OH241742   2.324   6.408   4.949
13934TIP3    H141743   2.253   6.451   4.996
13934TIP3    H241744   2.358   6.475   4.889
13935TIP3   OH241745   4.558   6.491   3.482
13935TIP3    H141746   4.601   6.573   3.507
13935TIP3    H241747   4.581   6.479   3.390
13936TIP3   OH241748   1.501   4.571   0.461
13936TIP3    H141749   1.439   4.576   0.389
13936TIP3    H241750   1.448   4.588   0.539
13937TIP3   OH241751   7.048   5.438   3.022
13937TIP3    H141752   7.013   5.389   2.947
13937TIP3    H241753   7.095   5.373   3.074
13938TIP3   OH241754   1.321   2.818   1.948
13938TIP3    H141755   1.350   2.903   1.913
13938TIP3    H241756   1.400   2.778   1.984
13939TIP3   OH241757   8.033   1.323   0.649
13939TIP3    H141758   7.950   1.282   0.627
13939TIP3    H241759   8.097   1.251   0.650
13940TIP3   OH241760   8.190   0.830   3.870
13940TIP3    H141761   8.194   0.736   3.851
13940TIP3    H241762   8.099   0.846   3.894
13941TIP3   OH241763   6.073   4.820   1.411
13941TIP3    H141764   6.119   4.800   1.493
13941TIP3    H241765   6.137   4.870   1.360
13942TIP3   OH241766   6.949   7.587   3.319
13942TIP3    H141767   6.886   7.560   3.252
13942TIP3    H241768   6.957   7.682   3.307
13943TIP3   OH241769   7.638   0.962   2.040
13943TIP3    H141770   7.616   0.870   2.051
13943TIP3    H241771   7.558   1.003   2.007
13944TIP3   OH241772   0.947   2.829   0.484
13944TIP3    H141773   1.008   2.786   0.544
13944TIP3    H241774   0.959   2.922   0.500
13945TIP3   OH241775   4.500   5.027   0.513
13945TIP3    H141776   4.489   5.112   0.469
13945TIP3    H241777   4.533   4.969   0.444
13946TIP3   OH241778   5.957   0.958   5.039
13946TIP3    H141779   5.995   1.046   5.036
13946TIP3    H241780   5.866   0.970   5.012
13947TIP3   OH241781   2.441   2.369   6.478
13947TIP3    H141782   2.388   2.404   6.549
13947TIP3    H241783   2.519   2.425   6.477
13948TIP3   OH241784   3.870   3.476   0.149
13948TIP3    H141785   3.926   3.526   0.090
13948TIP3    H241786   3.822   3.542   0.198
13949TIP3   OH241787   8.058   4.712   3.027
13949TIP3    H141788   8.076   4.669   2.944
13949TIP3    H241789   8.099   4.656   3.093
13950TIP3   OH241790   5.811   5.932   5.237
13950TIP3    H141791   5.754   5.915   5.313
13950TIP3    H241792   5.786   6.019   5.207
13951TIP3   OH241793   5.646   1.760   1.441
13951TIP3    H141794   5.655   1.665   1.442
13951TIP3    H241795   5.599   1.780   1.522
13952TIP3   OH241796   3.785   2.294   3.353
13952TIP3    H141797   3.803   2.203   3.375
13952TIP3    H241798   3.765   2.293   3.260
13953TIP3   OH241799   7.929   1.761   4.816
13953TIP3    H141800   7.861   1.818   4.780
13953TIP3    H241801   7.881   1.689   4.856
13954TIP3   OH241802   0.930   7.442   1.038
13954TIP3    H141803   0.886   7.483   0.964
13954TIP3    H241804   1.020   7.428   1.008
13955TIP3   OH241805   6.112   3.399   4.046
13955TIP3    H141806   6.175   3.349   3.993
13955TIP3    H241807   6.148   3.488   4.048
13956TIP3   OH241808   3.383   5.722   1.046
13956TIP3    H141809   3.471   5.756   1.037
13956TIP3    H241810   3.357   5.745   1.135
13957TIP3   OH241811   7.545   2.699   2.862
13957TIP3    H141812   7.483   2.691   2.790
13957TIP3    H241813   7.581   2.787   2.854
13958TIP3   OH241814   7.803   6.143   0.078
13958TIP3    H141815   7.817   6.115  -0.013
13958TIP3    H241816   7.731   6.088   0.109
13959TIP3   OH241817   7.009   2.616   4.712
13959TIP3    H141818   6.926   2.584   4.747
13959TIP3    H241819   7.029   2.558   4.639
13960TIP3   OH241820   7.940   2.709   5.522
13960TIP3    H141821   8.002   2.669   5.460
13960TIP3    H241822   7.912   2.790   5.480
13961TIP3   OH241823   8.128   2.858   3.544
13961TIP3    H141824   8.035   2.882   3.542
13961TIP3    H241825   8.166   2.919   3.608
13962TIP3   OH241826   0.859   5.103   2.354
13962TIP3    H141827   0.850   5.018   2.310
13962TIP3    H241828   0.868   5.080   2.447
13963TIP3   OH241829   5.090   0.429   3.574
13963TIP3    H141830   5.056   0.349   3.533
13963TIP3    H241831   5.015   0.488   3.578
13964TIP3   OH241832   0.205   7.012   4.075
13964TIP3    H141833   0.215   7.095   4.121
13964TIP3    H241834   0.294   6.989   4.048
13965TIP3   OH241835   8.317   3.026   2.113
13965TIP3    H141836   8.280   2.959   2.055
13965TIP3    H241837   8.241   3.062   2.160
13966TIP3   OH241838   2.298   3.186   2.040
13966TIP3    H141839   2.305   3.218   1.950
13966TIP3    H241840   2.299   3.091   2.032
13967TIP3   OH241841   2.230   7.050   5.746
13967TIP3    H141842   2.236   7.071   5.840
13967TIP3    H241843   2.231   7.135   5.702
13968TIP3   OH241844   3.645   7.064   6.556
13968TIP3    H141845   3.674   6.974   6.541
13968TIP3    H241846   3.587   7.083   6.483
13969TIP3   OH241847   0.150   5.532   2.835
13969TIP3    H141848   0.241   5.501   2.833
13969TIP3    H241849   0.156   5.624   2.810
13970TIP3   OH241850   0.446   0.895   2.381
13970TIP3    H141851   0.463   0.936   2.465
13970TIP3    H241852   0.448   0.801   2.399
13971TIP3   OH241853   6.719   3.117   0.881
13971TIP3    H141854   6.650   3.167   0.839
13971TIP3    H241855   6.792   3.178   0.891
13972TIP3   OH241856   0.085   2.191   4.905
13972TIP3    H141857   0.006   2.239   4.930
13972TIP3    H241858   0.107   2.224   4.818
13973TIP3   OH241859   0.748   7.025   3.051
13973TIP3    H141860   0.691   7.013   3.127
13973TIP3    H241861   0.772   7.118   3.053
13974TIP3   OH241862   6.259   6.589   0.110
13974TIP3    H141863   6.327   6.651   0.085
13974TIP3    H241864   6.273   6.574   0.203
13975TIP3   OH241865   1.672   4.064   1.913
13975TIP3    H141866   1.761   4.035   1.934
13975TIP3    H241867   1.681   4.157   1.896
13976TIP3   OH241868   3.702   6.680   4.577
13976TIP3    H141869   3.614   6.656   4.605
13976TIP3    H241870   3.750   6.597   4.574
13977TIP3   OH241871   3.454   1.811   4.812
13977TIP3    H141872   3.428   1.870   4.883
13977TIP3    H241873   3.445   1.724   4.849
13978TIP3   OH241874   7.508   3.634   5.392
13978TIP3    H141875   7.564   3.603   5.321
13978TIP3    H241876   7.510   3.729   5.384
13979TIP3   OH241877   3.923   2.115   5.493
13979TIP3    H141878   3.902   2.168   5.570
13979TIP3    H241879   3.989   2.053   5.524
13980TIP3   OH241880   2.244   5.503   2.789
13980TIP3    H141881   2.313   5.565   2.767
13980TIP3    H241882   2.179   5.555   2.837
13981TIP3   OH241883   5.761   2.328   2.764
13981TIP3    H141884   5.724   2.319   2.852
13981TIP3    H241885   5.854   2.308   2.775
13982TIP3   OH241886   6.404   7.718   3.090
13982TIP3    H141887   6.462   7.783   3.128
13982TIP3    H241888   6.359   7.764   3.019
13983TIP3   OH241889   2.385   0.578  -0.002
13983TIP3    H141890   2.420   0.490  -0.013
13983TIP3    H241891   2.462   0.635   0.002
13984TIP3   OH241892   3.552   4.390   2.584
13984TIP3    H141893   3.579   4.307   2.624
13984TIP3    H241894   3.616   4.454   2.615
13985TIP3   OH241895   3.142   2.896   2.178
13985TIP3    H141896   3.089   2.901   2.099
13985TIP3    H241897   3.080   2.907   2.250
13986TIP3   OH241898   3.258   5.759   2.169
13986TIP3    H141899   3.298   5.680   2.207
13986TIP3    H241900   3.239   5.814   2.244
13987TIP3   OH241901   7.045   6.227   3.525
13987TIP3    H141902   7.064   6.299   3.586
13987TIP3    H241903   6.966   6.255   3.480
13988TIP3   OH241904   0.543   7.677   6.653
13988TIP3    H141905   0.506   7.747   6.706
13988TIP3    H241906   0.564   7.608   6.715
13989TIP3   OH241907   1.197   4.316   0.738
13989TIP3    H141908   1.288   4.292   0.721
13989TIP3    H241909   1.165   4.350   0.654
13990TIP3   OH241910   7.764   1.323   4.034
13990TIP3    H141911   7.810   1.268   4.098
13990TIP3    H241912   7.748   1.265   3.960
13991TIP3   OH241913   6.101   5.669   5.878
13991TIP3    H141914   6.119   5.722   5.800
13991TIP3    H241915   6.020   5.705   5.914
13992TIP3   OH241916   1.137   1.331   0.383
13992TIP3    H141917   1.150   1.373   0.468
13992TIP3    H241918   1.109   1.402   0.325
13993TIP3   OH241919   7.483   0.478   0.448
13993TIP3    H141920   7.543   0.463   0.375
13993TIP3    H241921   7.540   0.484   0.525
13994TIP3   OH241922   0.959   0.113   3.346
13994TIP3    H141923   1.001   0.196   3.325
13994TIP3    H241924   0.880   0.137   3.394
13995TIP3   OH241925   5.221   5.638   1.729
13995TIP3    H141926   5.292   5.613   1.788
13995TIP3    H241927   5.235   5.732   1.713
13996TIP3   OH241928   0.309   0.575   3.805
13996TIP3    H141929   0.275   0.604   3.720
13996TIP3    H241930   0.305   0.480   3.802
13997TIP3   OH241931   7.939   6.674   5.677
13997TIP3    H141932   8.018   6.684   5.624
13997TIP3    H241933   7.969   6.635   5.759
13998TIP3   OH241934   5.101   3.907   0.279
13998TIP3    H141935   5.177   3.884   0.224
13998TIP3    H241936   5.109   4.001   0.292
13999TIP3   OH241937   4.638   2.734   2.879
13999TIP3    H141938   4.617   2.706   2.968
13999TIP3    H241939   4.732   2.747   2.879
14000TIP3   OH241940   7.639   5.845   0.804
14000TIP3    H141941   7.610   5.926   0.847
14000TIP3    H241942   7.563   5.786   0.810
14001TIP3   OH241943   8.279   3.279   6.248
14001TIP3    H141944   8.285   3.297   6.342
14001TIP3    H241945   8.186   3.290   6.228
14002TIP3   OH241946   7.788   5.470   2.764
14002TIP3    H141947   7.874   5.507   2.746
14002TIP3    H241948   7.805   5.397   2.824
14003TIP3   OH241949   0.025   4.416   1.795
14003TIP3    H141950   0.105   4.468   1.788
14003TIP3    H241951   0.047   4.347   1.859
14004TIP3   OH241952   6.088   0.851   4.030
14004TIP3    H141953   6.027   0.845   3.957
14004TIP3    H241954   6.152   0.782   4.014
14005TIP3   OH241955   6.781   1.156   6.366
14005TIP3    H141956   6.718   1.147   6.438
14005TIP3    H241957   6.773   1.247   6.338
14006TIP3   OH241958   0.643   7.002   5.729
14006TIP3    H141959   0.679   6.931   5.676
14006TIP3    H241960   0.716   7.062   5.742
14007TIP3   OH241961   3.063   0.124   2.843
14007TIP3    H141962   2.992   0.145   2.903
14007TIP3    H241963   3.064   0.029   2.837
14008TIP3   OH241964   8.391   7.691   3.373
14008TIP3    H141965   8.437   7.733   3.446
14008TIP3    H241966   8.368   7.604   3.407
14009TIP3   OH241967   0.820   5.698   4.506
14009TIP3    H141968   0.787   5.689   4.595
14009TIP3    H241969   0.753   5.748   4.460
14010TIP3   OH241970   3.362   5.883   3.414
14010TIP3    H141971   3.290   5.845   3.363
14010TIP3    H241972   3.378   5.967   3.372
14011TIP3   OH241973   1.345   1.767   3.794
14011TIP3    H141974   1.378   1.857   3.791
14011TIP3    H241975   1.421   1.713   3.774
14012TIP3   OH241976   7.172   7.929   3.711
14012TIP3    H141977   7.199   7.860   3.771
14012TIP3    H241978   7.182   7.890   3.624
14013TIP3   OH241979   1.522   5.511   4.149
14013TIP3    H141980   1.607   5.468   4.150
14013TIP3    H241981   1.463   5.449   4.106
14014TIP3   OH241982   0.751   3.054   3.100
14014TIP3    H141983   0.684   3.103   3.147
14014TIP3    H241984   0.823   3.116   3.089
14015TIP3   OH241985   4.153   1.987   6.256
14015TIP3    H141986   4.224   2.014   6.314
14015TIP3    H241987   4.075   2.031   6.290
14016TIP3   OH241988   2.218   1.460   6.756
14016TIP3    H141989   2.280   1.532   6.769
14016TIP3    H241990   2.175   1.451   6.841
14017TIP3   OH241991   0.313   7.399   2.409
14017TIP3    H141992   0.303   7.483   2.363
14017TIP3    H241993   0.386   7.414   2.469
14018TIP3   OH241994   8.078   1.811   0.513
14018TIP3    H141995   8.075   1.725   0.471
14018TIP3    H241996   8.069   1.873   0.441
14019TIP3   OH241997   5.653   7.630   6.244
14019TIP3    H141998   5.628   7.682   6.167
14019TIP3    H241999   5.603   7.549   6.236
14020TIP3   OH242000   6.724   0.494   2.370
14020TIP3    H142001   6.765   0.411   2.394
14020TIP3    H242002   6.639   0.468   2.334
14021TIP3   OH242003   2.506   7.762   2.179
14021TIP3    H142004   2.495   7.668   2.167
14021TIP3    H242005   2.546   7.772   2.265
14022TIP3   OH242006   5.740   1.001   0.284
14022TIP3    H142007   5.759   1.030   0.195
14022TIP3    H242008   5.688   0.921   0.272
14023TIP3   OH242009   5.020   0.850   5.316
14023TIP3    H142010   5.036   0.906   5.392
14023TIP3    H242011   5.067   0.892   5.244
14024TIP3   OH242012   7.188   5.214   5.514
14024TIP3    H142013   7.207   5.196   5.422
14024TIP3    H242014   7.113   5.274   5.512
14025TIP3   OH242015   0.514   5.728   2.108
14025TIP3    H142016   0.480   5.660   2.166
14025TIP3    H242017   0.468   5.808   2.135
14026TIP3   OH242018   2.984   4.615   0.391
14026TIP3    H142019   3.054   4.592   0.330
14026TIP3    H242020   2.904   4.583   0.349
14027TIP3   OH242021   7.105   6.679   2.333
14027TIP3    H142022   7.138   6.590   2.319
14027TIP3    H242023   7.140   6.704   2.419
14028TIP3   OH242024  -0.015   3.608   2.168
14028TIP3    H142025   0.021   3.564   2.244
14028TIP3    H242026   0.042   3.583   2.096
14029TIP3   OH242027   1.987   4.071   5.641
14029TIP3    H142028   2.081   4.056   5.646
14029TIP3    H242029   1.961   4.097   5.729
14030TIP3   OH242030   7.529   7.836   2.374
14030TIP3    H142031   7.612   7.811   2.415
14030TIP3    H242032   7.465   7.834   2.445
14031TIP3   OH242033   5.782   6.339   2.159
14031TIP3    H142034   5.802   6.405   2.226
14031TIP3    H242035   5.757   6.389   2.082
14032TIP3   OH242036   8.132   7.256   5.458
14032TIP3    H142037   8.047   7.270   5.500
14032TIP3    H242038   8.111   7.222   5.372
14033TIP3   OH242039   2.799   0.512   4.020
14033TIP3    H142040   2.730   0.522   3.955
14033TIP3    H242041   2.776   0.574   4.089
14034TIP3   OH242042   0.771   7.039   5.188
14034TIP3    H142043   0.842   7.083   5.236
14034TIP3    H242044   0.764   6.953   5.230
14035TIP3   OH242045   4.955   4.921   3.680
14035TIP3    H142046   4.996   4.845   3.721
14035TIP3    H242047   4.910   4.966   3.752
14036TIP3   OH242048   1.499   0.273   3.702
14036TIP3    H142049   1.427   0.303   3.756
14036TIP3    H242050   1.486   0.178   3.694
14037TIP3   OH242051   4.822   6.201   4.521
14037TIP3    H142052   4.775   6.216   4.602
14037TIP3    H242053   4.904   6.159   4.548
14038TIP3   OH242054   0.177   1.157   3.184
14038TIP3    H142055   0.086   1.178   3.164
14038TIP3    H242056   0.181   1.157   3.280
14039TIP3   OH242057   4.296   2.882   1.134
14039TIP3    H142058   4.270   2.947   1.199
14039TIP3    H242059   4.316   2.803   1.185
14040TIP3   OH242060   4.793   2.926   3.699
14040TIP3    H142061   4.847   2.917   3.778
14040TIP3    H242062   4.760   2.838   3.682
14041TIP3   OH242063   5.301   5.392   3.642
14041TIP3    H142064   5.334   5.309   3.606
14041TIP3    H242065   5.312   5.455   3.571
14042TIP3   OH242066   0.103   2.032   0.344
14042TIP3    H142067   0.023   2.035   0.293
14042TIP3    H242068   0.120   1.938   0.357
14043TIP3   OH242069   6.619   3.479   3.189
14043TIP3    H142070   6.614   3.445   3.278
14043TIP3    H242071   6.546   3.437   3.143
14044TIP3   OH242072   0.288   3.704   6.467
14044TIP3    H142073   0.372   3.659   6.462
14044TIP3    H242074   0.255   3.701   6.377
14045TIP3   OH242075   3.963   6.871   3.449
14045TIP3    H142076   3.911   6.913   3.381
14045TIP3    H242077   3.905   6.867   3.525
14046TIP3   OH242078   0.042   1.195   1.661
14046TIP3    H142079   0.021   1.178   1.753
14046TIP3    H242080  -0.035   1.165   1.613
14047TIP3   OH242081   7.741   3.007   0.187
14047TIP3    H142082   7.828   3.047   0.196
14047TIP3    H242083   7.732   2.989   0.094
14048TIP3   OH242084   3.617   7.232   0.718
14048TIP3    H142085   3.661   7.289   0.655
14048TIP3    H242086   3.639   7.268   0.803
14049TIP3   OH242087   2.006   7.841   3.256
14049TIP3    H142088   1.935   7.815   3.198
14049TIP3    H242089   1.991   7.934   3.273
14050TIP3   OH242090   2.889   0.441   5.174
14050TIP3    H142091   2.967   0.490   5.201
14050TIP3    H242092   2.890   0.446   5.079
14051TIP3   OH242093   1.615   3.369   1.872
14051TIP3    H142094   1.665   3.353   1.952
14051TIP3    H242095   1.678   3.411   1.813
14052TIP3   OH242096   6.704   2.415   3.075
14052TIP3    H142097   6.671   2.480   3.136
14052TIP3    H242098   6.692   2.454   2.989
14053TIP3   OH242099   6.633   5.034   0.779
14053TIP3    H142100   6.570   4.987   0.724
14053TIP3    H242101   6.662   5.108   0.725
14054TIP3   OH242102   0.610   6.636   2.872
14054TIP3    H142103   0.552   6.708   2.850
14054TIP3    H242104   0.678   6.638   2.804
14055TIP3   OH242105   1.529   7.704   6.700
14055TIP3    H142106   1.570   7.748   6.625
14055TIP3    H242107   1.451   7.756   6.719
14056TIP3   OH242108   5.762   7.073   4.647
14056TIP3    H142109   5.786   7.059   4.556
14056TIP3    H242110   5.809   7.152   4.673
14057TIP3   OH242111   3.070   4.044   4.723
14057TIP3    H142112   3.028   4.085   4.648
14057TIP3    H242113   3.146   4.099   4.742
14058TIP3   OH242114   5.192   6.137   3.735
14058TIP3    H142115   5.138   6.161   3.810
14058TIP3    H242116   5.277   6.115   3.773
14059TIP3   OH242117   5.367   7.661   4.304
14059TIP3    H142118   5.290   7.650   4.248
14059TIP3    H242119   5.368   7.583   4.360
14060TIP3   OH242120   6.929   7.693   3.597
14060TIP3    H142121   6.948   7.655   3.512
14060TIP3    H242122   6.945   7.622   3.659
14061TIP3   OH242123   6.008   4.206   4.288
14061TIP3    H142124   5.982   4.117   4.316
14061TIP3    H242125   5.940   4.263   4.325
14062TIP3   OH242126   1.110   0.095   1.277
14062TIP3    H142127   1.052   0.122   1.348
14062TIP3    H242128   1.117   0.172   1.220
14063TIP3   OH242129   3.231   7.757   0.986
14063TIP3    H142130   3.240   7.849   1.011
14063TIP3    H242131   3.190   7.760   0.900
14064TIP3   OH242132   5.631   6.970   3.993
14064TIP3    H142133   5.598   6.990   3.906
14064TIP3    H242134   5.560   6.924   4.036
14065TIP3   OH242135   1.175   3.037   4.930
14065TIP3    H142136   1.226   2.971   4.978
14065TIP3    H242137   1.178   3.115   4.985
14066TIP3   OH242138   2.051   3.242   3.530
14066TIP3    H142139   2.083   3.155   3.505
14066TIP3    H242140   2.108   3.268   3.602
14067TIP3   OH242141   7.014   1.567   2.744
14067TIP3    H142142   7.084   1.577   2.679
14067TIP3    H242143   6.967   1.651   2.741
14068TIP3   OH242144   3.161   0.936   6.178
14068TIP3    H142145   3.230   0.879   6.145
14068TIP3    H242146   3.081   0.883   6.170
14069TIP3   OH242147   3.339   6.944   2.360
14069TIP3    H142148   3.342   7.024   2.411
14069TIP3    H242149   3.352   6.973   2.269
14070TIP3   OH242150   7.198   2.797   6.777
14070TIP3    H142151   7.106   2.805   6.750
14070TIP3    H242152   7.195   2.739   6.854
14071TIP3   OH242153   3.034   4.452   0.709
14071TIP3    H142154   3.124   4.475   0.686
14071TIP3    H242155   2.981   4.497   0.643
14072TIP3   OH242156   5.405   2.181   3.538
14072TIP3    H142157   5.362   2.208   3.457
14072TIP3    H242158   5.487   2.140   3.510
14073TIP3   OH242159   2.940   7.876   3.183
14073TIP3    H142160   3.036   7.874   3.178
14073TIP3    H242161   2.916   7.955   3.134
14074TIP3   OH242162   3.341   6.895   3.371
14074TIP3    H142163   3.262   6.845   3.353
14074TIP3    H242164   3.350   6.894   3.466
14075TIP3   OH242165   7.865   3.839   4.032
14075TIP3    H142166   7.959   3.860   4.027
14075TIP3    H242167   7.830   3.903   4.093
14076TIP3   OH242168   6.157   6.353   6.423
14076TIP3    H142169   6.179   6.351   6.330
14076TIP3    H242170   6.222   6.410   6.462
14077TIP3   OH242171   1.551   1.156   2.814
14077TIP3    H142172   1.540   1.200   2.898
14077TIP3    H242173   1.502   1.210   2.752
14078TIP3   OH242174   7.583   2.660   1.740
14078TIP3    H142175   7.509   2.607   1.770
14078TIP3    H242176   7.593   2.635   1.648
14079TIP3   OH242177   1.188   0.364   5.726
14079TIP3    H142178   1.239   0.385   5.804
14079TIP3    H242179   1.098   0.388   5.748
14080TIP3   OH242180   6.256   3.722   6.657
14080TIP3    H142181   6.176   3.732   6.710
14080TIP3    H242182   6.305   3.802   6.674
14081TIP3   OH242183   0.780   7.920   4.023
14081TIP3    H142184   0.755   7.872   4.102
14081TIP3    H242185   0.697   7.943   3.982
14082TIP3   OH242186   7.445   6.455   5.497
14082TIP3    H142187   7.403   6.374   5.526
14082TIP3    H242188   7.539   6.435   5.497
14083TIP3   OH242189   1.487   5.107   4.996
14083TIP3    H142190   1.413   5.164   5.017
14083TIP3    H242191   1.549   5.121   5.067
14084TIP3   OH242192   8.447   4.693   5.182
14084TIP3    H142193   8.526   4.644   5.205
14084TIP3    H242194   8.441   4.686   5.087
14085TIP3   OH242195   0.406   7.043   5.595
14085TIP3    H142196   0.438   7.036   5.505
14085TIP3    H242197   0.480   7.015   5.649
14086TIP3   OH242198   6.009   1.382   1.079
14086TIP3    H142199   6.093   1.422   1.057
14086TIP3    H242200   5.946   1.454   1.073
14087TIP3   OH242201   1.551   6.450   4.727
14087TIP3    H142202   1.484   6.445   4.795
14087TIP3    H242203   1.502   6.463   4.646
14088TIP3   OH242204   7.386   7.529   6.370
14088TIP3    H142205   7.304   7.505   6.328
14088TIP3    H242206   7.451   7.472   6.329
14089TIP3   OH242207   6.403   3.298   5.487
14089TIP3    H142208   6.376   3.275   5.576
14089TIP3    H242209   6.468   3.231   5.463
14090TIP3   OH242210   7.983   1.971   2.457
14090TIP3    H142211   7.952   1.965   2.366
14090TIP3    H242212   7.953   2.057   2.487
14091TIP3   OH242213   7.138   3.520   6.703
14091TIP3    H142214   7.171   3.441   6.744
14091TIP3    H242215   7.091   3.566   6.773
14092TIP3   OH242216   1.264   0.471   0.292
14092TIP3    H142217   1.251   0.566   0.298
14092TIP3    H242218   1.330   0.452   0.358
14093TIP3   OH242219   8.078   4.372   2.503
14093TIP3    H142220   8.044   4.362   2.592
14093TIP3    H242221   8.174   4.371   2.513
14094TIP3   OH242222   6.732   2.135   4.740
14094TIP3    H142223   6.806   2.193   4.756
14094TIP3    H242224   6.742   2.106   4.649
14095TIP3   OH242225   0.333   6.453   4.411
14095TIP3    H142226   0.323   6.413   4.498
14095TIP3    H242227   0.344   6.546   4.429
14096TIP3   OH242228   5.028   2.515   5.974
14096TIP3    H142229   4.992   2.434   5.936
14096TIP3    H242230   4.963   2.582   5.953
14097TIP3   OH242231   2.419   1.221   1.790
14097TIP3    H142232   2.510   1.195   1.804
14097TIP3    H242233   2.419   1.261   1.703
14098TIP3   OH242234   7.745   5.714   2.487
14098TIP3    H142235   7.790   5.795   2.462
14098TIP3    H242236   7.677   5.703   2.420
14099TIP3   OH242237   4.449   7.228   6.310
14099TIP3    H142238   4.469   7.286   6.236
14099TIP3    H242239   4.469   7.281   6.388
14100TIP3   OH242240   4.104   7.365   6.516
14100TIP3    H142241   4.036   7.305   6.545
14100TIP3    H242242   4.086   7.446   6.564
14101TIP3   OH242243   6.524   1.204   1.621
14101TIP3    H142244   6.470   1.196   1.543
14101TIP3    H242245   6.464   1.190   1.695
14102TIP3   OH242246   8.159   3.254   1.625
14102TIP3    H142247   8.173   3.347   1.610
14102TIP3    H242248   8.162   3.214   1.538
14103TIP3   OH242249   3.154   0.817   4.017
14103TIP3    H142250   3.160   0.823   4.112
14103TIP3    H242251   3.101   0.739   4.001
14104TIP3   OH242252   5.871   7.058   4.121
14104TIP3    H142253   5.938   7.010   4.073
14104TIP3    H242254   5.789   7.029   4.083
14105TIP3   OH242255   3.392   1.388   2.611
14105TIP3    H142256   3.444   1.444   2.554
14105TIP3    H242257   3.328   1.447   2.651
14106TIP3   OH242258   4.599   6.431   4.878
14106TIP3    H142259   4.591   6.524   4.899
14106TIP3    H242260   4.655   6.396   4.947
14107TIP3   OH242261   2.106   0.272   6.090
14107TIP3    H142262   2.154   0.256   6.171
14107TIP3    H242263   2.162   0.332   6.040
14108TIP3   OH242264   1.219   4.698   2.309
14108TIP3    H142265   1.197   4.706   2.402
14108TIP3    H242266   1.230   4.789   2.280
14109TIP3   OH242267   4.287   0.308   4.841
14109TIP3    H142268   4.229   0.382   4.861
14109TIP3    H242269   4.374   0.347   4.832
14110TIP3   OH242270   1.255   0.300   3.298
14110TIP3    H142271   1.262   0.322   3.206
14110TIP3    H242272   1.317   0.229   3.311
14111TIP3   OH242273   8.183   3.453   5.028
14111TIP3    H142274   8.179   3.433   5.121
14111TIP3    H242275   8.121   3.526   5.017
14112TIP3   OH242276   5.740   6.016   2.899
14112TIP3    H142277   5.829   6.050   2.903
14112TIP3    H242278   5.685   6.094   2.891
14113TIP3   OH242279   5.594   3.799   4.944
14113TIP3    H142280   5.650   3.744   4.998
14113TIP3    H242281   5.650   3.829   4.873
14114TIP3   OH242282   4.096   6.399   1.065
14114TIP3    H142283   4.055   6.314   1.052
14114TIP3    H242284   4.161   6.406   0.995
14115TIP3   OH242285   5.560   0.114   5.753
14115TIP3    H142286   5.575   0.185   5.816
14115TIP3    H242287   5.521   0.158   5.677
14116TIP3   OH242288   3.130   0.207   5.536
14116TIP3    H142289   3.153   0.118   5.512
14116TIP3    H242290   3.131   0.255   5.453
14117TIP3   OH242291   4.527   4.389   5.288
14117TIP3    H142292   4.617   4.362   5.267
14117TIP3    H242293   4.521   4.378   5.383
14118TIP3   OH242294   5.294   1.283   4.304
14118TIP3    H142295   5.350   1.312   4.232
14118TIP3    H242296   5.271   1.193   4.282
14119TIP3   OH242297   4.054   6.222   3.468
14119TIP3    H142298   4.055   6.163   3.393
14119TIP3    H242299   4.098   6.174   3.538
14120TIP3   OH242300   2.348   7.367   1.546
14120TIP3    H142301   2.443   7.355   1.549
14120TIP3    H242302   2.336   7.462   1.546
14121TIP3   OH242303   1.512   6.657   4.304
14121TIP3    H142304   1.473   6.657   4.217
14121TIP3    H242305   1.602   6.686   4.291
14122TIP3   OH242306   0.622   0.482   2.070
14122TIP3    H142307   0.630   0.570   2.033
14122TIP3    H242308   0.702   0.470   2.121
14123TIP3   OH242309   7.194   3.865   1.049
14123TIP3    H142310   7.198   3.909   1.134
14123TIP3    H242311   7.258   3.795   1.055
14124TIP3   OH242312   7.610   0.144   4.090
14124TIP3    H142313   7.571   0.224   4.056
14124TIP3    H242314   7.571   0.133   4.176
14125TIP3   OH242315   1.145   2.765   0.676
14125TIP3    H142316   1.174   2.756   0.767
14125TIP3    H242317   1.225   2.786   0.628
14126TIP3   OH242318   1.740   3.648   0.970
14126TIP3    H142319   1.677   3.630   1.041
14126TIP3    H242320   1.794   3.569   0.966
14127TIP3   OH242321   5.684   2.319   1.345
14127TIP3    H142322   5.755   2.332   1.281
14127TIP3    H242323   5.615   2.275   1.294
14128TIP3   OH242324   4.348   5.913   2.407
14128TIP3    H142325   4.388   5.922   2.320
14128TIP3    H242326   4.310   5.825   2.406
14129TIP3   OH242327   0.680   6.221   0.181
14129TIP3    H142328   0.751   6.240   0.120
14129TIP3    H242329   0.604   6.268   0.145
14130TIP3   OH242330   1.824   2.559   5.995
14130TIP3    H142331   1.853   2.468   6.010
14130TIP3    H242332   1.836   2.602   6.080
14131TIP3   OH242333   0.343   4.524   5.996
14131TIP3    H142334   0.361   4.499   6.086
14131TIP3    H242335   0.306   4.445   5.956
14132TIP3   OH242336   1.753   2.426   3.905
14132TIP3    H142337   1.677   2.382   3.945
14132TIP3    H242338   1.817   2.431   3.976
14133TIP3   OH242339   1.516   4.394   6.646
14133TIP3    H142340   1.561   4.339   6.583
14133TIP3    H242341   1.486   4.469   6.595
14134TIP3   OH242342   0.734   4.552   3.183
14134TIP3    H142343   0.666   4.529   3.247
14134TIP3    H242344   0.731   4.647   3.178
14135TIP3   OH242345   7.934   5.636   6.241
14135TIP3    H142346   7.866   5.697   6.269
14135TIP3    H242347   7.904   5.551   6.274
14136TIP3   OH242348   8.128   0.158   2.786
14136TIP3    H142349   8.099   0.241   2.749
14136TIP3    H242350   8.201   0.181   2.842
14137TIP3   OH242351   1.836   4.553   5.276
14137TIP3    H142352   1.755   4.504   5.262
14137TIP3    H242353   1.824   4.634   5.225
14138TIP3   OH242354   0.047   2.637   1.797
14138TIP3    H142355  -0.004   2.716   1.775
14138TIP3    H242356   0.015   2.571   1.736
14139TIP3   OH242357   8.035   4.813   0.329
14139TIP3    H142358   8.095   4.777   0.265
14139TIP3    H242359   8.083   4.883   0.372
14140TIP3   OH242360   2.630   5.854   2.099
14140TIP3    H142361   2.585   5.828   2.179
14140TIP3    H242362   2.635   5.949   2.104
14141TIP3   OH242363   5.499   4.184   1.080
14141TIP3    H142364   5.554   4.150   1.150
14141TIP3    H242365   5.412   4.147   1.097
14142TIP3   OH242366   6.304   0.043   4.114
14142TIP3    H142367   6.386   0.028   4.067
14142TIP3    H242368   6.332   0.071   4.201
14143TIP3   OH242369   1.922   3.325   3.908
14143TIP3    H142370   1.991   3.286   3.961
14143TIP3    H242371   1.878   3.251   3.866
14144TIP3   OH242372   7.210   5.552   6.039
14144TIP3    H142373   7.129   5.558   5.988
14144TIP3    H242374   7.278   5.533   5.974
14145TIP3   OH242375   2.696   2.147   6.560
14145TIP3    H142376   2.693   2.207   6.634
14145TIP3    H242377   2.652   2.195   6.489
14146TIP3   OH242378   2.118   1.273   2.405
14146TIP3    H142379   2.056   1.302   2.339
14146TIP3    H242380   2.202   1.308   2.376
14147TIP3   OH242381   5.251   1.162   5.706
14147TIP3    H142382   5.277   1.172   5.614
14147TIP3    H242383   5.196   1.083   5.707
14148TIP3   OH242384   7.442   6.777   2.942
14148TIP3    H142385   7.483   6.808   2.861
14148TIP3    H242386   7.475   6.835   3.010
14149TIP3   OH242387   2.753   7.543   2.491
14149TIP3    H142388   2.660   7.530   2.511
14149TIP3    H242389   2.757   7.540   2.395
14150TIP3   OH242390   4.960   1.375   3.414
14150TIP3    H142391   4.972   1.286   3.445
14150TIP3    H242392   5.003   1.430   3.480
14151TIP3   OH242393   4.601   7.581   4.141
14151TIP3    H142394   4.642   7.627   4.069
14151TIP3    H242395   4.675   7.554   4.197
14152TIP3   OH242396   4.855   6.644   2.182
14152TIP3    H142397   4.900   6.625   2.100
14152TIP3    H242398   4.919   6.693   2.234
14153TIP3   OH242399   1.307   7.071   0.504
14153TIP3    H142400   1.323   7.084   0.597
14153TIP3    H242401   1.211   7.074   0.495
14154TIP3   OH242402   2.839   6.599   3.016
14154TIP3    H142403   2.816   6.509   3.040
14154TIP3    H242404   2.775   6.653   3.063
14155TIP3   OH242405   4.710   1.682   3.960
14155TIP3    H142406   4.726   1.743   3.888
14155TIP3    H242407   4.705   1.737   4.038
14156TIP3   OH242408   4.400   6.087   4.776
14156TIP3    H142409   4.464   6.147   4.738
14156TIP3    H242410   4.414   6.004   4.729
14157TIP3   OH242411   1.932   3.514   2.362
14157TIP3    H142412   1.913   3.425   2.332
14157TIP3    H242413   1.974   3.503   2.447
14158TIP3   OH242414   5.931   2.763   1.251
14158TIP3    H142415   5.942   2.687   1.193
14158TIP3    H242416   5.898   2.726   1.333
14159TIP3   OH242417   1.870   0.981   3.639
14159TIP3    H142418   1.788   0.935   3.618
14159TIP3    H242419   1.915   0.988   3.555
14160TIP3   OH242420   5.716   5.057   6.157
14160TIP3    H142421   5.649   5.018   6.212
14160TIP3    H242422   5.676   5.063   6.070
14161TIP3   OH242423   8.403   5.874   1.847
14161TIP3    H142424   8.350   5.796   1.836
14161TIP3    H242425   8.411   5.911   1.759
14162TIP3   OH242426   2.573   5.735   1.855
14162TIP3    H142427   2.482   5.707   1.866
14162TIP3    H242428   2.591   5.787   1.933
14163TIP3   OH242429   6.245   2.543   2.563
14163TIP3    H142430   6.312   2.504   2.506
14163TIP3    H242431   6.185   2.470   2.583
14164TIP3   OH242432   6.350   7.429   5.261
14164TIP3    H142433   6.432   7.460   5.223
14164TIP3    H242434   6.285   7.494   5.233
14165TIP3   OH242435   0.685   4.873   3.826
14165TIP3    H142436   0.779   4.864   3.837
14165TIP3    H242437   0.665   4.820   3.748
14166TIP3   OH242438   0.447   3.870   0.185
14166TIP3    H142439   0.538   3.890   0.207
14166TIP3    H242440   0.447   3.856   0.090
14167TIP3   OH242441   1.204   1.462   1.416
14167TIP3    H142442   1.158   1.513   1.483
14167TIP3    H242443   1.175   1.499   1.333
14168TIP3   OH242444   5.101   5.165   3.307
14168TIP3    H142445   5.077   5.092   3.250
14168TIP3    H242446   5.122   5.124   3.391
14169TIP3   OH242447   6.481   0.286   6.653
14169TIP3    H142448   6.538   0.335   6.593
14169TIP3    H242449   6.473   0.342   6.730
14170TIP3   OH242450   0.063   2.720   2.339
14170TIP3    H142451   0.040   2.666   2.264
14170TIP3    H242452   0.070   2.809   2.304
14171TIP3   OH242453   5.700   1.204   6.678
14171TIP3    H142454   5.773   1.186   6.737
14171TIP3    H242455   5.737   1.191   6.590
14172TIP3   OH242456   3.644   7.398   5.163
14172TIP3    H142457   3.574   7.340   5.194
14172TIP3    H242458   3.598   7.479   5.139
14173TIP3   OH242459   3.709   6.517   0.348
14173TIP3    H142460   3.687   6.610   0.337
14173TIP3    H242461   3.629   6.478   0.383
14174TIP3   OH242462   6.254   6.802   6.206
14174TIP3    H142463   6.182   6.860   6.231
14174TIP3    H242464   6.213   6.735   6.151
14175TIP3   OH242465   6.987   0.004   1.613
14175TIP3    H142466   7.011   0.067   1.681
14175TIP3    H242467   6.894  -0.011   1.626
14176TIP3   OH242468   7.656   2.829   5.592
14176TIP3    H142469   7.655   2.799   5.683
14176TIP3    H242470   7.585   2.894   5.588
14177TIP3   OH242471   0.783   1.634   1.822
14177TIP3    H142472   0.760   1.628   1.729
14177TIP3    H242473   0.703   1.662   1.865
14178TIP3   OH242474   6.547   6.896   6.739
14178TIP3    H142475   6.506   6.815   6.769
14178TIP3    H242476   6.566   6.945   6.819
14179TIP3   OH242477   4.702   4.986   5.050
14179TIP3    H142478   4.655   4.970   4.969
14179TIP3    H242479   4.787   4.943   5.038
14180TIP3   OH242480   4.512   5.393   3.301
14180TIP3    H142481   4.512   5.486   3.325
14180TIP3    H242482   4.533   5.347   3.382
14181TIP3   OH242483   6.805   4.795   5.281
14181TIP3    H142484   6.762   4.759   5.203
14181TIP3    H242485   6.873   4.853   5.246
14182TIP3   OH242486   7.221   3.448   4.772
14182TIP3    H142487   7.212   3.541   4.794
14182TIP3    H242488   7.313   3.428   4.790
14183TIP3   OH242489   7.447   6.940   1.609
14183TIP3    H142490   7.450   6.893   1.526
14183TIP3    H242491   7.520   6.905   1.660
14184TIP3   OH242492   7.600   1.933   1.378
14184TIP3    H142493   7.573   1.867   1.442
14184TIP3    H242494   7.557   2.013   1.406
14185TIP3   OH242495   4.299   0.840   3.198
14185TIP3    H142496   4.275   0.821   3.289
14185TIP3    H242497   4.225   0.808   3.147
14186TIP3   OH242498   6.563   7.023   6.497
14186TIP3    H142499   6.547   6.971   6.576
14186TIP3    H242500   6.510   7.102   6.509
14187TIP3   OH242501   8.066   5.406   1.610
14187TIP3    H142502   8.110   5.383   1.692
14187TIP3    H242503   8.115   5.358   1.543
14188TIP3   OH242504   3.264   7.436   5.665
14188TIP3    H142505   3.238   7.433   5.757
14188TIP3    H242506   3.351   7.476   5.666
14189TIP3   OH242507   1.764   2.250   5.906
14189TIP3    H142508   1.676   2.240   5.871
14189TIP3    H242509   1.767   2.190   5.981
14190TIP3   OH242510   2.533   3.901   4.782
14190TIP3    H142511   2.611   3.865   4.824
14190TIP3    H242512   2.464   3.892   4.848
14191TIP3   OH242513   6.156   1.110   4.600
14191TIP3    H142514   6.118   1.156   4.675
14191TIP3    H242515   6.121   1.021   4.606
14192TIP3   OH242516   6.791   7.171   4.148
14192TIP3    H142517   6.739   7.145   4.072
14192TIP3    H242518   6.809   7.090   4.194
14193TIP3   OH242519   5.815   2.809   2.838
14193TIP3    H142520   5.822   2.841   2.748
14193TIP3    H242521   5.903   2.778   2.859
14194TIP3   OH242522   8.187   1.423   1.368
14194TIP3    H142523   8.142   1.406   1.451
14194TIP3    H242524   8.153   1.357   1.308
14195TIP3   OH242525   3.227   0.816   4.288
14195TIP3    H142526   3.181   0.898   4.310
14195TIP3    H242527   3.317   0.843   4.269
14196TIP3   OH242528   7.522   7.651   2.847
14196TIP3    H142529   7.470   7.731   2.857
14196TIP3    H242530   7.466   7.592   2.797
14197TIP3   OH242531   3.253   6.316   4.441
14197TIP3    H142532   3.288   6.403   4.463
14197TIP3    H242533   3.200   6.292   4.517
14198TIP3   OH242534   8.045   0.831   3.334
14198TIP3    H142535   7.970   0.851   3.278
14198TIP3    H242536   8.107   0.902   3.317
14199TIP3   OH242537   6.490   3.872   1.093
14199TIP3    H142538   6.481   3.949   1.037
14199TIP3    H242539   6.479   3.906   1.182
14200TIP3   OH242540   1.370   4.891   4.419
14200TIP3    H142541   1.390   4.837   4.495
14200TIP3    H242542   1.396   4.979   4.444
14201TIP3   OH242543   2.099   0.038   2.147
14201TIP3    H142544   2.044   0.088   2.207
14201TIP3    H242545   2.065   0.061   2.060
14202TIP3   OH242546   5.640   6.254   5.753
14202TIP3    H142547   5.562   6.205   5.727
14202TIP3    H242548   5.692   6.191   5.803
14203TIP3   OH242549   0.128   3.907   5.524
14203TIP3    H142550   0.068   3.914   5.449
14203TIP3    H242551   0.118   3.991   5.570
14204TIP3   OH242552   7.203   1.727   6.657
14204TIP3    H142553   7.184   1.647   6.705
14204TIP3    H242554   7.299   1.731   6.654
14205TIP3   OH242555   2.325   2.628   4.582
14205TIP3    H142556   2.350   2.568   4.512
14205TIP3    H242557   2.240   2.662   4.555
14206TIP3   OH242558   6.536   7.549   3.639
14206TIP3    H142559   6.573   7.620   3.692
14206TIP3    H242560   6.442   7.550   3.660
14207TIP3   OH242561   6.663   0.569   1.633
14207TIP3    H142562   6.742   0.515   1.637
14207TIP3    H242563   6.655   0.606   1.721
14208TIP3   OH242564   2.189   3.377   2.194
14208TIP3    H142565   2.213   3.299   2.145
14208TIP3    H242566   2.141   3.432   2.132
14209TIP3   OH242567   3.114   7.234   1.742
14209TIP3    H142568   3.153   7.245   1.829
14209TIP3    H242569   3.085   7.143   1.740
14210TIP3   OH242570   5.439   4.092   3.804
14210TIP3    H142571   5.397   4.085   3.718
14210TIP3    H242572   5.464   4.184   3.812
14211TIP3   OH242573   6.898   4.100   1.838
14211TIP3    H142574   6.976   4.156   1.842
14211TIP3    H242575   6.902   4.047   1.917
14212TIP3   OH242576   0.202   6.680   2.489
14212TIP3    H142577   0.230   6.768   2.515
14212TIP3    H242578   0.196   6.685   2.393
14213TIP3   OH242579   1.964   6.244   6.678
14213TIP3    H142580   1.976   6.246   6.583
14213TIP3    H242581   1.942   6.153   6.697
14214TIP3   OH242582   0.772   0.052   1.581
14214TIP3    H142583   0.764   0.068   1.487
14214TIP3    H242584   0.724   0.124   1.622
14215TIP3   OH242585   8.287   4.199   4.208
14215TIP3    H142586   8.265   4.157   4.291
14215TIP3    H242587   8.370   4.159   4.182
14216TIP3   OH242588   5.657   6.817   0.384
14216TIP3    H142589   5.752   6.829   0.390
14216TIP3    H242590   5.625   6.899   0.346
14217TIP3   OH242591   7.565   0.518   3.000
14217TIP3    H142592   7.643   0.471   3.031
14217TIP3    H242593   7.521   0.546   3.081
14218TIP3   OH242594   7.841   6.743   0.218
14218TIP3    H142595   7.767   6.698   0.177
14218TIP3    H242596   7.890   6.781   0.145
14219TIP3   OH242597   1.783   0.041   1.224
14219TIP3    H142598   1.740   0.004   1.147
14219TIP3    H242599   1.876   0.026   1.209
14220TIP3   OH242600   3.764   1.738   4.371
14220TIP3    H142601   3.732   1.648   4.362
14220TIP3    H242602   3.741   1.763   4.460
14221TIP3   OH242603   3.010   6.826   6.883
14221TIP3    H142604   3.042   6.850   6.796
14221TIP3    H242605   3.088   6.831   6.940
14222TIP3   OH242606   0.568   3.887   6.780
14222TIP3    H142607   0.607   3.901   6.694
14222TIP3    H242608   0.497   3.951   6.785
14223TIP3   OH242609   2.177   1.616   2.963
14223TIP3    H142610   2.201   1.550   3.028
14223TIP3    H242611   2.082   1.605   2.952
14224TIP3   OH242612   4.414   6.156   2.127
14224TIP3    H142613   4.399   6.249   2.139
14224TIP3    H242614   4.498   6.139   2.170
14225TIP3   OH242615   1.581   3.393   3.813
14225TIP3    H142616   1.574   3.471   3.759
14225TIP3    H242617   1.636   3.419   3.887
14226TIP3   OH242618   2.342   6.510   1.107
14226TIP3    H142619   2.398   6.535   1.180
14226TIP3    H242620   2.260   6.556   1.123
14227TIP3   OH242621   0.909   4.873   2.242
14227TIP3    H142622   0.889   4.800   2.184
14227TIP3    H242623   0.949   4.832   2.319
14228TIP3   OH242624   7.806   3.904   4.682
14228TIP3    H142625   7.779   3.993   4.662
14228TIP3    H242626   7.830   3.866   4.597
14229TIP3   OH242627   3.053   7.536   4.166
14229TIP3    H142628   3.035   7.559   4.075
14229TIP3    H242629   3.000   7.597   4.218
14230TIP3   OH242630   6.485   4.712   1.230
14230TIP3    H142631   6.501   4.701   1.323
14230TIP3    H242632   6.423   4.643   1.207
14231TIP3   OH242633   3.996   4.457   6.502
14231TIP3    H142634   3.933   4.413   6.446
14231TIP3    H242635   3.948   4.533   6.537
14232TIP3   OH242636   3.961   1.235   6.826
14232TIP3    H142637   3.901   1.194   6.764
14232TIP3    H242638   4.016   1.292   6.772
14233TIP3   OH242639   3.434   3.258   3.798
14233TIP3    H142640   3.353   3.210   3.785
14233TIP3    H242641   3.477   3.213   3.871
14234TIP3   OH242642   2.236   3.187   6.043
14234TIP3    H142643   2.176   3.222   5.978
14234TIP3    H242644   2.181   3.134   6.100
14235TIP3   OH242645   2.437   4.263   0.339
14235TIP3    H142646   2.404   4.349   0.312
14235TIP3    H242647   2.373   4.231   0.402
14236TIP3   OH242648   5.852   0.386   3.821
14236TIP3    H142649   5.781   0.325   3.840
14236TIP3    H242650   5.817   0.442   3.751
14237TIP3   OH242651   5.429   5.834   2.041
14237TIP3    H142652   5.442   5.790   2.125
14237TIP3    H242653   5.470   5.920   2.052
14238TIP3   OH242654   7.499   1.458   3.050
14238TIP3    H142655   7.472   1.379   3.097
14238TIP3    H242656   7.457   1.529   3.098
14239TIP3   OH242657   3.568   1.077   3.793
14239TIP3    H142658   3.630   1.069   3.865
14239TIP3    H242659   3.527   0.991   3.785
14240TIP3   OH242660   6.094   0.764   2.435
14240TIP3    H142661   6.174   0.755   2.384
14240TIP3    H242662   6.031   0.801   2.374
14241TIP3   OH242663   4.296   4.117   5.471
14241TIP3    H142664   4.227   4.055   5.494
14241TIP3    H242665   4.323   4.092   5.382
14242TIP3   OH242666   5.325   6.682   4.976
14242TIP3    H142667   5.362   6.747   5.036
14242TIP3    H242668   5.389   6.677   4.905
14243TIP3   OH242669   2.131   0.338   3.981
14243TIP3    H142670   2.071   0.405   4.012
14243TIP3    H242671   2.145   0.359   3.889
14244TIP3   OH242672   7.133   2.092   1.714
14244TIP3    H142673   7.120   1.998   1.700
14244TIP3    H242674   7.197   2.097   1.785
14245TIP3   OH242675   0.837   4.637   2.086
14245TIP3    H142676   0.893   4.578   2.136
14245TIP3    H242677   0.809   4.586   2.010
14246TIP3   OH242678   2.334   5.842   0.949
14246TIP3    H142679   2.343   5.755   0.909
14246TIP3    H242680   2.240   5.860   0.947
14247TIP3   OH242681   7.107   0.016   4.189
14247TIP3    H142682   7.201   0.003   4.176
14247TIP3    H242683   7.096   0.111   4.187
14248TIP3   OH242684   4.996   2.533   0.376
14248TIP3    H142685   4.952   2.589   0.440
14248TIP3    H242686   4.937   2.531   0.301
14249TIP3   OH242687   1.183   3.438   3.941
14249TIP3    H142688   1.256   3.438   3.878
14249TIP3    H242689   1.120   3.376   3.904
14250TIP3   OH242690   7.835   4.339   3.083
14250TIP3    H142691   7.795   4.425   3.080
14250TIP3    H242692   7.880   4.330   2.999
14251TIP3   OH242693   1.428   7.664   0.509
14251TIP3    H142694   1.400   7.686   0.598
14251TIP3    H242695   1.403   7.572   0.498
14252TIP3   OH242696   2.314   7.499   1.082
14252TIP3    H142697   2.356   7.445   1.149
14252TIP3    H242698   2.386   7.533   1.029
14253TIP3   OH242699   0.972   7.543   5.666
14253TIP3    H142700   0.888   7.578   5.636
14253TIP3    H242701   1.036   7.610   5.640
14254TIP3   OH242702   3.968   5.014   4.513
14254TIP3    H142703   3.889   4.970   4.544
14254TIP3    H242704   3.957   5.105   4.539
14255TIP3   OH242705   3.573   1.529   4.338
14255TIP3    H142706   3.515   1.461   4.374
14255TIP3    H242707   3.538   1.547   4.251
14256TIP3   OH242708   0.613   1.503   2.424
14256TIP3    H142709   0.625   1.506   2.329
14256TIP3    H242710   0.518   1.506   2.436
14257TIP3   OH242711   1.558   2.508   5.944
14257TIP3    H142712   1.518   2.477   6.025
14257TIP3    H242713   1.652   2.502   5.960
14258TIP3   OH242714   4.483   6.658   4.426
14258TIP3    H142715   4.456   6.667   4.335
14258TIP3    H242716   4.418   6.708   4.475
14259TIP3   OH242717   4.974   6.768   5.412
14259TIP3    H142718   4.957   6.740   5.502
14259TIP3    H242719   5.067   6.749   5.398
14260TIP3   OH242720   2.967   5.828   4.325
14260TIP3    H142721   2.980   5.790   4.412
14260TIP3    H242722   3.034   5.896   4.319
14261TIP3   OH242723   0.257   2.795   5.751
14261TIP3    H142724   0.296   2.877   5.722
14261TIP3    H242725   0.261   2.738   5.674
14262TIP3   OH242726   8.276   5.697   3.885
14262TIP3    H142727   8.181   5.708   3.896
14262TIP3    H242728   8.312   5.785   3.901
14263TIP3   OH242729   5.240   2.289   1.348
14263TIP3    H142730   5.225   2.310   1.440
14263TIP3    H242731   5.213   2.367   1.300
14264TIP3   OH242732   6.402   6.788   3.295
14264TIP3    H142733   6.468   6.828   3.352
14264TIP3    H242734   6.350   6.734   3.353
14265TIP3   OH242735   6.892   7.031   3.443
14265TIP3    H142736   6.834   6.983   3.503
14265TIP3    H242737   6.891   6.980   3.363
14266TIP3   OH242738   0.116   2.241   4.578
14266TIP3    H142739   0.081   2.182   4.511
14266TIP3    H242740   0.202   2.205   4.598
14267TIP3   OH242741   7.357   4.597   5.397
14267TIP3    H142742   7.391   4.511   5.423
14267TIP3    H242743   7.427   4.658   5.419
14268TIP3   OH242744   5.182   3.230   5.733
14268TIP3    H142745   5.246   3.298   5.716
14268TIP3    H242746   5.141   3.213   5.648
14269TIP3   OH242747   7.941   2.694   1.644
14269TIP3    H142748   7.899   2.777   1.621
14269TIP3    H242749   8.033   2.705   1.621
14270TIP3   OH242750   3.409   1.910   5.423
14270TIP3    H142751   3.380   1.999   5.444
14270TIP3    H242752   3.493   1.923   5.378
14271TIP3   OH242753   6.520   6.092   6.792
14271TIP3    H142754   6.575   6.170   6.802
14271TIP3    H242755   6.498   6.090   6.699
14272TIP3   OH242756   5.271   4.067   1.786
14272TIP3    H142757   5.242   4.150   1.823
14272TIP3    H242758   5.282   4.086   1.692
14273TIP3   OH242759   8.198  -0.007   6.101
14273TIP3    H142760   8.238   0.006   6.187
14273TIP3    H242761   8.137   0.066   6.091
14274TIP3   OH242762   2.409   3.668   5.823
14274TIP3    H142763   2.345   3.737   5.804
14274TIP3    H242764   2.411   3.614   5.744
14275TIP3   OH242765   5.395   6.074   1.829
14275TIP3    H142766   5.348   6.087   1.911
14275TIP3    H242767   5.473   6.128   1.837
14276TIP3   OH242768   1.414   7.280   2.642
14276TIP3    H142769   1.402   7.369   2.608
14276TIP3    H242770   1.326   7.243   2.642
14277TIP3   OH242771   7.131   1.550   6.155
14277TIP3    H142772   7.081   1.580   6.232
14277TIP3    H242773   7.197   1.491   6.191
14278TIP3   OH242774   1.461   3.944   0.105
14278TIP3    H142775   1.485   3.851   0.099
14278TIP3    H242776   1.366   3.944   0.097
14279TIP3   OH242777   0.317   4.106   0.056
14279TIP3    H142778   0.307   4.050   0.133
14279TIP3    H242779   0.408   4.093   0.030
14280TIP3   OH242780   1.984   6.701   1.596
14280TIP3    H142781   1.936   6.753   1.660
14280TIP3    H242782   2.051   6.760   1.562
14281TIP3   OH242783   0.543   3.128   2.123
14281TIP3    H142784   0.605   3.131   2.196
14281TIP3    H242785   0.459   3.152   2.163
14282TIP3   OH242786   6.240   4.187   2.929
14282TIP3    H142787   6.230   4.110   2.985
14282TIP3    H242788   6.181   4.171   2.855
14283TIP3   OH242789   5.963   2.072   6.834
14283TIP3    H142790   5.960   2.124   6.914
14283TIP3    H242791   6.015   1.995   6.857
14284TIP3   OH242792   7.382   0.053   0.438
14284TIP3    H142793   7.331  -0.014   0.392
14284TIP3    H242794   7.419   0.107   0.367
14285TIP3   OH242795   3.429   0.754   6.154
14285TIP3    H142796   3.473   0.690   6.210
14285TIP3    H242797   3.374   0.701   6.097
14286TIP3   OH242798   1.308   7.566   4.849
14286TIP3    H142799   1.233   7.556   4.790
14286TIP3    H242800   1.308   7.659   4.872
14287TIP3   OH242801   4.997   1.331   3.048
14287TIP3    H142802   4.982   1.353   2.956
14287TIP3    H242803   4.989   1.414   3.095
14288TIP3   OH242804   3.440   1.835   1.439
14288TIP3    H142805   3.428   1.780   1.362
14288TIP3    H242806   3.504   1.901   1.412
14289TIP3   OH242807   4.673   5.816   3.360
14289TIP3    H142808   4.675   5.751   3.290
14289TIP3    H242809   4.655   5.899   3.315
14290TIP3   OH242810   0.791   7.248   2.505
14290TIP3    H142811   0.804   7.179   2.570
14290TIP3    H242812   0.777   7.328   2.557
14291TIP3   OH242813   5.231   7.123   5.299
14291TIP3    H142814   5.140   7.116   5.270
14291TIP3    H242815   5.260   7.209   5.266
14292TIP3   OH242816   8.231   3.416   1.149
14292TIP3    H142817   8.267   3.332   1.178
14292TIP3    H242818   8.295   3.481   1.176
14293TIP3   OH242819   3.729   7.647   1.010
14293TIP3    H142820   3.811   7.663   1.057
14293TIP3    H242821   3.742   7.686   0.924
14294TIP3   OH242822   6.131   6.772   5.535
14294TIP3    H142823   6.218   6.769   5.574
14294TIP3    H242824   6.112   6.866   5.528
14295TIP3   OH242825   4.586   4.239   2.922
14295TIP3    H142826   4.655   4.230   2.988
14295TIP3    H242827   4.632   4.266   2.842
14296TIP3   OH242828   7.739   3.842   5.054
14296TIP3    H142829   7.716   3.758   5.015
14296TIP3    H242830   7.657   3.891   5.056
14297TIP3   OH242831   2.198   2.102   2.304
14297TIP3    H142832   2.274   2.099   2.362
14297TIP3    H242833   2.195   2.015   2.263
14298TIP3   OH242834   1.742   6.968   0.052
14298TIP3    H142835   1.701   6.902  -0.004
14298TIP3    H242836   1.836   6.953   0.040
14299TIP3   OH242837   1.977   5.749   0.411
14299TIP3    H142838   2.044   5.789   0.467
14299TIP3    H242839   1.990   5.789   0.325
14300TIP3   OH242840   1.394   1.005   4.938
14300TIP3    H142841   1.323   0.950   4.906
14300TIP3    H242842   1.467   0.985   4.879
14301TIP3   OH242843   1.861   2.339   2.206
14301TIP3    H142844   1.804   2.332   2.283
14301TIP3    H242845   1.869   2.433   2.192
14302TIP3   OH242846   6.737   7.223   0.400
14302TIP3    H142847   6.774   7.310   0.388
14302TIP3    H242848   6.813   7.165   0.408
14303TIP3   OH242849   5.422   4.723   5.599
14303TIP3    H142850   5.349   4.739   5.659
14303TIP3    H242851   5.460   4.640   5.628
14304TIP3   OH242852   4.703   1.677   5.365
14304TIP3    H142853   4.795   1.672   5.340
14304TIP3    H242854   4.693   1.763   5.406
14305TIP3   OH242855   0.950   4.837   1.875
14305TIP3    H142856   0.898   4.916   1.889
14305TIP3    H242857   0.895   4.766   1.907
14306TIP3   OH242858   4.473   6.728   3.123
14306TIP3    H142859   4.427   6.724   3.039
14306TIP3    H242860   4.407   6.759   3.185
14307TIP3   OH242861   3.773   5.003   5.975
14307TIP3    H142862   3.815   4.981   6.058
14307TIP3    H242863   3.688   4.960   5.978
14308TIP3   OH242864   5.088   0.020   2.171
14308TIP3    H142865   5.034   0.018   2.250
14308TIP3    H242866   5.152  -0.050   2.184
14309TIP3   OH242867   7.103   0.634   4.737
14309TIP3    H142868   7.129   0.725   4.724
14309TIP3    H242869   7.139   0.588   4.660
14310TIP3   OH242870   4.017   6.929   4.614
14310TIP3    H142871   3.952   6.947   4.682
14310TIP3    H242872   4.035   6.835   4.623
14311TIP3   OH242873   4.727   0.440   3.053
14311TIP3    H142874   4.704   0.513   3.110
14311TIP3    H242875   4.815   0.460   3.022
14312TIP3   OH242876   8.251   7.184   0.469
14312TIP3    H142877   8.170   7.156   0.427
14312TIP3    H242878   8.239   7.164   0.561
14313TIP3   OH242879   3.877   0.835   1.431
14313TIP3    H142880   3.820   0.892   1.380
14313TIP3    H242881   3.952   0.818   1.374
14314TIP3   OH242882   5.208   4.495   5.671
14314TIP3    H142883   5.186   4.402   5.674
14314TIP3    H242884   5.302   4.496   5.653
14315TIP3   OH242885   2.868   2.884   5.729
14315TIP3    H142886   2.810   2.956   5.703
14315TIP3    H242887   2.889   2.902   5.820
14316TIP3   OH242888   5.373   6.727   2.976
14316TIP3    H142889   5.416   6.757   3.056
14316TIP3    H242890   5.426   6.653   2.946
14317TIP3   OH242891   5.816   1.622   1.043
14317TIP3    H142892   5.869   1.645   0.966
14317TIP3    H242893   5.803   1.706   1.088
14318TIP3   OH242894   8.184   1.858   4.807
14318TIP3    H142895   8.182   1.952   4.791
14318TIP3    H242896   8.092   1.832   4.807
14319TIP3   OH242897   2.586   5.245   2.828
14319TIP3    H142898   2.644   5.179   2.867
14319TIP3    H242899   2.506   5.196   2.806
14320TIP3   OH242900   2.053   7.053   6.067
14320TIP3    H142901   2.028   6.978   6.014
14320TIP3    H242902   2.119   7.018   6.128
14321TIP3   OH242903   5.579   7.671   3.291
14321TIP3    H142904   5.656   7.706   3.245
14321TIP3    H242905   5.607   7.664   3.383
14322TIP3   OH242906   1.436   3.079   0.192
14322TIP3    H142907   1.510   3.023   0.217
14322TIP3    H242908   1.460   3.166   0.224
14323TIP3   OH242909   1.735   4.877   6.845
14323TIP3    H142910   1.727   4.796   6.794
14323TIP3    H242911   1.798   4.930   6.797
14324TIP3   OH242912   8.063   2.060   0.962
14324TIP3    H142913   8.061   2.000   0.888
14324TIP3    H242914   8.004   2.021   1.026
14325TIP3   OH242915   0.409   4.616   1.363
14325TIP3    H142916   0.430   4.673   1.290
14325TIP3    H242917   0.436   4.666   1.441
14326TIP3   OH242918   7.652   0.954   1.489
14326TIP3    H142919   7.658   0.935   1.583
14326TIP3    H242920   7.559   0.945   1.468
14327TIP3   OH242921   8.051   6.766   3.257
14327TIP3    H142922   7.976   6.812   3.220
14327TIP3    H242923   8.014   6.688   3.298
14328TIP3   OH242924   3.870   5.319   1.168
14328TIP3    H142925   3.815   5.381   1.121
14328TIP3    H242926   3.953   5.318   1.119
14329TIP3   OH242927   3.478   7.262   4.138
14329TIP3    H142928   3.414   7.327   4.169
14329TIP3    H242929   3.541   7.313   4.087
14330TIP3   OH242930   4.345   6.924   2.400
14330TIP3    H142931   4.404   6.854   2.428
14330TIP3    H242932   4.322   6.970   2.481
14331TIP3   OH242933   4.577   3.494   3.092
14331TIP3    H142934   4.614   3.579   3.116
14331TIP3    H242935   4.640   3.457   3.031
14332TIP3   OH242936   4.004   2.716   4.159
14332TIP3    H142937   3.958   2.640   4.195
14332TIP3    H242938   4.086   2.681   4.125
14333TIP3   OH242939   3.062   0.623   1.034
14333TIP3    H142940   3.129   0.676   1.078
14333TIP3    H242941   3.058   0.543   1.085
14334TIP3   OH242942   3.452   6.135   2.408
14334TIP3    H142943   3.546   6.135   2.428
14334TIP3    H242944   3.409   6.137   2.494
14335TIP3   OH242945   7.077   3.524   6.370
14335TIP3    H142946   7.040   3.612   6.366
14335TIP3    H242947   7.085   3.505   6.463
14336TIP3   OH242948   1.445   1.877   4.343
14336TIP3    H142949   1.468   1.957   4.390
14336TIP3    H242950   1.511   1.814   4.369
14337TIP3   OH242951   4.228   2.714   6.844
14337TIP3    H142952   4.206   2.806   6.854
14337TIP3    H242953   4.290   2.696   6.915
14338TIP3   OH242954   2.613   7.655   1.320
14338TIP3    H142955   2.643   7.564   1.327
14338TIP3    H242956   2.518   7.650   1.329
14339TIP3   OH242957   3.667   6.364   5.239
14339TIP3    H142958   3.646   6.286   5.290
14339TIP3    H242959   3.657   6.337   5.148
14340TIP3   OH242960   2.496   2.102   0.260
14340TIP3    H142961   2.571   2.060   0.302
14340TIP3    H242962   2.502   2.194   0.287
14341TIP3   OH242963   4.715   5.792   5.147
14341TIP3    H142964   4.718   5.873   5.095
14341TIP3    H242965   4.783   5.802   5.213
14342TIP3   OH242966   2.873   2.370   1.103
14342TIP3    H142967   2.857   2.277   1.115
14342TIP3    H242968   2.916   2.376   1.017
14343TIP3   OH242969   6.611   0.279   0.308
14343TIP3    H142970   6.685   0.326   0.269
14343TIP3    H242971   6.537   0.339   0.297
14344TIP3   OH242972   5.057   5.992   5.836
14344TIP3    H142973   5.150   5.987   5.813
14344TIP3    H242974   5.057   5.994   5.932
14345TIP3   OH242975   5.418   1.215   1.185
14345TIP3    H142976   5.354   1.278   1.152
14345TIP3    H242977   5.375   1.130   1.177
14346TIP3   OH242978   4.930   6.122   2.343
14346TIP3    H142979   5.012   6.095   2.385
14346TIP3    H242980   4.893   6.040   2.309
14347TIP3   OH242981   8.401   5.975   5.282
14347TIP3    H142982   8.417   5.886   5.315
14347TIP3    H242983   8.388   5.963   5.188
14348TIP3   OH242984   3.791   4.942   4.115
14348TIP3    H142985   3.727   4.886   4.159
14348TIP3    H242986   3.755   5.030   4.122
14349TIP3   OH242987   2.658   6.736   0.406
14349TIP3    H142988   2.666   6.736   0.501
14349TIP3    H242989   2.663   6.644   0.381
14350TIP3   OH242990   2.113   4.613   2.509
14350TIP3    H142991   2.121   4.649   2.420
14350TIP3    H242992   2.201   4.622   2.546
14351TIP3   OH242993   7.443   7.567   2.318
14351TIP3    H142994   7.466   7.659   2.330
14351TIP3    H242995   7.517   7.519   2.354
14352TIP3   OH242996   4.411   3.479   5.413
14352TIP3    H142997   4.363   3.474   5.331
14352TIP3    H242998   4.495   3.437   5.393
14353TIP3   OH242999   6.191   0.491   5.247
14353TIP3    H143000   6.270   0.436   5.250
14353TIP3    H243001   6.119   0.430   5.260
14354TIP3   OH243002   2.540   2.507   6.236
14354TIP3    H143003   2.448   2.533   6.244
14354TIP3    H243004   2.588   2.570   6.288
14355TIP3   OH243005   0.708   7.398   2.735
14355TIP3    H143006   0.663   7.351   2.805
14355TIP3    H243007   0.772   7.454   2.780
14356TIP3   OH243008   7.971   7.490   5.594
14356TIP3    H143009   7.988   7.457   5.682
14356TIP3    H243010   7.993   7.583   5.599
14357TIP3   OH243011   1.566   4.724   2.462
14357TIP3    H143012   1.539   4.703   2.373
14357TIP3    H243013   1.514   4.664   2.517
14358TIP3   OH243014   8.133   6.831   5.312
14358TIP3    H143015   8.116   6.737   5.309
14358TIP3    H243016   8.130   6.853   5.405
14359TIP3   OH243017   2.806   5.586   6.526
14359TIP3    H143018   2.745   5.581   6.453
14359TIP3    H243019   2.751   5.585   6.604
14360TIP3   OH243020   0.776   2.752   6.041
14360TIP3    H143021   0.682   2.732   6.049
14360TIP3    H243022   0.802   2.780   6.129
14361TIP3   OH243023   4.913   3.680   5.985
14361TIP3    H143024   4.986   3.625   6.012
14361TIP3    H243025   4.849   3.672   6.056
14362TIP3   OH243026   3.383   3.646   4.127
14362TIP3    H143027   3.430   3.728   4.141
14362TIP3    H243028   3.451   3.578   4.136
14363TIP3   OH243029   3.146   2.709   0.473
14363TIP3    H143030   3.102   2.633   0.434
14363TIP3    H243031   3.222   2.724   0.417
14364TIP3   OH243032   4.637   3.675   5.499
14364TIP3    H143033   4.695   3.750   5.486
14364TIP3    H243034   4.605   3.654   5.411
14365TIP3   OH243035   3.434   0.109   4.448
14365TIP3    H143036   3.433   0.166   4.525
14365TIP3    H243037   3.506   0.143   4.395
14366TIP3   OH243038   0.390   4.977   5.137
14366TIP3    H143039   0.426   5.059   5.102
14366TIP3    H243040   0.296   4.985   5.123
14367TIP3   OH243041   0.589   1.863   5.863
14367TIP3    H143042   0.661   1.916   5.898
14367TIP3    H243043   0.589   1.881   5.769
14368TIP3   OH243044   0.127   4.847   3.719
14368TIP3    H143045   0.054   4.784   3.723
14368TIP3    H243046   0.112   4.894   3.637
14369TIP3   OH243047   5.745   7.731   6.503
14369TIP3    H143048   5.837   7.755   6.491
14369TIP3    H243049   5.727   7.669   6.432
14370TIP3   OH243050   0.645   7.859   2.338
14370TIP3    H143051   0.552   7.881   2.346
14370TIP3    H243052   0.688   7.944   2.329
14371TIP3   OH243053   4.258   4.447   5.527
14371TIP3    H143054   4.352   4.426   5.534
14371TIP3    H243055   4.217   4.363   5.506
14372TIP3   OH243056   0.050   4.579   1.113
14372TIP3    H143057   0.092   4.659   1.083
14372TIP3    H243058  -0.026   4.569   1.056
14373TIP3   OH243059   4.414   5.489   2.633
14373TIP3    H143060   4.485   5.497   2.697
14373TIP3    H243061   4.419   5.570   2.583
14374TIP3   OH243062   7.755   7.823   2.552
14374TIP3    H143063   7.747   7.815   2.647
14374TIP3    H243064   7.838   7.870   2.539
14375TIP3   OH243065   6.833   2.610   5.574
14375TIP3    H143066   6.914   2.659   5.559
14375TIP3    H243067   6.848   2.565   5.658
14376TIP3   OH243068   5.995   3.038   0.218
14376TIP3    H143069   6.020   2.958   0.171
14376TIP3    H243070   6.074   3.062   0.267
14377TIP3   OH243071   7.301   4.227   4.171
14377TIP3    H143072   7.303   4.239   4.076
14377TIP3    H243073   7.208   4.230   4.193
14378TIP3   OH243074   7.913   4.597   2.020
14378TIP3    H143075   7.879   4.551   2.096
14378TIP3    H243076   7.959   4.673   2.056
14379TIP3   OH243077   4.549   7.504   1.366
14379TIP3    H143078   4.568   7.419   1.326
14379TIP3    H243079   4.629   7.524   1.416
14380TIP3   OH243080   7.544   5.694   3.882
14380TIP3    H143081   7.592   5.702   3.964
14380TIP3    H243082   7.520   5.784   3.859
14381TIP3   OH243083   2.919   0.200   1.387
14381TIP3    H143084   2.986   0.142   1.350
14381TIP3    H243085   2.836   0.168   1.350
14382TIP3   OH243086   2.028   3.566   0.444
14382TIP3    H143087   2.052   3.658   0.454
14382TIP3    H243088   2.059   3.542   0.357
14383TIP3   OH243089   0.657   1.192   6.094
14383TIP3    H143090   0.664   1.284   6.119
14383TIP3    H243091   0.736   1.175   6.043
14384TIP3   OH243092   6.970   7.338   2.761
14384TIP3    H143093   6.929   7.366   2.679
14384TIP3    H243094   7.064   7.348   2.746
14385TIP3   OH243095   6.359   4.875   1.664
14385TIP3    H143096   6.351   4.965   1.632
14385TIP3    H243097   6.320   4.877   1.751
14386TIP3   OH243098   2.796   1.494   0.164
14386TIP3    H143099   2.853   1.571   0.172
14386TIP3    H243100   2.808   1.447   0.246
14387TIP3   OH243101   0.705   3.223   1.388
14387TIP3    H143102   0.658   3.273   1.455
14387TIP3    H243103   0.679   3.132   1.403
14388TIP3   OH243104   1.853   2.559   4.865
14388TIP3    H143105   1.934   2.555   4.914
14388TIP3    H243106   1.879   2.541   4.774
14389TIP3   OH243107   8.067   2.456   1.253
14389TIP3    H143108   8.128   2.405   1.306
14389TIP3    H243109   8.114   2.472   1.171
14390TIP3   OH243110   6.908   5.002   6.875
14390TIP3    H143111   6.951   4.972   6.795
14390TIP3    H243112   6.952   5.084   6.897
14391TIP3   OH243113   1.002   6.120   6.381
14391TIP3    H143114   0.969   6.046   6.329
14391TIP3    H243115   0.927   6.180   6.386
14392TIP3   OH243116   0.847   3.388   2.850
14392TIP3    H143117   0.762   3.344   2.850
14392TIP3    H243118   0.897   3.342   2.782
14393TIP3   OH243119   5.907   6.217   1.913
14393TIP3    H143120   5.907   6.247   2.004
14393TIP3    H243121   5.831   6.159   1.908
14394TIP3   OH243122   7.854   3.184   1.987
14394TIP3    H143123   7.889   3.213   1.903
14394TIP3    H243124   7.848   3.089   1.979
14395TIP3   OH243125   3.004   5.928   3.044
14395TIP3    H143126   2.922   5.881   3.028
14395TIP3    H243127   3.051   5.873   3.106
14396TIP3   OH243128   7.428   6.449   3.430
14396TIP3    H143129   7.484   6.514   3.387
14396TIP3    H243130   7.450   6.455   3.523
14397TIP3   OH243131   3.542   7.837   4.624
14397TIP3    H143132   3.533   7.930   4.643
14397TIP3    H243133   3.630   7.814   4.652
14398TIP3   OH243134   1.142   5.543   2.812
14398TIP3    H143135   1.072   5.509   2.757
14398TIP3    H243136   1.133   5.638   2.807
14399TIP3   OH243137   2.746   6.918   1.787
14399TIP3    H143138   2.730   6.826   1.805
14399TIP3    H243139   2.659   6.957   1.784
14400TIP3   OH243140   6.582   4.434   1.417
14400TIP3    H143141   6.589   4.526   1.393
14400TIP3    H243142   6.670   4.409   1.444
14401TIP3   OH243143   2.412   6.500   3.679
14401TIP3    H143144   2.343   6.525   3.740
14401TIP3    H243145   2.385   6.536   3.595
14402TIP3   OH243146   5.360   4.370   2.825
14402TIP3    H143147   5.323   4.294   2.870
14402TIP3    H243148   5.310   4.445   2.858
14403TIP3   OH243149   2.873   6.366   2.777
14403TIP3    H143150   2.967   6.380   2.772
14403TIP3    H243151   2.861   6.321   2.861
14404TIP3   OH243152   1.459   3.083   2.078
14404TIP3    H143153   1.461   3.079   1.983
14404TIP3    H243154   1.547   3.056   2.106
14405TIP3   OH243155   1.361   6.970   6.739
14405TIP3    H143156   1.405   6.915   6.674
14405TIP3    H243157   1.359   7.057   6.700
14406TIP3   OH243158   0.214   3.103   5.132
14406TIP3    H143159   0.191   3.013   5.112
14406TIP3    H243160   0.260   3.098   5.216
14407TIP3   OH243161   7.867   6.878   3.079
14407TIP3    H143162   7.862   6.817   3.006
14407TIP3    H243163   7.780   6.917   3.084
14408TIP3   OH243164   1.736   1.448   1.538
14408TIP3    H143165   1.814   1.394   1.524
14408TIP3    H243166   1.731   1.504   1.461
14409TIP3   OH243167   6.641   0.969   2.069
14409TIP3    H143168   6.590   0.889   2.057
14409TIP3    H243169   6.725   0.938   2.103
14410TIP3   OH243170   4.388   4.397   1.796
14410TIP3    H143171   4.469   4.367   1.755
14410TIP3    H243172   4.337   4.433   1.724
14411TIP3   OH243173   7.637   3.024   1.288
14411TIP3    H143174   7.637   2.971   1.209
14411TIP3    H243175   7.544   3.032   1.311
14412TIP3   OH243176   2.269   3.779   4.851
14412TIP3    H143177   2.210   3.732   4.909
14412TIP3    H243178   2.235   3.762   4.763
14413TIP3   OH243179   5.920   0.565   6.312
14413TIP3    H143180   5.861   0.543   6.384
14413TIP3    H243181   5.957   0.650   6.336
14414TIP3   OH243182   4.853   4.733   4.712
14414TIP3    H143183   4.887   4.714   4.625
14414TIP3    H243184   4.878   4.824   4.728
14415TIP3   OH243185   1.398   5.521   0.225
14415TIP3    H143186   1.328   5.585   0.233
14415TIP3    H243187   1.464   5.550   0.288
14416TIP3   OH243188   6.929   7.387   1.315
14416TIP3    H143189   6.862   7.402   1.249
14416TIP3    H243190   6.884   7.338   1.384
14417TIP3   OH243191   4.800   4.639   5.576
14417TIP3    H143192   4.709   4.667   5.590
14417TIP3    H243193   4.824   4.679   5.492
14418TIP3   OH243194   8.307   5.603   5.070
14418TIP3    H143195   8.331   5.641   4.986
14418TIP3    H243196   8.389   5.573   5.108
14419TIP3   OH243197   7.313   4.133   4.595
14419TIP3    H143198   7.235   4.097   4.554
14419TIP3    H243199   7.373   4.151   4.523
14420TIP3   OH243200   1.739   1.208   5.879
14420TIP3    H143201   1.812   1.250   5.834
14420TIP3    H243202   1.661   1.244   5.837
14421TIP3   OH243203   5.929   3.424   4.973
14421TIP3    H143204   6.002   3.434   5.034
14421TIP3    H243205   5.904   3.514   4.951
14422TIP3   OH243206   6.801   5.521   2.298
14422TIP3    H143207   6.845   5.606   2.299
14422TIP3    H243208   6.781   5.505   2.206
14423TIP3   OH243209   7.048   3.611   2.478
14423TIP3    H143210   7.050   3.687   2.537
14423TIP3    H243211   7.096   3.543   2.526
14424TIP3   OH243212   2.884   5.480   0.428
14424TIP3    H143213   2.904   5.422   0.502
14424TIP3    H243214   2.962   5.474   0.372
14425TIP3   OH243215   4.845   3.378   5.080
14425TIP3    H143216   4.829   3.303   5.023
14425TIP3    H243217   4.940   3.390   5.077
14426TIP3   OH243218   7.060   6.171   0.434
14426TIP3    H143219   7.115   6.096   0.412
14426TIP3    H243220   6.972   6.145   0.405
14427TIP3   OH243221   0.289   1.163   2.572
14427TIP3    H143222   0.279   1.162   2.476
14427TIP3    H243223   0.379   1.135   2.586
14428TIP3   OH243224   6.923   7.759   6.677
14428TIP3    H143225   6.964   7.728   6.597
14428TIP3    H243226   6.900   7.851   6.658
14429TIP3   OH243227   4.153   3.258   3.484
14429TIP3    H143228   4.210   3.321   3.528
14429TIP3    H243229   4.073   3.258   3.536
14430TIP3   OH243230   3.276   1.263   6.459
14430TIP3    H143231   3.334   1.223   6.394
14430TIP3    H243232   3.317   1.241   6.543
14431TIP3   OH243233   7.909   5.600   2.186
14431TIP3    H143234   7.844   5.662   2.218
14431TIP3    H243235   7.989   5.622   2.234
14432TIP3   OH243236   2.598   5.490   3.001
14432TIP3    H143237   2.660   5.435   3.049
14432TIP3    H243238   2.560   5.432   2.935
14433TIP3   OH243239   8.117   2.059   3.166
14433TIP3    H143240   8.110   1.989   3.231
14433TIP3    H243241   8.027   2.080   3.144
14434TIP3   OH243242   7.007   2.235   4.745
14434TIP3    H143243   7.062   2.161   4.768
14434TIP3    H243244   7.046   2.310   4.791
14435TIP3   OH243245   3.730   5.711   1.864
14435TIP3    H143246   3.638   5.737   1.865
14435TIP3    H243247   3.734   5.639   1.800
14436TIP3   OH243248   7.618   7.061   2.528
14436TIP3    H143249   7.560   7.100   2.464
14436TIP3    H243250   7.706   7.082   2.496
14437TIP3   OH243251   5.655   0.981   0.763
14437TIP3    H143252   5.688   0.955   0.849
14437TIP3    H243253   5.606   0.904   0.732
14438TIP3   OH243254   7.808   6.342   4.046
14438TIP3    H143255   7.793   6.435   4.027
14438TIP3    H243256   7.722   6.310   4.073
14439TIP3   OH243257   7.658   6.140   5.354
14439TIP3    H143258   7.705   6.178   5.429
14439TIP3    H243259   7.701   6.056   5.338
14440TIP3   OH243260   4.249   7.682   2.835
14440TIP3    H143261   4.305   7.722   2.769
14440TIP3    H243262   4.242   7.749   2.903
14441TIP3   OH243263   6.047   2.022   3.990
14441TIP3    H143264   6.118   2.045   4.049
14441TIP3    H243265   5.999   2.104   3.975
14442TIP3   OH243266   4.915   5.529   1.739
14442TIP3    H143267   4.861   5.541   1.661
14442TIP3    H243268   4.854   5.538   1.812
14443TIP3   OH243269   4.122   6.652   1.668
14443TIP3    H143270   4.207   6.692   1.647
14443TIP3    H243271   4.087   6.626   1.583
14444TIP3   OH243272   5.395   4.202   4.903
14444TIP3    H143273   5.364   4.257   4.975
14444TIP3    H243274   5.445   4.260   4.847
14445TIP3   OH243275   1.965   6.995   2.254
14445TIP3    H143276   2.006   7.051   2.319
14445TIP3    H243277   1.911   7.054   2.201
14446TIP3   OH243278   0.324   7.862   5.759
14446TIP3    H143279   0.242   7.901   5.727
14446TIP3    H243280   0.340   7.905   5.843
14447TIP3   OH243281   6.437   2.678   0.257
14447TIP3    H143282   6.409   2.767   0.235
14447TIP3    H243283   6.492   2.652   0.184
14448TIP3   OH243284   3.943   5.241   4.675
14448TIP3    H143285   3.944   5.223   4.769
14448TIP3    H243286   3.988   5.325   4.667
14449TIP3   OH243287   1.667   1.304   2.048
14449TIP3    H143288   1.606   1.266   2.111
14449TIP3    H243289   1.672   1.238   1.978
14450TIP3   OH243290   3.717   3.055   5.031
14450TIP3    H143291   3.649   3.030   5.093
14450TIP3    H243292   3.799   3.030   5.074
14451TIP3   OH243293   7.507   3.875   1.038
14451TIP3    H143294   7.472   3.900   0.952
14451TIP3    H243295   7.491   3.781   1.044
14452TIP3   OH243296   2.763   6.149   1.074
14452TIP3    H143297   2.774   6.170   1.167
14452TIP3    H243298   2.683   6.097   1.071
14453TIP3   OH243299   8.350   1.524   0.078
14453TIP3    H143300   8.425   1.583   0.067
14453TIP3    H243301   8.274   1.579   0.060
14454TIP3   OH243302   7.897   4.648   2.564
14454TIP3    H143303   7.897   4.581   2.496
14454TIP3    H243304   7.970   4.625   2.621
14455TIP3   OH243305   4.897   1.766   6.121
14455TIP3    H143306   4.969   1.704   6.131
14455TIP3    H243307   4.831   1.737   6.185
14456TIP3   OH243308   3.728   0.187   4.623
14456TIP3    H143309   3.814   0.187   4.665
14456TIP3    H243310   3.737   0.124   4.551
14457TIP3   OH243311   3.517   3.456   6.175
14457TIP3    H143312   3.437   3.509   6.169
14457TIP3    H243313   3.498   3.394   6.246
14458TIP3   OH243314   1.607   2.728   1.976
14458TIP3    H143315   1.687   2.682   2.003
14458TIP3    H243316   1.625   2.820   1.993
14459TIP3   OH243317   4.259   4.657   1.579
14459TIP3    H143318   4.224   4.640   1.667
14459TIP3    H243319   4.278   4.751   1.580
14460TIP3   OH243320   0.964   1.886   2.514
14460TIP3    H143321   0.894   1.840   2.560
14460TIP3    H243322   1.009   1.936   2.582
14461TIP3   OH243323   0.303   4.564   1.744
14461TIP3    H143324   0.354   4.506   1.688
14461TIP3    H243325   0.368   4.614   1.793
14462TIP3   OH243326   7.154   3.165   3.924
14462TIP3    H143327   7.186   3.197   3.840
14462TIP3    H243328   7.182   3.232   3.987
14463TIP3   OH243329   4.672   1.428   3.041
14463TIP3    H143330   4.588   1.474   3.032
14463TIP3    H243331   4.728   1.465   2.973
14464TIP3   OH243332   1.235   0.604   6.385
14464TIP3    H143333   1.245   0.511   6.366
14464TIP3    H243334   1.229   0.646   6.299
14465TIP3   OH243335   6.666   0.990   1.319
14465TIP3    H143336   6.656   1.078   1.284
14465TIP3    H243337   6.719   0.944   1.253
14466TIP3   OH243338   2.019   5.143   1.657
14466TIP3    H143339   2.077   5.074   1.690
14466TIP3    H243340   2.023   5.135   1.562
14467TIP3   OH243341   3.647   2.691   3.959
14467TIP3    H143342   3.588   2.762   3.934
14467TIP3    H243343   3.623   2.670   4.049
14468TIP3   OH243344   5.784   1.489   4.585
14468TIP3    H143345   5.827   1.564   4.543
14468TIP3    H243346   5.821   1.413   4.540
14469TIP3   OH243347   2.778   4.597   2.321
14469TIP3    H143348   2.742   4.657   2.256
14469TIP3    H243349   2.704   4.543   2.348
14470TIP3   OH243350   3.068   2.254   1.299
14470TIP3    H143351   3.044   2.311   1.226
14470TIP3    H243352   3.044   2.304   1.377
14471TIP3   OH243353   3.610   5.331   2.935
14471TIP3    H143354   3.638   5.422   2.941
14471TIP3    H243355   3.691   5.282   2.921
14472TIP3   OH243356   7.229   3.651   5.886
14472TIP3    H143357   7.240   3.699   5.805
14472TIP3    H243358   7.315   3.656   5.929
14473TIP3   OH243359   6.564   3.253   4.517
14473TIP3    H143360   6.528   3.247   4.429
14473TIP3    H243361   6.514   3.324   4.559
14474TIP3   OH243362   6.900   5.886   5.654
14474TIP3    H143363   6.934   5.797   5.662
14474TIP3    H243364   6.979   5.941   5.654
14475TIP3   OH243365   4.164   6.546   1.916
14475TIP3    H143366   4.159   6.587   1.830
14475TIP3    H243367   4.258   6.534   1.932
14476TIP3   OH243368   8.151   4.808   2.394
14476TIP3    H143369   8.162   4.776   2.304
14476TIP3    H243370   8.067   4.772   2.422
14477TIP3   OH243371   2.127   6.333   1.713
14477TIP3    H143372   2.138   6.364   1.623
14477TIP3    H243373   2.139   6.411   1.767
14478TIP3   OH243374   0.637   1.967   2.123
14478TIP3    H143375   0.600   1.909   2.056
14478TIP3    H243376   0.704   1.914   2.166
14479TIP3   OH243377   2.382   1.885   3.101
14479TIP3    H143378   2.375   1.969   3.054
14479TIP3    H243379   2.299   1.841   3.084
14480TIP3   OH243380   0.146   5.705   1.087
14480TIP3    H143381   0.231   5.661   1.089
14480TIP3    H243382   0.102   5.667   1.011
14481TIP3   OH243383   1.953   3.906   1.906
14481TIP3    H143384   2.017   3.881   1.972
14481TIP3    H243385   1.994   3.975   1.856
14482TIP3   OH243386   5.935   2.946   4.767
14482TIP3    H143387   5.892   2.906   4.691
14482TIP3    H243388   5.881   3.023   4.787
14483TIP3   OH243389   2.266   4.025   5.648
14483TIP3    H143390   2.285   4.004   5.740
14483TIP3    H243391   2.291   3.947   5.600
14484TIP3   OH243392   6.200   2.279   1.422
14484TIP3    H143393   6.129   2.224   1.390
14484TIP3    H243394   6.237   2.319   1.344
14485TIP3   OH243395   7.640   2.871   3.136
14485TIP3    H143396   7.604   2.804   3.078
14485TIP3    H243397   7.636   2.952   3.085
14486TIP3   OH243398   6.480   6.657   0.891
14486TIP3    H143399   6.576   6.666   0.894
14486TIP3    H243400   6.457   6.684   0.802
14487TIP3   OH243401   4.115   3.526   2.138
14487TIP3    H143402   4.112   3.528   2.042
14487TIP3    H243403   4.205   3.499   2.158
14488TIP3   OH243404   4.730   7.820   0.106
14488TIP3    H143405   4.703   7.836   0.016
14488TIP3    H243406   4.754   7.906   0.140
14489TIP3   OH243407   5.346   2.205   3.253
14489TIP3    H143408   5.390   2.216   3.169
14489TIP3    H243409   5.273   2.147   3.234
14490TIP3   OH243410   3.707   5.587   2.922
14490TIP3    H143411   3.731   5.678   2.937
14490TIP3    H243412   3.668   5.587   2.834
14491TIP3   OH243413   5.139   2.503   1.222
14491TIP3    H143414   5.205   2.572   1.210
14491TIP3    H243415   5.073   2.543   1.279
14492TIP3   OH243416   1.531   0.347   5.349
14492TIP3    H143417   1.616   0.372   5.313
14492TIP3    H243418   1.542   0.356   5.444
14493TIP3   OH243419   4.416   0.514   1.034
14493TIP3    H143420   4.494   0.476   0.995
14493TIP3    H243421   4.440   0.531   1.125
14494TIP3   OH243422   5.986   5.531   4.449
14494TIP3    H143423   5.909   5.476   4.461
14494TIP3    H243424   5.995   5.578   4.532
14495TIP3   OH243425   8.000   4.088   0.546
14495TIP3    H143426   8.010   4.180   0.569
14495TIP3    H243427   7.984   4.088   0.452
14496TIP3   OH243428   0.739   0.155   5.626
14496TIP3    H143429   0.718   0.065   5.600
14496TIP3    H243430   0.822   0.174   5.582
14497TIP3   OH243431   7.679   1.026   0.900
14497TIP3    H143432   7.660   1.078   0.823
14497TIP3    H243433   7.630   1.069   0.971
14498TIP3   OH243434   0.406   1.781   4.557
14498TIP3    H143435   0.461   1.702   4.551
14498TIP3    H243436   0.393   1.794   4.651
14499TIP3   OH243437   6.686   1.908   0.818
14499TIP3    H143438   6.698   2.001   0.838
14499TIP3    H243439   6.772   1.879   0.787
14500TIP3   OH243440   1.167   7.466   0.138
14500TIP3    H143441   1.229   7.395   0.117
14500TIP3    H243442   1.096   7.423   0.186
14501TIP3   OH243443   0.971   7.170   5.366
14501TIP3    H143444   0.955   7.137   5.455
14501TIP3    H243445   1.054   7.218   5.374
14502TIP3   OH243446   4.788   0.038   3.667
14502TIP3    H143447   4.804  -0.052   3.694
14502TIP3    H243448   4.717   0.068   3.724
14503TIP3   OH243449   3.333   2.520   6.073
14503TIP3    H143450   3.258   2.574   6.049
14503TIP3    H243451   3.384   2.575   6.133
14504TIP3   OH243452   8.418   4.150   3.339
14504TIP3    H143453   8.353   4.216   3.363
14504TIP3    H243454   8.378   4.103   3.266
14505TIP3   OH243455   8.140   6.791   2.460
14505TIP3    H143456   8.062   6.746   2.492
14505TIP3    H243457   8.177   6.731   2.395
14506TIP3   OH243458   5.370   2.699   5.046
14506TIP3    H143459   5.433   2.686   5.117
14506TIP3    H243460   5.371   2.617   4.997
14507TIP3   OH243461   8.119   4.093   5.958
14507TIP3    H143462   8.210   4.076   5.932
14507TIP3    H243463   8.123   4.103   6.053
14508TIP3   OH243464   0.942   6.633   3.868
14508TIP3    H143465   0.924   6.604   3.779
14508TIP3    H243466   0.937   6.553   3.921
14509TIP3   OH243467   4.582   4.760   3.189
14509TIP3    H143468   4.524   4.720   3.253
14509TIP3    H243469   4.524   4.799   3.124
14510TIP3   OH243470   6.174   5.897   4.658
14510TIP3    H143471   6.136   5.811   4.676
14510TIP3    H243472   6.245   5.906   4.721
14511TIP3   OH243473   0.429   7.107   4.931
14511TIP3    H143474   0.474   7.128   5.013
14511TIP3    H243475   0.369   7.181   4.917
14512TIP3   OH243476  -0.072   5.906   2.131
14512TIP3    H143477  -0.048   5.974   2.193
14512TIP3    H243478  -0.010   5.916   2.058
14513TIP3   OH243479   7.636   2.676   2.037
14513TIP3    H143480   7.608   2.587   2.059
14513TIP3    H243481   7.653   2.673   1.943
14514TIP3   OH243482   1.573   0.059   5.377
14514TIP3    H143483   1.615   0.027   5.297
14514TIP3    H243484   1.535   0.144   5.352
14515TIP3   OH243485   4.747   7.186   6.503
14515TIP3    H143486   4.731   7.093   6.520
14515TIP3    H243487   4.829   7.206   6.547
14516TIP3   OH243488   5.625   6.000   5.895
14516TIP3    H143489   5.633   5.962   5.983
14516TIP3    H243490   5.589   5.930   5.841
14517TIP3   OH243491   4.136   6.684   6.507
14517TIP3    H143492   4.170   6.694   6.418
14517TIP3    H243493   4.128   6.589   6.519
14518TIP3   OH243494   4.004   0.076   6.600
14518TIP3    H143495   3.911   0.055   6.592
14518TIP3    H243496   4.005   0.167   6.631
14519TIP3   OH243497   8.165   2.802   1.971
14519TIP3    H143498   8.082   2.768   2.003
14519TIP3    H243499   8.145   2.891   1.943
14520TIP3   OH243500   4.940   6.923   1.820
14520TIP3    H143501   4.945   6.898   1.728
14520TIP3    H243502   4.937   7.018   1.819
14521TIP3   OH243503   5.650   6.251   5.201
14521TIP3    H143504   5.665   6.314   5.271
14521TIP3    H243505   5.733   6.249   5.153
14522TIP3   OH243506   0.955   4.525   4.467
14522TIP3    H143507   1.032   4.506   4.413
14522TIP3    H243508   0.976   4.486   4.552
14523TIP3   OH243509   1.395   7.520   5.141
14523TIP3    H143510   1.380   7.523   5.046
14523TIP3    H243511   1.487   7.492   5.149
14524TIP3   OH243512   7.663   7.647   4.102
14524TIP3    H143513   7.658   7.695   4.020
14524TIP3    H243514   7.750   7.666   4.137
14525TIP3   OH243515   6.495   3.888   0.248
14525TIP3    H143516   6.425   3.845   0.296
14525TIP3    H243517   6.554   3.817   0.223
14526TIP3   OH243518   1.802   5.415   2.703
14526TIP3    H143519   1.753   5.333   2.693
14526TIP3    H243520   1.743   5.473   2.751
14527TIP3   OH243521   0.076   4.149   5.608
14527TIP3    H143522  -0.016   4.172   5.625
14527TIP3    H243523   0.111   4.225   5.562
14528TIP3   OH243524   0.524   6.021   5.280
14528TIP3    H143525   0.495   5.931   5.292
14528TIP3    H243526   0.461   6.059   5.218
14529TIP3   OH243527   3.051   3.084   0.319
14529TIP3    H143528   2.975   3.049   0.365
14529TIP3    H243529   3.027   3.082   0.227
14530TIP3   OH243530   8.203   6.377   3.815
14530TIP3    H143531   8.116   6.417   3.820
14530TIP3    H243532   8.231   6.393   3.725
14531TIP3   OH243533   0.837   1.337   1.506
14531TIP3    H143534   0.926   1.310   1.527
14531TIP3    H243535   0.848   1.414   1.450
14532TIP3   OH243536   3.024   5.074   6.043
14532TIP3    H143537   3.026   5.035   6.130
14532TIP3    H243538   3.108   5.119   6.034
14533TIP3   OH243539   5.264   0.177   2.409
14533TIP3    H143540   5.264   0.265   2.370
14533TIP3    H243541   5.192   0.132   2.364
14534TIP3   OH243542   6.001   5.773   3.983
14534TIP3    H143543   6.073   5.837   3.983
14534TIP3    H243544   5.927   5.820   4.020
14535TIP3   OH243545   1.757   1.112   1.884
14535TIP3    H143546   1.799   1.037   1.927
14535TIP3    H243547   1.714   1.074   1.808
14536TIP3   OH243548   6.381   2.874   2.055
14536TIP3    H143549   6.466   2.842   2.023
14536TIP3    H243550   6.336   2.795   2.085
14537TIP3   OH243551   0.241   5.991   5.564
14537TIP3    H143552   0.159   5.999   5.516
14537TIP3    H243553   0.303   6.046   5.516
14538TIP3   OH243554   7.983   5.622   1.454
14538TIP3    H143555   7.917   5.597   1.390
14538TIP3    H243556   8.028   5.540   1.476
14539TIP3   OH243557   1.836   1.404   6.660
14539TIP3    H143558   1.800   1.371   6.578
14539TIP3    H243559   1.890   1.332   6.694
14540TIP3   OH243560   3.417   0.281   0.857
14540TIP3    H143561   3.418   0.363   0.807
14540TIP3    H243562   3.382   0.305   0.942
14541TIP3   OH243563   0.899   2.999   4.951
14541TIP3    H143564   0.988   3.027   4.930
14541TIP3    H243565   0.856   3.078   4.983
14542TIP3   OH243566   0.897   6.805   4.344
14542TIP3    H143567   0.809   6.771   4.360
14542TIP3    H243568   0.901   6.821   4.250
14543TIP3   OH243569   2.933   4.598   2.913
14543TIP3    H143570   2.978   4.653   2.849
14543TIP3    H243571   2.986   4.519   2.919
14544TIP3   OH243572   4.779   1.441   2.368
14544TIP3    H143573   4.756   1.520   2.320
14544TIP3    H243574   4.718   1.439   2.442
14545TIP3   OH243575   8.326   2.498   1.564
14545TIP3    H143576   8.317   2.412   1.523
14545TIP3    H243577   8.320   2.560   1.492
14546TIP3   OH243578   1.447   4.539   6.884
14546TIP3    H143579   1.542   4.525   6.887
14546TIP3    H243580   1.421   4.508   6.797
14547TIP3   OH243581   3.775   6.059   5.009
14547TIP3    H143582   3.863   6.042   5.040
14547TIP3    H243583   3.785   6.128   4.943
14548TIP3   OH243584   0.074   3.230   1.189
14548TIP3    H143585   0.169   3.235   1.187
14548TIP3    H243586   0.050   3.185   1.107
14549TIP3   OH243587   3.988   0.531   3.325
14549TIP3    H143588   3.937   0.458   3.359
14549TIP3    H243589   4.040   0.493   3.254
14550TIP3   OH243590   2.924   7.356   2.564
14550TIP3    H143591   2.844   7.405   2.548
14550TIP3    H243592   2.907   7.306   2.644
14551TIP3   OH243593   2.588   6.297   5.990
14551TIP3    H143594   2.529   6.362   5.952
14551TIP3    H243595   2.605   6.329   6.078
14552TIP3   OH243596   2.970   1.329   0.839
14552TIP3    H143597   2.981   1.317   0.745
14552TIP3    H243598   3.019   1.257   0.879
14553TIP3   OH243599   4.002   6.194   1.607
14553TIP3    H143600   3.992   6.100   1.591
14553TIP3    H243601   4.027   6.199   1.699
14554TIP3   OH243602   4.489   1.957   3.471
14554TIP3    H143603   4.523   1.903   3.400
14554TIP3    H243604   4.529   2.043   3.457
14555TIP3   OH243605   8.009   7.634   4.398
14555TIP3    H143606   8.038   7.678   4.319
14555TIP3    H243607   7.949   7.696   4.439
14556TIP3   OH243608   5.837   4.151   4.562
14556TIP3    H143609   5.906   4.088   4.540
14556TIP3    H243610   5.757   4.098   4.565
14557TIP3   OH243611   1.658   2.006   6.377
14557TIP3    H143612   1.714   1.986   6.453
14557TIP3    H243613   1.569   2.009   6.413
14558TIP3   OH243614   6.630   7.532   5.541
14558TIP3    H143615   6.633   7.627   5.533
14558TIP3    H243616   6.720   7.503   5.526
14559TIP3   OH243617   1.300   1.605   6.268
14559TIP3    H143618   1.371   1.642   6.217
14559TIP3    H243619   1.326   1.617   6.359
14560TIP3   OH243620   0.284   0.257   2.685
14560TIP3    H143621   0.296   0.336   2.632
14560TIP3    H243622   0.257   0.189   2.623
14561TIP3   OH243623   4.787   7.561   1.519
14561TIP3    H143624   4.801   7.655   1.513
14561TIP3    H243625   4.869   7.522   1.490
14562TIP3   OH243626   4.551   0.882   5.855
14562TIP3    H143627   4.561   0.913   5.945
14562TIP3    H243628   4.462   0.907   5.831
14563TIP3   OH243629   6.379   7.286   0.703
14563TIP3    H143630   6.423   7.309   0.621
14563TIP3    H243631   6.441   7.311   0.771
14564TIP3   OH243632   1.437   2.213   6.625
14564TIP3    H143633   1.404   2.241   6.711
14564TIP3    H243634   1.361   2.221   6.567
14565TIP3   OH243635   0.865   2.853   4.009
14565TIP3    H143636   0.916   2.867   4.088
14565TIP3    H243637   0.917   2.890   3.938
14566TIP3   OH243638   2.720   7.721   3.917
14566TIP3    H143639   2.637   7.692   3.953
14566TIP3    H243640   2.756   7.780   3.984
14567TIP3   OH243641   0.261   6.129   5.208
14567TIP3    H143642   0.255   6.035   5.194
14567TIP3    H243643   0.246   6.167   5.121
14568TIP3   OH243644   4.851   4.256   6.140
14568TIP3    H143645   4.867   4.161   6.133
14568TIP3    H243646   4.924   4.288   6.192
14569TIP3   OH243647   2.115   7.398   3.310
14569TIP3    H143648   2.076   7.311   3.299
14569TIP3    H243649   2.208   7.381   3.325
14570TIP3   OH243650   5.450   3.121   5.772
14570TIP3    H143651   5.447   3.203   5.722
14570TIP3    H243652   5.360   3.106   5.800
14571TIP3   OH243653   6.630   5.973   5.401
14571TIP3    H143654   6.712   6.003   5.361
14571TIP3    H243655   6.638   5.995   5.493
14572TIP3   OH243656   2.449   0.242   3.172
14572TIP3    H143657   2.480   0.180   3.106
14572TIP3    H243658   2.498   0.322   3.155
14573TIP3   OH243659   1.348   6.199   3.482
14573TIP3    H143660   1.410   6.273   3.476
14573TIP3    H243661   1.404   6.122   3.489
14574TIP3   OH243662   6.648   7.108   2.541
14574TIP3    H143663   6.600   7.029   2.564
14574TIP3    H243664   6.740   7.083   2.546
14575TIP3   OH243665   4.048   7.235   2.425
14575TIP3    H143666   3.963   7.219   2.382
14575TIP3    H243667   4.097   7.154   2.411
14576TIP3   OH243668   0.232   7.753   0.384
14576TIP3    H143669   0.164   7.818   0.402
14576TIP3    H243670   0.205   7.676   0.434
14577TIP3   OH243671   3.389   4.074   4.697
14577TIP3    H143672   3.390   4.059   4.602
14577TIP3    H243673   3.430   4.160   4.708
14578TIP3   OH243674   2.386   2.513   4.349
14578TIP3    H143675   2.471   2.476   4.326
14578TIP3    H243676   2.378   2.590   4.293
14579TIP3   OH243677   8.248   3.547   4.276
14579TIP3    H143678   8.299   3.591   4.344
14579TIP3    H243679   8.279   3.456   4.277
14580TIP3   OH243680   7.922   0.852   3.844
14580TIP3    H143681   7.920   0.923   3.780
14580TIP3    H243682   7.859   0.879   3.911
14581TIP3   OH243683   7.176   3.003   3.509
14581TIP3    H143684   7.249   3.065   3.521
14581TIP3    H243685   7.110   3.053   3.461
14582TIP3   OH243686   6.320   7.821   5.498
14582TIP3    H143687   6.264   7.770   5.556
14582TIP3    H243688   6.409   7.801   5.527
14583TIP3   OH243689   0.968   5.701   0.852
14583TIP3    H143690   0.944   5.612   0.827
14583TIP3    H243691   0.930   5.713   0.939
14584TIP3   OH243692   5.433   2.072   1.288
14584TIP3    H143693   5.367   2.133   1.323
14584TIP3    H243694   5.432   2.087   1.194
14585TIP3   OH243695  -0.046   2.111   4.096
14585TIP3    H143696  -0.132   2.140   4.065
14585TIP3    H243697   0.014   2.135   4.025
14586TIP3   OH243698   3.696   5.320   3.812
14586TIP3    H143699   3.673   5.356   3.898
14586TIP3    H243700   3.704   5.226   3.827
14587TIP3   OH243701   0.300   7.930   1.316
14587TIP3    H143702   0.382   7.900   1.277
14587TIP3    H243703   0.237   7.861   1.295
14588TIP3   OH243704   7.413   6.316   1.714
14588TIP3    H143705   7.387   6.326   1.622
14588TIP3    H243706   7.422   6.406   1.746
14589TIP3   OH243707   2.310   3.067   5.533
14589TIP3    H143708   2.290   3.143   5.589
14589TIP3    H243709   2.246   3.072   5.462
14590TIP3   OH243710   1.697   3.852   0.791
14590TIP3    H143711   1.734   3.778   0.838
14590TIP3    H243712   1.669   3.913   0.859
14591TIP3   OH243713   7.467   0.726   2.032
14591TIP3    H143714   7.385   0.757   2.070
14591TIP3    H243715   7.469   0.766   1.945
14592TIP3   OH243716   6.320   0.889   5.037
14592TIP3    H143717   6.334   0.914   4.945
14592TIP3    H243718   6.331   0.971   5.086
14593TIP3   OH243719   4.717   3.027   3.403
14593TIP3    H143720   4.718   2.945   3.354
14593TIP3    H243721   4.731   3.000   3.494
14594TIP3   OH243722   1.361   4.602   6.098
14594TIP3    H143723   1.457   4.596   6.097
14594TIP3    H243724   1.333   4.556   6.018
14595TIP3   OH243725   1.653   1.809   5.876
14595TIP3    H143726   1.637   1.722   5.913
14595TIP3    H243727   1.748   1.819   5.877
14596TIP3   OH243728   2.135   1.388   1.713
14596TIP3    H143729   2.055   1.362   1.759
14596TIP3    H243730   2.105   1.438   1.638
14597TIP3   OH243731   4.517   4.703   5.350
14597TIP3    H143732   4.473   4.760   5.288
14597TIP3    H243733   4.449   4.679   5.413
14598TIP3   OH243734   6.232   1.916   6.601
14598TIP3    H143735   6.322   1.888   6.615
14598TIP3    H243736   6.183   1.879   6.675
14599TIP3   OH243737   5.982   1.781   0.859
14599TIP3    H143738   5.948   1.855   0.808
14599TIP3    H243739   6.063   1.813   0.897
14600TIP3   OH243740   4.848   1.910   0.959
14600TIP3    H143741   4.773   1.936   1.013
14600TIP3    H243742   4.851   1.974   0.889
14601TIP3   OH243743   4.646   0.914   2.488
14601TIP3    H143744   4.551   0.917   2.481
14601TIP3    H243745   4.664   0.891   2.579
14602TIP3   OH243746   0.368   6.510   5.697
14602TIP3    H143747   0.294   6.502   5.758
14602TIP3    H243748   0.393   6.420   5.678
14603TIP3   OH243749   2.165   0.492   2.281
14603TIP3    H143750   2.081   0.498   2.326
14603TIP3    H243751   2.144   0.500   2.188
14604TIP3   OH243752   7.942   7.183   6.559
14604TIP3    H143753   8.021   7.236   6.570
14604TIP3    H243754   7.951   7.112   6.622
14605TIP3   OH243755   4.654   4.277   1.999
14605TIP3    H143756   4.672   4.254   1.908
14605TIP3    H243757   4.576   4.228   2.022
14606TIP3   OH243758   4.279   3.430   4.164
14606TIP3    H143759   4.196   3.451   4.121
14606TIP3    H243760   4.304   3.346   4.126
14607TIP3   OH243761   5.685   2.218   3.677
14607TIP3    H143762   5.596   2.216   3.714
14607TIP3    H243763   5.675   2.270   3.596
14608TIP3   OH243764   0.072   2.585   5.026
14608TIP3    H143765   0.139   2.517   5.020
14608TIP3    H243766   0.053   2.608   4.935
14609TIP3   OH243767   8.054   1.448   5.075
14609TIP3    H143768   8.101   1.424   4.995
14609TIP3    H243769   8.050   1.543   5.072
14610TIP3   OH243770   8.116   0.218   1.891
14610TIP3    H143771   8.181   0.196   1.958
14610TIP3    H243772   8.036   0.176   1.922
14611TIP3   OH243773   2.377   5.634   3.071
14611TIP3    H143774   2.377   5.723   3.034
14611TIP3    H243775   2.462   5.598   3.046
14612TIP3   OH243776   5.582   0.605   5.029
14612TIP3    H143777   5.593   0.513   5.005
14612TIP3    H243778   5.631   0.653   4.963
14613TIP3   OH243779   7.115   3.517   0.280
14613TIP3    H143780   7.071   3.521   0.195
14613TIP3    H243781   7.143   3.426   0.288
14614TIP3   OH243782   1.763   3.444   2.105
14614TIP3    H143783   1.789   3.376   2.167
14614TIP3    H243784   1.836   3.451   2.044
14615TIP3   OH243785   6.035   2.651   6.398
14615TIP3    H143786   5.951   2.612   6.373
14615TIP3    H243787   6.094   2.628   6.326
14616TIP3   OH243788   4.899   0.275   5.339
14616TIP3    H143789   4.949   0.238   5.411
14616TIP3    H243790   4.808   0.276   5.370
14617TIP3   OH243791   7.518   3.407   2.927
14617TIP3    H143792   7.458   3.334   2.914
14617TIP3    H243793   7.475   3.481   2.886
14618TIP3   OH243794   0.857   4.659   4.823
14618TIP3    H143795   0.811   4.714   4.887
14618TIP3    H243796   0.860   4.713   4.744
14619TIP3   OH243797   4.516   5.095   4.422
14619TIP3    H143798   4.610   5.113   4.428
14619TIP3    H243799   4.508   5.032   4.351
14620TIP3   OH243800   2.837   0.662   0.221
14620TIP3    H143801   2.849   0.752   0.189
14620TIP3    H243802   2.926   0.627   0.231
14621TIP3   OH243803   6.861   1.781   3.080
14621TIP3    H143804   6.781   1.819   3.043
14621TIP3    H243805   6.867   1.819   3.167
14622TIP3   OH243806   5.111   1.962   1.415
14622TIP3    H143807   5.127   1.928   1.327
14622TIP3    H243808   5.181   1.925   1.468
14623TIP3   OH243809   5.967   2.170   3.602
14623TIP3    H143810   5.984   2.100   3.539
14623TIP3    H243811   5.873   2.170   3.615
14624TIP3   OH243812   1.558   7.092   2.445
14624TIP3    H143813   1.490   7.037   2.483
14624TIP3    H243814   1.622   7.031   2.408
14625TIP3   OH243815   7.424   2.535   6.132
14625TIP3    H143816   7.364   2.608   6.146
14625TIP3    H243817   7.398   2.499   6.047
14626TIP3   OH243818   6.436   0.261   6.226
14626TIP3    H143819   6.395   0.320   6.290
14626TIP3    H243820   6.403   0.174   6.249
14627TIP3   OH243821   5.733   2.736   3.472
14627TIP3    H143822   5.677   2.759   3.546
14627TIP3    H243823   5.784   2.815   3.455
14628TIP3   OH243824   1.974   0.537   4.037
14628TIP3    H143825   1.935   0.544   3.950
14628TIP3    H243826   1.977   0.627   4.069
14629TIP3   OH243827   5.538   4.575   5.154
14629TIP3    H143828   5.560   4.532   5.071
14629TIP3    H243829   5.507   4.661   5.128
14630TIP3   OH243830   2.259   5.483   6.345
14630TIP3    H143831   2.304   5.566   6.363
14630TIP3    H243832   2.190   5.478   6.411
14631TIP3   OH243833   3.904   1.030   5.839
14631TIP3    H143834   3.929   1.100   5.779
14631TIP3    H243835   3.810   1.044   5.853
14632TIP3   OH243836   5.407   6.602   4.359
14632TIP3    H143837   5.416   6.521   4.309
14632TIP3    H243838   5.478   6.600   4.423
14633TIP3   OH243839   6.210   0.656   4.979
14633TIP3    H143840   6.208   0.607   5.061
14633TIP3    H243841   6.253   0.739   5.001
14634TIP3   OH243842   1.657   0.144   0.459
14634TIP3    H143843   1.691   0.055   0.463
14634TIP3    H243844   1.633   0.165   0.550
14635TIP3   OH243845   1.041   1.067   5.613
14635TIP3    H143846   1.114   1.016   5.578
14635TIP3    H243847   1.064   1.158   5.597
14636TIP3   OH243848   2.843   5.323   5.900
14636TIP3    H143849   2.752   5.348   5.884
14636TIP3    H243850   2.843   5.228   5.892
14637TIP3   OH243851   3.907   2.808   4.438
14637TIP3    H143852   3.827   2.756   4.428
14637TIP3    H243853   3.909   2.865   4.361
14638TIP3   OH243854   7.482   3.674   2.815
14638TIP3    H143855   7.549   3.742   2.814
14638TIP3    H243856   7.499   3.622   2.737
14639TIP3   OH243857   5.857   5.388   6.499
14639TIP3    H143858   5.887   5.478   6.509
14639TIP3    H243859   5.783   5.393   6.439
14640TIP3   OH243860   5.117   5.378   2.347
14640TIP3    H143861   5.186   5.348   2.287
14640TIP3    H243862   5.062   5.301   2.362
14641TIP3   OH243863   5.219   5.595   5.389
14641TIP3    H143864   5.211   5.613   5.482
14641TIP3    H243865   5.137   5.550   5.365
14642TIP3   OH243866   6.769   0.521   4.964
14642TIP3    H143867   6.780   0.429   4.986
14642TIP3    H243868   6.676   0.529   4.940
14643TIP3   OH243869   0.110   2.316   2.029
14643TIP3    H143870   0.180   2.272   1.981
14643TIP3    H243871   0.102   2.266   2.111
14644TIP3   OH243872   7.614   2.925   5.982
14644TIP3    H143873   7.629   3.016   5.957
14644TIP3    H243874   7.533   2.901   5.937
14645TIP3   OH243875   3.570   6.533   2.125
14645TIP3    H143876   3.518   6.483   2.188
14645TIP3    H243877   3.514   6.606   2.099
14646TIP3   OH243878   1.561   1.146   6.241
14646TIP3    H143879   1.599   1.080   6.182
14646TIP3    H243880   1.471   1.156   6.210
14647TIP3   OH243881   4.478   3.772   1.693
14647TIP3    H143882   4.512   3.843   1.746
14647TIP3    H243883   4.416   3.726   1.750
14648TIP3   OH243884   6.665   6.570   6.602
14648TIP3    H143885   6.615   6.506   6.654
14648TIP3    H243886   6.720   6.516   6.545
14649TIP3   OH243887   7.563   0.055   3.774
14649TIP3    H143888   7.507   0.097   3.709
14649TIP3    H243889   7.651   0.086   3.754
14650TIP3   OH243890   8.302   6.756   3.637
14650TIP3    H143891   8.331   6.741   3.727
14650TIP3    H243892   8.374   6.802   3.596
14651TIP3   OH243893   4.434   5.097   2.161
14651TIP3    H143894   4.370   5.061   2.223
14651TIP3    H243895   4.504   5.132   2.216
14652TIP3   OH243896   2.144   4.056   2.709
14652TIP3    H143897   2.234   4.028   2.729
14652TIP3    H243898   2.155   4.130   2.649
14653TIP3   OH243899   0.632   7.132   0.259
14653TIP3    H143900   0.541   7.106   0.270
14653TIP3    H243901   0.644   7.137   0.164
14654TIP3   OH243902   8.061   1.604   4.608
14654TIP3    H143903   8.048   1.618   4.514
14654TIP3    H243904   8.050   1.691   4.646
14655TIP3   OH243905   6.728   2.228   6.832
14655TIP3    H143906   6.811   2.236   6.878
14655TIP3    H243907   6.733   2.145   6.785
14656TIP3   OH243908   3.566   7.194   1.218
14656TIP3    H143909   3.607   7.245   1.148
14656TIP3    H243910   3.475   7.185   1.190
14657TIP3   OH243911   0.329   0.030   3.136
14657TIP3    H143912   0.284   0.053   3.054
14657TIP3    H243913   0.382  -0.046   3.113
14658TIP3   OH243914   4.190   2.933   1.931
14658TIP3    H143915   4.262   2.871   1.940
14658TIP3    H243916   4.117   2.892   1.977
14659TIP3   OH243917   5.518   1.554   3.155
14659TIP3    H143918   5.471   1.498   3.093
14659TIP3    H243919   5.521   1.503   3.236
14660TIP3   OH243920   6.835   7.408   2.518
14660TIP3    H143921   6.771   7.476   2.541
14660TIP3    H243922   6.810   7.381   2.429
14661TIP3   OH243923   5.530   0.632   3.470
14661TIP3    H143924   5.516   0.655   3.562
14661TIP3    H243925   5.448   0.592   3.442
14662TIP3   OH243926   4.653   3.337   3.667
14662TIP3    H143927   4.642   3.344   3.572
14662TIP3    H243928   4.582   3.390   3.703
14663TIP3   OH243929   6.666   5.732   3.998
14663TIP3    H143930   6.599   5.761   3.936
14663TIP3    H243931   6.624   5.661   4.047
14664TIP3   OH243932   3.165   7.718   2.072
14664TIP3    H143933   3.112   7.650   2.031
14664TIP3    H243934   3.107   7.760   2.134
14665TIP3   OH243935   2.055   0.943   2.129
14665TIP3    H143936   1.982   0.934   2.067
14665TIP3    H243937   2.133   0.935   2.075
14666TIP3   OH243938   1.944   6.248   4.399
14666TIP3    H143939   1.887   6.299   4.456
14666TIP3    H243940   2.032   6.263   4.434
14667TIP3   OH243941   2.332   5.752   1.973
14667TIP3    H143942   2.347   5.750   2.068
14667TIP3    H243943   2.261   5.815   1.961
14668TIP3   OH243944   5.788   7.681   3.023
14668TIP3    H143945   5.878   7.680   3.057
14668TIP3    H243946   5.764   7.589   3.016
14669TIP3   OH243947   5.473   6.751  -0.016
14669TIP3    H143948   5.426   6.741   0.066
14669TIP3    H243949   5.561   6.719   0.003
14670TIP3   OH243950   7.281   6.393   6.324
14670TIP3    H143951   7.192   6.406   6.290
14670TIP3    H243952   7.335   6.450   6.269
14671TIP3   OH243953   0.279   5.058   4.588
14671TIP3    H143954   0.341   5.083   4.520
14671TIP3    H243955   0.229   5.138   4.605
14672TIP3   OH243956   0.230   4.762   5.525
14672TIP3    H143957   0.226   4.788   5.433
14672TIP3    H243958   0.286   4.684   5.525
14673TIP3   OH243959   7.369   2.035   4.932
14673TIP3    H143960   7.423   2.080   4.868
14673TIP3    H243961   7.280   2.039   4.896
14674TIP3   OH243962   6.584   0.007   4.012
14674TIP3    H143963   6.603   0.064   3.937
14674TIP3    H243964   6.669  -0.008   4.053
14675TIP3   OH243965   0.407   0.135   1.543
14675TIP3    H143966   0.402   0.098   1.455
14675TIP3    H243967   0.342   0.205   1.543
14676TIP3   OH243968   6.788   7.061   6.345
14676TIP3    H143969   6.707   7.047   6.394
14676TIP3    H243970   6.844   7.111   6.404
14677TIP3   OH243971   7.808   2.469   5.187
14677TIP3    H143972   7.775   2.539   5.243
14677TIP3    H243973   7.846   2.405   5.247
14678TIP3   OH243974   0.639   1.095   5.314
14678TIP3    H143975   0.549   1.097   5.348
14678TIP3    H243976   0.693   1.075   5.391
14679TIP3   OH243977   6.089   0.596   5.936
14679TIP3    H143978   5.997   0.599   5.912
14679TIP3    H243979   6.093   0.534   6.009
14680TIP3   OH243980   1.389   7.857   6.459
14680TIP3    H143981   1.462   7.914   6.485
14680TIP3    H243982   1.313   7.895   6.502
14681TIP3   OH243983   5.696   1.369   0.052
14681TIP3    H143984   5.604   1.347   0.036
14681TIP3    H243985   5.695   1.458   0.085
14682TIP3   OH243986   0.562   1.608   3.612
14682TIP3    H143987   0.510   1.603   3.532
14682TIP3    H243988   0.521   1.546   3.672
14683TIP3   OH243989   8.158   5.778   4.847
14683TIP3    H143990   8.102   5.829   4.789
14683TIP3    H243991   8.181   5.839   4.918
14684TIP3   OH243992   5.215   0.957   6.255
14684TIP3    H143993   5.288   0.900   6.278
14684TIP3    H243994   5.205   0.947   6.160
14685TIP3   OH243995   1.652   6.191   4.870
14685TIP3    H143996   1.737   6.218   4.903
14685TIP3    H243997   1.597   6.183   4.948
14686TIP3   OH243998   3.599   5.931   3.660
14686TIP3    H143999   3.680   5.978   3.678
14686TIP3    H244000   3.599   5.917   3.566
14687TIP3   OH244001   6.650   1.978   5.384
14687TIP3    H144002   6.705   1.948   5.312
14687TIP3    H244003   6.696   1.949   5.463
14688TIP3   OH244004   4.859   2.703   5.889
14688TIP3    H144005   4.865   2.777   5.828
14688TIP3    H244006   4.788   2.726   5.948
14689TIP3   OH244007   5.883   5.655   6.538
14689TIP3    H144008   5.890   5.736   6.588
14689TIP3    H244009   5.953   5.660   6.473
14690TIP3   OH244010   6.861   6.293   5.669
14690TIP3    H144011   6.782   6.347   5.659
14690TIP3    H244012   6.916   6.340   5.731
14691TIP3   OH244013   7.408   5.824   5.162
14691TIP3    H144014   7.353   5.752   5.193
14691TIP3    H244015   7.495   5.785   5.151
14692TIP3   OH244016   2.447   5.696   6.098
14692TIP3    H144017   2.492   5.749   6.032
14692TIP3    H244018   2.354   5.703   6.076
14693TIP3   OH244019   3.217   4.109   3.307
14693TIP3    H144020   3.230   4.203   3.315
14693TIP3    H244021   3.247   4.088   3.218
14694TIP3   OH244022   4.293   7.362   5.719
14694TIP3    H144023   4.375   7.375   5.670
14694TIP3    H244024   4.301   7.274   5.755
14695TIP3   OH244025   1.305   7.435   1.856
14695TIP3    H144026   1.377   7.493   1.883
14695TIP3    H244027   1.239   7.494   1.820
14696TIP3   OH244028   3.633   7.261   1.504
14696TIP3    H144029   3.603   7.240   1.416
14696TIP3    H244030   3.566   7.320   1.539
14697TIP3   OH244031   4.817   7.743   1.989
14697TIP3    H144032   4.796   7.789   2.071
14697TIP3    H244033   4.764   7.663   1.993
14698TIP3   OH244034   0.349   7.047   0.254
14698TIP3    H144035   0.269   7.097   0.271
14698TIP3    H244036   0.369   7.005   0.337
14699TIP3   OH244037   7.192   7.711   3.017
14699TIP3    H144038   7.262   7.726   3.080
14699TIP3    H244039   7.168   7.619   3.029
14700TIP3   OH244040   4.689   6.714   4.908
14700TIP3    H144041   4.697   6.802   4.871
14700TIP3    H244042   4.766   6.703   4.964
14701TIP3   OH244043   3.299   4.350   3.420
14701TIP3    H144044   3.375   4.365   3.476
14701TIP3    H244045   3.278   4.436   3.385
14702TIP3   OH244046   4.844   3.571   1.983
14702TIP3    H144047   4.939   3.569   1.973
14702TIP3    H244048   4.828   3.633   2.053
14703TIP3   OH244049   2.249   2.415   3.374
14703TIP3    H144050   2.189   2.347   3.404
14703TIP3    H244051   2.213   2.497   3.410
14704TIP3   OH244052   5.894   6.239   1.057
14704TIP3    H144053   5.823   6.222   1.120
14704TIP3    H244054   5.971   6.254   1.112
14705TIP3   OH244055   3.742   7.119   6.203
14705TIP3    H144056   3.802   7.045   6.200
14705TIP3    H244057   3.689   7.111   6.124
14706TIP3   OH244058   4.300   0.988   6.290
14706TIP3    H144059   4.362   1.055   6.260
14706TIP3    H244060   4.239   0.978   6.217
14707TIP3   OH244061   1.295   3.379   0.667
14707TIP3    H144062   1.367   3.332   0.626
14707TIP3    H244063   1.289   3.462   0.618
14708TIP3   OH244064   4.860   3.358   5.688
14708TIP3    H144065   4.843   3.281   5.634
14708TIP3    H244066   4.773   3.396   5.703
14709TIP3   OH244067   1.047   0.658   5.474
14709TIP3    H144068   0.959   0.631   5.498
14709TIP3    H244069   1.035   0.741   5.426
14710TIP3   OH244070   6.654   4.698   2.553
14710TIP3    H144071   6.661   4.771   2.490
14710TIP3    H244072   6.651   4.741   2.638
14711TIP3   OH244073   1.817   6.457   6.717
14711TIP3    H144074   1.802   6.494   6.630
14711TIP3    H244075   1.872   6.381   6.702
14712TIP3   OH244076   4.389   7.403   1.089
14712TIP3    H144077   4.443   7.457   1.032
14712TIP3    H244078   4.451   7.343   1.131
14713TIP3   OH244079   0.689   0.895   1.508
14713TIP3    H144080   0.740   0.856   1.437
14713TIP3    H244081   0.716   0.846   1.587
14714TIP3   OH244082   0.123   2.282   6.461
14714TIP3    H144083   0.053   2.342   6.436
14714TIP3    H244084   0.195   2.338   6.489
14715TIP3   OH244085   7.291   7.187   0.571
14715TIP3    H144086   7.336   7.173   0.488
14715TIP3    H244087   7.201   7.208   0.547
14716TIP3   OH244088   7.777   3.666   2.210
14716TIP3    H144089   7.686   3.682   2.231
14716TIP3    H244090   7.774   3.606   2.135
14717TIP3   OH244091   6.981   3.368   4.302
14717TIP3    H144092   6.933   3.311   4.361
14717TIP3    H244093   6.917   3.433   4.273
14718TIP3   OH244094   8.064   5.653   4.476
14718TIP3    H144095   8.075   5.726   4.416
14718TIP3    H244096   8.003   5.594   4.431
14719TIP3   OH244097   4.147   7.548   5.859
14719TIP3    H144098   4.191   7.622   5.815
14719TIP3    H244099   4.183   7.470   5.817
14720TIP3   OH244100   3.977   3.310   2.711
14720TIP3    H144101   3.953   3.392   2.668
14720TIP3    H244102   4.060   3.330   2.755
14721TIP3   OH244103   5.875   7.112   3.668
14721TIP3    H144104   5.792   7.158   3.673
14721TIP3    H244105   5.879   7.079   3.578
14722TIP3   OH244106   6.217   0.381   2.346
14722TIP3    H144107   6.235   0.400   2.254
14722TIP3    H244108   6.243   0.460   2.393
14723TIP3   OH244109   3.414   0.754   0.351
14723TIP3    H144110   3.380   0.667   0.372
14723TIP3    H244111   3.506   0.751   0.378
14724TIP3   OH244112   2.336   6.778   1.999
14724TIP3    H144113   2.286   6.859   2.000
14724TIP3    H244114   2.287   6.718   2.055
14725TIP3   OH244115   3.144   6.200   0.125
14725TIP3    H144116   3.209   6.131   0.142
14725TIP3    H244117   3.073   6.154   0.080
14726TIP3   OH244118   2.367   6.929   4.064
14726TIP3    H144119   2.450   6.890   4.035
14726TIP3    H244120   2.313   6.854   4.091
14727TIP3   OH244121   6.975   7.809   6.021
14727TIP3    H144122   7.037   7.881   6.032
14727TIP3    H244123   6.891   7.851   6.006
14728TIP3   OH244124   4.338   3.178   1.580
14728TIP3    H144125   4.362   3.271   1.575
14728TIP3    H244126   4.255   3.177   1.628
14729TIP3   OH244127   6.130   2.066   6.255
14729TIP3    H144128   6.088   2.073   6.341
14729TIP3    H244129   6.125   2.155   6.219
14730TIP3   OH244130   2.714   6.998   3.116
14730TIP3    H144131   2.692   7.023   3.206
14730TIP3    H244132   2.680   6.909   3.107
14731TIP3   OH244133   6.367   6.404   1.906
14731TIP3    H144134   6.292   6.377   1.854
14731TIP3    H244135   6.433   6.428   1.841
14732TIP3   OH244136   2.794   2.988   0.407
14732TIP3    H144137   2.817   3.045   0.481
14732TIP3    H244138   2.738   2.920   0.445
14733TIP3   OH244139   5.164   6.804   6.403
14733TIP3    H144140   5.123   6.838   6.483
14733TIP3    H244141   5.194   6.716   6.427
14734TIP3   OH244142   0.275   2.156   1.243
14734TIP3    H144143   0.349   2.217   1.243
14734TIP3    H244144   0.268   2.127   1.334
14735TIP3   OH244145   6.563   3.380   3.444
14735TIP3    H144146   6.474   3.375   3.480
14735TIP3    H244147   6.618   3.401   3.519
14736TIP3   OH244148   6.143   3.885   4.777
14736TIP3    H144149   6.137   3.801   4.824
14736TIP3    H244150   6.163   3.949   4.845
14737TIP3   OH244151   3.083   0.547   0.258
14737TIP3    H144152   3.071   0.560   0.352
14737TIP3    H244153   3.060   0.455   0.243
14738TIP3   OH244154   5.097   2.925   4.206
14738TIP3    H144155   5.108   2.892   4.295
14738TIP3    H244156   5.091   3.020   4.216
14739TIP3   OH244157   7.209   3.246   6.783
14739TIP3    H144158   7.253   3.183   6.841
14739TIP3    H244159   7.124   3.206   6.764
14740TIP3   OH244160   5.387   6.588   0.818
14740TIP3    H144161   5.447   6.543   0.758
14740TIP3    H244162   5.444   6.649   0.866
14741TIP3   OH244163   2.498   2.095   2.834
14741TIP3    H144164   2.549   2.136   2.904
14741TIP3    H244165   2.445   2.167   2.798
14742TIP3   OH244166   4.696   1.206   2.823
14742TIP3    H144167   4.710   1.296   2.852
14742TIP3    H244168   4.653   1.215   2.738
14743TIP3   OH244169   0.056   7.423   5.305
14743TIP3    H144170  -0.006   7.477   5.354
14743TIP3    H244171   0.004   7.381   5.237
14744TIP3   OH244172   0.393   2.988   2.601
14744TIP3    H144173   0.436   2.949   2.677
14744TIP3    H244174   0.376   2.915   2.542
14745TIP3   OH244175   8.100   7.078   5.211
14745TIP3    H144176   8.131   7.065   5.122
14745TIP3    H244177   8.104   6.991   5.251
14746TIP3   OH244178   4.988   1.527   1.574
14746TIP3    H144179   4.993   1.476   1.655
14746TIP3    H244180   5.006   1.617   1.602
14747TIP3   OH244181   7.317   5.379   6.289
14747TIP3    H144182   7.358   5.373   6.202
14747TIP3    H244183   7.234   5.423   6.273
14748TIP3   OH244184   7.162   2.941   5.421
14748TIP3    H144185   7.117   2.961   5.503
14748TIP3    H244186   7.118   2.996   5.356
14749TIP3   OH244187   3.977   5.987   2.940
14749TIP3    H144188   4.007   5.923   2.875
14749TIP3    H244189   3.955   6.064   2.888
14750TIP3   OH244190   4.365   6.741   1.006
14750TIP3    H144191   4.285   6.733   0.954
14750TIP3    H244192   4.405   6.654   1.001
14751TIP3   OH244193   7.301   7.580   0.112
14751TIP3    H144194   7.248   7.614   0.184
14751TIP3    H244195   7.241   7.576   0.038
14752TIP3   OH244196   3.899   6.817   3.732
14752TIP3    H144197   3.949   6.799   3.812
14752TIP3    H244198   3.830   6.751   3.731
14753TIP3   OH244199   1.441   2.076   1.061
14753TIP3    H144200   1.463   2.023   1.138
14753TIP3    H244201   1.346   2.086   1.065
14754TIP3   OH244202   4.012   1.465   3.263
14754TIP3    H144203   3.921   1.446   3.239
14754TIP3    H244204   4.063   1.438   3.186
14755TIP3   OH244205   6.419   3.812   2.922
14755TIP3    H144206   6.367   3.863   2.984
14755TIP3    H244207   6.354   3.771   2.864
14756TIP3   OH244208   5.997   4.482   4.024
14756TIP3    H144209   6.082   4.454   4.057
14756TIP3    H244210   5.999   4.577   4.028
14757TIP3   OH244211   2.488   7.320   4.703
14757TIP3    H144212   2.468   7.270   4.624
14757TIP3    H244213   2.415   7.381   4.712
14758TIP3   OH244214   6.006   0.774   4.837
14758TIP3    H144215   6.093   0.739   4.854
14758TIP3    H244216   5.984   0.825   4.915
14759TIP3   OH244217   7.034   0.246   5.824
14759TIP3    H144218   6.979   0.211   5.894
14759TIP3    H244219   7.036   0.177   5.758
14760TIP3   OH244220   0.458   6.912   2.357
14760TIP3    H144221   0.510   6.880   2.283
14760TIP3    H244222   0.486   7.002   2.370
14761TIP3   OH244223   3.821   7.237   3.551
14761TIP3    H144224   3.913   7.259   3.538
14761TIP3    H244225   3.802   7.262   3.641
14762TIP3   OH244226   1.238   0.640   5.720
14762TIP3    H144227   1.260   0.560   5.768
14762TIP3    H244228   1.153   0.620   5.679
14763TIP3   OH244229   6.191   3.477   2.099
14763TIP3    H144230   6.111   3.525   2.075
14763TIP3    H244231   6.184   3.394   2.052
14764TIP3   OH244232   8.378   3.497   1.628
14764TIP3    H144233   8.363   3.439   1.554
14764TIP3    H244234   8.300   3.553   1.631
14765TIP3   OH244235   4.599   6.025   6.298
14765TIP3    H144236   4.563   6.062   6.378
14765TIP3    H244237   4.597   5.930   6.312
14766TIP3   OH244238   7.626   1.246   1.678
14766TIP3    H144239   7.627   1.267   1.584
14766TIP3    H244240   7.662   1.157   1.683
14767TIP3   OH244241   1.625   2.027   4.728
14767TIP3    H144242   1.678   1.950   4.707
14767TIP3    H244243   1.677   2.077   4.790
14768TIP3   OH244244   7.227   3.440   2.947
14768TIP3    H144245   7.132   3.434   2.955
14768TIP3    H244246   7.254   3.354   2.915
14769TIP3   OH244247   0.733   3.094   2.323
14769TIP3    H144248   0.735   3.047   2.406
14769TIP3    H244249   0.816   3.072   2.280
14770TIP3   OH244250   3.136   2.089   3.478
14770TIP3    H144251   3.050   2.124   3.500
14770TIP3    H244252   3.198   2.151   3.518
14771TIP3   OH244253   2.715   7.337   6.090
14771TIP3    H144254   2.656   7.300   6.156
14771TIP3    H244255   2.658   7.382   6.028
14772TIP3   OH244256   0.509   7.444   6.275
14772TIP3    H144257   0.416   7.462   6.288
14772TIP3    H244258   0.520   7.445   6.180
14773TIP3   OH244259   0.905   4.737   3.510
14773TIP3    H144260   0.827   4.682   3.506
14773TIP3    H244261   0.973   4.685   3.467
14774TIP3   OH244262   0.998   7.783   0.535
14774TIP3    H144263   0.992   7.862   0.588
14774TIP3    H244264   0.932   7.796   0.466
14775TIP3   OH244265   8.172   6.861   2.845
14775TIP3    H144266   8.229   6.825   2.777
14775TIP3    H244267   8.195   6.812   2.924
14776TIP3   OH244268   5.744   2.987   0.303
14776TIP3    H144269   5.759   2.896   0.328
14776TIP3    H244270   5.831   3.025   0.295
14777TIP3   OH244271   5.913   1.377   6.829
14777TIP3    H144272   5.959   1.378   6.913
14777TIP3    H244273   5.968   1.323   6.772
14778TIP3   OH244274   3.332   0.126   6.544
14778TIP3    H144275   3.265   0.094   6.484
14778TIP3    H244276   3.283   0.157   6.620
14779TIP3   OH244277   1.809   2.603   2.724
14779TIP3    H144278   1.742   2.654   2.678
14779TIP3    H244279   1.761   2.527   2.759
14780TIP3   OH244280   7.115   3.221   5.930
14780TIP3    H144281   7.111   3.127   5.949
14780TIP3    H244282   7.136   3.261   6.015
14781TIP3   OH244283   5.162   5.150   2.031
14781TIP3    H144284   5.237   5.168   2.087
14781TIP3    H244285   5.181   5.065   1.992
14782TIP3   OH244286   4.991   6.546   6.688
14782TIP3    H144287   5.063   6.609   6.690
14782TIP3    H244288   4.977   6.522   6.780
14783TIP3   OH244289   2.289   4.213   3.443
14783TIP3    H144290   2.252   4.278   3.384
14783TIP3    H244291   2.220   4.147   3.453
14784TIP3   OH244292   2.666   6.769   6.310
14784TIP3    H144293   2.581   6.731   6.329
14784TIP3    H244294   2.708   6.780   6.396
14785TIP3   OH244295   3.922   5.915   1.020
14785TIP3    H144296   3.926   5.909   1.116
14785TIP3    H244297   3.934   6.008   1.001
14786TIP3   OH244298   2.517   1.234   6.493
14786TIP3    H144299   2.501   1.326   6.471
14786TIP3    H244300   2.608   1.231   6.520
14787TIP3   OH244301   3.279   0.816   2.317
14787TIP3    H144302   3.347   0.882   2.313
14787TIP3    H244303   3.203   0.862   2.353
14788TIP3   OH244304   6.674   4.810   0.925
14788TIP3    H144305   6.660   4.902   0.901
14788TIP3    H244306   6.612   4.761   0.871
14789TIP3   OH244307   4.216   6.852   0.304
14789TIP3    H144308   4.178   6.928   0.260
14789TIP3    H244309   4.241   6.885   0.390
14790TIP3   OH244310   4.483   0.232   4.572
14790TIP3    H144311   4.537   0.273   4.504
14790TIP3    H244312   4.395   0.266   4.557
14791TIP3   OH244313   1.967   0.005   6.291
14791TIP3    H144314   1.988  -0.020   6.381
14791TIP3    H244315   2.044  -0.018   6.240
14792TIP3   OH244316   3.916   5.067   0.779
14792TIP3    H144317   3.844   5.035   0.725
14792TIP3    H244318   3.979   5.103   0.716
14793TIP3   OH244319   7.066   6.183   1.905
14793TIP3    H144320   6.985   6.194   1.955
14793TIP3    H244321   7.077   6.267   1.860
14794TIP3   OH244322   7.357   5.418   5.791
14794TIP3    H144323   7.314   5.494   5.752
14794TIP3    H244324   7.341   5.346   5.729
14795TIP3   OH244325   5.131   6.936   4.366
14795TIP3    H144326   5.132   6.843   4.345
14795TIP3    H244327   5.179   6.943   4.449
14796TIP3   OH244328   8.158   3.129   1.326
14796TIP3    H144329   8.079   3.079   1.304
14796TIP3    H244330   8.228   3.086   1.277
14797TIP3   OH244331   2.538   1.221   6.056
14797TIP3    H144332   2.555   1.178   6.140
14797TIP3    H244333   2.604   1.290   6.050
14798TIP3   OH244334   3.941   6.272   5.295
14798TIP3    H144335   3.977   6.277   5.383
14798TIP3    H244336   3.846   6.273   5.308
14799TIP3   OH244337   7.113   2.995   2.331
14799TIP3    H144338   7.054   2.973   2.259
14799TIP3    H244339   7.153   3.078   2.304
14800TIP3   OH244340   3.221   2.632   4.571
14800TIP3    H144341   3.130   2.656   4.552
14800TIP3    H244342   3.216   2.540   4.596
14801TIP3   OH244343   0.348   7.493   1.041
14801TIP3    H144344   0.296   7.439   1.100
14801TIP3    H244345   0.285   7.552   1.001
14802TIP3   OH244346   1.606   4.430   4.665
14802TIP3    H144347   1.513   4.451   4.658
14802TIP3    H244348   1.640   4.492   4.730
14803TIP3   OH244349   4.249   6.367   4.687
14803TIP3    H144350   4.271   6.398   4.775
14803TIP3    H244351   4.163   6.325   4.698
14804TIP3   OH244352   4.815   2.629   3.413
14804TIP3    H144353   4.739   2.685   3.429
14804TIP3    H244354   4.878   2.655   3.481
14805TIP3   OH244355   2.592   0.559   1.004
14805TIP3    H144356   2.602   0.498   1.077
14805TIP3    H244357   2.511   0.606   1.024
14806TIP3   OH244358   6.649   5.689   6.215
14806TIP3    H144359   6.627   5.603   6.250
14806TIP3    H244360   6.570   5.741   6.226
14807TIP3   OH244361   6.040   6.975   0.100
14807TIP3    H144362   6.037   6.882   0.125
14807TIP3    H244363   6.126   7.004   0.130
14808TIP3   OH244364   1.827   7.491   2.707
14808TIP3    H144365   1.821   7.409   2.658
14808TIP3    H244366   1.774   7.553   2.658
14809TIP3   OH244367   1.743   6.454   1.973
14809TIP3    H144368   1.670   6.512   1.953
14809TIP3    H244369   1.731   6.431   2.065
14810TIP3   OH244370   1.248   3.225   5.883
14810TIP3    H144371   1.248   3.265   5.796
14810TIP3    H244372   1.170   3.261   5.925
14811TIP3   OH244373   2.824   7.450   5.239
14811TIP3    H144374   2.918   7.467   5.231
14811TIP3    H244375   2.790   7.458   5.150
14812TIP3   OH244376   5.742   3.770   0.259
14812TIP3    H144377   5.831   3.750   0.230
14812TIP3    H244378   5.698   3.685   0.262
14813TIP3   OH244379   0.590   0.504   3.321
14813TIP3    H144380   0.495   0.500   3.332
14813TIP3    H244381   0.619   0.565   3.389
14814TIP3   OH244382   0.276   0.229   5.948
14814TIP3    H144383   0.368   0.208   5.935
14814TIP3    H244384   0.272   0.325   5.945
14815TIP3   OH244385   1.392   6.300   1.819
14815TIP3    H144386   1.392   6.375   1.879
14815TIP3    H244387   1.377   6.224   1.875
14816TIP3   OH244388   4.486   4.422   4.181
14816TIP3    H144389   4.509   4.509   4.150
14816TIP3    H244390   4.533   4.362   4.122
14817TIP3   OH244391   6.697   1.529   2.806
14817TIP3    H144392   6.765   1.596   2.811
14817TIP3    H244393   6.623   1.573   2.763
14818TIP3   OH244394   2.386   3.436   4.187
14818TIP3    H144395   2.437   3.487   4.250
14818TIP3    H244396   2.378   3.349   4.227
14819TIP3   OH244397   1.026   3.835   1.383
14819TIP3    H144398   1.121   3.848   1.393
14819TIP3    H244399   1.019   3.753   1.334
14820TIP3   OH244400   6.286   7.018   3.852
14820TIP3    H144401   6.269   6.968   3.772
14820TIP3    H244402   6.322   7.101   3.820
14821TIP3   OH244403   4.794   0.202   5.806
14821TIP3    H144404   4.863   0.185   5.870
14821TIP3    H244405   4.733   0.260   5.852
14822TIP3   OH244406   7.130   1.079   5.903
14822TIP3    H144407   7.036   1.096   5.895
14822TIP3    H244408   7.164   1.153   5.954
14823TIP3   OH244409   8.200   7.451   1.846
14823TIP3    H144410   8.239   7.372   1.885
14823TIP3    H244411   8.275   7.501   1.813
14824TIP3   OH244412   7.917   1.933   2.194
14824TIP3    H144413   7.934   2.004   2.132
14824TIP3    H244414   7.822   1.919   2.190
14825TIP3   OH244415   2.973   7.201   6.384
14825TIP3    H144416   3.020   7.229   6.305
14825TIP3    H244417   2.885   7.182   6.354
14826TIP3   OH244418   1.036   0.231   4.930
14826TIP3    H144419   1.106   0.201   4.873
14826TIP3    H244420   1.002   0.151   4.970
14827TIP3   OH244421   3.653   7.738   6.433
14827TIP3    H144422   3.698   7.668   6.481
14827TIP3    H244423   3.696   7.819   6.462
14828TIP3   OH244424   5.312   1.084   3.115
14828TIP3    H144425   5.281   1.000   3.082
14828TIP3    H244426   5.242   1.114   3.173
14829TIP3   OH244427   4.462   1.509   5.912
14829TIP3    H144428   4.403   1.531   5.984
14829TIP3    H244429   4.404   1.489   5.839
14830TIP3   OH244430   5.261   6.533   6.357
14830TIP3    H144431   5.274   6.486   6.275
14830TIP3    H244432   5.167   6.523   6.376
14831TIP3   OH244433   4.694   1.383   6.012
14831TIP3    H144434   4.697   1.390   6.107
14831TIP3    H244435   4.609   1.421   5.988
14832TIP3   OH244436   5.624   6.400   4.916
14832TIP3    H144437   5.599   6.343   4.989
14832TIP3    H244438   5.717   6.418   4.932
14833TIP3   OH244439   1.741   1.659   1.001
14833TIP3    H144440   1.776   1.627   0.918
14833TIP3    H244441   1.779   1.746   1.011
14834TIP3   OH244442   4.474   7.754   1.051
14834TIP3    H144443   4.453   7.832   0.999
14834TIP3    H244444   4.399   7.744   1.110
14835TIP3   OH244445   3.672   6.646   5.716
14835TIP3    H144446   3.711   6.561   5.738
14835TIP3    H244447   3.587   6.646   5.761
14836TIP3   OH244448   7.476   3.151  -0.023
14836TIP3    H144449   7.555   3.108   0.010
14836TIP3    H244450   7.410   3.082  -0.025
14837TIP3   OH244451   6.665   5.198   0.559
14837TIP3    H144452   6.620   5.164   0.481
14837TIP3    H244453   6.751   5.225   0.527
14838TIP3   OH244454   2.554   6.924   3.758
14838TIP3    H144455   2.506   6.852   3.717
14838TIP3    H244456   2.489   6.995   3.763
14839TIP3   OH244457   2.172   5.414   5.747
14839TIP3    H144458   2.180   5.424   5.842
14839TIP3    H244459   2.176   5.504   5.714
14840TIP3   OH244460   3.682   0.706   3.324
14840TIP3    H144461   3.701   0.663   3.241
14840TIP3    H244462   3.634   0.785   3.300
14841TIP3   OH244463   3.327   4.354   4.763
14841TIP3    H144464   3.244   4.387   4.728
14841TIP3    H244465   3.310   4.340   4.856
14842TIP3   OH244466   7.774   6.728   2.865
14842TIP3    H144467   7.804   6.719   2.775
14842TIP3    H244468   7.682   6.702   2.863
14843TIP3   OH244469   1.745   2.623   3.476
14843TIP3    H144470   1.791   2.706   3.469
14843TIP3    H244471   1.734   2.593   3.386
14844TIP3   OH244472   5.823   6.547   2.334
14844TIP3    H144473   5.817   6.610   2.262
14844TIP3    H244474   5.853   6.599   2.409
14845TIP3   OH244475   1.894   4.019   2.612
14845TIP3    H144476   1.847   4.002   2.693
14845TIP3    H244477   1.986   4.022   2.637
14846TIP3   OH244478   1.548   5.087   0.960
14846TIP3    H144479   1.601   5.129   1.028
14846TIP3    H244480   1.480   5.040   1.007
14847TIP3   OH244481   6.418   4.302   3.802
14847TIP3    H144482   6.424   4.273   3.711
14847TIP3    H244483   6.453   4.229   3.853
14848TIP3   OH244484   1.505   3.252   0.536
14848TIP3    H144485   1.503   3.159   0.514
14848TIP3    H244486   1.583   3.262   0.591
14849TIP3   OH244487   6.686   2.919   6.262
14849TIP3    H144488   6.716   2.865   6.190
14849TIP3    H244489   6.757   2.982   6.277
14850TIP3   OH244490   6.085   0.332   0.167
14850TIP3    H144491   6.093   0.310   0.260
14850TIP3    H244492   6.044   0.419   0.168
14851TIP3   OH244493   3.533   2.427   2.929
14851TIP3    H144494   3.464   2.392   2.986
14851TIP3    H244495   3.492   2.433   2.842
14852TIP3   OH244496   3.552   2.336   1.959
14852TIP3    H144497   3.617   2.280   2.002
14852TIP3    H244498   3.598   2.418   1.943
14853TIP3   OH244499   0.814   2.906   5.815
14853TIP3    H144500   0.783   2.980   5.867
14853TIP3    H244501   0.866   2.853   5.876
14854TIP3   OH244502   4.935   5.188   5.754
14854TIP3    H144503   4.850   5.188   5.797
14854TIP3    H244504   4.969   5.099   5.767
14855TIP3   OH244505   6.311   2.431   2.082
14855TIP3    H144506   6.295   2.348   2.126
14855TIP3    H244507   6.392   2.417   2.033
14856TIP3   OH244508   3.695   7.467   3.215
14856TIP3    H144509   3.780   7.425   3.205
14856TIP3    H244510   3.671   7.494   3.127
14857TIP3   OH244511   3.597   0.166   1.178
14857TIP3    H144512   3.620   0.201   1.264
14857TIP3    H244513   3.524   0.220   1.148
14858TIP3   OH244514   5.557   7.492   4.801
14858TIP3    H144515   5.476   7.518   4.759
14858TIP3    H244516   5.540   7.502   4.895
14859TIP3   OH244517   6.024   1.198   1.279
14859TIP3    H144518   6.062   1.260   1.342
14859TIP3    H244519   6.018   1.247   1.197
14860TIP3   OH244520   5.459   2.847   6.457
14860TIP3    H144521   5.378   2.846   6.509
14860TIP3    H244522   5.505   2.767   6.483
14861TIP3   OH244523   2.142   1.154   5.530
14861TIP3    H144524   2.081   1.081   5.530
14861TIP3    H244525   2.219   1.122   5.578
14862TIP3   OH244526   1.713   0.140   3.897
14862TIP3    H144527   1.667   0.132   3.814
14862TIP3    H244528   1.739   0.232   3.902
14863TIP3   OH244529   1.417   1.223   2.165
14863TIP3    H144530   1.447   1.148   2.217
14863TIP3    H244531   1.377   1.282   2.229
14864TIP3   OH244532   4.060   2.613   5.752
14864TIP3    H144533   4.057   2.526   5.712
14864TIP3    H244534   4.084   2.672   5.681
14865TIP3   OH244535   4.801   7.154   5.608
14865TIP3    H144536   4.774   7.080   5.554
14865TIP3    H244537   4.738   7.155   5.680
14866TIP3   OH244538   4.606   2.824   4.762
14866TIP3    H144539   4.589   2.902   4.709
14866TIP3    H244540   4.559   2.840   4.843
14867TIP3   OH244541   5.014   0.524   4.467
14867TIP3    H144542   4.930   0.550   4.506
14867TIP3    H244543   5.079   0.579   4.511
14868TIP3   OH244544   4.349   7.251   5.343
14868TIP3    H144545   4.398   7.203   5.276
14868TIP3    H244546   4.392   7.229   5.425
14869TIP3   OH244547   3.102   6.186   1.369
14869TIP3    H144548   3.090   6.230   1.454
14869TIP3    H244549   3.016   6.151   1.348
14870TIP3   OH244550   6.878   1.773   2.288
14870TIP3    H144551   6.832   1.820   2.357
14870TIP3    H244552   6.811   1.752   2.223
14871TIP3   OH244553   6.783   1.935   6.370
14871TIP3    H144554   6.736   1.955   6.451
14871TIP3    H244555   6.855   1.999   6.367
14872TIP3   OH244556   2.457   3.763   2.043
14872TIP3    H144557   2.485   3.705   2.114
14872TIP3    H244558   2.539   3.793   2.003
14873TIP3   OH244559   2.105   6.614   3.773
14873TIP3    H144560   2.097   6.710   3.777
14873TIP3    H244561   2.152   6.592   3.854
14874TIP3   OH244562   8.202   2.641   3.434
14874TIP3    H144563   8.117   2.596   3.433
14874TIP3    H244564   8.185   2.725   3.475
14875TIP3   OH244565   5.663   7.552   1.463
14875TIP3    H144566   5.660   7.582   1.554
14875TIP3    H244567   5.665   7.633   1.412
14876TIP3   OH244568   5.271   7.543   0.261
14876TIP3    H144569   5.345   7.499   0.302
14876TIP3    H244570   5.303   7.631   0.241
14877TIP3   OH244571   2.391   2.800   1.845
14877TIP3    H144572   2.406   2.826   1.754
14877TIP3    H244573   2.477   2.770   1.875
14878TIP3   OH244574   5.709   2.448   3.490
14878TIP3    H144575   5.714   2.541   3.511
14878TIP3    H244576   5.779   2.434   3.425
14879TIP3   OH244577   5.727   6.981   0.065
14879TIP3    H144578   5.678   7.002   0.144
14879TIP3    H244579   5.732   7.064   0.017
14880TIP3   OH244580   5.952   2.437   5.098
14880TIP3    H144581   5.893   2.496   5.144
14880TIP3    H244582   6.029   2.430   5.154
14881TIP3   OH244583   3.055   7.413   4.958
14881TIP3    H144584   3.103   7.371   4.887
14881TIP3    H244585   3.082   7.366   5.037
14882TIP3   OH244586   7.453   6.975   6.550
14882TIP3    H144587   7.378   7.005   6.499
14882TIP3    H244588   7.522   6.962   6.485
14883TIP3   OH244589   4.909   3.908   5.815
14883TIP3    H144590   4.909   3.830   5.871
14883TIP3    H244591   4.997   3.910   5.776
14884TIP3   OH244592   2.447   6.790   2.409
14884TIP3    H144593   2.364   6.780   2.363
14884TIP3    H244594   2.481   6.701   2.417
14885TIP3   OH244595   6.037   6.099   6.155
14885TIP3    H144596   6.050   6.077   6.063
14885TIP3    H244597   6.022   6.194   6.155
14886TIP3   OH244598   7.128   2.088   2.969
14886TIP3    H144599   7.055   2.142   3.000
14886TIP3    H244600   7.189   2.150   2.930
14887TIP3   OH244601   7.282   2.956   4.904
14887TIP3    H144602   7.361   2.952   4.956
14887TIP3    H244603   7.217   2.996   4.962
14888TIP3   OH244604   4.101   1.895   4.879
14888TIP3    H144605   4.150   1.969   4.915
14888TIP3    H244606   4.134   1.819   4.927
14889TIP3   OH244607   6.168   4.363   6.618
14889TIP3    H144608   6.145   4.273   6.593
14889TIP3    H244609   6.252   4.354   6.663
14890TIP3   OH244610   7.904   5.025   3.143
14890TIP3    H144611   7.931   5.012   3.052
14890TIP3    H244612   7.859   4.944   3.167
14891TIP3   OH244613   2.494   3.210   2.610
14891TIP3    H144614   2.419   3.213   2.552
14891TIP3    H244615   2.459   3.230   2.697
14892TIP3   OH244616   0.152   5.093   2.414
14892TIP3    H144617   0.102   5.139   2.346
14892TIP3    H244618   0.090   5.082   2.486
14893TIP3   OH244619   6.005   5.198   3.056
14893TIP3    H144620   5.984   5.211   3.148
14893TIP3    H244621   5.938   5.247   3.009
14894TIP3   OH244622   7.031   4.458   4.866
14894TIP3    H144623   7.101   4.393   4.858
14894TIP3    H244624   7.072   4.532   4.911
14895TIP3   OH244625   5.779   3.818   6.780
14895TIP3    H144626   5.875   3.814   6.788
14895TIP3    H244627   5.756   3.741   6.728
14896TIP3   OH244628   5.513   1.029   6.169
14896TIP3    H144629   5.447   1.029   6.100
14896TIP3    H244630   5.478   1.087   6.236
14897TIP3   OH244631   3.798   1.552   6.637
14897TIP3    H144632   3.708   1.538   6.608
14897TIP3    H244633   3.851   1.500   6.577
14898TIP3   OH244634   2.314   2.457   0.183
14898TIP3    H144635   2.237   2.492   0.138
14898TIP3    H244636   2.332   2.522   0.252
14899TIP3   OH244637   1.303   6.977   3.141
14899TIP3    H144638   1.240   7.011   3.077
14899TIP3    H244639   1.248   6.949   3.215
14900TIP3   OH244640   1.719   6.127   0.721
14900TIP3    H144641   1.791   6.069   0.696
14900TIP3    H244642   1.686   6.091   0.803
14901TIP3   OH244643   3.358   4.437   0.396
14901TIP3    H144644   3.359   4.355   0.347
14901TIP3    H244645   3.270   4.473   0.380
14902TIP3   OH244646   3.617   5.517   2.057
14902TIP3    H144647   3.583   5.537   2.144
14902TIP3    H244648   3.574   5.580   1.999
14903TIP3   OH244649   7.177   6.596   2.038
14903TIP3    H144650   7.256   6.543   2.030
14903TIP3    H244651   7.122   6.549   2.100
14904TIP3   OH244652   5.325   2.910   1.835
14904TIP3    H144653   5.253   2.846   1.838
14904TIP3    H244654   5.291   2.986   1.882
14905TIP3   OH244655   0.742   4.844   3.207
14905TIP3    H144656   0.788   4.918   3.247
14905TIP3    H244657   0.659   4.839   3.254
14906TIP3   OH244658   2.946   3.955   2.090
14906TIP3    H144659   2.935   3.957   1.994
14906TIP3    H244660   3.018   4.014   2.108
14907TIP3   OH244661   6.936   6.412   0.596
14907TIP3    H144662   6.988   6.346   0.550
14907TIP3    H244663   6.953   6.493   0.549
14908TIP3   OH244664   6.343   4.747   6.602
14908TIP3    H144665   6.418   4.688   6.602
14908TIP3    H244666   6.305   4.739   6.690
14909TIP3   OH244667   4.675   0.171   4.936
14909TIP3    H144668   4.724   0.133   4.864
14909TIP3    H244669   4.655   0.260   4.908
14910TIP3   OH244670   6.567   4.558   2.947
14910TIP3    H144671   6.514   4.488   2.986
14910TIP3    H244672   6.625   4.585   3.018
14911TIP3   OH244673   5.405   1.489   6.312
14911TIP3    H144674   5.414   1.394   6.307
14911TIP3    H244675   5.436   1.521   6.227
14912TIP3   OH244676   7.575   3.463   4.245
14912TIP3    H144677   7.610   3.406   4.176
14912TIP3    H244678   7.547   3.542   4.198
14913TIP3   OH244679   7.727   4.363   2.144
14913TIP3    H144680   7.685   4.333   2.064
14913TIP3    H244681   7.693   4.304   2.212
14914TIP3   OH244682   5.987   7.598   0.511
14914TIP3    H144683   5.908   7.628   0.468
14914TIP3    H244684   6.015   7.521   0.460
14915TIP3   OH244685   3.126   3.770   5.705
14915TIP3    H144686   3.041   3.730   5.687
14915TIP3    H244687   3.122   3.855   5.661
14916TIP3   OH244688   7.630   3.162   2.159
14916TIP3    H144689   7.623   3.067   2.172
14916TIP3    H244690   7.720   3.176   2.132
14917TIP3   OH244691   0.223   6.582   6.750
14917TIP3    H144692   0.231   6.566   6.844
14917TIP3    H244693   0.248   6.500   6.709
14918TIP3   OH244694   7.970   6.894   2.028
14918TIP3    H144695   7.969   6.939   2.112
14918TIP3    H244696   8.000   6.960   1.966
14919TIP3   OH244697   0.705   2.222   6.541
14919TIP3    H144698   0.750   2.286   6.597
14919TIP3    H244699   0.614   2.225   6.570
14920TIP3   OH244700   3.584   3.702   2.019
14920TIP3    H144701   3.545   3.736   2.100
14920TIP3    H244702   3.662   3.756   2.006
14921TIP3   OH244703   4.747   4.241   3.683
14921TIP3    H144704   4.739   4.161   3.735
14921TIP3    H244705   4.665   4.247   3.635
14922TIP3   OH244706   2.066   0.553   0.085
14922TIP3    H144707   2.123   0.582   0.014
14922TIP3    H244708   2.067   0.626   0.147
14923TIP3   OH244709   7.073   3.457   5.772
14923TIP3    H144710   7.134   3.519   5.812
14923TIP3    H244711   7.088   3.375   5.818
14924TIP3   OH244712   4.592   6.381   1.874
14924TIP3    H144713   4.658   6.399   1.807
14924TIP3    H244714   4.609   6.291   1.901
14925TIP3   OH244715   0.607   3.748   1.838
14925TIP3    H144716   0.561   3.793   1.767
14925TIP3    H244717   0.683   3.802   1.855
14926TIP3   OH244718   4.533   4.628   1.959
14926TIP3    H144719   4.476   4.552   1.944
14926TIP3    H244720   4.610   4.611   1.903
14927TIP3   OH244721   5.548   7.866   0.842
14927TIP3    H144722   5.550   7.931   0.911
14927TIP3    H244723   5.529   7.783   0.886
14928TIP3   OH244724   4.794   1.844   3.108
14928TIP3    H144725   4.770   1.932   3.081
14928TIP3    H244726   4.729   1.821   3.175
14929TIP3   OH244727   8.270   0.304   6.400
14929TIP3    H144728   8.199   0.365   6.379
14929TIP3    H244729   8.350   0.356   6.391
14930TIP3   OH244730   6.702   1.102   5.264
14930TIP3    H144731   6.732   1.062   5.182
14930TIP3    H244732   6.727   1.194   5.256
14931TIP3   OH244733   6.826   3.122   6.371
14931TIP3    H144734   6.860   3.198   6.324
14931TIP3    H244735   6.879   3.118   6.451
14932TIP3   OH244736   0.749   4.074   4.142
14932TIP3    H144737   0.659   4.043   4.128
14932TIP3    H244738   0.801   3.994   4.148
14933TIP3   OH244739   1.165   4.698   6.263
14933TIP3    H144740   1.177   4.793   6.263
14933TIP3    H244741   1.248   4.664   6.230
14934TIP3   OH244742   0.256   5.149   5.580
14934TIP3    H144743   0.260   5.212   5.509
14934TIP3    H244744   0.314   5.078   5.553
14935TIP3   OH244745   2.926   1.122   5.432
14935TIP3    H144746   2.904   1.208   5.468
14935TIP3    H244747   2.850   1.068   5.453
14936TIP3   OH244748   8.311   2.152   2.224
14936TIP3    H144749   8.265   2.080   2.267
14936TIP3    H244750   8.252   2.227   2.235
14937TIP3   OH244751   7.893   2.953   5.362
14937TIP3    H144752   7.925   2.943   5.272
14937TIP3    H244753   7.798   2.941   5.355
14938TIP3   OH244754   3.139   4.191   6.873
14938TIP3    H144755   3.135   4.286   6.887
14938TIP3    H244756   3.218   4.177   6.822
14939TIP3   OH244757   1.702   6.646   2.659
14939TIP3    H144758   1.720   6.739   2.672
14939TIP3    H244759   1.607   6.641   2.650
14940TIP3   OH244760   8.045   1.232   1.835
14940TIP3    H144761   8.090   1.269   1.911
14940TIP3    H244762   8.057   1.137   1.844
14941TIP3   OH244763   5.176   2.538   1.630
14941TIP3    H144764   5.180   2.442   1.621
14941TIP3    H244765   5.087   2.560   1.604
14942TIP3   OH244766   3.670   4.524   1.966
14942TIP3    H144767   3.744   4.492   2.017
14942TIP3    H244768   3.694   4.612   1.941
14943TIP3   OH244769   7.550   0.620   5.163
14943TIP3    H144770   7.536   0.537   5.208
14943TIP3    H244771   7.587   0.677   5.230
14944TIP3   OH244772   2.701   1.051   4.709
14944TIP3    H144773   2.732   1.079   4.623
14944TIP3    H244774   2.665   0.964   4.694
14945TIP3   OH244775   2.246   5.541   5.017
14945TIP3    H144776   2.255   5.635   5.000
14945TIP3    H244777   2.195   5.509   4.942
14946TIP3   OH244778   0.208   4.897   3.967
14946TIP3    H144779   0.174   4.863   3.884
14946TIP3    H244780   0.284   4.950   3.942
14947TIP3   OH244781   1.556   5.953   3.191
14947TIP3    H144782   1.509   5.901   3.125
14947TIP3    H244783   1.648   5.928   3.178
14948TIP3   OH244784   2.633   2.638   1.856
14948TIP3    H144785   2.706   2.675   1.807
14948TIP3    H244786   2.591   2.578   1.795
14949TIP3   OH244787   2.364   2.114   1.325
14949TIP3    H144788   2.383   2.175   1.254
14949TIP3    H244789   2.293   2.155   1.374
14950TIP3   OH244790   5.497   6.784   1.349
14950TIP3    H144791   5.494   6.722   1.275
14950TIP3    H244792   5.490   6.870   1.308
14951TIP3   OH244793   0.675   2.135   4.687
14951TIP3    H144794   0.765   2.157   4.709
14951TIP3    H244795   0.667   2.156   4.594
14952TIP3   OH244796   7.593   4.396   3.885
14952TIP3    H144797   7.641   4.330   3.834
14952TIP3    H244798   7.615   4.378   3.976
14953TIP3   OH244799   0.394   3.895   6.073
14953TIP3    H144800   0.410   3.939   5.990
14953TIP3    H244801   0.476   3.905   6.122
14954TIP3   OH244802   3.911   5.390   2.857
14954TIP3    H144803   3.856   5.465   2.837
14954TIP3    H244804   3.899   5.330   2.783
14955TIP3   OH244805   1.395   6.130   2.453
14955TIP3    H144806   1.439   6.083   2.383
14955TIP3    H244807   1.435   6.097   2.533
14956TIP3   OH244808   2.199   4.774   5.438
14956TIP3    H144809   2.112   4.813   5.428
14956TIP3    H244810   2.259   4.841   5.404
14957TIP3   OH244811   2.651   7.585   0.607
14957TIP3    H144812   2.633   7.521   0.538
14957TIP3    H244813   2.564   7.621   0.629
14958TIP3   OH244814   1.678   5.115   1.200
14958TIP3    H144815   1.686   5.021   1.181
14958TIP3    H244816   1.644   5.118   1.289
14959TIP3   OH244817   6.835   1.693   3.421
14959TIP3    H144818   6.742   1.716   3.419
14959TIP3    H244819   6.878   1.770   3.459
14960TIP3   OH244820   1.668   5.614   4.922
14960TIP3    H144821   1.740   5.670   4.952
14960TIP3    H244822   1.685   5.529   4.963
14961TIP3   OH244823   6.370   4.960   1.011
14961TIP3    H144824   6.356   5.050   0.979
14961TIP3    H244825   6.463   4.956   1.031
14962TIP3   OH244826   7.980   4.030   5.650
14962TIP3    H144827   8.042   3.956   5.647
14962TIP3    H244828   7.894   3.989   5.643
14963TIP3   OH244829   8.318   5.888   0.148
14963TIP3    H144830   8.319   5.941   0.069
14963TIP3    H244831   8.370   5.937   0.211
14964TIP3   OH244832   4.003   7.938   0.107
14964TIP3    H144833   4.095   7.965   0.111
14964TIP3    H244834   4.004   7.854   0.062
14965TIP3   OH244835   0.966   2.479   3.305
14965TIP3    H144836   0.931   2.521   3.226
14965TIP3    H244837   0.923   2.394   3.307
14966TIP3   OH244838   4.998   1.492   2.536
14966TIP3    H144839   5.045   1.561   2.488
14966TIP3    H244840   4.939   1.454   2.471
14967TIP3   OH244841   5.669   7.254   5.486
14967TIP3    H144842   5.762   7.268   5.505
14967TIP3    H244843   5.631   7.230   5.570
14968TIP3   OH244844   0.841   1.822   2.271
14968TIP3    H144845   0.886   1.834   2.354
14968TIP3    H244846   0.834   1.727   2.260
14969TIP3   OH244847   4.719   5.580   4.939
14969TIP3    H144848   4.664   5.582   4.860
14969TIP3    H244849   4.689   5.654   4.991
14970TIP3   OH244850   8.046   5.870   4.285
14970TIP3    H144851   7.954   5.844   4.288
14970TIP3    H244852   8.065   5.880   4.192
14971TIP3   OH244853   6.330   1.132   5.503
14971TIP3    H144854   6.272   1.057   5.494
14971TIP3    H244855   6.414   1.095   5.531
14972TIP3   OH244856   6.958   2.917   3.191
14972TIP3    H144857   6.985   2.900   3.101
14972TIP3    H244858   7.017   2.863   3.244
14973TIP3   OH244859   0.189   1.399   3.340
14973TIP3    H144860   0.211   1.353   3.260
14973TIP3    H244861   0.268   1.393   3.394
14974TIP3   OH244862   5.253   1.199   2.311
14974TIP3    H144863   5.252   1.248   2.394
14974TIP3    H244864   5.298   1.118   2.333
14975TIP3   OH244865   6.438   4.351   6.715
14975TIP3    H144866   6.426   4.390   6.802
14975TIP3    H244867   6.532   4.359   6.698
14976TIP3   OH244868   2.094   7.181   3.564
14976TIP3    H144869   2.014   7.219   3.600
14976TIP3    H244870   2.073   7.162   3.473
14977TIP3   OH244871   3.852   2.254   3.718
14977TIP3    H144872   3.853   2.256   3.814
14977TIP3    H244873   3.838   2.345   3.692
14978TIP3   OH244874   2.284   6.821   0.984
14978TIP3    H144875   2.217   6.801   1.049
14978TIP3    H244876   2.300   6.915   0.994
14979TIP3   OH244877   6.892   5.858   6.174
14979TIP3    H144878   6.889   5.861   6.078
14979TIP3    H244879   6.802   5.837   6.199
14980TIP3   OH244880   0.473   6.734   4.154
14980TIP3    H144881   0.539   6.760   4.090
14980TIP3    H244882   0.398   6.707   4.101
14981TIP3   OH244883   1.290   5.918   1.065
14981TIP3    H144884   1.305   5.843   1.122
14981TIP3    H244885   1.327   5.992   1.113
14982TIP3   OH244886   5.750   7.305   4.165
14982TIP3    H144887   5.690   7.315   4.240
14982TIP3    H244888   5.784   7.216   4.174
14983TIP3   OH244889   7.081   3.340   3.640
14983TIP3    H144890   7.014   3.273   3.626
14983TIP3    H244891   7.139   3.332   3.564
14984TIP3   OH244892   7.882   1.324   5.455
14984TIP3    H144893   7.875   1.274   5.374
14984TIP3    H244894   7.954   1.386   5.439
14985TIP3   OH244895   4.840   4.179   5.040
14985TIP3    H144896   4.899   4.212   5.108
14985TIP3    H244897   4.784   4.253   5.018
14986TIP3   OH244898   1.187   6.680   0.056
14986TIP3    H144899   1.168   6.760   0.006
14986TIP3    H244900   1.145   6.610   0.006
14987TIP3   OH244901   7.377   1.178   1.476
14987TIP3    H144902   7.350   1.091   1.448
14987TIP3    H244903   7.466   1.189   1.440
14988TIP3   OH244904   3.599   4.758   4.172
14988TIP3    H144905   3.594   4.789   4.081
14988TIP3    H244906   3.613   4.664   4.164
14989TIP3   OH244907   2.744   6.848   2.496
14989TIP3    H144908   2.750   6.836   2.401
14989TIP3    H244909   2.654   6.879   2.510
14990TIP3   OH244910   5.463   7.743   2.124
14990TIP3    H144911   5.480   7.806   2.194
14990TIP3    H244912   5.510   7.778   2.048
14991TIP3   OH244913   5.618   7.860   5.645
14991TIP3    H144914   5.564   7.927   5.687
14991TIP3    H244915   5.699   7.858   5.696
14992TIP3   OH244916   1.837   5.833   4.496
14992TIP3    H144917   1.751   5.816   4.534
14992TIP3    H244918   1.825   5.911   4.442
14993TIP3   OH244919   7.543   4.452   0.696
14993TIP3    H144920   7.504   4.385   0.640
14993TIP3    H244921   7.605   4.404   0.750
14994TIP3   OH244922   6.864   1.771   2.682
14994TIP3    H144923   6.795   1.778   2.615
14994TIP3    H244924   6.853   1.849   2.736
14995TIP3   OH244925   2.591   4.264   3.843
14995TIP3    H144926   2.518   4.307   3.799
14995TIP3    H244927   2.626   4.331   3.903
14996TIP3   OH244928   2.877   6.275   0.850
14996TIP3    H144929   2.964   6.263   0.890
14996TIP3    H244930   2.818   6.223   0.905
14997TIP3   OH244931   7.526   4.512   4.581
14997TIP3    H144932   7.550   4.540   4.669
14997TIP3    H244933   7.476   4.431   4.593
14998TIP3   OH244934   2.914   1.756   4.038
14998TIP3    H144935   2.931   1.679   3.984
14998TIP3    H244936   2.969   1.825   4.000
14999TIP3   OH244937   3.681   6.985   2.067
14999TIP3    H144938   3.745   7.053   2.084
14999TIP3    H244939   3.666   6.944   2.152
15000TIP3   OH244940   7.287   1.763   4.456
15000TIP3    H144941   7.350   1.765   4.385
15000TIP3    H244942   7.224   1.695   4.431
15001TIP3   OH244943   4.870   1.827   1.996
15001TIP3    H144944   4.845   1.919   1.989
15001TIP3    H244945   4.937   1.814   1.930
15002TIP3   OH244946   7.977   1.436   0.903
15002TIP3    H144947   8.003   1.388   0.825
15002TIP3    H244948   7.917   1.378   0.949
15003TIP3   OH244949   3.826   2.122   0.396
15003TIP3    H144950   3.885   2.184   0.354
15003TIP3    H244951   3.811   2.054   0.330
15004TIP3   OH244952   6.051   3.634   6.290
15004TIP3    H144953   6.136   3.678   6.301
15004TIP3    H244954   6.043   3.579   6.368
15005TIP3   OH244955   2.661   1.273   1.278
15005TIP3    H144956   2.644   1.352   1.226
15005TIP3    H244957   2.750   1.285   1.310
15006TIP3   OH244958   6.645   5.429   3.064
15006TIP3    H144959   6.712   5.361   3.066
15006TIP3    H244960   6.619   5.434   2.972
15007TIP3   OH244961   0.357   5.336   1.185
15007TIP3    H144962   0.378   5.428   1.166
15007TIP3    H244963   0.299   5.340   1.261
15008TIP3   OH244964   0.717   4.940   5.494
15008TIP3    H144965   0.776   5.010   5.466
15008TIP3    H244966   0.760   4.901   5.570
15009TIP3   OH244967   7.772   1.896   4.632
15009TIP3    H144968   7.828   1.974   4.641
15009TIP3    H244969   7.691   1.930   4.595
15010TIP3   OH244970   2.164   5.321   3.810
15010TIP3    H144971   2.232   5.275   3.760
15010TIP3    H244972   2.208   5.400   3.843
15011TIP3   OH244973   6.922   5.660   3.183
15011TIP3    H144974   6.974   5.593   3.139
15011TIP3    H244975   6.846   5.672   3.126
15012TIP3   OH244976   5.190   7.106   1.941
15012TIP3    H144977   5.284   7.092   1.930
15012TIP3    H244978   5.152   7.018   1.934
15013TIP3   OH244979   2.299   0.580   3.125
15013TIP3    H144980   2.260   0.653   3.076
15013TIP3    H244981   2.393   0.590   3.111
15014TIP3   OH244982   3.229   7.880   3.210
15014TIP3    H144983   3.233   7.954   3.150
15014TIP3    H244984   3.248   7.919   3.296
15015TIP3   OH244985   2.145   3.354   1.087
15015TIP3    H144986   2.162   3.448   1.095
15015TIP3    H244987   2.199   3.326   1.014
15016TIP3   OH244988   0.617   4.100   5.440
15016TIP3    H144989   0.545   4.093   5.377
15016TIP3    H244990   0.631   4.010   5.469
15017TIP3   OH244991   7.884   7.737   2.870
15017TIP3    H144992   7.853   7.692   2.791
15017TIP3    H244993   7.826   7.707   2.940
15018TIP3   OH244994   1.035   2.068   0.426
15018TIP3    H144995   1.051   2.050   0.519
15018TIP3    H244996   1.098   2.014   0.380
15019TIP3   OH244997   6.773   0.136   3.682
15019TIP3    H144998   6.815   0.152   3.767
15019TIP3    H244999   6.760   0.041   3.679
15020TIP3   OH245000   8.088   4.635   5.805
15020TIP3    H145001   8.028   4.571   5.842
15020TIP3    H245002   8.041   4.718   5.809
15021TIP3   OH245003   2.882   5.504   4.108
15021TIP3    H145004   2.934   5.437   4.152
15021TIP3    H245005   2.925   5.516   4.023
15022TIP3   OH245006   0.443   4.973   5.473
15022TIP3    H145007   0.538   4.980   5.482
15022TIP3    H245008   0.423   4.883   5.500
15023TIP3   OH245009   5.360   5.627   1.314
15023TIP3    H145010   5.451   5.657   1.316
15023TIP3    H245011   5.366   5.534   1.294
15024TIP3   OH245012   7.795   5.230   5.665
15024TIP3    H145013   7.879   5.277   5.662
15024TIP3    H245014   7.762   5.235   5.575
15025TIP3   OH245015   6.775   4.944   4.065
15025TIP3    H145016   6.830   4.869   4.044
15025TIP3    H245017   6.836   5.016   4.077
15026TIP3   OH245018   1.134   7.877   5.292
15026TIP3    H145019   1.171   7.790   5.283
15026TIP3    H245020   1.184   7.931   5.229
15027TIP3   OH245021   8.086   2.359   3.267
15027TIP3    H145022   8.003   2.405   3.267
15027TIP3    H245023   8.063   2.266   3.278
15028TIP3   OH245024   6.315   1.751   3.671
15028TIP3    H145025   6.232   1.762   3.717
15028TIP3    H245026   6.326   1.657   3.663
15029TIP3   OH245027   1.743   3.487   0.502
15029TIP3    H145028   1.685   3.505   0.428
15029TIP3    H245029   1.820   3.542   0.486
15030TIP3   OH245030   3.084   6.704   2.967
15030TIP3    H145031   3.008   6.647   2.981
15030TIP3    H245032   3.047   6.787   2.938
15031TIP3   OH245033   7.152   1.804   1.822
15031TIP3    H145034   7.079   1.751   1.792
15031TIP3    H245035   7.139   1.814   1.916
15032TIP3   OH245036   5.785   3.060   6.296
15032TIP3    H145037   5.785   2.966   6.278
15032TIP3    H245038   5.872   3.078   6.331
15033TIP3   OH245039   6.386   7.654   1.589
15033TIP3    H145040   6.397   7.749   1.579
15033TIP3    H245041   6.440   7.631   1.665
15034TIP3   OH245042   4.897   5.919   1.221
15034TIP3    H145043   4.946   5.999   1.241
15034TIP3    H245044   4.964   5.854   1.201
15035TIP3   OH245045   2.365   6.753   0.733
15035TIP3    H145046   2.328   6.736   0.820
15035TIP3    H245047   2.358   6.848   0.723
15036TIP3   OH245048   3.436   4.289   4.126
15036TIP3    H145049   3.409   4.331   4.207
15036TIP3    H245050   3.418   4.354   4.058
15037TIP3   OH245051   0.332   6.333   2.072
15037TIP3    H145052   0.368   6.275   2.006
15037TIP3    H245053   0.290   6.275   2.135
15038TIP3   OH245054   1.174   0.883   5.957
15038TIP3    H145055   1.160   0.832   5.878
15038TIP3    H245056   1.173   0.974   5.927
15039TIP3   OH245057   7.973   5.444   4.953
15039TIP3    H145058   8.049   5.411   5.000
15039TIP3    H245059   7.998   5.531   4.924
15040TIP3   OH245060   7.854  -0.035   4.304
15040TIP3    H145061   7.882   0.043   4.256
15040TIP3    H245062   7.759  -0.034   4.298
15041TIP3   OH245063   0.088   7.619   4.613
15041TIP3    H145064   0.182   7.601   4.615
15041TIP3    H245065   0.055   7.582   4.695
15042TIP3   OH245066   4.936   0.631   5.187
15042TIP3    H145067   4.959   0.670   5.103
15042TIP3    H245068   4.954   0.700   5.251
15043TIP3   OH245069   6.229   6.702   1.281
15043TIP3    H145070   6.204   6.708   1.189
15043TIP3    H245071   6.325   6.699   1.280
15044TIP3   OH245072   2.863   7.496   3.686
15044TIP3    H145073   2.898   7.555   3.753
15044TIP3    H245074   2.769   7.494   3.703
15045TIP3   OH245075   0.871   4.133   4.432
15045TIP3    H145076   0.805   4.202   4.438
15045TIP3    H245077   0.867   4.103   4.341
15046TIP3   OH245078   2.377   1.719   0.099
15046TIP3    H145079   2.334   1.794   0.139
15046TIP3    H245080   2.388   1.656   0.170
15047TIP3   OH245081   5.149   6.841   2.007
15047TIP3    H145082   5.206   6.771   1.976
15047TIP3    H245083   5.080   6.848   1.942
15048TIP3   OH245084   2.139   0.567   1.824
15048TIP3    H145085   2.105   0.648   1.786
15048TIP3    H245086   2.082   0.549   1.899
15049TIP3   OH245087   6.201   3.512   1.613
15049TIP3    H145088   6.241   3.591   1.651
15049TIP3    H245089   6.108   3.534   1.605
15050TIP3   OH245090   4.580   2.204   2.718
15050TIP3    H145091   4.494   2.220   2.756
15050TIP3    H245092   4.630   2.284   2.735
15051TIP3   OH245093   2.613   4.128   5.790
15051TIP3    H145094   2.582   4.076   5.864
15051TIP3    H245095   2.708   4.136   5.804
15052TIP3   OH245096   4.383   6.955   6.764
15052TIP3    H145097   4.342   7.006   6.694
15052TIP3    H245098   4.410   7.019   6.829
15053TIP3   OH245099   6.407   5.289   0.967
15053TIP3    H145100   6.378   5.363   1.020
15053TIP3    H245101   6.363   5.300   0.883
15054TIP3   OH245102   4.068   7.052   2.145
15054TIP3    H145103   4.064   6.960   2.118
15054TIP3    H245104   4.158   7.078   2.128
15055TIP3   OH245105   0.374   2.105   2.968
15055TIP3    H145106   0.413   2.022   2.943
15055TIP3    H245107   0.353   2.095   3.061
15056TIP3   OH245108   5.764   3.856   4.735
15056TIP3    H145109   5.723   3.906   4.664
15056TIP3    H245110   5.787   3.772   4.695
15057TIP3   OH245111   2.539   0.346   0.820
15057TIP3    H145112   2.622   0.336   0.774
15057TIP3    H245113   2.555   0.416   0.883
15058TIP3   OH245114   1.894   6.266   3.920
15058TIP3    H145115   1.823   6.330   3.931
15058TIP3    H245116   1.952   6.282   3.995
15059TIP3   OH245117   4.632   6.537   1.246
15059TIP3    H145118   4.539   6.541   1.222
15059TIP3    H245119   4.678   6.523   1.163
15060TIP3   OH245120   7.001   1.742   5.424
15060TIP3    H145121   7.068   1.699   5.372
15060TIP3    H245122   7.048   1.777   5.500
15061TIP3   OH245123   4.259   4.670   4.323
15061TIP3    H145124   4.337   4.660   4.268
15061TIP3    H245125   4.197   4.607   4.288
15062TIP3   OH245126   0.664   4.560   3.533
15062TIP3    H145127   0.672   4.479   3.482
15062TIP3    H245128   0.572   4.583   3.527
15063TIP3   OH245129   0.280   0.672   6.441
15063TIP3    H145130   0.371   0.689   6.414
15063TIP3    H245131   0.254   0.751   6.488
15064TIP3   OH245132   3.873   0.819   1.894
15064TIP3    H145133   3.931   0.828   1.970
15064TIP3    H245134   3.925   0.850   1.820
15065TIP3   OH245135   3.446   0.443   4.699
15065TIP3    H145136   3.461   0.362   4.748
15065TIP3    H245137   3.532   0.467   4.666
15066TIP3   OH245138   1.566   6.858   2.932
15066TIP3    H145139   1.479   6.819   2.921
15066TIP3    H245140   1.555   6.921   3.003
15067TIP3   OH245141   1.282   1.640   2.955
15067TIP3    H145142   1.210   1.619   2.896
15067TIP3    H245143   1.257   1.722   2.996
15068TIP3   OH245144   2.322   7.389   2.639
15068TIP3    H145145   2.241   7.349   2.670
15068TIP3    H245146   2.378   7.393   2.716
15069TIP3   OH245147   1.260   6.914   4.691
15069TIP3    H145148   1.189   6.851   4.679
15069TIP3    H245149   1.328   6.886   4.629
15070TIP3   OH245150   3.469   1.092   0.072
15070TIP3    H145151   3.530   1.154   0.030
15070TIP3    H245152   3.497   1.006   0.041
15071TIP3   OH245153   7.758   0.344   3.079
15071TIP3    H145154   7.831   0.390   3.119
15071TIP3    H245155   7.799   0.284   3.016
15072TIP3   OH245156   5.747   0.013   1.809
15072TIP3    H145157   5.705   0.098   1.797
15072TIP3    H245158   5.837   0.035   1.833
15073TIP3   OH245159   5.653   4.486   6.704
15073TIP3    H145160   5.748   4.472   6.699
15073TIP3    H245161   5.628   4.448   6.788
15074TIP3   OH245162   2.238   3.936   2.339
15074TIP3    H145163   2.187   3.979   2.409
15074TIP3    H245164   2.192   3.854   2.324
15075TIP3   OH245165   3.473   2.121   3.273
15075TIP3    H145166   3.496   2.072   3.352
15075TIP3    H245167   3.547   2.106   3.214
15076TIP3   OH245168   3.476   1.707   6.312
15076TIP3    H145169   3.514   1.726   6.226
15076TIP3    H245170   3.460   1.613   6.311
15077TIP3   OH245171   5.445   6.680   6.513
15077TIP3    H145172   5.396   6.626   6.451
15077TIP3    H245173   5.494   6.741   6.458
15078TIP3   OH245174   1.524   2.250   2.137
15078TIP3    H145175   1.570   2.173   2.171
15078TIP3    H245176   1.444   2.215   2.096
15079TIP3   OH245177   2.372   6.734   5.260
15079TIP3    H145178   2.461   6.725   5.292
15079TIP3    H245179   2.381   6.742   5.165
15080TIP3   OH245180   5.147   6.626   4.088
15080TIP3    H145181   5.191   6.700   4.046
15080TIP3    H245182   5.055   6.652   4.090
15081TIP3   OH245183   0.775   6.235   5.482
15081TIP3    H145184   0.870   6.244   5.487
15081TIP3    H245185   0.760   6.154   5.435
15082TIP3   OH245186   6.939   5.629   6.436
15082TIP3    H145187   6.895   5.604   6.355
15082TIP3    H245188   7.019   5.673   6.408
15083TIP3   OH245189   4.751   7.368   6.250
15083TIP3    H145190   4.815   7.424   6.295
15083TIP3    H245191   4.730   7.299   6.314
15084TIP3   OH245192   6.071   5.171   6.749
15084TIP3    H145193   6.154   5.128   6.730
15084TIP3    H245194   6.008   5.100   6.756
15085TIP3   OH245195   7.693   4.457   1.299
15085TIP3    H145196   7.747   4.464   1.377
15085TIP3    H245197   7.742   4.400   1.240
15086TIP3   OH245198   0.657   3.796   5.861
15086TIP3    H145199   0.587   3.773   5.923
15086TIP3    H245200   0.633   3.883   5.829
15087TIP3   OH245201   1.031   5.486   5.856
15087TIP3    H145202   1.060   5.565   5.901
15087TIP3    H245203   0.958   5.453   5.910
15088TIP3   OH245204   3.280   1.585   1.619
15088TIP3    H145205   3.190   1.613   1.602
15088TIP3    H245206   3.318   1.570   1.532
15089TIP3   OH245207   1.893   0.707   0.520
15089TIP3    H145208   1.842   0.714   0.601
15089TIP3    H245209   1.971   0.658   0.546
15090TIP3   OH245210   7.552   3.687   4.625
15090TIP3    H145211   7.486   3.628   4.662
15090TIP3    H245212   7.527   3.696   4.533
15091TIP3   OH245213   6.752   2.271   1.162
15091TIP3    H145214   6.750   2.330   1.087
15091TIP3    H245215   6.841   2.279   1.197
15092TIP3   OH245216   7.736   3.535   5.154
15092TIP3    H145217   7.731   3.448   5.195
15092TIP3    H245218   7.652   3.544   5.108
15093TIP3   OH245219   5.820   1.913   6.407
15093TIP3    H145220   5.886   1.960   6.458
15093TIP3    H245221   5.741   1.966   6.415
15094TIP3   OH245222   4.015   7.104   5.739
15094TIP3    H145223   4.091   7.066   5.694
15094TIP3    H245224   4.051   7.145   5.818
15095TIP3   OH245225   0.594   5.724   5.514
15095TIP3    H145226   0.535   5.738   5.588
15095TIP3    H245227   0.545   5.752   5.437
15096TIP3   OH245228   4.595   6.747   1.661
15096TIP3    H145229   4.607   6.716   1.750
15096TIP3    H245230   4.520   6.806   1.665
15097TIP3   OH245231   5.225   5.507   4.009
15097TIP3    H145232   5.272   5.570   3.955
15097TIP3    H245233   5.183   5.448   3.946
15098TIP3   OH245234   6.290   5.333   5.920
15098TIP3    H145235   6.336   5.341   5.837
15098TIP3    H245236   6.203   5.300   5.896
15099TIP3   OH245237   2.539   1.047   5.113
15099TIP3    H145238   2.475   0.984   5.080
15099TIP3    H245239   2.621   1.022   5.070
15100TIP3   OH245240   3.265   2.646   0.827
15100TIP3    H145241   3.339   2.654   0.766
15100TIP3    H245242   3.190   2.680   0.778
15101TIP3   OH245243   2.549   2.792   6.309
15101TIP3    H145244   2.547   2.888   6.302
15101TIP3    H245245   2.470   2.770   6.357
15102TIP3   OH245246   5.251   1.230   5.427
15102TIP3    H145247   5.259   1.180   5.346
15102TIP3    H245248   5.340   1.261   5.445
15103TIP3   OH245249   0.074   2.050   4.350
15103TIP3    H145250   0.146   1.992   4.325
15103TIP3    H245251   0.044   2.088   4.268
15104TIP3   OH245252   3.360   3.024   2.262
15104TIP3    H145253   3.315   3.108   2.266
15104TIP3    H245254   3.291   2.960   2.244
15105TIP3   OH245255   3.090   4.925   6.265
15105TIP3    H145256   3.058   4.835   6.263
15105TIP3    H245257   3.060   4.959   6.350
15106TIP3   OH245258   6.334   1.304   2.375
15106TIP3    H145259   6.370   1.265   2.295
15106TIP3    H245260   6.378   1.258   2.446
15107TIP3   OH245261   5.209   3.726   0.585
15107TIP3    H145262   5.120   3.701   0.562
15107TIP3    H245263   5.236   3.662   0.650
15108TIP3   OH245264   7.228   6.497   6.574
15108TIP3    H145265   7.225   6.451   6.490
15108TIP3    H245266   7.304   6.554   6.567
15109TIP3   OH245267   0.558   1.942   0.386
15109TIP3    H145268   0.502   1.982   0.452
15109TIP3    H245269   0.612   2.014   0.354
15110TIP3   OH245270   7.240   3.096   0.471
15110TIP3    H145271   7.231   3.158   0.544
15110TIP3    H245272   7.155   3.052   0.467
15111TIP3   OH245273   0.036   1.838   6.409
15111TIP3    H145274  -0.039   1.785   6.380
15111TIP3    H245275   0.024   1.922   6.365
15112TIP3   OH245276   4.857   1.853   5.844
15112TIP3    H145277   4.788   1.801   5.801
15112TIP3    H245278   4.837   1.847   5.937
15113TIP3   OH245279   4.347   4.975   6.004
15113TIP3    H145280   4.362   5.004   5.915
15113TIP3    H245281   4.305   4.889   5.995
15114TIP3   OH245282   3.551   6.725   6.520
15114TIP3    H145283   3.594   6.719   6.435
15114TIP3    H245284   3.608   6.676   6.579
15115TIP3   OH245285   4.689   2.111   3.144
15115TIP3    H145286   4.716   2.200   3.120
15115TIP3    H245287   4.599   2.104   3.110
15116TIP3   OH245288   1.302   2.392   0.804
15116TIP3    H145289   1.351   2.473   0.819
15116TIP3    H245290   1.345   2.352   0.728
15117TIP3   OH245291   3.836   4.289   1.805
15117TIP3    H145292   3.921   4.311   1.843
15117TIP3    H245293   3.857   4.248   1.721
15118TIP3   OH245294   7.263   3.770   0.607
15118TIP3    H145295   7.323   3.723   0.549
15118TIP3    H245296   7.226   3.840   0.552
15119TIP3   OH245297   4.936   4.948   2.598
15119TIP3    H145298   4.902   5.016   2.655
15119TIP3    H245299   4.896   4.867   2.630
15120TIP3   OH245300   3.475   7.754   0.607
15120TIP3    H145301   3.521   7.834   0.582
15120TIP3    H245302   3.503   7.738   0.697
15121TIP3   OH245303   0.780   0.827   2.256
15121TIP3    H145304   0.704   0.856   2.204
15121TIP3    H245305   0.753   0.842   2.347
15122TIP3   OH245306   6.365   3.403   5.898
15122TIP3    H145307   6.341   3.425   5.988
15122TIP3    H245308   6.460   3.411   5.896
15123TIP3   OH245309   4.132   4.090   3.796
15123TIP3    H145310   4.084   4.162   3.839
15123TIP3    H245311   4.160   4.034   3.868
15124TIP3   OH245312   2.588   0.228   3.682
15124TIP3    H145313   2.607   0.245   3.589
15124TIP3    H245314   2.542   0.306   3.712
15125TIP3   OH245315   8.335   2.493   3.240
15125TIP3    H145316   8.268   2.449   3.187
15125TIP3    H245317   8.286   2.558   3.291
15126TIP3   OH245318   1.692   5.083   6.287
15126TIP3    H145319   1.695   5.163   6.340
15126TIP3    H245320   1.687   5.012   6.352
15127TIP3   OH245321   5.661   1.232   2.407
15127TIP3    H145322   5.683   1.322   2.433
15127TIP3    H245323   5.624   1.193   2.486
15128TIP3   OH245324   1.768   3.931   4.986
15128TIP3    H145325   1.838   3.891   5.037
15128TIP3    H245326   1.807   4.010   4.950
15129TIP3   OH245327   3.425   6.579   5.004
15129TIP3    H145328   3.345   6.548   5.045
15129TIP3    H245329   3.407   6.576   4.910
15130TIP3   OH245330   6.828   4.928   2.653
15130TIP3    H145331   6.917   4.936   2.685
15130TIP3    H245332   6.774   4.925   2.732
15131TIP3   OH245333   3.970   2.588   3.046
15131TIP3    H145334   4.005   2.668   3.007
15131TIP3    H245335   3.962   2.609   3.139
15132TIP3   OH245336   6.503   2.737   1.547
15132TIP3    H145337   6.444   2.771   1.615
15132TIP3    H245338   6.488   2.794   1.472
15133TIP3   OH245339   0.671   6.360   1.817
15133TIP3    H145340   0.579   6.340   1.803
15133TIP3    H245341   0.717   6.302   1.756
15134TIP3   OH245342   5.643   0.041   6.574
15134TIP3    H145343   5.580  -0.027   6.596
15134TIP3    H245344   5.647   0.041   6.478
15135TIP3   OH245345   7.276   4.782   6.111
15135TIP3    H145346   7.358   4.825   6.089
15135TIP3    H245347   7.285   4.760   6.204
15136TIP3   OH245348   1.969   5.728   3.554
15136TIP3    H145349   1.939   5.816   3.531
15136TIP3    H245350   1.961   5.725   3.650
15137TIP3   OH245351   7.022   4.439   2.904
15137TIP3    H145352   6.994   4.503   2.838
15137TIP3    H245353   6.944   4.384   2.918
15138TIP3   OH245354   3.687   0.321   1.431
15138TIP3    H145355   3.728   0.249   1.480
15138TIP3    H245356   3.718   0.400   1.474
15139TIP3   OH245357   2.230   4.032   0.327
15139TIP3    H145358   2.306   4.055   0.381
15139TIP3    H245359   2.186   3.962   0.376
15140TIP3   OH245360   4.299   7.562   1.930
15140TIP3    H145361   4.356   7.502   1.883
15140TIP3    H245362   4.336   7.649   1.912
15141TIP3   OH245363   5.230   2.529   5.267
15141TIP3    H145364   5.285   2.454   5.290
15141TIP3    H245365   5.256   2.551   5.177
15142TIP3   OH245366   1.172   6.194   3.045
15142TIP3    H145367   1.258   6.219   3.078
15142TIP3    H245368   1.182   6.191   2.950
15143TIP3   OH245369   6.114   0.412   6.175
15143TIP3    H145370   6.052   0.457   6.231
15143TIP3    H245371   6.066   0.335   6.143
15144TIP3   OH245372   2.574   3.498   2.170
15144TIP3    H145373   2.572   3.434   2.099
15144TIP3    H245374   2.521   3.458   2.240
15145TIP3   OH245375   6.656   3.513   2.931
15145TIP3    H145376   6.659   3.515   3.026
15145TIP3    H245377   6.696   3.595   2.903
15146TIP3   OH245378   2.428   4.725   1.966
15146TIP3    H145379   2.338   4.695   1.973
15146TIP3    H245380   2.456   4.699   1.878
15147TIP3   OH245381   7.586   7.450   1.979
15147TIP3    H145382   7.652   7.421   1.916
15147TIP3    H245383   7.615   7.538   2.006
15148TIP3   OH245384   1.613   2.204   3.580
15148TIP3    H145385   1.702   2.237   3.567
15148TIP3    H245386   1.612   2.120   3.535
15149TIP3   OH245387   5.798   4.867   0.582
15149TIP3    H145388   5.790   4.875   0.677
15149TIP3    H245389   5.768   4.778   0.564
15150TIP3   OH245390   6.085   4.425   3.113
15150TIP3    H145391   6.048   4.366   3.047
15150TIP3    H245392   6.143   4.369   3.164
15151TIP3   OH245393   4.336   1.599   4.037
15151TIP3    H145394   4.311   1.511   4.011
15151TIP3    H245395   4.334   1.597   4.133
15152TIP3   OH245396   3.657   5.999   4.030
15152TIP3    H145397   3.633   6.087   4.058
15152TIP3    H245398   3.664   5.949   4.112
15153TIP3   OH245399   3.342   2.251   2.133
15153TIP3    H145400   3.418   2.253   2.075
15153TIP3    H245401   3.267   2.267   2.075
15154TIP3   OH245402   6.281   5.067   5.129
15154TIP3    H145403   6.347   5.040   5.193
15154TIP3    H245404   6.330   5.113   5.061
15155TIP3   OH245405   1.497   4.017   5.052
15155TIP3    H145406   1.591   4.033   5.051
15155TIP3    H245407   1.488   3.925   5.075
15156TIP3   OH245408   6.296   5.979   2.155
15156TIP3    H145409   6.292   6.040   2.228
15156TIP3    H245410   6.229   5.914   2.174
15157TIP3   OH245411   5.022   7.203   5.947
15157TIP3    H145412   4.933   7.190   5.978
15157TIP3    H245413   5.042   7.124   5.896
15158TIP3   OH245414   6.121   3.990   1.112
15158TIP3    H145415   6.123   3.894   1.111
15158TIP3    H245416   6.104   4.012   1.204
15159TIP3   OH245417   6.834   1.636   5.127
15159TIP3    H145418   6.901   1.704   5.126
15159TIP3    H245419   6.754   1.680   5.098
15160TIP3   OH245420   6.452   3.772   1.483
15160TIP3    H145421   6.384   3.761   1.550
15160TIP3    H245422   6.406   3.814   1.410
15161TIP3   OH245423   2.931   1.812   2.778
15161TIP3    H145424   3.024   1.813   2.804
15161TIP3    H245425   2.884   1.791   2.859
15162TIP3   OH245426   0.696   2.477   0.782
15162TIP3    H145427   0.741   2.547   0.829
15162TIP3    H245428   0.617   2.518   0.747
15163TIP3   OH245429   0.477   5.102   1.841
15163TIP3    H145430   0.411   5.043   1.806
15163TIP3    H245431   0.451   5.189   1.809
15164TIP3   OH245432   5.233   4.066   2.389
15164TIP3    H145433   5.220   4.061   2.484
15164TIP3    H245434   5.322   4.098   2.378
15165TIP3   OH245435   6.099   4.016   4.567
15165TIP3    H145436   6.110   3.953   4.639
15165TIP3    H245437   6.188   4.035   4.538
15166TIP3   OH245438   6.718   4.439   4.517
15166TIP3    H145439   6.711   4.526   4.478
15166TIP3    H245440   6.811   4.430   4.540
15167TIP3   OH245441   5.316   6.066   2.865
15167TIP3    H145442   5.226   6.073   2.896
15167TIP3    H245443   5.349   5.985   2.904
15168TIP3   OH245444   3.247   2.594   3.225
15168TIP3    H145445   3.320   2.644   3.189
15168TIP3    H245446   3.266   2.503   3.201
15169TIP3   OH245447   0.056   0.805   3.371
15169TIP3    H145448   0.013   0.722   3.350
15169TIP3    H245449   0.007   0.871   3.321
15170TIP3   OH245450   0.942   7.638   5.138
15170TIP3    H145451   1.021   7.629   5.191
15170TIP3    H245452   0.947   7.566   5.075
15171TIP3   OH245453   7.674   7.578   0.144
15171TIP3    H145454   7.618   7.649   0.174
15171TIP3    H245455   7.714   7.543   0.223
15172TIP3   OH245456   1.248   6.772   1.571
15172TIP3    H145457   1.205   6.686   1.571
15172TIP3    H245458   1.339   6.753   1.594
15173TIP3   OH245459   3.743   5.922   2.596
15173TIP3    H145460   3.686   5.966   2.660
15173TIP3    H245461   3.825   5.972   2.598
15174TIP3   OH245462   0.537   6.382   3.556
15174TIP3    H145463   0.533   6.437   3.478
15174TIP3    H245464   0.582   6.303   3.526
15175TIP3   OH245465   8.364   3.970   2.013
15175TIP3    H145466   8.284   3.919   1.999
15175TIP3    H245467   8.360   3.996   2.105
15176TIP3   OH245468   2.304   7.587   6.073
15176TIP3    H145469   2.246   7.593   5.998
15176TIP3    H245470   2.388   7.620   6.041
15177TIP3   OH245471   6.756   5.214   5.066
15177TIP3    H145472   6.699   5.187   4.994
15177TIP3    H245473   6.696   5.233   5.139
15178TIP3   OH245474   1.553   6.521   5.255
15178TIP3    H145475   1.560   6.578   5.332
15178TIP3    H245476   1.529   6.436   5.291
15179TIP3   OH245477   6.749   4.816   1.741
15179TIP3    H145478   6.794   4.843   1.661
15179TIP3    H245479   6.769   4.723   1.750
15180TIP3   OH245480   4.349   0.835   4.844
15180TIP3    H145481   4.270   0.836   4.898
15180TIP3    H245482   4.403   0.905   4.880
15181TIP3   OH245483   3.159   2.370   4.702
15181TIP3    H145484   3.097   2.326   4.644
15181TIP3    H245485   3.238   2.316   4.698
15182TIP3   OH245486   8.180   4.760   1.877
15182TIP3    H145487   8.245   4.697   1.846
15182TIP3    H245488   8.231   4.825   1.925
15183TIP3   OH245489   6.301   0.895   3.692
15183TIP3    H145490   6.376   0.936   3.733
15183TIP3    H245491   6.225   0.926   3.742
15184TIP3   OH245492   5.621   0.851   1.219
15184TIP3    H145493   5.678   0.903   1.276
15184TIP3    H245494   5.535   0.892   1.228
15185TIP3   OH245495   1.256   0.986   5.399
15185TIP3    H145496   1.321   1.045   5.361
15185TIP3    H245497   1.171   1.022   5.373
15186TIP3   OH245498   5.485   3.263   1.831
15186TIP3    H145499   5.463   3.202   1.901
15186TIP3    H245500   5.468   3.214   1.750
15187TIP3   OH245501   4.935   3.525   2.905
15187TIP3    H145502   4.912   3.592   2.841
15187TIP3    H245503   5.023   3.497   2.880
15188TIP3   OH245504   5.813   0.006   5.851
15188TIP3    H145505   5.734   0.018   5.798
15188TIP3    H245506   5.829   0.092   5.890
15189TIP3   OH245507   2.846   1.217   4.506
15189TIP3    H145508   2.894   1.262   4.437
15189TIP3    H245509   2.910   1.203   4.576
15190TIP3   OH245510   4.606   1.642   0.404
15190TIP3    H145511   4.587   1.595   0.486
15190TIP3    H245512   4.522   1.681   0.379
15191TIP3   OH245513   7.406   4.747   3.921
15191TIP3    H145514   7.383   4.827   3.875
15191TIP3    H245515   7.456   4.695   3.858
15192TIP3   OH245516   2.329   3.538   6.124
15192TIP3    H145517   2.388   3.598   6.078
15192TIP3    H245518   2.376   3.515   6.204
15193TIP3   OH245519   1.736   0.314   1.194
15193TIP3    H145520   1.762   0.222   1.189
15193TIP3    H245521   1.801   0.354   1.252
15194TIP3   OH245522   3.284   2.497   4.946
15194TIP3    H145523   3.229   2.487   4.869
15194TIP3    H245524   3.223   2.486   5.020
15195TIP3   OH245525   1.497   1.935   2.149
15195TIP3    H145526   1.515   1.845   2.125
15195TIP3    H245527   1.513   1.938   2.244
15196TIP3   OH245528   5.157   2.837   2.836
15196TIP3    H145529   5.210   2.887   2.898
15196TIP3    H245530   5.220   2.781   2.791
15197TIP3   OH245531   6.074   6.989   1.978
15197TIP3    H145532   6.168   7.002   1.984
15197TIP3    H245533   6.039   7.021   2.061
15198TIP3   OH245534   0.820   2.541   5.223
15198TIP3    H145535   0.799   2.505   5.137
15198TIP3    H245536   0.842   2.632   5.206
15199TIP3   OH245537   6.747   6.035   1.713
15199TIP3    H145538   6.679   6.065   1.654
15199TIP3    H245539   6.815   6.001   1.656
15200TIP3   OH245540   8.318   7.828   0.195
15200TIP3    H145541   8.319   7.734   0.179
15200TIP3    H245542   8.225   7.851   0.201
15201TIP3   OH245543   1.520   4.883   2.101
15201TIP3    H145544   1.492   4.801   2.143
15201TIP3    H245545   1.543   4.940   2.174
15202TIP3   OH245546   7.360   5.719   2.138
15202TIP3    H145547   7.397   5.753   2.056
15202TIP3    H245548   7.272   5.692   2.115
15203TIP3   OH245549   5.122   4.560   5.393
15203TIP3    H145550   5.106   4.549   5.487
15203TIP3    H245551   5.199   4.506   5.375
15204TIP3   OH245552   2.863   5.351   0.063
15204TIP3    H145553   2.904   5.424   0.108
15204TIP3    H245554   2.830   5.388  -0.019
15205TIP3   OH245555   7.045   1.724   3.992
15205TIP3    H145556   6.971   1.677   4.031
15205TIP3    H245557   7.105   1.655   3.964
15206TIP3   OH245558   7.620   2.116   2.357
15206TIP3    H145559   7.609   2.194   2.302
15206TIP3    H245560   7.621   2.043   2.295
15207TIP3   OH245561   0.805   0.859   4.826
15207TIP3    H145562   0.752   0.867   4.905
15207TIP3    H245563   0.846   0.772   4.833
15208TIP3   OH245564   1.644   1.542   1.943
15208TIP3    H145565   1.644   1.460   1.991
15208TIP3    H245566   1.724   1.586   1.970
15209TIP3   OH245567   1.599   5.949   4.291
15209TIP3    H145568   1.573   6.039   4.308
15209TIP3    H245569   1.694   5.951   4.289
15210TIP3   OH245570   2.539   1.536   3.793
15210TIP3    H145571   2.494   1.487   3.861
15210TIP3    H245572   2.483   1.613   3.779
15211TIP3   OH245573   0.346   0.939   1.931
15211TIP3    H145574   0.359   0.901   1.844
15211TIP3    H245575   0.284   0.880   1.974
15212TIP3   OH245576   1.376   5.734   2.065
15212TIP3    H145577   1.351   5.801   2.002
15212TIP3    H245578   1.390   5.782   2.147
15213TIP3   OH245579   0.239   6.968   6.497
15213TIP3    H145580   0.331   6.995   6.492
15213TIP3    H245581   0.241   6.873   6.498
15214TIP3   OH245582   6.973   4.264   4.331
15214TIP3    H145583   7.001   4.324   4.262
15214TIP3    H245584   6.956   4.320   4.406
15215TIP3   OH245585   1.809   0.072   3.152
15215TIP3    H145586   1.901   0.093   3.133
15215TIP3    H245587   1.772   0.153   3.187
15216TIP3   OH245588   8.060   2.509   6.474
15216TIP3    H145589   7.973   2.501   6.435
15216TIP3    H245590   8.047   2.568   6.549
15217TIP3   OH245591   8.146   2.897   5.064
15217TIP3    H145592   8.147   2.993   5.066
15217TIP3    H245593   8.057   2.874   5.090
15218TIP3   OH245594   3.635   7.783   5.306
15218TIP3    H145595   3.569   7.841   5.343
15218TIP3    H245596   3.591   7.740   5.233
15219TIP3   OH245597   6.079   5.998   2.831
15219TIP3    H145598   6.097   6.082   2.874
15219TIP3    H245599   6.152   5.986   2.771
15220TIP3   OH245600   7.370   2.412   1.641
15220TIP3    H145601   7.428   2.391   1.714
15220TIP3    H245602   7.297   2.351   1.649
15221TIP3   OH245603   7.527   0.515   6.423
15221TIP3    H145604   7.499   0.463   6.348
15221TIP3    H245605   7.622   0.504   6.425
15222TIP3   OH245606   5.521   3.306   4.464
15222TIP3    H145607   5.616   3.306   4.476
15222TIP3    H245608   5.485   3.278   4.548
15223TIP3   OH245609   2.548   4.814   2.432
15223TIP3    H145610   2.627   4.824   2.485
15223TIP3    H245611   2.579   4.819   2.342
15224TIP3   OH245612   0.835   3.735   3.244
15224TIP3    H145613   0.843   3.699   3.155
15224TIP3    H245614   0.901   3.688   3.295
15225TIP3   OH245615   2.488   5.326   0.406
15225TIP3    H145616   2.475   5.238   0.371
15225TIP3    H245617   2.557   5.316   0.471
15226TIP3   OH245618   8.030   0.349   0.930
15226TIP3    H145619   7.952   0.403   0.944
15226TIP3    H245620   8.092   0.378   0.998
15227TIP3   OH245621   6.372   4.523   3.978
15227TIP3    H145622   6.387   4.450   3.919
15227TIP3    H245623   6.325   4.485   4.052
15228TIP3   OH245624   6.722   7.295   2.293
15228TIP3    H145625   6.809   7.284   2.255
15228TIP3    H245626   6.668   7.228   2.251
15229TIP3   OH245627   5.601   3.277   3.723
15229TIP3    H145628   5.655   3.218   3.671
15229TIP3    H245629   5.520   3.228   3.738
15230TIP3   OH245630   8.216   1.196   6.696
15230TIP3    H145631   8.182   1.270   6.646
15230TIP3    H245632   8.139   1.158   6.739
15231TIP3   OH245633   4.063   1.661   3.650
15231TIP3    H145634   3.998   1.617   3.595
15231TIP3    H245635   4.104   1.725   3.592
15232TIP3   OH245636   3.719   0.716   4.880
15232TIP3    H145637   3.712   0.680   4.968
15232TIP3    H245638   3.690   0.807   4.888
15233TIP3   OH245639   8.209   2.655   5.781
15233TIP3    H145640   8.214   2.729   5.842
15233TIP3    H245641   8.186   2.580   5.837
15234TIP3   OH245642   1.487   2.612   0.777
15234TIP3    H145643   1.575   2.580   0.755
15234TIP3    H245644   1.499   2.662   0.857
15235TIP3   OH245645   5.633   4.458   4.913
15235TIP3    H145646   5.683   4.377   4.899
15235TIP3    H245647   5.698   4.520   4.947
15236TIP3   OH245648   2.300   5.273   1.456
15236TIP3    H145649   2.230   5.337   1.470
15236TIP3    H245650   2.380   5.324   1.462
15237TIP3   OH245651   1.805   3.397   4.247
15237TIP3    H145652   1.863   3.332   4.207
15237TIP3    H245653   1.794   3.464   4.178
15238TIP3   OH245654   3.486   7.101   6.346
15238TIP3    H145655   3.454   7.170   6.288
15238TIP3    H245656   3.562   7.065   6.301
15239TIP3   OH245657   1.889   7.139   2.686
15239TIP3    H145658   1.827   7.067   2.700
15239TIP3    H245659   1.848   7.193   2.618
15240TIP3   OH245660   7.799   2.165   0.447
15240TIP3    H145661   7.712   2.129   0.431
15240TIP3    H245662   7.783   2.253   0.481
15241TIP3   OH245663   7.090   1.243   6.128
15241TIP3    H145664   7.164   1.293   6.162
15241TIP3    H245665   7.015   1.302   6.135
15242TIP3   OH245666   4.267   1.112   3.110
15242TIP3    H145667   4.214   1.169   3.165
15242TIP3    H245668   4.276   1.032   3.162
15243TIP3   OH245669   6.371   7.001   1.909
15243TIP3    H145670   6.430   7.068   1.946
15243TIP3    H245671   6.408   6.918   1.939
15244TIP3   OH245672   5.185   1.297   2.048
15244TIP3    H145673   5.156   1.212   2.016
15244TIP3    H245674   5.216   1.279   2.137
15245TIP3   OH245675   5.266   6.507   5.694
15245TIP3    H145676   5.285   6.511   5.600
15245TIP3    H245677   5.219   6.425   5.706
15246TIP3   OH245678   7.999   2.120   1.969
15246TIP3    H145679   8.024   2.211   1.986
15246TIP3    H245680   8.062   2.090   1.903
15247TIP3   OH245681   3.064   1.005   4.980
15247TIP3    H145682   3.072   1.100   4.977
15247TIP3    H245683   3.071   0.983   5.073
15248TIP3   OH245684   3.526   1.284   2.310
15248TIP3    H145685   3.435   1.305   2.328
15248TIP3    H245686   3.532   1.285   2.214
15249TIP3   OH245687   2.487   7.494   2.173
15249TIP3    H145688   2.429   7.420   2.187
15249TIP3    H245689   2.531   7.474   2.090
15250TIP3   OH245690   1.438   2.871   0.986
15250TIP3    H145691   1.519   2.900   0.944
15250TIP3    H245692   1.409   2.946   1.037
15251TIP3   OH245693   6.775   7.751   0.641
15251TIP3    H145694   6.799   7.803   0.564
15251TIP3    H245695   6.773   7.814   0.713
15252TIP3   OH245696   7.545   3.831   2.455
15252TIP3    H145697   7.535   3.757   2.395
15252TIP3    H245698   7.464   3.833   2.506
15253TIP3   OH245699   6.317   7.634   3.418
15253TIP3    H145700   6.406   7.637   3.384
15253TIP3    H245701   6.328   7.638   3.513
15254TIP3   OH245702   3.031   6.364   2.394
15254TIP3    H145703   2.951   6.339   2.439
15254TIP3    H245704   3.092   6.294   2.413
15255TIP3   OH245705   5.958   3.738   3.325
15255TIP3    H145706   5.928   3.807   3.384
15255TIP3    H245707   6.047   3.763   3.302
15256TIP3   OH245708   4.441   3.353   4.805
15256TIP3    H145709   4.374   3.338   4.739
15256TIP3    H245710   4.459   3.446   4.800
15257TIP3   OH245711   0.840   6.784   5.238
15257TIP3    H145712   0.885   6.701   5.221
15257TIP3    H245713   0.838   6.828   5.153
15258TIP3   OH245714   2.125   0.301   0.199
15258TIP3    H145715   2.075   0.374   0.163
15258TIP3    H245716   2.119   0.312   0.294
15259TIP3   OH245717   3.792   6.580   4.909
15259TIP3    H145718   3.866   6.623   4.951
15259TIP3    H245719   3.742   6.652   4.870
15260TIP3   OH245720   4.224   2.547   2.922
15260TIP3    H145721   4.265   2.486   2.984
15260TIP3    H245722   4.131   2.543   2.942
15261TIP3   OH245723   3.806   6.090   3.205
15261TIP3    H145724   3.729   6.033   3.205
15261TIP3    H245725   3.772   6.176   3.228
15262TIP3   OH245726   2.200   7.534   2.327
15262TIP3    H145727   2.144   7.499   2.396
15262TIP3    H245728   2.263   7.464   2.310
15263TIP3   OH245729   6.887   5.803   2.112
15263TIP3    H145730   6.852   5.847   2.189
15263TIP3    H245731   6.823   5.820   2.043
15264TIP3   OH245732   6.935   1.277   2.162
15264TIP3    H145733   6.883   1.296   2.085
15264TIP3    H245734   6.877   1.295   2.236
15265TIP3   OH245735   6.588   0.623   5.192
15265TIP3    H145736   6.538   0.607   5.112
15265TIP3    H245737   6.679   0.623   5.163
15266TIP3   OH245738   7.008   6.926   6.225
15266TIP3    H145739   7.012   6.996   6.160
15266TIP3    H245740   6.919   6.929   6.259
15267TIP3   OH245741   4.178   5.886   4.141
15267TIP3    H145742   4.171   5.793   4.117
15267TIP3    H245743   4.241   5.922   4.079
15268TIP3   OH245744   2.999   3.105   0.047
15268TIP3    H145745   2.917   3.132   0.005
15268TIP3    H245746   3.059   3.090  -0.026
15269TIP3   OH245747   4.482   0.133   1.287
15269TIP3    H145748   4.402   0.131   1.339
15269TIP3    H245749   4.456   0.177   1.206
15270TIP3   OH245750   0.310   1.159   0.520
15270TIP3    H145751   0.233   1.142   0.575
15270TIP3    H245752   0.279   1.149   0.430
15271TIP3   OH245753   3.843   1.825   3.719
15271TIP3    H145754   3.853   1.897   3.780
15271TIP3    H245755   3.931   1.791   3.706
15272TIP3   OH245756   5.989   5.899   6.660
15272TIP3    H145757   5.956   5.925   6.746
15272TIP3    H245758   6.043   5.973   6.632
15273TIP3   OH245759   4.487   7.161   5.616
15273TIP3    H145760   4.459   7.069   5.621
15273TIP3    H245761   4.541   7.173   5.694
15274TIP3   OH245762   7.683   2.598   0.173
15274TIP3    H145763   7.738   2.618   0.097
15274TIP3    H245764   7.674   2.682   0.218
15275TIP3   OH245765   4.270   3.802   0.083
15275TIP3    H145766   4.234   3.816  -0.004
15275TIP3    H245767   4.318   3.720   0.077
15276TIP3   OH245768   5.424   3.319   2.450
15276TIP3    H145769   5.501   3.306   2.396
15276TIP3    H245770   5.421   3.242   2.507
15277TIP3   OH245771   8.290   5.037   6.748
15277TIP3    H145772   8.343   5.004   6.675
15277TIP3    H245773   8.201   5.038   6.715
15278TIP3   OH245774   3.205   1.192   2.607
15278TIP3    H145775   3.194   1.182   2.702
15278TIP3    H245776   3.260   1.270   2.597
15279TIP3   OH245777   2.194   1.398   0.915
15279TIP3    H145778   2.148   1.325   0.873
15279TIP3    H245779   2.246   1.436   0.845
15280TIP3   OH245780   5.634   1.779   0.128
15280TIP3    H145781   5.643   1.743   0.040
15280TIP3    H245782   5.540   1.783   0.144
15281TIP3   OH245783   6.649   7.619   0.297
15281TIP3    H145784   6.726   7.666   0.266
15281TIP3    H245785   6.608   7.679   0.360
15282TIP3   OH245786   3.785   3.731   0.262
15282TIP3    H145787   3.837   3.804   0.228
15282TIP3    H245788   3.710   3.772   0.305
15283TIP3   OH245789   5.693   1.742   1.754
15283TIP3    H145790   5.602   1.770   1.763
15283TIP3    H245791   5.688   1.667   1.694
15284TIP3   OH245792   5.328   7.801   0.280
15284TIP3    H145793   5.348   7.878   0.228
15284TIP3    H245794   5.272   7.834   0.351
15285TIP3   OH245795   4.281   1.382   5.735
15285TIP3    H145796   4.215   1.430   5.685
15285TIP3    H245797   4.282   1.295   5.696
15286TIP3   OH245798   4.956   5.928   6.494
15286TIP3    H145799   4.931   5.836   6.496
15286TIP3    H245800   4.933   5.961   6.580
15287TIP3   OH245801   4.268   5.954   3.572
15287TIP3    H145802   4.303   6.042   3.588
15287TIP3    H245803   4.229   5.960   3.485
15288TIP3   OH245804   7.409   3.584   6.751
15288TIP3    H145805   7.318   3.568   6.725
15288TIP3    H245806   7.457   3.588   6.668
15289TIP3   OH245807   4.945   5.914   3.596
15289TIP3    H145808   4.930   5.834   3.546
15289TIP3    H245809   4.969   5.979   3.530
15290TIP3   OH245810   3.814   3.954   3.957
15290TIP3    H145811   3.748   4.005   4.003
15290TIP3    H245812   3.815   3.870   4.003
15291TIP3   OH245813   1.637   2.901   3.075
15291TIP3    H145814   1.670   2.814   3.097
15291TIP3    H245815   1.691   2.961   3.127
15292TIP3   OH245816   2.751   5.724   2.742
15292TIP3    H145817   2.720   5.636   2.722
15292TIP3    H245818   2.785   5.719   2.831
15293TIP3   OH245819   5.050   4.011   3.828
15293TIP3    H145820   5.088   4.016   3.916
15293TIP3    H245821   5.077   4.093   3.785
15294TIP3   OH245822   4.748   4.591   2.139
15294TIP3    H145823   4.706   4.507   2.159
15294TIP3    H245824   4.676   4.654   2.134
15295TIP3   OH245825   2.491   6.238   3.555
15295TIP3    H145826   2.469   6.319   3.600
15295TIP3    H245827   2.487   6.170   3.623
15296TIP3   OH245828   1.704   0.334   3.512
15296TIP3    H145829   1.756   0.414   3.521
15296TIP3    H245830   1.632   0.344   3.575
15297TIP3   OH245831   4.025   4.089   2.622
15297TIP3    H145832   4.082   4.028   2.668
15297TIP3    H245833   3.996   4.150   2.689
15298TIP3   OH245834   0.109   4.205   1.970
15298TIP3    H145835   0.061   4.123   1.979
15298TIP3    H245836   0.155   4.216   2.053
15299TIP3   OH245837   4.789   6.217   3.201
15299TIP3    H145838   4.730   6.145   3.179
15299TIP3    H245839   4.857   6.176   3.254
15300TIP3   OH245840   2.260   1.955   4.321
15300TIP3    H145841   2.321   1.904   4.267
15300TIP3    H245842   2.173   1.935   4.285
15301TIP3   OH245843   0.175   5.501   4.888
15301TIP3    H145844   0.104   5.437   4.891
15301TIP3    H245845   0.166   5.543   4.803
15302TIP3   OH245846   2.146   4.289   0.797
15302TIP3    H145847   2.074   4.337   0.754
15302TIP3    H245848   2.189   4.243   0.725
15303TIP3   OH245849   8.180   6.014   6.690
15303TIP3    H145850   8.135   5.945   6.737
15303TIP3    H245851   8.215   5.972   6.612
15304TIP3   OH245852   3.332   1.537   4.952
15304TIP3    H145853   3.334   1.576   5.039
15304TIP3    H245854   3.387   1.458   4.960
15305TIP3   OH245855   4.589   1.437   3.851
15305TIP3    H145856   4.639   1.514   3.879
15305TIP3    H245857   4.591   1.442   3.755
15306TIP3   OH245858   4.184   0.399   5.518
15306TIP3    H145859   4.122   0.472   5.511
15306TIP3    H245860   4.151   0.348   5.592
15307TIP3   OH245861   7.266   1.006   0.729
15307TIP3    H145862   7.244   0.959   0.649
15307TIP3    H245863   7.361   0.994   0.739
15308TIP3   OH245864   4.308   3.998   2.343
15308TIP3    H145865   4.326   4.090   2.359
15308TIP3    H245866   4.233   3.998   2.283
15309TIP3   OH245867   0.521   2.662   6.133
15309TIP3    H145868   0.427   2.665   6.147
15309TIP3    H245869   0.555   2.611   6.206
15310TIP3   OH245870   0.185   0.938   6.498
15310TIP3    H145871   0.225   0.933   6.411
15310TIP3    H245872   0.212   1.024   6.532
15311TIP3   OH245873   1.414   2.930   4.700
15311TIP3    H145874   1.501   2.891   4.704
15311TIP3    H245875   1.429   3.022   4.724
15312TIP3   OH245876   6.137   6.205   3.086
15312TIP3    H145877   6.142   6.264   3.010
15312TIP3    H245878   6.228   6.178   3.101
15313TIP3   OH245879   6.733   5.378   2.539
15313TIP3    H145880   6.717   5.297   2.491
15313TIP3    H245881   6.788   5.430   2.480
15314TIP3   OH245882   3.316   5.215   1.264
15314TIP3    H145883   3.233   5.169   1.277
15314TIP3    H245884   3.333   5.258   1.348
15315TIP3   OH245885   1.047   4.346   6.112
15315TIP3    H145886   1.012   4.299   6.036
15315TIP3    H245887   1.010   4.434   6.104
15316TIP3   OH245888   8.282   4.803   3.440
15316TIP3    H145889   8.267   4.777   3.531
15316TIP3    H245890   8.278   4.899   3.441
15317TIP3   OH245891   2.329   3.285   6.337
15317TIP3    H145892   2.244   3.243   6.348
15317TIP3    H245893   2.325   3.323   6.249
15318TIP3   OH245894   0.551   0.736   5.422
15318TIP3    H145895   0.483   0.777   5.369
15318TIP3    H245896   0.503   0.697   5.495
15319TIP3   OH245897   8.073   1.004   1.624
15319TIP3    H145898   8.003   1.004   1.558
15319TIP3    H245899   8.059   0.924   1.673
15320TIP3   OH245900   3.947   2.217   4.276
15320TIP3    H145901   3.981   2.236   4.363
15320TIP3    H245902   3.966   2.124   4.262
15321TIP3   OH245903   2.612   6.828   4.009
15321TIP3    H145904   2.644   6.903   3.958
15321TIP3    H245905   2.637   6.752   3.956
15322TIP3   OH245906   4.219   6.881   5.311
15322TIP3    H145907   4.189   6.930   5.234
15322TIP3    H245908   4.145   6.826   5.335
15323TIP3   OH245909   0.732   5.772   6.483
15323TIP3    H145910   0.713   5.866   6.489
15323TIP3    H245911   0.667   5.739   6.420
15324TIP3   OH245912   6.035   4.735   2.984
15324TIP3    H145913   6.001   4.681   2.913
15324TIP3    H245914   6.129   4.717   2.985
15325TIP3   OH245915   1.945   4.135   4.789
15325TIP3    H145916   1.858   4.174   4.777
15325TIP3    H245917   1.944   4.057   4.733
15326TIP3   OH245918   0.119   3.152   4.100
15326TIP3    H145919   0.102   3.060   4.122
15326TIP3    H245920   0.187   3.149   4.033
15327TIP3   OH245921   1.135   1.591   6.908
15327TIP3    H145922   1.098   1.537   6.838
15327TIP3    H245923   1.117   1.681   6.880
15328TIP3   OH245924   5.860   3.597   1.325
15328TIP3    H145925   5.895   3.511   1.300
15328TIP3    H245926   5.853   3.593   1.420
15329TIP3   OH245927   6.613   4.084   3.868
15329TIP3    H145928   6.560   4.018   3.915
15329TIP3    H245929   6.626   4.047   3.781
15330TIP3   OH245930   6.778   4.323   0.371
15330TIP3    H145931   6.746   4.234   0.356
15330TIP3    H245932   6.788   4.360   0.284
15331TIP3   OH245933   0.002   7.601   4.875
15331TIP3    H145934   0.064   7.579   4.944
15331TIP3    H245935   0.024   7.691   4.851
15332TIP3   OH245936   2.175   1.374   6.238
15332TIP3    H145937   2.170   1.280   6.252
15332TIP3    H245938   2.143   1.386   6.148
15333TIP3   OH245939   5.070   6.795   4.924
15333TIP3    H145940   5.044   6.771   4.835
15333TIP3    H245941   5.162   6.767   4.929
15334TIP3   OH245942   4.780   4.983   0.393
15334TIP3    H145943   4.703   4.935   0.424
15334TIP3    H245944   4.745   5.054   0.340
15335TIP3   OH245945   5.331   2.477   6.328
15335TIP3    H145946   5.411   2.496   6.280
15335TIP3    H245947   5.360   2.421   6.401
15336TIP3   OH245948   7.233   7.252   2.721
15336TIP3    H145949   7.233   7.188   2.649
15336TIP3    H245950   7.235   7.198   2.800
15337TIP3   OH245951   6.873   7.890   3.784
15337TIP3    H145952   6.954   7.911   3.831
15337TIP3    H245953   6.901   7.837   3.709
15338TIP3   OH245954   2.881   3.476   4.592
15338TIP3    H145955   2.969   3.462   4.560
15338TIP3    H245956   2.845   3.545   4.537
15339TIP3   OH245957   0.528   1.050   0.138
15339TIP3    H145958   0.448   1.003   0.160
15339TIP3    H245959   0.563   1.080   0.222
15340TIP3   OH245960   7.364   2.108   4.171
15340TIP3    H145961   7.433   2.065   4.223
15340TIP3    H245962   7.300   2.039   4.155
15341TIP3   OH245963   4.571   2.785   3.421
15341TIP3    H145964   4.526   2.770   3.337
15341TIP3    H245965   4.552   2.877   3.442
15342TIP3   OH245966   2.260   3.929   5.894
15342TIP3    H145967   2.319   3.972   5.955
15342TIP3    H245968   2.194   3.888   5.949
15343TIP3   OH245969   0.170   6.437   4.179
15343TIP3    H145970   0.087   6.484   4.187
15343TIP3    H245971   0.211   6.445   4.265
15344TIP3   OH245972   8.234   3.842   3.472
15344TIP3    H145973   8.249   3.747   3.474
15344TIP3    H245974   8.231   3.864   3.379
15345TIP3   OH245975   1.695   1.232   5.267
15345TIP3    H145976   1.716   1.153   5.217
15345TIP3    H245977   1.741   1.303   5.221
15346TIP3   OH245978   5.170   4.517   0.396
15346TIP3    H145979   5.080   4.486   0.384
15346TIP3    H245980   5.213   4.447   0.446
15347TIP3   OH245981   4.380   1.930   2.156
15347TIP3    H145982   4.299   1.909   2.111
15347TIP3    H245983   4.449   1.892   2.102
15348TIP3   OH245984   8.089   6.020   1.812
15348TIP3    H145985   8.040   5.985   1.738
15348TIP3    H245986   8.124   6.104   1.780
15349TIP3   OH245987   3.821   0.563   1.519
15349TIP3    H145988   3.792   0.653   1.535
15349TIP3    H245989   3.897   0.573   1.461
15350TIP3   OH245990   4.762   3.729   2.227
15350TIP3    H145991   4.750   3.726   2.322
15350TIP3    H245992   4.785   3.820   2.208
15351TIP3   OH245993   2.801   6.267   1.339
15351TIP3    H145994   2.856   6.342   1.359
15351TIP3    H245995   2.711   6.299   1.349
15352TIP3   OH245996   8.317   2.168   0.932
15352TIP3    H145997   8.228   2.136   0.945
15352TIP3    H245998   8.372   2.096   0.964
15353TIP3   OH245999   1.139   6.024   0.237
15353TIP3    H146000   1.081   6.047   0.310
15353TIP3    H246001   1.188   6.104   0.219
15354TIP3   OH246002   6.095   1.408   1.451
15354TIP3    H146003   6.091   1.449   1.537
15354TIP3    H246004   6.057   1.473   1.392
15355TIP3   OH246005   7.295   1.616   3.923
15355TIP3    H146006   7.347   1.548   3.964
15355TIP3    H246007   7.354   1.691   3.914
15356TIP3   OH246008   0.906   5.252   0.373
15356TIP3    H146009   0.994   5.274   0.404
15356TIP3    H246010   0.847   5.305   0.428
15357TIP3   OH246011   5.688   4.022   3.576
15357TIP3    H146012   5.627   4.093   3.553
15357TIP3    H246013   5.633   3.944   3.583
15358TIP3   OH246014   3.710   0.560   2.714
15358TIP3    H146015   3.693   0.644   2.756
15358TIP3    H246016   3.758   0.582   2.634
15359TIP3   OH246017   0.400   6.000   5.862
15359TIP3    H146018   0.308   5.982   5.883
15359TIP3    H246019   0.419   5.943   5.788
15360TIP3   OH246020   3.123   1.824   3.811
15360TIP3    H146021   3.035   1.851   3.783
15360TIP3    H246022   3.157   1.774   3.737
15361TIP3   OH246023   7.095   3.489   2.232
15361TIP3    H146024   7.008   3.458   2.209
15361TIP3    H246025   7.080   3.560   2.294
15362TIP3   OH246026   0.104   7.246   3.507
15362TIP3    H146027   0.138   7.243   3.596
15362TIP3    H246028   0.029   7.306   3.512
15363TIP3   OH246029   4.295   5.692   1.119
15363TIP3    H146030   4.378   5.682   1.073
15363TIP3    H246031   4.315   5.748   1.194
15364TIP3   OH246032   3.111   1.932   1.929
15364TIP3    H146033   3.145   1.880   2.002
15364TIP3    H246034   3.016   1.931   1.941
15365TIP3   OH246035   1.271   6.198   4.229
15365TIP3    H146036   1.230   6.115   4.208
15365TIP3    H246037   1.325   6.180   4.306
15366TIP3   OH246038   0.094   7.235   5.790
15366TIP3    H146039   0.019   7.281   5.827
15366TIP3    H246040   0.084   7.243   5.696
15367TIP3   OH246041   2.795   4.520   0.241
15367TIP3    H146042   2.742   4.481   0.172
15367TIP3    H246043   2.750   4.602   0.261
15368TIP3   OH246044   1.296   2.479   3.347
15368TIP3    H146045   1.201   2.478   3.356
15368TIP3    H246046   1.323   2.560   3.390
15369TIP3   OH246047   2.215   7.339   5.619
15369TIP3    H146048   2.142   7.338   5.681
15369TIP3    H246049   2.175   7.360   5.535
15370TIP3   OH246050   2.871   3.720   4.430
15370TIP3    H146051   2.790   3.730   4.480
15370TIP3    H246052   2.864   3.784   4.359
15371TIP3   OH246053   2.773   4.466   3.532
15371TIP3    H146054   2.769   4.543   3.475
15371TIP3    H246055   2.694   4.416   3.510
   8.39959   7.91921   6.85823   0.00000   0.00000  -2.79986   0.00000  -2.79986  -3.95960
