Title
46055
    1GLY      N    1   5.624   5.722   3.062 -0.0030  0.2705 -0.1337
    1GLY    HT1    2   5.594   5.816   3.030  1.5896  0.6335 -0.6001
    1GLY    HT2    3   5.617   5.722   3.166  0.6610  0.0478 -0.0874
    1GLY    HT3    4   5.552   5.654   3.030  0.9010 -0.3705 -0.8349
    1GLY     CA    5   5.762   5.673   3.029  0.0645 -0.0100 -0.4017
    1GLY    HA1    6   5.824   5.704   3.112 -1.3517  1.3842  0.1971
    1GLY    HA2    7   5.793   5.721   2.937  2.0544 -1.8718 -0.7753
    1GLY      C    8   5.763   5.533   3.000  0.3908  0.1091 -0.2397
    1GLY      O    9   5.659   5.474   3.001 -0.0250  0.8180 -0.1589
    2PRO      N   10   5.879   5.470   2.971 -0.2998 -0.1764  0.3622
    2PRO     CD   11   6.003   5.534   2.934  0.1622  0.3156  0.1753
    2PRO    HD1   12   6.063   5.551   3.026  0.2205 -0.2138  0.2371
    2PRO    HD2   13   5.994   5.631   2.881  2.7862 -1.0768 -3.1480
    2PRO     CA   14   5.884   5.324   2.945 -0.8550  0.1171  0.5417
    2PRO     HA   15   5.818   5.305   2.862  3.6091  1.1736 -3.6953
    2PRO     CB   16   6.023   5.292   2.907 -0.3782  0.2385 -0.0631
    2PRO    HB1   17   6.034   5.208   2.835 -1.8832  0.8321 -1.0377
    2PRO    HB2   18   6.090   5.283   2.995 -0.9637  0.2075  0.3856
    2PRO     CG   19   6.064   5.424   2.840 -0.2161 -0.1129 -0.4100
    2PRO    HG1   20   6.174   5.431   2.845 -0.0253 -2.9448  2.2273
    2PRO    HG2   21   6.012   5.432   2.742 -2.4605  1.0856  0.7799
    2PRO      C   22   5.844   5.242   3.062 -0.2972  0.7649  0.3631
    2PRO      O   23   5.857   5.290   3.174 -0.7816  0.1352  0.2908
    3GLY      N   24   5.800   5.117   3.042 -0.0109  0.4324 -0.2694
    3GLY     HN   25   5.785   5.085   2.948 -0.2334 -0.1270 -0.0474
    3GLY     CA   26   5.772   5.028   3.157  0.3146  0.6039 -0.9740
    3GLY    HA1   27   5.688   4.972   3.120 -1.1418  1.0559  1.4097
    3GLY    HA2   28   5.762   5.087   3.247  2.4523  0.1512 -0.3753
    3GLY      C   29   5.889   4.932   3.170  1.4968 -0.0629 -0.3014
    3GLY      O   30   5.996   4.957   3.118 -0.5333 -0.1515 -0.2755
    4ALA      N   31   5.872   4.817   3.236 -0.0967  0.2564  0.5988
    4ALA     HN   32   5.788   4.791   3.281  0.8505 -0.1484  2.2084
    4ALA     CA   33   5.964   4.706   3.239 -0.5022 -0.4000  0.4917
    4ALA     HA   34   6.053   4.745   3.287 -0.5667  0.4019 -0.0313
    4ALA     CB   35   5.910   4.597   3.329  0.0552  0.5675  0.7684
    4ALA    HB1   36   5.973   4.506   3.331 -0.2548  0.3601  1.2657
    4ALA    HB2   37   5.810   4.562   3.296  0.0933  0.1738  1.0617
    4ALA    HB3   38   5.898   4.625   3.436 -1.7354  0.1623  0.7091
    4ALA      C   39   5.993   4.638   3.102 -0.5742 -0.1560 -0.5999
    4ALA      O   40   5.909   4.638   3.009 -0.0131  0.1008  0.0292
    5PRO      N   41   6.111   4.589   3.080 -0.5350 -0.1351  0.5573
    5PRO     CD   42   6.216   4.581   3.185 -0.1107 -0.3843 -0.1429
    5PRO    HD1   43   6.188   4.519   3.273  1.6330  0.7607  1.3108
    5PRO    HD2   44   6.245   4.681   3.222  0.5794 -0.3153 -0.8514
    5PRO     CA   45   6.158   4.551   2.949 -0.5173  0.1427  0.3731
    5PRO     HA   46   6.116   4.625   2.882 -1.7849  1.2156  2.2567
    5PRO     CB   47   6.316   4.563   2.967 -1.0721  0.0343 -0.3063
    5PRO    HB1   48   6.354   4.667   2.959 -2.2240  0.5157  0.3443
    5PRO    HB2   49   6.377   4.497   2.901 -1.2095 -2.7922  2.2107
    5PRO     CG   50   6.337   4.519   3.112  0.0912 -0.0759 -0.0000
    5PRO    HG1   51   6.348   4.409   3.103 -2.9873 -0.3912 -1.4060
    5PRO    HG2   52   6.429   4.560   3.157 -0.5484  2.5046 -0.8613
    5PRO      C   53   6.101   4.418   2.893 -1.3984 -0.9028 -0.3855
    5PRO      O   54   6.079   4.410   2.773 -0.0649  0.2155  1.1247
    6GLY      N   55   6.089   4.319   2.978 -0.2455  0.6929  0.2184
    6GLY     HN   56   6.120   4.318   3.072  2.1551 -0.5995 -0.5144
    6GLY     CA   57   6.016   4.199   2.935 -0.3485 -0.2353 -1.1250
    6GLY    HA1   58   6.011   4.141   3.026  1.2364  0.6768 -0.4198
    6GLY    HA2   59   6.081   4.160   2.858  1.4321  0.6500 -0.1228
    6GLY      C   60   5.880   4.212   2.877  0.7832  0.7236 -0.8027
    6GLY      O   61   5.808   4.303   2.916 -0.1518 -0.3073 -0.2019
    7PRO      N   62   5.829   4.121   2.781 -0.3164  0.0550 -0.8320
    7PRO     CD   63   5.904   4.006   2.733 -0.0088  0.3631  0.6269
    7PRO    HD1   64   5.971   3.959   2.808 -0.0974  2.1653  1.9145
    7PRO    HD2   65   5.957   4.036   2.640 -0.3166 -1.3642 -0.1337
    7PRO     CA   66   5.690   4.118   2.739  0.7733  0.3413 -0.8552
    7PRO     HA   67   5.669   4.213   2.692  1.0437  1.7811  1.7178
    7PRO     CB   68   5.679   3.994   2.644  0.5195  0.2088 -0.2292
    7PRO    HB1   69   5.691   4.031   2.539  0.6902  0.7638 -0.0176
    7PRO    HB2   70   5.580   3.948   2.667 -0.4768  2.4315  0.2532
    7PRO     CG   71   5.798   3.911   2.684  0.3010 -0.5051  0.7572
    7PRO    HG1   72   5.768   3.847   2.770  1.9327 -1.7847  0.4043
    7PRO    HG2   73   5.830   3.849   2.598 -0.8869  2.0240 -1.7100
    7PRO      C   74   5.584   4.123   2.852  0.1741 -0.1625 -0.0275
    7PRO      O   75   5.610   4.083   2.959 -0.2505  0.2253  0.1014
    8GLY      N   76   5.465   4.172   2.821  0.3632  0.7552 -0.2388
    8GLY     HN   77   5.453   4.224   2.737  0.3649 -1.2377 -1.5380
    8GLY     CA   78   5.356   4.178   2.920  0.2739  0.2601 -0.5277
    8GLY    HA1   79   5.283   4.250   2.887 -1.2330 -0.3905  1.1864
    8GLY    HA2   80   5.404   4.202   3.014 -1.0848  3.2908 -0.4892
    8GLY      C   81   5.283   4.047   2.926  0.5419 -0.5700 -0.1200
    8GLY      O   82   5.291   3.966   2.835  0.8726 -0.1285 -0.6545
    9ALA      N   83   5.217   4.029   3.040  0.2491  0.1659  0.5194
    9ALA     HN   84   5.230   4.098   3.111  4.2071 -0.7846  0.9686
    9ALA     CA   85   5.150   3.907   3.080  0.0627  0.3575  0.0210
    9ALA     HA   86   5.213   3.820   3.077 -0.9228 -0.6382  3.6533
    9ALA     CB   87   5.097   3.921   3.225  0.1120 -0.0432  0.1466
    9ALA    HB1   88   5.182   3.943   3.293 -0.6653  0.2668  1.0510
    9ALA    HB2   89   5.052   3.826   3.262  0.2617 -0.4686 -0.7431
    9ALA    HB3   90   5.027   4.007   3.226 -1.7513 -1.4373  2.8631
    9ALA      C   91   5.033   3.883   2.985  0.3669 -0.0929  0.0410
    9ALA      O   92   4.977   3.975   2.924  0.2259 -0.0048  0.5162
   10PRO      N   93   4.979   3.759   2.971  0.0559  0.1734  0.2253
   10PRO     CD   94   5.050   3.632   2.996  0.4152  0.4851 -0.3104
   10PRO    HD1   95   5.039   3.617   3.106 -0.6572  1.6634 -0.2296
   10PRO    HD2   96   5.153   3.629   2.957 -0.3329 -0.4616 -2.3566
   10PRO     CA   97   4.856   3.744   2.895  0.3764  0.5960  0.2078
   10PRO     HA   98   4.872   3.769   2.791 -0.2939 -0.5592 -0.1988
   10PRO     CB   99   4.831   3.588   2.920  0.7921  0.2642 -0.1776
   10PRO    HB1  100   4.763   3.563   2.836  0.1440  0.9879  0.1201
   10PRO    HB2  101   4.777   3.560   3.012  2.0003 -1.6487  0.0036
   10PRO     CG  102   4.971   3.525   2.922  0.1061 -0.0972 -0.5002
   10PRO    HG1  103   4.962   3.424   2.968 -1.4483  0.4466  0.4515
   10PRO    HG2  104   5.004   3.520   2.816 -2.2734  0.0070 -1.3190
   10PRO      C  105   4.742   3.822   2.960 -0.6487  0.4312 -0.3140
   10PRO      O  106   4.731   3.817   3.084  0.0361  0.0311 -0.1648
   11GLY      N  107   4.658   3.895   2.880 -0.6884 -0.0826  0.6389
   11GLY     HN  108   4.682   3.894   2.783 -0.5613  0.0845  0.6674
   11GLY     CA  109   4.551   3.988   2.923 -0.4526  0.4821  0.3265
   11GLY    HA1  110   4.514   4.049   2.841 -1.8672 -1.6559 -0.7290
   11GLY    HA2  111   4.599   4.045   3.001 -0.7596  1.5946 -0.2899
   11GLY      C  112   4.428   3.928   2.987 -0.2435  0.6372 -0.1434
   11GLY      O  113   4.405   3.808   2.972 -0.4757  0.0552 -0.1132
   12PRO      N  114   4.340   4.002   3.044  0.4447  0.3133  0.5986
   12PRO     CD  115   4.368   4.142   3.069 -0.2693 -0.2404  0.1541
   12PRO    HD1  116   4.400   4.209   2.986  0.1228  0.0340  0.5213
   12PRO    HD2  117   4.453   4.144   3.140  0.2322 -1.1889 -0.4084
   12PRO     CA  118   4.216   3.965   3.111 -0.1908  0.3267  0.0913
   12PRO     HA  119   4.235   3.933   3.212 -2.0726  0.4709  0.5102
   12PRO     CB  120   4.141   4.095   3.107 -0.0214  0.1369 -0.4743
   12PRO    HB1  121   4.061   4.099   3.184  0.9688  2.4979  0.5454
   12PRO    HB2  122   4.101   4.104   3.003  1.4720 -1.3525 -1.2234
   12PRO     CG  123   4.247   4.201   3.134  0.1318 -0.1201  0.6197
   12PRO    HG1  124   4.211   4.295   3.088  0.6056 -0.1812  0.1236
   12PRO    HG2  125   4.264   4.215   3.243 -2.2892  2.8528  0.7670
   12PRO      C  126   4.132   3.852   3.041 -0.2061 -0.2288 -0.2315
   12PRO      O  127   4.149   3.827   2.921  1.0534  0.4825 -0.3682
   13GLY      N  128   4.049   3.787   3.119  0.2233 -0.2043 -0.0301
   13GLY     HN  129   4.032   3.805   3.215  1.3086 -0.2436  0.1810
   13GLY     CA  130   3.969   3.670   3.079 -0.7291 -0.7153 -0.0773
   13GLY    HA1  131   3.971   3.665   2.972  0.6651  0.5445 -0.1403
   13GLY    HA2  132   3.866   3.687   3.106 -0.7349  1.5206 -1.2071
   13GLY      C  133   4.009   3.538   3.144 -0.8000  0.1687  0.0109
   13GLY      O  134   4.108   3.528   3.225  0.1747 -0.0934  0.1093
   14ALA      N  135   3.933   3.433   3.113  0.5285 -0.3299 -0.4589
   14ALA     HN  136   3.850   3.429   3.058  0.3233 -1.5810 -0.0833
   14ALA     CA  137   3.968   3.302   3.164 -0.4874 -0.1960 -1.1944
   14ALA     HA  138   3.984   3.309   3.271 -1.9724  0.0178 -0.9645
   14ALA     CB  139   3.849   3.206   3.155  0.0970  0.2045 -0.3709
   14ALA    HB1  140   3.803   3.216   3.054  1.5398  1.6061 -0.9271
   14ALA    HB2  141   3.776   3.250   3.226  1.4745  0.6374  0.8232
   14ALA    HB3  142   3.859   3.102   3.191  1.3342  0.7978  1.0782
   14ALA      C  143   4.078   3.232   3.098  0.1380 -0.6810 -0.1095
   14ALA      O  144   4.081   3.231   2.974 -0.4533 -0.1677 -0.9085
   15PRO      N  145   4.185   3.189   3.164 -0.0390  0.3195 -0.1396
   15PRO     CD  146   4.213   3.204   3.312 -0.1266  0.2032 -0.0648
   15PRO    HD1  147   4.130   3.170   3.378  0.5168  1.8755  1.7056
   15PRO    HD2  148   4.235   3.312   3.323  0.4629  0.0958 -0.1453
   15PRO     CA  149   4.300   3.137   3.093 -0.0860  0.2175 -0.0774
   15PRO     HA  150   4.319   3.210   3.015 -1.7571 -0.7106 -1.4161
   15PRO     CB  151   4.416   3.150   3.196  0.4432  0.4446 -0.2105
   15PRO    HB1  152   4.456   3.254   3.199  1.5777  0.0072  1.3485
   15PRO    HB2  153   4.498   3.078   3.175 -0.5790 -1.2242  1.2838
   15PRO     CG  154   4.344   3.125   3.331 -0.1319 -0.1178 -0.1174
   15PRO    HG1  155   4.321   3.016   3.330 -0.9113  0.0398 -0.9221
   15PRO    HG2  156   4.405   3.150   3.421  1.7360 -0.4504 -1.2271
   15PRO      C  157   4.299   2.997   3.041 -0.9289  0.2395  0.0808
   15PRO    OT1  158   4.346   2.965   2.927  0.4561 -0.1954  0.4939
   15PRO    OT2  159   4.238   2.906   3.106 -0.0437 -0.1980  0.3906
   16LIT    LIT  160   2.850   6.781   4.376 -0.8173 -0.4167  0.4330
   17LIT    LIT  161   7.515   6.594   2.348  0.7515 -0.4606 -0.3312
   18LIT    LIT  162   6.566   4.258   6.139  0.5670  0.2682  0.0838
   19LIT    LIT  163   3.410   6.316   4.503 -0.5508  0.2316  0.6299
   20LIT    LIT  164   4.191   7.101   1.591 -0.2581 -1.4567 -0.9805
   21LIT    LIT  165   7.895   0.973   2.774 -0.5031 -0.0798 -0.3696
   22LIT    LIT  166   4.186   2.822   2.935  0.1665 -1.0789 -0.1591
   23LIT    LIT  167   6.462   1.370   5.174  0.2250 -0.6313 -0.7556
   24LIT    LIT  168   0.335   5.638   6.645 -0.4204  0.5926 -0.1808
   25LIT    LIT  169   7.249   7.000   6.779  0.2230 -0.2662  1.2429
   26LIT    LIT  170   2.511   6.645   0.484 -0.1102 -0.7376  0.2931
   27LIT    LIT  171   2.223   4.597   2.185 -0.5910 -0.1316 -0.2432
   28LIT    LIT  172   4.677   3.377   6.444 -0.0843 -0.9914  0.1870
   29LIT    LIT  173   0.924   4.251   3.981 -0.1480  0.0220 -0.9796
   30LIT    LIT  174   6.095   6.098   1.257  0.5502 -0.6416  0.4321
   31LIT    LIT  175   5.012   3.321   5.357  1.1570  0.0753 -0.1518
   32LIT    LIT  176   3.036   0.367   3.645  0.2675 -0.7175  0.6509
   33LIT    LIT  177   5.690   3.673   0.535 -0.9545 -0.7468  0.7090
   34LIT    LIT  178   8.330   4.119   0.034  0.2928  0.0088 -0.3312
   35LIT    LIT  179   5.798   6.508   6.607  0.7831 -0.4587  0.3820
   36LIT    LIT  180   7.586   3.068   3.279  0.0385  0.8155  0.4018
   37LIT    LIT  181   5.034   2.778   5.347  0.2161  1.0756 -0.7506
   38LIT    LIT  182   0.241   2.277   4.416  0.0754 -0.5634 -0.1833
   39LIT    LIT  183   4.554   7.208   5.583 -0.2723  0.5566  0.4146
   40LIT    LIT  184   3.488   2.932   3.165  0.1778 -0.6901  0.8498
   41LIT    LIT  185   7.519   1.147   0.668  0.5166  0.9359  0.0750
   42LIT    LIT  186   5.874   7.155   1.903 -1.5161  1.2994 -0.3024
   43LIT    LIT  187   8.186   1.004   1.169  1.5415 -0.3970  0.6190
   44LIT    LIT  188   7.585   7.864   5.894  0.0641  0.0061  0.6597
   45LIT    LIT  189   2.002   1.269   0.521  0.4183  0.3861  0.5591
   46LIT    LIT  190   7.602   5.775   0.295  0.2572  0.3788  0.3561
   47LIT    LIT  191   7.799   7.838   2.677  1.2617 -0.1031 -0.2040
   48LIT    LIT  192   6.908   1.673   1.133  0.6170  1.0794  1.0383
   49LIT    LIT  193   5.235   6.500   3.433 -0.0143 -1.6311 -0.1141
   50LIT    LIT  194   0.069   4.183   5.433 -1.3587 -0.3851  0.8265
   51LIT    LIT  195   5.019   7.478   0.530 -0.3544 -0.0669  0.2332
   52LIT    LIT  196   2.259   1.096   4.496 -0.0360 -0.6761 -0.2695
   53LIT    LIT  197   1.862   5.656   1.880  1.3326 -0.5291  0.0783
   54LIT    LIT  198   0.364   5.760   5.425  0.4917  0.2117  0.6821
   55LIT    LIT  199   0.339   4.988   3.109 -0.0363 -0.6724  0.7659
   56LIT    LIT  200   6.931   2.386   5.420  0.0065  0.2064 -0.0956
   57LIT    LIT  201   3.282   4.012   1.754 -0.8232  0.2635  0.2336
   58LIT    LIT  202   6.595   5.488   0.026 -0.1589  0.4278  0.3353
   59CLA    CLA  203   1.623   0.661   3.012 -0.3058 -0.5699  0.0389
   60CLA    CLA  204   4.701   5.724   4.851 -0.0263  0.0686 -0.0995
   61CLA    CLA  205   7.447   2.501   2.944  0.2057  0.3399  0.3195
   62CLA    CLA  206   1.511   0.657   6.615 -0.2720  0.3524  0.4498
   63CLA    CLA  207   8.046   5.102   5.105  0.0951 -0.4174  0.1405
   64CLA    CLA  208   3.815   4.079   0.399 -0.0532  0.2242  0.2264
   65CLA    CLA  209   1.052   5.764   5.866  0.3348  0.1861  0.5405
   66CLA    CLA  210   6.457   7.240   2.151  0.2368  0.2369  0.2187
   67CLA    CLA  211   4.327   3.405   5.502  0.4035  0.0056 -0.2642
   68CLA    CLA  212   7.769   5.082   0.487 -0.3256  0.1726  0.1512
   69CLA    CLA  213   4.301   3.062   5.863 -0.3749  0.1274 -0.1996
   70CLA    CLA  214   7.007   6.686   4.216  0.0805 -0.2557  0.0825
   71CLA    CLA  215   4.622   1.898   1.093 -0.0288  0.1427  0.3702
   72CLA    CLA  216   4.003   6.602   1.998 -0.3344  0.1287  0.4853
   73CLA    CLA  217   7.867   3.676   6.410 -0.4614 -0.1913 -0.4504
   74CLA    CLA  218   0.737   4.960   0.731 -0.4555 -0.0212  0.3024
   75CLA    CLA  219   6.315   5.122   0.768  0.2122  0.1570  0.1120
   76CLA    CLA  220   6.214   5.989   5.743 -0.1097  0.1606  0.3270
   77CLA    CLA  221   5.002   2.098   2.638  0.3390 -0.5315 -0.1211
   78CLA    CLA  222   7.856   3.790   0.652 -0.3298 -0.0119 -0.2761
   79CLA    CLA  223   7.589   6.586   2.585 -0.0106 -0.0539  0.0941
   80CLA    CLA  224   0.399   4.928   6.176  0.2529 -0.3890  0.1749
   81CLA    CLA  225   0.654   1.378   0.390 -0.0432 -0.3588 -0.2376
   82CLA    CLA  226   0.052   1.683   1.933 -0.2701  0.2548 -0.2679
   83CLA    CLA  227   1.059   1.470   1.486 -0.2099  0.5605  0.0970
   84CLA    CLA  228   6.500   4.953   6.024  0.1350 -0.1148  0.1429
   85CLA    CLA  229   0.801   7.393   2.139 -0.0378  0.0416 -0.5145
   86CLA    CLA  230   2.543   2.849   6.479 -0.1395 -0.1058  0.0124
   87CLA    CLA  231   0.975   3.037   1.248 -0.0351 -0.2849 -0.0773
   88CLA    CLA  232   1.387   0.772   3.715  0.2128 -0.1216  0.1157
   89CLA    CLA  233   3.656   7.194   1.046  0.1304 -0.0964  0.6565
   90CLA    CLA  234   7.586   4.500   2.993 -0.0017  0.3954 -0.2239
   91CLA    CLA  235   5.278   7.628   1.493  0.0662  0.1175 -0.1040
   92CLA    CLA  236   2.244   6.087   5.482  0.2268 -0.3641  0.0388
   93CLA    CLA  237   2.256   4.640   6.532  0.0552 -0.7512  0.0742
   94CLA    CLA  238   5.818   3.652   5.583  0.1238 -0.4978 -0.2053
   95CLA    CLA  239   6.753   7.110   4.401  0.0396  0.3491  0.5862
   96CLA    CLA  240   2.157   5.422   3.636 -0.1434  0.8134 -0.1338
   97CLA    CLA  241   7.423   0.975   1.317 -0.0944  0.2503  0.0170
   98CLA    CLA  242   3.478   4.875   3.126  0.0961 -0.3951 -0.1355
   99CLA    CLA  243   4.429   6.514   2.917  0.3214  0.0776  0.0464
  100CLA    CLA  244   6.923   6.705   6.780  0.1576  0.2645  0.0057
  101CLA    CLA  245   1.313   3.310   4.138 -0.3963 -0.0657  0.1451
  102TIP3   OH2  246   0.346   2.177   4.297 -0.4156  0.1490  0.2909
  102TIP3    H1  247   0.425   2.123   4.295  0.9405  1.9951  0.7988
  102TIP3    H2  248   0.314   2.177   4.207 -0.2093 -1.0985  0.1970
  103TIP3   OH2  249   3.268   5.194   5.038  0.5305 -0.4912  0.5485
  103TIP3    H1  250   3.191   5.147   5.006  0.2771  0.7470 -0.8135
  103TIP3    H2  251   3.257   5.197   5.133 -0.3755 -1.5404  0.4960
  104TIP3   OH2  252   2.182   6.464   2.454 -0.6455 -0.1223 -0.1832
  104TIP3    H1  253   2.158   6.407   2.381  2.8481 -0.4375 -1.2598
  104TIP3    H2  254   2.223   6.540   2.413  0.0916  0.3773  1.3781
  105TIP3   OH2  255   5.707   5.876   4.284  0.1463  0.1113 -0.2285
  105TIP3    H1  256   5.795   5.911   4.300  0.5435 -0.4482 -1.0699
  105TIP3    H2  257   5.689   5.821   4.360 -0.1235  1.4123  0.6791
  106TIP3   OH2  258   3.243   6.115   3.170  0.3201 -0.2928  0.5298
  106TIP3    H1  259   3.218   6.100   3.262  0.8487 -3.0614  0.3176
  106TIP3    H2  260   3.162   6.102   3.121  0.7487 -2.8899  0.3598
  107TIP3   OH2  261   0.970   6.770   6.331 -0.6371  0.1326  0.5238
  107TIP3    H1  262   0.973   6.782   6.236 -2.4517 -0.4100  0.3662
  107TIP3    H2  263   1.060   6.787   6.360 -0.5252  2.6878 -0.9823
  108TIP3   OH2  264   1.132   6.505   2.770  0.1037 -0.3051 -0.1912
  108TIP3    H1  265   1.081   6.466   2.841 -0.4259  0.4460 -0.1500
  108TIP3    H2  266   1.185   6.573   2.812  0.8720 -0.8204 -0.2942
  109TIP3   OH2  267   6.921   6.357   1.886  0.6317 -0.9511  0.3386
  109TIP3    H1  268   6.859   6.385   1.953  1.3217 -0.2148  0.6753
  109TIP3    H2  269   6.909   6.262   1.881 -0.4380 -0.8426  0.4755
  110TIP3   OH2  270   7.003   7.603   3.268 -0.0021  0.3205 -0.4741
  110TIP3    H1  271   7.094   7.576   3.252  0.4203  0.9682  0.7154
  110TIP3    H2  272   6.959   7.590   3.184  1.3888  0.7916 -1.3078
  111TIP3   OH2  273   1.420   0.059   2.790 -0.2007  0.0608 -0.2511
  111TIP3    H1  274   1.387   0.089   2.705 -0.2146  4.1312  0.9705
  111TIP3    H2  275   1.344   0.067   2.848  0.2570 -0.9951  0.5132
  112TIP3   OH2  276   0.202   3.668   6.043 -0.2457 -0.1082 -0.6512
  112TIP3    H1  277   0.141   3.657   5.970 -2.0229  1.1206  0.5610
  112TIP3    H2  278   0.180   3.598   6.104 -0.0460 -0.0147 -0.4706
  113TIP3   OH2  279   5.894   2.257   3.696 -0.3715  0.0885  0.6074
  113TIP3    H1  280   5.808   2.299   3.694 -1.3420 -1.6247  2.6676
  113TIP3    H2  281   5.936   2.292   3.775  1.4999  1.9527 -1.0747
  114TIP3   OH2  282   0.830   5.603   1.372  0.0829  0.2675 -0.1325
  114TIP3    H1  283   0.915   5.581   1.332 -0.1273  1.4543 -1.2979
  114TIP3    H2  284   0.853   5.655   1.449  0.4507 -0.9795  0.6377
  115TIP3   OH2  285   2.288   4.245   3.132  0.0109  0.1719  0.2516
  115TIP3    H1  286   2.212   4.293   3.098 -1.5445 -1.4370  1.2561
  115TIP3    H2  287   2.320   4.299   3.204 -1.0705  0.2312  0.7058
  116TIP3   OH2  288   7.580   7.059   4.367  0.2541  0.2225  0.5644
  116TIP3    H1  289   7.589   6.967   4.341 -1.5065  0.1791 -0.0350
  116TIP3    H2  290   7.635   7.067   4.445  0.3745 -1.3529  0.6848
  117TIP3   OH2  291   4.606   0.449   6.741  0.0300  0.2936  0.2517
  117TIP3    H1  292   4.592   0.380   6.806 -0.8165  0.4658  0.2663
  117TIP3    H2  293   4.653   0.517   6.788  0.4737 -0.0814  0.3580
  118TIP3   OH2  294   4.233   5.409   0.843  0.2062 -0.5148  0.5137
  118TIP3    H1  295   4.325   5.407   0.816  1.0117  2.2984  2.4511
  118TIP3    H2  296   4.193   5.474   0.785  0.1796  0.2671  1.3761
  119TIP3   OH2  297   7.423   6.255   3.360  0.1151  0.3065 -0.3363
  119TIP3    H1  298   7.476   6.249   3.280  0.8156  0.7833  0.0781
  119TIP3    H2  299   7.466   6.196   3.421  0.0471  0.5422 -0.0590
  120TIP3   OH2  300   3.982   3.658   1.533 -0.5690  0.1751  0.4390
  120TIP3    H1  301   4.015   3.732   1.583  2.5082 -0.1695 -0.8859
  120TIP3    H2  302   4.040   3.651   1.458 -2.7994 -1.5617 -1.2734
  121TIP3   OH2  303   7.992   5.397   0.880 -0.0682  0.1732 -0.1497
  121TIP3    H1  304   7.983   5.329   0.813  0.3053 -0.0646  0.0383
  121TIP3    H2  305   8.012   5.349   0.961 -0.3456  0.4693  0.0985
  122TIP3   OH2  306   3.912   4.299   5.620  0.2803 -0.4698 -0.1770
  122TIP3    H1  307   3.824   4.288   5.584  0.4914  1.3749 -1.3895
  122TIP3    H2  308   3.899   4.350   5.700  0.2249 -0.6268 -0.0840
  123TIP3   OH2  309   2.626   6.491   1.518  0.1913  0.1086  0.3047
  123TIP3    H1  310   2.656   6.407   1.554 -0.5525 -0.2019  0.2256
  123TIP3    H2  311   2.531   6.484   1.519  0.1423  0.5341 -0.6862
  124TIP3   OH2  312   1.759   1.098   4.266 -0.4345 -0.0164 -0.2772
  124TIP3    H1  313   1.807   1.180   4.262 -1.7008  0.6881 -2.5659
  124TIP3    H2  314   1.764   1.062   4.178 -0.4480 -2.1197  0.5127
  125TIP3   OH2  315   5.801   3.993   3.495 -0.1863  0.1700 -0.4393
  125TIP3    H1  316   5.849   4.056   3.548 -0.1608  0.6115 -0.9747
  125TIP3    H2  317   5.747   3.944   3.557  1.6915 -1.0301  0.3356
  126TIP3   OH2  318   0.400   5.511   6.777 -0.6711 -0.2373  0.0447
  126TIP3    H1  319   0.425   5.515   6.869 -0.3320  0.5241 -0.0760
  126TIP3    H2  320   0.382   5.419   6.761  2.1394 -0.8831  0.1138
  127TIP3   OH2  321   5.937   4.165   3.704  0.0991  0.3707  0.1372
  127TIP3    H1  322   5.956   4.222   3.778 -1.6945 -0.6448  1.4590
  127TIP3    H2  323   5.974   4.080   3.728  0.1096  0.1991 -0.4571
  128TIP3   OH2  324   0.356   5.932   4.185  0.2979  0.2155 -0.3807
  128TIP3    H1  325   0.448   5.953   4.197  0.1723  1.5061 -1.3546
  128TIP3    H2  326   0.312   5.970   4.261  0.6550 -1.4091  0.6880
  129TIP3   OH2  327   5.243   6.356   4.314 -0.0019 -0.3963 -0.2838
  129TIP3    H1  328   5.199   6.347   4.398 -0.4706 -2.2810 -0.6701
  129TIP3    H2  329   5.238   6.268   4.276  4.7246 -0.9858 -0.0684
  130TIP3   OH2  330   5.546   2.605   2.839 -0.0431 -0.3198  0.4841
  130TIP3    H1  331   5.562   2.697   2.859 -0.3381 -0.1258 -0.1308
  130TIP3    H2  332   5.539   2.562   2.924  1.4323 -0.0237  0.7976
  131TIP3   OH2  333   8.364   5.864   2.237 -0.4027 -0.3547 -0.6249
  131TIP3    H1  334   8.314   5.904   2.309 -1.5332 -0.5313 -1.2784
  131TIP3    H2  335   8.448   5.839   2.277 -1.3734 -1.3914  0.9219
  132TIP3   OH2  336   3.994   4.588   5.843 -0.1590  0.3354 -0.2782
  132TIP3    H1  337   3.908   4.558   5.870 -0.1776  0.7001  0.0880
  132TIP3    H2  338   3.987   4.684   5.843 -0.0001  0.3500 -1.0729
  133TIP3   OH2  339   2.612   3.282   5.284  0.2348 -0.0730 -0.6067
  133TIP3    H1  340   2.647   3.302   5.197 -0.9316  0.5043 -0.9613
  133TIP3    H2  341   2.522   3.314   5.281 -0.1373 -0.9914  0.4764
  134TIP3   OH2  342   7.749   7.275   0.504  0.4303  0.2047 -0.2634
  134TIP3    H1  343   7.818   7.341   0.500 -0.2900  1.0172  0.2525
  134TIP3    H2  344   7.706   7.291   0.588 -0.9134  0.2671 -0.9282
  135TIP3   OH2  345   1.429   1.256   5.570 -0.4710  0.1079  0.3493
  135TIP3    H1  346   1.461   1.188   5.629 -0.7437 -1.0559 -0.8099
  135TIP3    H2  347   1.454   1.338   5.612  1.5130 -0.7215  0.8633
  136TIP3   OH2  348   0.781   7.511   5.831 -0.3625  0.0997 -0.4001
  136TIP3    H1  349   0.760   7.473   5.917  1.7889  0.7019  0.4496
  136TIP3    H2  350   0.866   7.553   5.843  0.0799  0.0659 -2.9016
  137TIP3   OH2  351   7.506   5.579   6.307 -0.2029  0.0837  0.0043
  137TIP3    H1  352   7.580   5.544   6.258 -1.7436  0.4148 -2.6904
  137TIP3    H2  353   7.483   5.510   6.369  0.0057 -1.5770 -1.7039
  138TIP3   OH2  354   4.435   1.996   4.652 -0.1201 -0.0794 -0.2420
  138TIP3    H1  355   4.500   1.993   4.722 -1.2063  2.9071  1.0448
  138TIP3    H2  356   4.353   1.973   4.694 -0.5873  0.4721 -0.8296
  139TIP3   OH2  357   2.967   4.677   4.166 -0.4480 -0.4489  0.5676
  139TIP3    H1  358   2.896   4.623   4.131 -1.4837  0.9139  0.5070
  139TIP3    H2  359   2.927   4.724   4.239  0.0892  1.1473 -0.1452
  140TIP3   OH2  360   2.852   4.813  -0.003 -0.0717 -0.8853  0.0260
  140TIP3    H1  361   2.782   4.862   0.039  0.2704 -1.6117  1.4893
  140TIP3    H2  362   2.822   4.722  -0.000 -0.0871 -0.9526 -1.4269
  141TIP3   OH2  363   1.865   2.653   4.120  0.1829 -0.1422 -0.0465
  141TIP3    H1  364   1.826   2.740   4.128  0.7766  0.2108 -0.8204
  141TIP3    H2  365   1.883   2.644   4.026  0.1937 -1.0723  0.0396
  142TIP3   OH2  366   2.404   6.950   1.375  0.1322  0.2698 -0.6530
  142TIP3    H1  367   2.312   6.929   1.359  0.0814  0.6179 -0.8278
  142TIP3    H2  368   2.403   7.041   1.407  0.2230 -0.4117  1.4167
  143TIP3   OH2  369   0.540   3.286   4.673  0.4445  0.7394 -0.7853
  143TIP3    H1  370   0.475   3.216   4.682 -1.1473  1.9940 -1.9562
  143TIP3    H2  371   0.621   3.248   4.707 -0.3184 -1.7316 -1.5245
  144TIP3   OH2  372   0.528   4.634   2.312  0.6278 -0.0502 -0.4737
  144TIP3    H1  373   0.616   4.597   2.316 -0.1944 -2.2745 -1.3135
  144TIP3    H2  374   0.537   4.713   2.260  2.2544  0.2164  0.1573
  145TIP3   OH2  375   8.141   3.604   3.584  0.6552 -0.5248 -0.0276
  145TIP3    H1  376   8.109   3.682   3.537 -1.0597 -1.8752 -1.2449
  145TIP3    H2  377   8.221   3.580   3.537  1.4975  0.7391  0.6794
  146TIP3   OH2  378   3.078   0.813   3.984 -0.2406 -0.8598  0.1513
  146TIP3    H1  379   3.003   0.851   3.938  0.3924  0.3061  0.0427
  146TIP3    H2  380   3.137   0.887   3.998  1.1697 -1.8624 -0.3029
  147TIP3   OH2  381   3.637   3.269   1.372 -0.1856  0.2164  0.0070
  147TIP3    H1  382   3.718   3.218   1.375  0.2056  0.7758 -0.7044
  147TIP3    H2  383   3.606   3.260   1.282 -0.9778 -0.0809  0.3001
  148TIP3   OH2  384   7.530   1.911   6.778 -0.1188  0.5653  0.1712
  148TIP3    H1  385   7.479   1.857   6.718 -2.1939  0.2268  2.0852
  148TIP3    H2  386   7.549   1.991   6.729 -0.9703 -0.0502 -1.2102
  149TIP3   OH2  387   5.184   0.104   1.822 -0.0884 -0.5726  0.0344
  149TIP3    H1  388   5.144   0.157   1.891 -1.4506  0.0363 -1.1626
  149TIP3    H2  389   5.153   0.015   1.839  0.5004 -0.6278  0.8473
  150TIP3   OH2  390   5.356   0.821   1.642  0.0105 -0.1261  0.7310
  150TIP3    H1  391   5.326   0.869   1.565  0.4970 -2.0017 -0.6803
  150TIP3    H2  392   5.279   0.813   1.698 -0.4111  1.0137  0.3409
  151TIP3   OH2  393   4.932   1.317   5.397 -0.1829  0.1290  0.3743
  151TIP3    H1  394   4.981   1.307   5.316 -2.2380  0.0634 -0.9194
  151TIP3    H2  395   4.887   1.401   5.389 -1.5746 -0.5370  0.7472
  152TIP3   OH2  396   5.639   2.080   4.824 -0.1932  0.0416 -0.3734
  152TIP3    H1  397   5.735   2.080   4.829 -0.2066  0.4983  5.1033
  152TIP3    H2  398   5.613   1.990   4.841 -0.7101  0.3489  0.5247
  153TIP3   OH2  399   2.706   3.868   4.613  0.2744  0.1021 -0.6891
  153TIP3    H1  400   2.649   3.816   4.556 -0.4213 -0.3217  0.3635
  153TIP3    H2  401   2.677   3.958   4.599 -0.4244 -0.0727 -0.4378
  154TIP3   OH2  402   4.973   0.724   2.635 -0.5646 -0.0693  0.0059
  154TIP3    H1  403   4.920   0.750   2.559  0.1493 -1.9106 -1.1757
  154TIP3    H2  404   5.011   0.806   2.667 -1.7035  0.8764 -0.9755
  155TIP3   OH2  405   3.523   6.322   2.914 -0.3778  0.0485 -0.3660
  155TIP3    H1  406   3.436   6.299   2.884 -1.0915  0.0724  1.5342
  155TIP3    H2  407   3.535   6.271   2.994  0.2775  1.9876  0.8295
  156TIP3   OH2  408   6.815   3.915   2.790 -1.0036  0.2118  0.4726
  156TIP3    H1  409   6.868   3.933   2.867 -0.4166 -2.1402  0.6892
  156TIP3    H2  410   6.876   3.925   2.716  0.0673 -3.0399  0.7528
  157TIP3   OH2  411   2.065   1.350   0.356  0.3160  0.3385 -0.6245
  157TIP3    H1  412   2.156   1.358   0.330  0.3770 -0.3795 -0.6488
  157TIP3    H2  413   2.016   1.385   0.281  0.4881 -1.7178 -1.7840
  158TIP3   OH2  414   7.990   0.768   2.255 -0.2849 -0.1351  0.6019
  158TIP3    H1  415   7.904   0.726   2.255 -0.3928  0.0834  0.7888
  158TIP3    H2  416   7.981   0.842   2.195  0.0365 -0.6405 -0.0802
  159TIP3   OH2  417   4.865   0.822   6.095  0.0696  0.1375 -0.2975
  159TIP3    H1  418   4.806   0.879   6.144 -0.0397  1.0785 -1.4795
  159TIP3    H2  419   4.952   0.860   6.107  0.1604 -0.1097 -0.1611
  160TIP3   OH2  420   1.757   0.521   3.667  0.2229 -0.2440 -0.2319
  160TIP3    H1  421   1.818   0.544   3.737  3.1136 -1.3681 -2.1955
  160TIP3    H2  422   1.712   0.603   3.647 -0.8612  0.0891  2.9486
  161TIP3   OH2  423   6.735   5.142   6.058 -0.1155  0.1290  0.2104
  161TIP3    H1  424   6.651   5.098   6.072 -0.4555  1.0113  1.0897
  161TIP3    H2  425   6.734   5.165   5.965 -0.4787 -0.5919  0.0258
  162TIP3   OH2  426   8.088   7.046   0.295 -0.0547  0.0250 -0.0980
  162TIP3    H1  427   8.102   6.951   0.292 -1.1929 -0.2204  1.1984
  162TIP3    H2  428   8.175   7.082   0.314  0.0870 -0.9220  1.2122
  163TIP3   OH2  429   0.972   6.667   4.471  0.3622 -0.0216  0.2993
  163TIP3    H1  430   0.994   6.618   4.392 -0.3739 -0.7005  0.5058
  163TIP3    H2  431   1.004   6.756   4.453  0.1453 -0.1478 -0.7871
  164TIP3   OH2  432   5.459   3.783   3.165  0.1551 -0.3149  0.4478
  164TIP3    H1  433   5.491   3.694   3.156 -0.3948 -0.5222  0.4782
  164TIP3    H2  434   5.436   3.790   3.258 -1.2382 -0.6524  0.1528
  165TIP3   OH2  435   0.226   2.115   0.670 -0.3286 -0.4191  0.3156
  165TIP3    H1  436   0.138   2.127   0.633 -1.3398  0.7073  2.8698
  165TIP3    H2  437   0.219   2.035   0.722  0.1761 -0.3346  0.5189
  166TIP3   OH2  438   5.803   2.531   1.365  0.1720  0.0736 -0.4171
  166TIP3    H1  439   5.768   2.565   1.448  0.6629 -0.8170  0.1693
  166TIP3    H2  440   5.751   2.453   1.348  0.3780 -0.0002 -0.7092
  167TIP3   OH2  441   7.522   7.667   1.193 -0.3097  0.1799 -0.3149
  167TIP3    H1  442   7.502   7.747   1.144 -0.6628  0.5007  0.3262
  167TIP3    H2  443   7.543   7.699   1.281  2.7099 -0.1564 -0.8021
  168TIP3   OH2  444   1.661   3.137   6.459  0.0104 -0.1441  0.5367
  168TIP3    H1  445   1.712   3.065   6.494  2.1424  1.4929  1.0431
  168TIP3    H2  446   1.681   3.138   6.365 -0.5170 -0.5574  0.4130
  169TIP3   OH2  447   0.407   6.931   4.982 -0.1959 -0.2525  0.9046
  169TIP3    H1  448   0.468   6.963   5.049 -0.9128 -0.7673  1.8221
  169TIP3    H2  449   0.380   7.009   4.935 -0.5537  0.2721  1.9553
  170TIP3   OH2  450   5.571   4.470   5.073  0.2030  0.0995  0.2484
  170TIP3    H1  451   5.643   4.439   5.017  1.8158  0.4758  1.9938
  170TIP3    H2  452   5.609   4.473   5.161 -2.4990 -1.4223  1.5873
  171TIP3   OH2  453   5.369   1.806   5.843  0.1634 -0.1410  0.1183
  171TIP3    H1  454   5.389   1.788   5.935  2.2728 -1.6071 -0.5506
  171TIP3    H2  455   5.454   1.820   5.801 -0.8516  4.4429 -0.9982
  172TIP3   OH2  456   5.355   5.129   3.154  0.1805 -0.5842 -0.0196
  172TIP3    H1  457   5.265   5.100   3.167 -0.1577  1.0223  1.4988
  172TIP3    H2  458   5.376   5.101   3.064 -2.8172  1.4407 -1.5176
  173TIP3   OH2  459   7.557   4.566   1.174 -0.5209  0.1580 -0.0192
  173TIP3    H1  460   7.503   4.505   1.123  0.3913 -0.4835 -0.2504
  173TIP3    H2  461   7.494   4.620   1.222 -1.3892 -1.9869  1.4133
  174TIP3   OH2  462   7.969   3.010   3.992 -0.4417 -0.5260 -0.3703
  174TIP3    H1  463   7.960   2.943   3.924  0.3041  0.2728 -1.2943
  174TIP3    H2  464   7.903   3.076   3.969  0.7965  0.4704 -1.2423
  175TIP3   OH2  465   6.900   0.381   0.410  0.4331 -0.0596  1.0093
  175TIP3    H1  466   6.889   0.400   0.503  0.1881 -0.7485  1.1257
  175TIP3    H2  467   6.854   0.452   0.366  0.8949  0.4974  1.4015
  176TIP3   OH2  468   0.278   2.743   0.705  0.1277  0.9701  0.9527
  176TIP3    H1  469   0.308   2.653   0.692 -0.9849  0.7051 -0.0385
  176TIP3    H2  470   0.293   2.761   0.797  0.8864 -0.0327  1.0430
  177TIP3   OH2  471   4.534   0.453   2.046  0.2994 -0.3306 -0.6594
  177TIP3    H1  472   4.460   0.429   2.102 -0.2633 -0.1063 -1.2878
  177TIP3    H2  473   4.493   0.489   1.968  1.0848  0.7784 -0.5818
  178TIP3   OH2  474   3.724   0.955   2.015 -0.4275  0.1731 -0.2616
  178TIP3    H1  475   3.671   0.875   2.003 -1.3511  0.5172  1.2366
  178TIP3    H2  476   3.764   0.944   2.101 -0.6156  1.3524 -0.0080
  179TIP3   OH2  477   1.391   7.172   5.807 -0.0841  0.4967  0.7719
  179TIP3    H1  478   1.444   7.250   5.821 -0.1862  0.8604 -0.7319
  179TIP3    H2  479   1.446   7.115   5.753  0.5005 -1.0644  2.9040
  180TIP3   OH2  480   0.734   6.457   3.213  0.2270  0.5718 -0.0243
  180TIP3    H1  481   0.783   6.500   3.143  2.2867  2.0035  2.1435
  180TIP3    H2  482   0.667   6.520   3.239 -1.0453 -0.2693 -1.1460
  181TIP3   OH2  483   0.221   2.336   4.953 -0.1986  0.2739  0.0817
  181TIP3    H1  484   0.126   2.344   4.958 -0.0994  1.5164  0.3438
  181TIP3    H2  485   0.253   2.426   4.958  1.0320 -0.1774  0.7512
  182TIP3   OH2  486   7.649   4.609   3.499  0.0903 -0.4740  0.6984
  182TIP3    H1  487   7.624   4.560   3.420  1.8529 -1.1117  0.4763
  182TIP3    H2  488   7.738   4.578   3.518 -0.1857 -0.1143  2.7778
  183TIP3   OH2  489   7.444   0.752   3.053 -0.3515  0.5744 -0.1639
  183TIP3    H1  490   7.479   0.673   3.013 -0.9324  0.2627 -0.0637
  183TIP3    H2  491   7.441   0.816   2.981 -2.8032 -0.4223 -1.0470
  184TIP3   OH2  492   2.117   3.087   3.550  1.0112 -0.2531 -0.0559
  184TIP3    H1  493   2.092   3.044   3.468  0.2664  0.4009 -0.1913
  184TIP3    H2  494   2.176   3.026   3.592 -0.2559 -1.5673 -0.0889
  185TIP3   OH2  495   1.319   3.125   0.948 -0.0127 -0.3916 -0.0213
  185TIP3    H1  496   1.273   3.208   0.962 -0.6881 -0.5845 -0.9830
  185TIP3    H2  497   1.322   3.084   1.034  1.0895  0.9956  0.6469
  186TIP3   OH2  498   1.426   7.258   3.469  0.0113 -0.3682  0.2937
  186TIP3    H1  499   1.520   7.244   3.487  0.1907  0.0692 -0.2794
  186TIP3    H2  500   1.421   7.347   3.436 -0.3794 -0.9512 -1.2977
  187TIP3   OH2  501   6.754   3.582   1.644 -0.3666  0.3771 -0.0722
  187TIP3    H1  502   6.704   3.657   1.676 -0.5656  0.1061  0.2615
  187TIP3    H2  503   6.790   3.611   1.561 -0.1104  0.9815  0.2420
  188TIP3   OH2  504   4.437   6.101   6.039 -0.1523  0.0418  0.5240
  188TIP3    H1  505   4.477   6.129   5.957 -1.5819 -1.1116 -0.6080
  188TIP3    H2  506   4.506   6.052   6.084  0.5971  0.5699 -0.0339
  189TIP3   OH2  507   3.353   5.943   1.111 -0.1754  0.0773  0.0638
  189TIP3    H1  508   3.422   5.951   1.045 -0.3173  0.1674 -0.0756
  189TIP3    H2  509   3.400   5.935   1.194  0.0333 -1.3499 -0.1712
  190TIP3   OH2  510   6.041   6.871   4.602  0.5285  0.2902  0.1763
  190TIP3    H1  511   6.062   6.861   4.510 -0.0203  0.0733  0.0669
  190TIP3    H2  512   6.017   6.963   4.612  0.6519  0.3282  0.1157
  191TIP3   OH2  513   8.243   0.895   5.687 -0.3935  0.1696  0.0665
  191TIP3    H1  514   8.303   0.902   5.612 -0.6045 -1.8960 -0.3544
  191TIP3    H2  515   8.290   0.841   5.751 -0.6049  1.1159  1.0444
  192TIP3   OH2  516   4.721   5.845   0.197 -0.6372 -0.1300  0.0642
  192TIP3    H1  517   4.631   5.831   0.169 -0.8723 -1.0636  1.1787
  192TIP3    H2  518   4.744   5.765   0.245  1.8559 -1.2883 -2.7534
  193TIP3   OH2  519   6.263   6.747   3.051  0.4969 -0.2138 -0.1248
  193TIP3    H1  520   6.300   6.708   2.972  2.4793  1.0306  0.1277
  193TIP3    H2  521   6.339   6.765   3.107 -0.6708  0.7651  1.2105
  194TIP3   OH2  522   4.512   3.649   1.650 -0.0196 -0.2453 -0.3750
  194TIP3    H1  523   4.503   3.554   1.647  0.5254 -0.3851  1.2353
  194TIP3    H2  524   4.474   3.680   1.568  0.0099 -1.8640 -1.0271
  195TIP3   OH2  525   3.777   2.239   2.596  0.0293  0.5139  0.4017
  195TIP3    H1  526   3.745   2.308   2.537  1.0297 -0.1199 -0.9441
  195TIP3    H2  527   3.868   2.264   2.614  0.2400 -0.1795  0.3081
  196TIP3   OH2  528   0.202   0.745   1.526 -0.1133 -0.4315 -0.1847
  196TIP3    H1  529   0.283   0.704   1.557 -0.1073  1.5117  2.7280
  196TIP3    H2  530   0.134   0.681   1.545  0.4487 -1.1790 -0.6035
  197TIP3   OH2  531   1.002   1.479   2.043 -0.1504 -1.1067 -0.0740
  197TIP3    H1  532   1.065   1.478   2.115 -0.3826 -0.4288  0.1475
  197TIP3    H2  533   0.920   1.507   2.084 -0.3770 -1.0777 -0.5392
  198TIP3   OH2  534   6.994   1.700   3.740 -0.5420 -0.2368 -0.3225
  198TIP3    H1  535   7.029   1.696   3.651 -0.9952 -0.1746 -0.5075
  198TIP3    H2  536   7.071   1.709   3.796 -0.1076 -2.0255 -0.5649
  199TIP3   OH2  537   4.202   1.952   5.742  0.2963 -0.0745 -0.0356
  199TIP3    H1  538   4.141   1.974   5.812  1.8810 -3.2010  2.6057
  199TIP3    H2  539   4.258   2.030   5.735  0.8026  0.0063  3.1103
  200TIP3   OH2  540   3.350   3.951   5.273 -0.5685  0.4966 -0.2212
  200TIP3    H1  541   3.263   3.937   5.236 -0.7318 -0.0611  0.3624
  200TIP3    H2  542   3.389   3.864   5.277 -0.3475  0.6233  0.4186
  201TIP3   OH2  543   7.852   2.518   6.235 -0.1579 -0.4908  0.3592
  201TIP3    H1  544   7.903   2.505   6.155  1.9695  2.9854  0.9046
  201TIP3    H2  545   7.772   2.561   6.206 -0.5848 -1.5494 -0.0768
  202TIP3   OH2  546   1.667   2.995   2.157 -0.4237  0.3334  0.1782
  202TIP3    H1  547   1.754   2.980   2.120 -1.2558  1.3760 -2.4896
  202TIP3    H2  548   1.641   2.910   2.192  0.6806 -0.6612 -1.2601
  203TIP3   OH2  549   0.388   7.674   5.383  0.8960  0.1278  0.3179
  203TIP3    H1  550   0.373   7.686   5.477 -2.6749 -0.4357 -0.0449
  203TIP3    H2  551   0.477   7.640   5.378  0.6628 -1.4340  3.6725
  204TIP3   OH2  552   0.970   4.416   1.935  0.6977 -0.2787  0.4832
  204TIP3    H1  553   1.046   4.370   1.969  1.9630  2.2340  1.2841
  204TIP3    H2  554   0.895   4.374   1.978  1.7357 -1.7087  0.9549
  205TIP3   OH2  555   5.681   0.705   3.192 -0.3899  0.1793 -0.5653
  205TIP3    H1  556   5.723   0.623   3.168  1.2925  0.3914  1.3281
  205TIP3    H2  557   5.753   0.761   3.221 -1.8794  0.6759  2.5836
  206TIP3   OH2  558   4.903   0.978   0.185  0.3290  0.0258 -0.0427
  206TIP3    H1  559   4.977   1.025   0.222 -1.2893  3.1958 -0.4888
  206TIP3    H2  560   4.921   0.974   0.091  0.6158 -0.6378  0.0308
  207TIP3   OH2  561   7.577   0.780   0.386  0.0658  0.2513  0.2796
  207TIP3    H1  562   7.611   0.753   0.301  0.9350  0.1562  0.6470
  207TIP3    H2  563   7.644   0.838   0.421  0.4500 -0.9002  1.5516
  208TIP3   OH2  564   4.401   2.311   4.146  0.2836  0.8137  0.5744
  208TIP3    H1  565   4.332   2.260   4.188 -0.3511 -0.5874 -2.0142
  208TIP3    H2  566   4.363   2.398   4.136 -0.4921  0.4919  0.6386
  209TIP3   OH2  567  -0.010   6.587   5.812  0.4682  0.5517 -0.3364
  209TIP3    H1  568   0.035   6.651   5.756  1.1977  0.3946  0.0618
  209TIP3    H2  569   0.015   6.611   5.901  0.2246  0.1085 -0.1451
  210TIP3   OH2  570   8.109   2.188   2.579 -0.4398 -0.2372  0.2192
  210TIP3    H1  571   8.114   2.267   2.525 -0.1723 -0.7004 -0.4532
  210TIP3    H2  572   8.052   2.212   2.652  2.0758  1.5556  1.7534
  211TIP3   OH2  573   7.979   1.594   0.173 -0.2338 -0.2884  0.1725
  211TIP3    H1  574   8.056   1.582   0.228 -0.8517  1.9431  1.6655
  211TIP3    H2  575   7.910   1.622   0.233 -1.6423 -0.1733 -1.4094
  212TIP3   OH2  576   6.666   3.231   0.984 -0.7029 -0.2745 -0.1876
  212TIP3    H1  577   6.718   3.235   0.904 -1.0141 -1.8789 -0.5068
  212TIP3    H2  578   6.731   3.227   1.054 -0.4096 -0.4626 -0.4671
  213TIP3   OH2  579   0.146   4.806   2.146 -0.1536  0.4206 -0.5802
  213TIP3    H1  580   0.104   4.767   2.222 -0.9777 -2.9905 -2.5498
  213TIP3    H2  581   0.088   4.877   2.120 -0.7726  0.5084  0.9678
  214TIP3   OH2  582   7.018   7.245   2.233  0.0073 -0.1306  1.2897
  214TIP3    H1  583   6.940   7.295   2.254  0.2034  0.6838  0.2169
  214TIP3    H2  584   7.004   7.214   2.143  1.1929  0.6464  0.8034
  215TIP3   OH2  585   4.827   7.176   0.904  0.0716  0.1460  0.1709
  215TIP3    H1  586   4.733   7.171   0.923  0.0881 -0.3570  0.1263
  215TIP3    H2  587   4.869   7.133   0.979  0.2597  0.2868  0.1464
  216TIP3   OH2  588   5.016   1.988   3.954 -0.1802  0.0030 -0.4574
  216TIP3    H1  589   4.953   1.958   4.020  0.6506  0.2895  0.4961
  216TIP3    H2  590   4.972   1.973   3.870 -1.3889 -0.0873  0.1651
  217TIP3   OH2  591   6.909   4.896   4.220 -0.3028 -0.2726  0.6495
  217TIP3    H1  592   6.818   4.924   4.209  0.5117  2.3732 -0.0766
  217TIP3    H2  593   6.943   4.951   4.290  0.9676 -0.6026  0.3187
  218TIP3   OH2  594   6.522   7.008   0.786  0.1782 -0.3679  0.0123
  218TIP3    H1  595   6.454   7.070   0.758  1.3179  0.6056 -0.6984
  218TIP3    H2  596   6.486   6.922   0.762 -0.6666  0.1434 -0.6554
  219TIP3   OH2  597   7.776   5.713   1.633  0.2012 -0.6692 -0.2120
  219TIP3    H1  598   7.834   5.720   1.557 -0.3413 -2.4518 -0.8382
  219TIP3    H2  599   7.830   5.742   1.706  0.9376  0.4795 -1.1676
  220TIP3   OH2  600   7.477   1.135   5.275 -0.2717 -0.5600 -0.1603
  220TIP3    H1  601   7.543   1.096   5.217 -0.4368 -2.9111  1.0776
  220TIP3    H2  602   7.517   1.216   5.306  0.5399 -0.1431 -2.1033
  221TIP3   OH2  603   2.482   0.175   5.898 -0.1048 -0.8638 -0.2264
  221TIP3    H1  604   2.434   0.208   5.823  1.3771 -1.3355 -1.4267
  221TIP3    H2  605   2.494   0.250   5.955 -0.3426 -0.2585 -0.9654
  222TIP3   OH2  606   6.236   4.054   2.660 -0.2260  0.3186  0.0613
  222TIP3    H1  607   6.252   4.119   2.591 -0.3947 -0.0190 -0.2959
  222TIP3    H2  608   6.267   3.972   2.622  4.5581  0.8291  2.1606
  223TIP3   OH2  609   5.913   3.108   6.447 -0.5233 -0.3566 -0.7777
  223TIP3    H1  610   5.894   3.156   6.528 -1.3302 -2.8304  0.6332
  223TIP3    H2  611   5.983   3.158   6.405  1.0866  0.2227  2.2762
  224TIP3   OH2  612   7.291   5.698   6.712 -0.0123  0.4163 -0.6349
  224TIP3    H1  613   7.337   5.719   6.631  1.5233  0.3039  0.1487
  224TIP3    H2  614   7.295   5.779   6.763 -0.8796  0.4615 -0.6323
  225TIP3   OH2  615   4.223   4.148   5.887  0.0739  0.1773  0.3865
  225TIP3    H1  616   4.190   4.125   5.974 -2.1143  0.0144 -0.4391
  225TIP3    H2  617   4.172   4.094   5.827  1.6098  0.2149 -1.0321
  226TIP3   OH2  618   8.181   5.609   0.000  0.0373 -0.1365 -0.3847
  226TIP3    H1  619   8.119   5.591   0.071 -0.8794  0.1964 -1.0730
  226TIP3    H2  620   8.244   5.537   0.005 -1.1687 -1.2508 -0.4877
  227TIP3   OH2  621   2.778   5.859   6.392 -0.2015  0.2518 -0.0106
  227TIP3    H1  622   2.805   5.833   6.304 -0.9562  0.8155 -0.4202
  227TIP3    H2  623   2.769   5.954   6.386 -2.1069  0.1130  0.1425
  228TIP3   OH2  624   2.104   6.635   1.162  0.0806  0.0766  0.0896
  228TIP3    H1  625   2.175   6.571   1.164  1.3197  1.4248  0.1286
  228TIP3    H2  626   2.110   6.675   1.075  0.1915  1.1046  0.5656
  229TIP3   OH2  627   1.591   2.901   5.756 -0.3353 -0.5342 -0.3322
  229TIP3    H1  628   1.658   2.912   5.824  1.1884  1.0444 -1.9787
  229TIP3    H2  629   1.590   2.807   5.738  1.3884 -0.6115 -0.1851
  230TIP3   OH2  630   7.387   7.458   6.267 -0.2615  0.1197 -0.3964
  230TIP3    H1  631   7.383   7.368   6.234 -0.6072 -0.3798  0.9287
  230TIP3    H2  632   7.480   7.472   6.288  0.0395  0.5940 -1.8958
  231TIP3   OH2  633   7.658   5.686   2.864 -0.4739 -0.1373 -0.7984
  231TIP3    H1  634   7.718   5.730   2.804 -1.2921  1.1375 -0.7071
  231TIP3    H2  635   7.613   5.757   2.909 -0.7623 -1.0793  0.4424
  232TIP3   OH2  636   4.491   1.164   2.186 -0.0161 -0.0364 -0.5263
  232TIP3    H1  637   4.561   1.222   2.217 -1.7189  1.3112  1.0480
  232TIP3    H2  638   4.497   1.087   2.243 -0.8563  0.8443  0.7981
  233TIP3   OH2  639   1.227   2.771   2.824  0.6209  0.4849  0.1861
  233TIP3    H1  640   1.229   2.688   2.871  0.4162 -0.0977 -0.8052
  233TIP3    H2  641   1.149   2.815   2.856  0.5831  0.1763  0.5221
  234TIP3   OH2  642   5.051   3.065   6.004  0.0978 -0.2067  0.0346
  234TIP3    H1  643   4.995   3.135   5.970  0.1985 -1.0726 -2.0631
  234TIP3    H2  644   4.995   2.988   6.007  1.1406 -1.1427 -2.3009
  235TIP3   OH2  645   2.280   1.583   2.637  0.0835 -0.7085 -0.3031
  235TIP3    H1  646   2.220   1.657   2.647 -0.3210 -1.1015  0.2402
  235TIP3    H2  647   2.225   1.506   2.646  0.8986 -1.1149  1.9939
  236TIP3   OH2  648   7.365   5.390   3.783  0.7636  0.7845  0.7173
  236TIP3    H1  649   7.306   5.436   3.723  0.7090 -2.1020 -1.6576
  236TIP3    H2  650   7.307   5.342   3.842  0.7369  0.1080  0.1524
  237TIP3   OH2  651   5.569   5.631   1.733 -0.3553  0.1888  0.0868
  237TIP3    H1  652   5.636   5.632   1.665  0.8093 -0.6020  1.1775
  237TIP3    H2  653   5.557   5.538   1.755 -2.6455  0.1890 -0.8398
  238TIP3   OH2  654   0.629   4.445   2.918  0.7921 -0.1181  0.1472
  238TIP3    H1  655   0.662   4.487   2.839 -1.4448 -1.0405 -1.3701
  238TIP3    H2  656   0.704   4.395   2.951  2.2144  1.4935 -0.4530
  239TIP3   OH2  657   6.920   0.363   5.595 -0.5012 -0.2177 -0.3497
  239TIP3    H1  658   6.852   0.414   5.551  0.0130  1.9900  1.2216
  239TIP3    H2  659   7.002   0.405   5.568  0.0880 -1.3741 -0.4091
  240TIP3   OH2  660   0.244   1.455   4.978  0.0871 -0.0832  0.0263
  240TIP3    H1  661   0.328   1.482   4.941  0.0095  0.9830  0.6020
  240TIP3    H2  662   0.208   1.534   5.017 -0.9080 -0.6680  0.3255
  241TIP3   OH2  663   0.213   5.668   1.999 -0.5005 -0.0838  0.0534
  241TIP3    H1  664   0.156   5.702   2.069  0.6097  0.9355  0.5036
  241TIP3    H2  665   0.260   5.595   2.040  1.6397  1.7544  1.1089
  242TIP3   OH2  666   1.066   7.052   0.413 -0.1531  0.3219  0.2898
  242TIP3    H1  667   1.099   7.061   0.502 -3.4488  1.7910  1.5125
  242TIP3    H2  668   1.109   7.123   0.365 -1.2755  2.0730  1.7547
  243TIP3   OH2  669   5.827   5.740   6.682  0.1544 -0.2745  0.2367
  243TIP3    H1  670   5.901   5.696   6.641  0.6948  1.0142 -0.2448
  243TIP3    H2  671   5.857   5.761   6.771  1.4439  2.5292 -0.7264
  244TIP3   OH2  672   1.119   6.962   3.314  0.0890 -0.3457  0.3771
  244TIP3    H1  673   1.123   6.941   3.407 -0.2622 -1.3120  0.1918
  244TIP3    H2  674   1.135   7.056   3.309 -2.0837  0.1295  1.6012
  245TIP3   OH2  675   0.492   2.680   4.658 -0.2559 -0.2301  0.1742
  245TIP3    H1  676   0.528   2.744   4.597 -0.9925 -0.5496 -0.6076
  245TIP3    H2  677   0.533   2.702   4.742 -0.2001  1.0253 -0.1563
  246TIP3   OH2  678   4.905   7.253   6.067  0.2312  0.9095  0.3122
  246TIP3    H1  679   4.861   7.326   6.024 -1.6492  0.1941  0.9038
  246TIP3    H2  680   4.850   7.177   6.049  2.4800 -0.5695 -0.8678
  247TIP3   OH2  681   1.663   4.534   6.297 -0.3369 -0.2347  0.7114
  247TIP3    H1  682   1.619   4.500   6.219  1.3018 -0.3504 -0.2070
  247TIP3    H2  683   1.648   4.628   6.295 -1.7547 -0.4286  1.2298
  248TIP3   OH2  684   0.559   6.774   3.894  0.0852 -0.1729  0.0679
  248TIP3    H1  685   0.583   6.692   3.937  2.3021  0.9822  1.2043
  248TIP3    H2  686   0.543   6.835   3.966 -0.5396  0.6603 -0.7589
  249TIP3   OH2  687   6.020   2.753   5.574  0.4051 -0.2816  0.3674
  249TIP3    H1  688   5.970   2.711   5.504  0.8327  1.9092 -1.3517
  249TIP3    H2  689   5.961   2.751   5.650 -1.1659 -0.3163 -0.7967
  250TIP3   OH2  690   7.949   0.852   4.952 -0.1133 -0.3033 -0.3903
  250TIP3    H1  691   8.037   0.850   4.989  0.0770 -3.6246 -0.7320
  250TIP3    H2  692   7.901   0.913   5.008  1.2806 -1.7767  2.6628
  251TIP3   OH2  693   1.138   6.295   5.451 -0.1143 -0.2812  0.5068
  251TIP3    H1  694   1.147   6.210   5.409 -1.1720  0.8301 -2.1434
  251TIP3    H2  695   1.138   6.275   5.545  1.0745 -3.0171  0.0248
  252TIP3   OH2  696   7.144   3.656   0.880  0.1625 -0.6970 -0.6912
  252TIP3    H1  697   7.223   3.677   0.930  0.5022  0.3945 -1.6297
  252TIP3    H2  698   7.150   3.562   0.863  2.2168 -0.3505 -2.2917
  253TIP3   OH2  699   0.640   2.196   3.836  0.5575 -0.5455 -0.4817
  253TIP3    H1  700   0.572   2.213   3.901 -1.3154 -1.6582 -2.0531
  253TIP3    H2  701   0.712   2.255   3.860 -0.7381  0.3076  1.5344
  254TIP3   OH2  702   5.913   4.627   2.401 -0.5117 -0.0538  0.3758
  254TIP3    H1  703   5.978   4.695   2.381  1.1243 -1.3471  1.0557
  254TIP3    H2  704   5.923   4.611   2.495 -1.2219 -0.8671  0.3230
  255TIP3   OH2  705   0.011   6.068   2.020  0.3018  0.1691  0.2329
  255TIP3    H1  706  -0.009   6.025   1.937  0.9393  1.5870 -0.6867
  255TIP3    H2  707   0.005   5.997   2.085 -1.2155 -0.7721 -0.8460
  256TIP3   OH2  708   8.141   2.997   5.189  0.3113 -0.3843 -0.3536
  256TIP3    H1  709   8.144   3.092   5.192  0.6531 -0.4118  0.4566
  256TIP3    H2  710   8.180   2.969   5.272  0.4943 -1.2319 -0.7109
  257TIP3   OH2  711   6.534   6.024   0.683 -0.6123 -0.3840 -0.3256
  257TIP3    H1  712   6.564   6.088   0.748 -0.5105 -0.4613 -0.2958
  257TIP3    H2  713   6.598   5.952   0.689 -0.9351 -0.6542 -0.0970
  258TIP3   OH2  714   3.359   1.599   4.332 -0.1871 -0.3935 -0.5145
  258TIP3    H1  715   3.369   1.560   4.418 -1.2417 -0.4214 -0.3896
  258TIP3    H2  716   3.313   1.532   4.280 -3.3935  1.1039  0.1191
  259TIP3   OH2  717   4.598   7.398   3.416 -0.2110  0.3546 -0.2190
  259TIP3    H1  718   4.609   7.363   3.328 -0.4058 -0.0253 -0.0937
  259TIP3    H2  719   4.556   7.483   3.403 -0.3982  0.2232 -0.4819
  260TIP3   OH2  720   1.061   7.394   5.093  0.0578  0.1444  0.6870
  260TIP3    H1  721   1.001   7.425   5.024  2.7309  3.2116 -0.5426
  260TIP3    H2  722   1.082   7.304   5.067 -2.5998 -0.4580  0.2638
  261TIP3   OH2  723   7.088   5.470   1.229 -0.8058  0.5308  0.6180
  261TIP3    H1  724   7.103   5.533   1.300 -0.5027  0.9868  0.1637
  261TIP3    H2  725   7.173   5.465   1.184 -1.0649  0.4568  0.1279
  262TIP3   OH2  726   1.421   2.809   1.794  0.1646 -0.6803  0.3627
  262TIP3    H1  727   1.488   2.826   1.727 -1.8291  1.9696 -1.1292
  262TIP3    H2  728   1.355   2.756   1.749 -0.1188 -0.8098  0.9237
  263TIP3   OH2  729   1.260   7.373   2.992  0.3125  0.4167  0.1657
  263TIP3    H1  730   1.303   7.431   3.054 -0.7841  2.0097 -0.5046
  263TIP3    H2  731   1.266   7.419   2.908 -0.4290 -0.5236 -0.4235
  264TIP3   OH2  732   1.492   2.613   2.466  0.5530 -0.1514  0.0420
  264TIP3    H1  733   1.518   2.664   2.390  0.7616 -0.6915 -0.2497
  264TIP3    H2  734   1.437   2.673   2.517 -0.5132 -0.1360 -1.0762
  265TIP3   OH2  735   8.244   7.543   0.310 -0.4853  0.7998 -0.2488
  265TIP3    H1  736   8.300   7.542   0.233  2.8477  0.3324  1.9475
  265TIP3    H2  737   8.162   7.504   0.281  0.7869  0.1609 -3.3956
  266TIP3   OH2  738   6.869   2.619   0.935 -0.1897  0.2928  0.3144
  266TIP3    H1  739   6.830   2.602   1.021  1.3285  1.7944  1.3540
  266TIP3    H2  740   6.841   2.545   0.881 -0.3424 -1.2328  2.3747
  267TIP3   OH2  741   0.977   0.096   4.975 -0.2893  0.4629 -0.4540
  267TIP3    H1  742   1.058   0.121   4.931  0.1245  0.3961  0.2605
  267TIP3    H2  743   0.909   0.107   4.908  0.0727  2.1002 -0.6067
  268TIP3   OH2  744   0.690   6.083   4.787  0.0500  0.3439  0.1065
  268TIP3    H1  745   0.746   6.015   4.824 -1.1846  0.2116  1.8834
  268TIP3    H2  746   0.733   6.165   4.809 -0.7628  0.2781  2.1618
  269TIP3   OH2  747   3.631   4.711   1.669  0.4071  0.2653 -0.1886
  269TIP3    H1  748   3.563   4.742   1.610  0.7883  0.5182 -0.5032
  269TIP3    H2  749   3.680   4.647   1.618 -0.2160 -0.6872  0.3730
  270TIP3   OH2  750   6.876   2.294   2.948  0.0146  0.0247  0.4518
  270TIP3    H1  751   6.905   2.299   3.039 -0.0622 -0.5020  0.5073
  270TIP3    H2  752   6.780   2.297   2.954  0.0172  1.3219  0.2959
  271TIP3   OH2  753   6.337   1.615   2.546  0.6794  0.2440 -0.1953
  271TIP3    H1  754   6.353   1.674   2.472  0.2453  1.1869  0.4428
  271TIP3    H2  755   6.420   1.609   2.592  0.7846  0.1598 -0.3957
  272TIP3   OH2  756   2.101   0.080   3.377 -0.2933 -0.3502  0.5716
  272TIP3    H1  757   2.157   0.156   3.395  0.0308 -0.3587 -0.3217
  272TIP3    H2  758   2.107   0.069   3.282  0.0638 -1.8081  0.7438
  273TIP3   OH2  759   8.356   0.231   6.345 -0.7259 -0.5025  0.0832
  273TIP3    H1  760   8.412   0.175   6.398 -1.4970 -0.4278  1.0042
  273TIP3    H2  761   8.416   0.284   6.293  0.0266 -1.1165  0.3165
  274TIP3   OH2  762   2.521   6.737   0.294 -0.0010  0.7753 -0.0148
  274TIP3    H1  763   2.600   6.790   0.303 -0.5569  1.7050 -0.4605
  274TIP3    H2  764   2.460   6.792   0.244 -0.5129 -0.3707 -0.7113
  275TIP3   OH2  765   5.355   4.662   0.064  0.0316  0.3634  0.5606
  275TIP3    H1  766   5.320   4.660   0.153 -0.3363  1.2311  0.4498
  275TIP3    H2  767   5.390   4.751   0.054  1.1680 -0.1069  0.2458
  276TIP3   OH2  768   0.936   3.660   3.017  0.2483 -0.1641 -0.3212
  276TIP3    H1  769   1.022   3.695   3.037  0.0799 -0.1472  0.4337
  276TIP3    H2  770   0.952   3.582   2.963  0.6752  0.4264 -1.0569
  277TIP3   OH2  771   5.387   6.800   0.504 -0.3686  0.1557  0.4887
  277TIP3    H1  772   5.334   6.773   0.579 -3.1113  1.7916 -0.6984
  277TIP3    H2  773   5.408   6.719   0.458 -1.9248 -0.5619  0.9876
  278TIP3   OH2  774   0.834   2.858   0.695 -0.1025 -0.1378 -0.9554
  278TIP3    H1  775   0.889   2.865   0.773 -0.7732  1.8583 -0.6156
  278TIP3    H2  776   0.887   2.808   0.633  0.7772 -1.0396  0.4756
  279TIP3   OH2  777   1.413   4.096   1.231 -0.0404 -0.0466 -0.3094
  279TIP3    H1  778   1.427   4.190   1.240  0.4831  0.0188 -1.6257
  279TIP3    H2  779   1.500   4.059   1.217 -0.3204 -0.6373 -0.5720
  280TIP3   OH2  780   6.751   5.216   4.727 -0.0148 -0.1131  0.3008
  280TIP3    H1  781   6.696   5.294   4.740  2.5670  2.1466 -1.2345
  280TIP3    H2  782   6.716   5.176   4.648 -1.3326 -0.5264  1.0657
  281TIP3   OH2  783   1.052   2.007   3.006  0.2461 -0.4013 -0.3194
  281TIP3    H1  784   0.981   2.002   3.070  0.5071  1.8780  0.2487
  281TIP3    H2  785   1.122   1.954   3.043  0.1388  0.3159  0.9808
  282TIP3   OH2  786   6.460   3.712   0.600  0.3873  0.2182  0.2976
  282TIP3    H1  787   6.389   3.678   0.655  0.9039  0.6567  1.2563
  282TIP3    H2  788   6.538   3.665   0.628  0.9490  1.5327  1.0492
  283TIP3   OH2  789   8.015   3.761   1.608  0.5204 -0.0290 -0.0347
  283TIP3    H1  790   7.987   3.757   1.516 -2.5782 -0.7080  0.8177
  283TIP3    H2  791   8.053   3.848   1.617  1.2594 -0.0796 -2.0326
  284TIP3   OH2  792   1.673   7.184   6.079  0.0466  0.5278  0.4254
  284TIP3    H1  793   1.666   7.228   5.994  0.0701 -0.9730 -0.3798
  284TIP3    H2  794   1.725   7.105   6.061  1.0406  0.7580  2.0747
  285TIP3   OH2  795   4.692   2.923   1.632 -0.0829 -0.0687  0.2378
  285TIP3    H1  796   4.729   2.902   1.546 -0.2988 -1.4414  0.4464
  285TIP3    H2  797   4.762   2.903   1.694 -0.8955 -2.0885  0.5868
  286TIP3   OH2  798   3.926   2.619   4.902  0.2227  0.8930 -0.1772
  286TIP3    H1  799   4.014   2.643   4.874 -0.3894  2.5356 -0.8373
  286TIP3    H2  800   3.906   2.679   4.974 -0.1444  0.1287  0.3785
  287TIP3   OH2  801   1.492   2.577   6.333  0.1580 -0.0646  0.3837
  287TIP3    H1  802   1.480   2.668   6.306 -0.3386 -0.6751 -1.6477
  287TIP3    H2  803   1.442   2.526   6.269  1.3939 -1.8251  0.7412
  288TIP3   OH2  804   1.314   5.297   1.351 -0.0288  0.2084 -0.1354
  288TIP3    H1  805   1.377   5.240   1.396 -0.2166 -0.3873 -0.6256
  288TIP3    H2  806   1.293   5.365   1.416 -0.8741 -1.0530  0.9530
  289TIP3   OH2  807   4.663   1.581   4.295 -0.1099 -0.3948  0.2513
  289TIP3    H1  808   4.688   1.514   4.232 -0.0541 -1.2020  1.1163
  289TIP3    H2  809   4.574   1.606   4.270  0.5052  0.5374 -1.1781
  290TIP3   OH2  810   0.287   7.563   4.446 -0.4476 -0.4919 -0.3421
  290TIP3    H1  811   0.367   7.615   4.440 -0.3781 -0.4721  0.6337
  290TIP3    H2  812   0.276   7.525   4.359 -0.6113  1.3206 -1.1532
  291TIP3   OH2  813   1.233   3.507   5.757 -0.1840  0.7072  0.9356
  291TIP3    H1  814   1.242   3.421   5.798  3.5808  0.6462  0.3503
  291TIP3    H2  815   1.168   3.553   5.811 -1.3036 -1.9918  2.0600
  292TIP3   OH2  816   7.918   0.098   1.527  0.1821 -0.1874 -0.1472
  292TIP3    H1  817   7.932   0.192   1.521  1.2805 -0.3718 -0.7559
  292TIP3    H2  818   8.000   0.063   1.563 -1.1365 -0.6640  2.6436
  293TIP3   OH2  819   4.875   2.799   4.166  0.1871  0.0131  0.2230
  293TIP3    H1  820   4.833   2.859   4.228  1.0160  0.8909 -0.0292
  293TIP3    H2  821   4.856   2.837   4.080 -0.6377 -0.9874 -0.0451
  294TIP3   OH2  822   8.357   0.732   6.158 -0.0168 -0.2772 -0.1037
  294TIP3    H1  823   8.318   0.674   6.093 -0.6105 -1.5447  1.3418
  294TIP3    H2  824   8.331   0.696   6.242  0.1826  1.6916  0.8703
  295TIP3   OH2  825   4.683   7.519   1.674 -0.8286  0.1064 -0.4792
  295TIP3    H1  826   4.683   7.614   1.690 -1.7603  0.3677 -1.8374
  295TIP3    H2  827   4.772   7.499   1.646 -0.4384  0.4361  0.4651
  296TIP3   OH2  828   5.511   6.752   6.507 -0.0530 -0.5294  0.1837
  296TIP3    H1  829   5.534   6.738   6.599  0.0778  0.0305  0.2402
  296TIP3    H2  830   5.468   6.838   6.506  0.5550 -0.2271 -0.3807
  297TIP3   OH2  831   5.456   2.309   0.613 -0.2853 -0.1964 -0.0550
  297TIP3    H1  832   5.373   2.351   0.638 -1.1929 -1.9444  0.0804
  297TIP3    H2  833   5.474   2.248   0.684  0.1864 -1.0932 -0.9195
  298TIP3   OH2  834   0.805   2.446   4.766  0.4173 -0.6396 -0.0330
  298TIP3    H1  835   0.752   2.455   4.686  0.1933 -0.6588  0.1130
  298TIP3    H2  836   0.797   2.353   4.789 -0.4829 -0.4065  0.6708
  299TIP3   OH2  837   5.913   3.370   5.514  0.5469  0.0788  0.4261
  299TIP3    H1  838   5.867   3.451   5.538 -0.7573  0.0285 -1.6266
  299TIP3    H2  839   5.982   3.361   5.579  0.4375  2.6026  0.9890
  300TIP3   OH2  840   1.052   1.113   4.097 -0.6378 -0.0507 -0.0880
  300TIP3    H1  841   1.087   1.045   4.040 -0.7550 -1.4270  1.3912
  300TIP3    H2  842   1.127   1.139   4.151 -1.1709 -0.9160  1.1154
  301TIP3   OH2  843   2.138   5.794   0.496 -0.1476 -0.0090 -0.1951
  301TIP3    H1  844   2.215   5.850   0.485  0.1185 -0.2321  0.4600
  301TIP3    H2  845   2.075   5.826   0.432  0.1049  0.8619 -0.0165
  302TIP3   OH2  846   2.943   3.059   6.177 -0.5686  0.3226 -0.0110
  302TIP3    H1  847   3.029   3.093   6.152  0.1715 -1.0029  0.6298
  302TIP3    H2  848   2.908   3.021   6.096  0.0201 -0.2774  0.0082
  303TIP3   OH2  849   3.927   2.260   5.646  0.1219 -0.0692  0.0861
  303TIP3    H1  850   3.832   2.251   5.647  0.1839 -0.7682  0.1826
  303TIP3    H2  851   3.959   2.177   5.611  0.8080 -1.0003  2.6456
  304TIP3   OH2  852   0.243   6.261   6.868  0.0235  0.0153 -1.0657
  304TIP3    H1  853   0.164   6.269   6.921  0.9082  2.7856  0.0229
  304TIP3    H2  854   0.212   6.230   6.783 -2.1563  0.4454 -0.5003
  305TIP3   OH2  855   2.450   1.687   5.115 -0.1495  0.1474 -0.0802
  305TIP3    H1  856   2.377   1.640   5.154 -0.6130 -0.1018 -1.2275
  305TIP3    H2  857   2.522   1.623   5.114 -0.0279  0.2617  0.6522
  306TIP3   OH2  858   3.249   3.270   5.529 -0.4226 -0.1277  0.1123
  306TIP3    H1  859   3.274   3.213   5.601  3.5232  0.1073 -0.8245
  306TIP3    H2  860   3.249   3.213   5.452 -0.4689  0.3655 -0.2612
  307TIP3   OH2  861   1.787   6.226   1.880 -0.1462  0.5626 -0.2399
  307TIP3    H1  862   1.799   6.180   1.963 -0.3894 -0.2535 -0.6478
  307TIP3    H2  863   1.837   6.307   1.890 -1.4453  1.2316  1.2920
  308TIP3   OH2  864   5.529   3.307   5.193  0.3826 -0.0476 -0.4987
  308TIP3    H1  865   5.514   3.302   5.287  0.2652  0.5303 -0.4804
  308TIP3    H2  866   5.603   3.367   5.183 -0.4841  1.0211 -0.8231
  309TIP3   OH2  867   4.346   2.365   5.573  0.2024  0.1179 -0.1448
  309TIP3    H1  868   4.269   2.327   5.531 -1.3076  1.8184  0.9126
  309TIP3    H2  869   4.330   2.460   5.570  1.2944  0.4199  1.8687
  310TIP3   OH2  870   6.772   4.422   5.146 -0.0318  0.2594  0.0981
  310TIP3    H1  871   6.839   4.490   5.138  1.0667 -0.8318 -0.2323
  310TIP3    H2  872   6.745   4.427   5.238 -0.7155  1.7968 -0.1473
  311TIP3   OH2  873   8.151   0.932   0.996  0.4009 -0.2854 -0.1345
  311TIP3    H1  874   8.176   0.935   0.904 -0.3244 -1.0311 -0.3739
  311TIP3    H2  875   8.134   0.840   1.014 -2.6657  0.1620 -0.1789
  312TIP3   OH2  876   7.073   1.455   0.237  0.3083 -0.1342  0.5298
  312TIP3    H1  877   7.101   1.389   0.300  0.7618 -1.3252 -0.8720
  312TIP3    H2  878   7.154   1.493   0.203  0.2444 -1.6256 -1.4882
  313TIP3   OH2  879   8.073   0.365   2.586 -0.1231  0.5808  0.0886
  313TIP3    H1  880   8.004   0.408   2.536  0.1331 -0.5298 -1.2773
  313TIP3    H2  881   8.150   0.420   2.573 -0.8330  2.1678  2.1292
  314TIP3   OH2  882   6.767   5.691   2.906  0.4325 -0.4136  0.0131
  314TIP3    H1  883   6.705   5.656   2.970  1.0078 -0.3001  0.6469
  314TIP3    H2  884   6.847   5.640   2.921  0.1422 -1.4215 -1.6294
  315TIP3   OH2  885   6.540   6.423   4.291 -0.0917 -0.7176  0.6751
  315TIP3    H1  886   6.520   6.397   4.201  4.0414 -1.2499 -0.2818
  315TIP3    H2  887   6.521   6.345   4.343 -2.7607 -0.3309  0.4623
  316TIP3   OH2  888   7.795   6.279   6.817 -0.1612 -0.1994  0.5198
  316TIP3    H1  889   7.861   6.348   6.827 -0.2172  0.3756 -2.2796
  316TIP3    H2  890   7.805   6.248   6.728 -3.0532 -0.7626  0.2707
  317TIP3   OH2  891   5.913   5.018   1.727  0.2977 -0.0158 -0.6810
  317TIP3    H1  892   5.976   5.057   1.666  0.9276 -0.6866 -0.4761
  317TIP3    H2  893   5.852   4.971   1.670  0.5254 -0.1294 -0.8369
  318TIP3   OH2  894   3.473   6.359   6.367  0.2080  0.4918 -0.6957
  318TIP3    H1  895   3.550   6.309   6.392  1.0174  1.1767 -1.7312
  318TIP3    H2  896   3.449   6.324   6.281  0.3308  1.3551 -1.0938
  319TIP3   OH2  897   3.257   6.489   2.368 -0.2183 -0.6190 -0.3866
  319TIP3    H1  898   3.285   6.576   2.339 -0.6082 -1.1653 -2.5410
  319TIP3    H2  899   3.162   6.497   2.377 -0.1758 -0.6447  0.1282
  320TIP3   OH2  900   7.666   2.625   3.154  0.4803  0.4460 -0.6562
  320TIP3    H1  901   7.666   2.613   3.249  2.6000  0.0995 -0.6544
  320TIP3    H2  902   7.577   2.603   3.128  0.2420 -0.8969  1.0828
  321TIP3   OH2  903   6.586   7.406   3.206 -0.5360  0.1586 -0.1629
  321TIP3    H1  904   6.677   7.419   3.234 -0.6481  1.1121 -0.2010
  321TIP3    H2  905   6.591   7.337   3.140  0.1051 -0.0711  0.1118
  322TIP3   OH2  906   5.644   1.029   2.566 -0.0646  0.2264  0.2493
  322TIP3    H1  907   5.613   0.982   2.643 -0.0493 -0.7679 -0.3427
  322TIP3    H2  908   5.728   0.988   2.545 -0.7898 -0.5903 -1.2145
  323TIP3   OH2  909   2.134   5.238   3.888  0.1071 -0.4629  0.2778
  323TIP3    H1  910   2.146   5.308   3.824 -0.1661 -0.3324  0.3666
  323TIP3    H2  911   2.064   5.270   3.946 -2.1207 -2.0147 -1.3962
  324TIP3   OH2  912   7.940   5.170   0.722 -0.1559 -0.1166  0.1015
  324TIP3    H1  913   7.882   5.154   0.647 -1.2638 -0.2978  0.9581
  324TIP3    H2  914   7.901   5.118   0.792 -0.8649  2.3065  1.6038
  325TIP3   OH2  915   0.604   6.966   4.593  0.0088 -0.0686  0.4962
  325TIP3    H1  916   0.536   7.031   4.575 -0.0573 -0.1993  0.2669
  325TIP3    H2  917   0.677   6.992   4.537 -0.2916 -0.6290 -0.1712
  326TIP3   OH2  918   6.750   3.458   4.978 -0.4723 -0.0941  0.3693
  326TIP3    H1  919   6.677   3.419   5.026 -0.3204 -1.8232 -0.7405
  326TIP3    H2  920   6.824   3.401   4.994  0.2517  0.7735  0.2007
  327TIP3   OH2  921   4.826   5.136   6.207 -0.0217 -0.0970  0.0061
  327TIP3    H1  922   4.800   5.168   6.294 -0.9534 -3.8257  1.3006
  327TIP3    H2  923   4.881   5.060   6.226 -0.8083 -1.4282 -2.6403
  328TIP3   OH2  924   4.860   7.478   3.499 -0.5640  0.0643  0.6865
  328TIP3    H1  925   4.921   7.406   3.511 -0.2273  0.3529  0.7275
  328TIP3    H2  926   4.777   7.436   3.475 -0.1773 -0.2877 -0.0571
  329TIP3   OH2  927   5.177   4.566   6.200  0.4402 -0.0096 -0.3252
  329TIP3    H1  928   5.168   4.555   6.105 -0.9332  1.1945 -0.3709
  329TIP3    H2  929   5.088   4.557   6.234  0.9663 -0.7829  0.9099
  330TIP3   OH2  930   3.025   6.064   4.722  0.4050 -0.0326 -0.1502
  330TIP3    H1  931   3.017   6.158   4.737 -0.0291 -0.0996  0.0332
  330TIP3    H2  932   3.048   6.028   4.807  0.6479 -0.0887 -0.2364
  331TIP3   OH2  933   2.179   6.746   0.326 -0.4079  0.4929 -0.4210
  331TIP3    H1  934   2.139   6.696   0.255 -0.0704  1.8380 -1.6248
  331TIP3    H2  935   2.231   6.813   0.281 -2.0366  2.8807  1.0573
  332TIP3   OH2  936   2.602   7.652   3.006  0.1227  0.1715  0.1900
  332TIP3    H1  937   2.640   7.636   3.093  2.3715  0.7934 -0.6134
  332TIP3    H2  938   2.520   7.697   3.024  0.6754  0.5516  2.0046
  333TIP3   OH2  939   3.487   7.190   2.558  0.3823 -0.3457 -0.4413
  333TIP3    H1  940   3.416   7.144   2.513  0.9684 -2.2876  0.5208
  333TIP3    H2  941   3.549   7.212   2.489 -0.1254 -0.5970 -0.9870
  334TIP3   OH2  942   1.094   6.771   0.414  0.1060  0.0499 -0.1806
  334TIP3    H1  943   1.054   6.854   0.387  1.1792  0.2056 -1.3720
  334TIP3    H2  944   1.087   6.715   0.336 -1.1687 -1.2357  0.7904
  335TIP3   OH2  945   4.899   2.765   0.754 -0.8690  0.1706  0.2641
  335TIP3    H1  946   4.864   2.776   0.842 -2.3516 -0.8587 -0.1671
  335TIP3    H2  947   4.958   2.840   0.742 -3.9791  2.8624  0.4920
  336TIP3   OH2  948   3.469   3.051   2.518 -0.3204  0.8501 -0.0146
  336TIP3    H1  949   3.552   3.025   2.557 -1.0299  0.6612  1.4285
  336TIP3    H2  950   3.458   2.992   2.443  0.1930 -0.0415  0.5980
  337TIP3   OH2  951   4.106   1.501   5.731 -0.1671  0.3718  0.1797
  337TIP3    H1  952   4.083   1.594   5.741 -0.4558  0.1565  1.8499
  337TIP3    H2  953   4.186   1.491   5.784  0.3298 -0.1670 -0.6572
  338TIP3   OH2  954   1.536   6.262   3.123  0.3633 -0.0246 -0.2748
  338TIP3    H1  955   1.623   6.302   3.125  0.6488 -0.6682  0.8093
  338TIP3    H2  956   1.510   6.255   3.215 -0.2388 -1.1084 -0.5141
  339TIP3   OH2  957   1.182   5.287   6.639  0.2435  0.5461  0.0335
  339TIP3    H1  958   1.091   5.297   6.609 -0.5143 -0.7068  1.7753
  339TIP3    H2  959   1.235   5.309   6.562 -1.5667 -0.6174 -1.6357
  340TIP3   OH2  960   7.927   4.277   0.141  0.1229  0.3218  0.2780
  340TIP3    H1  961   7.921   4.372   0.127  0.4762  0.3136  0.0679
  340TIP3    H2  962   7.980   4.245   0.068 -1.0497 -0.2215 -0.3845
  341TIP3   OH2  963   1.125   7.860   6.064  0.3911 -0.6625 -0.5071
  341TIP3    H1  964   1.059   7.921   6.031  1.2033 -0.2721 -1.4740
  341TIP3    H2  965   1.207   7.910   6.060  0.6651 -0.9063  1.2986
  342TIP3   OH2  966   5.631   7.600   0.273 -0.0650  0.6093 -0.2585
  342TIP3    H1  967   5.709   7.554   0.243 -0.6839 -0.4306 -0.3262
  342TIP3    H2  968   5.636   7.686   0.232  0.5906  0.2413 -0.9696
  343TIP3   OH2  969   6.976   0.582   1.726 -0.0971 -0.0820 -0.2441
  343TIP3    H1  970   6.887   0.616   1.718 -0.0252  0.1601  0.0044
  343TIP3    H2  971   6.964   0.492   1.757 -0.2416  0.0402  0.0501
  344TIP3   OH2  972   1.012   4.612   4.085 -0.5117 -0.1317  0.0242
  344TIP3    H1  973   0.974   4.692   4.123 -1.1278 -0.6896  0.6064
  344TIP3    H2  974   1.087   4.593   4.142 -0.8279 -0.3985  0.3550
  345TIP3   OH2  975   1.745   0.111   1.974 -0.2228 -0.7155  0.1285
  345TIP3    H1  976   1.670   0.125   2.031 -1.1910 -2.3455 -0.6811
  345TIP3    H2  977   1.709   0.111   1.885  1.1349  0.9638 -0.5052
  346TIP3   OH2  978   6.421   6.223   2.737 -0.0519 -0.0224  0.2191
  346TIP3    H1  979   6.480   6.147   2.738  2.0274  1.5080 -0.3361
  346TIP3    H2  980   6.345   6.194   2.788  0.2740 -2.7425 -0.6444
  347TIP3   OH2  981   8.259   4.075   3.645  0.7082  0.4495  0.0904
  347TIP3    H1  982   8.224   4.040   3.727 -0.2342 -0.1696 -0.5594
  347TIP3    H2  983   8.182   4.109   3.599  1.0567 -0.2514 -1.0447
  348TIP3   OH2  984   8.023   6.464   0.234 -0.0172  0.5193 -0.8103
  348TIP3    H1  985   7.947   6.513   0.265 -0.7851 -1.1158 -0.0065
  348TIP3    H2  986   8.096   6.497   0.288 -0.7269  0.0271  0.5014
  349TIP3   OH2  987   7.121   7.207   1.275 -0.5734  0.0873 -0.1764
  349TIP3    H1  988   7.133   7.232   1.183 -1.5556 -0.1472 -0.3804
  349TIP3    H2  989   7.196   7.245   1.320 -1.0755  1.8747 -0.7610
  350TIP3   OH2  990   2.342   4.663   3.505 -0.2453 -0.4754 -0.2793
  350TIP3    H1  991   2.386   4.661   3.590  0.6300  0.6112 -0.6834
  350TIP3    H2  992   2.394   4.605   3.450 -0.0857 -0.2221 -0.3980
  351TIP3   OH2  993   8.220   5.814   1.931  0.1316 -0.3389  0.4708
  351TIP3    H1  994   8.274   5.844   1.857 -1.0860 -0.6396 -0.5716
  351TIP3    H2  995   8.229   5.719   1.930  0.7494 -0.2969  1.2313
  352TIP3   OH2  996   1.811   2.443   0.100 -0.0120  0.3871  0.3067
  352TIP3    H1  997   1.861   2.477   0.175 -1.1426  1.0795  0.7605
  352TIP3    H2  998   1.770   2.520   0.062 -1.0134 -0.2181  0.1505
  353TIP3   OH2  999   2.808   2.362   6.812 -0.0854 -0.7350 -0.2042
  353TIP3    H1 1000   2.897   2.333   6.793  0.1760 -0.7729  1.0244
  353TIP3    H2 1001   2.799   2.352   6.907 -0.9260  0.5705 -0.1202
  354TIP3   OH2 1002   1.428   2.623   3.381  0.1347  0.2289 -0.2486
  354TIP3    H1 1003   1.369   2.646   3.309  0.0591  0.6320 -0.0605
  354TIP3    H2 1004   1.515   2.620   3.342 -0.0213 -0.4530 -0.5459
  355TIP3   OH2 1005   3.421   7.134   5.213 -0.2958  0.2996 -0.8266
  355TIP3    H1 1006   3.440   7.065   5.149  0.7910 -0.3075  0.1132
  355TIP3    H2 1007   3.502   7.183   5.221 -0.9232  1.4056 -1.1233
  356TIP3   OH2 1008   1.360   7.915   3.764 -0.4488 -0.5525  0.0029
  356TIP3    H1 1009   1.299   7.855   3.806  1.3479 -2.5419 -0.0940
  356TIP3    H2 1010   1.319   7.938   3.681 -0.9847 -1.9894 -0.1414
  357TIP3   OH2 1011   6.531   6.520   0.343  0.6842 -0.9818 -0.0401
  357TIP3    H1 1012   6.568   6.466   0.413 -3.2720 -1.8444  1.6491
  357TIP3    H2 1013   6.503   6.600   0.387 -1.7025 -1.4683 -0.5580
  358TIP3   OH2 1014   8.409   6.312   1.393  0.1555  0.1458  0.0954
  358TIP3    H1 1015   8.371   6.400   1.402 -1.4239 -0.2845 -1.7724
  358TIP3    H2 1016   8.367   6.261   1.462 -1.3656  0.1283 -0.7927
  359TIP3   OH2 1017   3.306   3.726   2.490  0.5531 -0.2662 -0.0974
  359TIP3    H1 1018   3.257   3.783   2.550  0.0099  0.8377 -1.5164
  359TIP3    H2 1019   3.376   3.782   2.455  0.0057 -0.4058 -1.5182
  360TIP3   OH2 1020   5.251   7.631   0.229 -0.0883  0.2045 -0.1879
  360TIP3    H1 1021   5.226   7.665   0.143 -0.0893  2.0239  0.4859
  360TIP3    H2 1022   5.169   7.630   0.278 -0.0163 -0.4450 -0.0809
  361TIP3   OH2 1023   3.920   2.807   4.311 -0.6364 -0.0062 -0.2996
  361TIP3    H1 1024   3.938   2.771   4.224  0.4840 -1.0565  0.3374
  361TIP3    H2 1025   3.965   2.747   4.371  1.7997  2.7320  0.8207
  362TIP3   OH2 1026   1.988   4.795   0.355 -0.5508 -0.3993 -0.5800
  362TIP3    H1 1027   1.961   4.709   0.389 -1.7690  0.3039  0.3336
  362TIP3    H2 1028   1.980   4.786   0.260  0.6024 -1.6746 -0.5964
  363TIP3   OH2 1029   1.892   6.476   1.945 -0.1984  0.0734  0.6340
  363TIP3    H1 1030   1.894   6.457   2.039  0.7529  1.2654  0.8754
  363TIP3    H2 1031   1.843   6.557   1.937  2.0425  1.5113  0.4429
  364TIP3   OH2 1032   0.348   7.812   3.001 -0.1355  0.7937 -0.0417
  364TIP3    H1 1033   0.408   7.740   2.981  1.0696  1.8059 -0.1952
  364TIP3    H2 1034   0.319   7.796   3.091  1.5657  1.0901  0.5845
  365TIP3   OH2 1035   4.102   6.262   0.080 -0.7402  0.0526 -0.1679
  365TIP3    H1 1036   4.155   6.198   0.128 -1.2355 -1.0363 -1.0166
  365TIP3    H2 1037   4.022   6.270   0.131 -1.6842 -1.8453 -1.2254
  366TIP3   OH2 1038   8.048   2.924   1.037  0.2700  0.4114  0.2450
  366TIP3    H1 1039   8.036   2.881   0.952 -0.3606  0.5898  0.2415
  366TIP3    H2 1040   8.137   2.901   1.062 -0.0664 -0.9419  0.2767
  367TIP3   OH2 1041   4.895   5.503   4.971  0.2422  0.3831  0.1416
  367TIP3    H1 1042   4.820   5.557   4.947  0.1782 -0.0254 -0.6400
  367TIP3    H2 1043   4.930   5.543   5.051 -0.7291  0.6439  0.4438
  368TIP3   OH2 1044   6.893   1.058   6.776  0.4785  0.3725  0.5530
  368TIP3    H1 1045   6.854   1.006   6.846  1.1985 -0.8309  0.0868
  368TIP3    H2 1046   6.869   1.012   6.695  0.8922  0.9278  0.1032
  369TIP3   OH2 1047   2.240   4.467   1.770 -0.1936  0.2020  0.5352
  369TIP3    H1 1048   2.196   4.465   1.685 -0.4661 -1.2798  0.6786
  369TIP3    H2 1049   2.258   4.375   1.790 -0.4202  0.4824  2.2148
  370TIP3   OH2 1050   1.509   5.384   4.208  0.1815 -0.0577  0.2642
  370TIP3    H1 1051   1.510   5.460   4.267  1.4655  0.8193 -0.8157
  370TIP3    H2 1052   1.474   5.313   4.262  0.0346  1.0184  1.6677
  371TIP3   OH2 1053   0.051   1.593   3.966  0.7092 -0.3272  0.1158
  371TIP3    H1 1054   0.018   1.668   3.918  2.3718 -0.9637 -2.1799
  371TIP3    H2 1055   0.018   1.605   4.055  2.1537  3.9135  0.3086
  372TIP3   OH2 1056   7.544   0.155   2.707  0.5131 -0.1803 -0.2834
  372TIP3    H1 1057   7.613   0.101   2.745 -0.9604 -1.3939  0.8169
  372TIP3    H2 1058   7.583   0.242   2.699  2.2765 -0.9237 -0.0905
  373TIP3   OH2 1059   6.989   0.425   4.112  0.4962  0.0692  0.0159
  373TIP3    H1 1060   6.901   0.440   4.077  0.9514  0.3485 -1.0622
  373TIP3    H2 1061   6.997   0.487   4.185 -0.3019 -0.1587  0.3012
  374TIP3   OH2 1062   7.887   5.324   6.389  0.2551 -0.3498 -0.1583
  374TIP3    H1 1063   7.980   5.310   6.404  0.2021  0.0580  0.6469
  374TIP3    H2 1064   7.869   5.408   6.432 -0.0933  0.5208 -1.9404
  375TIP3   OH2 1065   2.470   4.222   3.887 -0.4842 -0.2206  0.1655
  375TIP3    H1 1066   2.474   4.127   3.881  1.2594 -0.1155 -0.7331
  375TIP3    H2 1067   2.559   4.252   3.870 -0.8326  1.5561  1.1379
  376TIP3   OH2 1068   2.269   2.584   2.833 -0.3398  0.1888 -0.0097
  376TIP3    H1 1069   2.186   2.594   2.786 -0.9781  2.2344  1.3904
  376TIP3    H2 1070   2.244   2.553   2.920  0.1699  1.9614  0.8222
  377TIP3   OH2 1071   5.071   6.614   5.227  0.4674  0.0964 -0.1731
  377TIP3    H1 1072   5.143   6.564   5.188  0.5877 -0.3804  0.6398
  377TIP3    H2 1073   4.992   6.580   5.186  0.2650 -2.6920  2.2146
  378TIP3   OH2 1074   0.035   1.610   4.654  0.3473 -0.0433  0.0929
  378TIP3    H1 1075   0.053   1.534   4.710 -0.6808 -0.4597 -0.1338
  378TIP3    H2 1076  -0.031   1.580   4.592  0.8814  0.6593 -0.8424
  379TIP3   OH2 1077   6.018   5.431   5.174  0.0545 -0.3120  0.2126
  379TIP3    H1 1078   5.946   5.433   5.111  0.3285  1.4884 -0.0834
  379TIP3    H2 1079   5.976   5.448   5.258 -0.1770 -1.7816  0.4308
  380TIP3   OH2 1080   6.931   0.760   3.505  0.3894 -0.1877  0.7240
  380TIP3    H1 1081   6.935   0.773   3.600  1.2406  2.4438  0.4132
  380TIP3    H2 1082   6.874   0.830   3.473  1.0192 -0.3279 -0.7990
  381TIP3   OH2 1083   5.302   2.552   5.756  0.1191 -0.1478 -0.0048
  381TIP3    H1 1084   5.266   2.487   5.696  0.3848 -0.5068  0.2216
  381TIP3    H2 1085   5.281   2.519   5.843 -1.3218  0.9694  0.1038
  382TIP3   OH2 1086   4.049   4.536   5.551 -0.3607 -0.1573 -0.1044
  382TIP3    H1 1087   4.025   4.443   5.554 -1.4360  0.1106  0.2000
  382TIP3    H2 1088   4.045   4.563   5.643  1.0946 -0.0742 -0.0500
  383TIP3   OH2 1089   2.079   5.123   0.058  0.1610  0.0262  0.1626
  383TIP3    H1 1090   2.158   5.162   0.096  0.4908 -1.2168  0.8012
  383TIP3    H2 1091   2.032   5.087   0.132 -0.3355 -0.4331 -0.3666
  384TIP3   OH2 1092   5.721   5.775   5.527 -0.5141  0.0430  0.4593
  384TIP3    H1 1093   5.736   5.692   5.573  0.3050 -0.9594 -1.4855
  384TIP3    H2 1094   5.798   5.828   5.546  0.4786 -0.8910 -0.7487
  385TIP3   OH2 1095   5.238   7.067   2.789 -0.0837  0.0276  0.0300
  385TIP3    H1 1096   5.270   7.152   2.820 -0.9674  0.2578  0.3300
  385TIP3    H2 1097   5.251   7.008   2.864  2.2310 -0.5780 -0.7528
  386TIP3   OH2 1098   5.803   1.787   1.129  0.2535  0.1359 -0.1004
  386TIP3    H1 1099   5.793   1.750   1.041  1.9322 -1.2613  0.2295
  386TIP3    H2 1100   5.714   1.810   1.156 -0.4087 -0.3023 -1.7800
  387TIP3   OH2 1101   1.581   3.513   6.419 -0.2399  0.1977  0.3682
  387TIP3    H1 1102   1.646   3.549   6.480  0.4610 -0.2294 -0.1158
  387TIP3    H2 1103   1.499   3.557   6.443 -0.2480 -0.8210  2.3981
  388TIP3   OH2 1104   1.224   7.110   0.622 -0.1259  0.3948  0.1495
  388TIP3    H1 1105   1.204   7.039   0.684  0.7977  0.2736  0.3170
  388TIP3    H2 1106   1.305   7.148   0.655  0.6420  0.0224 -1.2592
  389TIP3   OH2 1107   2.545   4.270   4.392 -0.1710  0.1589  0.8620
  389TIP3    H1 1108   2.590   4.355   4.396 -1.7581  1.1219 -0.3012
  389TIP3    H2 1109   2.594   4.214   4.452  0.8921  1.9104  1.7281
  390TIP3   OH2 1110   3.907   6.152   2.263 -0.0151  0.8527 -0.2945
  390TIP3    H1 1111   3.995   6.119   2.244 -0.9220 -1.0178 -1.6443
  390TIP3    H2 1112   3.900   6.148   2.358  2.2736  3.7834  0.1531
  391TIP3   OH2 1113   5.894   7.270   5.332 -0.0556 -0.4936 -0.8476
  391TIP3    H1 1114   5.890   7.364   5.350  1.3178 -0.5537 -0.0848
  391TIP3    H2 1115   5.817   7.234   5.376  0.4469  0.0475  0.5300
  392TIP3   OH2 1116   0.649   4.378   3.430  0.1503  0.5183 -0.4559
  392TIP3    H1 1117   0.561   4.356   3.397  0.4270  0.9743 -1.5211
  392TIP3    H2 1118   0.696   4.412   3.354  1.3381  0.0584  0.0431
  393TIP3   OH2 1119   7.490   3.150   0.820 -0.3667  0.0694  0.1350
  393TIP3    H1 1120   7.432   3.077   0.844 -1.7504  1.1880  0.3470
  393TIP3    H2 1121   7.543   3.165   0.898 -0.7376 -0.0996  0.4246
  394TIP3   OH2 1122   4.718   3.283   2.812 -0.0442  0.5790  0.3399
  394TIP3    H1 1123   4.746   3.275   2.904 -1.3458 -0.9797  0.6512
  394TIP3    H2 1124   4.652   3.215   2.801  0.5129  0.3172 -1.9462
  395TIP3   OH2 1125   5.084   1.192   5.701  0.6514  0.1242  0.0659
  395TIP3    H1 1126   5.101   1.241   5.621  0.7248 -1.5945 -1.0270
  395TIP3    H2 1127   5.163   1.139   5.714 -0.2345 -1.2641 -0.0020
  396TIP3   OH2 1128   0.056   5.182   5.792  0.2370 -0.2923  0.4017
  396TIP3    H1 1129   0.067   5.146   5.880  1.3085 -0.6922  0.1095
  396TIP3    H2 1130   0.024   5.271   5.807 -2.4329 -1.2552  1.1358
  397TIP3   OH2 1131   2.400   3.893   3.603  0.4460  0.3093 -0.3228
  397TIP3    H1 1132   2.305   3.904   3.609  0.1735 -1.4647 -0.7658
  397TIP3    H2 1133   2.427   3.952   3.533  0.1834  3.2375  1.8877
  398TIP3   OH2 1134   8.214   1.026   0.440  0.0086 -0.3705 -0.0732
  398TIP3    H1 1135   8.251   1.108   0.472  0.0062 -0.8727  1.2791
  398TIP3    H2 1136   8.142   1.053   0.383  0.5465  0.5705 -0.3316
  399TIP3   OH2 1137   5.946   7.730   4.898 -0.5983  0.5564  0.7413
  399TIP3    H1 1138   5.889   7.664   4.859  2.0309 -2.0874  1.0132
  399TIP3    H2 1139   5.945   7.711   4.992  1.2329 -0.1104  0.6756
  400TIP3   OH2 1140   0.365   7.352   4.072 -0.5989 -0.0719 -0.6350
  400TIP3    H1 1141   0.444   7.354   4.018  0.4784 -2.1307  0.6971
  400TIP3    H2 1142   0.331   7.263   4.060 -1.3760  0.0416  0.5911
  401TIP3   OH2 1143   4.954   5.557   1.218  0.5585 -0.0084  0.1999
  401TIP3    H1 1144   5.026   5.520   1.269  0.6360  0.0902  0.1621
  401TIP3    H2 1145   4.876   5.545   1.273  0.4650 -0.8642 -0.1094
  402TIP3   OH2 1146   7.283   2.232   1.987 -0.0492 -0.6002  0.1856
  402TIP3    H1 1147   7.336   2.295   2.037  1.3857 -1.1024 -0.6381
  402TIP3    H2 1148   7.196   2.272   1.982  0.5453  0.8079  0.5900
  403TIP3   OH2 1149   8.099   3.499   0.701 -0.4592  0.0901 -0.3158
  403TIP3    H1 1150   8.116   3.519   0.609 -0.9844  0.2170 -0.3866
  403TIP3    H2 1151   8.069   3.581   0.739  2.2053  0.7454  0.5960
  404TIP3   OH2 1152   3.905   7.373   0.931  0.1266  0.5705  0.4676
  404TIP3    H1 1153   3.902   7.461   0.893 -0.2562 -0.2254 -1.4473
  404TIP3    H2 1154   3.814   7.345   0.933  0.3273 -0.1025  0.2800
  405TIP3   OH2 1155   0.289   4.675   5.732 -0.6915  0.8042 -0.2449
  405TIP3    H1 1156   0.354   4.625   5.683 -0.3680  0.7306  0.2625
  405TIP3    H2 1157   0.337   4.751   5.766 -1.0239  1.1027 -0.4266
  406TIP3   OH2 1158   2.827   4.786   6.595 -0.4565  0.4302  0.0267
  406TIP3    H1 1159   2.861   4.746   6.675 -2.3649 -0.7932  0.2854
  406TIP3    H2 1160   2.740   4.817   6.618  0.0146  2.6033 -0.8632
  407TIP3   OH2 1161   6.081   0.570   3.731  0.2730  0.0856 -0.6241
  407TIP3    H1 1162   6.127   0.524   3.660 -0.5167  0.4672 -1.4101
  407TIP3    H2 1163   6.017   0.507   3.762  2.3522 -1.0753  1.6329
  408TIP3   OH2 1164   3.605   6.909   5.549  0.2635 -0.2162 -0.2010
  408TIP3    H1 1165   3.640   6.996   5.531  0.6070  0.4101  2.9100
  408TIP3    H2 1166   3.629   6.857   5.472  2.0406  1.8874 -1.1731
  409TIP3   OH2 1167   7.279   6.495   6.197 -0.0794 -0.0522  0.3892
  409TIP3    H1 1168   7.326   6.572   6.229 -1.0940  0.9619 -0.4591
  409TIP3    H2 1169   7.300   6.491   6.104 -1.3059  0.1960  0.0735
  410TIP3   OH2 1170   3.859   7.744   2.483  0.2760 -0.0069  0.3829
  410TIP3    H1 1171   3.819   7.672   2.531  0.1670 -0.4316 -0.3416
  410TIP3    H2 1172   3.786   7.790   2.443  0.2059  1.3623  1.9712
  411TIP3   OH2 1173   4.986   3.293   5.877  0.0942  0.3224  0.0970
  411TIP3    H1 1174   5.017   3.383   5.893 -1.3660  0.9172 -0.3012
  411TIP3    H2 1175   4.892   3.302   5.863 -0.3525 -1.4689  1.5962
  412TIP3   OH2 1176   2.830   5.554   3.905  0.3126 -0.6446 -0.3932
  412TIP3    H1 1177   2.884   5.529   3.830  2.0939 -0.4760  0.7758
  412TIP3    H2 1178   2.855   5.492   3.974  1.0372  1.0989  0.9860
  413TIP3   OH2 1179   1.888   7.241   3.127 -1.0669  0.4486 -0.0986
  413TIP3    H1 1180   1.908   7.154   3.092 -1.5599  0.4667 -0.4360
  413TIP3    H2 1181   1.793   7.241   3.138 -0.8620  0.1127  2.1263
  414TIP3   OH2 1182   6.471   1.680   6.418  0.6754 -0.1561  0.1780
  414TIP3    H1 1183   6.396   1.711   6.366  0.4981  0.0921  0.5775
  414TIP3    H2 1184   6.547   1.707   6.367  0.5210  0.8467  0.4457
  415TIP3   OH2 1185   6.011   3.455   6.198  0.0685  0.4999  0.6006
  415TIP3    H1 1186   5.934   3.402   6.178  0.2974 -0.4218  2.0336
  415TIP3    H2 1187   6.058   3.462   6.115 -0.8369 -0.0983  0.0208
  416TIP3   OH2 1188   3.420   1.505   6.661 -0.1431  0.4086  0.1128
  416TIP3    H1 1189   3.326   1.508   6.645 -0.0866 -0.0430 -0.3573
  416TIP3    H2 1190   3.459   1.500   6.573  0.2305 -1.2583  0.3332
  417TIP3   OH2 1191   4.172   6.072   2.202 -0.0368 -0.3815  0.1569
  417TIP3    H1 1192   4.200   5.982   2.186 -0.9890 -0.4424 -1.3700
  417TIP3    H2 1193   4.253   6.123   2.200  0.4644 -1.1465  0.6090
  418TIP3   OH2 1194   5.052   2.806   3.920 -0.7127 -0.4578 -0.1543
  418TIP3    H1 1195   4.968   2.853   3.918 -0.2781  0.4148 -3.3169
  418TIP3    H2 1196   5.090   2.821   3.833  2.5187 -1.2434  0.9873
  419TIP3   OH2 1197   5.348   7.513   6.043 -0.5221  0.0632  0.0005
  419TIP3    H1 1198   5.315   7.505   6.132 -0.0918 -0.8637  0.0937
  419TIP3    H2 1199   5.332   7.604   6.019  1.6889  1.0857  1.9688
  420TIP3   OH2 1200   0.222   4.579   6.672 -0.2493  0.0781 -0.0004
  420TIP3    H1 1201   0.262   4.627   6.600  0.8509  1.7338  1.6085
  420TIP3    H2 1202   0.294   4.566   6.734 -1.2358 -0.9563  0.9684
  421TIP3   OH2 1203   1.126   3.903   2.085 -0.1912  0.1666 -0.0324
  421TIP3    H1 1204   1.054   3.952   2.126 -0.0921  0.5256 -0.2843
  421TIP3    H2 1205   1.151   3.839   2.152 -2.6122 -1.9258 -0.9549
  422TIP3   OH2 1206   4.850   6.384   3.688  0.1207 -0.0495  0.3211
  422TIP3    H1 1207   4.892   6.470   3.692 -1.6796  0.9111 -0.0077
  422TIP3    H2 1208   4.791   6.382   3.763  1.2254 -1.6582  1.2017
  423TIP3   OH2 1209   0.109   3.993   1.918 -0.3667 -0.1221  0.2668
  423TIP3    H1 1210   0.125   3.987   2.013  0.2590 -0.5029  0.1424
  423TIP3    H2 1211   0.122   4.086   1.898  0.6656 -0.2329  0.3650
  424TIP3   OH2 1212   7.988   4.562   6.525  0.4466  0.0809 -0.4623
  424TIP3    H1 1213   8.042   4.483   6.528  0.9619  0.4562  0.3544
  424TIP3    H2 1214   8.040   4.629   6.569 -0.4819  0.5785 -0.0939
  425TIP3   OH2 1215   1.812   6.289   0.570  0.2330  0.0654 -0.1020
  425TIP3    H1 1216   1.811   6.376   0.531  0.7018  1.0524  1.9594
  425TIP3    H2 1217   1.898   6.253   0.546 -0.2622 -0.1776 -1.6029
  426TIP3   OH2 1218   5.576   6.510   0.866 -0.2405  0.1387 -0.5809
  426TIP3    H1 1219   5.627   6.576   0.914 -1.8880 -0.0744  1.6394
  426TIP3    H2 1220   5.642   6.450   0.832  1.1525 -0.9625  3.3971
  427TIP3   OH2 1221   8.390   4.611   3.717 -0.3486  0.1483  0.4444
  427TIP3    H1 1222   8.315   4.596   3.774 -0.6500 -1.9226 -0.4195
  427TIP3    H2 1223   8.400   4.530   3.668  1.4895  0.9441 -0.6132
  428TIP3   OH2 1224   2.637   2.657   0.324  0.3224 -0.1842 -0.9328
  428TIP3    H1 1225   2.648   2.569   0.361 -0.0936 -0.7140 -2.0136
  428TIP3    H2 1226   2.698   2.712   0.374  1.5886 -1.3417 -1.1450
  429TIP3   OH2 1227   3.511   6.740   5.951  0.0294  0.4394 -0.1921
  429TIP3    H1 1228   3.530   6.808   6.016  0.6689  2.0254 -1.9357
  429TIP3    H2 1229   3.416   6.735   5.949 -0.0064 -0.8628  2.0116
  430TIP3   OH2 1230   7.824   2.160   1.593 -0.2067  0.5250  0.0250
  430TIP3    H1 1231   7.816   2.254   1.611 -1.4883  0.3063  0.6919
  430TIP3    H2 1232   7.811   2.153   1.498 -2.7800  0.8166  0.2689
  431TIP3   OH2 1233   2.430   4.696   5.701  0.1433  0.1500  0.2951
  431TIP3    H1 1234   2.514   4.708   5.745  0.3390  2.7912 -0.6069
  431TIP3    H2 1235   2.451   4.650   5.620  0.9893  1.8974 -0.5320
  432TIP3   OH2 1236   1.050   7.879   6.700  0.3472 -0.4018  0.3592
  432TIP3    H1 1237   0.982   7.928   6.746 -0.7686 -2.9219  1.5841
  432TIP3    H2 1238   1.130   7.898   6.748  0.4515  1.9807 -0.6192
  433TIP3   OH2 1239   2.062   2.988   6.296 -0.0316  0.7104 -0.4719
  433TIP3    H1 1240   2.005   3.035   6.236 -1.1808  0.5442  0.4495
  433TIP3    H2 1241   2.004   2.957   6.366  0.9232 -0.8000 -0.2836
  434TIP3   OH2 1242   3.905   7.669   5.480 -0.4893  0.3651  0.5442
  434TIP3    H1 1243   3.876   7.644   5.568  1.9903 -0.3802  1.2340
  434TIP3    H2 1244   3.921   7.763   5.486 -1.5625  0.5698  0.4701
  435TIP3   OH2 1245   1.546   6.431   5.242  0.6531 -0.0896 -0.3669
  435TIP3    H1 1246   1.587   6.491   5.303 -0.8670 -1.9449  2.7031
  435TIP3    H2 1247   1.613   6.366   5.222  1.4301  1.0157 -1.4677
  436TIP3   OH2 1248   5.470   7.030   6.402 -0.3474  0.2473 -0.8238
  436TIP3    H1 1249   5.447   7.012   6.311  0.0054  0.4212 -0.9492
  436TIP3    H2 1250   5.468   7.126   6.408 -1.3643  0.2080 -0.3866
  437TIP3   OH2 1251   1.859   7.426   0.226  0.1694 -0.0119  0.0628
  437TIP3    H1 1252   1.792   7.360   0.245 -0.5362  0.8311  0.6035
  437TIP3    H2 1253   1.913   7.427   0.305 -0.5382  0.8807  0.5517
  438TIP3   OH2 1254   4.852   2.928   3.446 -0.3887  0.5378  0.0748
  438TIP3    H1 1255   4.780   2.901   3.389 -0.9355  1.2440  0.4091
  438TIP3    H2 1256   4.931   2.912   3.395 -0.6971 -1.3419  0.1352
  439TIP3   OH2 1257   8.426   7.593   4.770  0.1652  0.2170 -0.2024
  439TIP3    H1 1258   8.426   7.590   4.674 -1.2806 -0.8556 -0.2026
  439TIP3    H2 1259   8.343   7.553   4.795 -0.8368  3.0233  1.4522
  440TIP3   OH2 1260   8.092   5.175   2.087 -0.3847 -0.2775 -0.0666
  440TIP3    H1 1261   8.024   5.200   2.024 -0.4746 -0.5533 -0.0816
  440TIP3    H2 1262   8.174   5.204   2.047 -0.2411 -2.0676 -1.1864
  441TIP3   OH2 1263   4.728   2.802   2.889 -0.5364 -0.8041 -0.0312
  441TIP3    H1 1264   4.805   2.825   2.942 -0.2125  0.0851 -0.8479
  441TIP3    H2 1265   4.759   2.734   2.830 -0.1501  0.0540 -0.8477
  442TIP3   OH2 1266   1.356   6.696   1.582  0.4761 -0.1488 -0.4337
  442TIP3    H1 1267   1.334   6.786   1.558 -1.2825 -0.6144 -0.6966
  442TIP3    H2 1268   1.385   6.656   1.500  1.0240  0.1079 -0.3668
  443TIP3   OH2 1269   1.958   4.566   2.889 -0.1805  0.6217 -0.4671
  443TIP3    H1 1270   1.876   4.574   2.840 -0.0698  0.9505 -0.5997
  443TIP3    H2 1271   1.949   4.629   2.961 -1.0493 -1.0417  0.9471
  444TIP3   OH2 1272   2.264   3.234   0.659 -0.9891  0.0037  0.0023
  444TIP3    H1 1273   2.254   3.212   0.566  1.3158  0.9908 -0.5496
  444TIP3    H2 1274   2.334   3.300   0.660 -1.4426  0.5178  2.3903
  445TIP3   OH2 1275   0.898   7.620   0.955 -0.1035  0.1890  0.0653
  445TIP3    H1 1276   0.835   7.588   0.891 -0.6422  0.6858  0.3406
  445TIP3    H2 1277   0.862   7.593   1.039  1.2207 -1.5564  0.1299
  446TIP3   OH2 1278   4.546   7.466   2.086  0.4481  0.4184 -0.2241
  446TIP3    H1 1279   4.549   7.381   2.130  0.5100 -1.2074 -3.1450
  446TIP3    H2 1280   4.453   7.485   2.077  0.4302  1.2651  1.3945
  447TIP3   OH2 1281   7.208   3.477   4.792 -0.0832  0.4513 -0.9306
  447TIP3    H1 1282   7.253   3.454   4.711 -0.9721 -3.2630 -0.5523
  447TIP3    H2 1283   7.124   3.513   4.764 -0.0291  0.0268 -1.6484
  448TIP3   OH2 1284   6.519   0.555   6.093  0.1361  0.4230  0.0999
  448TIP3    H1 1285   6.612   0.571   6.108  0.2978 -1.2763  1.2168
  448TIP3    H2 1286   6.489   0.512   6.173 -1.3827 -0.0080 -0.6577
  449TIP3   OH2 1287   5.431   4.877   2.146 -0.8225 -0.0415  0.3429
  449TIP3    H1 1288   5.448   4.944   2.212  0.3753 -1.1964  1.2337
  449TIP3    H2 1289   5.502   4.888   2.082  0.2991 -1.4280  1.3022
  450TIP3   OH2 1290   0.916   4.729   3.427 -0.0091 -0.2327 -1.0559
  450TIP3    H1 1291   0.874   4.651   3.464 -1.2549  1.4186  1.3052
  450TIP3    H2 1292   0.965   4.766   3.501  2.3412  0.1182 -2.6920
  451TIP3   OH2 1293   1.942   6.111   5.481  0.0106  0.1059  0.1286
  451TIP3    H1 1294   2.031   6.095   5.448 -0.5497 -1.8430 -0.5799
  451TIP3    H2 1295   1.932   6.050   5.553 -0.4897  0.9075  0.7553
  452TIP3   OH2 1296   1.625   0.318   0.181  0.0932 -0.0151  0.1252
  452TIP3    H1 1297   1.542   0.335   0.137  0.0435 -0.8673 -0.1186
  452TIP3    H2 1298   1.685   0.385   0.147 -0.3184  0.2020 -0.1754
  453TIP3   OH2 1299   7.394   6.754   2.333 -0.1771 -0.5323 -0.4798
  453TIP3    H1 1300   7.409   6.843   2.302 -1.6964 -0.1397 -0.1678
  453TIP3    H2 1301   7.303   6.753   2.361 -0.2727 -2.2628 -0.7196
  454TIP3   OH2 1302   3.869   1.697   2.992  0.3129 -0.2683 -0.2124
  454TIP3    H1 1303   3.874   1.671   2.900  1.1781 -0.5465 -0.1009
  454TIP3    H2 1304   3.798   1.761   2.996  1.6970  1.4100 -1.4776
  455TIP3   OH2 1305   2.597   5.760   2.418 -0.6242 -0.6235  0.0717
  455TIP3    H1 1306   2.688   5.752   2.446 -0.5168 -1.8499 -0.5685
  455TIP3    H2 1307   2.590   5.703   2.341 -1.8330 -0.2409 -0.1269
  456TIP3   OH2 1308   0.801   6.316   4.602  0.1325  0.5890  0.0349
  456TIP3    H1 1309   0.822   6.346   4.690 -1.0317 -0.0684  0.5613
  456TIP3    H2 1310   0.885   6.313   4.556  0.7134  1.1771  1.0431
  457TIP3   OH2 1311   7.470   6.780   2.006  0.3842  0.1626 -0.2351
  457TIP3    H1 1312   7.561   6.810   1.998  0.5921 -0.4885 -0.3188
  457TIP3    H2 1313   7.435   6.831   2.080  0.8288  0.3728 -0.1655
  458TIP3   OH2 1314   6.984   6.519   6.021  0.4248  0.3698 -0.1123
  458TIP3    H1 1315   6.984   6.512   6.117 -1.3804  0.2148 -0.0847
  458TIP3    H2 1316   7.007   6.432   5.991 -0.1680  0.0958  0.2019
  459TIP3   OH2 1317   1.417   4.284   5.022  0.0170  0.1971  0.7966
  459TIP3    H1 1318   1.461   4.301   5.106  0.9378  0.6708  0.2388
  459TIP3    H2 1319   1.378   4.367   4.999 -0.7027 -0.0775  1.0109
  460TIP3   OH2 1320   1.008   7.822   1.257 -0.7342 -0.4782 -0.4332
  460TIP3    H1 1321   0.943   7.808   1.325 -0.4884  0.7847  0.0802
  460TIP3    H2 1322   0.986   7.907   1.219  0.0252 -0.4826 -0.9200
  461TIP3   OH2 1323   1.524   3.093   2.693  0.2059 -0.3469  0.3447
  461TIP3    H1 1324   1.619   3.082   2.689  0.4905  1.3546  1.1919
  461TIP3    H2 1325   1.494   3.081   2.603  1.1000 -1.7157  0.2014
  462TIP3   OH2 1326   2.966   3.675   0.991  0.1606 -0.2173 -0.2808
  462TIP3    H1 1327   2.951   3.581   0.998  0.0092 -0.1368  0.7243
  462TIP3    H2 1328   3.061   3.685   1.003  0.5563 -0.4173 -2.8192
  463TIP3   OH2 1329   0.658   2.331   5.107 -0.1581  0.2046 -0.5389
  463TIP3    H1 1330   0.715   2.262   5.140  1.0319  1.8454  0.9965
  463TIP3    H2 1331   0.715   2.408   5.100 -1.3715  1.0052 -2.4683
  464TIP3   OH2 1332   7.436   5.035   3.515 -0.2149 -0.1699  0.4924
  464TIP3    H1 1333   7.370   5.022   3.583 -1.7974  0.7135 -0.7958
  464TIP3    H2 1334   7.465   5.126   3.526  0.5286 -0.4304  0.7982
  465TIP3   OH2 1335   3.783   0.153   1.177  0.2041 -0.7034  0.2272
  465TIP3    H1 1336   3.776   0.176   1.084  1.5576  1.0921  0.5029
  465TIP3    H2 1337   3.714   0.205   1.219  1.3329  0.6355  0.5011
  466TIP3   OH2 1338   8.060   6.113   1.726 -0.0513 -0.2586  0.1651
  466TIP3    H1 1339   8.028   6.023   1.735 -1.0541  0.0866  0.2205
  466TIP3    H2 1340   7.988   6.167   1.758  0.9450  0.5348  1.1424
  467TIP3   OH2 1341   6.491   4.945   4.655  0.3217 -0.3531 -0.5475
  467TIP3    H1 1342   6.523   4.906   4.736  2.5706  0.4817 -0.9667
  467TIP3    H2 1343   6.410   4.897   4.636  2.1838 -3.9803 -0.3285
  468TIP3   OH2 1344   1.357   3.574   5.272  0.3382  0.0147 -0.0984
  468TIP3    H1 1345   1.385   3.526   5.350  0.4890 -1.3828 -0.9731
  468TIP3    H2 1346   1.263   3.588   5.285  0.9251  3.0288  1.9579
  469TIP3   OH2 1347   2.368   6.679   6.636  0.3801  0.0836  0.4877
  469TIP3    H1 1348   2.407   6.766   6.639  2.1492 -0.7059  2.7087
  469TIP3    H2 1349   2.414   6.635   6.564  1.6835  0.0447  1.3193
  470TIP3   OH2 1350   4.352   2.291   1.050  0.4009  0.0956 -0.6125
  470TIP3    H1 1351   4.312   2.331   0.972  1.3938  1.3812 -0.4986
  470TIP3    H2 1352   4.443   2.318   1.046  0.5548 -0.1438  0.8025
  471TIP3   OH2 1353   5.591   4.079   6.875  0.0492 -0.2034 -0.1844
  471TIP3    H1 1354   5.544   4.061   6.793 -0.4271 -0.7986  0.2080
  471TIP3    H2 1355   5.653   4.149   6.852 -0.5719  0.1415 -0.8756
  472TIP3   OH2 1356   3.399   1.215   0.169  0.1943  0.3825  0.1114
  472TIP3    H1 1357   3.326   1.159   0.144  1.8328 -1.1853 -1.4441
  472TIP3    H2 1358   3.423   1.261   0.089  0.2328  1.7683  0.8761
  473TIP3   OH2 1359   6.943   1.973   0.032 -0.0413  0.1975 -0.2531
  473TIP3    H1 1360   6.962   2.055   0.077 -0.3841  0.2995 -0.2911
  473TIP3    H2 1361   7.024   1.923   0.038 -0.8556 -1.0331  3.0999
  474TIP3   OH2 1362   4.794   4.470   6.067  0.6450 -0.8107  0.9593
  474TIP3    H1 1363   4.711   4.423   6.057  0.8061 -1.1532  1.2323
  474TIP3    H2 1364   4.813   4.503   5.979 -1.1765  1.6406  1.3655
  475TIP3   OH2 1365   2.170   4.252   6.837 -0.0916  0.3483 -0.2856
  475TIP3    H1 1366   2.144   4.319   6.900  0.2604  1.3744 -1.1971
  475TIP3    H2 1367   2.156   4.293   6.751  1.2791 -0.2905 -0.8504
  476TIP3   OH2 1368   7.635   0.839   3.806 -0.2443  0.3207 -0.2142
  476TIP3    H1 1369   7.586   0.828   3.724 -1.1337  0.2951  0.3091
  476TIP3    H2 1370   7.669   0.752   3.826  0.5939  0.4654 -0.9169
  477TIP3   OH2 1371   1.917   2.586   6.330  0.5618  0.0937  0.2148
  477TIP3    H1 1372   1.910   2.556   6.421  0.6237 -0.8182 -0.0738
  477TIP3    H2 1373   1.840   2.641   6.317  1.9917  2.6519  1.6897
  478TIP3   OH2 1374   2.330   3.390   5.308 -0.5421  0.2022  0.1383
  478TIP3    H1 1375   2.254   3.350   5.267 -0.3454 -0.0683  0.0386
  478TIP3    H2 1376   2.324   3.364   5.400 -0.1692 -0.4346 -0.0134
  479TIP3   OH2 1377   4.975   4.567   3.720 -0.0237  0.4094 -0.0080
  479TIP3    H1 1378   4.944   4.490   3.769 -0.5929  0.2301 -0.6344
  479TIP3    H2 1379   5.070   4.559   3.721 -0.0651 -0.0959  0.2614
  480TIP3   OH2 1380   1.166   3.670   1.354 -0.0041 -0.3747 -0.0202
  480TIP3    H1 1381   1.260   3.652   1.351  0.0732 -0.2791  1.2790
  480TIP3    H2 1382   1.160   3.765   1.367 -0.1644 -0.7027  2.9926
  481TIP3   OH2 1383   7.385   3.301   5.319 -0.3478 -0.0284  0.1614
  481TIP3    H1 1384   7.471   3.342   5.306 -0.2360 -0.3524 -0.1473
  481TIP3    H2 1385   7.376   3.240   5.246  0.0878 -1.5940  1.3579
  482TIP3   OH2 1386   4.695   3.379   1.420 -0.4504  0.0286  0.0635
  482TIP3    H1 1387   4.676   3.333   1.502 -2.4740 -0.6220 -0.7157
  482TIP3    H2 1388   4.613   3.423   1.397  0.0840  0.2277 -1.5842
  483TIP3   OH2 1389   7.654   4.595   4.365  0.0925 -0.0023 -0.0002
  483TIP3    H1 1390   7.559   4.588   4.356  0.0557  1.1013 -0.6637
  483TIP3    H2 1391   7.669   4.596   4.460 -0.6423  0.6978  0.1213
  484TIP3   OH2 1392   7.884   5.138   2.964 -0.4270  0.7455 -0.2456
  484TIP3    H1 1393   7.799   5.181   2.951 -1.5041 -0.2781  2.6094
  484TIP3    H2 1394   7.899   5.142   3.059  0.9547 -2.2456 -0.2149
  485TIP3   OH2 1395   0.789   7.814   1.908 -0.4306  0.6006  0.1682
  485TIP3    H1 1396   0.701   7.836   1.937 -0.7337  0.5464 -0.7071
  485TIP3    H2 1397   0.825   7.897   1.875 -0.2965  0.5373  0.1530
  486TIP3   OH2 1398   7.089   6.657   0.914 -1.0762  0.0434 -0.2847
  486TIP3    H1 1399   7.055   6.588   0.970  0.7431 -1.7094 -1.2007
  486TIP3    H2 1400   7.184   6.641   0.910 -0.5345  2.7448 -0.3784
  487TIP3   OH2 1401   2.790   4.999   6.309  0.1678  0.5291  0.0316
  487TIP3    H1 1402   2.741   4.940   6.365  2.3095 -2.3219 -0.8560
  487TIP3    H2 1403   2.830   5.061   6.369 -0.8603  0.1125  1.1875
  488TIP3   OH2 1404   6.113   4.864   0.428  0.1708 -0.7168  0.3691
  488TIP3    H1 1405   6.095   4.787   0.374  0.0522 -0.4777  0.0633
  488TIP3    H2 1406   6.042   4.925   0.407 -0.0148 -0.7115  0.9742
  489TIP3   OH2 1407   4.924   5.499   6.125 -0.9380 -0.1232 -0.1042
  489TIP3    H1 1408   4.983   5.455   6.186 -0.4169 -1.0697 -1.2557
  489TIP3    H2 1409   4.978   5.567   6.085 -2.4440  3.7413  3.7289
  490TIP3   OH2 1410   7.437   1.592   5.013  0.1615  0.0710  0.2618
  490TIP3    H1 1411   7.387   1.572   5.092  0.1530  0.8630  0.4588
  490TIP3    H2 1412   7.526   1.560   5.031 -0.4972 -2.5117 -0.5601
  491TIP3   OH2 1413   4.996   3.754   1.735 -0.2941  0.0218  0.1160
  491TIP3    H1 1414   5.011   3.709   1.652 -0.2910 -0.4796  0.3876
  491TIP3    H2 1415   4.903   3.743   1.752 -0.3236  0.2521  0.1087
  492TIP3   OH2 1416   5.952   0.167   3.140 -0.4277  0.3033  0.0012
  492TIP3    H1 1417   5.944   0.230   3.212  0.3970  0.2539  0.1441
  492TIP3    H2 1418   5.866   0.169   3.097 -0.9643  0.2681  1.0357
  493TIP3   OH2 1419   3.012   6.822   5.485  0.3223  0.2902  0.0212
  493TIP3    H1 1420   2.972   6.735   5.490 -1.8315  1.0627 -1.8343
  493TIP3    H2 1421   3.100   6.806   5.450  0.0649 -1.1526 -0.0275
  494TIP3   OH2 1422   5.288   1.808   3.921 -0.1436  0.6294 -0.2402
  494TIP3    H1 1423   5.357   1.763   3.872 -0.4516  1.4220 -1.4550
  494TIP3    H2 1424   5.209   1.755   3.907  0.0452  0.1208  0.5459
  495TIP3   OH2 1425   0.348   5.342   3.483 -0.1057  0.7807  0.1300
  495TIP3    H1 1426   0.278   5.283   3.512 -0.6728  1.1984 -0.3707
  495TIP3    H2 1427   0.347   5.413   3.546 -0.4139  0.9962 -0.1167
  496TIP3   OH2 1428   6.466   4.112   0.719 -0.2594 -0.3623 -0.1122
  496TIP3    H1 1429   6.505   4.198   0.704  2.0712 -1.4617 -0.8248
  496TIP3    H2 1430   6.491   4.090   0.809 -1.7235  0.0821  0.4342
  497TIP3   OH2 1431   8.041   6.818   1.586 -0.0870  0.5807  0.1125
  497TIP3    H1 1432   8.008   6.902   1.618  1.4631  1.7974 -1.3063
  497TIP3    H2 1433   8.109   6.793   1.649  0.6318  1.2712 -0.3756
  498TIP3   OH2 1434   5.165   5.630   1.497 -0.3092  0.1376  0.8500
  498TIP3    H1 1435   5.224   5.555   1.503 -1.8161 -1.2251 -0.3705
  498TIP3    H2 1436   5.096   5.611   1.561 -0.6687  0.5086  0.5744
  499TIP3   OH2 1437   2.880   4.384   4.111  0.0136 -0.2005  0.1963
  499TIP3    H1 1438   2.809   4.323   4.091 -1.0244  0.7529  0.7849
  499TIP3    H2 1439   2.960   4.333   4.102 -0.8097 -1.6107  0.5571
  500TIP3   OH2 1440   3.719   4.921   4.072 -0.4709 -0.2100  0.2415
  500TIP3    H1 1441   3.666   4.945   3.996 -3.0174 -0.7568  1.7260
  500TIP3    H2 1442   3.713   4.996   4.131  2.3525  0.6496 -0.4200
  501TIP3   OH2 1443   4.710   6.552   1.654  0.5710 -0.0218  0.4388
  501TIP3    H1 1444   4.729   6.484   1.719 -0.3224 -0.1789  0.5560
  501TIP3    H2 1445   4.756   6.629   1.685  1.9924 -0.6788  0.0569
  502TIP3   OH2 1446   6.177   1.690   0.784  0.1088  0.3814 -0.3516
  502TIP3    H1 1447   6.127   1.638   0.721 -0.6628 -0.2172  0.7338
  502TIP3    H2 1448   6.206   1.627   0.850 -0.8701  1.2965  1.0073
  503TIP3   OH2 1449   6.663   3.094   1.686 -0.3698 -0.6151  0.1024
  503TIP3    H1 1450   6.719   3.170   1.694 -0.7866 -0.1704 -0.9413
  503TIP3    H2 1451   6.646   3.065   1.776  0.6347 -0.1123  0.4567
  504TIP3   OH2 1452   6.572   1.495   4.655 -0.1859 -0.5602 -0.2028
  504TIP3    H1 1453   6.587   1.532   4.568  0.8523  0.3957  0.3493
  504TIP3    H2 1454   6.660   1.479   4.689 -0.5877 -1.2048  0.5552
  505TIP3   OH2 1455   6.789   0.873   6.563 -1.0461  0.4526  0.4928
  505TIP3    H1 1456   6.708   0.826   6.581 -0.7583 -0.5876 -0.7587
  505TIP3    H2 1457   6.790   0.885   6.468 -0.1154  1.1674  0.5700
  506TIP3   OH2 1458   0.780   5.511   2.573 -0.3516  0.2592  0.3068
  506TIP3    H1 1459   0.714   5.443   2.557 -0.3328  0.6690 -1.8726
  506TIP3    H2 1460   0.777   5.566   2.495  0.8978  1.7163  1.2298
  507TIP3   OH2 1461   5.548   4.491   0.417 -0.4957  0.2481 -0.0333
  507TIP3    H1 1462   5.548   4.473   0.322 -0.5137  2.1078 -0.4112
  507TIP3    H2 1463   5.494   4.569   0.426  0.2861  0.6426  1.4225
  508TIP3   OH2 1464   1.511   4.437   3.681  0.0646  0.0227  0.2033
  508TIP3    H1 1465   1.457   4.363   3.709 -0.8570  0.9570  0.9452
  508TIP3    H2 1466   1.586   4.436   3.741 -0.9740  0.8963  1.5662
  509TIP3   OH2 1467   3.291   1.813   3.081 -0.1197  0.8662 -0.1743
  509TIP3    H1 1468   3.364   1.855   3.126  1.4060 -2.2423  0.4934
  509TIP3    H2 1469   3.332   1.753   3.019 -2.0518 -1.0333  0.2704
  510TIP3   OH2 1470   4.231   7.521   1.143  0.5016 -0.0491  0.0274
  510TIP3    H1 1471   4.239   7.449   1.080 -2.3728 -1.0277  0.6557
  510TIP3    H2 1472   4.313   7.518   1.192  0.2501 -3.4084  0.4845
  511TIP3   OH2 1473   1.319   4.453   3.286 -0.2486  0.5255 -0.1518
  511TIP3    H1 1474   1.251   4.450   3.219  0.4263  0.3274 -0.8550
  511TIP3    H2 1475   1.388   4.507   3.247  0.3810 -0.0322  0.1631
  512TIP3   OH2 1476   1.897   2.133   0.719  0.3266 -0.5044  0.0000
  512TIP3    H1 1477   1.816   2.181   0.706  0.9685  0.5314 -0.2823
  512TIP3    H2 1478   1.963   2.182   0.670  1.3550 -0.6797  1.1499
  513TIP3   OH2 1479   5.880   5.117   3.962  0.0469 -0.0726  0.4829
  513TIP3    H1 1480   5.948   5.183   3.980  2.3006 -1.6949 -1.5446
  513TIP3    H2 1481   5.911   5.038   4.006 -1.0345 -0.6077  0.3116
  514TIP3   OH2 1482   0.425   4.830   4.840 -0.4383  0.0852  0.1262
  514TIP3    H1 1483   0.366   4.881   4.785  1.0093  0.2766 -1.3344
  514TIP3    H2 1484   0.385   4.744   4.846 -0.8253  0.1820 -0.9178
  515TIP3   OH2 1485   1.552   5.963   0.357  0.2171 -0.3184 -0.3462
  515TIP3    H1 1486   1.592   6.012   0.429 -0.8220 -1.2043  0.8988
  515TIP3    H2 1487   1.461   5.993   0.356 -0.6545 -2.6338  0.9483
  516TIP3   OH2 1488   3.069   2.626   5.016 -0.3584  0.3509 -0.1387
  516TIP3    H1 1489   2.988   2.624   5.066 -1.4351  2.6328 -1.6419
  516TIP3    H2 1490   3.044   2.598   4.928  0.5370  0.7498 -0.5333
  517TIP3   OH2 1491   3.372   5.053   0.183 -0.4891 -0.3238  0.5180
  517TIP3    H1 1492   3.293   5.099   0.210  0.5444  1.3837  0.7314
  517TIP3    H2 1493   3.348   5.011   0.100 -1.4376  0.6828  0.2597
  518TIP3   OH2 1494   6.049   4.320   5.702 -0.2163  0.5239 -0.2544
  518TIP3    H1 1495   6.104   4.392   5.733 -0.1432  0.5956 -0.5435
  518TIP3    H2 1496   5.962   4.339   5.738  0.0566  0.1272  0.6455
  519TIP3   OH2 1497   2.468   3.685   5.594  0.2464 -0.4052  0.0935
  519TIP3    H1 1498   2.473   3.736   5.513 -0.3094  0.0939  0.3639
  519TIP3    H2 1499   2.557   3.652   5.606  1.1556  2.0454  0.8863
  520TIP3   OH2 1500   1.440   5.556   3.698 -0.1489 -0.2450 -0.5600
  520TIP3    H1 1501   1.532   5.577   3.712 -0.6498  0.7112  1.7037
  520TIP3    H2 1502   1.435   5.462   3.715 -0.3171  0.4473  4.6321
  521TIP3   OH2 1503   0.888   1.109   6.110 -0.1488  0.0975 -0.1516
  521TIP3    H1 1504   0.978   1.124   6.140  0.3040 -0.8995 -0.9032
  521TIP3    H2 1505   0.835   1.113   6.189  0.7435 -0.6277  0.5155
  522TIP3   OH2 1506   7.885   5.998   6.081 -0.7977 -0.1035 -0.1448
  522TIP3    H1 1507   7.911   5.912   6.114  0.9898  0.1657 -0.7283
  522TIP3    H2 1508   7.943   6.014   6.007 -1.9749  1.0691 -0.8667
  523TIP3   OH2 1509   7.395   0.419   0.656  0.2485  0.8862  0.3965
  523TIP3    H1 1510   7.418   0.459   0.573 -2.4168  2.2645  0.2061
  523TIP3    H2 1511   7.368   0.330   0.634 -2.8484  1.9897 -0.7124
  524TIP3   OH2 1512   0.099   4.057   6.556  0.4363 -0.2168  0.0658
  524TIP3    H1 1513   0.168   4.117   6.583  0.5721 -0.4584  0.2602
  524TIP3    H2 1514   0.141   3.972   6.552  0.5876 -0.1091 -1.5498
  525TIP3   OH2 1515   5.339   2.146   6.197  0.4083 -0.3047 -0.2850
  525TIP3    H1 1516   5.331   2.066   6.250 -1.4480  0.1395  0.1870
  525TIP3    H2 1517   5.276   2.207   6.237  0.3955  0.7215 -1.8086
  526TIP3   OH2 1518   3.672   1.626   4.385 -0.2142 -0.4819 -0.0052
  526TIP3    H1 1519   3.601   1.563   4.368 -1.0633  0.7606 -1.3342
  526TIP3    H2 1520   3.721   1.629   4.303  0.2772  0.0277  0.3020
  527TIP3   OH2 1521   5.175   4.962   5.664 -0.3245  0.2163 -0.6155
  527TIP3    H1 1522   5.098   4.970   5.608  0.4810  2.7638 -1.5194
  527TIP3    H2 1523   5.249   4.961   5.602  0.4366 -2.5769  0.1943
  528TIP3   OH2 1524   2.774   1.960   3.472 -0.0605 -0.0227 -0.0710
  528TIP3    H1 1525   2.792   1.888   3.533 -1.0133 -0.2235 -0.0056
  528TIP3    H2 1526   2.837   1.948   3.401  0.3735 -0.4000  0.3669
  529TIP3   OH2 1527   2.555   0.788   1.745 -0.2046  0.7169  0.0424
  529TIP3    H1 1528   2.583   0.821   1.831 -0.1498 -0.2660  0.4217
  529TIP3    H2 1529   2.503   0.710   1.766 -0.5494  0.7116 -0.8050
  530TIP3   OH2 1530   2.390   7.609   5.144  0.1879  0.1000  0.6519
  530TIP3    H1 1531   2.309   7.659   5.144  0.2959  0.2751  0.8080
  530TIP3    H2 1532   2.366   7.525   5.184  0.2093  0.3553  1.2141
  531TIP3   OH2 1533   1.312   6.861   0.162 -0.5973  0.5141  0.5075
  531TIP3    H1 1534   1.338   6.784   0.212 -1.9847  1.3849  2.7040
  531TIP3    H2 1535   1.394   6.905   0.141  0.1670 -1.1410 -0.1817
  532TIP3   OH2 1536   4.100   0.893   2.057 -0.3171  0.6195  0.6558
  532TIP3    H1 1537   4.176   0.906   2.114  0.8968  0.1349 -0.7909
  532TIP3    H2 1538   4.090   0.977   2.012  0.1213  0.3075 -0.0316
  533TIP3   OH2 1539   2.136   6.872   6.553 -0.3328  0.6056  0.9212
  533TIP3    H1 1540   2.172   6.878   6.642 -0.2574 -1.1556  1.0488
  533TIP3    H2 1541   2.142   6.779   6.532  0.5632  1.1256 -1.3424
  534TIP3   OH2 1542   2.368   0.803   3.732 -0.0202 -0.3268 -0.1824
  534TIP3    H1 1543   2.339   0.774   3.646 -2.0930  1.4837 -0.1848
  534TIP3    H2 1544   2.300   0.772   3.792  1.5670 -1.8696  0.9392
  535TIP3   OH2 1545   7.781   5.868   2.708 -0.7443  0.2146 -0.1300
  535TIP3    H1 1546   7.731   5.946   2.683  0.0890  0.9039  0.3102
  535TIP3    H2 1547   7.860   5.902   2.750 -1.3144 -0.8627  1.9709
  536TIP3   OH2 1548   2.587   0.849   0.658 -0.2391 -0.3481 -0.2490
  536TIP3    H1 1549   2.654   0.916   0.673  1.1837 -1.8477  0.2695
  536TIP3    H2 1550   2.592   0.831   0.564  0.5599 -0.9415 -0.0950
  537TIP3   OH2 1551   7.598   3.069   5.696  0.6047  0.3550  0.2833
  537TIP3    H1 1552   7.641   3.002   5.644  0.3257  1.0612 -0.9047
  537TIP3    H2 1553   7.668   3.109   5.748  1.4205  1.4736 -1.5938
  538TIP3   OH2 1554   6.616   3.480   4.028 -0.1093  0.3378 -0.2270
  538TIP3    H1 1555   6.522   3.479   4.008  0.0219 -0.1473 -0.8381
  538TIP3    H2 1556   6.648   3.394   4.000  0.6059  0.6646 -0.4362
  539TIP3   OH2 1557   4.572   6.198   5.818  0.0503  0.2311 -0.2258
  539TIP3    H1 1558   4.648   6.256   5.827 -0.0105  0.2298  0.2822
  539TIP3    H2 1559   4.523   6.235   5.744 -1.3589  2.3902  1.6523
  540TIP3   OH2 1560   3.140   1.219   4.206  0.3286 -0.2409 -0.0478
  540TIP3    H1 1561   3.197   1.153   4.246 -1.2648 -1.3108  0.5546
  540TIP3    H2 1562   3.058   1.214   4.256 -0.2499  1.3752 -0.7622
  541TIP3   OH2 1563   5.729   1.239   1.769  0.2668  0.1434 -0.0318
  541TIP3    H1 1564   5.661   1.174   1.748 -0.8609  0.5205  2.1445
  541TIP3    H2 1565   5.811   1.191   1.761 -0.5056 -1.4195  0.9449
  542TIP3   OH2 1566   1.550   7.051   4.051  0.5390 -0.5690  0.0546
  542TIP3    H1 1567   1.634   7.017   4.084  2.0295  2.4361 -0.3322
  542TIP3    H2 1568   1.566   7.069   3.959 -0.4565  0.2363  0.0241
  543TIP3   OH2 1569   2.666   7.476   1.526 -0.4052 -0.8271  0.1933
  543TIP3    H1 1570   2.636   7.561   1.557  1.6497  0.3321 -0.7834
  543TIP3    H2 1571   2.665   7.483   1.431 -1.5131 -2.4322  0.0350
  544TIP3   OH2 1572   2.580   0.379   1.927  0.4223 -0.0282  0.6066
  544TIP3    H1 1573   2.517   0.424   1.871 -0.4655 -2.6206 -0.6338
  544TIP3    H2 1574   2.597   0.441   1.999 -2.1416  1.4724  0.0466
  545TIP3   OH2 1575   6.548   4.850   0.595  0.4259 -0.2786  0.0242
  545TIP3    H1 1576   6.505   4.871   0.512 -1.3689  1.0123  1.2298
  545TIP3    H2 1577   6.606   4.924   0.612  0.2117 -0.1723  0.2966
  546TIP3   OH2 1578   2.901   5.956   0.865 -0.2469  0.2491  0.3775
  546TIP3    H1 1579   2.977   5.898   0.871 -0.6319 -0.1044  3.8870
  546TIP3    H2 1580   2.929   6.036   0.908 -1.7340  0.1828  1.5523
  547TIP3   OH2 1581   3.086   0.858   1.010 -0.3846 -0.5005  0.3521
  547TIP3    H1 1582   3.086   0.803   1.089  1.1830 -1.2151 -0.1103
  547TIP3    H2 1583   3.101   0.797   0.938 -0.1044  0.3598 -0.3331
  548TIP3   OH2 1584   7.972   3.802   4.660 -0.1817 -0.9588 -0.5088
  548TIP3    H1 1585   8.015   3.860   4.598  1.0576 -0.8451  0.4147
  548TIP3    H2 1586   7.968   3.853   4.741 -1.5519 -1.1875 -0.4075
  549TIP3   OH2 1587   5.034   1.193   2.540 -0.7546  0.9401 -0.5026
  549TIP3    H1 1588   5.111   1.209   2.485  0.4875 -0.6616  0.6622
  549TIP3    H2 1589   5.055   1.236   2.623  0.1671 -1.6770  0.7410
  550TIP3   OH2 1590   7.341   6.422   2.734  0.0523  0.2281  0.2315
  550TIP3    H1 1591   7.362   6.329   2.721  1.3867  0.5629 -0.1980
  550TIP3    H2 1592   7.422   6.468   2.710 -0.5264  1.4917  0.6323
  551TIP3   OH2 1593   4.672   6.831   6.790 -0.5698  0.4670  0.1318
  551TIP3    H1 1594   4.733   6.853   6.860 -0.6764  0.3795  0.2537
  551TIP3    H2 1595   4.705   6.878   6.713 -0.0400 -0.0125  0.0568
  552TIP3   OH2 1596   8.280   7.091   1.429  0.0887  0.3303  0.2065
  552TIP3    H1 1597   8.331   7.111   1.350 -0.9625 -0.9441 -0.8379
  552TIP3    H2 1598   8.208   7.154   1.428  0.3672  0.6532  0.4379
  553TIP3   OH2 1599   1.202   6.951   6.282 -0.0933 -0.0866 -0.1723
  553TIP3    H1 1600   1.224   7.001   6.360  0.2036 -1.9627  1.0161
  553TIP3    H2 1601   1.287   6.927   6.244  0.0553 -3.3807  1.8153
  554TIP3   OH2 1602   0.579   4.416   3.704  0.1783 -0.3853 -0.0576
  554TIP3    H1 1603   0.551   4.457   3.622 -0.5397 -1.4601 -0.3626
  554TIP3    H2 1604   0.640   4.348   3.677 -0.2817 -0.9340  0.2743
  555TIP3   OH2 1605   3.843   1.785   5.576  0.1540 -0.5354  0.4388
  555TIP3    H1 1606   3.797   1.702   5.586 -1.0491 -0.0180 -0.5551
  555TIP3    H2 1607   3.935   1.760   5.571 -0.1552 -1.7769  0.4847
  556TIP3   OH2 1608   6.045   1.934   3.156  0.0058  0.0639  0.0848
  556TIP3    H1 1609   6.082   2.021   3.172 -2.8660  0.8553  3.8300
  556TIP3    H2 1610   6.079   1.879   3.226 -0.0703 -1.2075 -0.8385
  557TIP3   OH2 1611   3.881   4.344   2.071 -0.1194  0.0326 -0.0204
  557TIP3    H1 1612   3.828   4.303   2.139  0.0863 -0.9308 -0.4210
  557TIP3    H2 1613   3.919   4.270   2.023 -1.1406  0.6233 -1.8675
  558TIP3   OH2 1614   6.670   7.866   1.989 -0.6124  0.1446  0.3155
  558TIP3    H1 1615   6.627   7.912   1.917 -0.4212  0.0411  0.1348
  558TIP3    H2 1616   6.607   7.870   2.061  0.1351  2.2973  0.9117
  559TIP3   OH2 1617   3.568   7.836   2.834  0.3492  0.1593  0.2000
  559TIP3    H1 1618   3.551   7.896   2.762 -1.6661 -1.1365 -0.4964
  559TIP3    H2 1619   3.492   7.845   2.891 -0.1797 -1.9151 -0.0960
  560TIP3   OH2 1620   4.027   2.888   3.292  0.1455  0.4515 -0.0640
  560TIP3    H1 1621   3.938   2.868   3.265  0.4113 -0.4775 -0.3089
  560TIP3    H2 1622   4.077   2.893   3.210  1.3012 -4.0662  0.0770
  561TIP3   OH2 1623   2.782   5.008   1.848  0.1118 -0.6628 -0.1279
  561TIP3    H1 1624   2.755   5.051   1.929  1.1949 -2.1735  1.0955
  561TIP3    H2 1625   2.840   5.072   1.806 -1.2968  0.5703 -0.2962
  562TIP3   OH2 1626   6.158   1.414   5.598  0.3795 -0.1419 -0.7661
  562TIP3    H1 1627   6.149   1.345   5.533  0.2053  0.0031 -0.8957
  562TIP3    H2 1628   6.138   1.495   5.551 -1.4794 -0.1855 -0.1434
  563TIP3   OH2 1629   0.984   2.285   5.003 -0.4057 -0.5693  0.3049
  563TIP3    H1 1630   1.066   2.323   4.972 -0.5665 -1.3345 -1.1299
  563TIP3    H2 1631   0.998   2.270   5.096  0.3477  1.1730  0.5084
  564TIP3   OH2 1632   5.463   1.039   2.309  0.1487 -0.4108 -0.0572
  564TIP3    H1 1633   5.558   1.024   2.312  0.2558  0.3784  0.9458
  564TIP3    H2 1634   5.429   0.962   2.264  1.0555 -1.7626  1.4644
  565TIP3   OH2 1635   0.754   4.219   3.621  0.2072 -0.4829 -0.2812
  565TIP3    H1 1636   0.839   4.192   3.587  0.9212  1.0705  0.1570
  565TIP3    H2 1637   0.714   4.269   3.550 -0.2073 -0.9260 -0.3662
  566TIP3   OH2 1638   3.260   5.703   2.691  0.3673  0.8533 -0.6638
  566TIP3    H1 1639   3.221   5.624   2.728  2.7397 -0.2193 -0.2338
  566TIP3    H2 1640   3.225   5.774   2.745  0.8565 -0.2870  1.2709
  567TIP3   OH2 1641   1.571   1.131   0.527 -0.1363  0.3375  0.2093
  567TIP3    H1 1642   1.489   1.131   0.578 -0.2663 -0.4373  0.0126
  567TIP3    H2 1643   1.630   1.074   0.577 -0.4451 -0.8811 -0.7635
  568TIP3   OH2 1644   0.841   1.067   0.464 -0.1277  0.0048 -0.4386
  568TIP3    H1 1645   0.887   1.019   0.532 -0.8639 -0.9302 -0.5776
  568TIP3    H2 1646   0.749   1.040   0.473 -0.4567  0.9115 -0.9244
  569TIP3   OH2 1647   2.355   0.042   4.855  0.2310  0.0334  0.1733
  569TIP3    H1 1648   2.450   0.032   4.848  0.3052 -0.8724  1.9647
  569TIP3    H2 1649   2.342   0.094   4.934 -0.7984 -0.4785  0.3546
  570TIP3   OH2 1650   7.487   6.598   5.456  0.3289 -0.5187  0.9166
  570TIP3    H1 1651   7.499   6.651   5.378 -1.6903 -2.4278 -0.8252
  570TIP3    H2 1652   7.552   6.529   5.449 -0.1740 -0.9698  0.6506
  571TIP3   OH2 1653   3.345   1.884   3.831 -0.1755 -0.1696 -0.1895
  571TIP3    H1 1654   3.312   1.957   3.883  3.2808  1.3448  0.1325
  571TIP3    H2 1655   3.383   1.824   3.896  1.0375  0.0105 -0.7170
  572TIP3   OH2 1656   7.639   1.219   0.524  0.2125  0.5894  0.3262
  572TIP3    H1 1657   7.712   1.276   0.551  0.6288 -0.1421  0.7938
  572TIP3    H2 1658   7.661   1.192   0.435 -0.1878  1.4658 -0.0487
  573TIP3   OH2 1659   2.438   6.468   4.380 -0.4029 -0.4451  0.4632
  573TIP3    H1 1660   2.477   6.463   4.292 -1.2277  0.5289  0.0241
  573TIP3    H2 1661   2.420   6.561   4.393 -1.5320 -0.7374  1.1031
  574TIP3   OH2 1662   2.736   0.506   6.847  0.1177  0.1605  0.1072
  574TIP3    H1 1663   2.663   0.559   6.878  0.5523  0.2867  0.9646
  574TIP3    H2 1664   2.724   0.499   6.753 -1.4448 -0.5054  0.3244
  575TIP3   OH2 1665   7.017   3.368   5.792 -0.2529 -0.7944  0.2211
  575TIP3    H1 1666   7.040   3.291   5.845 -1.6069 -0.6352  1.0911
  575TIP3    H2 1667   7.005   3.438   5.856  0.8325  0.1361 -0.5544
  576TIP3   OH2 1668   4.844   4.065   4.297  0.1500 -0.7100  0.1752
  576TIP3    H1 1669   4.814   3.994   4.240  0.3265 -1.0953  0.5654
  576TIP3    H2 1670   4.930   4.038   4.327  0.5899  0.0560 -0.3415
  577TIP3   OH2 1671   0.455   2.941   2.950 -0.2814 -0.0680 -1.2860
  577TIP3    H1 1672   0.417   2.876   2.890  1.0031 -3.3134  1.0801
  577TIP3    H2 1673   0.545   2.951   2.920  0.3880 -1.7595 -0.0420
  578TIP3   OH2 1674   0.826   1.746   3.023  0.2572 -0.1384  0.0851
  578TIP3    H1 1675   0.758   1.681   3.044  1.4983 -0.7982  2.3639
  578TIP3    H2 1676   0.877   1.754   3.103  1.7559  1.7413 -0.9823
  579TIP3   OH2 1677   7.710   7.109   3.306  0.1586  0.2501  0.5810
  579TIP3    H1 1678   7.688   7.136   3.217  1.3941 -0.2467  0.1106
  579TIP3    H2 1679   7.627   7.113   3.353 -0.7443 -0.5115 -0.8647
  580TIP3   OH2 1680   0.628   3.791   1.634 -0.3767  0.3203 -0.5671
  580TIP3    H1 1681   0.696   3.794   1.566  0.1737 -2.3404 -0.2147
  580TIP3    H2 1682   0.584   3.707   1.620  0.3110 -0.7474  2.8595
  581TIP3   OH2 1683   1.747   4.117   6.247 -0.6169  0.0827  0.2627
  581TIP3    H1 1684   1.688   4.113   6.322 -2.3838  0.4478 -1.0450
  581TIP3    H2 1685   1.701   4.070   6.177  0.4414  0.7402 -0.9374
  582TIP3   OH2 1686   3.746   6.472   3.667 -0.1233  0.7719  0.4559
  582TIP3    H1 1687   3.798   6.465   3.747  0.4815  0.7203  0.0642
  582TIP3    H2 1688   3.660   6.439   3.692  0.1884  0.3244  0.9737
  583TIP3   OH2 1689   3.421   7.135   3.833  0.1411 -0.7725  0.6118
  583TIP3    H1 1690   3.377   7.220   3.832  0.4694 -0.6103 -0.7158
  583TIP3    H2 1691   3.350   7.071   3.823 -0.0483 -0.6363  1.0599
  584TIP3   OH2 1692   1.598   5.790   5.292  0.0590 -0.1297 -0.3861
  584TIP3    H1 1693   1.680   5.801   5.340 -0.0909 -2.0838  0.4241
  584TIP3    H2 1694   1.618   5.726   5.224 -0.4772  0.3648 -1.0208
  585TIP3   OH2 1695   4.739   2.205   0.908 -0.0750 -0.0895 -0.2578
  585TIP3    H1 1696   4.830   2.183   0.885  0.0241  0.0489  0.0040
  585TIP3    H2 1697   4.727   2.169   0.996 -0.1854  0.1458 -0.1774
  586TIP3   OH2 1698   0.213   0.057   3.902  0.1239  0.2004  0.0786
  586TIP3    H1 1699   0.281   0.090   3.843  0.8989 -0.1119  0.7798
  586TIP3    H2 1700   0.226  -0.038   3.903  0.1535  0.2051  0.7948
  587TIP3   OH2 1701   4.369   1.845   4.056 -0.0491  0.1464 -0.5908
  587TIP3    H1 1702   4.364   1.933   4.018  0.6430 -0.0812 -1.2359
  587TIP3    H2 1703   4.450   1.847   4.107  0.3236 -0.3094 -1.1479
  588TIP3   OH2 1704   6.842   2.230   4.876 -0.1918 -0.1858  0.2798
  588TIP3    H1 1705   6.896   2.307   4.859 -1.8730  1.3225  1.4515
  588TIP3    H2 1706   6.813   2.201   4.789  1.4471 -0.2989 -0.2654
  589TIP3   OH2 1707   6.931   2.301   2.661 -0.0062 -0.3219 -0.2503
  589TIP3    H1 1708   7.024   2.314   2.674  0.2254 -2.2008  0.3183
  589TIP3    H2 1709   6.898   2.271   2.747 -1.3178  1.1530 -0.1894
  590TIP3   OH2 1710   3.163   0.558   2.227  0.4028  0.1564  0.2113
  590TIP3    H1 1711   3.107   0.510   2.288 -0.4422 -1.0814 -1.4640
  590TIP3    H2 1712   3.163   0.505   2.147  1.3125  1.8203 -0.9597
  591TIP3   OH2 1713   6.619   4.467   2.807 -0.0611  0.0088 -0.2292
  591TIP3    H1 1714   6.581   4.537   2.754 -2.1835 -0.0946  1.0188
  591TIP3    H2 1715   6.640   4.508   2.891  0.1155 -0.5231 -0.0038
  592TIP3   OH2 1716   8.083   6.824   3.964  0.4557  0.1912  0.0556
  592TIP3    H1 1717   8.082   6.776   4.047  0.9030 -0.3595 -0.2499
  592TIP3    H2 1718   8.085   6.916   3.989  0.6709  0.0250  0.6595
  593TIP3   OH2 1719   2.504   5.558   6.269  0.4307 -0.1902  0.1605
  593TIP3    H1 1720   2.494   5.467   6.297  0.0553 -0.5344 -1.0359
  593TIP3    H2 1721   2.527   5.605   6.349 -0.5700 -1.1355  1.0434
  594TIP3   OH2 1722   6.715   3.463   0.094 -0.0549 -0.1871 -0.4432
  594TIP3    H1 1723   6.723   3.394   0.029 -1.1481 -1.1489  0.3858
  594TIP3    H2 1724   6.634   3.442   0.142 -1.7358  2.9025 -1.6186
  595TIP3   OH2 1725   2.321   6.589   0.505  0.0354 -0.1330 -0.3375
  595TIP3    H1 1726   2.285   6.560   0.588  0.5310 -2.0711 -0.7639
  595TIP3    H2 1727   2.253   6.646   0.468  0.0052  1.1556  1.5565
  596TIP3   OH2 1728   5.222   0.389   5.616  0.0870  0.1043  0.1499
  596TIP3    H1 1729   5.181   0.307   5.590  0.8340 -0.0762 -0.4974
  596TIP3    H2 1730   5.172   0.457   5.570 -0.4921  0.0231  0.6386
  597TIP3   OH2 1731   5.789   3.883   0.854 -0.4178 -0.0544 -0.6731
  597TIP3    H1 1732   5.793   3.812   0.790  0.1762 -0.0727 -0.6283
  597TIP3    H2 1733   5.814   3.842   0.937 -3.2382 -0.5111  0.0383
  598TIP3   OH2 1734   1.187   3.937   2.398  0.1979  0.2894  0.2804
  598TIP3    H1 1735   1.183   4.032   2.408 -1.4274  0.2415  0.2821
  598TIP3    H2 1736   1.097   3.910   2.381  0.8652 -1.0446 -1.6199
  599TIP3   OH2 1737   2.675   1.762   0.844 -0.2777 -0.2603  0.2680
  599TIP3    H1 1738   2.609   1.696   0.866 -1.4702  1.7057  3.2870
  599TIP3    H2 1739   2.629   1.845   0.851  2.0864  1.1169  0.5191
  600TIP3   OH2 1740   8.111   6.384   5.001 -0.5257 -0.1660 -0.1403
  600TIP3    H1 1741   8.066   6.300   5.011 -0.4443 -0.1811  0.1095
  600TIP3    H2 1742   8.052   6.437   4.947 -0.5587 -0.3961 -0.3328
  601TIP3   OH2 1743   3.953   2.942   6.652  0.3883  0.1248  0.2880
  601TIP3    H1 1744   3.901   3.009   6.607 -2.8157 -1.3647  1.4744
  601TIP3    H2 1745   3.969   2.979   6.739 -0.1849 -0.0846  0.4857
  602TIP3   OH2 1746   7.126   0.787   4.017 -0.4753  0.0694  0.1033
  602TIP3    H1 1747   7.174   0.727   4.074  0.0362  1.5556  1.2969
  602TIP3    H2 1748   7.194   0.837   3.973 -0.8843 -0.6288 -1.3946
  603TIP3   OH2 1749   4.612   4.944   6.423 -0.3233 -0.6412  0.1038
  603TIP3    H1 1750   4.614   4.929   6.328  1.7287  0.6871 -0.1174
  603TIP3    H2 1751   4.694   4.905   6.455  0.1203  0.9265  0.9675
  604TIP3   OH2 1752   0.879   1.973   5.720 -0.5923  0.4188  0.0455
  604TIP3    H1 1753   0.915   1.995   5.805 -0.7928  0.1034  0.2162
  604TIP3    H2 1754   0.844   1.884   5.731  0.2585 -0.0118 -0.6423
  605TIP3   OH2 1755   6.564   2.183   2.815 -0.3466  0.3862  0.4188
  605TIP3    H1 1756   6.571   2.191   2.910 -0.0712 -1.4909  0.5887
  605TIP3    H2 1757   6.621   2.110   2.793 -1.8093 -0.3805 -0.9731
  606TIP3   OH2 1758   1.314   1.260   2.992  0.0256  0.0106  0.8126
  606TIP3    H1 1759   1.372   1.313   2.938 -0.6272 -1.0389 -1.0270
  606TIP3    H2 1760   1.370   1.225   3.061  1.5666 -0.8220 -0.7812
  607TIP3   OH2 1761   4.464   1.702   5.308 -0.3539 -0.2960  0.8043
  607TIP3    H1 1762   4.516   1.622   5.308 -1.2508 -0.9177 -0.0889
  607TIP3    H2 1763   4.468   1.733   5.217 -2.5834 -1.1277  0.3332
  608TIP3   OH2 1764   3.885   4.631   2.043  0.2312  0.2352 -0.3805
  608TIP3    H1 1765   3.808   4.618   2.098 -1.0599  1.0128 -1.9254
  608TIP3    H2 1766   3.888   4.552   1.988  1.6662 -0.6638  0.8919
  609TIP3   OH2 1767   5.516   3.010   3.592 -0.2980  0.0985  0.0071
  609TIP3    H1 1768   5.587   3.040   3.536 -0.6036  2.8778  0.9563
  609TIP3    H2 1769   5.466   3.090   3.612 -2.6533 -1.4660  0.8065
  610TIP3   OH2 1770   3.701   3.793   1.512  0.7870 -0.2918  0.0489
  610TIP3    H1 1771   3.665   3.816   1.598 -0.5701 -0.8584 -0.3406
  610TIP3    H2 1772   3.749   3.712   1.527  0.3918 -0.4960  0.2503
  611TIP3   OH2 1773   7.571   7.316   0.308  0.1081  0.4875  0.6594
  611TIP3    H1 1774   7.576   7.221   0.292  0.8229  0.9047 -2.0172
  611TIP3    H2 1775   7.629   7.330   0.383 -1.6546 -1.3996  2.5367
  612TIP3   OH2 1776   0.190   5.844   0.208 -0.8449 -0.2406  0.1396
  612TIP3    H1 1777   0.278   5.824   0.178 -1.3160 -1.5555 -0.4510
  612TIP3    H2 1778   0.201   5.916   0.270  0.5917 -0.1708 -0.1696
  613TIP3   OH2 1779   7.705   4.516   4.976  0.3762  0.4424  0.0419
  613TIP3    H1 1780   7.660   4.476   5.052 -1.8298 -1.1068 -1.9188
  613TIP3    H2 1781   7.681   4.609   4.980 -3.9956 -0.3916 -1.2903
  614TIP3   OH2 1782   2.956   0.733   1.253  0.1381 -0.2625  0.0670
  614TIP3    H1 1783   2.870   0.757   1.288  0.6233  0.9795  0.4697
  614TIP3    H2 1784   3.018   0.761   1.320  0.9345 -0.1067 -0.7087
  615TIP3   OH2 1785   6.540   1.802   3.954 -0.2194 -0.3640 -0.2539
  615TIP3    H1 1786   6.469   1.746   3.923 -0.0629 -1.3249  1.0069
  615TIP3    H2 1787   6.620   1.758   3.925 -0.0929  0.8357 -1.8720
  616TIP3   OH2 1788   0.248   5.890   5.528 -0.0659  0.6801 -0.3680
  616TIP3    H1 1789   0.261   5.944   5.606  0.9135  1.2643 -0.9227
  616TIP3    H2 1790   0.165   5.921   5.491 -0.2146  0.8357  0.0818
  617TIP3   OH2 1791   2.433   3.974   4.132 -0.3464  0.4749 -0.1999
  617TIP3    H1 1792   2.379   3.905   4.094 -0.7169  0.4885  0.2872
  617TIP3    H2 1793   2.468   3.934   4.212 -0.1252  0.6699 -0.2001
  618TIP3   OH2 1794   5.579   5.876   4.876 -0.7636 -0.3110 -0.3297
  618TIP3    H1 1795   5.592   5.792   4.831  0.4029  0.4872 -1.5625
  618TIP3    H2 1796   5.484   5.889   4.874 -0.7985 -0.5239 -2.2294
  619TIP3   OH2 1797   6.518   5.961   0.357  0.5239 -0.2132  0.2934
  619TIP3    H1 1798   6.450   5.946   0.423  1.9816  0.7695  2.1374
  619TIP3    H2 1799   6.484   6.032   0.303 -0.7528 -1.1110 -0.1470
  620TIP3   OH2 1800   3.295   0.073   6.186  0.2924 -0.1814 -0.5331
  620TIP3    H1 1801   3.236   0.139   6.150 -0.6772  0.2359  1.6289
  620TIP3    H2 1802   3.343   0.119   6.255  0.1193 -1.5305  0.5301
  621TIP3   OH2 1803   4.717   7.313   0.228  0.1244 -0.2059  0.6064
  621TIP3    H1 1804   4.627   7.291   0.251  0.0482 -1.1507 -0.5234
  621TIP3    H2 1805   4.756   7.231   0.199  0.6757  0.5853 -1.0480
  622TIP3   OH2 1806   4.595   2.951   4.784 -0.0147  0.1000 -0.1335
  622TIP3    H1 1807   4.634   2.915   4.863 -0.7136  2.2480  1.2935
  622TIP3    H2 1808   4.666   2.950   4.720  1.0986 -0.1177  1.0467
  623TIP3   OH2 1809   3.955   3.011   0.957  0.2446 -0.6766 -0.4064
  623TIP3    H1 1810   4.018   2.960   1.008 -0.6044 -2.3339 -0.9399
  623TIP3    H2 1811   3.985   3.101   0.965  1.1710 -1.1009  1.5240
  624TIP3   OH2 1812   7.512   4.825   3.358 -0.5497 -0.0999 -0.0475
  624TIP3    H1 1813   7.573   4.790   3.423 -0.5505 -2.3143 -1.1317
  624TIP3    H2 1814   7.472   4.901   3.401 -1.0115 -1.8049  2.7904
  625TIP3   OH2 1815   3.006   0.147   5.475  0.7369  0.5497 -0.9230
  625TIP3    H1 1816   2.957   0.186   5.402 -0.1355  1.6262  0.1905
  625TIP3    H2 1817   2.944   0.086   5.516  1.1732  0.0554 -0.9917
  626TIP3   OH2 1818   2.648   1.293   3.242 -0.3627  0.4044  0.2101
  626TIP3    H1 1819   2.661   1.296   3.147  2.0950 -1.4320  0.3694
  626TIP3    H2 1820   2.724   1.244   3.274 -0.7586  1.5780  3.2198
  627TIP3   OH2 1821   1.298   1.783   4.210 -0.1553  0.2469  0.1513
  627TIP3    H1 1822   1.358   1.812   4.278 -0.2430  1.5129 -0.2772
  627TIP3    H2 1823   1.341   1.706   4.171  0.3256  0.0671  1.0070
  628TIP3   OH2 1824   2.608   5.461   1.027  0.4738  0.3176  0.2091
  628TIP3    H1 1825   2.626   5.490   0.937  2.5632 -0.1189  0.4411
  628TIP3    H2 1826   2.640   5.370   1.029  0.5579  0.3693  1.4237
  629TIP3   OH2 1827   3.121   7.197   1.360 -0.0643  0.0094  0.1639
  629TIP3    H1 1828   3.057   7.264   1.336 -0.5472 -0.3620  0.3791
  629TIP3    H2 1829   3.165   7.232   1.437 -1.3263 -0.5191  1.1741
  630TIP3   OH2 1830   7.418   2.665   5.853  0.3992  0.0439  0.4491
  630TIP3    H1 1831   7.343   2.609   5.832 -0.1485  0.5970  0.8825
  630TIP3    H2 1832   7.381   2.753   5.857  1.2228  0.4210 -0.0826
  631TIP3   OH2 1833   6.595   0.343   4.619  0.4510 -0.3420 -0.8186
  631TIP3    H1 1834   6.568   0.254   4.596 -2.0274  0.3428 -0.8970
  631TIP3    H2 1835   6.691   0.339   4.624  0.4873 -2.7219 -1.9371
  632TIP3   OH2 1836   2.969   6.678   6.756  0.1499 -0.0462 -0.1124
  632TIP3    H1 1837   2.878   6.668   6.729  0.6057 -0.4718 -1.5811
  632TIP3    H2 1838   2.965   6.727   6.838 -1.4103 -0.4019  0.0427
  633TIP3   OH2 1839   1.152   5.051   4.376  0.1490 -0.1300  0.6551
  633TIP3    H1 1840   1.124   5.098   4.298  0.4123 -1.6712 -0.4145
  633TIP3    H2 1841   1.152   5.117   4.445  2.5743  1.9668 -1.1708
  634TIP3   OH2 1842   0.873   2.137   0.828 -0.0610  0.3002 -0.3613
  634TIP3    H1 1843   0.788   2.180   0.834 -0.3644 -0.3551  0.0816
  634TIP3    H2 1844   0.863   2.055   0.876  1.2115  0.8068  0.8515
  635TIP3   OH2 1845   3.507   7.562   2.773 -0.3232 -0.0079  0.3258
  635TIP3    H1 1846   3.420   7.599   2.788  0.4517  1.8890  0.3716
  635TIP3    H2 1847   3.568   7.631   2.798  1.1959 -0.8007 -0.9484
  636TIP3   OH2 1848   6.685   3.997   5.691  0.3791 -0.2270 -0.1220
  636TIP3    H1 1849   6.641   3.920   5.653 -3.0226  1.0767  0.7736
  636TIP3    H2 1850   6.729   3.963   5.769  0.8767 -1.5988 -0.9613
  637TIP3   OH2 1851   7.461   3.166   1.448  0.1094 -0.0628  0.1959
  637TIP3    H1 1852   7.515   3.150   1.370 -1.1852 -2.7528 -0.2674
  637TIP3    H2 1853   7.375   3.190   1.413 -0.1106  0.1425  0.8544
  638TIP3   OH2 1854   1.931   4.280  -0.025  0.4570  0.0811  0.1741
  638TIP3    H1 1855   1.886   4.235   0.047  0.6269  0.0307  0.2500
  638TIP3    H2 1856   1.971   4.357   0.016  0.0612  0.3715  0.0203
  639TIP3   OH2 1857   4.286   0.535   5.879  0.0990 -0.3831 -0.3153
  639TIP3    H1 1858   4.242   0.592   5.816 -1.5684 -1.4759 -0.1947
  639TIP3    H2 1859   4.261   0.447   5.853  0.1621 -0.9092  1.2943
  640TIP3   OH2 1860   1.620   2.290   5.614 -0.2421  0.2548 -0.3204
  640TIP3    H1 1861   1.624   2.194   5.612  2.3758  0.2943 -0.4230
  640TIP3    H2 1862   1.638   2.316   5.523 -2.2518  0.8717 -0.5826
  641TIP3   OH2 1863   0.041  -0.001   2.702  0.5982 -0.3716  0.2244
  641TIP3    H1 1864   0.114   0.020   2.761 -0.6890  0.4691  1.5682
  641TIP3    H2 1865   0.056   0.054   2.625  1.3936 -0.2289  0.4699
  642TIP3   OH2 1866   6.018   1.744   4.343 -0.1997 -0.3081 -0.4988
  642TIP3    H1 1867   6.048   1.654   4.357 -1.2546 -0.6869 -0.5948
  642TIP3    H2 1868   5.998   1.776   4.431 -2.3083 -1.0798 -0.6395
  643TIP3   OH2 1869   7.526   2.377   0.387  0.6225 -0.6030 -0.2983
  643TIP3    H1 1870   7.505   2.365   0.295  2.3929 -0.8468 -0.6960
  643TIP3    H2 1871   7.461   2.323   0.433  0.5828 -1.6042 -1.4698
  644TIP3   OH2 1872   2.716   2.821   5.968 -0.0772  0.1604 -0.0882
  644TIP3    H1 1873   2.808   2.808   5.991  0.2939  1.2354 -0.8435
  644TIP3    H2 1874   2.709   2.915   5.953 -0.6408 -0.2076 -2.6486
  645TIP3   OH2 1875   2.890   1.354   1.833 -0.5387 -0.0922  0.4316
  645TIP3    H1 1876   2.901   1.385   1.923 -1.2745 -0.4508  0.6536
  645TIP3    H2 1877   2.971   1.380   1.789  0.2421 -0.7316  1.4319
  646TIP3   OH2 1878   0.362   2.165   2.743  0.6690 -0.5324 -0.2738
  646TIP3    H1 1879   0.436   2.213   2.707 -0.2992  0.8526 -0.4996
  646TIP3    H2 1880   0.299   2.233   2.767 -0.4455 -1.6604  0.0921
  647TIP3   OH2 1881   1.033   7.921   5.534  0.1969  0.3631 -0.3889
  647TIP3    H1 1882   0.963   7.955   5.479 -0.2178 -1.3060 -0.9210
  647TIP3    H2 1883   0.988   7.885   5.611  0.3066 -1.7014 -1.2256
  648TIP3   OH2 1884   0.548   0.066   3.992 -0.2605 -0.3414 -0.1992
  648TIP3    H1 1885   0.512   0.095   3.908 -0.9381 -0.1242  0.1595
  648TIP3    H2 1886   0.569  -0.026   3.979 -0.5667 -0.3642 -0.5424
  649TIP3   OH2 1887   3.596   6.069   5.763  0.2771  0.3323 -0.0262
  649TIP3    H1 1888   3.583   5.991   5.709  0.6464 -0.1576  0.5773
  649TIP3    H2 1889   3.690   6.074   5.776  0.1996  0.5198  0.4694
  650TIP3   OH2 1890   5.694   2.301   4.587 -0.2808 -0.1483  0.0894
  650TIP3    H1 1891   5.751   2.370   4.622 -2.4716  1.2014  1.2262
  650TIP3    H2 1892   5.688   2.320   4.493 -0.3145  0.8435  0.2772
  651TIP3   OH2 1893   7.170   4.060   2.259 -0.4280  0.1844 -0.5415
  651TIP3    H1 1894   7.086   4.014   2.261  0.3448 -1.3634  2.2743
  651TIP3    H2 1895   7.175   4.105   2.343  2.2055 -1.2243  0.1948
  652TIP3   OH2 1896   5.288   3.737   0.552 -0.2825  0.1606 -0.0321
  652TIP3    H1 1897   5.197   3.753   0.577 -0.2106  1.0286 -0.2886
  652TIP3    H2 1898   5.291   3.759   0.459 -0.4122 -2.4426 -0.7386
  653TIP3   OH2 1899   8.153   4.005   3.884  0.9264 -0.0372  0.3701
  653TIP3    H1 1900   8.076   3.953   3.908  0.0799  0.9141 -0.2186
  653TIP3    H2 1901   8.192   4.029   3.967 -0.6204  1.2244  0.7846
  654TIP3   OH2 1902   8.053   2.422   1.224 -0.0511  0.0783 -0.1679
  654TIP3    H1 1903   8.076   2.458   1.310 -0.4265  0.6734 -0.3101
  654TIP3    H2 1904   8.137   2.399   1.184  0.1424  0.0542  0.2479
  655TIP3   OH2 1905   6.094   4.265   6.510  0.1579  0.7593 -0.0675
  655TIP3    H1 1906   6.124   4.192   6.564 -1.8820 -1.1097 -1.2740
  655TIP3    H2 1907   6.121   4.242   6.421  1.5170  2.6904 -0.2204
  656TIP3   OH2 1908   8.279   1.301   5.152 -0.4115  0.5217 -0.0986
  656TIP3    H1 1909   8.198   1.347   5.131 -0.8064 -0.1099  0.0076
  656TIP3    H2 1910   8.346   1.369   5.153 -0.5251  0.7374 -2.4691
  657TIP3   OH2 1911   4.149   6.860   3.728  0.1991  0.0651  0.2979
  657TIP3    H1 1912   4.170   6.948   3.697 -0.0128  0.2222  0.5959
  657TIP3    H2 1913   4.202   6.849   3.807 -1.8197  0.9990  1.8631
  658TIP3   OH2 1914   7.048   1.644   6.066  0.2645 -0.7179  0.6053
  658TIP3    H1 1915   7.035   1.612   5.976 -1.1501 -0.1042  0.5556
  658TIP3    H2 1916   7.004   1.729   6.067  1.6049 -0.0054  1.4770
  659TIP3   OH2 1917   3.913   6.012   3.295  0.2707 -0.3431  0.3983
  659TIP3    H1 1918   3.907   6.107   3.307  1.1317  0.1965 -2.5396
  659TIP3    H2 1919   3.834   5.990   3.244  0.9207 -0.8824 -0.4001
  660TIP3   OH2 1920   8.030   2.254   2.230  0.4845  0.0336 -0.6169
  660TIP3    H1 1921   8.039   2.161   2.247  2.0583  0.2112 -0.2390
  660TIP3    H2 1922   8.025   2.261   2.135 -0.2771 -0.4600 -0.6216
  661TIP3   OH2 1923   6.030   6.520   3.462 -0.3528  0.3018 -0.2083
  661TIP3    H1 1924   5.984   6.445   3.426  1.2370 -0.4404 -0.7748
  661TIP3    H2 1925   6.032   6.505   3.556 -1.2559  0.3564 -0.1749
  662TIP3   OH2 1926   4.859   6.389   6.774  0.1590 -0.0043  0.0112
  662TIP3    H1 1927   4.927   6.448   6.742  2.8930  0.0180  4.8464
  662TIP3    H2 1928   4.803   6.445   6.828  0.2340 -1.0396  1.2194
  663TIP3   OH2 1929   7.341   6.442   5.926 -0.3507 -0.1750 -0.6191
  663TIP3    H1 1930   7.330   6.367   5.868 -0.3067 -1.4539  0.9681
  663TIP3    H2 1931   7.413   6.491   5.888 -0.7363 -0.6232 -1.9890
  664TIP3   OH2 1932   4.459   7.546   1.284 -0.0392 -0.3318  0.2815
  664TIP3    H1 1933   4.475   7.456   1.310 -0.4339 -0.8513 -1.1694
  664TIP3    H2 1934   4.481   7.598   1.361  0.2896 -1.6531  1.1035
  665TIP3   OH2 1935   2.351   7.749   2.791 -0.3441  0.1727 -0.3759
  665TIP3    H1 1936   2.368   7.721   2.702  1.4234 -0.6914  0.1882
  665TIP3    H2 1937   2.322   7.670   2.837  1.0020  0.0628  0.3365
  666TIP3   OH2 1938   6.957   7.072   0.446 -0.8024 -0.1432  0.1209
  666TIP3    H1 1939   6.957   7.152   0.395 -0.1611  0.1285  0.5261
  666TIP3    H2 1940   7.041   7.073   0.492  0.2607 -2.1614 -1.6060
  667TIP3   OH2 1941   5.984   2.832   6.212 -0.2338 -0.2286 -0.0759
  667TIP3    H1 1942   5.897   2.872   6.204 -0.4097 -0.8875 -2.2480
  667TIP3    H2 1943   5.973   2.744   6.177  1.1387 -0.6130  0.3915
  668TIP3   OH2 1944   4.764   5.877   4.288  0.2516  0.0202 -0.2996
  668TIP3    H1 1945   4.812   5.883   4.370 -0.3326  1.1721 -0.0226
  668TIP3    H2 1946   4.812   5.811   4.237 -0.0786 -1.6267  1.3996
  669TIP3   OH2 1947   7.929   4.295   4.404  0.3438 -0.2533  0.0429
  669TIP3    H1 1948   8.004   4.290   4.345  0.3027 -1.9651  0.0869
  669TIP3    H2 1949   7.935   4.382   4.445  1.0592  0.4763 -1.5497
  670TIP3   OH2 1950   4.322   0.320   2.885 -0.2639 -0.5331  0.3552
  670TIP3    H1 1951   4.369   0.395   2.923 -1.4162 -0.0959  0.9743
  670TIP3    H2 1952   4.240   0.356   2.853  0.1954 -1.1098 -1.6160
  671TIP3   OH2 1953   5.423   5.158   6.186  0.3760  0.2345 -0.0315
  671TIP3    H1 1954   5.336   5.125   6.210  1.6198 -1.2221  3.1459
  671TIP3    H2 1955   5.437   5.234   6.243  1.3527  0.1298 -0.1064
  672TIP3   OH2 1956   1.410   0.504   6.857 -0.5028  0.4691 -0.0088
  672TIP3    H1 1957   1.451   0.419   6.839  0.3804  0.9858 -0.5267
  672TIP3    H2 1958   1.431   0.557   6.780  0.9910  1.8804  1.2807
  673TIP3   OH2 1959   0.248   7.285   2.791  0.3761 -0.5401  0.1311
  673TIP3    H1 1960   0.224   7.231   2.867 -0.2200  2.5739  2.3714
  673TIP3    H2 1961   0.314   7.346   2.826 -1.1917  2.1617 -1.2642
  674TIP3   OH2 1962   4.914   3.904   5.609  0.6674 -0.3299 -0.5147
  674TIP3    H1 1963   4.821   3.895   5.632  0.8539  0.7396  0.7790
  674TIP3    H2 1964   4.915   3.974   5.543  0.4695 -1.0733 -1.3281
  675TIP3   OH2 1965   2.807   4.931   5.432  0.1216 -0.0486  0.3513
  675TIP3    H1 1966   2.836   4.935   5.523 -2.3963 -1.1929  1.2866
  675TIP3    H2 1967   2.823   5.019   5.398  3.1498 -0.1871  1.1397
  676TIP3   OH2 1968   0.207   0.598   4.844 -0.4166  0.0956 -0.3949
  676TIP3    H1 1969   0.272   0.582   4.776  3.1759 -0.1574  2.7392
  676TIP3    H2 1970   0.194   0.512   4.885  0.3485  0.7715  1.4016
  677TIP3   OH2 1971   6.558   6.482   3.278  0.0835 -0.3607  0.0395
  677TIP3    H1 1972   6.498   6.422   3.321  0.8866 -1.4942 -0.3840
  677TIP3    H2 1973   6.610   6.520   3.349 -2.1357  1.8603  0.6022
  678TIP3   OH2 1974   6.432   2.005   5.591 -0.3500 -0.1132 -0.2430
  678TIP3    H1 1975   6.422   1.965   5.504  0.5404  1.3992 -1.0877
  678TIP3    H2 1976   6.375   2.082   5.588  1.5181  1.3204 -0.4117
  679TIP3   OH2 1977   3.565   0.299   2.870  0.2393 -0.9668  0.4745
  679TIP3    H1 1978   3.490   0.357   2.854  1.0544  0.2581  0.9662
  679TIP3    H2 1979   3.602   0.282   2.784  0.7556  0.3140  0.4244
  680TIP3   OH2 1980   3.213   0.513   2.988  0.6429 -0.0912 -0.3477
  680TIP3    H1 1981   3.207   0.608   3.002 -0.1798 -0.3266  1.1044
  680TIP3    H2 1982   3.221   0.476   3.076 -0.3789 -1.4421 -0.7776
  681TIP3   OH2 1983   1.237   4.173   1.785  0.5178 -0.0614  0.0501
  681TIP3    H1 1984   1.290   4.197   1.709  1.2472  1.0182  0.8512
  681TIP3    H2 1985   1.147   4.191   1.758  0.8252  0.9756 -0.3432
  682TIP3   OH2 1986   1.930   5.655   6.480  0.1301  0.6270  0.3792
  682TIP3    H1 1987   1.883   5.708   6.416 -1.0207 -0.6634  0.1276
  682TIP3    H2 1988   1.957   5.577   6.432 -1.5515 -0.7968  1.6495
  683TIP3   OH2 1989   5.469   6.165   3.742 -0.0913 -0.3751  0.5415
  683TIP3    H1 1990   5.393   6.155   3.684  0.4004  2.0026 -0.6474
  683TIP3    H2 1991   5.434   6.206   3.821 -0.1016  0.7687 -0.0269
  684TIP3   OH2 1992   0.628   1.128   4.784 -0.2987 -0.3905  0.7415
  684TIP3    H1 1993   0.610   1.216   4.752  0.2508 -1.1074 -1.6961
  684TIP3    H2 1994   0.596   1.070   4.715  1.3496 -2.0175  1.2793
  685TIP3   OH2 1995   1.032   3.884   4.403 -0.3310 -0.1402  0.2983
  685TIP3    H1 1996   1.044   3.849   4.492 -0.2996  0.6816  0.6314
  685TIP3    H2 1997   0.945   3.855   4.378  0.0657 -1.2735  0.1652
  686TIP3   OH2 1998   0.219   5.080   0.907  0.5114  0.5233 -0.0211
  686TIP3    H1 1999   0.301   5.121   0.880  0.8056 -0.1174 -0.1311
  686TIP3    H2 2000   0.224   5.076   1.002  1.3350 -0.9300 -0.0907
  687TIP3   OH2 2001   6.257   6.219   0.529  0.1062 -0.0632 -0.4067
  687TIP3    H1 2002   6.285   6.134   0.494  0.5702 -0.4906  0.9436
  687TIP3    H2 2003   6.188   6.248   0.469 -0.7249 -1.8336 -0.3684
  688TIP3   OH2 2004   6.493   6.872   2.543  0.4223 -0.2260  0.6587
  688TIP3    H1 2005   6.577   6.896   2.505 -0.0351  0.2115 -0.0906
  688TIP3    H2 2006   6.501   6.779   2.562 -0.2594 -1.2080 -3.0793
  689TIP3   OH2 2007   3.169   1.570   5.571 -0.0826 -0.2919  0.1285
  689TIP3    H1 2008   3.138   1.654   5.537 -0.1387 -0.6034 -0.6165
  689TIP3    H2 2009   3.262   1.585   5.591 -0.1154 -0.0243  0.0881
  690TIP3   OH2 2010   1.479   3.160   2.070  0.2967 -0.6446 -0.0093
  690TIP3    H1 2011   1.556   3.106   2.085  0.6003 -1.1191 -2.8292
  690TIP3    H2 2012   1.420   3.106   2.019 -0.4479  0.8462 -0.8049
  691TIP3   OH2 2013   2.387   0.207   5.059 -0.1610  0.2124 -0.0754
  691TIP3    H1 2014   2.343   0.225   5.142  0.1782  1.8604 -0.2195
  691TIP3    H2 2015   2.462   0.267   5.057 -0.7951  1.0397 -2.0628
  692TIP3   OH2 2016   4.644   3.152   0.521 -0.4176 -0.0435  0.4181
  692TIP3    H1 2017   4.688   3.068   0.518 -0.9982 -0.3635  0.7685
  692TIP3    H2 2018   4.553   3.131   0.539 -0.7651  0.5930 -0.5098
  693TIP3   OH2 2019   0.462   7.656   4.722 -0.4139  0.2692 -0.2857
  693TIP3    H1 2020   0.535   7.718   4.719 -0.2192  0.0153 -0.9738
  693TIP3    H2 2021   0.388   7.708   4.754 -0.1812  0.7892 -0.5749
  694TIP3   OH2 2022   6.779   1.189   5.023 -0.4838  0.0704 -0.0088
  694TIP3    H1 2023   6.730   1.118   5.065  0.9755 -0.6641  0.5097
  694TIP3    H2 2024   6.850   1.209   5.084  0.8356 -0.0132 -1.4504
  695TIP3   OH2 2025   8.018   1.869   6.366  0.3982  0.1330 -0.2129
  695TIP3    H1 2026   7.945   1.930   6.376 -0.2874 -0.9574  2.2257
  695TIP3    H2 2027   7.978   1.782   6.374  1.8257 -0.5022  0.3285
  696TIP3   OH2 2028   2.272   2.208   0.669  0.2143  0.1411 -0.0105
  696TIP3    H1 2029   2.186   2.211   0.628 -0.2955 -1.2486  0.8896
  696TIP3    H2 2030   2.333   2.225   0.598 -0.6575 -1.7863 -1.2921
  697TIP3   OH2 2031   7.348   6.136   4.342  0.2787 -0.3541 -0.0374
  697TIP3    H1 2032   7.334   6.176   4.256 -0.7577 -0.0707  0.2478
  697TIP3    H2 2033   7.436   6.098   4.337  1.0229  1.3573 -0.5488
  698TIP3   OH2 2034   5.530   5.408   6.664 -0.4817  0.0151 -0.4386
  698TIP3    H1 2035   5.496   5.371   6.745  0.0424  0.2792 -0.0872
  698TIP3    H2 2036   5.625   5.405   6.675 -0.3816 -0.5708 -1.3308
  699TIP3   OH2 2037   6.336   0.386   1.196  0.3783  0.0830  0.3257
  699TIP3    H1 2038   6.340   0.381   1.100  1.9008  1.3404  0.2838
  699TIP3    H2 2039   6.299   0.472   1.214  1.0835  0.2754  0.8671
  700TIP3   OH2 2040   5.979   7.340   1.900 -0.3057 -0.2887  0.3847
  700TIP3    H1 2041   6.068   7.365   1.927  0.2084  0.1597 -1.5559
  700TIP3    H2 2042   5.936   7.424   1.882  0.2020 -0.5681 -2.5120
  701TIP3   OH2 2043   5.463   1.692   0.599 -0.1533  0.7415 -0.0119
  701TIP3    H1 2044   5.370   1.694   0.620  0.1218  0.5728  1.3006
  701TIP3    H2 2045   5.498   1.773   0.637  0.4278  0.2515  0.5252
  702TIP3   OH2 2046   2.278   0.993   6.037 -0.4458  0.3669 -0.1427
  702TIP3    H1 2047   2.361   1.003   5.990  0.4815 -0.3697  1.2584
  702TIP3    H2 2048   2.233   1.076   6.024  0.6435  0.8947 -0.6797
  703TIP3   OH2 2049   2.319   6.139   2.806  0.3319 -0.5828 -0.5959
  703TIP3    H1 2050   2.257   6.210   2.823 -0.0952 -1.0577 -0.1032
  703TIP3    H2 2051   2.264   6.061   2.799  0.7976 -0.8793 -1.0889
  704TIP3   OH2 2052   4.771   3.689   6.735 -0.8341  0.1049 -0.4600
  704TIP3    H1 2053   4.765   3.762   6.796 -3.0274  0.3965 -0.9698
  704TIP3    H2 2054   4.689   3.641   6.745  0.9089 -2.9161  0.5602
  705TIP3   OH2 2055   0.580   4.584   5.743  0.0661 -0.2470 -0.1010
  705TIP3    H1 2056   0.583   4.667   5.694  1.3175 -0.2798 -0.1276
  705TIP3    H2 2057   0.546   4.521   5.680  0.2318  0.0171 -0.4614
  706TIP3   OH2 2058   6.786   3.962   4.798  0.0047  0.7601 -0.3977
  706TIP3    H1 2059   6.762   4.007   4.716  1.0554  0.4497 -0.8956
  706TIP3    H2 2060   6.855   3.902   4.773 -0.9796 -0.7691  0.3716
  707TIP3   OH2 2061   5.624   5.984   2.015  0.3429 -0.5487  0.0520
  707TIP3    H1 2062   5.590   5.927   2.084 -0.8124  0.9358  0.7643
  707TIP3    H2 2063   5.562   5.972   1.942 -0.1706  0.1099  0.3685
  708TIP3   OH2 2064   5.969   4.794   2.796 -0.3820 -0.5487 -0.1814
  708TIP3    H1 2065   5.938   4.732   2.863 -0.9552  0.8261  0.8734
  708TIP3    H2 2066   6.048   4.833   2.834 -0.6653  0.1860 -0.3262
  709TIP3   OH2 2067   8.337   5.391   0.038 -0.4352 -0.5536  0.1367
  709TIP3    H1 2068   8.310   5.316   0.090 -1.3096 -0.2307  0.1593
  709TIP3    H2 2069   8.427   5.370   0.011  0.4103 -0.3284  2.5202
  710TIP3   OH2 2070   1.380   5.451   5.713  0.8954  0.4794 -0.1365
  710TIP3    H1 2071   1.299   5.501   5.705  0.4334  0.0939  1.6307
  710TIP3    H2 2072   1.369   5.377   5.653 -0.7255 -0.3509  1.0769
  711TIP3   OH2 2073   5.004   3.116   6.495 -0.3228 -0.1945  0.1956
  711TIP3    H1 2074   5.079   3.067   6.527 -0.8973 -0.7045  0.7692
  711TIP3    H2 2075   5.040   3.169   6.423  0.9573  0.8626  1.5389
  712TIP3   OH2 2076   2.139   2.968   5.225 -0.2850  0.4695 -0.0091
  712TIP3    H1 2077   2.198   2.898   5.196 -1.1256 -0.7663  1.1310
  712TIP3    H2 2078   2.052   2.936   5.201 -0.6348  1.4247 -0.0278
  713TIP3   OH2 2079   1.748   4.524   1.310  0.5715 -0.4137  0.1367
  713TIP3    H1 2080   1.692   4.471   1.253  0.9900  0.5535 -1.2427
  713TIP3    H2 2081   1.771   4.600   1.256 -0.6285  1.6060  2.2647
  714TIP3   OH2 2082   3.354   4.184   5.842 -0.5222 -0.4209  0.1102
  714TIP3    H1 2083   3.344   4.184   5.747 -0.4909 -1.3838  0.1032
  714TIP3    H2 2084   3.419   4.253   5.859  1.9625 -2.3940 -0.8541
  715TIP3   OH2 2085   7.365   2.525   2.386  0.3515  0.3157 -0.3251
  715TIP3    H1 2086   7.343   2.552   2.296  1.1687 -0.9273 -0.9211
  715TIP3    H2 2087   7.415   2.444   2.375  0.5278  0.1876  1.2612
  716TIP3   OH2 2088   3.020   0.782   5.398 -0.5741 -0.2688  0.1490
  716TIP3    H1 2089   3.030   0.819   5.310  1.7760 -0.5910  0.2092
  716TIP3    H2 2090   2.989   0.855   5.451 -0.3515  0.4065 -0.6256
  717TIP3   OH2 2091   0.991   6.704   6.648 -0.0370  0.2487  0.3612
  717TIP3    H1 2092   1.017   6.661   6.566 -1.2685  1.9594 -0.9936
  717TIP3    H2 2093   1.074   6.728   6.690  0.6258  0.7657 -1.1837
  718TIP3   OH2 2094   3.226   3.400   6.200  0.3170 -0.1060 -0.1765
  718TIP3    H1 2095   3.192   3.490   6.200 -0.2281 -0.3086  0.3070
  718TIP3    H2 2096   3.222   3.373   6.291  0.2593 -0.7113 -0.3587
  719TIP3   OH2 2097   3.547   3.580   2.649  0.1041 -0.6852 -0.4029
  719TIP3    H1 2098   3.518   3.491   2.633 -2.2844  0.1160 -0.9865
  719TIP3    H2 2099   3.512   3.602   2.735  0.2431 -0.1349 -0.4829
  720TIP3   OH2 2100   4.681   3.854   4.906  0.1600 -0.2020 -0.0734
  720TIP3    H1 2101   4.651   3.832   4.995  0.3127  0.9427  0.2793
  720TIP3    H2 2102   4.687   3.770   4.861 -2.0233 -0.6450  0.3370
  721TIP3   OH2 2103   7.603   1.256   3.217  0.1097  0.1944 -0.1650
  721TIP3    H1 2104   7.672   1.276   3.154  0.4018  0.0831  0.1159
  721TIP3    H2 2105   7.593   1.161   3.213 -1.4033  0.3722 -1.6298
  722TIP3   OH2 2106   1.861   6.019   6.284  0.1223 -0.3321  0.0408
  722TIP3    H1 2107   1.811   5.954   6.333 -0.6616  0.1759 -0.0686
  722TIP3    H2 2108   1.913   5.968   6.222 -0.6361 -0.8416 -0.1812
  723TIP3   OH2 2109   4.412   5.795   0.129 -0.0428 -0.5915  0.0379
  723TIP3    H1 2110   4.343   5.835   0.076  1.0537  1.4669  0.0640
  723TIP3    H2 2111   4.390   5.820   0.219  0.6248 -0.0427  0.0596
  724TIP3   OH2 2112   2.337   5.460   1.153 -0.5831 -0.4440  0.2070
  724TIP3    H1 2113   2.280   5.467   1.076 -2.0668 -1.6218  1.1461
  724TIP3    H2 2114   2.425   5.459   1.117 -1.2546 -1.4677 -1.5432
  725TIP3   OH2 2115   1.426   6.901   0.775  0.2149 -0.2227 -0.0019
  725TIP3    H1 2116   1.446   6.875   0.685  0.4333 -1.0820  0.2835
  725TIP3    H2 2117   1.459   6.829   0.828  1.6451  1.0412  0.9012
  726TIP3   OH2 2118   6.264   6.823   0.634 -0.2969  0.0774  0.2275
  726TIP3    H1 2119   6.271   6.819   0.729  0.1986 -0.0158  0.1886
  726TIP3    H2 2120   6.199   6.755   0.612 -1.3866  0.9635  0.5906
  727TIP3   OH2 2121   4.857   7.428   1.393  0.1116  0.2715  0.0198
  727TIP3    H1 2122   4.929   7.365   1.401  0.2290  0.4823  0.7813
  727TIP3    H2 2123   4.900   7.513   1.401  0.1319  0.5302 -2.3166
  728TIP3   OH2 2124   7.403   6.418   4.545  0.2676 -0.1171 -0.0115
  728TIP3    H1 2125   7.451   6.341   4.577  1.4346  0.9818  0.9823
  728TIP3    H2 2126   7.386   6.399   4.453 -0.6031 -2.1028  0.5007
  729TIP3   OH2 2127   5.320   4.151   2.158  0.5734  0.1919 -0.5449
  729TIP3    H1 2128   5.394   4.091   2.157  0.5462  0.1302  0.3475
  729TIP3    H2 2129   5.359   4.238   2.162  0.6289  0.3037 -2.6169
  730TIP3   OH2 2130   3.276   6.927   3.752 -0.4729  0.3410  0.1459
  730TIP3    H1 2131   3.209   6.958   3.691 -0.4619 -0.9962 -0.5670
  730TIP3    H2 2132   3.235   6.853   3.797  0.6710 -0.7807 -0.6220
  731TIP3   OH2 2133   3.739   2.964   5.519 -0.1104 -0.6832  0.6995
  731TIP3    H1 2134   3.669   3.027   5.534  0.1912 -0.1075 -0.1979
  731TIP3    H2 2135   3.756   2.926   5.605 -1.5837 -0.9152  0.9096
  732TIP3   OH2 2136   4.999   5.077   1.473 -0.5396  0.5245  0.2328
  732TIP3    H1 2137   5.022   4.999   1.525  0.5719  0.2866 -0.5827
  732TIP3    H2 2138   4.991   5.044   1.383  1.4600  1.5703 -0.3894
  733TIP3   OH2 2139   0.983   7.817   1.652  0.2448 -0.1394 -0.5057
  733TIP3    H1 2140   0.911   7.766   1.614 -1.1437  0.2268  1.5044
  733TIP3    H2 2141   0.979   7.901   1.607  0.6076 -0.7238 -1.6783
  734TIP3   OH2 2142   0.044   5.171   5.414 -0.4630 -0.1882  0.2533
  734TIP3    H1 2143   0.022   5.175   5.321  1.0100 -1.5268 -0.2076
  734TIP3    H2 2144  -0.040   5.170   5.459 -1.2098  1.2655 -0.9893
  735TIP3   OH2 2145   3.228   4.482   6.062 -0.8266 -0.1197  0.2975
  735TIP3    H1 2146   3.139   4.501   6.090 -0.2584  2.6287  0.5023
  735TIP3    H2 2147   3.283   4.504   6.137  0.0533 -2.0032  0.2642
  736TIP3   OH2 2148   3.196   5.957   2.071  0.4716 -0.7598  0.6164
  736TIP3    H1 2149   3.151   5.931   2.151 -1.6229 -1.2152 -0.6387
  736TIP3    H2 2150   3.192   6.053   2.071 -1.6119 -0.7927  0.0049
  737TIP3   OH2 2151   1.179   3.884   6.475  0.2404  0.4653  0.8598
  737TIP3    H1 2152   1.089   3.875   6.443  0.3840 -0.7448  0.7490
  737TIP3    H2 2153   1.171   3.876   6.570  0.4561 -2.2666  0.7349
  738TIP3   OH2 2154   1.461   2.014   3.561 -0.5218  0.1144  0.5499
  738TIP3    H1 2155   1.397   2.013   3.490  0.2853 -0.1508 -0.2014
  738TIP3    H2 2156   1.409   2.013   3.641 -1.4482  0.0382 -0.0403
  739TIP3   OH2 2157   2.459   6.205   2.248 -0.3591 -0.4622  0.2759
  739TIP3    H1 2158   2.414   6.233   2.168  1.2107 -1.0065 -0.8691
  739TIP3    H2 2159   2.389   6.191   2.312 -1.6015  0.7310 -0.7632
  740TIP3   OH2 2160   7.465   7.870   2.254 -0.1162  0.8809 -0.1792
  740TIP3    H1 2161   7.447   7.785   2.213 -0.5328  1.2950 -0.8922
  740TIP3    H2 2162   7.510   7.920   2.186  0.7589  0.9963  0.4762
  741TIP3   OH2 2163   0.312   7.598   2.331  0.0526  0.5119  0.1720
  741TIP3    H1 2164   0.400   7.576   2.302  0.0861  1.6933 -0.6982
  741TIP3    H2 2165   0.287   7.526   2.390  0.8073 -0.8861 -1.1424
  742TIP3   OH2 2166   2.078   5.256   2.685  0.2413 -0.1086 -0.0621
  742TIP3    H1 2167   2.043   5.333   2.730 -1.3435 -1.7065  1.6085
  742TIP3    H2 2168   2.166   5.282   2.659  0.6876  1.4783  2.6329
  743TIP3   OH2 2169   7.124   3.194   4.830 -0.3317  0.2204 -0.6172
  743TIP3    H1 2170   7.181   3.265   4.858  0.2074 -0.6424  0.5503
  743TIP3    H2 2171   7.051   3.238   4.786 -0.1454  1.5067  0.3036
  744TIP3   OH2 2172   1.828   6.342   2.185  0.0238 -0.0797  0.1593
  744TIP3    H1 2173   1.843   6.250   2.206 -2.9099 -1.0423 -1.3010
  744TIP3    H2 2174   1.830   6.387   2.269 -1.9518 -2.1413  1.4288
  745TIP3   OH2 2175   5.781   7.783   6.210 -0.0196 -0.2575  0.6308
  745TIP3    H1 2176   5.768   7.874   6.236 -1.8696 -0.3849  0.3102
  745TIP3    H2 2177   5.859   7.785   6.154 -1.5078  1.6279 -1.5810
  746TIP3   OH2 2178   2.781   5.488   5.509 -0.1253 -0.7216 -0.2840
  746TIP3    H1 2179   2.873   5.489   5.535  0.0148 -0.2065 -0.7803
  746TIP3    H2 2180   2.735   5.450   5.584  0.4301 -0.5331  0.1580
  747TIP3   OH2 2181   4.261   1.944   2.274 -1.1526 -0.1036  0.6199
  747TIP3    H1 2182   4.266   1.865   2.220  0.8269 -0.9706  1.9505
  747TIP3    H2 2183   4.256   2.016   2.211 -0.1965 -1.1379 -0.7035
  748TIP3   OH2 2184   7.253   0.039   4.111  0.2747 -0.0528  0.1113
  748TIP3    H1 2185   7.232   0.089   4.033  2.2261 -0.6600 -0.8532
  748TIP3    H2 2186   7.172  -0.009   4.131 -0.0067 -0.5855 -2.0775
  749TIP3   OH2 2187   4.419   1.737   5.601  0.7109 -0.3872 -0.7718
  749TIP3    H1 2188   4.334   1.782   5.603 -0.3239 -2.2265 -0.4615
  749TIP3    H2 2189   4.405   1.663   5.542  1.5715 -1.6690  0.5613
  750TIP3   OH2 2190   0.657   2.579   6.383  0.0048  0.1484 -0.9596
  750TIP3    H1 2191   0.706   2.595   6.464 -0.9060 -1.1496 -0.0927
  750TIP3    H2 2192   0.603   2.502   6.404 -1.3057  0.6564 -2.3476
  751TIP3   OH2 2193   4.973   1.272   0.513 -0.0881  0.1962  0.7369
  751TIP3    H1 2194   5.021   1.278   0.596 -1.7344 -1.6508  1.9123
  751TIP3    H2 2195   4.928   1.188   0.517  0.0485 -0.1456 -2.2369
  752TIP3   OH2 2196   5.175   1.380   0.364 -0.1581 -0.2952 -0.6344
  752TIP3    H1 2197   5.101   1.349   0.416 -0.1577 -0.5224 -0.7647
  752TIP3    H2 2198   5.240   1.409   0.428 -0.9278  1.2925 -0.5238
  753TIP3   OH2 2199   4.988   3.993   2.162  0.3776 -0.2103  0.0486
  753TIP3    H1 2200   4.922   3.968   2.097 -1.3001  0.6293  1.3388
  753TIP3    H2 2201   4.977   4.088   2.173 -0.9880 -0.5796  3.0748
  754TIP3   OH2 2202   1.709   1.024   0.153  0.0385 -0.5718 -0.2397
  754TIP3    H1 2203   1.663   0.976   0.084 -2.3417 -2.2919  2.3118
  754TIP3    H2 2204   1.792   0.978   0.163  0.5747 -0.0664 -2.1430
  755TIP3   OH2 2205   6.949   5.561   1.727  0.2413 -0.1545  0.6467
  755TIP3    H1 2206   6.999   5.626   1.679  1.8096 -1.7265  0.0502
  755TIP3    H2 2207   7.004   5.539   1.802 -0.3654 -0.6445  0.9605
  756TIP3   OH2 2208   3.266   2.386   1.115 -0.2834  0.2718  0.5449
  756TIP3    H1 2209   3.182   2.363   1.074  1.1143 -0.3519 -2.1624
  756TIP3    H2 2210   3.324   2.312   1.095  1.5890  1.7484  0.2394
  757TIP3   OH2 2211   2.397   3.476   2.028 -0.9862 -0.1216 -0.3753
  757TIP3    H1 2212   2.353   3.528   2.095  0.5718  0.3131  0.3741
  757TIP3    H2 2213   2.343   3.398   2.019 -1.2565 -0.1993  1.4266
  758TIP3   OH2 2214   6.193   5.219   4.721  0.0395 -0.2338  0.4056
  758TIP3    H1 2215   6.263   5.245   4.662 -1.4818  0.6666 -1.1130
  758TIP3    H2 2216   6.187   5.124   4.713  1.6231 -0.4221  1.2299
  759TIP3   OH2 2217   7.571   5.857   5.005  0.2396 -0.4109 -0.4811
  759TIP3    H1 2218   7.607   5.883   5.089  0.1659 -2.7944  0.3515
  759TIP3    H2 2219   7.579   5.761   5.003  0.4060 -0.4317 -3.2597
  760TIP3   OH2 2220   2.421   6.178   3.453 -0.6165 -0.1525  0.4931
  760TIP3    H1 2221   2.439   6.267   3.421  1.4082 -0.1368  1.5283
  760TIP3    H2 2222   2.421   6.125   3.374  0.0691  0.4946  0.0420
  761TIP3   OH2 2223   4.737   4.398   0.798  0.4044 -0.3835 -0.2495
  761TIP3    H1 2224   4.814   4.430   0.845 -0.5047  1.1019  0.3380
  761TIP3    H2 2225   4.760   4.405   0.706  0.8189  0.4925 -0.0910
  762TIP3   OH2 2226   8.323   2.811   1.085  0.2508  0.5354  0.6659
  762TIP3    H1 2227   8.382   2.760   1.030 -1.0068  0.8268 -1.0372
  762TIP3    H2 2228   8.326   2.768   1.171  0.9536 -0.9921 -0.0978
  763TIP3   OH2 2229   2.781   7.563   0.722 -0.0376 -0.1792 -0.1357
  763TIP3    H1 2230   2.846   7.493   0.725 -0.5368 -0.6866 -0.8136
  763TIP3    H2 2231   2.697   7.517   0.713 -0.3028  0.5357 -1.5024
  764TIP3   OH2 2232   7.758   4.127   6.658 -0.0970  0.3167 -0.2221
  764TIP3    H1 2233   7.827   4.060   6.657 -0.7155 -0.3858  0.9441
  764TIP3    H2 2234   7.773   4.179   6.579  1.3943 -0.1881 -0.3001
  765TIP3   OH2 2235   5.620   1.745   3.584 -0.1197  0.0988  0.3666
  765TIP3    H1 2236   5.664   1.827   3.603  1.4908 -0.5630 -0.3856
  765TIP3    H2 2237   5.554   1.768   3.519 -0.2411  0.9254  0.7645
  766TIP3   OH2 2238   7.177   3.460   4.273 -0.3124  0.4628  0.5374
  766TIP3    H1 2239   7.207   3.469   4.364 -1.3972  1.2987  0.8329
  766TIP3    H2 2240   7.227   3.524   4.224  2.0083 -1.5663  0.0486
  767TIP3   OH2 2241   4.316   4.712   5.639  0.2677  0.1532  0.0540
  767TIP3    H1 2242   4.279   4.630   5.607  1.7703 -0.0186 -1.3643
  767TIP3    H2 2243   4.298   4.711   5.733 -2.6546 -0.2183 -0.4062
  768TIP3   OH2 2244   2.476   1.319   1.271  0.1099 -0.0125  0.5675
  768TIP3    H1 2245   2.494   1.283   1.358  1.2424 -1.1233 -0.0917
  768TIP3    H2 2246   2.417   1.255   1.231 -2.9824  1.9918  1.5381
  769TIP3   OH2 2247   8.118   7.056   5.502 -0.3598 -0.1087 -0.1277
  769TIP3    H1 2248   8.023   7.063   5.512 -0.9284 -4.8755 -0.0029
  769TIP3    H2 2249   8.150   7.041   5.591  0.2098 -0.5005 -0.3948
  770TIP3   OH2 2250   7.993   7.768   3.381  0.2069  0.5280 -0.5035
  770TIP3    H1 2251   7.953   7.772   3.295 -0.0528  0.1904 -0.4012
  770TIP3    H2 2252   7.991   7.858   3.413 -0.5563  0.4973 -0.4596
  771TIP3   OH2 2253   7.074   6.248   5.460  0.3298  0.0259  0.5972
  771TIP3    H1 2254   7.130   6.325   5.449 -0.1997  0.2487 -0.6938
  771TIP3    H2 2255   6.987   6.283   5.478 -0.2656 -0.1691 -1.5742
  772TIP3   OH2 2256   1.521   3.701   3.188 -0.0310 -0.0793 -1.2805
  772TIP3    H1 2257   1.458   3.768   3.213 -0.1699 -0.7289  0.2444
  772TIP3    H2 2258   1.589   3.748   3.141 -0.1910  1.1294 -0.3606
  773TIP3   OH2 2259   0.228   7.266   5.199  0.1242  0.0600  0.3755
  773TIP3    H1 2260   0.228   7.333   5.131 -0.1249  0.8974  1.1824
  773TIP3    H2 2261   0.313   7.275   5.242 -0.0354  0.0695  0.6925
  774TIP3   OH2 2262   6.327   1.696   0.134 -0.0552  0.2932 -0.5675
  774TIP3    H1 2263   6.296   1.786   0.139  0.0025  0.2615  0.7926
  774TIP3    H2 2264   6.380   1.684   0.213  1.1101 -0.5153 -1.4229
  775TIP3   OH2 2265   6.541   5.715   1.834 -0.3627  0.2716  0.2122
  775TIP3    H1 2266   6.561   5.726   1.927 -1.1486 -1.6381  0.6597
  775TIP3    H2 2267   6.447   5.730   1.828  0.0092  2.6065 -0.7129
  776TIP3   OH2 2268   5.529   0.852   5.665 -0.2304 -0.0652 -0.1858
  776TIP3    H1 2269   5.488   0.866   5.750 -0.1391 -1.4137  0.1076
  776TIP3    H2 2270   5.622   0.837   5.686 -0.6960 -3.9352 -0.0367
  777TIP3   OH2 2271   4.978   7.953   2.888  0.0903 -0.2151 -0.0699
  777TIP3    H1 2272   5.029   7.901   2.950 -0.0724 -0.3624 -0.0615
  777TIP3    H2 2273   4.899   7.902   2.872  0.1502 -0.1998 -0.4319
  778TIP3   OH2 2274   6.125   2.109   2.478  0.0194  0.3591  0.1692
  778TIP3    H1 2275   6.091   2.181   2.425 -0.4321 -0.2290 -0.3563
  778TIP3    H2 2276   6.195   2.148   2.530 -0.2737  1.1911 -0.0494
  779TIP3   OH2 2277   4.176   7.823   0.642  0.7455 -0.2066  0.5278
  779TIP3    H1 2278   4.101   7.882   0.652  1.3639  0.4796  1.2278
  779TIP3    H2 2279   4.230   7.839   0.719  0.1424 -2.8849  1.6146
  780TIP3   OH2 2280   1.866   5.283   5.365  0.0039  0.3737 -0.1606
  780TIP3    H1 2281   1.809   5.291   5.442  0.8116  2.5935  0.2955
  780TIP3    H2 2282   1.856   5.366   5.319 -0.0286 -0.6959 -2.1945
  781TIP3   OH2 2283   7.213   1.907   0.104  0.5203 -0.3267 -1.1483
  781TIP3    H1 2284   7.257   1.865   0.030  0.7190 -1.8083 -0.2200
  781TIP3    H2 2285   7.277   1.971   0.136  0.9844 -0.6670 -1.3804
  782TIP3   OH2 2286   1.684   5.714   3.733  1.1233  0.0036 -0.1635
  782TIP3    H1 2287   1.707   5.724   3.825  1.3568  2.8127 -0.4229
  782TIP3    H2 2288   1.757   5.667   3.695  0.8512 -1.5241  1.1185
  783TIP3   OH2 2289   7.694   7.488   1.028  0.4023 -0.0536 -0.1322
  783TIP3    H1 2290   7.668   7.565   1.079 -0.1523 -1.0732  1.1779
  783TIP3    H2 2291   7.788   7.478   1.046  0.1605 -0.5494  0.9305
  784TIP3   OH2 2292   7.881   6.336   1.849  0.1280 -0.7812  0.2318
  784TIP3    H1 2293   7.913   6.425   1.835  1.0344 -1.4779 -2.6226
  784TIP3    H2 2294   7.905   6.317   1.940  1.1893  1.3590  0.4714
  785TIP3   OH2 2295   2.312   3.108   0.895  0.1602 -0.0695  0.2817
  785TIP3    H1 2296   2.248   3.173   0.925 -0.0650 -0.5073  0.7414
  785TIP3    H2 2297   2.314   3.120   0.800 -2.5997 -1.8306 -0.1145
  786TIP3   OH2 2298   2.074   5.302   1.031  0.6918 -0.2432 -0.7622
  786TIP3    H1 2299   2.089   5.214   0.996  0.5514 -0.0755 -1.2477
  786TIP3    H2 2300   1.982   5.320   1.012  0.3100 -0.5756  0.6573
  787TIP3   OH2 2301   6.551   1.489   3.720 -0.1862  0.1744  0.1537
  787TIP3    H1 2302   6.603   1.466   3.797  0.8743 -1.9190 -1.0951
  787TIP3    H2 2303   6.583   1.430   3.651  1.3671  4.1646 -2.9369
  788TIP3   OH2 2304   5.498   0.796   3.356 -0.5031 -0.2033 -0.3356
  788TIP3    H1 2305   5.552   0.786   3.278  0.5879 -0.7229  0.4598
  788TIP3    H2 2306   5.428   0.855   3.329  0.9621  1.2470 -1.1455
  789TIP3   OH2 2307   8.107   2.163   5.929 -0.4191  0.0290  0.1358
  789TIP3    H1 2308   8.153   2.164   5.845 -1.0133  0.3292 -0.1958
  789TIP3    H2 2309   8.155   2.225   5.984 -0.4866  0.4212 -0.2405
  790TIP3   OH2 2310   8.039   6.536   3.913  0.0566  0.5107  0.3463
  790TIP3    H1 2311   8.060   6.587   3.836  1.1586  0.4322  0.5767
  790TIP3    H2 2312   8.021   6.601   3.981 -1.1235  0.5821 -0.0002
  791TIP3   OH2 2313   7.136   5.461   5.064 -0.3116  0.6423  0.0388
  791TIP3    H1 2314   7.074   5.389   5.077 -0.3062  0.5264 -0.5159
  791TIP3    H2 2315   7.150   5.462   4.969  1.4068 -0.0853  0.2372
  792TIP3   OH2 2316   3.943   1.646   4.520  0.9102  0.1813  0.2522
  792TIP3    H1 2317   3.907   1.723   4.476  1.8083  0.4857  0.0401
  792TIP3    H2 2318   3.931   1.575   4.457 -0.1846  0.0677  0.5596
  793TIP3   OH2 2319   3.662   1.007   3.965  0.6993  0.2157  0.0696
  793TIP3    H1 2320   3.725   0.983   4.033 -1.0107  1.8991  2.3684
  793TIP3    H2 2321   3.593   0.941   3.971  0.4824  0.4389  0.0387
  794TIP3   OH2 2322   3.131   5.857   6.661 -0.5041  0.0759 -0.1512
  794TIP3    H1 2323   3.159   5.915   6.731  1.6088  1.0526 -1.6911
  794TIP3    H2 2324   3.054   5.811   6.696 -0.0248  1.1141  2.4348
  795TIP3   OH2 2325   1.874   3.504   2.812 -0.1999 -0.0508  0.3909
  795TIP3    H1 2326   1.881   3.598   2.830 -1.8310  0.6446 -2.0128
  795TIP3    H2 2327   1.813   3.472   2.878 -2.1832  1.3391 -0.6405
  796TIP3   OH2 2328   3.281   2.200   0.230 -0.2893  0.6166  0.6602
  796TIP3    H1 2329   3.187   2.184   0.232  0.1924 -2.9074  1.5014
  796TIP3    H2 2330   3.305   2.187   0.138 -0.3325 -1.0069  0.8531
  797TIP3   OH2 2331   7.534   0.739   3.565  0.1109  0.0296  0.4461
  797TIP3    H1 2332   7.466   0.673   3.555 -0.7297  1.1373 -1.6871
  797TIP3    H2 2333   7.496   0.819   3.528  2.0301  1.0706  0.5750
  798TIP3   OH2 2334   0.795   6.934   6.090 -0.1113  0.4561 -0.2198
  798TIP3    H1 2335   0.865   6.997   6.103  0.3454 -0.4608  2.3881
  798TIP3    H2 2336   0.838   6.857   6.054 -0.0749  0.5111 -0.2912
  799TIP3   OH2 2337   6.977   2.489   4.153 -0.6544  0.2636 -0.2344
  799TIP3    H1 2338   7.029   2.478   4.233 -0.7950 -0.0058 -0.1787
  799TIP3    H2 2339   6.921   2.411   4.150 -0.3188  0.0441 -0.8451
  800TIP3   OH2 2340   7.756   1.010   4.528  0.4354  0.4647 -0.3601
  800TIP3    H1 2341   7.776   0.920   4.503  2.3047  0.9332 -0.7150
  800TIP3    H2 2342   7.767   1.012   4.623  0.5969  0.3664 -0.3766
  801TIP3   OH2 2343   0.870   4.875   0.467  0.4007  0.2208  0.4490
  801TIP3    H1 2344   0.825   4.897   0.549  1.2472 -2.2854  1.6802
  801TIP3    H2 2345   0.950   4.928   0.469  0.9505 -0.6013  1.8319
  802TIP3   OH2 2346   7.308   3.146   5.111 -0.7556  0.2637 -0.6145
  802TIP3    H1 2347   7.318   3.075   5.046 -1.2473 -0.3496 -0.0355
  802TIP3    H2 2348   7.217   3.139   5.140 -0.0584 -0.7411  1.5683
  803TIP3   OH2 2349   5.496   2.623   6.281 -0.6553  0.0014  0.4610
  803TIP3    H1 2350   5.568   2.599   6.340 -0.5692 -1.7387 -0.2987
  803TIP3    H2 2351   5.422   2.570   6.311 -0.7010 -0.6651 -0.7692
  804TIP3   OH2 2352   2.372   4.054   2.806 -0.0001 -0.5791  0.1951
  804TIP3    H1 2353   2.316   4.005   2.866 -0.6627  0.9914  0.9137
  804TIP3    H2 2354   2.325   4.053   2.723 -0.8690  0.2895  0.6621
  805TIP3   OH2 2355   4.537   0.173   2.980  0.2939  0.4949 -0.1925
  805TIP3    H1 2356   4.508   0.083   2.992 -0.1067  0.6834  0.2970
  805TIP3    H2 2357   4.471   0.212   2.923  0.7893  0.3198 -0.8993
  806TIP3   OH2 2358   1.464   6.678   2.601  0.3700  0.3295  0.0924
  806TIP3    H1 2359   1.490   6.593   2.564  1.4297  1.0242 -0.8181
  806TIP3    H2 2360   1.532   6.738   2.572  0.1474  1.3110  1.5425
  807TIP3   OH2 2361   5.439   5.422   4.361 -0.3047  0.5129 -0.1490
  807TIP3    H1 2362   5.446   5.327   4.355  0.9427  0.5207  0.9110
  807TIP3    H2 2363   5.495   5.455   4.290  0.2330  0.4594  0.2462
  808TIP3   OH2 2364  -0.006   3.643   2.200  0.4540 -0.3332 -0.1556
  808TIP3    H1 2365   0.005   3.736   2.220 -1.1014 -0.4317  1.3787
  808TIP3    H2 2366   0.023   3.598   2.280  1.7882 -1.2407 -1.0960
  809TIP3   OH2 2367   7.482   4.238   0.531 -0.0954 -0.1436  0.0259
  809TIP3    H1 2368   7.541   4.163   0.535  0.4404  0.3180  1.6054
  809TIP3    H2 2369   7.534   4.307   0.491 -0.5209 -0.5256 -1.2329
  810TIP3   OH2 2370   1.201   6.726   2.595 -0.3341  0.0786  0.6392
  810TIP3    H1 2371   1.161   6.654   2.644 -1.5288 -0.1389 -0.6183
  810TIP3    H2 2372   1.295   6.713   2.606 -0.5453 -1.3427  0.8945
  811TIP3   OH2 2373   1.330   4.727   1.951  0.0745  0.1243 -0.6695
  811TIP3    H1 2374   1.256   4.768   1.997  1.1018 -0.3874  1.5885
  811TIP3    H2 2375   1.386   4.800   1.927 -0.1628  0.3587 -0.5204
  812TIP3   OH2 2376   5.262   0.848   0.096 -0.0359 -0.2457 -0.8148
  812TIP3    H1 2377   5.221   0.822   0.178  0.1855  0.6532 -0.4171
  812TIP3    H2 2378   5.355   0.831   0.108 -0.2918 -3.0751 -2.0113
  813TIP3   OH2 2379   5.754   0.185   3.775 -0.0882 -0.6928 -0.4728
  813TIP3    H1 2380   5.725   0.195   3.866  2.1140 -0.7098  0.3117
  813TIP3    H2 2381   5.717   0.101   3.747 -0.1431 -1.0936  0.7189
  814TIP3   OH2 2382   5.363   5.582   0.352  0.3322  0.2930 -0.3470
  814TIP3    H1 2383   5.434   5.520   0.333 -0.8145 -1.6864  1.3452
  814TIP3    H2 2384   5.404   5.651   0.404  1.5210  0.7163 -1.7553
  815TIP3   OH2 2385   0.035   0.029   5.946  0.2055  0.1402 -0.2124
  815TIP3    H1 2386   0.113   0.052   5.997 -1.6616 -0.0033  2.9945
  815TIP3    H2 2387   0.050  -0.060   5.917  1.2055  0.0791  0.4509
  816TIP3   OH2 2388   5.887   2.698   5.819 -0.3721 -0.4298 -0.0012
  816TIP3    H1 2389   5.949   2.631   5.791  0.3591  0.9481 -1.8892
  816TIP3    H2 2390   5.801   2.656   5.810  0.0098 -0.9082 -1.9840
  817TIP3   OH2 2391   6.959   1.483   4.904 -0.4844 -0.2546 -0.0973
  817TIP3    H1 2392   7.042   1.445   4.932  0.1908 -0.2575 -1.9382
  817TIP3    H2 2393   6.983   1.546   4.836 -1.9530  0.0777 -0.3506
  818TIP3   OH2 2394   3.687   3.155   4.555 -0.4608  0.0584  0.6709
  818TIP3    H1 2395   3.638   3.098   4.495  1.7826 -0.1028 -1.1349
  818TIP3    H2 2396   3.778   3.148   4.526  0.7103  0.3878  3.8131
  819TIP3   OH2 2397   2.146   2.016   5.650 -0.1965  0.1996 -0.2650
  819TIP3    H1 2398   2.094   1.948   5.607 -1.6274  0.5124  0.8896
  819TIP3    H2 2399   2.082   2.081   5.677  0.5770 -0.0517  2.4534
  820TIP3   OH2 2400   2.133   6.681   3.783 -0.7437 -0.4157 -0.1717
  820TIP3    H1 2401   2.072   6.698   3.855 -0.0926  0.7490  0.1387
  820TIP3    H2 2402   2.119   6.753   3.722 -0.3205 -0.6412 -0.5425
  821TIP3   OH2 2403   5.221   2.499   6.014  0.0227 -0.5042 -0.9378
  821TIP3    H1 2404   5.150   2.452   6.057 -0.0998  0.2781 -0.2574
  821TIP3    H2 2405   5.210   2.590   6.041  0.3922 -0.1164 -2.0406
  822TIP3   OH2 2406   7.508   4.469   3.310 -0.3134 -0.2285  0.3627
  822TIP3    H1 2407   7.413   4.480   3.313 -0.1952  0.6710  1.7290
  822TIP3    H2 2408   7.530   4.481   3.217 -1.5814 -1.2023 -0.1101
  823TIP3   OH2 2409   4.103   5.441   4.991 -0.0982  0.0728  0.2896
  823TIP3    H1 2410   4.153   5.360   4.983 -0.3893 -0.2048  1.1442
  823TIP3    H2 2411   4.076   5.443   5.083  1.3011  1.9603  0.7267
  824TIP3   OH2 2412   0.709   4.779   2.963  0.4526  0.2184 -0.0966
  824TIP3    H1 2413   0.721   4.774   3.058  1.3978 -0.6929 -0.2537
  824TIP3    H2 2414   0.797   4.788   2.928  0.0852  0.8313 -0.8820
  825TIP3   OH2 2415   6.552   6.627   5.274  0.4854  0.1150  0.2497
  825TIP3    H1 2416   6.547   6.705   5.219  1.4702  0.7379  1.0007
  825TIP3    H2 2417   6.643   6.597   5.265 -0.2462 -1.8792 -1.2361
  826TIP3   OH2 2418   1.786   3.080   2.614  0.0384 -0.8051 -0.5258
  826TIP3    H1 2419   1.843   3.100   2.688 -1.2025 -1.7482  0.7553
  826TIP3    H2 2420   1.787   3.159   2.561  0.4845  0.1513  0.8412
  827TIP3   OH2 2421   3.320   1.558   3.733  0.3432 -0.4750  0.2074
  827TIP3    H1 2422   3.254   1.534   3.667  1.0084 -0.1705 -0.5841
  827TIP3    H2 2423   3.270   1.602   3.801 -0.3996 -1.0310  0.0375
  828TIP3   OH2 2424   7.004   6.096   5.096  0.8438  0.4387  0.3072
  828TIP3    H1 2425   6.994   6.144   5.014  0.6787  2.8682  1.6661
  828TIP3    H2 2426   7.090   6.123   5.129  0.5400  0.1664  1.3484
  829TIP3   OH2 2427   3.578   5.305   0.512 -0.5305 -0.8720  0.1741
  829TIP3    H1 2428   3.565   5.214   0.485 -1.7860 -0.4611 -0.6936
  829TIP3    H2 2429   3.672   5.312   0.529 -0.5791 -2.6512  1.5044
  830TIP3   OH2 2430   5.518   1.697   1.795  0.1767  0.1750 -0.2113
  830TIP3    H1 2431   5.520   1.762   1.725 -0.4063  0.2992 -0.1122
  830TIP3    H2 2432   5.560   1.620   1.757 -0.8934 -0.0393 -0.9835
  831TIP3   OH2 2433   2.064   5.537   2.715  0.1008 -0.0423  0.0287
  831TIP3    H1 2434   1.989   5.588   2.685 -0.2866  0.2810  1.4802
  831TIP3    H2 2435   2.140   5.589   2.688 -0.2812  1.1507  1.1125
  832TIP3   OH2 2436   3.299   0.113   3.163 -0.4627  0.2525  0.3017
  832TIP3    H1 2437   3.346   0.103   3.246 -0.0994 -0.0825  0.0606
  832TIP3    H2 2438   3.237   0.041   3.161 -0.1948  0.0259  0.1026
  833TIP3   OH2 2439   7.310   5.909   4.952  0.0389  0.0966 -0.0689
  833TIP3    H1 2440   7.254   5.854   5.007 -0.3616  0.2972 -0.2692
  833TIP3    H2 2441   7.399   5.890   4.980 -0.1919  0.6888  1.1192
  834TIP3   OH2 2442   1.693   2.403   5.366  0.8999  0.0585  0.0993
  834TIP3    H1 2443   1.693   2.366   5.278 -0.1074  1.6806 -0.6307
  834TIP3    H2 2444   1.647   2.487   5.357  1.4862  0.6414  2.0108
  835TIP3   OH2 2445   3.414   5.578   6.096 -0.0881  0.4306  0.0057
  835TIP3    H1 2446   3.442   5.634   6.169  1.1121 -0.9351  0.6444
  835TIP3    H2 2447   3.344   5.524   6.133  1.8208 -1.6269  0.8118
  836TIP3   OH2 2448   3.083   0.303   6.364 -0.1725 -0.3390  0.0590
  836TIP3    H1 2449   3.087   0.389   6.321  1.8227 -1.1438 -1.5300
  836TIP3    H2 2450   3.043   0.246   6.298  0.1970 -0.9840  0.3890
  837TIP3   OH2 2451   0.131   4.705   5.109  0.0251 -0.3074 -0.0919
  837TIP3    H1 2452   0.094   4.756   5.180  0.1039 -0.8807  0.3660
  837TIP3    H2 2453   0.225   4.701   5.129  0.0921 -0.2312 -0.3828
  838TIP3   OH2 2454   1.141   2.658   5.258 -0.3181  0.3531  0.2189
  838TIP3    H1 2455   1.213   2.717   5.281 -0.3433  0.2566  0.5468
  838TIP3    H2 2456   1.131   2.668   5.163 -0.8216  1.4476  0.3771
  839TIP3   OH2 2457   7.735   7.845   1.813 -0.0417 -0.2324 -0.2768
  839TIP3    H1 2458   7.737   7.931   1.771 -1.4466  0.1585  0.3669
  839TIP3    H2 2459   7.824   7.831   1.845  1.2671 -0.8250 -3.7997
  840TIP3   OH2 2460   0.410   5.077   3.775  0.1133 -0.2467  0.3339
  840TIP3    H1 2461   0.499   5.049   3.795  0.2786  0.2910  0.3800
  840TIP3    H2 2462   0.356   5.036   3.843  0.6089  1.1412  1.6242
  841TIP3   OH2 2463   4.016   6.520   3.914 -0.7114 -0.5444  0.2350
  841TIP3    H1 2464   4.048   6.556   3.831 -1.0035  0.3178  0.4880
  841TIP3    H2 2465   3.998   6.428   3.895  0.0960 -0.5814 -0.4122
  842TIP3   OH2 2466   0.938   1.866   5.133  0.1836 -0.9064  0.4501
  842TIP3    H1 2467   0.919   1.827   5.047 -0.0309 -0.1200  0.1363
  842TIP3    H2 2468   0.894   1.808   5.195  0.2750 -1.4391  0.0262
  843TIP3   OH2 2469   4.621   1.112   5.623 -0.0071 -0.2839 -0.3752
  843TIP3    H1 2470   4.633   1.027   5.582 -1.4608 -1.3299  1.1997
  843TIP3    H2 2471   4.587   1.092   5.711  1.2241  1.8689  0.6893
  844TIP3   OH2 2472   7.730   0.584   2.497 -0.1085 -0.3247  0.3822
  844TIP3    H1 2473   7.738   0.554   2.407 -2.1833  1.6865 -0.5790
  844TIP3    H2 2474   7.802   0.646   2.508 -1.4853  1.6746 -1.0018
  845TIP3   OH2 2475   6.168   5.907   2.766 -0.4653 -0.4843  0.1374
  845TIP3    H1 2476   6.190   5.835   2.826 -1.9955 -0.9491  0.1851
  845TIP3    H2 2477   6.074   5.898   2.751 -0.9675  2.1972  1.0569
  846TIP3   OH2 2478   5.576   5.816   6.153  0.7368 -0.5802  0.1403
  846TIP3    H1 2479   5.609   5.900   6.122  1.3701 -1.0531 -0.5096
  846TIP3    H2 2480   5.559   5.765   6.074 -0.9047 -0.6190  0.4769
  847TIP3   OH2 2481   6.964   0.324   6.647  0.1971  0.4970 -0.1276
  847TIP3    H1 2482   7.050   0.311   6.607  0.1197  0.1042 -0.1744
  847TIP3    H2 2483   6.982   0.328   6.741  0.1620 -0.5879 -0.0666
  848TIP3   OH2 2484   7.147   5.447   3.228  0.2397 -0.0068  0.4195
  848TIP3    H1 2485   7.092   5.378   3.191 -0.5286 -0.1942  1.8508
  848TIP3    H2 2486   7.204   5.474   3.156 -2.8352  1.3614 -1.7093
  849TIP3   OH2 2487   3.878   1.698   0.241  0.2276 -0.1479  0.1547
  849TIP3    H1 2488   3.831   1.641   0.181  1.0788 -0.6263 -0.0651
  849TIP3    H2 2489   3.958   1.722   0.195  0.4803  0.1909  0.7554
  850TIP3   OH2 2490   5.489   2.425   6.098  0.1575 -0.2725 -0.4412
  850TIP3    H1 2491   5.406   2.432   6.051 -0.1087  1.9681  0.2555
  850TIP3    H2 2492   5.493   2.504   6.152  2.9834 -0.0497 -0.8191
  851TIP3   OH2 2493   5.384   2.683   1.839 -0.5758 -0.0474  0.3308
  851TIP3    H1 2494   5.314   2.644   1.787 -0.1313 -0.6788  0.1957
  851TIP3    H2 2495   5.348   2.767   1.869 -0.8259  0.3602 -1.0338
  852TIP3   OH2 2496   1.093   3.667   5.314 -0.3404  0.2507 -0.1902
  852TIP3    H1 2497   0.998   3.658   5.306 -0.4506  1.3414 -0.3028
  852TIP3    H2 2498   1.106   3.707   5.400  0.2106 -2.2834  0.9720
  853TIP3   OH2 2499   5.738   2.644   6.751 -0.0686 -0.3514  0.1153
  853TIP3    H1 2500   5.750   2.737   6.731 -3.9797 -0.0087 -1.4564
  853TIP3    H2 2501   5.715   2.642   6.843 -1.1070  0.4034 -0.1151
  854TIP3   OH2 2502   0.481   7.089   3.179 -0.3046  0.4189 -0.8134
  854TIP3    H1 2503   0.387   7.105   3.172 -0.1033  1.4101 -1.3913
  854TIP3    H2 2504   0.521   7.175   3.168  0.6469  0.1180  0.1495
  855TIP3   OH2 2505   2.003   2.995   2.371  0.2815  0.3679 -0.6419
  855TIP3    H1 2506   2.054   3.033   2.442  0.7648  0.5961 -1.0989
  855TIP3    H2 2507   1.968   2.913   2.407 -0.8669  1.2841  0.3854
  856TIP3   OH2 2508   3.941   4.970   2.208 -0.4515  0.0621  0.3066
  856TIP3    H1 2509   3.912   4.883   2.182  0.5431 -0.0472 -0.5072
  856TIP3    H2 2510   4.014   4.954   2.269  1.1513  0.2567 -1.4522
  857TIP3   OH2 2511   2.003   0.138   4.359  0.0355 -0.0982  0.0992
  857TIP3    H1 2512   1.974   0.048   4.343  0.2669 -0.1581  0.0056
  857TIP3    H2 2513   1.932   0.178   4.408  0.1096 -0.4551  0.5083
  858TIP3   OH2 2514   0.812   5.342   3.875  0.0720  0.7428 -0.0384
  858TIP3    H1 2515   0.798   5.248   3.877 -2.4264  1.0047 -0.8970
  858TIP3    H2 2516   0.754   5.376   3.943  1.3773  1.6506  0.6583
  859TIP3   OH2 2517   1.599   4.679   1.546  0.1974 -0.3238 -1.1879
  859TIP3    H1 2518   1.610   4.659   1.453  1.6901  1.9078 -1.5793
  859TIP3    H2 2519   1.679   4.647   1.587  0.6440  0.8800 -1.1029
  860TIP3   OH2 2520   1.328   0.890   2.108 -0.6670 -0.2834 -0.1440
  860TIP3    H1 2521   1.250   0.866   2.058  0.1756  0.2291 -1.7675
  860TIP3    H2 2522   1.371   0.957   2.056  1.6837 -1.6509 -0.1165
  861TIP3   OH2 2523   5.756   7.068   0.101  0.5357  0.2269  0.4971
  861TIP3    H1 2524   5.798   7.153   0.083  0.0249  0.3686 -0.0763
  861TIP3    H2 2525   5.744   7.029   0.015  1.8317 -0.9673  0.8341
  862TIP3   OH2 2526   5.467   3.340   5.447  0.2087  0.1500  0.1994
  862TIP3    H1 2527   5.415   3.417   5.468 -0.5181 -0.3892  0.4118
  862TIP3    H2 2528   5.475   3.294   5.531  0.2073 -0.2659 -0.0274
  863TIP3   OH2 2529   6.223   4.953   4.372 -0.2386 -0.1859 -0.1594
  863TIP3    H1 2530   6.170   5.028   4.343 -0.5342 -0.0751  0.6507
  863TIP3    H2 2531   6.202   4.943   4.465  2.1523  0.7170  0.5515
  864TIP3   OH2 2532   2.680   2.738   3.440 -0.7288  0.4110  0.3127
  864TIP3    H1 2533   2.633   2.744   3.357 -4.2507  0.9720  2.1542
  864TIP3    H2 2534   2.699   2.645   3.451  0.3950  0.3954 -1.3204
  865TIP3   OH2 2535   3.491   0.883   5.691  0.5433 -0.2194  0.2760
  865TIP3    H1 2536   3.575   0.928   5.687 -0.0630  1.0079  0.5102
  865TIP3    H2 2537   3.471   0.879   5.784  0.0106  0.1963  0.1886
  866TIP3   OH2 2538   0.206   0.465   1.802  0.0857  0.0325 -0.0654
  866TIP3    H1 2539   0.160   0.486   1.721  1.6648 -0.2426 -1.0663
  866TIP3    H2 2540   0.138   0.432   1.860 -1.4404  2.1003 -0.5445
  867TIP3   OH2 2541   1.075   6.419   1.228 -0.0685 -0.5342 -0.2393
  867TIP3    H1 2542   1.108   6.509   1.235 -0.2718 -0.3816 -1.1725
  867TIP3    H2 2543   1.030   6.404   1.311  0.7384 -0.1003  0.2994
  868TIP3   OH2 2544   5.280   1.310   4.741 -0.0689  0.2886  0.4095
  868TIP3    H1 2545   5.203   1.366   4.749 -0.6117 -0.5782  1.4852
  868TIP3    H2 2546   5.298   1.306   4.647 -1.5977  0.1586  0.1044
  869TIP3   OH2 2547   3.243   1.544   0.583  0.0647 -0.2918 -0.1683
  869TIP3    H1 2548   3.266   1.482   0.651  0.3782 -1.2609 -1.1284
  869TIP3    H2 2549   3.325   1.590   0.564 -0.0844  0.1740  0.2825
  870TIP3   OH2 2550   4.300   3.483   3.581  0.3968 -0.2759  0.5712
  870TIP3    H1 2551   4.281   3.548   3.513 -0.7043  0.5556  1.6260
  870TIP3    H2 2552   4.380   3.440   3.551  0.0020  0.1242 -1.1971
  871TIP3   OH2 2553   2.417   1.146   4.609  0.8324 -0.0712  0.0080
  871TIP3    H1 2554   2.474   1.222   4.622  0.6013 -0.1571  1.6236
  871TIP3    H2 2555   2.429   1.093   4.687 -0.4969 -0.7334 -0.2142
  872TIP3   OH2 2556   7.886   6.933   6.314  0.3295  0.1165 -0.1784
  872TIP3    H1 2557   7.893   6.888   6.230 -0.5044 -0.9751  0.3052
  872TIP3    H2 2558   7.914   6.868   6.378  0.1329  0.6452  0.4576
  873TIP3   OH2 2559   2.292   1.562   2.306  0.1397 -0.4656 -0.2396
  873TIP3    H1 2560   2.368   1.584   2.360  1.3682 -0.7872 -1.7650
  873TIP3    H2 2561   2.257   1.647   2.279 -0.6345 -0.2939  1.2015
  874TIP3   OH2 2562   0.864   5.934   4.110 -0.2032 -0.2497 -0.3313
  874TIP3    H1 2563   0.815   5.853   4.118 -1.7009  0.7482  1.6715
  874TIP3    H2 2564   0.827   5.978   4.033 -0.5176 -0.7306 -0.4541
  875TIP3   OH2 2565   6.664   4.352   4.401 -0.1030  0.3632 -0.3981
  875TIP3    H1 2566   6.590   4.296   4.426 -0.0380  1.2337  2.0260
  875TIP3    H2 2567   6.671   4.415   4.473  2.5897  0.7178 -0.8829
  876TIP3   OH2 2568   0.558   5.134   0.343  0.5540  0.4105 -0.0585
  876TIP3    H1 2569   0.554   5.094   0.430 -1.0729 -1.6224 -0.9762
  876TIP3    H2 2570   0.650   5.159   0.332  0.9585 -0.0345  1.9068
  877TIP3   OH2 2571   8.113   4.088   1.848  0.0257  0.4961  0.4845
  877TIP3    H1 2572   8.026   4.074   1.811  0.6018 -1.9793 -0.1241
  877TIP3    H2 2573   8.134   4.178   1.825 -1.9675  0.8400 -0.2210
  878TIP3   OH2 2574   3.488   6.179   5.365 -0.1457  0.0775 -0.1821
  878TIP3    H1 2575   3.395   6.167   5.384  0.1898 -0.2384  1.3309
  878TIP3    H2 2576   3.532   6.106   5.408  0.8283  0.2592 -0.8238
  879TIP3   OH2 2577   4.998   5.688   0.197 -0.1705 -0.0059 -0.1366
  879TIP3    H1 2578   4.980   5.783   0.199 -1.6157 -0.2630  1.2945
  879TIP3    H2 2579   4.946   5.656   0.123 -1.1361  0.0778  0.4928
  880TIP3   OH2 2580   8.186   4.487   4.328 -0.2803 -0.2257 -0.3623
  880TIP3    H1 2581   8.109   4.521   4.283 -0.8638  0.5892  1.1793
  880TIP3    H2 2582   8.257   4.496   4.265 -1.1281  0.5960 -1.2268
  881TIP3   OH2 2583   1.585   5.409   6.345 -0.5804  0.3036  0.3597
  881TIP3    H1 2584   1.663   5.409   6.289  1.5749 -0.8281  3.1366
  881TIP3    H2 2585   1.587   5.494   6.389 -0.8876  0.2595  0.4606
  882TIP3   OH2 2586   2.530   2.074   3.413  0.2904  0.2013 -0.4355
  882TIP3    H1 2587   2.609   2.030   3.444  0.3163  0.4798 -0.1034
  882TIP3    H2 2588   2.505   2.026   3.334  0.7325  0.0500 -0.4838
  883TIP3   OH2 2589   0.602   6.832   6.433  0.4721 -0.2335 -0.2537
  883TIP3    H1 2590   0.666   6.835   6.504  0.6072  1.6106 -0.4054
  883TIP3    H2 2591   0.609   6.917   6.391 -0.0867 -1.0504 -2.0843
  884TIP3   OH2 2592   5.585   0.357   1.727  1.1915 -0.0368  0.0142
  884TIP3    H1 2593   5.527   0.428   1.701  1.0193 -0.2808 -0.2669
  884TIP3    H2 2594   5.530   0.299   1.780  1.0837 -0.4471 -0.5363
  885TIP3   OH2 2595   7.556   1.397   4.670 -0.1062  0.4052 -0.0991
  885TIP3    H1 2596   7.600   1.362   4.593 -0.8461 -0.0277 -0.3261
  885TIP3    H2 2597   7.522   1.320   4.715  0.5444  0.6290  0.8106
  886TIP3   OH2 2598   1.234   3.631   3.873 -0.3505  0.8344 -0.0311
  886TIP3    H1 2599   1.221   3.645   3.967 -1.4843  0.2368 -0.0812
  886TIP3    H2 2600   1.328   3.612   3.865 -0.3217  0.3956  1.0560
  887TIP3   OH2 2601   4.183   7.100   5.344 -0.7942 -0.0986 -0.0079
  887TIP3    H1 2602   4.162   7.008   5.332 -1.8293 -0.0910  1.4753
  887TIP3    H2 2603   4.103   7.147   5.317 -0.5823  0.3012  0.0454
  888TIP3   OH2 2604   8.216   4.242   0.795 -0.2785 -0.0851  0.3340
  888TIP3    H1 2605   8.127   4.275   0.787 -0.0383  0.2709 -1.1881
  888TIP3    H2 2606   8.258   4.300   0.858  0.0600  2.4687 -2.0704
  889TIP3   OH2 2607   5.786   0.318   0.812 -0.0821  0.1290 -0.2647
  889TIP3    H1 2608   5.781   0.408   0.779  0.0400  0.1283 -0.2846
  889TIP3    H2 2609   5.805   0.328   0.905 -0.8499  0.1406 -0.1008
  890TIP3   OH2 2610   6.278   7.491   4.933  0.2922  0.3719  0.2855
  890TIP3    H1 2611   6.243   7.407   4.903  0.8807  0.5269 -0.8996
  890TIP3    H2 2612   6.259   7.552   4.862  0.0224  1.2142  1.0575
  891TIP3   OH2 2613   0.710   1.888   4.022  0.3524  0.1968  0.4179
  891TIP3    H1 2614   0.757   1.838   4.089 -1.4417  0.4819  1.9738
  891TIP3    H2 2615   0.667   1.823   3.968  1.7088 -0.0335 -0.4230
  892TIP3   OH2 2616   6.818   3.396   5.578 -0.0109 -0.0078  0.6620
  892TIP3    H1 2617   6.838   3.480   5.537 -0.5931 -0.3680 -0.4042
  892TIP3    H2 2618   6.887   3.384   5.644  0.5299  0.9278  0.2852
  893TIP3   OH2 2619   6.426   4.022   4.203  0.2799 -0.6793  0.2707
  893TIP3    H1 2620   6.469   3.996   4.121 -0.5766 -3.1708  0.5347
  893TIP3    H2 2621   6.458   3.960   4.268  0.0503  0.5361  1.5884
  894TIP3   OH2 2622   7.911   2.346   5.654  0.3066  0.1406  0.6754
  894TIP3    H1 2623   7.829   2.327   5.607 -0.4769 -0.2990  2.1536
  894TIP3    H2 2624   7.980   2.322   5.593 -0.6722 -1.1193  0.0229
  895TIP3   OH2 2625   6.175   7.365   2.193  0.7890  0.0897  0.1457
  895TIP3    H1 2626   6.146   7.276   2.173  0.8869  0.1061 -0.0742
  895TIP3    H2 2627   6.270   7.359   2.200  0.8589  0.3106 -0.5749
  896TIP3   OH2 2628   6.743   3.879   2.027  0.3786  0.1682 -0.2181
  896TIP3    H1 2629   6.653   3.864   2.058  0.2418  1.0369 -0.1487
  896TIP3    H2 2630   6.751   3.975   2.026  0.4188  0.1933 -2.7731
  897TIP3   OH2 2631   3.130   2.980   6.409 -0.5516  0.3991 -0.0422
  897TIP3    H1 2632   3.039   3.005   6.397 -0.3843  0.6849 -0.7584
  897TIP3    H2 2633   3.146   2.914   6.342 -0.3208  0.1231  0.2848
  898TIP3   OH2 2634   6.971   0.007   3.089  0.6535  0.3849 -0.3785
  898TIP3    H1 2635   7.023   0.077   3.130 -0.6152  3.1277 -3.0022
  898TIP3    H2 2636   6.994   0.012   2.997 -1.7164 -0.5909 -1.0963
  899TIP3   OH2 2637   7.457   0.985   3.454 -0.0223 -0.0477 -0.1959
  899TIP3    H1 2638   7.495   0.988   3.367  0.4674 -0.4881 -0.0033
  899TIP3    H2 2639   7.520   1.030   3.510 -0.8409  1.1971 -0.2420
  900TIP3   OH2 2640   0.711   3.277   6.253 -0.7318 -0.0763 -0.2306
  900TIP3    H1 2641   0.806   3.292   6.249 -0.6358 -0.6318 -0.1083
  900TIP3    H2 2642   0.676   3.330   6.181 -0.1796 -1.0070 -1.2239
  901TIP3   OH2 2643   0.362   2.000   2.952  0.3100 -0.4267 -0.3419
  901TIP3    H1 2644   0.396   2.050   2.878  1.3257  1.4463  1.3144
  901TIP3    H2 2645   0.388   1.910   2.934  2.3244  0.2901 -1.3027
  902TIP3   OH2 2646   3.659   7.478   4.892 -0.3825  0.2326 -0.1625
  902TIP3    H1 2647   3.730   7.448   4.949 -0.7532 -0.7171 -0.1822
  902TIP3    H2 2648   3.698   7.548   4.840  0.7898 -0.8310 -0.7573
  903TIP3   OH2 2649   7.405   5.073   2.377  0.0697  0.4253  0.0508
  903TIP3    H1 2650   7.487   5.119   2.398  1.2262 -1.3943 -0.2970
  903TIP3    H2 2651   7.393   5.011   2.449 -0.0770 -0.4898 -0.7434
  904TIP3   OH2 2652   2.342   7.166   2.025 -0.6007 -0.2580  0.1344
  904TIP3    H1 2653   2.363   7.095   1.964 -1.1845 -0.4413  0.1395
  904TIP3    H2 2654   2.250   7.187   2.006 -0.3875  0.5934  0.0327
  905TIP3   OH2 2655   2.439   7.548   6.667 -0.5281  0.0637  0.2861
  905TIP3    H1 2656   2.488   7.530   6.587 -0.5119  0.7749  0.1309
  905TIP3    H2 2657   2.396   7.632   6.651  0.1149  0.6075  1.3320
  906TIP3   OH2 2658   3.260   1.836   1.833 -0.2276  0.1757 -0.0597
  906TIP3    H1 2659   3.214   1.871   1.756 -0.0492 -0.5674 -0.5078
  906TIP3    H2 2660   3.319   1.907   1.859 -0.4464  0.5152 -0.4693
  907TIP3   OH2 2661   3.119   4.027   5.064 -0.3140  0.1284  0.6541
  907TIP3    H1 2662   3.042   4.040   5.009 -1.1721  1.7219  2.1546
  907TIP3    H2 2663   3.086   3.992   5.146  0.9022 -1.7662  0.3994
  908TIP3   OH2 2664   2.274   7.555   0.049 -0.2043  0.3462 -0.0793
  908TIP3    H1 2665   2.187   7.587   0.025  0.3339  1.2806 -0.8489
  908TIP3    H2 2666   2.316   7.535  -0.035 -0.0663 -1.2128  0.3257
  909TIP3   OH2 2667   3.082   5.489   6.572 -0.1272 -0.2239  0.1865
  909TIP3    H1 2668   3.000   5.509   6.527 -0.1825 -0.3664  0.2220
  909TIP3    H2 2669   3.055   5.468   6.662  0.1752  2.0722  0.8616
  910TIP3   OH2 2670   6.438   5.525   2.107 -0.9360 -1.0173 -0.4325
  910TIP3    H1 2671   6.490   5.496   2.032  1.8905  2.0769  0.1064
  910TIP3    H2 2672   6.348   5.530   2.074  0.0202 -0.8827 -3.2580
  911TIP3   OH2 2673   6.477   3.644   3.174 -0.2863 -0.6712  0.1186
  911TIP3    H1 2674   6.428   3.706   3.228  1.3555 -0.1423  1.0556
  911TIP3    H2 2675   6.561   3.686   3.158  0.5958 -2.3315  0.1526
  912TIP3   OH2 2676   6.363   1.745   3.029  0.1093 -0.0485  0.5725
  912TIP3    H1 2677   6.328   1.834   3.018 -2.6807 -1.2639 -1.7966
  912TIP3    H2 2678   6.432   1.739   2.962 -0.1841  0.1230  0.2481
  913TIP3   OH2 2679   4.980   7.071   5.780  0.7990 -0.0400 -0.0430
  913TIP3    H1 2680   4.989   7.027   5.865  0.3226 -0.8518 -0.3970
  913TIP3    H2 2681   4.939   7.005   5.724 -0.3877  1.0259 -0.4685
  914TIP3   OH2 2682   7.341   7.372   0.708  0.0869 -0.2015  0.1142
  914TIP3    H1 2683   7.331   7.434   0.636  0.7102 -1.3783 -1.0228
  914TIP3    H2 2684   7.340   7.427   0.787  1.4931  1.3432 -0.8740
  915TIP3   OH2 2685   2.491   2.403   3.013 -0.4367 -0.0901 -0.1028
  915TIP3    H1 2686   2.485   2.393   2.918 -0.5684 -0.9994 -0.0131
  915TIP3    H2 2687   2.430   2.338   3.048 -1.0682  0.8566  0.5975
  916TIP3   OH2 2688   2.814   5.246   4.504  0.0095 -0.7165  0.1933
  916TIP3    H1 2689   2.754   5.190   4.455 -1.1183  0.9478 -0.4154
  916TIP3    H2 2690   2.769   5.330   4.510  2.7397  0.9884 -1.3370
  917TIP3   OH2 2691   4.683   0.203   4.002  0.3968  0.0348 -0.1520
  917TIP3    H1 2692   4.681   0.220   3.908  2.0089  0.4715 -0.1235
  917TIP3    H2 2693   4.614   0.258   4.038  0.5333  0.7322 -0.9422
  918TIP3   OH2 2694   0.582   0.605   2.963  0.3452  0.7176 -0.1474
  918TIP3    H1 2695   0.546   0.623   2.876  3.2271  2.0690 -1.1877
  918TIP3    H2 2696   0.648   0.673   2.976 -0.5830  1.1340  3.5577
  919TIP3   OH2 2697   8.297   5.427   3.957  0.4674 -0.5576  0.0335
  919TIP3    H1 2698   8.285   5.467   4.044  1.3458 -0.5408  0.1517
  919TIP3    H2 2699   8.324   5.500   3.901 -0.5229 -0.4781 -0.3757
  920TIP3   OH2 2700   3.347   6.876   4.692 -0.6719 -0.3025  0.3942
  920TIP3    H1 2701   3.409   6.948   4.699  0.1075 -0.8408 -0.7378
  920TIP3    H2 2702   3.384   6.819   4.625 -2.3080 -0.7219 -0.1939
  921TIP3   OH2 2703   0.784   0.007   3.742 -0.1312  0.1069 -0.0474
  921TIP3    H1 2704   0.871   0.024   3.777  0.5722 -1.0595 -1.1826
  921TIP3    H2 2705   0.779   0.057   3.661 -0.2045 -0.4727 -0.4076
  922TIP3   OH2 2706   7.232   5.140   1.109 -0.7872 -0.0581  0.2574
  922TIP3    H1 2707   7.257   5.232   1.118  0.3042 -0.1731 -1.2267
  922TIP3    H2 2708   7.217   5.128   1.016 -0.8529 -1.4042  0.4229
  923TIP3   OH2 2709   0.494   3.171   1.643 -0.0734 -0.1259 -0.1725
  923TIP3    H1 2710   0.577   3.178   1.596  0.7291 -3.1236  0.5918
  923TIP3    H2 2711   0.453   3.257   1.632  2.1849  0.8001 -2.2879
  924TIP3   OH2 2712   2.233   4.648   1.990 -0.5541  0.3965 -0.2865
  924TIP3    H1 2713   2.213   4.600   1.910  0.5140  0.4005 -0.5660
  924TIP3    H2 2714   2.263   4.734   1.960  2.3996 -0.4417 -0.0809
  925TIP3   OH2 2715   2.335   1.381   0.197  0.4938 -0.6232 -0.1907
  925TIP3    H1 2716   2.413   1.326   0.188  1.7187  0.8852  0.5894
  925TIP3    H2 2717   2.355   1.438   0.271 -1.0553  0.3115 -0.4478
  926TIP3   OH2 2718   1.416   7.506   2.189  0.1132 -0.3551 -0.1855
  926TIP3    H1 2719   1.342   7.562   2.164 -0.5631 -0.9524  0.4322
  926TIP3    H2 2720   1.381   7.417   2.185  0.6137 -0.6086  0.7084
  927TIP3   OH2 2721   4.361   5.084   5.406 -0.0568 -0.0289  0.3893
  927TIP3    H1 2722   4.285   5.066   5.462 -1.1701 -0.4780 -1.1860
  927TIP3    H2 2723   4.393   4.997   5.381  0.3743  0.1604  0.2854
  928TIP3   OH2 2724   1.447   3.105   1.593 -0.2482  0.1824  0.0444
  928TIP3    H1 2725   1.487   3.181   1.551  0.3800 -1.3277 -2.2960
  928TIP3    H2 2726   1.391   3.142   1.661  1.9170  2.5790  0.6954
  929TIP3   OH2 2727   7.098   6.750   1.312  0.3015  0.1278  0.0107
  929TIP3    H1 2728   7.174   6.793   1.351  0.3113  0.6943 -0.6098
  929TIP3    H2 2729   7.131   6.665   1.283  1.6771  1.5830 -3.2985
  930TIP3   OH2 2730   6.584   5.993   2.754 -0.3357 -0.3161  0.0095
  930TIP3    H1 2731   6.676   5.988   2.777 -0.0492  2.6133 -0.0472
  930TIP3    H2 2732   6.537   5.966   2.833  0.5653 -0.6910  0.4196
  931TIP3   OH2 2733   5.745   6.393   4.886  0.7773 -0.7532 -0.1099
  931TIP3    H1 2734   5.757   6.338   4.809  1.8703 -0.2193 -0.3319
  931TIP3    H2 2735   5.755   6.482   4.854 -1.7764 -0.3076  0.0878
  932TIP3   OH2 2736   2.478   0.810   1.278 -0.2835  0.2085 -0.3010
  932TIP3    H1 2737   2.484   0.820   1.183 -1.3875  3.1023 -0.1560
  932TIP3    H2 2738   2.385   0.805   1.296 -0.1664  1.2129  0.7038
  933TIP3   OH2 2739   4.636   1.864   4.152 -0.0651 -0.0717  0.1769
  933TIP3    H1 2740   4.643   1.853   4.247  0.1595 -1.4022  0.0302
  933TIP3    H2 2741   4.684   1.945   4.134  0.2084 -0.0010  1.1500
  934TIP3   OH2 2742   6.511   1.969   4.518 -0.1129  0.0106 -0.2639
  934TIP3    H1 2743   6.496   2.026   4.594 -0.2854 -0.2913 -0.0715
  934TIP3    H2 2744   6.423   1.941   4.492 -0.0424 -0.0011 -0.4898
  935TIP3   OH2 2745   7.434   7.220   3.397 -0.4464 -0.1902 -0.1932
  935TIP3    H1 2746   7.376   7.165   3.449 -1.1010 -0.5888 -1.3070
  935TIP3    H2 2747   7.389   7.230   3.313  0.7656  0.0841 -0.8353
  936TIP3   OH2 2748   4.141   4.365   0.723  0.1046 -0.2928 -0.9003
  936TIP3    H1 2749   4.189   4.445   0.701  1.4277 -1.6421 -3.3615
  936TIP3    H2 2750   4.066   4.364   0.664 -0.4017 -0.4722 -0.2731
  937TIP3   OH2 2751   1.784   7.382   3.917 -0.1102  0.4368  0.2373
  937TIP3    H1 2752   1.707   7.407   3.968 -0.4211 -1.5918  0.8186
  937TIP3    H2 2753   1.770   7.424   3.832 -1.2017  1.1668  0.7496
  938TIP3   OH2 2754   0.159   0.826   3.680 -0.5117 -0.3316  0.4219
  938TIP3    H1 2755   0.219   0.786   3.743  0.0278  0.6180  0.5246
  938TIP3    H2 2756   0.086   0.858   3.734 -1.5273 -2.1519  0.2204
  939TIP3   OH2 2757   1.714   2.220   4.115 -0.1471 -0.7726 -0.3108
  939TIP3    H1 2758   1.764   2.279   4.171 -0.7811 -0.9507  0.4521
  939TIP3    H2 2759   1.774   2.146   4.100  0.6514  0.0336 -1.2760
  940TIP3   OH2 2760   4.730   5.530   0.487  0.1863 -0.1217  0.1627
  940TIP3    H1 2761   4.661   5.593   0.467  1.3552  1.0587 -0.3523
  940TIP3    H2 2762   4.722   5.463   0.419  0.2078  0.5826 -0.5528
  941TIP3   OH2 2763   4.575   0.492   2.907  0.1563 -0.1343 -0.3997
  941TIP3    H1 2764   4.627   0.434   2.962  0.0953  1.1929  1.1454
  941TIP3    H2 2765   4.637   0.524   2.841  0.7614 -0.2410  0.1039
  942TIP3   OH2 2766   6.388   6.932   1.806 -0.2937 -0.1992 -0.0356
  942TIP3    H1 2767   6.418   7.023   1.807  1.3444 -0.7142  0.7752
  942TIP3    H2 2768   6.467   6.881   1.788 -1.2049 -1.4658 -0.5657
  943TIP3   OH2 2769   3.604   5.551   6.374 -0.2528 -0.0341  0.4861
  943TIP3    H1 2770   3.609   5.532   6.468 -1.1113  0.2470  0.5984
  943TIP3    H2 2771   3.554   5.632   6.369  1.7480  1.2288 -0.0894
  944TIP3   OH2 2772   2.420   0.101   4.431  0.3815 -0.5811  0.1816
  944TIP3    H1 2773   2.464   0.049   4.364 -0.8493 -2.2324  0.6232
  944TIP3    H2 2774   2.361   0.159   4.382  1.3335  0.0364 -0.2728
  945TIP3   OH2 2775   3.981   3.568   4.356 -0.4026 -0.7139  0.3845
  945TIP3    H1 2776   3.898   3.531   4.384 -1.0734 -2.3091 -3.0950
  945TIP3    H2 2777   3.957   3.649   4.312 -0.0885 -0.9451 -0.2269
  946TIP3   OH2 2778   7.783   4.250   1.877  0.5626  0.2162 -0.0194
  946TIP3    H1 2779   7.814   4.235   1.787 -3.2885  0.6005 -1.6083
  946TIP3    H2 2780   7.822   4.333   1.902  2.8008 -0.5458 -0.7208
  947TIP3   OH2 2781   2.801   5.866   3.851  0.5419  0.0649  0.2318
  947TIP3    H1 2782   2.801   5.788   3.907  1.0951  1.4546  2.2796
  947TIP3    H2 2783   2.733   5.922   3.889  0.2608  0.6714 -1.1199
  948TIP3   OH2 2784   4.011   1.928   2.408 -0.2806  0.9379  0.0548
  948TIP3    H1 2785   4.055   1.951   2.490 -2.1051  1.5849  0.8973
  948TIP3    H2 2786   4.078   1.940   2.341  1.3186  0.1860  1.4465
  949TIP3   OH2 2787   7.224   0.070   3.491  0.0460  0.3911 -0.4023
  949TIP3    H1 2788   7.261  -0.008   3.533 -0.5229  0.5920  0.4973
  949TIP3    H2 2789   7.130   0.051   3.485 -0.1171  1.0767 -0.0317
  950TIP3   OH2 2790   6.949   1.628   4.462  0.2855  0.2053 -0.2397
  950TIP3    H1 2791   6.957   1.685   4.539  0.4080 -1.0207  0.6811
  950TIP3    H2 2792   7.031   1.580   4.459 -0.4375 -1.0740 -0.0513
  951TIP3   OH2 2793   5.797   3.553   4.175  0.5133 -0.0842 -0.2067
  951TIP3    H1 2794   5.702   3.561   4.169  0.3521 -2.0445 -1.1340
  951TIP3    H2 2795   5.831   3.617   4.112 -0.3401 -1.4332 -2.1295
  952TIP3   OH2 2796   3.309   6.943   1.571  0.4080  0.3276  0.0486
  952TIP3    H1 2797   3.290   7.010   1.636 -0.0211  0.5361 -0.2869
  952TIP3    H2 2798   3.370   6.985   1.510  1.6597 -0.2002  0.8786
  953TIP3   OH2 2799   1.720   3.213   0.356  0.3482  0.2969 -0.4057
  953TIP3    H1 2800   1.727   3.183   0.446  0.8879  0.4417 -0.3966
  953TIP3    H2 2801   1.645   3.272   0.356  1.1210  1.3055  0.2314
  954TIP3   OH2 2802   1.350   5.305   2.899  0.1031  0.0620  0.1798
  954TIP3    H1 2803   1.379   5.214   2.901  1.5358  0.5094  1.2927
  954TIP3    H2 2804   1.319   5.323   2.988  0.7625  0.9312  0.2489
  955TIP3   OH2 2805   0.969   0.179   5.354  0.1634  0.2591 -0.6192
  955TIP3    H1 2806   0.914   0.112   5.393  0.8422 -0.3383 -0.6676
  955TIP3    H2 2807   1.006   0.138   5.276  0.7969  0.5960 -0.5048
  956TIP3   OH2 2808   3.635   3.077   3.657 -0.3727 -0.3793 -0.0789
  956TIP3    H1 2809   3.563   3.023   3.689 -0.1817  0.2813  1.5877
  956TIP3    H2 2810   3.681   3.105   3.737 -0.2969  1.9932 -0.8769
  957TIP3   OH2 2811   6.094   7.497   5.816 -0.1782 -0.0400  0.1594
  957TIP3    H1 2812   6.146   7.488   5.736  0.1366  0.1926  0.3328
  957TIP3    H2 2813   6.159   7.501   5.887 -0.4392  0.0452  0.3984
  958TIP3   OH2 2814   1.486   5.015   0.150  0.2229 -0.1307  0.1692
  958TIP3    H1 2815   1.396   5.016   0.184  0.4397 -1.1300  0.7885
  958TIP3    H2 2816   1.476   5.006   0.056 -0.3929  2.7336 -0.1294
  959TIP3   OH2 2817   7.369   3.350   0.665 -0.4288  0.0591 -0.5733
  959TIP3    H1 2818   7.408   3.304   0.739 -1.6854  1.1530  0.8142
  959TIP3    H2 2819   7.443   3.394   0.622  0.3055 -0.5593  0.0260
  960TIP3   OH2 2820   6.132   6.332   1.736  0.0757 -0.3855 -0.2811
  960TIP3    H1 2821   6.055   6.279   1.754 -1.1273  1.1114 -0.8618
  960TIP3    H2 2822   6.183   6.329   1.817 -0.6379 -1.2824  0.1537
  961TIP3   OH2 2823   0.506   1.212   3.155  0.2222  0.2760 -0.1046
  961TIP3    H1 2824   0.598   1.196   3.175 -0.1917 -1.3671  0.6707
  961TIP3    H2 2825   0.458   1.170   3.226 -1.1339  2.3710  0.3292
  962TIP3   OH2 2826   0.720   4.320   4.931  0.1255  0.1952  0.0914
  962TIP3    H1 2827   0.711   4.235   4.974  0.4183 -1.4847 -2.8498
  962TIP3    H2 2828   0.809   4.348   4.951  0.5117 -0.9109 -0.0119
  963TIP3   OH2 2829   6.325   7.666   4.313 -0.1870  0.5237 -0.0193
  963TIP3    H1 2830   6.348   7.749   4.356 -1.0791  0.8750 -0.1861
  963TIP3    H2 2831   6.404   7.641   4.266 -0.0788  1.5956 -0.4446
  964TIP3   OH2 2832   0.057   7.125   1.650  0.4312  0.0565 -0.0537
  964TIP3    H1 2833   0.131   7.186   1.643  0.2519  0.1602 -1.5455
  964TIP3    H2 2834   0.006   7.141   1.570 -0.9079 -0.3987  0.6839
  965TIP3   OH2 2835   0.102   6.794   5.649 -0.1351  0.5154  0.3633
  965TIP3    H1 2836   0.184   6.748   5.668 -0.1862  1.0953  2.2684
  965TIP3    H2 2837   0.128   6.886   5.641 -0.1446  0.3502 -2.6011
  966TIP3   OH2 2838   3.135   7.039   3.537 -0.1160  0.5442  0.1081
  966TIP3    H1 2839   3.123   7.004   3.449  1.2053 -3.2232  1.2279
  966TIP3    H2 2840   3.046   7.061   3.566 -0.5647  1.9697 -2.1276
  967TIP3   OH2 2841   1.410   1.582   1.828  0.4995 -0.5469  0.0300
  967TIP3    H1 2842   1.418   1.606   1.921  1.8370 -1.8372  0.2925
  967TIP3    H2 2843   1.322   1.544   1.821 -0.0850  0.6554  0.4684
  968TIP3   OH2 2844   3.209   4.900   5.479 -0.4339 -0.1230 -0.0440
  968TIP3    H1 2845   3.164   4.973   5.522 -0.8079 -0.5487  0.3016
  968TIP3    H2 2846   3.184   4.823   5.530 -0.4220 -0.5593 -0.6799
  969TIP3   OH2 2847   3.389   1.539   5.975  0.5629  0.0277  0.4006
  969TIP3    H1 2848   3.415   1.619   6.020 -0.1070  0.1570  0.5678
  969TIP3    H2 2849   3.458   1.476   5.996  0.6939  0.3369  0.9066
  970TIP3   OH2 2850   7.241   1.310   3.688 -0.0119 -0.0706  0.0653
  970TIP3    H1 2851   7.165   1.273   3.732  1.3890 -1.9612  1.0584
  970TIP3    H2 2852   7.283   1.366   3.753  0.6626 -0.8435  0.3143
  971TIP3   OH2 2853   6.240   7.233   4.825 -0.4466  0.2959  0.4147
  971TIP3    H1 2854   6.263   7.172   4.894 -0.4211  0.1153  0.2492
  971TIP3    H2 2855   6.282   7.198   4.746  0.8169  1.3252  0.5943
  972TIP3   OH2 2856   4.588   6.819   1.060 -0.1388  0.7277  0.0200
  972TIP3    H1 2857   4.672   6.792   1.023 -0.7655  1.9217 -2.4589
  972TIP3    H2 2858   4.579   6.911   1.035 -1.3566  1.1651  1.8752
  973TIP3   OH2 2859   2.012   1.814   1.403 -0.0046 -0.0709 -0.4513
  973TIP3    H1 2860   1.964   1.835   1.483 -1.3678 -0.0667 -1.2437
  973TIP3    H2 2861   2.061   1.735   1.425 -0.0252  0.1735  0.5176
  974TIP3   OH2 2862   1.066   3.305   1.343  0.3320  0.3051  0.6758
  974TIP3    H1 2863   1.029   3.328   1.428  0.9466 -0.6581  1.2386
  974TIP3    H2 2864   1.029   3.218   1.324  0.0061  0.6207 -0.1672
  975TIP3   OH2 2865   2.145   0.685   4.399 -1.0109 -0.3500 -0.1650
  975TIP3    H1 2866   2.188   0.613   4.353  0.0678  0.2358 -0.0984
  975TIP3    H2 2867   2.094   0.729   4.331 -0.2245 -0.0908 -0.5986
  976TIP3   OH2 2868   1.022   3.773   4.654 -0.3430  0.0290 -0.1426
  976TIP3    H1 2869   0.929   3.753   4.663 -0.2503  0.3584  1.9275
  976TIP3    H2 2870   1.066   3.689   4.671 -0.2366 -0.1651 -1.2784
  977TIP3   OH2 2871   3.529   1.319   5.374 -0.0377  0.6140 -0.7188
  977TIP3    H1 2872   3.513   1.276   5.290 -1.4742  1.8587 -1.1240
  977TIP3    H2 2873   3.458   1.290   5.430  1.1180 -0.5014  0.2378
  978TIP3   OH2 2874   3.416   2.555   0.403 -0.1973 -0.2844  0.3937
  978TIP3    H1 2875   3.369   2.472   0.403  1.7672 -1.4529 -0.4587
  978TIP3    H2 2876   3.449   2.565   0.314  0.1523  1.1082  0.6523
  979TIP3   OH2 2877   5.126   6.179   1.785  0.3602 -0.0181 -0.1818
  979TIP3    H1 2878   5.102   6.103   1.839 -0.8961  0.4275 -0.0664
  979TIP3    H2 2879   5.219   6.167   1.767  0.2561 -1.4428  0.0630
  980TIP3   OH2 2880   7.429   4.769   0.895 -0.4616  0.6570 -0.5072
  980TIP3    H1 2881   7.506   4.805   0.850  1.0932 -1.9595 -0.1544
  980TIP3    H2 2882   7.386   4.714   0.830  0.8825 -1.8481  0.5705
  981TIP3   OH2 2883   3.433   7.254   1.505 -0.2686 -0.1687  0.5163
  981TIP3    H1 2884   3.459   7.303   1.583 -1.2531 -1.2913  1.5858
  981TIP3    H2 2885   3.469   7.304   1.432  0.2440  1.1829  1.6604
  982TIP3   OH2 2886   8.260   3.186   3.000 -0.0054  0.2881 -0.1143
  982TIP3    H1 2887   8.270   3.123   2.929  0.3643  1.0520 -0.7567
  982TIP3    H2 2888   8.273   3.134   3.080 -0.7374 -0.6356 -0.5823
  983TIP3   OH2 2889   3.909   2.939   5.942 -0.6362 -0.0318 -0.4502
  983TIP3    H1 2890   3.813   2.935   5.946 -0.6298 -0.8166 -0.9058
  983TIP3    H2 2891   3.933   2.879   5.872  0.2990 -1.5134  1.0612
  984TIP3   OH2 2892   7.035   0.667   5.811 -0.2082 -0.0857  0.2113
  984TIP3    H1 2893   7.042   0.739   5.875 -1.7985 -0.7774  1.2163
  984TIP3    H2 2894   6.988   0.705   5.737 -2.6581 -0.4497  1.4626
  985TIP3   OH2 2895   6.173   5.277   1.320 -0.8188  0.2748 -0.1781
  985TIP3    H1 2896   6.138   5.214   1.257  2.7241 -0.7622 -1.3027
  985TIP3    H2 2897   6.194   5.354   1.269 -1.3660  0.8569  0.4552
  986TIP3   OH2 2898   8.141   1.914   6.063 -0.1580 -0.1919 -0.3188
  986TIP3    H1 2899   8.114   1.984   6.003  1.3738  0.2084 -0.5843
  986TIP3    H2 2900   8.093   1.932   6.144  1.4199  2.1559  0.1608
  987TIP3   OH2 2901   4.581   6.865   2.183 -0.3187  0.7138 -0.3097
  987TIP3    H1 2902   4.527   6.825   2.251 -0.5148 -1.2407 -1.5395
  987TIP3    H2 2903   4.666   6.822   2.190 -0.3501  0.4579 -1.3055
  988TIP3   OH2 2904   7.281   7.404   3.907 -0.3025 -0.3716  0.2665
  988TIP3    H1 2905   7.283   7.309   3.907  1.4163 -0.4179 -2.2581
  988TIP3    H2 2906   7.358   7.430   3.957 -1.3269 -0.2143  1.8531
  989TIP3   OH2 2907   5.245   5.816   0.214 -0.4211  0.0305  0.3804
  989TIP3    H1 2908   5.154   5.815   0.183 -0.3758 -0.9071  0.2489
  989TIP3    H2 2909   5.256   5.732   0.258  0.3045  0.2565  0.6421
  990TIP3   OH2 2910   4.686   1.428   3.898 -0.3066 -0.1187 -0.0579
  990TIP3    H1 2911   4.676   1.510   3.946  2.8442 -0.5685  1.6600
  990TIP3    H2 2912   4.722   1.454   3.813  0.2105  0.3446  0.2936
  991TIP3   OH2 2913   1.625   0.898   0.861 -0.1459 -0.1073  0.3879
  991TIP3    H1 2914   1.680   0.920   0.786  1.3804 -0.8557  1.2312
  991TIP3    H2 2915   1.536   0.897   0.826  0.1096  2.8586 -0.6634
  992TIP3   OH2 2916   8.305   7.210   2.808 -0.5978  0.4394  0.0299
  992TIP3    H1 2917   8.279   7.169   2.726  1.6745  0.0541 -0.5654
  992TIP3    H2 2918   8.258   7.160   2.875 -0.9758 -0.5233 -0.9135
  993TIP3   OH2 2919   5.837   4.116   1.006  0.2015  0.3714  0.1758
  993TIP3    H1 2920   5.859   4.079   1.091 -1.5186 -1.3468 -0.0574
  993TIP3    H2 2921   5.815   4.040   0.951 -1.4646  1.5858 -0.9457
  994TIP3   OH2 2922   7.362   3.742   4.909 -0.1508  0.3059  0.5621
  994TIP3    H1 2923   7.316   3.820   4.941 -1.9338 -0.4112 -0.1644
  994TIP3    H2 2924   7.387   3.764   4.819 -0.3307  0.1667  0.4787
  995TIP3   OH2 2925   6.736   7.734   1.710 -0.3257  0.0516  0.0540
  995TIP3    H1 2926   6.785   7.654   1.724 -0.1067  0.1383 -0.2130
  995TIP3    H2 2927   6.714   7.765   1.798 -1.8338 -1.1650  0.1389
  996TIP3   OH2 2928   4.493   0.264   2.647  0.0406  0.2199  0.5581
  996TIP3    H1 2929   4.410   0.312   2.648  0.0698  0.2665  0.7963
  996TIP3    H2 2930   4.544   0.303   2.718  0.6667  0.8920 -0.2454
  997TIP3   OH2 2931   1.569   3.031   0.863  1.0383  0.0334  0.0033
  997TIP3    H1 2932   1.483   3.073   0.859  2.2401  2.7340  0.4954
  997TIP3    H2 2933   1.580   3.009   0.956  1.1356  0.2935  0.0546
  998TIP3   OH2 2934   5.210   1.827   4.501  0.1948  0.1083 -0.1052
  998TIP3    H1 2935   5.212   1.921   4.486 -1.6771  0.1840 -0.1809
  998TIP3    H2 2936   5.182   1.790   4.418 -2.7271 -0.1331  0.8581
  999TIP3   OH2 2937   0.061   0.370   1.366  0.4654 -0.1942 -0.2853
  999TIP3    H1 2938   0.082   0.279   1.383  2.8516  0.7480  2.7838
  999TIP3    H2 2939   0.100   0.389   1.281  0.0798 -1.9310 -0.8750
 1000TIP3   OH2 2940   3.819   3.277   0.682  0.3894 -0.1863  0.3007
 1000TIP3    H1 2941   3.772   3.257   0.600 -0.3790  0.7422  0.4828
 1000TIP3    H2 2942   3.908   3.296   0.654  0.0647  0.4239 -0.3836
 1001TIP3   OH2 2943   4.331   3.112   2.694 -0.2738 -0.0208 -0.6143
 1001TIP3    H1 2944   4.277   3.045   2.737  1.5260 -0.6743  0.7862
 1001TIP3    H2 2945   4.411   3.115   2.747  0.4438  1.9742 -1.7182
 1002TIP3   OH2 2946   3.882   3.696   2.036  0.5301  0.1678 -0.0020
 1002TIP3    H1 2947   3.798   3.705   1.990  0.5551  0.9475  0.0845
 1002TIP3    H2 2948   3.892   3.779   2.083  0.2574 -0.8004  1.8464
 1003TIP3   OH2 2949   0.720   4.436   0.302 -0.2660 -0.0933 -0.4038
 1003TIP3    H1 2950   0.682   4.349   0.312 -0.3303  0.0885  1.1466
 1003TIP3    H2 2951   0.748   4.440   0.210  1.0043 -2.2392 -0.1647
 1004TIP3   OH2 2952   2.647   4.724   1.459  0.3142 -0.4676 -0.9811
 1004TIP3    H1 2953   2.571   4.729   1.401 -1.5782  0.4469  1.3938
 1004TIP3    H2 2954   2.675   4.633   1.453 -2.8753 -1.6651  0.2178
 1005TIP3   OH2 2955   8.388   4.231   1.327 -0.3271 -0.8061 -0.0749
 1005TIP3    H1 2956   8.319   4.296   1.342  0.9675  0.7787 -0.6139
 1005TIP3    H2 2957   8.410   4.199   1.414 -1.0345 -0.5662  0.2002
 1006TIP3   OH2 2958   6.669   0.774   0.031 -0.5463 -0.0421  0.1085
 1006TIP3    H1 2959   6.631   0.764  -0.056 -2.7122 -0.9711  1.0741
 1006TIP3    H2 2960   6.698   0.866   0.034 -2.0601  0.5164 -1.0170
 1007TIP3   OH2 2961   4.100   3.922   4.879 -0.0589 -0.2125 -0.0320
 1007TIP3    H1 2962   4.070   3.903   4.791  1.2988 -0.6057 -0.4362
 1007TIP3    H2 2963   4.195   3.918   4.873  0.0541 -1.7846  1.7612
 1008TIP3   OH2 2964   6.554   7.202   5.676  0.3747  0.0368  0.4084
 1008TIP3    H1 2965   6.596   7.216   5.761 -0.7499 -0.5063  1.0703
 1008TIP3    H2 2966   6.535   7.108   5.673 -1.1317  0.3194  0.3107
 1009TIP3   OH2 2967   5.735   7.036   2.916  0.5236 -0.4022  0.2908
 1009TIP3    H1 2968   5.774   6.995   2.993  1.3924 -0.0471  0.0586
 1009TIP3    H2 2969   5.781   7.120   2.908 -1.4441  0.8001  0.9554
 1010TIP3   OH2 2970   1.637   2.835   0.687 -0.2781  0.2717  0.3161
 1010TIP3    H1 2971   1.715   2.797   0.728 -1.8522 -1.0957  2.2849
 1010TIP3    H2 2972   1.620   2.915   0.737  1.6013  2.4466 -2.2239
 1011TIP3   OH2 2973   6.767   3.824   4.325  0.5996  0.1499 -0.0950
 1011TIP3    H1 2974   6.710   3.771   4.381  0.6665  1.9486  1.8327
 1011TIP3    H2 2975   6.742   3.801   4.236 -2.7765  0.4179  0.6494
 1012TIP3   OH2 2976   3.046   7.016   2.609 -0.1003  0.3319 -0.0739
 1012TIP3    H1 2977   3.106   7.035   2.681  0.9249  0.4327 -0.9213
 1012TIP3    H2 2978   3.063   7.085   2.545  0.6135 -0.9634 -1.3483
 1013TIP3   OH2 2979   2.022   0.969   0.766 -0.4092  0.4126  0.8250
 1013TIP3    H1 2980   1.983   0.924   0.841 -0.5707  0.0074  0.5012
 1013TIP3    H2 2981   2.113   0.938   0.764 -0.4622  0.2659  0.7270
 1014TIP3   OH2 2982   0.406   0.542   3.917 -0.0373  0.0508 -0.1927
 1014TIP3    H1 2983   0.412   0.527   4.012 -1.1528  1.2283  0.0920
 1014TIP3    H2 2984   0.348   0.474   3.886 -0.8661  0.5485  0.2303
 1015TIP3   OH2 2985   3.619   3.980   2.394 -0.1989  0.3656 -0.0601
 1015TIP3    H1 2986   3.621   3.885   2.384  0.5422  0.3126  0.4777
 1015TIP3    H2 2987   3.578   3.995   2.480  1.0133  0.4512  0.5320
 1016TIP3   OH2 2988   8.372   2.267   4.680 -0.2059 -0.4428  0.3205
 1016TIP3    H1 2989   8.388   2.281   4.773  0.8893  2.0458 -0.1493
 1016TIP3    H2 2990   8.362   2.356   4.644 -1.9131 -1.3886 -1.7198
 1017TIP3   OH2 2991   7.191   0.415   2.792 -0.7055  0.4720 -0.6514
 1017TIP3    H1 2992   7.270   0.458   2.759 -0.8809  1.7566  0.4876
 1017TIP3    H2 2993   7.155   0.478   2.855 -2.2348 -0.4144 -0.6117
 1018TIP3   OH2 2994   8.051   5.395   1.622  0.2601 -0.2544  0.0231
 1018TIP3    H1 2995   8.124   5.412   1.682  0.7143 -0.5749 -0.4269
 1018TIP3    H2 2996   7.990   5.342   1.673 -0.0502  0.7047  0.6666
 1019TIP3   OH2 2997   1.099   5.741   3.816 -0.2210  0.0675 -0.5453
 1019TIP3    H1 2998   1.088   5.654   3.777  1.2054  0.2939 -1.5370
 1019TIP3    H2 2999   1.170   5.731   3.879  0.2197  0.5961 -0.9514
 1020TIP3   OH2 3000   2.288   3.492   5.706 -0.3099 -0.1458  0.1523
 1020TIP3    H1 3001   2.313   3.404   5.678  0.2665 -0.3947  1.3919
 1020TIP3    H2 3002   2.359   3.548   5.674  1.2201 -0.6542  2.4058
 1021TIP3   OH2 3003   5.017   0.817   5.634 -0.4075 -0.4018  0.0608
 1021TIP3    H1 3004   4.952   0.772   5.581 -1.1148 -0.3637  0.8612
 1021TIP3    H2 3005   5.065   0.747   5.678  0.2503 -0.4362 -0.7009
 1022TIP3   OH2 3006   7.247   6.047   5.417  0.0515 -0.1972 -0.1042
 1022TIP3    H1 3007   7.214   5.984   5.481  0.2721 -1.0841 -0.8262
 1022TIP3    H2 3008   7.183   6.117   5.417  0.7787  0.5555  2.1202
 1023TIP3   OH2 3009   3.583   5.954   4.038  0.1795 -0.0713 -0.7927
 1023TIP3    H1 3010   3.587   6.032   3.982  1.2737 -0.4781 -1.3119
 1023TIP3    H2 3011   3.661   5.904   4.014  0.3659 -0.5304  0.7151
 1024TIP3   OH2 3012   4.955   3.108   4.191 -0.0992 -0.8388 -0.5255
 1024TIP3    H1 3013   5.025   3.112   4.256 -1.1756  0.2411  0.6337
 1024TIP3    H2 3014   4.889   3.051   4.232  0.3758 -2.4630 -1.9228
 1025TIP3   OH2 3015   5.741   0.545   4.459 -0.1788  0.3495 -0.3010
 1025TIP3    H1 3016   5.762   0.563   4.550 -0.4705  0.5574 -0.2767
 1025TIP3    H2 3017   5.681   0.471   4.461 -1.4516  1.3478 -0.2301
 1026TIP3   OH2 3018   7.536   7.329   1.698 -0.3802 -0.2493 -0.0133
 1026TIP3    H1 3019   7.481   7.251   1.711  1.4442 -1.7375 -0.6497
 1026TIP3    H2 3020   7.519   7.383   1.774 -1.6415 -1.3138  0.5118
 1027TIP3   OH2 3021   4.316   0.242   1.051 -0.6639  0.0618 -0.3259
 1027TIP3    H1 3022   4.319   0.153   1.086  1.7523  0.9048  1.8482
 1027TIP3    H2 3023   4.227   0.272   1.070 -0.5514 -0.8159  1.8578
 1028TIP3   OH2 3024   6.414   0.995   3.206 -0.4626  0.3119 -0.0628
 1028TIP3    H1 3025   6.412   0.916   3.259 -1.6479  0.0527 -0.4632
 1028TIP3    H2 3026   6.371   1.062   3.260  4.0789  1.9587  2.0745
 1029TIP3   OH2 3027  -0.009   4.866   0.829  0.0226  0.4204 -0.5769
 1029TIP3    H1 3028   0.060   4.800   0.815  0.3766  0.0848  2.2355
 1029TIP3    H2 3029   0.037   4.950   0.825  0.5483  0.2174  0.8777
 1030TIP3   OH2 3030   1.582   0.106   0.701  0.3589 -0.3890 -0.3607
 1030TIP3    H1 3031   1.512   0.148   0.651  1.9590  1.0173 -1.5411
 1030TIP3    H2 3032   1.541   0.084   0.785 -1.3418  0.8593 -0.7971
 1031TIP3   OH2 3033   7.966   0.314   3.907 -0.7300 -0.1337  0.4442
 1031TIP3    H1 3034   7.941   0.402   3.936  0.0088  0.5680 -0.9459
 1031TIP3    H2 3035   8.002   0.272   3.985 -2.3575  0.2789  1.4759
 1032TIP3   OH2 3036   7.275   4.076   5.861 -0.0619 -0.5853  0.3137
 1032TIP3    H1 3037   7.298   4.150   5.917 -0.1370 -0.8582  0.7084
 1032TIP3    H2 3038   7.359   4.033   5.843 -0.0951 -0.7989  0.6495
 1033TIP3   OH2 3039   0.821   2.180   5.264  0.5932 -0.0054  0.2755
 1033TIP3    H1 3040   0.898   2.124   5.272  0.1631 -0.7955 -0.7751
 1033TIP3    H2 3041   0.849   2.266   5.295  2.0638 -0.1377 -0.6295
 1034TIP3   OH2 3042   2.681   2.107   2.691 -0.5349 -0.0725 -0.6768
 1034TIP3    H1 3043   2.748   2.164   2.729 -0.7759 -0.2400  0.0188
 1034TIP3    H2 3044   2.718   2.079   2.608 -1.2040  2.6729 -2.0163
 1035TIP3   OH2 3045   4.715   0.376   0.682  0.0732 -0.0254 -0.2627
 1035TIP3    H1 3046   4.641   0.393   0.740 -0.2335 -1.5238 -0.2016
 1035TIP3    H2 3047   4.679   0.381   0.594 -0.0013 -0.2995 -0.2473
 1036TIP3   OH2 3048   6.305   4.922   5.794  0.1544  0.1296  0.1045
 1036TIP3    H1 3049   6.319   4.847   5.851 -0.0737  1.2273  1.6743
 1036TIP3    H2 3050   6.386   4.973   5.801  0.5697 -0.2673 -1.4616
 1037TIP3   OH2 3051   2.462   3.976   5.286 -0.6989 -0.2296  0.1192
 1037TIP3    H1 3052   2.383   3.927   5.306  0.1062 -1.2884  0.8289
 1037TIP3    H2 3053   2.500   3.996   5.372 -1.7118  2.9356 -0.0205
 1038TIP3   OH2 3054   4.862   6.759   1.827  0.1617  0.0373 -0.2432
 1038TIP3    H1 3055   4.922   6.806   1.770 -0.3812 -1.5381 -2.2153
 1038TIP3    H2 3056   4.775   6.793   1.804 -0.1479 -1.2398 -1.0728
 1039TIP3   OH2 3057   7.880   6.049   0.175  0.0235 -0.1090 -0.1383
 1039TIP3    H1 3058   7.933   5.970   0.166  0.1711 -0.3221  2.2007
 1039TIP3    H2 3059   7.861   6.056   0.268 -1.5863  1.5999 -0.5278
 1040TIP3   OH2 3060   5.897   1.081   2.732 -0.2043 -0.5243 -0.3768
 1040TIP3    H1 3061   5.812   1.122   2.747  0.1316  0.4466 -1.0176
 1040TIP3    H2 3062   5.922   1.108   2.643  0.2723 -1.7145 -0.6326
 1041TIP3   OH2 3063   2.576   3.991   2.019  0.2387  0.5667 -0.0470
 1041TIP3    H1 3064   2.491   3.953   1.997  0.1397  0.3108  0.7265
 1041TIP3    H2 3065   2.556   4.079   2.050  0.3020  0.6695 -0.2991
 1042TIP3   OH2 3066   4.987   6.911   6.013  0.1822 -0.3295 -0.0614
 1042TIP3    H1 3067   4.904   6.869   6.035  0.0296 -0.0736 -0.1514
 1042TIP3    H2 3068   5.035   6.844   5.963  0.4892 -0.8762  0.9350
 1043TIP3   OH2 3069   7.897   6.005   1.465 -0.1141  0.2354 -0.3054
 1043TIP3    H1 3070   7.846   6.019   1.545 -1.6186 -0.3383 -1.1073
 1043TIP3    H2 3071   7.839   5.952   1.410  1.2773 -0.2170 -1.3866
 1044TIP3   OH2 3072   0.100   2.895   0.086 -0.3925  0.5280 -0.0944
 1044TIP3    H1 3073   0.158   2.929   0.154 -0.0049  1.1302 -0.7216
 1044TIP3    H2 3074   0.035   2.964   0.072  0.0207  0.7611 -0.9161
 1045TIP3   OH2 3075   0.123   3.700   1.144 -0.3774 -0.7029  0.0183
 1045TIP3    H1 3076   0.097   3.657   1.063  1.4891 -0.8041 -0.5680
 1045TIP3    H2 3077   0.045   3.696   1.199 -1.6596 -0.7141 -1.7203
 1046TIP3   OH2 3078   1.190   2.948   5.613 -0.5584  0.8676  0.0175
 1046TIP3    H1 3079   1.121   2.964   5.549 -0.7913 -1.5395 -0.4159
 1046TIP3    H2 3080   1.271   2.949   5.562 -0.7398 -1.0023 -0.3706
 1047TIP3   OH2 3081   3.413   3.898   2.206 -0.6894  0.4869 -0.3357
 1047TIP3    H1 3082   3.396   3.990   2.225  0.3765  1.3125 -2.9363
 1047TIP3    H2 3083   3.508   3.889   2.214 -0.8727 -0.6608  0.8510
 1048TIP3   OH2 3084   7.604   1.863   3.176  0.1477 -0.8896 -0.1701
 1048TIP3    H1 3085   7.541   1.869   3.104  0.7150 -1.0262 -0.6865
 1048TIP3    H2 3086   7.592   1.775   3.211 -0.0213 -0.8784 -0.1991
 1049TIP3   OH2 3087   5.920   6.151   3.817  0.6733  0.0070 -0.2407
 1049TIP3    H1 3088   5.833   6.191   3.810  0.8765  0.5911  0.5285
 1049TIP3    H2 3089   5.913   6.072   3.764  0.5337  1.4713 -2.5236
 1050TIP3   OH2 3090   1.830   5.377   4.516  0.1882  0.4401  0.1091
 1050TIP3    H1 3091   1.896   5.394   4.583  0.1736  1.9183 -0.2185
 1050TIP3    H2 3092   1.746   5.384   4.563  0.2101 -1.0526  0.4406
 1051TIP3   OH2 3093   7.012   1.572   1.746  0.7057 -0.0710  0.2111
 1051TIP3    H1 3094   6.987   1.651   1.700  0.4856 -0.6594 -0.7068
 1051TIP3    H2 3095   6.949   1.564   1.818 -0.3509 -0.3377 -0.7290
 1052TIP3   OH2 3096   5.160   1.329   0.744  0.2802 -0.1636  0.1417
 1052TIP3    H1 3097   5.218   1.257   0.717  1.0574  0.4770  0.0434
 1052TIP3    H2 3098   5.111   1.293   0.818  1.6400 -0.3776  0.9848
 1053TIP3   OH2 3099   3.406   2.988   1.090 -0.1299 -0.0780  0.1075
 1053TIP3    H1 3100   3.316   2.963   1.071  0.2907 -1.3570 -0.3135
 1053TIP3    H2 3101   3.436   3.034   1.012 -1.0371  2.2523  1.0418
 1054TIP3   OH2 3102   6.498   3.663   5.637  0.1830 -0.2138  0.6023
 1054TIP3    H1 3103   6.460   3.609   5.568 -0.4374  0.8379  0.0872
 1054TIP3    H2 3104   6.433   3.732   5.652  1.5809  1.2677  0.1621
 1055TIP3   OH2 3105   4.913   0.347   0.313 -0.1585  0.3931 -0.0350
 1055TIP3    H1 3106   4.933   0.372   0.222  0.1376  0.4773  0.0531
 1055TIP3    H2 3107   4.960   0.265   0.326  0.3908  0.7542  0.2749
 1056TIP3   OH2 3108   4.464   4.571   1.361  0.0707  0.0196  0.8675
 1056TIP3    H1 3109   4.379   4.536   1.338  1.1451 -3.5895  1.7994
 1056TIP3    H2 3110   4.460   4.585   1.456 -0.4435  3.1010  0.4938
 1057TIP3   OH2 3111   7.691   6.671   6.633 -0.1788 -0.3270 -0.1277
 1057TIP3    H1 3112   7.717   6.717   6.713  2.2541 -0.4254 -0.7855
 1057TIP3    H2 3113   7.773   6.639   6.596 -1.5342 -3.3295 -0.8704
 1058TIP3   OH2 3114   5.882   2.701   4.195 -0.4247  0.2809  0.1333
 1058TIP3    H1 3115   5.833   2.693   4.114 -0.9179  1.1379  0.3348
 1058TIP3    H2 3116   5.879   2.794   4.216  0.5730  0.2234  0.5961
 1059TIP3   OH2 3117   7.971   7.385   2.803  0.3567  0.1669  0.0179
 1059TIP3    H1 3118   7.983   7.394   2.708 -1.7551  0.4410 -0.2622
 1059TIP3    H2 3119   7.882   7.353   2.813  0.7315 -0.3984  1.9211
 1060TIP3   OH2 3120   7.663   4.820   6.658  0.1464  0.1234 -0.1597
 1060TIP3    H1 3121   7.660   4.726   6.640 -1.7532 -0.1222  1.1608
 1060TIP3    H2 3122   7.755   4.837   6.679  0.6265 -1.3225 -0.9266
 1061TIP3   OH2 3123   1.509   2.504   1.576  0.5455  0.1596 -0.1403
 1061TIP3    H1 3124   1.533   2.527   1.486  1.7601  0.2755  0.1928
 1061TIP3    H2 3125   1.430   2.450   1.567  0.4970  0.3886 -1.2493
 1062TIP3   OH2 3126   0.824   1.425   1.246 -0.2270  0.0451  0.2564
 1062TIP3    H1 3127   0.879   1.492   1.286 -1.3248  0.6491  0.7882
 1062TIP3    H2 3128   0.831   1.350   1.304 -1.1433  0.6345  1.1659
 1063TIP3   OH2 3129   2.408   0.303   4.081 -0.0455  0.2724 -0.5183
 1063TIP3    H1 3130   2.354   0.240   4.129  0.0354 -0.3350 -1.2090
 1063TIP3    H2 3131   2.498   0.274   4.097  0.2072  1.8906  1.5015
 1064TIP3   OH2 3132   1.080   5.211   5.794 -0.0769  0.3508  0.0022
 1064TIP3    H1 3133   1.091   5.167   5.877  1.6590  1.3258  0.3404
 1064TIP3    H2 3134   1.076   5.304   5.816 -1.4978  0.5359 -0.8684
 1065TIP3   OH2 3135   1.565   6.966   2.899  0.2508 -0.2519  0.5926
 1065TIP3    H1 3136   1.482   6.961   2.853 -0.5756  0.8461  1.9137
 1065TIP3    H2 3137   1.604   7.048   2.869 -0.3197  0.5020  1.8331
 1066TIP3   OH2 3138   1.221   3.198   1.770 -0.2020 -0.1903 -0.3765
 1066TIP3    H1 3139   1.128   3.179   1.783 -0.0730  0.4293  1.8786
 1066TIP3    H2 3140   1.224   3.292   1.754 -0.0033 -0.3199 -1.1301
 1067TIP3   OH2 3141   7.864   1.474   1.314  0.3546 -0.2811 -0.3684
 1067TIP3    H1 3142   7.908   1.511   1.390 -0.0630  1.2558 -0.8454
 1067TIP3    H2 3143   7.812   1.401   1.349  1.4328 -0.6385  0.5425
 1068TIP3   OH2 3144   4.148   7.350   3.741 -0.2843 -0.5444  0.0818
 1068TIP3    H1 3145   4.179   7.439   3.724 -0.1152 -0.8096 -1.0875
 1068TIP3    H2 3146   4.058   7.350   3.707  0.7182 -1.6471 -2.8059
 1069TIP3   OH2 3147   3.280   0.584   0.845 -0.6673 -0.0758  0.0762
 1069TIP3    H1 3148   3.358   0.587   0.790 -0.0789 -0.6789  0.8756
 1069TIP3    H2 3149   3.208   0.572   0.782  0.2778 -4.5973 -0.4324
 1070TIP3   OH2 3150   0.759   0.009   1.976 -0.3567  0.1284 -0.1433
 1070TIP3    H1 3151   0.790   0.017   2.066  1.6907  0.8603 -0.8731
 1070TIP3    H2 3152   0.827   0.050   1.923 -0.8756 -1.4758 -2.1524
 1071TIP3   OH2 3153   2.211   7.375   1.373 -0.0808  0.5261  0.0457
 1071TIP3    H1 3154   2.280   7.311   1.390 -0.0601  0.3354 -0.6949
 1071TIP3    H2 3155   2.250   7.437   1.311 -0.3890  0.7462  0.0673
 1072TIP3   OH2 3156   4.863   7.901   5.575  0.2709 -0.2561 -0.0549
 1072TIP3    H1 3157   4.929   7.836   5.553  0.1966  0.2404 -1.8802
 1072TIP3    H2 3158   4.787   7.850   5.602  0.3216 -0.9266 -1.1369
 1073TIP3   OH2 3159   4.799   5.803   1.349 -0.0665 -0.1198 -0.2794
 1073TIP3    H1 3160   4.791   5.732   1.413  1.5926  0.4112  0.5798
 1073TIP3    H2 3161   4.880   5.784   1.302  0.5385  1.2889  0.1277
 1074TIP3   OH2 3162   6.877   1.842   1.207 -0.3255 -0.0494 -0.4378
 1074TIP3    H1 3163   6.824   1.855   1.286 -0.9772 -0.8328 -0.7358
 1074TIP3    H2 3164   6.899   1.931   1.178 -0.1571  0.2450  0.5657
 1075TIP3   OH2 3165   4.417   3.211   0.028 -0.7262  0.6578 -0.7686
 1075TIP3    H1 3166   4.473   3.233   0.103  0.2495 -0.3807 -1.1626
 1075TIP3    H2 3167   4.339   3.265   0.040 -1.0590 -0.2126  1.5757
 1076TIP3   OH2 3168   7.745   2.581   3.406  0.2091  0.1195 -0.3731
 1076TIP3    H1 3169   7.682   2.637   3.451 -0.1588  1.3480 -2.2792
 1076TIP3    H2 3170   7.808   2.556   3.473 -2.0034 -0.7633  1.4887
 1077TIP3   OH2 3171   0.737   6.205   4.010 -0.1355 -0.0972  0.5165
 1077TIP3    H1 3172   0.753   6.280   4.068 -0.1826  0.2618  0.0748
 1077TIP3    H2 3173   0.688   6.143   4.064 -0.2122  0.2452  0.8505
 1078TIP3   OH2 3174   1.860   2.475   2.359 -0.0517  0.3700  0.1619
 1078TIP3    H1 3175   1.909   2.393   2.359  0.1955  0.5171  0.3573
 1078TIP3    H2 3176   1.775   2.451   2.322 -1.0831 -0.6538  2.8843
 1079TIP3   OH2 3177   4.493   0.127   3.541  0.3500  0.3641  0.4343
 1079TIP3    H1 3178   4.397   0.120   3.538  0.3717  0.5193 -1.4334
 1079TIP3    H2 3179   4.509   0.212   3.582 -0.2892  0.0452  1.3734
 1080TIP3   OH2 3180   0.588   5.197   5.742  1.1899 -0.1268 -0.0603
 1080TIP3    H1 3181   0.644   5.206   5.820  2.7888  0.5506 -1.2219
 1080TIP3    H2 3182   0.616   5.115   5.703  1.0974  0.0239 -0.4450
 1081TIP3   OH2 3183   8.097   3.293   4.666 -0.1400 -0.1500 -0.1628
 1081TIP3    H1 3184   8.169   3.331   4.718 -0.0097 -0.7039  0.0609
 1081TIP3    H2 3185   8.030   3.361   4.666 -0.0957 -0.1012  0.6415
 1082TIP3   OH2 3186   0.884   7.092   1.089  0.1280 -0.3455  0.1448
 1082TIP3    H1 3187   0.943   7.165   1.108 -0.1182 -0.0389 -0.2499
 1082TIP3    H2 3188   0.904   7.027   1.156 -0.8485  0.7789  1.5631
 1083TIP3   OH2 3189   4.312   3.191   6.590  0.2177 -0.3179  0.1956
 1083TIP3    H1 3190   4.349   3.105   6.570  1.2426  0.1951 -0.1641
 1083TIP3    H2 3191   4.326   3.202   6.684  0.8159 -0.2073  0.0956
 1084TIP3   OH2 3192   6.732   0.844   5.389  0.1083 -0.4612  0.1715
 1084TIP3    H1 3193   6.715   0.774   5.452  0.6000 -1.3392 -0.6589
 1084TIP3    H2 3194   6.818   0.824   5.353  1.0425  1.4981  1.1201
 1085TIP3   OH2 3195   1.979   6.135   6.682 -0.6030  0.5084 -0.4535
 1085TIP3    H1 3196   1.929   6.216   6.677  2.3944  2.5390 -0.1893
 1085TIP3    H2 3197   2.015   6.134   6.771 -0.6682 -1.1889 -0.4131
 1086TIP3   OH2 3198   1.004   4.590   6.040  0.0515  0.5180  0.3187
 1086TIP3    H1 3199   1.067   4.550   5.981 -0.8132 -0.2055 -0.1439
 1086TIP3    H2 3200   0.924   4.598   5.988 -0.4242  0.8428  1.0769
 1087TIP3   OH2 3201   4.334   0.964   2.523 -0.2849 -0.5121  0.3067
 1087TIP3    H1 3202   4.404   0.913   2.564 -0.1894 -0.8829 -0.3101
 1087TIP3    H2 3203   4.359   1.055   2.538 -0.1512 -0.6393  0.8960
 1088TIP3   OH2 3204   4.648   1.995   6.750  0.3675 -0.4347  0.1187
 1088TIP3    H1 3205   4.733   2.030   6.775 -0.1456  0.1595  1.0879
 1088TIP3    H2 3206   4.588   2.025   6.819 -0.8123 -0.0193 -1.0303
 1089TIP3   OH2 3207   2.468   5.724   1.691 -0.6604 -0.3799  0.0631
 1089TIP3    H1 3208   2.483   5.804   1.741  2.5622 -0.3813 -0.6998
 1089TIP3    H2 3209   2.420   5.666   1.751 -3.3409  2.0963  0.5290
 1090TIP3   OH2 3210   0.007   3.937   0.058  0.0360 -0.1337  0.8265
 1090TIP3    H1 3211   0.062   3.924   0.136 -0.9768  0.2985  1.6362
 1090TIP3    H2 3212  -0.054   3.863   0.060 -1.3495  0.9976  1.6385
 1091TIP3   OH2 3213   6.061   7.814   2.636  0.1731  0.6000  0.4382
 1091TIP3    H1 3214   6.036   7.891   2.585  1.3105  1.1377  0.6457
 1091TIP3    H2 3215   5.979   7.770   2.655 -0.4931  1.6800  0.1672
 1092TIP3   OH2 3216   7.962   4.468   1.288  0.0778  0.3843 -0.2551
 1092TIP3    H1 3217   7.880   4.463   1.337 -0.2505  1.5098 -0.6526
 1092TIP3    H2 3218   7.972   4.381   1.250  0.1838 -0.4280  1.5219
 1093TIP3   OH2 3219   2.143   1.458   3.623  0.7241  0.4157 -0.0889
 1093TIP3    H1 3220   2.125   1.452   3.529  0.3248  1.2640 -0.0788
 1093TIP3    H2 3221   2.171   1.370   3.647 -1.2978 -0.4269 -0.5749
 1094TIP3   OH2 3222   8.182   7.771   0.470  0.0995  0.5639  0.1940
 1094TIP3    H1 3223   8.250   7.713   0.434 -0.5283 -0.1539  0.1326
 1094TIP3    H2 3224   8.206   7.858   0.438  1.8426  0.5814  1.4101
 1095TIP3   OH2 3225   4.081   5.796   3.282  0.0384  0.2228  0.8174
 1095TIP3    H1 3226   4.031   5.876   3.268 -2.0096 -1.3406 -1.6384
 1095TIP3    H2 3227   4.159   5.807   3.227  0.7481  1.2498  1.9755
 1096TIP3   OH2 3228   2.988   4.294   3.084  0.6474  0.2369  0.2940
 1096TIP3    H1 3229   3.045   4.325   3.154  1.3493  0.6609 -0.4485
 1096TIP3    H2 3230   2.952   4.374   3.045 -0.5443 -0.0283  0.8137
 1097TIP3   OH2 3231   0.253   1.079   5.379 -0.2019  0.4246  0.2281
 1097TIP3    H1 3232   0.342   1.045   5.377 -0.1986  0.4417  0.0884
 1097TIP3    H2 3233   0.244   1.128   5.298 -0.6233 -0.3163 -0.1847
 1098TIP3   OH2 3234   6.799   6.917   2.029 -0.0348  0.1563  0.1409
 1098TIP3    H1 3235   6.867   6.968   2.072  1.2408 -0.5059 -1.0350
 1098TIP3    H2 3236   6.717   6.960   2.055  0.8367  1.2061  1.2535
 1099TIP3   OH2 3237   3.241   1.086   5.412 -0.6030 -0.3308  0.6595
 1099TIP3    H1 3238   3.293   1.129   5.479 -1.0410 -0.5288  1.1366
 1099TIP3    H2 3239   3.171   1.041   5.461 -0.7931 -0.6669  0.0928
 1100TIP3   OH2 3240   3.825   5.304   5.640  0.0993 -0.1698  0.2819
 1100TIP3    H1 3241   3.822   5.293   5.735 -0.8671  0.3358  0.3277
 1100TIP3    H2 3242   3.801   5.396   5.626 -0.7327 -0.4936 -0.4902
 1101TIP3   OH2 3243   5.571   2.019   4.111  0.0945 -0.1320 -0.0707
 1101TIP3    H1 3244   5.650   1.972   4.137 -0.1661 -0.5725 -0.0720
 1101TIP3    H2 3245   5.598   2.068   4.032  0.5561  0.2856  0.3363
 1102TIP3   OH2 3246   3.222   7.101   1.790 -0.0182 -0.1731 -0.0333
 1102TIP3    H1 3247   3.273   7.150   1.855 -0.7213  1.0495 -0.3767
 1102TIP3    H2 3248   3.201   7.018   1.834  0.8306 -0.0080  0.7201
 1103TIP3   OH2 3249   6.358   1.968   1.732  0.0116  0.0971  0.6389
 1103TIP3    H1 3250   6.368   1.953   1.638 -1.9755 -0.1853  0.4333
 1103TIP3    H2 3251   6.447   1.987   1.763  0.4527  2.1331 -1.6098
 1104TIP3   OH2 3252   2.168   3.684   0.306  0.4722  0.2651 -1.0675
 1104TIP3    H1 3253   2.075   3.685   0.330  0.4344  2.2458 -1.1185
 1104TIP3    H2 3254   2.173   3.623   0.233 -0.6967 -0.2771 -0.7145
 1105TIP3   OH2 3255   3.649   7.175   3.336  0.1188 -0.1311 -0.2859
 1105TIP3    H1 3256   3.580   7.145   3.278 -1.8578  1.8250  0.8766
 1105TIP3    H2 3257   3.605   7.190   3.420  1.9979  1.0390  0.5667
 1106TIP3   OH2 3258   7.264   6.222   2.248 -1.0113 -0.3324 -0.3411
 1106TIP3    H1 3259   7.230   6.158   2.310 -0.1385  0.7343  1.3190
 1106TIP3    H2 3260   7.250   6.182   2.162  1.8097 -3.9891  0.6291
 1107TIP3   OH2 3261   1.258   5.505   6.805 -0.2608  0.1286  1.0269
 1107TIP3    H1 3262   1.212   5.439   6.753  0.1729  1.4156 -1.0906
 1107TIP3    H2 3263   1.347   5.470   6.815  0.5602  1.1199 -1.7668
 1108TIP3   OH2 3264   7.327   4.573   0.719  0.3887  0.0637 -0.1229
 1108TIP3    H1 3265   7.248   4.554   0.769 -0.3157  3.0578  0.0868
 1108TIP3    H2 3266   7.309   4.539   0.631 -1.1300  0.6352 -0.0588
 1109TIP3   OH2 3267   6.060   7.794   6.009  0.1455  0.2525 -0.3701
 1109TIP3    H1 3268   6.086   7.815   5.919  0.8880 -0.1441 -0.2558
 1109TIP3    H2 3269   6.128   7.833   6.063 -0.6362  1.0530  0.0738
 1110TIP3   OH2 3270   4.958   6.315   4.036 -0.2038  0.3260 -0.0933
 1110TIP3    H1 3271   4.904   6.390   4.058 -2.8368 -1.2941 -0.5177
 1110TIP3    H2 3272   4.949   6.255   4.110 -0.4008 -0.6738 -0.8857
 1111TIP3   OH2 3273   1.482   4.738   2.254  0.0616  0.6274 -0.7045
 1111TIP3    H1 3274   1.558   4.777   2.213 -1.1478  0.9511 -2.7627
 1111TIP3    H2 3275   1.475   4.651   2.215  1.4236 -0.8958  2.1761
 1112TIP3   OH2 3276   4.312   2.449   3.080  0.0972 -0.4298 -0.7534
 1112TIP3    H1 3277   4.396   2.458   3.036  1.3609 -1.5510  1.2314
 1112TIP3    H2 3278   4.326   2.378   3.144 -2.2847 -0.4921 -0.1904
 1113TIP3   OH2 3279   2.375   0.568   3.070  0.1598  0.2308 -0.1492
 1113TIP3    H1 3280   2.368   0.523   3.154 -2.1215 -0.9243 -0.8539
 1113TIP3    H2 3281   2.290   0.551   3.027  1.7140 -0.4269 -3.2596
 1114TIP3   OH2 3282   1.074   5.234   0.978 -0.1738  0.4286 -0.7144
 1114TIP3    H1 3283   1.018   5.302   0.942 -0.9798 -0.7111 -1.6700
 1114TIP3    H2 3284   1.015   5.180   1.031  0.5526  0.7206  0.4411
 1115TIP3   OH2 3285   8.411   1.002   6.214  0.0434  0.3717  0.0881
 1115TIP3    H1 3286   8.327   1.020   6.256  1.0584  1.1593  1.9031
 1115TIP3    H2 3287   8.406   0.911   6.187 -1.8718  0.7606 -1.0746
 1116TIP3   OH2 3288   0.132   7.542   6.873 -0.3517  0.5325  0.3817
 1116TIP3    H1 3289   0.117   7.498   6.790  0.6503 -0.2181  0.5737
 1116TIP3    H2 3290   0.182   7.620   6.851 -1.3040  1.0786  0.1382
 1117TIP3   OH2 3291   6.737   5.456   1.005 -0.0734  0.4487  0.1673
 1117TIP3    H1 3292   6.823   5.415   1.003 -0.0862  0.3753 -2.2228
 1117TIP3    H2 3293   6.676   5.384   1.023  0.1898  0.0875 -0.3835
 1118TIP3   OH2 3294   2.222   5.250   5.917  0.3519  0.3077 -0.4157
 1118TIP3    H1 3295   2.257   5.336   5.894 -0.9864  1.1583  0.5591
 1118TIP3    H2 3296   2.224   5.249   6.013  1.7703 -1.3796 -0.4307
 1119TIP3   OH2 3297   3.647   0.150   1.813 -0.2888 -0.0282 -0.2536
 1119TIP3    H1 3298   3.650   0.214   1.884  0.2433  1.5572 -1.6600
 1119TIP3    H2 3299   3.595   0.191   1.745 -0.2517 -1.2569 -1.0554
 1120TIP3   OH2 3300   8.136   1.321   5.591 -0.0825 -0.0494 -0.6716
 1120TIP3    H1 3301   8.182   1.237   5.598  1.6576  0.9720  1.6831
 1120TIP3    H2 3302   8.058   1.309   5.646 -0.6678 -0.5481 -1.5695
 1121TIP3   OH2 3303   2.547   3.216   4.513 -0.2420 -0.4165  0.4396
 1121TIP3    H1 3304   2.619   3.242   4.456 -0.8064 -0.7527 -0.4530
 1121TIP3    H2 3305   2.482   3.286   4.502  0.3319  0.4225  2.0274
 1122TIP3   OH2 3306   6.196   5.578   4.988 -0.1814  0.2158 -0.0965
 1122TIP3    H1 3307   6.158   5.513   5.048 -0.8345 -0.6058 -1.3507
 1122TIP3    H2 3308   6.284   5.594   5.022 -0.0515 -1.2463  0.3227
 1123TIP3   OH2 3309   7.923   3.508   4.672 -0.4754 -0.5015 -0.0286
 1123TIP3    H1 3310   7.922   3.603   4.677  2.9095 -0.4225  1.6354
 1123TIP3    H2 3311   7.862   3.479   4.739 -0.6040  0.5095  0.2990
 1124TIP3   OH2 3312   3.134   0.452   4.183  0.2789 -0.6030  0.1338
 1124TIP3    H1 3313   3.130   0.439   4.277 -0.6038  0.0972  0.1965
 1124TIP3    H2 3314   3.051   0.494   4.160  0.6390 -0.4242 -0.8981
 1125TIP3   OH2 3315   6.336   3.513   5.476  0.0693 -0.7369  0.4635
 1125TIP3    H1 3316   6.391   3.532   5.400  2.2130 -3.0670  1.2979
 1125TIP3    H2 3317   6.317   3.419   5.469  0.3076 -0.9952  2.7740
 1126TIP3   OH2 3318   5.742   4.363   2.111  0.5195 -0.2933  0.1697
 1126TIP3    H1 3319   5.832   4.395   2.124  0.6180 -0.2006 -0.6693
 1126TIP3    H2 3320   5.719   4.322   2.194  0.4582  1.7816  1.2519
 1127TIP3   OH2 3321   3.038   1.559   1.489 -0.5185 -0.1677  0.3435
 1127TIP3    H1 3322   3.111   1.497   1.484 -1.0264 -0.8065  0.7752
 1127TIP3    H2 3323   3.080   1.644   1.498  0.2983 -0.0857 -2.8679
 1128TIP3   OH2 3324   4.737   1.976   4.413  0.2731 -0.0623 -0.1568
 1128TIP3    H1 3325   4.750   2.014   4.326 -1.6760 -1.1420 -0.9898
 1128TIP3    H2 3326   4.652   2.010   4.442  0.6705 -0.0959  1.1442
 1129TIP3   OH2 3327   2.284   5.691   1.484 -0.0379 -0.0679 -0.0755
 1129TIP3    H1 3328   2.356   5.689   1.548  0.0254  0.5973 -0.1253
 1129TIP3    H2 3329   2.207   5.665   1.535  0.1524 -0.3222  0.0870
 1130TIP3   OH2 3330   5.953   2.675   3.009 -0.2912 -0.1767  0.2528
 1130TIP3    H1 3331   5.979   2.724   2.930  0.2595  0.2045  0.6662
 1130TIP3    H2 3332   6.001   2.717   3.080  0.7331 -1.7588  0.5349
 1131TIP3   OH2 3333   5.729   1.012   4.817 -0.1343 -0.0799 -0.6831
 1131TIP3    H1 3334   5.800   1.071   4.845 -0.1365 -0.2690 -0.2699
 1131TIP3    H2 3335   5.650   1.066   4.820 -0.5377 -0.6448  1.9479
 1132TIP3   OH2 3336   0.253   5.693   5.899  0.3802  0.2535  0.0339
 1132TIP3    H1 3337   0.210   5.758   5.843  0.2694 -0.1694 -0.3833
 1132TIP3    H2 3338   0.347   5.714   5.893  0.2073  1.5385  1.4115
 1133TIP3   OH2 3339   1.038   5.605   0.407  0.0510 -0.3298 -0.7491
 1133TIP3    H1 3340   1.043   5.619   0.313 -0.4191  0.0444 -0.7225
 1133TIP3    H2 3341   1.076   5.519   0.421 -0.7609 -0.8007 -1.3912
 1134TIP3   OH2 3342   2.920   4.808   1.131 -0.2651  0.2092 -0.1178
 1134TIP3    H1 3343   2.999   4.808   1.076 -0.1795 -0.5869  0.0045
 1134TIP3    H2 3344   2.891   4.717   1.133 -1.0210  0.4461  0.0879
 1135TIP3   OH2 3345   6.502   7.072   3.268 -0.1544 -0.5640 -0.5387
 1135TIP3    H1 3346   6.556   7.125   3.211 -1.0276  0.0730 -0.7910
 1135TIP3    H2 3347   6.506   6.984   3.230 -0.0786 -0.3157 -1.1138
 1136TIP3   OH2 3348   3.097   2.931   3.480 -0.1402 -0.0699  0.1803
 1136TIP3    H1 3349   3.153   3.008   3.482 -0.2173 -0.0166  1.8574
 1136TIP3    H2 3350   3.015   2.961   3.440  0.3899  0.2906 -0.6489
 1137TIP3   OH2 3351   7.936   1.442   3.412 -0.5686 -0.1765  0.3004
 1137TIP3    H1 3352   7.919   1.349   3.400 -0.4195 -0.2333  0.5253
 1137TIP3    H2 3353   7.912   1.482   3.328 -1.1168 -0.3493  0.3709
 1138TIP3   OH2 3354   1.697   0.358   5.565 -0.4504 -0.1799 -0.0050
 1138TIP3    H1 3355   1.739   0.387   5.645 -0.7761 -1.9455  0.8653
 1138TIP3    H2 3356   1.752   0.393   5.495 -0.2974  1.6120  0.9445
 1139TIP3   OH2 3357   2.254   4.068   1.239  0.2759  0.0510  0.2924
 1139TIP3    H1 3358   2.314   4.091   1.168 -0.6833 -0.0624 -0.5803
 1139TIP3    H2 3359   2.198   3.999   1.202 -0.0335 -0.2382  1.2662
 1140TIP3   OH2 3360   2.882   3.275   2.882  0.0943 -0.1015 -0.2882
 1140TIP3    H1 3361   2.805   3.331   2.888  1.5914  1.9227  2.5373
 1140TIP3    H2 3362   2.924   3.302   2.800 -1.8255 -0.8671 -1.5944
 1141TIP3   OH2 3363   3.875   3.367   2.016  0.2259  0.1551 -0.2901
 1141TIP3    H1 3364   3.834   3.421   1.949 -0.2147  0.8039  0.4779
 1141TIP3    H2 3365   3.964   3.400   2.023 -0.0913  0.9191  0.2952
 1142TIP3   OH2 3366   1.845   5.950   1.443  0.0651  0.2662  0.7451
 1142TIP3    H1 3367   1.842   5.968   1.538 -1.9611  1.6395  0.4955
 1142TIP3    H2 3368   1.762   5.984   1.410 -0.8849 -3.2708 -1.0431
 1143TIP3   OH2 3369   8.002   4.419   4.101  0.6444 -0.1442 -0.0703
 1143TIP3    H1 3370   7.942   4.490   4.124  1.0952  0.2374 -0.0503
 1143TIP3    H2 3371   7.946   4.350   4.064  0.4575  1.3834 -2.9552
 1144TIP3   OH2 3372   5.667   4.191   3.918  0.1692 -0.2528  0.4077
 1144TIP3    H1 3373   5.718   4.239   3.852 -1.0336 -1.2880 -1.3670
 1144TIP3    H2 3374   5.732   4.142   3.967  1.2373  1.6232  0.9855
 1145TIP3   OH2 3375   1.360   1.805   2.756  0.4765  0.0873  0.1338
 1145TIP3    H1 3376   1.361   1.723   2.707  2.7294 -1.9767  3.2897
 1145TIP3    H2 3377   1.267   1.821   2.773 -0.0345 -1.7281 -0.6825
 1146TIP3   OH2 3378   6.852   4.916   6.152 -0.2215 -0.1283 -0.2078
 1146TIP3    H1 3379   6.816   5.001   6.125  0.7345  0.5200  0.4725
 1146TIP3    H2 3380   6.776   4.859   6.158 -1.0083  0.9236  0.1973
 1147TIP3   OH2 3381   5.070   5.139   5.356  0.3048  0.0562 -0.1321
 1147TIP3    H1 3382   4.997   5.105   5.303 -0.2802  0.8756  0.1127
 1147TIP3    H2 3383   5.147   5.130   5.300 -0.5113  2.2405 -1.7889
 1148TIP3   OH2 3384   0.635   3.979   1.172 -0.0145 -0.3294  0.3455
 1148TIP3    H1 3385   0.665   3.995   1.261 -1.0814 -0.7400  0.7949
 1148TIP3    H2 3386   0.640   3.884   1.161 -0.4709 -0.3394  0.1915
 1149TIP3   OH2 3387   2.959   6.047   6.044 -0.0843 -0.1811 -0.3063
 1149TIP3    H1 3388   3.029   6.066   5.981 -0.3093  1.7378 -0.0376
 1149TIP3    H2 3389   2.957   6.124   6.101 -1.5948 -0.7537  0.4656
 1150TIP3   OH2 3390   0.812   6.559   5.161  0.0304 -0.0568  0.5092
 1150TIP3    H1 3391   0.778   6.469   5.162  0.4674 -0.2369 -0.1826
 1150TIP3    H2 3392   0.898   6.551   5.120 -0.9671  1.0231 -1.9724
 1151TIP3   OH2 3393   1.420   3.808   4.052  0.6587 -0.2794  0.2320
 1151TIP3    H1 3394   1.366   3.746   4.101  1.4979 -1.4791 -0.3279
 1151TIP3    H2 3395   1.500   3.760   4.031  1.5678  1.1631  0.2275
 1152TIP3   OH2 3396   1.090   6.947   1.993 -0.2483 -0.0019  0.1645
 1152TIP3    H1 3397   1.013   6.984   2.036  0.2482  0.1243  0.9651
 1152TIP3    H2 3398   1.125   7.019   1.940 -0.9413 -0.1979 -0.5679
 1153TIP3   OH2 3399   0.304   4.331   4.605 -0.1205 -0.6006 -0.3941
 1153TIP3    H1 3400   0.315   4.328   4.510  0.3005  1.6169 -0.4852
 1153TIP3    H2 3401   0.393   4.320   4.640 -0.0687 -0.0444 -0.3371
 1154TIP3   OH2 3402   1.857   5.597   5.679 -0.2847  0.2244  0.0012
 1154TIP3    H1 3403   1.761   5.595   5.677 -0.3066  0.9708 -0.1886
 1154TIP3    H2 3404   1.882   5.525   5.736 -0.9304 -0.4647 -0.5721
 1155TIP3   OH2 3405   0.359   2.031   5.160 -0.3207  0.0493 -0.0198
 1155TIP3    H1 3406   0.324   1.987   5.238 -0.5514 -0.7424 -0.5639
 1155TIP3    H2 3407   0.449   1.999   5.152  0.5289  1.9400  1.2674
 1156TIP3   OH2 3408   5.794   6.007   4.977  0.8585 -0.4857  0.5479
 1156TIP3    H1 3409   5.864   5.943   4.986 -0.6638 -1.9389  3.4145
 1156TIP3    H2 3410   5.723   5.959   4.935  1.4165  0.9330 -2.2044
 1157TIP3   OH2 3411   5.966   1.303   3.942 -0.5880  0.4951 -0.0085
 1157TIP3    H1 3412   5.886   1.294   3.889  0.0190  1.4147 -1.1186
 1157TIP3    H2 3413   5.939   1.277   4.030 -1.5373 -1.4520 -0.8133
 1158TIP3   OH2 3414   6.191   3.983   5.089 -0.1207 -0.4563  0.2631
 1158TIP3    H1 3415   6.201   3.979   4.994 -0.1816 -0.7000  0.2665
 1158TIP3    H2 3416   6.116   4.040   5.103  0.1461 -0.0806  0.1794
 1159TIP3   OH2 3417   2.528   4.196   2.630  0.2760 -0.0993  0.0384
 1159TIP3    H1 3418   2.479   4.139   2.689 -0.2850  0.6308  0.2956
 1159TIP3    H2 3419   2.608   4.147   2.609  0.7988 -0.1244  1.9140
 1160TIP3   OH2 3420   5.468   3.103   4.347  0.3599  0.0880  0.5801
 1160TIP3    H1 3421   5.408   3.159   4.397 -1.5439 -2.1218  0.8994
 1160TIP3    H2 3422   5.484   3.027   4.403  0.7371 -0.9576 -0.8803
 1161TIP3   OH2 3423   8.035   5.846   0.053  0.8921  0.3182 -0.3178
 1161TIP3    H1 3424   8.044   5.922  -0.004 -0.6066 -0.2081 -1.3211
 1161TIP3    H2 3425   8.058   5.772  -0.003  0.2446 -0.1382  0.0131
 1162TIP3   OH2 3426   8.184   3.412   6.044  0.2603 -0.5989 -0.5870
 1162TIP3    H1 3427   8.269   3.448   6.019  0.6349 -1.0192  0.0477
 1162TIP3    H2 3428   8.131   3.489   6.063  1.1685 -0.3311  1.1278
 1163TIP3   OH2 3429   5.330   6.793   6.780 -0.1752 -0.5569  0.9095
 1163TIP3    H1 3430   5.293   6.750   6.703  1.5317 -1.4030  0.5222
 1163TIP3    H2 3431   5.297   6.742   6.854  0.6539 -1.6646  0.5358
 1164TIP3   OH2 3432   7.265   0.067   1.927 -0.2001  0.1093  0.0205
 1164TIP3    H1 3433   7.359   0.051   1.938 -0.2523  0.0618  0.4051
 1164TIP3    H2 3434   7.258   0.163   1.921 -0.5023  0.5003  3.9916
 1165TIP3   OH2 3435   5.472   7.280   6.092 -0.6771 -0.6179  0.8857
 1165TIP3    H1 3436   5.418   7.350   6.058 -1.2084 -2.0626 -1.4714
 1165TIP3    H2 3437   5.438   7.263   6.180 -1.5669  0.9590  0.8752
 1166TIP3   OH2 3438   2.589   3.834   4.308 -0.4797  0.2379  0.0152
 1166TIP3    H1 3439   2.535   3.846   4.386  0.7983 -0.0178  0.9688
 1166TIP3    H2 3440   2.645   3.759   4.328 -0.0999  0.1829 -1.1397
 1167TIP3   OH2 3441   6.121   5.830   5.264  0.3540  0.7769 -0.0086
 1167TIP3    H1 3442   6.072   5.776   5.326 -0.8458 -0.5194 -1.9760
 1167TIP3    H2 3443   6.054   5.872   5.210  1.3494  2.1105 -0.2784
 1168TIP3   OH2 3444   3.559   3.255   1.095  0.4718 -0.3061 -0.3365
 1168TIP3    H1 3445   3.616   3.211   1.032 -0.0111  1.5895 -2.2423
 1168TIP3    H2 3446   3.533   3.336   1.050 -1.6330  0.1179  1.4916
 1169TIP3   OH2 3447   8.021   7.122   3.652 -0.4384 -0.0393  0.4272
 1169TIP3    H1 3448   7.987   7.212   3.654 -1.7193 -0.5219  1.2937
 1169TIP3    H2 3449   7.949   7.068   3.684  0.3808 -1.3698  0.1014
 1170TIP3   OH2 3450   2.962   5.083   0.457 -0.8184 -0.1998 -0.5841
 1170TIP3    H1 3451   2.938   5.163   0.505 -0.4080 -0.5411  0.2040
 1170TIP3    H2 3452   3.017   5.034   0.518  0.4167 -0.2613 -1.6937
 1171TIP3   OH2 3453   4.564   5.974   4.664 -0.0391 -0.5597  0.5217
 1171TIP3    H1 3454   4.560   5.888   4.706 -3.4081 -0.0696  1.5595
 1171TIP3    H2 3455   4.513   5.964   4.584  0.2496  0.2615  0.2257
 1172TIP3   OH2 3456   1.731   6.664   4.314  0.5881  0.1251  0.1096
 1172TIP3    H1 3457   1.699   6.578   4.341  0.8780 -0.6920 -1.9435
 1172TIP3    H2 3458   1.821   6.667   4.347  1.0255 -0.9434 -0.9042
 1173TIP3   OH2 3459   1.449   5.395   5.958  0.2826 -0.0138 -0.1282
 1173TIP3    H1 3460   1.536   5.364   5.932  0.7497  1.8442 -0.9716
 1173TIP3    H2 3461   1.413   5.433   5.878 -1.4705 -1.0548  0.1313
 1174TIP3   OH2 3462   4.174   3.957   5.514  0.8153 -0.3208 -0.0211
 1174TIP3    H1 3463   4.149   3.866   5.496 -1.2647  0.3033 -0.4503
 1174TIP3    H2 3464   4.135   3.976   5.599 -1.5181  1.0847 -1.3006
 1175TIP3   OH2 3465   4.982   7.769   3.217  0.2976 -0.2999  0.2681
 1175TIP3    H1 3466   4.993   7.697   3.155 -0.0166  0.2471 -0.4368
 1175TIP3    H2 3467   5.011   7.847   3.169 -0.4840  0.2194  0.6060
 1176TIP3   OH2 3468   2.833   1.235   5.864  0.4247  0.4624  0.3361
 1176TIP3    H1 3469   2.782   1.261   5.787 -1.4051  1.4996  1.8209
 1176TIP3    H2 3470   2.909   1.189   5.828 -0.6583  0.4055 -2.0473
 1177TIP3   OH2 3471   2.284   1.215   2.232 -1.2869  0.4233 -0.3465
 1177TIP3    H1 3472   2.268   1.303   2.266 -0.6427  0.7188 -0.7789
 1177TIP3    H2 3473   2.359   1.184   2.282 -0.9241  0.4938 -0.8397
 1178TIP3   OH2 3474   0.754   0.258   5.987 -0.4227  0.5179  0.7751
 1178TIP3    H1 3475   0.758   0.169   5.951  2.3115  1.1730 -0.8776
 1178TIP3    H2 3476   0.816   0.257   6.059  0.9436  1.4256 -0.3300
 1179TIP3   OH2 3477   1.573   4.788   6.345 -0.0030 -0.3508  0.1002
 1179TIP3    H1 3478   1.627   4.844   6.289 -1.2960  0.6683 -0.1715
 1179TIP3    H2 3479   1.492   4.838   6.358 -1.0592 -1.9969  0.1422
 1180TIP3   OH2 3480   2.465   0.436   3.580 -0.1706  0.4669 -0.5262
 1180TIP3    H1 3481   2.377   0.469   3.600 -1.2201 -1.6028 -1.4088
 1180TIP3    H2 3482   2.487   0.380   3.654 -0.1732 -0.0533 -0.9122
 1181TIP3   OH2 3483   6.289   7.577   3.002 -0.0937 -0.4878 -0.0909
 1181TIP3    H1 3484   6.307   7.484   3.020 -1.4449 -0.6910  0.3217
 1181TIP3    H2 3485   6.198   7.578   2.973 -0.1884  0.7533  0.2019
 1182TIP3   OH2 3486   7.072   1.693   2.577  0.4372  0.0515  0.3261
 1182TIP3    H1 3487   7.129   1.656   2.510 -1.8421  0.3113 -1.8910
 1182TIP3    H2 3488   7.024   1.618   2.612  0.6103  0.0980  0.6707
 1183TIP3   OH2 3489   5.116   0.923   6.426  0.6998  0.3519 -0.1726
 1183TIP3    H1 3490   5.057   0.966   6.364  0.6690  1.0023  0.3014
 1183TIP3    H2 3491   5.167   0.863   6.372 -0.8425 -0.7164 -0.4979
 1184TIP3   OH2 3492   4.779   3.576   1.757  0.0026 -0.2272  0.0747
 1184TIP3    H1 3493   4.754   3.570   1.849 -0.2832 -1.0140 -0.0512
 1184TIP3    H2 3494   4.698   3.599   1.712  0.4691  1.8757  0.1931
 1185TIP3   OH2 3495   1.976   3.742   2.397 -0.7249  0.0813 -0.6176
 1185TIP3    H1 3496   1.895   3.789   2.378 -0.3016  0.5836 -1.2230
 1185TIP3    H2 3497   1.948   3.651   2.406 -1.2646  0.1270 -1.5954
 1186TIP3   OH2 3498   0.849   5.067   0.990 -0.2254 -0.0762 -0.3687
 1186TIP3    H1 3499   0.820   5.157   0.974 -1.6272 -0.5150 -0.3582
 1186TIP3    H2 3500   0.820   5.018   0.913 -2.3976 -1.1571  1.0509
 1187TIP3   OH2 3501   6.577   6.653   5.822  0.4101 -0.1801 -0.1986
 1187TIP3    H1 3502   6.483   6.637   5.813  0.0771  1.7350 -0.5791
 1187TIP3    H2 3503   6.606   6.673   5.733  0.3919  2.8002  0.3768
 1188TIP3   OH2 3504   4.601   3.398   4.979  0.4834  0.2459  0.0434
 1188TIP3    H1 3505   4.674   3.336   4.985  0.2983 -0.1821 -1.6237
 1188TIP3    H2 3506   4.523   3.343   4.974  0.1784  0.6575  0.1960
 1189TIP3   OH2 3507   3.298   5.372   5.691 -0.0104  0.1103 -0.0338
 1189TIP3    H1 3508   3.229   5.394   5.754 -0.3079  2.6385 -1.1506
 1189TIP3    H2 3509   3.281   5.428   5.616  2.7127  0.1097 -0.7397
 1190TIP3   OH2 3510   1.173   0.522   3.331  0.3351  0.3264  0.2781
 1190TIP3    H1 3511   1.201   0.489   3.246 -0.7263 -0.1993  0.1105
 1190TIP3    H2 3512   1.177   0.446   3.390  0.2761  0.4858  0.4901
 1191TIP3   OH2 3513   2.217   7.262   3.002 -0.3493 -0.0245  0.1411
 1191TIP3    H1 3514   2.156   7.259   2.928  0.9360 -2.1750 -0.9250
 1191TIP3    H2 3515   2.304   7.261   2.962  0.3861 -1.6308  1.6598
 1192TIP3   OH2 3516   8.110   4.386   2.576 -0.6719 -0.2761 -0.1688
 1192TIP3    H1 3517   8.060   4.407   2.655 -0.5711 -0.7731  0.0339
 1192TIP3    H2 3518   8.121   4.470   2.531  0.0123  0.1601  0.7772
 1193TIP3   OH2 3519   4.331   4.336   4.123 -0.1230 -0.1870  0.2162
 1193TIP3    H1 3520   4.339   4.367   4.213  0.3445 -1.7401  0.7516
 1193TIP3    H2 3521   4.359   4.244   4.127  1.6908  0.1999 -1.8431
 1194TIP3   OH2 3522   5.519   6.647   2.659  0.1378  0.0853  0.8511
 1194TIP3    H1 3523   5.586   6.706   2.693  1.4559  0.7394 -2.5142
 1194TIP3    H2 3524   5.567   6.585   2.604 -1.9140  0.4503 -1.5113
 1195TIP3   OH2 3525   2.631   0.489   2.712  0.4340 -0.3223  0.1729
 1195TIP3    H1 3526   2.716   0.529   2.697 -0.0398  0.8335  0.4595
 1195TIP3    H2 3527   2.597   0.470   2.625  0.5587  0.1441  0.0231
 1196TIP3   OH2 3528   3.815   1.593   1.245  0.4929 -0.0559 -0.0662
 1196TIP3    H1 3529   3.735   1.558   1.283  1.3106  2.0661  4.2022
 1196TIP3    H2 3530   3.803   1.688   1.245  2.8672  0.3338  0.6316
 1197TIP3   OH2 3531   6.675   2.910   1.152 -0.0418  0.2527  0.5383
 1197TIP3    H1 3532   6.722   2.827   1.154  0.0226  0.2426 -0.6611
 1197TIP3    H2 3533   6.736   2.974   1.188  1.3957  0.4554 -1.9881
 1198TIP3   OH2 3534   2.679   5.438   0.098  0.5348 -0.6169 -0.1250
 1198TIP3    H1 3535   2.749   5.499   0.121 -0.7841  0.5679  0.8982
 1198TIP3    H2 3536   2.715   5.351   0.115  2.5753 -0.1956 -1.9143
 1199TIP3   OH2 3537   5.440   0.128   6.512 -0.2888 -0.4139 -0.2638
 1199TIP3    H1 3538   5.506   0.139   6.443 -0.1968 -1.5838 -0.3750
 1199TIP3    H2 3539   5.375   0.069   6.473 -1.2998  0.5390 -0.0745
 1200TIP3   OH2 3540   3.117   4.487   3.546 -0.2187 -0.0957 -0.0466
 1200TIP3    H1 3541   3.102   4.578   3.521  1.0320  0.7854  2.1451
 1200TIP3    H2 3542   3.103   4.486   3.641 -0.0412 -2.1620 -0.0063
 1201TIP3   OH2 3543   2.761   6.271   6.513 -0.4538  0.4271 -0.6310
 1201TIP3    H1 3544   2.778   6.216   6.590 -0.7559  0.9856 -0.1523
 1201TIP3    H2 3545   2.720   6.212   6.450 -2.0048  0.3722  0.3629
 1202TIP3   OH2 3546   3.529   6.445   5.425  0.1087 -0.2625 -0.2358
 1202TIP3    H1 3547   3.622   6.436   5.405  0.1331 -0.8151  0.1018
 1202TIP3    H2 3548   3.495   6.355   5.425 -0.2240 -0.1466  0.5603
 1203TIP3   OH2 3549   1.237   3.356   4.573 -0.0507  0.3768 -0.5422
 1203TIP3    H1 3550   1.232   3.341   4.478 -0.1343 -2.1781 -0.1848
 1203TIP3    H2 3551   1.327   3.386   4.587  0.4377 -0.6764 -1.2774
 1204TIP3   OH2 3552   7.561   6.740   5.115 -0.0126  0.8826 -0.2364
 1204TIP3    H1 3553   7.637   6.703   5.068 -0.3260  2.3616 -2.0408
 1204TIP3    H2 3554   7.500   6.763   5.045 -2.0432  0.0020  1.1723
 1205TIP3   OH2 3555   6.182   0.045   1.890  0.1486 -0.7891  0.2641
 1205TIP3    H1 3556   6.240   0.121   1.903  0.6623 -0.9872 -0.7635
 1205TIP3    H2 3557   6.152   0.023   1.978  0.0943  0.5216  0.5986
 1206TIP3   OH2 3558   4.324   5.186   1.332 -0.1591  0.0579 -0.2803
 1206TIP3    H1 3559   4.333   5.091   1.338 -0.2624  0.1068  0.8314
 1206TIP3    H2 3560   4.344   5.206   1.241 -0.1423 -1.0299 -0.5285
 1207TIP3   OH2 3561   2.570   6.676   1.933 -0.1978  0.0906  0.6692
 1207TIP3    H1 3562   2.555   6.677   2.027  0.0218  0.7202  0.7009
 1207TIP3    H2 3563   2.617   6.757   1.915 -1.4406  0.6700 -0.1764
 1208TIP3   OH2 3564   5.759   0.688   1.886 -0.1554  0.7461  0.4886
 1208TIP3    H1 3565   5.822   0.744   1.931  1.0989  0.1448 -0.4647
 1208TIP3    H2 3566   5.742   0.733   1.803 -0.8380  0.8017  0.6523
 1209TIP3   OH2 3567   8.128   0.130   0.196 -0.4352  0.1641  0.2413
 1209TIP3    H1 3568   8.183   0.155   0.122 -0.0759 -3.9754 -1.1772
 1209TIP3    H2 3569   8.187   0.129   0.271  0.7200 -1.1648 -0.6353
 1210TIP3   OH2 3570   7.631   5.296   0.734  0.5959  0.4952  0.6201
 1210TIP3    H1 3571   7.702   5.236   0.712 -0.1945 -0.5705  0.9078
 1210TIP3    H2 3572   7.579   5.249   0.800 -0.3752  1.2431  0.4094
 1211TIP3   OH2 3573   7.415   7.191   4.174  0.4754 -0.5705  0.3678
 1211TIP3    H1 3574   7.471   7.181   4.251 -0.0068  0.0558  0.8156
 1211TIP3    H2 3575   7.460   7.256   4.119  1.2179 -1.6050 -0.2671
 1212TIP3   OH2 3576   7.366   1.283   4.227 -0.0211  0.3533  0.0159
 1212TIP3    H1 3577   7.300   1.302   4.294  0.4731  2.3665 -0.0029
 1212TIP3    H2 3578   7.316   1.261   4.149 -0.6763  1.0848  0.2152
 1213TIP3   OH2 3579   6.129   1.490   4.526  0.6671  0.0990  0.0010
 1213TIP3    H1 3580   6.061   1.482   4.458  0.2488  0.2695  0.3949
 1213TIP3    H2 3581   6.090   1.448   4.603  0.5807  1.1472  0.5431
 1214TIP3   OH2 3582   6.187   2.142   3.277  0.3805 -0.4488  0.4341
 1214TIP3    H1 3583   6.162   2.149   3.370  0.8454  0.1213  0.5192
 1214TIP3    H2 3584   6.174   2.230   3.242 -0.8162 -0.8886 -0.3179
 1215TIP3   OH2 3585   1.091   0.463   6.579 -0.2636 -0.1361  0.2894
 1215TIP3    H1 3586   1.030   0.495   6.513 -0.7482 -1.1117  0.2498
 1215TIP3    H2 3587   1.072   0.515   6.657 -1.4353 -0.6944  0.3986
 1216TIP3   OH2 3588   0.434   6.132   2.341  0.5316 -0.6500 -0.4210
 1216TIP3    H1 3589   0.404   6.108   2.429  0.4660 -1.0844 -0.5577
 1216TIP3    H2 3590   0.412   6.056   2.287 -1.1416  0.3125 -1.2016
 1217TIP3   OH2 3591   8.114   4.397   0.402  0.4347  0.2857  0.7025
 1217TIP3    H1 3592   8.134   4.411   0.310 -0.6015  0.5026  0.4929
 1217TIP3    H2 3593   8.035   4.342   0.401  0.2877  0.4725  1.4538
 1218TIP3   OH2 3594   3.399   5.410   2.832 -0.1348 -0.1650 -0.5474
 1218TIP3    H1 3595   3.363   5.367   2.755  0.2496 -1.0462 -0.2521
 1218TIP3    H2 3596   3.454   5.343   2.873 -1.3135 -0.1339  1.1754
 1219TIP3   OH2 3597   3.157   5.042   0.686  0.2461 -0.0903 -0.2861
 1219TIP3    H1 3598   3.186   5.027   0.596  0.1213 -2.4557  0.0040
 1219TIP3    H2 3599   3.231   5.015   0.740  0.7543  2.3703  0.3913
 1220TIP3   OH2 3600   6.101   3.708   6.052  0.2700  0.3793  0.4536
 1220TIP3    H1 3601   6.063   3.750   6.129 -0.2557  0.2298  0.2821
 1220TIP3    H2 3602   6.026   3.686   5.997  0.7256  1.6738 -0.7289
 1221TIP3   OH2 3603   3.959   7.101   6.457 -0.5564 -0.5411 -0.1977
 1221TIP3    H1 3604   4.033   7.108   6.517 -0.4226  1.4924 -0.5538
 1221TIP3    H2 3605   3.923   7.014   6.475  0.5365 -0.6882  1.5707
 1222TIP3   OH2 3606   5.302   4.161   4.801 -0.1171  0.3757 -1.2598
 1222TIP3    H1 3607   5.390   4.139   4.832 -0.8811 -1.9976 -0.5123
 1222TIP3    H2 3608   5.309   4.155   4.705  0.5589  0.3161 -1.2127
 1223TIP3   OH2 3609   5.746   4.913   1.527  0.3475  0.0883 -0.2800
 1223TIP3    H1 3610   5.687   4.920   1.451  0.4422  0.5384 -0.3138
 1223TIP3    H2 3611   5.829   4.883   1.489  0.6871  1.2755 -0.5029
 1224TIP3   OH2 3612   2.705   5.123   2.103  0.2031  0.1063  0.3235
 1224TIP3    H1 3613   2.794   5.145   2.131  0.0426  3.8945 -1.4361
 1224TIP3    H2 3614   2.668   5.072   2.175  3.5717 -1.1249  1.3417
 1225TIP3   OH2 3615   0.420   1.062   5.839  0.4252 -0.1867  0.0375
 1225TIP3    H1 3616   0.501   1.081   5.792  0.4785 -0.4798  0.0053
 1225TIP3    H2 3617   0.354   1.053   5.770  0.5218 -0.7077  0.0066
 1226TIP3   OH2 3618   4.157   2.948   5.149  0.5845  0.1600 -0.2649
 1226TIP3    H1 3619   4.228   2.888   5.131 -1.2071 -2.4186  0.6734
 1226TIP3    H2 3620   4.163   2.965   5.243  2.6041  3.7246 -0.8545
 1227TIP3   OH2 3621   6.124   1.140   6.121 -0.3684 -0.0201  0.0392
 1227TIP3    H1 3622   6.201   1.194   6.141 -0.8895  1.0850 -0.8375
 1227TIP3    H2 3623   6.157   1.050   6.127  0.6312  0.3827  1.0892
 1228TIP3   OH2 3624   8.167   3.533   1.373 -0.2191  0.5711 -0.2294
 1228TIP3    H1 3625   8.204   3.514   1.287  0.6476 -0.4842  0.3505
 1228TIP3    H2 3626   8.126   3.619   1.363  0.7016  0.8971 -1.4297
 1229TIP3   OH2 3627   3.218   5.748   5.923  0.4792 -0.4046 -0.2653
 1229TIP3    H1 3628   3.271   5.820   5.890 -1.9523  1.4611 -0.3682
 1229TIP3    H2 3629   3.216   5.761   6.018  1.0614 -1.1284 -0.1405
 1230TIP3   OH2 3630   3.477   6.890   0.424  0.1953  0.0949 -0.0908
 1230TIP3    H1 3631   3.434   6.848   0.499 -0.4210  0.4659 -0.2250
 1230TIP3    H2 3632   3.568   6.862   0.430  0.1844  0.2239  0.8706
 1231TIP3   OH2 3633   4.575   3.991   0.806 -0.1165 -0.1966  0.1775
 1231TIP3    H1 3634   4.515   4.065   0.797 -0.7112 -0.4446  1.8389
 1231TIP3    H2 3635   4.656   4.020   0.763  0.0185  1.8251  1.6765
 1232TIP3   OH2 3636   7.901   0.583   4.919  0.2204 -0.5102 -0.3297
 1232TIP3    H1 3637   7.959   0.549   4.852  2.0453  1.5470  0.1081
 1232TIP3    H2 3638   7.921   0.676   4.924 -0.9441 -0.3003  1.9872
 1233TIP3   OH2 3639   0.434   5.536   1.468 -0.9552  0.4155 -0.1105
 1233TIP3    H1 3640   0.522   5.574   1.455 -0.6923 -0.5128 -1.1304
 1233TIP3    H2 3641   0.421   5.540   1.563  0.0984  0.7778  0.0378
 1234TIP3   OH2 3642   0.501   6.396   4.863 -0.2129 -0.3730 -0.8715
 1234TIP3    H1 3643   0.463   6.483   4.877 -0.2936 -0.6575  0.8588
 1234TIP3    H2 3644   0.539   6.401   4.775 -0.8907  1.1585 -1.1113
 1235TIP3   OH2 3645   5.017   2.357   5.810 -0.0392  0.1326 -0.0032
 1235TIP3    H1 3646   5.072   2.353   5.731  0.2106  1.3353  0.0829
 1235TIP3    H2 3647   5.037   2.277   5.858  0.3978 -0.2342 -0.7811
 1236TIP3   OH2 3648   1.747   7.184   2.809  0.6264 -0.0918  0.1320
 1236TIP3    H1 3649   1.700   7.255   2.766  0.8697  0.4391  0.7354
 1236TIP3    H2 3650   1.836   7.216   2.818  0.4636  0.0293  1.5025
 1237TIP3   OH2 3651   1.480   2.630   2.015 -0.4416  0.5164 -0.1483
 1237TIP3    H1 3652   1.403   2.600   2.062  0.5842 -1.7965  0.1839
 1237TIP3    H2 3653   1.446   2.694   1.952 -3.0692 -2.2472 -1.7787
 1238TIP3   OH2 3654   1.656   5.245   1.919  0.0412  0.3301  0.3086
 1238TIP3    H1 3655   1.595   5.172   1.929 -0.1381  0.7213  2.6823
 1238TIP3    H2 3656   1.608   5.320   1.955  1.4072  0.9236  0.9517
 1239TIP3   OH2 3657   2.129   6.993   5.923  0.2217  0.2614 -0.3023
 1239TIP3    H1 3658   2.077   7.054   5.976  2.7023  1.3116  1.0777
 1239TIP3    H2 3659   2.114   6.908   5.964  1.4614  0.9322  1.6621
 1240TIP3   OH2 3660   3.068   4.859   0.197  0.3840  0.0604  0.3313
 1240TIP3    H1 3661   3.059   4.898   0.110  1.7364 -0.4504 -0.0750
 1240TIP3    H2 3662   2.989   4.808   0.210  0.3805 -0.2432 -0.8157
 1241TIP3   OH2 3663   1.963   4.306   1.806 -0.5781  0.1635  0.5239
 1241TIP3    H1 3664   1.953   4.317   1.711  1.5112  0.8064  0.3116
 1241TIP3    H2 3665   1.969   4.395   1.840 -0.9506 -0.0689  1.2265
 1242TIP3   OH2 3666   5.573   2.618   4.641  0.3107  0.4043 -0.6170
 1242TIP3    H1 3667   5.516   2.594   4.568  1.6469  2.4568 -2.4850
 1242TIP3    H2 3668   5.662   2.610   4.606  1.0585  0.2478  1.2045
 1243TIP3   OH2 3669   3.281   3.151   3.480 -0.0104  0.2434 -0.3151
 1243TIP3    H1 3670   3.355   3.210   3.471 -0.1283  0.2757 -1.1623
 1243TIP3    H2 3671   3.279   3.129   3.573  1.1040  0.1891 -0.2843
 1244TIP3   OH2 3672   0.403   2.130   1.419 -0.2632 -0.0800  0.0307
 1244TIP3    H1 3673   0.355   2.078   1.354 -0.2521 -1.2408  0.9221
 1244TIP3    H2 3674   0.374   2.095   1.503  0.6701  0.5444  0.6261
 1245TIP3   OH2 3675   1.786   6.399   1.186 -0.2211 -0.5218  0.4361
 1245TIP3    H1 3676   1.800   6.455   1.262 -0.4699 -1.4876  1.2105
 1245TIP3    H2 3677   1.867   6.408   1.134 -0.9569  1.9911 -0.4532
 1246TIP3   OH2 3678   5.019   3.405   0.456 -0.8270 -0.2299 -0.4404
 1246TIP3    H1 3679   4.940   3.409   0.510 -0.8426 -1.2436 -0.3697
 1246TIP3    H2 3680   5.074   3.340   0.499  0.0027  0.3672 -0.5640
 1247TIP3   OH2 3681   7.600   3.642   2.183 -0.3598 -0.3024  0.1337
 1247TIP3    H1 3682   7.630   3.598   2.263  1.0822  0.6166  0.1265
 1247TIP3    H2 3683   7.516   3.680   2.206 -0.4901 -1.0166  0.8633
 1248TIP3   OH2 3684   2.882   6.614   1.786 -0.1127 -0.3492  0.6729
 1248TIP3    H1 3685   2.807   6.673   1.778 -0.0977 -0.4765 -0.7459
 1248TIP3    H2 3686   2.955   6.663   1.749 -0.1294 -1.2742 -0.6564
 1249TIP3   OH2 3687   7.558   3.142   0.461  0.5602  0.0345  0.3875
 1249TIP3    H1 3688   7.532   3.064   0.511 -0.4693  0.3127  0.3214
 1249TIP3    H2 3689   7.475   3.178   0.430  1.1156  0.4988 -0.5770
 1250TIP3   OH2 3690   3.727   7.449   1.197 -0.6366  0.4047 -0.4816
 1250TIP3    H1 3691   3.797   7.485   1.144  0.1447 -0.2310  0.0986
 1250TIP3    H2 3692   3.701   7.369   1.151 -1.4317  0.9732 -1.0388
 1251TIP3   OH2 3693   4.278   1.086   4.336 -0.1154  0.3248  0.6080
 1251TIP3    H1 3694   4.303   1.082   4.244  0.5429 -0.8621  0.8265
 1251TIP3    H2 3695   4.236   1.002   4.354  0.9516  0.0058  1.7239
 1252TIP3   OH2 3696   4.252   0.396   0.137  0.4394  0.7320 -0.3119
 1252TIP3    H1 3697   4.285   0.410   0.226  0.2884  1.8173 -0.4095
 1252TIP3    H2 3698   4.320   0.343   0.094  1.9476  2.6113 -0.4030
 1253TIP3   OH2 3699   7.001   5.344   4.472  0.3258 -0.2342 -0.1532
 1253TIP3    H1 3700   7.074   5.398   4.501  0.0591  0.4501 -0.7177
 1253TIP3    H2 3701   6.923   5.389   4.504 -0.0499  1.1350 -2.7220
 1254TIP3   OH2 3702   6.351   5.091   0.468 -0.2766  0.3002 -0.1517
 1254TIP3    H1 3703   6.371   5.096   0.561 -2.4595  0.4471  0.3652
 1254TIP3    H2 3704   6.392   5.170   0.431  2.7157 -0.9779  0.1590
 1255TIP3   OH2 3705   5.427   4.267   4.538  0.1276 -0.2176  0.1201
 1255TIP3    H1 3706   5.454   4.349   4.580 -0.9598 -0.5382  1.4923
 1255TIP3    H2 3707   5.400   4.294   4.450  1.4488  0.6241 -0.0510
 1256TIP3   OH2 3708   2.834   5.204   6.558  0.0874  0.1659 -0.3678
 1256TIP3    H1 3709   2.849   5.130   6.617 -1.6064 -0.2878 -0.4728
 1256TIP3    H2 3710   2.819   5.278   6.617 -2.5715 -0.4777 -0.1475
 1257TIP3   OH2 3711   5.620   2.875   6.409 -0.6826  0.1145 -0.1497
 1257TIP3    H1 3712   5.679   2.800   6.410 -0.5756  0.1864 -0.7955
 1257TIP3    H2 3713   5.603   2.891   6.317 -2.7469 -0.6968  0.0492
 1258TIP3   OH2 3714   5.826   2.012   6.398  0.2333 -0.2245 -0.6452
 1258TIP3    H1 3715   5.763   2.066   6.446  1.1317 -0.4793  0.8814
 1258TIP3    H2 3716   5.773   1.945   6.356 -0.5605 -0.3087  0.4435
 1259TIP3   OH2 3717   7.013   3.847   5.315  0.1075 -0.4185  0.3412
 1259TIP3    H1 3718   7.030   3.857   5.409 -0.1107  3.2855  0.1238
 1259TIP3    H2 3719   7.100   3.847   5.275  0.1903  1.6788  0.3873
 1260TIP3   OH2 3720   0.137   7.931   0.990  0.1660  0.0698  0.3270
 1260TIP3    H1 3721   0.129   7.912   0.897 -0.9195  1.6718  0.0422
 1260TIP3    H2 3722   0.217   7.887   1.018  1.6357  1.2562 -1.8168
 1261TIP3   OH2 3723   6.278   0.471   1.566  0.9275  0.3379  0.1374
 1261TIP3    H1 3724   6.255   0.527   1.491 -1.8591 -2.4788 -1.3655
 1261TIP3    H2 3725   6.361   0.430   1.540  1.0461  0.9400 -0.4710
 1262TIP3   OH2 3726   5.604   5.680   3.969  0.0279 -0.0597 -0.3756
 1262TIP3    H1 3727   5.667   5.752   3.963 -2.0220  1.7994 -1.1941
 1262TIP3    H2 3728   5.638   5.613   3.910  3.2768 -0.9712  2.1989
 1263TIP3   OH2 3729   2.982   6.342   1.269 -0.7395  0.1145 -0.7643
 1263TIP3    H1 3730   2.957   6.409   1.206 -0.5844  0.9566  0.0472
 1263TIP3    H2 3731   3.052   6.382   1.320 -1.4747 -0.1907  0.5273
 1264TIP3   OH2 3732   0.318   6.326   3.279 -0.2395  0.3976  0.0379
 1264TIP3    H1 3733   0.300   6.308   3.187  0.4201 -0.0821 -0.0037
 1264TIP3    H2 3734   0.368   6.407   3.278  4.0521 -1.9551 -0.4851
 1265TIP3   OH2 3735   7.343   4.059   2.834 -0.3776  0.2822 -0.6076
 1265TIP3    H1 3736   7.342   4.040   2.741 -1.0798 -1.3879 -0.2914
 1265TIP3    H2 3737   7.427   4.103   2.849 -0.1748  0.3913 -1.9801
 1266TIP3   OH2 3738   8.224   3.364   3.762  0.2956 -0.5177 -0.3606
 1266TIP3    H1 3739   8.227   3.329   3.672 -2.0705 -1.0234 -0.3134
 1266TIP3    H2 3740   8.132   3.386   3.775  0.7170  0.1331  1.7484
 1267TIP3   OH2 3741   5.705   3.471   0.502 -0.7132 -0.3044  0.1175
 1267TIP3    H1 3742   5.673   3.446   0.415  0.6832  0.1893 -0.5599
 1267TIP3    H2 3743   5.694   3.392   0.555 -0.2433 -1.0695 -0.8913
 1268TIP3   OH2 3744   3.833   2.581   0.629 -0.2056 -0.3073  0.1384
 1268TIP3    H1 3745   3.872   2.664   0.653  1.0062 -1.0066  0.6330
 1268TIP3    H2 3746   3.904   2.531   0.588 -1.1054 -0.8191 -0.8700
 1269TIP3   OH2 3747   7.635   0.819   5.467 -0.2632  0.5889 -0.4345
 1269TIP3    H1 3748   7.554   0.864   5.444 -0.2101  0.9256  0.0170
 1269TIP3    H2 3749   7.702   0.858   5.410 -0.4786  0.0435 -1.0763
 1270TIP3   OH2 3750   7.900   4.103   1.664  0.1168 -0.3238  0.7435
 1270TIP3    H1 3751   7.947   4.060   1.593 -0.9720  0.7755 -0.6973
 1270TIP3    H2 3752   7.830   4.042   1.688 -0.3621 -0.1129 -0.0990
 1271TIP3   OH2 3753   4.555   1.549   6.585 -0.2115 -0.7405  0.3367
 1271TIP3    H1 3754   4.470   1.581   6.616 -0.6906 -1.3092 -0.3626
 1271TIP3    H2 3755   4.534   1.495   6.509  0.9451  0.6849 -1.0590
 1272TIP3   OH2 3756   3.144   2.316   6.609  0.1881  0.2170  1.0045
 1272TIP3    H1 3757   3.232   2.286   6.583  0.0319 -1.0107  1.8043
 1272TIP3    H2 3758   3.139   2.299   6.703 -0.9429  0.1688  0.9537
 1273TIP3   OH2 3759   7.814   5.569   5.101 -0.2995 -0.4682  0.3255
 1273TIP3    H1 3760   7.795   5.509   5.173  1.7758 -1.5836  0.0245
 1273TIP3    H2 3761   7.732   5.575   5.052 -0.8390 -2.2950  0.9340
 1274TIP3   OH2 3762   4.024   5.248   0.296 -0.0590 -0.1420  0.5197
 1274TIP3    H1 3763   3.939   5.206   0.304 -0.4150  0.3903 -0.3558
 1274TIP3    H2 3764   4.005   5.342   0.293  0.7719  0.2071  3.2177
 1275TIP3   OH2 3765   7.833   2.069   4.433 -0.0706 -0.6755  0.0805
 1275TIP3    H1 3766   7.815   2.143   4.491  1.4445  0.5346 -0.8925
 1275TIP3    H2 3767   7.747   2.033   4.412 -0.8695  0.9273  0.4486
 1276TIP3   OH2 3768   4.365   4.821   2.595  0.1855  0.0022  0.0148
 1276TIP3    H1 3769   4.416   4.858   2.668  0.2150 -0.1160  0.0556
 1276TIP3    H2 3770   4.411   4.739   2.574 -0.1286 -0.2250  0.2107
 1277TIP3   OH2 3771   5.202   7.637   0.885  0.2914  0.8501 -0.2391
 1277TIP3    H1 3772   5.284   7.673   0.849  0.6696  1.8410  1.5140
 1277TIP3    H2 3773   5.212   7.646   0.980 -0.2007 -2.6464  0.2770
 1278TIP3   OH2 3774   3.949   5.227   6.875  0.0997 -0.0166  0.0643
 1278TIP3    H1 3775   3.871   5.269   6.911 -0.1443 -1.1077  0.8753
 1278TIP3    H2 3776   3.936   5.230   6.780 -0.7332  0.1647  0.1701
 1279TIP3   OH2 3777   6.741   3.879   6.762 -0.1764 -0.2810 -0.5651
 1279TIP3    H1 3778   6.729   3.938   6.687 -0.0958 -0.7776 -0.9712
 1279TIP3    H2 3779   6.671   3.815   6.753  0.0990 -0.5971 -0.4575
 1280TIP3   OH2 3780   5.353   2.888   3.114 -0.2738  0.5823  0.2276
 1280TIP3    H1 3781   5.269   2.901   3.071 -1.4746 -3.4288  0.9293
 1280TIP3    H2 3782   5.337   2.907   3.206 -0.1169  0.7584  0.2203
 1281TIP3   OH2 3783   7.737   6.226   6.107  0.3076  0.5729 -0.3459
 1281TIP3    H1 3784   7.693   6.239   6.023  1.0368 -0.1700 -0.8598
 1281TIP3    H2 3785   7.793   6.150   6.093 -0.1862 -0.1005  1.0598
 1282TIP3   OH2 3786   6.629   5.252   3.529 -0.0592 -0.1564 -0.3856
 1282TIP3    H1 3787   6.688   5.325   3.508  0.0369 -0.6025 -1.7436
 1282TIP3    H2 3788   6.575   5.242   3.451  0.7026 -2.2755 -0.6941
 1283TIP3   OH2 3789   3.783   2.366   4.601 -0.2578 -0.3520  0.3311
 1283TIP3    H1 3790   3.823   2.365   4.688 -1.3098  1.3807  0.8812
 1283TIP3    H2 3791   3.706   2.309   4.609 -0.9943  0.6808  0.9090
 1284TIP3   OH2 3792   4.302   4.747   0.881  0.4652 -0.3251 -0.0235
 1284TIP3    H1 3793   4.376   4.748   0.941 -0.4774 -1.7722  1.2507
 1284TIP3    H2 3794   4.317   4.821   0.823  2.4092 -0.0213  0.7821
 1285TIP3   OH2 3795   2.605   7.700   5.261  0.2940 -0.4294 -0.0180
 1285TIP3    H1 3796   2.546   7.664   5.195  0.4414 -0.0917 -0.3346
 1285TIP3    H2 3797   2.550   7.757   5.315  0.4560  0.4172 -0.7241
 1286TIP3   OH2 3798   1.553   3.428   2.095  0.2042  0.0645  0.6722
 1286TIP3    H1 3799   1.533   3.334   2.095  0.4254  0.0058 -0.4476
 1286TIP3    H2 3800   1.493   3.465   2.031  0.7590  0.5404  0.4204
 1287TIP3   OH2 3801   5.342   3.762   1.689 -0.1416  0.4184 -0.1362
 1287TIP3    H1 3802   5.319   3.852   1.713  0.1822  0.3735  0.3680
 1287TIP3    H2 3803   5.325   3.757   1.595 -0.9244  0.7694 -0.0178
 1288TIP3   OH2 3804   6.164   0.631   5.921  0.5891  0.2748  0.2875
 1288TIP3    H1 3805   6.131   0.570   5.987 -1.9290  0.7745 -0.3811
 1288TIP3    H2 3806   6.100   0.626   5.850  2.8679  0.1933 -1.9136
 1289TIP3   OH2 3807   0.045   0.780   2.043 -0.4472 -0.1467  0.3808
 1289TIP3    H1 3808   0.038   0.840   1.969 -0.7411 -0.1996  0.3665
 1289TIP3    H2 3809  -0.042   0.740   2.050 -0.8808  0.9716  1.6980
 1290TIP3   OH2 3810   6.033   5.627   0.798  0.2207  0.5646 -0.0900
 1290TIP3    H1 3811   6.038   5.633   0.893  1.9695 -1.8003  0.0698
 1290TIP3    H2 3812   6.103   5.685   0.767 -1.0651  2.1967 -0.0369
 1291TIP3   OH2 3813   7.250   2.086   4.331  0.1878  0.0481  0.1240
 1291TIP3    H1 3814   7.172   2.096   4.276  1.0216  0.2871 -1.0470
 1291TIP3    H2 3815   7.301   2.165   4.314  0.6654 -0.0717  0.9382
 1292TIP3   OH2 3816   5.661   1.484   1.710  0.2997  0.1611  1.1172
 1292TIP3    H1 3817   5.671   1.390   1.726  1.5858 -0.0246 -0.5584
 1292TIP3    H2 3818   5.748   1.515   1.688 -0.5070  1.2310 -0.8594
 1293TIP3   OH2 3819   5.017   3.231   0.057 -0.4078 -0.5160 -0.0355
 1293TIP3    H1 3820   5.054   3.177  -0.013  1.4010 -2.2741  2.1073
 1293TIP3    H2 3821   5.079   3.302   0.069 -0.9999  0.0998 -0.5491
 1294TIP3   OH2 3822   7.429   4.380   2.481 -0.6427 -0.1166 -0.0355
 1294TIP3    H1 3823   7.491   4.368   2.409  0.6755  3.2666  0.3671
 1294TIP3    H2 3824   7.404   4.291   2.506  2.3231 -1.5639 -1.6807
 1295TIP3   OH2 3825   5.578   6.274   2.222  0.2764  0.4226  0.5281
 1295TIP3    H1 3826   5.662   6.276   2.175  0.1993 -0.1736  0.3680
 1295TIP3    H2 3827   5.528   6.205   2.179 -0.4847  1.0840  0.3173
 1296TIP3   OH2 3828   7.968   2.000   0.348 -0.1382 -0.7582 -0.3970
 1296TIP3    H1 3829   7.904   2.070   0.342 -0.3934 -0.7462  1.6116
 1296TIP3    H2 3830   8.024   2.011   0.272 -1.4915  0.2692 -1.2805
 1297TIP3   OH2 3831   5.973   4.417   6.048 -0.2897  0.1223  0.3114
 1297TIP3    H1 3832   5.918   4.392   5.974  0.1363 -3.0759  0.9300
 1297TIP3    H2 3833   5.914   4.463   6.107 -1.7192 -0.9951 -0.1824
 1298TIP3   OH2 3834   6.115   3.505   5.651  0.2760 -0.2079 -0.7313
 1298TIP3    H1 3835   6.190   3.515   5.592  0.6150 -0.9184 -0.4285
 1298TIP3    H2 3836   6.043   3.548   5.605  0.9901  0.9965 -0.7713
 1299TIP3   OH2 3837   5.543   4.913   5.051  0.3332  0.2306 -0.0831
 1299TIP3    H1 3838   5.527   4.858   4.974  3.0308  1.2334 -1.4906
 1299TIP3    H2 3839   5.608   4.864   5.102  0.7066  0.8572  0.0563
 1300TIP3   OH2 3840   5.920   5.971   3.406 -0.1993  0.0998  0.1240
 1300TIP3    H1 3841   5.975   5.901   3.442  0.7296  0.5329 -0.4082
 1300TIP3    H2 3842   5.854   5.986   3.473  0.3218 -0.4463  0.7777
 1301TIP3   OH2 3843   7.085   2.887   5.179  0.0457 -0.4960 -0.4033
 1301TIP3    H1 3844   7.054   2.904   5.090 -0.6198  0.1070 -0.0694
 1301TIP3    H2 3845   7.159   2.828   5.168 -1.5556 -2.4943 -1.2227
 1302TIP3   OH2 3846   1.439   2.151   0.799  0.1282  0.0218 -0.5511
 1302TIP3    H1 3847   1.416   2.229   0.849 -2.0669 -0.1957 -1.1411
 1302TIP3    H2 3848   1.484   2.095   0.862 -0.9545  0.5134  0.6957
 1303TIP3   OH2 3849   8.345   5.021   0.505  0.0086  0.2833 -0.5991
 1303TIP3    H1 3850   8.394   5.053   0.581  0.5878  1.8327 -1.5784
 1303TIP3    H2 3851   8.254   5.046   0.522  0.0942  0.3767 -0.2807
 1304TIP3   OH2 3852   6.738   2.126   4.352  0.1383  0.3519  0.7034
 1304TIP3    H1 3853   6.677   2.191   4.316 -0.4116  0.0861  1.1423
 1304TIP3    H2 3854   6.682   2.061   4.393  0.6688 -0.6443 -0.1129
 1305TIP3   OH2 3855   1.013   4.404   0.325 -0.4796  0.1572  0.1880
 1305TIP3    H1 3856   0.928   4.445   0.340 -0.5439 -0.1346  0.6208
 1305TIP3    H2 3857   1.065   4.472   0.282  0.8283  2.2355  4.5196
 1306TIP3   OH2 3858   4.537   3.645   0.901 -0.1852 -0.4692  0.4011
 1306TIP3    H1 3859   4.608   3.581   0.902  0.8815  0.6686 -0.1318
 1306TIP3    H2 3860   4.561   3.709   0.969  0.9139  1.5400 -1.7128
 1307TIP3   OH2 3861   3.701   6.671   3.941 -0.5126  0.2521 -0.0148
 1307TIP3    H1 3862   3.671   6.648   3.853 -2.2128  0.4034  0.4846
 1307TIP3    H2 3863   3.740   6.757   3.931  0.4964 -0.2890 -0.8434
 1308TIP3   OH2 3864   5.881   4.611   3.779  0.2081  0.1759 -0.5173
 1308TIP3    H1 3865   5.826   4.674   3.733 -0.2454 -1.3113 -2.1229
 1308TIP3    H2 3866   5.970   4.643   3.765 -0.1001  1.4406  0.2780
 1309TIP3   OH2 3867   1.302   1.127   0.652 -0.2238 -0.1633  0.4219
 1309TIP3    H1 3868   1.229   1.159   0.598 -0.0766  0.5480  0.6312
 1309TIP3    H2 3869   1.283   1.162   0.740  0.0682 -0.4679  0.6076
 1310TIP3   OH2 3870   2.318   3.419   4.071  0.2970  0.0142 -0.1380
 1310TIP3    H1 3871   2.333   3.327   4.051  1.2791 -0.7916  3.4365
 1310TIP3    H2 3872   2.404   3.459   4.066  0.3884  0.0197  1.0289
 1311TIP3   OH2 3873   5.216   2.566   1.002  0.3863  1.1134 -0.3571
 1311TIP3    H1 3874   5.225   2.526   1.089  1.6968  0.6910 -0.6571
 1311TIP3    H2 3875   5.171   2.649   1.018 -0.8787  0.2883  0.4991
 1312TIP3   OH2 3876   1.225   6.761   4.315 -0.2419  0.6196  0.8220
 1312TIP3    H1 3877   1.298   6.814   4.281 -1.3645  1.6576 -0.0694
 1312TIP3    H2 3878   1.267   6.686   4.356  1.4208  2.0272  1.8474
 1313TIP3   OH2 3879   4.602   2.377   2.084  0.5404  0.0416  0.1425
 1313TIP3    H1 3880   4.557   2.292   2.087 -1.8368  1.0378 -2.4918
 1313TIP3    H2 3881   4.627   2.387   1.993 -0.1065  2.5615  0.1863
 1314TIP3   OH2 3882   0.431   4.505   1.417  0.1347 -0.9845 -0.2932
 1314TIP3    H1 3883   0.490   4.482   1.346  0.0949  1.1763 -1.1109
 1314TIP3    H2 3884   0.485   4.559   1.476 -0.5901 -0.3025 -0.2356
 1315TIP3   OH2 3885   3.358   0.610   1.597  0.2899  0.6978 -0.3364
 1315TIP3    H1 3886   3.351   0.702   1.620 -1.0102  0.0425  2.2203
 1315TIP3    H2 3887   3.267   0.578   1.596  0.6427 -0.4153 -2.0151
 1316TIP3   OH2 3888   8.248   1.626   1.566 -0.0425  0.5472 -0.3070
 1316TIP3    H1 3889   8.295   1.635   1.483 -1.6170  1.5487 -1.1280
 1316TIP3    H2 3890   8.265   1.708   1.612 -0.2094  0.5094 -0.1793
 1317TIP3   OH2 3891   3.333   2.552   6.007 -0.3017 -0.2941  0.4033
 1317TIP3    H1 3892   3.363   2.643   6.014 -0.5683 -0.1225 -0.5447
 1317TIP3    H2 3893   3.387   2.504   6.070 -0.4088  0.5730  1.1844
 1318TIP3   OH2 3894   0.188   0.335   4.951 -0.3264  0.0988 -0.4861
 1318TIP3    H1 3895   0.209   0.262   4.894  1.3678  0.7121 -0.7153
 1318TIP3    H2 3896   0.268   0.389   4.951 -0.9864  1.1354  0.8869
 1319TIP3   OH2 3897   2.400   6.543   4.834  0.4991  0.8539  0.4453
 1319TIP3    H1 3898   2.491   6.525   4.809  1.3207  2.7660  1.8505
 1319TIP3    H2 3899   2.348   6.484   4.778  2.5090  0.5251 -1.2063
 1320TIP3   OH2 3900   3.499   6.079   2.198  0.0377  0.3929  0.1503
 1320TIP3    H1 3901   3.417   6.121   2.224  0.4540  0.8193  0.7942
 1320TIP3    H2 3902   3.557   6.152   2.178  0.6756  0.1299  0.9862
 1321TIP3   OH2 3903   6.744   6.690   2.929  0.3813  0.0530 -0.3794
 1321TIP3    H1 3904   6.764   6.754   2.997 -0.8000 -0.0071  0.0452
 1321TIP3    H2 3905   6.713   6.613   2.977  1.1449 -0.5987 -0.9162
 1322TIP3   OH2 3906   3.323   5.168   1.954 -0.0288  0.0819  0.3270
 1322TIP3    H1 3907   3.304   5.087   1.907 -0.7230  0.5615 -0.2520
 1322TIP3    H2 3908   3.268   5.234   1.911  2.0735  1.3088 -0.6529
 1323TIP3   OH2 3909   4.020   4.166   0.143 -0.1987  0.6669  0.0903
 1323TIP3    H1 3910   4.063   4.231   0.199 -1.6178  1.2672  0.5461
 1323TIP3    H2 3911   3.981   4.104   0.205 -0.3244  0.3574 -0.2954
 1324TIP3   OH2 3912   0.704   1.770   1.301  0.0830 -0.2081 -0.5710
 1324TIP3    H1 3913   0.628   1.726   1.338  0.0291  1.6944  1.8945
 1324TIP3    H2 3914   0.673   1.808   1.219 -2.4158  2.2696  1.3099
 1325TIP3   OH2 3915   0.252   4.055   3.034 -0.0734  0.2956  0.0225
 1325TIP3    H1 3916   0.311   4.124   3.006 -0.1258  0.8829  1.2651
 1325TIP3    H2 3917   0.286   4.028   3.120 -1.5330  0.5868  0.7252
 1326TIP3   OH2 3918   3.965   0.647   4.527 -0.3244 -0.1264  0.0590
 1326TIP3    H1 3919   4.057   0.666   4.547  0.1650 -1.5556 -0.6735
 1326TIP3    H2 3920   3.961   0.647   4.431 -0.7154 -1.6668  0.0580
 1327TIP3   OH2 3921   6.533   0.213   1.792 -0.1109  0.0641 -0.1993
 1327TIP3    H1 3922   6.514   0.303   1.765 -2.6035 -0.6304 -1.0351
 1327TIP3    H2 3923   6.555   0.220   1.885  0.8735  1.6397 -0.5258
 1328TIP3   OH2 3924   5.281   1.305   1.357 -0.0269  0.0880  0.0470
 1328TIP3    H1 3925   5.201   1.311   1.410  0.7698  1.3060  1.1812
 1328TIP3    H2 3926   5.347   1.352   1.408  0.8663  1.0702 -1.8974
 1329TIP3   OH2 3927   6.360   5.860   4.679 -0.0028 -0.4803 -0.3565
 1329TIP3    H1 3928   6.420   5.787   4.697  0.6746  0.1058 -0.2363
 1329TIP3    H2 3929   6.400   5.936   4.721  0.0997  0.3127 -1.8365
 1330TIP3   OH2 3930   0.325   3.433   4.391  0.1716  0.2501  0.0710
 1330TIP3    H1 3931   0.355   3.442   4.301  0.6870 -0.3915  0.1706
 1330TIP3    H2 3932   0.317   3.339   4.404 -1.5713  0.3857  0.1582
 1331TIP3   OH2 3933   6.713   7.666   5.891 -0.2181  0.3039 -0.0959
 1331TIP3    H1 3934   6.695   7.670   5.984 -0.9647  1.9034 -0.2650
 1331TIP3    H2 3935   6.755   7.750   5.871  1.3440 -0.6251 -0.9429
 1332TIP3   OH2 3936   0.990   2.871   3.534  0.2013 -0.0682  0.7869
 1332TIP3    H1 3937   0.943   2.788   3.535  0.9442 -0.5696 -1.0285
 1332TIP3    H2 3938   1.065   2.857   3.592  2.1617 -1.9292 -1.8966
 1333TIP3   OH2 3939   3.820   2.162   6.021 -0.5760 -0.4488  0.1981
 1333TIP3    H1 3940   3.795   2.109   5.945 -0.9201 -0.6877  0.4780
 1333TIP3    H2 3941   3.750   2.148   6.085 -1.1472  1.0457 -0.0534
 1334TIP3   OH2 3942   6.590   0.703   4.096 -0.1010  0.1165 -0.0347
 1334TIP3    H1 3943   6.683   0.718   4.074  0.4447 -1.0025  1.3576
 1334TIP3    H2 3944   6.591   0.677   4.188 -2.1894  3.6913  1.1606
 1335TIP3   OH2 3945   2.323   4.191   1.740 -0.2230  0.0910 -0.2140
 1335TIP3    H1 3946   2.370   4.110   1.722  2.1170  1.5300 -1.0114
 1335TIP3    H2 3947   2.355   4.219   1.826 -0.5204  0.5144 -0.2371
 1336TIP3   OH2 3948   5.368   2.712   6.600 -0.1129 -0.4655 -0.3502
 1336TIP3    H1 3949   5.423   2.738   6.526 -0.3717  0.3346 -0.2712
 1336TIP3    H2 3950   5.352   2.618   6.586  1.8779 -0.9143  0.0232
 1337TIP3   OH2 3951   3.550   0.329   3.969  0.1886 -0.1522  0.0658
 1337TIP3    H1 3952   3.456   0.311   3.966  0.1866 -0.2630  0.6157
 1337TIP3    H2 3953   3.591   0.250   3.933  0.1153 -0.6408  1.0088
 1338TIP3   OH2 3954   0.246   3.556   4.915 -0.0066  0.1825  0.1690
 1338TIP3    H1 3955   0.332   3.566   4.874  0.2058  0.5531  0.6815
 1338TIP3    H2 3956   0.207   3.480   4.873  0.5198  0.0938 -0.1644
 1339TIP3   OH2 3957   5.383   7.829   5.088 -0.0001  0.0923 -0.1348
 1339TIP3    H1 3958   5.351   7.800   5.173 -0.7132  0.8458 -0.1394
 1339TIP3    H2 3959   5.472   7.860   5.106  0.4198 -1.1579  0.0417
 1340TIP3   OH2 3960   3.963   7.727   4.955 -0.0100  0.1169 -0.0273
 1340TIP3    H1 3961   4.048   7.685   4.966 -0.2011 -0.3200 -0.1972
 1340TIP3    H2 3962   3.946   7.771   5.039 -0.1614 -0.7886  0.4194
 1341TIP3   OH2 3963   7.432   4.883   3.848 -1.0562 -0.1366  0.0577
 1341TIP3    H1 3964   7.465   4.944   3.913 -0.9440 -0.1064 -0.0276
 1341TIP3    H2 3965   7.510   4.847   3.807 -1.0777 -1.3472  1.0300
 1342TIP3   OH2 3966   2.527   1.573   6.116 -0.2426  0.0936 -0.3307
 1342TIP3    H1 3967   2.545   1.651   6.167 -1.5123 -0.0170  0.3492
 1342TIP3    H2 3968   2.611   1.527   6.110  0.6250  1.7301 -1.1741
 1343TIP3   OH2 3969   3.348   0.057   0.300  0.1931 -0.2991 -0.2123
 1343TIP3    H1 3970   3.369   0.150   0.307 -3.4703  0.6827 -0.3268
 1343TIP3    H2 3971   3.265   0.054   0.252  0.5503 -3.7174 -0.9254
 1344TIP3   OH2 3972   2.825   5.275   3.063  0.3587 -0.0249  0.3819
 1344TIP3    H1 3973   2.900   5.233   3.021  1.1986  3.7411 -2.4350
 1344TIP3    H2 3974   2.762   5.287   2.992 -1.7110 -0.4746  2.0590
 1345TIP3   OH2 3975   2.728   0.426   3.981  0.2689  0.2114  0.1486
 1345TIP3    H1 3976   2.815   0.455   4.008  0.2918  0.6763 -0.4033
 1345TIP3    H2 3977   2.681   0.507   3.961 -0.3152 -0.0336  0.5042
 1346TIP3   OH2 3978   8.140   6.563   0.463  0.2656  0.2054  0.5240
 1346TIP3    H1 3979   8.207   6.595   0.523  1.1086 -1.4277  0.5083
 1346TIP3    H2 3980   8.070   6.532   0.521  0.6953 -0.5452  0.6607
 1347TIP3   OH2 3981   1.261   2.731   1.065 -0.3083  0.0487 -1.0346
 1347TIP3    H1 3982   1.236   2.656   1.012 -0.1837 -0.2985 -0.6091
 1347TIP3    H2 3983   1.186   2.791   1.059 -0.4801 -0.1875 -1.2318
 1348TIP3   OH2 3984   4.292   6.774   3.981 -0.2807 -0.1137 -0.2062
 1348TIP3    H1 3985   4.361   6.840   3.992 -0.3739  0.3452 -2.1043
 1348TIP3    H2 3986   4.328   6.696   4.024  1.5498  0.0558 -1.2898
 1349TIP3   OH2 3987   5.768   4.164   6.277  0.5105  0.4727 -0.3731
 1349TIP3    H1 3988   5.825   4.232   6.242  0.8617 -0.0163 -0.7601
 1349TIP3    H2 3989   5.781   4.089   6.219 -0.8083  0.4699 -0.6926
 1350TIP3   OH2 3990   4.549   5.770   1.736  0.2159  0.0181  0.0223
 1350TIP3    H1 3991   4.603   5.844   1.709  1.0203 -0.5773 -0.0479
 1350TIP3    H2 3992   4.505   5.742   1.655  1.2611 -0.6531 -0.3484
 1351TIP3   OH2 3993   0.590   6.868   1.224  0.4145 -0.8009  0.0754
 1351TIP3    H1 3994   0.555   6.901   1.307  0.8978 -0.2925  0.0827
 1351TIP3    H2 3995   0.532   6.795   1.201  0.2529 -0.9225  0.8370
 1352TIP3   OH2 3996   0.905   4.123   4.564  0.3460  0.1419 -0.3331
 1352TIP3    H1 3997   0.962   4.106   4.489  0.3987  0.5189 -0.3851
 1352TIP3    H2 3998   0.934   4.208   4.597 -0.2874  0.4182 -0.4605
 1353TIP3   OH2 3999   7.429   0.157   1.098 -0.4213  0.0486  0.1673
 1353TIP3    H1 4000   7.448   0.089   1.162 -2.6249 -2.2965 -1.4705
 1353TIP3    H2 4001   7.514   0.175   1.056 -0.0248 -3.3407 -0.7770
 1354TIP3   OH2 4002   6.100   2.369   1.996 -0.9123 -0.2745  0.6235
 1354TIP3    H1 4003   6.132   2.291   2.041  0.0307 -0.8226 -0.9379
 1354TIP3    H2 4004   6.131   2.442   2.049 -0.1377 -0.9141  1.0570
 1355TIP3   OH2 4005   2.610   0.612   2.069 -0.2291  0.0605 -0.6487
 1355TIP3    H1 4006   2.566   0.634   2.151  0.3423 -1.4181  0.0975
 1355TIP3    H2 4007   2.653   0.693   2.042 -0.0830  0.4663  0.7385
 1356TIP3   OH2 4008   0.027   5.181   3.837  0.4173 -0.1592  0.1485
 1356TIP3    H1 4009  -0.004   5.263   3.875  0.4558 -0.1445  0.1489
 1356TIP3    H2 4010   0.006   5.115   3.903  0.5370 -0.1251  0.2224
 1357TIP3   OH2 4011   4.571   6.884   1.490  0.4514  0.1470  0.2987
 1357TIP3    H1 4012   4.661   6.853   1.496 -0.3511 -2.2920  0.8686
 1357TIP3    H2 4013   4.530   6.826   1.425 -1.0407  0.2251  1.1117
 1358TIP3   OH2 4014   4.909   0.358   5.512 -0.1058  0.1749 -0.2675
 1358TIP3    H1 4015   4.907   0.452   5.531 -1.0112  0.4189 -1.4932
 1358TIP3    H2 4016   4.864   0.318   5.586  1.8770  0.4908  1.2064
 1359TIP3   OH2 4017   6.111   3.746   0.122 -0.1605  0.1631 -0.0928
 1359TIP3    H1 4018   6.069   3.796   0.052 -0.1440 -0.8144 -0.8397
 1359TIP3    H2 4019   6.160   3.810   0.173 -0.6011  0.9704 -0.6785
 1360TIP3   OH2 4020   5.969   2.202   6.285 -0.1520 -0.0255  0.1213
 1360TIP3    H1 4021   5.929   2.210   6.199 -2.3338  1.1502  1.1767
 1360TIP3    H2 4022   5.912   2.143   6.334  0.3295  0.3484  1.1726
 1361TIP3   OH2 4023   8.372   4.380   2.968 -0.1309 -0.4330 -0.3425
 1361TIP3    H1 4024   8.411   4.301   3.005  1.6093  0.7761  0.5393
 1361TIP3    H2 4025   8.331   4.423   3.042  1.0879  0.6909 -0.2814
 1362TIP3   OH2 4026   2.381   0.891   4.149  0.0933 -0.5349  0.1475
 1362TIP3    H1 4027   2.442   0.835   4.197 -0.3319  0.1486  1.5579
 1362TIP3    H2 4028   2.315   0.830   4.115  2.1813 -1.4742 -2.6074
 1363TIP3   OH2 4029   7.620   1.033   0.775  0.2726  0.6402  0.1897
 1363TIP3    H1 4030   7.628   0.939   0.755 -0.4151  0.4477  0.7568
 1363TIP3    H2 4031   7.683   1.048   0.845  1.2948  0.8914 -0.7586
 1364TIP3   OH2 4032   2.918   7.721   5.315  0.5183  0.0958 -0.2483
 1364TIP3    H1 4033   2.843   7.698   5.260  0.3143 -0.4061  0.2288
 1364TIP3    H2 4034   2.882   7.725   5.404  0.8354  0.9305 -0.1510
 1365TIP3   OH2 4035  -0.013   6.336   2.666  0.2764  0.0905 -0.5850
 1365TIP3    H1 4036  -0.047   6.424   2.648  0.9295  0.4374 -0.1404
 1365TIP3    H2 4037   0.080   6.349   2.684  0.5531 -0.7936 -1.3167
 1366TIP3   OH2 4038   6.779   7.716   4.268 -0.2410  0.4022 -0.3120
 1366TIP3    H1 4039   6.870   7.745   4.259  0.7674 -1.5520  2.2619
 1366TIP3    H2 4040   6.763   7.716   4.362 -1.8434 -2.1453 -0.4715
 1367TIP3   OH2 4041   6.228   2.966   6.524 -0.3424 -0.0684  0.3798
 1367TIP3    H1 4042   6.176   3.041   6.495 -0.6524  0.3351  1.9230
 1367TIP3    H2 4043   6.166   2.909   6.568 -0.3654 -1.8807 -1.8058
 1368TIP3   OH2 4044   6.537   2.479   0.024  0.1978 -0.0618  0.2647
 1368TIP3    H1 4045   6.540   2.574   0.022 -0.1438 -0.0501  0.2510
 1368TIP3    H2 4046   6.459   2.458   0.075  0.8949 -0.3370  1.2548
 1369TIP3   OH2 4047   2.624   7.596   2.585 -0.2499 -0.1530 -0.3275
 1369TIP3    H1 4048   2.590   7.599   2.496  2.1684  0.7292 -1.3302
 1369TIP3    H2 4049   2.718   7.612   2.575 -0.0818  1.2903  2.4982
 1370TIP3   OH2 4050   0.200   2.052   1.243 -0.4720 -0.0369  0.1430
 1370TIP3    H1 4051   0.145   2.063   1.166 -0.2470  0.1694  0.0107
 1370TIP3    H2 4052   0.138   2.049   1.316 -0.6968 -0.4404 -0.0631
 1371TIP3   OH2 4053   3.973   6.941   2.847  0.0355  0.1597  0.2732
 1371TIP3    H1 4054   3.911   6.984   2.905  0.4163 -0.1657  0.9310
 1371TIP3    H2 4055   4.056   6.986   2.863  0.2744 -0.3278  0.4243
 1372TIP3   OH2 4056   7.963   5.857   4.179  0.6146 -0.2913  0.5926
 1372TIP3    H1 4057   7.944   5.950   4.172  2.6885  0.2526  1.4006
 1372TIP3    H2 4058   7.972   5.840   4.273  1.4604 -1.0105  0.4021
 1373TIP3   OH2 4059   7.682   2.918   6.134 -0.1240  0.1464 -0.2371
 1373TIP3    H1 4060   7.602   2.914   6.082  0.6016 -0.4023 -1.3187
 1373TIP3    H2 4061   7.660   2.873   6.215 -0.3034 -1.8564 -1.3519
 1374TIP3   OH2 4062   2.233   0.091   2.763  0.2695 -0.0615 -0.1554
 1374TIP3    H1 4063   2.183   0.126   2.836  2.0344 -1.5310  1.8850
 1374TIP3    H2 4064   2.301   0.156   2.747  0.6426 -0.3064  0.3948
 1375TIP3   OH2 4065   1.821   5.859   1.841 -0.3518 -0.1256  0.2233
 1375TIP3    H1 4066   1.757   5.893   1.779 -1.7739 -0.0144  1.6800
 1375TIP3    H2 4067   1.904   5.898   1.814 -0.3162 -2.2133 -3.2476
 1376TIP3   OH2 4068   8.249   5.529   3.231 -0.4257 -0.0876 -0.2856
 1376TIP3    H1 4069   8.241   5.466   3.159 -0.9101 -0.5469  0.1608
 1376TIP3    H2 4070   8.161   5.534   3.268 -0.1298 -0.0234  0.4171
 1377TIP3   OH2 4071   4.974   4.953   4.334 -0.2071 -0.4884 -0.1308
 1377TIP3    H1 4072   4.965   4.890   4.263  0.5650  0.4228 -1.0660
 1377TIP3    H2 4073   5.068   4.964   4.345 -0.3036  1.2351 -0.6894
 1378TIP3   OH2 4074   1.206   5.042   0.835  0.3256 -0.3017 -0.4639
 1378TIP3    H1 4075   1.153   5.117   0.862  0.2027 -0.7524  0.5700
 1378TIP3    H2 4076   1.243   5.008   0.916  2.8979  0.4737 -1.2083
 1379TIP3   OH2 4077   3.191   0.913   4.627  0.7387 -0.4770 -0.2924
 1379TIP3    H1 4078   3.185   0.856   4.550  0.4529  0.2572 -0.8170
 1379TIP3    H2 4079   3.105   0.955   4.633  1.1338  0.3292 -0.2392
 1380TIP3   OH2 4080   8.351   6.823   1.481 -0.1897 -0.3625 -0.3140
 1380TIP3    H1 4081   8.296   6.890   1.441 -3.1519 -1.4328  1.6311
 1380TIP3    H2 4082   8.402   6.870   1.547  1.3677  0.6550 -2.1608
 1381TIP3   OH2 4083   8.181   0.228   3.538  0.1997 -0.4245 -1.1648
 1381TIP3    H1 4084   8.115   0.169   3.501  1.3751 -1.1701 -2.1868
 1381TIP3    H2 4085   8.131   0.302   3.573 -1.1854 -1.1357 -1.5663
 1382TIP3   OH2 4086   0.207   3.939   6.048 -0.3675 -0.9250  0.0837
 1382TIP3    H1 4087   0.189   3.847   6.031  0.1049 -0.9961 -0.0533
 1382TIP3    H2 4088   0.121   3.980   6.052 -0.5468 -1.1978 -0.8314
 1383TIP3   OH2 4089   3.655   3.238   5.946  0.3654  0.4315 -0.0853
 1383TIP3    H1 4090   3.703   3.216   5.866  2.2734 -0.8310  1.3309
 1383TIP3    H2 4091   3.685   3.326   5.968 -0.6824  1.0723 -1.0516
 1384TIP3   OH2 4092   4.291   4.622   2.903 -0.3493 -0.3675 -0.3514
 1384TIP3    H1 4093   4.313   4.709   2.936 -3.0011  0.0911  0.4844
 1384TIP3    H2 4094   4.373   4.588   2.867  1.6930  0.9429  2.6736
 1385TIP3   OH2 4095   2.866   1.983   1.974  0.1411  0.2863 -0.3992
 1385TIP3    H1 4096   2.854   2.009   2.065  1.4306 -0.2870 -0.0448
 1385TIP3    H2 4097   2.859   2.064   1.924 -0.5282  0.6072  0.2108
 1386TIP3   OH2 4098   6.493   5.622   4.585 -0.3150 -0.4898 -0.3975
 1386TIP3    H1 4099   6.516   5.685   4.518  0.1839 -1.1040 -0.8071
 1386TIP3    H2 4100   6.446   5.553   4.539  2.5569 -2.4021 -0.6959
 1387TIP3   OH2 4101   2.669   3.286   1.318 -0.0842 -0.1287  0.2363
 1387TIP3    H1 4102   2.682   3.379   1.336  0.2585 -0.1622  0.1729
 1387TIP3    H2 4103   2.583   3.282   1.274  0.2201  0.2429 -0.4158
 1388TIP3   OH2 4104   7.751   6.544   5.385 -0.0659  0.3730 -0.3689
 1388TIP3    H1 4105   7.758   6.622   5.441  0.1251 -0.1921  0.4200
 1388TIP3    H2 4106   7.841   6.522   5.363  0.0201 -0.6244  0.8613
 1389TIP3   OH2 4107   5.460   7.157   0.013  0.4264  0.5073  0.2964
 1389TIP3    H1 4108   5.464   7.242   0.057  0.2550 -0.1024  1.5251
 1389TIP3    H2 4109   5.537   7.110   0.046 -0.4670 -0.4707  1.0750
 1390TIP3   OH2 4110   0.036   0.525   1.590 -0.9496  0.2952 -0.0931
 1390TIP3    H1 4111  -0.049   0.481   1.601 -0.1034 -1.3212  0.3345
 1390TIP3    H2 4112   0.066   0.497   1.504  0.0102 -0.7541  0.5541
 1391TIP3   OH2 4113   6.828   7.773   0.154  0.2122 -0.1481  0.3740
 1391TIP3    H1 4114   6.878   7.816   0.223  1.0589 -0.0592 -0.2790
 1391TIP3    H2 4115   6.862   7.810   0.072 -0.8037 -0.2150 -0.1004
 1392TIP3   OH2 4116   6.137   3.028   5.597  0.2760  0.2708 -0.2089
 1392TIP3    H1 4117   6.084   2.948   5.592 -1.0825  0.9075  2.3559
 1392TIP3    H2 4118   6.214   3.001   5.648  1.7487 -0.2355 -2.5288
 1393TIP3   OH2 4119   1.686   0.028   3.802 -0.7694  0.0958 -0.4896
 1393TIP3    H1 4120   1.654   0.059   3.887  1.0544  0.4329  0.1245
 1393TIP3    H2 4121   1.720   0.107   3.759  1.4756 -0.5518 -0.0328
 1394TIP3   OH2 4122   5.692   1.630   5.496  0.3550  0.4230  0.1917
 1394TIP3    H1 4123   5.605   1.665   5.515 -0.2340  0.0088 -1.6156
 1394TIP3    H2 4124   5.688   1.538   5.522 -0.2202  0.0430 -1.1649
 1395TIP3   OH2 4125   4.190   5.782   6.855 -0.0503 -0.1031  0.1395
 1395TIP3    H1 4126   4.100   5.811   6.872 -0.1215 -0.2143 -0.0443
 1395TIP3    H2 4127   4.196   5.778   6.760 -0.2209 -1.2410  0.1630
 1396TIP3   OH2 4128   5.214   4.102   0.545 -0.3821 -0.1032 -0.0051
 1396TIP3    H1 4129   5.194   4.085   0.453  0.5125  1.1107 -0.4484
 1396TIP3    H2 4130   5.303   4.136   0.544 -0.0052 -0.9691  1.4259
 1397TIP3   OH2 4131   1.614   0.424   2.664  0.4630  0.3643 -0.2571
 1397TIP3    H1 4132   1.629   0.366   2.590  1.0414  0.7471 -0.4452
 1397TIP3    H2 4133   1.601   0.365   2.739 -0.6960 -0.0334 -0.7489
 1398TIP3   OH2 4134   6.731   7.814   3.147 -0.3569  0.6184 -0.2709
 1398TIP3    H1 4135   6.650   7.768   3.125 -0.5158  0.8135 -0.0924
 1398TIP3    H2 4136   6.800   7.751   3.127 -0.5275  0.6014 -0.8129
 1399TIP3   OH2 4137   7.700   0.292   5.171  0.1315 -0.1016  0.0623
 1399TIP3    H1 4138   7.638   0.230   5.209 -0.2819 -0.6339 -1.4091
 1399TIP3    H2 4139   7.786   0.265   5.205 -0.4356  1.1302  2.7648
 1400TIP3   OH2 4140   5.133   5.627   2.225 -0.5971 -0.6237  0.2126
 1400TIP3    H1 4141   5.158   5.687   2.296 -0.0143 -1.9669  1.2028
 1400TIP3    H2 4142   5.192   5.552   2.236 -0.9205 -1.1339 -1.3344
 1401TIP3   OH2 4143   2.379   7.842   1.488 -0.1578  0.5393  0.0336
 1401TIP3    H1 4144   2.382   7.820   1.395 -2.3718  1.6642 -0.3726
 1401TIP3    H2 4145   2.386   7.937   1.491  1.8676  0.4040  1.2054
 1402TIP3   OH2 4146   0.026   6.469   6.611 -0.3604  0.5150  0.0254
 1402TIP3    H1 4147   0.009   6.382   6.647  0.0750  0.6102  0.4671
 1402TIP3    H2 4148   0.062   6.519   6.684 -0.7399  1.1123 -0.1853
 1403TIP3   OH2 4149   1.441   0.879   1.836  0.0371  0.3395 -0.2261
 1403TIP3    H1 4150   1.418   0.793   1.870  1.4361 -0.4143 -1.0667
 1403TIP3    H2 4151   1.510   0.911   1.894 -0.0403  0.6021 -0.2780
 1404TIP3   OH2 4152   7.185   5.688   0.291 -0.4189 -0.4515 -0.3912
 1404TIP3    H1 4153   7.140   5.740   0.357 -1.0101 -1.7410  0.2769
 1404TIP3    H2 4154   7.219   5.612   0.339  1.0910 -0.3222 -1.1789
 1405TIP3   OH2 4155   2.002   6.860   5.701 -0.3498  0.0494 -0.2248
 1405TIP3    H1 4156   2.062   6.909   5.758  0.3327  0.4396 -1.2400
 1405TIP3    H2 4157   1.919   6.908   5.707 -0.1294  0.4111  0.0139
 1406TIP3   OH2 4158   3.744   5.255   5.908  0.0484  0.3894  0.4249
 1406TIP3    H1 4159   3.650   5.252   5.894 -0.0388 -0.0822  1.0905
 1406TIP3    H2 4160   3.755   5.303   5.990  0.3798  0.2877  0.4417
 1407TIP3   OH2 4161   0.857   5.501   6.781  0.5700 -0.2130  0.2008
 1407TIP3    H1 4162   0.945   5.538   6.781  0.4324  0.1257 -0.2250
 1407TIP3    H2 4163   0.813   5.543   6.855  1.0390 -1.0670  0.9860
 1408TIP3   OH2 4164   5.956   0.084   6.272 -0.2745  0.5573  0.0224
 1408TIP3    H1 4165   5.938   0.130   6.190  1.7935 -0.6094 -1.1588
 1408TIP3    H2 4166   5.933  -0.007   6.255 -0.4763  0.4192  0.9760
 1409TIP3   OH2 4167   1.637   0.111   5.434  0.8861  0.2187  0.3792
 1409TIP3    H1 4168   1.655   0.192   5.482  1.4685 -1.2620  2.8647
 1409TIP3    H2 4169   1.701   0.048   5.468  0.7182 -1.2071 -1.7593
 1410TIP3   OH2 4170   3.802   0.816   6.117  0.3664  0.3286  0.1162
 1410TIP3    H1 4171   3.792   0.811   6.022 -0.6489 -0.8955  0.2571
 1410TIP3    H2 4172   3.882   0.767   6.135 -0.6869 -1.5012  0.0550
 1411TIP3   OH2 4173   6.688   1.099   2.639 -0.4507 -0.0178 -1.0534
 1411TIP3    H1 4174   6.644   1.160   2.698 -2.2422 -1.6187 -0.6309
 1411TIP3    H2 4175   6.709   1.024   2.694  2.3298  0.4249 -1.4069
 1412TIP3   OH2 4176   5.388   0.973   2.952 -0.1923 -0.2121 -0.0289
 1412TIP3    H1 4177   5.357   1.050   2.999  1.5272  0.7199 -0.3140
 1412TIP3    H2 4178   5.321   0.907   2.965 -0.9662  0.8450  1.5484
 1413TIP3   OH2 4179   7.443   2.675   4.835  0.2251  0.3159  0.4865
 1413TIP3    H1 4180   7.473   2.629   4.914 -0.6533  1.0391  1.2688
 1413TIP3    H2 4181   7.353   2.647   4.824 -0.5917  2.3856  1.4382
 1414TIP3   OH2 4182   8.339   4.514   1.713  0.0196  0.1823 -0.6473
 1414TIP3    H1 4183   8.416   4.568   1.730  1.9333 -2.1724 -1.3028
 1414TIP3    H2 4184   8.366   4.455   1.642 -1.5509 -2.3148  0.6806
 1415TIP3   OH2 4185   2.162   6.267   3.146  0.3477  0.1147  0.0994
 1415TIP3    H1 4186   2.194   6.333   3.207  4.1654 -0.6064 -0.9090
 1415TIP3    H2 4187   2.181   6.304   3.060 -1.0827 -0.6992 -0.5998
 1416TIP3   OH2 4188   3.811   0.309   0.800 -0.0374  0.0835 -0.2266
 1416TIP3    H1 4189   3.766   0.312   0.716  0.1694 -1.9693 -0.4735
 1416TIP3    H2 4190   3.894   0.355   0.785  0.8952 -1.9200 -1.8166
 1417TIP3   OH2 4191   8.113   3.798   4.256 -0.1656 -0.5083  0.0232
 1417TIP3    H1 4192   8.049   3.741   4.214 -1.5722  1.6381 -0.9511
 1417TIP3    H2 4193   8.171   3.826   4.185 -0.3077  0.2812  0.2070
 1418TIP3   OH2 4194   6.042   5.419   4.798 -0.7876 -0.0663  0.5954
 1418TIP3    H1 4195   6.084   5.333   4.784 -1.2638 -0.0569 -1.1778
 1418TIP3    H2 4196   6.104   5.467   4.852  0.2282 -1.0053  0.3101
 1419TIP3   OH2 4197   8.269   3.976   0.847  0.3650 -0.0007  0.1954
 1419TIP3    H1 4198   8.217   4.051   0.819  2.1078  1.3682  0.5063
 1419TIP3    H2 4199   8.299   3.998   0.935  0.1230 -1.5018  0.6913
 1420TIP3   OH2 4200   2.384   1.803   4.603 -0.6561 -0.0858 -0.4563
 1420TIP3    H1 4201   2.468   1.822   4.563 -0.9822 -1.6873 -2.0394
 1420TIP3    H2 4202   2.333   1.884   4.593  0.0376  0.2605 -1.2815
 1421TIP3   OH2 4203   5.672   3.222   0.607 -0.3811  0.3194  0.3461
 1421TIP3    H1 4204   5.713   3.173   0.679  0.5596  0.1186 -0.3107
 1421TIP3    H2 4205   5.584   3.186   0.602 -0.1352 -0.3746  0.7479
 1422TIP3   OH2 4206   1.019   2.730   1.305  0.1050 -0.8373 -0.5402
 1422TIP3    H1 4207   0.998   2.822   1.290 -1.9251 -1.1724 -0.0532
 1422TIP3    H2 4208   1.114   2.730   1.321  0.0550  1.2658  0.1491
 1423TIP3   OH2 4209   3.665   6.531   1.172  0.3280  0.3341 -0.0466
 1423TIP3    H1 4210   3.735   6.547   1.109 -0.6338 -0.8328 -1.4811
 1423TIP3    H2 4211   3.612   6.611   1.171 -1.7521 -0.8716 -3.5733
 1424TIP3   OH2 4212   0.922   7.598   3.683 -0.1311  0.1414  0.0169
 1424TIP3    H1 4213   0.865   7.675   3.671  1.2261  1.4484  1.4937
 1424TIP3    H2 4214   0.862   7.524   3.678 -1.3115  1.1053 -2.9378
 1425TIP3   OH2 4215   1.503   2.975   3.925 -0.3888 -0.1210  0.4252
 1425TIP3    H1 4216   1.571   2.910   3.942  0.3684  0.7363  0.7898
 1425TIP3    H2 4217   1.466   2.950   3.841 -1.7689 -2.3953  1.5997
 1426TIP3   OH2 4218   6.657   2.848   2.947 -0.2596  0.4064 -0.6778
 1426TIP3    H1 4219   6.744   2.810   2.935 -0.8863 -1.8449  1.0504
 1426TIP3    H2 4220   6.672   2.931   2.991  1.0471  0.4395 -1.1576
 1427TIP3   OH2 4221   2.598   3.623   3.148  0.3371 -0.4459  0.1744
 1427TIP3    H1 4222   2.586   3.652   3.238 -2.0091 -1.1473  0.1671
 1427TIP3    H2 4223   2.583   3.702   3.096 -1.6259 -0.6637  0.3265
 1428TIP3   OH2 4224   7.705   3.207   1.001  0.1479 -0.4515 -0.4043
 1428TIP3    H1 4225   7.766   3.239   0.935  1.8550 -0.7756  0.9524
 1428TIP3    H2 4226   7.753   3.140   1.048 -0.5999  0.5024  1.8677
 1429TIP3   OH2 4227   8.338   1.115   1.093  0.2422 -0.0708  0.9104
 1429TIP3    H1 4228   8.364   1.207   1.086  0.6149 -0.2165  0.2397
 1429TIP3    H2 4229   8.415   1.067   1.062 -0.0151 -0.6046  1.0913
 1430TIP3   OH2 4230   4.528   2.541   2.607 -0.5410  0.9556 -0.0617
 1430TIP3    H1 4231   4.486   2.627   2.606 -1.3184  0.5777 -0.2700
 1430TIP3    H2 4232   4.461   2.481   2.577  0.3585  0.4325 -1.1063
 1431TIP3   OH2 4233   7.936   7.282   4.005  0.0249  0.0163 -0.3085
 1431TIP3    H1 4234   7.999   7.339   4.049  2.4056 -0.9844 -2.1713
 1431TIP3    H2 4235   7.895   7.338   3.939  1.9374 -0.1888 -1.7497
 1432TIP3   OH2 4236   8.008   1.038   4.348 -0.5208  0.5782  0.5267
 1432TIP3    H1 4237   7.957   1.006   4.423 -2.2357  1.7187 -0.1055
 1432TIP3    H2 4238   7.943   1.058   4.281  0.8932  0.6961 -0.8722
 1433TIP3   OH2 4239   4.213   7.373   3.398  0.0605 -0.0911 -0.5900
 1433TIP3    H1 4240   4.280   7.399   3.461  0.8566 -0.5855 -1.2101
 1433TIP3    H2 4241   4.142   7.437   3.410  0.6277  0.4244  0.0882
 1434TIP3   OH2 4242   3.329   7.781   5.479  0.3827 -0.0063  0.2369
 1434TIP3    H1 4243   3.411   7.757   5.436  1.0113 -0.9433  1.8553
 1434TIP3    H2 4244   3.264   7.723   5.440  0.6969  0.0047 -0.3105
 1435TIP3   OH2 4245   4.442   7.549   3.830 -0.2435 -0.5736  0.4656
 1435TIP3    H1 4246   4.520   7.567   3.883  1.1174  0.5037 -1.7475
 1435TIP3    H2 4247   4.472   7.488   3.762 -0.5587  1.6970 -1.8904
 1436TIP3   OH2 4248   0.819   5.068   1.324 -0.2442 -0.4310 -0.2056
 1436TIP3    H1 4249   0.755   5.113   1.270 -0.0998 -1.2310 -1.0615
 1436TIP3    H2 4250   0.792   4.977   1.323  0.2726 -0.5987  0.3397
 1437TIP3   OH2 4251   2.829   3.442   2.618 -0.5128 -0.0882 -0.1565
 1437TIP3    H1 4252   2.823   3.385   2.542 -3.2842 -0.6673  0.3726
 1437TIP3    H2 4253   2.897   3.505   2.596 -1.0812 -0.3564 -3.0164
 1438TIP3   OH2 4254   7.392   6.577   1.808  0.1150  0.4059  0.3767
 1438TIP3    H1 4255   7.307   6.600   1.844  0.0994 -1.1784  1.4824
 1438TIP3    H2 4256   7.455   6.619   1.867  0.0914  0.1670  0.5735
 1439TIP3   OH2 4257   0.876   2.112   4.008  0.2965 -0.3488  0.2501
 1439TIP3    H1 4258   0.948   2.152   3.959 -0.2982 -0.1610 -0.4766
 1439TIP3    H2 4259   0.858   2.030   3.962 -2.3494  1.2404 -1.8312
 1440TIP3   OH2 4260   2.633   5.898   0.815  0.0577 -0.4035  0.3929
 1440TIP3    H1 4261   2.720   5.915   0.851  0.3348 -0.8590 -0.0552
 1440TIP3    H2 4262   2.583   5.863   0.889  0.4408 -0.7340  0.4994
 1441TIP3   OH2 4263   1.519   1.154   4.378 -0.0665 -0.3473  0.4331
 1441TIP3    H1 4264   1.606   1.134   4.341  0.5308  0.9998  1.0639
 1441TIP3    H2 4265   1.515   1.249   4.380 -1.7732 -0.3841 -0.0249
 1442TIP3   OH2 4266   0.738   4.194   3.916  0.4795 -0.0614  0.2279
 1442TIP3    H1 4267   0.653   4.221   3.949  0.6463  0.2872  0.3753
 1442TIP3    H2 4268   0.726   4.189   3.821  1.0748  2.9449 -0.0989
 1443TIP3   OH2 4269   6.240   3.019   1.904 -0.2702  0.2517 -0.6778
 1443TIP3    H1 4270   6.291   3.050   1.829  0.8905  0.4524  0.1757
 1443TIP3    H2 4271   6.150   3.047   1.885 -0.1304 -0.3000 -2.3080
 1444TIP3   OH2 4272   1.131   7.473   3.302 -0.1298 -0.0573  0.2609
 1444TIP3    H1 4273   1.199   7.502   3.362 -1.8154  1.4079  1.5605
 1444TIP3    H2 4274   1.137   7.377   3.303  0.9339  0.0057  1.4804
 1445TIP3   OH2 4275   2.270   2.716   5.875 -0.2343 -0.6390  0.5158
 1445TIP3    H1 4276   2.264   2.778   5.948 -1.2949 -1.3892  1.1018
 1445TIP3    H2 4277   2.354   2.735   5.834 -0.1730  0.6352  1.1738
 1446TIP3   OH2 4278   1.829   3.210   1.265 -0.6107  0.6944  0.0304
 1446TIP3    H1 4279   1.896   3.273   1.290  3.1705 -2.1901 -1.8296
 1446TIP3    H2 4280   1.845   3.192   1.173 -1.5899 -2.7151  0.3655
 1447TIP3   OH2 4281   3.811   0.826   5.841 -0.0244 -0.1143 -0.3568
 1447TIP3    H1 4282   3.876   0.854   5.777  1.6357 -0.2084  1.2091
 1447TIP3    H2 4283   3.799   0.732   5.823  1.4819 -0.4622  0.3087
 1448TIP3   OH2 4284   4.940   2.669   2.197 -0.0634 -0.0184  0.0528
 1448TIP3    H1 4285   5.031   2.682   2.223  0.1187 -0.4311 -0.3502
 1448TIP3    H2 4286   4.892   2.660   2.279  0.2074  0.5328  0.2720
 1449TIP3   OH2 4287   2.138   1.054   2.056 -0.5152 -0.4403  0.1741
 1449TIP3    H1 4288   2.074   1.005   2.108  0.0595  0.1555  1.4843
 1449TIP3    H2 4289   2.180   1.112   2.119  1.3272 -0.8313 -0.6439
 1450TIP3   OH2 4290   0.256   4.570   3.673  0.1741 -0.3855  0.1254
 1450TIP3    H1 4291   0.161   4.579   3.687  0.2351  0.3721  0.0958
 1450TIP3    H2 4292   0.264   4.548   3.580  0.0890  1.0159 -0.2355
 1451TIP3   OH2 4293   6.838   0.594   0.207  0.1727  0.2091 -0.1941
 1451TIP3    H1 4294   6.803   0.590   0.118  0.5692  2.0178 -0.4734
 1451TIP3    H2 4295   6.925   0.631   0.197  0.5193 -0.2701  0.8905
 1452TIP3   OH2 4296   2.769   3.264   6.628 -1.2814 -0.1604 -0.2144
 1452TIP3    H1 4297   2.745   3.258   6.721 -2.0390  4.1351  0.0809
 1452TIP3    H2 4298   2.687   3.253   6.581 -1.6776  1.5770 -0.0171
 1453TIP3   OH2 4299   0.392   1.171   2.355  0.2254  0.1026  0.6598
 1453TIP3    H1 4300   0.443   1.090   2.346 -1.4567 -1.0105  0.5204
 1453TIP3    H2 4301   0.358   1.168   2.444 -1.2514 -0.2684  0.1219
 1454TIP3   OH2 4302   3.378   2.304   1.366  0.1718 -0.1301  0.1619
 1454TIP3    H1 4303   3.326   2.341   1.295  0.3737 -1.6019 -0.7941
 1454TIP3    H2 4304   3.447   2.369   1.382  1.5323 -0.7490 -2.5968
 1455TIP3   OH2 4305   2.747   3.635   2.841  0.2125  0.0004 -0.5894
 1455TIP3    H1 4306   2.713   3.580   2.911  1.0012  1.3571  0.9438
 1455TIP3    H2 4307   2.689   3.620   2.767 -1.3014 -0.6934  0.6891
 1456TIP3   OH2 4308   3.358   2.669   2.809 -0.7301  0.8653 -0.6569
 1456TIP3    H1 4309   3.290   2.645   2.746  0.6928 -0.5499 -1.7352
 1456TIP3    H2 4310   3.433   2.616   2.784 -0.2653 -0.2548  2.6334
 1457TIP3   OH2 4311   3.276   0.381   5.870  0.0565  0.5441  0.4442
 1457TIP3    H1 4312   3.268   0.302   5.816 -1.4541  0.0213  1.3636
 1457TIP3    H2 4313   3.186   0.408   5.887  0.5168  1.4976  1.5382
 1458TIP3   OH2 4314   1.804   2.683   4.978 -0.7020 -0.1251 -0.2019
 1458TIP3    H1 4315   1.710   2.670   4.964 -0.5606 -1.3061 -0.1325
 1458TIP3    H2 4316   1.823   2.631   5.056 -0.0699  0.4673  0.0434
 1459TIP3   OH2 4317   5.298   0.371   5.885  0.1335  0.1853  0.1621
 1459TIP3    H1 4318   5.256   0.286   5.899  2.6634 -1.3659 -0.8594
 1459TIP3    H2 4319   5.275   0.395   5.795  1.2831 -0.6320 -0.3753
 1460TIP3   OH2 4320   3.866   2.550   5.783  0.5427 -0.1841 -0.3226
 1460TIP3    H1 4321   3.787   2.541   5.836  0.9495 -0.8582  0.1837
 1460TIP3    H2 4322   3.834   2.559   5.693 -0.0977 -1.1128 -0.2004
 1461TIP3   OH2 4323   2.218   4.722   5.330  0.1343  0.0006 -1.0110
 1461TIP3    H1 4324   2.262   4.806   5.343  0.4668 -0.2588 -0.4259
 1461TIP3    H2 4325   2.217   4.711   5.235 -1.6671  1.5831 -1.2339
 1462TIP3   OH2 4326   5.095   4.980   6.870  0.1268 -0.6877  0.3485
 1462TIP3    H1 4327   5.051   5.063   6.886 -0.7918 -1.3901  1.6784
 1462TIP3    H2 4328   5.100   4.973   6.775  0.9222  1.2307  0.2108
 1463TIP3   OH2 4329   2.554   1.084   3.466 -0.0030  0.1162  0.1535
 1463TIP3    H1 4330   2.624   1.141   3.437 -0.2510 -0.5030 -1.7941
 1463TIP3    H2 4331   2.499   1.072   3.389  0.8165 -3.8917 -0.0135
 1464TIP3   OH2 4332   6.038   4.185   2.346  0.4786 -0.3432 -0.1833
 1464TIP3    H1 4333   6.129   4.185   2.375  0.3448 -0.4084  0.2373
 1464TIP3    H2 4334   6.021   4.275   2.319  0.5490 -0.2433  0.1081
 1465TIP3   OH2 4335   5.257   2.520   2.455  0.2482  0.1273 -0.2050
 1465TIP3    H1 4336   5.200   2.445   2.440 -1.0642  0.9573  0.4710
 1465TIP3    H2 4337   5.300   2.536   2.371 -1.0118 -0.1174 -0.9072
 1466TIP3   OH2 4338   7.510   4.267   1.852 -0.3162  0.0519 -0.5625
 1466TIP3    H1 4339   7.602   4.252   1.875 -0.5726 -0.1692  0.3856
 1466TIP3    H2 4340   7.484   4.344   1.903 -0.2241  1.1265 -2.0767
 1467TIP3   OH2 4341   0.089   2.673   5.977  0.0359 -0.7252  0.0537
 1467TIP3    H1 4342   0.180   2.675   6.008 -0.1284 -0.4726  0.5323
 1467TIP3    H2 4343   0.075   2.583   5.949  0.0782 -1.0557  1.0645
 1468TIP3   OH2 4344   2.351   2.354   2.511 -0.1612 -0.0329  0.5849
 1468TIP3    H1 4345   2.323   2.292   2.443  0.9963 -0.9868  0.9581
 1468TIP3    H2 4346   2.374   2.434   2.463  0.2357 -0.5552 -0.1012
 1469TIP3   OH2 4347   4.208   0.616   3.542  0.3304 -0.4334 -0.0116
 1469TIP3    H1 4348   4.288   0.656   3.507  0.6097 -2.4954 -1.9294
 1469TIP3    H2 4349   4.138   0.668   3.503  0.7145 -0.0793 -0.2487
 1470TIP3   OH2 4350   3.268   5.784   4.408 -0.0965 -0.0641 -0.6092
 1470TIP3    H1 4351   3.185   5.785   4.454 -0.4944  0.7099 -1.3198
 1470TIP3    H2 4352   3.309   5.868   4.429  0.3824 -0.3216 -0.4854
 1471TIP3   OH2 4353   1.244   3.883   0.371 -0.5139  0.0922 -0.0335
 1471TIP3    H1 4354   1.316   3.927   0.415 -1.7882  1.5554  0.6858
 1471TIP3    H2 4355   1.183   3.860   0.441 -1.6808  0.7371 -0.8026
 1472TIP3   OH2 4356   3.768   6.815   1.433 -0.0432  0.6370  0.6012
 1472TIP3    H1 4357   3.678   6.843   1.415 -0.4811 -0.5965  0.7771
 1472TIP3    H2 4358   3.784   6.841   1.524 -0.8305 -0.5850  1.1180
 1473TIP3   OH2 4359   0.020   0.740   4.251  0.4088 -0.4324  0.3909
 1473TIP3    H1 4360   0.061   0.804   4.193  1.6344  0.5028  2.2017
 1473TIP3    H2 4361   0.081   0.667   4.255  0.1536 -0.6579  0.2188
 1474TIP3   OH2 4362   4.487   2.376   5.321  0.6530 -0.3224 -0.0136
 1474TIP3    H1 4363   4.408   2.322   5.329 -0.4430  1.0313 -1.0527
 1474TIP3    H2 4364   4.455   2.466   5.328  2.1772  0.2481 -0.0733
 1475TIP3   OH2 4365   2.641   3.522   2.403 -0.2709  0.3297  0.3374
 1475TIP3    H1 4366   2.725   3.478   2.387 -0.8366 -0.4830 -0.4836
 1475TIP3    H2 4367   2.642   3.597   2.344  0.0475  0.5489  0.6192
 1476TIP3   OH2 4368   7.634   1.521   2.330 -0.2995 -0.6066 -0.2827
 1476TIP3    H1 4369   7.588   1.517   2.247 -0.2535 -0.6251 -0.3071
 1476TIP3    H2 4370   7.674   1.608   2.331  0.2741 -0.8651 -0.5848
 1477TIP3   OH2 4371   7.341   1.262   6.318 -0.4399  0.0360 -0.7571
 1477TIP3    H1 4372   7.364   1.351   6.345  0.9374 -0.8324  1.1614
 1477TIP3    H2 4373   7.420   1.228   6.278 -0.6029 -0.6934 -0.4732
 1478TIP3   OH2 4374   4.480   1.352   1.745  0.4481 -0.2389 -0.0768
 1478TIP3    H1 4375   4.547   1.388   1.688 -1.0256  1.9959 -0.5303
 1478TIP3    H2 4376   4.398   1.363   1.695 -0.2531 -3.8866 -0.0465
 1479TIP3   OH2 4377   1.853   5.517   5.251 -0.2322  0.2448  0.4097
 1479TIP3    H1 4378   1.938   5.560   5.243 -0.2999  0.5335  1.1214
 1479TIP3    H2 4379   1.795   5.564   5.191 -0.1970  0.8661  0.8607
 1480TIP3   OH2 4380   6.222   3.689   5.072 -0.1424  0.0887  0.9366
 1480TIP3    H1 4381   6.218   3.780   5.100  0.1274  0.8414 -1.3047
 1480TIP3    H2 4382   6.131   3.662   5.063 -0.2333  0.6061  0.2377
 1481TIP3   OH2 4383   0.964   0.495   3.560  0.0246  0.2300  0.2300
 1481TIP3    H1 4384   0.969   0.404   3.532 -0.2490  0.1375  0.4871
 1481TIP3    H2 4385   1.023   0.541   3.500  2.6869 -0.5836  2.0609
 1482TIP3   OH2 4386   0.704   1.864   6.770 -1.0773 -0.1756  0.1778
 1482TIP3    H1 4387   0.706   1.948   6.725 -0.9365 -0.7171 -0.8515
 1482TIP3    H2 4388   0.704   1.887   6.863  0.2624  0.9498 -0.0597
 1483TIP3   OH2 4389   4.803   4.108   0.678  0.0745 -0.1060 -0.2416
 1483TIP3    H1 4390   4.885   4.062   0.697 -0.2253 -0.2909  0.6292
 1483TIP3    H2 4391   4.828   4.199   0.666  0.2726  0.0473  1.1733
 1484TIP3   OH2 4392   4.514   0.431   3.561  0.4269  0.3263  0.0111
 1484TIP3    H1 4393   4.564   0.512   3.572  1.8580 -0.5747  0.3816
 1484TIP3    H2 4394   4.502   0.423   3.466  0.4947  0.8336 -0.0447
 1485TIP3   OH2 4395   2.839   0.557   1.872 -0.1220 -0.0021 -0.1529
 1485TIP3    H1 4396   2.796   0.511   1.801 -0.5914 -2.7916  1.7807
 1485TIP3    H2 4397   2.779   0.549   1.946  0.4670  2.5353  0.7014
 1486TIP3   OH2 4398   2.808   2.383   5.658 -0.1423  0.5970  0.5745
 1486TIP3    H1 4399   2.718   2.352   5.672 -0.4559  1.8102  1.4959
 1486TIP3    H2 4400   2.852   2.311   5.615 -1.3008 -0.4118  1.0149
 1487TIP3   OH2 4401   2.903   2.591   0.563  0.6069  0.1168 -0.8984
 1487TIP3    H1 4402   2.876   2.557   0.648 -0.8610  1.3333 -0.8333
 1487TIP3    H2 4403   2.851   2.671   0.551  0.7443 -0.0461 -2.9512
 1488TIP3   OH2 4404   6.220   7.273   2.663 -0.4963  0.1326  0.1007
 1488TIP3    H1 4405   6.125   7.283   2.661 -0.6051  0.5884  3.0342
 1488TIP3    H2 4406   6.235   7.181   2.641 -1.5889  0.1340 -0.6914
 1489TIP3   OH2 4407   1.632   5.773   3.142 -0.1782 -0.3948 -0.6312
 1489TIP3    H1 4408   1.724   5.795   3.155 -0.6851  0.8496  1.1838
 1489TIP3    H2 4409   1.613   5.708   3.210 -0.8709  0.0477 -0.3977
 1490TIP3   OH2 4410   7.641   2.964   6.511 -0.0281  1.0353 -0.4449
 1490TIP3    H1 4411   7.564   3.010   6.475 -0.3810 -1.4484 -3.2739
 1490TIP3    H2 4412   7.714   2.994   6.457  0.8017  2.2402  1.2546
 1491TIP3   OH2 4413   0.518   1.354   4.695  0.3963 -0.3720  0.0488
 1491TIP3    H1 4414   0.427   1.376   4.675 -0.2929 -2.2916  0.8700
 1491TIP3    H2 4415   0.564   1.438   4.692 -1.8570  1.0772  2.0879
 1492TIP3   OH2 4416   4.501   5.155   2.953 -0.1749  0.2229 -0.5755
 1492TIP3    H1 4417   4.493   5.249   2.933 -0.1279  0.4551  0.4369
 1492TIP3    H2 4418   4.448   5.143   3.032 -1.1964 -0.8648 -1.3846
 1493TIP3   OH2 4419   1.314   7.358   1.515  0.1698  0.5467  0.3567
 1493TIP3    H1 4420   1.311   7.341   1.609 -1.3371 -2.9360 -0.1954
 1493TIP3    H2 4421   1.252   7.430   1.502  0.5573  1.2291  2.0141
 1494TIP3   OH2 4422   7.500   6.468   5.175  0.2009  0.2295  0.2080
 1494TIP3    H1 4423   7.582   6.463   5.224  0.0030 -0.5179  0.4729
 1494TIP3    H2 4424   7.488   6.562   5.157  1.8467  0.2288 -1.0783
 1495TIP3   OH2 4425   4.399   2.413   1.403 -0.6634 -0.1871 -0.0135
 1495TIP3    H1 4426   4.369   2.433   1.314 -0.4932 -0.3787 -0.1140
 1495TIP3    H2 4427   4.337   2.460   1.460  0.4504  1.6440 -0.2505
 1496TIP3   OH2 4428   2.951   1.623   5.397  0.5388  0.1166 -0.6947
 1496TIP3    H1 4429   2.921   1.593   5.311  1.3115 -0.2401 -0.8558
 1496TIP3    H2 4430   3.010   1.553   5.427  0.5659  0.4128 -0.0402
 1497TIP3   OH2 4431   4.628   4.807   0.727  0.4136 -0.1496  0.1699
 1497TIP3    H1 4432   4.626   4.724   0.679  0.4961 -0.8619  1.3771
 1497TIP3    H2 4433   4.662   4.784   0.813  0.5713  1.1704  0.4735
 1498TIP3   OH2 4434   6.274   5.740   1.878  0.1449 -0.0831 -0.0250
 1498TIP3    H1 4435   6.209   5.695   1.933  0.2488  0.5826  0.6660
 1498TIP3    H2 4436   6.227   5.815   1.842  0.3614  0.0625 -0.0060
 1499TIP3   OH2 4437   7.162   4.989   1.417  0.4966 -0.1480  0.3299
 1499TIP3    H1 4438   7.119   4.935   1.352 -0.1036 -1.1370  1.4957
 1499TIP3    H2 4439   7.239   4.938   1.445  0.4389  0.0026  0.7808
 1500TIP3   OH2 4440   4.592   7.100   3.103 -0.2468 -0.2756  0.1867
 1500TIP3    H1 4441   4.504   7.079   3.132  0.0184 -1.6046  0.1051
 1500TIP3    H2 4442   4.646   7.094   3.182 -0.0773 -0.4173  0.0622
 1501TIP3   OH2 4443   2.716   1.808   6.118 -0.1470 -0.0592 -0.2526
 1501TIP3    H1 4444   2.698   1.778   6.029 -1.0597  0.1971 -0.1688
 1501TIP3    H2 4445   2.705   1.903   6.114 -0.4768 -0.0742  0.1944
 1502TIP3   OH2 4446   3.460   3.754   3.710 -0.3157 -0.2081 -0.3437
 1502TIP3    H1 4447   3.477   3.780   3.800 -1.3207  1.2011 -0.5341
 1502TIP3    H2 4448   3.380   3.801   3.686  0.0069 -0.4545 -2.0149
 1503TIP3   OH2 4449   6.049   2.816   6.649 -0.4290  0.4418  0.3499
 1503TIP3    H1 4450   6.116   2.750   6.632 -0.6345  0.4123 -0.3638
 1503TIP3    H2 4451   5.980   2.797   6.585 -1.0052  0.6283  0.9109
 1504TIP3   OH2 4452   0.438   2.399   1.280 -0.4388 -0.5567 -0.3921
 1504TIP3    H1 4453   0.433   2.319   1.333  0.1054 -1.2790 -1.3865
 1504TIP3    H2 4454   0.531   2.409   1.261 -0.4789  0.4307 -0.1270
 1505TIP3   OH2 4455   7.435   3.041   2.671 -0.1602  0.3293 -0.0614
 1505TIP3    H1 4456   7.509   3.094   2.643  1.0558 -0.0432  2.2090
 1505TIP3    H2 4457   7.474   2.960   2.705 -1.7352 -0.6545 -0.4687
 1506TIP3   OH2 4458   0.885   1.349   1.750  0.4173 -0.3146 -0.7659
 1506TIP3    H1 4459   0.855   1.423   1.804 -1.3889 -1.4399 -0.1240
 1506TIP3    H2 4460   0.907   1.388   1.666  2.8699  1.4444  0.5707
 1507TIP3   OH2 4461   2.882   4.926   3.937  0.6126  0.0673 -0.0157
 1507TIP3    H1 4462   2.964   4.975   3.929  0.1935  0.6250 -0.9632
 1507TIP3    H2 4463   2.826   4.980   3.992  0.7928 -0.2161  0.4569
 1508TIP3   OH2 4464   1.271   1.247   6.319 -0.1698 -0.1030  0.4722
 1508TIP3    H1 4465   1.353   1.267   6.274 -1.1781 -0.7734 -1.8496
 1508TIP3    H2 4466   1.213   1.215   6.249 -3.1758  2.4968  1.5522
 1509TIP3   OH2 4467   1.040   2.847   2.086 -0.0030 -0.6068 -0.1383
 1509TIP3    H1 4468   0.980   2.892   2.027 -0.7731 -0.2111  0.9048
 1509TIP3    H2 4469   1.038   2.756   2.057  0.0659 -0.3295 -1.0531
 1510TIP3   OH2 4470   1.521   1.206   5.321  0.4026  0.4255 -0.5446
 1510TIP3    H1 4471   1.468   1.225   5.399  1.0202 -2.5839  0.7463
 1510TIP3    H2 4472   1.469   1.238   5.248 -2.0545 -0.1283  0.8558
 1511TIP3   OH2 4473   4.592   7.472   0.430 -0.6328 -0.4298 -0.3138
 1511TIP3    H1 4474   4.617   7.565   0.436  1.7133 -0.9457 -1.0758
 1511TIP3    H2 4475   4.498   7.474   0.414 -0.4044  1.9037 -1.9188
 1512TIP3   OH2 4476   6.854   3.423   1.422 -0.1276 -0.0034  0.6222
 1512TIP3    H1 4477   6.855   3.454   1.513 -1.2700  1.2725  0.2326
 1512TIP3    H2 4478   6.766   3.388   1.410  0.3007 -0.9861  0.2440
 1513TIP3   OH2 4479   8.266   7.805   1.472 -0.2167  0.9075 -0.1895
 1513TIP3    H1 4480   8.294   7.771   1.388  2.3361  1.6907  0.2538
 1513TIP3    H2 4481   8.209   7.880   1.450  1.7291  2.1373 -1.3053
 1514TIP3   OH2 4482   5.801   3.651   0.707  0.1332 -0.4109  0.5165
 1514TIP3    H1 4483   5.798   3.565   0.749  0.9336 -1.6649 -1.8296
 1514TIP3    H2 4484   5.892   3.660   0.679 -0.2740  0.5266 -0.5773
 1515TIP3   OH2 4485   1.752   7.592   3.132 -0.0339  0.6569  0.0476
 1515TIP3    H1 4486   1.766   7.649   3.056  3.8899  1.9237  1.4674
 1515TIP3    H2 4487   1.835   7.545   3.143 -1.6272 -2.0597  1.6238
 1516TIP3   OH2 4488   0.421   1.665   1.912  0.1125  0.4000  0.0206
 1516TIP3    H1 4489   0.332   1.688   1.887 -1.1762 -1.1372  2.7546
 1516TIP3    H2 4490   0.439   1.583   1.865  0.1683  0.7929 -0.6525
 1517TIP3   OH2 4491   4.287   2.398   0.790 -0.6742 -0.5069 -0.3183
 1517TIP3    H1 4492   4.261   2.490   0.802 -2.8266 -0.6992 -2.6880
 1517TIP3    H2 4493   4.302   2.390   0.695 -1.9061 -2.9160 -0.3798
 1518TIP3   OH2 4494   5.813   5.310   2.290 -0.2394  0.2924  0.1017
 1518TIP3    H1 4495   5.833   5.291   2.382  0.4564  2.1569  0.3818
 1518TIP3    H2 4496   5.735   5.365   2.293 -0.7241 -0.3498 -0.4960
 1519TIP3   OH2 4497   3.842   1.901   5.876 -0.2016 -0.2362  0.1756
 1519TIP3    H1 4498   3.806   1.819   5.910 -1.7404 -0.0696 -0.9194
 1519TIP3    H2 4499   3.859   1.883   5.784  2.1002 -0.1141  0.5066
 1520TIP3   OH2 4500   4.778   3.834   1.949 -0.2308  0.3039 -0.5343
 1520TIP3    H1 4501   4.705   3.865   1.895 -1.2153 -0.6479  0.2111
 1520TIP3    H2 4502   4.741   3.828   2.037  0.0168 -2.4941 -0.5458
 1521TIP3   OH2 4503   6.726   3.049   1.434  0.1575  0.6263 -0.5435
 1521TIP3    H1 4504   6.697   3.088   1.516  0.2972  0.9006 -0.6267
 1521TIP3    H2 4505   6.668   2.974   1.422  1.2796 -0.5111  0.7301
 1522TIP3   OH2 4506   3.433   4.342   6.778 -0.6313 -0.1543  0.0613
 1522TIP3    H1 4507   3.352   4.375   6.739 -1.7814  1.0837  3.1653
 1522TIP3    H2 4508   3.501   4.401   6.747 -1.2278 -0.0852 -1.1463
 1523TIP3   OH2 4509   2.391   2.572   2.341  0.3369 -0.4711 -0.2795
 1523TIP3    H1 4510   2.449   2.571   2.265 -0.8558 -0.5690 -1.2220
 1523TIP3    H2 4511   2.311   2.614   2.310 -1.0340 -2.5038  0.2580
 1524TIP3   OH2 4512   7.924   7.661   1.231  0.3255  0.1817  0.2125
 1524TIP3    H1 4513   7.868   7.637   1.305  0.6850  0.0834  0.4584
 1524TIP3    H2 4514   7.976   7.583   1.215  0.1453  0.1534 -0.2446
 1525TIP3   OH2 4515   5.382   5.649   2.944 -0.0497 -0.0689 -0.1806
 1525TIP3    H1 4516   5.333   5.569   2.927 -0.1155  0.3150 -2.0250
 1525TIP3    H2 4517   5.319   5.709   2.983  0.3617 -1.3511  2.6301
 1526TIP3   OH2 4518   0.690   6.654   0.152 -0.0229 -0.0678 -0.1502
 1526TIP3    H1 4519   0.766   6.672   0.096  0.5474  0.9458  0.8962
 1526TIP3    H2 4520   0.615   6.657   0.092  0.5653  0.9378 -0.8852
 1527TIP3   OH2 4521   0.931   7.794   2.676  0.0086  0.3563  0.1498
 1527TIP3    H1 4522   0.987   7.812   2.601 -2.3957  2.4043 -1.3343
 1527TIP3    H2 4523   0.976   7.835   2.750  1.3753  0.1979 -0.5648
 1528TIP3   OH2 4524   0.306   6.611   5.714 -0.1463 -0.0137  0.7902
 1528TIP3    H1 4525   0.274   6.540   5.658 -3.7910  1.2998  0.9660
 1528TIP3    H2 4526   0.306   6.574   5.802 -2.5302  0.2485  0.9541
 1529TIP3   OH2 4527   2.531   1.494   2.616 -0.0075 -0.5937 -0.1899
 1529TIP3    H1 4528   2.439   1.508   2.639  0.1980  0.7022 -0.0589
 1529TIP3    H2 4529   2.529   1.459   2.527 -0.6362 -0.7502 -0.1166
 1530TIP3   OH2 4530   6.797   3.113   2.362  0.3301 -0.4654  0.1173
 1530TIP3    H1 4531   6.789   3.202   2.329 -0.2690 -0.9444 -1.0773
 1530TIP3    H2 4532   6.765   3.118   2.452 -0.6439  0.3312 -0.2586
 1531TIP3   OH2 4533   1.109   3.535   3.351 -0.4446 -0.0498 -0.6311
 1531TIP3    H1 4534   1.081   3.466   3.291 -0.5591 -0.2615 -0.3364
 1531TIP3    H2 4535   1.140   3.488   3.428  0.4260  0.1943 -0.8269
 1532TIP3   OH2 4536   3.590   2.017   2.259  0.1326 -0.0959  0.0374
 1532TIP3    H1 4537   3.656   2.083   2.243 -1.2163  1.9314  2.1597
 1532TIP3    H2 4538   3.513   2.048   2.212  0.0054 -1.1932 -0.5089
 1533TIP3   OH2 4539   6.766   4.995   4.426 -0.4130 -0.2890 -0.2929
 1533TIP3    H1 4540   6.841   5.051   4.444 -1.4114  0.7935  0.7199
 1533TIP3    H2 4541   6.773   4.923   4.488 -1.4458  1.0758  1.4904
 1534TIP3   OH2 4542   7.534   6.781   3.630  0.4408  0.0175  0.0332
 1534TIP3    H1 4543   7.449   6.751   3.597  1.1168  0.2347 -2.0426
 1534TIP3    H2 4544   7.527   6.876   3.631  1.2144  0.1493 -1.9508
 1535TIP3   OH2 4545   7.069   1.089   2.183  0.1177 -0.0714  0.0515
 1535TIP3    H1 4546   7.054   1.070   2.275  0.1301  0.0670  0.0827
 1535TIP3    H2 4547   6.982   1.089   2.143  0.1017 -0.0041  0.0877
 1536TIP3   OH2 4548   6.137   6.778   2.411 -0.1414  0.3405 -0.1451
 1536TIP3    H1 4549   6.216   6.725   2.399  0.0750  0.8861 -1.3046
 1536TIP3    H2 4550   6.072   6.717   2.446  0.6692 -0.2167  0.4187
 1537TIP3   OH2 4551   5.109   1.363   2.762 -0.5975 -0.7745  0.4178
 1537TIP3    H1 4552   5.167   1.428   2.802  0.8029 -2.4275  1.2018
 1537TIP3    H2 4553   5.047   1.341   2.832  0.9614 -2.6087  1.3128
 1538TIP3   OH2 4554   6.078   5.233   0.611  0.7848  0.4515  0.3554
 1538TIP3    H1 4555   6.050   5.158   0.558 -1.0210 -0.5424  2.5382
 1538TIP3    H2 4556   6.168   5.213   0.636  0.6065 -0.5877  0.2080
 1539TIP3   OH2 4557   7.019   7.552   2.546  0.0451 -0.5941  0.2674
 1539TIP3    H1 4558   7.005   7.582   2.456  0.0202 -1.9677 -0.2024
 1539TIP3    H2 4559   7.089   7.608   2.579 -0.4202  0.3929 -0.3582
 1540TIP3   OH2 4560   7.145   7.162   0.625  0.3964 -0.3129  0.0220
 1540TIP3    H1 4561   7.211   7.231   0.631  0.0728 -0.0006  0.0362
 1540TIP3    H2 4562   7.116   7.150   0.716 -0.3895  0.3702 -0.1182
 1541TIP3   OH2 4563   2.355   1.963   1.541 -0.0802  0.1893  0.2842
 1541TIP3    H1 4564   2.436   2.014   1.533 -0.1134  0.8686  3.1914
 1541TIP3    H2 4565   2.383   1.873   1.525  0.8341  0.6028 -0.6195
 1542TIP3   OH2 4566   2.327   3.296   3.051  0.0485 -0.7164 -0.0131
 1542TIP3    H1 4567   2.356   3.286   2.960  0.5266  0.5031 -0.0214
 1542TIP3    H2 4568   2.341   3.210   3.091 -0.7438 -1.4414 -1.2461
 1543TIP3   OH2 4569   8.316   0.954   6.571  0.0816 -0.1126 -0.1511
 1543TIP3    H1 4570   8.399   0.991   6.543 -0.4774  1.0580 -0.3347
 1543TIP3    H2 4571   8.335   0.863   6.591  1.4043  0.1458 -0.1761
 1544TIP3   OH2 4572   7.795   5.657   6.337  0.0577  0.5398  0.0245
 1544TIP3    H1 4573   7.737   5.714   6.287 -1.6145 -0.8795  0.2713
 1544TIP3    H2 4574   7.762   5.568   6.322  0.8429 -0.1279  1.9049
 1545TIP3   OH2 4575   7.339   1.878   0.947 -0.3810  0.7167 -0.2014
 1545TIP3    H1 4576   7.280   1.858   0.874  0.2528  0.9679 -0.7907
 1545TIP3    H2 4577   7.415   1.820   0.933 -0.3506  0.6035  0.3869
 1546TIP3   OH2 4578   7.642   0.189   0.950 -0.0105  0.5703  0.0254
 1546TIP3    H1 4579   7.651   0.210   0.857  0.4150 -0.9734 -0.3140
 1546TIP3    H2 4580   7.727   0.153   0.974 -0.6931 -0.7330  0.5392
 1547TIP3   OH2 4581   7.647   3.020   1.305 -0.4021  0.3166  0.6741
 1547TIP3    H1 4582   7.733   3.027   1.263 -0.3140 -0.1598  0.7605
 1547TIP3    H2 4583   7.662   2.960   1.378 -1.1697 -1.2233 -0.3593
 1548TIP3   OH2 4584   5.459   0.764   6.715  0.5087 -0.0977 -0.2869
 1548TIP3    H1 4585   5.492   0.827   6.778 -1.0317  1.8531 -1.3225
 1548TIP3    H2 4586   5.503   0.787   6.632 -0.8669  0.3445 -0.9146
 1549TIP3   OH2 4587   5.012   7.858   0.806 -0.3086  0.8007 -0.4271
 1549TIP3    H1 4588   4.933   7.844   0.859 -0.7681  0.1456 -1.2544
 1549TIP3    H2 4589   5.074   7.792   0.837 -0.4564  0.6381 -0.4743
 1550TIP3   OH2 4590   5.255   6.011   1.093 -0.3399  0.1031 -0.1494
 1550TIP3    H1 4591   5.328   5.972   1.140  1.3403  2.6508 -0.4210
 1550TIP3    H2 4592   5.216   6.071   1.157 -1.9867 -0.9146 -0.1480
 1551TIP3   OH2 4593   2.695   6.186   4.378 -0.2620 -0.1897 -0.5291
 1551TIP3    H1 4594   2.681   6.251   4.448  0.2866  1.1057 -1.5811
 1551TIP3    H2 4595   2.770   6.219   4.329  1.4235 -2.7470  0.1299
 1552TIP3   OH2 4596   8.242   3.477   1.634  0.1450  0.2572  0.4947
 1552TIP3    H1 4597   8.311   3.528   1.676 -0.0359  1.0755 -0.1517
 1552TIP3    H2 4598   8.237   3.513   1.545 -0.8488 -0.0430  0.4169
 1553TIP3   OH2 4599   1.518   7.401   4.042 -0.7703 -0.2690 -0.0602
 1553TIP3    H1 4600   1.475   7.443   4.116 -2.9265  1.3239 -2.0682
 1553TIP3    H2 4601   1.492   7.309   4.048 -0.3801 -0.3067  1.4556
 1554TIP3   OH2 4602   6.273   3.032   5.198 -0.1821 -0.4327  0.0859
 1554TIP3    H1 4603   6.341   3.071   5.253 -0.0843  0.5277 -0.6885
 1554TIP3    H2 4604   6.308   3.038   5.109 -2.5708  3.3148 -0.8701
 1555TIP3   OH2 4605   7.185   2.086   6.006  0.2646  0.1544 -0.5680
 1555TIP3    H1 4606   7.275   2.093   6.038  0.1184 -1.3947  0.3171
 1555TIP3    H2 4607   7.133   2.072   6.085 -0.6682  0.3601 -1.1318
 1556TIP3   OH2 4608   2.533   7.364   2.090  0.2805  0.0961  0.0008
 1556TIP3    H1 4609   2.480   7.284   2.087  0.5758 -0.0761 -2.9095
 1556TIP3    H2 4610   2.593   7.356   2.016  1.7584  2.0862  0.8951
 1557TIP3   OH2 4611   5.987   7.037   5.857 -0.0409 -0.9178  0.3155
 1557TIP3    H1 4612   6.079   7.061   5.843 -0.1006 -0.1124  1.1616
 1557TIP3    H2 4613   5.963   7.084   5.937 -1.9679  1.0219 -1.2783
 1558TIP3   OH2 4614   4.692   4.545   2.215 -0.0228  0.4436 -0.1195
 1558TIP3    H1 4615   4.673   4.619   2.158  0.3361  0.6981  0.0848
 1558TIP3    H2 4616   4.631   4.553   2.287 -0.0208  0.5084 -0.1252
 1559TIP3   OH2 4617   1.844   7.538   0.804 -0.4758  0.5025  0.0376
 1559TIP3    H1 4618   1.788   7.590   0.862  0.4195  1.8366 -0.2421
 1559TIP3    H2 4619   1.920   7.517   0.858  0.0996  1.2618 -0.4608
 1560TIP3   OH2 4620   3.785   4.145   0.014  0.0726 -0.0401 -0.3279
 1560TIP3    H1 4621   3.815   4.116  -0.072 -0.2639 -1.4531  0.0190
 1560TIP3    H2 4622   3.865   4.173   0.059  0.4293 -0.5829 -0.6132
 1561TIP3   OH2 4623   0.856   7.809   0.422  0.4126 -0.3428 -0.3739
 1561TIP3    H1 4624   0.766   7.795   0.450  0.8281 -2.9656 -0.1418
 1561TIP3    H2 4625   0.858   7.784   0.330  0.5818  1.3825 -0.8788
 1562TIP3   OH2 4626   7.642   0.231   4.468 -0.2405  0.6386 -0.3802
 1562TIP3    H1 4627   7.563   0.283   4.449  0.2009  1.3401 -0.3403
 1562TIP3    H2 4628   7.645   0.167   4.397 -0.9101  0.5280 -0.3195
 1563TIP3   OH2 4629   1.458   6.052   5.268 -0.0367  0.4035 -0.1822
 1563TIP3    H1 4630   1.524   6.066   5.201 -1.6369 -2.4662 -2.6306
 1563TIP3    H2 4631   1.464   5.959   5.289 -1.4814  0.6472  1.5814
 1564TIP3   OH2 4632   1.405   2.463   5.215  0.2621  0.4987 -0.2867
 1564TIP3    H1 4633   1.340   2.451   5.285 -1.1004  1.1599 -1.3862
 1564TIP3    H2 4634   1.426   2.556   5.217  3.5188 -0.1357  1.9769
 1565TIP3   OH2 4635   4.760   2.957   6.040 -0.3325  0.6149  0.2792
 1565TIP3    H1 4636   4.712   2.984   5.962 -0.4862 -2.0559 -0.6577
 1565TIP3    H2 4637   4.709   2.993   6.113 -3.4216 -1.3706 -0.6898
 1566TIP3   OH2 4638   0.497   3.787   3.701  0.0613 -0.1428 -0.0221
 1566TIP3    H1 4639   0.584   3.819   3.675 -1.2483  3.0110 -1.0040
 1566TIP3    H2 4640   0.508   3.692   3.710  2.6093 -0.5600 -4.5029
 1567TIP3   OH2 4641   6.206   6.477   2.911 -0.3692  0.1023 -0.4795
 1567TIP3    H1 4642   6.184   6.422   2.986 -0.2894  1.4258  0.5645
 1567TIP3    H2 4643   6.261   6.422   2.856  0.6723 -0.4987  1.0900
 1568TIP3   OH2 4644   1.743   0.766   5.994  0.0911  0.1796 -0.1321
 1568TIP3    H1 4645   1.784   0.772   6.080 -0.7673 -1.1883  0.4000
 1568TIP3    H2 4646   1.798   0.705   5.945  0.7469  1.1815 -0.6824
 1569TIP3   OH2 4647   8.264   1.979   2.373  0.1609 -0.9998  0.1722
 1569TIP3    H1 4648   8.180   2.002   2.332  1.2115  2.2435 -0.4896
 1569TIP3    H2 4649   8.244   1.972   2.466 -0.3810  4.0162  0.7143
 1570TIP3   OH2 4650   7.598   4.456   3.837  0.4196  1.0827  0.5071
 1570TIP3    H1 4651   7.689   4.442   3.811  1.2240  0.5356  3.2906
 1570TIP3    H2 4652   7.565   4.370   3.861 -0.8759  1.2795 -0.4149
 1571TIP3   OH2 4653   3.955   0.876   5.186 -0.1422 -0.1258  0.0549
 1571TIP3    H1 4654   3.871   0.855   5.227  0.1094  0.4948  0.9245
 1571TIP3    H2 4655   4.020   0.832   5.240  0.0698 -1.0975 -0.9648
 1572TIP3   OH2 4656   4.753   2.896   1.349 -0.3042 -0.0238  0.6683
 1572TIP3    H1 4657   4.742   2.988   1.322  1.1539  0.1507  0.6211
 1572TIP3    H2 4658   4.709   2.846   1.280  0.4501  0.5746 -0.2817
 1573TIP3   OH2 4659   5.219   4.221   2.402  0.1709 -0.4317  0.1375
 1573TIP3    H1 4660   5.218   4.142   2.457  1.4542 -1.0911 -0.7329
 1573TIP3    H2 4661   5.261   4.192   2.320 -0.3898  0.8782 -0.6397
 1574TIP3   OH2 4662   1.941   0.336   2.753  0.3407 -0.7530  0.3818
 1574TIP3    H1 4663   1.920   0.406   2.815 -0.7209  1.6796 -2.4658
 1574TIP3    H2 4664   1.874   0.269   2.769 -1.5356  0.9891  0.2227
 1575TIP3   OH2 4665   6.262   5.234   3.497 -0.0853 -0.0939 -0.4602
 1575TIP3    H1 4666   6.181   5.241   3.446  0.1843 -1.2789 -1.0880
 1575TIP3    H2 4667   6.332   5.249   3.433  0.2086  0.3007 -0.0487
 1576TIP3   OH2 4668   6.975   3.477   1.846  0.0859  0.0011  0.2757
 1576TIP3    H1 4669   6.953   3.566   1.819 -1.2968 -0.4569 -0.1727
 1576TIP3    H2 4670   7.062   3.485   1.886  1.0197  1.1535 -1.8189
 1577TIP3   OH2 4671   4.580   2.610   3.389 -0.1184 -0.1391 -0.1456
 1577TIP3    H1 4672   4.513   2.610   3.321  1.1092 -2.0225 -1.4583
 1577TIP3    H2 4673   4.613   2.700   3.390 -1.1866  0.2797 -0.9865
 1578TIP3   OH2 4674   7.106   4.763   5.725  0.1018  0.3321 -0.1220
 1578TIP3    H1 4675   7.096   4.722   5.810 -1.0750  0.8635  0.0079
 1578TIP3    H2 4676   7.044   4.716   5.668  1.7390 -0.8503 -1.0199
 1579TIP3   OH2 4677   5.166   6.607   6.015 -0.3447  0.5830  0.4106
 1579TIP3    H1 4678   5.109   6.617   6.091  0.6657  2.7474  0.9485
 1579TIP3    H2 4679   5.242   6.559   6.048 -1.2184 -1.1916 -0.0161
 1580TIP3   OH2 4680   7.099   2.043   2.220 -0.3804 -0.9492  0.3023
 1580TIP3    H1 4681   7.038   2.079   2.157 -1.4828  2.0365  2.8209
 1580TIP3    H2 4682   7.137   2.119   2.264  1.0872 -2.7946  2.5235
 1581TIP3   OH2 4683   3.182   5.203   2.821  0.0260  0.4322 -0.2175
 1581TIP3    H1 4684   3.181   5.119   2.775  0.0997  0.1122  0.3579
 1581TIP3    H2 4685   3.239   5.189   2.896 -2.8643 -0.2133  2.0791
 1582TIP3   OH2 4686   6.503   6.699   4.739 -0.2636 -0.0066  0.1416
 1582TIP3    H1 4687   6.493   6.785   4.699  0.8332 -0.0294 -0.1970
 1582TIP3    H2 4688   6.490   6.638   4.666 -2.0119 -0.1958  0.5527
 1583TIP3   OH2 4689   4.485   4.496   5.047 -0.0556  0.2999  0.2594
 1583TIP3    H1 4690   4.482   4.508   5.142  0.4412  0.4873  0.2528
 1583TIP3    H2 4691   4.419   4.428   5.030  0.5047 -0.4130  0.8455
 1584TIP3   OH2 4692   5.908   7.763   0.656 -0.3168  0.4285  0.1430
 1584TIP3    H1 4693   5.907   7.786   0.563  0.4170  0.5109  0.1476
 1584TIP3    H2 4694   5.878   7.672   0.659 -0.5904  0.5101 -0.1479
 1585TIP3   OH2 4695   2.284   0.592   6.770  0.2242  0.6379 -0.8924
 1585TIP3    H1 4696   2.347   0.620   6.837  0.8048  0.4530 -1.3494
 1585TIP3    H2 4697   2.199   0.621   6.804  0.1041 -1.8981  1.3038
 1586TIP3   OH2 4698   7.313   3.081   4.432 -0.0123 -0.3652  0.9574
 1586TIP3    H1 4699   7.253   3.126   4.372  1.5027 -2.3601 -2.3504
 1586TIP3    H2 4700   7.399   3.117   4.411  0.7212 -2.0151  1.0216
 1587TIP3   OH2 4701   8.292   3.893   3.365 -0.3901  0.3542 -0.2061
 1587TIP3    H1 4702   8.284   3.828   3.296 -0.8710  1.4549 -1.2305
 1587TIP3    H2 4703   8.309   3.975   3.318 -1.4929  1.2663  0.9245
 1588TIP3   OH2 4704   4.083   3.638   3.892 -0.4869  0.4118 -0.0686
 1588TIP3    H1 4705   4.088   3.732   3.911  1.0365  0.3763 -0.1913
 1588TIP3    H2 4706   4.174   3.609   3.889 -0.9409 -1.1441  0.2712
 1589TIP3   OH2 4707   7.184   7.063   0.159 -0.7836 -0.1061  0.5321
 1589TIP3    H1 4708   7.224   6.989   0.114 -1.6888 -0.8952  0.9927
 1589TIP3    H2 4709   7.240   7.078   0.236 -0.6960 -0.4237  0.5302
 1590TIP3   OH2 4710   2.192   6.371   2.880 -0.5525  0.7114  0.4072
 1590TIP3    H1 4711   2.256   6.439   2.863  2.1935 -1.7137  0.2078
 1590TIP3    H2 4712   2.130   6.378   2.807 -1.5950  4.1300  1.4366
 1591TIP3   OH2 4713   2.215   6.738   3.411  0.3086 -0.3209  0.2974
 1591TIP3    H1 4714   2.193   6.797   3.339 -0.0333 -1.1602 -0.3004
 1591TIP3    H2 4715   2.296   6.695   3.383 -0.2762 -1.2745  0.0093
 1592TIP3   OH2 4716   2.320   3.240   5.562  0.1371  0.2680  0.0083
 1592TIP3    H1 4717   2.399   3.186   5.564 -0.2017 -0.2160  1.3924
 1592TIP3    H2 4718   2.247   3.177   5.564 -0.2644  0.7452  0.9250
 1593TIP3   OH2 4719   4.645   1.690   0.846 -0.5458  0.0269  0.1235
 1593TIP3    H1 4720   4.606   1.737   0.920  0.9148  2.6724 -0.6576
 1593TIP3    H2 4721   4.592   1.716   0.771  0.8152  1.2358 -0.4616
 1594TIP3   OH2 4722   3.923   0.862   1.359  0.0496  0.0301 -0.2225
 1594TIP3    H1 4723   4.012   0.876   1.392  0.1046 -0.3936 -0.1914
 1594TIP3    H2 4724   3.881   0.808   1.426 -0.1812  0.0876 -0.3205
 1595TIP3   OH2 4725   5.395   0.058   5.723 -1.0342  0.0364 -0.2091
 1595TIP3    H1 4726   5.436  -0.024   5.749 -1.5411 -0.1264  0.0915
 1595TIP3    H2 4727   5.325   0.072   5.787 -0.3265  1.2136  0.3583
 1596TIP3   OH2 4728   1.485   5.429   3.176  0.1701  0.4524  0.5908
 1596TIP3    H1 4729   1.478   5.458   3.085  2.0479 -1.1608 -0.1335
 1596TIP3    H2 4730   1.410   5.371   3.189 -0.0949  0.6713  0.0912
 1597TIP3   OH2 4731   4.731   6.878   3.017  0.2670  0.4419 -0.0416
 1597TIP3    H1 4732   4.731   6.850   3.109  1.1637  1.3325  0.2528
 1597TIP3    H2 4733   4.666   6.947   3.012 -0.3986 -0.1924 -0.2809
 1598TIP3   OH2 4734   3.200   4.660   4.533 -0.7717  0.2174  0.1957
 1598TIP3    H1 4735   3.171   4.703   4.452  1.0399  0.5415 -0.3247
 1598TIP3    H2 4736   3.268   4.718   4.568 -0.0499 -0.9744  0.8243
 1599TIP3   OH2 4737   5.017   5.269   0.506 -0.0328  0.5068 -0.7334
 1599TIP3    H1 4738   5.038   5.338   0.444 -1.7885  1.2169 -0.5972
 1599TIP3    H2 4739   4.990   5.316   0.585  0.1058 -0.3578 -0.1656
 1600TIP3   OH2 4740   7.130   7.052   3.033  0.0087 -0.1404 -0.0200
 1600TIP3    H1 4741   7.215   7.025   3.065 -0.9266 -1.8260  1.1955
 1600TIP3    H2 4742   7.138   7.048   2.937  1.2583 -0.3291  0.0757
 1601TIP3   OH2 4743   0.677   2.120   1.853  0.5684  0.6592 -0.2657
 1601TIP3    H1 4744   0.718   2.101   1.937  2.3795  1.1383 -0.9980
 1601TIP3    H2 4745   0.611   2.051   1.842 -0.9557  1.5742  2.3039
 1602TIP3   OH2 4746   4.933   3.999   1.659  0.3700  0.0263  0.3420
 1602TIP3    H1 4747   4.964   3.916   1.696 -1.5228 -2.3530 -2.8805
 1602TIP3    H2 4748   4.997   4.020   1.591 -0.4573 -0.1354 -0.4930
 1603TIP3   OH2 4749   6.165   7.678   0.070 -0.0359  0.3101 -0.5638
 1603TIP3    H1 4750   6.131   7.591   0.052  1.3935 -0.3114 -0.3974
 1603TIP3    H2 4751   6.222   7.698  -0.004 -0.0147  0.9172 -0.3901
 1604TIP3   OH2 4752   3.264   7.548   0.125 -0.2923 -0.0001  0.1599
 1604TIP3    H1 4753   3.257   7.557   0.030 -1.3103  0.1756  0.2437
 1604TIP3    H2 4754   3.301   7.461   0.139 -1.6081 -0.6629 -0.3630
 1605TIP3   OH2 4755   3.136   5.775   0.852  0.7389 -0.0497  0.2913
 1605TIP3    H1 4756   3.148   5.739   0.763 -0.7657  1.5688 -0.6179
 1605TIP3    H2 4757   3.088   5.707   0.898 -0.5865  0.0225 -0.8971
 1606TIP3   OH2 4758   0.763   4.881   6.632  0.8365 -0.2694 -0.2013
 1606TIP3    H1 4759   0.801   4.915   6.712  1.6694 -0.0714 -0.6671
 1606TIP3    H2 4760   0.742   4.790   6.652 -0.3451  0.1829  0.6941
 1607TIP3   OH2 4761   0.527   0.355   1.779  0.6108  0.0224 -0.2230
 1607TIP3    H1 4762   0.576   0.435   1.799  1.0759 -0.0740 -0.9347
 1607TIP3    H2 4763   0.469   0.343   1.854  0.7532  0.8610  0.0311
 1608TIP3   OH2 4764   3.344   2.435   5.116  0.3073 -0.0976  0.2408
 1608TIP3    H1 4765   3.386   2.517   5.141 -0.0467  0.1324  0.0835
 1608TIP3    H2 4766   3.328   2.444   5.022 -0.1354 -0.1656  0.3095
 1609TIP3   OH2 4767   1.007   1.336   1.023 -0.1558 -0.2201  0.2909
 1609TIP3    H1 4768   0.948   1.379   0.961  0.8526 -0.3556 -0.7987
 1609TIP3    H2 4769   1.008   1.393   1.100 -0.2515  0.7419 -0.4137
 1610TIP3   OH2 4770   2.197   0.276   6.745  0.4096 -0.1930  0.3033
 1610TIP3    H1 4771   2.207   0.335   6.819  1.5754  1.9560 -1.4360
 1610TIP3    H2 4772   2.104   0.252   6.745  0.6136 -1.3513  3.1374
 1611TIP3   OH2 4773   3.763   1.153   0.397  0.5217 -0.0307  0.4335
 1611TIP3    H1 4774   3.796   1.133   0.309  0.3568  0.5994  0.2258
 1611TIP3    H2 4775   3.837   1.195   0.441 -0.5133  3.2141 -0.6716
 1612TIP3   OH2 4776   2.734   4.412   0.325 -0.4639  0.2830 -0.5147
 1612TIP3    H1 4777   2.701   4.470   0.257 -0.1207  1.0823 -0.0168
 1612TIP3    H2 4778   2.662   4.406   0.389 -0.8658 -0.6332 -1.0220
 1613TIP3   OH2 4779   5.373   7.478   4.299  0.0453 -0.0518  0.5799
 1613TIP3    H1 4780   5.379   7.436   4.384 -1.8970  0.2009  0.8980
 1613TIP3    H2 4781   5.314   7.421   4.248  0.0324  0.5437 -0.0959
 1614TIP3   OH2 4782   3.458   2.806   6.077 -0.0865  0.0870  0.2556
 1614TIP3    H1 4783   3.542   2.812   6.123  0.3067  0.3884 -0.4847
 1614TIP3    H2 4784   3.436   2.896   6.055  0.2158 -0.1184 -0.9845
 1615TIP3   OH2 4785   6.574   4.207   6.808 -0.0107 -0.4938  0.1267
 1615TIP3    H1 4786   6.653   4.236   6.852 -1.0264 -0.2509  1.8513
 1615TIP3    H2 4787   6.551   4.124   6.851 -1.5495  0.2236  0.7791
 1616TIP3   OH2 4788   7.776   7.386   3.089 -0.0566  0.1713 -0.3239
 1616TIP3    H1 4789   7.723   7.336   3.150  0.9157  0.3247  0.6833
 1616TIP3    H2 4790   7.736   7.371   3.004 -0.0748 -1.9708  0.0052
 1617TIP3   OH2 4791   7.228   1.920   1.820  0.1328 -0.1629  0.1367
 1617TIP3    H1 4792   7.153   1.980   1.814 -1.8199 -2.3224  1.4870
 1617TIP3    H2 4793   7.250   1.919   1.913 -0.6163 -2.3095  0.3440
 1618TIP3   OH2 4794   4.440   2.306   2.474  0.2978 -0.3279 -0.2571
 1618TIP3    H1 4795   4.520   2.298   2.423  0.5714  0.1919  0.0834
 1618TIP3    H2 4796   4.412   2.216   2.489  1.1667 -0.5399  0.1661
 1619TIP3   OH2 4797   8.261   3.412   4.320 -0.2531 -0.4620 -0.6748
 1619TIP3    H1 4798   8.254   3.423   4.225 -0.9542 -0.2690 -0.6032
 1619TIP3    H2 4799   8.171   3.409   4.351 -0.0469  0.9737  0.1482
 1620TIP3   OH2 4800   7.176   5.321   3.994 -0.1858 -0.0289 -0.5562
 1620TIP3    H1 4801   7.219   5.296   4.076 -0.0173  0.5882 -0.4484
 1620TIP3    H2 4802   7.087   5.289   4.003 -0.2091  0.1556 -0.0700
 1621TIP3   OH2 4803   2.381   7.890   2.409 -0.3644 -0.1521  0.0611
 1621TIP3    H1 4804   2.422   7.968   2.446 -1.8328  0.4600  0.4629
 1621TIP3    H2 4805   2.406   7.891   2.317 -1.1825  1.3702 -0.1748
 1622TIP3   OH2 4806   7.479   2.214   6.702  0.1872  0.4154  0.5397
 1622TIP3    H1 4807   7.475   2.262   6.620  1.8317  0.0339  0.2138
 1622TIP3    H2 4808   7.388   2.193   6.722 -0.1963  0.0253 -1.4698
 1623TIP3   OH2 4809   3.277   2.405   5.407 -0.0114  0.3836 -0.5860
 1623TIP3    H1 4810   3.242   2.477   5.461 -0.9467  0.5378 -1.3540
 1623TIP3    H2 4811   3.259   2.433   5.317 -0.7146 -0.9756 -0.8843
 1624TIP3   OH2 4812   1.712   1.050   5.182 -0.1064  0.4553  0.2689
 1624TIP3    H1 4813   1.660   1.069   5.260 -0.8374 -0.5887  0.0702
 1624TIP3    H2 4814   1.654   1.073   5.109 -0.9034 -1.9971  0.0244
 1625TIP3   OH2 4815   5.871   4.588   4.642  0.3616 -0.3704  0.7556
 1625TIP3    H1 4816   5.864   4.665   4.699 -2.1736 -0.1152  0.2354
 1625TIP3    H2 4817   5.784   4.549   4.644  0.9744 -1.9527 -0.7848
 1626TIP3   OH2 4818   5.893   1.437   1.251 -0.4408 -0.4676  0.3322
 1626TIP3    H1 4819   5.841   1.509   1.287 -0.9101 -0.1925 -0.8515
 1626TIP3    H2 4820   5.888   1.449   1.156  1.1921 -0.8549  0.1711
 1627TIP3   OH2 4821   7.334   4.326   4.878 -0.7165 -0.5493 -0.7356
 1627TIP3    H1 4822   7.323   4.286   4.792 -0.1999 -1.6174 -0.3133
 1627TIP3    H2 4823   7.405   4.277   4.918 -0.3864  0.4920 -0.0206
 1628TIP3   OH2 4824   3.301   4.099   6.106  0.0542  0.3543 -0.3091
 1628TIP3    H1 4825   3.301   4.169   6.170  0.1086  1.3547 -1.3602
 1628TIP3    H2 4826   3.316   4.143   6.022 -2.0841 -0.6462 -1.2935
 1629TIP3   OH2 4827   0.886   1.822   0.232  0.3678 -0.8616 -0.8087
 1629TIP3    H1 4828   0.943   1.768   0.288  0.0288 -0.7646 -0.3605
 1629TIP3    H2 4829   0.827   1.759   0.191 -2.1485 -0.6744  2.1217
 1630TIP3   OH2 4830   2.638   1.776   5.441 -0.0310 -0.4196  0.2795
 1630TIP3    H1 4831   2.704   1.841   5.464 -0.3515 -0.2454  0.7008
 1630TIP3    H2 4832   2.554   1.818   5.460 -0.2917 -0.4806 -0.6521
 1631TIP3   OH2 4833   6.821   0.220   2.789 -0.2860 -0.5810  0.0646
 1631TIP3    H1 4834   6.905   0.228   2.744 -0.5472  1.3583 -0.1644
 1631TIP3    H2 4835   6.779   0.144   2.749  0.9606 -1.0032 -0.4758
 1632TIP3   OH2 4836   7.812   7.179   1.857 -0.2010 -0.8024 -0.4952
 1632TIP3    H1 4837   7.785   7.263   1.821 -0.9957 -0.9930 -0.3543
 1632TIP3    H2 4838   7.881   7.148   1.797 -0.1395 -0.2128 -0.7299
 1633TIP3   OH2 4839   2.603   4.782   1.099  0.4319 -0.1573  0.3435
 1633TIP3    H1 4840   2.631   4.693   1.121 -0.8355 -0.7310 -0.2338
 1633TIP3    H2 4841   2.684   4.828   1.077  0.9259 -1.9175 -1.8790
 1634TIP3   OH2 4842   6.395   2.544   1.612 -0.2973  0.0885 -0.0661
 1634TIP3    H1 4843   6.425   2.465   1.567  1.1289  0.6497 -0.1277
 1634TIP3    H2 4844   6.326   2.512   1.671  0.1227 -1.1728 -0.2141
 1635TIP3   OH2 4845   4.309   4.444   4.383 -0.3649 -0.0910 -0.6637
 1635TIP3    H1 4846   4.231   4.424   4.435 -0.6806  0.5162 -0.8911
 1635TIP3    H2 4847   4.326   4.537   4.401 -1.3253  0.5423 -2.7190
 1636TIP3   OH2 4848   2.070   1.946   1.650 -0.4458  0.2011  0.5691
 1636TIP3    H1 4849   2.145   1.948   1.590 -1.0303  0.4013 -0.1676
 1636TIP3    H2 4850   2.071   2.032   1.693  0.4007 -0.2079  1.3936
 1637TIP3   OH2 4851   3.973   1.986   6.816 -0.6095  0.4736  0.0579
 1637TIP3    H1 4852   4.011   2.022   6.736 -1.5386 -0.5919 -0.8982
 1637TIP3    H2 4853   3.944   2.062   6.865  1.2738  1.2264  0.0875
 1638TIP3   OH2 4854   5.180   6.672   5.745  0.6179 -0.6291  0.2914
 1638TIP3    H1 4855   5.191   6.653   5.838  0.4763  4.1132  1.5230
 1638TIP3    H2 4856   5.264   6.709   5.718  0.0270 -0.1299 -0.9190
 1639TIP3   OH2 4857   7.336   1.953   2.094  0.4238 -0.2899  0.6776
 1639TIP3    H1 4858   7.338   2.029   2.037  2.3227 -0.6770  0.1376
 1639TIP3    H2 4859   7.259   1.966   2.149  1.9262  3.2379  2.2591
 1640TIP3   OH2 4860   6.427   2.152   4.719  0.0877  0.5012  0.3914
 1640TIP3    H1 4861   6.422   2.116   4.807  1.5884 -0.0425  0.2854
 1640TIP3    H2 4862   6.369   2.228   4.720 -0.8790 -0.2308  1.4672
 1641TIP3   OH2 4863   6.909   6.994   5.748  0.0507 -0.1322  0.6428
 1641TIP3    H1 4864   6.947   6.915   5.786 -1.1234 -2.4516 -2.5616
 1641TIP3    H2 4865   6.816   6.989   5.771 -0.2269 -0.3317 -0.4382
 1642TIP3   OH2 4866   0.779   4.494   1.715 -0.2028 -0.0500  0.3233
 1642TIP3    H1 4867   0.690   4.476   1.746  0.0124 -1.2230  0.3222
 1642TIP3    H2 4868   0.828   4.519   1.793  0.3755 -3.1147  1.0974
 1643TIP3   OH2 4869   4.348   6.503   5.786 -0.8221  0.0066  0.2224
 1643TIP3    H1 4870   4.348   6.410   5.810 -0.4348  0.3707  1.7843
 1643TIP3    H2 4871   4.273   6.540   5.833 -0.9866  0.4896 -0.4031
 1644TIP3   OH2 4872   7.475   3.194   3.192 -0.2758  0.3295  0.0510
 1644TIP3    H1 4873   7.385   3.219   3.211  0.0667  1.1048  0.7519
 1644TIP3    H2 4874   7.526   3.273   3.210  0.6752 -0.4319  0.8335
 1645TIP3   OH2 4875   4.189   2.635   2.917  0.0893  0.5412 -0.5197
 1645TIP3    H1 4876   4.108   2.598   2.883 -0.9750  0.6324  1.7460
 1645TIP3    H2 4877   4.220   2.572   2.982 -0.5126  2.4149  1.7243
 1646TIP3   OH2 4878   3.636   3.683   6.303 -0.0143  0.6267  0.2622
 1646TIP3    H1 4879   3.542   3.689   6.286  0.0381  1.7815  0.3076
 1646TIP3    H2 4880   3.648   3.732   6.385  0.6890  0.8971  0.0009
 1647TIP3   OH2 4881   7.384   5.394   5.086 -0.0591 -0.1553  0.5011
 1647TIP3    H1 4882   7.293   5.417   5.104  0.2748  1.7199  0.0332
 1647TIP3    H2 4883   7.379   5.315   5.032 -1.3800 -0.3349  0.8504
 1648TIP3   OH2 4884   7.952   1.371   4.482  0.0227 -0.2899  0.4433
 1648TIP3    H1 4885   7.962   1.463   4.458 -0.0523 -0.0795  1.1849
 1648TIP3    H2 4886   8.040   1.344   4.509 -0.1893 -0.0926  1.3631
 1649TIP3   OH2 4887   8.177   6.564   2.639 -0.0036  0.2915 -0.0118
 1649TIP3    H1 4888   8.095   6.603   2.670  0.3564  0.6169  0.5358
 1649TIP3    H2 4889   8.245   6.605   2.693  0.6023  0.6282 -1.0053
 1650TIP3   OH2 4890   0.566   3.995   3.040 -0.3291 -0.4072  0.1719
 1650TIP3    H1 4891   0.636   3.951   2.992  1.3296  0.4562  1.6695
 1650TIP3    H2 4892   0.526   4.054   2.976 -0.0052 -1.2626 -0.8384
 1651TIP3   OH2 4893   7.054   3.756   5.572 -0.3091  0.2812 -0.3812
 1651TIP3    H1 4894   7.088   3.667   5.570 -1.2884 -0.1540 -3.5693
 1651TIP3    H2 4895   6.959   3.745   5.571 -0.4464  1.3019 -1.9513
 1652TIP3   OH2 4896   0.899   2.881   6.841 -0.1960 -0.3312  0.3078
 1652TIP3    H1 4897   0.973   2.896   6.782  0.1554  0.1116  0.8478
 1652TIP3    H2 4898   0.937   2.840   6.918 -0.2331  1.2681  1.2376
 1653TIP3   OH2 4899   6.626   3.994   1.256 -0.6551 -0.2975  0.4390
 1653TIP3    H1 4900   6.702   4.013   1.311 -1.7688 -0.7351  2.2147
 1653TIP3    H2 4901   6.636   3.901   1.233  0.1071  0.0278 -0.6351
 1654TIP3   OH2 4902   2.912   4.574   0.562 -0.4407 -0.5582  0.1824
 1654TIP3    H1 4903   2.827   4.603   0.531 -0.2296  0.4669  0.4944
 1654TIP3    H2 4904   2.922   4.485   0.528 -2.5964 -1.5899  1.9941
 1655TIP3   OH2 4905   1.167   1.585   4.951  0.3436  0.0664 -1.0049
 1655TIP3    H1 4906   1.136   1.541   5.031  0.2685 -0.3066 -1.2386
 1655TIP3    H2 4907   1.240   1.530   4.921 -0.0724 -0.1789 -1.5758
 1656TIP3   OH2 4908   0.463   0.785   5.645 -0.0366  0.1027  0.2921
 1656TIP3    H1 4909   0.440   0.826   5.728  1.2594 -0.1135  0.7820
 1656TIP3    H2 4910   0.462   0.857   5.582  0.6084  0.6047  0.8322
 1657TIP3   OH2 4911   3.937   3.805   5.118  0.0312 -0.2160  0.3900
 1657TIP3    H1 4912   3.877   3.816   5.044  0.5422 -3.0745 -0.5565
 1657TIP3    H2 4913   4.013   3.858   5.094  0.0566 -0.8427 -1.0217
 1658TIP3   OH2 4914   0.195   3.667   3.507 -0.1766  0.3611 -0.2598
 1658TIP3    H1 4915   0.289   3.669   3.523 -0.0085 -0.0997 -1.1080
 1658TIP3    H2 4916   0.164   3.754   3.531  0.5258  0.6307 -0.3163
 1659TIP3   OH2 4917   3.607   5.065   4.738  0.0976 -0.1611 -0.1753
 1659TIP3    H1 4918   3.638   4.978   4.763 -1.1566 -0.4402  0.4943
 1659TIP3    H2 4919   3.515   5.067   4.766 -0.1803  1.0253 -1.0636
 1660TIP3   OH2 4920   2.913   0.601   4.080 -0.5275  0.3950 -0.4040
 1660TIP3    H1 4921   2.866   0.641   4.153  0.8331  0.4437  0.4938
 1660TIP3    H2 4922   2.966   0.672   4.044  1.3332 -0.3620  0.7149
 1661TIP3   OH2 4923   6.273   6.223   5.202 -0.2371  0.3741  0.4350
 1661TIP3    H1 4924   6.311   6.295   5.153  0.4680 -0.3715 -0.1419
 1661TIP3    H2 4925   6.331   6.211   5.277  0.3022 -0.3304 -0.0868
 1662TIP3   OH2 4926   4.195   0.114   3.458  0.1430  0.6002  0.0746
 1662TIP3    H1 4927   4.215   0.077   3.372  0.6211  0.2386  0.3364
 1662TIP3    H2 4928   4.205   0.208   3.445  1.7474  0.4598  0.1042
 1663TIP3   OH2 4929   4.231   5.999   2.560  0.0235  0.0134  0.2741
 1663TIP3    H1 4930   4.176   6.078   2.560  1.8446  1.3388  0.8905
 1663TIP3    H2 4931   4.321   6.032   2.560  0.8776 -2.0859 -1.6469
 1664TIP3   OH2 4932   7.472   3.343   2.111  0.0299 -0.0821 -0.1072
 1664TIP3    H1 4933   7.417   3.292   2.052  0.2046 -0.2463 -0.1273
 1664TIP3    H2 4934   7.510   3.411   2.056 -2.0955  1.6148  0.3553
 1665TIP3   OH2 4935   5.168   4.648   4.027 -0.2866 -0.3989 -0.0812
 1665TIP3    H1 4936   5.144   4.563   4.066 -1.6057  0.4181  1.0042
 1665TIP3    H2 4937   5.258   4.662   4.055  0.2912 -1.8666 -1.0906
 1666TIP3   OH2 4938   1.721   6.204   6.488  0.2085  0.1488 -0.4457
 1666TIP3    H1 4939   1.692   6.173   6.403  0.0050 -0.9899  0.0250
 1666TIP3    H2 4940   1.714   6.128   6.546  0.4557  0.8649  0.5631
 1667TIP3   OH2 4941   7.138   1.276   6.011 -0.0740 -0.1059 -0.1293
 1667TIP3    H1 4942   7.045   1.298   6.008  0.1225  0.7026 -0.3276
 1667TIP3    H2 4943   7.140   1.194   6.061 -0.7601  0.6310  1.1631
 1668TIP3   OH2 4944   7.399   2.808   4.401 -0.1413 -0.0494  0.2370
 1668TIP3    H1 4945   7.480   2.817   4.451  0.9100  0.4293 -1.4669
 1668TIP3    H2 4946   7.354   2.891   4.412 -1.0542 -0.7219  2.1587
 1669TIP3   OH2 4947   3.994   4.544   5.111  0.1066  0.1074  0.4469
 1669TIP3    H1 4948   3.918   4.596   5.084  0.6528  0.5358 -0.3011
 1669TIP3    H2 4949   4.065   4.575   5.055  1.1907  0.7305  2.0801
 1670TIP3   OH2 4950   1.021   2.164   1.907  0.5935 -0.1778 -0.3093
 1670TIP3    H1 4951   0.987   2.078   1.882  1.7343 -0.2608 -1.6914
 1670TIP3    H2 4952   1.115   2.159   1.891  1.2996  0.2072  2.9673
 1671TIP3   OH2 4953   3.501   1.290   1.814 -0.0621  0.1718 -0.4406
 1671TIP3    H1 4954   3.526   1.381   1.797 -1.2830  0.4443 -0.8564
 1671TIP3    H2 4955   3.405   1.291   1.814 -0.1002 -0.9342  0.5492
 1672TIP3   OH2 4956   5.888   1.180   6.222  0.0811  0.3660  0.3049
 1672TIP3    H1 4957   5.958   1.139   6.171 -0.2508  1.4140 -1.0573
 1672TIP3    H2 4958   5.918   1.176   6.313  0.7856 -1.3728  0.0328
 1673TIP3   OH2 4959   7.201   2.551   4.760  0.3766  0.3660 -0.7167
 1673TIP3    H1 4960   7.251   2.526   4.682 -0.9902  1.9707 -2.1875
 1673TIP3    H2 4961   7.110   2.556   4.730 -0.3968 -0.3104  1.3492
 1674TIP3   OH2 4962   1.007   1.225   5.060  0.8225 -0.2363 -0.0781
 1674TIP3    H1 4963   0.955   1.158   5.103  0.6262  0.8307  1.4487
 1674TIP3    H2 4964   0.985   1.218   4.967 -1.0587 -0.6591  0.3689
 1675TIP3   OH2 4965   2.461   2.653   0.127  0.7072 -0.5341 -0.6155
 1675TIP3    H1 4966   2.515   2.657   0.206  0.5980  1.1890 -0.5926
 1675TIP3    H2 4967   2.384   2.602   0.154 -0.0653  1.3238  0.8909
 1676TIP3   OH2 4968   3.194   6.432   1.450 -0.2400 -0.0497  0.4055
 1676TIP3    H1 4969   3.282   6.459   1.424 -0.6364  0.9224  0.0419
 1676TIP3    H2 4970   3.201   6.337   1.460  0.8442  0.0066  0.3746
 1677TIP3   OH2 4971   4.424   7.880   5.356  0.0458  0.1176 -0.0717
 1677TIP3    H1 4972   4.349   7.879   5.296 -1.8383 -1.7831  2.0773
 1677TIP3    H2 4973   4.461   7.792   5.348  0.9120  0.4527  0.2286
 1678TIP3   OH2 4974   6.016   5.202   1.556 -0.1624  0.1095 -0.1247
 1678TIP3    H1 4975   6.086   5.217   1.492  0.5953 -0.8694  0.4422
 1678TIP3    H2 4976   5.937   5.231   1.511  0.4486  0.1311 -1.2435
 1679TIP3   OH2 4977   2.455   6.580   5.470  0.1705 -0.3324 -0.0704
 1679TIP3    H1 4978   2.470   6.509   5.533 -1.3770 -0.6311 -0.0021
 1679TIP3    H2 4979   2.449   6.536   5.385 -2.6652 -0.6069  0.1726
 1680TIP3   OH2 4980   6.748   5.903   1.788  0.2033  0.4694 -0.1378
 1680TIP3    H1 4981   6.661   5.863   1.785  0.5515 -0.6488  2.1293
 1680TIP3    H2 4982   6.747   5.969   1.719 -2.2278  0.0885 -0.5582
 1681TIP3   OH2 4983   1.843   4.309   2.833  0.6891 -0.2344 -0.4594
 1681TIP3    H1 4984   1.780   4.338   2.899  0.7931  0.2447 -0.5677
 1681TIP3    H2 4985   1.900   4.384   2.820  0.9492 -0.4835 -0.7625
 1682TIP3   OH2 4986   5.178   4.091   4.374 -0.5998 -0.0038 -0.1916
 1682TIP3    H1 4987   5.189   4.083   4.279 -0.5843  0.1973 -0.2077
 1682TIP3    H2 4988   5.267   4.091   4.409 -0.6113 -0.2367 -0.1636
 1683TIP3   OH2 4989   0.663   7.475   5.031 -0.1629 -0.6204  0.3312
 1683TIP3    H1 4990   0.755   7.501   5.029 -0.1048 -0.8406 -1.1825
 1683TIP3    H2 4991   0.615   7.553   5.003 -0.4654 -0.4449  1.3085
 1684TIP3   OH2 4992   6.530   6.397   6.356 -0.0008 -0.6395  1.1285
 1684TIP3    H1 4993   6.608   6.421   6.406  0.0938  2.1483 -0.1680
 1684TIP3    H2 4994   6.458   6.406   6.419  0.4403 -0.5384  1.6288
 1685TIP3   OH2 4995   1.812   3.628   2.188  0.3333  0.3781  0.2112
 1685TIP3    H1 4996   1.735   3.616   2.131  0.7597 -0.4295 -0.2210
 1685TIP3    H2 4997   1.858   3.544   2.183 -0.2194 -0.1558  2.6922
 1686TIP3   OH2 4998   3.008   3.136   4.426  0.2572 -0.1942  0.3010
 1686TIP3    H1 4999   2.946   3.064   4.410 -0.4563  0.5656 -0.4422
 1686TIP3    H2 5000   3.094   3.094   4.422 -0.1715 -1.1543  0.7250
 1687TIP3   OH2 5001   5.245   2.971   2.125  0.1426 -0.2427  0.4958
 1687TIP3    H1 5002   5.315   3.007   2.180  1.0193 -0.7039 -0.3033
 1687TIP3    H2 5003   5.177   2.945   2.187  0.2654  1.0892  1.2187
 1688TIP3   OH2 5004   1.746   1.620   5.565  0.3965  0.0218  0.1040
 1688TIP3    H1 5005   1.778   1.538   5.527  0.2948 -0.3497  0.8195
 1688TIP3    H2 5006   1.814   1.646   5.627  0.9027  1.0070 -0.8165
 1689TIP3   OH2 5007   7.742   4.081   4.953  0.2181 -0.3526 -0.2038
 1689TIP3    H1 5008   7.766   3.998   4.912 -1.0712 -0.3782 -0.9736
 1689TIP3    H2 5009   7.776   4.148   4.895 -0.8510 -0.3836 -0.8972
 1690TIP3   OH2 5010   2.916   6.773   0.504 -0.0229  0.3425 -0.3433
 1690TIP3    H1 5011   2.959   6.859   0.507  0.2126  0.2004  0.5468
 1690TIP3    H2 5012   2.838   6.788   0.450 -0.3961  1.3223  0.4143
 1691TIP3   OH2 5013   3.657   6.471   6.615  0.2200 -0.5869  0.3379
 1691TIP3    H1 5014   3.689   6.392   6.571 -0.2160 -0.3923 -0.3525
 1691TIP3    H2 5015   3.645   6.534   6.544 -0.4893 -0.2610  0.7379
 1692TIP3   OH2 5016   2.439   3.105   3.317 -0.3677  0.1201  0.3219
 1692TIP3    H1 5017   2.417   3.163   3.390 -1.6376 -0.5061  0.4664
 1692TIP3    H2 5018   2.520   3.141   3.281 -0.0886  0.8429  1.6069
 1693TIP3   OH2 5019   4.035   2.065   5.495 -0.0982  0.2637 -0.2706
 1693TIP3    H1 5020   4.103   2.000   5.514  1.0456  1.8728  1.5195
 1693TIP3    H2 5021   4.008   2.046   5.405  0.9213 -1.9986 -0.1655
 1694TIP3   OH2 5022   3.317   2.417   2.996  0.5801  0.7006 -0.1422
 1694TIP3    H1 5023   3.377   2.465   2.939 -1.3797  1.6594 -1.5143
 1694TIP3    H2 5024   3.240   2.474   3.003 -1.8062 -2.0625 -1.6875
 1695TIP3   OH2 5025   5.518   3.254   2.140  0.2283 -0.3547  0.3738
 1695TIP3    H1 5026   5.589   3.317   2.150  2.4602 -2.4842 -0.8587
 1695TIP3    H2 5027   5.456   3.296   2.080  2.2230  0.2823 -1.3634
 1696TIP3   OH2 5028   6.795   5.456   3.466  0.2244 -0.3782 -0.0069
 1696TIP3    H1 5029   6.813   5.471   3.374 -1.1413  0.7772 -0.1280
 1696TIP3    H2 5030   6.749   5.535   3.495  0.4171 -0.8102  1.6072
 1697TIP3   OH2 5031   8.299   2.641   3.434  0.1855  0.1603 -0.1992
 1697TIP3    H1 5032   8.220   2.678   3.396 -0.6519 -0.8937  0.4353
 1697TIP3    H2 5033   8.360   2.714   3.441 -0.8076  1.0353 -0.5155
 1698TIP3   OH2 5034   6.004   0.548   0.280  0.0061  0.0473  0.6114
 1698TIP3    H1 5035   5.911   0.562   0.298 -0.2322  3.7709 -2.2668
 1698TIP3    H2 5036   6.008   0.459   0.244 -2.6299  0.1363 -0.1116
 1699TIP3   OH2 5037   3.344   6.631   4.802  0.0018 -0.1638  0.1040
 1699TIP3    H1 5038   3.362   6.720   4.771  0.0808 -0.7997 -1.8029
 1699TIP3    H2 5039   3.428   6.600   4.837  0.2135  0.1749 -0.1015
 1700TIP3   OH2 5040   2.065   5.473   3.337  1.0573 -0.5788  0.5735
 1700TIP3    H1 5041   2.084   5.468   3.431  1.6470  0.0831  0.5071
 1700TIP3    H2 5042   1.978   5.435   3.327 -0.3898  2.0596  1.8566
 1701TIP3   OH2 5043   2.439   6.755   1.164 -0.0337  0.0778  0.1819
 1701TIP3    H1 5044   2.483   6.811   1.228  2.1499 -2.6699  1.3037
 1701TIP3    H2 5045   2.420   6.674   1.212 -0.5998 -1.1551 -1.9874
 1702TIP3   OH2 5046   3.322   0.176   1.221  0.5162 -0.3454  0.2833
 1702TIP3    H1 5047   3.365   0.109   1.167 -1.2078 -2.4930  1.4266
 1702TIP3    H2 5048   3.230   0.149   1.223 -0.4480  2.6161  0.0734
 1703TIP3   OH2 5049   0.394   2.380   3.834 -0.2506 -0.0710 -0.5410
 1703TIP3    H1 5050   0.406   2.302   3.779 -2.2860 -0.8051 -0.0588
 1703TIP3    H2 5051   0.398   2.453   3.773 -1.7006 -0.8161 -1.5939
 1704TIP3   OH2 5052   4.452   0.813   4.258 -0.3188  0.0263 -0.2146
 1704TIP3    H1 5053   4.471   0.825   4.165  0.3854  0.0225 -0.0773
 1704TIP3    H2 5054   4.530   0.844   4.303 -1.1368  1.1973  0.4419
 1705TIP3   OH2 5055   6.315   7.524   2.558 -0.2829  0.3023 -0.2411
 1705TIP3    H1 5056   6.309   7.562   2.646  2.7685  2.2437 -0.6975
 1705TIP3    H2 5057   6.288   7.433   2.569  0.8313  0.2251  2.9346
 1706TIP3   OH2 5058   6.994   4.850   0.310 -0.6465  0.5075  0.4244
 1706TIP3    H1 5059   6.961   4.895   0.232  0.2765 -1.1102 -0.9364
 1706TIP3    H2 5060   7.065   4.906   0.341 -0.0736  0.4628 -0.7518
 1707TIP3   OH2 5061   5.237   1.001   1.470 -0.1524  0.0760 -0.2710
 1707TIP3    H1 5062   5.171   1.013   1.538  0.7280  0.6018  0.5147
 1707TIP3    H2 5063   5.191   1.016   1.387 -1.4327 -1.3437  0.1309
 1708TIP3   OH2 5064   5.578   2.018   1.702 -0.0753 -0.2040 -0.2100
 1708TIP3    H1 5065   5.564   2.017   1.607  0.8166 -0.5167 -0.3478
 1708TIP3    H2 5066   5.639   2.091   1.716  1.5004 -1.4814 -0.1509
 1709TIP3   OH2 5067   2.407   0.873   0.207  0.1801 -0.3599 -0.2766
 1709TIP3    H1 5068   2.345   0.800   0.207  0.2080 -0.3883  0.3468
 1709TIP3    H2 5069   2.378   0.929   0.134  0.4477 -1.2233 -1.0632
 1710TIP3   OH2 5070   4.367   3.195   4.974  0.1311  0.0720 -0.9892
 1710TIP3    H1 5071   4.345   3.102   4.973  0.9941 -0.1348 -1.4517
 1710TIP3    H2 5072   4.282   3.240   4.976 -0.3270 -0.7042 -2.0794
 1711TIP3   OH2 5073   4.992   6.765   0.326 -0.3246  0.4074 -0.1272
 1711TIP3    H1 5074   5.039   6.763   0.243  0.4713  1.4200  0.2723
 1711TIP3    H2 5075   5.047   6.713   0.386  0.0635  1.1883  0.2140
 1712TIP3   OH2 5076   7.124   1.736   6.767 -0.1534  0.3839  0.6006
 1712TIP3    H1 5077   7.046   1.709   6.815 -0.0799  1.1610  1.1713
 1712TIP3    H2 5078   7.183   1.771   6.834 -0.0756  1.5531 -0.0445
 1713TIP3   OH2 5079   5.288   6.724   2.571 -0.1146 -0.1728 -0.0140
 1713TIP3    H1 5080   5.231   6.760   2.639 -0.3689  2.7434 -1.6286
 1713TIP3    H2 5081   5.369   6.702   2.617 -1.6997 -2.5064  1.9418
 1714TIP3   OH2 5082   1.181   0.925   2.638  0.0444  0.1022 -0.2420
 1714TIP3    H1 5083   1.208   0.856   2.577 -1.8562 -1.1032  0.1738
 1714TIP3    H2 5084   1.197   0.887   2.725  1.7176  1.3822  0.0542
 1715TIP3   OH2 5085   4.543   6.456   2.632  0.0355 -0.2502 -0.5002
 1715TIP3    H1 5086   4.468   6.473   2.574 -0.3905 -0.7984 -0.1137
 1715TIP3    H2 5087   4.508   6.467   2.720  1.0044  1.9726 -0.3163
 1716TIP3   OH2 5088   6.685   0.479   1.679 -0.5862  0.6126  0.4336
 1716TIP3    H1 5089   6.628   0.431   1.619 -0.5808  0.5646  0.4673
 1716TIP3    H2 5090   6.767   0.428   1.680 -0.5746  0.6317  0.4553
 1717TIP3   OH2 5091   5.148   2.101   6.600  0.5886  0.1391  0.3033
 1717TIP3    H1 5092   5.108   2.186   6.613  1.0003  0.7050 -1.7453
 1717TIP3    H2 5093   5.081   2.049   6.557  0.7337 -0.1973  0.4786
 1718TIP3   OH2 5094   2.610   3.356   5.754 -0.0007 -0.0233 -0.3173
 1718TIP3    H1 5095   2.585   3.347   5.846 -0.6949 -0.3921 -0.5357
 1718TIP3    H2 5096   2.612   3.451   5.740 -0.1908  0.0311 -0.0007
 1719TIP3   OH2 5097   0.620   0.255   6.366 -0.1922 -0.0496 -0.6527
 1719TIP3    H1 5098   0.598   0.162   6.372 -1.9468  0.4065  0.6860
 1719TIP3    H2 5099   0.698   0.265   6.421 -1.7481 -0.2524  1.6744
 1720TIP3   OH2 5100   3.154   6.966   0.762  0.5978  0.5615  0.5013
 1720TIP3    H1 5101   3.133   6.913   0.839 -0.2570 -0.8438 -0.6504
 1720TIP3    H2 5102   3.227   6.920   0.721  0.1302  0.4842 -0.2732
 1721TIP3   OH2 5103   3.221   2.449   3.658  1.1499  0.2503  0.1221
 1721TIP3    H1 5104   3.294   2.436   3.718  0.3521  1.7802  1.4994
 1721TIP3    H2 5105   3.148   2.476   3.714 -0.9378 -2.5228 -1.0228
 1722TIP3   OH2 5106   0.250   1.608   5.952 -0.0153  0.0552 -0.8489
 1722TIP3    H1 5107   0.282   1.548   5.884  1.5475  0.0870 -0.1974
 1722TIP3    H2 5108   0.155   1.605   5.944  0.0869 -0.9945 -2.1221
 1723TIP3   OH2 5109   1.058   6.361   5.825 -0.0974  0.4932  0.3313
 1723TIP3    H1 5110   0.982   6.353   5.768 -0.7302 -1.9572  1.4067
 1723TIP3    H2 5111   1.063   6.455   5.845 -1.1718  1.0876 -1.8774
 1724TIP3   OH2 5112   6.258   0.711   1.702  0.1012 -0.1369  0.0677
 1724TIP3    H1 5113   6.169   0.714   1.737 -0.0844  1.5375 -0.4598
 1724TIP3    H2 5114   6.273   0.618   1.683 -1.3587 -0.5108  0.5670
 1725TIP3   OH2 5115   0.203   6.526   1.082 -0.2286 -0.4445 -0.3157
 1725TIP3    H1 5116   0.137   6.594   1.096  0.4721  0.2548 -0.3628
 1725TIP3    H2 5117   0.198   6.507   0.989 -0.3316 -0.3513 -0.3297
 1726TIP3   OH2 5118   0.353   2.476   2.357 -0.8839  0.2337  0.1425
 1726TIP3    H1 5119   0.397   2.542   2.302 -1.3057 -0.3181 -0.8824
 1726TIP3    H2 5120   0.420   2.449   2.420 -0.0697  0.1900 -0.7136
 1727TIP3   OH2 5121   1.026   2.599   1.951 -0.3706  0.2793 -1.1719
 1727TIP3    H1 5122   0.966   2.526   1.966 -1.2305  0.5575 -2.9991
 1727TIP3    H2 5123   1.109   2.569   1.987 -1.4986 -0.2059  1.1997
 1728TIP3   OH2 5124   7.297   4.468   3.674  0.0439  0.1144  0.1705
 1728TIP3    H1 5125   7.332   4.380   3.661  1.9929  1.0363 -1.4512
 1728TIP3    H2 5126   7.352   4.507   3.742 -0.1606  0.4283  0.1617
 1729TIP3   OH2 5127   0.564   1.981   4.311 -0.0263  0.7337 -0.0482
 1729TIP3    H1 5128   0.608   1.901   4.282 -0.6603  0.7402 -1.0791
 1729TIP3    H2 5129   0.515   1.955   4.389  0.5089  0.3455  0.1658
 1730TIP3   OH2 5130   4.833   1.535   2.594  0.1714  0.5501  0.1339
 1730TIP3    H1 5131   4.884   1.515   2.516 -0.5781 -0.2562 -0.1561
 1730TIP3    H2 5132   4.880   1.609   2.634  3.1245 -1.7908  1.3488
 1731TIP3   OH2 5133   0.238   7.715   0.776  0.0461  0.3674 -0.2833
 1731TIP3    H1 5134   0.324   7.705   0.818 -0.3075  0.4057  0.4572
 1731TIP3    H2 5135   0.209   7.625   0.760 -0.0810  0.3413  0.0931
 1732TIP3   OH2 5136   2.086   2.016   2.189 -0.1550 -0.0015  0.0493
 1732TIP3    H1 5137   2.091   1.936   2.137  1.6352  0.4736 -0.5667
 1732TIP3    H2 5138   2.038   2.078   2.134  1.9417  0.5839 -1.2733
 1733TIP3   OH2 5139   7.423   3.627   3.370  0.0666  0.0375 -0.4915
 1733TIP3    H1 5140   7.372   3.571   3.429  0.3725  0.0775 -0.1883
 1733TIP3    H2 5141   7.468   3.688   3.428  0.2284  0.1951 -0.7821
 1734TIP3   OH2 5142   5.480   6.301   1.328 -0.3764 -0.0591 -0.0904
 1734TIP3    H1 5143   5.478   6.355   1.249 -0.0880  0.1504  0.0413
 1734TIP3    H2 5144   5.413   6.339   1.384 -0.2720  0.0771 -0.0559
 1735TIP3   OH2 5145   8.229   3.991   2.096 -0.3890  0.1515  0.6734
 1735TIP3    H1 5146   8.154   3.933   2.110 -1.0226  0.5158 -0.9871
 1735TIP3    H2 5147   8.216   4.027   2.008  1.3836  0.7519  0.6085
 1736TIP3   OH2 5148   5.460   5.917   5.494  0.7455 -0.1441 -0.8677
 1736TIP3    H1 5149   5.549   5.882   5.495  1.0217  0.4671 -2.2139
 1736TIP3    H2 5150   5.404   5.840   5.482  0.9214 -0.7334  1.4667
 1737TIP3   OH2 5151   5.930   1.372   2.689 -0.3264 -0.8314 -0.3497
 1737TIP3    H1 5152   5.915   1.465   2.705 -1.2041 -1.1478  0.7569
 1737TIP3    H2 5153   6.025   1.364   2.682 -0.1751 -0.0214  0.6502
 1738TIP3   OH2 5154   8.283   0.053   4.016  0.2154  0.3138 -0.3016
 1738TIP3    H1 5155   8.333   0.031   3.938  0.9816 -0.8930  0.4907
 1738TIP3    H2 5156   8.268  -0.032   4.059  1.2378  1.0896  1.7000
 1739TIP3   OH2 5157   0.307   4.505   0.544 -0.5252  0.1201 -0.4160
 1739TIP3    H1 5158   0.225   4.551   0.529  0.7009  2.3166 -0.8690
 1739TIP3    H2 5159   0.362   4.568   0.590  0.8664 -1.3390  0.0324
 1740TIP3   OH2 5160   3.502   3.390   3.219  0.1684 -0.2443  0.3124
 1740TIP3    H1 5161   3.508   3.351   3.306  0.1165 -0.1485  0.3588
 1740TIP3    H2 5162   3.457   3.473   3.233  1.1537  0.3028  0.3650
 1741TIP3   OH2 5163   2.672   4.318   5.483 -0.0969 -0.0947  0.0849
 1741TIP3    H1 5164   2.651   4.224   5.477  1.8769 -0.5406 -0.7181
 1741TIP3    H2 5165   2.749   4.328   5.427  0.1866  1.8790  0.7777
 1742TIP3   OH2 5166   3.974   4.252   4.161  0.3409  0.4646  0.2422
 1742TIP3    H1 5167   3.984   4.283   4.071 -2.0426 -1.2497 -0.7270
 1742TIP3    H2 5168   3.899   4.302   4.195  0.3260  0.0949  0.7609
 1743TIP3   OH2 5169   6.378   7.626   5.864 -0.7104 -0.2713 -0.7253
 1743TIP3    H1 5170   6.467   7.596   5.880 -0.7366 -0.3052 -0.6438
 1743TIP3    H2 5171   6.388   7.715   5.829 -0.6500 -0.2379 -0.6215
 1744TIP3   OH2 5172   1.367   5.764   0.600  0.1714 -0.2272 -0.3693
 1744TIP3    H1 5173   1.372   5.676   0.636  0.5243 -0.4026 -0.8357
 1744TIP3    H2 5174   1.445   5.809   0.634  0.5174 -0.3996 -0.9086
 1745TIP3   OH2 5175   2.373   4.654   0.877  0.2098  0.0542  0.3952
 1745TIP3    H1 5176   2.328   4.714   0.936  0.1564 -0.1819  0.5937
 1745TIP3    H2 5177   2.330   4.667   0.792  0.6321  0.7747  0.2820
 1746TIP3   OH2 5178   2.485   1.094   2.372  0.1642  0.1540 -0.0358
 1746TIP3    H1 5179   2.466   1.016   2.426  1.8222 -0.1186  0.2162
 1746TIP3    H2 5180   2.542   1.061   2.303  0.2494  1.0125 -0.3762
 1747TIP3   OH2 5181   0.464   2.125   6.024 -0.2588  0.0498 -0.0969
 1747TIP3    H1 5182   0.479   2.148   6.116 -0.4407  1.7948 -0.4507
 1747TIP3    H2 5183   0.529   2.058   6.004  0.5766  0.5008  0.9965
 1748TIP3   OH2 5184   6.075   1.109   2.949 -0.3428 -0.8423  0.5295
 1748TIP3    H1 5185   6.089   1.015   2.959 -0.7904 -0.9587  0.1109
 1748TIP3    H2 5186   6.008   1.116   2.880  0.6826 -0.1674 -0.4263
 1749TIP3   OH2 5187   5.158   6.254   3.842 -0.0017  0.0040 -0.0534
 1749TIP3    H1 5188   5.073   6.269   3.883 -0.6008 -1.6593 -0.6115
 1749TIP3    H2 5189   5.221   6.270   3.912 -0.9589 -1.9255  1.3588
 1750TIP3   OH2 5190   3.927   7.591   1.801 -0.1621 -0.0285 -0.5589
 1750TIP3    H1 5191   3.985   7.654   1.844  0.9355 -1.2393 -0.2008
 1750TIP3    H2 5192   3.916   7.626   1.713  1.5624 -0.0182 -0.8194
 1751TIP3   OH2 5193   3.088   7.741   6.261 -0.2585  0.7103 -0.0316
 1751TIP3    H1 5194   3.093   7.650   6.290  1.1206  0.1110 -1.9388
 1751TIP3    H2 5195   3.001   7.748   6.221 -0.4020  0.2477  0.1838
 1752TIP3   OH2 5196   3.281   1.678   4.815  0.2708  0.1137  0.2468
 1752TIP3    H1 5197   3.242   1.731   4.746 -0.4569 -0.5482  0.1429
 1752TIP3    H2 5198   3.366   1.652   4.779  1.7996  3.1776  1.2315
 1753TIP3   OH2 5199   2.481   5.392   0.357  0.5568  0.0719 -0.6196
 1753TIP3    H1 5200   2.539   5.334   0.407  0.3536 -0.3075 -0.8252
 1753TIP3    H2 5201   2.528   5.407   0.274  0.3403 -0.2747 -0.8059
 1754TIP3   OH2 5202   4.678   6.940   5.307  0.2570  0.6073  0.2138
 1754TIP3    H1 5203   4.584   6.946   5.322  0.2335 -1.4517  1.3473
 1754TIP3    H2 5204   4.690   6.965   5.216 -1.2707  1.6757  0.2747
 1755TIP3   OH2 5205   5.526   0.195   3.585 -0.3553  0.0629 -0.0305
 1755TIP3    H1 5206   5.586   0.179   3.512 -0.9025  1.2167 -0.7565
 1755TIP3    H2 5207   5.583   0.204   3.661  0.4268  1.2538 -0.7256
 1756TIP3   OH2 5208   5.593   3.529   5.744  0.2057  0.8453  0.0300
 1756TIP3    H1 5209   5.515   3.510   5.691  0.3021 -0.3884  0.2862
 1756TIP3    H2 5210   5.658   3.559   5.681 -0.3570  1.5373 -0.2372
 1757TIP3   OH2 5211   0.277   7.192   3.513 -0.3433  0.1634  0.1187
 1757TIP3    H1 5212   0.334   7.118   3.490  0.1781  1.2494 -2.4694
 1757TIP3    H2 5213   0.331   7.246   3.570 -0.4454 -0.9951  1.3757
 1758TIP3   OH2 5214   8.054   0.885   3.263 -0.0306 -0.4641 -0.1730
 1758TIP3    H1 5215   8.066   0.953   3.330  3.1777 -0.2712 -0.7689
 1758TIP3    H2 5216   7.979   0.914   3.212 -0.1132  1.4768  0.9632
 1759TIP3   OH2 5217   7.605   4.392   2.264  0.4174 -0.0005 -0.1788
 1759TIP3    H1 5218   7.678   4.454   2.266  2.9133 -2.7232 -0.1370
 1759TIP3    H2 5219   7.644   4.311   2.230 -1.7384 -2.5965  2.9487
 1760TIP3   OH2 5220   4.689   6.336   5.095 -0.0204 -0.0272 -0.3824
 1760TIP3    H1 5221   4.754   6.315   5.163  0.5105  0.0470 -0.8563
 1760TIP3    H2 5222   4.624   6.389   5.141 -0.5017 -1.2866  0.4307
 1761TIP3   OH2 5223   4.493   2.576   2.249  0.6701 -0.2657  0.1404
 1761TIP3    H1 5224   4.510   2.509   2.182  1.5975  0.8079 -0.7314
 1761TIP3    H2 5225   4.579   2.608   2.274  0.2183  1.4039 -0.2903
 1762TIP3   OH2 5226   1.971   0.831   2.830  0.0227  0.7499  0.3967
 1762TIP3    H1 5227   2.046   0.828   2.772  1.0743  1.2118  1.6799
 1762TIP3    H2 5228   1.923   0.750   2.813  2.6724 -1.2993  1.9412
 1763TIP3   OH2 5229   8.416   2.035   1.438  0.3723  0.2072 -0.1163
 1763TIP3    H1 5230   8.377   1.964   1.490 -1.7473  0.9050 -0.6415
 1763TIP3    H2 5231   8.393   2.114   1.486 -2.1872  0.9266 -2.2957
 1764TIP3   OH2 5232   1.256   3.828   0.698  0.2150  0.0938  0.2778
 1764TIP3    H1 5233   1.248   3.755   0.759 -1.1618  1.3049  1.6260
 1764TIP3    H2 5234   1.171   3.834   0.655  1.1399 -0.7026 -1.8062
 1765TIP3   OH2 5235   7.904   1.604   1.861 -0.6401 -0.3681 -0.7795
 1765TIP3    H1 5236   7.867   1.591   1.947 -0.4119 -1.7034 -0.8660
 1765TIP3    H2 5237   7.979   1.662   1.876  0.3014 -1.7528  0.1755
 1766TIP3   OH2 5238   5.766   3.952   5.972  0.6096  0.2979  0.2796
 1766TIP3    H1 5239   5.796   3.989   5.888 -1.0345  0.2718 -0.3672
 1766TIP3    H2 5240   5.765   3.858   5.957 -1.6943  0.3766 -0.4614
 1767TIP3   OH2 5241   5.760   3.260   3.741 -0.2546  0.4361  0.0748
 1767TIP3    H1 5242   5.722   3.299   3.819 -0.1798 -1.2791  1.0223
 1767TIP3    H2 5243   5.845   3.227   3.769 -1.1710 -2.2804 -0.0397
 1768TIP3   OH2 5244   2.708   7.335   5.593 -0.1372 -0.0897 -0.4284
 1768TIP3    H1 5245   2.779   7.329   5.529  0.6215 -1.2647  0.4748
 1768TIP3    H2 5246   2.660   7.253   5.582 -0.9963  0.4332 -0.6102
 1769TIP3   OH2 5247   4.201   0.103   4.269  0.0869 -0.2842  0.0347
 1769TIP3    H1 5248   4.167   0.184   4.307  0.6409  0.0066 -0.0806
 1769TIP3    H2 5249   4.202   0.119   4.174  1.6775  0.1783  0.1010
 1770TIP3   OH2 5250   4.401   1.627   4.229 -0.2951  0.3384  0.5823
 1770TIP3    H1 5251   4.388   1.682   4.152 -3.3943 -0.1743  0.6185
 1770TIP3    H2 5252   4.396   1.688   4.303 -0.0614  0.4584  0.5015
 1771TIP3   OH2 5253   6.938   6.216   1.463 -0.4546 -0.3549 -0.5497
 1771TIP3    H1 5254   6.995   6.196   1.389 -0.4836 -0.2932 -0.5895
 1771TIP3    H2 5255   6.997   6.224   1.538 -0.7159 -3.8657  0.1721
 1772TIP3   OH2 5256   0.465   0.902   2.355  0.1684 -0.1098  0.3453
 1772TIP3    H1 5257   0.391   0.870   2.406 -0.1665 -3.4015 -1.9177
 1772TIP3    H2 5258   0.540   0.897   2.415 -0.9397  0.8158  1.8835
 1773TIP3   OH2 5259   4.955   4.682   6.413 -0.0490 -0.1437  0.2006
 1773TIP3    H1 5260   5.046   4.663   6.433  0.6893  1.6484 -1.1696
 1773TIP3    H2 5261   4.931   4.753   6.473 -0.2660 -0.0189 -0.0288
 1774TIP3   OH2 5262   2.735   1.009   0.100  0.0567 -0.1178 -0.4714
 1774TIP3    H1 5263   2.819   0.976   0.130  0.4204  0.9374 -0.2882
 1774TIP3    H2 5264   2.732   0.988   0.006 -0.0157 -1.2304 -0.2318
 1775TIP3   OH2 5265   7.197   5.131   3.332 -0.2305 -0.0681  0.2277
 1775TIP3    H1 5266   7.134   5.067   3.298 -0.7268  0.7602 -0.4507
 1775TIP3    H2 5267   7.147   5.184   3.394 -0.3897  0.9951 -0.7812
 1776TIP3   OH2 5268   7.838   7.583   0.763  0.2201 -0.4680 -0.1085
 1776TIP3    H1 5269   7.743   7.594   0.769  0.4930  2.5002  0.3014
 1776TIP3    H2 5270   7.862   7.624   0.680  1.0155 -2.8981 -1.1563
 1777TIP3   OH2 5271   0.714   6.073   5.081 -0.3327 -0.2653  0.4131
 1777TIP3    H1 5272   0.701   6.007   5.013  0.1803  1.4783 -1.4754
 1777TIP3    H2 5273   0.791   6.042   5.129  1.8623  0.3582 -2.3863
 1778TIP3   OH2 5274   1.321   6.514   1.791 -0.0644 -0.5893  0.0483
 1778TIP3    H1 5275   1.345   6.587   1.733 -0.5135 -1.2803 -1.0584
 1778TIP3    H2 5276   1.226   6.522   1.800  0.1530  0.3421  1.8929
 1779TIP3   OH2 5277   4.942   4.362   4.669  0.1563  0.3701 -0.3778
 1779TIP3    H1 5278   4.926   4.412   4.589  1.2867  0.8060 -0.3478
 1779TIP3    H2 5279   4.997   4.419   4.723  0.1398 -0.2710  0.3373
 1780TIP3   OH2 5280   4.271   0.947   0.929 -0.1525 -0.1887 -0.2624
 1780TIP3    H1 5281   4.226   0.983   0.852  0.8389 -0.1818 -0.8596
 1780TIP3    H2 5282   4.243   1.003   1.001 -0.4937  0.2960 -0.7579
 1781TIP3   OH2 5283   5.639   6.436   3.478 -0.0653  0.2008  0.0593
 1781TIP3    H1 5284   5.643   6.403   3.567  1.8343 -0.8491 -0.3575
 1781TIP3    H2 5285   5.660   6.530   3.487 -0.2638  0.1835  0.7526
 1782TIP3   OH2 5286   1.223   7.213   3.307 -0.3958  0.1494  0.2790
 1782TIP3    H1 5287   1.307   7.223   3.352 -0.5714  0.1745  0.6082
 1782TIP3    H2 5288   1.246   7.190   3.217 -0.0151  1.1647  0.0971
 1783TIP3   OH2 5289   5.514   2.441   5.288 -0.2014 -0.0364 -0.1950
 1783TIP3    H1 5290   5.599   2.440   5.246 -0.1568  0.9920 -0.1703
 1783TIP3    H2 5291   5.451   2.445   5.216 -0.1066  2.3616 -0.2338
 1784TIP3   OH2 5292   3.084   2.004   1.662 -0.3161  0.7057 -0.4549
 1784TIP3    H1 5293   2.989   2.016   1.660 -0.5509 -0.7348  0.6921
 1784TIP3    H2 5294   3.104   1.954   1.583 -0.6626  0.0777 -0.1466
 1785TIP3   OH2 5295   2.554   5.607   3.795 -0.1969  0.1102 -0.4464
 1785TIP3    H1 5296   2.590   5.623   3.882  0.6773 -0.9795 -0.5855
 1785TIP3    H2 5297   2.622   5.640   3.735 -0.6023  0.4581 -0.7226
 1786TIP3   OH2 5298   8.347   0.502   5.968 -0.2066  0.6679  0.4725
 1786TIP3    H1 5299   8.418   0.475   5.910  1.2516  1.9154  1.6004
 1786TIP3    H2 5300   8.267   0.486   5.917  0.6941 -2.5609 -0.1388
 1787TIP3   OH2 5301   6.057   7.240   3.101  0.2354 -0.0432  0.4044
 1787TIP3    H1 5302   6.020   7.283   3.178  0.6754  0.0217  0.5842
 1787TIP3    H2 5303   6.093   7.158   3.135 -1.0391 -0.8025 -0.0155
 1788TIP3   OH2 5304   0.409   7.186   4.612 -0.3091 -0.6371 -0.2202
 1788TIP3    H1 5305   0.393   7.259   4.672  0.6400 -1.3221  0.9163
 1788TIP3    H2 5306   0.389   7.221   4.525 -0.8043  0.6718  0.3929
 1789TIP3   OH2 5307   0.006   5.016   2.071 -0.3316 -0.3034 -0.0970
 1789TIP3    H1 5308   0.033   5.062   2.151 -0.5748 -0.6786  0.2027
 1789TIP3    H2 5309  -0.003   5.085   2.005  1.2958 -0.1459 -0.1978
 1790TIP3   OH2 5310   7.835   7.654   2.743  0.3325 -0.6809  0.1176
 1790TIP3    H1 5311   7.818   7.596   2.669 -0.3497 -1.2255  0.6850
 1790TIP3    H2 5312   7.879   7.598   2.807  1.8874  0.0473 -0.2655
 1791TIP3   OH2 5313   7.314   6.780   0.286  0.1893  0.6170 -0.0149
 1791TIP3    H1 5314   7.393   6.824   0.253 -1.0355  2.3157 -0.7818
 1791TIP3    H2 5315   7.275   6.739   0.209 -1.0537  2.0342 -0.1906
 1792TIP3   OH2 5316   2.065   1.547   1.529  0.5748  0.7430  0.2173
 1792TIP3    H1 5317   1.970   1.538   1.543  0.8748 -0.7712  1.5960
 1792TIP3    H2 5318   2.104   1.501   1.603  2.3688 -1.5840 -1.9871
 1793TIP3   OH2 5319   7.944   3.409   3.768  0.0545  0.0537 -0.7850
 1793TIP3    H1 5320   7.950   3.400   3.863  1.2028 -2.1735 -0.9945
 1793TIP3    H2 5321   7.850   3.414   3.751 -0.4910 -3.2857  0.3307
 1794TIP3   OH2 5322   1.660   3.505   6.139  0.8942  0.2721  0.4157
 1794TIP3    H1 5323   1.573   3.478   6.109  1.1523  1.8312 -1.9628
 1794TIP3    H2 5324   1.655   3.499   6.234 -1.7383  0.0859  0.3404
 1795TIP3   OH2 5325   2.992   1.984   3.280 -0.7792  0.1661 -0.2831
 1795TIP3    H1 5326   3.034   2.046   3.219 -2.5783  0.4531 -1.3022
 1795TIP3    H2 5327   3.037   1.901   3.265 -0.7901  0.3784 -1.6099
 1796TIP3   OH2 5328   8.301   6.138   0.682 -0.2649  0.3077  0.2264
 1796TIP3    H1 5329   8.251   6.189   0.618 -1.0241 -0.7691 -0.0697
 1796TIP3    H2 5330   8.372   6.196   0.709 -0.6510  1.2277 -0.6733
 1797TIP3   OH2 5331   5.719   0.990   5.348  0.3619 -0.1176 -0.1043
 1797TIP3    H1 5332   5.668   1.066   5.378 -0.5027 -0.6845 -0.0977
 1797TIP3    H2 5333   5.764   1.020   5.269  1.5446  0.9702  0.9258
 1798TIP3   OH2 5334   1.193   0.642   1.924  0.7936  0.0970 -0.6023
 1798TIP3    H1 5335   1.192   0.578   1.996 -0.4958 -1.2297 -1.7381
 1798TIP3    H2 5336   1.156   0.721   1.963  0.6123 -0.4307  0.3390
 1799TIP3   OH2 5337   2.806   2.239   4.236 -0.1645  0.0033 -0.4965
 1799TIP3    H1 5338   2.767   2.233   4.323  0.7362 -1.3400 -0.1346
 1799TIP3    H2 5339   2.890   2.282   4.250  1.1854 -2.5052 -0.1776
 1800TIP3   OH2 5340   6.754   6.353   2.688  0.1594  0.3148 -0.1560
 1800TIP3    H1 5341   6.831   6.324   2.737  0.8554  0.8099 -0.9311
 1800TIP3    H2 5342   6.689   6.373   2.756  0.8576  0.3137  0.5357
 1801TIP3   OH2 5343   6.183   3.187   4.876  0.0314 -0.8146  0.0154
 1801TIP3    H1 5344   6.266   3.211   4.918 -0.0050 -2.0279  0.8200
 1801TIP3    H2 5345   6.187   3.231   4.790  0.6472  0.7033  0.7728
 1802TIP3   OH2 5346   4.785   0.482   1.828  0.3352 -0.0261  0.0555
 1802TIP3    H1 5347   4.820   0.430   1.900  0.9438 -0.6744 -0.6882
 1802TIP3    H2 5348   4.845   0.466   1.755 -1.2233 -0.7678 -1.1180
 1803TIP3   OH2 5349   5.042   1.271   0.965  0.1898 -0.0852 -0.0893
 1803TIP3    H1 5350   4.959   1.294   0.922  0.2509  1.6801  0.6239
 1803TIP3    H2 5351   5.021   1.267   1.058  1.0550  1.4490  0.2207
 1804TIP3   OH2 5352   7.433   1.932   2.943 -0.0763 -0.7693 -0.9094
 1804TIP3    H1 5353   7.459   2.022   2.923  2.7143 -0.9911  1.0935
 1804TIP3    H2 5354   7.432   1.887   2.859 -2.9467  1.3300 -2.1636
 1805TIP3   OH2 5355   4.985   1.679   5.134 -0.0112  0.1484  0.1916
 1805TIP3    H1 5356   5.058   1.658   5.076 -0.7309  1.6097 -1.3394
 1805TIP3    H2 5357   4.969   1.773   5.119 -3.9492 -0.6035 -1.6773
 1806TIP3   OH2 5358   5.589   1.497   6.250  0.0176  0.5289 -0.3389
 1806TIP3    H1 5359   5.544   1.532   6.172 -0.1400  2.2213  0.4603
 1806TIP3    H2 5360   5.667   1.551   6.259 -0.9838  1.7374  1.7920
 1807TIP3   OH2 5361   2.462   0.409   3.300 -0.0031 -0.1766  0.1495
 1807TIP3    H1 5362   2.457   0.415   3.396 -0.1555  0.2392  0.1207
 1807TIP3    H2 5363   2.552   0.433   3.280 -0.2824  0.9191  0.1202
 1808TIP3   OH2 5364   4.519   4.394   0.220  0.0018 -0.3484  0.2298
 1808TIP3    H1 5365   4.580   4.361   0.154 -1.1787  1.0932 -1.6510
 1808TIP3    H2 5366   4.569   4.461   0.268 -0.1938  1.1708 -1.6104
 1809TIP3   OH2 5367   6.926   1.832   1.654  0.0501  0.9370  0.5988
 1809TIP3    H1 5368   6.862   1.871   1.713 -1.7706 -0.0785 -0.6180
 1809TIP3    H2 5369   6.920   1.884   1.573 -0.9201 -0.5350 -0.3166
 1810TIP3   OH2 5370   2.805   4.890   2.390  0.3023  0.2158 -0.1349
 1810TIP3    H1 5371   2.777   4.812   2.342  1.4015 -0.3940  0.1753
 1810TIP3    H2 5372   2.869   4.932   2.332  2.2799 -0.9839  1.0929
 1811TIP3   OH2 5373   1.982   1.014   1.833 -0.0709  0.9945 -0.0411
 1811TIP3    H1 5374   1.934   0.943   1.877 -1.2426  2.0888  0.5305
 1811TIP3    H2 5375   2.034   1.053   1.903  0.7205  0.6109 -0.3975
 1812TIP3   OH2 5376   7.223   4.700   3.859  0.4321  0.0344 -0.2228
 1812TIP3    H1 5377   7.166   4.734   3.928 -0.3906 -3.1766  0.8405
 1812TIP3    H2 5378   7.274   4.776   3.830  0.0679  1.7512  3.1695
 1813TIP3   OH2 5379   2.300   1.567   1.394  0.2389  0.2402 -1.0027
 1813TIP3    H1 5380   2.307   1.518   1.312 -0.2786 -2.4688  0.4414
 1813TIP3    H2 5381   2.208   1.560   1.418  0.5764  0.0410  0.3096
 1814TIP3   OH2 5382   2.695   7.879   2.628  0.3414 -0.1317  0.4172
 1814TIP3    H1 5383   2.778   7.833   2.618 -0.9431 -2.1293 -2.1593
 1814TIP3    H2 5384   2.638   7.817   2.674 -0.4738  0.1427 -0.1973
 1815TIP3   OH2 5385   7.686   6.964   0.752 -0.7332 -0.2806  0.1744
 1815TIP3    H1 5386   7.756   6.982   0.689 -1.4176  1.1616 -0.2249
 1815TIP3    H2 5387   7.730   6.956   0.836  0.1369 -1.6988 -0.3745
 1816TIP3   OH2 5388   1.061   4.922   2.550  0.3855 -0.1352  0.5521
 1816TIP3    H1 5389   1.055   5.006   2.597  4.1786  0.7288 -0.1969
 1816TIP3    H2 5390   1.153   4.897   2.558 -0.6096 -4.4101  0.8638
 1817TIP3   OH2 5391   4.853   1.691   0.678 -0.3013  0.7044 -0.4118
 1817TIP3    H1 5392   4.837   1.619   0.618  1.1915  1.6022 -2.0018
 1817TIP3    H2 5393   4.786   1.682   0.746  0.1745 -2.4567 -0.2154
 1818TIP3   OH2 5394   7.005   4.181   5.754  0.3804 -0.0587 -0.2692
 1818TIP3    H1 5395   7.000   4.227   5.838  0.6183  0.8875 -0.7572
 1818TIP3    H2 5396   7.092   4.141   5.753  0.3924 -0.0360 -0.0747
 1819TIP3   OH2 5397   7.049   3.723   2.418 -0.0441 -0.2421  0.0299
 1819TIP3    H1 5398   7.021   3.808   2.452 -0.1607 -0.9428  1.7628
 1819TIP3    H2 5399   7.001   3.713   2.335  0.6823  1.7590 -0.6836
 1820TIP3   OH2 5400   4.432   4.150   1.189 -0.2293 -0.2588  0.1153
 1820TIP3    H1 5401   4.441   4.195   1.105 -0.6787 -2.0705 -0.9518
 1820TIP3    H2 5402   4.343   4.170   1.217  0.0529  0.6806  0.3949
 1821TIP3   OH2 5403   6.575   3.317   2.447 -0.0644  0.0783  0.3871
 1821TIP3    H1 5404   6.498   3.317   2.391 -1.1448 -1.0795  1.7932
 1821TIP3    H2 5405   6.644   3.354   2.392 -1.0964 -0.7934 -1.6425
 1822TIP3   OH2 5406   4.461   1.231   3.067 -1.0201  0.3865 -0.4753
 1822TIP3    H1 5407   4.464   1.299   3.000 -1.9950  0.1848 -0.7427
 1822TIP3    H2 5408   4.514   1.160   3.032  1.0400  1.4367  0.3409
 1823TIP3   OH2 5409   6.147   4.944   4.906 -0.4775  0.3346 -0.0291
 1823TIP3    H1 5410   6.239   4.921   4.902 -0.6323 -0.1594 -1.5040
 1823TIP3    H2 5411   6.142   5.013   4.972  0.9815  0.5739 -0.1390
 1824TIP3   OH2 5412   6.191   4.272   6.020  0.2532 -0.3430  0.1555
 1824TIP3    H1 5413   6.177   4.192   5.970 -0.3275  0.3659 -0.8508
 1824TIP3    H2 5414   6.105   4.313   6.026  0.8347  1.2552 -1.2300
 1825TIP3   OH2 5415   5.436   7.789   0.759  0.4315 -0.0179  0.0450
 1825TIP3    H1 5416   5.494   7.865   0.765 -0.9751  1.2518 -1.4710
 1825TIP3    H2 5417   5.405   7.789   0.669  0.8901 -2.8372 -0.1936
 1826TIP3   OH2 5418   6.136   1.340   4.810 -0.0240 -0.4003  0.4638
 1826TIP3    H1 5419   6.159   1.329   4.903 -0.6089 -0.8634  0.5586
 1826TIP3    H2 5420   6.044   1.313   4.805  0.1531 -0.8627 -0.3452
 1827TIP3   OH2 5421   5.993   6.151   4.545  0.6041 -0.5360 -0.1439
 1827TIP3    H1 5422   6.042   6.092   4.602  0.4069 -1.4795 -0.9336
 1827TIP3    H2 5423   6.053   6.225   4.530  0.0043  0.6671  2.7272
 1828TIP3   OH2 5424   1.757   6.209   6.076 -0.0783  0.2502  0.4705
 1828TIP3    H1 5425   1.730   6.285   6.128  0.5469 -1.1694  3.0973
 1828TIP3    H2 5426   1.753   6.135   6.138  1.1921 -1.5248 -1.4162
 1829TIP3   OH2 5427   0.373   2.527   0.928  0.2632  0.0679 -0.3138
 1829TIP3    H1 5428   0.443   2.557   0.870 -1.6517  1.7895 -1.8771
 1829TIP3    H2 5429   0.383   2.432   0.931  1.5165  0.1026 -2.0230
 1830TIP3   OH2 5430   4.861   3.489   2.152  0.2311 -0.4856 -0.5115
 1830TIP3    H1 5431   4.818   3.496   2.237 -0.9739 -0.0144 -1.1373
 1830TIP3    H2 5432   4.790   3.496   2.088  1.0694 -1.1845 -1.5618
 1831TIP3   OH2 5433   3.224   6.815   1.230 -0.2489  0.8760 -0.3077
 1831TIP3    H1 5434   3.291   6.747   1.237 -0.5532  0.4175 -1.6294
 1831TIP3    H2 5435   3.269   6.896   1.252  0.2020  0.3033  0.9615
 1832TIP3   OH2 5436   8.168   6.774   0.269 -0.4786  0.2950 -0.4489
 1832TIP3    H1 5437   8.217   6.707   0.317 -2.7343 -0.6770  0.6644
 1832TIP3    H2 5438   8.152   6.735   0.183  0.5593  0.5887 -0.7935
 1833TIP3   OH2 5439   7.965   4.848   3.278  0.0027  0.4014  0.3666
 1833TIP3    H1 5440   7.906   4.779   3.246 -0.1065  0.9660 -0.7256
 1833TIP3    H2 5441   8.026   4.803   3.335  0.7512 -0.8665 -1.3335
 1834TIP3   OH2 5442   3.516   7.082   1.772 -0.1588  0.2448  0.0686
 1834TIP3    H1 5443   3.598   7.129   1.785  0.1735 -0.8445  2.4705
 1834TIP3    H2 5444   3.511   7.022   1.846 -1.8595 -1.6009 -1.4402
 1835TIP3   OH2 5445   5.808   0.334   4.867 -0.0885 -0.2151 -0.3607
 1835TIP3    H1 5446   5.749   0.406   4.848  1.1128  1.0480  0.4599
 1835TIP3    H2 5447   5.794   0.271   4.796 -1.2391  0.7751 -1.0376
 1836TIP3   OH2 5448   5.958   0.740   1.025  0.2532 -0.4213  0.0759
 1836TIP3    H1 5449   5.913   0.824   1.033  2.4482  0.8039  0.5748
 1836TIP3    H2 5450   6.036   0.750   1.080  1.2678 -2.2936 -0.9354
 1837TIP3   OH2 5451   6.518   4.276   1.881 -0.0578  0.2573 -0.0476
 1837TIP3    H1 5452   6.447   4.290   1.944 -1.1664 -1.0900 -0.9255
 1837TIP3    H2 5453   6.473   4.248   1.801  1.4284  0.1867 -0.8871
 1838TIP3   OH2 5454   1.463   2.207   2.620  0.3776 -0.2218  0.2157
 1838TIP3    H1 5455   1.534   2.269   2.608 -1.0730  1.4532 -0.0930
 1838TIP3    H2 5456   1.384   2.256   2.597 -0.7967 -2.3335 -0.5647
 1839TIP3   OH2 5457   0.501   7.016   2.068  0.3086  0.3343 -0.2427
 1839TIP3    H1 5458   0.437   6.951   2.040  1.3008 -1.4427  1.4049
 1839TIP3    H2 5459   0.562   7.023   1.994  1.0303 -1.7928  0.0796
 1840TIP3   OH2 5460   3.505   0.281   2.283 -0.4121  0.2159  0.4570
 1840TIP3    H1 5461   3.488   0.187   2.282  0.3802  0.0672  0.2589
 1840TIP3    H2 5462   3.430   0.320   2.238  0.8616 -0.5966 -2.5746
 1841TIP3   OH2 5463   0.068   2.251   0.312  0.1263  0.5009 -0.9113
 1841TIP3    H1 5464   0.074   2.176   0.371 -2.6985 -0.2343 -1.3983
 1841TIP3    H2 5465   0.113   2.223   0.233  1.5781  0.4591 -0.0955
 1842TIP3   OH2 5466   1.240   5.409   0.506 -0.4820 -0.1404 -0.2682
 1842TIP3    H1 5467   1.305   5.452   0.563 -0.3575  0.9278 -1.1873
 1842TIP3    H2 5468   1.249   5.316   0.526 -0.1071  0.1675  1.1104
 1843TIP3   OH2 5469   3.581   0.692   4.504 -0.2215 -0.1707  0.3355
 1843TIP3    H1 5470   3.611   0.601   4.494  1.7310  0.3258  1.0533
 1843TIP3    H2 5471   3.509   0.701   4.442  0.2033 -1.9313 -0.4843
 1844TIP3   OH2 5472   7.780   3.803   3.710  0.0408 -0.2532  0.2033
 1844TIP3    H1 5473   7.782   3.823   3.616  1.1879 -1.8879 -0.1642
 1844TIP3    H2 5474   7.725   3.726   3.717  0.8043 -0.7667  0.7240
 1845TIP3   OH2 5475   1.994   6.690   4.375 -0.0050  0.0223 -0.0269
 1845TIP3    H1 5476   2.003   6.716   4.467 -1.3921  2.2713 -0.4643
 1845TIP3    H2 5477   2.003   6.772   4.326  2.4168 -1.3439 -2.0866
 1846TIP3   OH2 5478   6.628   7.309   5.437  0.2929 -0.4164 -0.6278
 1846TIP3    H1 5479   6.686   7.251   5.387 -0.1567 -0.4860 -1.0826
 1846TIP3    H2 5480   6.604   7.259   5.515  0.1392 -0.7405 -0.8761
 1847TIP3   OH2 5481   1.113   6.023   0.989 -0.2308  0.4914  0.2740
 1847TIP3    H1 5482   1.183   5.982   1.039  0.3104 -0.6526 -1.3418
 1847TIP3    H2 5483   1.141   6.018   0.898 -1.1909  2.4879 -0.1976
 1848TIP3   OH2 5484   8.064   6.416   6.505 -0.0847  0.4853  0.2126
 1848TIP3    H1 5485   8.022   6.502   6.510 -0.7375  0.1830  0.0675
 1848TIP3    H2 5486   8.146   6.426   6.553  1.0250  1.8730 -1.8178
 1849TIP3   OH2 5487   6.016   6.145   1.452 -1.1964 -0.1883  0.4932
 1849TIP3    H1 5488   6.070   6.133   1.530 -1.2114  3.1509  1.1967
 1849TIP3    H2 5489   5.929   6.117   1.479 -0.9717 -0.1197  1.3348
 1850TIP3   OH2 5490   6.677   1.139   1.819  0.1985  0.4419  0.2589
 1850TIP3    H1 5491   6.666   1.176   1.731 -0.6522  1.0846  0.6236
 1850TIP3    H2 5492   6.597   1.162   1.865  0.0353 -1.0803  0.7934
 1851TIP3   OH2 5493   8.160   1.043   6.356  0.8104 -0.1239  0.2651
 1851TIP3    H1 5494   8.091   0.977   6.353 -0.6417  1.2605  1.4899
 1851TIP3    H2 5495   8.202   1.031   6.441 -0.4633  1.4382  1.1631
 1852TIP3   OH2 5496   5.748   4.497   5.294 -0.6867 -0.4083 -0.4492
 1852TIP3    H1 5497   5.839   4.479   5.319 -0.4783  0.5614 -0.4596
 1852TIP3    H2 5498   5.696   4.440   5.350 -0.1993  1.1654  1.7268
 1853TIP3   OH2 5499   3.014   7.169   5.763  0.4234 -0.1047  0.3881
 1853TIP3    H1 5500   2.973   7.100   5.815  1.0514 -0.7665  0.0163
 1853TIP3    H2 5501   2.967   7.168   5.679 -0.5471  0.9204  0.8796
 1854TIP3   OH2 5502   7.015   6.503   1.145  0.2563  0.0192 -0.3304
 1854TIP3    H1 5503   6.957   6.510   1.221  1.0233  1.5956  0.1597
 1854TIP3    H2 5504   7.103   6.491   1.183  0.8385  2.1427 -0.8566
 1855TIP3   OH2 5505  -0.023   3.678   5.156  0.2811 -0.3222  0.3106
 1855TIP3    H1 5506   0.009   3.685   5.066  1.0285 -2.1606  0.3931
 1855TIP3    H2 5507   0.054   3.651   5.206  0.1794  1.7830  1.7570
 1856TIP3   OH2 5508   1.982   0.625   5.861  0.2265 -0.0986 -0.2519
 1856TIP3    H1 5509   2.047   0.655   5.925 -1.2576  2.0328  0.3673
 1856TIP3    H2 5510   2.028   0.628   5.777  0.6807  2.6184 -0.0156
 1857TIP3   OH2 5511   3.273   5.102   2.475  0.2285  0.0647 -0.3754
 1857TIP3    H1 5512   3.358   5.102   2.519 -0.6357  0.9948  1.4028
 1857TIP3    H2 5513   3.218   5.044   2.528 -0.8220  1.1689 -0.2080
 1858TIP3   OH2 5514   7.371   6.652   0.955 -0.0048  0.4495  0.1445
 1858TIP3    H1 5515   7.416   6.648   1.040  0.7805  1.2671 -0.2022
 1858TIP3    H2 5516   7.389   6.741   0.924  0.6524 -0.1766 -1.3675
 1859TIP3   OH2 5517   2.793   3.286   2.316 -0.1657 -0.2829 -0.0352
 1859TIP3    H1 5518   2.831   3.198   2.318 -0.0346 -0.2043  1.3794
 1859TIP3    H2 5519   2.744   3.288   2.234  2.0217 -0.7182 -1.4340
 1860TIP3   OH2 5520   3.904   0.594   1.078 -0.5355  0.3771 -0.0642
 1860TIP3    H1 5521   3.864   0.575   1.162 -2.5342 -0.9564 -1.2319
 1860TIP3    H2 5522   3.895   0.689   1.068  0.2046  0.6225  1.4167
 1861TIP3   OH2 5523   1.543   0.518   4.966  0.3917 -0.7950  0.5910
 1861TIP3    H1 5524   1.572   0.509   5.057 -0.5148  2.8971  1.4303
 1861TIP3    H2 5525   1.451   0.542   4.973  0.6887  1.1537 -1.1229
 1862TIP3   OH2 5526   6.283   7.839   6.380  0.4323  0.0116 -0.0189
 1862TIP3    H1 5527   6.293   7.744   6.390  0.9889  0.1323  0.6269
 1862TIP3    H2 5528   6.191   7.856   6.397 -0.2884 -0.7144 -2.6915
 1863TIP3   OH2 5529   3.370   6.366   4.303  0.0072 -0.3329 -0.0280
 1863TIP3    H1 5530   3.458   6.355   4.266  0.2464  0.0832  0.4038
 1863TIP3    H2 5531   3.317   6.395   4.229  0.8096  1.9859  0.2185
 1864TIP3   OH2 5532   5.146   7.874   4.946 -0.3229  0.1799 -0.0453
 1864TIP3    H1 5533   5.168   7.949   4.892  1.5996  1.9170  2.8693
 1864TIP3    H2 5534   5.214   7.872   5.014 -0.7325 -3.7599  0.4966
 1865TIP3   OH2 5535   6.497   1.673   2.103  0.0844 -0.3359  0.3037
 1865TIP3    H1 5536   6.485   1.578   2.108 -0.9704 -0.1570  2.5318
 1865TIP3    H2 5537   6.427   1.704   2.046 -1.8096 -0.6406  2.3085
 1866TIP3   OH2 5538   6.076   4.304   0.968 -0.3352  0.0267  0.0037
 1866TIP3    H1 5539   6.087   4.390   0.928  0.1905 -0.2245 -0.4009
 1866TIP3    H2 5540   5.985   4.281   0.953 -0.1192 -0.1235 -1.1798
 1867TIP3   OH2 5541   6.902   1.014   1.764  0.1458  0.4404 -0.0968
 1867TIP3    H1 5542   6.886   0.920   1.763  2.5748 -0.0515 -1.4536
 1867TIP3    H2 5543   6.816   1.054   1.774 -0.9743 -1.9035  0.1554
 1868TIP3   OH2 5544   3.864   4.427   6.270 -0.3942  0.4450  0.5776
 1868TIP3    H1 5545   3.907   4.345   6.295  0.1665  0.0619 -1.5105
 1868TIP3    H2 5546   3.931   4.476   6.222 -0.6801  2.2189  1.8769
 1869TIP3   OH2 5547   7.043   1.754   3.332 -0.2170 -0.0125  1.0837
 1869TIP3    H1 5548   7.083   1.789   3.252 -1.6742  1.1557  0.8370
 1869TIP3    H2 5549   7.117   1.717   3.381  0.6638 -1.0439 -0.9217
 1870TIP3   OH2 5550   7.284   4.856   6.388 -0.3095  0.0082  0.0740
 1870TIP3    H1 5551   7.290   4.913   6.464 -2.2667  1.2040 -0.6021
 1870TIP3    H2 5552   7.342   4.896   6.323 -1.1186  0.8408 -0.1477
 1871TIP3   OH2 5553   2.848   5.208   5.428  0.1379  0.1540  0.4626
 1871TIP3    H1 5554   2.850   5.239   5.518 -0.4535  2.2457 -0.2048
 1871TIP3    H2 5555   2.846   5.287   5.374 -0.9278 -1.0250 -1.3574
 1872TIP3   OH2 5556   5.422   1.804   5.505 -0.3045  0.1265  0.4765
 1872TIP3    H1 5557   5.363   1.855   5.451 -0.3524  0.5275  0.9047
 1872TIP3    H2 5558   5.441   1.860   5.580  0.7692  0.0865  0.2551
 1873TIP3   OH2 5559   4.106   0.386   5.272  0.4358  0.3917  0.0208
 1873TIP3    H1 5560   4.078   0.398   5.363  0.5295  0.1922  0.0768
 1873TIP3    H2 5561   4.130   0.474   5.243  1.0214  0.3621  0.3955
 1874TIP3   OH2 5562   6.281   4.561   6.792  0.3409  0.2402 -0.2458
 1874TIP3    H1 5563   6.242   4.547   6.706  2.8497 -0.3514 -1.3842
 1874TIP3    H2 5564   6.291   4.656   6.798  0.8212  0.2429 -0.9580
 1875TIP3   OH2 5565   3.568   7.013   1.456 -0.0541 -0.6153 -0.0841
 1875TIP3    H1 5566   3.506   7.071   1.412  0.1989 -0.2037  0.0896
 1875TIP3    H2 5567   3.562   7.036   1.548 -0.0074 -0.9217 -0.0036
 1876TIP3   OH2 5568   3.230   2.882   1.565 -0.0350 -0.5584 -0.4141
 1876TIP3    H1 5569   3.160   2.926   1.517 -0.2510 -0.0949  0.3183
 1876TIP3    H2 5570   3.311   2.917   1.528 -0.1636 -1.3045 -1.4630
 1877TIP3   OH2 5571   7.886   6.577   5.655 -0.0995 -0.2620 -0.1527
 1877TIP3    H1 5572   7.883   6.505   5.592  1.3582 -0.6098  0.1385
 1877TIP3    H2 5573   7.978   6.583   5.680 -0.4834  0.5590  1.1579
 1878TIP3   OH2 5574   6.692   7.658   2.224  0.0629  0.2708  0.5164
 1878TIP3    H1 5575   6.665   7.707   2.146  1.8665 -0.8131 -0.8776
 1878TIP3    H2 5576   6.611   7.623   2.260 -0.6714 -1.5818 -2.5744
 1879TIP3   OH2 5577   5.387   3.970   3.633 -0.5792  0.2582  0.4575
 1879TIP3    H1 5578   5.306   4.018   3.620 -0.6363 -0.4265 -2.6997
 1879TIP3    H2 5579   5.456   4.034   3.617 -0.4450  0.6723  2.4513
 1880TIP3   OH2 5580   2.934   3.456   6.512  0.3357 -0.4268  0.2326
 1880TIP3    H1 5581   2.863   3.400   6.543  0.3736 -1.6829 -1.7603
 1880TIP3    H2 5582   2.889   3.529   6.470  0.2877  0.4693  1.7503
 1881TIP3   OH2 5583   2.101   3.364   3.800 -0.0174  0.2952  0.0704
 1881TIP3    H1 5584   2.020   3.317   3.781 -1.1337  2.1295  0.0906
 1881TIP3    H2 5585   2.080   3.419   3.876  0.4449  2.6504 -1.4160
 1882TIP3   OH2 5586   0.205   2.518   1.325  0.6668 -0.2229 -0.2653
 1882TIP3    H1 5587   0.271   2.456   1.295 -1.1447 -1.5012 -1.8720
 1882TIP3    H2 5588   0.246   2.564   1.398  2.7943 -1.9104 -0.3144
 1883TIP3   OH2 5589   3.952   2.518   2.836 -0.0166  0.5050  0.3016
 1883TIP3    H1 5590   3.936   2.451   2.902  0.8941  0.6953  0.7396
 1883TIP3    H2 5591   3.871   2.568   2.831 -0.3566 -0.0012  0.7048
 1884TIP3   OH2 5592   5.644   6.261   0.232  1.0230  0.1328 -0.5660
 1884TIP3    H1 5593   5.623   6.168   0.243  0.3688 -0.0511 -3.0050
 1884TIP3    H2 5594   5.600   6.304   0.306 -0.7909 -1.2209 -0.7867
 1885TIP3   OH2 5595   2.740   0.776   4.265 -0.1006 -0.1581  0.0754
 1885TIP3    H1 5596   2.656   0.730   4.272  1.0024 -2.4349 -0.5690
 1885TIP3    H2 5597   2.761   0.802   4.355 -1.9939  1.5373  0.1058
 1886TIP3   OH2 5598   1.235   4.613   4.242 -0.0282  0.3624  0.0747
 1886TIP3    H1 5599   1.273   4.682   4.187 -1.3048  0.5171 -0.6597
 1886TIP3    H2 5600   1.303   4.594   4.306  1.0457  1.0367 -0.8123
 1887TIP3   OH2 5601   3.124   0.108   2.831 -0.7175 -0.0206  0.0086
 1887TIP3    H1 5602   3.194   0.064   2.782 -0.3608 -1.0058  1.3213
 1887TIP3    H2 5603   3.077   0.036   2.874 -1.6269  0.7342  0.2922
 1888TIP3   OH2 5604   5.313   2.470   5.090 -0.1381  0.1091 -0.6514
 1888TIP3    H1 5605   5.348   2.465   5.001 -0.4068 -0.2131 -0.7446
 1888TIP3    H2 5606   5.255   2.546   5.089 -0.6955 -0.3057 -0.9611
 1889TIP3   OH2 5607   4.459   3.734   3.679 -0.1021  0.4012  0.3342
 1889TIP3    H1 5608   4.519   3.808   3.689 -2.6470  2.3248  3.1931
 1889TIP3    H2 5609   4.507   3.659   3.713  0.8111  1.8355  2.4025
 1890TIP3   OH2 5610   0.945   5.652   0.800 -0.4525 -0.0264 -0.4977
 1890TIP3    H1 5611   1.005   5.614   0.864 -2.5028 -2.4534  0.1173
 1890TIP3    H2 5612   0.871   5.683   0.852 -0.8360  0.7184 -1.4531
 1891TIP3   OH2 5613   0.082   3.992   2.810  0.4029  0.6535  0.2648
 1891TIP3    H1 5614   0.157   3.999   2.869  0.8752  1.1181 -0.3725
 1891TIP3    H2 5615   0.119   4.009   2.723 -0.6167  1.9406  0.0579
 1892TIP3   OH2 5616   0.137   5.446   5.885 -0.5414 -0.2366 -0.3192
 1892TIP3    H1 5617   0.191   5.375   5.919  1.7968  1.7165  0.3579
 1892TIP3    H2 5618   0.186   5.526   5.907 -3.1539  1.6220 -0.7983
 1893TIP3   OH2 5619   4.835   5.778   0.538  0.6105  0.0071  0.7618
 1893TIP3    H1 5620   4.773   5.837   0.495  1.0714 -0.1376 -0.1136
 1893TIP3    H2 5621   4.807   5.690   0.511  1.9745 -0.0041 -0.7312
 1894TIP3   OH2 5622   8.375   0.734   0.232  0.4599  0.6248  0.1372
 1894TIP3    H1 5623   8.409   0.801   0.291  0.4531  0.1273  0.7121
 1894TIP3    H2 5624   8.380   0.652   0.282  2.2480 -0.1673 -1.1841
 1895TIP3   OH2 5625   7.484   4.994   1.547 -0.1723  0.2223 -0.0828
 1895TIP3    H1 5626   7.445   4.917   1.507  0.2428  1.0531 -2.2319
 1895TIP3    H2 5627   7.578   4.982   1.535  0.0856 -0.0538  1.8066
 1896TIP3   OH2 5628   7.642   1.126   4.201 -0.4443 -0.6270  0.1518
 1896TIP3    H1 5629   7.550   1.135   4.177 -0.4910  0.3360  0.6653
 1896TIP3    H2 5630   7.650   1.169   4.286  0.6352  0.0187 -0.2532
 1897TIP3   OH2 5631   3.439   2.670   4.094  0.1345 -0.5017  0.3672
 1897TIP3    H1 5632   3.501   2.742   4.091 -0.8451  0.3754  0.5625
 1897TIP3    H2 5633   3.412   2.657   4.003  2.4241 -2.5659 -0.1117
 1898TIP3   OH2 5634   7.807   6.953   0.023  0.4214  0.3025 -0.6403
 1898TIP3    H1 5635   7.875   6.887   0.041  0.6856  1.1733  2.1504
 1898TIP3    H2 5636   7.726   6.903   0.021  0.5658 -0.2021  1.8494
 1899TIP3   OH2 5637   0.270   4.754   0.842  0.2571 -0.2956 -0.7357
 1899TIP3    H1 5638   0.334   4.813   0.882  0.5437 -0.3071 -1.1759
 1899TIP3    H2 5639   0.321   4.699   0.783  0.1007 -1.4884  0.2094
 1900TIP3   OH2 5640   7.697   4.203   3.746 -0.4571 -0.3347  0.2846
 1900TIP3    H1 5641   7.690   4.108   3.757 -0.8231 -0.3592 -0.1617
 1900TIP3    H2 5642   7.709   4.236   3.835  1.4801 -0.9498  0.3044
 1901TIP3   OH2 5643   1.098   0.300   3.160 -0.5508  0.7360  0.5356
 1901TIP3    H1 5644   1.180   0.253   3.176 -0.6755  0.2307 -0.2254
 1901TIP3    H2 5645   1.124   0.376   3.107 -0.7358 -0.2712 -1.0846
 1902TIP3   OH2 5646   3.619   3.338   5.306 -0.5153  0.6758  0.1273
 1902TIP3    H1 5647   3.688   3.360   5.368  0.3407 -0.0217 -0.5484
 1902TIP3    H2 5648   3.549   3.301   5.360  0.2416  0.0201  0.6758
 1903TIP3   OH2 5649   0.003   4.510   4.147  0.0464  0.0243  0.6427
 1903TIP3    H1 5650   0.073   4.464   4.100 -0.6486  0.1492 -0.5480
 1903TIP3    H2 5651   0.044   4.592   4.177  0.1702  0.5726 -0.9323
 1904TIP3   OH2 5652   7.374   7.724   3.961  0.4138  0.3076 -0.0484
 1904TIP3    H1 5653   7.393   7.797   4.020  1.0336 -0.4096  0.6571
 1904TIP3    H2 5654   7.348   7.766   3.879  3.3157  1.4158 -0.5450
 1905TIP3   OH2 5655   4.551   3.542   0.377  0.0768 -0.6043 -0.1473
 1905TIP3    H1 5656   4.515   3.610   0.433 -1.5860 -2.7663  1.5841
 1905TIP3    H2 5657   4.604   3.589   0.313 -0.8744  2.2635  1.0261
 1906TIP3   OH2 5658   1.780   7.608   1.624 -0.1445  0.0661  0.0673
 1906TIP3    H1 5659   1.803   7.673   1.558  2.2689 -1.8318 -1.1424
 1906TIP3    H2 5660   1.693   7.577   1.597  0.0698  0.5146 -1.2245
 1907TIP3   OH2 5661   3.738   3.512   3.695  0.1689 -0.1692 -0.2038
 1907TIP3    H1 5662   3.792   3.534   3.619  0.4578 -1.2077 -0.3143
 1907TIP3    H2 5663   3.800   3.477   3.759  0.0906  1.6854  0.9380
 1908TIP3   OH2 5664   0.970   7.322   0.727  0.3132  0.1908 -0.1286
 1908TIP3    H1 5665   0.996   7.328   0.819  0.8483  0.8003 -0.3184
 1908TIP3    H2 5666   0.957   7.229   0.712 -1.1329  0.1845  0.9416
 1909TIP3   OH2 5667   6.986   2.090   1.237  0.1554  0.1757  0.4618
 1909TIP3    H1 5668   6.987   2.184   1.255  1.8191  0.8337 -2.4103
 1909TIP3    H2 5669   7.034   2.050   1.310 -2.5972  1.1379  2.9979
 1910TIP3   OH2 5670   7.820   1.766   4.568 -0.1949 -0.2444  0.1899
 1910TIP3    H1 5671   7.824   1.708   4.645  0.5763 -0.5197 -0.0470
 1910TIP3    H2 5672   7.771   1.842   4.598 -1.9731 -1.3681  0.2692
 1911TIP3   OH2 5673   6.649   7.189   3.048  0.0451 -0.1844  0.1636
 1911TIP3    H1 5674   6.738   7.225   3.044  1.0899 -2.2874  2.1443
 1911TIP3    H2 5675   6.641   7.139   2.966 -0.2477  1.8214 -1.1066
 1912TIP3   OH2 5676   7.391   0.495   3.237  0.4379 -0.2234 -0.4136
 1912TIP3    H1 5677   7.449   0.419   3.229  1.2477  0.4987 -1.7325
 1912TIP3    H2 5678   7.433   0.563   3.184 -0.3275  1.1193  0.6326
 1913TIP3   OH2 5679   2.806   3.336   6.068 -0.1502 -0.5216 -0.3478
 1913TIP3    H1 5680   2.897   3.320   6.093  0.0924 -2.1732 -2.0465
 1913TIP3    H2 5681   2.755   3.288   6.134  0.1956  0.0314  0.3437
 1914TIP3   OH2 5682   7.380   2.330   5.220  0.1540 -0.0489 -0.0544
 1914TIP3    H1 5683   7.333   2.360   5.143 -1.3079 -1.0413  0.4181
 1914TIP3    H2 5684   7.396   2.409   5.271  1.2731  0.6478 -1.3922
 1915TIP3   OH2 5685   7.428   7.819   1.435 -0.2652 -0.2628  0.0099
 1915TIP3    H1 5686   7.400   7.738   1.478 -1.2927  0.1206  0.0805
 1915TIP3    H2 5687   7.483   7.862   1.500  0.3972 -0.9527 -0.0737
 1916TIP3   OH2 5688   0.707   7.175   2.366  0.7084 -0.2049 -0.1141
 1916TIP3    H1 5689   0.742   7.203   2.451  0.4956  1.4855 -0.5548
 1916TIP3    H2 5690   0.743   7.238   2.304 -1.5151  0.3998 -0.8580
 1917TIP3   OH2 5691   3.029   6.163   2.992 -0.5041 -0.1946 -0.3023
 1917TIP3    H1 5692   2.980   6.245   3.000 -0.1806  0.1858 -1.8780
 1917TIP3    H2 5693   2.965   6.095   3.014 -1.5873  0.3296 -1.6539
 1918TIP3   OH2 5694   0.552   4.393   6.017  0.2089  0.1492  0.2259
 1918TIP3    H1 5695   0.488   4.461   6.041 -0.6832 -0.8096  0.6441
 1918TIP3    H2 5696   0.636   4.439   6.016 -0.3059  1.1606  1.0009
 1919TIP3   OH2 5697   6.463   2.236   1.193  0.1523  0.7119  0.3331
 1919TIP3    H1 5698   6.504   2.153   1.169  0.5248  0.9307  0.2035
 1919TIP3    H2 5699   6.371   2.224   1.174  0.2985  0.5369 -0.2614
 1920TIP3   OH2 5700   2.061   1.447   3.369 -0.2059 -0.2576 -0.2150
 1920TIP3    H1 5701   2.126   1.431   3.300  0.9466 -0.9068  0.9702
 1920TIP3    H2 5702   1.977   1.441   3.324  0.5189 -0.1816 -1.6505
 1921TIP3   OH2 5703   0.190   6.307   1.987  0.3939 -0.4618  0.0373
 1921TIP3    H1 5704   0.259   6.255   1.947 -0.7349 -0.8776 -1.4967
 1921TIP3    H2 5705   0.117   6.246   1.996 -0.9017  0.7177 -1.6122
 1922TIP3   OH2 5706   8.252   4.529   6.346 -0.1688  0.3210  0.2039
 1922TIP3    H1 5707   8.225   4.445   6.382  0.7519 -0.0443  0.0785
 1922TIP3    H2 5708   8.237   4.522   6.252  1.5840 -0.4020 -0.0603
 1923TIP3   OH2 5709   8.026   6.689   4.974 -0.4694 -0.0178  0.1714
 1923TIP3    H1 5710   8.100   6.655   5.023 -0.7049  0.1676  0.6678
 1923TIP3    H2 5711   8.041   6.661   4.884 -0.4431 -1.0864  0.4845
 1924TIP3   OH2 5712   1.856   2.742   2.380 -0.0304 -0.0552 -0.4351
 1924TIP3    H1 5713   1.773   2.770   2.341 -0.3561 -1.9262 -1.1911
 1924TIP3    H2 5714   1.856   2.647   2.371  1.3980 -0.2653  1.2032
 1925TIP3   OH2 5715   7.919   1.171   5.212 -0.0800  0.5413 -0.2103
 1925TIP3    H1 5716   7.834   1.136   5.184 -0.4231  0.2496  1.1505
 1925TIP3    H2 5717   7.918   1.163   5.307  1.2732  1.0178 -0.1434
 1926TIP3   OH2 5718   5.294   1.562   4.318 -0.3102  0.2388  0.9527
 1926TIP3    H1 5719   5.241   1.484   4.334 -1.7611  1.7404  4.3016
 1926TIP3    H2 5720   5.247   1.608   4.248  0.4943 -1.6947 -0.9765
 1927TIP3   OH2 5721   2.297   3.555   3.177 -0.1198 -0.2022  0.0799
 1927TIP3    H1 5722   2.290   3.480   3.118  0.5649  0.0751 -0.3628
 1927TIP3    H2 5723   2.385   3.589   3.162 -0.6812  1.1359 -0.2743
 1928TIP3   OH2 5724   6.783   0.457   0.859 -0.0417  0.4126  0.0472
 1928TIP3    H1 5725   6.850   0.524   0.866 -0.8458  1.3640 -0.9740
 1928TIP3    H2 5726   6.730   0.468   0.938 -1.0471  2.0136 -0.8022
 1929TIP3   OH2 5727   3.714   2.665   2.079  0.2942  0.9257 -0.0664
 1929TIP3    H1 5728   3.685   2.617   2.001  1.4164  0.0023  0.0548
 1929TIP3    H2 5729   3.810   2.662   2.075  0.4191 -0.3412  2.0094
 1930TIP3   OH2 5730   6.988   2.246   3.713  0.3868 -0.3474  0.3278
 1930TIP3    H1 5731   6.998   2.164   3.762 -1.7033 -1.5496 -1.0908
 1930TIP3    H2 5732   7.064   2.248   3.655  0.5552 -1.2057  0.5022
 1931TIP3   OH2 5733   6.793   2.611   1.203 -0.1029  0.3073  0.0309
 1931TIP3    H1 5734   6.719   2.557   1.232 -0.9655  0.3660 -1.8882
 1931TIP3    H2 5735   6.851   2.615   1.278 -1.4106 -0.8850  1.1584
 1932TIP3   OH2 5736   3.757   2.487   4.340 -0.3738 -0.2858  0.2846
 1932TIP3    H1 5737   3.849   2.491   4.314 -0.2674  1.1125  0.8016
 1932TIP3    H2 5738   3.757   2.434   4.420 -0.4599 -2.9265 -1.3243
 1933TIP3   OH2 5739   5.439   4.239   0.501  0.2761  0.3520  0.0030
 1933TIP3    H1 5740   5.466   4.299   0.431 -0.6797  0.3075 -0.4179
 1933TIP3    H2 5741   5.490   4.267   0.577  1.8712 -0.0541 -0.8660
 1934TIP3   OH2 5742   7.498   4.978   4.577  0.0139  0.9389  0.2809
 1934TIP3    H1 5743   7.490   4.917   4.650 -1.6834  1.8784  0.9380
 1934TIP3    H2 5744   7.592   4.985   4.562  0.4207  0.7311  2.3887
 1935TIP3   OH2 5745   2.016   0.884   6.743  0.1213 -0.6939 -0.1334
 1935TIP3    H1 5746   1.942   0.885   6.803  0.3585 -0.6977  0.1594
 1935TIP3    H2 5747   1.977   0.867   6.657 -0.0957 -1.9656  0.1970
 1936TIP3   OH2 5748   7.016   3.247   3.077  0.2575 -0.0829  0.0375
 1936TIP3    H1 5749   7.037   3.232   3.169  1.7380  0.4313 -0.1883
 1936TIP3    H2 5750   7.061   3.176   3.031 -2.1719 -1.5865 -0.1806
 1937TIP3   OH2 5751   4.928   5.010   0.568  0.0201 -0.1604 -0.0449
 1937TIP3    H1 5752   4.961   5.092   0.530  2.1563  0.2982  2.4900
 1937TIP3    H2 5753   4.855   5.037   0.623 -0.7086 -0.3050 -0.9250
 1938TIP3   OH2 5754   7.986   7.016   6.778  0.3104 -0.0658  0.2964
 1938TIP3    H1 5755   8.000   7.053   6.691  0.4850 -0.2953  0.2253
 1938TIP3    H2 5756   8.073   7.012   6.817  0.2067  0.2383  0.5664
 1939TIP3   OH2 5757   4.927   3.563   0.254 -0.0542  0.5115  0.5199
 1939TIP3    H1 5758   5.016   3.597   0.246  1.0124 -2.3022 -1.2423
 1939TIP3    H2 5759   4.929   3.505   0.330  0.3131 -1.1606 -0.6929
 1940TIP3   OH2 5760   3.734   1.638   5.969  0.2225  0.0641 -0.3391
 1940TIP3    H1 5761   3.821   1.600   5.978 -0.3508 -1.1715  0.1811
 1940TIP3    H2 5762   3.678   1.582   6.022 -1.1506 -0.0609 -1.8402
 1941TIP3   OH2 5763   1.214   6.796   5.043 -0.1537  0.2287  0.0988
 1941TIP3    H1 5764   1.155   6.838   5.106  1.0693 -0.3109  1.6838
 1941TIP3    H2 5765   1.224   6.860   4.972 -2.0667  0.6015  0.1086
 1942TIP3   OH2 5766   4.342   1.097   3.697  0.0678 -0.6439 -0.5390
 1942TIP3    H1 5767   4.348   1.192   3.705 -1.6090 -0.4899 -0.7202
 1942TIP3    H2 5768   4.292   1.083   3.616  0.0577 -1.6677 -0.3679
 1943TIP3   OH2 5769   0.655   2.556   1.830  0.1822  0.3957  0.5809
 1943TIP3    H1 5770   0.578   2.502   1.849  0.8750 -0.0612  2.3007
 1943TIP3    H2 5771   0.725   2.493   1.814  0.0987  0.8001 -1.6541
 1944TIP3   OH2 5772   0.464   3.136   2.721 -0.1614  0.6986 -0.2379
 1944TIP3    H1 5773   0.402   3.068   2.743  0.9286 -0.2556 -0.0143
 1944TIP3    H2 5774   0.410   3.211   2.695 -1.3795 -0.0562  0.0565
 1945TIP3   OH2 5775   0.172   5.193   1.751 -0.2856 -0.1725  0.0045
 1945TIP3    H1 5776   0.253   5.211   1.798  0.1102 -1.0521 -0.3263
 1945TIP3    H2 5777   0.193   5.118   1.695 -1.0470  0.1915 -0.7896
 1946TIP3   OH2 5778   0.836   1.921   4.653 -0.1029  0.2234  0.5544
 1946TIP3    H1 5779   0.868   1.978   4.583 -0.5205  0.4440  0.5397
 1946TIP3    H2 5780   0.746   1.951   4.669 -0.4809 -0.7171  0.2415
 1947TIP3   OH2 5781   3.161   7.310   1.604  0.2341 -0.2552  0.2743
 1947TIP3    H1 5782   3.151   7.231   1.657 -0.7230  0.7467  1.6335
 1947TIP3    H2 5783   3.248   7.343   1.627 -0.0654  0.0243  1.0407
 1948TIP3   OH2 5784   8.086   5.079   2.787  0.2162 -0.2637 -0.7755
 1948TIP3    H1 5785   8.004   5.095   2.834 -0.3126  2.9157 -2.4829
 1948TIP3    H2 5786   8.080   4.989   2.757 -1.2655 -1.0498  1.6274
 1949TIP3   OH2 5787   7.404   0.499   6.352  0.3688 -0.1691 -0.0138
 1949TIP3    H1 5788   7.358   0.559   6.294  0.9639  0.0534 -0.2662
 1949TIP3    H2 5789   7.425   0.424   6.297  1.4807  0.3095 -0.2623
 1950TIP3   OH2 5790   7.327   5.161   4.954 -0.5030  0.1980  0.0025
 1950TIP3    H1 5791   7.338   5.073   4.989 -0.5516  0.9105  1.9106
 1950TIP3    H2 5792   7.233   5.168   4.937 -0.4081 -0.3228 -0.7891
 1951TIP3   OH2 5793   5.340   0.389   2.142 -0.1581 -0.0382  0.1427
 1951TIP3    H1 5794   5.406   0.369   2.209 -1.4404 -0.8360  1.2183
 1951TIP3    H2 5795   5.268   0.428   2.191 -1.1514 -0.6945 -0.7686
 1952TIP3   OH2 5796   7.905   1.794   3.085  0.0573 -0.1194  0.3764
 1952TIP3    H1 5797   7.932   1.864   3.145 -0.0412 -0.4874  0.8548
 1952TIP3    H2 5798   7.972   1.794   3.016 -0.9497  1.7085 -0.6769
 1953TIP3   OH2 5799   2.317   0.082   6.590 -0.2783 -0.0704  0.1919
 1953TIP3    H1 5800   2.347   0.099   6.501  0.5839 -1.0264  0.2800
 1953TIP3    H2 5801   2.268   0.161   6.614 -2.5443 -0.7260 -1.9524
 1954TIP3   OH2 5802   0.659   7.863   4.794  0.5325 -0.1990 -0.0982
 1954TIP3    H1 5803   0.691   7.943   4.752 -1.1615  0.9631  0.7102
 1954TIP3    H2 5804   0.695   7.866   4.882 -1.8389  1.3183  0.9519
 1955TIP3   OH2 5805   6.830   1.146   0.163 -0.1396  0.1386 -0.3358
 1955TIP3    H1 5806   6.859   1.123   0.251  1.5686 -0.3364 -0.9643
 1955TIP3    H2 5807   6.767   1.217   0.175  1.9603  1.8854  1.1880
 1956TIP3   OH2 5808   1.218   4.895   1.487  0.4278 -0.6237 -0.0824
 1956TIP3    H1 5809   1.175   4.978   1.508  0.3469 -0.6694 -0.0670
 1956TIP3    H2 5810   1.235   4.899   1.393  0.3881 -0.6059 -0.0887
 1957TIP3   OH2 5811   2.592   4.033   5.518  0.4148 -0.6801 -1.0952
 1957TIP3    H1 5812   2.671   4.015   5.569  0.1019  0.6753 -0.0596
 1957TIP3    H2 5813   2.530   4.068   5.582 -0.2940  0.2523 -2.2493
 1958TIP3   OH2 5814   2.316   0.596   6.176  0.6346 -0.2230  0.3761
 1958TIP3    H1 5815   2.240   0.653   6.167 -0.3034 -1.3583  0.8958
 1958TIP3    H2 5816   2.344   0.607   6.267  0.1290 -0.9715  0.6282
 1959TIP3   OH2 5817   6.627   6.732   0.149  0.0792  0.0885  0.4306
 1959TIP3    H1 5818   6.684   6.809   0.154 -0.9292  0.9525 -0.8124
 1959TIP3    H2 5819   6.646   6.684   0.230  0.6952  1.6571  1.2780
 1960TIP3   OH2 5820   7.761   6.885   6.822  0.4496 -0.0635 -0.3711
 1960TIP3    H1 5821   7.740   6.877   6.915  0.4571  2.2093 -0.1160
 1960TIP3    H2 5822   7.850   6.921   6.820  2.0484 -3.6164 -1.3782
 1961TIP3   OH2 5823   0.557   0.458   4.759  0.3445 -0.1269 -0.5043
 1961TIP3    H1 5824   0.545   0.472   4.853  0.4929  0.8819 -0.6226
 1961TIP3    H2 5825   0.634   0.511   4.736 -0.2338  0.3663 -1.3578
 1962TIP3   OH2 5826   3.593   7.729   3.182 -0.1185  0.3274 -0.3066
 1962TIP3    H1 5827   3.511   7.774   3.162  0.6268  1.6168 -0.5673
 1962TIP3    H2 5828   3.661   7.794   3.166  1.0974 -1.1971 -1.7436
 1963TIP3   OH2 5829   4.646   4.983   4.273 -0.0351 -0.2152 -0.2827
 1963TIP3    H1 5830   4.681   4.995   4.184 -0.7952  1.9933 -0.3548
 1963TIP3    H2 5831   4.709   5.030   4.329 -0.8509  0.5411  0.0230
 1964TIP3   OH2 5832   8.315   6.665   4.711  0.0264  0.4500  0.6987
 1964TIP3    H1 5833   8.250   6.600   4.686 -0.1675  0.5005  1.0764
 1964TIP3    H2 5834   8.290   6.744   4.663  0.2737  0.2427  0.2239
 1965TIP3   OH2 5835   5.078   4.784   5.070 -0.0633  0.4778  0.8076
 1965TIP3    H1 5836   5.103   4.876   5.056 -1.6966  0.9260  0.6020
 1965TIP3    H2 5837   5.156   4.734   5.047  0.5824  1.7737  0.0733
 1966TIP3   OH2 5838   1.882   3.382   3.547  0.3817  0.1183 -0.4771
 1966TIP3    H1 5839   1.857   3.317   3.613  2.3598  0.0458  0.2775
 1966TIP3    H2 5840   1.848   3.346   3.464 -0.4664 -0.7555  0.2273
 1967TIP3   OH2 5841   2.212   6.083   1.505  0.2250  0.2851 -0.4703
 1967TIP3    H1 5842   2.167   6.142   1.446  0.7654  0.7809 -0.3963
 1967TIP3    H2 5843   2.275   6.036   1.450  0.4121  0.4211 -0.3754
 1968TIP3   OH2 5844   5.873   6.177   0.445 -0.8094 -0.2492 -0.3458
 1968TIP3    H1 5845   5.882   6.130   0.363  1.3860  0.8643 -0.8070
 1968TIP3    H2 5846   5.934   6.250   0.438 -0.7161  0.0126  2.1692
 1969TIP3   OH2 5847   5.439   1.548   6.021  0.6179  0.8528  0.2151
 1969TIP3    H1 5848   5.496   1.563   5.945  0.9446  0.2315  0.3286
 1969TIP3    H2 5849   5.369   1.492   5.986  0.7647  0.5731  0.3671
 1970TIP3   OH2 5850   5.272   5.327   3.540 -0.3569 -0.6495 -0.1994
 1970TIP3    H1 5851   5.227   5.263   3.595 -0.0320 -1.1740 -0.5326
 1970TIP3    H2 5852   5.215   5.337   3.464 -2.8081  2.9435  1.8078
 1971TIP3   OH2 5853   3.422   5.169   4.242  0.6570 -0.4819 -0.0935
 1971TIP3    H1 5854   3.431   5.074   4.234  1.7912 -0.3716 -0.2959
 1971TIP3    H2 5855   3.483   5.204   4.177  1.0537  0.3914  0.7290
 1972TIP3   OH2 5856   7.262   0.930   5.010 -0.4984 -0.2605 -0.5351
 1972TIP3    H1 5857   7.171   0.903   4.993 -1.5231  1.4025  1.6991
 1972TIP3    H2 5858   7.294   0.961   4.925 -2.4871  0.2968 -1.1420
 1973TIP3   OH2 5859   5.267   0.990   5.901 -0.5417  0.6986 -0.0277
 1973TIP3    H1 5860   5.263   0.976   5.807 -0.5468  1.6906 -0.1865
 1973TIP3    H2 5861   5.232   0.909   5.939  2.1990 -0.9526 -0.7753
 1974TIP3   OH2 5862   5.079   2.881   3.333 -0.1027 -0.2912 -0.0857
 1974TIP3    H1 5863   5.096   2.973   3.351 -0.6185  0.3107 -2.3207
 1974TIP3    H2 5864   5.166   2.843   3.322  0.0980  0.0763  0.1956
 1975TIP3   OH2 5865   7.765   5.646   4.346 -0.3486 -0.2052  0.4949
 1975TIP3    H1 5866   7.840   5.690   4.385 -0.0712 -0.0373 -0.2070
 1975TIP3    H2 5867   7.763   5.677   4.255 -0.8015 -0.8015  0.2895
 1976TIP3   OH2 5868   7.832   2.634   2.743  0.0310 -0.0392  0.6102
 1976TIP3    H1 5869   7.866   2.713   2.701 -2.0800  1.0788  0.8496
 1976TIP3    H2 5870   7.853   2.644   2.835  1.2638 -0.6169  0.4090
 1977TIP3   OH2 5871   4.801   4.089   0.282  0.4497 -0.5124 -0.1282
 1977TIP3    H1 5872   4.741   4.109   0.354  0.9715  0.5245  0.0283
 1977TIP3    H2 5873   4.771   4.004   0.249 -2.3532  0.8308 -1.3377
 1978TIP3   OH2 5874   5.927   2.123   5.106 -0.5762  0.3659 -0.2128
 1978TIP3    H1 5875   6.009   2.153   5.066 -1.2960  0.7799 -1.4418
 1978TIP3    H2 5876   5.872   2.201   5.110  0.1637  0.8987  3.6926
 1979TIP3   OH2 5877   4.611   7.575   0.007 -0.3004  0.7637 -0.2987
 1979TIP3    H1 5878   4.695   7.548   0.045 -0.7258  0.6798  0.5783
 1979TIP3    H2 5879   4.548   7.512   0.040 -0.6556  0.5609 -1.3077
 1980TIP3   OH2 5880   3.251   4.851   2.257 -0.1191  0.5728  0.2251
 1980TIP3    H1 5881   3.242   4.769   2.307 -0.1516  0.2791 -0.2600
 1980TIP3    H2 5882   3.275   4.916   2.323 -2.8485  0.7833  1.1120
 1981TIP3   OH2 5883   1.667   4.031   1.305  0.1667  0.2745  0.4407
 1981TIP3    H1 5884   1.638   3.946   1.338  1.0096 -0.3977 -0.4687
 1981TIP3    H2 5885   1.717   4.069   1.377 -0.3549  0.0699  0.9128
 1982TIP3   OH2 5886   8.367   0.605   6.726 -0.2664  0.4410  0.2663
 1982TIP3    H1 5887   8.287   0.553   6.714 -1.2726  1.9141  0.3872
 1982TIP3    H2 5888   8.422   0.580   6.652 -0.9734 -0.3283 -0.0283
 1983TIP3   OH2 5889   5.417   3.752   3.445  0.1434  0.2959 -0.1187
 1983TIP3    H1 5890   5.499   3.717   3.480 -0.6358 -0.6170  0.8699
 1983TIP3    H2 5891   5.407   3.837   3.488 -0.6158 -0.6516  1.7113
 1984TIP3   OH2 5892   6.720   2.211   6.745  0.5508 -0.0299  0.2457
 1984TIP3    H1 5893   6.770   2.229   6.665  0.8708  1.2915  0.7142
 1984TIP3    H2 5894   6.635   2.179   6.714  0.2450  1.5882 -0.6654
 1985TIP3   OH2 5895   0.861   0.219   6.490  0.0021 -0.9020 -0.6777
 1985TIP3    H1 5896   0.871   0.125   6.504 -0.8685 -0.8756  0.2261
 1985TIP3    H2 5897   0.930   0.258   6.543  0.1562 -1.0151 -0.7933
 1986TIP3   OH2 5898   0.373   7.262   4.364 -0.0199  0.1917  0.2926
 1986TIP3    H1 5899   0.281   7.242   4.350  0.4587 -1.1347 -1.3312
 1986TIP3    H2 5900   0.408   7.279   4.276  1.3759  0.2039  0.8102
 1987TIP3   OH2 5901   7.507   7.398   6.811 -0.0702  0.6091 -0.2223
 1987TIP3    H1 5902   7.503   7.306   6.836  0.0237  0.4084 -0.9248
 1987TIP3    H2 5903   7.586   7.404   6.756 -0.5089  0.9420 -0.8248
 1988TIP3   OH2 5904   8.300   1.290   3.653 -0.1844 -0.6521  0.3242
 1988TIP3    H1 5905   8.260   1.374   3.631  0.1359 -0.2169  1.3427
 1988TIP3    H2 5906   8.228   1.238   3.690 -0.3815 -0.8355 -0.3049
 1989TIP3   OH2 5907   7.246   3.186   6.779  0.3533 -0.1498 -0.2396
 1989TIP3    H1 5908   7.302   3.227   6.713 -0.0894 -1.1554 -1.2878
 1989TIP3    H2 5909   7.307   3.144   6.840  0.7666  0.6379 -0.0966
 1990TIP3   OH2 5910   7.974   3.819   3.921  0.3467  0.7952 -0.8385
 1990TIP3    H1 5911   8.032   3.749   3.893 -0.8469 -1.0825  1.0335
 1990TIP3    H2 5912   7.905   3.821   3.855  0.5867  0.4782 -1.1027
 1991TIP3   OH2 5913   1.363   4.425   2.495 -0.4898  0.0167 -0.7702
 1991TIP3    H1 5914   1.430   4.366   2.462 -0.6305 -1.5225  1.4984
 1991TIP3    H2 5915   1.377   4.427   2.590 -1.6022  2.2775 -0.5828
 1992TIP3   OH2 5916   2.693   6.688   4.321  0.0417  0.1822  0.0510
 1992TIP3    H1 5917   2.683   6.634   4.242 -0.4275  0.5246 -0.1232
 1992TIP3    H2 5918   2.605   6.698   4.355 -0.0778  2.0293 -0.7186
 1993TIP3   OH2 5919   5.740   4.831   3.633  0.1565  0.4390 -0.8558
 1993TIP3    H1 5920   5.836   4.830   3.639  0.2985  0.4387 -2.6243
 1993TIP3    H2 5921   5.718   4.745   3.597 -0.7551 -0.5773  1.8868
 1994TIP3   OH2 5922   2.851   6.988   2.435 -0.1277  0.2131 -0.6147
 1994TIP3    H1 5923   2.840   6.907   2.387  1.5523  0.5839 -1.6815
 1994TIP3    H2 5924   2.920   6.970   2.499 -0.3935  0.5428 -0.2230
 1995TIP3   OH2 5925   2.015   6.156   1.037 -0.2099  0.0664  0.1257
 1995TIP3    H1 5926   1.950   6.162   0.967 -0.6936 -1.7219  0.3723
 1995TIP3    H2 5927   2.035   6.063   1.043  0.3110  0.2624  1.9193
 1996TIP3   OH2 5928   4.948   6.032   1.573  0.4581 -0.0933  0.3593
 1996TIP3    H1 5929   4.853   6.022   1.579  0.3337  0.6320 -0.2518
 1996TIP3    H2 5930   4.974   6.072   1.656  0.2977 -0.7126  0.7165
 1997TIP3   OH2 5931   2.945   4.374   4.567 -0.5238 -0.2573  0.6719
 1997TIP3    H1 5932   2.907   4.373   4.479  0.8487 -1.4403  0.0614
 1997TIP3    H2 5933   2.870   4.368   4.625 -1.3323 -2.3489 -0.4941
 1998TIP3   OH2 5934   2.889   3.613   3.139 -0.1163  1.0763  0.4414
 1998TIP3    H1 5935   2.801   3.586   3.112  0.0241 -0.8701  1.7615
 1998TIP3    H2 5936   2.947   3.564   3.082  0.1137  0.6385  1.0393
 1999TIP3   OH2 5937   1.816   7.099   5.123 -0.1332  1.1627  0.2083
 1999TIP3    H1 5938   1.825   7.006   5.102 -0.7098  0.8977  1.0867
 1999TIP3    H2 5939   1.883   7.115   5.189  0.2772  1.4935 -0.2770
 2000TIP3   OH2 5940   2.320   1.253   5.943  0.1537 -0.1086 -0.0586
 2000TIP3    H1 5941   2.323   1.349   5.939  0.2856 -0.0479  1.0266
 2000TIP3    H2 5942   2.375   1.231   6.018 -0.1471 -1.0118 -0.0933
 2001TIP3   OH2 5943   0.088   1.859   5.286 -0.1670 -0.0366  0.5222
 2001TIP3    H1 5944   0.113   1.918   5.357  1.2327  1.2471 -0.9597
 2001TIP3    H2 5945  -0.007   1.863   5.284 -0.2555 -0.3448  2.5030
 2002TIP3   OH2 5946   7.100   4.441   6.178 -0.1064 -0.3741 -0.2340
 2002TIP3    H1 5947   7.179   4.401   6.214 -0.1652 -0.0118  0.3187
 2002TIP3    H2 5948   7.101   4.531   6.212  1.1496  0.8351 -3.1494
 2003TIP3   OH2 5949   1.994   2.274   1.130 -0.5239  0.5323  0.0192
 2003TIP3    H1 5950   1.930   2.204   1.120 -0.5777  0.6375 -0.4134
 2003TIP3    H2 5951   1.967   2.321   1.208  0.2049 -0.6412  1.0159
 2004TIP3   OH2 5952   2.391   1.721   6.406  0.0329  0.3779  0.4489
 2004TIP3    H1 5953   2.352   1.801   6.370 -1.3093  0.2620  1.5433
 2004TIP3    H2 5954   2.462   1.752   6.462  2.5115  0.5462 -2.4859
 2005TIP3   OH2 5955   0.519   6.177   6.721  0.0938 -0.3826 -0.1750
 2005TIP3    H1 5956   0.581   6.194   6.651  0.2675 -1.2358 -0.2398
 2005TIP3    H2 5957   0.502   6.263   6.760  2.5152 -0.2813  0.8563
 2006TIP3   OH2 5958   3.327   4.304   6.286  0.3049  0.4377 -0.9489
 2006TIP3    H1 5959   3.231   4.311   6.289  0.2685 -0.2038 -0.1921
 2006TIP3    H2 5960   3.358   4.393   6.303 -0.1584  0.6248 -1.0601
 2007TIP3   OH2 5961   5.495   3.674   1.936  0.1936 -0.0567  0.0917
 2007TIP3    H1 5962   5.428   3.699   1.873 -0.6504  0.6538  1.2161
 2007TIP3    H2 5963   5.562   3.631   1.884 -1.0576 -0.6582 -1.0977
 2008TIP3   OH2 5964   2.047   6.395   4.823 -0.2506  0.1448  0.1827
 2008TIP3    H1 5965   2.065   6.474   4.873  1.2293  1.1477 -1.8203
 2008TIP3    H2 5966   2.131   6.369   4.787 -1.3599  0.1590 -2.6920
 2009TIP3   OH2 5967   5.476   5.054   6.448 -0.2619  0.1159  0.7663
 2009TIP3    H1 5968   5.450   5.143   6.473 -0.8614  0.4520 -0.9479
 2009TIP3    H2 5969   5.462   5.050   6.354  0.5109 -1.5618  0.6833
 2010TIP3   OH2 5970   0.180   5.164   3.615  0.8505 -0.3677 -0.1744
 2010TIP3    H1 5971   0.112   5.167   3.682 -0.4270 -1.0690 -1.3765
 2010TIP3    H2 5972   0.260   5.145   3.663  0.0752 -0.2803  1.2086
 2011TIP3   OH2 5973   5.558   3.474   1.534  0.3046  0.0107  0.1320
 2011TIP3    H1 5974   5.490   3.484   1.468  0.4247  1.9085  0.2307
 2011TIP3    H2 5975   5.640   3.481   1.485  0.4701 -1.9579  0.0564
 2012TIP3   OH2 5976   1.607   5.400   4.694 -0.3585  0.7302 -0.2306
 2012TIP3    H1 5977   1.604   5.306   4.709  1.1458  0.7968  0.6509
 2012TIP3    H2 5978   1.517   5.423   4.671 -1.1207 -0.6688  1.1259
 2013TIP3   OH2 5979   8.231   0.876   4.617 -0.1775 -0.0486  0.0516
 2013TIP3    H1 5980   8.139   0.863   4.592  0.2709  0.0357 -1.8029
 2013TIP3    H2 5981   8.228   0.939   4.689 -1.6154 -0.6145  0.5041
 2014TIP3   OH2 5982   2.862   5.325   0.538 -0.6536  0.7781  0.2805
 2014TIP3    H1 5983   2.769   5.316   0.517 -0.1286  0.4492 -2.1134
 2014TIP3    H2 5984   2.894   5.390   0.475  1.0623 -0.3038 -0.0008
 2015TIP3   OH2 5985   5.635   4.940   5.398  0.4263 -0.0055  0.0170
 2015TIP3    H1 5986   5.655   4.862   5.345  0.3737 -0.6340  0.9108
 2015TIP3    H2 5987   5.551   4.920   5.440  0.3449  0.5955  0.1532
 2016TIP3   OH2 5988   4.857   7.938   4.274  0.4115 -0.2598  0.3796
 2016TIP3    H1 5989   4.905   7.925   4.193 -0.8332  2.4315 -0.9214
 2016TIP3    H2 5990   4.772   7.896   4.259  0.1344  0.3479  0.2019
 2017TIP3   OH2 5991   0.580   7.667   3.279  0.9346 -0.4532  0.0131
 2017TIP3    H1 5992   0.616   7.648   3.192 -1.8301 -0.8429 -1.1467
 2017TIP3    H2 5993   0.516   7.598   3.294  2.5746 -1.4645  3.2528
 2018TIP3   OH2 5994   4.527   7.337   2.343 -0.2224 -0.3980  0.3732
 2018TIP3    H1 5995   4.585   7.309   2.414  0.7571  1.7828  0.4985
 2018TIP3    H2 5996   4.466   7.397   2.385  0.1523  0.6403 -0.5472
 2019TIP3   OH2 5997   3.499   1.207   3.524  0.3389 -0.0128 -0.6378
 2019TIP3    H1 5998   3.413   1.178   3.493 -0.8676 -0.6116  2.8679
 2019TIP3    H2 5999   3.537   1.129   3.564  0.8796  1.1093  1.1412
 2020TIP3   OH2 6000   3.273   7.940   0.308  0.5465 -0.4012  0.2747
 2020TIP3    H1 6001   3.334   7.866   0.311  0.4063 -0.4821  1.8697
 2020TIP3    H2 6002   3.190   7.903   0.340  0.0827  0.1110 -0.3053
 2021TIP3   OH2 6003   7.728   5.346   4.789  0.0174 -0.3701 -0.2835
 2021TIP3    H1 6004   7.753   5.261   4.753 -0.8529 -0.5780 -0.4199
 2021TIP3    H2 6005   7.793   5.363   4.857  0.4120 -0.9768 -0.5024
 2022TIP3   OH2 6006   6.409   6.969   0.235 -0.0303  0.4507  0.1189
 2022TIP3    H1 6007   6.418   6.882   0.196 -3.0522  0.3833 -0.6605
 2022TIP3    H2 6008   6.461   6.964   0.316 -0.0591 -2.0608  0.0680
 2023TIP3   OH2 6009   0.235   3.545   2.979 -0.2127  0.4845  0.1739
 2023TIP3    H1 6010   0.163   3.539   3.041  0.9010  0.8819  1.5756
 2023TIP3    H2 6011   0.293   3.612   3.016 -0.0357  1.5781 -1.8977
 2024TIP3   OH2 6012   2.332   3.244   3.862  0.1928  0.0067 -0.1192
 2024TIP3    H1 6013   2.251   3.293   3.863  0.4647  0.4622  0.6900
 2024TIP3    H2 6014   2.353   3.232   3.769 -1.1058 -0.6547 -0.3516
 2025TIP3   OH2 6015   2.785   6.126   5.311  0.1669  0.5350 -0.6398
 2025TIP3    H1 6016   2.837   6.058   5.355 -0.4035  0.5020 -0.0040
 2025TIP3    H2 6017   2.720   6.152   5.376 -2.9234 -1.9089 -2.5153
 2026TIP3   OH2 6018   0.815   5.694   0.559 -0.0709  0.2370  0.0250
 2026TIP3    H1 6019   0.881   5.662   0.498  0.6467  2.5572 -0.5101
 2026TIP3    H2 6020   0.859   5.698   0.644 -0.1676 -0.1388  0.0972
 2027TIP3   OH2 6021   6.418   5.964   3.363  0.2910  0.8090 -0.5917
 2027TIP3    H1 6022   6.449   6.043   3.408  1.4470 -1.0805  2.1978
 2027TIP3    H2 6023   6.341   5.937   3.414 -0.5644  0.5070 -1.9980
 2028TIP3   OH2 6024   4.573   6.177   4.894 -0.1635 -0.0197 -0.0669
 2028TIP3    H1 6025   4.662   6.146   4.875 -0.3172 -1.6129  1.6035
 2028TIP3    H2 6026   4.586   6.254   4.949  0.1713 -0.1386  0.0248
 2029TIP3   OH2 6027   2.721   4.464   4.357 -0.5112  0.2934  0.0420
 2029TIP3    H1 6028   2.721   4.539   4.417 -1.2547  1.1942 -1.0425
 2029TIP3    H2 6029   2.778   4.491   4.286  0.7571 -0.9662  0.5496
 2030TIP3   OH2 6030   2.230   4.417   4.896  0.3845  0.2416 -0.3578
 2030TIP3    H1 6031   2.178   4.357   4.842 -0.7299 -0.5305  1.4633
 2030TIP3    H2 6032   2.196   4.405   4.985  0.4780  3.1861  0.2040
 2031TIP3   OH2 6033   3.859   4.924   0.620  0.1930  0.4894 -0.2856
 2031TIP3    H1 6034   3.902   4.997   0.665 -1.8104  1.8398 -0.4435
 2031TIP3    H2 6035   3.822   4.963   0.541 -1.7039 -0.4600  0.0811
 2032TIP3   OH2 6036   2.594   2.905   3.628  0.5248 -0.3118  0.0452
 2032TIP3    H1 6037   2.617   2.833   3.570  0.3912 -0.4450  0.1571
 2032TIP3    H2 6038   2.531   2.958   3.578 -0.9517 -1.3828  0.7074
 2033TIP3   OH2 6039   6.597   5.507   3.049  0.6263  0.3635 -0.1900
 2033TIP3    H1 6040   6.654   5.537   3.120  2.0169 -0.4974 -0.9118
 2033TIP3    H2 6041   6.598   5.412   3.055 -1.8632  0.3187  0.6122
 2034TIP3   OH2 6042   1.211   7.226   6.770  0.4254 -0.0348  0.2949
 2034TIP3    H1 6043   1.139   7.181   6.727  1.0153  0.5766 -1.3912
 2034TIP3    H2 6044   1.286   7.215   6.712  1.1231  1.2765  0.8844
 2035TIP3   OH2 6045   3.309   4.732   6.559  0.4483  0.1196 -0.3150
 2035TIP3    H1 6046   3.335   4.812   6.605 -1.5931  2.4008 -2.8013
 2035TIP3    H2 6047   3.277   4.674   6.628  1.8136  1.4557  1.5643
 2036TIP3   OH2 6048   0.437   4.020   6.416  0.1590 -0.0369  0.4214
 2036TIP3    H1 6049   0.415   4.075   6.341  1.8072  0.8791  0.5758
 2036TIP3    H2 6050   0.352   3.990   6.449 -0.6041 -0.5213 -1.8276
 2037TIP3   OH2 6051   3.843   6.288   2.961 -0.4926 -0.5791 -0.0073
 2037TIP3    H1 6052   3.754   6.288   2.927 -0.6137 -0.9964  0.2982
 2037TIP3    H2 6053   3.849   6.369   3.012 -0.2683  0.1099 -1.0921
 2038TIP3   OH2 6054   7.400   0.021   0.805 -0.4341 -0.2000  0.3605
 2038TIP3    H1 6055   7.458  -0.054   0.819  0.3372  0.0073 -1.3605
 2038TIP3    H2 6056   7.450   0.096   0.837 -0.0413 -0.1091 -0.4476
 2039TIP3   OH2 6057   1.030   0.617   6.189  0.4064 -0.3037  0.3761
 2039TIP3    H1 6058   1.035   0.700   6.142  0.2825 -0.7724 -0.4966
 2039TIP3    H2 6059   1.109   0.614   6.243 -0.1062  0.8445  1.2239
 2040TIP3   OH2 6060   6.315   7.018   1.115  0.1880  0.2857 -0.0537
 2040TIP3    H1 6061   6.263   6.980   1.186 -1.9049  1.0469 -1.0976
 2040TIP3    H2 6062   6.324   6.946   1.052 -0.4259  0.3902 -0.2742
 2041TIP3   OH2 6063   0.866   6.286   5.310  0.2932  0.2483 -0.3219
 2041TIP3    H1 6064   0.795   6.239   5.267 -0.1083 -0.4248  0.9979
 2041TIP3    H2 6065   0.933   6.297   5.242 -0.7570  0.2272 -1.3800
 2042TIP3   OH2 6066   2.984   3.091   1.957 -0.6845  0.0601  0.8532
 2042TIP3    H1 6067   3.064   3.141   1.940 -0.9895  0.2972  0.0742
 2042TIP3    H2 6068   3.015   3.006   1.988 -0.0308 -0.7784 -1.8365
 2043TIP3   OH2 6069   0.387   2.172   5.752  0.1167  0.2851 -0.3552
 2043TIP3    H1 6070   0.418   2.158   5.842  0.6827  0.2180 -0.5605
 2043TIP3    H2 6071   0.432   2.105   5.701  0.5084  0.9155 -0.8434
 2044TIP3   OH2 6072   8.218   6.338   3.850  0.0172  0.1656  0.4584
 2044TIP3    H1 6073   8.158   6.309   3.781 -2.3715 -0.3105  2.5781
 2044TIP3    H2 6074   8.163   6.388   3.910  1.9566  0.4688  2.0914
 2045TIP3   OH2 6075   5.560   0.244   6.723  0.0094  0.4164 -0.6973
 2045TIP3    H1 6076   5.524   0.333   6.716 -0.7189  0.1910  0.0108
 2045TIP3    H2 6077   5.521   0.198   6.649 -1.6485  0.0336  0.3644
 2046TIP3   OH2 6078   3.294   7.249   4.347  0.4522  0.1551  0.2967
 2046TIP3    H1 6079   3.279   7.321   4.409  0.5353 -0.3540  0.9226
 2046TIP3    H2 6080   3.271   7.286   4.262 -0.4340  0.6319  0.7261
 2047TIP3   OH2 6081   2.965   0.989   5.552  0.2717 -0.3597  0.3119
 2047TIP3    H1 6082   2.938   0.989   5.643 -0.1172 -0.5583  0.2005
 2047TIP3    H2 6083   2.902   1.045   5.507  0.5613 -0.1267  0.1940
 2048TIP3   OH2 6084   2.485   2.973   2.108  0.2190 -0.0460  0.0512
 2048TIP3    H1 6085   2.472   3.057   2.064 -2.7752  0.3964  1.5627
 2048TIP3    H2 6086   2.474   2.908   2.039  0.9743  0.7286 -0.8277
 2049TIP3   OH2 6087   7.670   5.408   2.843 -0.5710  0.6556  0.0632
 2049TIP3    H1 6088   7.654   5.501   2.833  1.3755  0.9850 -0.3754
 2049TIP3    H2 6089   7.711   5.399   2.929  1.0581  0.5123 -0.6849
 2050TIP3   OH2 6090   3.336   3.702   4.638 -0.1085 -0.2567  0.8350
 2050TIP3    H1 6091   3.387   3.639   4.689 -1.1340 -0.0311  2.1977
 2050TIP3    H2 6092   3.356   3.786   4.678 -2.1383 -0.2522  1.9609
 2051TIP3   OH2 6093   3.823   4.058   3.476 -0.2725 -0.6676  0.6550
 2051TIP3    H1 6094   3.734   4.025   3.488 -0.6281  0.4035  1.1000
 2051TIP3    H2 6095   3.827   4.137   3.531  0.2707  0.5153 -1.0080
 2052TIP3   OH2 6096   7.553   4.240   5.790 -0.1229 -0.2948  0.0315
 2052TIP3    H1 6097   7.585   4.328   5.766 -1.2171  0.1438  0.1429
 2052TIP3    H2 6098   7.605   4.216   5.867  1.5351 -0.5787 -1.1014
 2053TIP3   OH2 6099   3.536   2.194   4.838  0.2984 -0.6561 -0.1695
 2053TIP3    H1 6100   3.576   2.213   4.923 -0.3140 -0.9541  0.1936
 2053TIP3    H2 6101   3.463   2.255   4.831  0.2368 -0.7558 -0.4013
 2054TIP3   OH2 6102   2.287   2.202   3.172  0.4917  0.1252  0.0059
 2054TIP3    H1 6103   2.281   2.277   3.231  0.2520 -1.3816  1.9707
 2054TIP3    H2 6104   2.208   2.151   3.189  2.8011 -3.0714  2.3543
 2055TIP3   OH2 6105   7.669   7.109   6.257  0.1774  0.0993 -0.3602
 2055TIP3    H1 6106   7.724   7.047   6.304  0.8576 -0.5800 -1.9750
 2055TIP3    H2 6107   7.672   7.189   6.310  0.8653 -0.6431  0.7468
 2056TIP3   OH2 6108   5.250   4.767   6.551  0.5262  0.3322 -0.5803
 2056TIP3    H1 6109   5.240   4.862   6.558 -0.2426  0.2446 -0.2989
 2056TIP3    H2 6110   5.283   4.740   6.637  0.3101  0.3056 -0.5024
 2057TIP3   OH2 6111   2.983   7.009   4.654  0.2348 -0.8703 -0.0241
 2057TIP3    H1 6112   2.943   7.060   4.724 -0.8512  1.1888 -2.0119
 2057TIP3    H2 6113   3.063   7.056   4.632 -0.1447 -0.6665 -1.0471
 2058TIP3   OH2 6114   1.135   7.560   1.312  0.0280  0.4679 -0.2406
 2058TIP3    H1 6115   1.093   7.639   1.278  0.1395  0.7388  0.2390
 2058TIP3    H2 6116   1.138   7.573   1.407 -3.1329 -1.6397  0.2956
 2059TIP3   OH2 6117   7.067   7.853   3.364 -0.4242 -0.6996  0.6476
 2059TIP3    H1 6118   7.139   7.828   3.422 -0.2838  0.4404  0.9812
 2059TIP3    H2 6119   7.017   7.772   3.353  1.5380 -1.8576 -0.5589
 2060TIP3   OH2 6120   5.102   2.656   4.948  0.5321  0.3896 -0.4520
 2060TIP3    H1 6121   5.155   2.636   4.871  1.4149 -0.4856  0.3586
 2060TIP3    H2 6122   5.023   2.604   4.937  1.0090 -0.3591 -0.3835
 2061TIP3   OH2 6123   4.344   3.377   4.155 -0.2734 -0.4492  0.3080
 2061TIP3    H1 6124   4.357   3.338   4.241 -1.1003  0.5621  0.9083
 2061TIP3    H2 6125   4.255   3.353   4.131 -0.3575  0.0128  0.1396
 2062TIP3   OH2 6126   2.070   5.687   5.263  0.3222 -0.6311  0.4315
 2062TIP3    H1 6127   2.091   5.634   5.340 -0.7496 -0.7341  0.6684
 2062TIP3    H2 6128   2.144   5.747   5.254 -0.8228  1.4759  3.3598
 2063TIP3   OH2 6129   5.558   2.993   5.719  0.0099  0.0450  0.6286
 2063TIP3    H1 6130   5.616   2.973   5.792  1.2907 -1.1891 -0.6666
 2063TIP3    H2 6131   5.479   2.941   5.737 -0.5882  1.3900  2.1661
 2064TIP3   OH2 6132   6.051   0.731   5.597 -0.2323 -0.1649 -0.0581
 2064TIP3    H1 6133   5.989   0.661   5.575  0.6319 -1.1064  0.4060
 2064TIP3    H2 6134   6.012   0.810   5.559 -2.3397 -0.4777  1.2704
 2065TIP3   OH2 6135   2.603   7.591   1.908 -0.1477 -0.4060  0.3168
 2065TIP3    H1 6136   2.589   7.642   1.828  0.8887  0.3168  0.5762
 2065TIP3    H2 6137   2.561   7.507   1.890 -1.8202  0.4644 -0.1717
 2066TIP3   OH2 6138   6.907   3.131   5.552  0.0931  0.6782 -0.5965
 2066TIP3    H1 6139   6.854   3.205   5.523  0.1661  0.3653 -1.5455
 2066TIP3    H2 6140   6.996   3.166   5.555  0.2974  0.3693 -2.1016
 2067TIP3   OH2 6141   3.286   3.825   4.042 -0.8500 -0.2563  0.3951
 2067TIP3    H1 6142   3.333   3.891   3.991  0.1948 -0.7677  0.6530
 2067TIP3    H2 6143   3.195   3.835   4.016 -0.4349 -0.0837 -1.1105
 2068TIP3   OH2 6144   6.846   2.874   3.871 -0.2953 -0.3355  0.3357
 2068TIP3    H1 6145   6.767   2.825   3.849 -0.3577 -0.6613  1.2270
 2068TIP3    H2 6146   6.909   2.807   3.896  0.0422 -0.0313  0.3036
 2069TIP3   OH2 6147   2.214   2.491   0.166  0.4546 -0.0437 -0.0854
 2069TIP3    H1 6148   2.135   2.439   0.178 -0.4207  0.9935 -1.0873
 2069TIP3    H2 6149   2.258   2.451   0.091  0.7130 -0.4103  0.2573
 2070TIP3   OH2 6150   0.442   7.348   3.647  0.5467  0.1623 -0.0830
 2070TIP3    H1 6151   0.444   7.416   3.715 -0.7832  0.0280  0.1320
 2070TIP3    H2 6152   0.528   7.308   3.649  0.2853 -0.3809  2.1001
 2071TIP3   OH2 6153   0.249   6.948   5.332  0.2631  0.2532 -0.6366
 2071TIP3    H1 6154   0.209   7.028   5.297 -0.7866  0.2945  0.5715
 2071TIP3    H2 6155   0.180   6.882   5.327  0.3375  0.0552  0.5421
 2072TIP3   OH2 6156   7.315   4.163   6.470  0.2374  0.2349  0.2046
 2072TIP3    H1 6157   7.294   4.256   6.464 -2.1566 -0.1275  1.7072
 2072TIP3    H2 6158   7.371   4.156   6.547 -0.6959  0.2931  0.8982
 2073TIP3   OH2 6159   2.761   1.491   3.439  0.2418  0.0530 -0.3052
 2073TIP3    H1 6160   2.702   1.485   3.364 -0.0961 -0.4201 -0.0090
 2073TIP3    H2 6161   2.838   1.441   3.413 -0.0950 -0.5626 -0.1407
 2074TIP3   OH2 6162   2.355   2.689   0.758 -0.2772  0.3483 -0.5813
 2074TIP3    H1 6163   2.402   2.755   0.708  1.5659 -0.7682 -0.4162
 2074TIP3    H2 6164   2.384   2.702   0.849 -1.2898  0.4339 -0.2483
 2075TIP3   OH2 6165   7.934   5.126   3.237  0.0614  0.0058  0.3483
 2075TIP3    H1 6166   8.019   5.153   3.269  0.7580 -0.9536 -0.6242
 2075TIP3    H2 6167   7.934   5.031   3.245 -0.7026 -0.0486 -0.1403
 2076TIP3   OH2 6168   2.199   1.743   5.999 -0.2923  0.0040 -0.6590
 2076TIP3    H1 6169   2.252   1.667   5.975 -0.4668 -0.9696  1.7964
 2076TIP3    H2 6170   2.239   1.815   5.951  1.8363 -1.1010 -0.6825
 2077TIP3   OH2 6171   8.132   1.085   5.092 -0.4965  0.1159  0.2721
 2077TIP3    H1 6172   8.050   1.127   5.119 -0.5220 -0.7620  1.6647
 2077TIP3    H2 6173   8.200   1.148   5.115 -0.7361  0.6504 -0.4534
 2078TIP3   OH2 6174   4.440   3.300   2.108 -0.0100 -0.1772  0.1091
 2078TIP3    H1 6175   4.354   3.265   2.083 -0.7454  0.5348  1.4783
 2078TIP3    H2 6176   4.446   3.384   2.063 -0.4587  0.1898  0.7064
 2079TIP3   OH2 6177   2.520   5.242   5.898  0.0053 -0.0335  0.4708
 2079TIP3    H1 6178   2.561   5.224   5.982  1.6791 -1.7201 -0.6221
 2079TIP3    H2 6179   2.441   5.188   5.897 -1.8902  2.4761  2.1861
 2080TIP3   OH2 6180   4.926   3.145   0.288 -0.5702 -0.0563  0.1380
 2080TIP3    H1 6181   4.901   3.225   0.333 -2.1817 -1.1233  1.2324
 2080TIP3    H2 6182   4.960   3.175   0.203 -0.3125  1.8053  0.8511
 2081TIP3   OH2 6183   5.905   6.366   6.089 -0.0346  0.2105  0.5734
 2081TIP3    H1 6184   5.985   6.340   6.134 -0.5455 -1.0197  0.8028
 2081TIP3    H2 6185   5.920   6.341   5.997  0.1159  0.6511  0.4722
 2082TIP3   OH2 6186   3.283   7.366   3.894 -0.0212 -0.3990 -0.1382
 2082TIP3    H1 6187   3.317   7.337   3.979  1.4051  0.4748 -0.3817
 2082TIP3    H2 6188   3.197   7.324   3.887 -0.2875 -0.2577  1.8513
 2083TIP3   OH2 6189   8.100   0.181   4.535 -0.4241  0.0941 -0.3495
 2083TIP3    H1 6190   8.074   0.098   4.494 -2.0279  0.9653 -1.2171
 2083TIP3    H2 6191   8.029   0.241   4.514  0.2804  1.4778  1.0019
 2084TIP3   OH2 6192   6.640   1.507   2.983 -0.5654 -0.5091 -0.0877
 2084TIP3    H1 6193   6.580   1.519   3.057 -0.2928 -0.5918  0.1471
 2084TIP3    H2 6194   6.715   1.563   3.003  0.3877 -1.9944  0.6489
 2085TIP3   OH2 6195   7.280   3.366   3.956 -0.8123 -0.2756 -0.1299
 2085TIP3    H1 6196   7.212   3.428   3.932 -0.3160  0.2429 -0.2341
 2085TIP3    H2 6197   7.354   3.421   3.983 -0.4407 -0.8242 -0.0127
 2086TIP3   OH2 6198   7.540   3.899   6.145  0.3232 -0.3255 -0.1399
 2086TIP3    H1 6199   7.467   3.846   6.179 -0.3479  0.5615 -0.1813
 2086TIP3    H2 6200   7.607   3.892   6.213  0.0118 -0.7456  0.1337
 2087TIP3   OH2 6201   1.780   2.621   4.701 -0.4348 -0.2276  0.4257
 2087TIP3    H1 6202   1.781   2.680   4.776 -0.3004  0.0762  0.1868
 2087TIP3    H2 6203   1.845   2.657   4.641  0.5423 -1.3180  0.8106
 2088TIP3   OH2 6204   6.773   5.528   4.212  0.7176  0.0397 -0.2370
 2088TIP3    H1 6205   6.787   5.614   4.253  1.2127  0.1353 -0.6044
 2088TIP3    H2 6206   6.743   5.549   4.123 -0.7273 -0.1648  0.1702
 2089TIP3   OH2 6207   5.571   6.168   1.011 -0.8559 -0.3125  0.1226
 2089TIP3    H1 6208   5.524   6.124   1.082  0.3699 -1.7346  0.0913
 2089TIP3    H2 6209   5.511   6.165   0.937 -1.2056 -0.9773  0.4210
 2090TIP3   OH2 6210   2.839   4.544   3.275  0.2145  0.2597 -0.1140
 2090TIP3    H1 6211   2.915   4.528   3.219  1.2805 -1.8584  1.7527
 2090TIP3    H2 6212   2.870   4.607   3.340  0.3091 -0.3988  0.4877
 2091TIP3   OH2 6213   1.034   4.830   0.793 -0.2103  0.2902 -0.1103
 2091TIP3    H1 6214   1.092   4.902   0.768 -1.4058  0.3181 -3.2359
 2091TIP3    H2 6215   0.946   4.869   0.795 -0.6779 -0.7231 -0.1749
 2092TIP3   OH2 6216   0.791   7.160   5.799 -0.4715  0.1792  0.1166
 2092TIP3    H1 6217   0.872   7.197   5.836 -0.6267  0.1560  0.4842
 2092TIP3    H2 6218   0.821   7.091   5.740 -0.2495 -0.9268  1.4488
 2093TIP3   OH2 6219   2.605   4.768   4.301 -0.2320  0.7636 -0.2835
 2093TIP3    H1 6220   2.531   4.756   4.242 -1.1492  1.5131  0.6678
 2093TIP3    H2 6221   2.567   4.763   4.389  1.1186 -0.4789  0.2756
 2094TIP3   OH2 6222   0.808   4.389   0.029  0.5016 -0.4517 -0.1544
 2094TIP3    H1 6223   0.884   4.443   0.005  0.0599  1.3979  2.1490
 2094TIP3    H2 6224   0.737   4.422  -0.025  0.6542  0.0610 -0.0500
 2095TIP3   OH2 6225   7.119   5.691   3.347 -0.5611 -0.3080  0.4088
 2095TIP3    H1 6226   7.169   5.611   3.332  1.1048  0.8754 -0.7403
 2095TIP3    H2 6227   7.098   5.689   3.440  1.4282 -0.9922  0.8782
 2096TIP3   OH2 6228   2.652   6.400   4.548 -0.5836  0.5701  0.0799
 2096TIP3    H1 6229   2.661   6.470   4.613 -1.7521 -0.0313  0.9202
 2096TIP3    H2 6230   2.582   6.430   4.490  1.6741  1.9706 -2.1187
 2097TIP3   OH2 6231   4.412   1.620   6.162 -0.0281 -0.0735 -0.6784
 2097TIP3    H1 6232   4.425   1.618   6.067 -0.3144  1.5292 -0.7882
 2097TIP3    H2 6233   4.334   1.674   6.174 -0.3390 -0.7380  0.4534
 2098TIP3   OH2 6234   7.940   4.597   0.532 -0.0029 -0.1578 -0.0404
 2098TIP3    H1 6235   8.016   4.551   0.498  0.2921 -2.2549  3.0203
 2098TIP3    H2 6236   7.975   4.678   0.570  0.6564 -0.8416  0.8419
 2099TIP3   OH2 6237   7.170   6.802   3.321 -0.5932  0.4132 -0.5152
 2099TIP3    H1 6238   7.143   6.742   3.251 -1.0275  0.7126 -0.6039
 2099TIP3    H2 6239   7.117   6.881   3.308  1.3542  1.6124 -1.6111
 2100TIP3   OH2 6240   1.876   4.766   4.814 -0.5209  0.0784  0.1212
 2100TIP3    H1 6241   1.914   4.839   4.862  0.4753 -1.3785  1.6523
 2100TIP3    H2 6242   1.824   4.718   4.879 -2.5313  0.2938 -1.2283
 2101TIP3   OH2 6243   4.140   3.352   1.846 -0.5770 -0.6024  0.2966
 2101TIP3    H1 6244   4.188   3.404   1.782  0.1698  1.0131  2.0674
 2101TIP3    H2 6245   4.194   3.274   1.858 -0.4987 -0.7122 -0.6615
 2102TIP3   OH2 6246   5.938   0.827   3.151 -0.0131  0.3793 -0.1002
 2102TIP3    H1 6247   5.920   0.887   3.078 -2.4162  0.5224  0.5476
 2102TIP3    H2 6248   5.959   0.744   3.108  0.1458  0.8431 -0.9640
 2103TIP3   OH2 6249   3.328   3.526   0.813  0.0081 -0.3993 -0.0664
 2103TIP3    H1 6250   3.401   3.524   0.875  1.0100  1.5944 -1.0753
 2103TIP3    H2 6251   3.318   3.436   0.784 -0.4589 -1.3956  2.8951
 2104TIP3   OH2 6252   7.026   5.865   5.278 -0.1942  0.3320  0.4349
 2104TIP3    H1 6253   7.044   5.959   5.273  1.3036  0.0709  0.4905
 2104TIP3    H2 6254   7.008   5.849   5.370  0.7513  0.3753  0.6355
 2105TIP3   OH2 6255   6.373   0.611   5.250  0.0387 -0.0005 -0.6184
 2105TIP3    H1 6256   6.353   0.559   5.172 -1.6002  1.5355 -1.2770
 2105TIP3    H2 6257   6.321   0.571   5.319 -0.2743  0.0298 -0.8362
 2106TIP3   OH2 6258   3.120   6.398   5.986  0.2861 -0.0379  0.1281
 2106TIP3    H1 6259   3.036   6.368   6.020  0.5534 -0.0789  0.7620
 2106TIP3    H2 6260   3.122   6.492   6.004  1.7662 -0.5418  3.2179
 2107TIP3   OH2 6261   7.189   6.954   4.788  0.0109 -0.1668 -0.2806
 2107TIP3    H1 6262   7.095   6.964   4.771 -0.4268  0.8285  2.3218
 2107TIP3    H2 6263   7.223   7.043   4.790  0.2644 -0.2693  2.2999
 2108TIP3   OH2 6264   1.285   7.190   6.400  0.4725 -0.6807 -0.1248
 2108TIP3    H1 6265   1.335   7.216   6.478  0.8559  1.6747 -1.0503
 2108TIP3    H2 6266   1.329   7.235   6.328 -0.9118 -1.3730 -1.4579
 2109TIP3   OH2 6267   5.461   6.110   3.349 -0.4111  0.0446 -0.7316
 2109TIP3    H1 6268   5.420   6.030   3.383 -0.7815  0.2338 -0.7298
 2109TIP3    H2 6269   5.394   6.149   3.293 -0.6493  0.9352  0.1389
 2110TIP3   OH2 6270   3.995   1.383   0.593 -0.1828 -0.3979  0.1935
 2110TIP3    H1 6271   3.971   1.363   0.502  1.2055 -0.3988 -0.1988
 2110TIP3    H2 6272   3.945   1.462   0.614 -0.2175 -0.1583 -0.7216
 2111TIP3   OH2 6273   7.800   4.955   0.851  0.4183  0.0308  0.0608
 2111TIP3    H1 6274   7.728   4.914   0.803  0.7092 -0.2706 -0.1225
 2111TIP3    H2 6275   7.784   4.933   0.943 -0.5793  1.2776  0.2103
 2112TIP3   OH2 6276   5.196   5.929   0.699  0.0844  0.0500 -0.0081
 2112TIP3    H1 6277   5.150   5.888   0.626 -1.2087  1.1144  0.1574
 2112TIP3    H2 6278   5.175   5.874   0.775 -1.5401  0.8962  0.1926
 2113TIP3   OH2 6279   0.678   1.973   1.108  0.1137 -0.7053  0.0915
 2113TIP3    H1 6280   0.744   2.029   1.068  1.3754 -1.3805  1.1522
 2113TIP3    H2 6281   0.616   1.955   1.037  1.1467 -0.1832 -0.9790
 2114TIP3   OH2 6282   3.443   2.433   0.132 -0.3045  0.7065  0.0879
 2114TIP3    H1 6283   3.371   2.405   0.076  0.2270 -1.7302  0.5144
 2114TIP3    H2 6284   3.521   2.394   0.092  0.4570  1.3186  0.9430
 2115TIP3   OH2 6285   4.687   1.306   6.716 -0.4165 -0.1405  0.8582
 2115TIP3    H1 6286   4.653   1.393   6.694 -0.3924 -0.5309 -0.8649
 2115TIP3    H2 6287   4.747   1.322   6.790 -0.9395  1.1891  1.0297
 2116TIP3   OH2 6288   1.758   1.922   3.745  0.3802 -0.2765  0.5325
 2116TIP3    H1 6289   1.781   1.940   3.654  2.2296 -0.4227  0.9282
 2116TIP3    H2 6290   1.667   1.951   3.753  0.5600  0.8521 -1.0351
 2117TIP3   OH2 6291   4.849   6.671   6.480 -0.4228 -0.0822 -0.5278
 2117TIP3    H1 6292   4.888   6.663   6.568  2.0315  0.5197 -1.4775
 2117TIP3    H2 6293   4.756   6.689   6.497 -0.9355 -3.7742  1.8995
 2118TIP3   OH2 6294   5.206   5.254   5.608 -0.0415 -0.4419 -0.2185
 2118TIP3    H1 6295   5.272   5.186   5.618  0.4212  0.1007  0.5495
 2118TIP3    H2 6296   5.167   5.238   5.522 -0.7412 -2.3584  0.4078
 2119TIP3   OH2 6297   8.089   3.036   1.484 -1.0643  0.4152  0.2412
 2119TIP3    H1 6298   8.061   3.126   1.466 -0.0570  0.8986  1.0187
 2119TIP3    H2 6299   8.055   2.985   1.410 -1.8786  1.3774 -0.0720
 2120TIP3   OH2 6300   7.636   5.386   0.070  0.2374 -0.6022  0.0642
 2120TIP3    H1 6301   7.690   5.464   0.063 -0.3982 -0.2660 -1.5027
 2120TIP3    H2 6302   7.694   5.320   0.108  1.7766 -0.2612 -1.5448
 2121TIP3   OH2 6303   3.261   0.103   6.815 -0.5856  0.3988  0.3990
 2121TIP3    H1 6304   3.206   0.047   6.871  2.1740 -3.7047 -0.5017
 2121TIP3    H2 6305   3.314   0.154   6.876 -1.6293  0.4088  1.3373
 2122TIP3   OH2 6306   1.086   6.966   2.946 -0.1114 -0.0841 -0.1438
 2122TIP3    H1 6307   1.080   7.036   2.881 -1.0343 -1.0898 -1.2104
 2122TIP3    H2 6308   1.093   7.011   3.030 -1.8998  1.3196 -0.6852
 2123TIP3   OH2 6309   5.816   3.791   0.444  0.3633  0.0255  0.2455
 2123TIP3    H1 6310   5.898   3.809   0.490  0.5663  0.2275 -0.1904
 2123TIP3    H2 6311   5.836   3.808   0.352  0.4464 -2.0213 -0.1593
 2124TIP3   OH2 6312   7.009   4.974   2.863  0.0347 -0.4907 -0.4905
 2124TIP3    H1 6313   7.093   4.953   2.823 -0.5934 -1.0319 -1.5701
 2124TIP3    H2 6314   6.952   4.901   2.839 -0.9018  0.1432 -0.2539
 2125TIP3   OH2 6315   4.943   0.071   3.410  0.3679 -0.3532 -0.1678
 2125TIP3    H1 6316   4.872   0.037   3.356  0.3942 -0.1762 -0.3119
 2125TIP3    H2 6317   4.989   0.132   3.354  1.2388 -1.1945 -0.4006
 2126TIP3   OH2 6318   7.895   6.241   1.149 -0.2929 -0.1463  0.0399
 2126TIP3    H1 6319   7.971   6.270   1.100 -0.4732 -0.0785 -0.2025
 2126TIP3    H2 6320   7.925   6.235   1.240  0.1999 -0.8488 -0.1685
 2127TIP3   OH2 6321   2.663   6.926   3.439 -0.1828 -0.5350 -0.2424
 2127TIP3    H1 6322   2.589   6.986   3.431  0.4732  0.3875  0.3956
 2127TIP3    H2 6323   2.623   6.842   3.462 -0.9705  0.2646  1.4750
 2128TIP3   OH2 6324   1.668   2.525   6.037  0.0470 -0.1620 -0.4348
 2128TIP3    H1 6325   1.726   2.499   6.109 -0.4363 -0.1981 -0.0495
 2128TIP3    H2 6326   1.697   2.473   5.963  1.8209  1.2636 -0.8206
 2129TIP3   OH2 6327   0.339   0.656   4.510 -0.1038 -0.5707 -0.1882
 2129TIP3    H1 6328   0.425   0.646   4.468 -0.1560 -3.9274  0.2076
 2129TIP3    H2 6329   0.347   0.733   4.565  1.2914  1.6075 -3.1777
 2130TIP3   OH2 6330   4.733   0.017   3.720  0.0704 -0.0587 -0.5412
 2130TIP3    H1 6331   4.821  -0.021   3.715  0.0666 -0.1602  0.1180
 2130TIP3    H2 6332   4.738   0.096   3.666  0.5357 -0.1119 -0.5805
 2131TIP3   OH2 6333   0.517   6.107   3.049 -0.0720  0.1995  0.7354
 2131TIP3    H1 6334   0.477   6.194   3.059  1.1601  0.8698  0.0186
 2131TIP3    H2 6335   0.460   6.061   2.987 -1.1189  0.2314  1.6492
 2132TIP3   OH2 6336   1.291   4.586   1.408  0.1989  0.1155  0.1726
 2132TIP3    H1 6337   1.308   4.578   1.502  0.5017  2.6588  0.3762
 2132TIP3    H2 6338   1.362   4.640   1.374 -0.0550 -0.5359 -1.5091
 2133TIP3   OH2 6339   2.195   1.126   1.419  0.9066 -0.2063  0.2483
 2133TIP3    H1 6340   2.162   1.160   1.502  0.0906 -0.7557  0.1551
 2133TIP3    H2 6341   2.151   1.042   1.408 -0.6583  0.7901 -1.7571
 2134TIP3   OH2 6342   3.368   6.286   6.122  0.1271  0.4868 -0.3691
 2134TIP3    H1 6343   3.287   6.334   6.103 -0.5390 -0.6947 -0.6114
 2134TIP3    H2 6344   3.417   6.289   6.040 -1.6529 -2.5056 -1.6690
 2135TIP3   OH2 6345   3.947   6.924   0.184 -0.4977  0.0172  0.6359
 2135TIP3    H1 6346   3.997   6.916   0.265 -0.5393 -0.6145  0.6050
 2135TIP3    H2 6347   3.978   6.852   0.130 -0.3433  0.5406  0.0144
 2136TIP3   OH2 6348   2.548   7.885   0.742  0.4597 -0.0740 -0.9013
 2136TIP3    H1 6349   2.509   7.864   0.828  2.2483  1.3209  0.3222
 2136TIP3    H2 6350   2.492   7.840   0.679 -0.8007 -1.3301  1.0061
 2137TIP3   OH2 6351   5.663   7.690   4.185  0.0938  0.1629  0.5721
 2137TIP3    H1 6352   5.574   7.710   4.154 -0.4830 -1.4832  1.0847
 2137TIP3    H2 6353   5.673   7.744   4.264 -1.1234 -0.9063  1.4896
 2138TIP3   OH2 6354   0.502   5.817   0.200 -0.2270 -0.3101  0.4423
 2138TIP3    H1 6355   0.596   5.815   0.216  0.1506 -2.3132 -1.4523
 2138TIP3    H2 6356   0.494   5.855   0.112 -1.0895 -0.9078  0.2470
 2139TIP3   OH2 6357   5.995   1.900   0.857 -0.3351  0.4064 -0.1587
 2139TIP3    H1 6358   6.036   1.977   0.817 -0.0480  1.1654  1.5170
 2139TIP3    H2 6359   6.055   1.828   0.837  0.4478  1.0040 -0.0088
 2140TIP3   OH2 6360   2.114   2.158   6.139 -0.0603 -0.3964 -0.1893
 2140TIP3    H1 6361   2.101   2.221   6.209  2.1702 -1.6788  1.5189
 2140TIP3    H2 6362   2.068   2.079   6.168 -2.2542  0.1138 -1.9919
 2141TIP3   OH2 6363   7.072   5.481   6.758  0.0153 -0.6393  0.0676
 2141TIP3    H1 6364   7.052   5.434   6.677 -0.1472 -0.3250 -0.0798
 2141TIP3    H2 6365   7.109   5.564   6.728 -1.3888  0.0844  0.2722
 2142TIP3   OH2 6366   1.793   7.448   0.557  0.5272 -0.3014 -0.1279
 2142TIP3    H1 6367   1.702   7.421   0.571  0.4035 -1.2548 -2.3319
 2142TIP3    H2 6368   1.808   7.517   0.621 -1.8177  0.0180  0.1630
 2143TIP3   OH2 6369   0.973   6.534   4.060  0.2721  0.1852  0.5871
 2143TIP3    H1 6370   0.979   6.519   3.965  1.2438 -0.6229  0.7441
 2143TIP3    H2 6371   0.909   6.470   4.090  0.1857  0.2337  0.5049
 2144TIP3   OH2 6372   8.376   5.741   3.087 -0.1776  0.2185 -0.2799
 2144TIP3    H1 6373   8.330   5.682   3.146 -0.4020 -0.7832 -1.4057
 2144TIP3    H2 6374   8.468   5.719   3.097  0.0759  1.8637  1.5883
 2145TIP3   OH2 6375   4.306   2.581   5.058  0.2087  0.1411  0.5732
 2145TIP3    H1 6376   4.383   2.526   5.047  0.6557  0.6965  0.8620
 2145TIP3    H2 6377   4.258   2.541   5.130 -0.4214 -0.9175 -0.4030
 2146TIP3   OH2 6378   2.596   3.336   0.214  0.0635  0.3510 -0.7238
 2146TIP3    H1 6379   2.612   3.314   0.306  1.5305  0.1284 -1.0152
 2146TIP3    H2 6380   2.585   3.431   0.213  0.8053  0.4416 -0.4196
 2147TIP3   OH2 6381   6.342   6.493   6.161  0.4256 -0.5610  0.2994
 2147TIP3    H1 6382   6.354   6.586   6.179 -0.2907 -0.4743  0.3541
 2147TIP3    H2 6383   6.408   6.449   6.215  0.2074 -0.1367  0.9176
 2148TIP3   OH2 6384   5.958   1.902   3.953 -0.4738 -0.1873 -0.3664
 2148TIP3    H1 6385   5.931   1.985   3.992  1.8464  0.4188  0.1425
 2148TIP3    H2 6386   5.895   1.887   3.883 -1.3668  1.6437 -0.0279
 2149TIP3   OH2 6387   2.483   3.711   6.313 -0.5660  0.2516  0.0678
 2149TIP3    H1 6388   2.463   3.625   6.348  0.3866 -0.2885 -0.6462
 2149TIP3    H2 6389   2.487   3.769   6.389 -0.2376 -0.5389  0.6583
 2150TIP3   OH2 6390   7.405   5.425   6.516  0.3250 -0.0909  0.0934
 2150TIP3    H1 6391   7.310   5.418   6.511 -0.1956  3.2099  1.9020
 2150TIP3    H2 6392   7.438   5.358   6.456 -3.1587  0.1724 -2.4205
 2151TIP3   OH2 6393   2.381   1.254   6.541 -0.4985  0.5482 -0.3294
 2151TIP3    H1 6394   2.336   1.337   6.528 -1.8108 -0.0876  0.0232
 2151TIP3    H2 6395   2.311   1.189   6.545  0.4648 -0.4903  0.0834
 2152TIP3   OH2 6396   0.819   6.708   5.586  0.0982  0.1652  0.4065
 2152TIP3    H1 6397   0.750   6.745   5.641 -0.7490 -0.1558 -0.4086
 2152TIP3    H2 6398   0.773   6.667   5.513  1.2048  2.2422 -1.6078
 2153TIP3   OH2 6399   0.157   6.851   0.128 -0.3456 -0.0314 -0.1916
 2153TIP3    H1 6400   0.167   6.847   0.033  0.0761 -1.4218 -0.1125
 2153TIP3    H2 6401   0.241   6.882   0.161 -0.4826  0.4236 -0.2655
 2154TIP3   OH2 6402   2.474   4.565   4.894  0.0170  0.8435  0.5780
 2154TIP3    H1 6403   2.402   4.515   4.856  1.2365  0.6135 -1.6103
 2154TIP3    H2 6404   2.534   4.499   4.928  0.5050  0.8727 -0.1837
 2155TIP3   OH2 6405   6.052   5.977   6.469  0.1659  0.3641 -0.6184
 2155TIP3    H1 6406   6.028   6.057   6.516  1.4003  0.3599  0.0837
 2155TIP3    H2 6407   5.970   5.943   6.435 -0.6919  0.7736  0.9188
 2156TIP3   OH2 6408   2.242   0.413   5.785 -0.0583 -0.1562 -0.2919
 2156TIP3    H1 6409   2.213   0.407   5.876 -2.1653 -3.3651 -1.0343
 2156TIP3    H2 6410   2.203   0.495   5.754 -0.2737  0.4196  1.3487
 2157TIP3   OH2 6411   6.707   5.266   4.259 -0.3334  0.1201  0.0156
 2157TIP3    H1 6412   6.636   5.249   4.321 -2.1910 -1.1520 -2.2799
 2157TIP3    H2 6413   6.712   5.361   4.254 -1.6489  0.2425  0.5296
 2158TIP3   OH2 6414   2.363   3.573   1.373 -0.0220 -0.4688 -0.2401
 2158TIP3    H1 6415   2.413   3.538   1.447 -0.3970 -2.1320 -0.7527
 2158TIP3    H2 6416   2.350   3.665   1.396  2.5247 -0.1541  0.3113
 2159TIP3   OH2 6417   1.490   4.912   1.622  0.2135 -0.4603  0.0971
 2159TIP3    H1 6418   1.403   4.894   1.586  1.3076 -0.4650 -2.8176
 2159TIP3    H2 6419   1.535   4.828   1.617 -0.0933 -0.9314  3.3912
 2160TIP3   OH2 6420   8.344   3.330   0.810  0.5038  0.1023  0.3427
 2160TIP3    H1 6421   8.267   3.365   0.766  0.9838 -0.7930 -1.3107
 2160TIP3    H2 6422   8.319   3.240   0.834  1.6164 -0.9008 -1.9888
 2161TIP3   OH2 6423   1.451   6.176   4.087 -0.7944 -0.5049  0.0079
 2161TIP3    H1 6424   1.392   6.123   4.035 -1.5653 -1.1570  1.4847
 2161TIP3    H2 6425   1.538   6.158   4.051 -1.4027  0.0742 -1.8602
 2162TIP3   OH2 6426   2.461   5.264   6.317 -0.5019  0.0844 -0.6303
 2162TIP3    H1 6427   2.370   5.246   6.293 -1.5377  2.8973  0.7450
 2162TIP3    H2 6428   2.472   5.224   6.403 -0.5939  0.1545 -0.5865
 2163TIP3   OH2 6429   3.513   7.905   6.741  0.9054 -0.5435  0.0925
 2163TIP3    H1 6430   3.554   7.980   6.784 -1.1260  0.5200  0.3222
 2163TIP3    H2 6431   3.578   7.874   6.679  1.2805  2.4105 -1.1497
 2164TIP3   OH2 6432   3.553   5.917   6.195  0.4600 -0.4065 -0.1423
 2164TIP3    H1 6433   3.513   5.880   6.274  0.3452  0.7388  0.3527
 2164TIP3    H2 6434   3.481   5.961   6.150  0.9932  1.1074  0.4244
 2165TIP3   OH2 6435   5.353   3.960   5.595  0.2979  0.5307 -0.1866
 2165TIP3    H1 6436   5.449   3.967   5.593  0.5021 -1.5862 -1.4323
 2165TIP3    H2 6437   5.324   4.008   5.517  0.2923  1.5685  0.4456
 2166TIP3   OH2 6438   5.313   5.561   4.971 -0.4074  0.3979 -0.4996
 2166TIP3    H1 6439   5.339   5.523   5.055 -1.2695 -1.9175 -1.2189
 2166TIP3    H2 6440   5.251   5.630   4.994  0.6326  0.9363  0.8201
 2167TIP3   OH2 6441   6.578   1.352   5.625 -0.4593  0.3175  0.1168
 2167TIP3    H1 6442   6.648   1.416   5.611 -1.2097  0.9846 -0.7175
 2167TIP3    H2 6443   6.597   1.282   5.562 -0.6831  0.6333 -0.3120
 2168TIP3   OH2 6444   1.768   3.601   6.600  0.4375 -0.2851  0.2273
 2168TIP3    H1 6445   1.765   3.571   6.690  1.1300 -0.9938  0.0239
 2168TIP3    H2 6446   1.716   3.681   6.599  0.6125 -0.1556  1.2971
 2169TIP3   OH2 6447   0.980   2.966   1.594  0.6466  0.5366  0.2928
 2169TIP3    H1 6448   0.892   2.932   1.608 -0.0681  2.4314  0.7663
 2169TIP3    H2 6449   0.985   2.981   1.499  0.3875  0.5890  0.2858
 2170TIP3   OH2 6450   3.016   5.539   0.414 -0.6492 -0.4835 -0.1264
 2170TIP3    H1 6451   3.051   5.628   0.424 -0.1766 -0.8803  2.3112
 2170TIP3    H2 6452   3.093   5.483   0.413 -1.0256 -1.0543  1.1741
 2171TIP3   OH2 6453   5.657   2.294   0.425  0.2919 -0.2109  0.5187
 2171TIP3    H1 6454   5.729   2.340   0.468  0.3182 -0.4693  0.7556
 2171TIP3    H2 6455   5.593   2.278   0.495  0.6891 -1.3368  0.6406
 2172TIP3   OH2 6456   0.577   5.208   5.421  0.5243  0.1446  0.1922
 2172TIP3    H1 6457   0.569   5.202   5.516 -1.0729 -1.3444  0.0295
 2172TIP3    H2 6458   0.509   5.271   5.395  1.5263  1.2035  0.0815
 2173TIP3   OH2 6459   5.539   3.978   6.554  0.5662  0.2506 -0.3702
 2173TIP3    H1 6460   5.542   3.973   6.459 -0.6328 -0.9094 -0.3774
 2173TIP3    H2 6461   5.599   3.909   6.584 -0.7974 -0.9747 -0.3358
 2174TIP3   OH2 6462   1.012   2.241   3.434  0.3904 -0.0899 -0.3078
 2174TIP3    H1 6463   1.078   2.229   3.366  1.0601  0.8020  0.1695
 2174TIP3    H2 6464   0.930   2.254   3.385  0.8884  0.7239 -0.9622
 2175TIP3   OH2 6465   2.854   2.941   3.385 -0.0530  0.3977  0.1076
 2175TIP3    H1 6466   2.797   2.868   3.408  0.3391  0.5448  1.6880
 2175TIP3    H2 6467   2.869   2.932   3.291  0.4063 -1.8725  0.3412
 2176TIP3   OH2 6468   5.206   0.253   3.607  0.2330  0.2709  0.2507
 2176TIP3    H1 6469   5.269   0.187   3.577 -2.4632 -0.9466 -3.4011
 2176TIP3    H2 6470   5.234   0.334   3.565  2.4738  1.2530  3.2737
 2177TIP3   OH2 6471   7.852   3.523   3.421  0.3857  0.0671  0.3860
 2177TIP3    H1 6472   7.921   3.547   3.483 -0.7161  1.9735  0.9651
 2177TIP3    H2 6473   7.880   3.561   3.338  0.0840  0.8300  0.6189
 2178TIP3   OH2 6474   3.920   1.636   2.454  0.3412 -0.2484 -0.0863
 2178TIP3    H1 6475   3.891   1.596   2.371  0.1127 -2.4416  0.9703
 2178TIP3    H2 6476   3.956   1.721   2.428 -2.4909  0.5095 -2.0925
 2179TIP3   OH2 6477   7.620   4.866   0.661 -0.3405  0.3123  0.4365
 2179TIP3    H1 6478   7.694   4.903   0.614 -0.7535  1.4831  0.6687
 2179TIP3    H2 6479   7.544   4.916   0.630 -0.5008  1.8949  3.0735
 2180TIP3   OH2 6480   7.595   2.499   5.041 -0.0285  0.1244 -0.3955
 2180TIP3    H1 6481   7.680   2.499   4.996 -0.0119  1.3730 -0.3766
 2180TIP3    H2 6482   7.539   2.444   4.987  0.5272  0.0714 -0.9208
 2181TIP3   OH2 6483   6.689   2.015   6.350  0.2729  0.7335 -0.2256
 2181TIP3    H1 6484   6.763   2.056   6.395 -1.1633  1.6013  1.4573
 2181TIP3    H2 6485   6.718   1.925   6.334  1.8864  1.2026 -0.1335
 2182TIP3   OH2 6486   2.052   2.750   1.434  0.3543 -0.0994  0.1414
 2182TIP3    H1 6487   2.115   2.800   1.382 -0.3032 -0.4414 -1.0137
 2182TIP3    H2 6488   2.028   2.676   1.378  0.5616 -1.1843  1.4270
 2183TIP3   OH2 6489   1.734   4.393   2.078 -0.4492  0.0523  0.1627
 2183TIP3    H1 6490   1.690   4.395   1.993 -0.5272 -0.2084  0.1973
 2183TIP3    H2 6491   1.742   4.300   2.099  0.8082  0.0713 -0.1925
 2184TIP3   OH2 6492   3.877   6.349   4.248 -0.1403 -0.0421  0.0604
 2184TIP3    H1 6493   3.844   6.422   4.300  0.4669  0.5978 -0.4405
 2184TIP3    H2 6494   3.960   6.325   4.291  0.7021  0.9226 -0.9720
 2185TIP3   OH2 6495   1.842   5.812   5.367 -0.3542 -0.1649 -0.1677
 2185TIP3    H1 6496   1.868   5.830   5.457  3.1534  3.2783 -1.5440
 2185TIP3    H2 6497   1.919   5.770   5.328 -2.0869 -2.3370 -1.4904
 2186TIP3   OH2 6498   6.285   6.417   0.228 -0.5612  0.1008  0.4259
 2186TIP3    H1 6499   6.369   6.449   0.261 -0.8741  0.8021  0.5602
 2186TIP3    H2 6500   6.230   6.496   0.222 -0.3202  0.1607 -2.4171
 2187TIP3   OH2 6501   6.931   2.523   5.545 -0.1952  0.0535 -0.2294
 2187TIP3    H1 6502   6.864   2.568   5.596  0.6348  1.6114 -0.4641
 2187TIP3    H2 6503   6.996   2.590   5.526 -0.5642 -0.3763 -3.5567
 2188TIP3   OH2 6504   0.819   4.931   3.241  0.9978  0.2765 -0.1965
 2188TIP3    H1 6505   0.742   4.949   3.294 -0.6543  2.6503 -3.0741
 2188TIP3    H2 6506   0.873   4.873   3.295 -2.3719 -0.8310  2.2765
 2189TIP3   OH2 6507   4.388   7.483   6.652  0.2526  0.1376  0.2730
 2189TIP3    H1 6508   4.479   7.453   6.655  0.0889 -0.3065  1.6766
 2189TIP3    H2 6509   4.392   7.576   6.672  0.2924 -0.1995  1.9386
 2190TIP3   OH2 6510   6.874   0.180   2.318 -0.2851  0.0290  0.8429
 2190TIP3    H1 6511   6.868   0.220   2.232 -2.0857 -0.7501  0.5667
 2190TIP3    H2 6512   6.955   0.216   2.356 -0.2121  1.4672 -0.5878
 2191TIP3   OH2 6513   3.535   2.913   1.533  0.0379  0.2880  0.2589
 2191TIP3    H1 6514   3.626   2.945   1.528 -0.5151  1.7804 -0.9914
 2191TIP3    H2 6515   3.501   2.952   1.614  0.7737 -1.0930  1.2696
 2192TIP3   OH2 6516   7.319   4.771   1.470 -0.1360 -0.1091 -0.0230
 2192TIP3    H1 6517   7.347   4.724   1.392 -0.7207 -0.5740  0.0354
 2192TIP3    H2 6518   7.250   4.716   1.508  0.4271 -0.1095  1.0520
 2193TIP3   OH2 6519   4.010   5.960   2.797  0.0329  0.3049 -0.5720
 2193TIP3    H1 6520   3.922   5.994   2.789 -0.1083  0.0058 -0.3259
 2193TIP3    H2 6521   4.000   5.865   2.785  0.2073  0.1758  0.2176
 2194TIP3   OH2 6522   4.349   1.415   5.170 -0.3067  0.7318  0.0296
 2194TIP3    H1 6523   4.279   1.461   5.216 -0.8898 -0.3543  0.2635
 2194TIP3    H2 6524   4.314   1.399   5.083 -1.8277 -2.7871  1.0854
 2195TIP3   OH2 6525   5.405   1.231   2.105 -0.2120 -0.2441  0.3363
 2195TIP3    H1 6526   5.397   1.208   2.197 -4.2249  0.3235  0.3096
 2195TIP3    H2 6527   5.412   1.327   2.104 -0.1648 -0.2480  0.0392
 2196TIP3   OH2 6528   3.416   7.881   2.194 -0.3316 -0.6771  0.0319
 2196TIP3    H1 6529   3.430   7.809   2.133 -0.9112 -0.1515 -0.7405
 2196TIP3    H2 6530   3.333   7.859   2.237 -2.3161  1.0936 -2.5874
 2197TIP3   OH2 6531   3.683   1.288   2.053  0.0037 -0.0875 -0.3754
 2197TIP3    H1 6532   3.753   1.335   2.008  0.5790 -1.5471 -1.0690
 2197TIP3    H2 6533   3.611   1.287   1.990 -0.4214  0.8368  0.0824
 2198TIP3   OH2 6534   6.245   5.995   3.847 -0.5457  0.2621 -0.3769
 2198TIP3    H1 6535   6.294   6.013   3.927 -0.7153  1.1215 -0.4561
 2198TIP3    H2 6536   6.224   5.901   3.852  0.2611  0.1012  0.1174
 2199TIP3   OH2 6537   2.857   2.100   2.221  0.4242  0.0871  0.1763
 2199TIP3    H1 6538   2.886   2.181   2.179  0.3378  0.6983  1.2534
 2199TIP3    H2 6539   2.764   2.114   2.238  0.3734 -0.3053  0.2172
 2200TIP3   OH2 6540   2.062   7.220   2.000  0.1568 -0.0644 -0.4036
 2200TIP3    H1 6541   1.970   7.196   1.997 -0.2970  1.4576  0.4162
 2200TIP3    H2 6542   2.062   7.313   2.022  1.8190  0.6000 -2.8475
 2201TIP3   OH2 6543   1.397   5.875   5.680 -0.6194 -0.2452  0.2930
 2201TIP3    H1 6544   1.321   5.929   5.657 -0.4933 -0.8082 -1.5363
 2201TIP3    H2 6545   1.473   5.928   5.656 -0.4889 -1.0039 -1.0301
 2202TIP3   OH2 6546   3.394   2.110   0.521  0.2596  0.2204 -0.0130
 2202TIP3    H1 6547   3.401   2.175   0.451  0.3434 -0.9981 -1.1544
 2202TIP3    H2 6548   3.484   2.096   0.550  0.2974  0.1914 -0.1458
 2203TIP3   OH2 6549   6.586   2.389   4.816 -0.2073  0.6750 -0.3664
 2203TIP3    H1 6550   6.575   2.313   4.759 -2.1320  0.0594  0.7296
 2203TIP3    H2 6551   6.547   2.363   4.900 -0.9480  2.8539  0.0503
 2204TIP3   OH2 6552   7.358   4.490   2.109  0.0146 -0.1565  0.1968
 2204TIP3    H1 6553   7.370   4.396   2.120  0.2599 -0.0522  0.9334
 2204TIP3    H2 6554   7.438   4.528   2.146  0.1586  0.3193 -0.5851
 2205TIP3   OH2 6555   6.261   0.628   6.302 -0.0702  0.2995 -0.1180
 2205TIP3    H1 6556   6.195   0.594   6.242 -1.5300 -1.0037  2.0682
 2205TIP3    H2 6557   6.330   0.561   6.303  1.0953  1.3807 -1.9449
 2206TIP3   OH2 6558   3.299   7.425   2.075  0.1115 -0.0652 -0.4893
 2206TIP3    H1 6559   3.220   7.372   2.086  0.4133 -0.1441  1.9561
 2206TIP3    H2 6560   3.271   7.502   2.026 -1.6179  0.1463  0.7621
 2207TIP3   OH2 6561   5.954   0.394   4.356  0.2257 -0.1645 -0.3601
 2207TIP3    H1 6562   6.023   0.409   4.422  0.3946  0.7908 -0.7255
 2207TIP3    H2 6563   5.881   0.448   4.386 -0.5950 -1.6069  0.3249
 2208TIP3   OH2 6564   0.298   7.049   0.442  0.3751  0.3806  0.6058
 2208TIP3    H1 6565   0.309   6.956   0.421  1.2073  0.4870  0.5328
 2208TIP3    H2 6566   0.290   7.091   0.356  3.4513  0.7756  0.4100
 2209TIP3   OH2 6567   7.400   0.553   2.710  0.4421  0.9204  0.1284
 2209TIP3    H1 6568   7.433   0.642   2.705  0.8454  0.6987 -1.5171
 2209TIP3    H2 6569   7.469   0.499   2.671 -0.2095  0.0042  0.2018
 2210TIP3   OH2 6570   4.840   5.286   5.980 -0.0406 -0.0827 -0.0155
 2210TIP3    H1 6571   4.847   5.377   6.011  0.5031 -0.0324 -0.2763
 2210TIP3    H2 6572   4.839   5.234   6.060 -2.1043  0.2367  0.2250
 2211TIP3   OH2 6573   0.159   7.575   6.144  1.0503  0.2446  0.0339
 2211TIP3    H1 6574   0.151   7.502   6.083  0.2035  0.0783  0.3351
 2211TIP3    H2 6575   0.238   7.621   6.115  1.1262 -0.3065 -0.6735
 2212TIP3   OH2 6576   6.800   3.170   5.962 -0.8564 -0.4720 -0.3840
 2212TIP3    H1 6577   6.830   3.116   6.035 -0.7020  0.0034 -0.0897
 2212TIP3    H2 6578   6.820   3.260   5.989  0.0247 -0.3539 -1.4083
 2213TIP3   OH2 6579   5.457   1.061   3.249  0.0768 -0.3977 -0.1928
 2213TIP3    H1 6580   5.495   1.145   3.222  0.7297 -0.6453 -0.0439
 2213TIP3    H2 6581   5.363   1.079   3.256  0.0930  0.0927 -1.0455
 2214TIP3   OH2 6582   3.403   2.642   4.584  0.6231 -0.4071  0.5268
 2214TIP3    H1 6583   3.369   2.714   4.637 -1.7445 -1.2092  0.1916
 2214TIP3    H2 6584   3.495   2.665   4.570 -0.4766  3.8308 -1.5966
 2215TIP3   OH2 6585   0.719   5.671   4.110  0.0661  0.2477 -1.1254
 2215TIP3    H1 6586   0.647   5.615   4.136  1.9001 -2.5239 -1.6107
 2215TIP3    H2 6587   0.686   5.719   4.034 -1.7632  0.3950 -0.2989
 2216TIP3   OH2 6588   5.357   0.784   6.303 -0.5232  0.2836 -0.1158
 2216TIP3    H1 6589   5.419   0.734   6.250  0.5931  1.4862  0.0035
 2216TIP3    H2 6590   5.404   0.865   6.324 -1.7584  0.7673  0.8720
 2217TIP3   OH2 6591   0.831   7.509   4.653  0.0559 -0.6273 -0.3150
 2217TIP3    H1 6592   0.758   7.462   4.614  0.3306 -1.0891 -0.2868
 2217TIP3    H2 6593   0.825   7.598   4.617 -1.2443 -0.2990  0.6582
 2218TIP3   OH2 6594   0.068   3.766   0.255  0.1277 -0.2092  0.5665
 2218TIP3    H1 6595   0.129   3.716   0.199 -3.5200 -2.4057 -1.8859
 2218TIP3    H2 6596   0.035   3.702   0.317  0.3901  0.9844  1.9782
 2219TIP3   OH2 6597   3.053   5.486   3.541  0.3260  0.4154  0.6270
 2219TIP3    H1 6598   3.141   5.458   3.517 -0.0574  0.2445 -0.6420
 2219TIP3    H2 6599   2.998   5.461   3.466 -1.1753 -1.3181  2.1859
 2220TIP3   OH2 6600   2.526   1.730   2.429  0.4025 -0.4086  0.3380
 2220TIP3    H1 6601   2.525   1.659   2.493 -0.5699 -0.1119  0.6695
 2220TIP3    H2 6602   2.487   1.805   2.475 -0.4247 -0.2229 -0.6211
 2221TIP3   OH2 6603   2.065   6.622   4.123  0.5200 -0.2366  0.5558
 2221TIP3    H1 6604   2.081   6.528   4.121  0.8077 -0.1780 -0.4755
 2221TIP3    H2 6605   2.070   6.645   4.216 -1.4905 -1.5396  1.0381
 2222TIP3   OH2 6606   3.439   0.537   3.534 -0.0047 -0.0525  0.1059
 2222TIP3    H1 6607   3.394   0.564   3.454 -1.4297  0.0706  0.9183
 2222TIP3    H2 6608   3.504   0.605   3.549 -1.3403  1.2353  0.3318
 2223TIP3   OH2 6609   5.980   1.116   4.875 -0.0179  0.4417 -0.1194
 2223TIP3    H1 6610   5.987   1.047   4.942  0.3475  0.6449  0.0553
 2223TIP3    H2 6611   6.022   1.078   4.798 -1.4221 -0.2177 -0.5878
 2224TIP3   OH2 6612   3.376   2.935   3.337  0.9153 -0.1236 -0.0671
 2224TIP3    H1 6613   3.332   2.868   3.390 -0.8872  0.2691 -0.9812
 2224TIP3    H2 6614   3.330   3.016   3.359  1.3732  0.3633 -0.8742
 2225TIP3   OH2 6615   0.800   0.161   4.346 -0.5257  0.0645  0.1775
 2225TIP3    H1 6616   0.832   0.073   4.366  0.5475  0.6871  1.3499
 2225TIP3    H2 6617   0.775   0.157   4.253  0.7043 -1.1371 -0.1326
 2226TIP3   OH2 6618   3.183   6.453   6.264  0.0052  0.4930  0.5669
 2226TIP3    H1 6619   3.093   6.423   6.247  0.8610 -1.7882 -0.2669
 2226TIP3    H2 6620   3.201   6.424   6.354  0.4592 -0.6010  0.1399
 2227TIP3   OH2 6621   5.050   0.582   3.385  0.0055 -0.1433 -0.0913
 2227TIP3    H1 6622   5.045   0.676   3.366 -1.2007 -0.3270 -0.8349
 2227TIP3    H2 6623   4.985   0.569   3.454  0.2835 -0.4120  0.1206
 2228TIP3   OH2 6624   1.336   4.136   6.022 -0.6358  0.1142 -0.7898
 2228TIP3    H1 6625   1.299   4.062   6.072 -0.7183  0.7588  0.1400
 2228TIP3    H2 6626   1.301   4.125   5.934 -0.1507 -1.3065 -0.8288
 2229TIP3   OH2 6627   1.387   2.287   5.763 -0.3401 -1.0517  0.3801
 2229TIP3    H1 6628   1.348   2.374   5.757 -1.6861 -1.5714  1.0426
 2229TIP3    H2 6629   1.474   2.297   5.725 -0.6981  0.4295 -0.1346
 2230TIP3   OH2 6630   6.196   1.935   6.772 -0.1415 -0.3746 -0.7307
 2230TIP3    H1 6631   6.215   1.866   6.708 -0.1930  0.7781 -2.0402
 2230TIP3    H2 6632   6.118   1.977   6.738 -0.9425 -0.5632  0.8266
 2231TIP3   OH2 6633   1.231   4.854   4.568 -0.1438 -0.4346  0.3435
 2231TIP3    H1 6634   1.174   4.831   4.494 -1.3209  0.2432  1.0066
 2231TIP3    H2 6635   1.233   4.950   4.567  0.1165 -0.4315  0.9744
 2232TIP3   OH2 6636   8.397   5.666   5.109 -0.1395 -0.1066 -0.3447
 2232TIP3    H1 6637   8.462   5.723   5.068 -0.2821 -1.5285 -2.6942
 2232TIP3    H2 6638   8.343   5.634   5.037 -2.3130 -0.4376  1.3242
 2233TIP3   OH2 6639   8.055   2.920   6.589  0.6455  0.4444  0.1896
 2233TIP3    H1 6640   8.002   2.847   6.559  0.0992  1.2697 -0.9375
 2233TIP3    H2 6641   8.113   2.883   6.655  0.3342 -0.9788 -0.3122
 2234TIP3   OH2 6642   5.915   4.876   5.816  0.2400  0.0325  0.0164
 2234TIP3    H1 6643   5.971   4.884   5.738 -0.7472 -0.9038 -0.8273
 2234TIP3    H2 6644   5.970   4.832   5.881  0.7750 -0.0712 -0.4936
 2235TIP3   OH2 6645   3.723   4.710   3.671  0.2525  0.0595  0.0496
 2235TIP3    H1 6646   3.712   4.743   3.582  1.3206  0.0422 -0.0964
 2235TIP3    H2 6647   3.707   4.786   3.727 -1.8396 -0.2371 -0.0575
 2236TIP3   OH2 6648   0.380   2.668   1.672 -0.2314  0.0841 -0.2234
 2236TIP3    H1 6649   0.350   2.742   1.725 -0.9245 -0.1175 -0.3159
 2236TIP3    H2 6650   0.411   2.708   1.591  1.8763  0.4895  0.7359
 2237TIP3   OH2 6651   0.470   0.052   4.859  0.1865 -0.1801 -0.2938
 2237TIP3    H1 6652   0.395  -0.002   4.883  0.7877 -0.9056 -0.0212
 2237TIP3    H2 6653   0.546   0.004   4.892  0.6088  2.0133  2.2459
 2238TIP3   OH2 6654   5.693   5.583   2.601  0.4531  0.2519  0.1539
 2238TIP3    H1 6655   5.707   5.489   2.592 -0.5614  0.1672 -0.8175
 2238TIP3    H2 6656   5.612   5.600   2.552  0.1498  1.4894  1.0342
 2239TIP3   OH2 6657   7.512   5.949   3.147 -0.1127  0.0361  0.0609
 2239TIP3    H1 6658   7.596   5.924   3.185 -0.5135 -0.4335  0.6627
 2239TIP3    H2 6659   7.519   6.043   3.131  0.3860  0.0743  0.4893
 2240TIP3   OH2 6660   3.841   3.531   1.187  0.1123  0.0747 -0.5352
 2240TIP3    H1 6661   3.846   3.461   1.252 -1.4865  1.1009  0.7558
 2240TIP3    H2 6662   3.764   3.582   1.211 -0.4097  0.6650 -3.1039
 2241TIP3   OH2 6663   6.377   7.885   6.114 -0.0991  0.3595  0.3380
 2241TIP3    H1 6664   6.350   7.877   6.206  2.4353 -0.1228  1.1287
 2241TIP3    H2 6665   6.472   7.895   6.118  0.2495 -0.9989 -2.3051
 2242TIP3   OH2 6666   5.296   3.930   4.629 -0.2744 -0.3989  0.4391
 2242TIP3    H1 6667   5.256   3.983   4.698 -1.9070  0.5543 -1.1197
 2242TIP3    H2 6668   5.232   3.860   4.612  0.3695 -0.9593  0.2826
 2243TIP3   OH2 6669   4.431   4.196   0.682  0.1809 -0.3590 -0.4205
 2243TIP3    H1 6670   4.342   4.204   0.646  0.8614  2.5387 -1.7766
 2243TIP3    H2 6671   4.446   4.279   0.727  0.6950 -2.4750  3.8523
 2244TIP3   OH2 6672   7.963   6.342   6.249  0.1468  0.3915  0.2056
 2244TIP3    H1 6673   7.938   6.261   6.204  0.7921 -0.1960  0.8736
 2244TIP3    H2 6674   7.902   6.348   6.322  0.4489  0.2070  0.4756
 2245TIP3   OH2 6675   0.544   6.498   6.736  0.0891 -1.0642 -0.0552
 2245TIP3    H1 6676   0.623   6.551   6.727  0.3507 -1.3144  0.7625
 2245TIP3    H2 6677   0.526   6.467   6.647  2.1231 -2.7486  0.0529
 2246TIP3   OH2 6678   0.403   0.569   6.646 -0.1380 -0.3121  0.0424
 2246TIP3    H1 6679   0.497   0.566   6.628 -0.1187  0.0404  0.0891
 2246TIP3    H2 6680   0.388   0.656   6.681 -0.3086 -0.7356  1.0461
 2247TIP3   OH2 6681   0.890   3.641   1.505 -0.0545 -0.4480 -0.1612
 2247TIP3    H1 6682   0.824   3.575   1.483  2.0451 -2.4236 -0.9399
 2247TIP3    H2 6683   0.955   3.635   1.435  1.9907 -0.0618  1.5799
 2248TIP3   OH2 6684   0.963   0.357   2.512  0.1305 -0.2031  0.2917
 2248TIP3    H1 6685   1.005   0.279   2.549  0.6238 -0.3159 -0.4729
 2248TIP3    H2 6686   0.944   0.412   2.587  0.7301 -0.6061  0.7497
 2249TIP3   OH2 6687   3.013   3.015   1.443  0.3128 -0.5852 -0.2505
 2249TIP3    H1 6688   3.012   3.039   1.350  2.4932  2.2283  0.3505
 2249TIP3    H2 6689   2.980   3.092   1.488  1.0535 -1.2349  1.4591
 2250TIP3   OH2 6690   4.267   1.693   0.517  0.2049  0.1757 -0.8391
 2250TIP3    H1 6691   4.196   1.741   0.474 -0.2306 -1.0106 -1.4652
 2250TIP3    H2 6692   4.239   1.602   0.516  0.7614 -0.0470  0.8620
 2251TIP3   OH2 6693   8.336   1.658   0.815 -0.1657  0.0502  0.8379
 2251TIP3    H1 6694   8.382   1.613   0.744  0.2926  1.0718  0.4648
 2251TIP3    H2 6695   8.283   1.590   0.857 -1.8044 -0.2941 -1.5705
 2252TIP3   OH2 6696   7.372   4.941   0.502 -0.2554  0.1428 -0.0933
 2252TIP3    H1 6697   7.284   4.942   0.539 -0.8324  1.1028 -1.4062
 2252TIP3    H2 6698   7.365   4.884   0.425  0.1395  0.5963 -0.4756
 2253TIP3   OH2 6699   6.016   7.525   6.082 -0.4892 -0.1809 -0.0563
 2253TIP3    H1 6700   5.999   7.503   5.990 -0.8736 -1.2819  0.2617
 2253TIP3    H2 6701   5.999   7.619   6.087  2.9428  0.7200 -1.8712
 2254TIP3   OH2 6702   3.674   2.857   1.116 -0.3333 -0.1144 -0.2576
 2254TIP3    H1 6703   3.705   2.827   1.031 -0.0270  0.2859 -0.2835
 2254TIP3    H2 6704   3.588   2.896   1.098  0.4365  1.4687 -0.6514
 2255TIP3   OH2 6705   0.715   2.980   5.597  0.4341 -0.4967  0.4549
 2255TIP3    H1 6706   0.683   2.891   5.611 -1.8858  0.1569 -0.2293
 2255TIP3    H2 6707   0.666   3.012   5.521  0.1559  1.8240  1.5159
 2256TIP3   OH2 6708   2.619   2.193   5.605 -0.1322  0.7994  0.7844
 2256TIP3    H1 6709   2.625   2.209   5.511 -0.2474 -0.0686  0.6180
 2256TIP3    H2 6710   2.527   2.206   5.626 -0.3787 -0.4011  0.4962
 2257TIP3   OH2 6711   7.127   6.168   6.468  0.1252  0.6253  0.0072
 2257TIP3    H1 6712   7.116   6.133   6.380  0.4236  0.9732 -0.1704
 2257TIP3    H2 6713   7.050   6.136   6.516  0.1653  0.1054 -0.2676
 2258TIP3   OH2 6714   0.793   1.707   2.512  0.9529 -0.3495 -0.3163
 2258TIP3    H1 6715   0.718   1.753   2.474  1.7917  2.2548  0.9595
 2258TIP3    H2 6716   0.818   1.760   2.588  2.3896 -2.6513  0.9552
 2259TIP3   OH2 6717   7.365   1.771   6.602  0.2648  0.6539 -0.1637
 2259TIP3    H1 6718   7.299   1.742   6.665  0.7616 -0.7817 -0.2705
 2259TIP3    H2 6719   7.419   1.694   6.586  0.0438  0.9258 -2.5019
 2260TIP3   OH2 6720   0.574   0.653   0.051 -0.1959 -0.2215  0.3679
 2260TIP3    H1 6721   0.488   0.661   0.009  0.6993 -0.6562 -1.6820
 2260TIP3    H2 6722   0.636   0.654  -0.022  1.4598 -1.2833  1.6953
 2261TIP3   OH2 6723   2.067   3.680   0.939  0.1385  0.4460  0.1962
 2261TIP3    H1 6724   1.978   3.653   0.916  0.5745 -1.4704  0.6062
 2261TIP3    H2 6725   2.076   3.656   1.032  0.8525  1.2878  0.3562
 2262TIP3   OH2 6726   8.164   6.444   1.246  0.6836  0.0820  0.0342
 2262TIP3    H1 6727   8.130   6.364   1.286  0.5852 -0.4480 -1.0880
 2262TIP3    H2 6728   8.111   6.514   1.284  3.2137  0.1840  4.0765
 2263TIP3   OH2 6729   2.565   7.372   1.784  0.2560 -0.2995  0.3786
 2263TIP3    H1 6730   2.512   7.295   1.763 -1.7983  1.0171  0.4455
 2263TIP3    H2 6731   2.603   7.398   1.701 -2.0500  0.7155 -0.4439
 2264TIP3   OH2 6732   4.186   7.042   6.031 -0.1675  0.6312 -0.7063
 2264TIP3    H1 6733   4.134   7.113   6.069 -1.2266 -0.0902 -0.7554
 2264TIP3    H2 6734   4.268   7.044   6.080  0.3250  2.6291 -1.5051
 2265TIP3   OH2 6735   2.511   4.749   5.093 -0.1035  0.6412 -0.0119
 2265TIP3    H1 6736   2.510   4.689   5.019 -1.7575  0.4057  0.1699
 2265TIP3    H2 6737   2.504   4.692   5.170  0.6588  0.9379  0.2872
 2266TIP3   OH2 6738   6.007   0.018   2.601 -0.2774 -0.3208 -0.1474
 2266TIP3    H1 6739   6.067   0.092   2.612 -1.3403  0.8107 -1.5504
 2266TIP3    H2 6740   5.968   0.005   2.687  0.9474 -0.1840  0.4475
 2267TIP3   OH2 6741   5.095   3.997   0.299  0.4472 -0.6946 -0.5936
 2267TIP3    H1 6742   5.007   4.035   0.298  0.0151 -1.5425  1.2762
 2267TIP3    H2 6743   5.085   3.914   0.346  2.3631 -0.4892  0.2664
 2268TIP3   OH2 6744   3.061   7.788   1.745 -0.6757 -0.2133  0.6957
 2268TIP3    H1 6745   3.074   7.766   1.653 -0.9662 -0.6363  0.7521
 2268TIP3    H2 6746   3.081   7.707   1.792  1.4577  0.5318  1.1765
 2269TIP3   OH2 6747   7.593   3.326   2.890  0.0316  0.5931  0.1552
 2269TIP3    H1 6748   7.551   3.412   2.892 -1.0978  0.0592 -0.0666
 2269TIP3    H2 6749   7.601   3.306   2.797 -3.0863 -1.1163  0.1439
 2270TIP3   OH2 6750   0.527   4.743   5.542  0.3874  0.5178 -0.9084
 2270TIP3    H1 6751   0.444   4.786   5.522 -0.1618 -0.5807 -1.0352
 2270TIP3    H2 6752   0.574   4.743   5.459  1.7523  3.6576 -0.2682
 2271TIP3   OH2 6753   3.107   0.742   2.015 -0.6289 -0.2021 -0.0472
 2271TIP3    H1 6754   3.173   0.810   2.028 -0.5526 -0.3420  0.3151
 2271TIP3    H2 6755   3.145   0.664   2.055  0.7751 -1.3754 -3.3777
 2272TIP3   OH2 6756   2.618   0.329   1.047 -0.1945 -0.2582 -0.2687
 2272TIP3    H1 6757   2.688   0.302   0.988 -0.9667  0.4085 -1.5333
 2272TIP3    H2 6758   2.558   0.254   1.049 -0.9343  0.2707 -1.5717
 2273TIP3   OH2 6759   3.612   2.292   5.106  0.3759 -0.3330 -0.2385
 2273TIP3    H1 6760   3.548   2.353   5.143 -0.1283 -0.7741 -0.3817
 2273TIP3    H2 6761   3.697   2.325   5.138 -0.0628 -0.9951  1.8005
 2274TIP3   OH2 6762   5.374   3.083   3.954 -0.0415 -0.8817  0.2058
 2274TIP3    H1 6763   5.294   3.079   3.901 -0.6324 -1.0353  1.0893
 2274TIP3    H2 6764   5.372   3.170   3.994  0.6763 -0.5628 -0.4163
 2275TIP3   OH2 6765   0.786   3.662   4.639  0.5634 -0.2181 -0.4197
 2275TIP3    H1 6766   0.726   3.699   4.573  0.7852  1.2383  0.1531
 2275TIP3    H2 6767   0.819   3.582   4.598  1.7699  1.3210 -2.7112
 2276TIP3   OH2 6768   4.508   3.947   6.641  0.1019  0.1141 -0.3123
 2276TIP3    H1 6769   4.438   4.012   6.635  1.4171  1.4376 -2.2699
 2276TIP3    H2 6770   4.586   3.997   6.665  1.6242 -0.2239 -3.9791
 2277TIP3   OH2 6771   6.399   1.285   4.050  0.6016 -0.1661 -0.3202
 2277TIP3    H1 6772   6.460   1.335   4.104 -0.7677  1.5073 -0.2208
 2277TIP3    H2 6773   6.325   1.345   4.036 -0.1647 -1.4266 -2.0201
 2278TIP3   OH2 6774   2.400   5.404   2.151  0.6656  0.3585  0.0906
 2278TIP3    H1 6775   2.327   5.373   2.205  0.9960  0.0685  0.3746
 2278TIP3    H2 6776   2.372   5.387   2.061  0.8201 -0.7410  0.2352
 2279TIP3   OH2 6777   3.785   1.152   5.092 -0.3525 -0.2265 -0.8929
 2279TIP3    H1 6778   3.814   1.210   5.021  0.4339 -0.4776 -0.7880
 2279TIP3    H2 6779   3.814   1.065   5.064  1.3630 -0.1306  0.4402
 2280TIP3   OH2 6780   3.337   2.694   3.497  0.2039  0.0408  0.5469
 2280TIP3    H1 6781   3.383   2.628   3.445  0.2527  1.3683 -1.2173
 2280TIP3    H2 6782   3.273   2.644   3.548  2.0436 -1.6031  1.3367
 2281TIP3   OH2 6783   0.546   0.842   6.449 -0.6937 -0.3631 -0.5271
 2281TIP3    H1 6784   0.461   0.859   6.409 -0.1702  0.9294 -1.1547
 2281TIP3    H2 6785   0.581   0.768   6.401 -0.2623  0.8898 -2.2179
 2282TIP3   OH2 6786   6.178   5.707   5.841  0.1254 -0.2064  0.1499
 2282TIP3    H1 6787   6.193   5.801   5.835 -0.5862 -0.0978 -0.0089
 2282TIP3    H2 6788   6.238   5.670   5.776  0.0938  0.1734 -0.1015
 2283TIP3   OH2 6789   7.202   6.397   6.894 -0.0874 -0.1387  0.4761
 2283TIP3    H1 6790   7.197   6.449   6.814 -1.4936  1.0764  1.3116
 2283TIP3    H2 6791   7.254   6.320   6.869  0.6079  0.8288 -1.2350
 2284TIP3   OH2 6792   4.463   5.521   6.193  0.2371 -0.0300  0.0442
 2284TIP3    H1 6793   4.536   5.582   6.196  0.0049  0.2376  0.4000
 2284TIP3    H2 6794   4.503   5.434   6.203  0.4502  0.1561  0.8334
 2285TIP3   OH2 6795   1.748   6.547   0.469 -0.2734 -0.1773 -0.2146
 2285TIP3    H1 6796   1.803   6.625   0.469  2.0531 -1.6992  1.3647
 2285TIP3    H2 6797   1.768   6.504   0.385  0.6033 -0.4564  0.1251
 2286TIP3   OH2 6798   1.060   5.122   1.455 -0.0474  0.3794  0.0910
 2286TIP3    H1 6799   0.970   5.112   1.425 -0.7506 -0.9396  2.4165
 2286TIP3    H2 6800   1.088   5.206   1.417 -2.0948  0.6451 -0.9894
 2287TIP3   OH2 6801   0.052   0.663   3.285  0.0729 -0.5699  0.2651
 2287TIP3    H1 6802   0.124   0.696   3.340  0.5837 -0.5447 -0.4071
 2287TIP3    H2 6803   0.015   0.741   3.244  0.9291 -0.7465 -0.8996
 2288TIP3   OH2 6804   2.817   6.489   5.175 -0.2837  0.4921 -0.4083
 2288TIP3    H1 6805   2.899   6.470   5.221 -0.0957  1.0798 -0.4924
 2288TIP3    H2 6806   2.831   6.453   5.087 -1.0901 -1.7001  0.2998
 2289TIP3   OH2 6807   4.920   0.787   5.288 -0.2899 -0.4410  0.7566
 2289TIP3    H1 6808   4.941   0.726   5.217 -2.5478  0.1201 -0.5063
 2289TIP3    H2 6809   4.958   0.870   5.259 -1.0069 -0.2683  0.2574
 2290TIP3   OH2 6810   5.628   5.280   0.963  0.1705  0.5211 -0.9689
 2290TIP3    H1 6811   5.710   5.290   0.913  0.7984 -1.4459 -0.4186
 2290TIP3    H2 6812   5.650   5.308   1.051 -0.0457  0.9333 -1.0416
 2291TIP3   OH2 6813   6.911   6.637   0.274  0.3861  0.5736 -0.2782
 2291TIP3    H1 6814   6.896   6.694   0.198 -0.6770  2.3817  1.1867
 2291TIP3    H2 6815   6.918   6.698   0.348 -1.5654 -1.1872  1.4973
 2292TIP3   OH2 6816   4.368   6.587   5.099  0.5983  0.0173  0.1643
 2292TIP3    H1 6817   4.366   6.528   5.175 -1.5265  0.8486  0.8226
 2292TIP3    H2 6818   4.459   6.614   5.092  0.9551 -0.5601  2.0556
 2293TIP3   OH2 6819   6.140   1.669   4.829  0.2044 -0.2398  0.7303
 2293TIP3    H1 6820   6.150   1.764   4.844 -0.0829 -0.1405  0.2900
 2293TIP3    H2 6821   6.228   1.634   4.841  0.2730  0.0534  1.1112
 2294TIP3   OH2 6822   2.508   2.101   4.916 -0.2800 -0.0110  0.1759
 2294TIP3    H1 6823   2.546   2.044   4.983  0.7519  1.8577  1.2840
 2294TIP3    H2 6824   2.416   2.108   4.941 -0.6784 -1.9212 -0.5696
 2295TIP3   OH2 6825   4.309   6.053   1.771 -0.1187  0.0977  0.2222
 2295TIP3    H1 6826   4.250   5.978   1.757  2.0682 -2.0793  1.8206
 2295TIP3    H2 6827   4.283   6.116   1.704 -1.2109 -2.6269 -2.1622
 2296TIP3   OH2 6828   6.873   6.405   4.080  0.3917 -0.4280  0.1527
 2296TIP3    H1 6829   6.949   6.359   4.115  0.5810 -0.0902  0.1892
 2296TIP3    H2 6830   6.887   6.496   4.104 -0.6288 -0.5272  1.2789
 2297TIP3   OH2 6831   3.397   5.340   4.825 -0.2180  0.2403 -0.1720
 2297TIP3    H1 6832   3.370   5.431   4.835  1.1893  0.6070  0.5098
 2297TIP3    H2 6833   3.346   5.292   4.890 -1.0161  0.5079 -0.5815
 2298TIP3   OH2 6834   0.517   2.688   4.222 -0.2575 -0.4062 -0.0585
 2298TIP3    H1 6835   0.517   2.696   4.127 -0.3134 -1.2378 -0.1300
 2298TIP3    H2 6836   0.426   2.702   4.247 -0.1408  0.4298 -0.0643
 2299TIP3   OH2 6837   2.588   3.759   3.411  0.5774  0.3865  0.6736
 2299TIP3    H1 6838   2.546   3.845   3.399  3.2086  1.9313  1.5793
 2299TIP3    H2 6839   2.605   3.754   3.505  1.7732 -0.4541  0.4277
 2300TIP3   OH2 6840   3.065   5.196   1.267  0.0127  0.5328 -0.1168
 2300TIP3    H1 6841   3.117   5.129   1.313 -2.7120 -0.0505  2.4917
 2300TIP3    H2 6842   3.111   5.278   1.284  0.5997 -0.0602  1.3971
 2301TIP3   OH2 6843   5.952   0.225   5.862 -0.1787 -0.1974 -0.3356
 2301TIP3    H1 6844   5.997   0.142   5.879 -2.1638 -1.0868  0.9588
 2301TIP3    H2 6845   5.877   0.200   5.808 -2.0846  0.2965  1.9217
 2302TIP3   OH2 6846   7.957   2.798   5.251 -0.0796  0.6553  0.4733
 2302TIP3    H1 6847   7.972   2.876   5.197  0.5679  0.0100 -0.2941
 2302TIP3    H2 6848   7.982   2.826   5.339 -1.0405  1.6863  0.4496
 2303TIP3   OH2 6849   1.067   5.135   5.456  0.3924  1.2261  0.1999
 2303TIP3    H1 6850   1.142   5.128   5.398  0.7151  1.1141  0.6255
 2303TIP3    H2 6851   1.085   5.213   5.508  0.1281  1.2985  0.1848
 2304TIP3   OH2 6852   6.610   2.816   4.798  0.4003 -0.4034 -0.0579
 2304TIP3    H1 6853   6.558   2.824   4.878  0.2161 -0.9927 -0.1147
 2304TIP3    H2 6854   6.678   2.752   4.820  0.7191 -0.1115 -0.1838
 2305TIP3   OH2 6855   2.806   6.805   6.405  0.3117 -0.2636 -0.3559
 2305TIP3    H1 6856   2.767   6.866   6.468  2.8120  0.3604  0.6910
 2305TIP3    H2 6857   2.832   6.730   6.457  2.9606  0.5097 -0.4023
 2306TIP3   OH2 6858   3.301   3.890   1.902  0.0863 -0.5666 -0.8280
 2306TIP3    H1 6859   3.291   3.800   1.871  0.7656 -0.9842  0.1219
 2306TIP3    H2 6860   3.343   3.882   1.987  0.6241  0.6828 -0.9521
 2307TIP3   OH2 6861   3.905   5.731   5.609 -0.6712  0.2746  0.6154
 2307TIP3    H1 6862   3.991   5.693   5.623 -0.3085  1.0946  0.7019
 2307TIP3    H2 6863   3.870   5.743   5.698  0.3610  2.6469  0.7682
 2308TIP3   OH2 6864   1.286   6.636   5.283 -0.1379  0.3302  0.5640
 2308TIP3    H1 6865   1.202   6.598   5.308 -0.3888  0.7631  0.3888
 2308TIP3    H2 6866   1.287   6.630   5.187  0.0499  0.2893  0.5677
 2309TIP3   OH2 6867   0.881   7.183   3.855  0.4121  0.3005 -0.1826
 2309TIP3    H1 6868   0.968   7.221   3.841  1.1760 -1.9412 -2.0789
 2309TIP3    H2 6869   0.893   7.124   3.929  0.0368  1.2446  0.6537
 2310TIP3   OH2 6870   7.658   4.103   5.575  0.3913  0.1726  0.6490
 2310TIP3    H1 6871   7.605   4.128   5.651 -1.7330 -0.6946 -0.4546
 2310TIP3    H2 6872   7.660   4.007   5.577  0.1563  0.1286 -0.4639
 2311TIP3   OH2 6873   0.644   6.475   2.869  0.1419 -0.1333  0.2362
 2311TIP3    H1 6874   0.631   6.502   2.778  1.2114  0.1508  0.1569
 2311TIP3    H2 6875   0.640   6.557   2.919  0.0597 -0.2323  0.3937
 2312TIP3   OH2 6876   3.289   5.878   4.852 -0.4488 -0.0565 -0.1559
 2312TIP3    H1 6877   3.216   5.932   4.882  0.0379 -0.2799  1.5519
 2312TIP3    H2 6878   3.367   5.921   4.888  0.0696 -1.0101 -0.0934
 2313TIP3   OH2 6879   4.592   7.167   2.152  0.6290  0.7325 -0.4078
 2313TIP3    H1 6880   4.598   7.073   2.170  0.5330  0.9888  1.0633
 2313TIP3    H2 6881   4.557   7.204   2.233  2.3049  2.2476 -0.3225
 2314TIP3   OH2 6882   8.051   5.636   0.765  0.2598 -0.3666  0.2281
 2314TIP3    H1 6883   8.112   5.687   0.819  0.7671 -1.7043  0.9481
 2314TIP3    H2 6884   8.033   5.557   0.816 -0.1920 -1.1073 -1.0385
 2315TIP3   OH2 6885   4.784   1.787   4.634  0.2299  0.1336  0.0064
 2315TIP3    H1 6886   4.767   1.836   4.554 -1.1774 -0.3125 -0.0008
 2315TIP3    H2 6887   4.816   1.702   4.604 -1.1152 -0.3438 -0.1466
 2316TIP3   OH2 6888   1.982   5.126   2.928 -0.0760  0.3213 -0.3644
 2316TIP3    H1 6889   1.895   5.087   2.938 -0.8038  1.9127 -0.1609
 2316TIP3    H2 6890   1.982   5.159   2.838 -0.3862  1.9177  0.2023
 2317TIP3   OH2 6891   2.160   7.763   3.686  0.4593  0.6445 -0.2348
 2317TIP3    H1 6892   2.131   7.711   3.611  1.2626 -1.5666  0.8863
 2317TIP3    H2 6893   2.256   7.762   3.680  0.5020  1.3741  0.2292
 2318TIP3   OH2 6894   8.041   5.993   0.843  0.3762 -0.6795  0.7627
 2318TIP3    H1 6895   8.022   5.940   0.766 -0.0465 -1.8517  1.6411
 2318TIP3    H2 6896   7.967   6.054   0.851  0.5427 -0.3898  0.1187
 2319TIP3   OH2 6897   2.685   1.332   5.357  0.4253 -0.3954 -0.1762
 2319TIP3    H1 6898   2.597   1.305   5.331  0.6439 -0.6295 -0.6802
 2319TIP3    H2 6899   2.699   1.414   5.309  0.4264 -0.2802  0.0210
 2320TIP3   OH2 6900   2.899   1.035   4.656  0.1269  0.1555 -0.2289
 2320TIP3    H1 6901   2.823   0.978   4.645 -0.9668  1.7940 -1.8868
 2320TIP3    H2 6902   2.907   1.047   4.751 -1.2808 -0.5882  0.0125
 2321TIP3   OH2 6903   4.532   3.993   6.270  0.1244  0.3899  0.3958
 2321TIP3    H1 6904   4.509   4.084   6.256 -0.9725  0.1080  0.2570
 2321TIP3    H2 6905   4.578   3.967   6.190  1.0176  0.9898  0.7068
 2322TIP3   OH2 6906   4.367   0.907   3.898  0.4571 -0.4737 -0.1091
 2322TIP3    H1 6907   4.424   0.851   3.846 -0.4798 -0.2238 -1.4445
 2322TIP3    H2 6908   4.352   0.984   3.844 -0.1851 -0.0009  0.7119
 2323TIP3   OH2 6909   2.465   0.764   4.580  0.1679  0.0948 -0.0960
 2323TIP3    H1 6910   2.552   0.805   4.584  0.7051 -0.9912 -0.2560
 2323TIP3    H2 6911   2.470   0.693   4.644  0.0318 -1.1208 -1.4014
 2324TIP3   OH2 6912   6.166   3.284   4.585  0.5724  0.5514  0.0516
 2324TIP3    H1 6913   6.090   3.343   4.581  0.8541  0.9511  0.5240
 2324TIP3    H2 6914   6.186   3.265   4.494  1.0318  1.9077 -0.1517
 2325TIP3   OH2 6915   2.290   1.886   6.221 -0.3640  0.2331  0.4529
 2325TIP3    H1 6916   2.260   1.960   6.168 -1.3311 -1.5967 -1.7449
 2325TIP3    H2 6917   2.266   1.809   6.169  1.2508 -1.6109  2.2892
 2326TIP3   OH2 6918   4.048   2.731   5.392  0.1351  0.6097  0.6052
 2326TIP3    H1 6919   4.068   2.748   5.484  0.0699  0.3369  0.6716
 2326TIP3    H2 6920   3.952   2.738   5.387  0.1779  1.1607  0.4444
 2327TIP3   OH2 6921   3.725   2.044   1.818 -0.5144  0.0273 -0.2956
 2327TIP3    H1 6922   3.714   2.128   1.774 -0.6884 -0.0869 -0.4683
 2327TIP3    H2 6923   3.725   1.979   1.747  0.0008 -0.0860 -0.1994
 2328TIP3   OH2 6924   3.271   6.041   6.224  0.2358  0.0946  0.1097
 2328TIP3    H1 6925   3.285   6.065   6.316  0.2664  0.2471  0.0657
 2328TIP3    H2 6926   3.281   6.124   6.176  0.4480 -0.0247 -0.0545
 2329TIP3   OH2 6927   0.597   0.750   5.958 -0.1575  0.4967  0.3137
 2329TIP3    H1 6928   0.501   0.748   5.950 -0.1222 -0.1031  0.0328
 2329TIP3    H2 6929   0.614   0.719   6.047 -0.1605 -0.7703 -0.1178
 2330TIP3   OH2 6930   3.322   0.492   1.087  0.1801 -0.0633 -0.7262
 2330TIP3    H1 6931   3.411   0.458   1.086  0.0970 -0.4016  0.5295
 2330TIP3    H2 6932   3.306   0.523   0.998  1.2496 -0.7652 -1.1791
 2331TIP3   OH2 6933   0.488   7.300   0.771 -0.0341  0.5211 -0.4123
 2331TIP3    H1 6934   0.473   7.232   0.705  0.0221  0.0322  0.0710
 2331TIP3    H2 6935   0.551   7.261   0.831 -0.9167  0.5394  0.5428
 2332TIP3   OH2 6936   6.959   5.174   6.725  0.0472 -0.0470  0.0799
 2332TIP3    H1 6937   6.993   5.087   6.706 -1.2277 -0.7957  1.0037
 2332TIP3    H2 6938   6.984   5.191   6.816 -1.0707 -0.1651  0.4309
 2333TIP3   OH2 6939   6.443   4.551   1.560  0.0239  0.7762 -0.0532
 2333TIP3    H1 6940   6.434   4.549   1.464 -0.0830 -1.6856 -0.0699
 2333TIP3    H2 6941   6.527   4.594   1.575 -0.2222  1.7316 -1.2144
 2334TIP3   OH2 6942   0.345   6.916   2.360  0.6413 -0.0354 -1.2630
 2334TIP3    H1 6943   0.332   6.828   2.395 -0.6837 -0.3832 -2.5068
 2334TIP3    H2 6944   0.289   6.919   2.282 -0.0232  2.2009 -0.7687
 2335TIP3   OH2 6945   3.868   5.600   4.903 -1.1602 -0.6718 -0.4364
 2335TIP3    H1 6946   3.962   5.583   4.916 -0.4782  1.5615 -1.8518
 2335TIP3    H2 6947   3.827   5.514   4.916  1.1232 -1.8337 -0.2579
 2336TIP3   OH2 6948   6.458   7.245   1.016  0.4980  0.7006 -0.0404
 2336TIP3    H1 6949   6.545   7.207   1.005  0.3371  0.5829 -1.0071
 2336TIP3    H2 6950   6.408   7.177   1.061  0.8648  0.7248  0.4160
 2337TIP3   OH2 6951   3.722   7.406   4.093  0.4886  0.2123  0.4451
 2337TIP3    H1 6952   3.684   7.492   4.113 -1.7191 -0.6471  0.1741
 2337TIP3    H2 6953   3.701   7.392   4.001  0.5587 -0.7534  0.5724
 2338TIP3   OH2 6954   7.922   0.678   1.816  0.2786 -0.1453  0.3190
 2338TIP3    H1 6955   7.855   0.622   1.856  0.1175 -0.1363  0.0614
 2338TIP3    H2 6956   8.005   0.631   1.831  0.3611  0.3813  1.6264
 2339TIP3   OH2 6957   7.043   6.432   6.282  0.1405 -0.2009 -0.0028
 2339TIP3    H1 6958   7.066   6.451   6.373  0.4704  0.2477 -0.1738
 2339TIP3    H2 6959   7.119   6.462   6.232 -0.2206 -0.0462 -0.4614
 2340TIP3   OH2 6960   3.648   5.399   4.585  0.0832  0.4319  0.1165
 2340TIP3    H1 6961   3.570   5.368   4.632  1.0207 -1.9309  0.2474
 2340TIP3    H2 6962   3.612   5.449   4.512 -1.4788  1.3808  1.4430
 2341TIP3   OH2 6963   3.251   6.268   2.860 -0.2055  0.8897  0.3041
 2341TIP3    H1 6964   3.208   6.340   2.814 -0.9136  0.0001 -0.4558
 2341TIP3    H2 6965   3.180   6.212   2.891  0.3644 -0.1912 -0.2886
 2342TIP3   OH2 6966   8.052   6.957   1.248 -0.1583 -0.1766 -0.4268
 2342TIP3    H1 6967   8.062   6.954   1.343  0.6566 -0.8056 -0.5190
 2342TIP3    H2 6968   8.138   6.931   1.214 -0.6091 -0.5336 -1.3352
 2343TIP3   OH2 6969   0.330   5.451   2.143  0.3867 -0.0937  0.1706
 2343TIP3    H1 6970   0.313   5.452   2.237 -0.7975 -0.3485 -0.0217
 2343TIP3    H2 6971   0.378   5.370   2.128  1.4431  0.4254  0.6816
 2344TIP3   OH2 6972   6.419   6.335   2.225 -0.0481  0.3614 -0.0337
 2344TIP3    H1 6973   6.420   6.301   2.315  0.8769 -0.4915 -0.3357
 2344TIP3    H2 6974   6.471   6.415   2.230  1.7852 -0.7381 -0.1337
 2345TIP3   OH2 6975   6.702   7.584   5.127 -0.0115  0.4100 -0.2961
 2345TIP3    H1 6976   6.731   7.558   5.040  0.2433 -2.3122  0.4999
 2345TIP3    H2 6977   6.606   7.588   5.120 -0.0589 -0.7981 -0.4746
 2346TIP3   OH2 6978   4.327   5.181   6.343 -0.4135 -0.1499  0.6314
 2346TIP3    H1 6979   4.243   5.213   6.376  0.2979 -0.0737  2.4447
 2346TIP3    H2 6980   4.305   5.143   6.257 -1.8419  2.1718 -0.1361
 2347TIP3   OH2 6981   1.375   5.686   5.447 -0.5361  0.1941  0.0627
 2347TIP3    H1 6982   1.379   5.744   5.523  2.1143 -1.5629  1.3918
 2347TIP3    H2 6983   1.447   5.714   5.391 -1.0127 -0.0353 -0.6854
 2348TIP3   OH2 6984   1.732   4.842   0.113  0.8792  0.3867 -0.3278
 2348TIP3    H1 6985   1.759   4.918   0.165  1.3689  0.5353 -0.7860
 2348TIP3    H2 6986   1.680   4.880   0.042  1.4454  0.3452 -0.7761
 2349TIP3   OH2 6987   4.551   5.919   1.277 -0.4213 -0.3801 -0.0465
 2349TIP3    H1 6988   4.487   5.938   1.345 -0.6390 -0.9707 -0.0836
 2349TIP3    H2 6989   4.623   5.876   1.324 -0.9509 -1.5818 -0.3148
 2350TIP3   OH2 6990   4.929   4.592   2.916 -0.0327  0.6143 -0.1616
 2350TIP3    H1 6991   5.004   4.624   2.966  0.0170  2.1160 -1.1271
 2350TIP3    H2 6992   4.968   4.556   2.836 -0.1548 -1.2196  0.5620
 2351TIP3   OH2 6993   7.597   0.303   3.172  0.0117 -0.6396 -0.9847
 2351TIP3    H1 6994   7.673   0.246   3.184 -0.5101 -0.7770  3.2761
 2351TIP3    H2 6995   7.539   0.282   3.245 -1.1942  3.7968 -0.3508
 2352TIP3   OH2 6996   6.743   4.371   6.367 -0.0826  0.1433  0.8964
 2352TIP3    H1 6997   6.817   4.322   6.332 -0.4187 -0.5536  1.1325
 2352TIP3    H2 6998   6.743   4.350   6.460 -0.4007  0.3709  0.9476
 2353TIP3   OH2 6999   2.916   2.094   3.809 -0.1188 -0.2843  0.3674
 2353TIP3    H1 7000   2.902   2.000   3.818  2.6343 -0.6917  1.4299
 2353TIP3    H2 7001   2.880   2.132   3.888 -1.7017 -0.3392 -0.2970
 2354TIP3   OH2 7002   1.434   0.211   6.353 -0.4173 -0.5021  0.0202
 2354TIP3    H1 7003   1.488   0.258   6.289 -1.1060 -1.7327 -1.5222
 2354TIP3    H2 7004   1.388   0.281   6.400  0.6147  0.4617 -0.3555
 2355TIP3   OH2 7005   2.214   6.411   0.734  0.2662  0.2005 -0.4773
 2355TIP3    H1 7006   2.278   6.357   0.781 -0.0220  0.1201 -0.1747
 2355TIP3    H2 7007   2.207   6.491   0.787  0.1642  0.2381 -0.5477
 2356TIP3   OH2 7008   1.794   5.394   0.953 -0.3332  0.2469 -0.7410
 2356TIP3    H1 7009   1.832   5.482   0.958 -1.8377  0.9530 -1.0710
 2356TIP3    H2 7010   1.730   5.391   1.024  1.5799 -1.6080  1.0490
 2357TIP3   OH2 7011   2.358   0.859   6.386 -0.0453 -0.0093  0.0575
 2357TIP3    H1 7012   2.382   0.909   6.464  0.2197 -0.7279  0.4435
 2357TIP3    H2 7013   2.339   0.771   6.418  0.8017 -0.5166 -0.7644
 2358TIP3   OH2 7014   1.924   2.389   5.538 -0.1828  0.2642  0.5578
 2358TIP3    H1 7015   1.841   2.382   5.492  0.9695  2.1678 -2.1370
 2358TIP3    H2 7016   1.925   2.478   5.573 -0.1264 -0.4549  2.4772
 2359TIP3   OH2 7017   4.106   3.855   6.750  0.0366 -0.3347 -0.1305
 2359TIP3    H1 7018   4.066   3.799   6.683 -1.2024 -0.9025  1.0556
 2359TIP3    H2 7019   4.182   3.805   6.780  0.2827 -0.3221 -0.7152
 2360TIP3   OH2 7020   6.659   0.720   1.501  0.0690  0.1712  0.3655
 2360TIP3    H1 7021   6.753   0.730   1.488  0.1805 -0.2644  0.8083
 2360TIP3    H2 7022   6.648   0.628   1.526 -0.5634  0.0178 -0.4596
 2361TIP3   OH2 7023   2.609   5.980   2.197  0.0325 -0.2445 -0.4098
 2361TIP3    H1 7024   2.548   6.054   2.202 -1.6773 -1.6186  0.2206
 2361TIP3    H2 7025   2.595   5.932   2.278  1.3481 -1.0843 -0.6596
 2362TIP3   OH2 7026   6.139   0.687   4.612 -0.0446 -0.3130 -0.0528
 2362TIP3    H1 7027   6.150   0.755   4.546  1.0942  0.7086  1.1190
 2362TIP3    H2 7028   6.146   0.605   4.564  0.0881  0.3992 -1.2880
 2363TIP3   OH2 7029   2.716   0.513   2.986  0.5112  0.4508  0.7315
 2363TIP3    H1 7030   2.780   0.449   2.955  1.0205  0.7684  1.0968
 2363TIP3    H2 7031   2.654   0.522   2.914  0.7397 -0.0515  0.4665
 2364TIP3   OH2 7032   0.734   6.733   4.317  0.3926  0.5245  0.0269
 2364TIP3    H1 7033   0.755   6.696   4.403  0.6518  0.0634 -0.2347
 2364TIP3    H2 7034   0.778   6.819   4.318 -0.3129  0.8974  0.6758
 2365TIP3   OH2 7035   2.951   4.376   6.612 -0.3171  0.2407 -0.2400
 2365TIP3    H1 7036   2.856   4.380   6.602 -0.3919 -0.5632  0.0899
 2365TIP3    H2 7037   2.964   4.358   6.705  0.1752  0.7451 -0.2060
 2366TIP3   OH2 7038   1.615   1.682   4.238  0.2828  0.5050  0.3447
 2366TIP3    H1 7039   1.684   1.637   4.287  0.3594  1.0261  0.7145
 2366TIP3    H2 7040   1.654   1.702   4.154  0.9815  1.8413  0.9623
 2367TIP3   OH2 7041   5.029   1.102   2.940  0.4245  0.3594  0.0776
 2367TIP3    H1 7042   4.960   1.144   2.991 -0.1046 -0.7049  0.2768
 2367TIP3    H2 7043   5.111   1.133   2.979  0.0985 -2.0701  3.1105
 2368TIP3   OH2 7044   0.048   5.450   5.605  0.1066 -0.0525  1.0627
 2368TIP3    H1 7045   0.074   5.454   5.697  0.1684  0.2410  1.0337
 2368TIP3    H2 7046   0.097   5.376   5.569 -0.2387 -0.4291  1.3662
 2369TIP3   OH2 7047   0.296   1.939   3.948  0.2145 -0.2753  0.3167
 2369TIP3    H1 7048   0.292   2.024   3.906  2.0473 -0.3515 -0.1297
 2369TIP3    H2 7049   0.280   1.876   3.877  0.4937 -0.3223  0.2902
 2370TIP3   OH2 7050   3.874   1.137   0.131 -0.7027 -0.4957  0.4880
 2370TIP3    H1 7051   3.819   1.182   0.067 -0.1507 -0.5088  0.0024
 2370TIP3    H2 7052   3.926   1.075   0.080  2.3018  1.8750  0.3891
 2371TIP3   OH2 7053   8.414   7.292   3.089  0.1216 -0.0314  0.1529
 2371TIP3    H1 7054   8.357   7.277   3.164  0.3135 -0.7937  0.1489
 2371TIP3    H2 7055   8.364   7.351   3.033  0.9375  2.5804  1.9761
 2372TIP3   OH2 7056   1.894   5.161   4.999 -0.0428  0.3943  0.8471
 2372TIP3    H1 7057   1.962   5.123   4.944 -0.3959  1.3456 -0.2987
 2372TIP3    H2 7058   1.867   5.090   5.057  1.3209 -0.2353  0.7531
 2373TIP3   OH2 7059   5.266   3.367   5.045  0.1686 -0.4741  0.5817
 2373TIP3    H1 7060   5.350   3.360   5.090  0.8503 -0.2740 -0.6048
 2373TIP3    H2 7061   5.254   3.461   5.031 -0.9692 -0.3775  1.9964
 2374TIP3   OH2 7062   5.634   7.244   5.453  0.2456 -0.1702 -0.4894
 2374TIP3    H1 7063   5.552   7.195   5.447  0.1285  0.1588 -2.1388
 2374TIP3    H2 7064   5.665   7.228   5.542 -0.4319 -2.1684 -0.5630
 2375TIP3   OH2 7065   3.918   5.032   4.547 -0.2739 -0.0573 -0.2892
 2375TIP3    H1 7066   3.896   4.998   4.634 -1.1538  1.0190 -0.0633
 2375TIP3    H2 7067   3.836   5.069   4.515  0.0208 -0.5220 -1.6277
 2376TIP3   OH2 7068   0.478   2.397   3.038 -0.1833 -0.0171  0.5040
 2376TIP3    H1 7069   0.413   2.431   3.099  1.0829  2.0300  0.8102
 2376TIP3    H2 7070   0.510   2.316   3.080 -0.6605  0.3568  1.6356
 2377TIP3   OH2 7071   6.752   0.030   5.508  0.3510  0.2470  0.3071
 2377TIP3    H1 7072   6.789   0.073   5.585  0.4001 -0.2998  0.5914
 2377TIP3    H2 7073   6.686   0.092   5.476  1.8174  1.4892 -0.5119
 2378TIP3   OH2 7074   0.004   2.263   2.329  0.2455 -0.2266 -0.5324
 2378TIP3    H1 7075   0.095   2.237   2.318  0.6376  0.7346  0.3262
 2378TIP3    H2 7076  -0.042   2.181   2.350  0.9913 -0.6383 -0.4744
 2379TIP3   OH2 7077   0.892   6.298   3.820 -0.4496  0.0242 -0.1625
 2379TIP3    H1 7078   0.831   6.243   3.869  0.2659 -2.2342 -1.6320
 2379TIP3    H2 7079   0.838   6.340   3.753 -0.9044  0.7384  0.6216
 2380TIP3   OH2 7080   4.025   1.318   2.750  0.4555  0.3569  0.4969
 2380TIP3    H1 7081   3.947   1.306   2.696  0.5116 -1.1973  0.7282
 2380TIP3    H2 7082   4.089   1.359   2.692 -0.3509  1.1475  0.1585
 2381TIP3   OH2 7083   2.527   6.364   3.119  0.0213 -0.1525  0.4816
 2381TIP3    H1 7084   2.523   6.272   3.090 -2.8073 -0.4150  1.3605
 2381TIP3    H2 7085   2.546   6.413   3.039 -0.9611 -1.3464 -0.5452
 2382TIP3   OH2 7086   0.498   6.840   5.301  0.7436 -0.8125 -0.1823
 2382TIP3    H1 7087   0.408   6.872   5.302  0.8910 -0.4064  0.0722
 2382TIP3    H2 7088   0.546   6.906   5.250  1.4477  0.4661  2.0214
 2383TIP3   OH2 7089   8.382   6.032   4.977 -0.1594 -0.4371 -0.1865
 2383TIP3    H1 7090   8.367   6.065   4.889  1.6667  0.4007 -0.2406
 2383TIP3    H2 7091   8.447   5.963   4.965 -0.8265 -1.1750  0.3849
 2384TIP3   OH2 7092   8.333   0.673   3.945  0.1773  0.0310  0.5999
 2384TIP3    H1 7093   8.413   0.671   3.997 -1.0086 -0.9004  2.5160
 2384TIP3    H2 7094   8.270   0.721   4.000 -1.2418 -1.3499  0.2410
 2385TIP3   OH2 7095   0.965   7.416   6.298  0.2825 -0.5499 -0.2509
 2385TIP3    H1 7096   1.031   7.389   6.234 -0.9848 -0.5200 -1.6436
 2385TIP3    H2 7097   0.969   7.512   6.297  1.0687 -0.5664  0.6169
 2386TIP3   OH2 7098   4.258   2.242   1.700 -0.0246 -0.4176  0.5299
 2386TIP3    H1 7099   4.178   2.256   1.750 -0.1540  0.5140  0.0793
 2386TIP3    H2 7100   4.237   2.171   1.640 -0.6445  0.0623  0.1610
 2387TIP3   OH2 7101   0.875   1.328   5.884  0.2306 -0.8521 -0.6339
 2387TIP3    H1 7102   0.917   1.243   5.870 -0.3160 -1.4887  1.3513
 2387TIP3    H2 7103   0.879   1.342   5.978 -1.6000  0.3244 -0.6823
 2388TIP3   OH2 7104   7.336   2.878   1.825 -0.6704 -0.5190  0.5585
 2388TIP3    H1 7105   7.348   2.797   1.876  0.6453  0.1672  1.3797
 2388TIP3    H2 7106   7.403   2.874   1.757 -1.6074 -0.8308 -0.3674
 2389TIP3   OH2 7107   5.116   6.364   6.574 -0.0547  0.1251  0.0488
 2389TIP3    H1 7108   5.026   6.334   6.561 -0.1819  0.0935  0.9265
 2389TIP3    H2 7109   5.149   6.382   6.486 -0.9440  0.2012 -0.2755
 2390TIP3   OH2 7110   8.142   6.223   0.989 -0.1771  0.1567 -0.5334
 2390TIP3    H1 7111   8.120   6.142   0.942  1.4175 -0.1413 -0.8266
 2390TIP3    H2 7112   8.150   6.289   0.921 -1.5825  0.6303 -0.2841
 2391TIP3   OH2 7113   5.956   0.275   0.219  0.2433  0.3443 -0.4092
 2391TIP3    H1 7114   5.963   0.298   0.126  0.0528  0.6080 -0.3571
 2391TIP3    H2 7115   5.977   0.182   0.221 -1.6176 -0.1266 -0.9686
 2392TIP3   OH2 7116   4.677   1.842   2.724  0.1550  0.2923 -0.0350
 2392TIP3    H1 7117   4.619   1.806   2.791  0.5220  1.5814  1.0024
 2392TIP3    H2 7118   4.765   1.828   2.757  0.3490  0.6515 -0.3890
 2393TIP3   OH2 7119   2.413   4.812   4.557  0.1340 -0.0654 -0.3456
 2393TIP3    H1 7120   2.376   4.750   4.620  0.7712  0.7094  0.8207
 2393TIP3    H2 7121   2.432   4.890   4.609 -0.2429  0.9546 -1.7008
 2394TIP3   OH2 7122   2.392   6.223   0.893 -0.1576  0.0454  0.2797
 2394TIP3    H1 7123   2.487   6.218   0.904 -0.1398  0.4161  0.2849
 2394TIP3    H2 7124   2.362   6.134   0.915  0.1734 -0.0430  0.3960
 2395TIP3   OH2 7125   3.304   1.537   1.841 -0.1513  0.3532 -0.2369
 2395TIP3    H1 7126   3.273   1.627   1.829 -1.7570 -0.0556  0.5470
 2395TIP3    H2 7127   3.274   1.514   1.929 -0.5771 -1.2624 -0.7771
 2396TIP3   OH2 7128   4.346   6.783   2.810  0.2820 -0.1612  0.1118
 2396TIP3    H1 7129   4.371   6.699   2.849 -0.2398 -0.1272  0.5353
 2396TIP3    H2 7130   4.269   6.762   2.757 -0.9473  0.3391  1.6201
 2397TIP3   OH2 7131   5.677   5.246   4.692 -0.0886  0.6474 -0.1474
 2397TIP3    H1 7132   5.616   5.318   4.674 -2.4774 -1.4805 -1.0293
 2397TIP3    H2 7133   5.663   5.226   4.784 -1.7010 -0.6051 -0.6218
 2398TIP3   OH2 7134   0.470   3.093   1.052 -0.6743  0.3471 -0.2571
 2398TIP3    H1 7135   0.527   3.138   1.115  0.9111  1.3518 -2.3014
 2398TIP3    H2 7136   0.397   3.155   1.038  0.4936  1.4865 -1.5760
 2399TIP3   OH2 7137   2.703   7.553   3.846  0.3272  0.1472 -0.5326
 2399TIP3    H1 7138   2.639   7.623   3.833  1.7278  1.1652 -2.5645
 2399TIP3    H2 7139   2.683   7.488   3.779  0.1248 -0.5685  0.2039
 2400TIP3   OH2 7140   3.696   1.229   0.991 -0.6376 -0.1591  0.1828
 2400TIP3    H1 7141   3.728   1.318   0.976 -0.3345 -0.3288 -0.2350
 2400TIP3    H2 7142   3.626   1.217   0.927 -1.8808  0.3706  1.4105
 2401TIP3   OH2 7143   7.651   2.832   5.256 -0.0920  0.3591 -0.8823
 2401TIP3    H1 7144   7.682   2.901   5.197  1.7993  0.0458 -0.3197
 2401TIP3    H2 7145   7.721   2.767   5.255 -1.0241 -0.6923  0.0094
 2402TIP3   OH2 7146   4.511   0.730   3.730  0.5847  0.1597  0.1380
 2402TIP3    H1 7147   4.435   0.732   3.671  0.3248 -1.0822  0.3985
 2402TIP3    H2 7148   4.586   0.714   3.672  0.7604  2.0161 -0.1964
 2403TIP3   OH2 7149   0.361   3.866   1.702 -0.4421  0.2022 -0.5767
 2403TIP3    H1 7150   0.317   3.951   1.695  0.8991  0.9962  0.2679
 2403TIP3    H2 7151   0.450   3.883   1.674 -0.4712 -1.2332 -1.6033
 2404TIP3   OH2 7152   7.526   3.651   3.686 -0.4799 -0.2486 -0.6369
 2404TIP3    H1 7153   7.596   3.591   3.658 -0.5852  0.1156 -1.7398
 2404TIP3    H2 7154   7.445   3.604   3.666 -0.5591  0.1100 -1.1638
 2405TIP3   OH2 7155   7.902   6.541   2.260  0.2569 -0.3539  0.3504
 2405TIP3    H1 7156   7.870   6.618   2.307  1.0486  0.9661 -1.1869
 2405TIP3    H2 7157   7.993   6.531   2.289 -0.1326 -1.3759  1.3146
 2406TIP3   OH2 7158   4.502   0.261   0.154  0.0906  0.7249 -0.1365
 2406TIP3    H1 7159   4.513   0.244   0.248 -1.2045 -0.7343 -0.2150
 2406TIP3    H2 7160   4.448   0.189   0.123  1.9554  0.1983 -2.3842
 2407TIP3   OH2 7161   7.474   7.121   0.623  0.1967 -0.1753 -0.0516
 2407TIP3    H1 7162   7.466   7.205   0.668  1.3434 -0.1949  0.2320
 2407TIP3    H2 7163   7.557   7.085   0.655 -0.9630 -2.0978  0.9412
 2408TIP3   OH2 7164   0.488   3.272   0.505 -0.1917  0.6906 -0.2313
 2408TIP3    H1 7165   0.470   3.365   0.494 -1.0658  0.6034  0.4146
 2408TIP3    H2 7166   0.407   3.235   0.538 -0.2222 -0.5190 -1.5597
 2409TIP3   OH2 7167   4.142   2.534   1.902 -0.6728  0.2501  0.5259
 2409TIP3    H1 7168   4.187   2.515   1.984 -1.6390 -0.7050  0.8626
 2409TIP3    H2 7169   4.168   2.623   1.880  0.9386 -0.0861  0.9742
 2410TIP3   OH2 7170   0.867   5.219   6.691 -0.5329 -0.1755  0.2256
 2410TIP3    H1 7171   0.863   5.310   6.720 -1.5513 -0.7169  1.9693
 2410TIP3    H2 7172   0.825   5.219   6.605  0.7760  1.2025 -0.4651
 2411TIP3   OH2 7173   2.547   7.037   2.163 -0.4057  0.2637  0.7808
 2411TIP3    H1 7174   2.619   7.079   2.115  0.0906 -1.5416 -0.1676
 2411TIP3    H2 7175   2.468   7.069   2.120 -0.1882  1.9575  1.5697
 2412TIP3   OH2 7176   0.142   4.572   3.160  0.1829  0.3316 -0.5240
 2412TIP3    H1 7177   0.090   4.501   3.198 -1.3697  1.6153 -0.1136
 2412TIP3    H2 7178   0.087   4.606   3.089  1.0838  0.8828 -0.9814
 2413TIP3   OH2 7179   6.120   4.951   6.179  0.2057  0.1082 -0.2695
 2413TIP3    H1 7180   6.134   5.032   6.131 -0.7206  1.4034  1.5678
 2413TIP3    H2 7181   6.208   4.922   6.203  0.4679  1.4690  0.4714
 2414TIP3   OH2 7182   3.843   4.599   0.558  0.5475  0.6684 -0.3911
 2414TIP3    H1 7183   3.899   4.564   0.488  0.1629  0.3774 -0.5576
 2414TIP3    H2 7184   3.868   4.691   0.565 -0.1163  0.9604 -1.6152
 2415TIP3   OH2 7185   7.089  -0.011   3.841  0.0459 -0.0679  0.0834
 2415TIP3    H1 7186   7.052  -0.004   3.753 -0.8207  1.3301  0.5240
 2415TIP3    H2 7187   7.086   0.078   3.876 -0.0510 -0.6590  1.6886
 2416TIP3   OH2 7188   8.201   6.752   1.815  0.5498 -0.0317  0.1081
 2416TIP3    H1 7189   8.186   6.700   1.893  0.9611 -1.7901 -0.9246
 2416TIP3    H2 7190   8.294   6.742   1.796  0.2350 -0.6234 -1.2511
 2417TIP3   OH2 7191   7.638   2.483   1.452  0.1782 -0.5129 -0.2914
 2417TIP3    H1 7192   7.668   2.567   1.487 -1.1256 -0.4305  0.6942
 2417TIP3    H2 7193   7.624   2.428   1.529 -1.4010 -0.7875 -0.7237
 2418TIP3   OH2 7194   2.662   7.710   4.730  0.2789 -0.9452  0.5369
 2418TIP3    H1 7195   2.617   7.656   4.794 -0.1930 -1.9459 -0.6036
 2418TIP3    H2 7196   2.608   7.788   4.722  0.2949 -0.8490  1.2717
 2419TIP3   OH2 7197   5.885   5.939   5.692  0.0723 -0.3462  0.4078
 2419TIP3    H1 7198   5.862   6.016   5.640 -1.2217 -0.2657  1.0560
 2419TIP3    H2 7199   5.981   5.933   5.686  0.0141  0.0091 -1.4485
 2420TIP3   OH2 7200   1.640   3.677   1.965  0.4123 -0.1100 -0.1770
 2420TIP3    H1 7201   1.564   3.714   1.919  0.8278  0.6988 -0.2284
 2420TIP3    H2 7202   1.678   3.615   1.903 -1.3607 -2.0663  0.5745
 2421TIP3   OH2 7203   3.996   4.184   4.556 -0.3734 -0.1998 -0.0004
 2421TIP3    H1 7204   4.008   4.278   4.567 -1.3959 -0.2634  2.2961
 2421TIP3    H2 7205   3.903   4.174   4.536 -0.7221 -0.7711  1.6983
 2422TIP3   OH2 7206   7.768   6.592   5.035 -0.2262 -0.3426  0.1838
 2422TIP3    H1 7207   7.854   6.626   5.011  0.0862 -2.1068 -1.4147
 2422TIP3    H2 7208   7.784   6.539   5.113 -0.4615  1.7763  1.7645
 2423TIP3   OH2 7209   0.777   7.434   5.547 -0.7032 -0.7367  0.6408
 2423TIP3    H1 7210   0.833   7.358   5.531 -0.9185 -0.5876 -0.8949
 2423TIP3    H2 7211   0.783   7.448   5.642  2.5753 -0.1405  0.4512
 2424TIP3   OH2 7212   7.036   6.342   3.268 -0.1497 -0.1319 -0.0986
 2424TIP3    H1 7213   7.094   6.273   3.299 -0.8328  0.2525  2.2399
 2424TIP3    H2 7214   7.018   6.395   3.346  0.2926  2.6734 -1.7430
 2425TIP3   OH2 7215   2.208   0.682   3.904  0.1659 -0.3143  0.0800
 2425TIP3    H1 7216   2.158   0.718   3.978  0.2863 -0.3062  0.1585
 2425TIP3    H2 7217   2.142   0.640   3.849  0.1667 -1.0895  0.6408
 2426TIP3   OH2 7218   6.195   4.961   1.321  0.7016  0.3927 -0.5470
 2426TIP3    H1 7219   6.200   4.967   1.226  1.3223  1.2927 -0.4759
 2426TIP3    H2 7220   6.275   5.005   1.352  0.8194 -0.4304  0.3755
 2427TIP3   OH2 7221   2.327   6.890   2.466  0.1672 -0.7065 -0.3068
 2427TIP3    H1 7222   2.408   6.929   2.433  0.7823 -1.7933 -0.1238
 2427TIP3    H2 7223   2.337   6.797   2.449 -1.6124 -0.7358 -1.4554
 2428TIP3   OH2 7224   7.849   3.866   6.670 -0.1429 -0.4153 -0.3973
 2428TIP3    H1 7225   7.865   3.813   6.592 -1.6801 -0.8022 -0.4872
 2428TIP3    H2 7226   7.755   3.857   6.686  0.0124  0.2683  1.0669
 2429TIP3   OH2 7227   0.943   5.371   5.570 -0.1849  0.2569  0.2666
 2429TIP3    H1 7228   0.876   5.421   5.618  1.2179  0.6326  1.9251
 2429TIP3    H2 7229   0.954   5.291   5.622  1.0745  0.4858  0.3762
 2430TIP3   OH2 7230   6.268   6.028   2.530 -0.4220  0.6829 -0.1544
 2430TIP3    H1 7231   6.254   5.986   2.615 -2.1088  1.6100  0.0794
 2430TIP3    H2 7232   6.196   5.996   2.476  1.2383 -0.7557 -1.6402
 2431TIP3   OH2 7233   2.574   4.759   5.377 -0.0578  0.1349 -0.1195
 2431TIP3    H1 7234   2.652   4.812   5.393 -0.5213  0.6437  0.5471
 2431TIP3    H2 7235   2.505   4.823   5.359 -0.4940 -0.2706  0.0818
 2432TIP3   OH2 7236   1.335   6.943   1.476  0.0739  0.3341 -0.5571
 2432TIP3    H1 7237   1.408   7.005   1.476 -1.1688  1.8567 -0.6997
 2432TIP3    H2 7238   1.277   6.975   1.407 -0.5586 -1.0752 -0.7121
 2433TIP3   OH2 7239   7.247   2.874   5.824 -0.2512 -0.1946 -0.3228
 2433TIP3    H1 7240   7.154   2.895   5.828 -0.1964  0.1521 -0.7488
 2433TIP3    H2 7241   7.269   2.883   5.731 -0.1748 -1.9684 -0.5018
 2434TIP3   OH2 7242   3.727   6.637   6.818  0.1243 -0.1100  0.2452
 2434TIP3    H1 7243   3.738   6.626   6.724  0.2966 -0.2700  0.2835
 2434TIP3    H2 7244   3.722   6.547   6.852  0.1970 -0.0552  0.4029
 2435TIP3   OH2 7245   0.282   1.843   4.198 -0.2517 -0.4225 -0.2319
 2435TIP3    H1 7246   0.304   1.888   4.117 -0.6236 -0.0916 -0.1502
 2435TIP3    H2 7247   0.219   1.900   4.241 -0.5775 -0.9267 -0.0286
 2436TIP3   OH2 7248   2.463   5.323   4.451 -0.1836 -0.0960 -0.0836
 2436TIP3    H1 7249   2.507   5.327   4.366 -2.2085 -1.6109 -1.3119
 2436TIP3    H2 7250   2.402   5.397   4.450 -1.0251 -0.7660 -0.5086
 2437TIP3   OH2 7251   8.300   0.918   2.258 -0.1039  0.2139  0.3418
 2437TIP3    H1 7252   8.277   0.930   2.166  0.3374  1.3930  0.3616
 2437TIP3    H2 7253   8.219   0.889   2.299 -1.9641  4.7825  0.5104
 2438TIP3   OH2 7254   3.117   5.467   5.876 -0.6313 -0.0968  0.1497
 2438TIP3    H1 7255   3.128   5.559   5.898 -1.0013  0.4229 -1.7053
 2438TIP3    H2 7256   3.127   5.421   5.960  1.1882  1.4611  0.8582
 2439TIP3   OH2 7257   7.307   3.773   0.335 -0.4027  0.0646  0.5866
 2439TIP3    H1 7258   7.284   3.857   0.294 -0.2278  1.3625  2.9673
 2439TIP3    H2 7259   7.228   3.749   0.385  0.3972  0.1313  1.9243
 2440TIP3   OH2 7260   8.181   2.263   0.350  0.0490 -0.3094 -0.0300
 2440TIP3    H1 7261   8.157   2.254   0.443 -1.4776 -1.4570 -0.5004
 2440TIP3    H2 7262   8.277   2.268   0.351  0.1020 -0.9223  1.5617
 2441TIP3   OH2 7263   5.475   5.792   2.208  0.2835  0.0044 -0.0385
 2441TIP3    H1 7264   5.394   5.803   2.259 -0.2946  2.4211 -1.3158
 2441TIP3    H2 7265   5.449   5.738   2.133  0.4046 -0.9669  0.5925
 2442TIP3   OH2 7266   6.644   2.055   1.799  0.1860 -0.0400  0.3874
 2442TIP3    H1 7267   6.683   2.072   1.884 -1.3304 -1.9711  1.5362
 2442TIP3    H2 7268   6.622   2.142   1.765  2.4749  0.8751  1.0943
 2443TIP3   OH2 7269   3.831   4.848   1.563  0.2914 -0.6507  0.3593
 2443TIP3    H1 7270   3.911   4.815   1.604 -0.1952 -0.3680  1.5834
 2443TIP3    H2 7271   3.760   4.820   1.621 -0.4669 -0.5508 -0.4930
 2444TIP3   OH2 7272   4.151   5.244   2.996 -0.7686 -0.0564  0.4211
 2444TIP3    H1 7273   4.109   5.299   3.063  0.7201  0.4649  0.9712
 2444TIP3    H2 7274   4.233   5.289   2.976  0.3174 -1.8705  0.5943
 2445TIP3   OH2 7275   1.332   6.441   4.092  0.3522  0.2476 -0.3594
 2445TIP3    H1 7276   1.366   6.407   4.009 -0.9731 -0.8845 -0.4686
 2445TIP3    H2 7277   1.337   6.367   4.152  0.3988  0.7818  0.3040
 2446TIP3   OH2 7278   2.240   0.483   4.214  0.7457  0.4022  0.3111
 2446TIP3    H1 7279   2.153   0.447   4.198  0.1130  2.1849 -0.5470
 2446TIP3    H2 7280   2.300   0.422   4.170  0.0038 -1.0967  1.3216
 2447TIP3   OH2 7281   2.465   4.446   6.406  0.2399  0.0247 -0.0796
 2447TIP3    H1 7282   2.473   4.487   6.320  1.2364  0.1751  0.0776
 2447TIP3    H2 7283   2.417   4.511   6.459  0.7317  0.4708 -0.1733
 2448TIP3   OH2 7284   6.980   0.616   0.970  0.3788  0.5235 -0.7513
 2448TIP3    H1 7285   7.068   0.628   0.932  1.5190  3.4373  2.2591
 2448TIP3    H2 7286   6.993   0.553   1.040  1.2121  3.6534  2.1976
 2449TIP3   OH2 7287   7.828   7.467   2.539 -0.5570  0.2664  0.4463
 2449TIP3    H1 7288   7.854   7.439   2.451  0.7748  1.4711  0.4200
 2449TIP3    H2 7289   7.739   7.500   2.527 -0.0629  1.2844 -0.6812
 2450TIP3   OH2 7290   5.290   4.007   1.801  0.0918  0.0071  0.0576
 2450TIP3    H1 7291   5.225   4.071   1.829 -0.0627  0.9777 -2.2828
 2450TIP3    H2 7292   5.281   3.935   1.864 -1.9226  0.9082  0.9012
 2451TIP3   OH2 7293   6.112   0.960   4.714  0.5577  0.7384  0.1529
 2451TIP3    H1 7294   6.182   0.956   4.780  0.2263 -1.6404  0.4479
 2451TIP3    H2 7295   6.111   0.873   4.675 -1.2333  1.1923 -0.9273
 2452TIP3   OH2 7296   2.971   4.305   5.594 -0.0119 -0.3818 -0.1348
 2452TIP3    H1 7297   2.959   4.354   5.512 -0.0077  0.0535  0.1252
 2452TIP3    H2 7298   3.005   4.369   5.656  2.3327 -1.2355 -0.4377
 2453TIP3   OH2 7299   3.854   1.095   3.581  0.0270 -0.3796 -0.0039
 2453TIP3    H1 7300   3.780   1.047   3.618  1.3389 -2.5995 -0.1056
 2453TIP3    H2 7301   3.865   1.058   3.493  1.0389  0.1642 -0.1207
 2454TIP3   OH2 7302   3.472   3.460   3.702  0.3360 -0.6201  0.1213
 2454TIP3    H1 7303   3.431   3.543   3.723  1.7211  0.0559  0.2730
 2454TIP3    H2 7304   3.566   3.477   3.708  0.6593 -2.0808 -0.2751
 2455TIP3   OH2 7305   0.390   5.148   4.482 -0.0877 -0.2036  0.0738
 2455TIP3    H1 7306   0.428   5.117   4.400 -1.1340 -1.4634  0.0332
 2455TIP3    H2 7307   0.320   5.208   4.456 -1.5685 -1.9065 -0.0766
 2456TIP3   OH2 7308   4.148   6.198   1.924  0.5331  0.4696  0.4960
 2456TIP3    H1 7309   4.173   6.191   2.016  0.0417  0.8101  0.6559
 2456TIP3    H2 7310   4.229   6.178   1.876  0.9838  1.0224  1.0052
 2457TIP3   OH2 7311   1.591   6.432   2.070  0.5371 -0.2288  0.6105
 2457TIP3    H1 7312   1.562   6.348   2.033 -0.5049  0.3830 -0.0114
 2457TIP3    H2 7313   1.684   6.419   2.089  0.3432 -1.5935  0.7301
 2458TIP3   OH2 7314   8.234   7.560   5.532 -0.4541 -0.0129  0.3025
 2458TIP3    H1 7315   8.212   7.558   5.625 -0.0273  1.3729  0.4439
 2458TIP3    H2 7316   8.244   7.652   5.511 -0.6156 -0.3029 -1.1483
 2459TIP3   OH2 7317   6.610   1.781   3.297  0.4870 -0.0513 -0.0455
 2459TIP3    H1 7318   6.693   1.791   3.344  0.6485 -0.3950 -0.2537
 2459TIP3    H2 7319   6.565   1.865   3.309  2.5822  1.7448 -3.3002
 2460TIP3   OH2 7320   0.611   5.142   2.391 -0.1163  0.0397 -0.1210
 2460TIP3    H1 7321   0.536   5.096   2.354 -0.4578  0.3029  0.2398
 2460TIP3    H2 7322   0.672   5.073   2.416 -1.7484 -0.4537  2.9730
 2461TIP3   OH2 7323   0.131   4.251   1.745 -0.4626  0.8460  0.4436
 2461TIP3    H1 7324   0.092   4.310   1.809  0.5741  2.3429 -0.2334
 2461TIP3    H2 7325   0.171   4.310   1.680 -0.7960 -0.6180 -1.1410
 2462TIP3   OH2 7326   2.045   1.768   2.103 -0.0129  0.7672  0.2416
 2462TIP3    H1 7327   1.966   1.722   2.132  1.0187 -1.3822 -0.1844
 2462TIP3    H2 7328   2.053   1.745   2.010  1.3407  0.5993  0.3874
 2463TIP3   OH2 7329   8.134   7.123   2.611  0.2919 -0.0936 -0.1785
 2463TIP3    H1 7330   8.079   7.183   2.561  0.7723  1.1498  0.7509
 2463TIP3    H2 7331   8.126   7.039   2.564 -2.6156 -0.0579  0.0746
 2464TIP3   OH2 7332   0.981   1.444   3.550 -0.2198 -0.4148  0.1931
 2464TIP3    H1 7333   1.055   1.469   3.495 -1.5760  1.4728 -0.9070
 2464TIP3    H2 7334   0.963   1.353   3.527  0.9350 -0.4950 -0.4741
 2465TIP3   OH2 7335   2.641   3.388   0.992  0.2493 -0.0622 -0.0250
 2465TIP3    H1 7336   2.695   3.402   0.914  1.8117 -1.2410  0.7704
 2465TIP3    H2 7337   2.642   3.473   1.037  1.2886 -0.0004 -0.1364
 2466TIP3   OH2 7338   8.306   3.403   2.082 -0.0191  0.3252  0.1171
 2466TIP3    H1 7339   8.378   3.463   2.064 -0.3669  0.0322 -2.7172
 2466TIP3    H2 7340   8.344   3.315   2.075 -0.5891  0.1634 -1.5290
 2467TIP3   OH2 7341   6.150   2.228   4.601  0.6139  0.5582  0.3506
 2467TIP3    H1 7342   6.127   2.181   4.681 -0.3806  2.9378  1.5378
 2467TIP3    H2 7343   6.085   2.198   4.537 -0.2598  0.6115  1.1904
 2468TIP3   OH2 7344   5.883   7.264   2.911  0.0916  0.0355  0.1519
 2468TIP3    H1 7345   5.941   7.250   2.985  0.2777  3.3478  0.7720
 2468TIP3    H2 7346   5.834   7.344   2.933 -1.0969  0.1631 -2.5339
 2469TIP3   OH2 7347   3.556   7.505   0.926  0.6210  0.0198 -0.5243
 2469TIP3    H1 7348   3.464   7.490   0.949  1.3042 -0.4488  2.2067
 2469TIP3    H2 7349   3.602   7.505   1.010  2.9215  1.9077 -1.6710
 2470TIP3   OH2 7350   7.914   6.458   0.610 -0.8500  0.8557  0.0408
 2470TIP3    H1 7351   7.873   6.374   0.590 -0.2002  0.9185 -1.7290
 2470TIP3    H2 7352   7.844   6.522   0.602 -1.4177  0.4986  1.6836
 2471TIP3   OH2 7353   4.242   5.131   1.765 -0.0410  0.0950  0.2949
 2471TIP3    H1 7354   4.240   5.189   1.841  1.0100  1.9510 -1.0057
 2471TIP3    H2 7355   4.167   5.157   1.712 -0.1972 -0.5090  0.2057
 2472TIP3   OH2 7356   4.243   1.839   3.066  0.4021 -0.0456 -0.3147
 2472TIP3    H1 7357   4.201   1.917   3.029  2.5006  1.6069  0.5816
 2472TIP3    H2 7358   4.211   1.835   3.157 -0.6152 -0.9795 -0.6860
 2473TIP3   OH2 7359   5.407   6.143   1.699  0.4876 -0.2700 -0.3248
 2473TIP3    H1 7360   5.441   6.195   1.772 -1.7074  0.2543  0.4025
 2473TIP3    H2 7361   5.412   6.052   1.730  0.0487 -0.0961  0.2763
 2474TIP3   OH2 7362   5.152   3.267   2.449 -0.3798 -0.0259  0.0547
 2474TIP3    H1 7363   5.097   3.224   2.515 -0.0173  0.4950  0.7043
 2474TIP3    H2 7364   5.126   3.226   2.367 -0.4997 -1.0421  0.5751
 2475TIP3   OH2 7365   1.767   5.283   0.702  0.3081 -0.1012  0.3232
 2475TIP3    H1 7366   1.771   5.323   0.789 -0.3666 -0.7469  0.6623
 2475TIP3    H2 7367   1.674   5.287   0.678  0.4181 -0.3713 -0.1601
 2476TIP3   OH2 7368   7.839   6.960   3.760  0.4842  0.6010  0.3741
 2476TIP3    H1 7369   7.754   6.995   3.731  0.9513  0.3355 -1.4625
 2476TIP3    H2 7370   7.818   6.876   3.801 -0.3490  1.6216  2.1570
 2477TIP3   OH2 7371   8.077   5.395   5.289  0.1284  0.1288  0.1299
 2477TIP3    H1 7372   8.069   5.305   5.322  1.3005  0.2041  0.6611
 2477TIP3    H2 7373   8.137   5.389   5.216 -1.8333  0.0979 -1.5745
 2478TIP3   OH2 7374   1.379   2.621   5.474 -0.1502  0.4974  0.1026
 2478TIP3    H1 7375   1.368   2.714   5.454 -0.4312  0.5195  0.3621
 2478TIP3    H2 7376   1.452   2.593   5.418 -0.6670  0.6537 -0.6612
 2479TIP3   OH2 7377   7.916   3.720   1.860 -0.1129 -0.5734  0.2570
 2479TIP3    H1 7378   7.936   3.716   1.766  0.4906  2.4766  0.1342
 2479TIP3    H2 7379   7.991   3.679   1.902  1.6508  1.5799 -0.5586
 2480TIP3   OH2 7380   5.069   5.711   5.301 -0.7627 -0.1246 -0.2085
 2480TIP3    H1 7381   5.038   5.763   5.227  1.0390  1.8240  0.3120
 2480TIP3    H2 7382   4.990   5.687   5.349 -1.7445  0.9231 -1.2583
 2481TIP3   OH2 7383   4.529   5.043   4.620 -0.3338  0.0563  0.4914
 2481TIP3    H1 7384   4.614   5.061   4.580 -0.6906 -0.5644 -0.6004
 2481TIP3    H2 7385   4.524   5.102   4.695  1.1429 -0.0410  0.6979
 2482TIP3   OH2 7386   2.352   1.913   3.966  0.0138  0.2557  0.1188
 2482TIP3    H1 7387   2.367   1.998   4.008  2.6215 -0.0491 -0.0113
 2482TIP3    H2 7388   2.421   1.906   3.900 -0.0104 -2.0328  0.2417
 2483TIP3   OH2 7389   1.493   4.015   2.712  0.5521  0.3388  0.0682
 2483TIP3    H1 7390   1.587   4.035   2.710  0.4957  0.5266 -0.7524
 2483TIP3    H2 7391   1.476   3.969   2.630 -0.1685  0.7315 -0.0084
 2484TIP3   OH2 7392   1.971   1.705   3.856  0.2128 -0.3272  0.6175
 2484TIP3    H1 7393   1.929   1.779   3.814  0.1111 -1.2364 -0.9514
 2484TIP3    H2 7394   2.062   1.707   3.825 -0.0767 -1.5012 -0.4098
 2485TIP3   OH2 7395   0.684   5.048   6.128 -0.0835  0.1933  0.0019
 2485TIP3    H1 7396   0.593   5.018   6.131  0.2998 -0.9273  1.2194
 2485TIP3    H2 7397   0.736   4.968   6.140  1.0604  0.9039 -0.0764
 2486TIP3   OH2 7398   6.287   7.285   2.974 -0.2327 -0.9589  0.4853
 2486TIP3    H1 7399   6.197   7.280   3.006 -0.2044 -0.8020  0.5852
 2486TIP3    H2 7400   6.313   7.194   2.961 -0.7898 -0.9813 -0.6007
 2487TIP3   OH2 7401   5.377   5.523   2.440 -0.5774  0.2503 -0.4051
 2487TIP3    H1 7402   5.331   5.454   2.488  0.6225 -0.0473  0.3672
 2487TIP3    H2 7403   5.327   5.602   2.458 -1.5043 -0.2668 -0.6301
 2488TIP3   OH2 7404   4.860   1.090   5.816 -0.4218  0.0865 -0.6679
 2488TIP3    H1 7405   4.936   1.142   5.789  1.5739 -2.4372 -0.2684
 2488TIP3    H2 7406   4.834   1.042   5.737 -2.1322  1.3930 -0.9845
 2489TIP3   OH2 7407   3.764   2.721   0.898 -0.7106  0.5704 -0.1623
 2489TIP3    H1 7408   3.736   2.629   0.900 -1.5820  0.8250  1.8835
 2489TIP3    H2 7409   3.858   2.717   0.880 -1.2675 -0.5045 -3.4212
 2490TIP3   OH2 7410   7.461   5.333   1.449 -0.2164  0.5343 -0.4760
 2490TIP3    H1 7411   7.486   5.293   1.366 -1.1229 -2.0910  0.3891
 2490TIP3    H2 7412   7.539   5.380   1.478  1.1648 -1.0996 -1.3757
 2491TIP3   OH2 7413   0.715   6.854   2.250 -0.2532  0.0368  0.3086
 2491TIP3    H1 7414   0.710   6.794   2.325 -0.4536 -1.1958 -0.6394
 2491TIP3    H2 7415   0.645   6.917   2.265 -1.5320 -1.3127  0.2560
 2492TIP3   OH2 7416   4.997   6.619   6.712 -0.8331  0.4897  0.1767
 2492TIP3    H1 7417   5.015   6.687   6.777  0.5862  1.7906 -1.4691
 2492TIP3    H2 7418   5.074   6.620   6.655  0.1835 -3.9178  1.1644
 2493TIP3   OH2 7419   3.350   7.010   2.398  0.5499  0.3210 -0.1181
 2493TIP3    H1 7420   3.403   6.931   2.398  0.6501  0.3793  0.7120
 2493TIP3    H2 7421   3.376   7.057   2.319  0.1025 -0.7249 -0.9162
 2494TIP3   OH2 7422   3.049   6.577   1.070  0.2620  0.0189 -0.3694
 2494TIP3    H1 7423   3.135   6.567   1.029  0.3448  2.5716 -0.9858
 2494TIP3    H2 7424   3.025   6.668   1.054 -2.3805 -0.4939  0.1834
 2495TIP3   OH2 7425   7.475   5.166   5.272 -0.0447 -0.6118  0.0483
 2495TIP3    H1 7426   7.401   5.168   5.211 -0.6855 -1.1671  0.7859
 2495TIP3    H2 7427   7.550   5.196   5.220 -0.7530 -0.2025 -0.7553
 2496TIP3   OH2 7428   4.353   5.456   1.275 -0.0531  0.1689  0.3603
 2496TIP3    H1 7429   4.383   5.378   1.321 -0.8742 -0.4619 -0.1607
 2496TIP3    H2 7430   4.260   5.465   1.299 -0.0832  0.7334  0.0696
 2497TIP3   OH2 7431   8.308   3.342   1.096  0.3870 -0.1658  0.2517
 2497TIP3    H1 7432   8.354   3.391   1.028  0.7549  0.1529  0.7200
 2497TIP3    H2 7433   8.217   3.372   1.089  0.1183 -1.1960 -1.0296
 2498TIP3   OH2 7434   3.668   2.319   1.746  0.2372 -0.9141  0.2307
 2498TIP3    H1 7435   3.630   2.371   1.675  1.3433 -2.2466 -1.4143
 2498TIP3    H2 7436   3.718   2.382   1.797 -0.3504  0.0310 -0.3206
 2499TIP3   OH2 7437   2.223   6.049   6.833 -0.6001  0.1302 -0.2517
 2499TIP3    H1 7438   2.208   5.973   6.778 -0.9923  0.5660 -0.7580
 2499TIP3    H2 7439   2.153   6.045   6.898 -1.3054  0.6595 -0.9549
 2500TIP3   OH2 7440   3.828   3.291   2.522  0.4981  0.2441 -0.6363
 2500TIP3    H1 7441   3.844   3.318   2.431 -0.6151 -2.3215 -1.6821
 2500TIP3    H2 7442   3.896   3.226   2.541 -0.0269 -0.1562 -0.0810
 2501TIP3   OH2 7443   6.062   6.285   6.809 -0.1397  0.2982  0.2211
 2501TIP3    H1 7444   6.003   6.210   6.799 -2.5827  2.2879 -1.7636
 2501TIP3    H2 7445   6.077   6.315   6.719  0.9925  1.9955  0.9430
 2502TIP3   OH2 7446   3.354   7.908   3.534 -0.4647  0.3437 -0.3044
 2502TIP3    H1 7447   3.324   7.929   3.622  4.6711 -1.3718  2.2463
 2502TIP3    H2 7448   3.321   7.820   3.518 -0.5069  0.2250  0.4122
 2503TIP3   OH2 7449   5.838   2.764   0.441 -0.1431 -0.0146 -0.3352
 2503TIP3    H1 7450   5.876   2.677   0.450 -1.9128 -0.8382 -0.2645
 2503TIP3    H2 7451   5.868   2.795   0.356  0.7902 -0.5445 -0.2107
 2504TIP3   OH2 7452   6.171   2.250   5.002 -0.1980  0.0484 -0.3567
 2504TIP3    H1 7453   6.216   2.326   4.964 -0.4031  1.4316  1.9604
 2504TIP3    H2 7454   6.228   2.221   5.073 -0.4735 -1.5544 -0.7539
 2505TIP3   OH2 7455   3.890   6.854   4.914 -0.4993 -0.2720 -0.1819
 2505TIP3    H1 7456   3.919   6.945   4.911 -0.0915 -0.4103 -0.5413
 2505TIP3    H2 7457   3.968   6.804   4.938 -0.8103 -0.4911  0.3846
 2506TIP3   OH2 7458   2.936   7.686   4.788  0.0712  0.1386 -0.6576
 2506TIP3    H1 7459   2.849   7.719   4.765 -0.6128 -1.6281 -0.7966
 2506TIP3    H2 7460   2.954   7.724   4.874 -1.3923 -0.3855 -0.0771
 2507TIP3   OH2 7461   7.894   4.522   3.803 -0.6329 -0.0715 -0.1396
 2507TIP3    H1 7462   7.939   4.443   3.833 -2.8745 -1.1855  0.5315
 2507TIP3    H2 7463   7.903   4.520   3.707  0.1153 -0.6320 -0.0648
 2508TIP3   OH2 7464   5.815   5.410   3.953 -0.1831  0.2864 -0.7729
 2508TIP3    H1 7465   5.878   5.481   3.967  0.1906  0.2630 -2.1546
 2508TIP3    H2 7466   5.798   5.375   4.040  1.9130  0.1254 -0.3770
 2509TIP3   OH2 7467   6.377   1.844   1.015 -0.2320  0.1506 -0.2242
 2509TIP3    H1 7468   6.400   1.752   1.028 -1.2003 -0.0829 -0.1295
 2509TIP3    H2 7469   6.324   1.867   1.092 -0.7118  0.5426 -0.6664
 2510TIP3   OH2 7470   6.641   6.747   3.956  0.1937  0.1730 -0.0089
 2510TIP3    H1 7471   6.665   6.726   4.046  0.4290 -1.8917 -0.4932
 2510TIP3    H2 7472   6.664   6.839   3.945 -2.3499  1.3239  2.8237
 2511TIP3   OH2 7473   1.834   2.977   5.205  0.1730  0.5338  0.0493
 2511TIP3    H1 7474   1.785   2.904   5.169  0.6303  0.3241 -0.1546
 2511TIP3    H2 7475   1.791   2.997   5.288  0.8164 -0.7984  0.7320
 2512TIP3   OH2 7476   2.465   2.762   2.938  0.5766 -0.3610  0.3047
 2512TIP3    H1 7477   2.523   2.740   2.865  0.7521 -0.3158  0.4304
 2512TIP3    H2 7478   2.383   2.718   2.918  0.0664  1.0207 -0.7851
 2513TIP3   OH2 7479   3.540   6.003   6.541 -0.6461  0.2965  0.0261
 2513TIP3    H1 7480   3.448   6.027   6.540 -1.1508 -1.4359 -1.9899
 2513TIP3    H2 7481   3.549   5.940   6.612 -1.6568 -1.5080 -1.3604
 2514TIP3   OH2 7482   3.086   5.665   2.012 -0.2874 -0.1183 -0.8343
 2514TIP3    H1 7483   3.076   5.650   1.918 -1.6533 -2.1977 -0.4242
 2514TIP3    H2 7484   3.163   5.721   2.020 -0.4732  0.5580 -3.2150
 2515TIP3   OH2 7485   3.560   5.279   4.006 -0.0064 -0.0946 -0.3303
 2515TIP3    H1 7486   3.543   5.325   3.924 -0.4221 -0.2396 -0.3247
 2515TIP3    H2 7487   3.656   5.279   4.013  0.0230  0.1516 -0.6791
 2516TIP3   OH2 7488   3.319   3.063   5.698  1.0029 -0.4052 -0.2079
 2516TIP3    H1 7489   3.302   2.998   5.630  2.0146 -1.1847  0.2533
 2516TIP3    H2 7490   3.303   3.016   5.780 -0.8169  0.7030  0.1260
 2517TIP3   OH2 7491   1.203   2.251   2.952 -0.2916  0.0111 -0.2022
 2517TIP3    H1 7492   1.114   2.220   2.969 -1.1985  0.9998 -2.6963
 2517TIP3    H2 7493   1.255   2.171   2.940 -1.2225 -0.5791 -0.3932
 2518TIP3   OH2 7494   2.277   5.932   0.900 -0.2770  0.0760 -0.0311
 2518TIP3    H1 7495   2.346   5.903   0.960 -0.0138  0.6784 -0.0289
 2518TIP3    H2 7496   2.302   5.896   0.816  1.2345  1.9975 -0.4986
 2519TIP3   OH2 7497   4.880   4.343   3.856 -0.2034 -0.2017  0.0089
 2519TIP3    H1 7498   4.941   4.337   3.930 -0.3076 -2.5401 -0.0035
 2519TIP3    H2 7499   4.916   4.282   3.791 -2.2319 -1.2837 -0.1908
 2520TIP3   OH2 7500   4.680   7.535   3.970 -0.5996  0.0692  0.0356
 2520TIP3    H1 7501   4.727   7.537   4.053 -2.7781  1.6173  1.3237
 2520TIP3    H2 7502   4.680   7.626   3.940 -1.4811 -0.1474 -0.6587
 2521TIP3   OH2 7503   6.001   6.425   1.409 -0.6474  0.4472  0.4755
 2521TIP3    H1 7504   6.052   6.374   1.345 -0.8831  1.7070 -0.7634
 2521TIP3    H2 7505   5.987   6.364   1.482  1.7051 -0.2745  0.4005
 2522TIP3   OH2 7506   5.252   2.557   6.391  0.0602  0.1655  0.3527
 2522TIP3    H1 7507   5.203   2.638   6.378 -0.5300 -0.0236  1.3007
 2522TIP3    H2 7508   5.203   2.509   6.457 -1.0210 -2.1324 -1.9384
 2523TIP3   OH2 7509   0.600   0.995   4.538 -0.1143  0.2225  0.3835
 2523TIP3    H1 7510   0.598   1.022   4.446  2.0441 -1.2524 -0.1962
 2523TIP3    H2 7511   0.543   0.918   4.542 -0.4374  0.4599  0.3449
 2524TIP3   OH2 7512   7.432   3.716   6.338 -0.5186 -0.0995  0.9145
 2524TIP3    H1 7513   7.481   3.667   6.272 -0.9857  1.8848 -1.0069
 2524TIP3    H2 7514   7.346   3.674   6.340 -0.8369  0.4144 -0.5347
 2525TIP3   OH2 7515   3.254   7.039   5.404 -0.4039 -0.3070 -0.6060
 2525TIP3    H1 7516   3.306   7.080   5.334  1.1282 -0.5680  0.3257
 2525TIP3    H2 7517   3.248   6.947   5.378 -0.2005 -0.3189 -0.6184
 2526TIP3   OH2 7518   3.953   3.230   1.669 -0.2569  0.2855  0.2591
 2526TIP3    H1 7519   3.999   3.286   1.732  1.8846  0.6392 -1.5095
 2526TIP3    H2 7520   4.018   3.165   1.642 -1.6747 -0.9674 -0.2871
 2527TIP3   OH2 7521   7.765   5.844   1.271 -0.1690  0.4335  0.2098
 2527TIP3    H1 7522   7.786   5.796   1.191 -2.1035 -1.6573  0.8490
 2527TIP3    H2 7523   7.738   5.931   1.241 -0.3786 -0.1469 -1.3738
 2528TIP3   OH2 7524   2.129   2.492   1.318 -0.2930 -0.2663  0.0131
 2528TIP3    H1 7525   2.224   2.491   1.317 -0.2746  0.3270  0.5064
 2528TIP3    H2 7526   2.104   2.418   1.373 -0.1149 -0.4052 -0.0948
 2529TIP3   OH2 7527   4.364   7.144   4.294  0.0754 -0.0542  0.2401
 2529TIP3    H1 7528   4.345   7.050   4.299  1.3476 -0.4254 -1.0388
 2529TIP3    H2 7529   4.286   7.182   4.252 -0.5064 -0.5056  0.8931
 2530TIP3   OH2 7530   3.753   2.022   4.712 -0.9324  0.1925  0.2865
 2530TIP3    H1 7531   3.718   1.933   4.721  0.6674 -0.4458  0.5688
 2530TIP3    H2 7532   3.681   2.078   4.740 -1.3691 -1.1077  1.9640
 2531TIP3   OH2 7533   6.246   3.244   5.422  0.4714  0.1302  0.3157
 2531TIP3    H1 7534   6.231   3.184   5.494  2.4178 -0.0030  0.6556
 2531TIP3    H2 7535   6.186   3.215   5.353 -1.7816  0.5640  1.9880
 2532TIP3   OH2 7536   0.865   4.331   4.137  0.0850 -0.2255  0.3425
 2532TIP3    H1 7537   0.916   4.308   4.215 -0.3085  0.5871  0.8617
 2532TIP3    H2 7538   0.819   4.412   4.162  1.3216  1.0587 -1.3408
 2533TIP3   OH2 7539   3.183   4.912   0.442 -0.3427  0.0136  0.5116
 2533TIP3    H1 7540   3.181   4.830   0.491  0.4358 -0.3938 -0.1112
 2533TIP3    H2 7541   3.144   4.890   0.358 -0.1917  0.2980  0.3668
 2534TIP3   OH2 7542   6.300   7.373   4.263 -0.1592 -0.4699 -0.2185
 2534TIP3    H1 7543   6.361   7.407   4.328  0.1560 -1.4975  0.0471
 2534TIP3    H2 7544   6.347   7.379   4.180 -0.9920  1.9380 -0.5859
 2535TIP3   OH2 7545   7.174   2.823   4.829  0.2560 -0.2503  0.5551
 2535TIP3    H1 7546   7.137   2.864   4.751  0.1471 -0.5353  0.4552
 2535TIP3    H2 7547   7.187   2.731   4.804 -0.0179 -0.4015  0.9473
 2536TIP3   OH2 7548   3.117   4.406   0.382  0.4810  0.0246  0.2329
 2536TIP3    H1 7549   3.153   4.360   0.458 -2.7252 -1.4676  1.0394
 2536TIP3    H2 7550   3.190   4.456   0.347  2.7561 -1.2960  2.7292
 2537TIP3   OH2 7551   6.801   1.733   4.255  0.2511 -0.4216  0.2591
 2537TIP3    H1 7552   6.849   1.816   4.255 -1.1459  0.4067 -0.5671
 2537TIP3    H2 7553   6.848   1.679   4.319  2.3403  0.3076 -0.5782
 2538TIP3   OH2 7554   4.768   2.605   2.726  0.5439 -0.1534 -0.2765
 2538TIP3    H1 7555   4.828   2.536   2.698  1.4442  0.8915 -1.0044
 2538TIP3    H2 7556   4.687   2.587   2.678  0.0064 -1.9393  1.1918
 2539TIP3   OH2 7557   5.309   4.409   1.877  0.5357  0.0241 -0.0082
 2539TIP3    H1 7558   5.387   4.389   1.826  0.1675 -1.5583  0.0050
 2539TIP3    H2 7559   5.262   4.474   1.824  0.1450 -1.5876 -1.7429
 2540TIP3   OH2 7560   1.034   3.436   2.874  0.7754  0.1706  0.3748
 2540TIP3    H1 7561   0.955   3.381   2.871  1.9778 -1.6604  0.4523
 2540TIP3    H2 7562   1.097   3.384   2.924  2.4971  0.9225 -0.8975
 2541TIP3   OH2 7563   6.721   0.465   0.594  0.2404 -0.6062 -0.1427
 2541TIP3    H1 7564   6.761   0.460   0.681  1.1659  0.6966 -0.4663
 2541TIP3    H2 7565   6.627   0.470   0.611  0.3367 -1.4082  0.7285
 2542TIP3   OH2 7566   6.021   6.001   5.998  0.2534 -0.1648 -0.0405
 2542TIP3    H1 7567   6.091   6.000   6.064  0.0717 -1.1406  0.1591
 2542TIP3    H2 7568   6.068   6.010   5.915  0.3842  3.1395  0.2651
 2543TIP3   OH2 7569   0.472   4.111   5.608 -0.3464 -0.2310 -0.9469
 2543TIP3    H1 7570   0.458   4.205   5.620 -2.6279 -0.5652 -0.3906
 2543TIP3    H2 7571   0.472   4.076   5.697 -0.0711 -0.8167 -1.1756
 2544TIP3   OH2 7572   0.437   2.781   5.108 -0.1261 -0.2602  0.3355
 2544TIP3    H1 7573   0.411   2.810   5.196  0.5126  1.0036  0.1334
 2544TIP3    H2 7574   0.428   2.686   5.110 -0.2730 -0.2347  1.7207
 2545TIP3   OH2 7575   8.042   7.726   0.140 -0.1252 -0.1285  0.4090
 2545TIP3    H1 7576   8.129   7.766   0.145  0.4155 -0.8236 -2.0913
 2545TIP3    H2 7577   7.982   7.801   0.128  0.1276  0.3211  1.7511
 2546TIP3   OH2 7578   4.546   5.583   4.463 -0.2197 -0.1572 -0.5009
 2546TIP3    H1 7579   4.572   5.597   4.554  2.5247  2.3162 -1.5099
 2546TIP3    H2 7580   4.624   5.546   4.421 -1.3315 -0.9789 -1.9547
 2547TIP3   OH2 7581   1.348   3.528   1.936 -0.3951 -0.0719  0.0957
 2547TIP3    H1 7582   1.338   3.514   1.841 -1.5252 -1.7934  0.4214
 2547TIP3    H2 7583   1.267   3.573   1.961  0.4841  1.5853  0.0683
 2548TIP3   OH2 7584   0.316   6.562   4.287  0.1286  0.1709  0.1064
 2548TIP3    H1 7585   0.253   6.585   4.219 -1.4972 -1.4183  0.9789
 2548TIP3    H2 7586   0.268   6.575   4.369  1.7798  1.2757  0.9544
 2549TIP3   OH2 7587   2.766   5.243   3.359  0.1934  0.2366  0.1300
 2549TIP3    H1 7588   2.672   5.251   3.344  0.2040 -0.4726 -0.4173
 2549TIP3    H2 7589   2.805   5.257   3.273  0.2932 -3.5092 -0.6346
 2550TIP3   OH2 7590   5.678   5.324   6.114  0.0601  0.1744  0.2304
 2550TIP3    H1 7591   5.614   5.256   6.135  1.5570 -0.9185  1.4898
 2550TIP3    H2 7592   5.752   5.306   6.172 -0.2292  4.0661  2.1727
 2551TIP3   OH2 7593   6.745   1.365   3.875  0.2233  0.1968  0.2433
 2551TIP3    H1 7594   6.803   1.381   3.801  2.4295  2.3737  2.2839
 2551TIP3    H2 7595   6.751   1.444   3.928 -2.8428 -0.4610  1.7893
 2552TIP3   OH2 7596   4.069   5.886   0.968  0.1221 -0.9140 -0.6065
 2552TIP3    H1 7597   4.139   5.948   0.946 -1.5838  1.4108  0.1868
 2552TIP3    H2 7598   4.100   5.843   1.048  1.5092 -1.4693 -1.3943
 2553TIP3   OH2 7599   6.064   7.181   3.771 -0.4994 -0.0717  0.1767
 2553TIP3    H1 7600   6.069   7.220   3.858  3.7372  1.0816 -0.3632
 2553TIP3    H2 7601   6.026   7.250   3.716 -2.2517 -0.4389  0.8842
 2554TIP3   OH2 7602   6.752   3.410   2.272 -0.2488 -0.1056  0.3546
 2554TIP3    H1 7603   6.693   3.433   2.199  0.9083 -0.8679 -0.8744
 2554TIP3    H2 7604   6.803   3.489   2.287  0.5561 -0.3996 -0.7240
 2555TIP3   OH2 7605  -0.007   0.882   5.426 -0.4317 -0.1768 -0.1899
 2555TIP3    H1 7606   0.052   0.958   5.428  1.4612 -1.5862  0.1962
 2555TIP3    H2 7607  -0.029   0.872   5.334  1.3169 -0.5890 -0.6069
 2556TIP3   OH2 7608   3.803   4.116   3.070 -0.3290  0.1229  0.1071
 2556TIP3    H1 7609   3.834   4.178   3.137 -0.1837 -0.4389  0.5653
 2556TIP3    H2 7610   3.819   4.161   2.987  1.1027  0.1280  0.3600
 2557TIP3   OH2 7611   4.646   4.197   0.024  0.3437  0.0481 -0.4783
 2557TIP3    H1 7612   4.655   4.102   0.021 -1.2056 -0.1194 -1.3860
 2557TIP3    H2 7613   4.552   4.212   0.013  0.3881  1.6564  0.9755
 2558TIP3   OH2 7614   7.296   3.063   2.434  0.1605  0.3950  0.2277
 2558TIP3    H1 7615   7.218   3.109   2.464 -1.6816 -2.4174  0.1625
 2558TIP3    H2 7616   7.346   3.046   2.513 -0.1488  0.7747  0.5063
 2559TIP3   OH2 7617   1.775   6.324   3.831 -0.2034 -1.4211 -0.3290
 2559TIP3    H1 7618   1.790   6.310   3.738 -1.2514 -0.0306 -0.7310
 2559TIP3    H2 7619   1.741   6.413   3.837 -0.5522 -1.6354  1.3425
 2560TIP3   OH2 7620   5.710   4.310   3.614  1.2188  0.0139  0.0115
 2560TIP3    H1 7621   5.657   4.244   3.570  0.5165  0.3763  0.2845
 2560TIP3    H2 7622   5.790   4.265   3.639  0.1385 -1.1662  1.5474
 2561TIP3   OH2 7623   6.166   6.836   1.710  0.6358 -0.3403 -0.3262
 2561TIP3    H1 7624   6.205   6.760   1.753  1.7968  0.6035  0.3202
 2561TIP3    H2 7625   6.237   6.899   1.701  0.4767 -0.4499 -3.6359
 2562TIP3   OH2 7626   2.784   0.928   3.316 -0.7692  0.0450 -0.1187
 2562TIP3    H1 7627   2.774   0.839   3.348 -1.3922 -0.6281 -2.0610
 2562TIP3    H2 7628   2.775   0.921   3.221  2.3695  1.7284 -0.6823
 2563TIP3   OH2 7629   6.200   2.182   1.167  0.0426  0.0457 -0.0708
 2563TIP3    H1 7630   6.142   2.112   1.137  0.8768 -0.2844 -0.9599
 2563TIP3    H2 7631   6.169   2.202   1.255 -2.5216  1.0880 -1.1336
 2564TIP3   OH2 7632   2.715   7.246   0.692  0.3149 -0.2832  0.2138
 2564TIP3    H1 7633   2.805   7.277   0.680  0.2425 -1.0424 -3.4052
 2564TIP3    H2 7634   2.722   7.177   0.758  2.2902 -0.0058  0.3532
 2565TIP3   OH2 7635   3.803   5.627   6.761 -0.1858  0.0464  0.3930
 2565TIP3    H1 7636   3.866   5.599   6.828 -0.7120  1.6073  1.5735
 2565TIP3    H2 7637   3.856   5.634   6.681  0.5312 -1.4586  0.6956
 2566TIP3   OH2 7638   0.367   7.876   2.347  0.0305  0.5787 -0.4799
 2566TIP3    H1 7639   0.307   7.926   2.291 -0.9498  0.1219  0.1488
 2566TIP3    H2 7640   0.360   7.786   2.315 -0.6552  0.2837  0.4481
 2567TIP3   OH2 7641   6.298   7.811   3.215 -0.4723 -0.4352 -0.4658
 2567TIP3    H1 7642   6.234   7.874   3.180 -0.9243 -0.4212  0.3664
 2567TIP3    H2 7643   6.356   7.792   3.141  0.7840  2.3118 -0.2937
 2568TIP3   OH2 7644   6.961   0.516   6.452  0.1828 -0.1702  0.3569
 2568TIP3    H1 7645   7.037   0.563   6.486  0.7606 -0.6034 -0.3012
 2568TIP3    H2 7646   6.962   0.432   6.498 -0.1285 -0.0267  0.6299
 2569TIP3   OH2 7647   2.693   2.247   3.987 -0.1903  0.2461  0.3783
 2569TIP3    H1 7648   2.658   2.334   3.966 -0.4740  0.1614  0.4995
 2569TIP3    H2 7649   2.748   2.262   4.064  0.8442  0.5550 -0.3915
 2570TIP3   OH2 7650   1.231   3.311   3.058  0.2565  0.6183  0.7504
 2570TIP3    H1 7651   1.253   3.238   3.001 -2.1963  0.2093  0.2344
 2570TIP3    H2 7652   1.297   3.378   3.038  2.1756 -1.1554  0.7876
 2571TIP3   OH2 7653   5.052   6.779   2.862 -0.0159 -0.2847 -0.1289
 2571TIP3    H1 7654   4.978   6.804   2.807 -1.3364 -0.3487  1.5233
 2571TIP3    H2 7655   5.064   6.685   2.846 -1.1277 -0.5478  0.4883
 2572TIP3   OH2 7656   4.862   1.876   2.050 -0.3956 -0.5461 -0.0892
 2572TIP3    H1 7657   4.817   1.799   2.085 -1.6362  0.5829  0.8890
 2572TIP3    H2 7658   4.949   1.843   2.025 -0.6942 -2.1347  0.8282
 2573TIP3   OH2 7659   2.530   3.951   3.839 -0.4430 -0.2406 -0.4706
 2573TIP3    H1 7660   2.512   3.906   3.756  3.5741 -2.0195 -0.5947
 2573TIP3    H2 7661   2.505   3.887   3.906  1.0781 -0.9247 -0.5225
 2574TIP3   OH2 7662   1.821   3.875   6.002 -0.0329 -0.1801 -0.4111
 2574TIP3    H1 7663   1.746   3.879   6.062  0.4230  0.7293  0.1264
 2574TIP3    H2 7664   1.837   3.966   5.978 -0.4184 -0.5578 -2.2215
 2575TIP3   OH2 7665   5.843   3.239   1.326  0.1934 -0.5355 -0.2282
 2575TIP3    H1 7666   5.869   3.242   1.234 -2.4654 -1.2290 -1.0713
 2575TIP3    H2 7667   5.802   3.153   1.337 -1.9099  0.5404  0.8785
 2576TIP3   OH2 7668   6.660   4.342   3.188 -0.0328  0.4075 -0.8244
 2576TIP3    H1 7669   6.671   4.428   3.229 -1.0003  0.6628 -1.0747
 2576TIP3    H2 7670   6.720   4.285   3.235  0.2611  1.1127 -0.3283
 2577TIP3   OH2 7671   0.785   4.207   2.733  0.3089 -0.0490  0.1764
 2577TIP3    H1 7672   0.808   4.298   2.715 -2.7084  0.9929  0.8383
 2577TIP3    H2 7673   0.818   4.190   2.821  1.5863  0.1158 -0.2637
 2578TIP3   OH2 7674   6.065   5.677   3.575 -0.5273 -0.2543  0.6048
 2578TIP3    H1 7675   6.014   5.597   3.559 -0.9891 -0.6577  3.5169
 2578TIP3    H2 7676   6.002   5.738   3.613  0.2194  0.8988  0.0633
 2579TIP3   OH2 7677   5.170   7.271   3.810  0.0902  0.1430  0.1865
 2579TIP3    H1 7678   5.117   7.224   3.746 -1.2850  0.1541  1.2532
 2579TIP3    H2 7679   5.238   7.314   3.759 -0.5627 -0.3931 -1.1734
 2580TIP3   OH2 7680   8.249   7.271   0.104 -0.1034  0.6156  0.4173
 2580TIP3    H1 7681   8.172   7.214   0.113 -0.3813  0.8310 -0.5001
 2580TIP3    H2 7682   8.218   7.344   0.051  0.4164  1.3307  1.0877
 2581TIP3   OH2 7683   0.275   6.998   5.599 -0.1016 -0.1239  0.2097
 2581TIP3    H1 7684   0.277   6.977   5.506  2.8090 -0.2210  0.1949
 2581TIP3    H2 7685   0.338   7.070   5.609  1.4087 -1.5882  2.3445
 2582TIP3   OH2 7686   0.045   1.020   1.495 -0.2207  0.5817 -0.1831
 2582TIP3    H1 7687   0.067   1.101   1.449  0.9818 -0.1992 -1.0102
 2582TIP3    H2 7688   0.121   0.963   1.483 -1.2983 -0.9222 -0.1902
 2583TIP3   OH2 7689   1.312   4.280   1.514 -0.0825  0.3289 -0.1943
 2583TIP3    H1 7690   1.345   4.366   1.540  0.7770 -0.6087  2.0839
 2583TIP3    H2 7691   1.223   4.296   1.483 -0.8597  1.8016  2.5024
 2584TIP3   OH2 7692   4.327   7.755   6.731 -0.4091 -0.4834 -0.0235
 2584TIP3    H1 7693   4.327   7.776   6.637 -1.1529  2.1467  0.4863
 2584TIP3    H2 7694   4.386   7.819   6.770 -2.1658  0.2449  1.5870
 2585TIP3   OH2 7695   1.698   2.797   6.301  0.7165  0.0809 -0.5533
 2585TIP3    H1 7696   1.615   2.845   6.300  0.4333 -0.4018 -1.0574
 2585TIP3    H2 7697   1.750   2.840   6.368 -0.6090 -0.7672  1.0766
 2586TIP3   OH2 7698   8.410   2.016   0.527 -0.7030 -0.0731  0.4617
 2586TIP3    H1 7699   8.370   1.985   0.446 -0.4250  0.0753  0.2685
 2586TIP3    H2 7700   8.355   1.978   0.596 -1.3196  0.3203  0.1976
 2587TIP3   OH2 7701   4.370   0.791   0.692  0.0710 -0.6061 -0.0603
 2587TIP3    H1 7702   4.311   0.763   0.762  1.2514 -0.4919  1.0353
 2587TIP3    H2 7703   4.455   0.756   0.718  1.5904  3.3748  1.1588
 2588TIP3   OH2 7704   0.453   5.217   2.040 -0.8651  0.4674 -0.6829
 2588TIP3    H1 7705   0.448   5.160   1.963 -1.5298  0.2953 -0.5151
 2588TIP3    H2 7706   0.544   5.210   2.068 -0.7683  0.0397 -1.0820
 2589TIP3   OH2 7707   2.763   1.342   4.828 -0.0502  0.7524  0.4103
 2589TIP3    H1 7708   2.840   1.305   4.870  0.7666  0.6896 -1.0733
 2589TIP3    H2 7709   2.735   1.413   4.886  0.5325  0.1525  1.4423
 2590TIP3   OH2 7710   7.920   3.353   6.339  0.1990 -0.3270  0.3728
 2590TIP3    H1 7711   7.958   3.364   6.251 -1.2611  0.1007 -0.2238
 2590TIP3    H2 7712   7.906   3.442   6.371 -0.8327 -0.4721  0.3420
 2591TIP3   OH2 7713   2.358   4.112   4.821 -0.8116 -0.1756  0.4230
 2591TIP3    H1 7714   2.374   4.127   4.914 -1.1330  1.0624  0.2890
 2591TIP3    H2 7715   2.293   4.177   4.797 -1.2749 -0.9559 -0.5142
 2592TIP3   OH2 7716   4.127   0.685   5.710  0.4828  0.0712  0.1183
 2592TIP3    H1 7717   4.124   0.778   5.690 -1.1478  0.4318  1.7947
 2592TIP3    H2 7718   4.035   0.661   5.726  0.9750 -1.6149  0.5985
 2593TIP3   OH2 7719   2.132   3.976   6.055  0.6073 -0.4486 -0.0661
 2593TIP3    H1 7720   2.177   3.919   6.117 -0.2042 -1.2636 -0.2041
 2593TIP3    H2 7721   2.040   3.974   6.083  0.8066  2.2141  1.0093
 2594TIP3   OH2 7722   2.430   3.957   5.781  0.2207 -0.0537 -0.3677
 2594TIP3    H1 7723   2.474   3.888   5.731  0.9646  0.4794 -0.4659
 2594TIP3    H2 7724   2.338   3.933   5.779  0.1591  0.1760 -2.3886
 2595TIP3   OH2 7725   1.576   5.667   5.715 -0.0326  0.1513 -0.3908
 2595TIP3    H1 7726   1.515   5.740   5.716  1.7387  1.7152  0.2868
 2595TIP3    H2 7727   1.522   5.589   5.725 -1.7576  1.5624  2.3654
 2596TIP3   OH2 7728   3.635   0.089   3.793 -0.4209 -0.0358  0.0138
 2596TIP3    H1 7729   3.633   0.156   3.724  0.3780  2.3320  2.1112
 2596TIP3    H2 7730   3.726   0.089   3.823 -0.5585 -1.6580  0.4974
 2597TIP3   OH2 7731   5.554   0.514   0.778  0.5563  0.1645 -0.0160
 2597TIP3    H1 7732   5.638   0.528   0.734  0.1804 -0.2678 -0.8929
 2597TIP3    H2 7733   5.538   0.420   0.770 -1.1527  0.5593 -1.9920
 2598TIP3   OH2 7734   7.987   4.550   5.581 -0.4734  0.8322 -0.5332
 2598TIP3    H1 7735   8.051   4.596   5.526 -1.2576  0.8818 -1.4240
 2598TIP3    H2 7736   8.008   4.457   5.570 -1.0145  0.8039 -1.4323
 2599TIP3   OH2 7737   4.422   2.518   4.410  0.0164 -0.1887 -0.1072
 2599TIP3    H1 7738   4.388   2.434   4.440 -1.0339  0.1679 -0.2741
 2599TIP3    H2 7739   4.349   2.558   4.362  0.4275  0.9160  0.1542
 2600TIP3   OH2 7740   7.722   0.290   6.606  0.1047 -0.8042  0.3345
 2600TIP3    H1 7741   7.664   0.270   6.680 -0.9052 -0.6147 -0.3815
 2600TIP3    H2 7742   7.744   0.383   6.617 -0.4762 -0.6353  0.1229
 2601TIP3   OH2 7743   2.262   6.662   0.908 -0.6214  0.1528 -0.0444
 2601TIP3    H1 7744   2.261   6.749   0.867  1.1712 -0.3745 -1.3445
 2601TIP3    H2 7745   2.354   6.634   0.901 -1.2623 -2.0641 -0.1630
 2602TIP3   OH2 7746   2.926   6.492   2.018 -0.1524 -0.2112 -0.0109
 2602TIP3    H1 7747   2.914   6.544   1.938 -1.2282 -0.0763  0.2135
 2602TIP3    H2 7748   2.864   6.420   2.008  0.2373 -0.5997  0.3718
 2603TIP3   OH2 7749   0.142   7.470   5.735 -0.5383  0.2850  0.5848
 2603TIP3    H1 7750   0.205   7.542   5.738 -0.5719  0.3618 -0.2031
 2603TIP3    H2 7751   0.122   7.460   5.642 -0.1461 -1.0688  0.6146
 2604TIP3   OH2 7752   8.395   3.173   5.928  0.5138  0.0283 -0.4605
 2604TIP3    H1 7753   8.368   3.137   5.843 -0.1292 -0.1407 -0.1897
 2604TIP3    H2 7754   8.332   3.136   5.990  0.0308  1.3620 -0.1280
 2605TIP3   OH2 7755   1.370   3.021   3.652 -0.4217  0.0855  0.3597
 2605TIP3    H1 7756   1.305   2.958   3.682 -0.4810 -0.6499 -1.2005
 2605TIP3    H2 7757   1.368   3.014   3.556 -0.6858  2.7398  0.1067
 2606TIP3   OH2 7758   3.974   1.485   5.135  0.5566 -0.2706  0.0692
 2606TIP3    H1 7759   3.905   1.447   5.080 -1.1418 -0.3000  2.0872
 2606TIP3    H2 7760   3.994   1.569   5.094 -2.0199  0.5721  0.3637
 2607TIP3   OH2 7761   7.804   1.256   2.953 -0.1415  0.2325 -0.1757
 2607TIP3    H1 7762   7.755   1.336   2.938  0.2858  0.3405 -1.0420
 2607TIP3    H2 7763   7.889   1.271   2.911  0.1705 -0.4325  0.1933
 2608TIP3   OH2 7764   2.102   0.219   0.119 -0.1272 -0.6427  0.1879
 2608TIP3    H1 7765   2.186   0.263   0.134 -2.1124  3.6050  0.2303
 2608TIP3    H2 7766   2.055   0.229   0.202 -1.4161 -1.1393 -0.4563
 2609TIP3   OH2 7767   3.722   6.909   4.437  0.8846  0.0079 -0.3414
 2609TIP3    H1 7768   3.653   6.974   4.439 -0.2576 -1.1808  1.5428
 2609TIP3    H2 7769   3.709   6.863   4.353 -3.0791 -2.5854  1.3730
 2610TIP3   OH2 7770   2.669   3.411   3.011 -0.5711  0.6346  0.1485
 2610TIP3    H1 7771   2.619   3.470   3.068 -1.7998  1.1367 -1.3896
 2610TIP3    H2 7772   2.654   3.324   3.048 -2.1338  0.8458  0.0584
 2611TIP3   OH2 7773   5.814   7.183   2.330 -0.0779 -0.2163 -0.4756
 2611TIP3    H1 7774   5.804   7.099   2.374 -1.2378  0.4393  0.5726
 2611TIP3    H2 7775   5.731   7.227   2.344  0.0861  0.6524 -2.0176
 2612TIP3   OH2 7776   4.546   3.865   5.833 -0.1547 -0.1133  0.3996
 2612TIP3    H1 7777   4.578   3.888   5.746  1.5762  0.7457  1.2006
 2612TIP3    H2 7778   4.516   3.775   5.825  0.5868 -0.2612 -0.9354
 2613TIP3   OH2 7779   0.656   7.615   5.346  0.5552 -0.0599 -0.6807
 2613TIP3    H1 7780   0.709   7.677   5.396 -0.7678 -1.6343  3.0530
 2613TIP3    H2 7781   0.681   7.529   5.379 -2.4481 -1.0275 -0.5961
 2614TIP3   OH2 7782   3.477   5.331   0.216  0.2322  0.1982  0.4465
 2614TIP3    H1 7783   3.469   5.236   0.220  0.3007  0.2019  0.6318
 2614TIP3    H2 7784   3.570   5.348   0.226  0.4351  0.1952 -1.1411
 2615TIP3   OH2 7785   6.911   2.266   5.930  0.2929  0.1085 -0.4382
 2615TIP3    H1 7786   6.890   2.264   6.024 -0.1426  2.1402 -0.4456
 2615TIP3    H2 7787   7.002   2.235   5.925 -0.0728 -1.2034  0.4915
 2616TIP3   OH2 7788   3.908   7.392   0.542  0.1722  0.2896 -0.0805
 2616TIP3    H1 7789   3.831   7.393   0.599  0.4707  3.0039  0.4273
 2616TIP3    H2 7790   3.977   7.430   0.596  1.9926 -2.2048 -0.4869
 2617TIP3   OH2 7791   1.104   2.595   5.524 -0.0413 -0.6000 -0.2172
 2617TIP3    H1 7792   1.194   2.592   5.558  0.2050 -0.2009 -0.8266
 2617TIP3    H2 7793   1.112   2.633   5.437 -1.0795  1.7063  0.6203
 2618TIP3   OH2 7794   8.189   4.749   1.620  0.5222 -0.3148 -0.2047
 2618TIP3    H1 7795   8.225   4.661   1.627  0.7933 -0.1532  0.6386
 2618TIP3    H2 7796   8.263   4.806   1.643 -0.0369  0.0575  0.7131
 2619TIP3   OH2 7797   2.208   0.740   1.865  0.3823 -0.2343  0.3407
 2619TIP3    H1 7798   2.124   0.709   1.897  0.7095 -2.4172 -0.7221
 2619TIP3    H2 7799   2.188   0.823   1.822 -1.0696 -0.3045  0.8344
 2620TIP3   OH2 7800   7.849   6.875   0.953  0.2433  0.0731  0.0234
 2620TIP3    H1 7801   7.818   6.869   1.043 -0.8072 -0.1408 -0.3420
 2620TIP3    H2 7802   7.881   6.787   0.933 -1.2907 -0.4070 -0.4227
 2621TIP3   OH2 7803   6.839   4.730   5.593 -0.2805  0.2221  0.2575
 2621TIP3    H1 7804   6.789   4.797   5.638 -0.8462 -0.9429  1.4237
 2621TIP3    H2 7805   6.776   4.658   5.580  0.4898 -0.3635 -0.3176
 2622TIP3   OH2 7806   2.391   7.674   0.644 -0.0330 -0.0119  0.7420
 2622TIP3    H1 7807   2.471   7.622   0.639 -0.7354 -1.0093 -0.6033
 2622TIP3    H2 7808   2.363   7.685   0.553 -3.6580 -3.2966  1.1963
 2623TIP3   OH2 7809   8.298   3.059   0.846  0.6318  0.3731  0.9624
 2623TIP3    H1 7810   8.375   3.040   0.792  0.4170  0.6856  0.5431
 2623TIP3    H2 7811   8.267   2.973   0.873 -0.6039  0.0298 -1.3008
 2624TIP3   OH2 7812   1.908   3.159   3.726 -0.0546 -0.3652 -0.0077
 2624TIP3    H1 7813   1.977   3.140   3.663 -0.4271 -0.9513 -0.2487
 2624TIP3    H2 7814   1.912   3.087   3.788  0.6871  0.5012  0.9912
 2625TIP3   OH2 7815   2.491   0.543   4.753  0.7481 -0.1325  0.3379
 2625TIP3    H1 7816   2.486   0.513   4.662 -0.1663  1.1886 -0.0845
 2625TIP3    H2 7817   2.567   0.497   4.790 -0.4741 -2.7966 -0.2664
 2626TIP3   OH2 7818   6.308   2.148   5.220 -0.6808 -0.6439 -0.6748
 2626TIP3    H1 7819   6.350   2.067   5.248  0.1818  0.1766  0.5567
 2626TIP3    H2 7820   6.270   2.183   5.301  2.0714  1.9395 -0.3183
 2627TIP3   OH2 7821   5.848   6.193   0.051  0.5092 -0.2963  0.1756
 2627TIP3    H1 7822   5.804   6.190   0.136 -0.7686 -0.7976 -0.4814
 2627TIP3    H2 7823   5.897   6.275   0.053 -2.5062  1.6824 -0.0333
 2628TIP3   OH2 7824   2.050   1.871   0.502 -0.5249 -0.5699 -0.7547
 2628TIP3    H1 7825   1.993   1.817   0.557 -0.6684  0.1811 -0.1516
 2628TIP3    H2 7826   2.086   1.810   0.437  0.8047 -1.8178  1.0342
 2629TIP3   OH2 7827   7.208   1.147   5.198  0.0116  0.5333 -0.7178
 2629TIP3    H1 7828   7.211   1.074   5.136  1.6326  0.1144 -0.2071
 2629TIP3    H2 7829   7.299   1.157   5.228 -0.7945  0.2086  2.1586
 2630TIP3   OH2 7830   1.681   5.679   1.355 -0.2886  0.4906  0.2997
 2630TIP3    H1 7831   1.683   5.719   1.268 -2.5404 -0.7121 -0.3823
 2630TIP3    H2 7832   1.773   5.657   1.373  0.2638  0.9207 -1.6788
 2631TIP3   OH2 7833   6.677   6.129   5.915  0.1744 -0.0109 -0.7116
 2631TIP3    H1 7834   6.771   6.137   5.901  0.2349 -1.5664 -1.3850
 2631TIP3    H2 7835   6.656   6.199   5.977  1.9546 -0.2979  0.2787
 2632TIP3   OH2 7836   2.646   7.534   1.210  0.5666 -0.3263  0.1869
 2632TIP3    H1 7837   2.617   7.566   1.125 -0.3666  1.8400  1.2394
 2632TIP3    H2 7838   2.736   7.567   1.218  0.8536 -1.0022 -0.1595
 2633TIP3   OH2 7839   7.767   5.018   2.655  0.5954 -0.1754 -0.4876
 2633TIP3    H1 7840   7.825   4.987   2.584 -0.4900 -0.3633 -1.3186
 2633TIP3    H2 7841   7.729   4.938   2.691  0.6621 -0.0335 -0.0947
 2634TIP3   OH2 7842   0.528   1.683   5.108 -0.9008  0.3230 -0.2652
 2634TIP3    H1 7843   0.460   1.715   5.049  0.5387 -0.5087 -2.5060
 2634TIP3    H2 7844   0.532   1.589   5.093 -0.5689  0.0620  1.2811
 2635TIP3   OH2 7845   7.502   1.201   2.886  0.0918 -0.4068  0.0220
 2635TIP3    H1 7846   7.442   1.211   2.960  1.7344  2.1622  1.1575
 2635TIP3    H2 7847   7.486   1.278   2.832  0.5019 -1.0949 -1.1006
 2636TIP3   OH2 7848   3.860   1.354   4.915  0.1941  0.6012  0.2472
 2636TIP3    H1 7849   3.930   1.333   4.854 -1.1986 -0.3121 -1.1171
 2636TIP3    H2 7850   3.804   1.416   4.868 -1.6610 -1.1743 -0.0287
 2637TIP3   OH2 7851   7.480   7.302   5.936  0.0692 -0.6637  0.1411
 2637TIP3    H1 7852   7.475   7.382   5.884 -0.7472  0.0394  1.2794
 2637TIP3    H2 7853   7.573   7.279   5.934  0.1791 -0.1931 -0.9262
 2638TIP3   OH2 7854   1.492   7.696   4.578 -0.6914  0.0070 -0.1034
 2638TIP3    H1 7855   1.531   7.783   4.590  0.3448 -0.6506  1.5874
 2638TIP3    H2 7856   1.555   7.649   4.523  0.0000 -0.4450  1.0473
 2639TIP3   OH2 7857   3.340   4.721   1.993  0.0372  0.6633  0.2469
 2639TIP3    H1 7858   3.400   4.795   2.000  0.4531  0.2474  1.2774
 2639TIP3    H2 7859   3.260   4.751   2.036 -0.4529  1.1486 -0.9561
 2640TIP3   OH2 7860   5.324   0.884   2.578  0.6563 -0.1610 -0.5084
 2640TIP3    H1 7861   5.391   0.935   2.625  0.3415  1.0069 -1.2552
 2640TIP3    H2 7862   5.244   0.897   2.628  0.5338  0.2760 -0.8031
 2641TIP3   OH2 7863   7.523   2.352   6.191  0.2184  0.4126  0.0851
 2641TIP3    H1 7864   7.442   2.388   6.156  0.2169 -0.6157 -1.0481
 2641TIP3    H2 7865   7.592   2.396   6.142  0.3605  1.1853  0.9509
 2642TIP3   OH2 7866   2.326   6.448   6.877  0.0612  0.2712  0.0116
 2642TIP3    H1 7867   2.237   6.427   6.849 -0.2439 -0.4508  1.4280
 2642TIP3    H2 7868   2.375   6.454   6.795 -1.6063  2.4351 -0.9187
 2643TIP3   OH2 7869   7.576   4.633   1.959 -0.1067  0.2930 -0.1048
 2643TIP3    H1 7870   7.482   4.630   1.978  0.1166  0.2487  1.0447
 2643TIP3    H2 7871   7.581   4.663   1.868 -1.2606 -0.5671 -0.4783
 2644TIP3   OH2 7872   3.649   3.876   1.771 -0.2700 -0.3231 -0.4704
 2644TIP3    H1 7873   3.659   3.832   1.855 -0.1529  0.4419 -0.0730
 2644TIP3    H2 7874   3.668   3.968   1.790  3.4571 -0.6032 -1.9831
 2645TIP3   OH2 7875   6.098   0.888   3.718 -0.4781  0.1034  0.4542
 2645TIP3    H1 7876   6.184   0.910   3.754 -0.3972 -0.4766  0.6347
 2645TIP3    H2 7877   6.048   0.857   3.793  0.1821 -2.5936 -0.1157
 2646TIP3   OH2 7878   6.557   7.339   3.753 -0.5915 -0.2495 -0.1185
 2646TIP3    H1 7879   6.525   7.261   3.708  0.5011 -0.0411 -1.3043
 2646TIP3    H2 7880   6.570   7.404   3.683  0.6421  0.2595  0.5516
 2647TIP3   OH2 7881   4.566   4.701   2.403 -0.1120 -0.3230 -0.0283
 2647TIP3    H1 7882   4.544   4.792   2.381 -2.4331 -0.6001  0.8510
 2647TIP3    H2 7883   4.606   4.706   2.490 -1.1022 -0.2017  0.4302
 2648TIP3   OH2 7884   5.437   4.298   2.521 -0.4550  0.0484  0.3570
 2648TIP3    H1 7885   5.351   4.271   2.489  0.0497 -1.4854  0.2447
 2648TIP3    H2 7886   5.493   4.301   2.443 -0.0420 -0.4094  0.6311
 2649TIP3   OH2 7887   8.075   1.921   4.151  0.2249  0.1672 -0.0783
 2649TIP3    H1 7888   8.006   1.986   4.134 -0.2840 -0.2989  0.1923
 2649TIP3    H2 7889   8.064   1.897   4.243  1.1152  0.5029  0.1356
 2650TIP3   OH2 7890   7.712   3.820   5.580  0.0802  0.0369  0.3746
 2650TIP3    H1 7891   7.645   3.752   5.570  1.0350 -1.1642  1.7710
 2650TIP3    H2 7892   7.782   3.792   5.520  1.7192 -1.9265  2.9672
 2651TIP3   OH2 7893   1.697   0.824   2.272  0.0393 -0.2595  0.0724
 2651TIP3    H1 7894   1.658   0.851   2.355  0.4617  1.2985 -0.1934
 2651TIP3    H2 7895   1.788   0.801   2.294  0.2530  0.4886  0.0109
 2652TIP3   OH2 7896   8.095   0.686   0.805 -0.3168 -0.5324  0.6278
 2652TIP3    H1 7897   8.177   0.642   0.827 -0.5724 -1.1567  0.3496
 2652TIP3    H2 7898   8.038   0.616   0.772 -0.5947  0.0705 -0.2016
 2653TIP3   OH2 7899   1.418   0.634   5.842  0.2286 -0.2232  0.2150
 2653TIP3    H1 7900   1.450   0.652   5.753 -0.1456 -2.3932 -0.4163
 2653TIP3    H2 7901   1.323   0.624   5.831  0.3582 -2.2021  0.4876
 2654TIP3   OH2 7902   2.328   0.042   0.322 -0.1957 -0.4959  0.1356
 2654TIP3    H1 7903   2.389   0.116   0.326 -1.7237  0.8889 -0.8532
 2654TIP3    H2 7904   2.373  -0.023   0.269  0.0096  0.9735 -1.6062
 2655TIP3   OH2 7905   0.604   2.331   5.476  0.4363  0.2957 -0.1977
 2655TIP3    H1 7906   0.626   2.243   5.508  0.1438 -0.0583 -0.9595
 2655TIP3    H2 7907   0.545   2.316   5.402  0.5757  1.1289 -0.4854
 2656TIP3   OH2 7908   4.993   0.537   5.821 -0.6323 -0.5495 -0.2459
 2656TIP3    H1 7909   4.904   0.571   5.814 -0.5461 -0.3807 -0.5507
 2656TIP3    H2 7910   4.983   0.451   5.863 -1.0341 -0.9508 -1.1335
 2657TIP3   OH2 7911   0.840   3.760   3.754 -0.4621 -0.1099 -0.0572
 2657TIP3    H1 7912   0.907   3.800   3.810 -0.8520 -0.3083  0.5556
 2657TIP3    H2 7913   0.889   3.697   3.700 -0.4444 -1.8960  1.9375
 2658TIP3   OH2 7914   7.201   2.654   2.582 -0.6441  0.0146  0.0200
 2658TIP3    H1 7915   7.139   2.683   2.516 -0.8220  1.9176  0.9678
 2658TIP3    H2 7916   7.283   2.640   2.534 -0.9106  0.8471 -0.7019
 2659TIP3   OH2 7917   2.660   7.188   1.362  0.1667 -0.0003  0.2985
 2659TIP3    H1 7918   2.693   7.109   1.320  0.6901 -0.9039  2.2966
 2659TIP3    H2 7919   2.738   7.230   1.399 -0.1499  1.2898 -0.4263
 2660TIP3   OH2 7920   4.626   2.133   5.058  0.0805  0.1396  0.7627
 2660TIP3    H1 7921   4.720   2.151   5.046 -0.1159  0.4625 -0.4609
 2660TIP3    H2 7922   4.603   2.078   4.982 -0.4543 -1.0171  1.7281
 2661TIP3   OH2 7923   0.099   5.859   3.331  0.0646 -0.1733 -0.0058
 2661TIP3    H1 7924   0.185   5.897   3.346 -0.0694  0.0628  0.1627
 2661TIP3    H2 7925   0.116   5.785   3.272  0.6489 -1.3458  1.5543
 2662TIP3   OH2 7926   4.741   1.344   6.438  0.4077  0.2081  0.1874
 2662TIP3    H1 7927   4.647   1.348   6.417  0.6655 -1.3844 -1.5471
 2662TIP3    H2 7928   4.744   1.311   6.528 -0.6973  0.8499  0.4756
 2663TIP3   OH2 7929   8.127   1.742  -0.012 -0.0966  0.4673 -0.2296
 2663TIP3    H1 7930   8.079   1.762   0.068  0.0003  1.9735 -0.5293
 2663TIP3    H2 7931   8.139   1.647  -0.010 -0.8097  0.3950  1.1271
 2664TIP3   OH2 7932   0.641   6.911   0.949  0.2361 -0.1545  0.9117
 2664TIP3    H1 7933   0.624   6.900   1.043 -0.5293  2.8359  1.2307
 2664TIP3    H2 7934   0.729   6.949   0.945 -0.3941  1.3362  0.5881
 2665TIP3   OH2 7935   2.870   4.229   1.868  0.3711 -0.1017 -0.0625
 2665TIP3    H1 7936   2.887   4.265   1.955 -1.5009  0.6325  0.0438
 2665TIP3    H2 7937   2.794   4.278   1.835 -0.9289 -2.4365 -0.8263
 2666TIP3   OH2 7938   3.015   3.793   2.521 -0.9704 -0.5107  0.6358
 2666TIP3    H1 7939   3.059   3.854   2.462 -1.0430 -0.7451  0.3421
 2666TIP3    H2 7940   3.018   3.709   2.477 -3.0096 -0.2619 -0.0912
 2667TIP3   OH2 7941   6.505   3.042   5.485  0.2261  0.0774 -0.3000
 2667TIP3    H1 7942   6.441   3.005   5.547 -0.6138 -1.0417 -1.7650
 2667TIP3    H2 7943   6.590   3.014   5.519 -0.2343 -0.7606  0.1945
 2668TIP3   OH2 7944   1.986   5.003   2.653 -0.0229 -0.1513  0.3491
 2668TIP3    H1 7945   2.027   4.960   2.728  1.8465 -1.6745 -1.4313
 2668TIP3    H2 7946   2.021   5.092   2.654 -1.7145  0.5772  2.4420
 2669TIP3   OH2 7947   6.491   3.402   4.387 -0.1971 -0.6483 -0.1742
 2669TIP3    H1 7948   6.563   3.462   4.408  0.6219 -1.2553 -1.1927
 2669TIP3    H2 7949   6.488   3.342   4.462 -1.5000  1.0270  1.2177
 2670TIP3   OH2 7950   5.051   4.764   0.611 -0.0605  0.0649 -0.7612
 2670TIP3    H1 7951   5.090   4.800   0.531  0.9660  1.3339  0.2660
 2670TIP3    H2 7952   4.987   4.829   0.638 -0.0021 -0.0839 -0.2524
 2671TIP3   OH2 7953   5.151   3.500   6.561  0.2581  0.1791  0.0744
 2671TIP3    H1 7954   5.099   3.563   6.611  2.0891  2.4757 -0.7337
 2671TIP3    H2 7955   5.188   3.551   6.489  1.9338 -1.8111 -0.5771
 2672TIP3   OH2 7956   1.848   0.118   0.697 -0.1789 -0.2649  0.0044
 2672TIP3    H1 7957   1.755   0.121   0.679  0.0740  0.6579 -1.2729
 2672TIP3    H2 7958   1.864   0.193   0.755 -0.2188 -0.4246  0.2255
 2673TIP3   OH2 7959   3.287   5.294   6.601  0.0912 -0.3911 -0.4218
 2673TIP3    H1 7960   3.212   5.334   6.557 -0.3175  0.2167  0.7737
 2673TIP3    H2 7961   3.363   5.335   6.561 -0.2780  0.3609 -0.3691
 2674TIP3   OH2 7962   5.921   1.003   5.158 -0.4050  0.0101  0.0573
 2674TIP3    H1 7963   5.967   0.997   5.241  1.2914  0.7938 -0.7839
 2674TIP3    H2 7964   5.892   1.094   5.153 -0.3764  0.0043 -0.2644
 2675TIP3   OH2 7965   5.659   2.645   3.703  0.1895  0.7120  0.5698
 2675TIP3    H1 7966   5.696   2.668   3.618 -0.1277 -0.6869  0.0209
 2675TIP3    H2 7967   5.614   2.724   3.732  1.6159  1.7169  0.1801
 2676TIP3   OH2 7968   6.628   5.210   5.029  0.0597 -0.2986 -0.5437
 2676TIP3    H1 7969   6.601   5.268   4.959  1.0548  1.3515  0.3775
 2676TIP3    H2 7970   6.698   5.257   5.074  0.1514 -1.7362  0.9319
 2677TIP3   OH2 7971   4.553   3.533   4.647 -0.4611 -0.2089 -0.3221
 2677TIP3    H1 7972   4.628   3.549   4.705  0.2017 -0.8844 -0.9743
 2677TIP3    H2 7973   4.476   3.556   4.700  0.1209 -0.8828  0.8431
 2678TIP3   OH2 7974   1.015   5.057   6.015 -0.1606  0.0246  0.2638
 2678TIP3    H1 7975   0.978   4.989   6.072 -0.3793 -0.9051 -0.9360
 2678TIP3    H2 7976   1.108   5.034   6.009  0.6423  2.1217  2.9485
 2679TIP3   OH2 7977   7.434   4.871   2.628 -0.1586 -0.8061  0.0224
 2679TIP3    H1 7978   7.459   4.779   2.615  1.1812 -1.0128  3.2247
 2679TIP3    H2 7979   7.422   4.880   2.722 -1.4339  2.0844 -0.3000
 2680TIP3   OH2 7980   6.544   0.486   3.513  0.0629 -0.1399  0.0211
 2680TIP3    H1 7981   6.637   0.465   3.509 -0.0027 -0.3142 -2.8857
 2680TIP3    H2 7982   6.540   0.574   3.552  1.2435 -0.7735  1.6942
 2681TIP3   OH2 7983   1.375   7.121   3.068 -0.1929  0.5486  0.3746
 2681TIP3    H1 7984   1.383   7.045   3.010  0.2663 -0.4340  1.6680
 2681TIP3    H2 7985   1.308   7.175   3.026  0.3975  0.0889 -1.2653
 2682TIP3   OH2 7986   2.154   1.716   0.307  0.0988 -0.3615 -0.3151
 2682TIP3    H1 7987   2.212   1.718   0.231  0.2375 -2.1992 -0.3013
 2682TIP3    H2 7988   2.067   1.703   0.270 -0.1203  0.9109 -0.2592
 2683TIP3   OH2 7989   3.566   0.055   5.020 -0.6597 -0.4669 -0.0193
 2683TIP3    H1 7990   3.585   0.136   5.067  1.2000 -0.3074 -0.9931
 2683TIP3    H2 7991   3.633  -0.007   5.050 -1.6021 -1.4367  0.1535
 2684TIP3   OH2 7992   2.738   7.784   0.170  0.0415 -0.2938 -0.1317
 2684TIP3    H1 7993   2.705   7.737   0.246  0.4152  1.9562  1.5388
 2684TIP3    H2 7994   2.660   7.801   0.117 -0.1759 -2.1617 -0.4664
 2685TIP3   OH2 7995   6.166   0.876   1.419 -0.1473  0.4393 -0.9183
 2685TIP3    H1 7996   6.214   0.931   1.481 -0.4487 -0.2646 -0.0304
 2685TIP3    H2 7997   6.140   0.799   1.471 -1.5407  0.4370 -1.5772
 2686TIP3   OH2 7998   7.035   6.003   3.748 -0.1905  0.5451 -0.2448
 2686TIP3    H1 7999   7.021   5.909   3.760  1.5829  0.0795 -1.3799
 2686TIP3    H2 8000   7.035   6.039   3.837 -1.0840 -0.4820  0.1876
 2687TIP3   OH2 8001   4.159   2.484   1.183 -0.5225 -0.2002 -0.5185
 2687TIP3    H1 8002   4.084   2.504   1.128 -0.6092 -0.1573 -0.3842
 2687TIP3    H2 8003   4.188   2.397   1.154 -0.6531 -0.2379 -0.5354
 2688TIP3   OH2 8004   5.122   0.531   4.351  0.4660  0.3396 -0.3554
 2688TIP3    H1 8005   5.161   0.500   4.433  1.3813  1.4416 -0.3521
 2688TIP3    H2 8006   5.030   0.548   4.373  1.0298  2.0035  0.8489
 2689TIP3   OH2 8007   3.706   2.196   6.488 -0.2026  0.2815  0.4147
 2689TIP3    H1 8008   3.696   2.194   6.583  0.9740  1.1921  0.5688
 2689TIP3    H2 8009   3.698   2.288   6.465  1.5902  0.3418 -0.1093
 2690TIP3   OH2 8010   0.489   0.158   5.912 -0.3560 -0.2780 -0.7490
 2690TIP3    H1 8011   0.508   0.093   5.844 -0.3934 -0.8645 -0.1979
 2690TIP3    H2 8012   0.575   0.193   5.935  0.0139 -2.1487  0.9554
 2691TIP3   OH2 8013   2.251   6.953   6.276  0.6612 -0.4364  0.7282
 2691TIP3    H1 8014   2.278   6.892   6.207 -1.9755 -1.7077  0.7113
 2691TIP3    H2 8015   2.218   6.897   6.346 -0.6899  0.9240  1.2352
 2692TIP3   OH2 8016   6.168   6.302   6.119 -0.6173 -0.1189 -0.0693
 2692TIP3    H1 8017   6.197   6.281   6.030 -0.1649 -1.1912  0.3264
 2692TIP3    H2 8018   6.229   6.370   6.148 -0.8342  0.3196 -0.6016
 2693TIP3   OH2 8019   4.077   0.722   1.636  0.1824  0.3311 -0.3001
 2693TIP3    H1 8020   4.090   0.674   1.718  0.3337 -1.0163 -1.0659
 2693TIP3    H2 8021   4.121   0.806   1.650 -1.0775  0.7319  1.4957
 2694TIP3   OH2 8022   3.139   1.759   3.366 -0.3522  0.2493  0.5223
 2694TIP3    H1 8023   3.231   1.736   3.357 -0.2021  0.6945  0.8722
 2694TIP3    H2 8024   3.138   1.827   3.433 -0.7824  1.2172 -0.4357
 2695TIP3   OH2 8025   6.620   3.578   0.379 -0.6461  0.8259 -0.2838
 2695TIP3    H1 8026   6.706   3.602   0.343 -1.3374 -0.5076 -3.0668
 2695TIP3    H2 8027   6.563   3.650   0.353 -0.8172  0.6513 -0.3908
 2696TIP3   OH2 8028   7.847   5.237   5.844 -0.2731  1.0581 -0.0600
 2696TIP3    H1 8029   7.886   5.154   5.817  1.6640  0.7826  3.0941
 2696TIP3    H2 8030   7.765   5.212   5.887 -0.3012  0.9013 -0.2042
 2697TIP3   OH2 8031   1.495   0.704   6.089  0.1807  0.6157  0.1163
 2697TIP3    H1 8032   1.458   0.665   6.009  1.6772 -0.4600 -0.0798
 2697TIP3    H2 8033   1.576   0.746   6.060 -0.0121  1.5302  0.8321
 2698TIP3   OH2 8034   8.021   6.097   6.757 -0.4063  0.4795 -0.3032
 2698TIP3    H1 8035   7.947   6.076   6.814  0.4276  1.0644  1.0257
 2698TIP3    H2 8036   7.981   6.137   6.680 -1.3703  4.3422  1.9578
 2699TIP3   OH2 8037   4.846   6.062   4.113 -0.6858  0.3562 -0.3132
 2699TIP3    H1 8038   4.789   6.012   4.171 -0.4191  0.3292 -0.0691
 2699TIP3    H2 8039   4.790   6.090   4.041 -0.9116 -0.0131 -0.2805
 2700TIP3   OH2 8040   6.633   3.185   5.737 -0.2879  0.4305  0.1185
 2700TIP3    H1 8041   6.675   3.189   5.822  2.7223  1.1010 -1.2600
 2700TIP3    H2 8042   6.649   3.096   5.706 -1.3840  0.1806  0.2208
 2701TIP3   OH2 8043   3.532   0.802   1.294 -0.4894 -0.2466  0.1632
 2701TIP3    H1 8044   3.527   0.877   1.235 -0.8954  0.1343  0.6755
 2701TIP3    H2 8045   3.545   0.840   1.381 -0.3520 -0.7802  0.3815
 2702TIP3   OH2 8046   5.185   1.079   3.296  0.4318  0.9123  0.0506
 2702TIP3    H1 8047   5.200   1.169   3.267  2.1890  0.8369  0.5748
 2702TIP3    H2 8048   5.163   1.087   3.388  1.4153  0.7761  0.3076
 2703TIP3   OH2 8049   4.343   1.298   4.630  0.6282 -0.2338  0.0017
 2703TIP3    H1 8050   4.397   1.265   4.559  1.9920  0.8451  0.5001
 2703TIP3    H2 8051   4.368   1.390   4.639  0.0524 -0.1887  1.4622
 2704TIP3   OH2 8052   3.446   1.817   6.030 -0.5562  0.2073  0.5289
 2704TIP3    H1 8053   3.433   1.900   5.985  0.2097  0.2471  0.3580
 2704TIP3    H2 8054   3.387   1.820   6.105 -1.7396  0.2050 -0.3786
 2705TIP3   OH2 8055   0.589   5.041   3.369 -0.2871 -0.0266 -0.5592
 2705TIP3    H1 8056   0.544   5.094   3.303 -0.1775 -0.5723 -1.0823
 2705TIP3    H2 8057   0.523   5.026   3.437 -1.0447 -1.1180 -1.4866
 2706TIP3   OH2 8058   1.748   3.797   3.071 -0.6551 -0.4950 -0.0632
 2706TIP3    H1 8059   1.763   3.798   2.976 -1.2331  0.5614 -0.1464
 2706TIP3    H2 8060   1.802   3.724   3.102  0.8442  0.1639 -0.9869
 2707TIP3   OH2 8061   1.693   1.901   6.436  0.3007 -0.0078  0.5124
 2707TIP3    H1 8062   1.741   1.834   6.388 -0.3992 -1.4763  1.7591
 2707TIP3    H2 8063   1.603   1.893   6.406 -0.2507 -1.3027  2.3595
 2708TIP3   OH2 8064   4.719   7.025   6.281 -0.3628  0.1447 -0.0429
 2708TIP3    H1 8065   4.812   7.025   6.262 -0.0409  0.2447  1.3861
 2708TIP3    H2 8066   4.686   7.106   6.241  0.3199  0.5214  0.1487
 2709TIP3   OH2 8067   6.370   5.709   4.162  0.1121 -0.2112 -0.1171
 2709TIP3    H1 8068   6.280   5.739   4.174  0.3114 -0.1216  1.2329
 2709TIP3    H2 8069   6.371   5.674   4.073 -1.5363 -1.2035  0.2017
 2710TIP3   OH2 8070   2.230   2.387   0.878 -0.5605  0.1101 -0.1240
 2710TIP3    H1 8071   2.317   2.425   0.891 -1.0006  0.5962  1.8098
 2710TIP3    H2 8072   2.247   2.294   0.860  0.3761 -0.5071  3.2424
 2711TIP3   OH2 8073   6.565   1.631   1.469  0.0628  0.0922  0.7959
 2711TIP3    H1 8074   6.500   1.562   1.457  0.3146  0.2779 -2.6512
 2711TIP3    H2 8075   6.647   1.584   1.487  0.0054 -0.4927 -0.3805
 2712TIP3   OH2 8076   0.433   6.001   4.846 -0.5332  0.3859 -0.0997
 2712TIP3    H1 8077   0.513   6.028   4.802 -1.6072  2.0486 -1.1576
 2712TIP3    H2 8078   0.389   6.084   4.868 -1.4542 -0.4632  1.4336
 2713TIP3   OH2 8079   6.569   5.239   1.005 -0.0415  0.1071  0.1232
 2713TIP3    H1 8080   6.531   5.279   1.083 -0.9248  2.5149 -1.4130
 2713TIP3    H2 8081   6.502   5.176   0.976 -0.8343  0.9688  0.0126
 2714TIP3   OH2 8082   6.292   3.431   3.766  0.7094  0.2539  0.4775
 2714TIP3    H1 8083   6.234   3.499   3.730  0.2475 -0.6912 -0.6075
 2714TIP3    H2 8084   6.357   3.416   3.697  0.2153 -1.1090  0.2930
 2715TIP3   OH2 8085   1.243   7.543   6.606 -0.0572 -0.7013 -0.1527
 2715TIP3    H1 8086   1.267   7.456   6.638 -0.7964 -0.1118  2.1354
 2715TIP3    H2 8087   1.156   7.559   6.642  0.9192  1.8246  1.2871
 2716TIP3   OH2 8088   6.896   2.133   1.565  0.4969  0.2254 -0.2160
 2716TIP3    H1 8089   6.866   2.101   1.480 -0.4865  1.6639 -0.4444
 2716TIP3    H2 8090   6.959   2.202   1.544 -1.0588  1.8325  0.1321
 2717TIP3   OH2 8091   0.644   4.110   5.952  0.4076 -0.1404 -0.3622
 2717TIP3    H1 8092   0.632   4.205   5.962  1.1941 -0.0345 -0.3827
 2717TIP3    H2 8093   0.712   4.102   5.885 -0.0952 -0.7383 -0.8148
 2718TIP3   OH2 8094   7.884   5.233   1.126 -0.0222 -0.8641 -0.0452
 2718TIP3    H1 8095   7.889   5.214   1.220  2.4450  1.0884  0.3060
 2718TIP3    H2 8096   7.923   5.157   1.084 -0.3457 -1.3679  0.5437
 2719TIP3   OH2 8097   3.322   6.528   6.572  0.2283  0.2986  0.1803
 2719TIP3    H1 8098   3.382   6.477   6.518 -0.5141  0.1166 -0.4915
 2719TIP3    H2 8099   3.365   6.613   6.583  0.8570 -0.0155  0.1807
 2720TIP3   OH2 8100   2.508   3.601   3.977  0.3281 -0.5823 -0.3470
 2720TIP3    H1 8101   2.515   3.524   3.921 -2.2362  0.6248 -2.5891
 2720TIP3    H2 8102   2.598   3.623   4.001  1.1368 -4.3301  0.6361
 2721TIP3   OH2 8103   2.064   6.623   0.102 -0.4884 -0.0039  0.1768
 2721TIP3    H1 8104   2.085   6.535   0.070 -1.4570  0.1156 -0.8810
 2721TIP3    H2 8105   1.987   6.648   0.051 -1.3136  0.7478  1.7405
 2722TIP3   OH2 8106   5.561   1.839   1.264  0.2571  0.2609 -0.4670
 2722TIP3    H1 8107   5.600   1.901   1.326 -0.9079  1.8265 -1.2396
 2722TIP3    H2 8108   5.473   1.822   1.299  0.0807  0.1013 -0.9768
 2723TIP3   OH2 8109   1.211   4.059   2.682 -0.6657 -0.2982 -0.5074
 2723TIP3    H1 8110   1.306   4.046   2.685 -0.4827  0.7388  2.7042
 2723TIP3    H2 8111   1.175   3.970   2.683  0.3812 -0.7820  1.6507
 2724TIP3   OH2 8112   0.972   0.798  -0.026  0.1916 -0.1653 -0.5589
 2724TIP3    H1 8113   0.939   0.844   0.052 -0.2702  0.4893 -1.1316
 2724TIP3    H2 8114   1.067   0.808  -0.021  0.0448  2.2074 -1.4702
 2725TIP3   OH2 8115   3.626   6.246   4.197 -0.5313 -0.1851  0.3514
 2725TIP3    H1 8116   3.716   6.248   4.229 -0.1785 -0.6522 -0.5711
 2725TIP3    H2 8117   3.603   6.153   4.198 -1.4590  0.0281  1.7738
 2726TIP3   OH2 8118   2.324   4.163   0.444  0.1528 -0.1939  0.5043
 2726TIP3    H1 8119   2.324   4.101   0.371  2.0152 -0.3681  0.5988
 2726TIP3    H2 8120   2.301   4.110   0.520 -1.0350 -0.1675  0.1891
 2727TIP3   OH2 8121   6.261   6.680   4.051  0.1310  0.1988  0.4942
 2727TIP3    H1 8122   6.265   6.610   4.117 -0.5594  0.4714  0.8364
 2727TIP3    H2 8123   6.261   6.635   3.967 -1.2217 -0.2664  0.7253
 2728TIP3   OH2 8124   5.126   0.585   5.444  0.7903  0.3701  0.7445
 2728TIP3    H1 8125   5.205   0.635   5.425  3.0745 -3.5696 -1.5157
 2728TIP3    H2 8126   5.062   0.616   5.380  1.9457  0.7469 -0.2699
 2729TIP3   OH2 8127   7.205   0.801   1.160  0.1916  0.4113  0.3553
 2729TIP3    H1 8128   7.264   0.858   1.208  0.5311  0.1757  0.2209
 2729TIP3    H2 8129   7.194   0.724   1.216 -0.4071  0.6768  0.6176
 2730TIP3   OH2 8130   2.908   1.635   3.213 -0.7638  1.1866  0.9288
 2730TIP3    H1 8131   2.988   1.655   3.260 -0.7846  0.5236  1.2567
 2730TIP3    H2 8132   2.850   1.596   3.279  0.3547 -2.8897 -0.1967
 2731TIP3   OH2 8133   1.052   6.539   5.376 -0.1695 -0.0681 -0.5279
 2731TIP3    H1 8134   1.077   6.452   5.408  1.1982  0.9232  1.2285
 2731TIP3    H2 8135   0.991   6.521   5.304 -1.6742 -2.4619  1.1894
 2732TIP3   OH2 8136   5.043   7.206   1.163 -0.8334 -0.0149  0.2131
 2732TIP3    H1 8137   5.059   7.216   1.257 -0.7294  0.3347  0.1597
 2732TIP3    H2 8138   5.006   7.290   1.135 -1.2851 -0.2725  0.0246
 2733TIP3   OH2 8139   7.209   2.604   1.598  0.0991  0.4011 -0.7652
 2733TIP3    H1 8140   7.223   2.692   1.564 -1.3023  0.3112 -1.6641
 2733TIP3    H2 8141   7.253   2.547   1.534  1.1388  0.4319 -0.1018
 2734TIP3   OH2 8142   5.061   7.648   2.188 -0.1981  0.2137 -0.0471
 2734TIP3    H1 8143   5.017   7.652   2.273 -2.8795 -1.4028 -1.2253
 2734TIP3    H2 8144   5.070   7.555   2.170 -0.3554  0.5028 -1.8142
 2735TIP3   OH2 8145   4.633   0.483   0.074 -0.0442 -0.2419  0.3056
 2735TIP3    H1 8146   4.680   0.500   0.156 -0.1346 -0.0366  0.3144
 2735TIP3    H2 8147   4.579   0.407   0.094 -1.6291  1.0221  1.0910
 2736TIP3   OH2 8148   0.556   3.852   5.895  0.5163 -0.1697 -0.4662
 2736TIP3    H1 8149   0.565   3.940   5.931 -0.5247 -0.3990  0.4189
 2736TIP3    H2 8150   0.465   3.847   5.867 -0.0626 -1.6084  1.3943
 2737TIP3   OH2 8151   6.431   7.538   2.236 -0.4374  0.3364  0.5828
 2737TIP3    H1 8152   6.339   7.524   2.259 -0.7531  1.8884  0.3879
 2737TIP3    H2 8153   6.473   7.454   2.251 -1.8008 -0.2718  1.1251
 2738TIP3   OH2 8154   7.368   5.778   4.354 -0.5168  0.1667 -0.7720
 2738TIP3    H1 8155   7.363   5.717   4.281 -0.3266 -1.1495  0.2745
 2738TIP3    H2 8156   7.277   5.787   4.384 -0.6855  1.1952 -1.5208
 2739TIP3   OH2 8157   5.800   7.192   0.682  0.5325 -0.1985  0.7295
 2739TIP3    H1 8158   5.711   7.228   0.676  1.4390  2.2369  0.8524
 2739TIP3    H2 8159   5.818   7.161   0.593  0.0168  0.4470  0.3894
 2740TIP3   OH2 8160   7.411   4.691   0.364  0.0907  0.4683  0.3104
 2740TIP3    H1 8161   7.502   4.718   0.355  0.5794 -1.1635  0.0051
 2740TIP3    H2 8162   7.375   4.700   0.275  1.1616 -2.7832 -0.5946
 2741TIP3   OH2 8163   7.946   6.924   2.817  0.0339 -0.0136  0.1520
 2741TIP3    H1 8164   8.031   6.948   2.779  0.5515  0.3182  1.4623
 2741TIP3    H2 8165   7.966   6.851   2.875 -0.1387  1.4536  2.1736
 2742TIP3   OH2 8166   2.356   7.365   0.417 -0.3338 -0.2863  0.8834
 2742TIP3    H1 8167   2.400   7.368   0.502  1.3573 -0.3199  0.0704
 2742TIP3    H2 8168   2.338   7.272   0.403 -1.2262 -0.2088  1.4899
 2743TIP3   OH2 8169   6.184   4.023   6.672  0.1501 -0.2760 -0.0644
 2743TIP3    H1 8170   6.180   3.950   6.733  1.1551 -1.1219 -0.9464
 2743TIP3    H2 8171   6.256   4.078   6.705 -0.1607 -0.0355  0.2215
 2744TIP3   OH2 8172   5.109   5.503   0.371 -0.2975 -0.6233  0.0739
 2744TIP3    H1 8173   5.068   5.561   0.307 -0.6141  1.0804  1.7389
 2744TIP3    H2 8174   5.203   5.510   0.354 -0.0847  2.4463  1.7694
 2745TIP3   OH2 8175   4.062   1.188   2.014 -0.4924 -0.1229  0.6396
 2745TIP3    H1 8176   4.004   1.181   1.938 -0.7424  0.9493  0.7231
 2745TIP3    H2 8177   4.118   1.262   1.995  0.5692 -0.8728  0.7700
 2746TIP3   OH2 8178   2.898   2.040   6.593  0.3995  0.5872  0.2504
 2746TIP3    H1 8179   2.877   2.047   6.500  0.8919  0.7497  0.1509
 2746TIP3    H2 8180   2.841   2.105   6.635 -0.5024 -0.1275  0.1770
 2747TIP3   OH2 8181   2.572   6.805   5.402  0.8703 -0.1923 -0.3906
 2747TIP3    H1 8182   2.520   6.866   5.453 -0.4610  0.5230 -2.5099
 2747TIP3    H2 8183   2.535   6.719   5.423  0.4766  0.0630 -0.0166
 2748TIP3   OH2 8184   7.781   5.300   3.828 -0.3323 -0.1209  0.1916
 2748TIP3    H1 8185   7.864   5.320   3.784 -1.6217  1.7775 -1.5620
 2748TIP3    H2 8186   7.794   5.213   3.866  1.4488 -1.2043 -2.6118
 2749TIP3   OH2 8187   5.054   1.759   6.344 -0.0046  0.3257 -0.0333
 2749TIP3    H1 8188   5.062   1.789   6.253 -2.0243  0.0172 -0.3553
 2749TIP3    H2 8189   4.975   1.705   6.344 -0.5898  1.1083  2.1032
 2750TIP3   OH2 8190   8.327   2.379   0.106  0.0671  0.0749 -0.0926
 2750TIP3    H1 8191   8.423   2.385   0.101  0.0034  0.3683 -1.6294
 2750TIP3    H2 8192   8.297   2.470   0.099 -0.3493 -0.1418 -1.3557
 2751TIP3   OH2 8193   3.505   4.135   0.363  0.3901 -0.6493  0.2390
 2751TIP3    H1 8194   3.514   4.183   0.280 -0.5792  1.1565  1.1141
 2751TIP3    H2 8195   3.594   4.110   0.386  0.9368  0.6559 -0.3289
 2752TIP3   OH2 8196   4.898   7.508   3.781  0.1035 -0.2306 -0.1911
 2752TIP3    H1 8197   4.882   7.521   3.688 -1.0513 -1.5896 -0.2261
 2752TIP3    H2 8198   4.810   7.499   3.819  0.5799 -0.3955  0.8994
 2753TIP3   OH2 8199   6.574   4.500   5.817 -0.1033 -0.4043  0.5021
 2753TIP3    H1 8200   6.585   4.513   5.722  2.3811  1.9621  0.9891
 2753TIP3    H2 8201   6.615   4.416   5.834 -0.2833 -0.7087 -0.4670
 2754TIP3   OH2 8202   8.223   0.245   0.764  0.3152  0.3139 -0.0134
 2754TIP3    H1 8203   8.292   0.180   0.754 -0.5551 -0.6711  0.1602
 2754TIP3    H2 8204   8.142   0.197   0.743 -0.2404  1.6608 -1.1126
 2755TIP3   OH2 8205   2.958   5.075   5.927  0.0739 -0.3945 -0.4215
 2755TIP3    H1 8206   2.989   5.159   5.961 -0.9258 -0.3457  0.4141
 2755TIP3    H2 8207   2.978   5.012   5.996  0.5390 -0.8007 -0.9183
 2756TIP3   OH2 8208   4.883   4.120   1.909  0.4585 -0.3764 -0.2009
 2756TIP3    H1 8209   4.881   4.059   1.835  0.8244  1.7226 -2.0422
 2756TIP3    H2 8210   4.973   4.151   1.912  0.1784  0.4171  0.3767
 2757TIP3   OH2 8211   4.002   0.074   0.794  0.3694 -0.1815  0.0926
 2757TIP3    H1 8212   4.008  -0.013   0.755  0.2945  0.7770 -2.2855
 2757TIP3    H2 8213   3.911   0.100   0.778  0.9956  1.2309 -1.5285
 2758TIP3   OH2 8214   1.536   0.613   3.938 -0.4423  0.3430  0.9395
 2758TIP3    H1 8215   1.506   0.685   3.882  1.7959  1.7919  1.4695
 2758TIP3    H2 8216   1.463   0.551   3.938 -2.1947  2.2629 -0.1196
 2759TIP3   OH2 8217   4.443   2.034   2.479 -0.0957  0.1855  0.0774
 2759TIP3    H1 8218   4.430   1.992   2.564  1.6703 -0.8091 -0.0982
 2759TIP3    H2 8219   4.391   1.981   2.418  1.2859 -1.1976  0.0309
 2760TIP3   OH2 8220   0.977   1.924   1.750 -0.1147 -0.2985  0.3000
 2760TIP3    H1 8221   1.066   1.919   1.716  0.2990 -0.9283  1.4089
 2760TIP3    H2 8222   0.924   1.880   1.684  0.3848  0.0861 -0.3743
 2761TIP3   OH2 8223   8.322   6.565   0.727  0.5916  0.2931  0.0638
 2761TIP3    H1 8224   8.332   6.658   0.708  0.4442  0.3185  0.1154
 2761TIP3    H2 8225   8.403   6.526   0.695  0.5924  0.4190 -0.0919
 2762TIP3   OH2 8226   5.539   3.048   3.312 -0.2765  0.3406 -0.1978
 2762TIP3    H1 8227   5.552   3.101   3.234  0.7504  0.4740  0.0588
 2762TIP3    H2 8228   5.602   2.977   3.304 -1.4567 -0.7269 -0.4133
 2763TIP3   OH2 8229   2.905   7.849   3.286  0.6827 -0.2483 -0.1072
 2763TIP3    H1 8230   2.925   7.933   3.244  0.4058  0.5035  1.2210
 2763TIP3    H2 8231   2.944   7.856   3.373  0.0932 -1.2489  0.2537
 2764TIP3   OH2 8232   7.169   4.173   6.758  0.2362  0.1009 -0.3005
 2764TIP3    H1 8233   7.111   4.097   6.754 -1.7831  1.5577  0.1334
 2764TIP3    H2 8234   7.166   4.211   6.670 -0.5154  0.9114  0.0643
 2765TIP3   OH2 8235   2.214   1.091   6.306 -0.1310  0.1540  0.1668
 2765TIP3    H1 8236   2.247   1.004   6.330 -1.1545 -0.7760 -1.5236
 2765TIP3    H2 8237   2.289   1.134   6.265  0.8248  0.7143  2.3634
 2766TIP3   OH2 8238   5.380   0.891   3.987 -0.0153  0.0186 -0.2048
 2766TIP3    H1 8239   5.315   0.821   3.996 -1.8472  1.7129  0.1554
 2766TIP3    H2 8240   5.365   0.926   3.899  1.1966 -0.2626 -0.5546
 2767TIP3   OH2 8241   4.612   5.738   0.848 -0.1545 -0.2782  0.8433
 2767TIP3    H1 8242   4.571   5.705   0.928  1.0023 -1.6285  0.9324
 2767TIP3    H2 8243   4.540   5.773   0.796 -1.2385 -1.4504  1.5056
 2768TIP3   OH2 8244   5.390   3.760   1.150  0.0893  0.1429  0.0077
 2768TIP3    H1 8245   5.459   3.825   1.167 -0.1296  0.4904 -0.4402
 2768TIP3    H2 8246   5.425   3.706   1.079 -0.1752  0.4325 -0.3443
 2769TIP3   OH2 8247   3.894   4.144   5.340 -0.1483 -0.0161 -0.1242
 2769TIP3    H1 8248   3.960   4.202   5.377  0.3951 -0.8825  0.2847
 2769TIP3    H2 8249   3.943   4.081   5.287 -0.8578  0.8340 -1.8628
 2770TIP3   OH2 8250   4.982   2.076   1.666  0.2876 -0.2047  0.4373
 2770TIP3    H1 8251   5.069   2.038   1.677  0.4852  0.0886 -0.0826
 2770TIP3    H2 8252   4.981   2.150   1.728  0.7069  0.2844 -0.1298
 2771TIP3   OH2 8253   6.877   0.248   6.023 -0.7676 -0.5185 -0.2229
 2771TIP3    H1 8254   6.851   0.256   6.114 -0.1338  1.5437 -0.1700
 2771TIP3    H2 8255   6.856   0.333   5.985 -0.7090 -1.2245 -1.9357
 2772TIP3   OH2 8256   2.948   1.197   6.516  0.1096  0.1171  0.2335
 2772TIP3    H1 8257   2.854   1.206   6.498 -0.1652  0.2141  1.6386
 2772TIP3    H2 8258   2.990   1.227   6.435 -1.0476  1.4596  0.0755
 2773TIP3   OH2 8259   0.242   5.241   5.566 -0.5745  0.2169 -0.2477
 2773TIP3    H1 8260   0.178   5.193   5.513  0.4288 -0.5832 -0.7667
 2773TIP3    H2 8261   0.219   5.218   5.656 -1.9486  1.1509 -0.3273
 2774TIP3   OH2 8262   7.470   5.657   1.116  0.0021  0.6836  0.0089
 2774TIP3    H1 8263   7.524   5.725   1.075  1.5311  0.3576  1.3933
 2774TIP3    H2 8264   7.515   5.637   1.198 -0.4563 -1.9047 -0.2797
 2775TIP3   OH2 8265   6.863   0.754   4.001 -0.4263  0.2694 -0.0459
 2775TIP3    H1 8266   6.958   0.765   4.005 -0.5520  1.0714  1.1295
 2775TIP3    H2 8267   6.827   0.841   4.016 -1.3603 -0.1015 -0.0346
 2776TIP3   OH2 8268   7.153   3.198   5.995 -0.3922 -0.0111 -0.4145
 2776TIP3    H1 8269   7.127   3.127   6.054  1.3509 -1.7649 -1.6641
 2776TIP3    H2 8270   7.234   3.169   5.955  0.6275  2.8806 -0.7267
 2777TIP3   OH2 8271   8.298   1.900   0.312  0.3969 -0.5236 -0.3254
 2777TIP3    H1 8272   8.249   1.823   0.342  0.1279 -0.0497  0.4862
 2777TIP3    H2 8273   8.371   1.864   0.262  1.5014 -1.4290  1.7934
 2778TIP3   OH2 8274   3.796   3.845   4.892 -0.1080  0.1867  0.7968
 2778TIP3    H1 8275   3.853   3.792   4.837 -1.1878 -1.5062  1.2459
 2778TIP3    H2 8276   3.761   3.912   4.833 -0.5196 -1.0196 -0.3756
 2779TIP3   OH2 8277   4.269   7.688   4.480  0.2753  0.0831 -0.1131
 2779TIP3    H1 8278   4.320   7.649   4.408 -0.2989 -1.7715  0.4301
 2779TIP3    H2 8279   4.242   7.773   4.446  0.6554 -0.4228 -1.8064
 2780TIP3   OH2 8280   0.911   5.947   5.331 -0.3642 -0.5615  0.9666
 2780TIP3    H1 8281   0.868   5.888   5.394  0.3703 -1.6714  0.4548
 2780TIP3    H2 8282   0.918   6.030   5.378 -0.1990 -1.2534  2.2298
 2781TIP3   OH2 8283   5.156   0.743   5.947 -0.3071 -0.3701 -0.4316
 2781TIP3    H1 8284   5.088   0.696   5.899  0.3454 -0.4840 -1.2445
 2781TIP3    H2 8285   5.146   0.713   6.037 -2.3793  0.7825 -0.1929
 2782TIP3   OH2 8286   5.825   3.863   4.738 -0.0793 -0.3545  0.1953
 2782TIP3    H1 8287   5.732   3.847   4.721 -0.9475  3.2714  0.5810
 2782TIP3    H2 8288   5.871   3.803   4.679 -2.6870 -0.9176 -1.4428
 2783TIP3   OH2 8289   1.048   6.526   1.835  0.3930 -0.0360  0.3559
 2783TIP3    H1 8290   1.039   6.566   1.922 -0.1638 -0.0703  0.3228
 2783TIP3    H2 8291   0.971   6.559   1.787  0.0956 -0.8996  0.2324
 2784TIP3   OH2 8292   1.950   5.489   1.886  0.1967  0.2315  0.4443
 2784TIP3    H1 8293   1.948   5.416   1.824  0.1705  1.1746 -0.6954
 2784TIP3    H2 8294   1.975   5.449   1.970  1.0802 -0.9414 -0.3503
 2785TIP3   OH2 8295   3.466   6.739   4.476 -0.2423  0.2188 -0.0422
 2785TIP3    H1 8296   3.441   6.757   4.385  0.9512  0.7582 -0.2898
 2785TIP3    H2 8297   3.554   6.776   4.484  0.3278 -1.2620  0.8822
 2786TIP3   OH2 8298   5.432   7.500   0.414  0.7325 -0.6289 -0.4534
 2786TIP3    H1 8299   5.497   7.532   0.351 -1.1226 -0.4862 -2.4249
 2786TIP3    H2 8300   5.354   7.552   0.396 -0.2364 -1.4668  1.1495
 2787TIP3   OH2 8301   2.091   7.531   6.098 -0.0508 -0.4711 -0.5088
 2787TIP3    H1 8302   2.159   7.567   6.041 -0.4093 -0.0672 -0.6804
 2787TIP3    H2 8303   2.013   7.526   6.042 -0.0318 -1.4408 -0.4748
 2788TIP3   OH2 8304   7.158   7.685   4.704 -0.0419  0.8546  0.1073
 2788TIP3    H1 8305   7.101   7.656   4.633  0.3911 -1.0638  0.4837
 2788TIP3    H2 8306   7.119   7.766   4.734 -1.8937  0.2216 -0.4305
 2789TIP3   OH2 8307   0.875   1.096   0.980  0.1805 -0.3003 -0.1833
 2789TIP3    H1 8308   0.928   1.171   1.006 -0.0719  0.0827 -0.7597
 2789TIP3    H2 8309   0.921   1.020   1.016  0.5137  0.1192  0.2754
 2790TIP3   OH2 8310   8.121   5.991   2.156 -0.5144 -0.4005  0.5150
 2790TIP3    H1 8311   8.150   5.954   2.072 -2.5313 -0.5441 -0.1766
 2790TIP3    H2 8312   8.041   5.943   2.176 -1.3108  1.2146  1.3628
 2791TIP3   OH2 8313   0.850   2.944   1.908 -0.7361 -0.4648  0.2284
 2791TIP3    H1 8314   0.846   2.951   1.813 -2.1466  0.0925  0.3074
 2791TIP3    H2 8315   0.836   3.033   1.940 -0.2916 -0.6490  0.9664
 2792TIP3   OH2 8316   4.689   0.032   1.076  0.6678 -0.0126  0.5256
 2792TIP3    H1 8317   4.648   0.064   0.996  1.3286  1.1376  0.6305
 2792TIP3    H2 8318   4.620   0.034   1.141  0.5436  0.6258  0.3768
 2793TIP3   OH2 8319   4.846   3.587   6.043 -0.0963  0.2259 -0.2033
 2793TIP3    H1 8320   4.788   3.515   6.069 -0.9934  0.5225 -1.2980
 2793TIP3    H2 8321   4.814   3.662   6.092 -0.4755  0.3285 -0.6020
 2794TIP3   OH2 8322   4.192   1.417   6.741 -0.0189 -0.2646  0.1651
 2794TIP3    H1 8323   4.202   1.488   6.677  1.3821 -1.1202 -0.6128
 2794TIP3    H2 8324   4.244   1.446   6.817  0.7340 -0.5308 -0.2363
 2795TIP3   OH2 8325   3.649   0.849   6.582  0.1081  0.2962 -0.6243
 2795TIP3    H1 8326   3.572   0.857   6.639  0.4277  1.3729 -0.3111
 2795TIP3    H2 8327   3.704   0.924   6.606  1.1194 -0.2874 -1.0498
 2796TIP3   OH2 8328   1.273   1.859   2.148  0.6067 -0.0921 -0.7955
 2796TIP3    H1 8329   1.225   1.900   2.219  1.7504 -0.2716  0.1132
 2796TIP3    H2 8330   1.207   1.840   2.082 -0.1620  1.9173 -0.6538
 2797TIP3   OH2 8331   1.987   4.150   2.300 -0.3191  0.0922  0.3086
 2797TIP3    H1 8332   1.992   4.197   2.384  0.2809  0.7970 -0.1098
 2797TIP3    H2 8333   1.919   4.197   2.251  1.8901  2.1500 -1.0444
 2798TIP3   OH2 8334   0.058   3.516   6.286  0.2365 -0.3413 -0.4470
 2798TIP3    H1 8335   0.052   3.427   6.250  0.4517  0.3343 -2.2255
 2798TIP3    H2 8336  -0.020   3.524   6.342 -0.2466 -1.3549 -0.9446
 2799TIP3   OH2 8337   7.610   5.202   2.512  0.5488 -0.1421 -0.6607
 2799TIP3    H1 8338   7.675   5.141   2.547 -0.3511  0.0528  1.5037
 2799TIP3    H2 8339   7.546   5.213   2.583  0.1141  2.4952 -1.3487
 2800TIP3   OH2 8340   7.603   1.382   5.321  0.3351  0.1052  0.6995
 2800TIP3    H1 8341   7.639   1.354   5.406 -0.1265 -2.4452  0.1436
 2800TIP3    H2 8342   7.634   1.471   5.310 -0.6888  1.0408  4.1672
 2801TIP3   OH2 8343   2.803   1.566   4.079 -0.9419  0.6171  0.2244
 2801TIP3    H1 8344   2.785   1.507   4.153 -0.7768 -0.0524 -0.2538
 2801TIP3    H2 8345   2.725   1.560   4.025 -1.1555  1.2864  0.4584
 2802TIP3   OH2 8346   0.836   5.345   1.482 -0.2010  0.9366  0.3571
 2802TIP3    H1 8347   0.769   5.315   1.422  1.9609 -0.2988 -1.6218
 2802TIP3    H2 8348   0.848   5.438   1.462 -1.5703  1.3034  1.0840
 2803TIP3   OH2 8349   7.813   3.488   5.553 -0.4681  0.5001 -0.4733
 2803TIP3    H1 8350   7.778   3.425   5.615  1.6032 -0.2080  0.0445
 2803TIP3    H2 8351   7.829   3.567   5.605  0.5579  0.1526 -0.2340
 2804TIP3   OH2 8352   1.095   0.329   0.405 -0.9743 -0.4477  0.5066
 2804TIP3    H1 8353   1.170   0.278   0.374  1.0073  2.2249  0.4934
 2804TIP3    H2 8354   1.111   0.341   0.498 -1.8063 -0.5014  0.6616
 2805TIP3   OH2 8355   4.593   3.213   4.669 -0.1677 -0.3697  0.0758
 2805TIP3    H1 8356   4.567   3.148   4.735 -0.1546  0.4454  0.9124
 2805TIP3    H2 8357   4.566   3.297   4.707  2.2713  0.3809  0.2829
 2806TIP3   OH2 8358   4.351   1.344   2.021 -0.3893 -0.3079  0.2213
 2806TIP3    H1 8359   4.386   1.271   2.072  0.2055  0.0291  0.3001
 2806TIP3    H2 8360   4.387   1.330   1.933  0.1541  0.1824  0.3648
 2807TIP3   OH2 8361   4.355   2.949   6.265 -0.2939  0.1819 -0.3573
 2807TIP3    H1 8362   4.315   2.940   6.351  2.6060 -3.5781  0.8773
 2807TIP3    H2 8363   4.288   2.917   6.204 -0.6060 -2.3488  1.1739
 2808TIP3   OH2 8364   8.284   5.298   3.078  0.0138  0.3004  0.6243
 2808TIP3    H1 8365   8.202   5.331   3.041 -0.4916 -0.1297  1.3363
 2808TIP3    H2 8366   8.286   5.206   3.052  0.1680  0.2571  0.7926
 2809TIP3   OH2 8367   0.725   5.608   0.123 -0.1716  0.6915 -0.2845
 2809TIP3    H1 8368   0.703   5.631   0.033 -0.1229 -0.1779 -0.5339
 2809TIP3    H2 8369   0.658   5.651   0.177 -0.7845  0.4185 -0.8137
 2810TIP3   OH2 8370   3.303   0.355   0.560 -0.3609  0.1679  0.3820
 2810TIP3    H1 8371   3.349   0.422   0.611 -0.1377  1.3209 -1.2613
 2810TIP3    H2 8372   3.343   0.358   0.474 -2.1015 -0.2649 -0.5012
 2811TIP3   OH2 8373   4.957   4.626   5.295 -0.6342  0.1016  0.3811
 2811TIP3    H1 8374   4.998   4.698   5.245 -0.0178  0.9697  2.0593
 2811TIP3    H2 8375   4.976   4.548   5.243 -2.8765  1.2370 -2.4826
 2812TIP3   OH2 8376   5.742   0.021   2.175  0.1632 -0.1804 -0.6162
 2812TIP3    H1 8377   5.724   0.094   2.117 -0.6925 -0.5730 -0.8671
 2812TIP3    H2 8378   5.674  -0.043   2.155  0.0468 -0.4672  0.5774
 2813TIP3   OH2 8379   0.500   4.794   2.092  0.4351 -0.1103 -0.0992
 2813TIP3    H1 8380   0.464   4.875   2.128 -0.7828 -0.9907  0.7337
 2813TIP3    H2 8381   0.578   4.822   2.044 -0.3070  1.6321 -0.3727
 2814TIP3   OH2 8382   5.133   5.293   2.448 -0.2009 -0.5805 -0.2511
 2814TIP3    H1 8383   5.097   5.345   2.519  2.0526 -0.8479  1.2020
 2814TIP3    H2 8384   5.066   5.295   2.379 -1.9320  0.7009  1.3847
 2815TIP3   OH2 8385   1.896   1.976   6.152  0.1332  0.0308  0.3749
 2815TIP3    H1 8386   1.905   1.881   6.158  0.1491 -0.0058 -0.1657
 2815TIP3    H2 8387   1.830   1.990   6.084  0.3439  0.4107  0.2455
 2816TIP3   OH2 8388   7.376   5.828   0.860  0.7276 -0.2736  0.7371
 2816TIP3    H1 8389   7.468   5.842   0.883  0.8434 -1.6134  1.1814
 2816TIP3    H2 8390   7.363   5.733   0.869 -0.0145 -0.4930 -1.8899
 2817TIP3   OH2 8391   2.380   4.936   2.505 -0.1080  0.0616 -0.3210
 2817TIP3    H1 8392   2.381   4.984   2.588  1.9079  2.0368 -1.3752
 2817TIP3    H2 8393   2.429   4.856   2.523  1.0650  0.8708  0.2417
 2818TIP3   OH2 8394   4.172   2.404   2.409 -0.4305 -0.6683 -0.3436
 2818TIP3    H1 8395   4.263   2.375   2.419 -0.1176  0.3248 -0.1995
 2818TIP3    H2 8396   4.159   2.469   2.477 -0.8197  0.1978 -1.2129
 2819TIP3   OH2 8397   3.148   1.497   2.768 -0.0192  0.4013  0.4228
 2819TIP3    H1 8398   3.083   1.562   2.744 -0.0985  0.8920  1.8685
 2819TIP3    H2 8399   3.164   1.512   2.861  2.2675  0.4034  0.0962
 2820TIP3   OH2 8400   0.503   1.310   0.681 -1.0654  0.5726 -0.4813
 2820TIP3    H1 8401   0.541   1.302   0.593  0.4649 -2.6632  0.3166
 2820TIP3    H2 8402   0.563   1.368   0.727 -0.4535  0.2919 -0.9078
 2821TIP3   OH2 8403   0.537   7.623   2.969 -0.3687  0.1293  0.4698
 2821TIP3    H1 8404   0.626   7.643   2.941 -1.9348  0.9605 -5.5268
 2821TIP3    H2 8405   0.518   7.537   2.930 -1.8548 -0.6547  2.7412
 2822TIP3   OH2 8406   2.314   1.298   4.081  0.0686 -0.1525 -0.0700
 2822TIP3    H1 8407   2.312   1.356   4.005  0.6416 -0.5838 -0.4271
 2822TIP3    H2 8408   2.325   1.211   4.044 -2.1121 -0.6830  0.3866
 2823TIP3   OH2 8409   8.358   7.678   3.158  0.4672 -0.2356  0.3119
 2823TIP3    H1 8410   8.368   7.674   3.253  1.0371 -0.6043  0.2444
 2823TIP3    H2 8411   8.327   7.590   3.134  1.0885 -0.4058  0.0855
 2824TIP3   OH2 8412   7.387   7.861   4.795  0.6042 -0.1976  0.2921
 2824TIP3    H1 8413   7.379   7.817   4.710 -0.6810  1.5343 -0.5525
 2824TIP3    H2 8414   7.472   7.904   4.792  0.9392 -0.8504  0.2579
 2825TIP3   OH2 8415   5.694   0.100   0.708 -0.0904 -0.0738  0.1374
 2825TIP3    H1 8416   5.718   0.185   0.745  0.1748  0.4665 -1.2067
 2825TIP3    H2 8417   5.629   0.120   0.641 -0.6323 -1.0282  0.3561
 2826TIP3   OH2 8418   3.550   6.784   1.167 -0.1034  0.0513  0.0560
 2826TIP3    H1 8419   3.593   6.869   1.179  0.9130 -0.4937  0.4358
 2826TIP3    H2 8420   3.536   6.776   1.073 -0.0991  0.5867  0.0087
 2827TIP3   OH2 8421   3.404   0.081   3.437 -0.1008 -0.0589 -0.4405
 2827TIP3    H1 8422   3.464   0.155   3.430 -0.9790  0.8749  1.2010
 2827TIP3    H2 8423   3.461   0.005   3.450  0.7722  0.4996 -0.8667
 2828TIP3   OH2 8424   0.212   2.721   2.087  0.0845 -0.1933 -0.0444
 2828TIP3    H1 8425   0.172   2.684   2.008 -0.6862  0.6045 -0.0489
 2828TIP3    H2 8426   0.201   2.816   2.077 -2.1212 -0.1254  2.0458
 2829TIP3   OH2 8427   1.752   6.781   1.351  0.6127 -0.4036 -0.0044
 2829TIP3    H1 8428   1.740   6.854   1.413  0.3474 -0.1215 -0.3857
 2829TIP3    H2 8429   1.707   6.809   1.272  0.0528 -1.2129  0.0164
 2830TIP3   OH2 8430   1.345   5.040   2.581  0.4476  0.1647  0.1433
 2830TIP3    H1 8431   1.335   5.013   2.490 -0.7972 -2.2413  0.9134
 2830TIP3    H2 8432   1.343   5.136   2.578  0.3811  0.1438 -2.3273
 2831TIP3   OH2 8433   0.700   0.970   3.358 -0.0302  0.1994  0.2916
 2831TIP3    H1 8434   0.646   0.891   3.367 -1.3129  0.4596 -3.4927
 2831TIP3    H2 8435   0.789   0.937   3.346 -0.6947 -0.8944 -2.3997
 2832TIP3   OH2 8436   6.321   7.059   5.030 -0.2874  0.0720 -0.4069
 2832TIP3    H1 8437   6.337   7.099   5.115 -0.0556  1.6682 -1.1623
 2832TIP3    H2 8438   6.278   6.976   5.050  0.4889  0.0347  1.2826
 2833TIP3   OH2 8439   0.915   4.893   2.828 -0.0503  0.2306 -0.0293
 2833TIP3    H1 8440   0.954   4.973   2.863  0.5304  0.4448 -1.1319
 2833TIP3    H2 8441   0.894   4.915   2.737  1.6435 -1.3852 -0.8542
 2834TIP3   OH2 8442   7.335   0.857   0.830 -0.1982 -0.3021 -0.1684
 2834TIP3    H1 8443   7.262   0.907   0.864 -0.6341 -1.9955  1.5526
 2834TIP3    H2 8444   7.409   0.882   0.885 -0.0710 -0.4528 -0.2685
 2835TIP3   OH2 8445   1.991   0.504   4.559 -1.1219 -0.0998 -0.5289
 2835TIP3    H1 8446   1.903   0.537   4.543 -1.1288  0.3075  0.2798
 2835TIP3    H2 8447   2.049   0.575   4.530 -1.1337  0.6231  1.0746
 2836TIP3   OH2 8448   5.498   7.827   1.128  0.1835  0.1524 -0.1204
 2836TIP3    H1 8449   5.587   7.825   1.163  0.7399 -2.4848 -1.4665
 2836TIP3    H2 8450   5.509   7.812   1.034 -1.6016  1.8120 -0.6577
 2837TIP3   OH2 8451   6.600   0.048   0.728 -0.0421 -0.2385  0.1378
 2837TIP3    H1 8452   6.535  -0.020   0.743 -0.4082  0.3457  1.3548
 2837TIP3    H2 8453   6.656   0.045   0.806  1.4099 -0.7283 -0.8815
 2838TIP3   OH2 8454   1.731   5.324   3.754  0.3400  0.5137 -0.2534
 2838TIP3    H1 8455   1.749   5.392   3.689 -0.2996  2.6470  1.6761
 2838TIP3    H2 8456   1.637   5.309   3.747  0.4070  0.1364 -0.3695
 2839TIP3   OH2 8457   1.791   4.160   3.529  0.2432  0.5628  0.1402
 2839TIP3    H1 8458   1.795   4.170   3.624  0.3190  2.4274 -0.0224
 2839TIP3    H2 8459   1.844   4.083   3.510  1.1936  0.8470  1.5268
 2840TIP3   OH2 8460   5.065   3.150   1.223  0.1101  0.4646 -0.5630
 2840TIP3    H1 8461   5.106   3.076   1.268  0.6250  0.8692 -0.3593
 2840TIP3    H2 8462   5.066   3.124   1.131 -1.0769 -0.4273 -0.3523
 2841TIP3   OH2 8463   7.560   7.703   6.001 -0.0421 -0.1634  0.2997
 2841TIP3    H1 8464   7.631   7.671   6.056  0.0212 -0.3393  0.1180
 2841TIP3    H2 8465   7.504   7.626   5.986 -0.2509 -0.0355  0.4104
 2842TIP3   OH2 8466   1.527   5.641   3.392 -0.2305 -0.5502  0.5023
 2842TIP3    H1 8467   1.470   5.598   3.329 -0.7119 -1.7298  1.6984
 2842TIP3    H2 8468   1.542   5.576   3.460  1.8719  0.0203  0.6541
 2843TIP3   OH2 8469   1.581   1.001   5.987 -0.0252 -0.3951 -0.0457
 2843TIP3    H1 8470   1.536   0.997   6.072  0.5936 -0.4636  0.2807
 2843TIP3    H2 8471   1.667   0.962   6.003  1.5254  2.8097  0.2253
 2844TIP3   OH2 8472   0.957   7.846   3.063  0.1735 -0.3659 -0.9922
 2844TIP3    H1 8473   0.864   7.868   3.068  0.1645 -0.5367 -0.3168
 2844TIP3    H2 8474   0.993   7.907   2.999 -0.2816  0.1131 -0.7990
 2845TIP3   OH2 8475   1.641   5.975   6.655 -0.1594  0.5152 -0.2897
 2845TIP3    H1 8476   1.694   5.897   6.638  0.0909  0.6918 -0.3233
 2845TIP3    H2 8477   1.552   5.948   6.632 -0.0589  0.2719 -0.4059
 2846TIP3   OH2 8478   6.444   2.973   2.099  0.0028  0.4096 -0.2552
 2846TIP3    H1 8479   6.499   2.943   2.026 -0.4081  0.1054 -0.4414
 2846TIP3    H2 8480   6.376   3.026   2.057 -1.7886 -1.8545 -0.4204
 2847TIP3   OH2 8481   5.474   3.772   5.864 -0.1878  0.3874  0.2373
 2847TIP3    H1 8482   5.496   3.691   5.818 -1.6321  0.8132 -1.2925
 2847TIP3    H2 8483   5.398   3.749   5.918  0.9261  0.1369  1.7979
 2848TIP3   OH2 8484   3.889   4.662   4.658  0.1157  0.2545  0.3301
 2848TIP3    H1 8485   3.903   4.687   4.567  1.0594  0.8577  0.6253
 2848TIP3    H2 8486   3.968   4.614   4.683 -0.4134 -0.4614  0.6439
 2849TIP3   OH2 8487   1.281   6.289   1.470 -0.1389 -0.1126  0.3937
 2849TIP3    H1 8488   1.315   6.215   1.520  1.2706  0.1522 -0.1369
 2849TIP3    H2 8489   1.210   6.324   1.524 -0.8171 -1.8090  0.6733
 2850TIP3   OH2 8490   6.337   7.035   2.927  0.0468  0.2065 -0.2031
 2850TIP3    H1 8491   6.266   6.972   2.932 -0.4557  0.6843 -1.1194
 2850TIP3    H2 8492   6.416   6.983   2.937 -0.3295 -0.6882 -1.6882
 2851TIP3   OH2 8493   7.558   1.696   0.869  1.0530 -0.1901 -0.2686
 2851TIP3    H1 8494   7.601   1.663   0.948  1.2794 -0.0129 -0.3165
 2851TIP3    H2 8495   7.626   1.747   0.824  1.8807 -2.6959 -2.1011
 2852TIP3   OH2 8496   4.389   6.215   2.997  0.0938  0.2772 -0.0351
 2852TIP3    H1 8497   4.416   6.306   2.985 -1.6091  1.0447  1.4654
 2852TIP3    H2 8498   4.298   6.213   2.967  0.4032 -1.2087 -0.9861
 2853TIP3   OH2 8499   0.304   4.863   2.540 -0.8128 -0.0138  0.2934
 2853TIP3    H1 8500   0.385   4.852   2.590 -1.4710 -2.7573  0.9531
 2853TIP3    H2 8501   0.276   4.953   2.559  0.8380  0.2129  1.9641
 2854TIP3   OH2 8502   4.352   3.613   5.185 -0.6039  0.4065 -0.0073
 2854TIP3    H1 8503   4.426   3.572   5.229 -0.6559  2.3696  2.0842
 2854TIP3    H2 8504   4.278   3.556   5.204 -0.4199  0.6838  1.6615
 2855TIP3   OH2 8505   1.606   4.104   6.807  0.2615  0.4562 -0.5507
 2855TIP3    H1 8506   1.669   4.075   6.873  0.4927 -0.1815 -1.0446
 2855TIP3    H2 8507   1.528   4.126   6.858  1.3716  2.8682  0.2533
 2856TIP3   OH2 8508   2.385   4.873   3.812  0.1685  0.4282 -0.2435
 2856TIP3    H1 8509   2.305   4.920   3.788 -0.7246 -1.4294 -1.1195
 2856TIP3    H2 8510   2.452   4.907   3.753 -0.2336  1.2232 -0.2501
 2857TIP3   OH2 8511   0.320   4.307   5.756  0.6655  0.0849  0.1514
 2857TIP3    H1 8512   0.386   4.371   5.728  0.2412  1.2898  1.7337
 2857TIP3    H2 8513   0.295   4.335   5.844 -1.6150 -0.5963 -0.1962
 2858TIP3   OH2 8514   1.911   4.364   0.851  0.4552  0.3368  0.0608
 2858TIP3    H1 8515   1.818   4.348   0.833  0.6192  0.5106 -0.9790
 2858TIP3    H2 8516   1.923   4.334   0.941 -0.3832 -0.6530 -0.1352
 2859TIP3   OH2 8517   2.695   2.490   6.356 -0.2893 -0.8185  0.1581
 2859TIP3    H1 8518   2.709   2.440   6.276 -0.0928 -0.2594 -0.1616
 2859TIP3    H2 8519   2.619   2.545   6.338  1.0727  0.9583 -0.4798
 2860TIP3   OH2 8520   6.781   2.257   5.407 -0.3249  0.0038  0.7762
 2860TIP3    H1 8521   6.767   2.200   5.482  1.6515 -0.5721  0.7500
 2860TIP3    H2 8522   6.759   2.203   5.331  2.7474 -1.2695  0.6664
 2861TIP3   OH2 8523   3.189   4.737   4.002  0.4970  0.7051  0.6350
 2861TIP3    H1 8524   3.158   4.804   3.942 -0.2885  0.7195  1.0489
 2861TIP3    H2 8525   3.112   4.713   4.054  1.2415  0.9758  1.9006
 2862TIP3   OH2 8526   4.399   3.539   0.105  0.1990  0.2868  0.5211
 2862TIP3    H1 8527   4.474   3.491   0.069  0.2634 -0.0770  1.1391
 2862TIP3    H2 8528   4.439   3.604   0.163  0.1206  1.1703 -0.3951
 2863TIP3   OH2 8529   0.106   6.339   6.339  0.0233 -0.4361  0.2236
 2863TIP3    H1 8530   0.058   6.381   6.410 -0.3048 -2.6691  1.4131
 2863TIP3    H2 8531   0.175   6.402   6.316 -0.2130  0.5895  2.1072
 2864TIP3   OH2 8532   5.008   0.441   6.744 -0.3401  0.2813 -0.3929
 2864TIP3    H1 8533   5.100   0.417   6.733  0.3041  0.2277  3.6603
 2864TIP3    H2 8534   4.959   0.362   6.718  0.8003 -0.1762 -1.2169
 2865TIP3   OH2 8535   7.648   0.922   1.541  0.6530  0.2895 -0.3219
 2865TIP3    H1 8536   7.665   0.988   1.609  0.0135 -0.5775  0.7139
 2865TIP3    H2 8537   7.606   0.972   1.470  0.6778  1.0890  0.2098
 2866TIP3   OH2 8538   6.926   4.745   0.784  1.0650 -0.2824 -0.1764
 2866TIP3    H1 8539   6.887   4.772   0.867 -0.0761 -1.1115 -0.4314
 2866TIP3    H2 8540   6.991   4.679   0.809  1.3220  0.0746  0.1223
 2867TIP3   OH2 8541   1.941   4.207   6.087 -0.3133 -0.0570 -0.3275
 2867TIP3    H1 8542   1.886   4.179   6.161 -1.5693 -0.8317 -1.5207
 2867TIP3    H2 8543   1.897   4.173   6.010  1.6511 -0.3348 -1.3799
 2868TIP3   OH2 8544   5.042   2.692   1.463 -0.1027 -0.2874  0.2943
 2868TIP3    H1 8545   4.980   2.750   1.419  0.2171 -1.6814 -2.1764
 2868TIP3    H2 8546   5.000   2.605   1.461  2.0397 -1.3978 -2.0044
 2869TIP3   OH2 8547   6.988   7.627   6.814 -0.3216  0.2720  0.6055
 2869TIP3    H1 8548   7.031   7.711   6.800  1.6254 -0.9606 -1.2982
 2869TIP3    H2 8549   7.045   7.580   6.874 -1.4350  0.2665  1.7122
 2870TIP3   OH2 8550   0.794   2.531   3.574 -0.4924  0.4185 -0.2992
 2870TIP3    H1 8551   0.759   2.452   3.532  0.6560  0.2117 -0.9272
 2870TIP3    H2 8552   0.821   2.586   3.501 -0.0862  0.8228  0.1488
 2871TIP3   OH2 8553   0.382   3.250   3.155 -0.1625  0.0790  0.2554
 2871TIP3    H1 8554   0.293   3.259   3.121 -0.2743 -0.7404  0.3147
 2871TIP3    H2 8555   0.437   3.297   3.092 -0.5943  0.2870  0.0328
 2872TIP3   OH2 8556   1.946   6.583   1.394 -0.1027 -0.0405 -0.0261
 2872TIP3    H1 8557   1.873   6.644   1.401 -1.3987 -1.4625 -0.7409
 2872TIP3    H2 8558   1.993   6.611   1.315  0.8819  1.6030  1.0744
 2873TIP3   OH2 8559   1.211   1.908   0.359 -0.0145  0.2680  0.2980
 2873TIP3    H1 8560   1.204   1.962   0.437  4.5169  1.1787  0.3435
 2873TIP3    H2 8561   1.296   1.864   0.368 -0.8509 -2.2805 -2.5605
 2874TIP3   OH2 8562   7.303   0.470   1.251  0.4399 -0.2526 -0.4372
 2874TIP3    H1 8563   7.301   0.412   1.327 -2.5025  0.8135  0.4248
 2874TIP3    H2 8564   7.356   0.545   1.279  0.6387 -0.5481 -0.0178
 2875TIP3   OH2 8565   3.562   1.825   0.273  0.4037  0.0838 -0.4769
 2875TIP3    H1 8566   3.611   1.903   0.299 -0.1063  0.0732  0.5354
 2875TIP3    H2 8567   3.477   1.834   0.315  0.3108 -0.9853 -0.4006
 2876TIP3   OH2 8568   0.673   3.381   3.626  0.6830 -0.5037  0.4845
 2876TIP3    H1 8569   0.582   3.399   3.602  1.5150  0.2019 -2.5996
 2876TIP3    H2 8570   0.690   3.439   3.700 -0.5883  1.6099 -0.7668
 2877TIP3   OH2 8571   6.578   3.779   1.684 -0.0043  0.4898  0.1500
 2877TIP3    H1 8572   6.578   3.868   1.650  1.5455  0.9006  1.0879
 2877TIP3    H2 8573   6.543   3.726   1.613 -0.2538  1.7484 -0.7032
 2878TIP3   OH2 8574   0.973   5.245   1.985 -0.1121 -0.0119  0.0352
 2878TIP3    H1 8575   1.020   5.167   2.016  0.6439  0.3570 -0.1674
 2878TIP3    H2 8576   0.909   5.211   1.922  0.4373 -0.4385 -0.2991
 2879TIP3   OH2 8577   4.684   6.335   3.056  0.6240 -0.3424  0.4840
 2879TIP3    H1 8578   4.594   6.306   3.045  0.6542 -0.1424 -0.3879
 2879TIP3    H2 8579   4.677   6.429   3.070  0.7381 -0.1699 -0.5315
 2880TIP3   OH2 8580   5.698   7.645   6.618 -0.0330 -0.4328 -0.0047
 2880TIP3    H1 8581   5.704   7.602   6.533 -1.0129 -3.0458  1.1334
 2880TIP3    H2 8582   5.623   7.703   6.611  0.7116  0.4417 -1.2821
 2881TIP3   OH2 8583   1.566   5.994   4.985 -0.2778  0.3387  0.1655
 2881TIP3    H1 8584   1.608   6.033   4.908  0.6363 -2.4838 -0.9161
 2881TIP3    H2 8585   1.638   5.951   5.031 -1.3801 -1.2818  0.4437
 2882TIP3   OH2 8586   5.704   7.485   4.544 -0.0226  0.1721 -0.1252
 2882TIP3    H1 8587   5.736   7.434   4.470  0.4462 -1.0823  0.8919
 2882TIP3    H2 8588   5.728   7.575   4.524  1.8360 -0.3867 -0.6143
 2883TIP3   OH2 8589   0.691   3.457   6.483 -0.3904  0.0510  0.2150
 2883TIP3    H1 8590   0.605   3.499   6.476  0.2090  1.3507  0.2939
 2883TIP3    H2 8591   0.683   3.377   6.431 -2.1498 -0.7350  1.5871
 2884TIP3   OH2 8592   3.805   0.357   2.719 -0.2710  0.4849  0.4353
 2884TIP3    H1 8593   3.732   0.319   2.670  0.3423  0.7535 -0.7437
 2884TIP3    H2 8594   3.852   0.409   2.654  1.1818  0.0160  1.0671
 2885TIP3   OH2 8595   3.106   5.060   4.029 -0.3382 -0.3441 -0.4037
 2885TIP3    H1 8596   3.195   5.024   4.028 -0.4164 -0.5917  0.4257
 2885TIP3    H2 8597   3.099   5.102   4.115 -0.4826  1.0686 -1.0922
 2886TIP3   OH2 8598   5.670   4.302   3.145 -0.1783  0.0269  0.4436
 2886TIP3    H1 8599   5.697   4.212   3.165 -1.0173 -0.0459  1.3332
 2886TIP3    H2 8600   5.716   4.323   3.063  1.5480 -0.5168  1.2156
 2887TIP3   OH2 8601   8.154   7.263   4.680  0.2393  0.4548 -0.7965
 2887TIP3    H1 8602   8.163   7.281   4.586  0.1182  0.5858 -0.7836
 2887TIP3    H2 8603   8.098   7.333   4.712  1.4348  1.2569 -0.3607
 2888TIP3   OH2 8604   0.907   0.232   4.601 -0.0883 -0.5069  0.2929
 2888TIP3    H1 8605   1.000   0.224   4.581 -0.2177 -0.0014 -0.5554
 2888TIP3    H2 8606   0.863   0.207   4.520 -0.6053  2.9906 -0.6977
 2889TIP3   OH2 8607   2.064   3.138   6.608 -0.3160 -0.1291 -0.1664
 2889TIP3    H1 8608   2.142   3.092   6.577  1.1808  2.5537 -0.7534
 2889TIP3    H2 8609   2.045   3.202   6.539 -0.0311  2.5404  2.0486
 2890TIP3   OH2 8610   3.243   0.210   1.832 -0.0632  0.0453 -0.7337
 2890TIP3    H1 8611   3.313   0.235   1.772  0.5595  3.4010  1.1813
 2890TIP3    H2 8612   3.162   0.230   1.785  0.3442  0.1963 -1.3746
 2891TIP3   OH2 8613   1.229   5.130   3.913  0.3202  0.0576  0.2393
 2891TIP3    H1 8614   1.149   5.172   3.881 -1.6874 -2.2234  1.8240
 2891TIP3    H2 8615   1.259   5.076   3.840 -0.7260 -0.4891  0.1921
 2892TIP3   OH2 8616   7.283   4.440   6.468 -0.4031 -0.2957 -0.0973
 2892TIP3    H1 8617   7.352   4.467   6.529  0.6609 -0.7023 -1.0763
 2892TIP3    H2 8618   7.208   4.495   6.490  1.0202  1.9918 -0.6504
 2893TIP3   OH2 8619   3.255   4.115   3.194 -0.1534  0.3077 -0.3014
 2893TIP3    H1 8620   3.349   4.120   3.176 -0.3917 -0.4151 -1.9077
 2893TIP3    H2 8621   3.218   4.191   3.149 -0.3685  0.4722  0.1479
 2894TIP3   OH2 8622   1.468   7.385   4.556  0.7298  0.4225  0.0989
 2894TIP3    H1 8623   1.422   7.463   4.587  0.5037 -0.3962  1.9368
 2894TIP3    H2 8624   1.531   7.365   4.625  1.4729 -0.4623 -0.8024
 2895TIP3   OH2 8625   3.949   5.418   2.734  0.1870 -0.1673  0.4171
 2895TIP3    H1 8626   3.856   5.442   2.730  0.4035  0.9452  1.6984
 2895TIP3    H2 8627   3.951   5.339   2.788 -0.2489 -1.7546 -1.7421
 2896TIP3   OH2 8628   0.725   6.168   3.258 -0.0945 -0.1930  0.5604
 2896TIP3    H1 8629   0.692   6.131   3.176 -2.6859 -1.8732  2.1969
 2896TIP3    H2 8630   0.737   6.261   3.239 -0.9982 -0.4465 -1.6095
 2897TIP3   OH2 8631   5.815   0.412   5.136 -0.2819  0.0649  0.0031
 2897TIP3    H1 8632   5.831   0.378   5.048  0.8598  2.2106 -0.7066
 2897TIP3    H2 8633   5.830   0.506   5.128 -0.8300  0.4213  2.3631
 2898TIP3   OH2 8634   2.626   5.375   4.167 -0.4577 -0.1940  0.2270
 2898TIP3    H1 8635   2.606   5.340   4.080 -1.2707  0.4824  0.1289
 2898TIP3    H2 8636   2.717   5.405   4.160  0.2566 -2.1888  0.3094
 2899TIP3   OH2 8637   6.881   5.495   2.386  0.0385  0.2545 -0.2927
 2899TIP3    H1 8638   6.805   5.450   2.350  0.7554 -1.3887  0.1873
 2899TIP3    H2 8639   6.865   5.500   2.480  0.9912 -1.0949 -0.0340
 2900TIP3   OH2 8640   0.131   7.075   2.932 -0.2888  0.1382 -0.4101
 2900TIP3    H1 8641   0.050   7.122   2.910 -0.5804 -0.6797 -1.1342
 2900TIP3    H2 8642   0.138   7.084   3.027  0.0071  2.1690 -0.5705
 2901TIP3   OH2 8643   0.836   2.554   4.123 -0.0401  0.1622 -0.3562
 2901TIP3    H1 8644   0.865   2.465   4.144 -0.1792  0.2551  0.2415
 2901TIP3    H2 8645   0.741   2.550   4.124 -0.0510  0.1651 -1.0071
 2902TIP3   OH2 8646   6.673   7.653   5.625 -0.4099  0.2888  0.6794
 2902TIP3    H1 8647   6.678   7.654   5.721  0.9472 -1.2175  0.6633
 2902TIP3    H2 8648   6.736   7.719   5.597 -0.3212  0.2629  0.8145
 2903TIP3   OH2 8649   2.807   5.449   6.700 -0.1548  0.0219 -0.0958
 2903TIP3    H1 8650   2.825   5.539   6.727  2.5525 -0.3904 -0.2959
 2903TIP3    H2 8651   2.797   5.454   6.605 -0.2676  0.1320 -0.0795
 2904TIP3   OH2 8652   3.549   0.479   1.482 -0.0912  0.0421 -0.4143
 2904TIP3    H1 8653   3.490   0.522   1.543 -1.1423 -0.8091 -0.7962
 2904TIP3    H2 8654   3.634   0.479   1.527 -0.4150  1.0857  0.2347
 2905TIP3   OH2 8655   2.591   4.840   4.816 -0.4086  0.5913  0.2550
 2905TIP3    H1 8656   2.502   4.874   4.813 -0.5533  0.3245  1.1369
 2905TIP3    H2 8657   2.581   4.753   4.854  0.3333  0.9321  1.2467
 2906TIP3   OH2 8658   8.314   0.670   4.842  0.1063 -0.1717 -0.0685
 2906TIP3    H1 8659   8.405   0.645   4.860  0.0301 -1.1986 -0.9769
 2906TIP3    H2 8660   8.295   0.630   4.757 -1.1075  0.2823 -0.0276
 2907TIP3   OH2 8661   4.229   3.827   0.791  0.1170  0.1112  0.3254
 2907TIP3    H1 8662   4.201   3.917   0.772 -1.2066 -0.1418  0.9678
 2907TIP3    H2 8663   4.274   3.833   0.875  1.6082  0.4390 -0.4712
 2908TIP3   OH2 8664   7.886   4.796   4.636  0.3338  0.1390 -0.0358
 2908TIP3    H1 8665   7.887   4.703   4.610 -2.1658  0.5087 -1.7520
 2908TIP3    H2 8666   7.939   4.798   4.716  2.1881 -2.3879 -1.0222
 2909TIP3   OH2 8667   5.900   0.462   1.978 -0.5620  0.4201  0.3406
 2909TIP3    H1 8668   5.862   0.548   1.967 -1.3521  0.0170 -0.1782
 2909TIP3    H2 8669   5.949   0.446   1.897  1.2157  1.1573  1.2186
 2910TIP3   OH2 8670   4.070   4.999   4.335 -0.4392  0.0562 -0.1489
 2910TIP3    H1 8671   4.163   4.979   4.338 -0.4492 -0.3049 -1.6134
 2910TIP3    H2 8672   4.042   4.996   4.426  1.1119  0.8358  0.3836
 2911TIP3   OH2 8673   5.470   0.259   0.183  0.3297 -0.0954  0.1902
 2911TIP3    H1 8674   5.494   0.205   0.107 -0.7617 -0.4800  0.1011
 2911TIP3    H2 8675   5.506   0.211   0.258  0.6892 -0.1514 -0.0148
 2912TIP3   OH2 8676   3.044   4.956   6.812 -0.1044 -0.0646 -0.3220
 2912TIP3    H1 8677   3.084   5.041   6.792 -0.0864 -0.4784 -2.2043
 2912TIP3    H2 8678   2.985   4.975   6.885  0.5167  1.3979 -0.1609
 2913TIP3   OH2 8679   0.856   0.462   2.787  0.2792  0.7053 -0.3376
 2913TIP3    H1 8680   0.858   0.526   2.858  2.7767 -1.9372  2.2521
 2913TIP3    H2 8681   0.854   0.377   2.831 -0.5804 -1.0993 -3.5344
 2914TIP3   OH2 8682   2.793   2.822   2.458  0.1563 -0.2551  0.1148
 2914TIP3    H1 8683   2.860   2.857   2.517  0.3315 -1.6783  0.8087
 2914TIP3    H2 8684   2.714   2.818   2.511 -0.1132  0.0296 -0.2602
 2915TIP3   OH2 8685   7.202   7.113   4.437  0.0071  0.3350  0.6106
 2915TIP3    H1 8686   7.229   7.104   4.528  1.8455 -1.6981 -0.0395
 2915TIP3    H2 8687   7.204   7.024   4.402 -2.5521  0.7744 -0.9673
 2916TIP3   OH2 8688   7.698   5.433   1.596 -0.5967 -0.2146  0.0916
 2916TIP3    H1 8689   7.714   5.526   1.614  0.1501 -0.6679  2.0736
 2916TIP3    H2 8690   7.698   5.392   1.682 -0.5197 -2.1228 -0.7682
 2917TIP3   OH2 8691   0.310   3.111   5.318 -0.8570 -0.4656 -0.3548
 2917TIP3    H1 8692   0.310   3.152   5.231  0.3401  0.9629  0.2869
 2917TIP3    H2 8693   0.224   3.134   5.355 -0.2175  1.5757 -0.0012
 2918TIP3   OH2 8694   7.856   7.143   2.120 -0.7792  0.4515 -0.2140
 2918TIP3    H1 8695   7.866   7.173   2.030  1.5279  0.9566  0.1485
 2918TIP3    H2 8696   7.764   7.160   2.140 -0.9104  2.1176 -1.8568
 2919TIP3   OH2 8697   6.207   2.702   4.430 -0.0604  0.0954 -0.4094
 2919TIP3    H1 8698   6.269   2.740   4.493  0.7826 -1.0046 -0.5336
 2919TIP3    H2 8699   6.256   2.699   4.348 -0.5746 -0.0232 -0.7161
 2920TIP3   OH2 8700   1.841   5.181   6.768  0.6479  0.0531 -0.3475
 2920TIP3    H1 8701   1.772   5.224   6.719 -0.7763  0.6752  2.0380
 2920TIP3    H2 8702   1.912   5.245   6.771  0.1432  0.6175 -0.2848
 2921TIP3   OH2 8703   1.916   4.348   3.328  0.1940 -0.8758 -0.2573
 2921TIP3    H1 8704   1.860   4.417   3.291 -0.7478 -2.1549 -1.3227
 2921TIP3    H2 8705   1.866   4.314   3.402  1.6671  1.0541  1.7324
 2922TIP3   OH2 8706   6.580   1.314   6.190 -0.1127  0.0010  0.6956
 2922TIP3    H1 8707   6.550   1.293   6.279  0.0006  0.0010  0.7344
 2922TIP3    H2 8708   6.642   1.386   6.202  0.8294 -0.8020  0.7439
 2923TIP3   OH2 8709   3.623   0.088   0.886  1.2263 -0.4050  0.6590
 2923TIP3    H1 8710   3.665   0.054   0.808  0.4926  1.0225 -0.3891
 2923TIP3    H2 8711   3.662   0.174   0.900  2.5851 -1.2974  2.8945
 2924TIP3   OH2 8712   6.894   3.494   4.269 -0.2147 -0.1136 -0.1376
 2924TIP3    H1 8713   6.986   3.483   4.291 -0.4001 -0.2266  0.5993
 2924TIP3    H2 8714   6.893   3.564   4.203  0.4223 -0.3579 -0.4125
 2925TIP3   OH2 8715   3.751   5.131   0.075  0.3969 -0.4734 -0.1143
 2925TIP3    H1 8716   3.846   5.124   0.066  0.4950  1.3076 -0.9001
 2925TIP3    H2 8717   3.737   5.170   0.161  0.3323 -1.2086  0.2178
 2926TIP3   OH2 8718   4.991   2.378   2.844 -0.1532 -0.9061 -0.6514
 2926TIP3    H1 8719   4.991   2.322   2.921 -1.8619  0.4193  0.3728
 2926TIP3    H2 8720   4.993   2.317   2.770 -0.3951 -2.2553  0.4264
 2927TIP3   OH2 8721   5.575   2.348   1.252 -0.7359 -0.1589 -0.4193
 2927TIP3    H1 8722   5.560   2.418   1.316 -2.0503  0.2456 -1.1318
 2927TIP3    H2 8723   5.538   2.382   1.170  0.5867 -0.8150 -1.3159
 2928TIP3   OH2 8724   3.458   2.031   1.887 -0.2292 -0.3084  0.1027
 2928TIP3    H1 8725   3.503   2.115   1.888 -0.2944 -0.1803 -2.3563
 2928TIP3    H2 8726   3.526   1.967   1.869 -0.7796 -0.1683 -3.0934
 2929TIP3   OH2 8727   1.934   4.433   6.361 -0.2302 -0.3708  0.4065
 2929TIP3    H1 8728   1.845   4.433   6.326 -0.1083 -0.5026  0.0951
 2929TIP3    H2 8729   1.990   4.411   6.286  0.1993  1.1304  0.2492
 2930TIP3   OH2 8730   2.980   6.350   4.701  0.8764 -0.0905  0.1246
 2930TIP3    H1 8731   2.910   6.327   4.640  0.9173 -1.9172  0.7084
 2930TIP3    H2 8732   2.981   6.446   4.701 -1.2657 -0.0099 -0.3026
 2931TIP3   OH2 8733   2.777   3.548   0.736 -0.3095 -0.4552 -0.0440
 2931TIP3    H1 8734   2.855   3.604   0.736 -0.6958  0.1444 -2.0221
 2931TIP3    H2 8735   2.784   3.498   0.655  0.7736 -4.4698  2.2467
 2932TIP3   OH2 8736   5.508   1.035   6.369  0.2905  0.3383  0.4409
 2932TIP3    H1 8737   5.485   1.117   6.326 -2.1493 -0.8214 -0.6644
 2932TIP3    H2 8738   5.576   0.997   6.313  1.8094  1.7614  1.2418
 2933TIP3   OH2 8739   3.115   6.522   3.053 -0.0953  0.3168 -0.4252
 2933TIP3    H1 8740   3.156   6.444   3.090 -0.5191 -0.2749 -1.1899
 2933TIP3    H2 8741   3.188   6.576   3.024  0.1831 -0.4979 -1.3026
 2934TIP3   OH2 8742   4.459   7.259   6.830  0.0777  0.1223  0.9047
 2934TIP3    H1 8743   4.547   7.271   6.794 -0.8902 -0.0492 -1.7420
 2934TIP3    H2 8744   4.417   7.345   6.821 -0.7433 -0.3597 -0.0468
 2935TIP3   OH2 8745   2.132   5.557   5.480  0.2244  0.0871 -0.3550
 2935TIP3    H1 8746   2.064   5.543   5.546  0.3057  1.3319  0.0174
 2935TIP3    H2 8747   2.163   5.469   5.458  0.3223 -0.3405  1.3938
 2936TIP3   OH2 8748   4.999   6.123   2.504 -0.1408 -0.0988 -0.0720
 2936TIP3    H1 8749   4.939   6.170   2.561 -0.1233  0.8315 -0.8067
 2936TIP3    H2 8750   5.056   6.190   2.468  2.2077 -1.0652  1.5559
 2937TIP3   OH2 8751   0.743   0.995   6.329 -0.4728  0.2692 -0.2746
 2937TIP3    H1 8752   0.679   0.942   6.376  0.3867  0.2134  0.8767
 2937TIP3    H2 8753   0.828   0.964   6.361  0.0834  1.4398 -0.5565
 2938TIP3   OH2 8754   4.293   6.928   5.790 -0.3560 -0.0441 -0.1002
 2938TIP3    H1 8755   4.268   6.979   5.867 -0.4454  0.6746 -0.6005
 2938TIP3    H2 8756   4.216   6.929   5.734  0.1029  0.4704 -0.7411
 2939TIP3   OH2 8757   0.005   1.160   2.803  0.3952 -0.4669  0.6309
 2939TIP3    H1 8758  -0.050   1.216   2.858  0.2772 -1.0069  1.0583
 2939TIP3    H2 8759   0.062   1.113   2.864  0.6313 -0.6716  0.2588
 2940TIP3   OH2 8760   8.095   6.433   0.833 -0.0382  0.3218 -0.1026
 2940TIP3    H1 8761   8.042   6.420   0.754 -1.6042 -0.3139  0.9926
 2940TIP3    H2 8762   8.169   6.486   0.804 -0.7913  0.4654 -1.9019
 2941TIP3   OH2 8763   5.099   3.181   1.769  0.0819 -0.0877 -0.8444
 2941TIP3    H1 8764   5.089   3.272   1.795  0.2900  0.3388 -2.2042
 2941TIP3    H2 8765   5.037   3.169   1.697 -1.3296 -1.5664  0.5367
 2942TIP3   OH2 8766   6.972   7.410   5.699 -0.3120 -0.1853 -0.2232
 2942TIP3    H1 8767   6.916   7.419   5.622 -1.7682 -0.7366  0.7236
 2942TIP3    H2 8768   6.915   7.372   5.766  0.4395  1.6930  1.6169
 2943TIP3   OH2 8769   2.536   5.422   6.805  0.0980  0.3275 -0.3347
 2943TIP3    H1 8770   2.475   5.350   6.789 -1.4595  1.7061 -0.9183
 2943TIP3    H2 8771   2.623   5.383   6.794 -0.6802 -1.4954 -0.3723
 2944TIP3   OH2 8772   6.765   2.753   2.537  0.5290  0.3787 -0.5490
 2944TIP3    H1 8773   6.694   2.808   2.505  0.5353  1.2221  0.8332
 2944TIP3    H2 8774   6.721   2.682   2.583  0.5714  0.3712 -0.5202
 2945TIP3   OH2 8775   2.979   0.126   6.011  0.3373  0.0122  0.3832
 2945TIP3    H1 8776   2.924   0.058   5.970  0.2258  0.5589 -0.3883
 2945TIP3    H2 8777   2.981   0.101   6.103  1.2447 -1.7029 -0.0487
 2946TIP3   OH2 8778   7.022   6.070   0.363  0.3658  0.4998 -0.2625
 2946TIP3    H1 8779   6.930   6.094   0.371  0.5112  1.3125 -0.9745
 2946TIP3    H2 8780   7.038   6.014   0.439  0.0738  2.8133  1.6221
 2947TIP3   OH2 8781   4.016   5.665   2.987  0.0697  0.5903 -0.5841
 2947TIP3    H1 8782   4.030   5.571   3.000 -0.6686  0.5530  0.0335
 2947TIP3    H2 8783   4.095   5.706   3.022  1.6006  0.1121 -3.2347
 2948TIP3   OH2 8784   6.881   2.159   6.484 -0.1875  0.3990 -0.1544
 2948TIP3    H1 8785   6.976   2.146   6.490 -0.0207  1.1816 -0.8828
 2948TIP3    H2 8786   6.869   2.253   6.500 -0.5977  0.7554 -2.2816
 2949TIP3   OH2 8787   4.883   0.059   5.686  0.3021  0.6850 -0.2610
 2949TIP3    H1 8788   4.939   0.088   5.614 -1.1804 -0.0758 -1.7806
 2949TIP3    H2 8789   4.939   0.001   5.738  0.3669 -2.0805 -3.1229
 2950TIP3   OH2 8790   1.007   1.719   2.223 -0.2803 -0.2635  0.3088
 2950TIP3    H1 8791   1.019   1.811   2.246  0.0645  0.1649 -1.4170
 2950TIP3    H2 8792   1.035   1.671   2.301 -0.4600  1.0776  1.2348
 2951TIP3   OH2 8793   8.309   4.670   2.866  0.8269 -0.3075 -0.4483
 2951TIP3    H1 8794   8.292   4.622   2.947 -1.1844  1.6218  0.3735
 2951TIP3    H2 8795   8.404   4.685   2.868  1.0569 -1.6837  0.7208
 2952TIP3   OH2 8796   2.844   2.215   1.822 -0.3292 -0.1262  0.6837
 2952TIP3    H1 8797   2.865   2.296   1.775 -1.1590  1.6407  3.1570
 2952TIP3    H2 8798   2.815   2.155   1.753  0.8185  1.4500 -1.3150
 2953TIP3   OH2 8799   2.425   2.872   0.545  0.5856 -0.2917  0.5582
 2953TIP3    H1 8800   2.443   2.936   0.476 -0.3252 -0.8328 -0.2151
 2953TIP3    H2 8801   2.417   2.789   0.498 -1.2029 -0.4920  1.1691
 2954TIP3   OH2 8802   7.665   4.745   2.783  0.0921 -0.1115  0.3668
 2954TIP3    H1 8803   7.614   4.694   2.846  0.5395 -0.9259  0.0804
 2954TIP3    H2 8804   7.701   4.680   2.722 -1.8609  0.7811 -1.8868
 2955TIP3   OH2 8805   0.236   5.498   4.130 -0.2413 -0.0168  0.1128
 2955TIP3    H1 8806   0.240   5.450   4.048  1.4611  0.3164 -0.0334
 2955TIP3    H2 8807   0.232   5.590   4.104 -0.6590  0.0481  0.4014
 2956TIP3   OH2 8808   1.698   1.226   2.147 -0.0998 -0.0035  0.7100
 2956TIP3    H1 8809   1.687   1.159   2.079  1.0679  0.1719  0.3184
 2956TIP3    H2 8810   1.658   1.188   2.225  1.0238 -1.4143  0.6397
 2957TIP3   OH2 8811   4.112   6.591   5.911  0.1280  0.3821  0.3033
 2957TIP3    H1 8812   4.035   6.588   5.854 -0.9455 -1.8131  1.7007
 2957TIP3    H2 8813   4.095   6.664   5.971 -0.5378  0.3580  0.1541
 2958TIP3   OH2 8814   6.746   5.001   0.283 -0.4731  0.5699  1.3312
 2958TIP3    H1 8815   6.669   4.947   0.270  0.4887 -0.1847 -2.6089
 2958TIP3    H2 8816   6.808   4.945   0.330 -0.6397 -0.6259  0.1652
 2959TIP3   OH2 8817   7.145   1.358   0.479 -0.3018 -0.2745  0.2855
 2959TIP3    H1 8818   7.073   1.355   0.542 -0.8932  2.1287 -0.1823
 2959TIP3    H2 8819   7.209   1.416   0.518 -0.7260  1.3594 -1.3023
 2960TIP3   OH2 8820   7.808   2.886   4.793 -0.1011  0.7024 -0.0356
 2960TIP3    H1 8821   7.727   2.866   4.745  0.1686 -1.4692  0.3005
 2960TIP3    H2 8822   7.852   2.953   4.740  0.5262 -2.0327 -3.3212
 2961TIP3   OH2 8823   1.869   6.852   3.957  0.1678  0.2527 -0.0675
 2961TIP3    H1 8824   1.886   6.915   3.887 -0.1722 -0.5862 -0.9225
 2961TIP3    H2 8825   1.849   6.770   3.912 -0.1377 -0.2909  1.0132
 2962TIP3   OH2 8826   8.280   2.794   0.697 -0.1054 -0.2168  0.5987
 2962TIP3    H1 8827   8.313   2.883   0.684  0.4485 -0.5623 -0.4400
 2962TIP3    H2 8828   8.188   2.806   0.718 -0.6815  0.5302 -1.9626
 2963TIP3   OH2 8829   4.789   3.602   5.589  0.0068  0.3187 -0.0997
 2963TIP3    H1 8830   4.781   3.697   5.590 -0.2653  0.3283 -1.3852
 2963TIP3    H2 8831   4.711   3.571   5.636 -1.0386  0.7093 -1.4946
 2964TIP3   OH2 8832   6.722   1.756   0.750  0.4426 -0.0959  0.8502
 2964TIP3    H1 8833   6.770   1.839   0.757 -0.5988  0.5778  0.2060
 2964TIP3    H2 8834   6.630   1.781   0.754  0.0977 -1.1537 -0.0756
 2965TIP3   OH2 8835   7.597   7.090   3.739  0.3525 -0.7343  0.5449
 2965TIP3    H1 8836   7.586   7.176   3.700  0.8614  0.6039  3.1263
 2965TIP3    H2 8837   7.639   7.107   3.824  0.6243 -3.5359  1.0740
 2966TIP3   OH2 8838   7.938   2.431   3.209 -0.1233  0.1510  0.1204
 2966TIP3    H1 8839   7.921   2.474   3.125  0.9421  0.5442  0.0958
 2966TIP3    H2 8840   7.879   2.475   3.271 -2.4654 -1.5217 -0.7544
 2967TIP3   OH2 8841   1.962   1.065   6.213  0.0771  0.3070 -0.3347
 2967TIP3    H1 8842   2.040   1.104   6.253 -0.0422 -1.1401  1.4389
 2967TIP3    H2 8843   1.969   1.087   6.121  2.4239  0.5049 -0.1729
 2968TIP3   OH2 8844   6.660   7.287   4.755 -0.4469 -0.9325  0.1538
 2968TIP3    H1 8845   6.575   7.286   4.799 -0.0932 -0.7845  0.8478
 2968TIP3    H2 8846   6.716   7.231   4.809  1.1162  2.3198  2.2039
 2969TIP3   OH2 8847   5.631   1.440   3.797  0.3556 -0.3913  0.1839
 2969TIP3    H1 8848   5.608   1.422   3.706  0.2542  1.4863 -0.2087
 2969TIP3    H2 8849   5.620   1.356   3.842  0.4192 -1.3616 -1.5205
 2970TIP3   OH2 8850   1.973   4.451   4.618 -0.5671  0.0143 -0.0557
 2970TIP3    H1 8851   1.892   4.489   4.585 -0.2658  0.9289  0.2382
 2970TIP3    H2 8852   2.036   4.459   4.546 -0.9882 -1.6275 -0.6581
 2971TIP3   OH2 8853   6.644   0.934   2.139  0.0637 -0.6058 -0.2815
 2971TIP3    H1 8854   6.642   0.948   2.234 -2.8853  1.2600 -0.4893
 2971TIP3    H2 8855   6.584   0.861   2.124  0.6089 -0.9717 -0.7552
 2972TIP3   OH2 8856   8.000   3.539   0.224  0.2223  0.7317  0.3250
 2972TIP3    H1 8857   7.944   3.616   0.230 -1.3859 -0.3692  0.1176
 2972TIP3    H2 8858   7.962   3.476   0.286  0.4827 -0.4769 -0.6906
 2973TIP3   OH2 8859   8.100   0.625   1.202 -0.2142 -0.6351 -0.0751
 2973TIP3    H1 8860   8.091   0.559   1.271 -0.1719  1.5752  2.1700
 2973TIP3    H2 8861   8.139   0.577   1.129 -0.0418 -3.0599  1.4706
 2974TIP3   OH2 8862   3.690   5.996   3.143 -0.3542 -0.2044  0.3706
 2974TIP3    H1 8863   3.661   6.084   3.165 -1.3324 -0.2807 -0.4976
 2974TIP3    H2 8864   3.702   5.998   3.048  0.6958 -0.7100  0.4779
 2975TIP3   OH2 8865   7.394   4.166   6.168  0.4314  0.4489  0.2628
 2975TIP3    H1 8866   7.388   4.142   6.260  1.0937  0.9781  0.4486
 2975TIP3    H2 8867   7.457   4.104   6.131  0.2924  0.3436  0.1999
 2976TIP3   OH2 8868   7.749   7.255   5.996 -0.2099 -0.4346 -0.2617
 2976TIP3    H1 8869   7.703   7.193   6.053  1.3765 -1.5432 -0.1304
 2976TIP3    H2 8870   7.822   7.205   5.960  1.5763  1.5172  0.4265
 2977TIP3   OH2 8871   1.444   0.515   0.802 -0.0041  0.1076  0.1693
 2977TIP3    H1 8872   1.378   0.465   0.755 -0.7543  1.9871 -0.8576
 2977TIP3    H2 8873   1.399   0.547   0.881  0.4851 -0.8002  0.8429
 2978TIP3   OH2 8874  -0.002   6.867   5.950  0.6293 -0.2399 -0.0130
 2978TIP3    H1 8875   0.087   6.903   5.944 -0.0756  1.4972 -0.9642
 2978TIP3    H2 8876   0.006   6.792   6.008  2.6588  0.0687  0.1799
 2979TIP3   OH2 8877   7.737   6.155   4.929  0.0789  0.1612  0.5884
 2979TIP3    H1 8878   7.698   6.067   4.927  2.7466 -1.3162  3.6782
 2979TIP3    H2 8879   7.677   6.206   4.984 -1.1469  0.1759 -0.6906
 2980TIP3   OH2 8880   5.774   4.008   5.165 -0.5463 -0.3816 -0.1575
 2980TIP3    H1 8881   5.847   3.958   5.200  0.0013  0.6042  0.1606
 2980TIP3    H2 8882   5.811   4.058   5.093 -0.5020  1.2761  0.9452
 2981TIP3   OH2 8883   0.446   0.310   2.437 -0.3822  0.2077 -0.2234
 2981TIP3    H1 8884   0.521   0.313   2.496  0.6201  0.4747 -1.4701
 2981TIP3    H2 8885   0.373   0.341   2.490  0.1585 -0.9880  1.3075
 2982TIP3   OH2 8886   4.388   6.262   5.622 -0.3309 -0.6242  0.1672
 2982TIP3    H1 8887   4.294   6.275   5.635 -0.4977 -0.4824 -1.0264
 2982TIP3    H2 8888   4.415   6.337   5.569  0.2329 -1.2138 -0.3886
 2983TIP3   OH2 8889   7.069   2.593   0.148 -0.3750  0.3121 -0.6216
 2983TIP3    H1 8890   7.160   2.593   0.119  0.2947  0.7069  1.3103
 2983TIP3    H2 8891   7.074   2.581   0.243 -2.2950  1.3281 -0.3412
 2984TIP3   OH2 8892   4.301   2.641   5.589 -0.5744  0.1870 -0.2048
 2984TIP3    H1 8893   4.287   2.689   5.671 -1.1529  0.1763 -0.2897
 2984TIP3    H2 8894   4.370   2.689   5.544 -0.9499  0.7809 -0.1623
 2985TIP3   OH2 8895   7.761   2.080   3.265  0.3909 -0.3786 -0.4651
 2985TIP3    H1 8896   7.713   2.002   3.238 -0.6663  0.0860  0.0088
 2985TIP3    H2 8897   7.850   2.050   3.278 -0.1558 -1.6936  0.4995
 2986TIP3   OH2 8898   6.931   5.040   5.158  0.2596 -0.4389 -0.1773
 2986TIP3    H1 8899   6.952   4.982   5.232  0.7525 -1.1783 -0.8865
 2986TIP3    H2 8900   6.935   5.128   5.196  0.7493 -0.7935  0.6283
 2987TIP3   OH2 8901   0.780   5.335   0.114 -0.4643  1.2362 -0.0106
 2987TIP3    H1 8902   0.782   5.431   0.120 -4.1527  1.3997  0.8783
 2987TIP3    H2 8903   0.791   5.306   0.205  2.1209  0.6315 -0.4352
 2988TIP3   OH2 8904   7.265   6.138   5.148  0.2198  0.3133 -0.3877
 2988TIP3    H1 8905   7.294   6.047   5.150  2.8224  1.0517  1.7527
 2988TIP3    H2 8906   7.267   6.166   5.240  1.4683  3.0336 -1.1359
 2989TIP3   OH2 8907   7.771   4.006   3.218  0.1098  0.2682 -0.0428
 2989TIP3    H1 8908   7.704   4.074   3.227 -0.4003 -0.1871 -0.3168
 2989TIP3    H2 8909   7.813   4.025   3.134  0.0160  0.2911 -0.0854
 2990TIP3   OH2 8910   6.745   4.294   6.085  0.0307  0.4046 -0.4108
 2990TIP3    H1 8911   6.771   4.363   6.023 -1.0572  0.7214 -0.5409
 2990TIP3    H2 8912   6.828   4.260   6.119  0.6289  0.7799 -1.4330
 2991TIP3   OH2 8913   1.011   3.331   6.219 -0.1274  0.4846  0.3734
 2991TIP3    H1 8914   1.065   3.409   6.233  1.2962  0.0489 -2.1816
 2991TIP3    H2 8915   1.070   3.258   6.239 -1.3362 -0.0092  2.3693
 2992TIP3   OH2 8916   2.233   3.532   1.815  0.3939 -0.3511 -0.3663
 2992TIP3    H1 8917   2.314   3.507   1.858  0.4203 -0.1901 -0.3210
 2992TIP3    H2 8918   2.167   3.531   1.885  0.6747  1.1310 -0.0417
 2993TIP3   OH2 8919   6.887   0.049   4.828  0.2748  0.1994  0.1128
 2993TIP3    H1 8920   6.963  -0.006   4.848  1.1635  1.1850 -0.4354
 2993TIP3    H2 8921   6.823  -0.012   4.790  1.5829 -0.3414 -1.3744
 2994TIP3   OH2 8922   6.170   4.536   6.303 -0.4840  0.5647 -0.2334
 2994TIP3    H1 8923   6.148   4.442   6.303  1.7366 -0.0683  2.5517
 2994TIP3    H2 8924   6.251   4.541   6.252 -0.7124  1.0294 -0.5568
 2995TIP3   OH2 8925   7.053   0.713   2.404  0.2535 -0.3993  0.2254
 2995TIP3    H1 8926   7.034   0.700   2.497 -0.5840 -1.8559 -0.1223
 2995TIP3    H2 8927   7.104   0.637   2.378  0.3707 -0.0752 -0.5392
 2996TIP3   OH2 8928   6.930   6.805   1.802 -0.2551  0.0303  0.4092
 2996TIP3    H1 8929   6.886   6.836   1.880 -2.3848  1.6706 -1.3092
 2996TIP3    H2 8930   6.976   6.726   1.829 -0.2223  0.9853  3.4505
 2997TIP3   OH2 8931   2.293   1.151   1.167  0.2670  0.0843 -0.1749
 2997TIP3    H1 8932   2.235   1.156   1.244 -0.2077 -0.0461 -0.5191
 2997TIP3    H2 8933   2.237   1.174   1.093  0.5898 -0.2963 -0.5453
 2998TIP3   OH2 8934   2.168   2.650   4.784 -0.0507  0.5564 -0.2696
 2998TIP3    H1 8935   2.254   2.644   4.826 -0.8147  1.1718  1.4837
 2998TIP3    H2 8936   2.187   2.651   4.690  1.8333  0.4438  0.0728
 2999TIP3   OH2 8937   0.759   1.750   5.471 -0.2262  0.0026 -0.1981
 2999TIP3    H1 8938   0.723   1.836   5.449 -0.5298 -0.5255 -1.9305
 2999TIP3    H2 8939   0.794   1.716   5.388  0.6171 -1.2090  0.6158
 3000TIP3   OH2 8940   5.297   4.680   6.812  0.2376 -0.4110 -0.1157
 3000TIP3    H1 8941   5.355   4.749   6.845 -0.4880  0.3930 -0.4779
 3000TIP3    H2 8942   5.291   4.617   6.884  2.6659 -1.2657 -0.5559
 3001TIP3   OH2 8943   7.370   2.944   2.181  0.1601 -0.7353  0.2754
 3001TIP3    H1 8944   7.464   2.955   2.172  0.4543 -0.8230  2.6763
 3001TIP3    H2 8945   7.351   2.969   2.271 -1.9118 -2.0487  0.2737
 3002TIP3   OH2 8946   2.785   6.600   3.623 -0.7261  0.2358  0.3837
 3002TIP3    H1 8947   2.708   6.549   3.647 -0.7689 -0.1066 -0.4340
 3002TIP3    H2 8948   2.761   6.642   3.541  0.5068 -1.1880 -0.7769
 3003TIP3   OH2 8949   4.323   3.782   2.705 -0.0711  0.0551 -0.1110
 3003TIP3    H1 8950   4.247   3.741   2.665 -0.8166  0.8649  0.4627
 3003TIP3    H2 8951   4.304   3.781   2.799  1.2284 -0.9579  0.1812
 3004TIP3   OH2 8952   0.084   3.432   5.917  0.4596 -0.3128  0.2914
 3004TIP3    H1 8953   0.065   3.341   5.941 -0.4047 -0.4139 -0.6915
 3004TIP3    H2 8954   0.180   3.438   5.920  0.5376 -1.3067  0.2054
 3005TIP3   OH2 8955   2.628   0.537   0.733 -0.3438 -0.0645 -0.2785
 3005TIP3    H1 8956   2.624   0.602   0.802 -1.1164  1.4863 -1.7090
 3005TIP3    H2 8957   2.710   0.490   0.748 -1.4622 -1.2463  2.8677
 3006TIP3   OH2 8958   0.063   5.472   3.393  0.2321  0.1444  0.0975
 3006TIP3    H1 8959   0.062   5.526   3.472 -1.5140 -0.1094  0.2932
 3006TIP3    H2 8960  -0.000   5.514   3.334  1.4608  0.2950 -1.1622
 3007TIP3   OH2 8961   4.948   2.166   0.681 -0.5189 -0.0656  0.0065
 3007TIP3    H1 8962   4.929   2.252   0.646 -0.7660  0.0559  0.4278
 3007TIP3    H2 8963   4.897   2.106   0.626 -1.0040  0.1331  0.2252
 3008TIP3   OH2 8964   6.018   6.548   4.550  0.1065  0.2654 -0.1657
 3008TIP3    H1 8965   6.000   6.638   4.576  1.1746  1.0995 -2.0833
 3008TIP3    H2 8966   5.938   6.500   4.571  0.2861  1.1251  2.9589
 3009TIP3   OH2 8967   7.548   0.986   3.171 -0.1587  0.1000  0.4837
 3009TIP3    H1 8968   7.486   0.955   3.105  1.3803  1.2755 -1.6234
 3009TIP3    H2 8969   7.616   0.919   3.175  0.9174  1.0414 -0.8826
 3010TIP3   OH2 8970   6.981   7.427   0.734 -0.4969  0.1538 -0.0402
 3010TIP3    H1 8971   7.024   7.512   0.744  1.3116 -0.7335  0.1751
 3010TIP3    H2 8972   6.993   7.404   0.642 -0.7868  0.0311 -0.0497
 3011TIP3   OH2 8973   0.332   7.720   5.661 -0.1594  0.6160  0.2031
 3011TIP3    H1 8974   0.282   7.801   5.663 -0.6799  0.3162  2.5723
 3011TIP3    H2 8975   0.412   7.740   5.709  0.1943 -0.0011 -0.1079
 3012TIP3   OH2 8976   8.004   3.919   0.240 -0.2254 -0.1348  0.1527
 3012TIP3    H1 8977   8.067   3.973   0.287 -1.1350  0.4742  0.7241
 3012TIP3    H2 8978   7.975   3.854   0.304  1.4860 -1.8896 -0.7775
 3013TIP3   OH2 8979   3.205   1.240   0.775  0.0297 -0.0964  0.0191
 3013TIP3    H1 8980   3.281   1.186   0.799 -2.2765 -2.6609  2.1861
 3013TIP3    H2 8981   3.129   1.186   0.797 -2.5123  2.2182 -2.2717
 3014TIP3   OH2 8982   3.435   1.756   2.180 -0.1150 -0.3491  0.3942
 3014TIP3    H1 8983   3.347   1.737   2.149 -0.0247 -1.0724  0.5521
 3014TIP3    H2 8984   3.423   1.819   2.250 -0.3687  0.8323 -0.6745
 3015TIP3   OH2 8985   3.225   0.846   6.125 -0.2435 -0.7204 -0.4138
 3015TIP3    H1 8986   3.280   0.870   6.051 -1.0089 -1.7564 -1.3424
 3015TIP3    H2 8987   3.138   0.879   6.101 -0.4654 -0.9377  0.0817
 3016TIP3   OH2 8988   4.404   0.747   2.858  0.4180 -0.1883  0.1591
 3016TIP3    H1 8989   4.449   0.823   2.893 -0.2527 -0.7657  2.4831
 3016TIP3    H2 8990   4.459   0.672   2.883 -0.0154 -0.6177 -0.1450
 3017TIP3   OH2 8991   3.065   2.563   3.846 -0.0966 -0.0312 -0.2668
 3017TIP3    H1 8992   2.978   2.581   3.880 -0.2147 -1.7977  0.4819
 3017TIP3    H2 8993   3.121   2.631   3.883 -0.6302 -0.6183  1.7197
 3018TIP3   OH2 8994   3.202   4.530   1.141 -0.5285 -0.0759  0.3245
 3018TIP3    H1 8995   3.138   4.539   1.212 -1.9209 -1.4354 -0.6824
 3018TIP3    H2 8996   3.266   4.467   1.174  0.6331  1.6343  1.5181
 3019TIP3   OH2 8997   4.368   1.925   1.261  0.7360  0.6649  0.3474
 3019TIP3    H1 8998   4.457   1.947   1.233  1.3851 -0.4695  1.4145
 3019TIP3    H2 8999   4.367   1.829   1.263 -0.7760  0.6438 -0.4106
 3020TIP3   OH2 9000   0.358   1.886   1.107 -0.2059  0.3178 -0.2916
 3020TIP3    H1 9001   0.290   1.929   1.159 -2.0943  0.0942 -2.4157
 3020TIP3    H2 9002   0.400   1.826   1.168 -0.9203  1.5059  1.4694
 3021TIP3   OH2 9003   7.448   4.078   2.545  0.0567 -0.0711 -0.1710
 3021TIP3    H1 9004   7.450   3.995   2.498  0.5553  0.2022 -0.6469
 3021TIP3    H2 9005   7.539   4.105   2.551 -0.0704  0.2753  0.2848
 3022TIP3   OH2 9006   3.888   1.863   4.359  0.8803  0.3377 -0.0779
 3022TIP3    H1 9007   3.908   1.947   4.401  0.4071 -0.0047  0.8678
 3022TIP3    H2 9008   3.808   1.880   4.309 -0.3665 -0.0130  1.7093
 3023TIP3   OH2 9009   0.123   1.101   2.358 -0.0983  0.6411  0.7754
 3023TIP3    H1 9010   0.081   1.021   2.326  0.0968  0.3341  1.2844
 3023TIP3    H2 9011   0.191   1.120   2.294 -0.9141  1.0687  0.0104
 3024TIP3   OH2 9012   6.018   6.410   0.946 -0.1800  0.5282  0.1816
 3024TIP3    H1 9013   6.009   6.487   0.889  2.2039  0.7810  0.0291
 3024TIP3    H2 9014   5.931   6.399   0.985 -0.6053  3.3581  0.2867
 3025TIP3   OH2 9015   5.617   4.518   2.826 -0.0937 -0.3074  0.2990
 3025TIP3    H1 9016   5.696   4.491   2.780 -0.3464 -1.7140  0.6309
 3025TIP3    H2 9017   5.636   4.504   2.919  0.2546  2.0877  0.6541
 3026TIP3   OH2 9018   5.624   2.867   2.674  1.2590  0.4109  0.2147
 3026TIP3    H1 9019   5.620   2.888   2.581 -2.0155  1.4835  0.4693
 3026TIP3    H2 9020   5.593   2.777   2.679  1.0601  0.4815  0.2750
 3027TIP3   OH2 9021   6.116   4.529   6.579 -0.1039  0.0064  0.1939
 3027TIP3    H1 9022   6.127   4.562   6.489 -1.2735 -0.7986 -0.2723
 3027TIP3    H2 9023   6.093   4.437   6.568  0.0518 -0.1788  1.3460
 3028TIP3   OH2 9024   5.510   0.905   3.610  0.6795 -0.1269  0.1586
 3028TIP3    H1 9025   5.598   0.920   3.646  0.6082 -1.8195  1.1228
 3028TIP3    H2 9026   5.525   0.858   3.528  0.7337  1.5927 -0.8623
 3029TIP3   OH2 9027   1.070   1.744   4.039  0.3455  0.1851 -0.1771
 3029TIP3    H1 9028   0.995   1.744   4.098 -1.7404  1.2169 -2.6277
 3029TIP3    H2 9029   1.145   1.763   4.095 -1.3845  0.4652  2.1926
 3030TIP3   OH2 9030   8.412   3.384   5.312 -0.3614 -0.0631  0.4919
 3030TIP3    H1 9031   8.332   3.332   5.299 -0.1267 -0.4154  0.4354
 3030TIP3    H2 9032   8.447   3.354   5.396 -0.5683  0.4691  0.7726
 3031TIP3   OH2 9033   7.646   0.148   0.260  0.2225 -0.7032  0.4098
 3031TIP3    H1 9034   7.551   0.150   0.251 -0.0466 -1.6928  2.3823
 3031TIP3    H2 9035   7.675   0.233   0.227 -1.2856 -0.5231 -0.5606
 3032TIP3   OH2 9036   8.159   7.753   2.282 -0.3590  0.7045 -0.4842
 3032TIP3    H1 9037   8.229   7.784   2.340  1.0173  0.4222 -1.9321
 3032TIP3    H2 9038   8.124   7.676   2.327 -0.5130  1.4905  0.7939
 3033TIP3   OH2 9039   6.285   3.481   1.538 -0.1522 -0.0232  0.0686
 3033TIP3    H1 9040   6.255   3.427   1.465 -2.0868 -0.1580  0.9047
 3033TIP3    H2 9041   6.206   3.497   1.590  0.8952  1.3168  1.3298
 3034TIP3   OH2 9042   5.057   7.665   2.980 -0.3437  0.0892  0.2813
 3034TIP3    H1 9043   5.050   7.672   2.885  0.6610  0.4423  0.2252
 3034TIP3    H2 9044   5.129   7.603   2.994  0.0564  0.6661  0.8113
 3035TIP3   OH2 9045   6.098   2.512   3.495  0.0166 -0.3893 -0.5184
 3035TIP3    H1 9046   6.031   2.535   3.560  1.2134 -1.0348  1.0035
 3035TIP3    H2 9047   6.161   2.458   3.543  1.7381  0.3311 -1.8428
 3036TIP3   OH2 9048   2.950   5.220   1.773  0.2121  0.4996 -0.1484
 3036TIP3    H1 9049   3.025   5.232   1.832  1.3211 -0.7454 -1.2331
 3036TIP3    H2 9050   2.990   5.203   1.687 -1.2631 -1.2852 -0.5530
 3037TIP3   OH2 9051   5.283   3.774   6.528 -0.1549 -0.4607 -0.2213
 3037TIP3    H1 9052   5.325   3.846   6.482 -1.3042 -0.8276 -1.9578
 3037TIP3    H2 9053   5.208   3.814   6.573 -0.1933 -0.4091 -0.3309
 3038TIP3   OH2 9054   5.286   6.252   2.730  0.2354 -0.3591  0.4925
 3038TIP3    H1 9055   5.265   6.300   2.649  1.2098  2.9723  2.0071
 3038TIP3    H2 9056   5.337   6.315   2.782  1.8678 -3.2263  2.6732
 3039TIP3   OH2 9057   3.898   6.290   3.366 -0.4718 -0.2576 -0.0496
 3039TIP3    H1 9058   3.862   6.376   3.344  1.9770  1.0931  0.8682
 3039TIP3    H2 9059   3.993   6.301   3.358  0.0220 -2.3185  2.0339
 3040TIP3   OH2 9060   7.757   1.703   0.315 -0.4964 -0.8028 -0.5771
 3040TIP3    H1 9061   7.663   1.693   0.326 -0.6571 -0.4424 -1.4899
 3040TIP3    H2 9062   7.776   1.792   0.345 -0.9351  0.1823 -2.9701
 3041TIP3   OH2 9063   1.969   4.469   5.930 -0.1844  0.3561  0.6506
 3041TIP3    H1 9064   2.061   4.468   5.904 -0.5635  0.6024 -0.7777
 3041TIP3    H2 9065   1.958   4.387   5.979  0.4558 -0.4168 -0.4426
 3042TIP3   OH2 9066   2.947   5.988   2.278 -0.1633  0.1705 -0.0367
 3042TIP3    H1 9067   2.953   5.945   2.363  1.5988 -0.0971 -0.2545
 3042TIP3    H2 9068   2.861   5.964   2.245 -1.0133  0.5704  1.8143
 3043TIP3   OH2 9069   1.440   3.672   1.371 -0.4376  0.3533  0.3953
 3043TIP3    H1 9070   1.442   3.578   1.389 -2.2240  0.5354  1.9284
 3043TIP3    H2 9071   1.518   3.706   1.414  0.1492 -0.4013 -0.0510
 3044TIP3   OH2 9072   4.263   7.542   2.758  0.1666  0.1772 -0.7438
 3044TIP3    H1 9073   4.234   7.525   2.847  1.2091 -0.2349 -0.4654
 3044TIP3    H2 9074   4.244   7.635   2.743 -0.0484  0.2351 -0.1126
 3045TIP3   OH2 9075   2.033   3.065   0.723 -0.6188  0.1568 -0.0517
 3045TIP3    H1 9076   2.087   3.141   0.743  0.8635 -1.0151  0.6520
 3045TIP3    H2 9077   2.057   3.040   0.634 -2.9857  1.9502 -1.3063
 3046TIP3   OH2 9078   5.659   7.800   2.325 -0.0734  0.1236 -0.0840
 3046TIP3    H1 9079   5.711   7.858   2.381 -0.9881 -0.5993  1.6101
 3046TIP3    H2 9080   5.591   7.857   2.288 -0.4879  0.3227  0.9378
 3047TIP3   OH2 9081   7.124   2.752   3.676 -0.5155  0.3078  0.3988
 3047TIP3    H1 9082   7.061   2.682   3.690 -1.4617  1.0315 -0.1282
 3047TIP3    H2 9083   7.198   2.710   3.631 -1.1218 -0.3235 -0.0159
 3048TIP3   OH2 9084   4.240   5.665   6.290  0.0365 -0.0493  0.2440
 3048TIP3    H1 9085   4.300   5.603   6.248  1.9937  1.7363  0.2134
 3048TIP3    H2 9086   4.278   5.680   6.377 -0.4472  1.0080  0.2882
 3049TIP3   OH2 9087   8.337   6.177   5.210 -0.8049 -0.2654  0.0569
 3049TIP3    H1 9088   8.399   6.117   5.252 -0.1367  0.2733 -0.1456
 3049TIP3    H2 9089   8.294   6.123   5.143 -0.4133 -0.5935  0.0647
 3050TIP3   OH2 9090   4.422   6.837   1.982  0.1344  0.2230 -0.2902
 3050TIP3    H1 9091   4.366   6.908   2.013 -0.0016  0.4599 -1.0353
 3050TIP3    H2 9092   4.498   6.838   2.039 -0.7710 -0.3283  0.9713
 3051TIP3   OH2 9093   5.809   6.505   2.989  0.1310  0.0671 -0.3784
 3051TIP3    H1 9094   5.887   6.557   3.007 -0.4355  0.2414  1.8315
 3051TIP3    H2 9095   5.740   6.545   3.041 -0.8216 -1.6540 -0.2224
 3052TIP3   OH2 9096   3.276   5.458   3.875  0.3262  1.3199  0.1783
 3052TIP3    H1 9097   3.241   5.458   3.964 -0.2360 -0.1399 -0.0110
 3052TIP3    H2 9098   3.237   5.381   3.834  1.6257  1.1964 -0.9111
 3053TIP3   OH2 9099   2.722   6.267   1.246 -0.3858 -0.1888 -0.1321
 3053TIP3    H1 9100   2.692   6.260   1.337  0.9396 -1.6974  0.2426
 3053TIP3    H2 9101   2.817   6.271   1.253 -0.2921  0.3540 -1.4519
 3054TIP3   OH2 9102   0.123   1.488   0.649 -0.2873  0.2970 -0.0693
 3054TIP3    H1 9103   0.184   1.489   0.575  0.2818  1.8760  0.3803
 3054TIP3    H2 9104   0.172   1.446   0.720 -0.0157  0.8156  0.0525
 3055TIP3   OH2 9105   0.806   4.731   4.351  0.1176  0.2267 -0.7818
 3055TIP3    H1 9106   0.836   4.788   4.422 -0.9498 -0.1400  0.0000
 3055TIP3    H2 9107   0.766   4.790   4.288 -1.8319  0.3167  0.4634
 3056TIP3   OH2 9108   4.081   6.845   1.053 -0.3797 -0.4360  0.0973
 3056TIP3    H1 9109   4.115   6.837   1.142  0.3012 -1.2116 -0.2251
 3056TIP3    H2 9110   4.010   6.910   1.060 -0.1185 -0.2503  1.1345
 3057TIP3   OH2 9111   7.972   4.854   5.537  0.0465  0.2734  0.4432
 3057TIP3    H1 9112   7.895   4.835   5.483 -1.1222  1.3964  1.6549
 3057TIP3    H2 9113   8.041   4.801   5.498 -0.8849  0.5559 -1.7659
 3058TIP3   OH2 9114   4.592   3.951   3.294  0.1179  0.9281  0.9116
 3058TIP3    H1 9115   4.550   3.885   3.349  0.5978  0.5291  0.8069
 3058TIP3    H2 9116   4.619   3.903   3.216 -0.6366  1.5021  0.2752
 3059TIP3   OH2 9117   4.456   7.857   0.345 -0.4736 -0.3730 -0.0929
 3059TIP3    H1 9118   4.369   7.889   0.371 -0.7399 -1.2110  0.0592
 3059TIP3    H2 9119   4.500   7.935   0.310 -1.7394 -0.1973 -1.3952
 3060TIP3   OH2 9120   7.629   6.547   2.210 -0.4565  0.5643  0.0585
 3060TIP3    H1 9121   7.722   6.539   2.231 -0.3138  0.0172 -0.7278
 3060TIP3    H2 9122   7.623   6.525   2.117 -1.6441 -1.5481  0.5734
 3061TIP3   OH2 9123   6.997   3.962   6.771  0.2357  0.9554 -0.0593
 3061TIP3    H1 9124   6.903   3.948   6.761  0.0834  0.1299  2.1019
 3061TIP3    H2 9125   7.035   3.874   6.766  0.8497  1.2272 -0.3043
 3062TIP3   OH2 9126   5.047   4.289   6.126  0.3540 -0.0855 -0.0579
 3062TIP3    H1 9127   5.006   4.375   6.121  0.3818 -0.1328 -3.0108
 3062TIP3    H2 9128   4.976   4.230   6.152 -0.3285  0.4791 -0.5951
 3063TIP3   OH2 9129   0.839   4.139   2.415  0.0279 -0.2522 -0.3526
 3063TIP3    H1 9130   0.884   4.055   2.403  1.0663  0.1969  0.3255
 3063TIP3    H2 9131   0.768   4.119   2.477 -0.1481 -0.7596 -0.7034
 3064TIP3   OH2 9132   0.949   6.032   1.534 -0.2236 -0.1375  0.4778
 3064TIP3    H1 9133   0.995   6.082   1.601  1.2641 -0.3108 -0.3521
 3064TIP3    H2 9134   0.877   6.089   1.506 -0.3360  0.2889  1.5956
 3065TIP3   OH2 9135   5.838   4.203   1.573  0.1777  0.3054 -0.5673
 3065TIP3    H1 9136   5.754   4.207   1.526  0.5166  2.1921 -1.0907
 3065TIP3    H2 9137   5.842   4.285   1.622  1.5058  0.0085 -0.1365
 3066TIP3   OH2 9138   4.175   1.396   4.223  0.0704 -0.3284  0.2900
 3066TIP3    H1 9139   4.180   1.424   4.131  2.3395  0.2058  0.5365
 3066TIP3    H2 9140   4.130   1.312   4.219 -2.8879  1.1452 -0.9331
 3067TIP3   OH2 9141   2.103   4.779   0.077 -0.2785 -0.2681 -0.3056
 3067TIP3    H1 9142   2.076   4.805  -0.010  0.1877 -0.5604 -0.5424
 3067TIP3    H2 9143   2.174   4.839   0.099 -0.8768  0.2772  0.1734
 3068TIP3   OH2 9144   7.379   2.993   0.088  0.3385 -0.0683  0.1922
 3068TIP3    H1 9145   7.349   3.078   0.121  1.6138 -0.0456  1.3636
 3068TIP3    H2 9146   7.394   2.941   0.166 -1.1530 -1.6750 -0.5303
 3069TIP3   OH2 9147   6.967   2.587   4.620 -0.1062  0.4944  0.1850
 3069TIP3    H1 9148   6.928   2.672   4.638 -1.7289 -0.6802  2.7486
 3069TIP3    H2 9149   6.924   2.558   4.539 -0.8290  1.3870  0.2297
 3070TIP3   OH2 9150   3.650   4.110   1.920  0.1640 -0.1876  0.0522
 3070TIP3    H1 9151   3.654   4.189   1.975 -1.0482  0.3239 -0.5606
 3070TIP3    H2 9152   3.615   4.140   1.837  1.0546 -1.1381 -0.6962
 3071TIP3   OH2 9153   4.221   4.458   6.306 -0.4598 -0.6197  0.2270
 3071TIP3    H1 9154   4.183   4.432   6.222  1.0886 -0.6239 -0.5056
 3071TIP3    H2 9155   4.224   4.553   6.303  1.0732 -0.6615 -0.4415
 3072TIP3   OH2 9156   2.988   1.885   5.453 -0.3564 -0.1962  0.3111
 3072TIP3    H1 9157   2.913   1.907   5.508  0.3682  1.4825  0.6888
 3072TIP3    H2 9158   2.975   1.793   5.431 -2.4218 -0.0104  0.5169
 3073TIP3   OH2 9159   4.179   4.875   0.221  0.1305 -0.6820 -0.1181
 3073TIP3    H1 9160   4.131   4.932   0.162  0.3678  0.2279  0.5394
 3073TIP3    H2 9161   4.166   4.914   0.308 -0.4974 -2.1705  0.4932
 3074TIP3   OH2 9162   8.112   1.954   1.484 -0.4795  0.2537 -0.0044
 3074TIP3    H1 9163   8.094   1.905   1.564  1.0157 -1.8836 -0.8686
 3074TIP3    H2 9164   8.063   2.036   1.493 -2.9897 -1.3048  1.6288
 3075TIP3   OH2 9165   4.596   3.984   1.773  0.3355 -0.1081  0.3154
 3075TIP3    H1 9166   4.644   4.064   1.796  0.9435 -1.1179  2.8812
 3075TIP3    H2 9167   4.517   3.987   1.826  0.2059 -1.0620  0.1924
 3076TIP3   OH2 9168   2.773   2.279   0.705 -0.1625  0.2091  0.4657
 3076TIP3    H1 9169   2.740   2.321   0.626  0.7933  0.0687 -0.0234
 3076TIP3    H2 9170   2.834   2.212   0.673  1.6040  1.3260  1.3401
 3077TIP3   OH2 9171   7.298   6.673   3.540  0.1011 -0.4472  0.0328
 3077TIP3    H1 9172   7.256   6.711   3.462 -0.1023  1.9211  1.2301
 3077TIP3    H2 9173   7.226   6.633   3.588 -0.1794  0.1964  0.1631
 3078TIP3   OH2 9174   5.318   4.252   3.333 -0.3519  0.0613 -0.4932
 3078TIP3    H1 9175   5.275   4.228   3.415 -0.8700 -2.0444 -1.3205
 3078TIP3    H2 9176   5.247   4.258   3.269  0.0639  1.5210 -0.8667
 3079TIP3   OH2 9177   5.939   7.906   2.219 -0.1577 -0.7701  0.4072
 3079TIP3    H1 9178   5.943   7.846   2.145  2.4203 -1.3474  0.9188
 3079TIP3    H2 9179   5.976   7.988   2.187  1.0027 -1.0311  1.0266
 3080TIP3   OH2 9180   6.153   6.141   2.884 -0.3517  0.1365 -0.3187
 3080TIP3    H1 9181   6.120   6.051   2.887 -1.4394  0.5522  2.1217
 3080TIP3    H2 9182   6.074   6.195   2.877 -0.0060  0.9895  1.6847
 3081TIP3   OH2 9183   7.127   2.650   6.829 -0.8920  0.5096  0.2734
 3081TIP3    H1 9184   7.218   2.653   6.800 -1.0021  1.2178 -0.0262
 3081TIP3    H2 9185   7.109   2.558   6.845 -0.9609 -0.0144 -2.3503
 3082TIP3   OH2 9186   2.031   7.815   3.040  0.4409 -0.0317  0.6922
 3082TIP3    H1 9187   2.082   7.734   3.037  0.4730 -0.0362  1.2540
 3082TIP3    H2 9188   1.990   7.815   3.126  3.1326  2.1717  2.1475
 3083TIP3   OH2 9189   3.416   2.624   0.673  0.1949 -0.0932 -0.2670
 3083TIP3    H1 9190   3.494   2.677   0.692  0.3832  0.5447 -2.4784
 3083TIP3    H2 9191   3.429   2.595   0.583 -0.9179 -2.2035  0.1943
 3084TIP3   OH2 9192   3.036   6.862   1.013 -0.2556 -0.2556 -0.1118
 3084TIP3    H1 9193   3.096   6.862   1.088  0.6983  1.1455 -0.8277
 3084TIP3    H2 9194   2.978   6.937   1.028 -0.7926 -0.6368 -0.2321
 3085TIP3   OH2 9195   0.842   5.625   6.540 -0.5789  0.2303  0.2136
 3085TIP3    H1 9196   0.828   5.558   6.606  0.3157  0.3733  0.5671
 3085TIP3    H2 9197   0.918   5.594   6.491 -1.2260  0.1289 -0.7548
 3086TIP3   OH2 9198   4.199   1.520   4.472 -0.0402 -0.1450 -0.0444
 3086TIP3    H1 9199   4.217   1.473   4.391  1.2171  2.1579 -1.2103
 3086TIP3    H2 9200   4.118   1.568   4.454 -0.1203 -0.1338  0.3272
 3087TIP3   OH2 9201   5.070   1.424   4.002  0.4547  0.1816 -0.6981
 3087TIP3    H1 9202   5.000   1.370   3.967 -0.7450  0.8395  0.5599
 3087TIP3    H2 9203   5.150   1.389   3.964 -0.5419 -0.7059 -2.0295
 3088TIP3   OH2 9204   0.941   2.403   0.881 -0.2354 -0.4956  0.2713
 3088TIP3    H1 9205   0.853   2.426   0.909 -1.0521 -1.4027 -1.3884
 3088TIP3    H2 9206   0.933   2.314   0.847  1.3998 -0.7268  0.4133
 3089TIP3   OH2 9207   4.802   1.495   4.586 -0.3147  0.1959 -0.3497
 3089TIP3    H1 9208   4.827   1.485   4.494 -0.3569  1.4259 -0.5019
 3089TIP3    H2 9209   4.706   1.486   4.585 -0.2736 -0.2877 -0.3469
 3090TIP3   OH2 9210   0.533   3.617   4.465 -0.4017 -0.0504 -0.1202
 3090TIP3    H1 9211   0.476   3.682   4.506 -0.2588  0.3744 -0.5831
 3090TIP3    H2 9212   0.473   3.550   4.432 -0.5539 -0.1236  0.2982
 3091TIP3   OH2 9213   2.111   3.642   4.740  0.2654  0.3977 -0.9253
 3091TIP3    H1 9214   2.206   3.633   4.735  0.2777 -1.6935  1.3196
 3091TIP3    H2 9215   2.077   3.564   4.695 -0.2733 -0.3780  0.7595
 3092TIP3   OH2 9216   4.182   7.197   0.282 -0.3503 -0.0827 -0.1077
 3092TIP3    H1 9217   4.212   7.154   0.202  1.0535 -2.0832  1.3787
 3092TIP3    H2 9218   4.118   7.136   0.320  0.5006 -0.1627  1.2774
 3093TIP3   OH2 9219   5.365   7.081   0.521 -0.0287  0.2680  0.3569
 3093TIP3    H1 9220   5.291   7.113   0.469  1.8094  1.9659 -1.4069
 3093TIP3    H2 9221   5.376   6.990   0.495 -0.8102  0.3146 -0.1658
 3094TIP3   OH2 9222   0.961   3.679   6.378  0.5057 -0.2731  0.1179
 3094TIP3    H1 9223   0.894   3.663   6.444  1.5522 -0.0609  1.2809
 3094TIP3    H2 9224   0.917   3.665   6.294 -0.9031 -0.3818  0.8527
 3095TIP3   OH2 9225   4.811   5.951   0.752 -0.2444  0.2475 -0.2205
 3095TIP3    H1 9226   4.832   5.877   0.695 -1.1182  0.1558 -0.4402
 3095TIP3    H2 9227   4.736   5.921   0.804  0.3620  0.4304  0.7860
 3096TIP3   OH2 9228   5.606   2.660   5.510  0.1461  0.8963 -0.0593
 3096TIP3    H1 9229   5.588   2.572   5.543  1.7878  1.1224  1.6116
 3096TIP3    H2 9230   5.520   2.699   5.498 -0.6004 -0.7936 -0.4341
 3097TIP3   OH2 9231   6.670   3.266   0.445 -0.5342  0.3065  0.7859
 3097TIP3    H1 9232   6.761   3.295   0.436 -0.1477 -0.8273  0.8718
 3097TIP3    H2 9233   6.650   3.223   0.362 -0.7043 -0.2022  1.0889
 3098TIP3   OH2 9234   4.051   3.448   3.672  0.1197  0.1782 -0.1946
 3098TIP3    H1 9235   4.033   3.517   3.736 -0.8796  0.3949 -0.6893
 3098TIP3    H2 9236   4.139   3.466   3.642  0.2214  0.6738  0.3794
 3099TIP3   OH2 9237   5.866   4.138   4.887 -0.0710  0.2636  0.5023
 3099TIP3    H1 9238   5.958   4.141   4.859  0.0331  0.0240  0.8117
 3099TIP3    H2 9239   5.837   4.049   4.865 -0.0843  0.1799  0.8444
 3100TIP3   OH2 9240   3.251   2.415   0.715  0.2472 -0.0184  0.5710
 3100TIP3    H1 9241   3.316   2.485   0.723 -0.0719  0.3788 -0.1547
 3100TIP3    H2 9242   3.251   2.394   0.621  1.7225 -2.3365  1.0274
 3101TIP3   OH2 9243   6.411   0.362   0.648  0.0268 -0.0419 -0.1409
 3101TIP3    H1 9244   6.352   0.393   0.579  0.0525 -0.7769 -0.5060
 3101TIP3    H2 9245   6.383   0.272   0.664  0.4996 -0.1159  0.2928
 3102TIP3   OH2 9246   3.190   0.820   2.417 -0.2044  0.1556  0.1009
 3102TIP3    H1 9247   3.161   0.744   2.467  2.0217 -0.0233  1.2105
 3102TIP3    H2 9248   3.258   0.787   2.359  1.1004  1.3447  0.9008
 3103TIP3   OH2 9249   1.961   1.315   3.080 -0.3828 -0.3195  0.2810
 3103TIP3    H1 9250   1.873   1.283   3.060 -0.1784  0.3930 -2.0856
 3103TIP3    H2 9251   1.998   1.336   2.995  1.0075  2.2107  1.4155
 3104TIP3   OH2 9252   4.261   1.201   0.136 -0.0102 -0.3391 -0.0933
 3104TIP3    H1 9253   4.234   1.121   0.180  0.3162 -0.8439 -0.7922
 3104TIP3    H2 9254   4.347   1.220   0.171  0.1944 -0.6702 -0.4019
 3105TIP3   OH2 9255   6.804   1.810   0.413 -0.2297 -0.5374  0.1944
 3105TIP3    H1 9256   6.749   1.857   0.349  0.2354  1.3753  1.1380
 3105TIP3    H2 9257   6.836   1.878   0.472  1.8425 -1.8411  0.6631
 3106TIP3   OH2 9258   0.487   4.819   5.898  0.0063  0.0786 -0.1088
 3106TIP3    H1 9259   0.487   4.880   5.972 -0.4848  1.7051 -1.3731
 3106TIP3    H2 9260   0.576   4.826   5.861 -0.0918  0.1249 -0.3365
 3107TIP3   OH2 9261   7.598   5.876   1.534 -0.3565  0.5868 -0.0156
 3107TIP3    H1 9262   7.624   5.794   1.575  1.0277  1.6386  1.3372
 3107TIP3    H2 9263   7.514   5.857   1.493 -0.0252 -1.5142  0.1774
 3108TIP3   OH2 9264   1.555   7.217   1.474  0.0189 -0.4862  0.2505
 3108TIP3    H1 9265   1.567   7.174   1.559 -1.4121 -0.3063  0.5718
 3108TIP3    H2 9266   1.492   7.287   1.491  0.1342 -0.0936 -0.8527
 3109TIP3   OH2 9267   3.136   4.276   4.842  0.3538  0.2415 -0.2725
 3109TIP3    H1 9268   3.047   4.305   4.861 -0.8634 -1.3195 -2.9617
 3109TIP3    H2 9269   3.167   4.237   4.924 -1.5164  0.6052  0.6661
 3110TIP3   OH2 9270   2.992   2.591   1.092  0.3103  0.6432  0.1264
 3110TIP3    H1 9271   3.029   2.568   1.177  1.1907 -1.8809 -0.8458
 3110TIP3    H2 9272   2.992   2.509   1.043  1.5812  2.3299 -2.9634
 3111TIP3   OH2 9273   1.879   2.388   4.253  0.7863  0.3326  0.0897
 3111TIP3    H1 9274   1.852   2.407   4.342  1.4517  1.6711  0.0364
 3111TIP3    H2 9275   1.880   2.473   4.209 -0.6757 -0.4378 -1.5466
 3112TIP3   OH2 9276   1.027   5.759   6.164 -0.3067 -1.0259 -0.2185
 3112TIP3    H1 9277   0.932   5.748   6.174 -0.8055  0.3580 -2.7194
 3112TIP3    H2 9278   1.041   5.769   6.070  2.3016 -0.8342  0.1134
 3113TIP3   OH2 9279   2.283   4.162   6.483  0.1968  0.3659 -0.1231
 3113TIP3    H1 9280   2.248   4.213   6.411 -1.0425  2.7317  1.9952
 3113TIP3    H2 9281   2.333   4.225   6.535 -0.7465 -0.7013  2.2266
 3114TIP3   OH2 9282   0.757   3.569   4.307 -0.4795  0.4522  0.3093
 3114TIP3    H1 9283   0.692   3.620   4.356 -1.0080  0.8331 -0.7481
 3114TIP3    H2 9284   0.705   3.518   4.245  0.0247 -1.5737  1.4727
 3115TIP3   OH2 9285   6.621   5.411   1.941  0.1329 -0.7469  0.0463
 3115TIP3    H1 9286   6.627   5.424   1.847  1.0935  1.9537  0.4068
 3115TIP3    H2 9287   6.612   5.316   1.951 -2.1325 -0.9825 -2.8189
 3116TIP3   OH2 9288   4.298   2.016   6.131 -0.2802  0.3065 -0.1004
 3116TIP3    H1 9289   4.377   2.020   6.185  1.2517 -3.3562 -1.6921
 3116TIP3    H2 9290   4.304   2.093   6.074  0.3646  1.8429  1.9466
 3117TIP3   OH2 9291   3.493   2.220   5.426 -0.1054  0.2466 -0.0357
 3117TIP3    H1 9292   3.406   2.260   5.422 -0.7636 -1.1515 -0.1792
 3117TIP3    H2 9293   3.483   2.137   5.380  0.4900 -1.3809  2.6198
 3118TIP3   OH2 9294   5.251   7.560   1.868 -0.0088 -0.3642  0.2933
 3118TIP3    H1 9295   5.305   7.515   1.932 -0.5781  0.3025  1.2718
 3118TIP3    H2 9296   5.220   7.491   1.810 -3.1189 -1.8340  3.3498
 3119TIP3   OH2 9297   8.032   1.625   1.172  0.3840  0.6434  0.1531
 3119TIP3    H1 9298   7.976   1.556   1.209 -1.0117  0.9983 -1.1533
 3119TIP3    H2 9299   8.117   1.613   1.214 -0.0031 -1.4655  0.4345
 3120TIP3   OH2 9300   4.752   6.339   1.828  0.2938  0.4125 -0.1211
 3120TIP3    H1 9301   4.710   6.254   1.839  1.0545  0.1428  0.7320
 3120TIP3    H2 9302   4.719   6.392   1.901  0.2827  0.6703 -0.3097
 3121TIP3   OH2 9303   5.052   1.772   0.516  0.9551 -0.1603  0.7081
 3121TIP3    H1 9304   4.980   1.776   0.578 -0.2990 -0.4561 -0.6825
 3121TIP3    H2 9305   5.099   1.691   0.540  0.0967 -0.6254  0.8560
 3122TIP3   OH2 9306   7.944   2.614   0.551 -0.2142 -0.0543 -0.4713
 3122TIP3    H1 9307   8.004   2.541   0.539 -0.1600  0.0817 -1.0782
 3122TIP3    H2 9308   7.867   2.590   0.499 -1.0957 -0.6620  1.0337
 3123TIP3   OH2 9309   1.327   7.523   0.050  0.2511 -0.3017 -0.2327
 3123TIP3    H1 9310   1.379   7.569  -0.016  0.3242  2.0143  1.3242
 3123TIP3    H2 9311   1.374   7.538   0.132 -0.8993 -1.3806  0.6644
 3124TIP3   OH2 9312   5.374   3.093   2.909 -0.1346  0.2681 -0.2018
 3124TIP3    H1 9313   5.387   3.064   3.000 -1.2181  1.4070  0.3369
 3124TIP3    H2 9314   5.462   3.092   2.872  1.3549  4.7817  2.4189
 3125TIP3   OH2 9315   0.038   2.941   2.555 -0.0832 -0.6963  0.3354
 3125TIP3    H1 9316   0.070   2.874   2.495  0.3394  0.2307 -0.4968
 3125TIP3    H2 9317  -0.024   2.993   2.503  0.4730  0.2724  0.6016
 3126TIP3   OH2 9318   3.049   1.901   2.235 -0.8082 -0.3633  0.6080
 3126TIP3    H1 9319   3.108   1.914   2.309 -0.8644 -0.5950  0.6929
 3126TIP3    H2 9320   2.995   1.980   2.233 -1.1815 -0.5992  1.1521
 3127TIP3   OH2 9321   3.961   7.702   5.750  0.7273 -0.1172  0.2996
 3127TIP3    H1 9322   4.046   7.680   5.711  0.0398 -0.3667 -1.1346
 3127TIP3    H2 9323   3.977   7.783   5.799  1.6395  0.2314 -0.5402
 3128TIP3   OH2 9324   1.598   4.231   1.880  0.0994 -0.1750 -0.6276
 3128TIP3    H1 9325   1.538   4.302   1.902  0.2317 -0.1189 -0.4432
 3128TIP3    H2 9326   1.565   4.196   1.797 -0.7764 -0.7909 -0.0363
 3129TIP3   OH2 9327   2.940   4.853   2.646  0.5016 -0.1566 -0.2371
 3129TIP3    H1 9328   2.892   4.776   2.677 -0.8497  1.2836  1.4397
 3129TIP3    H2 9329   2.902   4.871   2.560 -0.4412 -0.3398  0.1299
 3130TIP3   OH2 9330   0.739   0.093   0.796  0.0531  0.6235  0.3446
 3130TIP3    H1 9331   0.756   0.140   0.714  1.0727 -0.8213 -0.3116
 3130TIP3    H2 9332   0.645   0.079   0.796  0.0497  0.5417 -0.6503
 3131TIP3   OH2 9333   4.309   7.116   6.366  0.0967  0.2685  0.5091
 3131TIP3    H1 9334   4.251   7.181   6.326  0.5402  0.9124  0.8878
 3131TIP3    H2 9335   4.264   7.090   6.446 -0.5296 -0.6085 -0.1148
 3132TIP3   OH2 9336   6.930   6.920   4.617 -0.0345  0.0658  0.1445
 3132TIP3    H1 9337   6.889   6.990   4.566 -0.7071 -0.3191  0.1419
 3132TIP3    H2 9338   6.877   6.842   4.598  0.6700 -0.4337  0.1929
 3133TIP3   OH2 9339   4.308   2.290   2.836  0.0444  0.0862 -0.3629
 3133TIP3    H1 9340   4.398   2.259   2.826 -0.5758 -1.6733 -0.8505
 3133TIP3    H2 9341   4.300   2.308   2.930  0.9676  0.5328 -0.3536
 3134TIP3   OH2 9342   3.073   6.792   4.007  0.0202 -0.0374 -0.4317
 3134TIP3    H1 9343   3.034   6.787   3.920 -1.2451 -1.4402  0.1597
 3134TIP3    H2 9344   3.150   6.735   4.002 -0.6016 -0.9103 -0.4022
 3135TIP3   OH2 9345   5.744   3.311   5.881 -0.8736 -0.0717 -0.0855
 3135TIP3    H1 9346   5.747   3.404   5.859 -0.2883  0.4867  2.0353
 3135TIP3    H2 9347   5.823   3.274   5.842 -0.5673  0.5594 -0.0647
 3136TIP3   OH2 9348   6.510   7.071   3.967  0.1140  0.0156 -0.2339
 3136TIP3    H1 9349   6.579   7.119   4.013  0.0473  0.3023 -0.4336
 3136TIP3    H2 9350   6.450   7.043   4.037  1.0551 -1.2826  0.0833
 3137TIP3   OH2 9351   3.492   5.886   3.520 -0.1252  0.1035 -0.7916
 3137TIP3    H1 9352   3.478   5.891   3.425 -1.6215 -1.1980 -0.6716
 3137TIP3    H2 9353   3.462   5.798   3.544  0.7469  0.2050  0.8252
 3138TIP3   OH2 9354   5.442   2.554   4.398  0.1582 -0.3121  0.2685
 3138TIP3    H1 9355   5.511   2.569   4.334  1.0306 -0.0095  1.2601
 3138TIP3    H2 9356   5.368   2.605   4.365  0.3107 -0.8389 -0.9347
 3139TIP3   OH2 9357   2.545   5.973   4.680 -0.1283  0.6134  0.4190
 3139TIP3    H1 9358   2.590   6.036   4.736  1.5856  0.0997 -0.2957
 3139TIP3    H2 9359   2.494   6.026   4.619 -0.0098  1.2466  0.8639
 3140TIP3   OH2 9360   7.851   4.955   3.770  0.2334  0.3087 -0.0895
 3140TIP3    H1 9361   7.853   5.004   3.852  1.7157  1.0624 -0.5420
 3140TIP3    H2 9362   7.773   4.900   3.777 -0.7820  1.8040  0.9680
 3141TIP3   OH2 9363   5.764   6.072   0.819 -0.0053  0.4977 -0.2345
 3141TIP3    H1 9364   5.851   6.040   0.841 -0.2014 -0.8005 -1.2873
 3141TIP3    H2 9365   5.712   6.057   0.898  0.6076  0.9233  0.2620
 3142TIP3   OH2 9366   4.335   3.545   6.228  0.2034 -0.0958  0.5969
 3142TIP3    H1 9367   4.314   3.452   6.220 -0.1331  0.1087 -1.6484
 3142TIP3    H2 9368   4.261   3.591   6.188 -0.4796  1.2855  3.2527
 3143TIP3   OH2 9369   7.388   4.044   4.024  0.0430 -0.5187  0.1726
 3143TIP3    H1 9370   7.375   3.985   4.098 -1.2283 -0.6562 -0.1362
 3143TIP3    H2 9371   7.401   3.987   3.949 -1.6754 -0.4480 -0.2116
 3144TIP3   OH2 9372   3.364   4.972   4.016  0.1894  0.5469  0.2417
 3144TIP3    H1 9373   3.445   5.001   3.974  0.4643  1.0562  1.0898
 3144TIP3    H2 9374   3.363   4.877   4.006  1.2306  0.4696  0.7938
 3145TIP3   OH2 9375   6.723   0.860   6.296 -0.0310  0.2670 -0.3253
 3145TIP3    H1 9376   6.757   0.919   6.230  0.9432 -0.5502 -0.5738
 3145TIP3    H2 9377   6.628   0.864   6.286  0.1112 -0.7235 -2.5793
 3146TIP3   OH2 9378   3.804   6.834   0.819  0.1271 -0.1357 -0.2530
 3146TIP3    H1 9379   3.812   6.925   0.791  1.6921  0.0556  0.7368
 3146TIP3    H2 9380   3.887   6.794   0.794  0.0097 -0.9299  0.5997
 3147TIP3   OH2 9381   4.866   4.170   2.370  0.5531 -0.5102  0.1620
 3147TIP3    H1 9382   4.888   4.234   2.302  0.8240  0.2012  0.8920
 3147TIP3    H2 9383   4.947   4.120   2.383 -0.1278 -2.2167 -1.6177
 3148TIP3   OH2 9384   8.062   2.980   3.062  0.3625  0.1641 -0.3056
 3148TIP3    H1 9385   8.088   3.069   3.085  3.2296 -0.7628  0.5344
 3148TIP3    H2 9386   8.053   2.982   2.967 -1.1281  1.6525 -0.1760
 3149TIP3   OH2 9387   5.061   5.925   1.854  0.7445  0.2609  0.4462
 3149TIP3    H1 9388   5.036   5.884   1.937  0.5363 -0.3748  0.0751
 3149TIP3    H2 9389   5.028   5.866   1.787  1.4811  0.4393 -0.0853
 3150TIP3   OH2 9390   6.441   2.040   0.560  0.1713  0.0782 -0.1281
 3150TIP3    H1 9391   6.426   1.965   0.617 -3.0404  0.9275  0.2992
 3150TIP3    H2 9392   6.525   2.020   0.517  0.6892 -2.5033  1.8030
 3151TIP3   OH2 9393   1.588   6.937   6.742 -0.2509  0.5889  0.1794
 3151TIP3    H1 9394   1.620   6.974   6.660  2.4293 -0.7889  0.4907
 3151TIP3    H2 9395   1.661   6.946   6.803 -1.4036 -0.3689  1.7902
 3152TIP3   OH2 9396  -0.007   7.234   6.763  0.2882  0.1721  0.6640
 3152TIP3    H1 9397   0.063   7.292   6.736  0.0386  0.2472  0.1789
 3152TIP3    H2 9398  -0.053   7.211   6.682 -0.0032 -0.1921  0.9263
 3153TIP3   OH2 9399   4.070   6.898   5.577  0.5625 -0.1101  0.5141
 3153TIP3    H1 9400   4.120   6.915   5.497 -1.2064  2.2962 -0.1735
 3153TIP3    H2 9401   4.004   6.833   5.551  0.1710  0.4528  0.0896
 3154TIP3   OH2 9402   7.578   6.228   3.095 -0.4599  0.0354 -0.0403
 3154TIP3    H1 9403   7.639   6.262   3.161 -0.7288 -0.5814  0.5442
 3154TIP3    H2 9404   7.628   6.228   3.014 -0.1844  1.0108  0.1077
 3155TIP3   OH2 9405   1.385   4.764   2.854  0.2415 -0.3231 -0.0690
 3155TIP3    H1 9406   1.292   4.769   2.832  0.0292 -0.2056  0.8089
 3155TIP3    H2 9407   1.424   4.716   2.780 -0.2921  0.7195 -1.0599
 3156TIP3   OH2 9408   2.001   2.116   3.171  0.2878  0.1598 -0.3697
 3156TIP3    H1 9409   2.011   2.037   3.119  1.1102 -0.5146  0.7894
 3156TIP3    H2 9410   1.909   2.115   3.198 -0.0024  0.2227 -1.2984
 3157TIP3   OH2 9411   5.070   5.771   2.903  0.1193 -0.0316  0.0965
 3157TIP3    H1 9412   4.974   5.771   2.912  0.0666 -1.3637 -0.2318
 3157TIP3    H2 9413   5.101   5.818   2.980 -0.8306  1.2711 -0.2839
 3158TIP3   OH2 9414   5.560   7.472   5.315 -0.0110  0.4013  0.2642
 3158TIP3    H1 9415   5.597   7.389   5.346  0.9372  0.5162 -0.5118
 3158TIP3    H2 9416   5.502   7.500   5.386  0.5725 -0.3267  1.0573
 3159TIP3   OH2 9417   0.223   1.255   5.169 -0.4030  0.0742 -0.8450
 3159TIP3    H1 9418   0.215   1.328   5.230  1.2735 -0.2172 -0.2047
 3159TIP3    H2 9419   0.245   1.297   5.085  1.7241  0.3120 -0.2270
 3160TIP3   OH2 9420   7.189   4.247   1.164  0.1450 -0.2561 -0.0800
 3160TIP3    H1 9421   7.175   4.246   1.070  1.0504 -1.0611 -0.2195
 3160TIP3    H2 9422   7.125   4.185   1.199 -0.1674  0.0181 -0.1511
 3161TIP3   OH2 9423   5.068   6.640   1.961  0.0406 -0.3090  0.3566
 3161TIP3    H1 9424   5.003   6.692   1.913 -0.4354  0.2429  1.5618
 3161TIP3    H2 9425   5.137   6.703   1.983 -0.2507 -0.3070  1.2978
 3162TIP3   OH2 9426   6.770   1.008   4.614 -0.3641  0.6156  0.1172
 3162TIP3    H1 9427   6.699   0.991   4.676  0.3616 -0.0978  0.7693
 3162TIP3    H2 9428   6.764   0.937   4.550  1.0194 -0.6724  1.3448
 3163TIP3   OH2 9429   6.392   7.406   3.985 -0.1018 -0.6970 -0.7207
 3163TIP3    H1 9430   6.456   7.381   3.918 -0.1773 -0.0325 -1.0518
 3163TIP3    H2 9431   6.333   7.467   3.941 -0.8610 -1.1675 -0.3644
 3164TIP3   OH2 9432   8.247   3.104   2.344  0.0469  0.4785 -0.2707
 3164TIP3    H1 9433   8.308   3.091   2.272  0.2406 -2.2297  0.2910
 3164TIP3    H2 9434   8.165   3.066   2.314 -0.1502  0.2268  0.5481
 3165TIP3   OH2 9435   0.242   0.251   3.169 -0.3224 -0.7039  0.4535
 3165TIP3    H1 9436   0.220   0.192   3.097  1.9876 -1.3651  0.2100
 3165TIP3    H2 9437   0.204   0.335   3.145 -3.1000 -1.8509  0.4693
 3166TIP3   OH2 9438   7.188   4.729   2.121  0.0496 -0.0227 -0.1804
 3166TIP3    H1 9439   7.271   4.777   2.115 -0.1188  0.3514  0.3876
 3166TIP3    H2 9440   7.205   4.645   2.080  0.9901 -0.3125  0.7761
 3167TIP3   OH2 9441   7.767   1.912   1.702  0.0653 -0.0576  0.5507
 3167TIP3    H1 9442   7.785   2.004   1.683  1.6624 -0.4573 -0.0352
 3167TIP3    H2 9443   7.854   1.872   1.714 -0.6056 -1.4167  1.1431
 3168TIP3   OH2 9444   1.326   4.552   0.516 -0.1182  0.2774  0.3863
 3168TIP3    H1 9445   1.246   4.597   0.544 -0.6024 -1.1341  1.3552
 3168TIP3    H2 9446   1.306   4.459   0.526  0.3392 -0.3070 -2.8788
 3169TIP3   OH2 9447   8.340   3.037   6.836 -0.0482  0.0041  0.1338
 3169TIP3    H1 9448   8.351   3.100   6.906  0.3880  0.0480  0.0275
 3169TIP3    H2 9449   8.408   3.059   6.773  1.1942 -1.5742  0.8492
 3170TIP3   OH2 9450   2.877   3.854   0.084  0.3842 -0.2019 -0.1684
 3170TIP3    H1 9451   2.905   3.781   0.139  1.4658 -0.6571 -1.2637
 3170TIP3    H2 9452   2.800   3.889   0.127 -0.6974 -2.5500 -0.0555
 3171TIP3   OH2 9453   5.312   0.483   0.282 -0.7562 -0.5485  0.4969
 3171TIP3    H1 9454   5.369   0.546   0.237 -1.5421 -0.3065 -0.2089
 3171TIP3    H2 9455   5.369   0.409   0.302 -0.3961 -0.7690 -1.1334
 3172TIP3   OH2 9456   7.297   3.411   2.616  0.4134 -0.1508 -0.0901
 3172TIP3    H1 9457   7.211   3.377   2.591  0.5383 -1.3763  1.0641
 3172TIP3    H2 9458   7.359   3.349   2.578  0.8961  1.2622 -1.7854
 3173TIP3   OH2 9459   0.852   4.744   0.189  0.1950 -0.2149 -0.2388
 3173TIP3    H1 9460   0.855   4.793   0.107  2.3298  0.1015 -0.0397
 3173TIP3    H2 9461   0.856   4.811   0.257  0.1512 -0.5486  0.0945
 3174TIP3   OH2 9462   7.382   2.896   5.325 -0.1602  0.6881  0.6086
 3174TIP3    H1 9463   7.476   2.878   5.328 -0.4732 -1.0120  1.1401
 3174TIP3    H2 9464   7.374   2.973   5.268  1.2715 -1.3075 -2.5734
 3175TIP3   OH2 9465   3.590   4.412   2.403 -0.3955 -0.3468 -0.1768
 3175TIP3    H1 9466   3.622   4.501   2.384  0.3815 -0.9621 -1.9092
 3175TIP3    H2 9467   3.496   4.417   2.386 -0.3439  0.1220 -0.3548
 3176TIP3   OH2 9468   5.037   7.279   3.181  0.7000 -0.4064 -0.4537
 3176TIP3    H1 9469   5.101   7.299   3.113 -0.3935 -1.5412 -1.8748
 3176TIP3    H2 9470   4.952   7.284   3.137 -0.2324  0.9196  1.3518
 3177TIP3   OH2 9471   0.216   2.120   5.439 -0.1857  0.3763 -0.8141
 3177TIP3    H1 9472   0.175   2.194   5.484 -1.2808  0.6298 -2.1950
 3177TIP3    H2 9473   0.202   2.046   5.499 -2.3597  0.5313 -1.0681
 3178TIP3   OH2 9474   4.622   1.964   1.928  0.0839 -0.2612  0.4287
 3178TIP3    H1 9475   4.576   1.880   1.935  0.5439 -0.4515  1.3123
 3178TIP3    H2 9476   4.708   1.947   1.965  0.7250  0.2049 -0.8123
 3179TIP3   OH2 9477   1.307   0.869   3.417  0.0674  0.3647  0.5126
 3179TIP3    H1 9478   1.337   0.840   3.503  0.1438 -0.0585  0.3482
 3179TIP3    H2 9479   1.268   0.955   3.432 -0.0324  0.2366  0.9904
 3180TIP3   OH2 9480   2.699   1.391   4.393  0.0329 -0.3498  0.5419
 3180TIP3    H1 9481   2.636   1.414   4.325  0.2241  2.0068  1.0949
 3180TIP3    H2 9482   2.651   1.402   4.475  0.4044 -1.1546  0.8770
 3181TIP3   OH2 9483   2.487   2.806   1.887 -0.7760 -0.1163  0.3783
 3181TIP3    H1 9484   2.412   2.747   1.876 -0.0418 -0.8249 -1.1650
 3181TIP3    H2 9485   2.548   2.780   1.818  1.9154 -1.0635  2.9652
 3182TIP3   OH2 9486   6.692   7.188   0.623  0.4163  0.6624  0.3900
 3182TIP3    H1 9487   6.653   7.114   0.670  0.2812 -0.6983 -1.7268
 3182TIP3    H2 9488   6.773   7.153   0.586  0.2244  1.4613 -0.8694
 3183TIP3   OH2 9489   2.121   1.332   2.657 -0.1836 -0.2055  0.5617
 3183TIP3    H1 9490   2.090   1.306   2.570  0.1169  1.6843 -0.1672
 3183TIP3    H2 9491   2.103   1.257   2.713 -1.4001 -1.0509 -0.9021
 3184TIP3   OH2 9492   4.559   5.542   1.117 -0.4769  0.3228 -0.1698
 3184TIP3    H1 9493   4.632   5.511   1.171 -0.8023 -2.6900 -1.2631
 3184TIP3    H2 9494   4.483   5.538   1.175 -0.6645 -2.0009 -0.4795
 3185TIP3   OH2 9495   8.264   4.475   0.628 -0.2425 -0.1629  0.2867
 3185TIP3    H1 9496   8.275   4.403   0.690 -0.4419  0.1458  0.6882
 3185TIP3    H2 9497   8.223   4.435   0.552 -1.9038 -0.1808  1.1494
 3186TIP3   OH2 9498   5.236   6.191   1.474  0.3243 -0.4694  0.2227
 3186TIP3    H1 9499   5.234   6.286   1.475 -3.1898 -0.4105  1.3736
 3186TIP3    H2 9500   5.319   6.168   1.516  3.1286  1.8715 -3.3734
 3187TIP3   OH2 9501   5.788   4.901   4.620 -0.5969 -0.3354  0.3775
 3187TIP3    H1 9502   5.856   4.876   4.557 -2.5927 -0.5157 -1.8692
 3187TIP3    H2 9503   5.830   4.894   4.706  2.3524  0.2105 -0.9312
 3188TIP3   OH2 9504   2.116   7.502   3.853 -0.0443 -0.9643 -0.2251
 3188TIP3    H1 9505   2.211   7.507   3.844  0.0165 -0.8126  0.4449
 3188TIP3    H2 9506   2.082   7.569   3.794  0.3338  0.0124  0.6407
 3189TIP3   OH2 9507   7.156   2.783   6.104 -0.1268 -0.0913 -0.1350
 3189TIP3    H1 9508   7.114   2.731   6.173 -2.4503  0.1734 -1.2573
 3189TIP3    H2 9509   7.107   2.865   6.103  0.6198  0.3569 -1.3313
 3190TIP3   OH2 9510   1.269   5.500   1.589  0.1015 -0.4661 -0.0241
 3190TIP3    H1 9511   1.260   5.593   1.613  0.5403 -1.0216  2.6729
 3190TIP3    H2 9512   1.195   5.457   1.631  0.1517 -1.4007 -0.8699
 3191TIP3   OH2 9513   7.396   7.001   6.640 -0.2071  0.0954 -0.4846
 3191TIP3    H1 9514   7.475   7.054   6.651 -0.0061  0.1246 -1.8331
 3191TIP3    H2 9515   7.381   7.001   6.545 -1.5031 -0.3818 -0.2972
 3192TIP3   OH2 9516   4.819   3.238   3.121  0.3898 -0.0247 -0.5111
 3192TIP3    H1 9517   4.751   3.191   3.171 -0.4968  0.0590 -1.6111
 3192TIP3    H2 9518   4.839   3.314   3.175  1.3908 -1.3027  1.0068
 3193TIP3   OH2 9519   5.036   1.319   0.119  0.1631  0.0702  0.2025
 3193TIP3    H1 9520   5.075   1.304   0.205  0.4935  0.1584  0.0683
 3193TIP3    H2 9521   5.084   1.261   0.060 -0.2789 -0.2260  0.1327
 3194TIP3   OH2 9522   6.016   4.829   3.613 -0.4033  0.1999 -0.2743
 3194TIP3    H1 9523   6.072   4.782   3.551 -1.5192 -1.7486  0.1079
 3194TIP3    H2 9524   6.049   4.919   3.611  0.7826 -0.2054 -2.2796
 3195TIP3   OH2 9525   1.128   1.743   1.945 -0.0418  0.8356 -0.5680
 3195TIP3    H1 9526   1.042   1.779   1.924  0.0109  0.4932 -1.4508
 3195TIP3    H2 9527   1.110   1.650   1.964 -0.4253  1.5604  3.3881
 3196TIP3   OH2 9528   6.561   3.802   2.920  0.0425  0.6160 -0.1974
 3196TIP3    H1 9529   6.513   3.747   2.858  0.5181  1.3104 -1.1967
 3196TIP3    H2 9530   6.614   3.860   2.866  2.2467 -0.2774  0.8547
 3197TIP3   OH2 9531   2.436   5.911   4.122  0.3779 -0.2824  0.3023
 3197TIP3    H1 9532   2.459   5.818   4.123 -0.3334 -0.4756  1.9622
 3197TIP3    H2 9533   2.348   5.913   4.082  1.4145  0.0072 -2.1434
 3198TIP3   OH2 9534   1.675   5.376   3.475 -0.3939  0.4240  0.3691
 3198TIP3    H1 9535   1.687   5.413   3.387  0.2467 -1.5719 -0.4397
 3198TIP3    H2 9536   1.605   5.312   3.465  0.7845 -0.9974  0.9109
 3199TIP3   OH2 9537   1.557   1.943   0.978 -0.1428 -0.6635 -0.4282
 3199TIP3    H1 9538   1.603   1.900   0.905 -0.9711 -2.1959 -0.0898
 3199TIP3    H2 9539   1.488   1.881   1.002 -1.7050  1.0818 -0.1933
 3200TIP3   OH2 9540   3.800   7.462   0.318  0.1414 -0.3384 -0.3045
 3200TIP3    H1 9541   3.721   7.495   0.359  1.5283  3.3847 -0.2936
 3200TIP3    H2 9542   3.854   7.431   0.391  0.4033  1.1943  0.1812
 3201TIP3   OH2 9543   2.466   6.112   6.764 -0.1629 -0.5213 -0.0956
 3201TIP3    H1 9544   2.505   6.074   6.843  0.1045 -0.5477 -0.2374
 3201TIP3    H2 9545   2.373   6.115   6.782  0.0329  0.8862  0.8362
 3202TIP3   OH2 9546   8.359   2.733   6.306  0.0631  0.2203 -0.3386
 3202TIP3    H1 9547   8.282   2.677   6.317  0.3546 -0.5027 -1.6926
 3202TIP3    H2 9548   8.323   2.821   6.293 -0.5881 -0.1815 -1.4268
 3203TIP3   OH2 9549   1.955   4.861   5.055  0.4595 -0.0850 -0.6062
 3203TIP3    H1 9550   1.927   4.890   5.142 -0.6968 -0.2218 -0.9170
 3203TIP3    H2 9551   2.037   4.815   5.071  0.2582 -0.1200  0.4157
 3204TIP3   OH2 9552   5.569   7.156   2.696 -0.0527 -0.4823  0.1617
 3204TIP3    H1 9553   5.582   7.246   2.725  1.4619 -0.6653  0.1037
 3204TIP3    H2 9554   5.606   7.102   2.766 -0.9544 -1.0722  0.2014
 3205TIP3   OH2 9555   3.070   7.161   3.877 -0.0020 -0.1157 -0.3070
 3205TIP3    H1 9556   3.108   7.099   3.815  0.2633  0.2449 -0.5116
 3205TIP3    H2 9557   2.983   7.126   3.895  0.7627 -1.4917  0.9360
 3206TIP3   OH2 9558   3.785   7.127   0.198 -0.6716 -0.6119 -0.0622
 3206TIP3    H1 9559   3.845   7.189   0.154 -2.4635  0.8848 -0.5164
 3206TIP3    H2 9560   3.831   7.043   0.194  1.5234  0.5131 -0.1273
 3207TIP3   OH2 9561   4.586   3.440   5.297 -0.4431 -0.2330 -0.6102
 3207TIP3    H1 9562   4.518   3.420   5.362 -0.4161 -1.5004 -0.9365
 3207TIP3    H2 9563   4.554   3.399   5.216  0.3086 -0.1033 -0.9837
 3208TIP3   OH2 9564   3.895   0.887   0.424  0.1505 -0.2928  0.0387
 3208TIP3    H1 9565   3.881   0.903   0.518  0.1661 -0.3559  0.0524
 3208TIP3    H2 9566   3.811   0.851   0.394  0.0355  0.0496 -0.0461
 3209TIP3   OH2 9567   7.347   0.641   2.333 -0.6105  0.1043  0.0309
 3209TIP3    H1 9568   7.316   0.718   2.286 -2.5420 -0.2647  0.5708
 3209TIP3    H2 9569   7.391   0.676   2.411 -1.3320  0.6827  0.1914
 3210TIP3   OH2 9570   2.077   7.371   0.669  0.2144  0.4233 -0.0891
 3210TIP3    H1 9571   2.032   7.431   0.609 -0.4720 -0.7373 -0.7589
 3210TIP3    H2 9572   2.102   7.427   0.743  0.2972  1.7048 -1.0373
 3211TIP3   OH2 9573   8.141   5.870   6.674 -0.2537 -0.4130  0.4180
 3211TIP3    H1 9574   8.089   5.815   6.732 -1.1311  0.6270  0.6513
 3211TIP3    H2 9575   8.101   5.957   6.681  0.9604  0.2184 -0.0847
 3212TIP3   OH2 9576   6.068   7.469   6.613 -0.2793  0.2978 -0.0043
 3212TIP3    H1 9577   6.104   7.534   6.673 -1.8928  1.9868 -0.7894
 3212TIP3    H2 9578   6.000   7.424   6.663 -1.2066  1.2911 -0.3389
 3213TIP3   OH2 9579   1.351   3.266   5.444  0.1124 -0.1288  0.5046
 3213TIP3    H1 9580   1.360   3.255   5.349 -0.2766  1.4131  0.2673
 3213TIP3    H2 9581   1.257   3.274   5.459  0.0031 -2.2808  1.2915
 3214TIP3   OH2 9582   4.520   6.142   4.287  0.2520  0.3880  0.0578
 3214TIP3    H1 9583   4.532   6.142   4.382 -1.8044 -0.7636  0.3759
 3214TIP3    H2 9584   4.491   6.053   4.266 -1.1453  1.1098 -1.3618
 3215TIP3   OH2 9585   4.365   4.216   1.907  0.1473  0.6977  0.1480
 3215TIP3    H1 9586   4.389   4.309   1.908 -1.4621  1.1281  0.9280
 3215TIP3    H2 9587   4.418   4.177   1.977  0.2328  1.1825  0.3579
 3216TIP3   OH2 9588   1.581   0.412   1.035  0.2247  0.1850  0.1742
 3216TIP3    H1 9589   1.661   0.360   1.032  0.0937  0.0138 -1.5194
 3216TIP3    H2 9590   1.608   0.499   1.006  0.2701  0.8736  2.1300
 3217TIP3   OH2 9591   5.682   2.970   5.301  0.6206  0.3687 -0.1700
 3217TIP3    H1 9592   5.686   2.993   5.393 -0.9505 -0.4728  0.1391
 3217TIP3    H2 9593   5.755   3.018   5.261 -0.2585  2.8880  1.0218
 3218TIP3   OH2 9594   5.988   4.679   5.074 -0.4177  0.1051  0.2001
 3218TIP3    H1 9595   6.030   4.761   5.101  0.3074  0.2188 -1.1951
 3218TIP3    H2 9596   6.021   4.614   5.137  0.9526  0.4342 -0.1321
 3219TIP3   OH2 9597   7.224   6.838   5.512 -0.2833 -0.9045  0.1897
 3219TIP3    H1 9598   7.231   6.805   5.423 -1.0169  0.0627 -0.2460
 3219TIP3    H2 9599   7.234   6.933   5.504 -2.1985 -0.5975  0.8578
 3220TIP3   OH2 9600   2.240   6.857   5.160 -0.0763 -0.3316  0.5403
 3220TIP3    H1 9601   2.331   6.850   5.132 -0.2767 -0.2879 -0.1280
 3220TIP3    H2 9602   2.240   6.825   5.251  0.5853 -0.4105  0.5123
 3221TIP3   OH2 9603   4.437   2.008   6.556  0.7663  0.2373 -0.3300
 3221TIP3    H1 9604   4.497   2.012   6.631  0.2040 -0.8767  0.1967
 3221TIP3    H2 9605   4.351   2.030   6.593  0.5244 -0.1078 -0.6828
 3222TIP3   OH2 9606   5.987   3.569   2.258  0.0294 -0.0055 -0.4734
 3222TIP3    H1 9607   6.073   3.608   2.273 -0.4637  0.5541  1.1892
 3222TIP3    H2 9608   5.987   3.491   2.315 -0.3318 -0.3665 -0.9617
 3223TIP3   OH2 9609   4.976   5.583   6.696  0.7615  0.1576 -0.0184
 3223TIP3    H1 9610   4.882   5.588   6.714  0.8519  0.5804  0.3592
 3223TIP3    H2 9611   4.987   5.626   6.611  0.5010 -0.6790 -0.4818
 3224TIP3   OH2 9612   7.408   7.309   0.082  0.2777  0.2751 -0.2112
 3224TIP3    H1 9613   7.474   7.244   0.055  1.0803  0.9178  0.1518
 3224TIP3    H2 9614   7.439   7.340   0.167 -0.8425  0.1373  0.2604
 3225TIP3   OH2 9615   4.843   1.285   2.358 -0.2782  0.1623 -0.1688
 3225TIP3    H1 9616   4.840   1.208   2.301 -1.1797  0.0550  0.0061
 3225TIP3    H2 9617   4.882   1.253   2.439 -0.8047 -0.1568 -0.0373
 3226TIP3   OH2 9618   6.870   3.535   3.572 -0.0878 -0.2765  0.4738
 3226TIP3    H1 9619   6.915   3.568   3.495 -1.1023  1.1992  0.4691
 3226TIP3    H2 9620   6.849   3.444   3.551  1.1450 -0.3994 -0.2871
 3227TIP3   OH2 9621   3.423   7.575   2.501  0.2304 -0.1155 -0.4795
 3227TIP3    H1 9622   3.447   7.519   2.575  0.4861  1.3306  0.5813
 3227TIP3    H2 9623   3.490   7.644   2.501  0.3596 -0.1971 -2.2189
 3228TIP3   OH2 9624   3.265   7.583   5.052  0.4224 -0.1429  0.5113
 3228TIP3    H1 9625   3.263   7.641   5.128 -0.1403 -1.0463  1.2053
 3228TIP3    H2 9626   3.269   7.495   5.089 -1.0511 -0.6547 -0.4739
 3229TIP3   OH2 9627   7.802   7.547   4.176  0.1106 -0.5578  0.2473
 3229TIP3    H1 9628   7.830   7.623   4.226 -0.9992  0.4286 -0.5850
 3229TIP3    H2 9629   7.787   7.479   4.242  0.8956 -0.0097  1.0190
 3230TIP3   OH2 9630   2.051   3.982   1.012 -0.4087 -0.0624  0.0666
 3230TIP3    H1 9631   1.983   3.984   0.945 -0.1434 -1.7376 -0.3000
 3230TIP3    H2 9632   2.079   3.891   1.015  2.5319  0.7415 -0.4994
 3231TIP3   OH2 9633   0.126   5.162   1.167 -0.1777 -0.1440 -0.1107
 3231TIP3    H1 9634   0.155   5.251   1.147  1.7699 -0.7420 -0.1010
 3231TIP3    H2 9635   0.035   5.173   1.195  0.0441  1.8532 -0.0003
 3232TIP3   OH2 9636   3.577   1.917   6.731  0.3043  0.1812 -0.6029
 3232TIP3    H1 9637   3.634   1.858   6.682  0.0506  0.2689 -1.0094
 3232TIP3    H2 9638   3.500   1.864   6.751  0.2474  0.2540 -0.6265
 3233TIP3   OH2 9639   7.299   1.145   3.974  0.5134 -0.0641 -0.0909
 3233TIP3    H1 9640   7.220   1.112   3.933 -0.6046 -2.8580  3.7461
 3233TIP3    H2 9641   7.366   1.079   3.955  0.5945 -0.1921  0.6032
 3234TIP3   OH2 9642   5.320   3.658   5.029 -0.8656 -0.4886 -0.2136
 3234TIP3    H1 9643   5.319   3.739   5.080 -0.8633 -0.1405 -0.7553
 3234TIP3    H2 9644   5.314   3.688   4.938 -1.0593 -1.1080 -0.4027
 3235TIP3   OH2 9645   3.957   2.160   0.338  0.2717  0.0179 -0.1877
 3235TIP3    H1 9646   4.008   2.175   0.259  2.2954 -0.9310  0.8678
 3235TIP3    H2 9647   4.003   2.208   0.406  0.9079 -2.3564  1.1620
 3236TIP3   OH2 9648   4.413   1.635   3.861  0.2004 -0.8759 -0.4690
 3236TIP3    H1 9649   4.507   1.646   3.871  0.1208 -1.5567  1.4199
 3236TIP3    H2 9650   4.374   1.693   3.926 -0.7192 -0.3123 -1.4851
 3237TIP3   OH2 9651   7.138  -0.008   2.867 -0.2085 -0.3450  0.4110
 3237TIP3    H1 9652   7.219   0.041   2.883  1.5656 -2.7970 -0.4349
 3237TIP3    H2 9653   7.122   0.003   2.774 -0.2503 -0.6888  0.3760
 3238TIP3   OH2 9654   0.740   2.906   3.872 -0.1260  0.1429  0.3379
 3238TIP3    H1 9655   0.670   2.912   3.937 -0.2408  0.1342  0.2149
 3238TIP3    H2 9656   0.732   2.986   3.820  0.2673  0.3803  0.6366
 3239TIP3   OH2 9657   4.999   1.651   5.525  0.3075 -0.3871 -0.0543
 3239TIP3    H1 9658   4.939   1.653   5.451  1.7359 -0.4013 -1.2464
 3239TIP3    H2 9659   4.957   1.591   5.587 -2.2444  1.6715  0.3991
 3240TIP3   OH2 9660   5.967   3.932   5.368 -0.0481 -0.2083  0.8171
 3240TIP3    H1 9661   5.996   3.889   5.449  0.9301  0.7108  0.9750
 3240TIP3    H2 9662   6.027   4.005   5.357  0.2674 -0.6953 -1.1012
 3241TIP3   OH2 9663   6.138   4.712   1.166 -0.2185  0.0450  0.1224
 3241TIP3    H1 9664   6.122   4.793   1.215 -0.4151  0.5336 -0.7127
 3241TIP3    H2 9665   6.069   4.711   1.099 -0.6823 -1.2170  0.6082
 3242TIP3   OH2 9666   4.506   2.588   5.933 -0.2753  0.1452 -0.2545
 3242TIP3    H1 9667   4.521   2.554   6.021 -0.1945  2.2513  0.6041
 3242TIP3    H2 9668   4.554   2.528   5.875  1.2146 -0.2460  1.3014
 3243TIP3   OH2 9669   5.205   5.293   3.988 -0.4071 -0.0997 -0.1458
 3243TIP3    H1 9670   5.199   5.257   4.076 -1.4653  0.4369  0.0192
 3243TIP3    H2 9671   5.294   5.326   3.982 -0.2488 -0.3544  0.6392
 3244TIP3   OH2 9672   1.534   1.447   0.803 -0.2132  0.2169 -0.2348
 3244TIP3    H1 9673   1.477   1.497   0.862 -0.2688 -2.6968  2.4801
 3244TIP3    H2 9674   1.618   1.444   0.848  0.5461  0.0229 -1.6182
 3245TIP3   OH2 9675   5.845   4.448   0.493 -0.0748  0.2420 -0.1092
 3245TIP3    H1 9676   5.871   4.367   0.538  1.3453  0.2752 -0.8160
 3245TIP3    H2 9677   5.755   4.433   0.466 -0.4487 -0.3654  1.4107
 3246TIP3   OH2 9678   7.151   2.429   1.796 -0.1945 -0.2610  0.4409
 3246TIP3    H1 9679   7.064   2.400   1.770  0.7119 -1.8550 -1.0240
 3246TIP3    H2 9680   7.173   2.499   1.735 -0.5472  0.3639  1.0147
 3247TIP3   OH2 9681   3.901   6.326   1.904  0.4708 -0.0348 -0.2755
 3247TIP3    H1 9682   3.965   6.257   1.919 -0.5898 -0.8267  0.7730
 3247TIP3    H2 9683   3.939   6.404   1.944  1.1697 -0.2707 -0.4683
 3248TIP3   OH2 9684   1.335   2.763   6.080  0.0241 -0.3751 -0.3771
 3248TIP3    H1 9685   1.279   2.804   6.014  0.4780 -0.6926 -0.9651
 3248TIP3    H2 9686   1.277   2.747   6.154 -0.0762  1.8417  0.1175
 3249TIP3   OH2 9687   5.962   0.761   3.912 -0.8658  0.1790  0.0862
 3249TIP3    H1 9688   6.004   0.707   3.845  0.6985 -0.8276  1.7960
 3249TIP3    H2 9689   5.908   0.700   3.962 -1.1408  0.6964  0.4267
 3250TIP3   OH2 9690   4.881   7.531   2.363  0.1284  0.0696  0.6606
 3250TIP3    H1 9691   4.966   7.501   2.395  0.6854 -0.6726 -1.3446
 3250TIP3    H2 9692   4.818   7.493   2.424  1.2237  1.3142  2.6703
 3251TIP3   OH2 9693   3.612   6.865   3.290 -0.4729 -0.6320 -0.4792
 3251TIP3    H1 9694   3.664   6.944   3.302  0.6893 -1.3757 -0.4644
 3251TIP3    H2 9695   3.638   6.832   3.203 -1.4473 -0.6449 -0.7824
 3252TIP3   OH2 9696   5.154   4.103   4.086  0.0627 -0.5257 -0.0980
 3252TIP3    H1 9697   5.243   4.131   4.065 -0.0256 -1.0627 -1.2902
 3252TIP3    H2 9698   5.121   4.064   4.005 -1.2156 -0.4549  0.3564
 3253TIP3   OH2 9699   2.499   4.669   3.062 -0.8112 -0.0308 -0.5913
 3253TIP3    H1 9700   2.544   4.732   3.006 -1.3604  1.1820  0.3127
 3253TIP3    H2 9701   2.411   4.662   3.025 -0.9254  0.1564 -0.3517
 3254TIP3   OH2 9702   3.254   4.473   5.453  0.5757 -0.3852  0.7045
 3254TIP3    H1 9703   3.211   4.554   5.482  1.5272 -0.0932  1.3462
 3254TIP3    H2 9704   3.231   4.466   5.361 -1.3671 -0.5830  1.1555
 3255TIP3   OH2 9705   0.917   7.078   6.756  0.0593  0.5304 -0.6344
 3255TIP3    H1 9706   0.875   7.114   6.678 -1.9508 -0.5967 -0.1447
 3255TIP3    H2 9707   1.002   7.046   6.724 -1.2391 -1.1441 -2.7301
 3256TIP3   OH2 9708   0.499   3.833   5.058  0.9635  0.1846 -0.3919
 3256TIP3    H1 9709   0.580   3.789   5.084  0.6128 -0.5386 -0.4917
 3256TIP3    H2 9710   0.437   3.813   5.128  1.0299  1.2517 -0.0014
 3257TIP3   OH2 9711   0.551   5.827   1.841 -0.0501  0.0151 -0.1877
 3257TIP3    H1 9712   0.591   5.872   1.766  0.8105  0.2545  0.3987
 3257TIP3    H2 9713   0.461   5.858   1.842 -0.4105 -0.8799 -1.8171
 3258TIP3   OH2 9714   1.398   7.717   4.980  0.5335  0.0761  0.3947
 3258TIP3    H1 9715   1.319   7.766   4.959  0.4799 -0.3931 -0.5471
 3258TIP3    H2 9716   1.417   7.740   5.071  0.0914  1.2415  0.2083
 3259TIP3   OH2 9717   6.281   7.317   5.695 -0.2764 -1.0693  0.3296
 3259TIP3    H1 9718   6.359   7.267   5.671  0.2264 -0.1935  0.0665
 3259TIP3    H2 9719   6.275   7.386   5.629  0.7223  0.9560  2.1943
 3260TIP3   OH2 9720   2.728   3.908   1.617 -0.2905 -0.8416  0.1969
 3260TIP3    H1 9721   2.770   3.920   1.702  2.2237  0.2605 -1.1009
 3260TIP3    H2 9722   2.783   3.844   1.572  0.4875  1.1041 -1.7867
 3261TIP3   OH2 9723   2.273   2.186   3.822  0.1332 -0.1572 -0.1685
 3261TIP3    H1 9724   2.245   2.095   3.817 -1.5768  0.3012  0.3473
 3261TIP3    H2 9725   2.333   2.188   3.898 -0.2484 -0.7428  0.1547
 3262TIP3   OH2 9726   1.373   1.522   2.647  0.0093 -0.4717  0.5365
 3262TIP3    H1 9727   1.293   1.469   2.651  1.1691 -2.7632 -2.5327
 3262TIP3    H2 9728   1.442   1.460   2.623  1.8177  2.1405 -1.6298
 3263TIP3   OH2 9729   2.542   2.725   5.775  0.5653 -0.0007 -0.4017
 3263TIP3    H1 9730   2.575   2.745   5.687  0.8594  1.2079 -0.0230
 3263TIP3    H2 9731   2.608   2.761   5.834  0.7651 -1.4907  0.3320
 3264TIP3   OH2 9732   2.240   3.565   0.065  0.5918 -0.7076 -1.0350
 3264TIP3    H1 9733   2.300   3.491   0.074  1.1944 -0.1730 -0.5388
 3264TIP3    H2 9734   2.200   3.553  -0.021 -0.5480 -2.4881 -0.3281
 3265TIP3   OH2 9735   3.644   0.538   1.858 -0.2057 -0.0962  0.0142
 3265TIP3    H1 9736   3.656   0.492   1.941  2.9944  1.4689  0.5722
 3265TIP3    H2 9737   3.603   0.621   1.881 -3.5093 -1.3875 -0.6677
 3266TIP3   OH2 9738   1.243   1.408   0.380  0.1351 -0.1850 -0.1422
 3266TIP3    H1 9739   1.330   1.384   0.414  1.0268 -1.0380 -2.7699
 3266TIP3    H2 9740   1.191   1.329   0.391  1.0595 -1.2246 -2.5190
 3267TIP3   OH2 9741   3.934   4.435   3.960  0.1759  0.3175  0.3528
 3267TIP3    H1 9742   3.956   4.467   3.873 -3.2884 -0.0455 -0.8255
 3267TIP3    H2 9743   3.873   4.499   3.995  0.4668 -0.2376  1.9886
 3268TIP3   OH2 9744   3.930   3.909   6.174  0.2503 -0.1050  0.4211
 3268TIP3    H1 9745   3.919   3.864   6.258  1.2919  0.3739  0.8379
 3268TIP3    H2 9746   3.847   3.896   6.128 -0.2472 -0.5807  1.4265
 3269TIP3   OH2 9747   6.896   4.290   0.276 -0.3389 -0.3970 -0.2388
 3269TIP3    H1 9748   6.906   4.384   0.263 -2.0824 -0.1874 -0.2427
 3269TIP3    H2 9749   6.877   4.280   0.369  0.2294 -0.7957 -0.1565
 3270TIP3   OH2 9750   0.894   5.992   1.172 -0.7018 -0.1603 -0.2598
 3270TIP3    H1 9751   0.955   5.926   1.205  0.5303  0.5383 -1.0612
 3270TIP3    H2 9752   0.949   6.066   1.150 -2.0284  1.0632  0.3650
 3271TIP3   OH2 9753   1.544   6.860   2.156 -0.6849 -0.3327  0.0257
 3271TIP3    H1 9754   1.485   6.807   2.103 -1.0628 -1.0277  1.1025
 3271TIP3    H2 9755   1.559   6.807   2.235  0.1243  0.5233  0.4668
 3272TIP3   OH2 9756   7.190   7.720   6.563 -0.1940  0.0218  0.5793
 3272TIP3    H1 9757   7.268   7.680   6.600 -0.2502  0.1601  0.8539
 3272TIP3    H2 9758   7.146   7.649   6.516  0.5129  0.1367 -0.2715
 3273TIP3   OH2 9759   5.100   0.626   3.869 -0.1550  0.6437  0.0537
 3273TIP3    H1 9760   5.137   0.636   3.956 -1.8058  2.5730  0.5814
 3273TIP3    H2 9761   5.169   0.657   3.810  1.2950 -1.4626  0.5391
 3274TIP3   OH2 9762   0.553   3.477   1.631 -0.1677  0.8123 -1.1256
 3274TIP3    H1 9763   0.513   3.502   1.715 -1.1176  1.0667 -1.6318
 3274TIP3    H2 9764   0.478   3.467   1.572  0.4875  0.5521 -1.9211
 3275TIP3   OH2 9765   7.011   0.069   4.514  0.3896 -0.3609  0.5602
 3275TIP3    H1 9766   6.947   0.011   4.557  1.5929 -1.6570  0.6833
 3275TIP3    H2 9767   6.977   0.080   4.425 -0.1076 -0.8969  0.6743
 3276TIP3   OH2 9768   6.808   0.114   4.295 -0.7154  0.3620 -0.3923
 3276TIP3    H1 9769   6.730   0.060   4.291 -0.0974 -0.5897 -0.0322
 3276TIP3    H2 9770   6.787   0.192   4.243 -0.9345 -1.1402 -2.7232
 3277TIP3   OH2 9771   4.384   3.748   6.788  0.1853 -0.1742  0.1891
 3277TIP3    H1 9772   4.354   3.716   6.703  0.6640 -0.0333 -0.0405
 3277TIP3    H2 9773   4.432   3.828   6.767 -0.1287  0.1310  0.6475
 3278TIP3   OH2 9774   3.897   5.931   4.684 -0.6222  0.2580  0.0090
 3278TIP3    H1 9775   3.974   5.935   4.741 -1.1920 -0.1607  0.8233
 3278TIP3    H2 9776   3.918   5.863   4.621 -0.6698 -0.4664  0.7623
 3279TIP3   OH2 9777   3.309   6.551   5.076  0.0337  0.9773  0.2121
 3279TIP3    H1 9778   3.391   6.551   5.026  0.0503  1.1821  0.2381
 3279TIP3    H2 9779   3.246   6.593   5.017 -1.0480 -2.5500 -1.4303
 3280TIP3   OH2 9780   5.550   1.498   2.073 -0.2017  0.9034 -0.1843
 3280TIP3    H1 9781   5.603   1.419   2.088 -1.7292  0.1865  1.9962
 3280TIP3    H2 9782   5.606   1.570   2.102  0.3129  0.3555  0.2328
 3281TIP3   OH2 9783   5.193   2.322   3.458  0.4399 -0.0152  0.5471
 3281TIP3    H1 9784   5.143   2.271   3.522  0.6837 -1.1992 -0.1885
 3281TIP3    H2 9785   5.128   2.350   3.393  0.6583 -1.3870 -0.3019
 3282TIP3   OH2 9786   7.639   5.828   0.993  0.4334  0.1109 -0.0974
 3282TIP3    H1 9787   7.727   5.795   0.977  0.3251 -1.2951  1.9066
 3282TIP3    H2 9788   7.652   5.907   1.047  0.4668 -0.2829  0.4764
 3283TIP3   OH2 9789   0.268   4.576   3.408 -0.7316  0.2567  0.0368
 3283TIP3    H1 9790   0.324   4.504   3.378 -2.9936 -1.7098  0.2254
 3283TIP3    H2 9791   0.202   4.585   3.340 -1.7357  0.6642  1.0305
 3284TIP3   OH2 9792   7.274   3.564   3.577  0.1534  0.4372 -0.2477
 3284TIP3    H1 9793   7.264   3.471   3.559  1.1886  0.1710  0.4734
 3284TIP3    H2 9794   7.220   3.579   3.655  0.0297  0.4369 -0.3323
 3285TIP3   OH2 9795   5.310   2.078   2.700  0.6756 -0.3363 -0.1831
 3285TIP3    H1 9796   5.216   2.092   2.690  0.9557  2.4590  0.0777
 3285TIP3    H2 9797   5.338   2.042   2.616 -0.5305 -0.4262 -0.5591
 3286TIP3   OH2 9798   7.442   0.530   0.403 -0.2910 -0.0899 -0.3336
 3286TIP3    H1 9799   7.473   0.620   0.398 -1.7670  0.4301 -0.7448
 3286TIP3    H2 9800   7.364   0.528   0.347 -0.6280 -1.4726  0.1333
 3287TIP3   OH2 9801   1.217   2.075   4.957  0.1724  0.2126  0.3176
 3287TIP3    H1 9802   1.287   2.098   5.019 -0.0569 -1.4991  1.2641
 3287TIP3    H2 9803   1.142   2.126   4.986  0.2128 -0.1833  1.1623
 3288TIP3   OH2 9804   1.351   2.113   2.049  0.0034  0.7478 -0.3187
 3288TIP3    H1 9805   1.444   2.100   2.031  0.5235  1.3789  1.7269
 3288TIP3    H2 9806   1.317   2.024   2.060  0.9320  0.5749  1.4387
 3289TIP3   OH2 9807   4.520   2.121   3.520  0.4418 -0.6089 -0.6408
 3289TIP3    H1 9808   4.489   2.063   3.589  0.6125  1.8770  1.6930
 3289TIP3    H2 9809   4.442   2.168   3.491  0.7854  0.3768 -0.0383
 3290TIP3   OH2 9810   8.076   6.814   5.868  0.5943  0.2959 -0.6041
 3290TIP3    H1 9811   8.078   6.720   5.882 -0.9334  0.1601 -1.0874
 3290TIP3    H2 9812   8.151   6.832   5.812  1.3942 -0.4927  0.1872
 3291TIP3   OH2 9813   2.535   2.014   4.475  0.0230  0.3904  0.7714
 3291TIP3    H1 9814   2.472   2.062   4.421  0.7865 -1.1691 -1.6523
 3291TIP3    H2 9815   2.621   2.046   4.446  0.4505 -0.5548  0.9595
 3292TIP3   OH2 9816   6.716   4.660   0.227 -0.2328  0.1380  0.0767
 3292TIP3    H1 9817   6.800   4.618   0.241  0.2889  0.7807 -1.0159
 3292TIP3    H2 9818   6.668   4.645   0.308  0.3500 -1.5664  0.1473
 3293TIP3   OH2 9819   5.704   7.623   4.796 -0.8805  0.0187  0.3357
 3293TIP3    H1 9820   5.661   7.693   4.844 -2.3341 -0.9657  0.5338
 3293TIP3    H2 9821   5.637   7.591   4.735  0.2356 -0.2043 -0.8172
 3294TIP3   OH2 9822   8.297   2.108   1.751 -0.6002  0.0704 -0.3809
 3294TIP3    H1 9823   8.238   2.116   1.826 -0.3772  0.0128 -0.1986
 3294TIP3    H2 9824   8.258   2.166   1.684 -1.6791 -1.0907 -0.8065
 3295TIP3   OH2 9825   0.565   3.519   6.140  0.2446 -0.1033  0.1420
 3295TIP3    H1 9826   0.543   3.510   6.233  1.8890 -1.3178  0.4709
 3295TIP3    H2 9827   0.628   3.592   6.138  0.3847 -0.2261  0.0273
 3296TIP3   OH2 9828   3.882   0.490   2.231 -0.3826  0.0399  0.0768
 3296TIP3    H1 9829   3.909   0.581   2.245 -1.6401  0.2127  1.7008
 3296TIP3    H2 9830   3.941   0.458   2.163  1.9979  1.1989  1.4391
 3297TIP3   OH2 9831   6.968   7.854   5.794 -0.4379 -0.3624 -0.3039
 3297TIP3    H1 9832   6.951   7.947   5.813  0.8519 -0.3018  0.6977
 3297TIP3    H2 9833   6.916   7.836   5.716 -0.1454  1.4039 -0.9661
 3298TIP3   OH2 9834   1.340   1.757   1.055 -1.4163 -0.0917 -0.4271
 3298TIP3    H1 9835   1.336   1.779   1.148  2.8520  1.1102 -0.3212
 3298TIP3    H2 9836   1.294   1.829   1.012  0.0232  1.5715  0.6563
 3299TIP3   OH2 9837   1.363   7.221   0.818 -0.4161  0.2678 -0.3119
 3299TIP3    H1 9838   1.449   7.260   0.801  0.6393 -1.1568  1.3521
 3299TIP3    H2 9839   1.383   7.132   0.845 -2.4617 -0.1754 -0.1389
 3300TIP3   OH2 9840   7.968   6.764   0.702 -0.1469  0.2004  0.0966
 3300TIP3    H1 9841   7.941   6.692   0.759  0.3637 -0.1334 -0.0726
 3300TIP3    H2 9842   7.906   6.761   0.629  1.3188 -1.6707 -1.1785
 3301TIP3   OH2 9843   2.042   3.817   2.018 -0.1811 -0.4405 -0.1651
 3301TIP3    H1 9844   2.023   3.910   2.010  1.5936 -0.1405 -1.3425
 3301TIP3    H2 9845   2.034   3.800   2.112 -0.0902  1.0025  0.1325
 3302TIP3   OH2 9846   6.393   6.304   3.097  0.1508 -0.3016  0.1262
 3302TIP3    H1 9847   6.410   6.379   3.154  0.8727 -0.4749  0.1432
 3302TIP3    H2 9848   6.297   6.295   3.098  0.1527 -0.3140  1.3306
 3303TIP3   OH2 9849   4.192   4.908   2.394 -0.1508  0.3346  0.4856
 3303TIP3    H1 9850   4.125   4.955   2.443  0.7672  1.2541  0.8776
 3303TIP3    H2 9851   4.264   4.896   2.456  1.2252  1.9045 -0.6943
 3304TIP3   OH2 9852   8.109   1.145   3.812 -0.3640  0.2388 -0.4454
 3304TIP3    H1 9853   8.017   1.120   3.817 -0.5533  1.0506  0.4240
 3304TIP3    H2 9854   8.110   1.239   3.833  0.5699  0.4471 -1.3257
 3305TIP3   OH2 9855   1.918   7.869   4.133 -0.1750 -0.7290 -0.1304
 3305TIP3    H1 9856   1.887   7.957   4.110  0.5276 -0.6028 -0.6138
 3305TIP3    H2 9857   1.870   7.847   4.213  0.5769  0.6106  0.7176
 3306TIP3   OH2 9858   2.526   5.011   0.460  0.1698  0.4180  0.2279
 3306TIP3    H1 9859   2.595   4.966   0.411  0.8396  0.0521  1.4568
 3306TIP3    H2 9860   2.449   4.956   0.448  0.4423  0.0936 -0.0644
 3307TIP3   OH2 9861   6.701   0.684   3.233 -0.3876 -0.2149 -1.0032
 3307TIP3    H1 9862   6.609   0.671   3.211 -0.4767 -0.1500 -0.6736
 3307TIP3    H2 9863   6.710   0.644   3.320 -0.6851  2.0043  0.1156
 3308TIP3   OH2 9864   4.342   5.273   5.200 -0.2250 -0.3197  0.1651
 3308TIP3    H1 9865   4.336   5.201   5.263  0.4078 -0.2392  0.3257
 3308TIP3    H2 9866   4.347   5.352   5.255  2.5998 -0.3838  0.1222
 3309TIP3   OH2 9867   8.201   2.800   6.776 -0.5330  0.1640  0.9494
 3309TIP3    H1 9868   8.262   2.858   6.821  0.3902 -1.1713  1.5049
 3309TIP3    H2 9869   8.194   2.723   6.834 -0.6440 -0.8637 -0.3847
 3310TIP3   OH2 9870   4.000   2.882   2.500  0.1868  0.4352  0.1772
 3310TIP3    H1 9871   3.926   2.905   2.445  0.2821 -1.0152 -0.6139
 3310TIP3    H2 9872   4.074   2.929   2.462  0.1759 -0.2477 -0.7298
 3311TIP3   OH2 9873   7.835   7.762   6.692 -0.1673  0.0001  0.2765
 3311TIP3    H1 9874   7.871   7.844   6.657  3.0241 -0.4545  2.0208
 3311TIP3    H2 9875   7.764   7.790   6.750  0.8152  1.5911  0.7952
 3312TIP3   OH2 9876   7.854   4.073   0.901 -0.3167 -0.5218 -0.1045
 3312TIP3    H1 9877   7.881   4.038   0.816  1.2086  0.0457  0.1289
 3312TIP3    H2 9878   7.773   4.121   0.881  0.0918 -0.2739 -1.2690
 3313TIP3   OH2 9879   2.374   3.841   1.414 -0.4456 -0.9516 -0.4888
 3313TIP3    H1 9880   2.318   3.880   1.348  0.2873  0.3535 -0.3666
 3313TIP3    H2 9881   2.459   3.832   1.371 -0.3410 -1.4796 -0.1853
 3314TIP3   OH2 9882   4.795   4.419   1.954  0.3751 -0.2220 -0.1922
 3314TIP3    H1 9883   4.706   4.387   1.944  0.2692 -0.8535  2.1487
 3314TIP3    H2 9884   4.786   4.511   1.976  0.4601  0.2827 -2.0579
 3315TIP3   OH2 9885   3.303   3.392   5.794 -0.5289 -0.3380  0.3478
 3315TIP3    H1 9886   3.376   3.439   5.836  0.5201 -2.4405  1.0060
 3315TIP3    H2 9887   3.345   3.340   5.726 -1.8339  0.5868 -1.2241
 3316TIP3   OH2 9888   4.330   5.825   6.047 -0.1619 -0.2187 -0.3837
 3316TIP3    H1 9889   4.347   5.919   6.042 -0.1363 -0.1852  0.3052
 3316TIP3    H2 9890   4.315   5.807   6.140 -0.0010 -0.9239 -0.4825
 3317TIP3   OH2 9891   5.566   5.451   2.240 -0.4514  0.3325  0.5053
 3317TIP3    H1 9892   5.506   5.457   2.314  0.4173  3.2306  1.0810
 3317TIP3    H2 9893   5.532   5.513   2.176  1.0663  0.8910  0.2053
 3318TIP3   OH2 9894   8.188   0.020   2.804 -0.6177  0.5287  0.8126
 3318TIP3    H1 9895   8.278   0.005   2.772 -1.3228  0.0177 -1.0920
 3318TIP3    H2 9896   8.184   0.114   2.821  0.3071  0.5487  0.9843
 3319TIP3   OH2 9897   2.188   5.749   1.212 -0.1144 -0.2790 -0.9102
 3319TIP3    H1 9898   2.241   5.744   1.291 -1.3219 -0.5040 -0.0837
 3319TIP3    H2 9899   2.215   5.673   1.160 -0.6618 -1.2540  0.1845
 3320TIP3   OH2 9900   3.415   0.276   1.638  0.1674  0.2681  0.7879
 3320TIP3    H1 9901   3.388   0.200   1.586  1.4130 -0.1249  0.6828
 3320TIP3    H2 9902   3.449   0.338   1.574 -1.1118  1.0673  0.8409
 3321TIP3   OH2 9903   5.301   6.254   0.115  0.1728  0.7833 -0.1465
 3321TIP3    H1 9904   5.251   6.315   0.169 -2.2251 -0.5048 -0.7423
 3321TIP3    H2 9905   5.318   6.179   0.172 -1.2548 -0.0414 -0.7595
 3322TIP3   OH2 9906   6.803   1.249   4.489  0.5906 -0.4308 -0.3212
 3322TIP3    H1 9907   6.809   1.282   4.579  2.3301 -2.4081  0.3450
 3322TIP3    H2 9908   6.777   1.158   4.498  0.9320 -0.7013 -1.8445
 3323TIP3   OH2 9909   6.225   2.225   5.843  0.3191  0.1218  0.2252
 3323TIP3    H1 9910   6.237   2.320   5.832  0.3958 -0.0348 -1.2789
 3323TIP3    H2 9911   6.204   2.193   5.755 -1.1861 -1.0659  0.9735
 3324TIP3   OH2 9912   5.329   3.785   0.265 -0.2875 -0.1335 -0.0630
 3324TIP3    H1 9913   5.283   3.745   0.191  1.0940 -0.3534 -0.8338
 3324TIP3    H2 9914   5.327   3.879   0.246 -1.0773 -0.0636  0.3130
 3325TIP3   OH2 9915   4.007   1.632   3.796 -0.0371  0.0075 -0.5067
 3325TIP3    H1 9916   4.026   1.593   3.881  0.3731 -1.2930 -1.1760
 3325TIP3    H2 9917   3.917   1.663   3.803 -0.1196 -0.4071  0.2854
 3326TIP3   OH2 9918   0.316   7.158   4.889  0.5624  0.2703 -0.6191
 3326TIP3    H1 9919   0.330   7.250   4.864 -0.6180  0.7320  0.2995
 3326TIP3    H2 9920   0.227   7.139   4.859  0.3371 -0.1753  0.2960
 3327TIP3   OH2 9921   4.994   0.369   0.704 -0.4259 -0.3797  0.2892
 3327TIP3    H1 9922   5.044   0.412   0.635  0.7281  0.6744  1.7267
 3327TIP3    H2 9923   4.903   0.390   0.684 -0.0688  0.4378 -0.5626
 3328TIP3   OH2 9924   2.180   6.657   6.398 -0.4661  0.2402 -0.2339
 3328TIP3    H1 9925   2.105   6.617   6.353  0.6307 -1.7088 -0.4652
 3328TIP3    H2 9926   2.238   6.583   6.417  0.5736  1.4424  1.5740
 3329TIP3   OH2 9927   1.720   4.738   1.097  0.1852 -0.0510 -0.3986
 3329TIP3    H1 9928   1.767   4.740   1.014 -0.3890 -0.0317 -0.7262
 3329TIP3    H2 9929   1.700   4.829   1.116 -3.1335 -0.2394 -2.2463
 3330TIP3   OH2 9930   2.266   7.341   6.568  0.6312  0.0540  0.1260
 3330TIP3    H1 9931   2.325   7.417   6.567  0.4398  0.2432  1.3413
 3330TIP3    H2 9932   2.228   7.338   6.480  0.8038  1.2400 -0.0000
 3331TIP3   OH2 9933   5.892   1.897   4.936  1.1520  0.3273 -0.2549
 3331TIP3    H1 9934   5.920   1.854   5.017  0.6697 -0.2644 -0.4004
 3331TIP3    H2 9935   5.920   1.988   4.947  2.2943 -0.0376 -0.0038
 3332TIP3   OH2 9936   6.441   7.196   1.844  0.4222 -0.3005 -0.0647
 3332TIP3    H1 9937   6.456   7.209   1.938  1.4040  0.2146 -0.2797
 3332TIP3    H2 9938   6.459   7.282   1.805 -1.2614 -0.1599 -0.5910
 3333TIP3   OH2 9939   3.772   5.307   2.945  0.3365 -0.6143  0.4467
 3333TIP3    H1 9940   3.832   5.346   3.009  0.0400 -0.7862  0.8317
 3333TIP3    H2 9941   3.714   5.252   2.997 -0.4128 -0.1472  0.1242
 3334TIP3   OH2 9942   6.334   2.570   2.051  0.0047 -0.0343 -0.1245
 3334TIP3    H1 9943   6.388   2.624   2.110 -1.1970  1.4535 -0.3295
 3334TIP3    H2 9944   6.334   2.484   2.091 -1.5045  1.1188  2.6255
 3335TIP3   OH2 9945   1.567   6.086   6.294  0.3443 -0.0095  0.0774
 3335TIP3    H1 9946   1.518   6.090   6.376  0.1358 -0.7865 -0.0034
 3335TIP3    H2 9947   1.501   6.101   6.226  0.5904  1.0731  0.0633
 3336TIP3   OH2 9948   6.329   1.339   2.325 -0.5577 -0.5752 -0.6475
 3336TIP3    H1 9949   6.398   1.359   2.389  0.1083 -3.3483 -0.3706
 3336TIP3    H2 9950   6.248   1.371   2.366  0.0736 -0.7758  0.8258
 3337TIP3   OH2 9951   2.508   3.679   6.021 -0.1614  0.1521 -0.5211
 3337TIP3    H1 9952   2.591   3.725   6.037  0.2151 -0.2808 -1.1380
 3337TIP3    H2 9953   2.440   3.739   6.051  0.3412  0.8885 -0.8183
 3338TIP3   OH2 9954   4.086   0.939   4.916 -0.7313 -0.1696 -0.0265
 3338TIP3    H1 9955   4.019   0.897   4.864 -0.5391  0.2612 -0.6292
 3338TIP3    H2 9956   4.068   0.910   5.006 -0.9682 -1.0348 -0.3423
 3339TIP3   OH2 9957   0.363   3.332   2.560 -0.1507  0.3548 -0.2630
 3339TIP3    H1 9958   0.451   3.365   2.545 -0.0237 -0.0079 -0.3263
 3339TIP3    H2 9959   0.313   3.409   2.587  0.1348  0.6002 -0.4265
 3340TIP3   OH2 9960   3.207   2.786   0.647 -0.3085 -0.0611 -0.1183
 3340TIP3    H1 9961   3.287   2.733   0.643 -0.0186  0.3753 -0.1430
 3340TIP3    H2 9962   3.139   2.725   0.675  0.0225 -0.4488 -0.1564
 3341TIP3   OH2 9963   4.787   1.760   3.518  0.3744 -0.2224 -0.0416
 3341TIP3    H1 9964   4.707   1.811   3.523  1.0333  0.7425  1.2959
 3341TIP3    H2 9965   4.841   1.807   3.454  0.0149 -0.6741 -0.6812
 3342TIP3   OH2 9966   1.333   6.467   5.046  0.7135 -0.6805  0.6360
 3342TIP3    H1 9967   1.396   6.452   5.117 -0.6847 -1.7961  1.7125
 3342TIP3    H2 9968   1.303   6.379   5.023  2.4239 -0.5675 -2.6769
 3343TIP3   OH2 9969   1.266   2.692   0.400  0.0573  0.0117  0.3721
 3343TIP3    H1 9970   1.255   2.665   0.309  0.3265 -0.6492  0.5321
 3343TIP3    H2 9971   1.333   2.633   0.435  0.6068  0.8364  0.7489
 3344TIP3   OH2 9972   3.482   2.050   5.178 -0.3286 -0.5053  0.0864
 3344TIP3    H1 9973   3.526   2.131   5.154  0.8373 -1.0425  0.3487
 3344TIP3    H2 9974   3.499   1.990   5.106 -1.5727 -0.3960 -0.3206
 3345TIP3   OH2 9975   2.270   5.613   1.861  0.6659 -0.1081 -0.0948
 3345TIP3    H1 9976   2.183   5.652   1.861  1.5902  2.1671  0.2908
 3345TIP3    H2 9977   2.314   5.655   1.935  2.3569 -0.4727 -0.8433
 3346TIP3   OH2 9978   5.630   5.772   4.529 -0.5843 -0.1172 -0.7288
 3346TIP3    H1 9979   5.549   5.781   4.579  0.4120  2.0735  0.6384
 3346TIP3    H2 9980   5.698   5.807   4.587  1.7449 -3.7353 -0.9873
 3347TIP3   OH2 9981   0.108   2.355   5.593  0.1113 -0.4358 -0.8644
 3347TIP3    H1 9982   0.186   2.358   5.649 -0.3910 -0.1537 -0.1698
 3347TIP3    H2 9983   0.087   2.447   5.576 -0.3701 -0.4953 -0.6171
 3348TIP3   OH2 9984   3.569   4.376   2.018 -0.7023 -0.0133 -0.3727
 3348TIP3    H1 9985   3.582   4.425   2.099  1.0591  0.7089 -1.0372
 3348TIP3    H2 9986   3.583   4.440   1.948  0.1753 -1.1139 -1.2567
 3349TIP3   OH2 9987   7.126   5.022   2.521 -0.1313 -0.4271 -0.4091
 3349TIP3    H1 9988   7.113   5.000   2.429  2.2172  1.3526 -1.2693
 3349TIP3    H2 9989   7.141   4.938   2.564  1.2278 -1.1376 -2.1518
 3350TIP3   OH2 9990   4.616   2.344   0.716  0.0808 -0.4964  0.3412
 3350TIP3    H1 9991   4.699   2.302   0.736 -0.1384 -1.6281 -0.9649
 3350TIP3    H2 9992   4.555   2.309   0.782  0.0272 -1.8860 -0.3922
 3351TIP3   OH2 9993   4.580   1.476   5.766 -0.3475  0.1201 -0.1403
 3351TIP3    H1 9994   4.621   1.439   5.689 -0.1074  1.1841 -0.5359
 3351TIP3    H2 9995   4.626   1.559   5.781 -1.3539  0.6267  0.2726
 3352TIP3   OH2 9996   7.080   3.754   4.865 -0.8901  0.1026 -0.1482
 3352TIP3    H1 9997   7.035   3.725   4.944  0.0112 -0.5514  0.1467
 3352TIP3    H2 9998   7.164   3.708   4.868  0.7073  2.8462  0.4294
 3353TIP3   OH2 9999   4.743   0.344   4.796  0.1655 -0.4656 -0.3030
 3353TIP3    H110000   4.779   0.432   4.789  1.0089 -0.7275  0.4666
 3353TIP3    H210001   4.654   0.351   4.762  0.4013  0.5638 -0.7306
 3354TIP3   OH210002   5.893   1.288   3.185 -0.2338  0.2839 -0.6213
 3354TIP3    H110003   5.823   1.239   3.142  0.5410 -0.9005 -0.5843
 3354TIP3    H210004   5.935   1.224   3.243  0.7164  1.0343 -0.4507
 3355TIP3   OH210005   3.409   4.770   1.535  1.0838 -0.1604 -0.1412
 3355TIP3    H110006   3.316   4.761   1.556  1.4709 -0.0421  1.8342
 3355TIP3    H210007   3.411   4.797   1.443 -0.8444  0.5378 -0.0092
 3356TIP3   OH210008   6.580   6.221   0.896  0.4563 -0.5613  0.2277
 3356TIP3    H110009   6.662   6.260   0.925  0.1742  0.1493  0.0935
 3356TIP3    H210010   6.516   6.292   0.904  0.6137  0.2146 -3.4975
 3357TIP3   OH210011   1.308   0.178   1.952  0.2855 -0.5638 -0.2035
 3357TIP3    H110012   1.246   0.206   1.884  0.1705  1.5892  0.7114
 3357TIP3    H210013   1.363   0.113   1.908 -1.4660 -1.2218 -1.5629
 3358TIP3   OH210014   3.422   1.680   4.023  0.1418 -0.3072 -0.0926
 3358TIP3    H110015   3.383   1.594   4.039 -1.4006  0.3158 -0.3457
 3358TIP3    H210016   3.507   1.660   3.983 -0.5084 -1.7167 -0.8584
 3359TIP3   OH210017   5.176   5.181   3.729  0.0908 -0.6151 -0.5779
 3359TIP3    H110018   5.080   5.192   3.727  0.2988  1.6960 -1.0422
 3359TIP3    H210019   5.203   5.227   3.808  0.8415 -1.3204 -0.4154
 3360TIP3   OH210020   1.066   0.659   0.616  0.4735  0.2297  0.1998
 3360TIP3    H110021   1.090   0.716   0.689 -0.2850  0.7128  0.0830
 3360TIP3    H210022   1.143   0.660   0.559  1.2905 -0.5945  1.2448
 3361TIP3   OH210023   0.417   2.548   3.370 -0.3431  0.5479 -0.2855
 3361TIP3    H110024   0.390   2.629   3.327 -2.0560  1.0153  1.5354
 3361TIP3    H210025   0.343   2.488   3.356  0.6308 -0.5211 -1.0599
 3362TIP3   OH210026   0.214   5.301   0.002  0.0603  0.2283 -0.4581
 3362TIP3    H110027   0.211   5.206  -0.003 -2.1563  0.2226 -0.1347
 3362TIP3    H210028   0.255   5.319   0.087 -0.4736 -0.4769 -0.0366
 3363TIP3   OH210029   1.502   3.663   5.950  0.5529 -0.1672 -0.2419
 3363TIP3    H110030   1.583   3.621   5.922  0.7463 -1.0438  1.4685
 3363TIP3    H210031   1.439   3.591   5.957  0.0896  0.2582  0.0251
 3364TIP3   OH210032   5.792   0.552   2.450  0.0238  0.2989 -0.1063
 3364TIP3    H110033   5.727   0.559   2.520  0.3276  1.5728  0.0715
 3364TIP3    H210034   5.752   0.595   2.375  0.1253 -0.1155 -0.4000
 3365TIP3   OH210035   4.104   1.088   5.911  0.5054  0.1988  0.0256
 3365TIP3    H110036   4.146   1.157   5.963  1.0229  0.8402 -1.1820
 3365TIP3    H210037   4.154   1.009   5.932  1.0918  0.5671  0.0518
 3366TIP3   OH210038   2.314   1.485   6.255 -0.4595  0.1606  0.3898
 3366TIP3    H110039   2.322   1.561   6.313 -0.5491 -0.6441  1.4867
 3366TIP3    H210040   2.381   1.499   6.188 -1.0217  1.6080  0.0761
 3367TIP3   OH210041   4.958   7.667   1.537  0.2495 -0.0837 -0.1160
 3367TIP3    H110042   5.051   7.641   1.533  0.5008  0.7645  0.0743
 3367TIP3    H210043   4.943   7.684   1.630 -0.6251 -2.0454  0.1525
 3368TIP3   OH210044   3.178   3.318   6.512  0.6982 -0.0641  0.2075
 3368TIP3    H110045   3.176   3.257   6.586  0.7168  0.4150  0.6097
 3368TIP3    H210046   3.089   3.353   6.507  0.3459 -1.0728 -0.8363
 3369TIP3   OH210047   5.984   3.958   6.147  0.3803  0.0084  0.4950
 3369TIP3    H110048   5.898   3.966   6.107  0.9501 -0.6804 -0.9279
 3369TIP3    H210049   5.969   3.908   6.227 -0.7328  1.1350  1.0294
 3370TIP3   OH210050   2.931   5.255   2.183  0.6456  0.3874 -0.2876
 3370TIP3    H110051   3.022   5.275   2.207  0.1160  1.6687  0.7332
 3370TIP3    H210052   2.895   5.338   2.153 -0.2184 -0.1009 -0.6529
 3371TIP3   OH210053   4.043   4.040   5.732  0.1402  0.3841  0.0573
 3371TIP3    H110054   3.992   4.112   5.695 -0.3543  0.5274  0.9814
 3371TIP3    H210055   3.979   3.970   5.746  0.9366 -1.0203 -2.6666
 3372TIP3   OH210056   3.549   1.532   2.270  0.3753  0.3482 -0.1410
 3372TIP3    H110057   3.499   1.459   2.236  1.4849 -0.0394 -1.0133
 3372TIP3    H210058   3.502   1.610   2.241 -1.5810  0.0657  1.9420
 3373TIP3   OH210059   2.253   2.687   1.908  0.0224 -0.1481  0.2064
 3373TIP3    H110060   2.205   2.693   1.990  0.1129  1.4684  0.1682
 3373TIP3    H210061   2.196   2.728   1.843 -0.0290 -1.3603 -0.5591
 3374TIP3   OH210062   4.607   5.009   1.093 -0.5453 -0.4225  0.5341
 3374TIP3    H110063   4.574   5.054   1.015 -0.1840 -1.4743 -0.2500
 3374TIP3    H210064   4.529   4.999   1.149 -0.7059  0.7881  0.5533
 3375TIP3   OH210065   6.173   4.557   0.806 -0.0754 -0.2735  0.8289
 3375TIP3    H110066   6.164   4.648   0.780  1.6502 -0.0917  0.7733
 3375TIP3    H210067   6.265   4.547   0.829 -0.0338 -2.2013  0.0315
 3376TIP3   OH210068   6.766   7.172   2.563  0.1064  0.4155 -0.2735
 3376TIP3    H110069   6.781   7.108   2.494 -0.5114 -0.3344  0.2738
 3376TIP3    H210070   6.678   7.207   2.545  0.0951  0.4914 -0.0788
 3377TIP3   OH210071   0.939   0.815   2.466 -0.4153 -0.0948 -0.4374
 3377TIP3    H110072   0.983   0.828   2.550 -0.2955 -0.3065 -0.4662
 3377TIP3    H210073   0.989   0.868   2.404 -1.6176  1.5987 -0.0463
 3378TIP3   OH210074   7.814   1.821   4.276  0.0611  0.7876  0.0473
 3378TIP3    H110075   7.820   1.747   4.215 -2.3883  0.7305 -0.2340
 3378TIP3    H210076   7.856   1.790   4.356 -0.7763 -0.8822 -0.1160
 3379TIP3   OH210077   4.992   0.411   1.652 -0.2038  0.3723 -0.4630
 3379TIP3    H110078   4.949   0.340   1.605 -0.4293  0.3633 -0.2464
 3379TIP3    H210079   5.066   0.435   1.597 -0.1266 -0.0287 -0.5388
 3380TIP3   OH210080   5.947   4.906   1.966  0.5729  0.1298 -0.2743
 3380TIP3    H110081   6.038   4.892   1.995  0.5664  0.3141 -0.1650
 3380TIP3    H210082   5.955   4.946   1.880  0.6034  0.9887  0.1195
 3381TIP3   OH210083   2.908   1.688   3.609 -0.3268  0.2024 -0.4777
 3381TIP3    H110084   2.986   1.641   3.578 -0.7929 -0.7038 -0.3141
 3381TIP3    H210085   2.835   1.642   3.568 -0.9462 -0.7549  1.5592
 3382TIP3   OH210086   6.086   3.542   0.730 -0.2580  0.1803  0.0364
 3382TIP3    H110087   6.066   3.461   0.683 -0.9489  1.1575 -1.3828
 3382TIP3    H210088   6.171   3.524   0.772 -0.8069 -1.5710  0.5001
 3383TIP3   OH210089   6.920   6.666   2.291  0.2696  0.2356  0.2119
 3383TIP3    H110090   6.913   6.646   2.384 -1.3649 -3.0631 -0.4535
 3383TIP3    H210091   6.902   6.583   2.247 -0.5377  1.9607 -3.0845
 3384TIP3   OH210092   7.560   2.192   1.931  0.0524  0.9463 -0.3304
 3384TIP3    H110093   7.466   2.200   1.946  0.0278 -0.0181  0.1515
 3384TIP3    H210094   7.587   2.277   1.897 -1.1847  0.8930 -1.5217
 3385TIP3   OH210095   1.392   7.515   3.820  0.0685  0.3223  0.0163
 3385TIP3    H110096   1.336   7.440   3.801 -0.2391  0.3148  0.8971
 3385TIP3    H210097   1.450   7.483   3.890  1.6010  0.1273 -1.2879
 3386TIP3   OH210098   3.443   0.279   0.006  0.4952 -0.1002  0.5699
 3386TIP3    H110099   3.354   0.255   0.034  0.3807 -0.2508  0.0926
 3386TIP3    H210100   3.441   0.374  -0.003  0.4035 -0.0955  0.6424
 3387TIP3   OH210101   4.878   5.946   6.054  0.2903 -0.2802  0.1130
 3387TIP3    H110102   4.864   5.911   5.966  2.1271  1.7918 -1.1090
 3387TIP3    H210103   4.834   6.031   6.052  2.4243  0.8923  0.2744
 3388TIP3   OH210104   1.603   6.056   5.621  0.2099 -0.1769 -0.1668
 3388TIP3    H110105   1.675   6.041   5.560 -1.7108 -1.0426 -2.3545
 3388TIP3    H210106   1.555   6.130   5.585 -0.9787 -0.7207  0.2369
 3389TIP3   OH210107   6.680   7.467   2.863 -0.4141 -0.0285 -0.0307
 3389TIP3    H110108   6.683   7.494   2.771 -0.6638 -0.5944 -0.2033
 3389TIP3    H210109   6.626   7.388   2.864 -0.7477  0.1971  0.6572
 3390TIP3   OH210110   3.658   4.539   6.125 -0.3620  0.0831  0.0383
 3390TIP3    H110111   3.726   4.501   6.180 -1.2812  1.2587  2.1038
 3390TIP3    H210112   3.671   4.634   6.134 -1.4752  0.3051 -0.5713
 3391TIP3   OH210113   0.638   0.390   2.618 -0.4600  0.8129  0.1358
 3391TIP3    H110114   0.617   0.468   2.566  0.3574  1.3631  0.6125
 3391TIP3    H210115   0.700   0.421   2.683 -0.1143 -0.2499  0.3215
 3392TIP3   OH210116   5.341   3.652   4.470 -0.5597  0.2477  0.3717
 3392TIP3    H110117   5.387   3.616   4.546  1.8423  2.2434 -0.0086
 3392TIP3    H210118   5.260   3.688   4.506 -1.1043 -1.8029  1.3687
 3393TIP3   OH210119   1.016   2.665   6.033  0.6161 -0.0542  0.0730
 3393TIP3    H110120   0.931   2.640   6.068  0.8699 -0.2375  0.5679
 3393TIP3    H210121   0.998   2.737   5.973 -0.1190 -1.3173 -1.2719
 3394TIP3   OH210122   5.692   7.312   2.102 -0.1374 -0.2591  0.2635
 3394TIP3    H110123   5.699   7.341   2.011  0.7962 -0.5419  0.2412
 3394TIP3    H210124   5.740   7.377   2.153 -0.6445 -0.1097  0.5618
 3395TIP3   OH210125   7.838   0.305   2.896  0.0732  0.4962  0.0896
 3395TIP3    H110126   7.932   0.294   2.888  0.0881 -1.4689  1.9717
 3395TIP3    H210127   7.802   0.217   2.881 -1.8024  1.6739 -3.5176
 3396TIP3   OH210128   4.531   4.446   1.864 -0.2040 -0.1523  0.0054
 3396TIP3    H110129   4.441   4.472   1.845  0.1815  0.9381 -0.3933
 3396TIP3    H210130   4.570   4.522   1.906  0.2679 -0.9502  1.0622
 3397TIP3   OH210131   5.309   0.636   3.692  0.1882  0.0623  0.0410
 3397TIP3    H110132   5.322   0.561   3.634 -0.0665 -0.1922  0.3138
 3397TIP3    H210133   5.363   0.705   3.653 -1.4701  0.5091 -1.6080
 3398TIP3   OH210134   1.752   2.389   2.022  0.5867  0.0675  0.1788
 3398TIP3    H110135   1.695   2.386   2.098  0.5451  2.6722  0.3469
 3398TIP3    H210136   1.700   2.432   1.954  1.5878  0.4386 -0.3885
 3399TIP3   OH210137   0.094   3.318   2.785 -0.4221 -0.1087 -0.5510
 3399TIP3    H110138   0.011   3.364   2.772 -0.2825  0.1105 -0.6768
 3399TIP3    H210139   0.159   3.376   2.747 -0.1704 -0.1130 -0.1254
 3400TIP3   OH210140   3.190   4.895   4.308 -0.2700  0.6337  0.5309
 3400TIP3    H110141   3.192   4.988   4.288  2.5657  0.5336 -0.1554
 3400TIP3    H210142   3.107   4.864   4.271 -0.1709  2.4659 -1.3956
 3401TIP3   OH210143   8.174   0.907   1.501  0.2346  0.3133 -0.0364
 3401TIP3    H110144   8.188   0.837   1.565  1.3357 -0.0825 -0.6744
 3401TIP3    H210145   8.260   0.950   1.494  0.0590  0.5362 -1.0194
 3402TIP3   OH210146   6.201   6.001   6.204  0.4141 -0.1670 -0.2899
 3402TIP3    H110147   6.275   5.980   6.262  0.0026 -1.3260 -0.1502
 3402TIP3    H210148   6.124   5.993   6.261 -0.0077 -1.4679 -1.0051
 3403TIP3   OH210149   2.249   3.984   0.235  0.4201  0.1471 -0.0361
 3403TIP3    H110150   2.253   3.912   0.298  1.3698 -0.9594 -1.3194
 3403TIP3    H210151   2.182   3.959   0.172 -0.8206  1.4399  0.7014
 3404TIP3   OH210152   8.211   7.435   6.636 -0.1237  0.2109 -0.2290
 3404TIP3    H110153   8.206   7.528   6.615 -1.2561  0.8552  2.4066
 3404TIP3    H210154   8.302   7.421   6.660 -0.0517  0.7943 -0.1418
 3405TIP3   OH210155   0.632   2.907   4.502  0.1989  0.0061 -0.1074
 3405TIP3    H110156   0.719   2.942   4.482 -0.0469  1.0709  0.6389
 3405TIP3    H210157   0.571   2.973   4.469 -0.3435 -0.7155 -0.5944
 3406TIP3   OH210158   6.593   4.212   0.323 -0.6315  0.3567 -0.3398
 3406TIP3    H110159   6.641   4.285   0.362  0.3449 -0.7855  0.6590
 3406TIP3    H210160   6.518   4.198   0.382 -0.6080  0.3043 -0.3221
 3407TIP3   OH210161   7.304   7.912   6.365  0.3330 -0.5286  0.1342
 3407TIP3    H110162   7.250   7.838   6.390 -1.0647  0.6483  0.7203
 3407TIP3    H210163   7.393   7.886   6.388 -0.0758 -2.1415  0.0024
 3408TIP3   OH210164   2.466   1.553   0.917 -0.2223  0.2132  0.4123
 3408TIP3    H110165   2.401   1.535   0.985  1.3139  0.3470  1.9935
 3408TIP3    H210166   2.477   1.470   0.872 -0.3578 -0.2075  1.1459
 3409TIP3   OH210167   0.928   3.986   5.371  0.4053  0.2135  0.6805
 3409TIP3    H110168   0.836   3.995   5.396 -0.0483  1.3857 -1.1933
 3409TIP3    H210169   0.977   4.029   5.441 -0.3855 -0.9876  2.0274
 3410TIP3   OH210170   3.766   4.758   4.346 -0.5219 -0.8146 -0.1466
 3410TIP3    H110171   3.730   4.674   4.375  0.7691 -1.6733 -0.8949
 3410TIP3    H210172   3.692   4.805   4.308 -1.5482 -1.0373  1.4892
 3411TIP3   OH210173   5.330   7.608   3.199 -0.3409  0.1261  0.1717
 3411TIP3    H110174   5.287   7.534   3.242  1.3569 -1.1660 -0.2101
 3411TIP3    H210175   5.347   7.577   3.110 -1.8163  1.9355 -0.7992
 3412TIP3   OH210176   3.828   4.225   1.140 -0.4112  0.1516  0.2451
 3412TIP3    H110177   3.875   4.150   1.178 -1.7890 -0.2869  1.1925
 3412TIP3    H210178   3.772   4.186   1.073 -0.1639  0.5230 -0.1762
 3413TIP3   OH210179   2.226   5.748   5.666 -0.3387 -0.3405  0.2232
 3413TIP3    H110180   2.165   5.701   5.609  2.8008 -3.3154 -1.0276
 3413TIP3    H210181   2.291   5.785   5.606  0.4151  0.6856  1.6217
 3414TIP3   OH210182   4.658   0.941   4.376 -0.0277 -0.2801 -0.0201
 3414TIP3    H110183   4.740   0.974   4.341 -0.7699  0.9473 -0.6742
 3414TIP3    H210184   4.641   0.994   4.454  0.1102 -0.9738  0.4994
 3415TIP3   OH210185   7.658   6.583   1.929 -0.3755 -0.0480  0.0999
 3415TIP3    H110186   7.665   6.677   1.913  2.0907 -0.0340  0.9260
 3415TIP3    H210187   7.713   6.542   1.863  0.7921 -0.6890  1.4148
 3416TIP3   OH210188   7.996   4.921   2.141  0.4150  0.3280 -0.1160
 3416TIP3    H110189   7.928   4.953   2.200  2.0746  0.6431  1.7307
 3416TIP3    H210190   8.062   4.990   2.139  2.5881 -1.5385  1.4366
 3417TIP3   OH210191   2.420   2.317   5.152 -0.0749 -0.3045 -0.1668
 3417TIP3    H110192   2.425   2.340   5.059  1.0709 -0.1236 -0.0770
 3417TIP3    H210193   2.329   2.292   5.166 -0.1764 -0.6938 -1.4226
 3418TIP3   OH210194   2.660   6.934   1.571 -0.2818 -0.2387 -0.6879
 3418TIP3    H110195   2.737   6.982   1.541  0.4013 -0.1351  1.0976
 3418TIP3    H210196   2.657   6.856   1.515  0.4994  0.2619 -1.4595
 3419TIP3   OH210197   0.586   6.382   6.142  0.2500  0.3568 -0.0176
 3419TIP3    H110198   0.670   6.354   6.177 -0.0977 -0.7179 -0.0217
 3419TIP3    H210199   0.530   6.304   6.145 -0.2423  0.6043 -1.5682
 3420TIP3   OH210200   4.453   4.294   6.235 -0.0084 -0.0880  0.2934
 3420TIP3    H110201   4.493   4.316   6.150  1.5430  1.3836  1.3244
 3420TIP3    H210202   4.366   4.333   6.230 -0.1093 -0.4077 -0.7854
 3421TIP3   OH210203   4.540   6.382   0.648  0.1945 -0.3034 -0.6648
 3421TIP3    H110204   4.560   6.375   0.741  1.9930  0.2831 -0.9752
 3421TIP3    H210205   4.473   6.450   0.643 -0.0460 -0.4647  0.1986
 3422TIP3   OH210206   2.316   1.245   3.651  0.2141 -0.1631  0.6586
 3422TIP3    H110207   2.293   1.174   3.592  2.6701 -0.4592 -0.0470
 3422TIP3    H210208   2.322   1.204   3.737 -2.9864  0.1958  1.1845
 3423TIP3   OH210209   7.649   3.615   1.897 -0.4981  0.2449  0.8389
 3423TIP3    H110210   7.728   3.662   1.869 -0.2639 -0.8579 -0.4375
 3423TIP3    H210211   7.648   3.625   1.993  0.8500  0.7871  0.8184
 3424TIP3   OH210212   5.987   5.670   6.254  0.3915  0.4624 -0.2985
 3424TIP3    H110213   6.068   5.712   6.224  0.4012  1.4091  0.9774
 3424TIP3    H210214   5.994   5.580   6.221  0.8065  1.1712 -2.3032
 3425TIP3   OH210215   7.606   5.430   2.382  0.1802 -0.3545  1.1028
 3425TIP3    H110216   7.592   5.359   2.445 -0.6056 -0.5239  0.7411
 3425TIP3    H210217   7.548   5.500   2.411  0.2411 -0.2176  0.8982
 3426TIP3   OH210218   7.799   3.255   1.821 -0.2123  0.1104  0.1470
 3426TIP3    H110219   7.730   3.286   1.763 -0.1915 -2.1533 -1.2246
 3426TIP3    H210220   7.870   3.319   1.812 -0.8828  0.7080 -0.9793
 3427TIP3   OH210221   1.513   5.163   1.489  0.0516  0.3028 -0.5553
 3427TIP3    H110222   1.523   5.088   1.547  1.8542  0.3693 -0.7436
 3427TIP3    H210223   1.507   5.238   1.549 -0.9909  0.1111 -0.3950
 3428TIP3   OH210224   1.419   0.290   3.235  0.0648 -0.4585 -0.4362
 3428TIP3    H110225   1.443   0.302   3.327  1.8831  0.2080 -0.9662
 3428TIP3    H210226   1.444   0.200   3.215 -0.1855 -0.5530 -0.3296
 3429TIP3   OH210227   5.158   5.023   6.593  0.2231 -0.0117 -0.3350
 3429TIP3    H110228   5.163   5.118   6.606 -0.3223  0.5112 -3.1210
 3429TIP3    H210229   5.071   5.009   6.555  1.1232 -1.2599 -2.0699
 3430TIP3   OH210230   0.180   4.354   2.387  0.5765 -0.5290  0.6417
 3430TIP3    H110231   0.148   4.348   2.477 -0.1337 -2.3233  0.3030
 3430TIP3    H210232   0.220   4.441   2.382  1.6293 -0.7969  3.0056
 3431TIP3   OH210233   8.049   2.254   3.537 -0.4630 -0.0221 -0.3284
 3431TIP3    H110234   8.078   2.171   3.499 -0.5182  0.4106 -1.3594
 3431TIP3    H210235   8.088   2.321   3.481 -0.4357  0.6560  0.4774
 3432TIP3   OH210236   4.461   3.108   5.521 -0.4249  0.5353  0.2625
 3432TIP3    H110237   4.447   3.201   5.500 -1.2221  0.5552  0.8518
 3432TIP3    H210238   4.373   3.073   5.534 -0.3114 -0.9168 -2.3795
 3433TIP3   OH210239   4.380   1.424   0.740  0.4464 -0.0243  0.1030
 3433TIP3    H110240   4.311   1.490   0.748  0.0179 -0.3079 -1.1236
 3433TIP3    H210241   4.358   1.358   0.806 -0.2333  0.0813 -0.0131
 3434TIP3   OH210242   3.716   0.782   5.301 -0.1907 -0.0151 -0.8416
 3434TIP3    H110243   3.632   0.755   5.338  0.5236  1.8789  2.5623
 3434TIP3    H210244   3.781   0.756   5.366  1.7499 -0.1621 -2.7123
 3435TIP3   OH210245   1.573   6.921   5.863  0.1491 -0.1608  0.5546
 3435TIP3    H110246   1.559   6.957   5.775 -2.5838  1.4132  1.5472
 3435TIP3    H210247   1.663   6.945   5.884  0.7012 -0.1195 -1.5602
 3436TIP3   OH210248   2.450   5.493   5.062 -0.8000  0.7993 -0.5946
 3436TIP3    H110249   2.399   5.526   4.989 -1.0025 -0.7318 -1.1779
 3436TIP3    H210250   2.403   5.415   5.091  0.0183  0.6118  0.2815
 3437TIP3   OH210251   7.323   6.653   6.471 -0.2164 -0.3245  0.3688
 3437TIP3    H110252   7.276   6.729   6.439 -1.2918 -0.7246  0.9395
 3437TIP3    H210253   7.411   6.661   6.433 -1.2152 -0.4685 -2.1392
 3438TIP3   OH210254   4.620   4.214   3.931  0.0913 -0.3947  0.3952
 3438TIP3    H110255   4.673   4.261   3.995 -0.5183  0.6402  0.1748
 3438TIP3    H210256   4.635   4.261   3.848 -1.2826  0.0523  0.3630
 3439TIP3   OH210257   6.304   3.304   6.082 -0.3116 -0.2917  0.5424
 3439TIP3    H110258   6.283   3.214   6.105 -0.1190 -0.4346  0.1699
 3439TIP3    H210259   6.286   3.310   5.988 -0.8320  0.2074  0.6698
 3440TIP3   OH210260   4.059   5.073   0.079 -0.4666 -0.2669 -0.1908
 3440TIP3    H110261   4.076   5.136   0.149 -0.4066 -0.3200 -0.1574
 3440TIP3    H210262   4.030   5.127   0.005 -1.9008 -0.3167  0.3026
 3441TIP3   OH210263   1.811   0.616   2.766 -0.0644 -0.0283  0.1477
 3441TIP3    H110264   1.749   0.636   2.836 -0.5846 -0.2794 -0.2405
 3441TIP3    H210265   1.765   0.556   2.708  0.8511 -0.9188  0.3164
 3442TIP3   OH210266   1.648   6.239   1.654  0.0096  0.2843  0.0648
 3442TIP3    H110267   1.722   6.224   1.713 -0.0914 -0.5200 -0.0007
 3442TIP3    H210268   1.641   6.334   1.648  0.8826  0.3687  0.2647
 3443TIP3   OH210269   3.982   5.179   0.756  0.2038  0.3110 -0.0604
 3443TIP3    H110270   3.947   5.258   0.715  0.3875  1.3576  1.7168
 3443TIP3    H210271   3.946   5.180   0.845  0.1441 -1.6657 -0.0219
 3444TIP3   OH210272   6.196   5.870   6.832  0.2098 -0.1450 -0.4538
 3444TIP3    H110273   6.266   5.907   6.887 -1.3162 -0.5687  1.9481
 3444TIP3    H210274   6.235   5.790   6.796  0.2768 -1.9672  3.1527
 3445TIP3   OH210275   4.410   5.905   1.038  0.9890  0.0564 -0.4965
 3445TIP3    H110276   4.461   5.933   1.114  0.1500 -0.6620  0.3382
 3445TIP3    H210277   4.358   5.832   1.069 -0.8552  0.9990 -1.2285
 3446TIP3   OH210278   5.177   2.934   0.835  0.0803 -0.0149 -0.5350
 3446TIP3    H110279   5.240   2.933   0.907  1.1481 -1.1346 -1.4546
 3446TIP3    H210280   5.194   2.853   0.787 -1.9176 -0.2475 -0.9463
 3447TIP3   OH210281   5.647   4.449   4.322 -0.3907  0.3133  0.3029
 3447TIP3    H110282   5.573   4.414   4.273 -0.1964 -0.4669  0.5457
 3447TIP3    H210283   5.614   4.530   4.362 -0.5388  0.9846 -1.1096
 3448TIP3   OH210284   1.402   1.238   3.670  0.5486 -0.9824 -0.2143
 3448TIP3    H110285   1.437   1.313   3.622  0.7929 -0.2047  1.1318
 3448TIP3    H210286   1.478   1.186   3.694  0.3195 -2.1358 -1.8483
 3449TIP3   OH210287   6.648   3.774   2.400 -0.2140  0.3918 -0.1051
 3449TIP3    H110288   6.600   3.750   2.321 -0.0963  0.5465 -0.2224
 3449TIP3    H210289   6.611   3.858   2.426 -0.8114 -0.0306  0.4556
 3450TIP3   OH210290   4.495   0.650   1.404  0.1385 -0.2704 -0.0230
 3450TIP3    H110291   4.431   0.598   1.355 -0.9811  0.7315  0.3157
 3450TIP3    H210292   4.546   0.586   1.452 -2.3706 -1.0599  1.8229
 3451TIP3   OH210293   3.198   4.539   2.317 -0.0254  0.5063 -0.4362
 3451TIP3    H110294   3.249   4.463   2.343  1.2037  1.1678 -0.8058
 3451TIP3    H210295   3.128   4.545   2.382 -1.1808 -1.8815 -1.3412
 3452TIP3   OH210296   4.799   7.461   0.903  0.3176 -0.4903  0.0097
 3452TIP3    H110297   4.716   7.473   0.857 -0.8181 -0.7840  1.8600
 3452TIP3    H210298   4.809   7.367   0.913 -0.4597 -0.4280  1.9496
 3453TIP3   OH210299   1.511   1.000   3.902  0.6486  0.0899  0.4247
 3453TIP3    H110300   1.495   0.952   3.821  2.1756 -1.0306  0.7472
 3453TIP3    H210301   1.451   0.962   3.965 -0.2203  0.6508 -0.0476
 3454TIP3   OH210302   4.297   7.121   2.377 -0.1752  0.0856  0.0612
 3454TIP3    H110303   4.310   7.213   2.399 -1.3047 -0.3053  2.7357
 3454TIP3    H210304   4.352   7.073   2.439  0.0305 -1.0672 -0.9741
 3455TIP3   OH210305   5.724   3.496   6.083  0.1285 -0.2158 -0.0547
 3455TIP3    H110306   5.702   3.425   6.023  1.0321  0.8617 -1.7480
 3455TIP3    H210307   5.683   3.471   6.166  1.6900 -3.4393 -0.1069
 3456TIP3   OH210308   2.994   1.515   6.378 -0.1018  0.4664 -0.3185
 3456TIP3    H110309   2.928   1.583   6.371 -0.8468 -0.2740 -0.6316
 3456TIP3    H210310   2.973   1.454   6.308  0.3277 -0.2786  0.1836
 3457TIP3   OH210311   0.193   7.496   4.195  0.1768  0.6892 -0.8771
 3457TIP3    H110312   0.269   7.448   4.163 -0.3351  0.6203 -2.0516
 3457TIP3    H210313   0.118   7.451   4.155 -0.6413 -0.3902  1.6983
 3458TIP3   OH210314   5.758   2.728   1.638 -0.1155  0.0090 -0.9214
 3458TIP3    H110315   5.693   2.795   1.619  1.5191  1.5918 -1.1786
 3458TIP3    H210316   5.728   2.688   1.720 -0.8739  1.4078 -0.4751
 3459TIP3   OH210317   8.195   3.965   2.433  0.1476 -0.4525 -0.0606
 3459TIP3    H110318   8.253   4.019   2.379 -0.8833  2.1046  1.2341
 3459TIP3    H210319   8.116   3.954   2.379  0.2213 -0.3348 -0.1944
 3460TIP3   OH210320   7.326   6.869   1.433 -0.1782  0.5747 -0.2864
 3460TIP3    H110321   7.360   6.919   1.359  1.0844  0.2224  0.0442
 3460TIP3    H210322   7.403   6.845   1.484 -0.9554  0.0825  0.6929
 3461TIP3   OH210323   7.574   3.611   4.534 -0.2228  0.6662  0.6246
 3461TIP3    H110324   7.625   3.598   4.614 -1.6694 -0.1179  1.4736
 3461TIP3    H210325   7.533   3.697   4.546 -2.2595 -0.3943  1.8657
 3462TIP3   OH210326   6.413   4.340   5.017 -0.4063 -0.4455 -0.4388
 3462TIP3    H110327   6.352   4.360   4.945 -0.6771 -0.8142 -0.3144
 3462TIP3    H210328   6.430   4.425   5.057 -0.6928 -0.3116 -0.5941
 3463TIP3   OH210329   5.308   2.165   0.336  0.2853  0.3845  0.2014
 3463TIP3    H110330   5.343   2.205   0.416 -1.0038  1.4144  0.2875
 3463TIP3    H210331   5.269   2.083   0.365  2.1085 -0.5340  0.1805
 3464TIP3   OH210332   0.068   5.891   5.818  0.3548 -0.0109 -0.2722
 3464TIP3    H110333   0.001   5.950   5.785  1.3258  1.1866 -0.1614
 3464TIP3    H210334   0.147   5.913   5.769  0.3351 -2.5567 -1.6281
 3465TIP3   OH210335   5.916   2.028   0.029  0.3481 -0.5136 -0.4749
 3465TIP3    H110336   5.894   2.118   0.006  0.3667 -0.5580 -0.6673
 3465TIP3    H210337   5.875   2.015   0.115 -0.6848 -0.7055 -0.9811
 3466TIP3   OH210338   0.597   7.870   3.774  0.0353  0.5029  0.2830
 3466TIP3    H110339   0.629   7.797   3.722 -0.0361 -0.3301  1.3918
 3466TIP3    H210340   0.673   7.927   3.786  0.3745  0.0192  0.4140
 3467TIP3   OH210341   8.035   3.305   1.428  0.8940  0.6442 -0.3123
 3467TIP3    H110342   7.987   3.326   1.508 -0.0227  0.5631 -0.8263
 3467TIP3    H210343   8.084   3.384   1.407  1.6702  0.4390  0.6953
 3468TIP3   OH210344   1.427   7.436   4.301 -0.2892 -0.6439 -0.4644
 3468TIP3    H110345   1.467   7.419   4.386  0.0495  0.2267 -0.4411
 3468TIP3    H210346   1.335   7.455   4.321 -0.5444 -1.8367 -0.4406
 3469TIP3   OH210347   0.224   4.920   4.636  0.5303 -0.0499 -0.1946
 3469TIP3    H110348   0.161   4.986   4.608  1.3591  0.9168  0.1557
 3469TIP3    H210349   0.306   4.946   4.595  0.9824 -0.5748  0.3521
 3470TIP3   OH210350   1.292   2.418   2.593 -0.1028 -0.0927  0.5552
 3470TIP3    H110351   1.335   2.458   2.517 -1.3268 -1.2265 -0.7822
 3470TIP3    H210352   1.338   2.456   2.669  0.8171  1.4573 -0.7078
 3471TIP3   OH210353   5.003   1.966   5.081  0.2123 -0.1683  0.4452
 3471TIP3    H110354   5.031   1.941   4.993 -2.5546 -0.9691 -0.3050
 3471TIP3    H210355   5.049   2.048   5.098  0.4800  0.2553 -1.9623
 3472TIP3   OH210356   4.446   4.840   3.108  0.3974  0.0735  0.4278
 3472TIP3    H110357   4.524   4.842   3.052  0.4976  0.6514  0.5800
 3472TIP3    H210358   4.445   4.751   3.144  1.6355  0.3790  1.3028
 3473TIP3   OH210359   1.813   0.385   1.892  0.2199 -0.0318  0.3065
 3473TIP3    H110360   1.851   0.317   1.837 -0.2405  0.5598 -0.7910
 3473TIP3    H210361   1.741   0.342   1.937 -0.5544 -0.1160 -0.9619
 3474TIP3   OH210362   7.971   5.814   4.438  0.5984  0.1605 -0.0849
 3474TIP3    H110363   7.914   5.873   4.486 -0.2715 -0.6629 -0.0849
 3474TIP3    H210364   8.023   5.770   4.505 -0.9999 -1.3912  0.1864
 3475TIP3   OH210365   5.247   6.781   6.299 -0.6092  0.4228 -1.0355
 3475TIP3    H110366   5.234   6.862   6.249 -0.8614 -0.4396 -2.4388
 3475TIP3    H210367   5.328   6.744   6.264 -0.3276  0.2179 -0.1831
 3476TIP3   OH210368   2.416   7.714   4.362  0.1468  0.2397 -0.1728
 3476TIP3    H110369   2.321   7.729   4.358 -0.2717 -1.1498  2.4778
 3476TIP3    H210370   2.425   7.629   4.404  2.6089  0.1219 -0.8012
 3477TIP3   OH210371   0.950   1.143   5.397  0.0388  0.3180 -0.1373
 3477TIP3    H110372   1.023   1.090   5.430  1.7491  2.1621 -0.7437
 3477TIP3    H210373   0.881   1.080   5.378  0.9675 -1.3842  1.7026
 3478TIP3   OH210374   0.531   0.851   2.096  0.3804  0.3280  0.2160
 3478TIP3    H110375   0.461   0.793   2.064  1.0744 -0.9842  0.9995
 3478TIP3    H210376   0.499   0.883   2.180  0.6012 -0.0645  0.4520
 3479TIP3   OH210377   1.439   7.071   1.113 -0.7805 -0.8300 -0.0353
 3479TIP3    H110378   1.404   6.986   1.088 -2.1460 -0.1355 -0.5848
 3479TIP3    H210379   1.363   7.121   1.143 -0.0608  0.3100 -0.0322
 3480TIP3   OH210380   3.993   2.696   0.361 -0.2898 -0.0532 -0.2299
 3480TIP3    H110381   4.007   2.622   0.301 -1.4105 -1.1499  0.7866
 3480TIP3    H210382   4.045   2.673   0.439  0.9250  1.2134 -0.6307
 3481TIP3   OH210383   6.901   4.943   4.678 -0.4502 -0.8309 -0.3864
 3481TIP3    H110384   6.964   5.013   4.661 -0.3733 -0.3132  1.7468
 3481TIP3    H210385   6.838   4.982   4.739  0.9500 -3.2319  2.8279
 3482TIP3   OH210386   5.374   3.422   0.890 -0.1682  0.4507 -0.0319
 3482TIP3    H110387   5.404   3.347   0.942  0.8195  1.9407  1.6495
 3482TIP3    H210388   5.280   3.410   0.883  0.0627 -1.4179 -0.6235
 3483TIP3   OH210389   2.937   4.682   0.803 -0.2821  0.3141 -0.1100
 3483TIP3    H110390   2.845   4.704   0.814 -0.2990  0.2259 -0.0720
 3483TIP3    H210391   2.939   4.628   0.724 -0.2593  0.3403 -0.1273
 3484TIP3   OH210392   4.580   3.488   4.103 -0.0124  0.2629  0.3116
 3484TIP3    H110393   4.595   3.537   4.184  2.4926 -0.9562  0.6979
 3484TIP3    H210394   4.493   3.450   4.113 -0.0411  0.7282  2.1172
 3485TIP3   OH210395   5.671   2.664   1.888  0.2942 -0.1856  0.4104
 3485TIP3    H110396   5.714   2.643   1.971  0.7803 -0.6494  0.0489
 3485TIP3    H210397   5.581   2.685   1.913  0.8937  1.5499  1.2690
 3486TIP3   OH210398   5.555   6.382   4.383  0.4929  0.2612 -0.3409
 3486TIP3    H110399   5.478   6.425   4.420  0.9802  1.0813 -0.2667
 3486TIP3    H210400   5.563   6.301   4.433  1.2331  1.4111  1.5110
 3487TIP3   OH210401   0.203   5.465   6.266 -0.1145  0.3123  0.0628
 3487TIP3    H110402   0.119   5.477   6.310 -1.6824  2.0072 -3.1109
 3487TIP3    H210403   0.225   5.552   6.232  1.2705 -0.7698 -1.9844
 3488TIP3   OH210404   5.573   4.721   3.169  1.2710 -0.0564  0.1009
 3488TIP3    H110405   5.506   4.771   3.216  0.0852 -1.1110 -0.4083
 3488TIP3    H210406   5.568   4.633   3.207  0.2691 -0.9464 -1.9158
 3489TIP3   OH210407   2.393   2.241   4.657 -0.3242  0.0460  0.1113
 3489TIP3    H110408   2.416   2.289   4.578 -1.9564 -0.0803 -0.4727
 3489TIP3    H210409   2.428   2.153   4.643 -1.6162 -0.3065 -0.9970
 3490TIP3   OH210410   8.262   2.178   5.270  0.3288 -0.0913 -0.0762
 3490TIP3    H110411   8.332   2.241   5.252  2.5625 -2.3002  0.3480
 3490TIP3    H210412   8.291   2.131   5.347 -0.6352 -2.4228 -1.0446
 3491TIP3   OH210413   4.407   2.247   5.979 -0.1018 -0.5953 -0.0052
 3491TIP3    H110414   4.430   2.212   5.892 -1.0819  0.2343 -0.6125
 3491TIP3    H210415   4.339   2.312   5.962 -0.7061 -0.8067  1.4454
 3492TIP3   OH210416   0.362   2.666   5.386 -0.5550  0.0943 -0.0191
 3492TIP3    H110417   0.273   2.641   5.358 -0.3748 -1.7185  0.8719
 3492TIP3    H210418   0.355   2.675   5.481  0.3167 -0.6297  0.1299
 3493TIP3   OH210419   4.555   3.930   1.079 -0.0086  0.2484  0.9395
 3493TIP3    H110420   4.570   3.938   0.984  1.5717  1.0104  1.2211
 3493TIP3    H210421   4.507   4.009   1.102 -2.4862 -1.0169  0.4459
 3494TIP3   OH210422   4.315   5.274   0.286 -0.4105 -0.0462 -0.0621
 3494TIP3    H110423   4.247   5.256   0.351 -0.0907  1.0312  0.5858
 3494TIP3    H210424   4.391   5.226   0.318  0.1259  1.4997  1.0854
 3495TIP3   OH210425   2.117   5.799   6.253 -0.2299  0.3658 -0.4649
 3495TIP3    H110426   2.052   5.791   6.183 -1.0616 -0.9982  0.4193
 3495TIP3    H210427   2.140   5.709   6.275  1.6593  0.8086 -0.4436
 3496TIP3   OH210428   3.286   3.172   1.271 -0.1589  0.0551 -0.1675
 3496TIP3    H110429   3.357   3.134   1.220  0.3469 -0.3218  0.7871
 3496TIP3    H210430   3.209   3.167   1.214  0.1305 -1.4178 -0.4708
 3497TIP3   OH210431   1.111   3.109   6.019 -0.1752 -0.1120  0.0324
 3497TIP3    H110432   1.203   3.113   6.044 -0.1706  0.2279 -0.0325
 3497TIP3    H210433   1.065   3.092   6.101 -0.1114  0.3984  0.1760
 3498TIP3   OH210434   7.942   5.805   1.860 -0.8752  0.1459  0.3661
 3498TIP3    H110435   7.893   5.822   1.940  0.2030  1.5531  0.7614
 3498TIP3    H210436   8.032   5.794   1.889 -0.8357 -2.0480 -0.3892
 3499TIP3   OH210437   8.346   7.626   3.947  0.4566  0.8054  0.2342
 3499TIP3    H110438   8.360   7.538   3.981  1.2192  1.2177  1.0444
 3499TIP3    H210439   8.262   7.622   3.902  0.7420 -0.4709 -0.2174
 3500TIP3   OH210440   3.666   0.135   1.524  0.3244  0.4671 -0.3257
 3500TIP3    H110441   3.636   0.177   1.443 -1.1158 -1.3237 -0.7742
 3500TIP3    H210442   3.602   0.067   1.542  0.7956  0.5667  2.1664
 3501TIP3   OH210443   4.519   0.693   2.514 -0.0633  0.0925  0.4644
 3501TIP3    H110444   4.578   0.623   2.485 -1.2774 -1.2190  1.0380
 3501TIP3    H210445   4.546   0.710   2.605  0.7532  0.9794  0.0810
 3502TIP3   OH210446   6.573   1.055   3.611 -0.3826  0.6393  0.2380
 3502TIP3    H110447   6.563   1.057   3.707  1.3498  0.5912  0.4660
 3502TIP3    H210448   6.493   1.095   3.577 -1.5458 -0.3540  1.6528
 3503TIP3   OH210449   5.250   1.682   3.062  0.0232 -0.1129  0.3391
 3503TIP3    H110450   5.318   1.748   3.077  0.0054 -0.3728  1.7059
 3503TIP3    H210451   5.288   1.622   2.999  0.4231  0.6605 -0.1670
 3504TIP3   OH210452   6.336   5.593   5.643 -0.5185  0.3082  0.1308
 3504TIP3    H110453   6.300   5.505   5.632 -0.0915  0.1420  0.0708
 3504TIP3    H210454   6.405   5.599   5.577 -0.7367  0.7882 -0.0553
 3505TIP3   OH210455   2.033   2.987   6.008 -0.4148 -0.4384 -0.1643
 3505TIP3    H110456   2.129   2.988   6.008 -0.2920 -2.8746 -1.9884
 3505TIP3    H210457   2.008   3.067   5.961  0.5261  1.5075  2.3892
 3506TIP3   OH210458   7.275   4.195   4.643  0.2705  0.2793 -0.0274
 3506TIP3    H110459   7.181   4.183   4.626  0.4245 -0.4131 -0.4827
 3506TIP3    H210460   7.311   4.106   4.638  0.6102  0.2144  2.4456
 3507TIP3   OH210461   3.045   7.851   3.520  0.1496 -0.0084 -0.2269
 3507TIP3    H110462   3.126   7.809   3.490  1.0590 -0.3884  2.5430
 3507TIP3    H210463   3.050   7.849   3.615 -3.4617 -0.6890  0.0982
 3508TIP3   OH210464   1.441   6.524   5.596  0.2367  0.4800  0.2616
 3508TIP3    H110465   1.513   6.562   5.546 -0.0256  2.3358  1.1965
 3508TIP3    H210466   1.383   6.486   5.530  1.7776 -0.5994 -0.5389
 3509TIP3   OH210467   4.235   0.942   1.388 -0.1120 -0.8690 -0.8746
 3509TIP3    H110468   4.178   0.966   1.462 -1.0456 -2.2479 -1.1100
 3509TIP3    H210469   4.317   0.987   1.406 -0.6163 -0.4418  0.5404
 3510TIP3   OH210470   0.513   1.037   5.501 -0.2486  0.3378 -0.4882
 3510TIP3    H110471   0.590   1.071   5.545  0.5598 -0.7751 -0.9942
 3510TIP3    H210472   0.546   1.000   5.419 -1.2435 -0.6119 -0.4847
 3511TIP3   OH210473   1.609   7.947   5.486  0.4811  0.1120  0.0498
 3511TIP3    H110474   1.539   7.923   5.548 -0.3119 -0.0081 -0.8691
 3511TIP3    H210475   1.631   7.866   5.442 -0.8815  0.6417 -1.7266
 3512TIP3   OH210476   5.169   4.741   2.956  0.6237 -0.8107  0.5997
 3512TIP3    H110477   5.114   4.805   2.911 -0.8899 -0.7107  2.4497
 3512TIP3    H210478   5.243   4.792   2.988  1.0979 -0.6580 -0.6697
 3513TIP3   OH210479   4.803   5.039   3.970  0.5878 -0.4828  0.0589
 3513TIP3    H110480   4.860   4.990   4.030 -1.0064 -2.6893 -0.1171
 3513TIP3    H210481   4.786   4.978   3.898 -1.4968  0.2988 -0.1722
 3514TIP3   OH210482   3.900   4.700   3.025 -0.2707  0.2306  0.0036
 3514TIP3    H110483   3.944   4.615   3.031 -0.3438  0.1899 -0.0387
 3514TIP3    H210484   3.958   4.752   2.968 -0.6696 -0.0719 -0.6874
 3515TIP3   OH210485   1.922   5.025   5.272  0.2654  0.1642 -0.2533
 3515TIP3    H110486   1.984   5.021   5.344 -0.9365 -0.5584  0.7744
 3515TIP3    H210487   1.891   5.116   5.271 -1.6356 -0.3817  1.8680
 3516TIP3   OH210488   1.361   0.969   5.667  0.3950 -0.3103  0.0494
 3516TIP3    H110489   1.281   0.975   5.615  0.7359 -0.7590 -0.5380
 3516TIP3    H210490   1.397   0.883   5.646  1.1046 -0.0567  0.1974
 3517TIP3   OH210491   0.071   1.538   6.589  0.0737  0.1851 -0.0271
 3517TIP3    H110492   0.014   1.612   6.608  1.5130  1.4525 -0.4110
 3517TIP3    H210493   0.115   1.562   6.507  1.4028 -0.5733  0.4329
 3518TIP3   OH210494   4.764   4.338   0.483 -0.0135 -0.1854 -0.3738
 3518TIP3    H110495   4.742   4.428   0.509  1.5183  0.6433 -1.7342
 3518TIP3    H210496   4.850   4.322   0.522 -0.7136 -1.4943  0.7230
 3519TIP3   OH210497   3.636   6.228   2.671 -0.2057  0.2661 -0.4209
 3519TIP3    H110498   3.574   6.249   2.601 -1.9726 -0.8376  0.6999
 3519TIP3    H210499   3.615   6.290   2.741  1.4550  1.2785 -0.7613
 3520TIP3   OH210500   5.700   0.222   2.013 -0.6011  0.3042 -0.8393
 3520TIP3    H110501   5.734   0.298   1.966  0.2426  0.1197 -0.5484
 3520TIP3    H210502   5.624   0.194   1.963 -1.2649  1.6729 -0.6542
 3521TIP3   OH210503   6.922   3.709   5.090 -0.7043 -0.3614 -0.0778
 3521TIP3    H110504   6.967   3.726   5.173 -0.5438 -0.5516 -0.1246
 3521TIP3    H210505   6.847   3.656   5.114 -0.3544 -0.8800 -0.1188
 3522TIP3   OH210506   6.543   2.069   2.312  0.5167  0.2652 -0.5976
 3522TIP3    H110507   6.535   2.136   2.245 -1.2023  0.8090  0.0844
 3522TIP3    H210508   6.590   2.112   2.384  2.1942 -0.2611 -1.3459
 3523TIP3   OH210509   2.199   4.224   5.917  0.2658 -0.1311 -0.2140
 3523TIP3    H110510   2.151   4.170   5.979  0.5106  0.1292  0.2089
 3523TIP3    H210511   2.278   4.174   5.897 -0.0351 -0.4246 -0.6799
 3524TIP3   OH210512   5.308   0.707   2.390 -0.0039 -0.4357  0.5434
 3524TIP3    H110513   5.318   0.776   2.455 -0.4666 -0.6709  0.8675
 3524TIP3    H210514   5.375   0.642   2.413 -0.4332 -0.7109  1.0362
 3525TIP3   OH210515   2.484   3.063   0.348  0.5463 -0.2395 -0.2267
 3525TIP3    H110516   2.406   3.118   0.341  0.2422 -0.7425 -0.8719
 3525TIP3    H210517   2.519   3.059   0.259  1.7748  0.6314  0.1887
 3526TIP3   OH210518   0.591   5.822   3.911  0.4307  0.1651 -0.2142
 3526TIP3    H110519   0.501   5.850   3.896  0.4144  0.4960  0.4640
 3526TIP3    H210520   0.644   5.878   3.854  0.1634 -0.5716 -1.2263
 3527TIP3   OH210521   8.257   5.163   2.591 -0.2713  0.0541  0.2680
 3527TIP3    H110522   8.192   5.174   2.522  0.1567 -1.4723 -0.4287
 3527TIP3    H210523   8.206   5.147   2.670 -0.7599  0.4050  0.0274
 3528TIP3   OH210524   0.819   2.342   1.796  0.3671 -0.0150  0.1214
 3528TIP3    H110525   0.773   2.261   1.818  2.5956 -0.9405  1.8159
 3528TIP3    H210526   0.910   2.325   1.820  0.8160  3.2217  1.2262
 3529TIP3   OH210527   6.251   2.262   0.673  0.0195 -0.4525 -0.2194
 3529TIP3    H110528   6.296   2.329   0.622 -1.4994  0.0633 -0.9300
 3529TIP3    H210529   6.317   2.193   0.686  1.7947  1.3609  0.9975
 3530TIP3   OH210530   2.566   7.030   6.099 -0.4228 -0.0606  0.1725
 3530TIP3    H110531   2.483   6.984   6.113 -0.9412  0.6839 -0.4297
 3530TIP3    H210532   2.554   7.077   6.017  0.8548 -0.5004 -0.2906
 3531TIP3   OH210533   7.848   1.726   5.527  0.2693 -0.1979 -0.2271
 3531TIP3    H110534   7.892   1.808   5.504  1.7248 -0.9196 -0.1244
 3531TIP3    H210535   7.914   1.676   5.575 -0.3210 -1.7414 -0.9481
 3532TIP3   OH210536   6.293   4.511   2.283  0.5828 -0.2360 -0.0945
 3532TIP3    H110537   6.356   4.518   2.211  0.8905 -0.0995  0.1833
 3532TIP3    H210538   6.224   4.453   2.250  1.6619 -1.7170  0.1581
 3533TIP3   OH210539   5.829   1.652   3.820 -0.0667  0.2049  0.3019
 3533TIP3    H110540   5.780   1.570   3.834  1.4504 -0.7792  0.1176
 3533TIP3    H210541   5.774   1.703   3.761  0.2738 -2.0210 -2.1648
 3534TIP3   OH210542   8.024   2.854   5.717 -0.4803 -0.1457 -0.1481
 3534TIP3    H110543   8.098   2.796   5.735  0.2092 -0.2223 -2.7541
 3534TIP3    H210544   7.988   2.875   5.803  1.8486 -1.0405  1.1347
 3535TIP3   OH210545   0.501   7.673   5.100  0.2198 -0.9169  0.2780
 3535TIP3    H110546   0.513   7.767   5.111  1.5231 -1.0110 -0.1746
 3535TIP3    H210547   0.555   7.634   5.169  0.6771 -1.3344 -0.3009
 3536TIP3   OH210548   7.963   1.594   5.747  0.0233 -0.1344  0.4107
 3536TIP3    H110549   8.038   1.640   5.786  0.4533  1.6160 -2.2385
 3536TIP3    H210550   7.895   1.599   5.814  0.4728  3.3706  0.8010
 3537TIP3   OH210551   4.508   7.605   4.658  0.4661  0.0664  0.8315
 3537TIP3    H110552   4.435   7.638   4.607  0.5302  0.2981  0.8906
 3537TIP3    H210553   4.586   7.642   4.615  0.4520  1.5861  2.0558
 3538TIP3   OH210554   0.875   1.452   0.587  0.5018  0.2800  0.5553
 3538TIP3    H110555   0.806   1.417   0.531  0.8583  0.3930  0.0334
 3538TIP3    H210556   0.836   1.457   0.674 -0.2852  0.7721  0.1792
 3539TIP3   OH210557   1.075   3.273   2.394 -0.3599 -0.3306  0.0958
 3539TIP3    H110558   1.088   3.212   2.321  2.2586 -0.0991  0.2451
 3539TIP3    H210559   1.125   3.351   2.368 -1.7515  0.8873  0.9134
 3540TIP3   OH210560   3.331   7.232   0.113  0.1670 -1.0443  0.0434
 3540TIP3    H110561   3.423   7.212   0.097 -0.1008 -1.6388 -0.8508
 3540TIP3    H210562   3.303   7.166   0.176  0.4632 -0.5786  0.6701
 3541TIP3   OH210563   7.832   1.016   6.199  0.0204 -0.1218  0.2702
 3541TIP3    H110564   7.863   0.938   6.246  0.0685  0.2351  0.8390
 3541TIP3    H210565   7.748   0.989   6.160 -0.5079 -0.1332  1.3820
 3542TIP3   OH210566   2.702   5.627   0.441 -0.2406  0.2827 -0.2807
 3542TIP3    H110567   2.706   5.704   0.497 -1.0772 -1.3720  2.2476
 3542TIP3    H210568   2.643   5.652   0.370  0.2430  2.2221 -0.0545
 3543TIP3   OH210569   7.927   0.130   1.116 -0.1152  0.1127  0.1356
 3543TIP3    H110570   7.903   0.110   1.206 -0.5937 -1.0795 -0.2342
 3543TIP3    H210571   7.919   0.225   1.109 -0.9862  0.1203  1.0854
 3544TIP3   OH210572   3.607   5.714   1.706 -0.4960  0.4850  0.0595
 3544TIP3    H110573   3.682   5.654   1.706 -2.0018 -1.5115  1.0037
 3544TIP3    H210574   3.538   5.666   1.660 -1.3034  2.1808 -0.5819
 3545TIP3   OH210575   4.984   2.545   4.100  0.0930 -0.2971 -0.1747
 3545TIP3    H110576   5.007   2.590   4.019  2.6921  1.3205  1.3156
 3545TIP3    H210577   4.950   2.613   4.157 -1.7063 -1.4049  0.1558
 3546TIP3   OH210578   0.485   1.873   4.546 -0.1099  0.7159  0.1336
 3546TIP3    H110579   0.523   1.901   4.629  0.5886  2.5207 -0.7311
 3546TIP3    H210580   0.551   1.814   4.509  1.0110  2.2223 -0.4192
 3547TIP3   OH210581   8.375   5.528   0.332 -0.0366  0.3200  0.1661
 3547TIP3    H110582   8.380   5.507   0.239  0.5436 -0.3073  0.3324
 3547TIP3    H210583   8.380   5.443   0.376  1.3897  0.7105  0.8216
 3548TIP3   OH210584   2.094   3.049   2.959  0.7515 -0.0372  0.2437
 3548TIP3    H110585   2.182   3.058   2.995  0.6713 -0.0392  0.4403
 3548TIP3    H210586   2.104   3.072   2.866  1.3332 -1.9056 -0.1990
 3549TIP3   OH210587   0.606   1.047   5.240  0.3290 -0.0969 -0.8318
 3549TIP3    H110588   0.605   1.134   5.280 -0.6008  0.5000 -2.0742
 3549TIP3    H210589   0.693   1.039   5.201  1.4945 -0.9513  1.7318
 3550TIP3   OH210590   6.623   3.315   6.520  0.2380  0.4458 -0.2172
 3550TIP3    H110591   6.610   3.398   6.566  1.8622 -0.2310  1.6029
 3550TIP3    H210592   6.559   3.317   6.449 -1.5859  2.1000  1.3450
 3551TIP3   OH210593   0.251   6.978   5.904  0.1512 -0.3651  0.5407
 3551TIP3    H110594   0.288   7.018   5.826  1.0258 -0.6384  0.8060
 3551TIP3    H210595   0.314   6.911   5.929 -0.4875 -0.7843  1.0553
 3552TIP3   OH210596   7.286   4.439   5.474 -0.1886 -0.4440 -0.3005
 3552TIP3    H110597   7.231   4.468   5.401  0.9411 -0.6057 -1.2686
 3552TIP3    H210598   7.345   4.513   5.489 -1.5452  0.3078  1.6941
 3553TIP3   OH210599   6.727   0.969   2.903  0.4837 -0.4045 -0.3772
 3553TIP3    H110600   6.748   1.060   2.922 -0.5889  0.0955 -1.4429
 3553TIP3    H210601   6.632   0.963   2.913  0.4488 -1.2242 -1.0157
 3554TIP3   OH210602   4.098   0.636   1.903 -0.1756  0.2124  0.1160
 3554TIP3    H110603   4.101   0.703   1.972 -0.1195  1.1034 -0.7362
 3554TIP3    H210604   4.076   0.555   1.950 -0.2415  0.8141  1.1664
 3555TIP3   OH210605   3.759   4.628   3.249  0.5979 -0.1262 -0.2423
 3555TIP3    H110606   3.817   4.639   3.174  0.3229 -1.2045 -0.6333
 3555TIP3    H210607   3.759   4.534   3.266 -0.3517 -0.0420  0.2936
 3556TIP3   OH210608   0.112   3.261   3.087 -0.0975 -0.0791 -0.1762
 3556TIP3    H110609   0.018   3.245   3.091 -0.2582  0.3257 -1.6051
 3556TIP3    H210610   0.130   3.275   2.994  0.8746  2.6451  0.3085
 3557TIP3   OH210611   8.153   0.936   0.128 -0.2670 -0.0485 -0.1688
 3557TIP3    H110612   8.204   0.856   0.143 -0.9169 -0.2328  1.2592
 3557TIP3    H210613   8.062   0.906   0.128 -0.4522  0.4798 -1.2556
 3558TIP3   OH210614   6.422   7.001   6.769  0.2783  0.7295  0.0526
 3558TIP3    H110615   6.396   6.910   6.779 -0.5982  1.1919  2.6612
 3558TIP3    H210616   6.511   6.997   6.733 -0.3192 -1.0580 -1.3614
 3559TIP3   OH210617   3.764   0.497   0.358  0.1071  0.0475 -0.9654
 3559TIP3    H110618   3.709   0.566   0.395 -1.3808 -0.7079 -1.6645
 3559TIP3    H210619   3.729   0.484   0.270 -0.5306 -2.4797 -0.4202
 3560TIP3   OH210620   3.743   4.990   2.876 -0.0129  0.1730 -0.2562
 3560TIP3    H110621   3.740   5.032   2.962 -1.7854  1.1503 -0.7444
 3560TIP3    H210622   3.777   4.902   2.893 -1.5690 -0.1139  1.6547
 3561TIP3   OH210623   0.595   1.832   0.580 -0.0765  0.1663  0.4049
 3561TIP3    H110624   0.501   1.817   0.590  0.0929 -1.1890  0.1881
 3561TIP3    H210625   0.601   1.917   0.536 -1.1990  0.1839  0.2400
 3562TIP3   OH210626   1.383   6.672   6.278  0.6543 -0.8990 -0.4222
 3562TIP3    H110627   1.428   6.755   6.269 -0.8804  0.0083 -0.1265
 3562TIP3    H210628   1.377   6.638   6.188  0.8932 -0.4803 -0.5963
 3563TIP3   OH210629   3.892   1.649   0.521 -0.0772 -0.1125 -0.2690
 3563TIP3    H110630   3.817   1.598   0.552 -0.8626  0.2348 -1.5353
 3563TIP3    H210631   3.872   1.667   0.430  1.2481  0.5695 -0.4373
 3564TIP3   OH210632   2.560   2.968   6.184  0.5851  0.0961  0.2533
 3564TIP3    H110633   2.541   2.936   6.272  0.9102 -0.0362  0.2761
 3564TIP3    H210634   2.612   2.899   6.144 -1.0660 -0.6792 -0.6839
 3565TIP3   OH210635   6.999   5.330   1.004  0.0447 -0.0472  0.1420
 3565TIP3    H110636   7.029   5.396   1.066  0.3821  0.3055 -0.3882
 3565TIP3    H210637   6.956   5.264   1.058 -1.2605  1.1117  0.5744
 3566TIP3   OH210638   6.434   2.881   0.521 -0.8825  0.0329  0.1381
 3566TIP3    H110639   6.447   2.879   0.615 -1.1107 -0.1989  0.1681
 3566TIP3    H210640   6.345   2.846   0.509 -1.0577  0.5635 -0.1230
 3567TIP3   OH210641   3.353   1.766   6.798 -0.0369  0.2366 -0.3511
 3567TIP3    H110642   3.278   1.807   6.755 -0.9915 -0.8941  0.1967
 3567TIP3    H210643   3.358   1.678   6.760  0.8492  0.1935 -0.1771
 3568TIP3   OH210644   3.091   5.388   0.829  0.0003  0.4853 -0.2134
 3568TIP3    H110645   3.096   5.316   0.892  1.3274 -0.5062 -1.3821
 3568TIP3    H210646   3.182   5.407   0.807 -0.4169 -0.3425 -3.0329
 3569TIP3   OH210647   1.833   5.078   6.339 -0.1339  0.3667 -0.0208
 3569TIP3    H110648   1.839   5.003   6.399 -0.7961 -1.1667 -1.7731
 3569TIP3    H210649   1.879   5.049   6.260 -1.0393  1.5143 -1.0016
 3570TIP3   OH210650   4.825   1.957   2.377 -0.5672 -0.3049  0.4214
 3570TIP3    H110651   4.845   2.006   2.456 -0.1696 -0.2005  0.2576
 3570TIP3    H210652   4.906   1.912   2.354 -0.8853 -0.9388  0.4936
 3571TIP3   OH210653   6.330   0.155   5.611 -0.8224 -0.1345 -0.3567
 3571TIP3    H110654   6.264   0.123   5.673  0.0239 -0.5520  0.3372
 3571TIP3    H210655   6.295   0.132   5.525 -0.7594 -1.9671  0.0663
 3572TIP3   OH210656   5.255   1.877   4.768 -0.3514  0.7044  0.3235
 3572TIP3    H110657   5.163   1.886   4.790 -0.1519  0.6830  1.2084
 3572TIP3    H210658   5.256   1.820   4.691 -1.1132  1.3923 -0.2125
 3573TIP3   OH210659   8.131   7.491   1.319 -0.7745  0.0034  0.2571
 3573TIP3    H110660   8.172   7.576   1.305  1.8476 -0.9103  1.6567
 3573TIP3    H210661   8.168   7.435   1.251 -3.4065  0.1618 -1.4258
 3574TIP3   OH210662   2.757   6.113   5.600 -0.6110 -0.1596 -0.3837
 3574TIP3    H110663   2.838   6.069   5.573  0.2311 -0.3273  2.1659
 3574TIP3    H210664   2.731   6.068   5.680 -1.8879  1.4695  0.1622
 3575TIP3   OH210665   7.814   5.075   4.879 -0.0385  0.3874 -0.1832
 3575TIP3    H110666   7.878   5.106   4.943  0.2841  1.7828 -1.1250
 3575TIP3    H210667   7.751   5.024   4.930  0.2138  1.4442  1.2324
 3576TIP3   OH210668   7.765   0.663   5.675 -0.1081  0.0426  0.5171
 3576TIP3    H110669   7.707   0.726   5.633 -0.3966  0.6158  1.7147
 3576TIP3    H210670   7.853   0.698   5.660 -0.3091  1.3163  1.9918
 3577TIP3   OH210671   6.177   7.891   1.142 -0.5878  0.5063  0.2568
 3577TIP3    H110672   6.141   7.849   1.220  0.8093  0.1914  0.7491
 3577TIP3    H210673   6.192   7.819   1.081 -1.4630  0.7268 -0.2449
 3578TIP3   OH210674   4.587   2.443   1.031  0.0170 -0.1451 -0.0800
 3578TIP3    H110675   4.662   2.383   1.031  0.1283 -0.1414 -2.6350
 3578TIP3    H210676   4.625   2.528   1.007 -0.4214  0.5254  1.5119
 3579TIP3   OH210677   7.350   1.560   4.764  0.1768  0.0640  0.1564
 3579TIP3    H110678   7.354   1.602   4.850 -1.6177  0.9557 -0.1537
 3579TIP3    H210679   7.439   1.525   4.750  1.0228  1.5415  1.5330
 3580TIP3   OH210680   5.135   1.070   0.329  0.2676 -0.4109  0.1188
 3580TIP3    H110681   5.230   1.079   0.330  0.2946 -0.6796  1.0288
 3580TIP3    H210682   5.109   1.072   0.421 -0.7581  1.0769 -0.1643
 3581TIP3   OH210683   1.176   4.512   3.750  0.4370  0.2259  0.1292
 3581TIP3    H110684   1.180   4.560   3.667 -2.4753  1.7885  0.7495
 3581TIP3    H210685   1.191   4.578   3.817 -0.7925 -0.2768  0.9352
 3582TIP3   OH210686   3.483   1.420   2.823  0.2175  0.2120 -0.9264
 3582TIP3    H110687   3.518   1.458   2.742  0.2037  0.7364 -0.6879
 3582TIP3    H210688   3.559   1.418   2.882  0.7062 -1.9083 -1.5455
 3583TIP3   OH210689   5.458   1.633   4.543 -0.4947 -0.0797 -0.3714
 3583TIP3    H110690   5.490   1.544   4.529 -1.5944 -0.5251 -0.1646
 3583TIP3    H210691   5.389   1.644   4.477  1.2507  1.5216 -2.0733
 3584TIP3   OH210692   8.180   0.194   1.986  0.1658  0.2602  0.5322
 3584TIP3    H110693   8.157   0.103   2.001  1.7184  0.0959  2.1988
 3584TIP3    H210694   8.177   0.205   1.891  0.1604 -1.5725  0.2995
 3585TIP3   OH210695   6.370   1.662   6.673  0.0888  0.1267  0.2999
 3585TIP3    H110696   6.371   1.663   6.577  0.6438 -1.5657  0.2480
 3585TIP3    H210697   6.458   1.692   6.698  0.1547 -0.0293  0.2569
 3586TIP3   OH210698   6.543   5.116   6.504 -0.6543 -0.3203  0.2562
 3586TIP3    H110699   6.614   5.147   6.447  0.9165 -1.3179  1.5629
 3586TIP3    H210700   6.560   5.022   6.514 -1.7356 -0.4309  1.2071
 3587TIP3   OH210701   2.831   1.105   3.527  0.0967 -0.1929  0.3023
 3587TIP3    H110702   2.815   1.034   3.466  2.8012 -1.5891  1.0487
 3587TIP3    H210703   2.777   1.085   3.604  0.6709 -1.3363  0.4173
 3588TIP3   OH210704   3.648   0.846   4.746 -0.3288  0.1609 -0.0530
 3588TIP3    H110705   3.653   0.769   4.689  0.6738  0.6151 -0.5999
 3588TIP3    H210706   3.566   0.835   4.794  0.4791 -2.0287  0.9901
 3589TIP3   OH210707   4.322   5.548   5.971 -0.2073  0.0552 -0.5312
 3589TIP3    H110708   4.390   5.510   6.026  0.1967  0.6368 -0.6199
 3589TIP3    H210709   4.307   5.635   6.008 -1.0611 -0.1433 -0.3764
 3590TIP3   OH210710   4.183   2.375   5.789 -0.4777  0.3046  0.1755
 3590TIP3    H110711   4.097   2.405   5.762 -0.5530 -0.9724 -1.1303
 3590TIP3    H210712   4.241   2.397   5.716  0.3643  1.3055  1.1058
 3591TIP3   OH210713   6.096   2.491   5.739 -0.2487 -0.0035  0.1184
 3591TIP3    H110714   6.025   2.441   5.698 -1.1408  1.1736  0.1687
 3591TIP3    H210715   6.166   2.493   5.674  0.0460 -1.7755  0.3323
 3592TIP3   OH210716   6.746   3.675   2.630 -0.1544 -0.1601  0.0754
 3592TIP3    H110717   6.733   3.713   2.543 -0.8341 -0.7872 -0.1116
 3592TIP3    H210718   6.799   3.739   2.676  1.2580 -0.3668 -1.1819
 3593TIP3   OH210719   3.103   6.077   4.291 -0.0865  0.4927 -0.2152
 3593TIP3    H110720   3.182   6.060   4.240  0.1476  0.7160  0.0733
 3593TIP3    H210721   3.061   5.992   4.299  0.4285  0.2680  0.1335
 3594TIP3   OH210722   2.143   7.861   0.749 -0.5827  0.1020  0.5449
 3594TIP3    H110723   2.079   7.876   0.679  1.4909  0.5304 -1.3711
 3594TIP3    H210724   2.225   7.845   0.703  0.6295 -0.8660  2.9000
 3595TIP3   OH210725   1.014   0.366   1.996 -0.3830  0.3552  0.2459
 3595TIP3    H110726   1.080   0.331   2.055  0.1571 -0.0924 -0.5976
 3595TIP3    H210727   0.941   0.390   2.053  0.9772  2.0925  1.3672
 3596TIP3   OH210728   2.456   3.897   6.530  0.6840  0.7772 -0.2332
 3596TIP3    H110729   2.514   3.921   6.602  0.5374  1.5046 -0.3526
 3596TIP3    H210730   2.412   3.978   6.506 -1.7520 -0.0368  1.0575
 3597TIP3   OH210731   4.349   2.032   4.923 -0.0532 -0.0467  0.2878
 3597TIP3    H110732   4.407   2.107   4.908 -1.0951  0.6416 -0.4502
 3597TIP3    H210733   4.285   2.065   4.987 -0.7409 -0.1747 -0.3266
 3598TIP3   OH210734   2.201   7.199   1.115  0.1472 -0.0345  0.2544
 3598TIP3    H110735   2.142   7.148   1.171 -0.2354  0.0672 -0.0495
 3598TIP3    H210736   2.142   7.246   1.056  0.5382  0.0745 -0.0496
 3599TIP3   OH210737   6.834   4.769   1.031 -0.5699  0.3005  0.3403
 3599TIP3    H110738   6.893   4.822   1.084 -1.2507 -0.1690  1.6008
 3599TIP3    H210739   6.771   4.733   1.093 -1.3170 -0.3808 -0.7706
 3600TIP3   OH210740   0.203   1.069   5.666  0.0289  0.5902 -0.4923
 3600TIP3    H110741   0.138   1.130   5.703 -0.8828 -0.0836 -0.9415
 3600TIP3    H210742   0.202   1.088   5.572  1.5193  1.5277 -0.3424
 3601TIP3   OH210743   7.347   0.177   0.269 -0.2001 -0.0691  0.0280
 3601TIP3    H110744   7.277   0.233   0.236  0.4505  0.1946 -0.9391
 3601TIP3    H210745   7.342   0.186   0.365 -1.3313  0.1207 -0.0396
 3602TIP3   OH210746   4.357   3.669   2.398  0.0428  0.3868  0.2695
 3602TIP3    H110747   4.448   3.682   2.424 -0.3427 -1.8842  3.3285
 3602TIP3    H210748   4.354   3.578   2.367 -1.2515  0.2669  0.6993
 3603TIP3   OH210749   2.712   4.140   4.561 -0.0937 -0.5550 -0.4154
 3603TIP3    H110750   2.715   4.188   4.644 -0.5942  1.6287 -1.5738
 3603TIP3    H210751   2.803   4.132   4.535 -0.0283  0.5606 -0.5942
 3604TIP3   OH210752   0.414   0.216   1.571 -0.1436  1.0745  0.2013
 3604TIP3    H110753   0.465   0.139   1.598 -2.0251  0.3305  1.7908
 3604TIP3    H210754   0.417   0.274   1.646 -2.2893  0.6393  0.6910
 3605TIP3   OH210755   2.023   5.962   0.301 -0.8776  0.2708 -0.4738
 3605TIP3    H110756   2.105   5.975   0.253  2.2216 -1.1522  3.8236
 3605TIP3    H210757   2.001   6.049   0.334  0.7028  0.3035  0.6696
 3606TIP3   OH210758   5.723   3.688   2.191 -0.4915 -0.3094  0.0467
 3606TIP3    H110759   5.807   3.656   2.224 -0.1066  0.3452 -0.2933
 3606TIP3    H210760   5.670   3.701   2.270 -0.1020 -0.2293  0.2964
 3607TIP3   OH210761   1.302   5.838   1.090 -0.3722  0.0563 -0.2441
 3607TIP3    H110762   1.355   5.777   1.141 -1.2570 -0.3397  0.2199
 3607TIP3    H210763   1.343   5.923   1.104  0.1192 -0.2398  0.1300
 3608TIP3   OH210764   6.049   1.800   0.470 -0.3091  0.7768  0.3156
 3608TIP3    H110765   6.039   1.727   0.532 -0.0163  0.3199 -0.1590
 3608TIP3    H210766   6.144   1.813   0.464 -0.2754  0.2669 -0.6371
 3609TIP3   OH210767   0.635   2.706   5.727 -0.4197  0.1977 -0.4429
 3609TIP3    H110768   0.720   2.665   5.709  0.3422  2.0820 -1.4005
 3609TIP3    H210769   0.609   2.670   5.813  0.8613 -1.1259 -0.5643
 3610TIP3   OH210770   7.210   4.179   1.680  0.2870 -0.3385  0.9665
 3610TIP3    H110771   7.118   4.179   1.709  0.7909  0.5045  2.7044
 3610TIP3    H210772   7.250   4.107   1.728  0.7891  0.0409  1.1195
 3611TIP3   OH210773   2.766   4.923   0.362  0.5611 -0.1834  0.3818
 3611TIP3    H110774   2.814   4.843   0.343  0.8151 -0.3265  1.5525
 3611TIP3    H210775   2.834   4.988   0.381  0.3744  0.4329 -0.9403
 3612TIP3   OH210776   3.094   7.438   4.237 -0.5164  0.3071  0.1492
 3612TIP3    H110777   3.013   7.424   4.188 -0.6374  1.6106 -0.0525
 3612TIP3    H210778   3.077   7.515   4.291  0.8295  1.0854 -0.4659
 3613TIP3   OH210779   5.223   7.022   0.862 -0.2805  0.1115  0.1985
 3613TIP3    H110780   5.231   6.993   0.953 -0.4539  0.4347  0.3173
 3613TIP3    H210781   5.144   6.979   0.829  0.1554 -0.5450 -0.0076
 3614TIP3   OH210782   3.315   0.497   6.723  0.2574  0.4853 -0.3917
 3614TIP3    H110783   3.397   0.492   6.674  0.1919  0.0147 -0.4610
 3614TIP3    H210784   3.331   0.443   6.800 -0.5464 -1.0399 -1.2372
 3615TIP3   OH210785   2.972   7.518   2.778 -0.1037 -0.2109 -0.1026
 3615TIP3    H110786   3.049   7.473   2.813  0.3287 -0.0213 -0.7960
 3615TIP3    H210787   2.910   7.449   2.758  0.2162 -0.4354 -0.3296
 3616TIP3   OH210788   4.070   6.032   4.443  0.4038 -0.3071 -0.2421
 3616TIP3    H110789   4.073   6.112   4.391 -0.9390 -0.3334 -0.4029
 3616TIP3    H210790   4.155   6.029   4.488  1.2012  0.2309 -1.6398
 3617TIP3   OH210791   5.520   6.486   3.113 -0.4715 -0.4738  0.0824
 3617TIP3    H110792   5.494   6.578   3.114 -1.6829 -0.7992  0.3065
 3617TIP3    H210793   5.496   6.455   3.025  1.7581 -0.1170 -0.7267
 3618TIP3   OH210794   6.479   0.776   0.872 -0.9283  0.1786 -0.5589
 3618TIP3    H110795   6.575   0.773   0.877 -0.9928 -1.5287  0.4645
 3618TIP3    H210796   6.458   0.736   0.788 -0.7727 -1.2787  0.0682
 3619TIP3   OH210797   2.846   4.852   4.934 -0.1863 -0.2688  0.4357
 3619TIP3    H110798   2.754   4.845   4.907 -0.2467  1.9578 -0.1246
 3619TIP3    H210799   2.895   4.842   4.853 -0.0273  0.1297  0.4826
 3620TIP3   OH210800   4.199   1.310   6.283 -0.8450 -0.7873  0.3451
 3620TIP3    H110801   4.116   1.267   6.305 -1.8309  0.6938 -0.3071
 3620TIP3    H210802   4.174   1.399   6.259  1.0807  0.1171  1.4315
 3621TIP3   OH210803   3.044   1.473   5.813  0.0800  0.0754  0.4016
 3621TIP3    H110804   2.983   1.491   5.741  1.1845 -1.4126 -0.9944
 3621TIP3    H210805   3.111   1.541   5.806 -0.3359  0.5118  0.6489
 3622TIP3   OH210806   0.421   6.159   1.938 -0.1769 -0.4867 -0.6044
 3622TIP3    H110807   0.392   6.077   1.977  1.9769 -0.1463  2.0314
 3622TIP3    H210808   0.515   6.163   1.958  0.1464  1.8000 -2.2174
 3623TIP3   OH210809   1.786   5.524   4.848 -0.0173  0.6764  0.0262
 3623TIP3    H110810   1.856   5.469   4.883  0.3444  0.5957 -0.8010
 3623TIP3    H210811   1.740   5.468   4.786 -1.1160  0.5869  0.8934
 3624TIP3   OH210812   5.262   2.525   3.233  0.6245  0.1201 -0.4601
 3624TIP3    H110813   5.296   2.548   3.319 -0.7240 -1.7954  0.6593
 3624TIP3    H210814   5.334   2.480   3.190  0.7138 -0.6152  0.4297
 3625TIP3   OH210815   2.332   1.094   4.312 -0.5820 -0.0195  0.1642
 3625TIP3    H110816   2.380   1.163   4.267  3.2321 -1.3677  1.7733
 3625TIP3    H210817   2.335   1.020   4.252 -1.8571  0.2187 -0.2283
 3626TIP3   OH210818   4.480   5.691   3.097 -0.0549 -0.0381 -0.4436
 3626TIP3    H110819   4.520   5.759   3.152  0.3789 -0.4622 -0.2258
 3626TIP3    H210820   4.492   5.610   3.147  0.7923 -0.5052 -1.3796
 3627TIP3   OH210821   4.272   2.565   4.197 -0.2162  0.9127  0.2422
 3627TIP3    H110822   4.296   2.643   4.148  0.9087  2.3071  2.7959
 3627TIP3    H210823   4.181   2.579   4.222 -0.0836  1.3189  0.5054
 3628TIP3   OH210824   2.806   6.016   1.463 -0.8333 -0.0211 -0.1239
 3628TIP3    H110825   2.740   5.949   1.481  0.4112 -1.5272 -0.9123
 3628TIP3    H210826   2.855   5.982   1.389  0.2946  1.4664 -0.1098
 3629TIP3   OH210827   1.347   5.780   1.675  0.1390 -0.3703  0.1327
 3629TIP3    H110828   1.363   5.814   1.763 -0.2940  1.2421 -0.3843
 3629TIP3    H210829   1.426   5.729   1.654  0.1186 -1.0206  1.5448
 3630TIP3   OH210830   1.849   6.807   1.648  0.6016  0.3231  0.0807
 3630TIP3    H110831   1.944   6.797   1.640  0.7267  1.3627  0.0635
 3630TIP3    H210832   1.831   6.893   1.608 -0.4892 -0.3280 -0.8873
 3631TIP3   OH210833   5.284   0.385   5.220  0.2013 -0.0973  0.1648
 3631TIP3    H110834   5.257   0.342   5.139 -0.5370  0.4424  0.1197
 3631TIP3    H210835   5.300   0.313   5.282  1.8935 -0.5850 -0.7685
 3632TIP3   OH210836   2.731   6.982   2.937  0.2395  0.1569  0.0037
 3632TIP3    H110837   2.653   7.027   2.970  0.5881  1.6671 -1.1140
 3632TIP3    H210838   2.713   6.966   2.844 -0.1053 -2.6357  0.4680
 3633TIP3   OH210839   1.710   3.359   3.036 -0.8890 -0.2439  0.4054
 3633TIP3    H110840   1.765   3.281   3.030  0.7704  0.9650 -1.1487
 3633TIP3    H210841   1.648   3.350   2.963 -0.1915  0.2333 -0.2584
 3634TIP3   OH210842   2.454   0.099   3.529  0.4007  0.2933 -0.1098
 3634TIP3    H110843   2.385   0.161   3.505  0.3912  0.3012 -0.0624
 3634TIP3    H210844   2.504   0.144   3.598  0.6860  0.4412 -0.4084
 3635TIP3   OH210845   5.197   7.220   5.205 -0.2129  0.2192  0.0823
 3635TIP3    H110846   5.257   7.264   5.145 -2.0545 -1.5295 -3.3267
 3635TIP3    H210847   5.239   7.137   5.225 -0.0818  0.3502  0.3611
 3636TIP3   OH210848   4.167   1.698   2.691  0.5074 -0.2673 -0.3913
 3636TIP3    H110849   4.074   1.676   2.695  1.0316 -2.6812 -0.4796
 3636TIP3    H210850   4.201   1.644   2.620  1.8929  1.0197 -0.7460
 3637TIP3   OH210851   2.723   7.193   6.280 -0.3126 -0.4767  0.6751
 3637TIP3    H110852   2.650   7.145   6.240 -1.5973  1.4160  0.5713
 3637TIP3    H210853   2.773   7.227   6.206 -0.4074 -0.2510  0.7121
 3638TIP3   OH210854   4.929   7.191   2.803 -0.2151 -0.4020 -0.1062
 3638TIP3    H110855   4.835   7.174   2.798 -0.6723  2.0889 -2.2527
 3638TIP3    H210856   4.967   7.109   2.833 -3.0847 -1.3623  1.2272
 3639TIP3   OH210857   4.567   4.715   4.295  0.0290  0.2055  0.5655
 3639TIP3    H110858   4.588   4.809   4.298  1.3895 -0.0790  0.7327
 3639TIP3    H210859   4.485   4.710   4.246  1.4338  1.2589 -2.0786
 3640TIP3   OH210860   0.910   2.620   5.722 -0.0684  0.3506 -0.0077
 3640TIP3    H110861   0.955   2.688   5.772 -0.9649  2.4312 -1.8824
 3640TIP3    H210862   0.967   2.601   5.649 -0.3323 -0.0992 -0.1019
 3641TIP3   OH210863   4.387   4.120   3.552  0.4914 -0.6112  0.0673
 3641TIP3    H110864   4.385   4.066   3.473  1.0353 -1.3044  0.5045
 3641TIP3    H210865   4.346   4.064   3.619  0.2240 -0.1133  0.3237
 3642TIP3   OH210866   7.038   0.882   5.980 -0.0496 -0.5785 -0.1252
 3642TIP3    H110867   6.972   0.921   6.036 -0.3732  0.7794 -1.4171
 3642TIP3    H210868   7.121   0.903   6.023 -0.2633  0.8776 -0.3753
 3643TIP3   OH210869   3.389   0.426   4.981  0.4628  0.3333  0.4676
 3643TIP3    H110870   3.404   0.499   4.921 -1.6386  0.7906  0.4370
 3643TIP3    H210871   3.336   0.463   5.051 -1.0520 -1.2487  0.2105
 3644TIP3   OH210872   6.654   1.652   0.093  0.0718  0.4980  0.3571
 3644TIP3    H110873   6.734   1.637   0.042  0.1684  0.7136  0.4421
 3644TIP3    H210874   6.612   1.727   0.049  0.1622  0.6937  0.6002
 3645TIP3   OH210875   1.397   7.000   1.827 -0.1667 -0.0375  0.1843
 3645TIP3    H110876   1.416   6.907   1.840 -0.9443 -0.5004 -1.7110
 3645TIP3    H210877   1.302   7.004   1.816 -0.3500  1.2143  1.7015
 3646TIP3   OH210878   4.423   5.932   2.116  0.2195 -0.1672 -0.0953
 3646TIP3    H110879   4.507   5.950   2.073  1.6068 -0.0158  2.4240
 3646TIP3    H210880   4.392   5.851   2.077  1.3052  0.0061 -1.3958
 3647TIP3   OH210881   7.918   3.300   6.766 -0.0338 -0.5819  0.0500
 3647TIP3    H110882   7.858   3.337   6.831 -2.7795 -0.5497 -2.3332
 3647TIP3    H210883   7.959   3.376   6.725 -2.2184 -0.2958 -1.7165
 3648TIP3   OH210884   0.385   0.999   3.306  0.4549  0.2193  0.5093
 3648TIP3    H110885   0.426   1.010   3.392 -0.6180 -1.3291  1.2898
 3648TIP3    H210886   0.298   1.038   3.316  0.5153  0.4898 -0.0309
 3649TIP3   OH210887   4.396   3.998   0.360 -0.2684  0.5886 -0.8878
 3649TIP3    H110888   4.478   4.029   0.399 -1.4233 -1.0123  3.3447
 3649TIP3    H210889   4.329   4.058   0.394 -1.2056  0.0829 -1.8015
 3650TIP3   OH210890   7.659   2.646   6.040  0.0064  0.0946  0.6264
 3650TIP3    H110891   7.568   2.672   6.029  0.2131  0.1596 -1.5440
 3650TIP3    H210892   7.690   2.631   5.950  1.6352 -1.6643  1.4195
 3651TIP3   OH210893   6.219   1.676   5.361  0.4071  0.5787 -0.2070
 3651TIP3    H110894   6.159   1.717   5.424  2.7090  2.5346  0.9326
 3651TIP3    H210895   6.236   1.745   5.296  2.0155  0.4155 -0.0065
 3652TIP3   OH210896   6.027   1.984   1.957  0.5904  0.3458  0.1323
 3652TIP3    H110897   5.975   2.015   2.032  0.1876  1.2899 -0.5163
 3652TIP3    H210898   6.114   2.020   1.973  0.6494  0.0677  0.4370
 3653TIP3   OH210899   0.533   4.974   3.080 -0.0980  0.1485 -0.4425
 3653TIP3    H110900   0.595   4.927   3.134  0.2145  0.7233 -0.2891
 3653TIP3    H210901   0.573   4.975   2.993 -0.4087 -0.4239 -0.5926
 3654TIP3   OH210902   5.796   2.788   0.865 -1.1077 -0.2228 -0.5409
 3654TIP3    H110903   5.889   2.773   0.849 -0.9428  1.3984 -1.4198
 3654TIP3    H210904   5.773   2.728   0.935  0.7269 -0.2942  0.0518
 3655TIP3   OH210905   6.999   4.957   3.245  1.0136 -0.4451 -0.3619
 3655TIP3    H110906   6.919   4.920   3.281  0.4745  0.3406 -0.7322
 3655TIP3    H210907   7.045   4.882   3.206  0.6048 -0.9433  0.0954
 3656TIP3   OH210908   6.388   2.403   6.618  0.0999 -0.0871 -0.0785
 3656TIP3    H110909   6.355   2.395   6.708  2.9076 -0.9671  0.9504
 3656TIP3    H210910   6.371   2.318   6.578  0.3532 -0.2469  0.1563
 3657TIP3   OH210911   1.957   5.241   5.789 -0.5397 -0.4260 -0.7093
 3657TIP3    H110912   2.029   5.250   5.851 -1.6718 -2.5103  1.0481
 3657TIP3    H210913   1.946   5.147   5.777 -1.4967 -0.1134 -2.7767
 3658TIP3   OH210914   6.668   3.698   3.643  0.0943  0.4723  0.0434
 3658TIP3    H110915   6.739   3.637   3.624 -0.5947 -0.1748 -0.5017
 3658TIP3    H210916   6.649   3.740   3.559 -1.0677 -0.3393 -0.1167
 3659TIP3   OH210917   2.085   3.290   2.558  0.0673  0.1009  0.2953
 3659TIP3    H110918   2.168   3.311   2.516  0.0035 -2.3470 -1.2691
 3659TIP3    H210919   2.105   3.215   2.614 -0.8831  0.1575  0.7263
 3660TIP3   OH210920   3.040   6.065   0.130  1.2166  0.3008 -0.5689
 3660TIP3    H110921   3.083   5.997   0.079 -0.8904 -1.6515  0.1025
 3660TIP3    H210922   3.031   6.028   0.217 -0.4596  1.1967 -0.3267
 3661TIP3   OH210923   1.778   1.470   0.915  0.6790 -0.2569  0.3209
 3661TIP3    H110924   1.774   1.502   1.005 -1.0025 -0.8937  0.5221
 3661TIP3    H210925   1.851   1.517   0.875  2.4149 -1.0346  2.4043
 3662TIP3   OH210926   7.890   4.150   5.199  0.4297 -0.3628 -0.0521
 3662TIP3    H110927   7.830   4.124   5.130 -0.3637 -2.4493  1.3074
 3662TIP3    H210928   7.968   4.181   5.153 -1.3193  1.6781 -1.8494
 3663TIP3   OH210929   8.390   4.346   1.975 -0.1002 -0.2404  0.2323
 3663TIP3    H110930   8.315   4.366   1.918  0.5730  0.8990 -0.2920
 3663TIP3    H210931   8.363   4.379   2.060  0.2741  1.3586 -0.2327
 3664TIP3   OH210932   4.712   6.217   4.630  0.7174  0.4897 -0.0244
 3664TIP3    H110933   4.683   6.261   4.710  1.0991 -0.8948  0.9142
 3664TIP3    H210934   4.658   6.138   4.626  1.6586 -0.1549 -0.3559
 3665TIP3   OH210935   6.358   1.345   1.797 -0.3926 -0.7835 -0.2538
 3665TIP3    H110936   6.332   1.287   1.869 -0.4094 -1.3575 -0.7140
 3665TIP3    H210937   6.289   1.334   1.731  0.4278 -1.4781 -1.0190
 3666TIP3   OH210938   5.922   2.012   6.686  0.1030  0.6900 -0.2116
 3666TIP3    H110939   5.846   2.043   6.637 -1.1420  0.7149  1.6130
 3666TIP3    H210940   5.923   1.917   6.671 -0.9870  0.5264  0.6201
 3667TIP3   OH210941   0.376   5.874   3.349  0.0106 -0.0233 -0.0141
 3667TIP3    H110942   0.413   5.956   3.383 -0.5026  0.2502 -0.1045
 3667TIP3    H210943   0.417   5.805   3.401 -0.6784  0.3776  1.0790
 3668TIP3   OH210944   8.247   4.869   3.171 -0.5554  0.6789 -0.7136
 3668TIP3    H110945   8.257   4.929   3.245 -1.0664 -0.9345  0.7431
 3668TIP3    H210946   8.153   4.873   3.150 -0.2511  1.9196 -2.0436
 3669TIP3   OH210947   3.484   6.293   5.879 -0.2313 -0.5912 -0.0411
 3669TIP3    H110948   3.505   6.381   5.847 -0.5112 -0.1216  0.9999
 3669TIP3    H210949   3.547   6.236   5.837  0.7337  0.2803  0.1895
 3670TIP3   OH210950   4.212   7.816   1.143  0.0922 -0.4210 -0.2381
 3670TIP3    H110951   4.204   7.833   1.049  2.2639 -0.0730 -0.3988
 3670TIP3    H210952   4.209   7.721   1.150 -0.1234 -0.4510 -0.6378
 3671TIP3   OH210953   0.260   0.850   6.656  0.2984  0.8727 -0.4421
 3671TIP3    H110954   0.228   0.897   6.580 -3.0226 -0.4842 -0.0738
 3671TIP3    H210955   0.182   0.837   6.711  2.0949 -0.2287  2.0776
 3672TIP3   OH210956   4.560   3.112   6.141  0.1200 -0.2387 -0.3164
 3672TIP3    H110957   4.473   3.083   6.165 -0.8847  0.8353 -2.3923
 3672TIP3    H210958   4.555   3.130   6.047  1.7157  2.6382  0.0080
 3673TIP3   OH210959   3.249   4.979   1.770 -0.0099  0.0982  0.1578
 3673TIP3    H110960   3.163   4.953   1.803  0.1300 -0.2393  0.2643
 3673TIP3    H210961   3.259   4.931   1.688  0.6905 -1.0296  0.8763
 3674TIP3   OH210962   1.591   1.639   1.332 -0.0422  0.4890 -0.3407
 3674TIP3    H110963   1.538   1.718   1.337 -1.9750 -0.7321 -0.5192
 3674TIP3    H210964   1.593   1.605   1.421 -0.7946 -0.2225 -0.5843
 3675TIP3   OH210965   0.156   7.027   0.686 -0.0594  0.5781 -0.1974
 3675TIP3    H110966   0.198   7.057   0.605  0.8798  0.9718  0.4204
 3675TIP3    H210967   0.224   6.974   0.729 -0.6387  0.1741  0.2262
 3676TIP3   OH210968   7.172   6.849   6.356 -0.2420 -0.0841  0.1336
 3676TIP3    H110969   7.077   6.848   6.366 -0.2499  0.4305  0.1300
 3676TIP3    H210970   7.199   6.937   6.383  0.2320 -0.2223  0.1269
 3677TIP3   OH210971   7.281   4.439   5.793  0.1525  0.6768  0.1590
 3677TIP3    H110972   7.307   4.520   5.750 -0.5144  0.7749 -0.0680
 3677TIP3    H210973   7.260   4.379   5.722 -1.0522  0.8736  0.3231
 3678TIP3   OH210974   7.010   7.410   1.448  0.4077  0.2406  0.0145
 3678TIP3    H110975   7.037   7.355   1.374  0.7427  1.3384 -0.7059
 3678TIP3    H210976   7.070   7.485   1.445 -0.1215  0.7182  0.8939
 3679TIP3   OH210977   3.885   3.266   3.531 -0.0904  0.5983  0.2586
 3679TIP3    H110978   3.950   3.269   3.602  0.1248  0.1892  0.0832
 3679TIP3    H210979   3.834   3.187   3.549  1.6817 -1.0673 -1.4996
 3680TIP3   OH210980   1.776   0.260   3.694 -0.1510 -0.7509 -0.0381
 3680TIP3    H110981   1.824   0.218   3.622 -0.3209  0.9808 -1.2528
 3680TIP3    H210982   1.757   0.348   3.661 -4.6411 -1.4183  0.1002
 3681TIP3   OH210983   1.644   1.771   2.818 -0.2398 -0.2767  0.1309
 3681TIP3    H110984   1.658   1.850   2.766 -0.9804 -0.2764 -0.0855
 3681TIP3    H210985   1.550   1.753   2.809 -1.0487  1.2529  3.5866
 3682TIP3   OH210986   7.178   6.746   2.871  0.7594  0.5620 -0.4100
 3682TIP3    H110987   7.148   6.737   2.961  1.5910 -0.8012 -0.2467
 3682TIP3    H210988   7.103   6.716   2.818 -0.5531  3.3699 -0.3412
 3683TIP3   OH210989   4.909   4.646   0.145  0.1418 -0.3490 -0.1014
 3683TIP3    H110990   4.894   4.576   0.208 -0.6783  0.3966  0.5571
 3683TIP3    H210991   4.841   4.711   0.164  1.6690  1.2412  0.1754
 3684TIP3   OH210992   0.634   7.766   5.724 -0.1983  0.5002  0.2494
 3684TIP3    H110993   0.653   7.678   5.757  1.1685  0.5091 -0.4651
 3684TIP3    H210994   0.661   7.764   5.633 -0.3631  1.6051  0.1608
 3685TIP3   OH210995   1.991   5.943   3.705 -0.3287 -0.1242  0.1586
 3685TIP3    H110996   1.974   6.024   3.657 -1.6312 -0.4074  0.1140
 3685TIP3    H210997   1.905   5.905   3.720  0.1124 -0.5686  1.8322
 3686TIP3   OH210998   3.724   6.764   4.193 -0.0769 -0.2661 -0.0568
 3686TIP3    H110999   3.683   6.732   4.113  1.2582 -1.9467 -0.1254
 3686TIP3    H211000   3.818   6.756   4.177  0.2152 -0.7261  1.7100
 3687TIP3   OH211001   2.463   1.920   1.873  0.5726 -0.5821 -0.2451
 3687TIP3    H111002   2.485   1.885   1.786 -0.1221 -0.7837 -0.3438
 3687TIP3    H211003   2.407   1.996   1.854 -2.2375 -2.4390  0.0514
 3688TIP3   OH211004   4.653  -0.028   1.473  0.3366 -0.6538  0.3869
 3688TIP3    H111005   4.574   0.025   1.464  0.0588 -1.2200 -0.7761
 3688TIP3    H211006   4.718   0.032   1.508 -0.3930  0.0288  0.6080
 3689TIP3   OH211007   4.139   1.381   3.959 -0.2233  0.5894 -0.0957
 3689TIP3    H111008   4.208   1.317   3.944 -0.6760 -0.0071  0.2997
 3689TIP3    H211009   4.066   1.351   3.906  0.0431  1.6323 -1.1041
 3690TIP3   OH211010   3.399   7.308   1.159 -0.1290 -0.3578  0.2169
 3690TIP3    H111011   3.424   7.392   1.199 -0.9333 -0.9262  2.0096
 3690TIP3    H211012   3.464   7.294   1.090  0.7987  1.1069  0.7458
 3691TIP3   OH211013   6.888   5.703   0.239  0.2624  0.1671  0.4209
 3691TIP3    H111014   6.793   5.708   0.252 -0.1082  2.8989 -2.0948
 3691TIP3    H211015   6.916   5.794   0.239  2.5385 -0.4711 -0.9153
 3692TIP3   OH211016   1.979   3.135   6.868 -0.2020 -0.4401 -0.6231
 3692TIP3    H111017   1.887   3.150   6.845 -0.3858 -1.3676 -0.5239
 3692TIP3    H211018   2.023   3.128   6.784 -0.4505 -1.2921 -0.6951
 3693TIP3   OH211019   0.917   6.606   3.055  0.1972 -0.5061 -0.2627
 3693TIP3    H111020   0.923   6.674   3.122 -0.7583 -0.8507  0.1891
 3693TIP3    H211021   0.926   6.653   2.973  2.3103 -0.1802  0.0950
 3694TIP3   OH211022   3.223   6.157   4.509  0.2629  0.2639 -0.1262
 3694TIP3    H111023   3.206   6.127   4.419  0.5384 -0.1092 -0.0572
 3694TIP3    H211024   3.162   6.106   4.562  2.4124 -2.0724  0.2746
 3695TIP3   OH211025   0.271   1.347   0.811  0.5154  0.4363  0.4187
 3695TIP3    H111026   0.329   1.295   0.756 -0.4057 -1.2289  0.9723
 3695TIP3    H211027   0.276   1.306   0.897  0.9032  2.1868  1.2754
 3696TIP3   OH211028   1.370   4.581   1.657  0.2566  0.1367 -0.3275
 3696TIP3    H111029   1.336   4.629   1.733  2.2468  0.9282  0.1566
 3696TIP3    H211030   1.458   4.619   1.644  0.5656 -1.0936 -2.0430
 3697TIP3   OH211031   1.730   3.876   0.075 -0.5193 -0.0148 -0.1497
 3697TIP3    H111032   1.696   3.844   0.159  0.2023  1.8300  0.9295
 3697TIP3    H211033   1.691   3.964   0.066  1.2538  0.7680 -0.5493
 3698TIP3   OH211034   6.002   3.566   0.346 -0.4726  0.2422 -0.2156
 3698TIP3    H111035   6.049   3.619   0.281 -0.6983 -1.3539 -1.7637
 3698TIP3    H211036   5.937   3.518   0.295 -1.7138  0.0491  1.4440
 3699TIP3   OH211037   1.019   0.531   4.121 -0.5048 -0.1014 -0.1381
 3699TIP3    H111038   1.085   0.597   4.102 -2.4591  1.9179 -0.3827
 3699TIP3    H211039   0.954   0.542   4.052 -1.3398 -1.7028  0.3384
 3700TIP3   OH211040   0.689   2.865   6.359 -0.1642  0.4253 -0.3775
 3700TIP3    H111041   0.662   2.913   6.281  2.0059 -0.0938 -1.5478
 3700TIP3    H211042   0.646   2.780   6.352  0.2340  0.2862 -1.1694
 3701TIP3   OH211043   1.989   4.924   4.242  0.1893 -0.3981  0.2171
 3701TIP3    H111044   1.954   5.006   4.277  0.9436  0.3637 -0.7644
 3701TIP3    H211045   2.075   4.915   4.284 -0.8950 -2.0526  2.3005
 3702TIP3   OH211046   3.938   6.632   0.120  0.0427  0.5289  0.2808
 3702TIP3    H111047   3.909   6.648   0.210  2.4955  0.8900  1.0789
 3702TIP3    H211048   3.909   6.543   0.101  0.5028  0.0009  1.8873
 3703TIP3   OH211049   2.697   4.965   4.564  0.1904 -0.4917 -0.2571
 3703TIP3    H111050   2.663   5.048   4.595 -0.2025 -0.3799 -0.9699
 3703TIP3    H211051   2.656   4.899   4.620  0.2248 -0.2313  0.0727
 3704TIP3   OH211052   7.681   0.956   2.436  0.2769 -0.3841  0.0326
 3704TIP3    H111053   7.665   0.919   2.349 -1.3875 -0.2151  0.2283
 3704TIP3    H211054   7.671   1.050   2.424  0.0221 -0.3601  0.3956
 3705TIP3   OH211055   0.393   7.801   6.373  0.4798  0.1324  0.0436
 3705TIP3    H111056   0.407   7.843   6.458 -0.8787  0.9766 -0.1330
 3705TIP3    H211057   0.434   7.860   6.310  0.9835 -0.2116  0.0341
 3706TIP3   OH211058   7.214   2.233   6.674  0.0333 -0.6344 -0.1422
 3706TIP3    H111059   7.192   2.326   6.666  0.6576 -0.5736 -1.5007
 3706TIP3    H211060   7.165   2.203   6.751 -1.3331  0.4765 -0.5227
 3707TIP3   OH211061   2.407   2.793   2.536  0.2621 -0.2315  0.5947
 3707TIP3    H111062   2.473   2.799   2.605  0.8816 -0.6260  0.0536
 3707TIP3    H211063   2.425   2.709   2.493  0.6849  0.5652 -0.8302
 3708TIP3   OH211064   4.686   0.912   0.338 -0.3512  0.7175  0.6981
 3708TIP3    H111065   4.652   0.999   0.357  1.1972  1.4818  0.1231
 3708TIP3    H211066   4.770   0.928   0.296 -0.1660 -1.0606  0.3281
 3709TIP3   OH211067   4.165   6.560   4.200 -0.6771  0.0066  0.2230
 3709TIP3    H111068   4.120   6.553   4.116  0.7304 -0.2067 -0.5341
 3709TIP3    H211069   4.113   6.623   4.250 -1.8644 -0.3068 -0.5732
 3710TIP3   OH211070   2.616   7.141   0.467  0.3812  0.3740  0.3693
 3710TIP3    H111071   2.638   7.167   0.557 -0.4402  0.8769  0.4319
 3710TIP3    H211072   2.645   7.214   0.413 -1.4030  1.2307  0.4892
 3711TIP3   OH211073   7.381   0.247   3.870  0.2561  0.3135  0.2434
 3711TIP3    H111074   7.445   0.281   3.808 -0.9915  0.2353 -1.1464
 3711TIP3    H211075   7.297   0.279   3.837 -0.9729 -3.4933 -0.8397
 3712TIP3   OH211076   0.926   3.060   3.353 -0.2762  0.0703 -0.0694
 3712TIP3    H111077   0.969   3.014   3.425  1.1557 -1.8649 -2.0069
 3712TIP3    H211078   0.854   3.001   3.327 -1.3803  1.1962  0.3428
 3713TIP3   OH211079   3.749   5.831   2.577 -0.6938 -0.5781 -0.1865
 3713TIP3    H111080   3.700   5.764   2.531 -1.9183 -1.7837  2.6222
 3713TIP3    H211081   3.686   5.870   2.638  0.7881  0.8999  0.4956
 3714TIP3   OH211082   7.414   3.920   1.851  0.5762  0.3589 -0.1385
 3714TIP3    H111083   7.330   3.894   1.890  1.5597 -0.4986  1.5428
 3714TIP3    H211084   7.429   4.008   1.885 -0.1651  0.9874 -1.3860
 3715TIP3   OH211085   1.443   0.653   1.402  0.0199  0.0344  0.1925
 3715TIP3    H111086   1.529   0.633   1.364 -0.7176 -1.2123 -0.8932
 3715TIP3    H211087   1.458   0.731   1.456  1.8866 -0.3367  0.2574
 3716TIP3   OH211088   6.960   2.022   0.499  0.0798  1.1044  0.5395
 3716TIP3    H111089   6.925   2.075   0.571  0.6595  1.6377  0.4370
 3716TIP3    H211090   7.009   2.083   0.445 -0.2916  0.6962 -0.2914
 3717TIP3   OH211091   3.088   2.701   4.597 -0.9193  0.1747 -0.4197
 3717TIP3    H111092   3.119   2.691   4.507  0.6560 -0.2657  0.1308
 3717TIP3    H211093   3.145   2.643   4.648 -1.6215  0.6038  0.8881
 3718TIP3   OH211094   7.964   1.974   2.280 -0.4559  0.0209 -0.0801
 3718TIP3    H111095   7.890   2.019   2.240 -0.3229  0.0369 -0.3081
 3718TIP3    H211096   7.928   1.937   2.361 -0.5422  0.6042  0.1478
 3719TIP3   OH211097   2.229   2.857   1.267 -0.4500  0.1050 -0.5739
 3719TIP3    H111098   2.280   2.938   1.272 -0.1134 -0.0892 -0.8325
 3719TIP3    H211099   2.195   2.857   1.178 -0.8910  0.2260 -0.4059
 3720TIP3   OH211100   5.062   4.201   6.693 -0.1832 -0.0646 -0.1220
 3720TIP3    H111101   5.150   4.197   6.732 -0.0774 -3.7062 -0.3163
 3720TIP3    H211102   5.003   4.199   6.768  0.0247 -3.1774  0.0928
 3721TIP3   OH211103   7.833   1.049   3.829  0.2346  0.0324 -0.2211
 3721TIP3    H111104   7.798   1.103   3.900 -1.6427  1.4563 -2.0892
 3721TIP3    H211105   7.761   0.989   3.807  0.5193  0.0786 -1.3306
 3722TIP3   OH211106   5.591   1.362   0.752  0.4413  0.0093  0.2195
 3722TIP3    H111107   5.640   1.375   0.833 -0.0271  0.5349  0.4213
 3722TIP3    H211108   5.628   1.425   0.691  0.3487  0.0701  0.2256
 3723TIP3   OH211109   2.602   3.076   0.108 -0.3991  0.3919  0.2703
 3723TIP3    H111110   2.629   3.167   0.102 -0.2389  0.2202 -2.7289
 3723TIP3    H211111   2.684   3.026   0.109 -0.5102  0.1989 -0.1630
 3724TIP3   OH211112   6.613   5.732   0.290  0.3369 -0.9951  0.8004
 3724TIP3    H111113   6.535   5.677   0.284  0.2620 -0.7998 -0.3444
 3724TIP3    H211114   6.579   5.819   0.309  0.0201 -0.4475 -1.8372
 3725TIP3   OH211115   3.602   1.046   1.784 -0.2468  0.1399 -0.2072
 3725TIP3    H111116   3.624   1.018   1.873 -0.1408 -0.9854 -0.5724
 3725TIP3    H211117   3.569   1.135   1.794 -0.2842  0.0061  0.9682
 3726TIP3   OH211118   8.109   4.873   0.779 -0.1357  0.0882 -0.0822
 3726TIP3    H111119   8.197   4.855   0.813 -0.4317 -0.8077  0.2628
 3726TIP3    H211120   8.065   4.917   0.851 -0.8532 -2.0698  0.9063
 3727TIP3   OH211121   4.115   4.993   0.452  0.0345 -0.1845  0.4214
 3727TIP3    H111122   4.120   5.088   0.458  1.0008 -0.0869 -1.4409
 3727TIP3    H211123   4.021   4.973   0.463 -0.3319  1.0647 -0.3079
 3728TIP3   OH211124   1.904   4.827   3.355 -0.5461 -0.0518 -0.7373
 3728TIP3    H111125   1.983   4.820   3.408 -2.0425 -0.3026  1.6340
 3728TIP3    H211126   1.877   4.918   3.362 -0.3814  0.0887 -1.7220
 3729TIP3   OH211127   4.610   3.480   6.115  0.5616  0.3175 -0.5449
 3729TIP3    H111128   4.550   3.515   6.181  2.5938  0.6586  1.2320
 3729TIP3    H211129   4.553   3.437   6.051 -1.5995  1.3633  0.5764
 3730TIP3   OH211130   0.121   6.325   3.490 -0.0807 -0.8972 -0.1166
 3730TIP3    H111131   0.043   6.334   3.435  0.2312  2.1195 -0.2732
 3730TIP3    H211132   0.194   6.332   3.429  0.2629  1.9739  0.4668
 3731TIP3   OH211133   4.241   2.636   6.527  0.5012  0.3837  0.3041
 3731TIP3    H111134   4.227   2.636   6.432  1.4480  0.3683  0.1576
 3731TIP3    H211135   4.215   2.724   6.555 -2.9226 -0.5445  0.5596
 3732TIP3   OH211136   6.873   2.114   2.072 -0.2961  0.0544 -0.7422
 3732TIP3    H111137   6.842   2.194   2.114 -0.7425 -1.5282  2.2786
 3732TIP3    H211138   6.794   2.061   2.060  0.3220 -1.2443  0.5363
 3733TIP3   OH211139   1.960   3.111   4.986  0.0569  0.2779 -0.2166
 3733TIP3    H111140   1.942   3.052   5.059  0.3856 -0.0127 -0.3680
 3733TIP3    H211141   1.913   3.192   5.008 -0.4571 -0.0639 -0.0430
 3734TIP3   OH211142   2.659   0.237   4.176 -0.2487  0.1245 -0.4744
 3734TIP3    H111143   2.690   0.307   4.118  0.3733  0.7001  0.5167
 3734TIP3    H211144   2.738   0.190   4.201 -0.1825  1.2074  1.5764
 3735TIP3   OH211145   1.589   3.409   2.566  0.4894  0.3069  0.0305
 3735TIP3    H111146   1.578   3.364   2.482 -0.1125 -0.3774  0.4674
 3735TIP3    H211147   1.671   3.457   2.556  1.1168 -0.8168 -0.4975
 3736TIP3   OH211148   3.680   3.500   2.953  0.2152 -0.4889 -0.1439
 3736TIP3    H111149   3.674   3.595   2.958  2.8231 -0.2438  4.6606
 3736TIP3    H211150   3.604   3.468   3.000  0.2024 -0.7158 -0.3144
 3737TIP3   OH211151   2.444   1.247   5.209  0.0973 -0.2947 -0.0522
 3737TIP3    H111152   2.474   1.157   5.192 -1.4756 -0.8132 -0.2022
 3737TIP3    H211153   2.391   1.269   5.133 -2.0408 -0.3966  1.3408
 3738TIP3   OH211154   6.237   1.062   5.096  0.0612 -0.0725  0.0912
 3738TIP3    H111155   6.244   0.998   5.025  1.0109  0.9005 -0.7271
 3738TIP3    H211156   6.198   1.013   5.168 -0.1824 -1.3019 -0.8341
 3739TIP3   OH211157   4.425   3.348   5.961 -0.2811  0.7252 -0.3430
 3739TIP3    H111158   4.391   3.259   5.951 -0.0556  0.5749  0.2284
 3739TIP3    H211159   4.401   3.392   5.879 -0.8875  0.3030 -0.3961
 3740TIP3   OH211160   5.945   3.089   3.111  0.2007  0.1994  0.0600
 3740TIP3    H111161   5.961   3.110   3.020  2.2181 -0.7062  0.1370
 3740TIP3    H211162   5.972   3.167   3.159  1.0334 -0.0301 -0.0242
 3741TIP3   OH211163   3.367   2.487   1.764  0.5375  0.5780 -0.3252
 3741TIP3    H111164   3.336   2.397   1.753  1.0235  0.0884  1.7521
 3741TIP3    H211165   3.295   2.542   1.733 -0.4201 -0.5216 -0.1238
 3742TIP3   OH211166   7.401   0.372   5.766 -0.1074 -0.1687 -0.3815
 3742TIP3    H111167   7.408   0.277   5.781  0.4901  0.0973  1.1426
 3742TIP3    H211168   7.461   0.389   5.694  1.6772 -0.6056  0.9481
 3743TIP3   OH211169   8.279   1.627   4.969 -0.1649  0.5258 -0.5276
 3743TIP3    H111170   8.325   1.556   4.923  0.7917  1.0043 -0.3451
 3743TIP3    H211171   8.349   1.678   5.010 -0.9523  0.5006  0.9088
 3744TIP3   OH211172   7.477   3.516   1.216  0.9052  0.3130  0.3382
 3744TIP3    H111173   7.559   3.468   1.228  0.7273 -0.3304 -0.8721
 3744TIP3    H211174   7.503   3.608   1.218  1.4043  0.1560  1.6434
 3745TIP3   OH211175   3.917   2.821   1.242 -0.0623  0.1009 -0.3871
 3745TIP3    H111176   3.920   2.913   1.268  1.1787 -0.4939  1.8378
 3745TIP3    H211177   3.858   2.819   1.166 -0.7801  2.5776  0.0236
 3746TIP3   OH211178   5.530   0.773   4.635 -0.1624 -0.0234  0.1065
 3746TIP3    H111179   5.552   0.745   4.546 -0.0820 -0.4876  0.2688
 3746TIP3    H211180   5.538   0.868   4.632  3.1425 -0.1571  0.4447
 3747TIP3   OH211181   0.502   2.813   2.387 -0.0429 -0.6645  0.4950
 3747TIP3    H111182   0.457   2.895   2.369  1.6370 -0.0704 -1.3201
 3747TIP3    H211183   0.501   2.765   2.304  1.4224 -1.2282  0.7611
 3748TIP3   OH211184   1.834   7.039   0.089 -0.0495  0.1152 -0.0868
 3748TIP3    H111185   1.885   6.989   0.026  0.3743  0.5092 -0.0572
 3748TIP3    H211186   1.897   7.070   0.153 -0.7395 -2.2309  1.9006
 3749TIP3   OH211187   6.371   4.785   2.232  0.2088 -0.5233  0.6113
 3749TIP3    H111188   6.464   4.778   2.253  0.3568 -0.4999 -0.0057
 3749TIP3    H211189   6.329   4.718   2.285  0.7532 -1.4899 -0.1505
 3750TIP3   OH211190   3.509   3.514   4.715  0.1769  0.3919 -0.1339
 3750TIP3    H111191   3.502   3.464   4.634  1.6952  0.3489 -0.2682
 3750TIP3    H211192   3.570   3.464   4.769  1.8403  2.1228 -0.3152
 3751TIP3   OH211193   3.386   1.252   6.392  0.1142 -0.1161 -0.0856
 3751TIP3    H111194   3.348   1.340   6.388 -1.0670 -0.6311 -0.8372
 3751TIP3    H211195   3.321   1.200   6.439  1.4793 -0.2921  1.7275
 3752TIP3   OH211196   0.908   5.347   0.775  0.1770  0.2005  0.1242
 3752TIP3    H111197   0.814   5.346   0.790  0.3894  0.9774  1.6209
 3752TIP3    H211198   0.932   5.439   0.777  1.0843 -0.0331  0.4591
 3753TIP3   OH211199   3.001   5.773   5.083  0.1347  0.5516  0.4700
 3753TIP3    H111200   3.015   5.682   5.056  0.0968  0.9449 -0.9674
 3753TIP3    H211201   2.939   5.768   5.155 -2.9577 -0.4040 -2.0103
 3754TIP3   OH211202   7.116   2.089   2.947  0.1070  0.0990 -0.3957
 3754TIP3    H111203   7.167   2.096   2.866 -0.9189 -1.6936 -1.2564
 3754TIP3    H211204   7.178   2.114   3.016  1.1058  1.3492 -1.6622
 3755TIP3   OH211205   4.211   3.144   5.355 -0.1035 -0.7666 -0.2431
 3755TIP3    H111206   4.170   3.093   5.424 -0.1972 -0.2682  0.0755
 3755TIP3    H211207   4.248   3.220   5.400  0.8421 -1.0150 -0.5727
 3756TIP3   OH211208   8.227   7.024   1.772  0.2485 -0.5065  0.2061
 3756TIP3    H111209   8.309   7.067   1.749 -0.6516  1.8965  1.1705
 3756TIP3    H211210   8.253   6.939   1.806  2.1724 -0.5918 -1.3686
 3757TIP3   OH211211   4.655   6.412   3.861  0.0820 -0.0247 -0.2511
 3757TIP3    H111212   4.583   6.421   3.799  0.6142  0.9570 -0.7573
 3757TIP3    H211213   4.636   6.476   3.929  0.8711  0.8139 -0.8008
 3758TIP3   OH211214   7.304   0.539   3.498  0.0261 -0.5574  0.6773
 3758TIP3    H111215   7.311   0.506   3.408 -2.3827  0.4219  0.0527
 3758TIP3    H211216   7.344   0.470   3.552  2.5182 -0.6789 -1.1581
 3759TIP3   OH211217   0.098   1.635   0.379  0.1333  0.4424  0.4504
 3759TIP3    H111218   0.013   1.640   0.422  0.6999  0.0993  1.6662
 3759TIP3    H211219   0.150   1.578   0.436  1.6359  1.8067  0.5182
 3760TIP3   OH211220   2.317   2.024   5.863 -0.8351  0.4047  0.4907
 3760TIP3    H111221   2.250   2.027   5.794 -0.5022  1.1326  0.1755
 3760TIP3    H211222   2.367   2.105   5.850  1.8744 -1.3712 -1.0859
 3761TIP3   OH211223   5.838   2.700   2.535  0.6032  0.0326 -0.1319
 3761TIP3    H111224   5.905   2.703   2.467  2.7605 -0.1287  1.8630
 3761TIP3    H211225   5.755   2.692   2.487  2.0166 -0.2269 -2.6950
 3762TIP3   OH211226   2.857   7.011   3.608 -0.5311  0.3116 -0.2087
 3762TIP3    H111227   2.806   7.031   3.686 -1.8341 -0.4417 -0.8313
 3762TIP3    H211228   2.791   6.993   3.540  0.5651  0.3918 -1.3324
 3763TIP3   OH211229   0.740   1.720   6.528 -0.0113  0.1804  0.1982
 3763TIP3    H111230   0.809   1.759   6.474  0.8339 -1.9634 -0.4086
 3763TIP3    H211231   0.753   1.758   6.615  0.6410  1.3374 -0.3810
 3764TIP3   OH211232   1.466   5.481   5.077 -0.0680  0.0062  0.1679
 3764TIP3    H111233   1.523   5.405   5.080  0.0108  0.0891  1.6712
 3764TIP3    H211234   1.399   5.459   5.013  0.4561 -0.9479 -0.0647
 3765TIP3   OH211235   4.248   3.533   1.679 -0.3573 -0.1442  0.0162
 3765TIP3    H111236   4.181   3.601   1.686  1.0559  1.2449  0.4532
 3765TIP3    H211237   4.286   3.546   1.592  2.0381  1.7480  1.2350
 3766TIP3   OH211238   0.482   3.700   2.444 -0.4130 -0.3669  0.4061
 3766TIP3    H111239   0.536   3.624   2.467 -0.5760 -0.8818 -0.8750
 3766TIP3    H211240   0.541   3.774   2.454 -0.2349 -0.6370  1.6181
 3767TIP3   OH211241   1.105   5.739   1.441 -0.2277  0.0631  0.3991
 3767TIP3    H111242   1.114   5.831   1.418 -0.7105  0.0535  0.1699
 3767TIP3    H211243   1.033   5.737   1.504 -1.1173 -0.3121 -0.5955
 3768TIP3   OH211244   3.733   1.893   0.057  0.0649  0.2005  0.1066
 3768TIP3    H111245   3.689   1.847   0.128  0.0799  0.2982  0.1795
 3768TIP3    H211246   3.769   1.824   0.002  0.6803  0.1253  0.5898
 3769TIP3   OH211247   5.443   3.389   6.040  0.4170  0.2827 -0.0785
 3769TIP3    H111248   5.409   3.313   5.993  1.1233 -0.5980  0.8082
 3769TIP3    H211249   5.476   3.447   5.971  1.0499 -0.7962 -0.6993
 3770TIP3   OH211250   1.653   5.602   4.030  0.2305  0.0935 -0.2080
 3770TIP3    H111251   1.644   5.551   4.110 -1.3966 -1.1493 -1.1235
 3770TIP3    H211252   1.616   5.688   4.051 -0.2641 -0.2509  0.3324
 3771TIP3   OH211253   3.440   3.253   6.734  0.2829 -0.2581 -0.0334
 3771TIP3    H111254   3.359   3.209   6.760 -0.1298  0.2344 -0.4669
 3771TIP3    H211255   3.478   3.194   6.669  0.4873 -0.6878  0.4629
 3772TIP3   OH211256   3.596   1.462   2.534  0.9572 -0.0728 -0.8459
 3772TIP3    H111257   3.586   1.502   2.447 -0.7224 -0.3482 -0.8081
 3772TIP3    H211258   3.507   1.442   2.561  1.5301 -0.7657  0.5964
 3773TIP3   OH211259   3.331   1.489   2.564  0.1628  0.5123  0.4023
 3773TIP3    H111260   3.285   1.508   2.645 -1.0017  1.7509 -0.5018
 3773TIP3    H211261   3.285   1.541   2.497  0.2814 -1.4026 -1.2746
 3774TIP3   OH211262   0.021   4.807   5.883 -0.0192 -0.2074 -0.1296
 3774TIP3    H111263   0.039   4.721   5.845  2.7027  0.1930  0.0615
 3774TIP3    H211264   0.034   4.795   5.977  0.8218  0.4674 -0.1436
 3775TIP3   OH211265   3.736   7.200   4.262 -0.6887  0.0408 -0.3340
 3775TIP3    H111266   3.810   7.152   4.226 -0.4129  0.5745 -0.4811
 3775TIP3    H211267   3.736   7.283   4.215  0.6543  1.4451  1.9660
 3776TIP3   OH211268   5.500   6.050   1.249 -0.0116  0.1336  0.3951
 3776TIP3    H111269   5.524   5.994   1.323 -2.4503 -0.8521  0.5610
 3776TIP3    H211270   5.505   6.139   1.284 -0.5253 -0.2846  1.5889
 3777TIP3   OH211271   1.614   3.692   4.828 -1.2174  0.4186  0.2005
 3777TIP3    H111272   1.556   3.760   4.795 -0.6273 -0.0302 -1.9265
 3777TIP3    H211273   1.625   3.632   4.753  1.6714  0.3102  0.6267
 3778TIP3   OH211274   2.345   6.866   0.119 -0.4553  0.6873 -0.2764
 3778TIP3    H111275   2.403   6.931   0.079 -0.0085 -0.0447 -0.8303
 3778TIP3    H211276   2.277   6.851   0.054 -1.3076  1.5541  0.3766
 3779TIP3   OH211277   2.342   6.538   6.132  0.7158 -0.2325 -0.7387
 3779TIP3    H111278   2.324   6.445   6.119  1.7851 -0.5196 -0.2956
 3779TIP3    H211279   2.347   6.549   6.227  0.5504  0.2913 -0.7831
 3780TIP3   OH211280   5.181   2.905   6.640  0.0784 -0.5723  0.5053
 3780TIP3    H111281   5.249   2.840   6.622  1.0262  0.4920  0.1560
 3780TIP3    H211282   5.217   2.958   6.711  0.4009  1.0791 -0.8356
 3781TIP3   OH211283   5.933   7.675   3.707  0.0387  0.2358 -0.0582
 3781TIP3    H111284   5.891   7.623   3.639 -0.0407 -0.9437  0.8602
 3781TIP3    H211285   6.017   7.701   3.669 -0.5853  0.7983 -1.1047
 3782TIP3   OH211286   6.409   5.083   2.222  0.2468 -0.1961 -0.4149
 3782TIP3    H111287   6.323   5.049   2.198  0.2843 -0.7498  0.1986
 3782TIP3    H211288   6.459   5.006   2.249  0.5242  0.2742  0.4516
 3783TIP3   OH211289   4.461   4.581   3.213 -0.2457  0.4214 -1.2510
 3783TIP3    H111290   4.449   4.518   3.284 -2.3745  1.0466 -1.0059
 3783TIP3    H211291   4.537   4.547   3.165  1.1903 -0.1025  1.1867
 3784TIP3   OH211292   2.587   4.448   1.404 -0.2522 -0.4302 -0.5036
 3784TIP3    H111293   2.555   4.459   1.314 -0.5518  0.9037 -0.2587
 3784TIP3    H211294   2.510   4.422   1.454  0.0148 -1.6512 -0.7039
 3785TIP3   OH211295   2.513   1.742   1.403 -0.3388 -0.1508 -0.1619
 3785TIP3    H111296   2.443   1.677   1.399  0.6214 -1.4639  2.2938
 3785TIP3    H211297   2.529   1.766   1.312 -2.9531 -0.8786 -0.9003
 3786TIP3   OH211298   6.161   3.803   4.447 -0.5188  0.5164 -0.1424
 3786TIP3    H111299   6.179   3.752   4.525 -1.0892 -0.0553 -0.3751
 3786TIP3    H211300   6.073   3.777   4.421 -0.0592  0.1348 -1.4021
 3787TIP3   OH211301   1.329   6.536   4.429  0.5626 -0.4123 -0.2643
 3787TIP3    H111302   1.415   6.504   4.455  1.5278  2.1734  0.0267
 3787TIP3    H211303   1.292   6.573   4.509 -0.6681 -1.1094 -0.4858
 3788TIP3   OH211304   5.074   6.768   0.864  0.5126 -0.1107 -0.4921
 3788TIP3    H111305   5.067   6.786   0.770  1.6071  1.3583 -0.3346
 3788TIP3    H211306   5.161   6.730   0.875  0.5860  0.1870 -0.0151
 3789TIP3   OH211307   1.302   0.677   0.481 -0.4551  0.3835 -0.1804
 3789TIP3    H111308   1.371   0.636   0.428 -1.5519 -3.1290  0.8162
 3789TIP3    H211309   1.349   0.723   0.550  0.9195 -0.4162 -0.5340
 3790TIP3   OH211310   4.637   5.357   2.505 -0.0304 -0.2861 -0.3173
 3790TIP3    H111311   4.571   5.391   2.564 -1.2990 -1.1716 -1.1602
 3790TIP3    H211312   4.652   5.267   2.534  0.5052 -0.2248 -0.3836
 3791TIP3   OH211313   3.572   7.398   4.418  0.3752  0.3445 -0.1407
 3791TIP3    H111314   3.637   7.328   4.419 -0.2303 -0.2587 -1.0351
 3791TIP3    H211315   3.508   7.371   4.484 -0.3969 -0.5150 -1.1935
 3792TIP3   OH211316   7.924   0.303   1.816  0.1204  0.6574  0.0691
 3792TIP3    H111317   7.894   0.212   1.819  2.5262 -0.1976  0.1252
 3792TIP3    H211318   7.872   0.343   1.746 -0.6812 -0.8654 -0.2476
 3793TIP3   OH211319   8.032   7.251   5.149  0.2734  0.1480  0.0940
 3793TIP3    H111320   8.084   7.269   5.227 -0.1166 -0.7825  0.5923
 3793TIP3    H211321   8.084   7.186   5.101  0.0003 -0.1014  0.1346
 3794TIP3   OH211322   3.207   0.151   0.051  0.1712  0.3387  0.0628
 3794TIP3    H111323   3.178   0.071   0.007  2.6994 -0.2127 -0.7611
 3794TIP3    H211324   3.147   0.219   0.020 -0.3880 -0.7453 -1.3321
 3795TIP3   OH211325   3.672   7.253   3.794  0.2742  0.0825  0.4815
 3795TIP3    H111326   3.596   7.199   3.817  0.3818 -1.1666 -1.7794
 3795TIP3    H211327   3.635   7.339   3.775 -0.6863 -0.5699 -0.8317
 3796TIP3   OH211328   0.131   2.032   2.590  0.3159 -0.4392 -0.1387
 3796TIP3    H111329   0.205   2.075   2.633 -0.3244  0.8541 -0.2839
 3796TIP3    H211330   0.129   2.070   2.503 -1.0313  0.1786  0.1420
 3797TIP3   OH211331   1.414   0.303   2.367  1.0092 -0.0812 -0.7591
 3797TIP3    H111332   1.373   0.245   2.303  2.0080 -1.0692 -0.5343
 3797TIP3    H211333   1.349   0.371   2.383 -0.2582 -1.2200 -0.9169
 3798TIP3   OH211334   5.733   3.429   2.970  0.1880  0.3125  0.0233
 3798TIP3    H111335   5.687   3.423   2.886  0.0559  0.8280  0.0533
 3798TIP3    H211336   5.761   3.521   2.975 -0.3322  0.4404  0.8076
 3799TIP3   OH211337   7.427   2.930   3.740  0.0729 -0.4452  0.3112
 3799TIP3    H111338   7.399   3.019   3.718 -0.1092 -0.8959 -1.4300
 3799TIP3    H211339   7.350   2.876   3.726  0.6267 -1.0982 -0.2800
 3800TIP3   OH211340   8.056   7.370   6.411  0.0077 -0.0400  0.0886
 3800TIP3    H111341   8.114   7.402   6.480 -0.4670 -0.5259  0.7315
 3800TIP3    H211342   8.038   7.279   6.436  4.2700 -2.2795 -3.5370
 3801TIP3   OH211343   3.252   7.414   0.654 -0.5895 -0.7761 -0.1614
 3801TIP3    H111344   3.202   7.351   0.601  0.2880 -0.5862 -1.2504
 3801TIP3    H211345   3.338   7.374   0.664 -0.0615  0.1782 -0.7622
 3802TIP3   OH211346   8.002   4.216   1.085  0.4027  0.3564 -0.1199
 3802TIP3    H111347   8.040   4.288   1.035  0.8636 -0.4258 -0.9144
 3802TIP3    H211348   7.947   4.169   1.022  2.3665 -1.6940 -0.4499
 3803TIP3   OH211349   7.450   2.122   0.531  0.0553 -0.1263  0.3241
 3803TIP3    H111350   7.397   2.119   0.611  1.1132 -1.0662  1.0270
 3803TIP3    H211351   7.521   2.183   0.551  0.7544 -0.9434  0.4078
 3804TIP3   OH211352   1.308   7.147   5.084 -0.2267 -0.3593 -0.1645
 3804TIP3    H111353   1.317   7.137   5.179  0.7262 -1.0105 -0.3009
 3804TIP3    H211354   1.214   7.145   5.068 -0.3804 -0.6514  0.7319
 3805TIP3   OH211355   0.685   3.939   5.523  0.3571 -0.3518 -0.0763
 3805TIP3    H111356   0.628   4.016   5.519  1.7351  0.8243  1.5018
 3805TIP3    H211357   0.626   3.865   5.513 -0.9076  0.8703 -2.6940
 3806TIP3   OH211358   6.974   3.882   1.596  0.4428 -0.4367  0.2811
 3806TIP3    H111359   6.926   3.956   1.632  0.3523 -1.0962  1.5599
 3806TIP3    H211360   6.994   3.827   1.671  0.9178 -1.4836 -0.5818
 3807TIP3   OH211361   2.026   3.749   4.976 -0.2605 -0.1693 -0.2279
 3807TIP3    H111362   2.052   3.709   4.894  0.3029  0.1079 -0.1890
 3807TIP3    H211363   2.108   3.779   5.016 -0.5144 -0.3884  0.4817
 3808TIP3   OH211364   1.448   0.063   6.586 -0.5494 -0.1833 -0.1840
 3808TIP3    H111365   1.503  -0.015   6.582 -0.4979 -0.1278 -0.5801
 3808TIP3    H211366   1.454   0.101   6.498 -2.0337 -0.7389 -0.5462
 3809TIP3   OH211367   5.277   2.695   6.863 -0.3783  0.7936 -0.2088
 3809TIP3    H111368   5.279   2.600   6.859 -0.6375  0.7951 -0.3982
 3809TIP3    H211369   5.335   2.724   6.793  1.7779  0.7640  1.4813
 3810TIP3   OH211370   7.578   3.394   0.279  0.2710 -0.5319  0.2346
 3810TIP3    H111371   7.594   3.403   0.374  3.2380 -0.3943 -0.1605
 3810TIP3    H211372   7.656   3.433   0.239 -0.6240 -1.1671 -2.2710
 3811TIP3   OH211373   6.208   4.870   2.036 -0.2734  0.0397 -0.1193
 3811TIP3    H111374   6.277   4.859   2.101 -0.6862 -1.6992  0.0895
 3811TIP3    H211375   6.248   4.920   1.966  0.6502  0.6010  0.7914
 3812TIP3   OH211376   7.732   7.628   5.433  0.4179 -0.6406  0.1530
 3812TIP3    H111377   7.803   7.672   5.479  0.7012  0.9205 -1.6154
 3812TIP3    H211378   7.767   7.542   5.410  2.5920  0.7339 -2.3220
 3813TIP3   OH211379   7.205   0.495   5.898  0.2203  0.1709 -0.0680
 3813TIP3    H111380   7.164   0.554   5.836  0.0752  0.2031  0.0570
 3813TIP3    H211381   7.282   0.460   5.852  0.3510  0.5167 -0.1119
 3814TIP3   OH211382   3.618   7.381   0.041 -0.7057  0.1789  0.0270
 3814TIP3    H111383   3.635   7.408   0.131  1.3975  2.2144 -0.8821
 3814TIP3    H211384   3.705   7.360   0.005 -1.2997  0.8566 -1.9341
 3815TIP3   OH211385   2.920   4.475   4.921  0.3597  0.2084 -0.0960
 3815TIP3    H111386   2.936   4.495   5.013  0.1430 -0.0749  0.0019
 3815TIP3    H211387   2.972   4.541   4.873 -1.4662  1.9651  0.2161
 3816TIP3   OH211388   7.819   3.699   0.356  0.6720 -0.6401 -0.6079
 3816TIP3    H111389   7.727   3.681   0.378  0.5864 -0.1607 -0.5606
 3816TIP3    H211390   7.853   3.744   0.434  0.3748  1.0507 -1.4071
 3817TIP3   OH211391   3.176   3.323   4.568  0.1623 -0.3554 -0.1846
 3817TIP3    H111392   3.162   3.248   4.625 -0.7113  0.7390  1.1113
 3817TIP3    H211393   3.112   3.312   4.497 -1.1693 -0.0034  0.9091
 3818TIP3   OH211394   0.183   3.327   0.673 -0.0192 -0.6444 -0.4412
 3818TIP3    H111395   0.255   3.288   0.722 -0.3485  0.8450  1.3831
 3818TIP3    H211396   0.109   3.325   0.734 -0.7468  0.3587 -1.2465
 3819TIP3   OH211397   1.445   1.946   0.613 -0.2514  0.5390 -0.0334
 3819TIP3    H111398   1.413   2.014   0.673 -0.3762  1.6504 -1.3185
 3819TIP3    H211399   1.528   1.979   0.580  0.9854 -1.1194  1.2246
 3820TIP3   OH211400   4.379   4.382   4.683  0.4180 -0.2147 -0.3490
 3820TIP3    H111401   4.336   4.307   4.642  0.7734 -0.3631 -0.4571
 3820TIP3    H211402   4.405   4.437   4.609  2.7035 -1.3597 -0.4976
 3821TIP3   OH211403   3.398   3.357   5.133 -0.3736 -0.0193 -0.1972
 3821TIP3    H111404   3.340   3.305   5.189 -0.1594  0.8775  0.8775
 3821TIP3    H211405   3.482   3.357   5.179 -0.7620  2.5452  0.6435
 3822TIP3   OH211406   4.811   5.869   4.588 -0.2739  0.3520 -0.0501
 3822TIP3    H111407   4.784   5.792   4.638 -2.1268  0.0985 -1.3263
 3822TIP3    H211408   4.746   5.935   4.610  0.2430  0.9762 -0.3747
 3823TIP3   OH211409   1.402   4.341   2.771  0.0786  0.2234  0.1495
 3823TIP3    H111410   1.398   4.294   2.855  0.3642  2.8726  1.7579
 3823TIP3    H211411   1.478   4.303   2.727 -0.2964 -1.4978  0.8680
 3824TIP3   OH211412   2.316   3.501   0.488 -0.4510 -0.1703  0.2539
 3824TIP3    H111413   2.248   3.545   0.437 -0.4629 -0.9302 -0.3967
 3824TIP3    H211414   2.304   3.534   0.577  0.8293  2.6657 -0.5439
 3825TIP3   OH211415   5.030   6.758   3.154 -0.6298  0.1712 -0.4090
 3825TIP3    H111416   5.030   6.782   3.062 -2.0328 -0.0658 -0.4906
 3825TIP3    H211417   5.047   6.840   3.201  0.4212  0.2324 -0.8664
 3826TIP3   OH211418   2.017   3.332   6.164  0.7400  0.1803 -0.1836
 3826TIP3    H111419   2.107   3.346   6.135  0.6386 -0.7637 -0.9889
 3826TIP3    H211420   1.967   3.402   6.121  0.9001 -0.0436 -0.7416
 3827TIP3   OH211421   5.578   1.311   2.878 -0.0618 -0.1610  0.4857
 3827TIP3    H111422   5.593   1.400   2.847 -0.8656  0.2610  1.2600
 3827TIP3    H211423   5.528   1.269   2.807  0.7618 -0.1658 -0.1017
 3828TIP3   OH211424   1.079   5.201   2.370 -0.5377 -0.4300  0.3461
 3828TIP3    H111425   1.115   5.288   2.355  1.2567 -1.1548  0.1109
 3828TIP3    H211426   1.066   5.196   2.465  1.0246 -0.4725  0.5883
 3829TIP3   OH211427   5.016   4.176   5.505 -0.0232  0.2584  0.4196
 3829TIP3    H111428   5.055   4.252   5.462 -1.1106  0.8051  0.3452
 3829TIP3    H211429   4.943   4.212   5.556 -0.3023 -0.6837  0.7146
 3830TIP3   OH211430   0.808   0.763   0.902 -0.1367  0.3686 -0.0753
 3830TIP3    H111431   0.728   0.806   0.872 -0.7412 -0.6274  0.0796
 3830TIP3    H211432   0.857   0.833   0.947 -2.1863  0.4217  2.2668
 3831TIP3   OH211433   8.189   5.852   2.587 -0.0402  0.9251 -0.4516
 3831TIP3    H111434   8.254   5.914   2.555  0.8605  1.1164  1.5879
 3831TIP3    H211435   8.217   5.767   2.553  2.5161  0.6720  1.9493
 3832TIP3   OH211436   5.864   1.112   0.816 -0.1932  0.7856  0.0983
 3832TIP3    H111437   5.914   1.194   0.821  0.5460  0.3717 -0.2172
 3832TIP3    H211438   5.870   1.075   0.904 -0.0357  0.7961  0.0932
 3833TIP3   OH211439   7.934   6.977   4.382 -0.1175  0.4199 -0.3730
 3833TIP3    H111440   8.003   7.034   4.350  0.0111  0.0849 -0.7028
 3833TIP3    H211441   7.887   7.029   4.446  0.9110  0.3982  0.4227
 3834TIP3   OH211442   1.263   7.757   6.831  0.0709 -0.0492 -0.1303
 3834TIP3    H111443   1.330   7.810   6.790 -0.3778  0.0309 -0.7855
 3834TIP3    H211444   1.269   7.672   6.786 -1.3035  0.4507 -1.3429
 3835TIP3   OH211445   5.486   0.070   1.505 -0.5909  0.3147 -0.7232
 3835TIP3    H111446   5.518   0.152   1.468  0.1669  1.0721  1.4311
 3835TIP3    H211447   5.393   0.086   1.523 -0.2570  1.0714  0.4891
 3836TIP3   OH211448   1.412   3.813   4.425  0.2030 -0.1508  0.3605
 3836TIP3    H111449   1.464   3.862   4.363  0.3849 -1.6997 -0.7700
 3836TIP3    H211450   1.337   3.870   4.444  1.1174  1.1347  0.2329
 3837TIP3   OH211451   3.305   0.918   2.051 -0.3352  0.0116  0.3787
 3837TIP3    H111452   3.338   0.941   2.138  1.5727  1.9483 -0.7378
 3837TIP3    H211453   3.283   1.003   2.011 -2.5386 -0.9268 -0.5680
 3838TIP3   OH211454   3.994   5.060   3.479  0.0303  0.1423  0.0089
 3838TIP3    H111455   4.079   5.101   3.495  0.3036 -0.0423 -0.9314
 3838TIP3    H211456   4.011   4.995   3.411 -0.2909 -1.9608  1.8465
 3839TIP3   OH211457   0.762   4.629   0.901  0.3515 -0.3805 -0.1089
 3839TIP3    H111458   0.766   4.665   0.812  1.8384 -2.4993 -0.9776
 3839TIP3    H211459   0.853   4.610   0.923 -0.1531 -1.3561  1.2304
 3840TIP3   OH211460   2.129   6.840   1.642  0.1199 -0.2579  0.2014
 3840TIP3    H111461   2.208   6.786   1.631  0.4875  0.1160  0.9389
 3840TIP3    H211462   2.149   6.921   1.594  0.4430  0.0913  0.9203
 3841TIP3   OH211463   5.392   3.509   1.321 -0.1707 -0.1975 -0.1618
 3841TIP3    H111464   5.363   3.600   1.327 -0.2198 -0.2989  1.5826
 3841TIP3    H211465   5.326   3.467   1.265 -0.0322  0.8649 -1.1579
 3842TIP3   OH211466   8.087   1.317   4.084  0.3140  0.3681  0.4755
 3842TIP3    H111467   8.114   1.392   4.138  3.0261  0.6231 -1.0486
 3842TIP3    H211468   7.992   1.315   4.091  0.4669  0.4335  5.0903
 3843TIP3   OH211469   4.174   3.384   4.911 -0.4204  0.1972 -0.3360
 3843TIP3    H111470   4.108   3.314   4.913 -2.9950  2.4516  0.9897
 3843TIP3    H211471   4.135   3.451   4.854  0.4182  1.8580  0.9517
 3844TIP3   OH211472   3.254   5.078   5.920 -0.0511 -0.4059 -0.3301
 3844TIP3    H111473   3.188   5.044   5.979 -0.3185  0.6069 -0.0218
 3844TIP3    H211474   3.271   5.006   5.858 -0.5817 -1.0741  0.2884
 3845TIP3   OH211475   2.256   3.257   6.050  0.2189  0.1268 -0.0019
 3845TIP3    H111476   2.340   3.302   6.052  0.2175  0.1028  2.1633
 3845TIP3    H211477   2.277   3.166   6.069 -0.1712 -0.1415 -0.8010
 3846TIP3   OH211478   5.217   0.695   0.724  0.6100 -0.1063 -0.2511
 3846TIP3    H111479   5.290   0.650   0.766  0.3981 -0.5073 -0.3136
 3846TIP3    H211480   5.217   0.662   0.635  0.6765  0.2882 -0.3993
 3847TIP3   OH211481   4.397   4.417   0.868  0.3491  0.4668 -0.0751
 3847TIP3    H111482   4.450   4.411   0.947 -0.3292  2.5512  0.6003
 3847TIP3    H211483   4.306   4.413   0.900  0.0708  0.1927 -0.8760
 3848TIP3   OH211484   2.023   6.368   2.671 -0.4357 -0.4455 -0.2477
 3848TIP3    H111485   1.969   6.438   2.708  0.7097  0.5028 -0.3132
 3848TIP3    H211486   2.073   6.411   2.602  1.9048 -0.7848  1.1479
 3849TIP3   OH211487   7.063   7.431   2.910  0.4273  0.2979 -0.2568
 3849TIP3    H111488   7.128   7.492   2.874 -0.8049  1.2256 -0.9823
 3849TIP3    H211489   7.003   7.416   2.838 -1.3473  1.1262  0.9777
 3850TIP3   OH211490   7.425   5.263   6.300 -0.3269 -0.1477 -0.1678
 3850TIP3    H111491   7.470   5.186   6.264  2.5201  1.6377 -0.7293
 3850TIP3    H211492   7.348   5.274   6.244  0.2847 -1.4372 -1.3300
 3851TIP3   OH211493   3.276   2.685   1.351  0.6124 -0.4899  0.6210
 3851TIP3    H111494   3.355   2.715   1.306  1.0033  0.6552  1.9968
 3851TIP3    H211495   3.261   2.750   1.419 -1.3857 -0.8141  0.5639
 3852TIP3   OH211496   0.214   5.634   5.364  0.0844 -0.3497  0.0272
 3852TIP3    H111497   0.202   5.549   5.408  1.1943 -0.9643 -0.8073
 3852TIP3    H211498   0.136   5.644   5.310 -0.3755 -0.5185  0.6578
 3853TIP3   OH211499   0.757   6.921   4.830 -0.2822 -0.4656 -0.1460
 3853TIP3    H111500   0.692   6.926   4.760  0.5087 -1.1306 -0.9572
 3853TIP3    H211501   0.727   6.850   4.886 -0.7283 -0.1760 -0.0165
 3854TIP3   OH211502   0.417   3.760   2.178  0.6323  0.2083 -0.2032
 3854TIP3    H111503   0.349   3.719   2.124  0.8122 -0.8399  0.3278
 3854TIP3    H211504   0.393   3.737   2.268  2.1051 -0.8796 -0.0416
 3855TIP3   OH211505   7.997   2.616   4.516  0.7766 -0.4420 -0.5394
 3855TIP3    H111506   8.002   2.667   4.435  1.5511 -0.4372 -0.4928
 3855TIP3    H211507   8.049   2.538   4.499  0.6862 -0.5887 -0.1502
 3856TIP3   OH211508   5.144   6.433   0.827 -0.3681  0.2883  0.1709
 3856TIP3    H111509   5.130   6.396   0.915  0.5890  3.3016  1.7417
 3856TIP3    H211510   5.202   6.371   0.783 -1.6128 -1.7754  1.2528
 3857TIP3   OH211511   1.327   1.176   2.632  0.1405 -0.1219 -0.0584
 3857TIP3    H111512   1.281   1.201   2.712  0.9248 -0.1338  0.4166
 3857TIP3    H211513   1.303   1.084   2.617 -1.8496  0.5356 -1.1674
 3858TIP3   OH211514   7.095   4.182   5.140 -0.1702  0.0407  0.3487
 3858TIP3    H111515   7.103   4.191   5.235  0.5841  1.6871  0.1476
 3858TIP3    H211516   7.000   4.175   5.124 -0.2805 -0.6853  1.2296
 3859TIP3   OH211517   6.012   6.161   4.068 -0.7319 -0.2581 -0.5327
 3859TIP3    H111518   5.968   6.095   4.122 -1.9171  0.9895  0.0907
 3859TIP3    H211519   5.979   6.147   3.980 -0.7834 -0.6514 -0.4498
 3860TIP3   OH211520   0.241   6.300   1.234  0.0773  0.3108 -0.3173
 3860TIP3    H111521   0.232   6.381   1.183  0.7265  1.5601  1.4800
 3860TIP3    H211522   0.162   6.297   1.288  0.2480 -0.0520 -0.0868
 3861TIP3   OH211523   2.880   4.654   6.829 -0.0140  0.3728 -0.6790
 3861TIP3    H111524   2.873   4.671   6.923  0.9685  2.0314 -0.8684
 3861TIP3    H211525   2.864   4.560   6.820 -1.6714  0.4432  0.9534
 3862TIP3   OH211526   3.065   1.096   3.706  0.2984  0.4112 -0.2785
 3862TIP3    H111527   3.039   1.145   3.784 -0.9919  1.5657 -1.3723
 3862TIP3    H211528   2.985   1.093   3.652  0.8326 -1.3821 -1.0465
 3863TIP3   OH211529   1.549   2.953   1.137  0.0809 -0.5748 -0.0165
 3863TIP3    H111530   1.578   2.864   1.116 -0.0619 -0.9065  1.1229
 3863TIP3    H211531   1.456   2.943   1.159  0.5384 -0.5288  2.1750
 3864TIP3   OH211532   7.829   0.301   2.138  0.1859 -0.5079 -0.1892
 3864TIP3    H111533   7.764   0.243   2.179  0.1882  0.3251  1.0583
 3864TIP3    H211534   7.807   0.299   2.045 -1.8693  0.0097  0.2308
 3865TIP3   OH211535   4.911   5.824   3.855  0.0261  0.0620  0.1055
 3865TIP3    H111536   4.932   5.917   3.851  0.9567 -0.1925 -1.5836
 3865TIP3    H211537   4.827   5.817   3.809  0.0998  0.0217 -0.0221
 3866TIP3   OH211538   8.087   6.545   5.951  0.6130 -0.3990  0.0213
 3866TIP3    H111539   8.134   6.508   6.025  0.6689  1.9449  1.2651
 3866TIP3    H211540   8.015   6.484   5.935 -1.4825  0.5519  4.2931
 3867TIP3   OH211541   1.791   2.068   2.313 -0.0427  0.3339  0.2729
 3867TIP3    H111542   1.700   2.051   2.292  0.3543 -2.3395  0.3922
 3867TIP3    H211543   1.832   2.091   2.230 -0.6100  0.5529  0.0510
 3868TIP3   OH211544   8.234   7.530   6.171  0.2183 -0.0376 -0.0218
 3868TIP3    H111545   8.266   7.518   6.081  0.1240 -0.5966  0.0170
 3868TIP3    H211546   8.177   7.455   6.186 -0.8724  0.7887  0.0273
 3869TIP3   OH211547   4.335   5.560   3.916 -0.2322  0.2612  0.2689
 3869TIP3    H111548   4.282   5.577   3.994 -1.3380  1.8480 -0.7742
 3869TIP3    H211549   4.414   5.611   3.928 -0.7325  1.1077  0.0417
 3870TIP3   OH211550   7.728   4.340   0.652 -0.2132 -0.0558 -0.2224
 3870TIP3    H111551   7.764   4.280   0.587  0.8641  0.8174 -0.4680
 3870TIP3    H211552   7.677   4.403   0.602 -0.1606  0.0652 -0.1258
 3871TIP3   OH211553   6.566   0.115   1.549 -0.1377  0.5026 -0.6058
 3871TIP3    H111554   6.542   0.126   1.641  1.4753  0.2864 -0.1340
 3871TIP3    H211555   6.554   0.202   1.511 -0.1241  0.7671 -0.0219
 3872TIP3   OH211556   6.559   5.391   3.770 -0.5901 -1.0082  0.3975
 3872TIP3    H111557   6.578   5.333   3.697 -0.1267  1.0512 -1.2268
 3872TIP3    H211558   6.465   5.406   3.765 -0.3991  0.1102 -0.6632
 3873TIP3   OH211559   3.319   4.660   3.768  0.5682 -0.3962  0.0989
 3873TIP3    H111560   3.248   4.663   3.832  1.2299  1.5342  0.7872
 3873TIP3    H211561   3.393   4.621   3.815  0.1793 -1.8513 -0.4430
 3874TIP3   OH211562   5.160   5.996   6.726  0.5192  0.4888 -0.6177
 3874TIP3    H111563   5.090   6.052   6.757  0.7019  1.1062 -1.3078
 3874TIP3    H211564   5.139   5.979   6.635 -0.4332 -1.9577 -0.0271
 3875TIP3   OH211565   2.758   1.839   4.602 -0.3930 -0.1477 -0.8157
 3875TIP3    H111566   2.746   1.814   4.511 -1.2951 -0.6717 -0.5605
 3875TIP3    H211567   2.759   1.935   4.600  2.6588 -0.0662 -1.7366
 3876TIP3   OH211568   7.637   6.253   1.952 -0.0362  0.2344 -0.2311
 3876TIP3    H111569   7.596   6.338   1.941  0.2396  0.4518  0.3961
 3876TIP3    H211570   7.726   6.264   1.916 -0.4491 -0.1906 -1.4420
 3877TIP3   OH211571   0.835   6.139   0.247 -0.5852 -0.5257  0.3937
 3877TIP3    H111572   0.854   6.208   0.310  0.6318 -0.2833 -0.1959
 3877TIP3    H211573   0.802   6.185   0.169 -1.0292 -0.7248  0.4608
 3878TIP3   OH211574   3.905   7.669   0.858  0.2715  0.0238  0.5496
 3878TIP3    H111575   3.945   7.737   0.912 -1.5759  1.1450  0.6003
 3878TIP3    H211576   3.814   7.697   0.848  0.2028 -0.8568 -2.0145
 3879TIP3   OH211577   0.399   0.623   1.679 -0.4736 -0.3173  0.3663
 3879TIP3    H111578   0.485   0.590   1.653 -2.5676 -3.8881 -3.2079
 3879TIP3    H211579   0.367   0.560   1.744 -0.9841  0.1089  0.5433
 3880TIP3   OH211580   8.301   1.751   6.588  0.7656  0.2679 -0.5866
 3880TIP3    H111581   8.307   1.814   6.660 -0.9768 -0.5013  0.3043
 3880TIP3    H211582   8.274   1.803   6.513  0.8617  0.8229 -0.2453
 3881TIP3   OH211583   5.608   2.872   4.441  0.2031  0.1974 -0.5058
 3881TIP3    H111584   5.642   2.782   4.450  2.2181  1.0446  1.1472
 3881TIP3    H211585   5.577   2.895   4.529 -2.9385  0.2438 -1.4813
 3882TIP3   OH211586   0.199   2.071   6.038 -0.6707  0.4418 -0.0791
 3882TIP3    H111587   0.286   2.101   6.013 -0.0745 -0.5636  0.7046
 3882TIP3    H211588   0.214   2.014   6.113 -1.7525 -1.6271 -1.3559
 3883TIP3   OH211589   2.561   6.388   3.514  0.0094  0.3149  0.6952
 3883TIP3    H111590   2.609   6.353   3.590  0.6288 -0.4719 -0.0419
 3883TIP3    H211591   2.626   6.389   3.443 -1.3211 -1.9352 -0.6653
 3884TIP3   OH211592   7.977   3.248   3.130  0.1467 -0.0204 -0.0636
 3884TIP3    H111593   7.932   3.298   3.062 -1.1212  1.6644  1.8970
 3884TIP3    H211594   8.014   3.314   3.189 -2.4749 -1.1844  3.2127
 3885TIP3   OH211595   7.238   5.716   5.118  0.1814 -0.1118  0.6847
 3885TIP3    H111596   7.206   5.629   5.093  0.6770 -0.1822  0.2781
 3885TIP3    H211597   7.172   5.750   5.178 -0.8781 -0.0631 -0.4831
 3886TIP3   OH211598   3.016   0.354   2.882  0.5048  0.0183  0.1289
 3886TIP3    H111599   3.041   0.263   2.896  0.1257 -0.1301 -0.1482
 3886TIP3    H211600   3.093   0.405   2.910  0.6252 -0.3722  0.5148
 3887TIP3   OH211601   2.115   6.944   4.092  0.3478 -0.6316 -0.2608
 3887TIP3    H111602   2.033   6.906   4.060 -0.5292  0.4911  0.5239
 3887TIP3    H211603   2.100   6.956   4.186  1.8370 -1.3954  0.1065
 3888TIP3   OH211604   7.085   3.106   0.864 -0.9538 -0.3420  0.0533
 3888TIP3    H111605   7.060   3.017   0.888 -0.4037 -0.5826 -0.2588
 3888TIP3    H211606   7.037   3.124   0.783 -0.3576 -0.6926 -0.3819
 3889TIP3   OH211607   6.710   6.959   6.713 -0.0523  0.0796 -0.0070
 3889TIP3    H111608   6.745   6.883   6.760 -0.4020  0.6637  1.2420
 3889TIP3    H211609   6.766   7.032   6.741 -0.2570  0.4400 -0.5262
 3890TIP3   OH211610   2.373   6.749   2.976  0.2644 -0.0750 -0.6657
 3890TIP3    H111611   2.315   6.742   2.901 -0.1238 -0.7037 -0.3200
 3890TIP3    H211612   2.331   6.695   3.044  0.4718  0.6787  0.0834
 3891TIP3   OH211613   6.427   0.745   5.941  0.1240 -0.5098  0.0153
 3891TIP3    H111614   6.459   0.678   6.002  3.4055  0.4330 -0.4651
 3891TIP3    H211615   6.360   0.701   5.889 -0.0771 -2.4384  1.8064
 3892TIP3   OH211616   3.406   2.991   0.718 -0.2443 -0.6118  0.3474
 3892TIP3    H111617   3.324   2.943   0.729 -0.7512  0.0723 -0.2858
 3892TIP3    H211618   3.469   2.926   0.689 -0.9418 -0.8843 -0.5846
 3893TIP3   OH211619   5.852   3.401   0.188  0.4041 -0.2749 -0.6141
 3893TIP3    H111620   5.811   3.458   0.123 -0.7938 -0.8366 -0.3715
 3893TIP3    H211621   5.794   3.325   0.193  0.3374 -0.1335  1.2797
 3894TIP3   OH211622   0.960   6.726   6.049 -0.3279 -0.0958  0.7111
 3894TIP3    H111623   0.946   6.632   6.058  1.1481 -0.3502  0.7160
 3894TIP3    H211624   1.009   6.735   5.967 -0.1938  0.6326  0.8615
 3895TIP3   OH211625   4.150   7.024   6.655 -0.3373 -0.0514 -0.3521
 3895TIP3    H111626   4.149   7.058   6.744  0.6444  0.5868 -0.5674
 3895TIP3    H211627   4.101   6.942   6.660  1.3322 -1.0179  1.1830
 3896TIP3   OH211628   2.627   5.390   3.653  0.0526  0.2893 -0.3316
 3896TIP3    H111629   2.586   5.477   3.662  0.3191  0.4165 -0.3449
 3896TIP3    H211630   2.581   5.349   3.580 -1.5479 -0.4141  1.0070
 3897TIP3   OH211631   6.007   5.917   0.781 -0.7749  0.1935 -0.7610
 3897TIP3    H111632   6.003   5.924   0.686 -0.7872  0.7069 -0.7240
 3897TIP3    H211633   5.978   5.827   0.800 -0.5782  0.0240 -1.2510
 3898TIP3   OH211634   8.133   3.990   1.546 -0.0222 -0.0179 -0.1243
 3898TIP3    H111635   8.110   4.014   1.456  0.5397 -0.3450 -0.3627
 3898TIP3    H211636   8.210   4.042   1.566  0.5627 -0.8087 -0.2625
 3899TIP3   OH211637   6.079   0.117   5.024 -0.2814  0.1854 -0.1369
 3899TIP3    H111638   6.040   0.104   4.938 -0.1835 -0.9092 -0.0340
 3899TIP3    H211639   6.110   0.208   5.024 -1.0447  0.4512 -0.9361
 3900TIP3   OH211640   1.565   0.260   6.747 -0.0279  0.0380  0.3729
 3900TIP3    H111641   1.523   0.192   6.694  1.1693 -0.0538 -0.5200
 3900TIP3    H211642   1.622   0.305   6.685 -2.3541  3.3264  0.3860
 3901TIP3   OH211643   6.131   1.249   6.442  0.4927  0.1142 -0.1603
 3901TIP3    H111644   6.191   1.303   6.391  0.0177  0.2395 -0.5849
 3901TIP3    H211645   6.187   1.208   6.508  1.1901 -0.3440 -1.0051
 3902TIP3   OH211646   2.741   2.353   1.527  0.2302  0.3150 -0.2896
 3902TIP3    H111647   2.773   2.362   1.437  1.0045  0.3529 -0.0200
 3902TIP3    H211648   2.812   2.388   1.581  0.3712 -0.9801  0.4071
 3903TIP3   OH211649   7.375   3.532   1.823 -0.0571 -0.4433  0.4935
 3903TIP3    H111650   7.464   3.559   1.847 -0.3787  0.2968  0.8875
 3903TIP3    H211651   7.321   3.562   1.895 -0.4752 -2.0211  0.8689
 3904TIP3   OH211652   1.932   1.804   1.137 -0.4342  0.5984  0.7254
 3904TIP3    H111653   1.995   1.855   1.087  0.1712 -0.9272 -0.1505
 3904TIP3    H211654   1.957   1.817   1.228  1.2404 -0.0225  0.3891
 3905TIP3   OH211655   0.755   0.249   4.069 -0.3301 -0.2060 -0.4703
 3905TIP3    H111656   0.752   0.339   4.037  0.1235 -0.1749 -0.4320
 3905TIP3    H211657   0.688   0.204   4.019  0.4870 -0.2009 -1.6195
 3906TIP3   OH211658   3.462   5.100   5.636 -0.1818  0.0417  0.2223
 3906TIP3    H111659   3.437   5.053   5.716  1.1850  0.2592  0.8164
 3906TIP3    H211660   3.404   5.177   5.635  0.2644  0.4349  1.4356
 3907TIP3   OH211661   8.183   7.068   3.028  0.2089  0.0558  0.6998
 3907TIP3    H111662   8.104   7.060   3.081  0.3837  0.6097  1.0474
 3907TIP3    H211663   8.253   7.085   3.091  0.4520  0.5309  0.3117
 3908TIP3   OH211664   0.508   4.636   0.680  0.2432 -0.1593  0.0007
 3908TIP3    H111665   0.588   4.582   0.682 -0.9327 -2.1044 -1.4095
 3908TIP3    H211666   0.530   4.708   0.620  0.9651 -0.6523 -0.3528
 3909TIP3   OH211667   1.359   5.242   1.856 -0.0167  0.7734  0.1646
 3909TIP3    H111668   1.405   5.261   1.774 -1.0024 -1.1965 -0.9364
 3909TIP3    H211669   1.309   5.321   1.874  1.2864  1.7617 -0.3458
 3910TIP3   OH211670   8.249   5.872   0.619 -0.0596 -0.4569 -0.1536
 3910TIP3    H111671   8.271   5.959   0.653  1.0200 -0.3725 -1.0262
 3910TIP3    H211672   8.154   5.876   0.606 -0.3690 -0.1551  1.8290
 3911TIP3   OH211673   3.660   1.058   3.197  0.2677  0.2308  0.6790
 3911TIP3    H111674   3.659   0.982   3.138  0.0436  0.0365  0.9317
 3911TIP3    H211675   3.608   1.030   3.272  0.9373  0.3162  1.1744
 3912TIP3   OH211676   7.887   3.083   4.619  0.3925 -0.6791 -0.4742
 3912TIP3    H111677   7.966   3.092   4.673  1.4330 -3.7307 -1.2630
 3912TIP3    H211678   7.920   3.069   4.531 -1.1088 -0.4024 -1.1004
 3913TIP3   OH211679   1.991   4.276   2.558 -0.2059 -0.0055 -0.1800
 3913TIP3    H111680   1.920   4.292   2.620  1.0024  0.2077  1.2198
 3913TIP3    H211681   2.053   4.347   2.574  1.0648 -1.0687 -0.2201
 3914TIP3   OH211682   2.832   7.861   3.755 -0.6705 -0.4198  0.1528
 3914TIP3    H111683   2.773   7.835   3.685  1.1292 -2.5931 -0.6853
 3914TIP3    H211684   2.822   7.793   3.822 -0.4280  0.1734  0.8113
 3915TIP3   OH211685   0.505   4.183   0.995  0.6794  0.5260  0.6092
 3915TIP3    H111686   0.419   4.159   0.961  1.8418 -0.7077 -1.7146
 3915TIP3    H211687   0.522   4.121   1.065 -0.4185  0.9702  1.2933
 3916TIP3   OH211688   0.073   3.160   5.463 -0.6306 -0.0700 -0.7054
 3916TIP3    H111689   0.124   3.231   5.502 -2.2016  1.6014 -1.5676
 3916TIP3    H211690  -0.006   3.155   5.517 -0.1441 -1.8796 -0.0583
 3917TIP3   OH211691   1.709   6.844   0.428 -0.0319  0.1430 -0.3998
 3917TIP3    H111692   1.666   6.911   0.481 -1.2367 -0.6097 -0.3776
 3917TIP3    H211693   1.643   6.819   0.363 -0.1291 -1.9031  0.3816
 3918TIP3   OH211694   5.228   2.970   4.788 -0.1147 -0.1597  0.0475
 3918TIP3    H111695   5.220   3.010   4.875 -0.2755  1.2822 -0.6016
 3918TIP3    H211696   5.168   3.020   4.733 -2.0006 -2.7012 -0.3851
 3919TIP3   OH211697   4.489   4.115   5.946 -0.3437  0.2113  0.5348
 3919TIP3    H111698   4.519   4.032   5.907  0.0847  0.0657  1.1575
 3919TIP3    H211699   4.396   4.119   5.925 -0.5565 -0.8253  1.1655
 3920TIP3   OH211700   0.642   3.575   5.806  0.3515  0.2558 -0.3669
 3920TIP3    H111701   0.636   3.669   5.790 -1.4364  0.2723  0.1462
 3920TIP3    H211702   0.634   3.567   5.901 -0.3402 -0.4541 -0.4814
 3921TIP3   OH211703   8.078   5.592   5.985  0.1857 -0.1145 -0.1681
 3921TIP3    H111704   8.074   5.519   6.047 -0.1571  1.4567  1.7773
 3921TIP3    H211705   8.167   5.589   5.950  0.4193 -1.0133  0.4556
 3922TIP3   OH211706   3.805   3.137   6.495 -0.7542 -0.0791  0.4127
 3922TIP3    H111707   3.834   3.221   6.532 -0.3636 -0.7491  1.6888
 3922TIP3    H211708   3.730   3.160   6.440 -0.5888  1.1187  0.6585
 3923TIP3   OH211709   2.895   4.655   5.639  0.2669  0.5764  0.4062
 3923TIP3    H111710   2.890   4.745   5.671 -1.1115  0.0854  1.6554
 3923TIP3    H211711   2.804   4.629   5.625  0.6838 -0.3470 -0.8104
 3924TIP3   OH211712   2.860   0.371   4.678 -0.1931  0.1862 -0.3500
 3924TIP3    H111713   2.841   0.388   4.770 -0.4765  1.0941 -0.5668
 3924TIP3    H211714   2.898   0.283   4.677 -1.3809 -0.3575  0.4804
 3925TIP3   OH211715   7.371   1.546   6.391 -0.2097  0.7924  0.3711
 3925TIP3    H111716   7.291   1.598   6.396  0.0403  1.1571  0.6130
 3925TIP3    H211717   7.424   1.589   6.324 -0.8830 -0.3891 -0.9755
 3926TIP3   OH211718   1.567   5.092   6.259 -0.0703  0.5454 -0.4747
 3926TIP3    H111719   1.541   5.105   6.351 -1.7245  0.1436 -0.8509
 3926TIP3    H211720   1.661   5.110   6.258  0.3319 -1.0497  1.6185
 3927TIP3   OH211721   4.250   2.686   0.552  0.3510  0.2127 -0.5759
 3927TIP3    H111722   4.187   2.614   0.550  0.2625  0.2690 -3.1939
 3927TIP3    H211723   4.315   2.662   0.487  0.8846  2.0316 -0.7578
 3928TIP3   OH211724   0.130   4.199   0.121  0.3356 -0.0568  0.2523
 3928TIP3    H111725   0.157   4.229   0.208 -0.1823  0.4969  0.2251
 3928TIP3    H211726   0.184   4.248   0.060 -0.5850  0.9327  0.2038
 3929TIP3   OH211727   5.439   6.210   4.672  0.5171 -0.0587 -0.0038
 3929TIP3    H111728   5.432   6.193   4.766  1.8992  1.9998  0.5290
 3929TIP3    H211729   5.530   6.186   4.651  0.2297 -0.4642 -0.8217
 3930TIP3   OH211730   6.125   3.291   0.238 -0.7226  0.0556 -0.3700
 3930TIP3    H111731   6.032   3.313   0.229 -0.3092  1.6854 -0.9936
 3930TIP3    H211732   6.170   3.354   0.181  1.0226  1.5785  2.4497
 3931TIP3   OH211733   5.643   6.006   3.959  0.0206  0.3761 -0.2730
 3931TIP3    H111734   5.627   6.078   4.020 -0.8349 -0.1476  0.1421
 3931TIP3    H211735   5.556   5.984   3.926  0.0418 -1.4754  0.7718
 3932TIP3   OH211736   6.511   1.548   3.217  0.0080  0.1977 -0.2782
 3932TIP3    H111737   6.545   1.634   3.242  2.0714 -0.4903 -0.5722
 3932TIP3    H211738   6.558   1.486   3.273 -0.8872 -0.8042 -0.6075
 3933TIP3   OH211739   0.653   0.900   2.554  0.0616 -0.2421 -0.0293
 3933TIP3    H111740   0.744   0.902   2.524  0.5065 -0.4998  1.2278
 3933TIP3    H211741   0.648   0.969   2.620 -1.8610  2.8918 -3.1410
 3934TIP3   OH211742   5.221   5.723   3.946 -0.0394 -0.4570 -0.0023
 3934TIP3    H111743   5.180   5.684   3.869 -0.1057  0.1037 -0.2644
 3934TIP3    H211744   5.250   5.649   3.999 -0.6005 -0.8524 -0.2395
 3935TIP3   OH211745   2.329   5.503   5.834  0.4767  0.1297  0.3484
 3935TIP3    H111746   2.298   5.578   5.783  0.2968 -0.5213 -0.5273
 3935TIP3    H211747   2.381   5.542   5.905  2.2138  0.9937 -1.3134
 3936TIP3   OH211748   7.120   3.001   4.631  0.0516 -0.4693  0.0657
 3936TIP3    H111749   7.162   3.041   4.555 -0.7387 -1.7300 -1.0874
 3936TIP3    H211750   7.147   3.055   4.705  2.3101 -0.2657 -0.8436
 3937TIP3   OH211751   3.889   7.317   3.627 -0.0538 -0.0241  0.4965
 3937TIP3    H111752   3.836   7.266   3.688  0.3549  0.5906  1.3777
 3937TIP3    H211753   3.844   7.401   3.620  0.5477  0.3350  0.8867
 3938TIP3   OH211754   1.180   7.078   2.267  0.0343 -0.3727 -0.2597
 3938TIP3    H111755   1.145   7.008   2.212  1.1472 -1.3756  0.2628
 3938TIP3    H211756   1.148   7.058   2.355  0.5438 -0.3401 -0.0672
 3939TIP3   OH211757   6.742   2.326   2.181  0.8605 -0.1554 -0.1326
 3939TIP3    H111758   6.704   2.401   2.135 -0.1786 -0.5715  0.0252
 3939TIP3    H211759   6.790   2.364   2.254 -0.6653  0.3198  0.6651
 3940TIP3   OH211760   8.296   7.468   2.096 -0.3277 -0.1395  0.2448
 3940TIP3    H111761   8.202   7.477   2.078 -0.4894 -1.4438  0.3124
 3940TIP3    H211762   8.316   7.378   2.071  0.9591  0.1864  0.0411
 3941TIP3   OH211763   0.955   2.987   5.468 -0.3516  0.2511 -0.2440
 3941TIP3    H111764   0.950   2.906   5.417 -1.0941 -0.8250  1.4462
 3941TIP3    H211765   0.875   2.988   5.520  0.7498  0.8374  1.5390
 3942TIP3   OH211766   3.701   5.538   2.039  0.5611 -0.0314 -1.1455
 3942TIP3    H111767   3.773   5.581   2.085 -0.0567 -0.4089  0.2228
 3942TIP3    H211768   3.622   5.580   2.074 -0.2195 -3.3678  1.6398
 3943TIP3   OH211769   3.944   7.100   3.084  0.0903  0.2657  0.0079
 3943TIP3    H111770   4.011   7.165   3.106 -0.3020  0.7281 -0.1396
 3943TIP3    H211771   3.886   7.145   3.024  1.0807 -0.9334 -1.9517
 3944TIP3   OH211772   3.507   6.661   3.732 -0.2114 -0.1806 -0.5182
 3944TIP3    H111773   3.436   6.639   3.672 -0.2014 -0.0626 -0.5736
 3944TIP3    H211774   3.524   6.754   3.716 -1.5741  0.3803  1.1058
 3945TIP3   OH211775   3.489   1.379   1.330  0.2530  0.7222 -0.2693
 3945TIP3    H111776   3.499   1.289   1.361  1.9323  0.9020 -0.2131
 3945TIP3    H211777   3.492   1.372   1.235  0.0912  0.6872 -0.2717
 3946TIP3   OH211778   3.689   0.477   2.437  0.0124  0.3745  0.4234
 3946TIP3    H111779   3.601   0.458   2.407 -0.0483  1.1165  0.0964
 3946TIP3    H211780   3.738   0.495   2.356  0.3959  0.2203  0.6200
 3947TIP3   OH211781   3.365   4.796   1.256  0.2528 -0.6790  0.5739
 3947TIP3    H111782   3.323   4.717   1.222 -2.1671  1.0911 -0.9078
 3947TIP3    H211783   3.441   4.808   1.200 -1.4990  0.0314 -1.8223
 3948TIP3   OH211784   3.119   7.220   2.459 -0.2023  0.0340 -0.1723
 3948TIP3    H111785   3.148   7.308   2.435  0.2361  0.0233  0.2979
 3948TIP3    H211786   3.191   7.163   2.432 -0.0847 -0.0750  0.3489
 3949TIP3   OH211787   2.204   3.721   2.547 -0.6980  0.6757  0.3854
 3949TIP3    H111788   2.192   3.715   2.642 -2.4555 -1.7429  0.1158
 3949TIP3    H211789   2.119   3.751   2.514 -0.5590  0.1398 -0.4925
 3950TIP3   OH211790   6.129   5.897   4.361 -0.2787 -0.0498  0.5950
 3950TIP3    H111791   6.176   5.873   4.441 -1.6892  0.8875  1.7635
 3950TIP3    H211792   6.090   5.816   4.330  1.9759 -0.8346 -0.3640
 3951TIP3   OH211793   4.034   1.884   1.399 -0.4488 -0.0941 -0.9358
 3951TIP3    H111794   4.053   1.846   1.313  2.1958 -2.5818  0.5622
 3951TIP3    H211795   4.013   1.808   1.454  0.7222  1.0667  1.2464
 3952TIP3   OH211796   1.920   6.691   0.748 -0.0914  0.3348  0.2293
 3952TIP3    H111797   1.919   6.751   0.672  1.1769 -0.1441 -0.1935
 3952TIP3    H211798   1.842   6.637   0.736  1.2099 -1.2312 -2.0116
 3953TIP3   OH211799   6.971   3.771   1.849 -0.1140 -0.5876  0.1590
 3953TIP3    H111800   7.003   3.837   1.911 -0.1487 -1.3903  1.0552
 3953TIP3    H211801   6.879   3.759   1.872  0.2361 -1.9666  0.9660
 3954TIP3   OH211802   6.985   7.015   5.173 -0.3969 -0.2721 -0.1504
 3954TIP3    H111803   6.955   7.071   5.101  0.0021  0.1191 -0.0202
 3954TIP3    H211804   6.975   6.926   5.140 -0.0978 -0.0914 -0.7419
 3955TIP3   OH211805   2.197   7.907   4.513 -0.3450 -0.5561  0.2539
 3955TIP3    H111806   2.152   7.988   4.537 -1.1980 -0.0139 -2.7402
 3955TIP3    H211807   2.147   7.838   4.555 -1.2606  0.3148  0.6286
 3956TIP3   OH211808   7.809   3.140   5.846  0.1650  0.5314 -0.0307
 3956TIP3    H111809   7.838   3.055   5.880 -1.0744 -0.1986 -0.7420
 3956TIP3    H211810   7.890   3.190   5.835  0.7994  0.0217  1.8545
 3957TIP3   OH211811   5.561   0.352   6.093 -0.0212  0.4503  0.3549
 3957TIP3    H111812   5.507   0.368   6.016  0.2243  0.4157  0.1750
 3957TIP3    H211813   5.500   0.315   6.158 -0.3874  1.1739  0.4389
 3958TIP3   OH211814   0.496   1.753   2.894  0.4800  0.1939  0.1499
 3958TIP3    H111815   0.500   1.658   2.887  0.2289  0.3270 -2.9847
 3958TIP3    H211816   0.529   1.786   2.810 -3.0775  2.7473 -0.4956
 3959TIP3   OH211817   4.540   5.123   0.398 -0.1535  0.2346  0.3726
 3959TIP3    H111818   4.585   5.122   0.482  1.6730 -0.7767 -0.5380
 3959TIP3    H211819   4.608   5.146   0.335 -1.0426 -0.7874 -1.0175
 3960TIP3   OH211820   1.546   3.275   4.543 -0.3741 -0.2786 -0.0661
 3960TIP3    H111821   1.520   3.209   4.478 -1.3719 -1.9101  1.8931
 3960TIP3    H211822   1.551   3.357   4.493 -0.7389 -1.5140 -2.2537
 3961TIP3   OH211823   5.195   6.442   2.209 -0.2348  0.4796 -0.2622
 3961TIP3    H111824   5.178   6.536   2.219 -1.6784  0.1747  0.5067
 3961TIP3    H211825   5.111   6.406   2.181 -0.1075 -0.7856  0.8996
 3962TIP3   OH211826   3.952   5.323   6.571 -0.2593  0.1204 -0.0040
 3962TIP3    H111827   3.861   5.321   6.601 -0.3413  1.3579 -0.1066
 3962TIP3    H211828   3.956   5.257   6.503 -0.6964 -0.9978  1.0109
 3963TIP3   OH211829   6.036   2.740   0.729 -0.3686  0.1386 -0.0049
 3963TIP3    H111830   6.118   2.714   0.771 -0.6652  1.0194  1.1673
 3963TIP3    H211831   6.015   2.667   0.671  0.9209 -0.3779  0.1413
 3964TIP3   OH211832   0.806   4.555   2.260  0.2640  0.0393 -0.0112
 3964TIP3    H111833   0.819   4.502   2.181 -0.8735 -1.7738  0.9428
 3964TIP3    H211834   0.878   4.530   2.318  0.2318  0.2254  0.1107
 3965TIP3   OH211835   2.720   4.320   5.759 -0.2157  0.4386 -0.0028
 3965TIP3    H111836   2.797   4.299   5.707 -0.1688 -2.0343  0.9068
 3965TIP3    H211837   2.646   4.294   5.704 -0.2581  0.0410  0.2353
 3966TIP3   OH211838   1.919   1.887   0.031 -0.3530 -0.5048  0.0665
 3966TIP3    H111839   1.951   1.960   0.085 -0.1048 -0.1453 -0.5425
 3966TIP3    H211840   1.911   1.814   0.091  1.2884 -0.5073  0.3260
 3967TIP3   OH211841   2.792   1.980   5.604  0.9455  0.0635 -0.2888
 3967TIP3    H111842   2.826   1.961   5.691  1.9247 -0.1489 -0.6927
 3967TIP3    H211843   2.721   2.042   5.618  0.1298 -1.0748  0.7665
 3968TIP3   OH211844   3.691   5.433   6.132  0.0448  0.1341  0.1527
 3968TIP3    H111845   3.625   5.468   6.072  0.5474  0.5555 -0.1701
 3968TIP3    H211846   3.666   5.468   6.218 -0.4587 -0.1576  0.1274
 3969TIP3   OH211847   3.589   5.511   2.289 -0.3708  0.1902  0.3285
 3969TIP3    H111848   3.668   5.559   2.265 -1.9474  1.4468 -2.8953
 3969TIP3    H211849   3.595   5.429   2.241 -1.5865  0.9064 -1.1520
 3970TIP3   OH211850   5.687   5.692   3.337 -0.6655  0.0922 -0.2346
 3970TIP3    H111851   5.632   5.755   3.384  0.6993  0.1993  1.2876
 3970TIP3    H211852   5.700   5.621   3.400 -1.6766 -1.4649 -1.7114
 3971TIP3   OH211853   6.779   6.838   3.157  0.4905  0.3819  0.7153
 3971TIP3    H111854   6.805   6.757   3.201  0.9891 -0.2472 -0.6797
 3971TIP3    H211855   6.839   6.904   3.191  1.9811 -0.4389 -0.2165
 3972TIP3   OH211856   1.658   7.109   4.702  0.1300 -0.3563 -0.2441
 3972TIP3    H111857   1.666   7.203   4.715  0.0139 -0.3042 -0.5317
 3972TIP3    H211858   1.706   7.092   4.621  2.5907 -0.9738  1.2522
 3973TIP3   OH211859   5.369   3.742   6.185  0.2090 -0.0648  0.1728
 3973TIP3    H111860   5.329   3.731   6.098 -2.8416  0.0158  1.4173
 3973TIP3    H211861   5.317   3.811   6.226  1.8593  0.2011  1.9404
 3974TIP3   OH211862   1.666   7.642   5.821  0.3921 -0.5618 -0.0476
 3974TIP3    H111863   1.575   7.670   5.812 -0.2202 -2.1792  0.7753
 3974TIP3    H211864   1.715   7.702   5.764 -0.9930  1.1636  0.4827
 3975TIP3   OH211865   0.549   7.206   5.933 -0.0085 -0.0098 -0.0899
 3975TIP3    H111866   0.644   7.200   5.935 -0.0006 -1.4958 -2.0846
 3975TIP3    H211867   0.521   7.184   6.022  1.4321 -2.1001 -0.0938
 3976TIP3   OH211868   7.747   2.505   4.789 -0.0481  0.5945 -0.1104
 3976TIP3    H111869   7.804   2.525   4.715 -0.5740 -1.7581 -1.2266
 3976TIP3    H211870   7.804   2.514   4.866  1.3235  0.1785 -1.0422
 3977TIP3   OH211871   6.218   7.454   1.921 -0.1602  0.2683  0.4199
 3977TIP3    H111872   6.282   7.405   1.972  0.3029  0.3116 -0.0996
 3977TIP3    H211873   6.237   7.546   1.940 -1.0985  0.2654  1.4780
 3978TIP3   OH211874   6.217   3.444   3.215 -0.1037 -0.6518  0.1100
 3978TIP3    H111875   6.142   3.486   3.258  0.9268 -0.6120  1.9371
 3978TIP3    H211876   6.216   3.480   3.126  0.0567  2.4379  1.2229
 3979TIP3   OH211877   6.858   2.233   0.685 -0.1119  0.5252 -0.4153
 3979TIP3    H111878   6.879   2.325   0.668 -1.3593  0.7891 -0.5969
 3979TIP3    H211879   6.766   2.233   0.710 -0.3842 -0.7871 -1.3151
 3980TIP3   OH211880   6.744   3.997   0.303  0.1457 -0.4841 -0.4348
 3980TIP3    H111881   6.674   3.944   0.340 -0.5813 -0.7966 -2.1725
 3980TIP3    H211882   6.709   4.087   0.304  0.4108 -0.3756  0.2253
 3981TIP3   OH211883   3.645   2.917   5.907 -0.8723 -0.1143  0.5554
 3981TIP3    H111884   3.573   2.860   5.879  0.1071 -0.5682 -1.2224
 3981TIP3    H211885   3.602   2.996   5.939 -2.1736 -0.1401 -1.0035
 3982TIP3   OH211886   1.292   0.263   4.011  0.4182 -0.5571  0.0355
 3982TIP3    H111887   1.284   0.343   3.959 -1.0100 -2.0296 -2.2081
 3982TIP3    H211888   1.211   0.258   4.061  1.7340  0.7863  2.4562
 3983TIP3   OH211889   3.402   4.454   5.184 -0.0328  0.3225  0.7761
 3983TIP3    H111890   3.419   4.418   5.271  0.0932  0.7245  0.9191
 3983TIP3    H211891   3.426   4.546   5.191 -0.2509  0.4118  0.3821
 3984TIP3   OH211892   4.546   5.410   5.623  0.1952 -0.1972 -0.6776
 3984TIP3    H111893   4.638   5.428   5.600  1.1914 -1.7540  1.6550
 3984TIP3    H211894   4.549   5.324   5.665 -2.3133 -0.1268 -0.2206
 3985TIP3   OH211895   6.146   0.333   3.547  0.6543  0.2383 -0.5305
 3985TIP3    H111896   6.121   0.279   3.622 -0.7268 -1.6918 -2.2698
 3985TIP3    H211897   6.241   0.344   3.556  0.6343 -0.6165  1.0427
 3986TIP3   OH211898   7.597   0.425   5.572 -0.1097  0.6226 -0.4593
 3986TIP3    H111899   7.611   0.441   5.478 -1.0715  0.1641 -0.6906
 3986TIP3    H211900   7.629   0.504   5.615  3.1060 -0.2793 -0.9238
 3987TIP3   OH211901   6.455   2.296   1.519  0.0800  0.2894 -0.5442
 3987TIP3    H111902   6.492   2.261   1.439  0.6491  0.4996 -0.3764
 3987TIP3    H211903   6.374   2.246   1.532 -0.2837  0.6035 -1.5147
 3988TIP3   OH211904   0.689   3.560   2.015 -0.4918 -1.0022 -0.0509
 3988TIP3    H111905   0.743   3.524   1.945 -0.5489  0.3288 -0.8022
 3988TIP3    H211906   0.605   3.578   1.973 -0.5269 -0.1911  0.3546
 3989TIP3   OH211907   2.661   5.694   5.643  0.5481  0.0578  0.0243
 3989TIP3    H111908   2.714   5.654   5.574 -0.3151 -0.7746 -0.1893
 3989TIP3    H211909   2.584   5.728   5.597 -0.9630 -2.1773  0.7354
 3990TIP3   OH211910   3.783   6.953   0.515 -0.1544 -0.2582 -0.0414
 3990TIP3    H111911   3.855   6.980   0.459 -0.2529 -1.1615 -0.6221
 3990TIP3    H211912   3.796   7.003   0.596  0.9579 -0.1902 -0.2411
 3991TIP3   OH211913   2.645   7.569   6.033 -0.1993 -0.0124  0.3307
 3991TIP3    H111914   2.713   7.515   6.073  3.4088  2.9739 -1.1975
 3991TIP3    H211915   2.584   7.587   6.105 -0.4424 -4.0948  1.4015
 3992TIP3   OH211916   6.423   0.644   3.246 -0.0100 -0.0226  0.3239
 3992TIP3    H111917   6.413   0.552   3.271 -1.1404 -0.5917 -1.9331
 3992TIP3    H211918   6.355   0.690   3.295 -0.0459 -0.5383  0.7644
 3993TIP3   OH211919   1.774   0.996   0.641 -0.7623  0.0633  0.3992
 3993TIP3    H111920   1.801   0.943   0.565 -2.6484 -1.5474  0.7720
 3993TIP3    H211921   1.853   1.001   0.695  0.1784 -0.1072 -0.8964
 3994TIP3   OH211922   7.588   0.511   0.857 -0.3294 -0.1766 -0.5302
 3994TIP3    H111923   7.631   0.428   0.833 -0.5520 -0.0947 -1.2586
 3994TIP3    H211924   7.496   0.487   0.866 -0.1885 -0.2958  0.7441
 3995TIP3   OH211925   7.791   2.032   2.069 -0.0319 -0.3491 -0.0852
 3995TIP3    H111926   7.827   2.065   1.987  0.4924 -0.3196  0.1522
 3995TIP3    H211927   7.713   2.086   2.084  1.0757  1.1395  0.5394
 3996TIP3   OH211928   6.583   2.310   0.729 -1.0366 -0.6278 -0.6331
 3996TIP3    H111929   6.568   2.233   0.785  0.4626 -0.7716 -0.3968
 3996TIP3    H211930   6.543   2.382   0.777 -1.0605 -1.0042 -0.0790
 3997TIP3   OH211931   5.710   5.785   0.280 -0.1623  0.2679  0.1793
 3997TIP3    H111932   5.665   5.750   0.357 -1.3832  1.2030 -0.0772
 3997TIP3    H211933   5.772   5.716   0.255 -1.7527 -1.2577  0.2931
 3998TIP3   OH211934   0.176   6.450   4.857 -0.7969 -0.2788 -0.1000
 3998TIP3    H111935   0.220   6.531   4.884 -0.6062 -0.5798  0.5173
 3998TIP3    H211936   0.108   6.436   4.923 -0.7895 -0.6506 -0.1675
 3999TIP3   OH211937   7.448   2.174   4.542  0.1110 -0.4678  0.0620
 3999TIP3    H111938   7.411   2.240   4.483  1.4928 -0.1252 -0.4427
 3999TIP3    H211939   7.483   2.106   4.484  0.9433 -0.4162  0.4878
 4000TIP3   OH211940   4.452   2.387   1.822  0.0700  0.2199  0.2011
 4000TIP3    H111941   4.443   2.339   1.904  2.3990 -0.2904  0.2107
 4000TIP3    H211942   4.374   2.363   1.771 -0.1294 -1.4930  1.2455
 4001TIP3   OH211943   1.204   1.457   2.243 -0.1574  0.5002 -0.5111
 4001TIP3    H111944   1.182   1.481   2.333 -0.8636  0.0459 -0.5532
 4001TIP3    H211945   1.263   1.527   2.213 -1.9653  2.0829 -0.5583
 4002TIP3   OH211946   6.503   2.676   6.808  0.4987  0.2575 -0.9316
 4002TIP3    H111947   6.569   2.745   6.814  0.8515 -0.0653 -1.0546
 4002TIP3    H211948   6.550   2.596   6.831  0.0263  0.0925 -0.5230
 4003TIP3   OH211949   1.021   2.082   5.987 -0.3305 -0.0338  0.6397
 4003TIP3    H111950   1.101   2.099   5.937 -0.3447 -1.1788  0.1972
 4003TIP3    H211951   0.990   2.169   6.014  0.0054  0.5705 -0.8378
 4004TIP3   OH211952   5.139   5.201   4.637 -0.2694  0.2265  0.3463
 4004TIP3    H111953   5.091   5.257   4.575  0.8460  0.4307 -0.3588
 4004TIP3    H211954   5.188   5.262   4.692  1.4418 -0.0271 -0.8280
 4005TIP3   OH211955   4.540   5.989   3.050 -0.3084 -0.0883 -0.3458
 4005TIP3    H111956   4.467   5.968   3.108  0.0239 -0.0737  0.0811
 4005TIP3    H211957   4.509   6.065   2.999 -0.4615  0.1327  0.0721
 4006TIP3   OH211958   2.377   2.141   6.796 -0.4435 -0.0932 -0.4214
 4006TIP3    H111959   2.342   2.209   6.739  2.2479  0.1631 -1.9750
 4006TIP3    H211960   2.429   2.189   6.860 -1.3283 -0.5398  0.6576
 4007TIP3   OH211961   7.733   5.117   4.225 -0.5211 -0.4886  0.1256
 4007TIP3    H111962   7.730   5.198   4.276 -1.1285  0.4603 -1.3347
 4007TIP3    H211963   7.724   5.047   4.289  0.3845  0.5809  1.4679
 4008TIP3   OH211964   5.253   2.503   0.726 -0.2478 -0.3222 -0.1220
 4008TIP3    H111965   5.271   2.541   0.812  0.2199 -1.1725  0.1679
 4008TIP3    H211966   5.159   2.486   0.726  0.1763 -3.2880  1.5065
 4009TIP3   OH211967   4.931   3.126   2.342 -0.4483 -0.0729 -0.4775
 4009TIP3    H111968   4.839   3.114   2.320 -0.9749 -0.4810  1.7209
 4009TIP3    H211969   4.930   3.164   2.430  1.4803  0.2107 -0.5358
 4010TIP3   OH211970   1.301   1.870   3.759 -0.1242 -0.1479 -0.1443
 4010TIP3    H111971   1.329   1.797   3.704  0.8711 -0.5082  0.8136
 4010TIP3    H211972   1.221   1.838   3.801  0.7426 -1.0313  0.8917
 4011TIP3   OH211973   6.130   4.014   1.381  0.4489  0.0966  0.2271
 4011TIP3    H111974   6.206   3.974   1.339 -0.2808  1.1883 -2.2705
 4011TIP3    H211975   6.108   3.953   1.452  1.2239 -2.3182 -1.4871
 4012TIP3   OH211976   6.181   1.159   1.259  0.1007 -0.5005 -0.0516
 4012TIP3    H111977   6.272   1.184   1.278 -0.0972  1.1913 -1.1008
 4012TIP3    H211978   6.177   1.158   1.163 -0.6814 -1.8408 -0.0233
 4013TIP3   OH211979   5.715   5.814   2.360 -0.3322  0.2003 -0.8028
 4013TIP3    H111980   5.719   5.889   2.420 -0.7492 -1.3649  1.2809
 4013TIP3    H211981   5.622   5.798   2.346 -0.2431  0.4046 -1.7339
 4014TIP3   OH211982   0.765   3.837   0.505  0.3701 -0.0425 -0.4827
 4014TIP3    H111983   0.715   3.889   0.443 -0.2529 -1.0234 -0.8219
 4014TIP3    H211984   0.712   3.759   0.520 -0.1849  0.7775  2.3647
 4015TIP3   OH211985   1.369   1.498   3.206  0.5606  0.4926  0.1346
 4015TIP3    H111986   1.442   1.560   3.208 -0.8751  2.2789 -0.4440
 4015TIP3    H211987   1.341   1.496   3.115 -1.0730  1.0828  0.5747
 4016TIP3   OH211988   1.285   3.110   2.869  0.0963 -0.5646 -0.0152
 4016TIP3    H111989   1.231   3.168   2.815  1.2817  0.2315 -0.3918
 4016TIP3    H211990   1.286   3.027   2.823 -1.6595 -0.9434  0.5475
 4017TIP3   OH211991   6.679   4.141   2.135 -0.7474 -0.2884  0.5292
 4017TIP3    H111992   6.641   4.198   2.202 -5.3537 -1.5052 -0.7030
 4017TIP3    H211993   6.656   4.183   2.052  3.7081  0.5229 -0.5701
 4018TIP3   OH211994   3.513   2.156   5.935 -0.4426 -0.2023  0.7003
 4018TIP3    H111995   3.439   2.112   5.978 -1.1574 -0.0007 -0.2780
 4018TIP3    H211996   3.522   2.110   5.851  2.5931 -2.3221  2.0231
 4019TIP3   OH211997   8.322   1.064   2.548 -0.2720  0.0786  0.0126
 4019TIP3    H111998   8.382   1.097   2.481 -0.6231 -1.4483 -1.1102
 4019TIP3    H211999   8.346   1.112   2.627  1.7905  0.2050 -0.6307
 4020TIP3   OH212000   2.615   7.070   4.216  0.3091 -0.4488  0.4976
 4020TIP3    H112001   2.536   7.016   4.204  0.8964 -1.4850  1.1301
 4020TIP3    H212002   2.581   7.156   4.239 -0.6620 -0.9514  1.0613
 4021TIP3   OH212003   1.400   3.560   3.415  0.0386  0.0990 -0.0005
 4021TIP3    H112004   1.419   3.484   3.361 -1.1456 -0.3327  0.1477
 4021TIP3    H212005   1.464   3.626   3.388  1.2214 -0.9987  0.0101
 4022TIP3   OH212006   0.339   4.058   3.654  0.4018  0.2912  0.4001
 4022TIP3    H112007   0.256   4.021   3.626  0.1010  2.0628 -1.2579
 4022TIP3    H212008   0.401   3.985   3.648 -0.7598 -0.7343  0.4235
 4023TIP3   OH212009   7.276   4.482   4.038  0.2684  0.3170  0.0441
 4023TIP3    H112010   7.252   4.556   3.983  0.3237 -0.6608 -1.3636
 4023TIP3    H212011   7.194   4.436   4.054  0.2541  0.5928  0.7832
 4024TIP3   OH212012   3.715   5.902   1.513 -0.4011 -0.6059  0.5066
 4024TIP3    H112013   3.734   5.821   1.559  3.1603 -0.2170 -0.0159
 4024TIP3    H212014   3.748   5.971   1.571  0.7124  0.1203 -0.9241
 4025TIP3   OH212015   6.115   6.917   1.289 -0.2578 -0.2946 -0.3093
 4025TIP3    H112016   6.052   6.970   1.338  1.5223  0.1547  1.6512
 4025TIP3    H212017   6.075   6.830   1.283 -0.7967 -0.2106  1.5211
 4026TIP3   OH212018   3.156   3.420   1.353  0.3042 -0.4563 -0.2359
 4026TIP3    H112019   3.197   3.342   1.316  1.2722 -0.0748  0.0009
 4026TIP3    H212020   3.091   3.386   1.414 -0.1839 -1.0738 -1.0814
 4027TIP3   OH212021   1.667   2.383   3.014  0.0047  0.0548 -0.0784
 4027TIP3    H112022   1.654   2.288   3.021  0.4688 -0.0239 -0.2475
 4027TIP3    H212023   1.758   2.397   3.040  0.3410  0.2987 -1.2849
 4028TIP3   OH212024   2.923   2.574   5.493  0.0235 -0.2375  0.1610
 4028TIP3    H112025   2.901   2.506   5.557  2.5134  0.3055  1.7694
 4028TIP3    H212026   2.840   2.618   5.474 -1.4223 -2.8421  0.0703
 4029TIP3   OH212027   7.785   1.726   2.410  0.9576 -0.0114  0.4123
 4029TIP3    H112028   7.796   1.809   2.457  2.3392 -0.7081  1.3717
 4029TIP3    H212029   7.873   1.690   2.404  0.4160 -1.2831 -0.2535
 4030TIP3   OH212030   6.427   3.804   6.679  0.2833  0.2988 -0.0953
 4030TIP3    H112031   6.377   3.792   6.760  0.6189  2.6960  0.5512
 4030TIP3    H212032   6.364   3.788   6.609 -0.0073 -1.8509  0.5713
 4031TIP3   OH212033   7.400   1.740   2.747  0.0490 -0.0251  0.3939
 4031TIP3    H112034   7.399   1.648   2.774  1.3867 -0.3163 -0.4679
 4031TIP3    H212035   7.394   1.737   2.652  1.2939  0.7051  0.2650
 4032TIP3   OH212036   8.128   2.365   1.872  0.4976 -0.8981 -0.2413
 4032TIP3    H112037   8.189   2.375   1.945 -0.1731 -0.4489  0.2721
 4032TIP3    H212038   8.141   2.442   1.818 -0.2371 -0.3391  0.3540
 4033TIP3   OH212039   2.310   5.894   3.385 -0.2820  0.1348 -0.1093
 4033TIP3    H112040   2.260   5.975   3.375 -1.1900 -0.0197  2.4289
 4033TIP3    H212041   2.289   5.864   3.474  1.0765 -2.1808 -0.4949
 4034TIP3   OH212042   1.451   3.246   4.821 -0.5434 -0.0799  0.1565
 4034TIP3    H112043   1.441   3.332   4.863 -1.1225 -0.5013  0.9179
 4034TIP3    H212044   1.502   3.264   4.743  3.2482  0.3281  2.4829
 4035TIP3   OH212045   6.743   4.299   4.729  0.3270 -0.3029  0.0675
 4035TIP3    H112046   6.648   4.286   4.727  0.4729 -1.4379 -0.4173
 4035TIP3    H212047   6.755   4.388   4.760 -0.9169 -0.0174 -0.2328
 4036TIP3   OH212048   4.165   6.350   3.345  0.1608 -0.1825  0.2054
 4036TIP3    H112049   4.181   6.281   3.282 -0.7813  0.4168 -0.7345
 4036TIP3    H212050   4.173   6.431   3.294 -0.2435  0.3309  0.9400
 4037TIP3   OH212051   1.696   5.536   2.251 -0.1731 -0.2981  0.0076
 4037TIP3    H112052   1.740   5.617   2.228 -0.8745 -0.2899 -1.3995
 4037TIP3    H212053   1.764   5.482   2.291  0.4147  0.7814  0.5102
 4038TIP3   OH212054   8.213   1.813   5.292 -0.2059 -0.3818  0.3177
 4038TIP3    H112055   8.219   1.769   5.207  2.1733  1.0970 -0.3812
 4038TIP3    H212056   8.213   1.742   5.356  1.8115 -1.4799 -0.8130
 4039TIP3   OH212057   7.341   3.657   4.113  0.3290  0.2731  0.0104
 4039TIP3    H112058   7.333   3.745   4.150 -0.5456  0.2150 -0.0326
 4039TIP3    H212059   7.334   3.670   4.018 -1.4649  0.0020  0.0708
 4040TIP3   OH212060   7.698   6.185   4.058 -0.4097 -0.3618 -0.2536
 4040TIP3    H112061   7.696   6.149   3.969  0.4246 -0.3960 -0.2697
 4040TIP3    H212062   7.707   6.280   4.045 -0.0653 -0.3852 -0.2160
 4041TIP3   OH212063   0.301   7.274   1.621 -0.2009 -0.3057 -0.3492
 4041TIP3    H112064   0.294   7.353   1.567 -0.5584  0.6053  0.9578
 4041TIP3    H212065   0.392   7.273   1.649 -0.6090  0.8102  1.2198
 4042TIP3   OH212066   1.650   6.094   3.928  0.1113 -0.4301 -0.0841
 4042TIP3    H112067   1.666   6.037   3.853  0.3541  0.2272 -0.5429
 4042TIP3    H212068   1.708   6.169   3.914 -0.1113 -0.1288  0.5716
 4043TIP3   OH212069   2.479   0.367   6.689  0.4504 -0.1228 -0.1543
 4043TIP3    H112070   2.413   0.398   6.751  1.5357 -0.6587  1.3059
 4043TIP3    H212071   2.429   0.314   6.626 -0.3304 -1.8597  1.8262
 4044TIP3   OH212072   2.175   6.945   3.239  0.0352  0.1348  0.1980
 4044TIP3    H112073   2.105   6.955   3.174  0.8708  0.4113 -0.6917
 4044TIP3    H212074   2.254   6.978   3.194  0.5226  0.9327  1.5832
 4045TIP3   OH212075   3.867   5.600   5.375 -0.3694  0.0717  0.1359
 4045TIP3    H112076   3.917   5.641   5.305  1.0574  0.4574  1.3297
 4045TIP3    H212077   3.868   5.664   5.447 -0.1109 -1.0658  1.1872
 4046TIP3   OH212078   6.427   0.496   3.967  0.3025 -0.1651  0.3052
 4046TIP3    H112079   6.488   0.552   4.015  0.7071 -0.4962  0.1815
 4046TIP3    H212080   6.341   0.518   4.003  0.2890  1.4682 -0.6242
 4047TIP3   OH212081   2.805   5.512   2.020 -0.0290  0.1632  0.0260
 4047TIP3    H112082   2.888   5.558   2.033  0.7225 -0.9425 -0.7680
 4047TIP3    H212083   2.749   5.543   2.092  2.2967 -1.8747  2.9649
 4048TIP3   OH212084   6.748   7.349   5.848  0.0316  0.5280 -0.2951
 4048TIP3    H112085   6.761   7.444   5.849 -1.0633  0.7180 -1.4860
 4048TIP3    H212086   6.694   7.331   5.925 -0.3403  0.9627 -0.4549
 4049TIP3   OH212087   1.728   3.221   1.698 -0.5321 -0.3043  0.5965
 4049TIP3    H112088   1.701   3.138   1.659  2.5069 -1.0676 -0.1504
 4049TIP3    H212089   1.789   3.197   1.768  0.4627  1.2542  0.3218
 4050TIP3   OH212090   1.033   6.793   4.142 -0.6956  0.4050  0.0792
 4050TIP3    H112091   0.986   6.712   4.123 -1.2978  0.3274  1.6887
 4050TIP3    H212092   1.102   6.766   4.203 -1.1448  1.1396  0.9294
 4051TIP3   OH212093   4.801   2.654   5.604 -0.2813 -0.1987 -0.3167
 4051TIP3    H112094   4.748   2.575   5.606 -0.5683 -0.0386 -1.0994
 4051TIP3    H212095   4.813   2.678   5.695  0.8252 -1.8135  0.0149
 4052TIP3   OH212096   7.135   7.532   6.347  0.5125 -0.4222 -0.3061
 4052TIP3    H112097   7.216   7.527   6.297  0.5345 -2.0770 -0.1487
 4052TIP3    H212098   7.105   7.441   6.355  0.7782 -0.3370  3.1157
 4053TIP3   OH212099   3.753   6.700   1.853  0.0498  0.6392 -0.4615
 4053TIP3    H112100   3.830   6.668   1.899 -1.4202 -0.8992  1.0417
 4053TIP3    H212101   3.679   6.672   1.906 -1.5331  3.6335 -0.8624
 4054TIP3   OH212102   7.182   0.663   1.506 -0.0263 -0.1367 -0.7726
 4054TIP3    H112103   7.224   0.681   1.590  0.1336 -0.7702 -0.7080
 4054TIP3    H212104   7.254   0.663   1.443  0.2101 -1.8858 -0.5652
 4055TIP3   OH212105   5.778   3.092   0.825  0.3793 -0.6933 -0.5396
 4055TIP3    H112106   5.854   3.071   0.771 -2.4111 -0.9250 -4.9096
 4055TIP3    H212107   5.730   3.009   0.832 -0.4456 -0.1591  0.4450
 4056TIP3   OH212108   6.956   5.495   2.970 -0.3599 -0.1762  0.7204
 4056TIP3    H112109   6.932   5.450   3.051 -0.7379 -1.1206  0.0934
 4056TIP3    H212110   6.969   5.425   2.906 -2.2427  0.6377 -0.6392
 4057TIP3   OH212111   0.981   0.839   3.329  0.2315  0.0400  0.0255
 4057TIP3    H112112   1.059   0.840   3.274 -0.9477 -0.6212 -1.7427
 4057TIP3    H212113   0.929   0.766   3.296 -2.1957  1.8434 -0.4264
 4058TIP3   OH212114   6.582   0.726   3.653  0.6252  0.3643 -0.2811
 4058TIP3    H112115   6.647   0.784   3.614 -0.1514  2.0405  0.8155
 4058TIP3    H212116   6.628   0.682   3.724  0.6406  1.4374  0.3980
 4059TIP3   OH212117   2.511   5.789   2.751  0.3851  0.2767  0.0096
 4059TIP3    H112118   2.560   5.721   2.797  0.1768  0.0196 -0.1460
 4059TIP3    H212119   2.441   5.812   2.812 -0.7985 -1.1290 -0.7601
 4060TIP3   OH212120   3.636   7.735   0.813 -0.0267  0.6823 -0.0466
 4060TIP3    H112121   3.595   7.737   0.726  0.6383 -1.5034 -0.4635
 4060TIP3    H212122   3.594   7.661   0.857  1.1344  0.4554  0.7064
 4061TIP3   OH212123   6.975   1.107   3.198 -0.1819  0.3079 -0.2975
 4061TIP3    H112124   7.038   1.057   3.249 -0.5039  1.7066  1.5735
 4061TIP3    H212125   6.897   1.052   3.194 -0.0496  0.0556  0.4838
 4062TIP3   OH212126   1.657   5.523   6.752  0.3740 -0.1192 -0.0099
 4062TIP3    H112127   1.674   5.602   6.701  1.2383  0.6059  1.3225
 4062TIP3    H212128   1.681   5.548   6.842 -1.1213 -1.3182  0.7582
 4063TIP3   OH212129   1.315   6.249   2.730 -0.1556  0.2317 -0.3402
 4063TIP3    H112130   1.238   6.296   2.699 -0.3894 -1.3507 -2.3947
 4063TIP3    H212131   1.299   6.236   2.824 -1.1917  2.0484 -0.2195
 4064TIP3   OH212132   2.183   4.904   0.761 -0.3029  0.4701 -0.0720
 4064TIP3    H112133   2.226   4.827   0.723 -0.3388  0.0515  0.7148
 4064TIP3    H212134   2.184   4.969   0.691 -1.5799 -0.7255 -1.2458
 4065TIP3   OH212135   6.208   3.794   1.525  0.6197  0.2279  0.4123
 4065TIP3    H112136   6.176   3.805   1.615 -0.9310 -1.8319  0.1821
 4065TIP3    H212137   6.302   3.779   1.536  0.6191  0.9246  1.6118
 4066TIP3   OH212138   2.301   2.239   3.460 -0.5432  0.0202  0.4431
 4066TIP3    H112139   2.329   2.240   3.552 -1.3792 -0.2113  0.7083
 4066TIP3    H212140   2.377   2.206   3.412  0.6201  2.0006  0.7942
 4067TIP3   OH212141   2.993   2.042   0.412  0.3842 -0.0262  0.1314
 4067TIP3    H112142   3.002   2.107   0.481  0.3066  1.0196 -0.8063
 4067TIP3    H212143   2.991   2.093   0.331 -0.9723 -1.1039 -0.5582
 4068TIP3   OH212144   6.538   1.159   3.877 -0.2226  0.2337  0.2097
 4068TIP3    H112145   6.474   1.186   3.942 -2.3529  1.2902 -2.1342
 4068TIP3    H212146   6.576   1.241   3.845 -2.0809  0.1780 -2.4873
 4069TIP3   OH212147   4.207   5.634   4.817 -0.0123 -0.2850 -0.4847
 4069TIP3    H112148   4.174   5.576   4.886  0.0159  0.4981  0.2027
 4069TIP3    H212149   4.278   5.584   4.776  1.2064 -0.0912  1.2597
 4070TIP3   OH212150   7.294   7.306   6.555  0.2654 -0.0806 -0.9237
 4070TIP3    H112151   7.336   7.242   6.498 -0.7069  1.0001 -2.9369
 4070TIP3    H212152   7.346   7.386   6.545  1.8380 -0.6201  2.0326
 4071TIP3   OH212153   0.546   6.654   6.209  0.0676 -0.1753  0.1015
 4071TIP3    H112154   0.610   6.690   6.269 -0.0706 -1.0045  0.7646
 4071TIP3    H212155   0.579   6.567   6.188 -0.9329 -0.7079  0.6345
 4072TIP3   OH212156   2.445   1.410   3.476 -0.5770 -0.1590  0.1644
 4072TIP3    H112157   2.439   1.355   3.398  2.6406 -1.1299  0.4313
 4072TIP3    H212158   2.388   1.368   3.540 -0.3758 -1.5705 -0.5411
 4073TIP3   OH212159   6.383   3.986   3.115  0.4026  0.8977  0.0640
 4073TIP3    H112160   6.405   4.079   3.119 -0.3121  1.0619  0.2973
 4073TIP3    H212161   6.455   3.947   3.065  0.5849  1.6131 -0.2533
 4074TIP3   OH212162   6.310   6.564   5.831  0.8693  0.5193 -0.0204
 4074TIP3    H112163   6.311   6.579   5.925  0.8529  1.8846 -0.2170
 4074TIP3    H212164   6.271   6.477   5.820 -0.9610  1.1361  1.1334
 4075TIP3   OH212165   7.140   4.657   1.156  1.1140 -0.2663  0.1325
 4075TIP3    H112166   7.054   4.693   1.178  0.8173 -0.2122 -1.0313
 4075TIP3    H212167   7.202   4.722   1.189  0.6401  0.4880 -0.4143
 4076TIP3   OH212168   1.872   2.360   6.150 -0.0558 -0.1054 -0.1293
 4076TIP3    H112169   1.888   2.434   6.209  0.2297 -0.2020 -0.0847
 4076TIP3    H212170   1.934   2.372   6.078  1.0922 -1.1348  0.6484
 4077TIP3   OH212171   1.317   5.989   0.133  0.2506  0.1413 -0.3367
 4077TIP3    H112172   1.296   6.063   0.076  0.7498 -1.2544 -2.4070
 4077TIP3    H212173   1.240   5.933   0.131 -0.0689  0.4912  1.1071
 4078TIP3   OH212174   2.486   5.305   1.658  0.3718 -0.2793 -0.4932
 4078TIP3    H112175   2.542   5.313   1.736 -0.2295 -1.3891  0.0651
 4078TIP3    H212176   2.539   5.254   1.597  1.7429  2.3749 -1.7295
 4079TIP3   OH212177   7.831   6.555   3.051  0.1867  0.5109 -0.7156
 4079TIP3    H112178   7.747   6.601   3.057 -0.6608 -0.9387 -0.8092
 4079TIP3    H212179   7.894   6.622   3.025 -1.0011  1.5672 -0.9614
 4080TIP3   OH212180   5.008   0.536   5.173  0.3532  0.2481 -0.0247
 4080TIP3    H112181   5.087   0.568   5.130 -0.6344  1.2930 -1.1291
 4080TIP3    H212182   5.010   0.441   5.159  2.0042  0.0852  1.0325
 4081TIP3   OH212183   6.596   3.286   1.339 -0.1790 -0.2849 -0.2200
 4081TIP3    H112184   6.531   3.288   1.410 -0.0384 -0.1141 -0.0947
 4081TIP3    H212185   6.623   3.194   1.334 -0.2777 -0.3195 -0.1327
 4082TIP3   OH212186   4.622   4.406   3.725  0.2077 -0.1599 -0.4515
 4082TIP3    H112187   4.593   4.441   3.640 -0.0141  1.2405  0.1789
 4082TIP3    H212188   4.713   4.434   3.733 -0.1072  0.7153  0.2606
 4083TIP3   OH212189   4.384   5.234   4.137 -0.3754  0.0461 -0.1183
 4083TIP3    H112190   4.367   5.140   4.143 -0.9623  0.0746 -1.2264
 4083TIP3    H212191   4.336   5.272   4.211  0.0222 -0.5362  0.4474
 4084TIP3   OH212192   3.768   1.049   4.248  0.4373 -0.1046  0.4045
 4084TIP3    H112193   3.776   0.981   4.315  1.3563  1.2243  1.7070
 4084TIP3    H212194   3.681   1.086   4.263  0.3411 -0.3114  0.3654
 4085TIP3   OH212195   5.911   5.683   2.208 -0.5469  0.0561 -0.5866
 4085TIP3    H112196   5.841   5.737   2.243 -0.4338  0.7446 -1.3775
 4085TIP3    H212197   5.976   5.746   2.177 -0.3969 -0.5284 -1.4933
 4086TIP3   OH212198   2.119   1.221   4.464 -0.5564  0.1691  0.0883
 4086TIP3    H112199   2.030   1.212   4.500 -1.0270  0.0504 -1.0703
 4086TIP3    H212200   2.114   1.299   4.408 -0.1801 -0.3703 -0.7083
 4087TIP3   OH212201   0.708   0.746   0.606  0.2727  0.2153  0.0658
 4087TIP3    H112202   0.797   0.778   0.592 -0.3057  1.1386 -1.8769
 4087TIP3    H212203   0.652   0.821   0.586 -0.9980 -0.8356 -0.4602
 4088TIP3   OH212204   3.367   1.561   3.316  0.2638 -0.4553 -0.1103
 4088TIP3    H112205   3.375   1.492   3.250  1.1322  0.1816 -0.6891
 4088TIP3    H212206   3.443   1.549   3.373 -0.1585 -0.6298  0.4275
 4089TIP3   OH212207   2.060   3.082   5.584  0.6319 -0.2300  0.2321
 4089TIP3    H112208   2.107   3.000   5.598  0.7268 -0.2424 -0.1533
 4089TIP3    H212209   2.056   3.122   5.671  1.6591 -0.0589  0.2094
 4090TIP3   OH212210   5.917   4.781   4.845  0.0523  0.8511  0.2608
 4090TIP3    H112211   5.908   4.753   4.936 -0.2474  0.2348  0.0450
 4090TIP3    H212212   5.984   4.849   4.848  0.4406  0.4573  0.8675
 4091TIP3   OH212213   6.939   3.002   2.703  0.6284 -0.6867  0.1566
 4091TIP3    H112214   6.915   2.927   2.648 -0.7841 -1.9792  2.4013
 4091TIP3    H212215   6.866   3.063   2.694  0.6156 -0.6910  0.2307
 4092TIP3   OH212216   1.536   3.537   3.710  0.2825  0.1678  0.3738
 4092TIP3    H112217   1.593   3.510   3.638  1.6441  0.5170  1.2948
 4092TIP3    H212218   1.459   3.481   3.701  0.9855 -0.6933 -0.5794
 4093TIP3   OH212219   0.466   3.276   0.810  0.4543  0.0155 -0.2587
 4093TIP3    H112220   0.553   3.235   0.805  0.8866  0.9341 -0.4760
 4093TIP3    H212221   0.481   3.357   0.858 -0.1927  0.4379 -0.7565
 4094TIP3   OH212222   1.706   1.366   5.413  0.0457 -0.3605 -0.4241
 4094TIP3    H112223   1.629   1.325   5.374 -0.5683  0.5312 -0.1750
 4094TIP3    H212224   1.736   1.303   5.479 -1.4506 -0.0270  0.6258
 4095TIP3   OH212225   7.526   7.702   5.062  0.7180 -0.2042  0.2385
 4095TIP3    H112226   7.600   7.734   5.010  0.3707 -0.4082 -0.3935
 4095TIP3    H212227   7.471   7.779   5.076  0.0234 -0.4478 -1.0435
 4096TIP3   OH212228   4.734   5.663   2.731 -0.4709 -0.2319 -0.4357
 4096TIP3    H112229   4.752   5.646   2.639  0.1419 -0.8837 -0.2072
 4096TIP3    H212230   4.696   5.751   2.733 -1.1608 -0.5008 -1.3827
 4097TIP3   OH212231   1.597   5.194   0.313  0.5257  0.4985  0.1578
 4097TIP3    H112232   1.606   5.119   0.255  1.3476 -0.8292  1.9227
 4097TIP3    H212233   1.546   5.257   0.262  0.3889 -0.9657 -1.6255
 4098TIP3   OH212234   6.532   6.394   5.536  0.0620 -0.3131 -0.1005
 4098TIP3    H112235   6.615   6.399   5.488  0.9382  1.5495  1.4704
 4098TIP3    H212236   6.555   6.346   5.616 -0.7349 -1.0126 -0.2813
 4099TIP3   OH212237   7.361   4.843   4.197  0.2840 -0.1563  0.3787
 4099TIP3    H112238   7.433   4.892   4.156  1.3758 -1.9853 -0.0030
 4099TIP3    H212239   7.291   4.907   4.205  0.5219  0.7231 -2.9740
 4100TIP3   OH212240   1.936   1.087   2.813 -0.2235 -0.0847 -0.7231
 4100TIP3    H112241   1.858   1.106   2.866  0.4767 -0.3189  0.4386
 4100TIP3    H212242   1.951   0.994   2.826  1.1588  0.2541  0.3884
 4101TIP3   OH212243   7.794   3.975   4.075  0.3184  0.3047 -0.1045
 4101TIP3    H112244   7.863   3.920   4.037  1.2233 -0.6946  2.7001
 4101TIP3    H212245   7.715   3.921   4.069  0.0009  0.8901 -2.0502
 4102TIP3   OH212246   2.130   3.689   1.209 -0.3702 -0.0089  0.0591
 4102TIP3    H112247   2.200   3.637   1.247  1.8828  1.0808 -2.3089
 4102TIP3    H212248   2.082   3.724   1.284  1.1224 -1.4090  1.7474
 4103TIP3   OH212249   8.063   5.338   3.431  0.4311 -0.4099  0.6960
 4103TIP3    H112250   8.131   5.300   3.486  0.7136 -0.3108  0.4169
 4103TIP3    H212251   7.983   5.290   3.455  0.3689  0.2298  1.8285
 4104TIP3   OH212252   5.047   6.166   0.740 -0.0886 -0.1207  0.0254
 4104TIP3    H112253   5.124   6.112   0.726 -0.3512 -0.5015  0.0142
 4104TIP3    H212254   5.041   6.220   0.661  1.1388  1.1594  0.7676
 4105TIP3   OH212255   4.221   2.537   5.315 -0.2695  0.0795 -0.4162
 4105TIP3    H112256   4.178   2.622   5.325 -1.2846 -0.5533  1.0148
 4105TIP3    H212257   4.162   2.475   5.358  1.1411 -1.1484 -0.1515
 4106TIP3   OH212258   0.689   2.317   0.479 -0.8422 -0.2649 -0.1163
 4106TIP3    H112259   0.707   2.396   0.429  0.2412 -0.5168 -0.1568
 4106TIP3    H212260   0.776   2.284   0.504 -1.2934 -1.1568  0.3337
 4107TIP3   OH212261   7.852   4.101   2.777  0.5365  0.1794  0.3515
 4107TIP3    H112262   7.881   4.182   2.818 -0.7491  0.5413  0.5874
 4107TIP3    H212263   7.822   4.128   2.690 -2.1678  0.4262  1.2688
 4108TIP3   OH212264   2.410   0.542   1.783 -0.6711 -0.2861 -0.6244
 4108TIP3    H112265   2.341   0.602   1.810  1.5979  3.4166 -2.3031
 4108TIP3    H212266   2.384   0.513   1.696 -1.0650 -0.5315 -0.4256
 4109TIP3   OH212267   6.851   1.320   5.949  0.0424  0.3042 -0.0053
 4109TIP3    H112268   6.836   1.262   5.875 -0.8675  0.7043 -0.1477
 4109TIP3    H212269   6.808   1.278   6.023 -0.1294  0.5101  0.0147
 4110TIP3   OH212270   0.455   4.692   4.305  0.4376  0.5763  0.3760
 4110TIP3    H112271   0.510   4.763   4.272  0.2928  0.5896  0.1607
 4110TIP3    H212272   0.503   4.612   4.281  1.1896  0.6108  1.6448
 4111TIP3   OH212273   0.134   3.126   3.330  0.3962 -0.3943  0.1616
 4111TIP3    H112274   0.155   3.155   3.241  1.0143  0.9684  0.7099
 4111TIP3    H212275   0.201   3.168   3.385 -1.2069  0.5594  1.4954
 4112TIP3   OH212276   6.918   7.341   2.706  0.3197 -1.1534 -0.0705
 4112TIP3    H112277   6.946   7.417   2.656  0.1116 -1.3433 -0.4767
 4112TIP3    H212278   6.874   7.285   2.643 -1.7724 -0.4775  0.6889
 4113TIP3   OH212279   5.761   6.524   0.256 -0.5198 -0.6163 -0.2294
 4113TIP3    H112280   5.803   6.473   0.187 -2.5575 -1.9194 -0.5801
 4113TIP3    H212281   5.766   6.469   0.334  0.2331  0.1131  0.2534
 4114TIP3   OH212282   3.921   7.366   0.092  0.2682 -1.1864  0.3857
 4114TIP3    H112283   4.012   7.396   0.101  0.6292 -1.6423 -1.3302
 4114TIP3    H212284   3.877   7.398   0.170  1.6074  0.1763  0.6206
 4115TIP3   OH212285   5.275   6.558   4.843 -0.0833 -0.0589 -0.2960
 4115TIP3    H112286   5.265   6.653   4.838 -0.8040 -0.0940  0.3710
 4115TIP3    H212287   5.354   6.545   4.895  1.6795  0.1770 -2.7092
 4116TIP3   OH212288   1.384   4.878   5.553  0.0557  0.0977 -0.4674
 4116TIP3    H112289   1.326   4.847   5.622  0.9169 -1.6139 -0.4751
 4116TIP3    H212290   1.382   4.974   5.562 -1.4607 -0.0008  0.5713
 4117TIP3   OH212291   6.302   6.331   1.507  0.1094 -0.6584  0.5983
 4117TIP3    H112292   6.247   6.339   1.584  0.0818 -1.1966  0.6376
 4117TIP3    H212293   6.276   6.404   1.451  1.3031  0.7663  1.8088
 4118TIP3   OH212294   3.582   0.812   2.262 -0.5130 -0.1447 -0.0501
 4118TIP3    H112295   3.522   0.738   2.250  0.8680 -1.6439  1.6911
 4118TIP3    H212296   3.542   0.864   2.332 -1.3053  0.6119 -1.0331
 4119TIP3   OH212297   3.785   0.379   3.015  0.1662 -0.1648  0.6335
 4119TIP3    H112298   3.860   0.329   2.986  0.5018 -0.7564  2.4230
 4119TIP3    H212299   3.726   0.381   2.940  2.7191  1.9606 -1.5159
 4120TIP3   OH212300   2.012   4.539   0.639 -0.4897 -0.4214 -0.2381
 4120TIP3    H112301   1.934   4.592   0.630  0.0304  0.5206  0.6435
 4120TIP3    H212302   1.991   4.476   0.708 -0.6102 -0.4385 -0.2910
 4121TIP3   OH212303   4.213   0.182   4.010 -0.4769 -0.1139  0.4528
 4121TIP3    H112304   4.176   0.265   3.981 -0.2833 -0.4014 -0.7051
 4121TIP3    H212305   4.203   0.124   3.934  1.1127 -0.5921  0.5748
 4122TIP3   OH212306   6.866   4.248   2.461  0.1047 -0.3903  0.4197
 4122TIP3    H112307   6.946   4.296   2.444  0.6071 -1.3040  0.1758
 4122TIP3    H212308   6.850   4.260   2.555 -0.1792  0.8338  0.2349
 4123TIP3   OH212309   3.653   4.871   5.337 -0.5781 -0.2810 -0.1594
 4123TIP3    H112310   3.704   4.904   5.410  0.6552 -2.7833  0.2011
 4123TIP3    H212311   3.682   4.923   5.262 -0.4185  0.9623  0.7312
 4124TIP3   OH212312   0.565   5.754   4.480 -0.4923  0.1818 -0.1867
 4124TIP3    H112313   0.547   5.690   4.549  0.5652 -0.3833 -0.4224
 4124TIP3    H212314   0.659   5.771   4.485 -0.7096  1.5877 -0.2587
 4125TIP3   OH212315   0.153   1.721   2.940 -0.0557 -0.3779 -0.2315
 4125TIP3    H112316   0.162   1.749   2.849  0.8619  1.3509  0.3465
 4125TIP3    H212317   0.207   1.783   2.990 -0.1575 -1.5643  1.4468
 4126TIP3   OH212318   4.853   5.917   3.473  0.1023  0.0496 -0.0279
 4126TIP3    H112319   4.801   5.873   3.541 -1.3557 -1.1708 -1.8447
 4126TIP3    H212320   4.820   6.007   3.474 -2.9547 -0.8898 -1.7886
 4127TIP3   OH212321   3.102   6.240   6.499 -0.3526  0.1808  0.1097
 4127TIP3    H112322   3.102   6.290   6.581 -0.2771  0.9440 -0.3498
 4127TIP3    H212323   3.010   6.238   6.472 -0.2671  0.6652 -0.2257
 4128TIP3   OH212324   8.138   6.477   2.399  0.1360  0.2926 -0.6283
 4128TIP3    H112325   8.150   6.382   2.407  1.0324  0.3304 -1.3714
 4128TIP3    H212326   8.145   6.509   2.488 -1.2783 -0.4462 -0.2175
 4129TIP3   OH212327   3.597   3.684   1.984 -1.0575 -0.0769 -0.2376
 4129TIP3    H112328   3.551   3.613   1.939 -1.7867  0.0051  0.3495
 4129TIP3    H212329   3.584   3.665   2.077 -1.4230  0.9268 -0.0743
 4130TIP3   OH212330   3.353   6.795   3.336  0.2558 -0.1897 -0.2154
 4130TIP3    H112331   3.297   6.870   3.316 -0.0126 -0.3324 -0.0080
 4130TIP3    H212332   3.441   6.824   3.314 -0.0155 -0.2966 -1.4976
 4131TIP3   OH212333   0.708   4.647   0.487  0.5434  0.0026 -0.1127
 4131TIP3    H112334   0.688   4.580   0.422  0.1947 -0.2207  0.2172
 4131TIP3    H212335   0.773   4.703   0.445  0.0347  0.0974 -0.7933
 4132TIP3   OH212336   5.150   0.974   0.639 -0.1360  0.6389 -0.8689
 4132TIP3    H112337   5.174   0.998   0.729 -2.8289  1.2981 -0.2201
 4132TIP3    H212338   5.177   0.883   0.630  0.8234  0.7781  0.3566
 4133TIP3   OH212339   1.147   7.567   1.598  0.4913 -0.3963  0.0607
 4133TIP3    H112340   1.192   7.558   1.682  1.3965  2.4631 -0.0040
 4133TIP3    H212341   1.091   7.645   1.608 -0.2442 -0.6395 -1.6419
 4134TIP3   OH212342   4.920   5.850   5.121 -0.4351 -0.3033  0.0866
 4134TIP3    H112343   4.907   5.922   5.184 -0.7860 -0.6845  0.4533
 4134TIP3    H212344   4.836   5.842   5.077  0.4531  1.5538 -2.1639
 4135TIP3   OH212345   5.769   2.927   6.687 -0.4415 -0.1666 -0.9688
 4135TIP3    H112346   5.730   2.934   6.600  3.3041 -1.6223 -2.9839
 4135TIP3    H212347   5.857   2.962   6.677  1.6058 -4.0539  1.0318
 4136TIP3   OH212348   1.320   2.654   6.508  0.2948  0.0423  0.1943
 4136TIP3    H112349   1.392   2.599   6.477  0.6233  0.2154  0.6389
 4136TIP3    H212350   1.270   2.675   6.429 -0.2236 -1.4387  0.0919
 4137TIP3   OH212351   2.326   5.294   5.660 -0.1287 -0.3344 -0.0184
 4137TIP3    H112352   2.366   5.358   5.719 -0.4170 -0.9294  0.8450
 4137TIP3    H212353   2.259   5.251   5.713 -1.1954 -0.0869 -1.1265
 4138TIP3   OH212354   1.591   7.389   2.727 -0.9316  0.1821 -0.2277
 4138TIP3    H112355   1.540   7.385   2.646 -0.6666  1.6951 -0.4961
 4138TIP3    H212356   1.532   7.428   2.791 -0.9857 -0.5808  0.1996
 4139TIP3   OH212357   7.098   2.288   4.684 -0.2245  0.4416 -0.0978
 4139TIP3    H112358   7.108   2.345   4.607  2.0956 -1.4322 -1.3131
 4139TIP3    H212359   7.184   2.289   4.726  0.0838 -2.4957 -0.4626
 4140TIP3   OH212360   1.576   3.925   2.080  0.1601  0.5915 -0.5991
 4140TIP3    H112361   1.505   3.943   2.018  0.7407  1.2782 -1.0714
 4140TIP3    H212362   1.612   3.841   2.050 -1.4227 -0.5704  0.5685
 4141TIP3   OH212363   2.001   2.565   3.580  0.3966  0.7744 -0.3617
 4141TIP3    H112364   1.934   2.515   3.533  1.0996  1.1796 -1.8714
 4141TIP3    H212365   2.047   2.499   3.633 -0.3820  0.2875 -0.2743
 4142TIP3   OH212366   7.023   0.437   1.187  0.0283  0.1616  0.2689
 4142TIP3    H112367   7.033   0.342   1.177  0.8701  0.2699  0.0449
 4142TIP3    H212368   7.112   0.472   1.179 -0.3929  1.0643 -0.6245
 4143TIP3   OH212369   0.380   6.878   0.838  0.0498  0.0176 -0.7707
 4143TIP3    H112370   0.386   6.786   0.814 -2.1934 -0.7774  1.3818
 4143TIP3    H212371   0.469   6.902   0.865  0.0845 -2.4996  1.7402
 4144TIP3   OH212372   3.666   2.716   4.530 -0.4104 -0.1406 -0.0239
 4144TIP3    H112373   3.690   2.631   4.493  0.5460 -0.4243  1.1843
 4144TIP3    H212374   3.667   2.702   4.625 -1.7142  0.8416  0.1602
 4145TIP3   OH212375   0.743   6.508   1.206 -0.2236  0.1726 -0.3734
 4145TIP3    H112376   0.781   6.596   1.210 -1.8550  1.0284 -2.1556
 4145TIP3    H212377   0.751   6.483   1.114 -3.5967  0.2881 -0.8030
 4146TIP3   OH212378   1.198   3.754   6.026  0.0392  0.2061  0.2324
 4146TIP3    H112379   1.275   3.745   5.969  1.5272 -0.1165  2.1997
 4146TIP3    H212380   1.133   3.695   5.987  2.2119 -2.8237  0.7793
 4147TIP3   OH212381   2.103   7.346   5.719 -0.2613 -0.0982  0.2751
 4147TIP3    H112382   2.160   7.271   5.741  0.2411 -0.4583 -1.9798
 4147TIP3    H212383   2.085   7.335   5.626 -0.3967  2.4667 -0.0616
 4148TIP3   OH212384   0.496   7.902   1.964 -0.2680 -0.1869  0.1694
 4148TIP3    H112385   0.418   7.850   1.983  0.2594 -1.1404 -0.2398
 4148TIP3    H212386   0.461   7.987   1.935 -1.1796 -0.7851 -0.5499
 4149TIP3   OH212387   3.596   1.590   1.808  0.1561 -0.5210  0.1532
 4149TIP3    H112388   3.661   1.640   1.857  0.2556 -1.2982  0.8413
 4149TIP3    H212389   3.515   1.603   1.855 -0.4003  1.0994 -1.1566
 4150TIP3   OH212390   4.363   4.901   2.183 -0.0716 -0.0714  0.1894
 4150TIP3    H112391   4.309   4.881   2.259 -0.1292  0.1904  0.2195
 4150TIP3    H212392   4.325   4.981   2.147 -0.1003 -0.2418 -0.1665
 4151TIP3   OH212393   0.727   2.853   1.621 -1.0011  0.6349 -0.1587
 4151TIP3    H112394   0.655   2.827   1.679  0.2331 -1.9555  0.3483
 4151TIP3    H212395   0.689   2.847   1.533 -1.7644  0.5864  0.1616
 4152TIP3   OH212396   4.395   2.734   3.199 -0.3280 -0.1263 -0.5495
 4152TIP3    H112397   4.443   2.700   3.123  0.9295  1.0061 -0.3015
 4152TIP3    H212398   4.349   2.811   3.165 -0.7322 -0.3094 -0.4251
 4153TIP3   OH212399   3.337   4.681   0.934  0.7780 -0.3059 -0.2472
 4153TIP3    H112400   3.423   4.662   0.972  0.0438 -0.7216  1.2856
 4153TIP3    H212401   3.277   4.623   0.981 -0.5427  0.9269 -0.3589
 4154TIP3   OH212402   0.243   3.767   2.565  0.3993 -0.7457  0.0757
 4154TIP3    H112403   0.317   3.759   2.506  1.8178 -0.3356  1.7027
 4154TIP3    H212404   0.228   3.862   2.571 -0.1869 -0.8235 -0.1686
 4155TIP3   OH212405   6.980   5.700   6.518 -0.2186 -0.1413  0.0857
 4155TIP3    H112406   7.051   5.686   6.455 -2.4051 -0.0840 -2.5541
 4155TIP3    H212407   6.909   5.644   6.487 -2.6083  2.5135  0.3801
 4156TIP3   OH212408   1.418   1.967   6.823 -0.4148 -0.0502 -0.1885
 4156TIP3    H112409   1.401   1.935   6.735 -1.9725  0.9573 -0.2804
 4156TIP3    H212410   1.371   2.050   6.829  1.2544  0.8597  0.9637
 4157TIP3   OH212411   4.843   0.341   0.956 -0.2939 -0.3225 -0.2116
 4157TIP3    H112412   4.831   0.317   0.864 -2.9067  2.6579 -0.8389
 4157TIP3    H212413   4.806   0.268   1.005  0.0348 -1.4256 -1.5449
 4158TIP3   OH212414   1.652   2.408   4.528 -0.1575  0.6372  0.6234
 4158TIP3    H112415   1.626   2.471   4.594 -0.6821  0.3626  0.6864
 4158TIP3    H212416   1.670   2.460   4.450 -0.8207  0.8504  0.6056
 4159TIP3   OH212417   2.629   2.376   0.413  0.1944 -0.6116  0.4119
 4159TIP3    H112418   2.573   2.386   0.490  1.3214  0.0678  1.1731
 4159TIP3    H212419   2.614   2.286   0.385 -1.5902 -0.3249  0.3109
 4160TIP3   OH212420   0.858   4.839   6.124 -0.8139  0.0170  0.1406
 4160TIP3    H112421   0.903   4.764   6.085 -0.2581 -0.4726  1.6343
 4160TIP3    H212422   0.819   4.805   6.205  0.7043  1.6036  1.6437
 4161TIP3   OH212423   2.901   3.311   1.464 -0.0174  0.1809  0.0209
 4161TIP3    H112424   2.820   3.296   1.415  0.1360  1.5784 -0.7150
 4161TIP3    H212425   2.873   3.331   1.553 -0.5222  1.0902 -0.3348
 4162TIP3   OH212426   8.311   1.283   2.101 -0.2389  0.2045  0.2004
 4162TIP3    H112427   8.363   1.203   2.106  0.9976  0.9887  0.3446
 4162TIP3    H212428   8.356   1.337   2.036 -0.8166  0.9536  0.4034
 4163TIP3   OH212429   6.578   7.939   6.624 -0.3887  0.1482 -0.7594
 4163TIP3    H112430   6.615   7.878   6.560 -0.7042 -0.2632 -0.5537
 4163TIP3    H212431   6.529   7.884   6.685  0.8994  0.3961  0.5644
 4164TIP3   OH212432   0.090   5.333   2.752  0.0409 -0.0247 -0.5034
 4164TIP3    H112433   0.100   5.415   2.800 -0.0826  0.5715 -1.4747
 4164TIP3    H212434   0.010   5.345   2.700 -0.0683 -0.8226 -0.5353
 4165TIP3   OH212435   8.294   2.310   1.515  0.7611 -0.5416  0.8014
 4165TIP3    H112436   8.346   2.327   1.437 -0.2672  0.9714  0.3914
 4165TIP3    H212437   8.215   2.363   1.503  0.4815 -0.4265  2.7716
 4166TIP3   OH212438   3.564   4.103   6.677 -0.3196 -0.2482  0.0356
 4166TIP3    H112439   3.531   4.182   6.720  1.3632  1.3608 -1.5154
 4166TIP3    H212440   3.628   4.068   6.739 -1.0157 -0.4170  0.6923
 4167TIP3   OH212441   6.184   0.436   6.728  0.4010 -0.4817  0.6239
 4167TIP3    H112442   6.156   0.374   6.661 -0.6654 -0.5993  1.1586
 4167TIP3    H212443   6.138   0.517   6.707  1.4421  0.0154  0.1883
 4168TIP3   OH212444   5.948   5.455   3.466  0.2319  0.4343 -0.0211
 4168TIP3    H112445   5.866   5.435   3.421  0.5963 -0.6148 -0.2387
 4168TIP3    H212446   5.944   5.402   3.546  0.9889 -0.1298 -0.3541
 4169TIP3   OH212447   0.171   5.832   4.959  1.4204 -0.3559  0.1486
 4169TIP3    H112448   0.250   5.846   5.011  2.8456  1.7960 -2.3307
 4169TIP3    H212449   0.204   5.811   4.871 -0.7585  0.4771 -0.9306
 4170TIP3   OH212450   2.211   0.397   1.623  0.3254  0.4027 -0.3335
 4170TIP3    H112451   2.196   0.491   1.618 -2.0634  0.1841  1.3086
 4170TIP3    H212452   2.193   0.374   1.714  0.8184 -1.6583 -0.7008
 4171TIP3   OH212453   3.300   5.663   1.186 -0.1633  0.3624 -0.6698
 4171TIP3    H112454   3.235   5.696   1.124 -2.1758  1.0674  1.6330
 4171TIP3    H212455   3.377   5.717   1.171 -0.9551  1.2289 -1.7933
 4172TIP3   OH212456   1.014   2.330   6.130 -0.2108  0.2636 -0.4309
 4172TIP3    H112457   0.929   2.374   6.126 -0.5731 -0.4186 -0.3228
 4172TIP3    H212458   1.048   2.352   6.216  0.9231  2.7044 -1.4119
 4173TIP3   OH212459   6.201   6.637   6.478  0.0915 -0.0662 -0.2841
 4173TIP3    H112460   6.168   6.712   6.528  1.3943 -1.0540  2.2730
 4173TIP3    H212461   6.242   6.676   6.401  1.3338  1.9892  1.2797
 4174TIP3   OH212462   5.986   0.628   6.658  0.1292  0.0905  0.3444
 4174TIP3    H112463   5.918   0.644   6.592  0.4775  2.8925  0.5459
 4174TIP3    H212464   5.942   0.644   6.741  1.1528  2.7869  0.4415
 4175TIP3   OH212465   2.237   2.179   0.220  0.2487 -0.1395  0.1643
 4175TIP3    H112466   2.260   2.246   0.156  0.7469 -0.3165  0.1455
 4175TIP3    H212467   2.163   2.133   0.181  1.2905 -1.0166 -0.8724
 4176TIP3   OH212468   0.393   1.892   3.656 -0.2728 -0.2473 -0.4757
 4176TIP3    H112469   0.384   1.888   3.561 -2.3551 -1.2889 -0.2958
 4176TIP3    H212470   0.431   1.808   3.681 -0.6836 -0.3931 -0.3255
 4177TIP3   OH212471   4.644   0.527   1.592 -0.6469  0.1683  0.4941
 4177TIP3    H112472   4.656   0.450   1.536  2.3660  2.3185 -2.2215
 4177TIP3    H212473   4.677   0.501   1.677  2.6902 -0.9919 -0.9789
 4178TIP3   OH212474   6.415   4.724   1.113 -0.0256 -0.4625 -0.1638
 4178TIP3    H112475   6.322   4.736   1.097  0.0408 -0.0289 -0.2518
 4178TIP3    H212476   6.457   4.797   1.067  0.3720 -0.7825 -0.3092
 4179TIP3   OH212477   6.180   6.295   5.822 -0.0189 -0.1392  0.1942
 4179TIP3    H112478   6.189   6.210   5.777 -0.8311 -0.1565  0.0464
 4179TIP3    H212479   6.086   6.313   5.819  0.2713  1.3850 -0.9039
 4180TIP3   OH212480   5.859   2.788   0.170 -0.7554  0.1927  0.0166
 4180TIP3    H112481   5.843   2.862   0.111  0.5846  1.1468  0.8023
 4180TIP3    H212482   5.882   2.716   0.111 -0.7582  0.7573 -0.6945
 4181TIP3   OH212483   2.634   4.614   0.546  0.5483 -0.1025  0.0126
 4181TIP3    H112484   2.599   4.526   0.540  1.1044 -0.4258  1.1797
 4181TIP3    H212485   2.623   4.638   0.638  2.3482  0.2000  0.1841
 4182TIP3   OH212486   3.714   2.789   6.186 -0.0822 -0.5754  0.3136
 4182TIP3    H112487   3.769   2.852   6.138 -0.6880  0.8166  1.4028
 4182TIP3    H212488   3.774   2.718   6.208  0.8859  0.1259  0.0248
 4183TIP3   OH212489   3.428   7.131   3.189  0.5543 -0.7439 -0.5745
 4183TIP3    H112490   3.335   7.154   3.197  0.7506  0.2180 -0.8956
 4183TIP3    H212491   3.444   7.128   3.095  1.3428  1.3586 -0.5755
 4184TIP3   OH212492   5.651   5.589   0.748 -0.2361  0.0818 -0.3705
 4184TIP3    H112493   5.688   5.606   0.834 -0.7031  0.6442 -0.2793
 4184TIP3    H212494   5.634   5.494   0.747 -2.4268  0.3879  1.0588
 4185TIP3   OH212495   0.025   7.791   3.755 -0.4210 -0.4154  0.0302
 4185TIP3    H112496   0.059   7.736   3.826  0.7598  0.7706  0.4224
 4185TIP3    H212497  -0.052   7.833   3.793  0.8869  1.1423  1.0820
 4186TIP3   OH212498   0.762   2.523   6.124 -0.1797  0.5655 -0.4221
 4186TIP3    H112499   0.744   2.546   6.215 -1.4756  1.9819 -0.9959
 4186TIP3    H212500   0.677   2.528   6.081  0.4810  0.3354 -1.7947
 4187TIP3   OH212501   1.162   7.858   1.884 -0.2736 -0.3383  0.8338
 4187TIP3    H112502   1.079   7.884   1.924 -0.4225 -1.7435  1.5343
 4187TIP3    H212503   1.147   7.865   1.790 -0.4917  1.3805  0.9727
 4188TIP3   OH212504   3.991   0.518   0.838  0.2048  0.0265  0.1070
 4188TIP3    H112505   3.955   0.553   0.920 -0.2360 -0.0611 -0.0490
 4188TIP3    H212506   4.073   0.565   0.827  0.4536 -0.2221  0.7918
 4189TIP3   OH212507   4.871   0.692   6.833 -0.4149  0.2560  0.6446
 4189TIP3    H112508   4.905   0.607   6.860  0.3480  0.9069  1.8040
 4189TIP3    H212509   4.916   0.711   6.751 -0.8231 -0.5792  0.2126
 4190TIP3   OH212510   6.241   4.818   4.623  0.5018  0.0700  0.1232
 4190TIP3    H112511   6.146   4.809   4.614  0.3484  0.4682  1.2895
 4190TIP3    H212512   6.276   4.736   4.588 -0.1180  0.8344 -2.5216
 4191TIP3   OH212513   7.632   2.970   2.265  0.2280  0.2218 -0.4084
 4191TIP3    H112514   7.709   2.966   2.322  1.1218  0.5106 -1.5362
 4191TIP3    H212515   7.666   3.004   2.182 -0.2871 -3.2053 -2.2427
 4192TIP3   OH212516   2.551   6.552   0.845  0.2447 -0.1001  0.3643
 4192TIP3    H112517   2.553   6.510   0.931 -0.9095 -1.2951 -0.1669
 4192TIP3    H212518   2.617   6.621   0.851  0.6611 -0.5951  1.9818
 4193TIP3   OH212519   6.523   6.123   5.690  0.3557  0.0766 -0.0359
 4193TIP3    H112520   6.447   6.067   5.706 -1.1277  2.2084  0.8864
 4193TIP3    H212521   6.568   6.127   5.774  1.3723 -0.9168 -0.4972
 4194TIP3   OH212522   2.191   0.423   5.240 -0.1323 -0.0028 -0.0012
 4194TIP3    H112523   2.189   0.334   5.274  0.1223 -0.5502 -1.3730
 4194TIP3    H212524   2.111   0.431   5.188  0.5426  0.0649 -1.0625
 4195TIP3   OH212525   2.018   4.758   4.598  0.6273 -0.4504  0.6132
 4195TIP3    H112526   1.962   4.766   4.675  0.8237 -1.1490  0.8350
 4195TIP3    H212527   1.969   4.702   4.538  0.6492 -0.2306  0.3842
 4196TIP3   OH212528   0.873   0.274   2.988  0.2104 -0.2829  0.2648
 4196TIP3    H112529   0.889   0.189   2.946  0.6068  0.2489 -0.7086
 4196TIP3    H212530   0.953   0.292   3.037  0.0635 -0.5458  0.6001
 4197TIP3   OH212531   6.793   3.482   3.210  0.6489  0.3649 -0.0967
 4197TIP3    H112532   6.859   3.413   3.201  0.8763  0.5155  0.3661
 4197TIP3    H212533   6.791   3.525   3.125 -1.0830 -1.6158 -1.1393
 4198TIP3   OH212534   6.813   0.514   3.426  0.3084  0.1261 -0.0674
 4198TIP3    H112535   6.837   0.441   3.369 -1.9890 -0.0870 -0.8277
 4198TIP3    H212536   6.892   0.569   3.429  1.6780 -1.7443 -0.4299
 4199TIP3   OH212537   5.691   1.158   0.364  0.3845  0.3085  0.1169
 4199TIP3    H112538   5.615   1.137   0.420  0.6864 -0.8536  0.1258
 4199TIP3    H212539   5.766   1.147   0.422  0.7792 -1.8663 -0.6941
 4200TIP3   OH212540   3.754   5.962   4.390 -0.2219 -0.1204 -0.2723
 4200TIP3    H112541   3.849   5.952   4.384 -0.3708 -2.0192 -0.1665
 4200TIP3    H212542   3.741   6.028   4.458  1.0166  1.2278 -1.2778
 4201TIP3   OH212543   1.645   2.376   2.551  0.6045  0.2533 -0.2294
 4201TIP3    H112544   1.699   2.412   2.622  1.6514  2.3388 -1.9457
 4201TIP3    H212545   1.603   2.453   2.513 -2.9939 -1.1888  0.4247
 4202TIP3   OH212546   5.025   5.591   3.200 -0.6257  0.3902 -0.2334
 4202TIP3    H112547   4.960   5.571   3.133 -1.6836 -0.2481  0.9404
 4202TIP3    H212548   5.023   5.687   3.208  0.1116  0.5566 -1.6466
 4203TIP3   OH212549   0.885   0.562   6.404 -0.0486 -0.3645  0.3093
 4203TIP3    H112550   0.937   0.585   6.327 -2.1657 -1.7269 -1.6753
 4203TIP3    H212551   0.865   0.646   6.445  1.1237  0.4039 -0.6131
 4204TIP3   OH212552   6.974   5.781   2.032 -0.3720  0.0105 -0.5545
 4204TIP3    H112553   6.900   5.773   1.972 -0.8181  0.6677 -0.1101
 4204TIP3    H212554   7.021   5.698   2.024 -1.5772 -0.7258 -0.2949
 4205TIP3   OH212555   5.490   5.271   0.709 -0.3506 -0.1317  0.4119
 4205TIP3    H112556   5.407   5.314   0.731 -0.7862 -0.4837 -0.4913
 4205TIP3    H212557   5.526   5.244   0.793 -0.8181  0.6346  0.8696
 4206TIP3   OH212558   7.420   1.102   5.942 -0.1279 -0.3172  0.1304
 4206TIP3    H112559   7.475   1.089   5.865 -0.9310 -0.3131 -0.4531
 4206TIP3    H212560   7.443   1.190   5.973 -1.2602  0.5310 -1.3241
 4207TIP3   OH212561   2.540   6.132   0.560  0.2083 -0.2254 -0.4158
 4207TIP3    H112562   2.605   6.162   0.497  1.6541 -2.0534  0.1188
 4207TIP3    H212563   2.563   6.177   0.642  0.1448 -0.1020 -0.4643
 4208TIP3   OH212564   4.553   1.079   4.785  0.0707  0.1409  0.7752
 4208TIP3    H112565   4.458   1.090   4.788  0.0152  0.2567 -0.6710
 4208TIP3    H212566   4.576   1.100   4.695  1.2237 -1.7963  0.5763
 4209TIP3   OH212567   7.811   0.209   5.508  0.0764  0.5465 -0.4040
 4209TIP3    H112568   7.747   0.278   5.526 -0.3781  0.4783 -1.6698
 4209TIP3    H212569   7.772   0.130   5.545  0.8632  1.0246  1.5768
 4210TIP3   OH212570   0.284   4.653   4.606 -0.2854  0.0633 -0.5019
 4210TIP3    H112571   0.240   4.738   4.611  0.4353  0.3467  1.9638
 4210TIP3    H212572   0.220   4.590   4.641  0.0939 -0.0206  0.0464
 4211TIP3   OH212573   6.499   4.194   2.973  0.1594 -0.4876  0.1921
 4211TIP3    H112574   6.560   4.200   2.900  0.1136  0.4125  0.2143
 4211TIP3    H212575   6.542   4.243   3.044 -0.3749 -0.2574  0.3579
 4212TIP3   OH212576   0.296   2.765   3.278  0.1565  0.4109 -0.4056
 4212TIP3    H112577   0.224   2.748   3.217  0.5037 -0.9949 -0.4576
 4212TIP3    H212578   0.332   2.850   3.251  0.2695 -0.1578 -2.1269
 4213TIP3   OH212579   5.352   1.702   1.371 -0.0060  0.3290 -0.3721
 4213TIP3    H112580   5.260   1.678   1.381  0.6160 -1.6102  1.4558
 4213TIP3    H212581   5.400   1.630   1.412  2.2716  2.1124  0.2869
 4214TIP3   OH212582   4.840   1.020   5.126  0.0957 -0.5569 -0.2035
 4214TIP3    H112583   4.817   1.034   5.218  0.3410 -0.8545 -0.0943
 4214TIP3    H212584   4.765   0.972   5.090  0.2708 -0.9937  0.0011
 4215TIP3   OH212585   5.631   3.930   1.152 -0.8754  0.1572 -0.3512
 4215TIP3    H112586   5.668   3.854   1.108  0.6016  0.5495  0.1397
 4215TIP3    H212587   5.643   3.912   1.245 -1.4264  0.5522 -0.1973
 4216TIP3   OH212588   3.695   0.651   6.403  0.1375  0.4916 -0.1732
 4216TIP3    H112589   3.771   0.681   6.354 -0.1654  0.6062 -0.5735
 4216TIP3    H212590   3.669   0.726   6.456  0.5230  0.3374  0.2404
 4217TIP3   OH212591   2.873   5.756   6.662  0.1029  0.1029 -0.1803
 4217TIP3    H112592   2.806   5.817   6.632 -0.3650 -0.3551 -0.0769
 4217TIP3    H212593   2.891   5.701   6.585  0.5760  0.4134 -0.2953
 4218TIP3   OH212594   0.986   7.339   1.663 -0.7266 -0.1525  0.4169
 4218TIP3    H112595   1.056   7.377   1.610  0.1419 -0.7067  1.1312
 4218TIP3    H212596   0.958   7.410   1.720 -0.2469 -0.1127  0.6115
 4219TIP3   OH212597   2.135   1.505   5.105 -0.9015 -0.1972  0.1724
 4219TIP3    H112598   2.057   1.496   5.161 -2.0662  1.2946 -1.1055
 4219TIP3    H212599   2.126   1.592   5.066  1.9186  0.3960  0.6537
 4220TIP3   OH212600   0.976   2.275   3.792 -0.0817 -0.5726 -0.9954
 4220TIP3    H112601   1.002   2.312   3.877 -0.1167 -1.8139 -0.4128
 4220TIP3    H212602   1.048   2.299   3.733  0.3075 -0.3272 -0.4349
 4221TIP3   OH212603   3.044   6.670   1.398 -0.5148  0.3819  0.1495
 4221TIP3    H112604   3.108   6.700   1.333  0.0239 -0.5813  0.2151
 4221TIP3    H212605   3.069   6.579   1.416 -0.5860  0.6520  1.7790
 4222TIP3   OH212606   8.242   5.087   4.385  0.1576 -0.4791  0.4878
 4222TIP3    H112607   8.192   5.031   4.325  0.6970 -2.5465  1.8552
 4222TIP3    H212608   8.181   5.106   4.457 -0.0112  0.7391  0.0527
 4223TIP3   OH212609   1.769   7.802   2.938  0.2370 -0.2123 -0.3498
 4223TIP3    H112610   1.777   7.793   2.843  0.3844  1.7082 -0.5714
 4223TIP3    H212611   1.859   7.811   2.969  0.3136 -2.4012  0.2139
 4224TIP3   OH212612   1.625   2.873   1.624  0.1336 -0.0498 -0.2012
 4224TIP3    H112613   1.633   2.802   1.561 -3.2583 -1.2514  0.4999
 4224TIP3    H212614   1.593   2.947   1.572  0.3405 -0.0754 -0.3671
 4225TIP3   OH212615   8.323   2.024   5.501 -0.3577 -0.3085  0.2954
 4225TIP3    H112616   8.410   2.008   5.536  0.7882 -1.9149 -2.8600
 4225TIP3    H212617   8.266   1.962   5.547 -0.0217  1.0269  2.6676
 4226TIP3   OH212618   2.268   5.191   2.314 -0.3914 -0.5851  0.0969
 4226TIP3    H112619   2.198   5.128   2.330 -1.3410 -0.1588 -1.9871
 4226TIP3    H212620   2.345   5.137   2.294 -0.4799 -1.0559  0.9797
 4227TIP3   OH212621   2.672   4.716   2.228 -0.0515  0.0912  0.0404
 4227TIP3    H112622   2.682   4.621   2.231  1.4990  0.1684 -1.2086
 4227TIP3    H212623   2.630   4.734   2.144 -1.0934  0.4861  0.6257
 4228TIP3   OH212624   8.349   4.850   1.848  0.3816  0.0490 -0.5061
 4228TIP3    H112625   8.408   4.775   1.855  0.1010 -0.0147  1.5532
 4228TIP3    H212626   8.361   4.899   1.929 -1.2464  0.8975 -0.7321
 4229TIP3   OH212627   6.203   1.084   1.920 -0.3441  0.0948  0.0974
 4229TIP3    H112628   6.148   1.160   1.938  0.0675  0.3364  0.3749
 4229TIP3    H212629   6.155   1.010   1.956 -0.4790  0.3024  0.3453
 4230TIP3   OH212630   0.582   0.338   3.060  0.2839  0.4940  0.2230
 4230TIP3    H112631   0.675   0.327   3.040  0.0475 -2.1089  0.2794
 4230TIP3    H212632   0.564   0.430   3.038  2.3065  0.4441 -2.1503
 4231TIP3   OH212633   1.399   3.796   1.128 -0.2652  1.0713 -0.1895
 4231TIP3    H112634   1.419   3.714   1.084 -1.0714  0.9989 -0.4354
 4231TIP3    H212635   1.412   3.777   1.221 -0.7712  0.5658 -0.2168
 4232TIP3   OH212636   0.173   1.913   6.270 -0.1520 -0.1667 -0.4561
 4232TIP3    H112637   0.082   1.886   6.262  0.0867 -1.4217  0.7941
 4232TIP3    H212638   0.223   1.839   6.235  0.3979  1.2103 -2.8265
 4233TIP3   OH212639   0.757   2.109   2.887 -0.0215  0.1093  0.0670
 4233TIP3    H112640   0.839   2.112   2.938  0.4679  0.5138 -0.7198
 4233TIP3    H212641   0.689   2.128   2.951  0.3318 -1.6691  1.0538
 4234TIP3   OH212642   7.376   2.911   4.970  0.0200  0.7113  0.3544
 4234TIP3    H112643   7.420   2.828   4.952  0.6882  1.3213 -0.9537
 4234TIP3    H212644   7.288   2.899   4.932  1.2789  1.8308 -3.2740
 4235TIP3   OH212645   5.559   4.162   1.795 -0.2029  0.5016  0.1758
 4235TIP3    H112646   5.501   4.087   1.806  1.0409 -0.4883  0.1459
 4235TIP3    H212647   5.577   4.191   1.885  0.6730 -0.3277  0.2872
 4236TIP3   OH212648   2.460   3.029   5.823  0.2510 -0.4926 -0.2948
 4236TIP3    H112649   2.550   3.039   5.853  0.0268  2.4963 -0.3634
 4236TIP3    H212650   2.465   3.038   5.728 -0.0863 -0.8174 -0.3473
 4237TIP3   OH212651   2.829   1.377   1.408 -0.2737  0.5785  0.1020
 4237TIP3    H112652   2.839   1.305   1.470 -2.2769  2.1394  2.4095
 4237TIP3    H212653   2.909   1.427   1.416 -0.2303  0.3830  0.9244
 4238TIP3   OH212654   1.687   3.786   2.399  0.5027 -0.5906 -0.2590
 4238TIP3    H112655   1.601   3.745   2.406  0.6939 -0.9216  0.1914
 4238TIP3    H212656   1.729   3.740   2.326  0.4118 -0.6328 -0.2849
 4239TIP3   OH212657   6.523   0.202   0.065  0.5620  0.8706 -0.0578
 4239TIP3    H112658   6.508   0.143   0.139  1.6907  2.2091  1.2860
 4239TIP3    H212659   6.440   0.249   0.055  0.0189 -0.1390 -0.4363
 4240TIP3   OH212660   1.209   0.099   0.852 -0.1533  0.4875 -0.5812
 4240TIP3    H112661   1.295   0.114   0.890  0.0927  0.1190 -0.9836
 4240TIP3    H212662   1.155   0.071   0.925 -0.0676  1.2146 -0.2279
 4241TIP3   OH212663   0.596   7.246   0.036  0.2943  0.0895  0.5669
 4241TIP3    H112664   0.683   7.206   0.047  1.2172  1.7437 -0.3526
 4241TIP3    H212665   0.544   7.207   0.106  1.9839 -0.4103  1.6293
 4242TIP3   OH212666   5.382   5.975   3.939 -0.0287  0.1885  0.5475
 4242TIP3    H112667   5.318   5.904   3.937 -0.5199  0.6387  0.1891
 4242TIP3    H212668   5.348   6.036   4.005 -0.1654  0.6124  0.0862
 4243TIP3   OH212669   4.446   3.021   0.609 -0.5865 -0.6146  0.2799
 4243TIP3    H112670   4.352   3.024   0.626 -0.6105  0.8202  0.0087
 4243TIP3    H212671   4.454   2.963   0.533 -1.1927 -1.1147  0.5847
 4244TIP3   OH212672   2.464   3.934   0.817  0.3931 -0.3231  0.1478
 4244TIP3    H112673   2.538   3.969   0.767  0.3253 -0.9688 -0.4182
 4244TIP3    H212674   2.467   3.981   0.900  2.2618 -1.2672  0.6829
 4245TIP3   OH212675   4.120   1.371   3.491  0.0083  0.1090  0.1127
 4245TIP3    H112676   4.190   1.305   3.484 -0.0545  0.0799 -0.2492
 4245TIP3    H212677   4.157   1.438   3.548  0.1866 -0.0964  0.2422
 4246TIP3   OH212678   4.657   4.236   6.679  0.1307 -0.0052 -0.1058
 4246TIP3    H112679   4.600   4.240   6.603 -1.0930  0.8133  0.8074
 4246TIP3    H212680   4.658   4.325   6.714 -0.0994 -0.5349  1.3474
 4247TIP3   OH212681   2.484   0.692   4.312 -0.1276  0.0506 -0.3038
 4247TIP3    H112682   2.474   0.732   4.398 -0.5422 -0.1656 -0.2479
 4247TIP3    H212683   2.459   0.601   4.324 -1.9501  0.4088 -1.0144
 4248TIP3   OH212684   2.600   3.173   5.529  0.5814  0.4445  0.5455
 4248TIP3    H112685   2.643   3.231   5.466  0.3252 -0.3290 -0.3681
 4248TIP3    H212686   2.600   3.223   5.611  3.7063  0.2723  0.7692
 4249TIP3   OH212687   1.375   6.607   3.488  0.2173 -0.4093 -0.4067
 4249TIP3    H112688   1.359   6.591   3.395 -0.8202 -0.4168 -0.2424
 4249TIP3    H212689   1.288   6.605   3.528  0.6511 -0.4423  0.5728
 4250TIP3   OH212690   0.629   3.508   0.026 -0.8375 -0.6266  0.9963
 4250TIP3    H112691   0.662   3.428  -0.013 -1.7106 -0.2444 -0.6455
 4250TIP3    H212692   0.667   3.511   0.113  2.7944 -0.6007 -0.4255
 4251TIP3   OH212693   2.597   0.909   5.422  0.0424 -0.0252 -0.8828
 4251TIP3    H112694   2.657   0.871   5.358 -1.5156  0.0791 -2.4830
 4251TIP3    H212695   2.534   0.958   5.370 -1.4609 -0.1625  0.7135
 4252TIP3   OH212696   2.351   0.605   5.351  0.1506  0.4944 -0.7883
 4252TIP3    H112697   2.401   0.555   5.416 -1.0782 -0.6651 -0.6790
 4252TIP3    H212698   2.282   0.545   5.323 -1.6542  2.2622 -0.3725
 4253TIP3   OH212699   7.046   5.942   5.906  0.8412 -0.1291  0.0352
 4253TIP3    H112700   6.978   5.915   5.845 -0.3034  0.8554  0.8470
 4253TIP3    H212701   7.114   5.980   5.851 -0.0295  0.4581 -0.6569
 4254TIP3   OH212702   0.650   2.050   0.440 -0.5130  0.5305 -0.0077
 4254TIP3    H112703   0.686   2.037   0.352  1.1504 -1.2163  0.8440
 4254TIP3    H212704   0.666   2.143   0.459  0.9535  0.4798 -0.8192
 4255TIP3   OH212705   4.691   3.196   1.653 -0.1257  0.0444 -0.2310
 4255TIP3    H112706   4.700   3.209   1.748  1.8898 -0.0366 -0.3557
 4255TIP3    H212707   4.664   3.104   1.644 -0.3377  0.0542  0.2594
 4256TIP3   OH212708   3.161   7.356   2.905 -0.1450  0.4019 -0.2145
 4256TIP3    H112709   3.244   7.335   2.861  0.0636  2.0625 -0.6668
 4256TIP3    H212710   3.096   7.300   2.862  0.6278 -0.5082 -0.2393
 4257TIP3   OH212711   4.291   2.760   5.842  0.1962  0.7127  0.5685
 4257TIP3    H112712   4.296   2.852   5.868  0.3334  0.7860  0.2787
 4257TIP3    H212713   4.377   2.724   5.864  0.8975  1.1693 -1.3012
 4258TIP3   OH212714   2.531   4.830   6.666 -0.8430 -0.0297  0.1745
 4258TIP3    H112715   2.528   4.830   6.762  0.3392 -1.7072  0.2561
 4258TIP3    H212716   2.482   4.751   6.641 -1.1809  0.4231 -0.6175
 4259TIP3   OH212717   6.166   6.877   3.839  0.1776 -0.0645 -0.6828
 4259TIP3    H112718   6.181   6.969   3.817  2.4167  0.4639  2.3434
 4259TIP3    H212719   6.251   6.835   3.824 -0.6161 -1.5011 -1.3107
 4260TIP3   OH212720   1.624   7.360   0.799  0.0888 -0.0845 -0.2523
 4260TIP3    H112721   1.631   7.296   0.870  0.9145  0.2186 -0.0553
 4260TIP3    H212722   1.707   7.408   0.801 -0.6177  1.1639 -0.2419
 4261TIP3   OH212723   3.097   3.277   1.702  0.1207  0.5823 -0.0411
 4261TIP3    H112724   3.092   3.183   1.720  0.6255  0.4179 -0.7030
 4261TIP3    H212725   3.011   3.300   1.666  0.1012  0.3022 -0.1763
 4262TIP3   OH212726   7.112   4.705   3.230 -0.3306  0.5062  0.1955
 4262TIP3    H112727   7.157   4.673   3.308 -0.8532  0.3506  0.4417
 4262TIP3    H212728   7.180   4.711   3.163  0.0166  0.1136  0.5107
 4263TIP3   OH212729   6.466   4.923   0.288  0.2215 -0.5525 -0.2449
 4263TIP3    H112730   6.467   4.981   0.211  0.9928  0.2669  0.3570
 4263TIP3    H212731   6.426   4.976   0.357  0.2039 -1.0287  0.1133
 4264TIP3   OH212732   2.752   5.243   1.003  0.1355 -0.1817 -0.9685
 4264TIP3    H112733   2.809   5.199   0.940  1.4986  2.0978 -1.4572
 4264TIP3    H212734   2.810   5.268   1.074 -0.5658  0.8073 -0.7216
 4265TIP3   OH212735   6.274   0.748  -0.007 -0.1750 -0.6087 -0.0064
 4265TIP3    H112736   6.215   0.814   0.027 -0.3380 -0.9593  0.4003
 4265TIP3    H212737   6.357   0.763   0.039  0.1183  0.0064 -0.7185
 4266TIP3   OH212738   7.607   4.506   5.748  0.3624  0.2255  0.4752
 4266TIP3    H112739   7.567   4.582   5.790 -1.5612 -0.8502  0.6798
 4266TIP3    H212740   7.627   4.535   5.660 -2.7630  0.3136 -0.3223
 4267TIP3   OH212741   1.467   1.866   4.417 -0.1877 -0.0903  0.0604
 4267TIP3    H112742   1.524   1.806   4.369 -0.6363 -0.0881 -0.4834
 4267TIP3    H212743   1.475   1.839   4.509 -0.4091 -1.0110 -0.1802
 4268TIP3   OH212744   4.021   7.662   6.065 -0.0729  0.0003 -0.3006
 4268TIP3    H112745   3.947   7.701   6.019 -0.3311 -1.1138 -0.8518
 4268TIP3    H212746   3.983   7.619   6.141  0.1782  0.5597  0.1500
 4269TIP3   OH212747   3.385   7.151   2.164 -0.2822 -0.0840  0.2150
 4269TIP3    H112748   3.436   7.212   2.111  0.2215 -1.1148 -0.5104
 4269TIP3    H212749   3.306   7.200   2.187 -0.1736  0.6299 -0.8826
 4270TIP3   OH212750   4.839   5.631   5.688  0.1885 -0.6933  0.7128
 4270TIP3    H112751   4.887   5.549   5.697 -2.0292 -2.1107  0.3662
 4270TIP3    H212752   4.840   5.648   5.593 -0.5554 -1.0983  0.6285
 4271TIP3   OH212753   0.453   6.633   1.166 -0.2335 -0.7618  0.3462
 4271TIP3    H112754   0.515   6.599   1.101  0.4530  0.2985  0.4264
 4271TIP3    H212755   0.367   6.611   1.131  0.1623 -1.2531 -0.3349
 4272TIP3   OH212756   1.324   6.026   1.607  0.7901  1.0032  0.2815
 4272TIP3    H112757   1.318   5.930   1.607  0.6708  1.0061  0.8260
 4272TIP3    H212758   1.279   6.052   1.687  0.5595  1.5354 -0.0206
 4273TIP3   OH212759   7.963   4.752   1.922  0.0555  0.3830 -0.3484
 4273TIP3    H112760   7.983   4.822   1.859  2.2109  0.3290  0.2188
 4273TIP3    H212761   7.981   4.791   2.008 -0.2381 -0.3944  0.0738
 4274TIP3   OH212762   1.871   2.526   5.178 -0.5680 -0.0776 -0.3336
 4274TIP3    H112763   1.963   2.522   5.150  0.2834  3.7037  1.1562
 4274TIP3    H212764   1.873   2.500   5.270 -0.8550  0.4261 -0.1760
 4275TIP3   OH212765   0.116   1.770   3.287 -0.3757 -0.1348 -0.1297
 4275TIP3    H112766   0.064   1.775   3.368  1.9868 -0.0308  1.4688
 4275TIP3    H212767   0.157   1.684   3.290 -0.8963 -0.4554 -1.6665
 4276TIP3   OH212768   6.156   3.169   0.982 -0.1365 -0.0408 -0.7156
 4276TIP3    H112769   6.202   3.205   0.906  1.3302 -0.0414  0.1386
 4276TIP3    H212770   6.153   3.075   0.966  0.4900 -0.0799 -0.6160
 4277TIP3   OH212771   7.405   7.290   5.214  0.5441 -0.1775 -0.5624
 4277TIP3    H112772   7.409   7.386   5.211  1.4625 -0.2168 -1.0767
 4277TIP3    H212773   7.317   7.270   5.247  0.9916  0.8592  1.3591
 4278TIP3   OH212774   4.460   1.957   3.736 -0.1631 -0.1944 -0.3254
 4278TIP3    H112775   4.373   1.918   3.743  0.2160 -1.1799 -0.9461
 4278TIP3    H212776   4.461   2.024   3.805 -1.5771  0.1930 -0.6373
 4279TIP3   OH212777   4.597   4.761   4.625  0.1623 -0.1027 -0.0590
 4279TIP3    H112778   4.564   4.850   4.616  0.7092  0.4420  2.4656
 4279TIP3    H212779   4.688   4.767   4.596 -0.2178 -0.2084 -1.3086
 4280TIP3   OH212780   0.978   3.684   4.122 -0.3366 -0.3639  0.3878
 4280TIP3    H112781   0.966   3.607   4.066 -1.5683  0.1545 -0.1094
 4280TIP3    H212782   0.907   3.679   4.185 -0.3801  0.3093  0.4049
 4281TIP3   OH212783   4.739   2.371   3.285  0.8195  0.4219  0.0399
 4281TIP3    H112784   4.831   2.389   3.267  0.8193 -0.0618 -0.4698
 4281TIP3    H212785   4.701   2.456   3.308  0.6583  1.2438 -2.9237
 4282TIP3   OH212786   0.043   3.815   3.880 -0.2170 -0.0698  0.5503
 4282TIP3    H112787  -0.029   3.755   3.862 -0.0391 -0.6927  1.7754
 4282TIP3    H212788   0.003   3.886   3.931  0.3613 -1.6003  3.3589
 4283TIP3   OH212789   6.915   4.528   1.420  0.4256 -0.0916 -0.2824
 4283TIP3    H112790   6.880   4.545   1.333  2.3525  1.0516 -0.8974
 4283TIP3    H212791   6.962   4.445   1.411 -1.1467 -1.1024  0.2860
 4284TIP3   OH212792   7.504   5.954   5.892 -0.2443 -0.0339  0.2872
 4284TIP3    H112793   7.486   5.898   5.816  0.5285 -0.4659  0.4147
 4284TIP3    H212794   7.489   5.897   5.967  1.6367 -0.4347  0.4025
 4285TIP3   OH212795   5.069   4.899   3.374 -0.0923  0.1446 -0.0456
 4285TIP3    H112796   5.078   4.990   3.345  0.2359 -0.4075 -1.8432
 4285TIP3    H212797   5.028   4.905   3.460 -2.2068  1.9106 -1.0747
 4286TIP3   OH212798   6.525   1.401   2.536 -0.5693 -0.8236 -0.1414
 4286TIP3    H112799   6.544   1.363   2.621 -0.9952 -0.8966 -0.0788
 4286TIP3    H212800   6.605   1.449   2.513 -1.1973  1.0635  1.3003
 4287TIP3   OH212801   5.343   4.153   5.821 -0.0806 -0.1151  0.5694
 4287TIP3    H112802   5.366   4.093   5.751  0.7871  1.5641 -0.6603
 4287TIP3    H212803   5.395   4.124   5.896 -0.8319 -1.7770  0.5048
 4288TIP3   OH212804   8.085   6.064   3.935 -0.5732  0.2854  0.7864
 4288TIP3    H112805   8.011   6.004   3.938 -0.9020  0.7168  1.4344
 4288TIP3    H212806   8.080   6.113   4.017 -0.8773  1.8788 -0.1496
 4289TIP3   OH212807   8.182   4.437   6.717  0.2139  0.2171  0.2638
 4289TIP3    H112808   8.247   4.379   6.677 -1.0822 -0.2292 -1.3122
 4289TIP3    H212809   8.223   4.524   6.716  1.3026 -0.2770  0.5731
 4290TIP3   OH212810   7.352   0.137   4.733  0.2655 -0.5071  0.1170
 4290TIP3    H112811   7.287   0.180   4.789 -0.1488 -1.9000  0.7598
 4290TIP3    H212812   7.428   0.195   4.736 -0.7608  0.9010 -0.2515
 4291TIP3   OH212813   2.482   5.044   4.127  0.2537  0.1817  0.1196
 4291TIP3    H112814   2.467   5.102   4.052  1.1291 -0.1710 -0.3482
 4291TIP3    H212815   2.443   4.961   4.101  1.1598 -0.1417 -0.2464
 4292TIP3   OH212816   8.186   0.381   1.032 -0.3914  0.7955 -0.1982
 4292TIP3    H112817   8.094   0.357   1.025 -0.1161 -0.8208  1.1884
 4292TIP3    H212818   8.230   0.330   0.964 -0.5248  1.7721 -1.0416
 4293TIP3   OH212819   0.674   4.385   0.807 -0.0203  0.5706  0.0532
 4293TIP3    H112820   0.624   4.370   0.887  0.3599  0.6090  0.3007
 4293TIP3    H212821   0.730   4.460   0.828 -0.7866  1.3686 -0.6500
 4294TIP3   OH212822   6.055   2.882   5.176 -0.1939  0.3487 -0.2583
 4294TIP3    H112823   6.137   2.931   5.176  0.9434 -1.4397 -0.1583
 4294TIP3    H212824   6.016   2.900   5.261  0.9414 -0.0586  0.3771
 4295TIP3   OH212825   4.022   7.519   4.619  0.1495 -0.2544  0.0066
 4295TIP3    H112826   3.989   7.459   4.687 -0.6074  0.4756  0.2954
 4295TIP3    H212827   4.090   7.469   4.574 -0.8119 -1.5229 -0.0886
 4296TIP3   OH212828   5.093   2.268   6.242  0.7510 -0.5142 -0.1483
 4296TIP3    H112829   5.022   2.232   6.295 -0.3243  0.6905 -0.7182
 4296TIP3    H212830   5.071   2.361   6.232  1.8994 -0.3287 -1.1681
 4297TIP3   OH212831   5.790   1.771   1.582 -0.1790  0.1903  0.7921
 4297TIP3    H112832   5.825   1.792   1.668  0.5123  0.6409  0.4081
 4297TIP3    H212833   5.744   1.850   1.554 -0.3487  0.0677  0.7216
 4298TIP3   OH212834   2.235   2.374   2.125 -0.6846 -0.3573 -0.4121
 4298TIP3    H112835   2.212   2.294   2.171  0.1101 -1.2190 -1.4612
 4298TIP3    H212836   2.205   2.444   2.182 -2.2748 -1.3899  0.0826
 4299TIP3   OH212837   0.029   5.053   2.387 -0.0561 -0.0236  0.4893
 4299TIP3    H112838  -0.029   5.089   2.454  2.7253  0.9190  2.5492
 4299TIP3    H212839   0.025   4.958   2.400 -2.1511 -0.1343 -0.4265
 4300TIP3   OH212840   2.046   2.541   2.652  0.1600  0.6270 -0.2663
 4300TIP3    H112841   1.954   2.545   2.676 -0.1631 -0.1089 -1.3278
 4300TIP3    H212842   2.057   2.457   2.608  1.5700  0.2460  0.7348
 4301TIP3   OH212843   1.129   4.727   2.747  0.0668  0.2503  0.2315
 4301TIP3    H112844   1.079   4.803   2.716  0.0002  0.0186 -0.2291
 4301TIP3    H212845   1.068   4.680   2.804  0.0113  0.3834  0.2827
 4302TIP3   OH212846   6.135   3.969   3.740 -0.0637 -0.7743 -0.4602
 4302TIP3    H112847   6.105   3.894   3.791 -0.3451  0.6799  1.6720
 4302TIP3    H212848   6.196   3.932   3.677 -1.2615 -2.9517 -0.4459
 4303TIP3   OH212849   1.000   2.708   4.281  0.3129  0.0118  0.3191
 4303TIP3    H112850   0.931   2.669   4.227 -0.2962  0.8766  0.4480
 4303TIP3    H212851   1.029   2.637   4.339 -0.8030 -0.2415  0.5857
 4304TIP3   OH212852   6.765   3.682   5.519  0.2271 -0.4145 -0.1430
 4304TIP3    H112853   6.738   3.710   5.432 -0.4527  2.5376  0.9302
 4304TIP3    H212854   6.684   3.655   5.563 -0.2843  2.7443  1.0882
 4305TIP3   OH212855   6.403   2.948   5.720 -0.6315 -0.2390  0.1640
 4305TIP3    H112856   6.423   2.994   5.801  2.3731  0.3401 -0.7883
 4305TIP3    H212857   6.444   2.862   5.730  0.0406 -0.0490 -0.8252
 4306TIP3   OH212858   3.936   3.844   0.533  0.0309  0.4464 -0.4512
 4306TIP3    H112859   3.928   3.938   0.512  1.6107  1.0594  1.4184
 4306TIP3    H212860   3.930   3.801   0.448  0.0024  2.3053 -1.4638
 4307TIP3   OH212861   4.789   4.583   1.090 -0.9019 -0.3372  0.5661
 4307TIP3    H112862   4.869   4.551   1.048 -1.6695 -3.6083  1.2688
 4307TIP3    H212863   4.780   4.673   1.060  2.1249 -0.3796 -0.8569
 4308TIP3   OH212864   2.392   4.968   6.107 -0.2457  0.5858  0.2391
 4308TIP3    H112865   2.374   4.942   6.197  1.2186 -2.4366 -0.2035
 4308TIP3    H212866   2.306   4.972   6.065 -0.7841 -0.6577  1.1652
 4309TIP3   OH212867   1.603   1.627   3.341 -0.1000  0.0580 -0.1691
 4309TIP3    H112868   1.698   1.633   3.339 -0.0446 -0.5772 -2.4888
 4309TIP3    H212869   1.574   1.671   3.261 -1.7092 -0.3510  0.1409
 4310TIP3   OH212870   2.089   5.671   4.609 -0.5268 -0.2039  0.1033
 4310TIP3    H112871   2.162   5.728   4.633 -0.6084 -0.7172  1.6716
 4310TIP3    H212872   2.016   5.731   4.592 -0.0067  0.2610 -0.4944
 4311TIP3   OH212873   3.421   6.627   6.207  0.2528 -0.1731  0.2052
 4311TIP3    H112874   3.355   6.696   6.214  0.8312  0.2816  1.8520
 4311TIP3    H212875   3.371   6.546   6.203 -0.4264  0.2073  0.6687
 4312TIP3   OH212876   2.033   1.551   2.352 -0.0748  0.1395 -0.2348
 4312TIP3    H112877   2.004   1.465   2.321 -0.5865  0.3109 -0.2336
 4312TIP3    H212878   2.129   1.545   2.353 -0.0981 -0.3050 -0.5921
 4313TIP3   OH212879   1.533   4.190   3.423 -0.2695 -0.6657  0.4454
 4313TIP3    H112880   1.620   4.190   3.464 -0.4173  0.8745  0.8351
 4313TIP3    H212881   1.496   4.275   3.447 -0.9491 -0.3217 -1.6596
 4314TIP3   OH212882   7.796   0.974   0.475  0.4600 -0.0341  0.2540
 4314TIP3    H112883   7.843   1.054   0.500 -0.2158  0.2843  0.5342
 4314TIP3    H212884   7.835   0.905   0.529  0.7973  0.1709  0.2735
 4315TIP3   OH212885   3.374   1.846   4.248 -0.8092 -0.1212 -0.5017
 4315TIP3    H112886   3.395   1.817   4.160  1.4935 -0.3826  0.0738
 4315TIP3    H212887   3.356   1.765   4.296  2.1332 -0.4795  0.2270
 4316TIP3   OH212888   0.579   3.247   3.936  0.5473 -0.0414  0.1909
 4316TIP3    H112889   0.573   3.165   3.986  1.1712 -1.5333 -2.0465
 4316TIP3    H212890   0.634   3.225   3.861  2.6716  3.0700  0.6495
 4317TIP3   OH212891   5.090   0.949   2.736 -0.1922  0.7169  0.0839
 4317TIP3    H112892   5.088   1.032   2.689 -0.8733  1.0912  0.7317
 4317TIP3    H212893   5.070   0.973   2.827  0.3954 -0.0635  0.4293
 4318TIP3   OH212894   0.646   7.867   1.070  0.7752 -0.5103  0.2084
 4318TIP3    H112895   0.712   7.915   1.021  1.6626 -0.3296  1.5389
 4318TIP3    H212896   0.694   7.825   1.141 -0.6582  0.5556  1.9076
 4319TIP3   OH212897   2.854   4.588   6.338  0.2974  0.2679  0.1286
 4319TIP3    H112898   2.787   4.657   6.344 -0.0266  0.2794 -2.4634
 4319TIP3    H212899   2.814   4.513   6.381  0.4573  1.4997  2.5673
 4320TIP3   OH212900   3.084   4.794   5.903  0.5112 -0.1487  0.2075
 4320TIP3    H112901   3.172   4.801   5.939 -0.5617 -0.0747  3.0744
 4320TIP3    H212902   3.034   4.749   5.971 -1.2089 -2.2071 -2.2577
 4321TIP3   OH212903   2.897   2.463   3.295  0.9575 -0.5404  0.4751
 4321TIP3    H112904   2.919   2.537   3.351  1.5070 -0.3299 -0.0071
 4321TIP3    H212905   2.835   2.411   3.346  1.8860 -0.6647  1.5168
 4322TIP3   OH212906   0.583   0.377   3.736 -0.1469  0.8566 -0.6055
 4322TIP3    H112907   0.656   0.318   3.756 -0.4353  0.6499 -0.1524
 4322TIP3    H212908   0.625   0.458   3.707  0.2581  0.5043 -1.0366
 4323TIP3   OH212909   6.290   7.706   2.756  0.4479  0.7239 -0.7426
 4323TIP3    H112910   6.218   7.760   2.723 -1.1263 -0.6195  0.3592
 4323TIP3    H212911   6.258   7.671   2.839  1.3611 -1.9280 -1.4174
 4324TIP3   OH212912   5.321   1.964   0.591 -0.4431 -0.3911  0.1322
 4324TIP3    H112913   5.276   1.891   0.550 -1.7965  0.4447  0.0609
 4324TIP3    H212914   5.259   1.998   0.655 -0.2295  1.2426 -0.4698
 4325TIP3   OH212915   5.244   6.593   3.891  0.2826  0.1689 -0.4038
 4325TIP3    H112916   5.255   6.638   3.806  1.8021  1.3180  0.3417
 4325TIP3    H212917   5.150   6.587   3.903  0.0392  1.1702 -1.5957
 4326TIP3   OH212918   0.677   0.971   1.302 -0.1146  0.0172 -0.8081
 4326TIP3    H112919   0.744   1.022   1.348 -0.9097  0.1493  0.2525
 4326TIP3    H212920   0.703   0.880   1.314 -0.4721  0.0283  0.2295
 4327TIP3   OH212921   5.419   7.417   0.091  0.4617  0.3551  0.0710
 4327TIP3    H112922   5.374   7.464   0.162  0.7033  0.1717  0.3477
 4327TIP3    H212923   5.438   7.485   0.026  0.4507  0.5685  0.2897
 4328TIP3   OH212924   5.821   6.882   5.476  0.0812 -0.2695 -0.1530
 4328TIP3    H112925   5.740   6.861   5.430  1.3397  1.8051 -3.7094
 4328TIP3    H212926   5.797   6.956   5.533 -0.6779 -0.1311 -0.6370
 4329TIP3   OH212927   7.995   5.526   2.068  0.4051  0.4174 -0.4548
 4329TIP3    H112928   7.914   5.565   2.102  0.0494  0.9286 -1.8088
 4329TIP3    H212929   8.065   5.580   2.105  0.2483 -0.6172  1.5236
 4330TIP3   OH212930   7.525   1.369   3.461 -0.3563  0.9247  0.0467
 4330TIP3    H112931   7.541   1.370   3.367  0.4116 -2.2789  0.0152
 4330TIP3    H212932   7.607   1.337   3.499 -1.3518 -0.0491  1.5281
 4331TIP3   OH212933   6.093   4.105   1.716  0.0206  0.4048 -0.3518
 4331TIP3    H112934   6.076   4.139   1.804  0.0557 -2.3839  0.8364
 4331TIP3    H212935   6.027   4.148   1.661 -0.9893  1.1196  1.3190
 4332TIP3   OH212936   7.191   5.090   5.299  0.7791 -0.4929 -0.0742
 4332TIP3    H112937   7.178   5.037   5.220  0.6494  1.1251 -1.2047
 4332TIP3    H212938   7.160   5.036   5.371 -0.1426 -1.5953 -1.2679
 4333TIP3   OH212939   2.416   5.722   0.713  0.1201  0.1669 -0.3831
 4333TIP3    H112940   2.412   5.638   0.667 -1.1598 -1.4223  2.3629
 4333TIP3    H212941   2.506   5.727   0.745  0.4038  0.2256 -1.1656
 4334TIP3   OH212942   1.468   3.393   0.314 -0.1502  0.1033 -0.2717
 4334TIP3    H112943   1.420   3.472   0.294 -0.0070  0.0361 -0.8831
 4334TIP3    H212944   1.436   3.328   0.252 -0.5728 -0.4471  0.4925
 4335TIP3   OH212945   3.563   2.783   6.426 -0.5523 -0.7793 -0.1225
 4335TIP3    H112946   3.502   2.855   6.446 -1.1902 -1.5293  0.7369
 4335TIP3    H212947   3.577   2.790   6.331 -1.3331 -0.0824 -0.2092
 4336TIP3   OH212948   2.366   4.922   6.392 -0.0310  0.2717 -0.2673
 4336TIP3    H112949   2.325   4.844   6.429 -0.4371  0.5637 -0.1005
 4336TIP3    H212950   2.343   4.993   6.452  0.5374  0.4825 -0.2859
 4337TIP3   OH212951   4.781   5.022   3.440  0.0003  0.1349 -0.0307
 4337TIP3    H112952   4.805   5.115   3.443 -0.8808  0.3584  2.2238
 4337TIP3    H212953   4.724   5.014   3.364  1.0175  1.1772 -0.9361
 4338TIP3   OH212954   0.847   3.559   1.784  0.2168 -0.2501  0.1689
 4338TIP3    H112955   0.847   3.628   1.717 -1.5699  1.0914  1.4414
 4338TIP3    H212956   0.923   3.579   1.839 -1.6330  2.4036  2.0218
 4339TIP3   OH212957   5.255   6.898   4.391  0.4600  0.4523 -0.0939
 4339TIP3    H112958   5.246   6.943   4.474 -1.8545 -1.4186  0.7792
 4339TIP3    H212959   5.309   6.957   4.337 -1.4469  3.7172  1.2651
 4340TIP3   OH212960   5.869   1.545   0.967 -0.2569 -0.2200  0.1979
 4340TIP3    H112961   5.832   1.460   0.944  1.3000 -1.2566  1.3079
 4340TIP3    H212962   5.841   1.604   0.897 -1.9444 -1.4757 -0.2332
 4341TIP3   OH212963   6.700   4.114   3.639  0.1588 -0.3460  0.0893
 4341TIP3    H112964   6.710   4.099   3.734  2.0303 -0.3119 -0.0578
 4341TIP3    H212965   6.610   4.089   3.620 -0.7131  0.9958  2.1274
 4342TIP3   OH212966   1.715   5.222   4.185 -0.4821 -0.0798  0.5767
 4342TIP3    H112967   1.647   5.288   4.195 -0.3621  0.2004 -0.3843
 4342TIP3    H212968   1.757   5.218   4.271 -1.8571 -0.4384  1.2619
 4343TIP3   OH212969   7.552   7.062   0.224  0.7218 -0.2015 -0.0054
 4343TIP3    H112970   7.466   7.031   0.255  0.8929 -1.2200 -0.5154
 4343TIP3    H212971   7.608   6.985   0.227  1.4381  0.2951 -0.3554
 4344TIP3   OH212972   6.483   2.586   0.290  0.3280 -0.1156  0.0691
 4344TIP3    H112973   6.398   2.552   0.263  0.8866 -1.1455 -0.4400
 4344TIP3    H212974   6.480   2.679   0.267 -1.6788  0.5863  2.5774
 4345TIP3   OH212975   0.179   3.845   3.258 -0.0895 -0.5300 -0.9724
 4345TIP3    H112976   0.117   3.773   3.244 -0.3071 -0.2636 -1.3672
 4345TIP3    H212977   0.236   3.813   3.328 -0.6293 -0.8004 -0.6549
 4346TIP3   OH212978   6.165   4.696   4.278 -0.4833 -0.2211 -0.9713
 4346TIP3    H112979   6.201   4.784   4.277  1.2087 -0.8791 -1.0241
 4346TIP3    H212980   6.158   4.672   4.185 -0.1416 -0.4550 -0.9367
 4347TIP3   OH212981   3.225   3.126   3.771 -0.3442  0.5020 -0.3620
 4347TIP3    H112982   3.163   3.097   3.838 -0.0253 -2.6433 -1.2400
 4347TIP3    H212983   3.290   3.177   3.819 -1.1938  0.0607  1.3600
 4348TIP3   OH212984   0.212   5.020   2.966 -0.5435  0.3181  0.7650
 4348TIP3    H112985   0.117   5.010   2.971 -0.4113 -2.3129 -0.2732
 4348TIP3    H212986   0.228   5.052   2.877 -0.4365  0.6786  0.9104
 4349TIP3   OH212987   6.980   5.179   0.514  0.0389 -0.1417  0.3920
 4349TIP3    H112988   7.040   5.224   0.573  0.0072 -0.0105  0.3249
 4349TIP3    H212989   6.960   5.244   0.447  0.0123 -0.2654  0.2812
 4350TIP3   OH212990   4.670   5.807   3.673 -0.4568 -0.6733 -0.4341
 4350TIP3    H112991   4.600   5.766   3.623  0.9893 -4.6277  0.4123
 4350TIP3    H212992   4.626   5.868   3.732 -2.7069 -0.1465 -2.4915
 4351TIP3   OH212993   5.169   5.799   4.979  0.1886 -0.3272  0.0848
 4351TIP3    H112994   5.079   5.782   5.004  0.2821 -0.5056  0.3053
 4351TIP3    H212995   5.200   5.863   5.044  0.9309 -2.0033  1.4382
 4352TIP3   OH212996   5.732   0.721   2.224 -0.2249 -0.5478  0.1770
 4352TIP3    H112997   5.716   0.815   2.233  2.2857  0.1682 -1.7232
 4352TIP3    H212998   5.664   0.690   2.164 -1.1380  0.0027  0.9121
 4353TIP3   OH212999   7.212   7.079   3.530  0.5962 -0.1462 -0.7068
 4353TIP3    H113000   7.215   6.985   3.511 -0.8538 -0.7947  1.7942
 4353TIP3    H213001   7.119   7.097   3.548  0.8996  1.7065 -0.7890
 4354TIP3   OH213002   3.681   3.648   4.295 -0.9195 -0.1799 -0.0554
 4354TIP3    H113003   3.698   3.607   4.380 -1.0730  0.9267  0.5338
 4354TIP3    H213004   3.674   3.742   4.315 -1.5417  0.0344 -1.2009
 4355TIP3   OH213005   5.760   2.377   5.119  0.3033  0.2826  0.3222
 4355TIP3    H113006   5.748   2.366   5.025 -0.0177 -0.5654  0.4492
 4355TIP3    H213007   5.847   2.417   5.128 -0.8201  3.1452 -0.4488
 4356TIP3   OH213008   5.887   3.260   6.697 -0.5805 -0.0672 -0.3608
 4356TIP3    H113009   5.803   3.229   6.732  0.3386 -2.2979  0.0389
 4356TIP3    H213010   5.931   3.298   6.772 -0.3847 -0.8482 -0.0729
 4357TIP3   OH213011   4.728   6.464   1.379  0.0871 -0.1254  0.2627
 4357TIP3    H113012   4.677   6.539   1.349 -0.1562  0.1797  1.3832
 4357TIP3    H213013   4.715   6.462   1.474  0.9336 -0.9589  0.3849
 4358TIP3   OH213014   7.250   0.632   6.162 -0.3007  0.7023  0.0340
 4358TIP3    H113015   7.237   0.566   6.094  0.0795 -0.0777  0.7058
 4358TIP3    H213016   7.167   0.680   6.164 -0.9187 -0.3334  0.1423
 4359TIP3   OH213017   0.396   6.628   0.754  0.0803 -0.0897 -0.4075
 4359TIP3    H113018   0.362   6.542   0.779  2.7219 -0.5323  2.2474
 4359TIP3    H213019   0.441   6.613   0.671 -1.4893 -0.6756 -1.1820
 4360TIP3   OH213020   0.466   1.864   2.574  0.0156 -0.0443 -0.0288
 4360TIP3    H113021   0.448   1.934   2.512  0.2330  0.3368  0.3340
 4360TIP3    H213022   0.379   1.828   2.595 -0.4374  1.8684  1.7985
 4361TIP3   OH213023   1.890   0.898   3.224  0.2962 -0.2329 -0.4605
 4361TIP3    H113024   1.881   0.848   3.306  1.0985  0.0748 -0.1700
 4361TIP3    H213025   1.836   0.851   3.161 -0.5030 -0.3618  0.2981
 4362TIP3   OH213026   2.290   6.812   2.721  0.3222 -0.0656 -0.2577
 4362TIP3    H113027   2.361   6.866   2.754  0.0942  0.6658 -0.9413
 4362TIP3    H213028   2.273   6.846   2.633  0.2290 -1.2936 -0.7418
 4363TIP3   OH213029   0.305   4.159   6.212 -0.5241  0.2721  0.1483
 4363TIP3    H113030   0.319   4.197   6.126 -0.6572 -1.4147 -0.6580
 4363TIP3    H213031   0.247   4.084   6.197 -1.2035  0.3954  1.8230
 4364TIP3   OH213032   0.768   5.552   5.675  0.2849 -0.2708  0.2603
 4364TIP3    H113033   0.678   5.520   5.674 -0.4132  1.5834 -1.2202
 4364TIP3    H213034   0.781   5.587   5.763 -0.0717 -1.4398  0.7955
 4365TIP3   OH213035   3.683   3.818   6.536  0.5117 -0.3764 -0.6463
 4365TIP3    H113036   3.628   3.788   6.608  0.2301  0.6845 -0.4014
 4365TIP3    H213037   3.704   3.909   6.559 -0.2290  0.2398 -2.2738
 4366TIP3   OH213038   0.880   6.635   2.583 -0.9862 -0.6439  0.1578
 4366TIP3    H113039   0.868   6.726   2.558 -0.6866 -0.7866 -0.5200
 4366TIP3    H213040   0.918   6.639   2.671 -0.1340 -0.0920 -0.2178
 4367TIP3   OH213041   6.601   6.994   4.999 -0.5688  0.2276 -0.0115
 4367TIP3    H113042   6.597   6.944   5.081 -0.3793 -0.3025 -0.3193
 4367TIP3    H213043   6.509   7.012   4.978 -0.7257 -0.9855 -0.4808
 4368TIP3   OH213044   1.167   6.004   5.692 -0.2629  0.1341  0.3235
 4368TIP3    H113045   1.133   5.928   5.738 -0.1975  0.3327  0.6999
 4368TIP3    H213046   1.092   6.039   5.644 -0.4473  0.2093  0.6632
 4369TIP3   OH213047   8.204   0.374   1.616 -0.1605 -0.3839  0.2118
 4369TIP3    H113048   8.123   0.360   1.566 -1.5892  0.5233  2.1155
 4369TIP3    H213049   8.242   0.286   1.625 -0.9368 -0.8332 -0.7127
 4370TIP3   OH213050   5.716   5.968   2.588 -0.0085 -0.8212 -0.1187
 4370TIP3    H113051   5.725   5.924   2.673 -0.2193 -2.7617 -1.0305
 4370TIP3    H213052   5.626   6.002   2.588  0.5871  0.9196  1.1416
 4371TIP3   OH213053   5.923   5.484   0.134 -0.7919  0.2101  0.1048
 4371TIP3    H113054   5.896   5.559   0.082 -1.0693  1.1218  1.5190
 4371TIP3    H213055   5.875   5.410   0.096 -1.0185  0.8525 -0.8895
 4372TIP3   OH213056   1.835   7.099   5.563  0.1815 -0.1161 -0.2014
 4372TIP3    H113057   1.892   7.168   5.529 -0.8456  0.3467 -1.0348
 4372TIP3    H213058   1.800   7.056   5.485 -1.9364  0.7171  0.2375
 4373TIP3   OH213059   8.016   2.681   1.679  0.8411 -0.8485 -0.3620
 4373TIP3    H113060   7.962   2.746   1.724  0.7429 -0.8232 -0.5185
 4373TIP3    H213061   8.106   2.704   1.704  0.7513 -1.2266  0.3469
 4374TIP3   OH213062   6.953   4.615   5.023  0.0239  0.5665  0.4934
 4374TIP3    H113063   7.013   4.540   5.016 -0.1974  0.4483 -0.3182
 4374TIP3    H213064   6.997   4.685   4.974 -0.7640  0.2877 -0.6677
 4375TIP3   OH213065   2.648   0.200   0.752 -0.2185  0.5698 -0.2229
 4375TIP3    H113066   2.567   0.232   0.712 -0.4150  0.7513  0.3133
 4375TIP3    H213067   2.718   0.237   0.697 -0.4965  0.2588 -0.8011
 4376TIP3   OH213068   1.220   0.474   1.510  0.0210  0.0679  0.0059
 4376TIP3    H113069   1.291   0.531   1.480  0.6022 -0.9365 -0.5682
 4376TIP3    H213070   1.150   0.485   1.446  0.2245 -0.0519 -0.2353
 4377TIP3   OH213071   3.492   5.493   6.638 -0.0843 -0.3595 -0.1069
 4377TIP3    H113072   3.528   5.491   6.726 -0.1331  0.4672 -0.0565
 4377TIP3    H213073   3.417   5.552   6.644  0.4251  0.3913 -0.8834
 4378TIP3   OH213074   5.012   1.719   1.789  0.0995  0.0222  0.3125
 4378TIP3    H113075   5.059   1.801   1.769  1.0193 -0.2958  1.0602
 4378TIP3    H213076   4.946   1.711   1.720  0.7638  0.7977 -0.4362
 4379TIP3   OH213077   3.291   4.070   2.391  0.1611  0.4344 -0.2421
 4379TIP3    H113078   3.200   4.067   2.364  0.1759  0.1175 -0.2582
 4379TIP3    H213079   3.288   4.070   2.487  0.2054 -2.8434 -0.1383
 4380TIP3   OH213080   1.945   6.466   0.919  0.1837  0.4381  0.0741
 4380TIP3    H113081   2.036   6.477   0.948  0.7478  1.2467 -1.8688
 4380TIP3    H213082   1.928   6.542   0.864 -1.6697  0.2486  0.3363
 4381TIP3   OH213083   6.616   2.400   3.063 -0.1472 -0.3637 -0.2577
 4381TIP3    H113084   6.611   2.345   3.141 -0.0481 -0.5748 -0.4009
 4381TIP3    H213085   6.643   2.486   3.096 -1.4706 -0.0651  0.1215
 4382TIP3   OH213086   3.170   0.622   0.550 -0.0671 -0.5644 -0.1713
 4382TIP3    H113087   3.195   0.530   0.536 -0.4385 -1.3118  3.2766
 4382TIP3    H213088   3.081   0.628   0.514  0.2321 -1.3269 -1.0864
 4383TIP3   OH213089   4.653   7.138   2.815 -0.1518 -0.3535 -0.1044
 4383TIP3    H113090   4.614   7.112   2.899 -2.0667  0.0755 -0.8079
 4383TIP3    H213091   4.589   7.197   2.776  1.4527  0.7720 -1.1579
 4384TIP3   OH213092   2.420   3.574   2.876  0.3774 -0.1917 -0.6520
 4384TIP3    H113093   2.338   3.525   2.879  0.5611 -0.4713 -0.1979
 4384TIP3    H213094   2.483   3.515   2.835  0.6934 -0.4820  0.2294
 4385TIP3   OH213095   4.076   6.949   0.418 -0.2209  0.2199  0.1540
 4385TIP3    H113096   4.165   6.923   0.440 -0.4518 -1.3040 -0.5467
 4385TIP3    H213097   4.054   7.017   0.482  1.0590 -0.1303  1.0064
 4386TIP3   OH213098   6.952   3.647   4.045  0.2525  0.0498 -0.3749
 4386TIP3    H113099   6.959   3.575   3.982  1.1284  1.3335 -1.8212
 4386TIP3    H213100   6.880   3.701   4.012 -0.3584 -0.1037  0.6615
 4387TIP3   OH213101   3.442   2.742   5.216  0.0892  0.4076  0.4818
 4387TIP3    H113102   3.490   2.818   5.250  0.4401 -0.7550  2.7938
 4387TIP3    H213103   3.351   2.771   5.213  0.1530  0.8111  1.7798
 4388TIP3   OH213104   4.251   5.519   3.651 -0.1793  0.1707 -0.7245
 4388TIP3    H113105   4.295   5.528   3.736 -0.0079  1.0038 -0.8920
 4388TIP3    H213106   4.181   5.585   3.653  0.0670  0.4661 -1.3730
 4389TIP3   OH213107   6.816   7.280   3.757  0.1324 -0.0878 -0.3963
 4389TIP3    H113108   6.721   7.284   3.759  0.0356 -1.5822 -0.7055
 4389TIP3    H213109   6.845   7.365   3.791 -1.3001  0.8860 -1.4771
 4390TIP3   OH213110   8.336   0.127   1.650 -0.3050 -0.0745  0.0939
 4390TIP3    H113111   8.403   0.084   1.596 -1.7012 -1.5537 -0.5494
 4390TIP3    H213112   8.269   0.060   1.663 -2.1961  1.6571 -0.2024
 4391TIP3   OH213113   7.084   0.712   0.189  0.7327  0.3497 -0.0984
 4391TIP3    H113114   7.166   0.666   0.206  0.2827 -0.0714  1.0443
 4391TIP3    H213115   7.110   0.793   0.145  1.6784 -0.1786 -0.5224
 4392TIP3   OH213116   1.181   3.252   3.455 -0.0977 -0.1480  0.4654
 4392TIP3    H113117   1.194   3.173   3.403  1.4505  0.7529 -0.6389
 4392TIP3    H213118   1.268   3.292   3.460 -0.1370 -0.2133  3.9165
 4393TIP3   OH213119   7.110   1.626   6.326  0.2427 -0.3649 -0.3247
 4393TIP3    H113120   7.084   1.616   6.234 -2.5202 -0.4963  0.3662
 4393TIP3    H213121   7.073   1.549   6.370  1.6781 -0.4094  0.8854
 4394TIP3   OH213122   1.090   6.369   2.501  0.2308 -0.1109 -0.4293
 4394TIP3    H113123   1.074   6.454   2.542  1.1155 -0.3129  0.3861
 4394TIP3    H213124   1.003   6.334   2.484 -0.1537  0.4901  0.2277
 4395TIP3   OH213125   0.082   4.629   0.585 -0.0084  0.3409  0.1131
 4395TIP3    H113126  -0.006   4.591   0.594  0.1813 -0.9960 -2.6692
 4395TIP3    H213127   0.070   4.702   0.524  0.5306  1.3369  1.1807
 4396TIP3   OH213128   7.338   7.180   1.815  0.5704  0.4666  0.0252
 4396TIP3    H113129   7.377   7.093   1.828  0.8058  0.5451 -0.1320
 4396TIP3    H213130   7.259   7.163   1.763  1.1280  0.4363 -0.8357
 4397TIP3   OH213131   2.169   2.297   4.785  0.0961 -0.3810 -0.7670
 4397TIP3    H113132   2.245   2.262   4.739  0.6433 -0.8662  0.4512
 4397TIP3    H213133   2.100   2.303   4.719  1.1596 -0.0285 -1.8659
 4398TIP3   OH213134   7.102   3.672   5.932  0.1347 -0.0229 -0.8219
 4398TIP3    H113135   7.016   3.703   5.904 -1.1646  0.6709  3.2911
 4398TIP3    H213136   7.161   3.745   5.913 -0.5663  0.3252 -1.7639
 4399TIP3   OH213137   2.462   4.498   4.131  0.2415  0.6718 -0.3086
 4399TIP3    H113138   2.397   4.435   4.163 -0.8763  0.6560 -2.4444
 4399TIP3    H213139   2.545   4.468   4.169 -0.5759 -0.9271  0.3179
 4400TIP3   OH213140   3.337   5.144   4.546  0.3599  0.0768 -0.3525
 4400TIP3    H113141   3.345   5.232   4.584 -2.1121  1.1965 -2.1838
 4400TIP3    H213142   3.355   5.157   4.453  1.4385 -1.6872 -0.4332
 4401TIP3   OH213143   4.616   2.998   0.843  0.6271  0.8170  0.1223
 4401TIP3    H113144   4.636   3.090   0.828 -2.3401  1.7974  1.3525
 4401TIP3    H213145   4.547   2.978   0.779 -0.5741  0.2619  1.5293
 4402TIP3   OH213146   1.084   0.786   3.607  0.0864 -0.0781 -0.0098
 4402TIP3    H113147   1.174   0.771   3.637 -0.0489 -1.6110 -0.2956
 4402TIP3    H213148   1.092   0.793   3.512 -0.0823  0.0465 -0.0158
 4403TIP3   OH213149   4.825   2.522   1.984 -0.4665  0.1053  0.4523
 4403TIP3    H113150   4.872   2.552   2.061  0.2820 -0.6184  0.2856
 4403TIP3    H213151   4.828   2.596   1.923  1.6718 -0.3908 -0.0988
 4404TIP3   OH213152   0.157   0.727   1.249  0.3305  0.2246  0.2217
 4404TIP3    H113153   0.208   0.770   1.318 -0.9907 -3.1079  3.5628
 4404TIP3    H213154   0.198   0.641   1.239 -1.1850 -0.3874 -1.2086
 4405TIP3   OH213155   0.411   4.404   2.205 -0.0719  0.6390  0.4551
 4405TIP3    H113156   0.489   4.360   2.236 -0.8117 -0.3766  0.9366
 4405TIP3    H213157   0.428   4.497   2.219  0.5174  0.3460  1.8286
 4406TIP3   OH213158   2.340   4.601   2.528  0.7725  0.2219 -0.1300
 4406TIP3    H113159   2.339   4.505   2.533 -0.7781  0.2648  1.0786
 4406TIP3    H213160   2.433   4.624   2.523  1.1409 -1.3653 -1.4547
 4407TIP3   OH213161   3.271   2.222   4.703  0.1087 -0.3647 -0.1900
 4407TIP3    H113162   3.300   2.134   4.679  1.8053  0.1487 -0.1614
 4407TIP3    H213163   3.301   2.277   4.630 -0.5437  0.2574  0.0026
 4408TIP3   OH213164   5.476   4.310   0.211 -0.3056 -0.0399 -0.3156
 4408TIP3    H113165   5.412   4.250   0.172  0.6268 -0.8068 -0.7240
 4408TIP3    H213166   5.557   4.295   0.161  0.0644  1.2867 -0.1710
 4409TIP3   OH213167   0.010   2.439   6.327  0.3453  0.2914  0.5872
 4409TIP3    H113168  -0.003   2.533   6.338 -1.3921  0.1328  0.0734
 4409TIP3    H213169   0.089   2.432   6.273  0.9516  1.4104  1.2849
 4410TIP3   OH213170   0.660   2.465   1.494 -0.5370 -0.6817  0.3963
 4410TIP3    H113171   0.741   2.477   1.543 -0.1996 -0.1418 -0.2861
 4410TIP3    H213172   0.675   2.385   1.443 -1.0437 -1.4814  1.4529
 4411TIP3   OH213173   7.391   1.233   1.473  0.2477 -0.7454  0.0195
 4411TIP3    H113174   7.385   1.204   1.565  0.5225  0.4126  0.4178
 4411TIP3    H213175   7.411   1.153   1.425 -2.9161 -2.0216  0.5273
 4412TIP3   OH213176   6.747   6.123   1.956 -0.3224  0.0225 -0.3287
 4412TIP3    H113177   6.769   6.052   1.895 -1.6321  0.8001 -1.7712
 4412TIP3    H213178   6.676   6.088   2.009  0.3406 -0.4026  0.3016
 4413TIP3   OH213179   0.252   1.445   6.185  0.1950 -0.1408 -0.5232
 4413TIP3    H113180   0.281   1.505   6.116  1.1262  0.3891  0.3118
 4413TIP3    H213181   0.275   1.489   6.267 -0.5202 -0.9489  0.1288
 4414TIP3   OH213182   3.984   4.977   2.564  0.1456  0.1649 -0.0705
 4414TIP3    H113183   3.970   5.035   2.639  0.2218 -0.6247  0.5688
 4414TIP3    H213184   3.896   4.945   2.543  0.3508 -1.1818  0.9872
 4415TIP3   OH213185   7.486   6.985   2.202  0.7783 -0.2679  0.1021
 4415TIP3    H113186   7.444   7.050   2.145  2.7322  0.6111 -0.4454
 4415TIP3    H213187   7.556   7.033   2.246  1.0376 -1.5702  1.1883
 4416TIP3   OH213188   6.874   6.767   1.070  0.0220  0.1554 -0.3481
 4416TIP3    H113189   6.955   6.760   1.120 -0.2185  0.1625  0.0389
 4416TIP3    H213190   6.900   6.813   0.990  0.2637  0.7688  0.0771
 4417TIP3   OH213191   7.973   7.408   6.802 -0.2705  0.0474  0.0203
 4417TIP3    H113192   8.018   7.378   6.723  0.0193  0.9737 -0.1810
 4417TIP3    H213193   8.021   7.487   6.828 -0.2796 -0.3228  1.2026
 4418TIP3   OH213194   7.932   7.110   5.875  0.1041 -0.2125  0.3120
 4418TIP3    H113195   8.002   7.047   5.894  0.5364 -0.6804 -2.4812
 4418TIP3    H213196   7.887   7.074   5.799 -1.0695  1.7572  0.0052
 4419TIP3   OH213197   0.748   4.030   1.478  0.6964 -0.3980  0.8077
 4419TIP3    H113198   0.796   4.112   1.473  1.4282 -0.8551 -0.1037
 4419TIP3    H213199   0.670   4.050   1.530  0.1261  1.2297 -0.5758
 4420TIP3   OH213200   0.678   2.925   6.675  0.3794  0.2572 -0.1680
 4420TIP3    H113201   0.674   3.010   6.632  0.9770  0.1886 -0.3597
 4420TIP3    H213202   0.752   2.932   6.736 -0.8294  0.5759  1.3414
 4421TIP3   OH213203   7.544   3.831   6.557 -0.1722 -0.5314 -0.2192
 4421TIP3    H113204   7.485   3.807   6.486 -1.5134  0.9356  0.3434
 4421TIP3    H213205   7.493   3.820   6.637 -0.1580  1.8872  0.2093
 4422TIP3   OH213206   5.641   3.384   4.384 -0.2925  0.6014 -0.0009
 4422TIP3    H113207   5.581   3.358   4.314 -2.0943  0.7640  1.4309
 4422TIP3    H213208   5.610   3.471   4.411  2.3732  2.0415 -1.1177
 4423TIP3   OH213209   5.956   2.641   3.710 -0.3725 -0.1922 -0.2849
 4423TIP3    H113210   5.874   2.690   3.698 -0.4829 -0.4927 -0.7974
 4423TIP3    H213211   5.968   2.637   3.804 -0.6674  0.3225 -0.2212
 4424TIP3   OH213212   6.367   3.654   1.835 -0.4869 -0.1746 -0.1274
 4424TIP3    H113213   6.290   3.698   1.798  0.1193 -0.4325 -1.7724
 4424TIP3    H213214   6.442   3.699   1.796  0.1797 -1.0015  0.1677
 4425TIP3   OH213215   4.537   5.701   0.447  0.1470  0.3396  0.0862
 4425TIP3    H113216   4.456   5.660   0.416  0.2971  0.8477 -1.0468
 4425TIP3    H213217   4.509   5.757   0.519 -0.0685 -1.6275  1.6100
 4426TIP3   OH213218   4.303   5.505   5.728 -0.1577  0.4942  0.1237
 4426TIP3    H113219   4.389   5.468   5.707  0.0278  0.5920  0.7060
 4426TIP3    H213220   4.306   5.523   5.821 -1.6819 -1.8760  0.7387
 4427TIP3   OH213221   5.305   3.297   4.095 -0.4270  0.3906  0.1366
 4427TIP3    H113222   5.393   3.329   4.114  0.4129 -1.1524 -0.8888
 4427TIP3    H213223   5.247   3.357   4.141  1.2059  0.5654  2.1095
 4428TIP3   OH213224   6.694   4.860   6.471 -1.0862  0.7375  0.0729
 4428TIP3    H113225   6.690   4.779   6.420  0.9100  0.0906  0.8730
 4428TIP3    H213226   6.649   4.840   6.553  1.9216 -0.6463  1.5446
 4429TIP3   OH213227   0.496   4.465   6.749 -0.4716  0.2793 -0.3764
 4429TIP3    H113228   0.536   4.389   6.790 -1.6579 -0.2083 -0.0666
 4429TIP3    H213229   0.513   4.537   6.810  0.0300  0.1194 -0.3211
 4430TIP3   OH213230   0.902   6.589   3.784 -0.0959  0.2298 -0.7939
 4430TIP3    H113231   0.860   6.597   3.698 -1.5758  0.7424 -0.0559
 4430TIP3    H213232   0.902   6.678   3.819 -0.5057 -0.1393  0.1747
 4431TIP3   OH213233   5.999   3.670   2.564 -0.2398 -0.4693 -0.2847
 4431TIP3    H113234   5.910   3.636   2.549  0.1434 -1.4064 -0.5235
 4431TIP3    H213235   6.009   3.668   2.659 -0.2162 -1.0824 -0.2929
 4432TIP3   OH213236   1.449   6.325   6.794  0.1848  0.0634  0.4628
 4432TIP3    H113237   1.359   6.330   6.762 -0.7293 -0.0564  2.8203
 4432TIP3    H213238   1.493   6.401   6.756 -1.9653  2.3115  2.1660
 4433TIP3   OH213239   5.780   0.288   5.527 -0.2653  0.3188  0.0889
 4433TIP3    H113240   5.708   0.346   5.550 -1.6296 -1.0003 -0.6419
 4433TIP3    H213241   5.738   0.214   5.483  1.5455 -0.4983 -0.3787
 4434TIP3   OH213242   4.308   5.096   6.016  0.2549  0.5708  0.2060
 4434TIP3    H113243   4.272   5.105   5.928 -1.3354  1.4627  0.9211
 4434TIP3    H213244   4.366   5.020   6.010 -0.3170  0.2285 -1.4464
 4435TIP3   OH213245   3.095   0.536   6.230 -0.2033 -0.9334  0.2135
 4435TIP3    H113246   3.176   0.574   6.196 -0.1174 -2.2063 -1.1364
 4435TIP3    H213247   3.031   0.607   6.225  0.6593 -0.1033  0.6797
 4436TIP3   OH213248   1.800   2.896   6.555  0.1005 -0.7206  0.3482
 4436TIP3    H113249   1.752   2.898   6.638 -0.4220 -0.2133  0.0395
 4436TIP3    H213250   1.891   2.879   6.581  0.3856  1.6704  1.2478
 4437TIP3   OH213251   7.639   2.326   3.560 -0.2286 -0.2286 -0.8173
 4437TIP3    H113252   7.659   2.368   3.477 -1.5845 -1.7211 -1.9664
 4437TIP3    H213253   7.576   2.258   3.538 -0.5093 -0.7836  1.4230
 4438TIP3   OH213254   0.309   5.830   6.645  0.2593 -0.1411  0.1766
 4438TIP3    H113255   0.225   5.855   6.607  0.7113 -1.2667 -1.6732
 4438TIP3    H213256   0.344   5.912   6.681 -1.8272  0.2431  1.4847
 4439TIP3   OH213257   1.242   4.604   3.504  0.3795  0.2243 -0.0563
 4439TIP3    H113258   1.234   4.531   3.443  0.1875  0.0873  0.1331
 4439TIP3    H213259   1.336   4.608   3.525  0.0075 -2.1735  2.6238
 4440TIP3   OH213260   7.108   2.743   0.871  0.2183  0.3063  0.1133
 4440TIP3    H113261   7.104   2.789   0.955  2.3265 -0.4102  0.6513
 4440TIP3    H213262   7.039   2.676   0.877 -0.1948  0.7971  0.9305
 4441TIP3   OH213263   3.750   0.464   4.695 -0.1715  0.4750 -0.5211
 4441TIP3    H113264   3.695   0.403   4.646  0.7199 -0.1444 -0.7820
 4441TIP3    H213265   3.822   0.484   4.635  0.3167  0.6253  0.1070
 4442TIP3   OH213266   1.366   5.115   4.640  0.2462 -0.4190  0.2249
 4442TIP3    H113267   1.442   5.082   4.592  1.8258  3.8185 -0.6383
 4442TIP3    H213268   1.390   5.108   4.732  1.8410  0.9492 -0.0352
 4443TIP3   OH213269   7.295   3.615   2.338  0.5057 -0.0694 -0.0714
 4443TIP3    H113270   7.216   3.638   2.387  1.1582  0.1344  0.9065
 4443TIP3    H213271   7.292   3.519   2.331  0.5231 -0.1199  0.5770
 4444TIP3   OH213272   6.473   4.632   2.627  0.2583 -0.4145  0.7648
 4444TIP3    H113273   6.472   4.726   2.640  1.3043  0.1006 -2.1089
 4444TIP3    H213274   6.380   4.606   2.631 -0.0375  0.7188  1.5516
 4445TIP3   OH213275   0.490   5.573   4.239 -0.2404  0.1013 -0.0492
 4445TIP3    H113276   0.470   5.643   4.302 -1.7627  0.4196 -0.8346
 4445TIP3    H213277   0.405   5.552   4.200  0.3772 -1.4254 -0.6307
 4446TIP3   OH213278   2.250   3.392   6.770  0.1081 -0.2676 -0.0987
 4446TIP3    H113279   2.177   3.331   6.758  1.5941 -1.9387 -1.1324
 4446TIP3    H213280   2.229   3.466   6.713 -1.5424  0.0664  0.8782
 4447TIP3   OH213281   0.151   6.286   6.056  0.4466 -0.0749  0.2337
 4447TIP3    H113282   0.105   6.204   6.036 -0.4842  0.7143 -1.0085
 4447TIP3    H213283   0.094   6.330   6.119  0.4703  0.0338  0.1793
 4448TIP3   OH213284   4.268   3.637   6.555 -0.0430 -0.0249 -0.0250
 4448TIP3    H113285   4.318   3.652   6.475 -0.8214  0.7979 -0.3710
 4448TIP3    H213286   4.212   3.561   6.535 -0.2258  0.1702 -0.2592
 4449TIP3   OH213287   1.051   2.323   5.830  0.3725  0.0114 -0.2870
 4449TIP3    H113288   1.074   2.328   5.923 -1.0550 -0.6652  0.1206
 4449TIP3    H213289   1.018   2.410   5.808  1.3414  0.3736 -0.3528
 4450TIP3   OH213290   4.575   0.468   5.932  0.1789  0.0433 -0.4978
 4450TIP3    H113291   4.486   0.460   5.967  0.4083 -1.2417 -0.1517
 4450TIP3    H213292   4.629   0.488   6.007  0.0554  1.9893 -0.8851
 4451TIP3   OH213293   7.183   2.294   3.504  0.4549  0.4695  0.2554
 4451TIP3    H113294   7.121   2.348   3.455  0.1299  0.4378  0.6275
 4451TIP3    H213295   7.172   2.206   3.470  1.5762  0.7640 -0.9418
 4452TIP3   OH213296   7.936   4.969   5.789 -0.2379  0.6019  0.0223
 4452TIP3    H113297   7.937   4.925   5.703  0.5643 -1.6124  1.0829
 4452TIP3    H213298   8.022   4.950   5.826 -1.1992 -0.0701  2.0513
 4453TIP3   OH213299   3.107   1.064   2.471  0.6766  0.0074  0.0916
 4453TIP3    H113300   3.143   0.982   2.437  1.2705 -0.0275  0.7754
 4453TIP3    H213301   3.171   1.130   2.447  0.3179  0.2383 -0.2414
 4454TIP3   OH213302   2.561   1.847   5.892 -0.5901 -0.4059  0.5408
 4454TIP3    H113303   2.554   1.775   5.830  0.5029  1.7073 -2.2375
 4454TIP3    H213304   2.480   1.896   5.882  0.6471  1.4474 -1.4260
 4455TIP3   OH213305   4.203   0.866   5.437 -0.3788 -0.0736 -0.3582
 4455TIP3    H113306   4.226   0.944   5.387  0.0131 -0.3899 -0.6820
 4455TIP3    H213307   4.255   0.874   5.518 -1.7939  0.9583  0.4959
 4456TIP3   OH213308   5.732   1.678   4.508 -0.4246 -0.4980 -0.1843
 4456TIP3    H113309   5.639   1.691   4.527 -0.6619 -1.3485 -0.6715
 4456TIP3    H213310   5.778   1.726   4.576 -1.2006  1.1001 -0.7404
 4457TIP3   OH213311   2.534   1.415   2.328  0.3651  0.4843  0.2514
 4457TIP3    H113312   2.505   1.450   2.244 -1.5206 -2.6988 -0.6121
 4457TIP3    H213313   2.623   1.385   2.313  1.3463  3.0301  0.5138
 4458TIP3   OH213314   1.129   5.166   0.206 -0.2682  0.3995 -0.3891
 4458TIP3    H113315   1.061   5.218   0.249  1.0760  1.4435  0.5667
 4458TIP3    H213316   1.204   5.225   0.201  1.6724 -1.7272  1.6013
 4459TIP3   OH213317   0.955   0.567   6.812  0.0410 -0.3042 -0.7462
 4459TIP3    H113318   0.913   0.641   6.856  0.8165  0.7650 -1.7501
 4459TIP3    H213319   1.003   0.523   6.881  1.6891  1.6627 -0.5310
 4460TIP3   OH213320   5.308   3.340   1.972 -0.1002 -0.1179  0.0796
 4460TIP3    H113321   5.324   3.281   1.898  0.8118  1.9496 -1.4959
 4460TIP3    H213322   5.215   3.329   1.991 -0.8412  0.5263 -2.6361
 4461TIP3   OH213323   6.529   1.374   2.140 -0.0843 -0.6056 -0.4910
 4461TIP3    H113324   6.525   1.306   2.072 -2.3175  0.1348 -1.1882
 4461TIP3    H213325   6.447   1.365   2.187  0.8582 -0.2335  1.3068
 4462TIP3   OH213326   1.905   1.303   1.884  0.1749  0.1903 -0.1819
 4462TIP3    H113327   1.907   1.209   1.865  1.7104  0.0635  0.4571
 4462TIP3    H213328   1.812   1.325   1.884 -0.2765 -1.5098  0.4751
 4463TIP3   OH213329   5.942   1.623   2.421  0.1367 -0.3600  0.2174
 4463TIP3    H113330   5.979   1.535   2.427 -0.4615 -0.5580  1.2519
 4463TIP3    H213331   5.931   1.650   2.512  0.6935  0.9612 -0.0825
 4464TIP3   OH213332   0.022   4.490   0.156  0.3281  0.3503  0.0015
 4464TIP3    H113333  -0.024   4.564   0.116  0.0174 -0.4232 -1.1313
 4464TIP3    H213334   0.086   4.530   0.214 -0.5093  1.4838  0.1651
 4465TIP3   OH213335   4.132   6.758   6.273  0.8866  0.1230  0.2710
 4465TIP3    H113336   4.147   6.669   6.241 -0.6070 -0.8426  2.0299
 4465TIP3    H213337   4.081   6.801   6.204 -1.3650 -1.5620  0.7690
 4466TIP3   OH213338   2.133   5.911   3.124  0.0094 -0.6004  0.1446
 4466TIP3    H113339   2.185   5.842   3.166 -0.8062 -1.1842  0.2127
 4466TIP3    H213340   2.133   5.982   3.188  1.5315 -0.2079 -0.2591
 4467TIP3   OH213341   5.451   2.060   2.942 -0.0791  0.2218  0.2101
 4467TIP3    H113342   5.525   2.106   2.904  0.2078  0.4813  1.0529
 4467TIP3    H213343   5.387   2.054   2.872  0.3974  0.7662 -0.2748
 4468TIP3   OH213344   8.107   0.276   2.843 -0.2317  0.0819 -0.0835
 4468TIP3    H113345   8.102   0.315   2.756 -0.7239  0.3081  0.0434
 4468TIP3    H213346   8.125   0.350   2.902 -1.5546  0.1984  0.2057
 4469TIP3   OH213347   1.920   2.393   3.108  0.5781  0.9074 -0.2803
 4469TIP3    H113348   1.988   2.459   3.116 -0.5066  1.8583  1.9507
 4469TIP3    H213349   1.964   2.310   3.128  1.0342  1.5750  1.7035
 4470TIP3   OH213350   0.505   6.818   4.166 -0.2271 -0.4607 -0.4974
 4470TIP3    H113351   0.414   6.818   4.196 -0.2590  1.2000 -0.4804
 4470TIP3    H213352   0.551   6.762   4.228 -0.9333  0.0850  0.5558
 4471TIP3   OH213353   1.558   5.640   6.134  0.1563 -0.3573  0.4159
 4471TIP3    H113354   1.490   5.686   6.184  0.3231 -0.8276  1.0954
 4471TIP3    H213355   1.510   5.575   6.083 -0.0954  0.6139 -0.6449
 4472TIP3   OH213356   7.516   6.643   6.269  0.4023  0.1054  0.1601
 4472TIP3    H113357   7.517   6.718   6.210 -0.2584  0.4141  0.5467
 4472TIP3    H213358   7.598   6.597   6.249  0.4911  0.5544 -0.5461
 4473TIP3   OH213359   3.511   3.414   6.174  0.4585  0.1100  0.0316
 4473TIP3    H113360   3.550   3.501   6.183 -0.7906  0.5336  1.9145
 4473TIP3    H213361   3.417   3.430   6.166  0.3734 -1.0020 -1.9204
 4474TIP3   OH213362   6.211   6.788   5.708 -0.1944 -0.0068 -0.8100
 4474TIP3    H113363   6.120   6.770   5.684  0.4915 -1.8722 -2.2775
 4474TIP3    H213364   6.238   6.710   5.757  0.3954  0.9060  0.3794
 4475TIP3   OH213365   7.438   6.162   0.357  0.0422  0.3804  0.3389
 4475TIP3    H113366   7.393   6.093   0.405 -0.8111  1.0606  0.5215
 4475TIP3    H213367   7.368   6.220   0.326  0.7638  1.3158  0.4169
 4476TIP3   OH213368   3.633   1.012   3.696  0.4499 -0.0565  0.1164
 4476TIP3    H113369   3.661   1.023   3.787 -0.5425  2.5037  0.1812
 4476TIP3    H213370   3.569   0.941   3.699 -0.8559  1.1206  1.7391
 4477TIP3   OH213371   4.266   1.281   1.360  0.0619 -0.5163  0.3599
 4477TIP3    H113372   4.327   1.296   1.287  0.2939 -2.1155  0.1991
 4477TIP3    H213373   4.183   1.318   1.330 -0.5443 -3.3276 -1.8404
 4478TIP3   OH213374   4.872   2.538   3.045 -0.2753 -0.1212  0.1227
 4478TIP3    H113375   4.851   2.495   2.962 -0.7709  0.0205  0.1688
 4478TIP3    H213376   4.945   2.596   3.024 -0.6567  0.2122 -0.3148
 4479TIP3   OH213377   8.038   7.454   2.072  0.3030 -0.0374  0.7095
 4479TIP3    H113378   8.039   7.371   2.024  0.9215  0.1847  0.3241
 4479TIP3    H213379   8.002   7.517   2.011 -0.2780 -0.0441  1.0449
 4480TIP3   OH213380   4.966   5.212   4.975  0.1161 -0.1035 -0.0529
 4480TIP3    H113381   4.910   5.154   5.027  1.6905 -1.9594 -0.3084
 4480TIP3    H213382   4.929   5.299   4.988  0.2608 -0.4436  4.0439
 4481TIP3   OH213383   1.140   4.897   0.156  0.2289  0.7380  0.0659
 4481TIP3    H113384   1.142   4.992   0.160 -0.3970  0.7493  0.1771
 4481TIP3    H213385   1.092   4.877   0.076  0.0261  0.5148  0.2406
 4482TIP3   OH213386   6.962   0.013   3.596 -0.0380 -0.6966 -0.8114
 4482TIP3    H113387   6.870  -0.010   3.605 -0.0589 -0.2607  0.2786
 4482TIP3    H213388   6.963   0.106   3.575  0.1639 -0.5468 -0.1563
 4483TIP3   OH213389   2.265   3.125   4.273 -0.0313  0.3693  0.1553
 4483TIP3    H113390   2.336   3.187   4.260  2.0036 -1.7890  0.2440
 4483TIP3    H213391   2.251   3.123   4.368  0.0750  0.4805  0.1723
 4484TIP3   OH213392   5.111   7.073   3.986  0.1411  0.0859  0.3112
 4484TIP3    H113393   5.190   7.044   4.032  0.3950 -1.8030 -1.1974
 4484TIP3    H213394   5.140   7.145   3.930  1.0244 -1.1010 -0.8169
 4485TIP3   OH213395   1.876   1.498   6.705  0.8314  0.2213 -0.1297
 4485TIP3    H113396   1.810   1.562   6.732  2.6697  1.8815  0.7504
 4485TIP3    H213397   1.927   1.543   6.638  1.8467 -0.5139  0.1167
 4486TIP3   OH213398   2.681   2.490   4.125  0.0270 -0.4366  0.1600
 4486TIP3    H113399   2.674   2.559   4.058 -0.2213 -0.3500  0.2761
 4486TIP3    H213400   2.682   2.538   4.208  0.7390 -0.5155  0.2076
 4487TIP3   OH213401   1.110   0.506   2.968  0.0035  1.1410 -0.1772
 4487TIP3    H113402   1.134   0.449   2.894 -1.0756 -0.2973  0.5244
 4487TIP3    H213403   1.193   0.531   3.007  0.5142 -0.6542 -0.0294
 4488TIP3   OH213404   1.074   3.625   2.167 -0.1067 -0.1036 -0.0119
 4488TIP3    H113405   0.988   3.602   2.203 -0.3148 -2.1642 -1.6618
 4488TIP3    H213406   1.136   3.577   2.222  0.1494  2.0174  1.6983
 4489TIP3   OH213407   0.440   1.361   5.970  0.2157 -0.1435  0.1948
 4489TIP3    H113408   0.452   1.267   5.986 -2.1885 -0.4560  0.3911
 4489TIP3    H213409   0.353   1.369   5.933 -0.1435  2.1570  1.3566
 4490TIP3   OH213410   5.285   5.591   3.552  0.4757 -0.3600 -0.0539
 4490TIP3    H113411   5.276   5.496   3.545 -0.1932 -0.3016 -0.0889
 4490TIP3    H213412   5.232   5.614   3.629 -0.9464  0.1886 -1.1508
 4491TIP3   OH213413   6.807   5.014   2.435  0.4202  0.4310  0.1531
 4491TIP3    H113414   6.840   4.960   2.507  1.1345  2.2662  1.2614
 4491TIP3    H213415   6.887   5.047   2.393 -0.0076  0.4668 -0.6417
 4492TIP3   OH213416   1.456   6.705   1.321  0.0183 -0.4198 -0.8256
 4492TIP3    H113417   1.392   6.750   1.266  0.2312 -0.1488 -0.8553
 4492TIP3    H213418   1.515   6.774   1.351 -0.0957 -0.5644 -0.2542
 4493TIP3   OH213419   8.284   1.065   0.751  0.0084 -0.3568 -0.0810
 4493TIP3    H113420   8.193   1.097   0.753  0.0247 -0.3496  1.0127
 4493TIP3    H213421   8.325   1.115   0.680 -0.2030  1.4608  1.0011
 4494TIP3   OH213422   3.877   2.513   1.590  0.2710  0.1017  0.6396
 4494TIP3    H113423   3.912   2.455   1.522  1.1182 -1.0770  2.0378
 4494TIP3    H213424   3.782   2.500   1.585  0.3599 -0.3759  0.0324
 4495TIP3   OH213425   5.845   2.652   5.376  0.1130 -0.1063 -0.4496
 4495TIP3    H113426   5.759   2.665   5.417  0.0398 -1.5735 -0.1018
 4495TIP3    H213427   5.832   2.676   5.285 -1.2134 -2.1709 -0.8626
 4496TIP3   OH213428   5.101   4.316   3.166  0.2678  0.2221  0.0483
 4496TIP3    H113429   5.031   4.272   3.117  0.9672 -0.9466  0.0447
 4496TIP3    H213430   5.136   4.380   3.104 -0.0584  0.0295 -0.3436
 4497TIP3   OH213431   7.363   1.577   3.463  0.3383 -0.1396  0.3950
 4497TIP3    H113432   7.413   1.496   3.475  0.1526 -0.5036 -1.1069
 4497TIP3    H213433   7.273   1.554   3.486  0.4085 -0.1660  0.6468
 4498TIP3   OH213434   1.712   1.165   3.367 -0.0091 -0.1165  0.6642
 4498TIP3    H113435   1.704   1.073   3.342 -1.5806 -0.1683  1.2446
 4498TIP3    H213436   1.806   1.181   3.369  0.2686 -1.2134 -1.1703
 4499TIP3   OH213437   5.717   2.128   1.189  0.0771 -0.8358  0.2914
 4499TIP3    H113438   5.802   2.165   1.167 -0.8654  0.3456 -1.6225
 4499TIP3    H213439   5.662   2.203   1.213 -1.5819 -0.9035 -2.7044
 4500TIP3   OH213440   0.043   5.177   4.581  0.5605  1.2834  0.0497
 4500TIP3    H113441  -0.020   5.170   4.509  1.1187 -0.6275 -0.3191
 4500TIP3    H213442   0.014   5.110   4.644  2.1592  0.4068 -0.1047
 4501TIP3   OH213443   8.036   2.879   2.625 -0.1337  0.1421 -0.0765
 4501TIP3    H113444   8.092   2.827   2.568  1.2190  2.3153 -0.8788
 4501TIP3    H213445   8.090   2.897   2.702 -1.2534 -1.1338  1.0618
 4502TIP3   OH213446   6.174   4.595   1.429 -0.3153  0.2714 -0.1169
 4502TIP3    H113447   6.199   4.503   1.420 -3.0075 -0.5234 -0.5071
 4502TIP3    H213448   6.191   4.633   1.343 -1.3517 -0.4963 -0.6826
 4503TIP3   OH213449   5.794   7.407   2.526  0.0182 -0.3754 -0.2460
 4503TIP3    H113450   5.834   7.323   2.547 -1.6239 -1.1057  0.1824
 4503TIP3    H213451   5.705   7.400   2.561  0.4708  2.3820  1.8239
 4504TIP3   OH213452   3.066   0.881   6.845 -0.8521 -0.1944 -0.2562
 4504TIP3    H113453   3.082   0.815   6.777 -0.2872 -2.8828  2.2899
 4504TIP3    H213454   3.153   0.917   6.865 -1.0348  0.6909 -0.9709
 4505TIP3   OH213455   1.684   6.650   6.001 -0.2464 -0.1041 -0.2641
 4505TIP3    H113456   1.750   6.630   5.935  0.3401 -0.1804  0.3308
 4505TIP3    H213457   1.603   6.613   5.966  0.0791 -0.2398 -0.8855
 4506TIP3   OH213458   0.836   1.669   3.595  0.1764  0.5393  0.1024
 4506TIP3    H113459   0.875   1.583   3.611  1.5592  0.5697 -2.5417
 4506TIP3    H213460   0.902   1.731   3.623  0.2089  0.6842 -0.2915
 4507TIP3   OH213461   4.202   0.134   0.354  0.7577 -0.1722 -0.1145
 4507TIP3    H113462   4.132   0.157   0.292  1.7575 -3.7225 -2.9360
 4507TIP3    H213463   4.266   0.204   0.345 -0.9006  1.4430  0.0108
 4508TIP3   OH213464   7.102   0.422   3.744 -0.1401 -0.1663  0.1483
 4508TIP3    H113465   7.047   0.390   3.673  1.2662 -0.1053 -1.0180
 4508TIP3    H213466   7.068   0.509   3.764  0.0092  0.1885 -1.0839
 4509TIP3   OH213467   3.460   0.378   6.263 -0.0049 -0.0277 -0.4819
 4509TIP3    H113468   3.469   0.288   6.295 -0.7809 -0.3227 -1.0691
 4509TIP3    H213469   3.436   0.429   6.340  0.2423 -0.3532 -0.1854
 4510TIP3   OH213470   4.230   5.748   1.167  0.6655  0.0722  0.4796
 4510TIP3    H113471   4.258   5.778   1.254  1.5922 -1.7415  0.8557
 4510TIP3    H213472   4.198   5.659   1.182 -1.3975  0.5505 -0.6820
 4511TIP3   OH213473   0.843   6.661   1.595  0.3413  0.1959  0.3076
 4511TIP3    H113474   0.760   6.686   1.636  1.7196  1.4693  2.5262
 4511TIP3    H213475   0.835   6.567   1.580 -1.3021  0.1920  0.9953
 4512TIP3   OH213476   1.495   7.860   1.942  0.7005  0.1252  0.0127
 4512TIP3    H113477   1.561   7.860   1.873 -0.2547  1.6589 -0.9580
 4512TIP3    H213478   1.523   7.929   2.001 -0.5857  1.5687 -1.0071
 4513TIP3   OH213479   0.553   7.881   6.587 -0.1740 -0.1594  0.1928
 4513TIP3    H113480   0.510   7.907   6.669 -1.3193  2.3423 -1.0677
 4513TIP3    H213481   0.646   7.896   6.603 -0.3222 -0.2282  1.2066
 4514TIP3   OH213482   1.233   1.275   5.381  0.0990 -0.7829  0.7421
 4514TIP3    H113483   1.284   1.275   5.462 -0.3307 -0.7720  1.0151
 4514TIP3    H213484   1.154   1.225   5.402 -0.2708 -0.3162  0.4921
 4515TIP3   OH213485   4.869   2.196   6.333 -0.4579  0.6630  0.2803
 4515TIP3    H113486   4.840   2.107   6.353  0.3610  0.1159 -0.8518
 4515TIP3    H213487   4.819   2.251   6.392 -1.7704 -0.4607  0.2665
 4516TIP3   OH213488   8.105   2.801   6.100 -0.0937 -0.7228  0.1449
 4516TIP3    H113489   8.092   2.840   6.186 -0.3532 -1.3455  0.3962
 4516TIP3    H213490   8.093   2.707   6.114 -2.0763 -0.6916 -0.9195
 4517TIP3   OH213491   6.103   4.752   5.970  0.2085  0.3664 -0.1561
 4517TIP3    H113492   6.113   4.821   6.037  2.3306  0.0173 -0.0323
 4517TIP3    H213493   6.184   4.701   5.977 -0.7663 -1.3780 -1.1226
 4518TIP3   OH213494   3.540   0.880   0.013 -0.5915 -0.0684 -0.3940
 4518TIP3    H113495   3.446   0.885   0.031 -0.7064  0.9181 -1.1844
 4518TIP3    H213496   3.559   0.960  -0.035  0.6085 -0.3894 -0.4724
 4519TIP3   OH213497   1.988   0.417   4.819 -0.4662 -0.5481 -0.2828
 4519TIP3    H113498   2.064   0.463   4.854 -1.8079  0.9987  0.7489
 4519TIP3    H213499   1.971   0.458   4.734 -2.3564  1.8891  1.1242
 4520TIP3   OH213500   2.622   1.591   3.819 -0.6903 -1.1173 -0.3941
 4520TIP3    H113501   2.576   1.641   3.752  0.1855  0.3122  0.0436
 4520TIP3    H213502   2.665   1.520   3.769 -1.4467 -1.0988 -1.0970
 4521TIP3   OH213503   5.065   0.117   5.473 -0.2594 -0.5968  0.0096
 4521TIP3    H113504   5.071   0.083   5.384  0.3456 -1.8297  0.4908
 4521TIP3    H213505   4.998   0.185   5.469 -0.8715 -1.2444 -1.1974
 4522TIP3   OH213506   4.170   3.848   1.076  0.5921  0.2373 -0.1517
 4522TIP3    H113507   4.197   3.799   1.154 -0.7517 -0.8942 -0.3681
 4522TIP3    H213508   4.128   3.783   1.020 -0.2230  1.4184 -0.9547
 4523TIP3   OH213509   5.918   2.571   0.017  0.0467  0.5811  0.2601
 4523TIP3    H113510   5.994   2.569  -0.041  0.2934  0.1506  0.5979
 4523TIP3    H213511   5.916   2.485   0.058 -1.6791 -0.0951 -1.0985
 4524TIP3   OH213512   3.654   5.124   1.028  0.0485  0.0411 -0.1634
 4524TIP3    H113513   3.665   5.073   0.948 -0.2345  1.8352 -1.4268
 4524TIP3    H213514   3.560   5.123   1.044  0.2064 -1.2527  0.8439
 4525TIP3   OH213515   1.798   3.270   3.308  0.3548  0.2533 -0.0982
 4525TIP3    H113516   1.861   3.301   3.243 -0.7570  0.1036 -1.3010
 4525TIP3    H213517   1.721   3.247   3.256 -0.1904 -0.8953  1.1817
 4526TIP3   OH213518   0.263   0.200   3.517 -0.0825 -0.3771  0.2347
 4526TIP3    H113519   0.214   0.274   3.482  0.3637 -0.1975 -0.0080
 4526TIP3    H213520   0.196   0.147   3.562 -0.6786 -0.6487 -0.9278
 4527TIP3   OH213521   8.361   0.089   6.738  0.3747 -0.4896  0.2124
 4527TIP3    H113522   8.331   0.074   6.827  3.8312 -0.5229  1.4971
 4527TIP3    H213523   8.423   0.161   6.745 -0.9701  1.1461 -2.6357
 4528TIP3   OH213524   5.644   0.688   5.455 -0.3053  0.1006 -0.3854
 4528TIP3    H113525   5.651   0.783   5.439 -0.7870  0.3318  0.6861
 4528TIP3    H213526   5.594   0.681   5.536  1.3143 -1.0190  0.5708
 4529TIP3   OH213527   6.626   0.174   3.705 -0.5507  0.0787 -0.2042
 4529TIP3    H113528   6.534   0.159   3.726 -0.4435 -1.2383 -0.6226
 4529TIP3    H213529   6.642   0.123   3.626  1.0271 -1.3760  0.9786
 4530TIP3   OH213530   7.296   0.544   0.178  0.4611  0.2254 -0.4192
 4530TIP3    H113531   7.230   0.474   0.184 -2.4585  2.7979 -0.3009
 4530TIP3    H213532   7.343   0.525   0.097 -1.2277 -1.0841 -1.1724
 4531TIP3   OH213533   2.464   0.526   5.644  0.5931 -0.3113 -0.1491
 4531TIP3    H113534   2.462   0.616   5.678 -1.6375 -0.4395  0.2211
 4531TIP3    H213535   2.386   0.485   5.681  1.1603 -2.1845 -0.9318
 4532TIP3   OH213536   2.687   4.110   6.350 -0.1284 -0.1112  0.2132
 4532TIP3    H113537   2.607   4.109   6.297 -0.7682 -2.7563  1.0837
 4532TIP3    H213538   2.748   4.054   6.302  0.2708 -0.2313  0.8485
 4533TIP3   OH213539   1.763   0.090   0.261 -0.1617  0.0242  0.0538
 4533TIP3    H113540   1.718   0.046   0.333  0.0316  1.4895  1.1223
 4533TIP3    H213541   1.698   0.151   0.225 -0.1314 -0.4113 -0.7526
 4534TIP3   OH213542   7.185   6.015   2.402 -0.1687 -0.9364  0.3726
 4534TIP3    H113543   7.110   5.971   2.362 -1.5126 -1.2083  3.0118
 4534TIP3    H213544   7.171   6.007   2.496  2.8712 -0.4125  0.9761
 4535TIP3   OH213545   1.087   6.477   4.293  0.2491 -0.1029  0.5186
 4535TIP3    H113546   1.182   6.478   4.297  0.2192  1.1302  2.0343
 4535TIP3    H213547   1.067   6.495   4.201  1.4789  0.1658  0.2831
 4536TIP3   OH213548   7.002   7.366   0.443  0.0429 -0.5566  0.4715
 4536TIP3    H113549   7.073   7.375   0.378  0.4000 -2.4978  0.5292
 4536TIP3    H213550   6.932   7.421   0.409  0.5159 -0.8934 -1.1747
 4537TIP3   OH213551   6.195   2.654   2.562  0.2614 -0.2821 -0.1999
 4537TIP3    H113552   6.248   2.700   2.496  0.5418 -1.6821 -0.9837
 4537TIP3    H213553   6.258   2.602   2.611 -0.3576 -1.9718 -1.1427
 4538TIP3   OH213554   4.556   2.411   3.646 -0.1785 -0.3872 -0.3804
 4538TIP3    H113555   4.483   2.354   3.618 -0.6767  0.1472 -0.1871
 4538TIP3    H213556   4.587   2.451   3.565 -0.7269  0.1135 -0.3463
 4539TIP3   OH213557   7.740   0.705   6.401 -0.0838  0.3900  0.7369
 4539TIP3    H113558   7.654   0.746   6.402 -0.3238 -0.1109  1.8586
 4539TIP3    H213559   7.723   0.616   6.369  0.4668  1.1609 -1.9402
 4540TIP3   OH213560   7.999   7.450   0.211 -0.5483 -0.1014 -0.7096
 4540TIP3    H113561   8.002   7.411   0.124 -0.1482  1.4920 -1.4424
 4540TIP3    H213562   7.943   7.526   0.201  1.0534  1.2296 -0.0900
 4541TIP3   OH213563   6.573   3.311   5.452 -0.1987 -0.8567 -0.0478
 4541TIP3    H113564   6.530   3.228   5.467  1.7101 -1.8081  0.5292
 4541TIP3    H213565   6.636   3.319   5.524 -0.5450  1.2481  0.0984
 4542TIP3   OH213566   0.545   5.247   6.780  0.1269 -0.5030  0.0715
 4542TIP3    H113567   0.513   5.167   6.737 -1.8058  0.5421 -0.5827
 4542TIP3    H213568   0.626   5.268   6.736 -0.0277 -1.3882 -0.6545
 4543TIP3   OH213569   3.528   6.698   6.509  0.9275 -0.1958  0.1346
 4543TIP3    H113570   3.503   6.788   6.532  1.1445  0.0316 -0.5220
 4543TIP3    H213571   3.492   6.685   6.422  1.7716 -0.3955 -0.1935
 4544TIP3   OH213572   2.790   3.148   1.743 -0.2002 -0.3023 -0.2531
 4544TIP3    H113573   2.705   3.104   1.737 -0.5449  0.2024  0.8323
 4544TIP3    H213574   2.835   3.102   1.814  0.6251 -0.8542 -1.1066
 4545TIP3   OH213575   2.567   7.256   6.615  0.2794  0.0680  0.5467
 4545TIP3    H113576   2.493   7.196   6.605  0.0936  0.1277  1.4838
 4545TIP3    H213577   2.549   7.327   6.553  0.0421 -0.3841  0.0849
 4546TIP3   OH213578   2.354   6.639   2.354  0.4436 -0.0228  0.6742
 4546TIP3    H113579   2.407   6.654   2.276 -0.6736 -0.2455 -0.1449
 4546TIP3    H213580   2.403   6.573   2.404  0.5424 -0.8154 -0.4529
 4547TIP3   OH213581   7.272   3.303   3.547 -0.4827  0.1685 -0.3125
 4547TIP3    H113582   7.238   3.217   3.521 -1.2653 -0.0933  1.4882
 4547TIP3    H213583   7.326   3.285   3.624  0.7166  1.0947 -0.9039
 4548TIP3   OH213584   4.150   2.415   3.912 -0.5657 -0.3246 -0.4938
 4548TIP3    H113585   4.158   2.354   3.986  2.5943 -0.3520 -0.7316
 4548TIP3    H213586   4.132   2.359   3.836 -1.9015 -0.4741 -0.0998
 4549TIP3   OH213587   3.906   7.932   3.513 -0.3775  0.8180 -0.7099
 4549TIP3    H113588   3.831   7.882   3.544  0.3666  0.4615  0.6210
 4549TIP3    H213589   3.926   7.896   3.427 -0.2853 -0.7246 -0.0699
 4550TIP3   OH213590   5.495   6.873   0.782 -0.1650 -0.7009  0.1159
 4550TIP3    H113591   5.467   6.784   0.805 -0.8220 -0.6456 -0.4413
 4550TIP3    H213592   5.419   6.912   0.740  0.3188 -0.0725 -0.1895
 4551TIP3   OH213593   2.713   6.382   5.580 -0.2756 -0.1918 -0.0562
 4551TIP3    H113594   2.741   6.291   5.582  1.6205  0.3364  0.5820
 4551TIP3    H213595   2.676   6.398   5.667  1.4622  0.1813  0.6569
 4552TIP3   OH213596   4.052   4.053   2.422 -0.1045  0.4641 -0.3465
 4552TIP3    H113597   4.003   4.073   2.502 -2.2636 -0.7046 -1.2831
 4552TIP3    H213598   4.087   3.965   2.436  0.9688  0.9327 -0.0410
 4553TIP3   OH213599   7.588   6.232   1.476  0.0958  0.1215  0.4893
 4553TIP3    H113600   7.681   6.252   1.472 -0.1718  1.5523  0.8422
 4553TIP3    H213601   7.549   6.308   1.520 -1.5750  0.7391 -1.8445
 4554TIP3   OH213602   4.384   6.612   4.615 -0.1774 -0.1779  0.6874
 4554TIP3    H113603   4.433   6.568   4.684 -1.1706 -0.8609  0.9880
 4554TIP3    H213604   4.373   6.545   4.547 -2.8006 -0.9162  1.6874
 4555TIP3   OH213605   0.189   3.409   4.687 -0.0350  0.2662 -0.2962
 4555TIP3    H113606   0.119   3.446   4.634  0.1905 -0.7572 -1.3539
 4555TIP3    H213607   0.269   3.430   4.639  0.3626  0.9850  0.6441
 4556TIP3   OH213608   8.023   6.637   4.476 -0.0771 -0.0410  0.7072
 4556TIP3    H113609   8.026   6.554   4.523 -1.7184 -0.9722 -0.6992
 4556TIP3    H213610   7.942   6.678   4.506  0.1715  0.5396  0.5848
 4557TIP3   OH213611   5.812   7.357   6.186 -0.2638  0.7417 -0.2746
 4557TIP3    H113612   5.717   7.355   6.174 -0.5177  0.7970  1.4261
 4557TIP3    H213613   5.843   7.418   6.120 -1.5413  1.4546 -0.2509
 4558TIP3   OH213614   1.333   6.815   1.072  0.1006  0.0512 -0.0836
 4558TIP3    H113615   1.258   6.835   1.129 -0.9255 -0.5534 -1.1699
 4558TIP3    H213616   1.298   6.753   1.007  1.3426  0.3772 -1.1036
 4559TIP3   OH213617   3.676   5.670   4.386 -0.5779  0.3498 -0.5662
 4559TIP3    H113618   3.653   5.673   4.479  2.2239  1.1068  0.2075
 4559TIP3    H213619   3.701   5.760   4.364  1.7166 -0.3392 -1.1267
 4560TIP3   OH213620   4.284   0.188   5.214  0.3220 -0.0969 -0.4684
 4560TIP3    H113621   4.276   0.141   5.296  0.2119 -1.0215 -0.9942
 4560TIP3    H213622   4.217   0.256   5.218  1.1292  0.6503  0.7093
 4561TIP3   OH213623   2.532   3.268   4.823 -0.0848 -0.1705 -0.2430
 4561TIP3    H113624   2.538   3.304   4.911 -1.9538  0.8269 -0.4741
 4561TIP3    H213625   2.584   3.328   4.769  0.6169 -0.4814  0.0654
 4562TIP3   OH213626   6.447   1.311   0.237 -0.1862 -0.2722  0.6958
 4562TIP3    H113627   6.474   1.402   0.225  0.0753 -0.4052  0.2164
 4562TIP3    H213628   6.352   1.314   0.241 -0.1967 -0.0097  0.3410
 4563TIP3   OH213629   2.371   7.782   0.187 -0.1778 -0.2069  0.1105
 4563TIP3    H113630   2.397   7.790   0.095  0.0829  0.9751  0.2671
 4563TIP3    H213631   2.277   7.767   0.184 -0.4126  1.2319 -0.3298
 4564TIP3   OH213632   6.567   6.679   1.926  0.5862  0.1251 -0.1615
 4564TIP3    H113633   6.609   6.595   1.906 -1.1911 -0.5300 -1.4765
 4564TIP3    H213634   6.618   6.744   1.877  0.1638 -0.6269 -1.6452
 4565TIP3   OH213635   2.876   4.813   4.387  0.6142  0.9642  0.1509
 4565TIP3    H113636   2.783   4.832   4.376  0.0204 -2.0924 -0.9088
 4565TIP3    H213637   2.886   4.797   4.481 -0.6555 -1.6928 -0.0965
 4566TIP3   OH213638   3.772   4.635   0.855  0.1520 -0.4751  0.0895
 4566TIP3    H113639   3.793   4.581   0.779 -0.9863  0.7210 -1.1121
 4566TIP3    H213640   3.853   4.683   0.874 -0.6031  2.3652 -3.0459
 4567TIP3   OH213641   5.647   5.036   6.058 -0.0686 -0.1198  0.1572
 4567TIP3    H113642   5.634   4.965   6.121 -1.1022 -0.0826  0.0063
 4567TIP3    H213643   5.571   5.094   6.071  0.6619  0.8699  0.1534
 4568TIP3   OH213644   0.971   4.396   4.633  0.3052 -0.2140 -0.1955
 4568TIP3    H113645   0.988   4.459   4.562  1.1758  0.9746  1.0226
 4568TIP3    H213646   0.941   4.450   4.706  0.8782 -1.2443  0.8301
 4569TIP3   OH213647   6.348   7.266   4.572  0.4270  0.1031  0.6608
 4569TIP3    H113648   6.412   7.278   4.502  0.0334  0.0353  0.2897
 4569TIP3    H213649   6.287   7.339   4.562  0.9327  0.6584  1.5496
 4570TIP3   OH213650   5.192   2.606   3.637  0.0726  0.0850 -0.6519
 4570TIP3    H113651   5.113   2.578   3.591  0.4668 -0.4581 -1.0029
 4570TIP3    H213652   5.175   2.698   3.658 -0.9842 -0.2295 -0.0118
 4571TIP3   OH213653   0.925   5.955   3.216 -0.0783 -0.1318 -0.1897
 4571TIP3    H113654   0.978   5.928   3.291 -1.8152 -1.1394  0.7601
 4571TIP3    H213655   0.873   6.029   3.249  1.4053  1.5380 -1.4202
 4572TIP3   OH213656   6.908   2.473   5.236  0.5005  0.3593  0.0345
 4572TIP3    H113657   6.849   2.540   5.200 -0.1737  0.1745  0.7494
 4572TIP3    H213658   6.975   2.461   5.169  0.1884  1.1802 -0.4448
 4573TIP3   OH213659   0.223   3.527   5.234 -0.3698  0.5102 -0.8678
 4573TIP3    H113660   0.226   3.518   5.138 -0.5243 -0.2578 -0.8093
 4573TIP3    H213661   0.161   3.459   5.262  0.3151  0.1602 -0.1613
 4574TIP3   OH213662   7.067   4.175   5.417 -0.0615  0.3450  0.1519
 4574TIP3    H113663   6.979   4.172   5.455  0.6172  0.0781  1.7431
 4574TIP3    H213664   7.113   4.101   5.457  1.1967  1.0849  0.1141
 4575TIP3   OH213665   3.667   7.496   1.478  0.2568 -0.2160  0.2535
 4575TIP3    H113666   3.756   7.516   1.507  0.0940  1.1539 -0.1369
 4575TIP3    H213667   3.677   7.469   1.386  0.2746 -0.1000  0.2212
 4576TIP3   OH213668   5.986   1.110   1.713  0.4220 -0.3239 -0.2615
 4576TIP3    H113669   5.980   1.045   1.644  0.5316 -0.1831 -0.4032
 4576TIP3    H213670   6.036   1.182   1.675 -0.3114  0.1495 -0.3362
 4577TIP3   OH213671   3.247   7.588   5.978  0.1364  0.0283  0.1532
 4577TIP3    H113672   3.151   7.585   5.973  0.0198  1.0264  1.3358
 4577TIP3    H213673   3.272   7.652   5.912 -0.1249  0.7602  0.7482
 4578TIP3   OH213674   0.401   6.638   2.365  0.0632 -0.1060 -0.0868
 4578TIP3    H113675   0.404   6.557   2.314  0.2909 -1.3193  1.7963
 4578TIP3    H213676   0.489   6.674   2.359  0.2938 -0.6378  0.0604
 4579TIP3   OH213677   2.175   2.994   0.503  0.1972 -0.1739 -0.4941
 4579TIP3    H113678   2.156   2.929   0.435 -0.1182 -0.4701 -0.1264
 4579TIP3    H213679   2.258   2.965   0.542  0.3041 -0.0843 -0.6536
 4580TIP3   OH213680   3.216   4.941   2.713 -0.2103 -0.5568  0.2354
 4580TIP3    H113681   3.130   4.903   2.691 -0.0717 -0.7112 -0.0601
 4580TIP3    H213682   3.256   4.876   2.771 -0.7092  0.0062  1.2204
 4581TIP3   OH213683   5.902   0.587   4.144 -0.2066 -0.0247  1.1232
 4581TIP3    H113684   5.812   0.561   4.124  0.3567 -1.4278  0.2357
 4581TIP3    H213685   5.943   0.507   4.177  0.6266  0.6888  1.8900
 4582TIP3   OH213686   1.059   1.174   3.194 -0.3976  0.2897  0.2048
 4582TIP3    H113687   0.987   1.237   3.192 -0.5102  0.2139  1.2927
 4582TIP3    H213688   1.138   1.227   3.190 -0.4948  0.3586 -1.3137
 4583TIP3   OH213689   7.265   0.054   1.431  0.1157  0.1559 -0.0467
 4583TIP3    H113690   7.294   0.012   1.512 -1.9011 -1.3303 -0.0251
 4583TIP3    H213691   7.301  -0.000   1.361  0.2847  0.3502 -0.1122
 4584TIP3   OH213692   2.935   3.808   5.683  0.6043  0.0474 -0.0653
 4584TIP3    H113693   2.873   3.880   5.676  0.5530 -0.0743 -0.9006
 4584TIP3    H213694   2.999   3.838   5.749  0.1711  0.5412  0.1384
 4585TIP3   OH213695   4.394   2.357   0.548  0.3247 -0.0088  0.5648
 4585TIP3    H113696   4.451   2.282   0.565 -0.1850 -0.7401 -0.7929
 4585TIP3    H213697   4.441   2.408   0.482  0.8393  1.1042  1.7393
 4586TIP3   OH213698   1.420   1.159   1.982  0.0068 -0.0610  0.9910
 4586TIP3    H113699   1.500   1.114   2.009 -0.1082 -0.1331  1.2176
 4586TIP3    H213700   1.451   1.233   1.929  0.3796  1.2062  2.8395
 4587TIP3   OH213701   4.097   1.539   6.103 -0.3617  0.2681 -0.4481
 4587TIP3    H113702   4.089   1.618   6.157 -0.1719  0.1450 -0.2404
 4587TIP3    H213703   4.163   1.561   6.038 -0.9616  0.6025 -0.9631
 4588TIP3   OH213704   0.852   2.230   5.595 -0.1379  0.3154  0.5957
 4588TIP3    H113705   0.791   2.284   5.645  0.3900  0.2081  1.3880
 4588TIP3    H213706   0.858   2.148   5.645  0.1452  0.0758  0.1774
 4589TIP3   OH213707   2.120   6.054   2.386 -0.5333 -0.6424 -0.7273
 4589TIP3    H113708   2.185   5.987   2.410 -1.0880 -1.1919 -0.7527
 4589TIP3    H213709   2.165   6.137   2.402 -0.0496 -1.0162 -0.0962
 4590TIP3   OH213710   6.829   5.798   5.815  0.2614  0.2521 -0.0611
 4590TIP3    H113711   6.800   5.714   5.780 -0.6036  1.0531 -1.3600
 4590TIP3    H213712   6.748   5.845   5.834  0.7317  1.1606 -0.2697
 4591TIP3   OH213713   1.896   3.818   2.826 -0.4057 -0.1065  1.2248
 4591TIP3    H113714   1.991   3.816   2.824 -0.4109 -2.4010 -0.1910
 4591TIP3    H213715   1.873   3.908   2.803  1.4168  0.1683  0.3341
 4592TIP3   OH213716   7.414   2.667   1.995  0.0901  0.0541 -0.2017
 4592TIP3    H113717   7.487   2.706   2.044  0.2880  0.1154 -0.5464
 4592TIP3    H213718   7.372   2.609   2.058  0.2309  0.2760  0.1010
 4593TIP3   OH213719   4.705   3.868   0.500  0.7314 -0.1121 -0.3725
 4593TIP3    H113720   4.690   3.958   0.528  0.6140  0.1277 -1.1788
 4593TIP3    H213721   4.637   3.817   0.544 -0.7310  0.5467 -1.7594
 4594TIP3   OH213722   3.512   2.460   2.782 -0.3000 -0.0705 -0.9341
 4594TIP3    H113723   3.604   2.477   2.762  0.1190  0.9378  1.5270
 4594TIP3    H213724   3.511   2.370   2.815  0.3691  0.8473  1.7792
 4595TIP3   OH213725   6.310   6.761   6.220  0.0842  0.5409 -0.3274
 4595TIP3    H113726   6.245   6.739   6.153 -0.0820  1.7174 -0.5785
 4595TIP3    H213727   6.367   6.825   6.177 -0.4589  1.8853  0.8755
 4596TIP3   OH213728   7.343   7.138   0.384 -0.1279 -0.1270  0.8763
 4596TIP3    H113729   7.334   7.233   0.374 -2.7208 -0.3001  0.9569
 4596TIP3    H213730   7.400   7.127   0.461  0.6955  1.3183  0.5158
 4597TIP3   OH213731   2.625   6.500   5.818 -0.0070  0.3144 -0.2306
 4597TIP3    H113732   2.545   6.457   5.849  0.5599 -0.6220 -0.0232
 4597TIP3    H213733   2.682   6.502   5.895  0.6093 -0.0805 -0.6749
 4598TIP3   OH213734   7.186   5.992   0.750  0.0333  0.5444 -0.6718
 4598TIP3    H113735   7.165   6.039   0.830 -0.7892  0.6852 -0.9552
 4598TIP3    H213736   7.256   5.931   0.775  0.5517  1.3430 -0.1154
 4599TIP3   OH213737   3.906   5.468   0.091  0.1785 -0.5861  0.4509
 4599TIP3    H113738   3.870   5.543   0.044 -0.7607 -1.0641  0.3959
 4599TIP3    H213739   3.985   5.502   0.133 -0.4086  0.5114  0.6923
 4600TIP3   OH213740   3.364   2.201   2.504  0.2107 -0.0075 -0.3156
 4600TIP3    H113741   3.444   2.155   2.525  0.4519  1.2389  1.7287
 4600TIP3    H213742   3.390   2.293   2.495 -0.8943  0.3466 -0.1033
 4601TIP3   OH213743   3.619   0.505   5.658  0.0609  0.2199 -0.5193
 4601TIP3    H113744   3.549   0.520   5.720  0.5634  2.9438 -0.4773
 4601TIP3    H213745   3.591   0.551   5.579  0.8097 -0.5636 -1.2596
 4602TIP3   OH213746   3.927   4.308   0.585  0.0445  0.2041 -0.4351
 4602TIP3    H113747   3.896   4.253   0.513  1.1201  0.6500 -1.2680
 4602TIP3    H213748   3.854   4.368   0.601 -0.8558 -0.9663  0.0007
 4603TIP3   OH213749   7.848   5.232   1.402  0.1017  0.1909 -0.3370
 4603TIP3    H113750   7.857   5.147   1.445  3.1853  0.8137  0.4443
 4603TIP3    H213751   7.833   5.294   1.473  1.6792  0.7604 -0.4728
 4604TIP3   OH213752   6.182   4.576   1.999  0.0265  0.7240 -0.1281
 4604TIP3    H113753   6.191   4.562   1.905 -0.1253 -1.5387  0.1312
 4604TIP3    H213754   6.190   4.671   2.011  0.7813  0.9824 -2.3194
 4605TIP3   OH213755   7.178   2.648   4.316 -0.1255  0.5567  0.3734
 4605TIP3    H113756   7.236   2.722   4.335  1.3156 -0.8930  1.9273
 4605TIP3    H213757   7.105   2.687   4.268  1.5435  2.6499 -0.6387
 4606TIP3   OH213758   5.042   1.461   1.840  0.2540 -0.0066  0.2464
 4606TIP3    H113759   5.136   1.467   1.859  0.4406 -0.0498 -0.6430
 4606TIP3    H213760   5.014   1.551   1.828  0.8357 -0.1146 -2.4990
 4607TIP3   OH213761   5.643   6.312   6.057 -0.7783  0.2889  0.6060
 4607TIP3    H113762   5.659   6.239   5.997 -0.0289  1.6037 -0.8404
 4607TIP3    H213763   5.728   6.354   6.067 -1.5041  1.9327  0.1261
 4608TIP3   OH213764   6.561   1.657   4.381 -0.2051 -0.4177  0.3058
 4608TIP3    H113765   6.495   1.726   4.367 -0.0462 -0.6817 -2.2719
 4608TIP3    H213766   6.640   1.691   4.339 -0.2233 -2.2393 -1.3626
 4609TIP3   OH213767   6.500   6.828   6.499  0.4572 -0.4984 -0.0937
 4609TIP3    H113768   6.527   6.767   6.430 -1.2752 -1.0841 -0.2998
 4609TIP3    H213769   6.563   6.815   6.569  1.9162 -0.3155 -1.3132
 4610TIP3   OH213770   4.088   5.197   3.911  0.2532  0.4577  0.5147
 4610TIP3    H113771   4.170   5.245   3.918  1.0618 -0.7047 -0.6748
 4610TIP3    H213772   4.113   5.105   3.909 -1.0363  0.0925 -0.3706
 4611TIP3   OH213773   2.934   3.043   6.682 -0.2586  0.0352  0.0543
 4611TIP3    H113774   2.907   2.973   6.623  0.8050 -0.4687  0.1344
 4611TIP3    H213775   2.876   3.116   6.661 -1.4320 -0.8824  0.0132
 4612TIP3   OH213776   0.325   0.063   2.475 -0.1547 -0.4740 -0.3093
 4612TIP3    H113777   0.383   0.138   2.466 -0.5834 -0.1304 -0.2085
 4612TIP3    H213778   0.340   0.011   2.395  3.2547 -2.5008  1.4026
 4613TIP3   OH213779   1.680   5.254   2.529 -0.0454  0.4858  0.1633
 4613TIP3    H113780   1.753   5.307   2.496  0.1357 -0.8853 -1.8085
 4613TIP3    H213781   1.695   5.248   2.623  1.9772  0.8614 -0.0910
 4614TIP3   OH213782   5.758   6.355   0.739  0.3113  0.1787 -0.7001
 4614TIP3    H113783   5.847   6.352   0.705  0.0469 -4.1767 -1.6322
 4614TIP3    H213784   5.732   6.263   0.745 -4.0850  1.2352 -0.2770
 4615TIP3   OH213785   8.352   3.494   4.563 -0.0142  0.6471 -0.3185
 4615TIP3    H113786   8.341   3.586   4.542 -0.7605  0.9216  1.1304
 4615TIP3    H213787   8.309   3.447   4.491  0.1722  1.4179 -0.9423
 4616TIP3   OH213788   5.688   1.306   6.464 -0.3047 -0.5273  0.5193
 4616TIP3    H113789   5.607   1.319   6.512  0.3945  1.7775  1.2058
 4616TIP3    H213790   5.675   1.352   6.381  0.1559 -0.4416  0.4891
 4617TIP3   OH213791   0.918   4.001   6.406 -0.1794 -0.0953  0.4695
 4617TIP3    H113792   0.855   3.933   6.429 -1.1559  0.4629 -0.4833
 4617TIP3    H213793   0.939   4.043   6.489 -1.6833  0.2260  0.7201
 4618TIP3   OH213794   7.069   4.777   6.026  0.3434  0.0505 -1.0047
 4618TIP3    H113795   7.069   4.724   6.106 -1.7298 -1.1556 -1.7275
 4618TIP3    H213796   7.001   4.843   6.041  1.7617  1.5109 -0.7796
 4619TIP3   OH213797   1.290   0.890   6.186  0.2924  0.1855  0.3562
 4619TIP3    H113798   1.265   0.817   6.243 -1.2576 -0.7062 -1.3506
 4619TIP3    H213799   1.374   0.863   6.149 -0.3063 -0.8528 -0.3325
 4620TIP3   OH213800   6.479   6.032   2.056 -0.3754 -0.3411 -0.0501
 4620TIP3    H113801   6.458   5.940   2.072  1.2424 -0.6280  0.6207
 4620TIP3    H213802   6.427   6.080   2.121 -2.0735 -0.6579 -1.1196
 4621TIP3   OH213803   7.790   6.725   2.409  0.2404  0.1212 -0.5523
 4621TIP3    H113804   7.755   6.675   2.482  3.3972 -1.7788 -0.1904
 4621TIP3    H213805   7.771   6.817   2.432 -0.7137 -0.5447  1.5469
 4622TIP3   OH213806   3.242   1.220   2.788 -0.9694 -0.2878 -0.1730
 4622TIP3    H113807   3.333   1.219   2.817 -1.1779 -0.9513  0.4826
 4622TIP3    H213808   3.216   1.312   2.793 -0.4709 -0.1581  0.0466
 4623TIP3   OH213809   6.600   2.639   6.076  0.1236  0.2911 -0.1480
 4623TIP3    H113810   6.635   2.551   6.070  2.4028  1.0969  0.2640
 4623TIP3    H213811   6.585   2.653   6.170  2.4287  1.2109  0.1602
 4624TIP3   OH213812   8.020   2.968   2.238 -0.5435  0.3655 -0.0853
 4624TIP3    H113813   7.976   2.979   2.154  2.0914 -0.0045 -1.6457
 4624TIP3    H213814   7.950   2.952   2.301 -2.6166  0.6655 -2.2021
 4625TIP3   OH213815   0.934   1.860   0.973  0.0261  0.0998  0.6960
 4625TIP3    H113816   0.990   1.836   0.899 -0.8548  0.3041 -0.0673
 4625TIP3    H213817   0.848   1.823   0.950 -1.0094  2.6302  0.1878
 4626TIP3   OH213818   0.274   4.428   2.901 -0.3881  0.3993  0.4971
 4626TIP3    H113819   0.180   4.444   2.912 -0.2532  1.8942 -0.1891
 4626TIP3    H213820   0.315   4.491   2.961  0.1845 -0.4336  0.9935
 4627TIP3   OH213821   2.202   2.548   3.109 -0.0515  0.1720 -0.5221
 4627TIP3    H113822   2.207   2.641   3.132 -2.6066 -0.0205  1.3335
 4627TIP3    H213823   2.187   2.504   3.193  0.3948 -1.8424 -1.4411
 4628TIP3   OH213824   7.197   1.048   4.515  0.1333 -0.2431  0.1901
 4628TIP3    H113825   7.170   1.135   4.544  0.8524 -0.3200  1.1741
 4628TIP3    H213826   7.195   1.052   4.420  0.2960  0.9050  0.2197
 4629TIP3   OH213827   5.852   6.626   6.070 -0.3411  0.0492  0.4604
 4629TIP3    H113828   5.831   6.628   5.976 -2.7100 -0.8221  0.8991
 4629TIP3    H213829   5.866   6.533   6.088  0.9912  0.3016  0.8474
 4630TIP3   OH213830   0.966   7.648   2.102  0.2213 -0.1465  0.6614
 4630TIP3    H113831   0.899   7.579   2.101  0.3397 -0.3173 -1.5179
 4630TIP3    H213832   0.918   7.728   2.081  0.3276  0.1739  1.6198
 4631TIP3   OH213833   1.262   7.812   0.144  0.0855 -0.0937 -0.0085
 4631TIP3    H113834   1.233   7.882   0.202 -0.7897 -1.1991  0.9254
 4631TIP3    H213835   1.221   7.831   0.060 -1.2235 -0.1813  0.5917
 4632TIP3   OH213836   2.288   3.303   4.699 -0.1254 -0.6540  0.2851
 4632TIP3    H113837   2.381   3.290   4.718  0.7293  0.8880 -2.3455
 4632TIP3    H213838   2.274   3.396   4.712 -0.7876 -0.5230 -1.2015
 4633TIP3   OH213839   0.930   1.875   6.375  0.1241 -0.2472 -0.5260
 4633TIP3    H113840   0.900   1.870   6.284  0.6059  0.2780 -0.7170
 4633TIP3    H213841   1.025   1.887   6.368  0.3777 -1.6718  0.0630
 4634TIP3   OH213842   4.282   1.043   0.595 -0.2075  0.1596 -0.1827
 4634TIP3    H113843   4.295   0.963   0.646 -0.1782  0.4852  0.3352
 4634TIP3    H213844   4.219   1.094   0.647 -2.0363 -0.5057 -1.6416
 4635TIP3   OH213845   1.064   4.646   6.412 -0.2693 -0.1069  0.2402
 4635TIP3    H113846   0.994   4.580   6.414 -0.1789 -0.1951  0.8383
 4635TIP3    H213847   1.065   4.682   6.501 -0.6059  1.0214 -0.1965
 4636TIP3   OH213848   2.863   0.945   0.369 -0.2447 -0.3547  0.0613
 4636TIP3    H113849   2.864   0.961   0.463  0.2804 -1.0250  0.1789
 4636TIP3    H213850   2.891   1.028   0.330  1.8439 -0.7226  0.6235
 4637TIP3   OH213851   1.516   4.206   2.136  0.5025 -0.2359 -0.0854
 4637TIP3    H113852   1.534   4.132   2.193  0.5719 -0.0683  0.1100
 4637TIP3    H213853   1.557   4.183   2.053  3.3512  0.9549  0.8591
 4638TIP3   OH213854   5.488   5.893   1.794  0.0162  0.2770  0.3281
 4638TIP3    H113855   5.413   5.862   1.744 -0.4129  0.8519  0.5987
 4638TIP3    H213856   5.551   5.821   1.791 -0.4281 -0.0980 -0.1452
 4639TIP3   OH213857   3.500   0.310   0.292 -0.1497  0.1232 -0.3334
 4639TIP3    H113858   3.473   0.398   0.264 -0.1285  0.0042 -0.7342
 4639TIP3    H213859   3.529   0.267   0.211  0.4290 -0.0398 -0.0453
 4640TIP3   OH213860   4.618   4.143   2.031  0.4285 -0.1067  0.8852
 4640TIP3    H113861   4.633   4.181   2.118  1.5529 -0.9303  1.0727
 4640TIP3    H213862   4.704   4.146   1.988  0.2175 -1.0807  0.3703
 4641TIP3   OH213863   3.312   7.047   6.635 -0.0756  0.2178 -0.8800
 4641TIP3    H113864   3.225   7.046   6.675  1.1959  2.2989  2.3402
 4641TIP3    H213865   3.356   6.970   6.673  0.1906  0.4775 -0.6583
 4642TIP3   OH213866   8.259   2.795   1.812 -0.0649 -0.2452  0.0130
 4642TIP3    H113867   8.346   2.783   1.773  1.0111 -1.5058  2.5348
 4642TIP3    H213868   8.259   2.736   1.888 -2.9291  0.1690  0.4331
 4643TIP3   OH213869   8.337   5.641   5.866 -0.1885  0.3686 -0.0257
 4643TIP3    H113870   8.406   5.707   5.860 -0.5516  0.6882 -1.0255
 4643TIP3    H213871   8.383   5.558   5.871  0.2746  0.6391  0.2685
 4644TIP3   OH213872   7.386   5.379   4.487 -0.6816 -0.5629 -0.1127
 4644TIP3    H113873   7.349   5.457   4.529 -1.9473 -1.3139  0.2135
 4644TIP3    H213874   7.469   5.409   4.450  0.2689  0.2907  2.4685
 4645TIP3   OH213875   4.652   6.638   3.441 -0.1480  0.5072  0.2163
 4645TIP3    H113876   4.569   6.620   3.398  0.4224 -1.1857 -0.2708
 4645TIP3    H213877   4.696   6.553   3.444  2.0262  1.5305 -0.5290
 4646TIP3   OH213878   4.805   5.320   0.880  0.0402  0.0521  0.0119
 4646TIP3    H113879   4.789   5.414   0.879  1.3772  0.3053  0.1635
 4646TIP3    H213880   4.899   5.312   0.860 -0.2082 -1.2825 -0.7225
 4647TIP3   OH213881   7.036   6.517   3.561  0.2890  0.6159  0.0726
 4647TIP3    H113882   7.039   6.570   3.640 -0.0092  0.1661  0.3959
 4647TIP3    H213883   7.097   6.445   3.579  0.4519  0.6768 -0.2332
 4648TIP3   OH213884   1.385   6.093   4.704  0.4505 -0.1961 -0.4610
 4648TIP3    H113885   1.413   6.022   4.647  2.0250 -0.2792  0.3545
 4648TIP3    H213886   1.467   6.127   4.741 -0.4852 -0.0363  1.5953
 4649TIP3   OH213887   6.879   4.193   1.506 -0.2564  0.2055  0.0310
 4649TIP3    H113888   6.943   4.263   1.493 -1.6498  1.2378 -1.8910
 4649TIP3    H213889   6.803   4.237   1.545 -0.9761 -0.2944 -0.7615
 4650TIP3   OH213890   2.391   7.933   6.181 -0.2426  0.1487  0.3130
 4650TIP3    H113891   2.432   7.924   6.266 -0.0807  0.0526  0.2246
 4650TIP3    H213892   2.310   7.883   6.188 -0.0989 -0.0828  0.3225
 4651TIP3   OH213893   6.381   0.305   5.176  0.0562 -0.1555  0.4024
 4651TIP3    H113894   6.457   0.288   5.119 -0.8438 -0.2062 -0.8205
 4651TIP3    H213895   6.396   0.251   5.253  1.3616 -0.0130  0.2719
 4652TIP3   OH213896   4.358   4.904   1.297  0.1353 -0.2452  0.5671
 4652TIP3    H113897   4.382   4.849   1.222 -1.7791  0.2906 -0.5214
 4652TIP3    H213898   4.262   4.911   1.291  0.2088  2.3784  1.2215
 4653TIP3   OH213899   8.335   6.724   6.474 -0.4596 -0.1551 -0.2730
 4653TIP3    H113900   8.410   6.779   6.450 -0.3965 -0.9693 -2.1662
 4653TIP3    H213901   8.373   6.639   6.495 -0.8148 -0.5169 -1.0481
 4654TIP3   OH213902   6.378   2.454   5.683  0.1383  0.1925  0.4181
 4654TIP3    H113903   6.387   2.435   5.590 -0.5934  1.2546  0.1070
 4654TIP3    H213904   6.466   2.441   5.718 -0.1936 -3.4761  0.2841
 4655TIP3   OH213905   8.326   2.117   2.749  0.6346 -0.4783  0.2794
 4655TIP3    H113906   8.395   2.089   2.689  0.3640 -0.0438 -0.2460
 4655TIP3    H213907   8.255   2.147   2.692  0.7390  0.8530  0.8078
 4656TIP3   OH213908   7.800   1.846   0.779 -0.1652 -0.4940  0.0204
 4656TIP3    H113909   7.819   1.878   0.690  1.2070  0.6606  0.6886
 4656TIP3    H213910   7.878   1.795   0.802 -1.3340 -2.4271 -0.1298
 4657TIP3   OH213911   2.359   1.767   5.684  0.1922  0.3465 -0.1125
 4657TIP3    H113912   2.268   1.765   5.654 -0.4909  3.1927  1.3588
 4657TIP3    H213913   2.397   1.840   5.635  1.3848 -0.1438  0.0748
 4658TIP3   OH213914   0.588   0.663   2.485 -0.1600 -0.2467 -0.2990
 4658TIP3    H113915   0.640   0.651   2.406  1.4332  0.9304  0.5216
 4658TIP3    H213916   0.605   0.753   2.512 -2.0456 -0.0557  0.4503
 4659TIP3   OH213917   7.240   5.292   2.554 -0.2034  0.2315  0.2665
 4659TIP3    H113918   7.247   5.211   2.503  2.3606  0.6268 -0.1746
 4659TIP3    H213919   7.308   5.284   2.620  0.6999  2.3345 -0.3074
 4660TIP3   OH213920   0.362   3.047   0.674 -0.0370  0.3879 -0.3281
 4660TIP3    H113921   0.425   3.112   0.705 -2.0496  3.1194 -1.4753
 4660TIP3    H213922   0.415   2.978   0.636  2.2637  1.3397  0.9279
 4661TIP3   OH213923   3.559   4.267   0.151 -0.6329  0.2669 -0.1784
 4661TIP3    H113924   3.621   4.208   0.108 -1.7300 -1.9255  1.0665
 4661TIP3    H213925   3.491   4.282   0.085 -0.1409  0.4931 -0.6437
 4662TIP3   OH213926   2.169   1.990   4.589 -0.1980 -0.3787  0.2373
 4662TIP3    H113927   2.135   2.079   4.600  0.6047 -0.1902  1.3161
 4662TIP3    H213928   2.090   1.935   4.591 -0.6548  0.2522  0.1357
 4663TIP3   OH213929   5.256   6.082   5.619  0.1675  0.2086  0.1169
 4663TIP3    H113930   5.331   6.040   5.575  0.3894  1.8706 -1.2011
 4663TIP3    H213931   5.218   6.013   5.673  2.8522 -0.6039  1.1246
 4664TIP3   OH213932   0.449   2.554   3.635 -0.2542  0.4768 -0.5992
 4664TIP3    H113933   0.430   2.551   3.542 -0.7868  0.1949 -0.4837
 4664TIP3    H213934   0.440   2.647   3.659 -1.3441  0.3823 -0.5844
 4665TIP3   OH213935   6.480   3.663   1.459 -0.0272  0.6257  0.2985
 4665TIP3    H113936   6.478   3.701   1.371 -0.9353  4.2166  1.6896
 4665TIP3    H213937   6.411   3.597   1.458 -0.7764  1.3631 -1.3978
 4666TIP3   OH213938   2.878   7.509   4.584 -0.1852  0.4893  0.0063
 4666TIP3    H113939   2.895   7.581   4.645 -0.4348  0.4726  0.0948
 4666TIP3    H213940   2.820   7.450   4.632 -0.1451  0.3303 -0.1403
 4667TIP3   OH213941   3.840   5.246   4.020  0.6119  0.2386 -0.1923
 4667TIP3    H113942   3.844   5.198   4.103 -1.0333 -0.7344 -0.6131
 4667TIP3    H213943   3.898   5.198   3.961  1.3158  0.5736  0.2246
 4668TIP3   OH213944   2.010   3.904   0.115  0.2043  0.0908 -0.0614
 4668TIP3    H113945   2.009   3.828   0.173 -0.3169  0.6569  0.7024
 4668TIP3    H213946   1.918   3.918   0.093  0.2954  0.5059 -0.1814
 4669TIP3   OH213947   5.700   0.227   3.338  0.0431  0.1267 -0.7684
 4669TIP3    H113948   5.669   0.313   3.366  0.6612  0.1673 -0.1754
 4669TIP3    H213949   5.794   0.228   3.356 -0.0832 -0.9941  0.1173
 4670TIP3   OH213950   5.975   3.265   3.517  0.3577  0.0831  0.1042
 4670TIP3    H113951   5.929   3.292   3.596  0.4131  1.1053 -0.1985
 4670TIP3    H213952   6.035   3.196   3.546  0.1972  0.2733  0.8973
 4671TIP3   OH213953   6.475   3.404   6.273  0.3809 -0.1965  0.0040
 4671TIP3    H113954   6.415   3.352   6.221 -1.2086  1.3453  0.2089
 4671TIP3    H213955   6.484   3.486   6.225 -1.7880  1.6139  2.4233
 4672TIP3   OH213956   1.587   5.035   6.643 -0.2025 -0.4202 -0.7483
 4672TIP3    H113957   1.612   5.127   6.635  2.0932 -0.9391 -0.2776
 4672TIP3    H213958   1.537   5.032   6.725 -0.6956  0.4517 -0.9966
 4673TIP3   OH213959   6.837   0.526   4.905  0.4471 -0.3838  0.0314
 4673TIP3    H113960   6.908   0.507   4.844  1.5511  1.5589  0.6047
 4673TIP3    H213961   6.836   0.451   4.964  1.4951 -0.8208 -0.4749
 4674TIP3   OH213962   3.641   5.198   3.554 -0.4005 -0.5354  0.1761
 4674TIP3    H113963   3.564   5.204   3.610 -0.3836  0.6971  0.0972
 4674TIP3    H213964   3.707   5.155   3.607  0.0703  1.8484  1.6611
 4675TIP3   OH213965   5.128   2.244   5.089 -0.3444 -0.3572 -0.2365
 4675TIP3    H113966   5.222   2.249   5.107 -0.2031 -0.8550 -0.8154
 4675TIP3    H213967   5.090   2.316   5.140  0.5344  0.8517 -1.2351
 4676TIP3   OH213968   5.485   4.265   0.783 -0.7833  0.0250 -0.0040
 4676TIP3    H113969   5.416   4.329   0.802 -0.2802 -0.0045  2.1163
 4676TIP3    H213970   5.537   4.261   0.863 -0.3080 -2.4316 -0.3615
 4677TIP3   OH213971   8.368   2.510   4.589 -0.1596  0.0363  0.5940
 4677TIP3    H113972   8.442   2.550   4.636 -0.0202  0.4852  0.0060
 4677TIP3    H213973   8.346   2.574   4.522 -1.5222  0.2074  1.1748
 4678TIP3   OH213974   2.438   1.955   5.517  0.1523  0.0357 -0.1537
 4678TIP3    H113975   2.363   1.993   5.562 -0.4063  0.3223 -1.2910
 4678TIP3    H213976   2.478   2.029   5.470  1.5318  0.0182  0.9273
 4679TIP3   OH213977   7.594   6.062   3.502  0.6143 -0.2682 -0.7889
 4679TIP3    H113978   7.677   6.054   3.455  2.3182  0.9429  1.7461
 4679TIP3    H213979   7.614   6.122   3.574 -2.7789  0.8742 -0.6500
 4680TIP3   OH213980   5.079   0.839   4.235 -0.1580 -0.7669  0.1139
 4680TIP3    H113981   5.140   0.873   4.300 -0.0646  1.0302 -0.8579
 4680TIP3    H213982   5.007   0.802   4.286  0.6306 -0.7743  1.2403
 4681TIP3   OH213983   3.370   5.466   0.620  0.1915  0.0312  0.0332
 4681TIP3    H113984   3.318   5.465   0.540 -1.0273  0.5407  0.7796
 4681TIP3    H213985   3.440   5.403   0.605 -0.2507 -0.1721 -1.2709
 4682TIP3   OH213986   1.316   7.365   1.196  0.2375 -0.4286 -0.5566
 4682TIP3    H113987   1.345   7.330   1.281  0.2514  0.2617 -0.2672
 4682TIP3    H213988   1.222   7.379   1.207 -0.1029 -1.9987 -1.2598
 4683TIP3   OH213989   1.303   3.287   5.166 -0.0871 -0.1997  0.1692
 4683TIP3    H113990   1.218   3.332   5.171  0.1252  0.1516  0.6696
 4683TIP3    H213991   1.350   3.333   5.096  0.0336  0.1876  0.5068
 4684TIP3   OH213992   1.591   6.988   1.324  0.4842  0.0147  0.2739
 4684TIP3    H113993   1.586   7.008   1.231 -0.3391  1.8195  0.6636
 4684TIP3    H213994   1.586   7.074   1.367 -1.5546 -0.9046  2.0432
 4685TIP3   OH213995   8.108   3.506   1.053 -0.0108  0.5063  0.4193
 4685TIP3    H113996   8.018   3.530   1.078 -0.2155 -0.6437  0.8485
 4685TIP3    H213997   8.131   3.569   0.986 -1.5227  0.2485 -0.4063
 4686TIP3   OH213998   0.601   4.845   0.983 -0.3307 -0.2444 -0.1488
 4686TIP3    H113999   0.627   4.754   0.968  2.4314  0.4752 -0.1546
 4686TIP3    H214000   0.631   4.891   0.905 -1.5788  0.7387 -0.0837
 4687TIP3   OH214001   5.194   5.079   6.316  0.0171 -0.1253 -0.3264
 4687TIP3    H114002   5.141   5.026   6.256  1.2680 -1.4419 -0.3152
 4687TIP3    H214003   5.193   5.031   6.398  0.7537  0.1395 -0.1546
 4688TIP3   OH214004   3.618   2.731   2.315 -0.2008 -0.6672 -0.4035
 4688TIP3    H114005   3.642   2.659   2.373 -1.2129 -0.6091  0.0977
 4688TIP3    H214006   3.651   2.704   2.229  0.1566 -1.3479 -0.0631
 4689TIP3   OH214007   1.442   7.505   3.173  0.9479  0.4968 -0.0796
 4689TIP3    H114008   1.505   7.556   3.122  0.8480  1.6002  0.8480
 4689TIP3    H214009   1.458   7.532   3.264  1.4407 -1.7543  0.5549
 4690TIP3   OH214010   6.985   6.998   4.224 -0.1013 -0.3501 -0.5626
 4690TIP3    H114011   6.915   7.021   4.286 -1.8934 -1.3916 -2.1144
 4690TIP3    H214012   6.996   6.903   4.234  1.8310 -0.0795  0.3429
 4691TIP3   OH214013   2.505   0.372   6.176 -0.2183 -0.1236  0.1099
 4691TIP3    H114014   2.472   0.461   6.164 -1.1163 -0.5527 -0.8053
 4691TIP3    H214015   2.592   0.383   6.215 -1.6172  1.0321  3.1663
 4692TIP3   OH214016   4.589   2.780   5.249 -0.1192  0.2422  0.1109
 4692TIP3    H114017   4.647   2.706   5.232  0.3980  0.2639  1.6853
 4692TIP3    H214018   4.560   2.768   5.339  0.5155  2.3039  0.6383
 4693TIP3   OH214019   6.932   2.583   6.215 -0.4631  0.2736  0.4278
 4693TIP3    H114020   6.870   2.648   6.248  0.3603  0.4070  1.7931
 4693TIP3    H214021   7.011   2.596   6.267 -0.2059 -1.6666  0.6120
 4694TIP3   OH214022   8.414   6.934   2.370 -0.0276  0.0480 -0.0102
 4694TIP3    H114023   8.352   7.007   2.364  2.0077  2.2127  2.6199
 4694TIP3    H214024   8.409   6.908   2.462 -0.1836 -2.7689 -0.7370
 4695TIP3   OH214025   6.761   0.594   6.260  0.3282 -0.1060  0.1151
 4695TIP3    H114026   6.747   0.687   6.277 -0.5007 -0.4306  1.3765
 4695TIP3    H214027   6.824   0.567   6.327  0.6635 -0.4375 -0.3278
 4696TIP3   OH214028   4.739   7.728   4.552 -0.3007 -0.1466 -0.8639
 4696TIP3    H114029   4.818   7.777   4.575 -0.7416  1.5344 -2.6348
 4696TIP3    H214030   4.673   7.795   4.535 -2.4658 -1.5136  1.4574
 4697TIP3   OH214031   4.710   5.065   5.903 -0.5419  0.0296  0.0179
 4697TIP3    H114032   4.753   5.139   5.947  1.0971 -0.8113 -0.0802
 4697TIP3    H214033   4.679   5.010   5.975 -1.8215  0.8157  0.0910
 4698TIP3   OH214034   2.645   6.183   4.840 -0.5686 -0.4547  0.5087
 4698TIP3    H114035   2.691   6.266   4.852 -1.0542 -0.1165  0.1015
 4698TIP3    H214036   2.639   6.145   4.927  2.6524 -1.7060  0.3174
 4699TIP3   OH214037   6.873   7.557   1.160 -0.3493  0.4242  0.1302
 4699TIP3    H114038   6.829   7.473   1.143  0.7696 -0.4831  1.5829
 4699TIP3    H214039   6.809   7.623   1.132 -0.9951 -0.8851 -1.6762
 4700TIP3   OH214040   7.242   0.981   3.702  0.2679 -0.4056  0.3897
 4700TIP3    H114041   7.297   1.008   3.628 -2.2669 -0.2662 -1.6183
 4700TIP3    H214042   7.242   0.885   3.698 -1.1846 -0.3978 -0.9705
 4701TIP3   OH214043   2.477   7.212   2.882 -0.3657  0.1276  0.0180
 4701TIP3    H114044   2.461   7.191   2.790 -0.0032  1.2863 -0.3265
 4701TIP3    H214045   2.507   7.303   2.881  1.6041 -0.4469  1.0868
 4702TIP3   OH214046   2.950   4.954   5.686 -0.7108  0.3644  0.2239
 4702TIP3    H114047   2.943   4.987   5.775  0.9687  0.5957  0.2976
 4702TIP3    H214048   3.017   5.009   5.645  0.7049 -1.6290 -0.2636
 4703TIP3   OH214049   7.501   4.436   0.884 -0.2114 -0.2935  0.1183
 4703TIP3    H114050   7.420   4.410   0.929 -0.7407  1.7408  0.4496
 4703TIP3    H214051   7.476   4.513   0.832  1.4719  0.2996  0.1228
 4704TIP3   OH214052   7.094   1.172   6.385 -0.0767 -0.1014 -0.0417
 4704TIP3    H114053   7.156   1.199   6.316  0.6734 -0.5624  0.4364
 4704TIP3    H214054   7.135   1.095   6.425 -0.9153 -0.3453  0.3622
 4705TIP3   OH214055   7.440   6.901   5.888  0.0677 -0.0919  0.0541
 4705TIP3    H114056   7.501   6.958   5.842 -0.9452  1.5280  0.6431
 4705TIP3    H214057   7.487   6.873   5.966  0.2129  0.7669  0.2742
 4706TIP3   OH214058   4.907   5.881   5.769 -0.6083 -0.2620  0.1519
 4706TIP3    H114059   4.882   5.804   5.718 -0.4333 -1.2239  1.4478
 4706TIP3    H214060   5.000   5.892   5.752 -0.8963  0.4988 -1.0652
 4707TIP3   OH214061   5.290   7.068   1.994  0.1634  0.3463 -0.2628
 4707TIP3    H114062   5.325   7.122   1.923  1.2144  1.2651  0.9110
 4707TIP3    H214063   5.357   7.070   2.062  0.0105 -2.0546  0.0431
 4708TIP3   OH214064   1.743   7.165   3.468 -0.4141  0.2373  0.0016
 4708TIP3    H114065   1.706   7.170   3.380 -0.2301 -0.9518 -0.1681
 4708TIP3    H214066   1.824   7.114   3.457 -0.2034  0.3895  0.7981
 4709TIP3   OH214067   6.784   1.372   2.273  0.0396  0.2710  0.5546
 4709TIP3    H114068   6.694   1.359   2.244  0.5079  0.4037 -1.0184
 4709TIP3    H214069   6.836   1.310   2.223  1.0557  1.4764  0.0599
 4710TIP3   OH214070   0.283   6.585   6.227 -0.1429  0.1589 -0.2809
 4710TIP3    H114071   0.262   6.638   6.304  0.2107  1.7150 -1.2070
 4710TIP3    H214072   0.361   6.626   6.190 -0.5511 -0.2793 -1.7067
 4711TIP3   OH214073   6.739   1.000   4.028 -0.0658 -0.3300 -0.5152
 4711TIP3    H114074   6.731   1.013   4.122  1.2309  1.1959 -0.5697
 4711TIP3    H214075   6.677   1.063   3.990 -0.1578 -0.5314 -0.7034
 4712TIP3   OH214076   6.015   2.944   1.649  0.1271  0.1229  0.1378
 4712TIP3    H114077   6.003   2.866   1.594 -0.5664  0.3777 -0.0806
 4712TIP3    H214078   6.107   2.967   1.637 -0.2252  0.7541 -1.7424
 4713TIP3   OH214079   2.180   6.405   0.322  0.6670 -0.1071  0.0255
 4713TIP3    H114080   2.249   6.341   0.305 -0.1988 -1.0112 -0.2485
 4713TIP3    H214081   2.225   6.482   0.355  1.7330 -0.9355  0.5617
 4714TIP3   OH214082   5.783   5.085   3.518  0.2084 -0.0217 -0.4278
 4714TIP3    H114083   5.761   5.009   3.571  1.4776  0.3567  0.7168
 4714TIP3    H214084   5.719   5.085   3.447  0.0161 -1.9783 -0.2971
 4715TIP3   OH214085   3.603   4.330   0.732 -0.4893  0.5387  0.2373
 4715TIP3    H114086   3.653   4.250   0.714 -1.3318  0.2071 -0.6964
 4715TIP3    H214087   3.591   4.330   0.827  2.3569  1.2930  0.7014
 4716TIP3   OH214088   7.447   4.979   6.205 -0.2700  0.8862  0.4475
 4716TIP3    H114089   7.542   4.969   6.212 -0.2807  0.9209  0.6655
 4716TIP3    H214090   7.423   4.929   6.127 -0.0875  0.7719  0.4640
 4717TIP3   OH214091   5.406   7.049   4.618  0.0991  0.0633 -0.5399
 4717TIP3    H114092   5.484   7.103   4.631  0.1313 -0.3233  0.9271
 4717TIP3    H214093   5.439   6.968   4.579  0.4584 -0.1932  0.2958
 4718TIP3   OH214094   6.125   7.161   4.223  0.1762 -0.4793  0.1068
 4718TIP3    H114095   6.178   7.231   4.260 -1.0787  1.1136 -0.9583
 4718TIP3    H214096   6.188   7.095   4.195  1.5056  0.7882 -0.0081
 4719TIP3   OH214097   3.326   4.733   0.177  0.1923  0.1819 -0.4666
 4719TIP3    H114098   3.237   4.768   0.184 -0.0446 -0.5090  0.2195
 4719TIP3    H214099   3.333   4.672   0.251  1.8395  1.5345  0.5703
 4720TIP3   OH214100   2.560   2.361   3.333 -0.1771 -0.2394 -0.4114
 4720TIP3    H114101   2.582   2.336   3.243  0.5846 -0.6592 -0.1209
 4720TIP3    H214102   2.547   2.278   3.378 -0.4087 -0.0318 -0.0946
 4721TIP3   OH214103   7.394   4.554   1.737  0.3398  0.0244 -0.3075
 4721TIP3    H114104   7.332   4.486   1.764  0.1600  0.8933  1.6326
 4721TIP3    H214105   7.340   4.618   1.691  0.2291 -0.3425 -0.7005
 4722TIP3   OH214106   7.670   1.246   2.403  0.7067 -0.1697  0.2297
 4722TIP3    H114107   7.728   1.315   2.434  1.0117  0.1835 -1.0604
 4722TIP3    H214108   7.627   1.283   2.326 -1.3758 -0.3664  1.2282
 4723TIP3   OH214109   2.140   6.297   2.255 -0.1261  0.3008 -0.0103
 4723TIP3    H114110   2.152   6.331   2.166 -0.2885 -0.9590 -0.5414
 4723TIP3    H214111   2.086   6.219   2.243 -1.3455  0.8933  1.3577
 4724TIP3   OH214112   0.725   4.761   6.346  0.5933  0.7820  0.1101
 4724TIP3    H114113   0.750   4.723   6.430  0.7605  1.5972  0.4390
 4724TIP3    H214114   0.637   4.727   6.330 -0.0356  1.7669  1.3306
 4725TIP3   OH214115   0.390   6.676   3.692 -0.5737 -0.2247 -0.1116
 4725TIP3    H114116   0.472   6.671   3.740  0.8348 -2.9725 -2.4836
 4725TIP3    H214117   0.323   6.644   3.753  0.6182 -0.8152  0.9221
 4726TIP3   OH214118   0.540   6.753   5.693  0.2589  0.7915  0.4341
 4726TIP3    H114119   0.536   6.756   5.788  0.3108 -1.8817  0.5757
 4726TIP3    H214120   0.457   6.715   5.666  0.5956  0.7018 -0.5403
 4727TIP3   OH214121   3.723   5.866   4.981 -0.3663  0.1981 -0.1983
 4727TIP3    H114122   3.749   5.774   4.970 -1.8334 -0.3788  0.8806
 4727TIP3    H214123   3.635   5.871   4.944 -1.5993  0.3813  2.5496
 4728TIP3   OH214124   4.586   6.793   4.994  0.0011 -0.0630  0.2840
 4728TIP3    H114125   4.542   6.768   4.913 -0.2324 -1.9756  0.9392
 4728TIP3    H214126   4.655   6.854   4.967 -2.1163  1.9576 -0.9384
 4729TIP3   OH214127   5.023   3.110   3.018 -0.6477 -0.6085 -0.4332
 4729TIP3    H114128   4.949   3.166   3.042 -1.2722 -1.3302 -0.6016
 4729TIP3    H214129   5.101   3.159   3.043 -1.1847  0.2242 -0.3634
 4730TIP3   OH214130   2.839   3.005   0.941 -0.2390 -0.1059 -0.2297
 4730TIP3    H114131   2.886   2.925   0.918  1.7760  1.0394 -0.3342
 4730TIP3    H214132   2.812   2.992   1.032  0.9459 -0.5294  0.0826
 4731TIP3   OH214133   3.216   1.924   5.630 -0.1467  0.7842 -0.0941
 4731TIP3    H114134   3.164   1.896   5.555 -0.1317  0.5308 -0.0130
 4731TIP3    H214135   3.151   1.948   5.696 -0.2066 -1.0181  0.5659
 4732TIP3   OH214136   3.669   7.868   5.213 -0.1674  0.4816  0.5242
 4732TIP3    H114137   3.644   7.827   5.296 -3.4606  0.9504 -0.1266
 4732TIP3    H214138   3.631   7.811   5.146 -1.1707  2.2938 -0.5107
 4733TIP3   OH214139   6.021   2.462   5.102  0.6790 -0.2668  0.2058
 4733TIP3    H114140   6.088   2.401   5.072 -0.7200 -0.9696 -1.6196
 4733TIP3    H214141   6.051   2.548   5.071 -0.2219 -0.8423 -2.4718
 4734TIP3   OH214142   4.745   1.351   0.373  0.1165  0.3821 -0.0232
 4734TIP3    H114143   4.814   1.311   0.426 -1.0180 -1.2233  0.2929
 4734TIP3    H214144   4.786   1.369   0.288  0.5310 -2.0351 -0.3859
 4735TIP3   OH214145   3.810   0.759   1.598  0.1300  0.1877 -0.6141
 4735TIP3    H114146   3.902   0.778   1.615  0.1560 -0.2485 -0.2307
 4735TIP3    H214147   3.800   0.666   1.622 -0.7425  0.6185  0.8356
 4736TIP3   OH214148   4.386   3.170   3.926  0.4510  0.1539  0.1848
 4736TIP3    H114149   4.306   3.145   3.972  0.9419 -0.1586  0.8789
 4736TIP3    H214150   4.355   3.201   3.840 -0.3029 -1.2547 -0.0804
 4737TIP3   OH214151   4.342   6.514   1.149 -0.3404  0.1186  0.3826
 4737TIP3    H114152   4.259   6.501   1.194 -0.3604  0.4022  0.4318
 4737TIP3    H214153   4.382   6.427   1.145 -0.7912 -0.0771  0.0558
 4738TIP3   OH214154   5.628   7.454   3.770 -0.2803 -0.5529  0.2122
 4738TIP3    H114155   5.705   7.483   3.720 -0.5894 -1.0229 -0.5491
 4738TIP3    H214156   5.629   7.510   3.848  0.5174 -0.1702 -0.0502
 4739TIP3   OH214157   3.419   1.644   0.089 -0.2379 -0.3624  0.1986
 4739TIP3    H114158   3.491   1.666   0.148 -0.9774  1.6489  0.4380
 4739TIP3    H214159   3.446   1.677   0.004 -0.0272 -1.4388 -0.1584
 4740TIP3   OH214160   6.066   6.938   6.309  0.6749 -0.4966  0.1424
 4740TIP3    H114161   6.132   6.886   6.264  0.8770 -0.3987  0.3286
 4740TIP3    H214162   6.115   7.001   6.361  0.4530  0.6869 -0.9948
 4741TIP3   OH214163   2.796   7.722   5.596  0.1846 -0.2241  0.1195
 4741TIP3    H114164   2.840   7.639   5.615 -2.0934 -1.5910 -0.2368
 4741TIP3    H214165   2.748   7.742   5.677 -2.7005 -1.5864 -1.1374
 4742TIP3   OH214166   3.039   0.269   1.616 -0.0716  0.0710 -0.5025
 4742TIP3    H114167   2.988   0.191   1.596 -0.0142 -0.6509  1.8189
 4742TIP3    H214168   3.020   0.330   1.545 -0.6956 -1.7678 -1.9822
 4743TIP3   OH214169   4.340   3.382   2.371 -0.3056 -0.4035  0.0109
 4743TIP3    H114170   4.383   3.320   2.311 -2.0444 -0.6552 -1.0218
 4743TIP3    H214171   4.274   3.330   2.416 -1.7426  0.6376 -0.8095
 4744TIP3   OH214172   7.112   5.895   6.731  0.4143 -0.1680 -0.8878
 4744TIP3    H114173   7.106   5.841   6.652 -2.4530 -0.2093 -0.7297
 4744TIP3    H214174   7.082   5.838   6.802  0.7886  0.5575 -0.1208
 4745TIP3   OH214175   7.360   5.651   2.718 -0.0638 -0.7071 -0.0927
 4745TIP3    H114176   7.387   5.710   2.788  2.3338 -2.1755  0.3292
 4745TIP3    H214177   7.284   5.604   2.754  0.0752 -0.2389  0.8436
 4746TIP3   OH214178   7.083   1.883   5.808  0.1563  0.0645 -0.6926
 4746TIP3    H114179   7.157   1.856   5.754  2.1544 -1.3000  2.4551
 4746TIP3    H214180   7.121   1.943   5.872 -1.4975 -0.4817  0.8826
 4747TIP3   OH214181   0.188   4.709   2.870 -0.3146  0.0313 -0.4440
 4747TIP3    H114182   0.198   4.789   2.819 -3.2375  0.5075 -0.4311
 4747TIP3    H214183   0.278   4.677   2.882  0.7449  1.8666 -2.6660
 4748TIP3   OH214184   4.146   6.571   6.709 -0.4791 -0.3126 -1.0842
 4748TIP3    H114185   4.216   6.509   6.688 -1.2424 -1.5619 -0.0937
 4748TIP3    H214186   4.103   6.533   6.786 -1.2308  1.2570 -0.6991
 4749TIP3   OH214187   2.126   4.477   3.843  0.5004  0.2071 -0.0915
 4749TIP3    H114188   2.218   4.503   3.841  1.0566 -1.6014 -1.7741
 4749TIP3    H214189   2.078   4.556   3.819  1.6871  0.9589 -0.0586
 4750TIP3   OH214190   1.508   2.174   1.293 -0.5346 -0.2268 -0.0655
 4750TIP3    H114191   1.547   2.206   1.213 -1.8920  1.4107 -0.1396
 4750TIP3    H214192   1.454   2.247   1.324 -2.0964 -1.7262  0.9319
 4751TIP3   OH214193   5.664   6.987   5.187  0.1012 -0.2716 -0.1700
 4751TIP3    H114194   5.653   6.900   5.151  2.0236 -0.5032 -0.2970
 4751TIP3    H214195   5.758   7.003   5.185 -0.2315  2.0992 -0.8287
 4752TIP3   OH214196   1.576   4.768   4.123 -0.7260  0.2323 -0.4333
 4752TIP3    H114197   1.510   4.753   4.190 -1.0737  0.3714 -0.7417
 4752TIP3    H214198   1.561   4.700   4.057  1.0348 -1.3269  0.6738
 4753TIP3   OH214199   2.837   3.630   3.422  0.2371 -0.4822  0.3150
 4753TIP3    H114200   2.756   3.675   3.402  1.4361  1.3394 -0.7247
 4753TIP3    H214201   2.859   3.582   3.342  0.5287 -0.4263  0.3598
 4754TIP3   OH214202   4.196   3.329   1.257 -0.0829 -0.0073  0.0511
 4754TIP3    H114203   4.192   3.267   1.184 -0.0786  0.2601 -0.1828
 4754TIP3    H214204   4.108   3.327   1.294  0.8435 -2.9366  2.4503
 4755TIP3   OH214205   8.073   1.181   1.190  0.9379 -0.0185  0.0064
 4755TIP3    H114206   7.981   1.188   1.216  0.4000 -0.9763 -1.5225
 4755TIP3    H214207   8.114   1.259   1.227 -0.0780 -0.4772  2.2857
 4756TIP3   OH214208   7.084   1.152   1.619 -0.2543  0.0573 -0.5721
 4756TIP3    H114209   7.045   1.238   1.606 -0.4337  0.0968  0.2283
 4756TIP3    H214210   7.016   1.100   1.661 -0.2706 -0.5868 -1.3552
 4757TIP3   OH214211   2.269   1.561   1.100  0.1602 -0.6087 -0.2174
 4757TIP3    H114212   2.229   1.642   1.068 -0.0196 -0.6486 -0.0925
 4757TIP3    H214213   2.207   1.492   1.075  0.5811 -0.7812 -0.8402
 4758TIP3   OH214214   7.394   1.194   1.744 -0.7856 -0.0935  0.6248
 4758TIP3    H114215   7.317   1.156   1.786 -3.6400  0.5426 -3.4907
 4758TIP3    H214216   7.384   1.288   1.754  0.2451 -0.0294  1.2162
 4759TIP3   OH214217   2.650   5.547   2.240 -0.8132  0.1095  0.3915
 4759TIP3    H114218   2.573   5.498   2.211  0.6628 -1.8129 -0.5082
 4759TIP3    H214219   2.698   5.486   2.296  0.3151  1.0860  0.5284
 4760TIP3   OH214220   8.393   4.716   6.498  0.4791 -0.1762  0.3146
 4760TIP3    H114221   8.343   4.676   6.569 -0.5176  0.4092 -0.0408
 4760TIP3    H214222   8.369   4.666   6.420 -0.6809  0.9707 -0.1114
 4761TIP3   OH214223   1.070   5.658   2.612  0.0246  0.4104  0.3334
 4761TIP3    H114224   1.057   5.732   2.671  0.1076  1.4428 -0.8957
 4761TIP3    H214225   1.071   5.581   2.669 -2.4578  1.0954  1.4378
 4762TIP3   OH214226   6.595   3.519   5.847  0.3181 -0.0518 -0.3589
 4762TIP3    H114227   6.552   3.439   5.879 -2.4627  2.2056  2.1203
 4762TIP3    H214228   6.541   3.547   5.774 -0.9560  1.3486  1.0455
 4763TIP3   OH214229   0.247   1.047   3.550 -0.3413 -0.9193 -0.6855
 4763TIP3    H114230   0.206   0.970   3.591  0.8867 -0.4650  1.5677
 4763TIP3    H214231   0.337   1.045   3.582 -0.1114  1.1137 -1.0856
 4764TIP3   OH214232   4.626   4.849   0.093  0.0879  0.1482  0.1524
 4764TIP3    H114233   4.566   4.775   0.095  1.2437 -0.9203  4.0244
 4764TIP3    H214234   4.575   4.923   0.127 -0.2846  0.4508 -1.0344
 4765TIP3   OH214235   6.613   7.630   0.109  0.5040  0.2982 -0.6289
 4765TIP3    H114236   6.678   7.693   0.139  0.1093 -0.4440  2.0054
 4765TIP3    H214237   6.551   7.623   0.181 -2.1118  0.3580 -2.6999
 4766TIP3   OH214238   0.348   0.515   3.616 -0.0096 -0.3483  0.2271
 4766TIP3    H114239   0.286   0.464   3.668  1.6117 -0.5334  2.0663
 4766TIP3    H214240   0.434   0.482   3.642  0.9709  1.4295 -0.6025
 4767TIP3   OH214241   1.816   2.813   2.657  0.1910  0.4829 -0.3830
 4767TIP3    H114242   1.837   2.766   2.576  0.7255  0.5712 -0.2959
 4767TIP3    H214243   1.823   2.905   2.634  0.0790  0.5104 -0.3057
 4768TIP3   OH214244   6.225   2.602   5.501 -0.4384 -0.3171  0.1721
 4768TIP3    H114245   6.179   2.671   5.548 -0.7587  0.5071 -1.3067
 4768TIP3    H214246   6.295   2.646   5.454 -0.4576 -1.0349 -0.5559
 4769TIP3   OH214247   1.066   0.979   2.276  0.3163  0.6946  0.2246
 4769TIP3    H114248   1.040   0.932   2.197  0.5964  2.2604 -0.8433
 4769TIP3    H214249   1.067   1.071   2.250  0.4350  1.2544  2.0565
 4770TIP3   OH214250   0.678   3.087   2.550  0.4042  0.2266  0.0765
 4770TIP3    H114251   0.701   2.995   2.563  0.3423  0.2157  0.1098
 4770TIP3    H214252   0.595   3.098   2.597  0.2158  0.2057 -0.2454
 4771TIP3   OH214253   0.120   2.852   6.518  0.4825 -0.3605 -0.3820
 4771TIP3    H114254   0.086   2.817   6.436  0.5159  0.4790 -0.7714
 4771TIP3    H214255   0.081   2.797   6.586  0.8550 -1.3913 -0.9784
 4772TIP3   OH214256   3.711   6.668   6.207 -0.3428 -0.1208 -0.4448
 4772TIP3    H114257   3.621   6.639   6.195  0.0875 -1.7315  0.0028
 4772TIP3    H214258   3.709   6.761   6.186 -1.8350 -0.4090 -1.7891
 4773TIP3   OH214259   2.244   2.875   2.301  0.1820 -0.5336 -0.0087
 4773TIP3    H114260   2.322   2.913   2.260 -0.0897  0.9806  0.8265
 4773TIP3    H214261   2.269   2.861   2.392 -0.9985  1.5680  0.6996
 4774TIP3   OH214262   4.370   1.443   3.269 -0.4689  0.0940  0.2997
 4774TIP3    H114263   4.387   1.465   3.177 -0.7097 -0.7531  0.0419
 4774TIP3    H214264   4.279   1.415   3.271 -0.7112  0.8914  0.9628
 4775TIP3   OH214265   1.129   2.499   0.601 -0.0759  0.5538  0.4339
 4775TIP3    H114266   1.097   2.578   0.557 -1.3311 -0.0671  0.1699
 4775TIP3    H214267   1.140   2.526   0.692  1.9513  1.6817 -0.0975
 4776TIP3   OH214268   6.744   4.637   6.310  0.9356 -0.2470 -0.4013
 4776TIP3    H114269   6.724   4.662   6.220 -2.4697  0.2338  0.3473
 4776TIP3    H214270   6.769   4.545   6.305 -0.3674 -0.5596 -1.7663
 4777TIP3   OH214271   1.403   1.793   4.799  0.1963  0.3948  0.7132
 4777TIP3    H114272   1.395   1.824   4.889  1.2986  1.0105  0.6127
 4777TIP3    H214273   1.316   1.808   4.760  0.1067  1.4123  1.2761
 4778TIP3   OH214274   1.688   3.241   2.340 -0.0854 -0.0772 -0.4961
 4778TIP3    H114275   1.751   3.277   2.277 -0.3524  1.4582  0.0556
 4778TIP3    H214276   1.677   3.150   2.314  0.9445  0.1221 -1.7463
 4779TIP3   OH214277   5.870   2.909   1.884 -0.4374  0.6938  0.0053
 4779TIP3    H114278   5.782   2.871   1.891 -0.5550  0.2629 -2.6201
 4779TIP3    H214279   5.900   2.883   1.797  2.7181  0.0235  1.1722
 4780TIP3   OH214280   7.285   5.992   0.492 -0.1580 -0.7672  0.5552
 4780TIP3    H114281   7.253   5.902   0.498 -1.4940 -0.6396 -2.4424
 4780TIP3    H214282   7.252   6.035   0.571 -0.3716 -2.6372  1.5446
 4781TIP3   OH214283   5.528   3.511   4.622  0.8546  0.0457  0.2688
 4781TIP3    H114284   5.555   3.452   4.692  0.8000  0.6288  0.7960
 4781TIP3    H214285   5.550   3.598   4.655 -0.1033  0.4093 -0.0110
 4782TIP3   OH214286   5.995   5.521   1.172  0.3861  0.1627 -0.2879
 4782TIP3    H114287   6.069   5.507   1.113  0.6140 -0.1740  0.0746
 4782TIP3    H214288   6.033   5.516   1.260  0.1508  1.2353 -0.1169
 4783TIP3   OH214289   3.429   0.620   2.370 -0.1710  0.1061  0.1449
 4783TIP3    H114290   3.428   0.557   2.442  1.2815 -1.7579 -1.3581
 4783TIP3    H214291   3.363   0.586   2.309 -0.6801  1.1092  0.1218
 4784TIP3   OH214292   5.825   0.471   3.134 -0.6173  0.0520  0.3871
 4784TIP3    H114293   5.795   0.433   3.051  1.1596 -0.2064 -0.1759
 4784TIP3    H214294   5.809   0.402   3.199 -2.0262  0.2605  0.2868
 4785TIP3   OH214295   8.154   0.644   5.059 -0.5720  0.1990  0.1316
 4785TIP3    H114296   8.199   0.661   4.977  0.9706 -0.8088  0.7241
 4785TIP3    H214297   8.123   0.553   5.052 -1.1567  0.3738  0.3467
 4786TIP3   OH214298   7.544   4.084   3.431 -0.1835  0.1749 -0.7812
 4786TIP3    H114299   7.456   4.100   3.464 -0.3885 -0.4925 -1.0014
 4786TIP3    H214300   7.594   4.162   3.457 -0.4821 -0.0625  0.5600
 4787TIP3   OH214301   1.270   2.811   5.036 -0.4150  0.2568 -0.2196
 4787TIP3    H114302   1.190   2.785   4.992 -0.8887 -0.7777  1.1692
 4787TIP3    H214303   1.249   2.896   5.076 -1.1470 -0.4249  0.8919
 4788TIP3   OH214304   2.979   6.400   3.666 -0.3125 -0.1830 -0.1786
 4788TIP3    H114305   2.919   6.475   3.669  0.4569  0.4575 -0.5367
 4788TIP3    H214306   2.954   6.347   3.742 -2.4251 -0.8005 -1.2254
 4789TIP3   OH214307   0.699   0.833   1.636 -0.5728 -0.2171  0.0115
 4789TIP3    H114308   0.631   0.899   1.621 -1.0833 -0.8318 -0.4173
 4789TIP3    H214309   0.672   0.788   1.715 -0.5265 -0.2881 -0.0131
 4790TIP3   OH214310   0.995   5.591   0.139  0.0141 -0.1235  0.1471
 4790TIP3    H114311   0.899   5.588   0.145 -0.0656  1.0200 -0.2452
 4790TIP3    H214312   1.012   5.660   0.075  1.1272  1.5373  2.1213
 4791TIP3   OH214313   6.751   5.522   6.397  0.1522 -0.2388  0.2984
 4791TIP3    H114314   6.793   5.444   6.361  0.1985  0.5713 -1.4987
 4791TIP3    H214315   6.698   5.556   6.325  0.0222  1.2956  1.0852
 4792TIP3   OH214316   0.776   0.541   1.104  0.4375  0.2284  0.0186
 4792TIP3    H114317   0.754   0.460   1.059 -1.0270 -0.0081  1.0887
 4792TIP3    H214318   0.800   0.602   1.034 -0.3789 -0.5462 -0.9603
 4793TIP3   OH214319   0.648   3.573   6.720 -0.1861 -0.1554  0.0546
 4793TIP3    H114320   0.670   3.514   6.648  2.7678  1.0326 -0.1486
 4793TIP3    H214321   0.677   3.526   6.798 -1.6737 -0.6456  0.3541
 4794TIP3   OH214322   6.302   2.167   3.868  0.3036  0.2288 -0.6798
 4794TIP3    H114323   6.274   2.183   3.958 -0.9494  1.2710 -1.2099
 4794TIP3    H214324   6.285   2.073   3.854  0.3672  0.0910  0.1060
 4795TIP3   OH214325   7.214   3.338   1.653  0.3444 -0.3347  0.3599
 4795TIP3    H114326   7.247   3.379   1.574 -2.5691 -1.5203 -1.6581
 4795TIP3    H214327   7.191   3.411   1.711 -1.2665  0.8319 -1.6157
 4796TIP3   OH214328   7.871   0.862   0.884  0.2039  0.4310 -0.0690
 4796TIP3    H114329   7.935   0.791   0.894 -0.2144 -0.0058 -0.4352
 4796TIP3    H214330   7.803   0.825   0.829 -0.6979  0.6738  0.8592
 4797TIP3   OH214331   0.183   2.904   4.420  0.0194 -0.1411 -0.6300
 4797TIP3    H114332   0.204   2.812   4.403 -2.0957 -0.5539 -1.3032
 4797TIP3    H214333   0.207   2.949   4.339  2.9800  0.3369  0.3919
 4798TIP3   OH214334   6.447   4.397   6.064 -0.2594  0.1390  0.5656
 4798TIP3    H114335   6.480   4.425   5.979 -1.1197  1.0635  0.5135
 4798TIP3    H214336   6.353   4.381   6.050 -0.3511  0.0109  1.2647
 4799TIP3   OH214337   3.709   6.251   6.461 -0.4582 -0.6165 -0.1963
 4799TIP3    H114338   3.764   6.239   6.383  1.6219  2.7753  0.5216
 4799TIP3    H214339   3.670   6.166   6.476  0.3888 -1.8633 -3.9369
 4800TIP3   OH214340   7.549   3.328   1.662  0.9051 -0.0374 -0.5160
 4800TIP3    H114341   7.518   3.259   1.603  1.6977 -0.3380 -0.5927
 4800TIP3    H214342   7.469   3.366   1.699  0.4679 -1.6292  0.2528
 4801TIP3   OH214343   5.314   2.738   3.905  0.3834  0.7787 -0.2257
 4801TIP3    H114344   5.336   2.655   3.947  1.3701  1.5916  0.9452
 4801TIP3    H214345   5.220   2.750   3.921  0.1721 -0.2210 -0.6496
 4802TIP3   OH214346   6.907   7.754   0.604  0.2059  0.1700 -0.3179
 4802TIP3    H114347   6.828   7.715   0.565  0.0582 -0.9554  1.0068
 4802TIP3    H214348   6.963   7.774   0.529 -1.0056  0.2442 -1.2370
 4803TIP3   OH214349   3.095   2.651   2.674  0.4042  0.1290  0.0114
 4803TIP3    H114350   3.049   2.684   2.752 -0.2060  1.5295 -0.8882
 4803TIP3    H214351   3.028   2.602   2.627  0.2481  0.8690 -0.5450
 4804TIP3   OH214352   7.433   4.893   2.047 -0.3809  0.0781  0.3178
 4804TIP3    H114353   7.507   4.954   2.053  0.3836 -0.5310 -1.9502
 4804TIP3    H214354   7.371   4.937   1.988 -1.2079 -0.0320  1.0884
 4805TIP3   OH214355   6.984   4.372   5.935 -0.0509  0.6684 -0.0453
 4805TIP3    H114356   7.043   4.407   6.002 -0.3674  0.9601  0.0782
 4805TIP3    H214357   7.008   4.421   5.856 -1.4175  2.1817  0.4179
 4806TIP3   OH214358   5.096   6.517   2.745  0.2315 -0.0143 -0.5256
 4806TIP3    H114359   5.015   6.543   2.700 -0.3694 -0.0620  0.4967
 4806TIP3    H214360   5.131   6.446   2.692 -1.2740 -1.1098 -0.1273
 4807TIP3   OH214361   4.526   1.103   0.430 -0.4516 -0.1401 -0.0669
 4807TIP3    H114362   4.472   1.086   0.508 -0.8843 -3.0781 -0.8880
 4807TIP3    H214363   4.463   1.135   0.365 -0.5300  0.0358  0.0944
 4808TIP3   OH214364   5.725   3.433   0.883  1.0010 -0.6854 -0.0298
 4808TIP3    H114365   5.780   3.356   0.897  0.0849 -1.2970  0.3091
 4808TIP3    H214366   5.642   3.411   0.925  0.0557 -0.3173 -1.6292
 4809TIP3   OH214367   0.346   3.824   4.516  0.0036 -0.2251 -0.0696
 4809TIP3    H114368   0.335   3.915   4.489 -2.8849 -0.6646 -0.7228
 4809TIP3    H214369   0.367   3.829   4.609  2.9637  1.1087 -0.6939
 4810TIP3   OH214370   3.287   0.290   4.020 -0.2473 -0.2907 -0.0477
 4810TIP3    H114371   3.237   0.355   4.068 -0.8448 -0.4996 -0.3739
 4810TIP3    H214372   3.221   0.243   3.968  0.4698  0.5967 -1.8592
 4811TIP3   OH214373   4.011   0.671   4.249 -0.4870 -0.7842  0.2439
 4811TIP3    H114374   3.934   0.678   4.193 -0.0089  4.5216 -0.2774
 4811TIP3    H214375   4.085   0.691   4.192  0.4650  0.5964  1.8335
 4812TIP3   OH214376   5.786   1.311   2.069 -0.0601 -0.4800  0.0643
 4812TIP3    H114377   5.849   1.241   2.087  0.1656 -0.8613 -1.9795
 4812TIP3    H214378   5.796   1.329   1.975 -2.8531 -0.4019 -0.3035
 4813TIP3   OH214379   1.152   0.807   4.358 -0.0004  0.4641 -0.6935
 4813TIP3    H114380   1.128   0.719   4.388  0.7386  0.4828 -0.0314
 4813TIP3    H214381   1.074   0.838   4.311 -1.0837  0.3297  0.9538
 4814TIP3   OH214382   3.659   4.918   0.829 -0.3788 -0.7471 -0.4832
 4814TIP3    H114383   3.689   4.918   0.739  0.8046 -0.2408 -0.1112
 4814TIP3    H214384   3.676   4.830   0.861  1.2669 -0.3311 -0.1256
 4815TIP3   OH214385   4.699   1.713   3.919 -0.0923  0.1780  0.6713
 4815TIP3    H114386   4.685   1.772   3.993  0.8625 -0.3452  1.2844
 4815TIP3    H214387   4.717   1.772   3.845  1.1208  0.6633  1.3285
 4816TIP3   OH214388   3.392   1.919   0.749 -0.8701 -0.0364 -0.4105
 4816TIP3    H114389   3.387   1.992   0.688  0.3578  0.7332  0.3586
 4816TIP3    H214390   3.480   1.882   0.735 -0.7376 -0.1233  0.5464
 4817TIP3   OH214391   3.815   6.687   0.383 -0.3417  0.2802 -0.0647
 4817TIP3    H114392   3.847   6.620   0.443  0.5460  0.2554 -0.5486
 4817TIP3    H214393   3.815   6.768   0.435 -2.1103 -0.1901  0.7405
 4818TIP3   OH214394   4.407   0.733   3.406  0.0665  0.1550  0.1866
 4818TIP3    H114395   4.391   0.742   3.312  1.0048  0.1838  0.0156
 4818TIP3    H214396   4.454   0.812   3.430  1.7313 -0.7990  0.2195
 4819TIP3   OH214397   2.893   6.975   5.939  0.2359 -0.1926  0.0024
 4819TIP3    H114398   2.891   6.955   6.033 -1.7255  1.6512  0.4237
 4819TIP3    H214399   2.843   6.904   5.899 -0.4286 -0.0494  0.5659
 4820TIP3   OH214400   2.106   3.688   5.621 -0.0108  0.2282  0.6278
 4820TIP3    H114401   2.017   3.697   5.654  0.7258  0.6838  2.5769
 4820TIP3    H214402   2.141   3.611   5.665 -0.2886 -1.7199 -2.2597
 4821TIP3   OH214403   8.245   2.298   6.134  0.4681 -0.5545 -0.4198
 4821TIP3    H114404   8.315   2.328   6.191 -0.3108  0.6105 -0.0526
 4821TIP3    H214405   8.200   2.230   6.184  0.3701 -0.1988 -0.0251
 4822TIP3   OH214406   2.375   6.815   6.056  0.0657  0.0380 -0.5510
 4822TIP3    H114407   2.301   6.824   5.995 -2.1385 -0.5638  1.8757
 4822TIP3    H214408   2.390   6.721   6.062  0.6918  0.1300 -0.5836
 4823TIP3   OH214409   8.090   7.809   5.229  0.4825 -0.7037 -0.1153
 4823TIP3    H114410   7.995   7.804   5.238  0.3369 -0.1058 -1.0993
 4823TIP3    H214411   8.114   7.731   5.179  0.4551 -0.6790 -0.1682
 4824TIP3   OH214412   8.036   0.663   5.879 -0.4965  0.0169 -0.7822
 4824TIP3    H114413   7.988   0.697   5.955 -0.3803  0.0959 -0.7444
 4824TIP3    H214414   8.027   0.731   5.813  1.2270  0.9505 -0.1287
 4825TIP3   OH214415   4.941   3.142   1.556  0.3943 -0.1658  0.4164
 4825TIP3    H114416   4.855   3.166   1.590  0.4231 -0.6869  0.8838
 4825TIP3    H214417   4.946   3.047   1.570  0.3907 -0.4108 -1.0911
 4826TIP3   OH214418   6.558   2.471   1.267  0.4215  0.4229  0.4429
 4826TIP3    H114419   6.479   2.521   1.285  0.9322  1.6455 -0.5468
 4826TIP3    H214420   6.528   2.391   1.224 -0.2983  0.7063  0.4186
 4827TIP3   OH214421   7.118   6.637   3.127  0.4221  0.4835 -0.1151
 4827TIP3    H114422   7.040   6.586   3.103  0.5940 -0.5401  1.3891
 4827TIP3    H214423   7.191   6.585   3.095  0.5360  1.0711 -0.8427
 4828TIP3   OH214424   7.907   3.514   2.326  0.3741 -0.3137 -0.4001
 4828TIP3    H114425   7.999   3.498   2.305  0.3599  0.2818 -0.9445
 4828TIP3    H214426   7.860   3.452   2.270  0.4040  0.1565 -0.9568
 4829TIP3   OH214427   4.158   2.994   0.545  0.0328  0.3309  0.2426
 4829TIP3    H114428   4.116   3.073   0.510 -0.9101 -0.6421 -0.8981
 4829TIP3    H214429   4.208   2.959   0.472  0.8102  0.0841  0.8728
 4830TIP3   OH214430   3.444   0.872   5.967 -0.1983 -0.2329 -0.0243
 4830TIP3    H114431   3.464   0.778   5.962 -0.4835 -0.4220  1.7527
 4830TIP3    H214432   3.482   0.901   6.050  0.3885  1.3859 -0.8101
 4831TIP3   OH214433   0.434   0.453   4.177 -0.5698  0.0850 -0.7789
 4831TIP3    H114434   0.433   0.383   4.242  0.8925 -0.0213 -0.8393
 4831TIP3    H214435   0.523   0.489   4.182 -0.3762 -0.0012 -2.7922
 4832TIP3   OH214436   7.341   5.443   0.671 -0.3247  0.4346 -0.1776
 4832TIP3    H114437   7.407   5.374   0.667 -0.5608  0.2388 -0.9420
 4832TIP3    H214438   7.260   5.398   0.695 -0.2598  0.6104  0.3645
 4833TIP3   OH214439   2.481   0.246   0.387  0.6233  0.7404 -0.1747
 4833TIP3    H114440   2.454   0.263   0.477  0.9681 -1.7352  0.4692
 4833TIP3    H214441   2.570   0.210   0.395 -0.4434 -2.3870 -1.1571
 4834TIP3   OH214442   7.092   2.300   1.535 -0.7777 -0.3753  0.2056
 4834TIP3    H114443   7.155   2.235   1.567  1.3715  1.4011 -0.1921
 4834TIP3    H214444   7.144   2.360   1.483 -3.1198  0.3367 -1.4685
 4835TIP3   OH214445   8.001   6.529   3.588 -0.3559 -0.4601  0.0208
 4835TIP3    H114446   7.999   6.535   3.492  0.7643 -1.5795 -0.1132
 4835TIP3    H214447   7.948   6.452   3.608  0.2317 -0.8308  0.1974
 4836TIP3   OH214448   7.280   7.184   6.139  0.3633  0.0148  0.2390
 4836TIP3    H114449   7.243   7.099   6.116  2.0807 -0.7623  0.2292
 4836TIP3    H214450   7.321   7.215   6.059 -1.0339  1.3335 -0.0253
 4837TIP3   OH214451   4.501   3.707   3.398 -0.3737  0.2743 -0.1441
 4837TIP3    H114452   4.430   3.656   3.359 -0.2805  0.9469 -1.2068
 4837TIP3    H214453   4.469   3.729   3.486 -0.9313 -0.5328 -0.1413
 4838TIP3   OH214454   3.075   1.888   6.385 -0.8986 -0.1594 -0.4548
 4838TIP3    H114455   3.033   1.963   6.426 -0.7223  0.9474 -2.1611
 4838TIP3    H214456   3.003   1.833   6.355 -1.0258 -1.0693  1.4081
 4839TIP3   OH214457   6.973   3.905   3.445  0.0590  0.0832  0.1752
 4839TIP3    H114458   6.994   3.872   3.532  0.6207  0.1049  0.0521
 4839TIP3    H214459   6.933   3.831   3.400  0.4378 -0.1482  0.2145
 4840TIP3   OH214460   7.398   3.142   1.906 -0.1667  0.0368  0.1199
 4840TIP3    H114461   7.370   3.052   1.922 -0.0757 -0.2945 -1.4556
 4840TIP3    H214462   7.382   3.156   1.813  0.7047  1.3433  0.1436
 4841TIP3   OH214463   2.767   0.144   4.482 -0.0531  0.2397  0.3168
 4841TIP3    H114464   2.745   0.076   4.546 -1.5741 -0.0181 -0.4508
 4841TIP3    H214465   2.756   0.226   4.530  0.1028  0.0146  0.7481
 4842TIP3   OH214466   0.535   4.061   4.292 -0.0371 -0.3237 -0.1206
 4842TIP3    H114467   0.452   4.073   4.338  1.2236  0.1351  2.1587
 4842TIP3    H214468   0.509   4.035   4.203 -2.6170  1.1409  0.0994
 4843TIP3   OH214469   3.040   7.357   5.448 -0.1785 -0.1731  0.0157
 4843TIP3    H114470   3.003   7.305   5.376  0.4322 -0.4119 -0.1347
 4843TIP3    H214471   3.128   7.321   5.460 -0.1484  0.1059  0.6487
 4844TIP3   OH214472   6.738   1.613   5.036 -0.4976  0.1806 -0.2233
 4844TIP3    H114473   6.789   1.541   4.998  1.9872 -0.0636  3.0969
 4844TIP3    H214474   6.654   1.574   5.059 -0.3389 -0.8201 -1.2973
 4845TIP3   OH214475   2.230   4.536   5.813 -0.0805  0.4280 -0.1113
 4845TIP3    H114476   2.306   4.593   5.802 -0.0045  0.1658 -1.0531
 4845TIP3    H214477   2.256   4.454   5.770  0.1253 -0.6291  1.8745
 4846TIP3   OH214478   0.501   2.595   0.479 -0.1498 -0.1541  0.0102
 4846TIP3    H114479   0.545   2.510   0.475  0.9482  0.3566  0.6512
 4846TIP3    H214480   0.452   2.600   0.397  0.3375 -1.1039 -0.3608
 4847TIP3   OH214481   0.664   2.214   0.081 -0.2547  0.6285  0.2616
 4847TIP3    H114482   0.755   2.210   0.110 -0.2869  0.2081  0.3165
 4847TIP3    H214483   0.665   2.274   0.007  0.2824 -0.2823 -0.4941
 4848TIP3   OH214484   6.422   1.379   6.694  0.0223  0.6647 -0.6266
 4848TIP3    H114485   6.343   1.337   6.659  0.4529 -0.3927 -0.3888
 4848TIP3    H214486   6.405   1.389   6.787  0.4532 -0.3228 -0.4175
 4849TIP3   OH214487   1.399   1.616   2.107  0.1571  0.3286  0.2287
 4849TIP3    H114488   1.460   1.595   2.178  1.1615  1.1736 -0.3559
 4849TIP3    H214489   1.364   1.702   2.131 -1.3464 -0.4273  0.8918
 4850TIP3   OH214490   3.497   7.776   4.535 -0.1721 -0.0740 -0.3473
 4850TIP3    H114491   3.573   7.721   4.513  0.4338  0.1986  0.9346
 4850TIP3    H214492   3.527   7.829   4.609 -1.3218  0.7248 -0.4272
 4851TIP3   OH214493   6.470   3.662   2.698 -0.1805  0.1272 -0.4841
 4851TIP3    H114494   6.561   3.642   2.677 -0.3703 -1.2603 -0.1025
 4851TIP3    H214495   6.425   3.577   2.693 -1.7559  0.9936 -2.0734
 4852TIP3   OH214496   1.450   0.571   3.410  0.4617  0.0929 -1.1267
 4852TIP3    H114497   1.451   0.569   3.505  0.0652  0.7972 -1.0987
 4852TIP3    H214498   1.358   0.556   3.386  0.8487 -1.9582 -1.4699
 4853TIP3   OH214499   2.565   6.738   2.209 -0.0319 -0.0331 -0.4605
 4853TIP3    H114500   2.628   6.710   2.275 -1.1792 -0.6859  0.4034
 4853TIP3    H214501   2.583   6.831   2.197  0.4751 -0.0004  0.4757
 4854TIP3   OH214502   5.328   0.219   2.911 -0.5902  0.3439 -0.3438
 4854TIP3    H114503   5.390   0.147   2.916  0.0636  0.8448 -1.0671
 4854TIP3    H214504   5.243   0.179   2.932 -0.1707 -0.5317 -0.2778
 4855TIP3   OH214505   0.895   6.075   5.632  0.1331  0.1433 -0.1297
 4855TIP3    H114506   0.883   6.044   5.722  0.9831 -0.0883 -0.0867
 4855TIP3    H214507   0.877   6.169   5.636 -1.2335 -0.1016 -0.0119
 4856TIP3   OH214508   4.255   1.413   0.486 -0.3609 -0.2338  0.4101
 4856TIP3    H114509   4.316   1.366   0.542  0.3311  1.7239  1.3870
 4856TIP3    H214510   4.169   1.393   0.523  0.0978  1.2805  2.4581
 4857TIP3   OH214511   1.546   6.669   6.672  0.3671  0.1639 -0.2054
 4857TIP3    H114512   1.585   6.756   6.662 -1.0810  0.7736 -0.7105
 4857TIP3    H214513   1.571   6.642   6.760  1.9885  0.4845 -0.5314
 4858TIP3   OH214514   7.237   4.866   4.512 -0.2292 -0.3738 -0.5026
 4858TIP3    H114515   7.298   4.894   4.444  0.5794 -0.9353 -0.0338
 4858TIP3    H214516   7.207   4.947   4.552 -1.4791  0.0198 -2.1388
 4859TIP3   OH214517   1.992   1.353   2.166  0.3839  0.0301 -0.1421
 4859TIP3    H114518   2.014   1.364   2.074  0.6596 -0.0092 -0.0822
 4859TIP3    H214519   1.898   1.333   2.166  0.0001  1.7533 -0.2884
 4860TIP3   OH214520   0.316   6.217   3.903 -0.7648  0.3754 -0.7577
 4860TIP3    H114521   0.222   6.216   3.885 -0.7725 -0.2690 -0.7069
 4860TIP3    H214522   0.322   6.221   3.999 -0.7427  0.3304 -0.7569
 4861TIP3   OH214523   1.377   0.892   0.758  0.6123  0.0273 -0.1470
 4861TIP3    H114524   1.297   0.865   0.804  1.8661 -0.2962  1.9746
 4861TIP3    H214525   1.351   0.970   0.709 -0.7658  0.5150  1.2866
 4862TIP3   OH214526   6.810   3.879   0.666 -0.9140  0.1703  0.1104
 4862TIP3    H114527   6.883   3.908   0.612  2.1856 -2.8086  2.2376
 4862TIP3    H214528   6.731   3.904   0.617  1.4891  2.4041 -2.9939
 4863TIP3   OH214529   8.187   1.411   1.299  0.2601  0.0774  0.1458
 4863TIP3    H114530   8.195   1.385   1.391 -0.6603 -1.4645 -0.1894
 4863TIP3    H214531   8.209   1.504   1.300 -0.7106  0.3465  2.0801
 4864TIP3   OH214532   8.062   3.940   6.812 -0.0564  0.5033 -0.5113
 4864TIP3    H114533   7.989   3.950   6.751 -0.7043  2.3052  0.4766
 4864TIP3    H214534   8.079   4.029   6.844  2.1266  0.0222 -0.1741
 4865TIP3   OH214535   3.568   4.691   0.057  0.3261 -0.1419  0.1594
 4865TIP3    H114536   3.558   4.752   0.130  1.1927 -0.9425  0.9750
 4865TIP3    H214537   3.481   4.652   0.046 -0.1382  0.9353 -0.1211
 4866TIP3   OH214538   1.116   6.111   0.587  0.1677 -0.4433 -0.1234
 4866TIP3    H114539   1.107   6.018   0.567  4.0515 -0.8655 -0.6864
 4866TIP3    H214540   1.142   6.151   0.504  0.2106  0.8479  0.4907
 4867TIP3   OH214541   2.472   7.129   1.688  0.1142 -0.0650 -0.4128
 4867TIP3    H114542   2.555   7.084   1.671 -0.9016 -1.6872 -1.2567
 4867TIP3    H214543   2.417   7.064   1.731  0.2946  1.9294  3.2746
 4868TIP3   OH214544   6.950   0.203   0.685 -0.0357  0.0749  0.1201
 4868TIP3    H114545   7.034   0.207   0.731 -0.1390 -1.6691  0.5519
 4868TIP3    H214546   6.891   0.258   0.736  1.4450  3.8864 -1.8298
 4869TIP3   OH214547   2.676   5.208   6.141 -0.2538 -0.7350  0.1014
 4869TIP3    H114548   2.614   5.235   6.208  2.2497  1.4405  1.7374
 4869TIP3    H214549   2.711   5.125   6.174 -0.7408 -0.8784  0.2664
 4870TIP3   OH214550   0.202   2.635   4.694  0.6941  1.0229 -0.3386
 4870TIP3    H114551   0.289   2.672   4.678  1.1059  1.3835  2.3479
 4870TIP3    H214552   0.163   2.691   4.761 -1.2737  0.3014 -0.7906
 4871TIP3   OH214553   5.573   6.371   0.489  0.0909  0.2040 -0.1697
 4871TIP3    H114554   5.500   6.363   0.550 -0.1897  0.0550 -0.5141
 4871TIP3    H214555   5.648   6.395   0.543 -0.1445  0.0439  0.2329
 4872TIP3   OH214556   8.341   0.796   2.533 -0.1909  0.1196 -0.7266
 4872TIP3    H114557   8.333   0.890   2.550  1.4897  0.1132  0.4027
 4872TIP3    H214558   8.372   0.791   2.443 -0.7652  0.6305 -0.9560
 4873TIP3   OH214559   1.679   4.540   4.941 -0.4664  0.6277  0.0050
 4873TIP3    H114560   1.764   4.497   4.927 -1.8202 -2.2034 -0.2080
 4873TIP3    H214561   1.671   4.546   5.036 -0.2041  0.5708  0.0329
 4874TIP3   OH214562   0.243   1.996   0.391  0.2072 -0.0084  0.7781
 4874TIP3    H114563   0.305   2.028   0.457 -0.1570 -0.1667  1.2106
 4874TIP3    H214564   0.163   1.979   0.441 -1.1702  2.9500 -0.1781
 4875TIP3   OH214565   1.356   5.694   1.305 -0.2687  0.2117  0.5877
 4875TIP3    H114566   1.288   5.741   1.353  0.4037  1.4591  0.3703
 4875TIP3    H214567   1.436   5.710   1.355  0.0045 -0.6176  0.4373
 4876TIP3   OH214568   4.066   7.073   4.435 -0.1299 -0.1358 -0.2818
 4876TIP3    H114569   4.047   7.123   4.356 -0.6420 -0.9213 -0.6675
 4876TIP3    H214570   4.122   7.002   4.405  1.8305  0.9922  0.5024
 4877TIP3   OH214571   1.041   7.820   4.026 -0.1853 -0.0387  0.4039
 4877TIP3    H114572   1.045   7.887   3.958  0.8193  0.1027  0.5927
 4877TIP3    H214573   1.099   7.750   3.994  0.1410 -0.0556  1.0237
 4878TIP3   OH214574   1.067   4.782   1.101  0.1596 -0.4493  0.4987
 4878TIP3    H114575   1.159   4.803   1.087 -0.1937  0.7542 -0.1040
 4878TIP3    H214576   1.020   4.828   1.031 -1.0659  0.4543  1.8433
 4879TIP3   OH214577   5.073   4.358   1.450  0.2966 -0.3462 -0.2250
 4879TIP3    H114578   5.042   4.348   1.540  0.1184  0.2791 -0.2147
 4879TIP3    H214579   5.070   4.269   1.415  1.3222 -0.7562  0.6821
 4880TIP3   OH214580   6.352   5.696   6.714 -0.3756 -0.3051 -0.1001
 4880TIP3    H114581   6.341   5.699   6.619 -0.7396  0.2295 -0.0457
 4880TIP3    H214582   6.430   5.642   6.728  0.7780  1.1252 -0.7704
 4881TIP3   OH214583   8.273   5.643   0.966  0.2809  0.1748  0.3291
 4881TIP3    H114584   8.219   5.647   1.046 -0.8113 -1.4832 -0.2600
 4881TIP3    H214585   8.354   5.601   0.994  0.0909  0.0288  0.6680
 4882TIP3   OH214586   0.927   1.286   3.833  0.6601  0.2306  0.7567
 4882TIP3    H114587   0.969   1.207   3.799 -1.5984 -1.1810  1.0439
 4882TIP3    H214588   0.999   1.347   3.849  2.4416 -1.6273  0.1713
 4883TIP3   OH214589   6.063   5.717   4.165 -0.4200 -0.0989  0.0119
 4883TIP3    H114590   5.995   5.754   4.109  0.9634  1.5712 -0.6479
 4883TIP3    H214591   6.087   5.635   4.122 -0.5772  0.3260 -0.9180
 4884TIP3   OH214592   1.645   1.176   6.734 -0.2177  0.0870  0.1494
 4884TIP3    H114593   1.605   1.248   6.785 -0.9520 -0.2451  0.0622
 4884TIP3    H214594   1.598   1.098   6.763 -1.7541  0.0760 -2.1268
 4885TIP3   OH214595   7.555   5.114   5.557  0.2453  0.3453 -0.1543
 4885TIP3    H114596   7.643   5.152   5.557  0.2505  0.3334  0.0103
 4885TIP3    H214597   7.518   5.141   5.473  0.2991  0.5977 -0.0987
 4886TIP3   OH214598   3.636   2.690   2.649  0.1457 -0.2976  0.1904
 4886TIP3    H114599   3.680   2.639   2.581  0.5792  0.7770 -0.3537
 4886TIP3    H214600   3.583   2.753   2.601  0.1705  0.2354  0.8508
 4887TIP3   OH214601   5.951   7.731   3.222 -0.1620 -0.5193 -0.1473
 4887TIP3    H114602   5.981   7.709   3.134 -1.7554  0.3813 -0.9708
 4887TIP3    H214603   5.872   7.784   3.207 -0.6831 -0.6756  1.8340
 4888TIP3   OH214604   2.157   2.079   1.381  0.5581  0.2345 -0.4514
 4888TIP3    H114605   2.235   2.041   1.419  1.7986 -0.0256 -3.0740
 4888TIP3    H214606   2.097   2.005   1.369  0.5771  0.1516 -0.0665
 4889TIP3   OH214607   5.683   6.688   3.580  0.2258 -0.1450 -0.0608
 4889TIP3    H114608   5.691   6.762   3.640  1.1301  0.3122 -0.7178
 4889TIP3    H214609   5.754   6.629   3.604  0.0408 -0.3853 -0.0988
 4890TIP3   OH214610   0.047   1.571   0.112  0.3021  0.2109 -0.1580
 4890TIP3    H114611   0.073   1.583   0.203 -0.2774 -0.1979  0.0726
 4890TIP3    H214612   0.049   1.476   0.099  0.0222  0.2443 -0.4593
 4891TIP3   OH214613   5.285   6.642   1.006 -0.0903 -0.0405  0.7532
 4891TIP3    H114614   5.337   6.569   1.042 -0.9013 -1.0911 -0.1618
 4891TIP3    H214615   5.234   6.673   1.081  0.7718  0.0724  1.3201
 4892TIP3   OH214616   8.120   3.502   2.519 -0.6203 -0.1804 -0.5700
 4892TIP3    H114617   8.049   3.562   2.496 -0.8228  0.2327  1.0231
 4892TIP3    H214618   8.128   3.443   2.444 -1.0625  1.2319 -1.7621
 4893TIP3   OH214619   3.209   5.568   5.243  0.3630  0.7087 -0.0166
 4893TIP3    H114620   3.291   5.524   5.220 -0.7649 -2.3708  1.2976
 4893TIP3    H214621   3.154   5.556   5.165  0.5177  1.0753 -0.1847
 4894TIP3   OH214622   8.313   3.846   2.954 -0.3005  0.5647 -0.1888
 4894TIP3    H114623   8.374   3.902   2.906  1.2489 -1.1459 -0.3082
 4894TIP3    H214624   8.242   3.829   2.893  0.5488  0.2236 -1.0947
 4895TIP3   OH214625   2.703   0.573   6.440  1.3162  0.2989  0.3986
 4895TIP3    H114626   2.636   0.608   6.498 -0.1435 -2.2609  0.3993
 4895TIP3    H214627   2.781   0.565   6.496  0.3139 -0.8538  1.7003
 4896TIP3   OH214628   2.393   7.615   6.170  0.2557  0.3271  0.4599
 4896TIP3    H114629   2.369   7.591   6.081  0.1134  1.3409  0.2165
 4896TIP3    H214630   2.352   7.700   6.185  1.1337  0.6597  1.1244
 4897TIP3   OH214631   0.808   6.081   3.504  0.4242  0.2652  0.1045
 4897TIP3    H114632   0.767   6.116   3.425 -0.7328 -0.3895  0.3923
 4897TIP3    H214633   0.735   6.068   3.565  1.3824  1.4016  1.5406
 4898TIP3   OH214634   1.546   1.776   5.417  0.0128 -0.2496  0.2562
 4898TIP3    H114635   1.489   1.818   5.482  1.4234  0.1559  1.3097
 4898TIP3    H214636   1.593   1.709   5.467 -0.3665 -1.3742 -0.8474
 4899TIP3   OH214637   7.073   7.129   5.573 -0.2266  0.6547  0.1897
 4899TIP3    H114638   7.023   7.078   5.636  1.4664  0.9875  1.8984
 4899TIP3    H214639   7.124   7.191   5.626  1.4158  0.8418 -1.4680
 4900TIP3   OH214640   0.732   6.896   3.657 -0.3485 -0.5241 -0.0105
 4900TIP3    H114641   0.697   6.847   3.731 -0.4378  0.9619  0.9880
 4900TIP3    H214642   0.814   6.934   3.689 -0.0549 -0.3720 -0.8890
 4901TIP3   OH214643   2.027   2.380   0.702 -0.0051 -0.0080 -0.4665
 4901TIP3    H114644   2.094   2.376   0.770  0.1918 -0.2869 -0.6747
 4901TIP3    H214645   2.051   2.456   0.649  0.2606 -0.2261 -0.6595
 4902TIP3   OH214646   3.095   6.152   1.553  0.1262 -0.0473  0.6459
 4902TIP3    H114647   3.005   6.125   1.537  0.1654  0.8292 -1.3521
 4902TIP3    H214648   3.148   6.089   1.504  0.3003  2.2691 -2.4385
 4903TIP3   OH214649   3.474   4.422   5.921  0.3345 -0.5124  0.8567
 4903TIP3    H114650   3.387   4.440   5.956  0.5206  0.0309  1.0552
 4903TIP3    H214651   3.533   4.447   5.992  0.8139  2.0583 -0.3287
 4904TIP3   OH214652   4.977   5.400   2.236 -0.2372  0.7650  0.4485
 4904TIP3    H114653   5.004   5.490   2.219  2.4105 -0.0156 -0.0086
 4904TIP3    H214654   5.023   5.348   2.170 -1.4452 -0.9603  0.8950
 4905TIP3   OH214655   5.630   1.345   3.549  0.0997 -0.1365  0.0209
 4905TIP3    H114656   5.646   1.254   3.525 -1.0469  0.2193 -2.3662
 4905TIP3    H214657   5.705   1.393   3.515 -0.5454  0.1135 -1.0859
 4906TIP3   OH214658   3.744   0.056   0.638 -0.0486  0.5981 -0.1400
 4906TIP3    H114659   3.727  -0.027   0.593 -0.1984 -0.4123  1.6745
 4906TIP3    H214660   3.730   0.123   0.571  0.5110 -0.8422 -1.7883
 4907TIP3   OH214661   6.584   3.862   3.418  0.5061 -0.6211 -0.0059
 4907TIP3    H114662   6.555   3.947   3.450 -0.4115 -1.9409  3.0892
 4907TIP3    H214663   6.587   3.871   3.323 -0.8573  2.4259  0.1437
 4908TIP3   OH214664   8.030   0.461   4.687  0.2271 -0.0123 -0.5086
 4908TIP3    H114665   8.000   0.421   4.606  0.5662  1.7634 -1.5747
 4908TIP3    H214666   8.112   0.506   4.663  1.0274 -0.5158  1.1282
 4909TIP3   OH214667   6.401   7.165   5.283  0.0326 -0.0766  0.3480
 4909TIP3    H114668   6.462   7.219   5.332 -0.3851  0.0121  0.7779
 4909TIP3    H214669   6.317   7.210   5.292 -0.0398 -0.0279 -0.4970
 4910TIP3   OH214670   5.190   1.371   6.328 -0.2499 -1.0521 -0.3596
 4910TIP3    H114671   5.283   1.348   6.334  0.6574  2.3349  0.5818
 4910TIP3    H214672   5.186   1.463   6.354 -3.3400  0.1631 -4.1831
 4911TIP3   OH214673   4.338   5.869   5.780 -0.5691 -0.2621  0.2376
 4911TIP3    H114674   4.432   5.864   5.763 -0.8959 -0.7563 -1.6998
 4911TIP3    H214675   4.327   5.833   5.867  0.9813 -0.8135  0.2261
 4912TIP3   OH214676   1.477   6.450   5.872  0.0357  0.1067  0.4030
 4912TIP3    H114677   1.537   6.376   5.864 -0.5706 -0.3244 -0.2304
 4912TIP3    H214678   1.413   6.437   5.802  0.2730  1.5686 -0.1193
 4913TIP3   OH214679   7.465   2.372   0.117  0.4058  0.2670  0.4874
 4913TIP3    H114680   7.411   2.325   0.054  0.8931  0.9517 -0.4757
 4913TIP3    H214681   7.448   2.465   0.098 -0.5812  0.5263  2.3699
 4914TIP3   OH214682   2.832   2.054   6.298 -0.8793 -0.0292 -0.1348
 4914TIP3    H114683   2.899   2.123   6.295 -1.4918  0.5444 -1.2393
 4914TIP3    H214684   2.752   2.100   6.325 -1.0845 -0.4984  0.0689
 4915TIP3   OH214685   3.757   2.582   0.143 -0.1344 -0.3240  0.0594
 4915TIP3    H114686   3.721   2.555   0.228 -1.8929  2.0963  0.2071
 4915TIP3    H214687   3.771   2.676   0.152  0.7406 -0.2119 -1.9856
 4916TIP3   OH214688   5.872   6.322   5.810 -0.1721  0.1476 -0.3729
 4916TIP3    H114689   5.857   6.263   5.737 -2.5806 -1.2651  1.1109
 4916TIP3    H214690   5.826   6.403   5.787 -1.4105 -0.4970 -0.2214
 4917TIP3   OH214691   0.341   2.734   5.663  0.1888  0.5359 -0.0791
 4917TIP3    H114692   0.433   2.710   5.671  0.9412  3.6735  3.3706
 4917TIP3    H214693   0.293   2.656   5.690  1.7327 -1.0045 -1.5014
 4918TIP3   OH214694   0.318   0.934   4.611 -0.2775 -0.3339 -0.0522
 4918TIP3    H114695   0.293   0.999   4.677 -0.2856 -2.0018  1.7034
 4918TIP3    H214696   0.234   0.903   4.576 -0.5328 -1.8490  1.7009
 4919TIP3   OH214697   0.101   3.902   4.701 -0.2067 -0.1450  0.3863
 4919TIP3    H114698   0.045   3.961   4.651 -0.2281 -0.5001 -0.0174
 4919TIP3    H214699   0.160   3.960   4.750 -1.3467  0.2511  1.3264
 4920TIP3   OH214700   8.009   3.423   4.052  0.0470  0.2126  0.3863
 4920TIP3    H114701   8.009   3.507   4.099  0.6639  1.1460 -1.2019
 4920TIP3    H214702   8.100   3.395   4.051 -0.0901 -0.2515  0.5141
 4921TIP3   OH214703   4.303   5.068   3.163 -0.0923 -0.5461 -0.0851
 4921TIP3    H114704   4.352   5.000   3.117 -2.7791 -2.4039 -0.4089
 4921TIP3    H214705   4.228   5.085   3.107 -0.0686  1.9694  0.5488
 4922TIP3   OH214706   3.915   1.018   3.328 -0.1362 -0.3263 -0.5792
 4922TIP3    H114707   3.871   1.056   3.251 -0.1025 -1.7244 -1.3078
 4922TIP3    H214708   3.973   0.951   3.292  1.1036  0.0920  0.5469
 4923TIP3   OH214709   2.401   5.918   0.500 -0.4633 -1.1220 -0.2513
 4923TIP3    H114710   2.410   5.874   0.584  1.1564 -0.4697 -0.0525
 4923TIP3    H214711   2.443   6.003   0.512  0.0216 -1.1125 -1.7759
 4924TIP3   OH214712   7.750   1.940   0.520 -0.0108  0.4252 -0.0266
 4924TIP3    H114713   7.809   1.959   0.448 -1.2109 -0.4980 -1.2936
 4924TIP3    H214714   7.689   2.014   0.521  0.6147  0.9495  0.7311
 4925TIP3   OH214715   7.652   4.911   3.117  0.3976 -0.3056 -0.0641
 4925TIP3    H114716   7.730   4.857   3.106  1.7735  1.3468  1.0784
 4925TIP3    H214717   7.620   4.889   3.204 -0.9678 -1.6023 -0.8545
 4926TIP3   OH214718   2.433   2.609   1.628 -0.5298  0.3067 -0.0208
 4926TIP3    H114719   2.345   2.628   1.597 -0.6585 -1.8161 -1.2137
 4926TIP3    H214720   2.423   2.532   1.685  0.4533  0.5590  0.5313
 4927TIP3   OH214721   3.128   4.069   6.455  0.1861  0.4762  0.1876
 4927TIP3    H114722   3.109   4.158   6.423 -0.4042  0.0261 -0.7646
 4927TIP3    H214723   3.079   4.063   6.537 -0.2136  0.8555 -0.0134
 4928TIP3   OH214724   5.802   1.533   3.368 -0.2132  0.2980 -0.6185
 4928TIP3    H114725   5.793   1.623   3.335  0.7505  0.7286  0.2265
 4928TIP3    H214726   5.807   1.479   3.290  1.1400  1.1990 -1.2083
 4929TIP3   OH214727   2.691   6.283   0.786 -0.0565 -0.1287 -0.1174
 4929TIP3    H114728   2.757   6.231   0.832 -0.1107 -0.0364  0.0624
 4929TIP3    H214729   2.692   6.368   0.829 -1.1857 -0.5156  0.7283
 4930TIP3   OH214730   6.122   0.642   3.072 -0.3230 -0.5583  0.0616
 4930TIP3    H114731   6.095   0.551   3.061 -3.0752  0.0568  0.9454
 4930TIP3    H214732   6.156   0.647   3.161  1.6797 -1.0570 -0.6203
 4931TIP3   OH214733   8.221   3.110   6.134  0.4308  0.1315 -0.3714
 4931TIP3    H114734   8.158   3.087   6.203  1.0841  1.5371  0.7423
 4931TIP3    H214735   8.207   3.204   6.119  2.8051  0.7021  0.5342
 4932TIP3   OH214736   1.118   7.167   1.826 -0.4351  0.8834  0.6028
 4932TIP3    H114737   1.084   7.246   1.868  1.7757  2.6602 -0.7212
 4932TIP3    H214738   1.080   7.167   1.738 -1.2183 -0.1120  0.9283
 4933TIP3   OH214739   7.832   5.572   0.016  0.6579 -0.1049  0.1049
 4933TIP3    H114740   7.901   5.553   0.080 -0.1158 -0.8839  0.7165
 4933TIP3    H214741   7.868   5.542  -0.067  0.4231 -2.0433  0.6698
 4934TIP3   OH214742   2.384   2.880   4.881 -0.3036 -0.2128 -0.3061
 4934TIP3    H114743   2.310   2.941   4.888  1.3339  2.1698 -2.1034
 4934TIP3    H214744   2.430   2.907   4.802  1.0955 -3.2738 -0.6803
 4935TIP3   OH214745   3.436   1.128   1.432  0.0390  0.1113  0.0143
 4935TIP3    H114746   3.358   1.093   1.476  0.0048 -0.7480 -0.7077
 4935TIP3    H214747   3.507   1.069   1.457  0.3536  0.5642  0.2085
 4936TIP3   OH214748   5.506   6.814   3.431 -0.1319  0.2924  0.2797
 4936TIP3    H114749   5.566   6.753   3.474 -0.6912 -0.2342  0.3292
 4936TIP3    H214750   5.433   6.824   3.493 -0.9464 -0.4761 -0.5389
 4937TIP3   OH214751   3.952   3.696   6.593 -0.3492  0.0526  0.5174
 4937TIP3    H114752   3.857   3.705   6.584 -0.1144  0.7104 -2.4401
 4937TIP3    H214753   3.982   3.674   6.505  2.4288  1.8548  0.8812
 4938TIP3   OH214754   2.772   4.286   4.795 -0.4034  0.0304 -0.5768
 4938TIP3    H114755   2.836   4.342   4.840  0.0568  1.3862 -2.7752
 4938TIP3    H214756   2.697   4.284   4.854 -0.5296  3.1932 -0.4842
 4939TIP3   OH214757   0.913   3.898   2.301 -0.2308  0.4771 -0.2193
 4939TIP3    H114758   0.915   3.817   2.351 -0.1856  1.8093  2.0997
 4939TIP3    H214759   0.821   3.909   2.277 -0.2199 -0.3079 -0.6361
 4940TIP3   OH214760   0.488   0.912   3.063 -0.7321 -0.1673  0.1328
 4940TIP3    H114761   0.539   0.835   3.089 -0.1173  0.1444 -0.1365
 4940TIP3    H214762   0.463   0.953   3.146  1.3948  0.9383  0.3058
 4941TIP3   OH214763   6.038   3.368   0.518 -0.4579  0.0164  0.9602
 4941TIP3    H114764   6.013   3.444   0.465 -1.8093 -0.5286  0.7733
 4941TIP3    H214765   6.096   3.318   0.462 -1.3392 -0.2087  0.2251
 4942TIP3   OH214766   2.066   4.988   3.992  0.5565  0.4066  0.5114
 4942TIP3    H114767   2.021   4.983   4.077  0.3355 -0.9370  0.3434
 4942TIP3    H214768   2.068   5.081   3.971 -0.1719  0.6813  1.5815
 4943TIP3   OH214769   3.854   0.559   5.790  0.0378  0.2786  0.0952
 4943TIP3    H114770   3.856   0.496   5.862  0.0086  2.5405  2.1894
 4943TIP3    H214771   3.770   0.542   5.746 -0.8679  0.1151  1.8189
 4944TIP3   OH214772   8.197   0.670   2.051 -0.4315  0.2208 -0.7118
 4944TIP3    H114773   8.133   0.707   2.111  0.9162  1.3723  0.0518
 4944TIP3    H214774   8.146   0.611   1.995 -2.1317  1.0483 -0.0843
 4945TIP3   OH214775   7.982   1.702   0.912  0.1439  0.3374  0.4856
 4945TIP3    H114776   8.022   1.642   0.849  0.7940  0.2119  1.0006
 4945TIP3    H214777   8.024   1.680   0.995  0.1531  1.2993  0.7431
 4946TIP3   OH214778   5.977   1.110   2.129 -0.1821 -0.0195  0.3009
 4946TIP3    H114779   6.041   1.177   2.105 -1.2897  1.9810  2.4650
 4946TIP3    H214780   6.018   1.061   2.200  0.8107 -2.1027 -1.5753
 4947TIP3   OH214781   1.393   7.169   4.348  0.0518 -0.7783  0.1123
 4947TIP3    H114782   1.462   7.229   4.321  0.9372 -1.4006  0.9334
 4947TIP3    H214783   1.376   7.190   4.439 -2.0795  0.5021 -0.5239
 4948TIP3   OH214784   3.844   7.623   3.706 -0.0124 -0.0218  0.3439
 4948TIP3    H114785   3.756   7.655   3.686  0.9720  1.1268 -2.7709
 4948TIP3    H214786   3.868   7.667   3.787 -2.1629 -0.1323  1.1035
 4949TIP3   OH214787   2.570   0.271   3.812 -0.5029  0.1945 -0.0466
 4949TIP3    H114788   2.636   0.314   3.866 -0.1647 -1.2345  0.7337
 4949TIP3    H214789   2.491   0.270   3.866  0.0564 -1.9625  0.8178
 4950TIP3   OH214790   0.042   4.399   6.616  0.2476  0.5187  0.1099
 4950TIP3    H114791   0.094   4.478   6.634 -0.9843  1.1711  0.9090
 4950TIP3    H214792   0.080   4.365   6.535  0.4430  2.2596 -0.5931
 4951TIP3   OH214793   5.999   3.512   3.962  0.7077 -0.4823  0.2662
 4951TIP3    H114794   5.937   3.479   4.027  2.0480 -0.9689  1.3625
 4951TIP3    H214795   6.076   3.457   3.972  1.6899  0.7054 -0.3660
 4952TIP3   OH214796   3.665   6.370   2.348  0.3119  0.0741  0.2020
 4952TIP3    H114797   3.681   6.436   2.280 -1.1966  0.7787  0.4953
 4952TIP3    H214798   3.752   6.349   2.382  0.8779  1.4676 -0.3172
 4953TIP3   OH214799   2.991   1.576   5.127 -0.0575 -0.1811  0.1084
 4953TIP3    H114800   2.946   1.496   5.098 -0.3267 -0.9944  2.5878
 4953TIP3    H214801   3.084   1.557   5.114 -0.1562 -0.5887 -0.0360
 4954TIP3   OH214802   3.618   0.307   5.087 -0.5001 -0.1455  0.3039
 4954TIP3    H114803   3.545   0.338   5.033 -0.8953 -0.0451  0.8859
 4954TIP3    H214804   3.660   0.387   5.119  1.5582 -0.1135 -2.1965
 4955TIP3   OH214805   3.543   4.186   6.409  0.2063  0.1538 -0.0750
 4955TIP3    H114806   3.463   4.194   6.357 -0.4939 -1.4453  0.6595
 4955TIP3    H214807   3.515   4.139   6.488  2.1136 -1.7603 -0.4482
 4956TIP3   OH214808   2.098   2.623   0.592  0.1797 -0.5736  0.4997
 4956TIP3    H114809   2.193   2.620   0.586  0.3807  2.3375  0.7896
 4956TIP3    H214810   2.073   2.696   0.536 -1.9266 -1.3202  0.3763
 4957TIP3   OH214811   8.122   6.330   0.019  0.2490  0.2429 -0.5155
 4957TIP3    H114812   8.088   6.243   0.042 -2.1250  1.1655 -0.2306
 4957TIP3    H214813   8.126   6.377   0.102 -1.6602  1.3847 -1.0006
 4958TIP3   OH214814   4.086   4.941   6.073 -0.2477 -0.1933  0.6380
 4958TIP3    H114815   4.009   4.995   6.087  0.1665  0.6793 -0.3258
 4958TIP3    H214816   4.160   4.998   6.094  0.2632  0.2029 -1.8862
 4959TIP3   OH214817   2.760   7.769   0.472 -0.0055  0.4313  0.4535
 4959TIP3    H114818   2.775   7.754   0.565  0.4306 -1.9343  0.0794
 4959TIP3    H214819   2.665   7.780   0.464 -0.2249 -0.8154  1.0547
 4960TIP3   OH214820   6.296   0.250   6.105  0.3923 -0.7266 -0.2779
 4960TIP3    H114821   6.287   0.301   6.025 -0.5896 -0.5175 -0.0540
 4960TIP3    H214822   6.244   0.171   6.090  0.6265 -0.9261 -0.0458
 4961TIP3   OH214823   6.172   7.271   0.473 -0.0431 -0.1111 -0.2323
 4961TIP3    H114824   6.136   7.183   0.469  0.5342 -0.3344 -0.5278
 4961TIP3    H214825   6.214   7.285   0.388  1.3958 -0.2142  0.4337
 4962TIP3   OH214826   0.464   7.465   5.821  0.2530  0.0959  0.4956
 4962TIP3    H114827   0.471   7.411   5.899 -0.4512 -0.0145  0.4808
 4962TIP3    H214828   0.500   7.411   5.751  0.9866  0.2350  0.7493
 4963TIP3   OH214829   2.548   6.927   2.712  0.4189  0.1446 -0.4545
 4963TIP3    H114830   2.556   6.945   2.619 -2.4686  0.3015 -0.7494
 4963TIP3    H214831   2.561   6.832   2.719 -1.0215 -0.1394 -1.2946
 4964TIP3   OH214832   0.599   5.339   1.322  0.2369  0.2766 -0.4176
 4964TIP3    H114833   0.567   5.260   1.278  2.3957 -1.3889  0.7482
 4964TIP3    H214834   0.533   5.358   1.388  0.4923 -1.7103  0.4812
 4965TIP3   OH214835   5.062   1.587   1.296  0.6934  0.2854  0.4398
 4965TIP3    H114836   5.095   1.497   1.300 -2.6290 -1.0798  1.4023
 4965TIP3    H214837   5.070   1.612   1.204  0.2934 -1.6642 -0.1744
 4966TIP3   OH214838   1.830   6.229   0.845 -0.5733  0.0925  0.6395
 4966TIP3    H114839   1.819   6.239   0.751  0.8257  0.4618  0.4968
 4966TIP3    H214840   1.842   6.318   0.878 -2.1732  0.0915  1.3545
 4967TIP3   OH214841   5.762   5.087   6.410  0.3672  0.1167 -0.0301
 4967TIP3    H114842   5.695   5.023   6.433 -0.0151 -0.0920 -1.6217
 4967TIP3    H214843   5.783   5.067   6.319  2.4331  0.3201  0.3547
 4968TIP3   OH214844   8.032   1.884   1.731 -0.0254  0.3893  0.4558
 4968TIP3    H114845   8.034   1.957   1.794  2.9364  0.7996  0.0227
 4968TIP3    H214846   8.056   1.808   1.783 -0.3218  0.2208  0.3471
 4969TIP3   OH214847   5.353   2.315   0.109 -0.1069 -0.2956 -0.2517
 4969TIP3    H114848   5.333   2.277   0.195  1.9912 -0.0469  0.3899
 4969TIP3    H214849   5.311   2.256   0.046 -3.2651  0.4737  0.9062
 4970TIP3   OH214850   0.306   4.002   0.886  0.8099 -0.1375  0.4007
 4970TIP3    H114851   0.223   4.034   0.923  1.4677  1.6627  0.4154
 4970TIP3    H214852   0.337   3.938   0.949  1.6504  2.4758  2.8639
 4971TIP3   OH214853   7.624   0.744   5.013  0.7188 -0.1449  0.5732
 4971TIP3    H114854   7.555   0.697   4.966  1.5462 -0.4918 -0.3373
 4971TIP3    H214855   7.687   0.676   5.037  1.5095  0.3777  0.0024
 4972TIP3   OH214856   1.429   2.278   0.313  0.0472  0.1646 -0.4167
 4972TIP3    H114857   1.365   2.258   0.381 -0.4931  0.8265 -0.7183
 4972TIP3    H214858   1.391   2.244   0.233  0.1161  0.4744 -0.5831
 4973TIP3   OH214859   6.975   2.780   3.304  0.1994 -0.0637 -0.2739
 4973TIP3    H114860   6.967   2.769   3.209 -0.0761 -0.8694 -0.1603
 4973TIP3    H214861   6.884   2.784   3.335  0.2870 -0.6435  0.0526
 4974TIP3   OH214862   3.799   1.279   5.484 -0.0973  0.3338  0.3369
 4974TIP3    H114863   3.836   1.310   5.566 -0.0787  1.7283 -0.1825
 4974TIP3    H214864   3.709   1.310   5.484 -0.6855 -1.2604  0.6434
 4975TIP3   OH214865   2.921   0.504   3.720 -0.6761 -0.5483 -0.4575
 4975TIP3    H114866   2.826   0.501   3.721 -0.6782 -0.4412 -0.3502
 4975TIP3    H214867   2.943   0.588   3.761 -0.4578 -1.7047  1.9562
 4976TIP3   OH214868   0.018   3.563   0.921  0.4127  0.0400  0.0329
 4976TIP3    H114869   0.020   3.477   0.879 -2.2595  0.0890 -0.3588
 4976TIP3    H214870   0.005   3.625   0.849  2.0276  0.8052  0.3444
 4977TIP3   OH214871   1.608   7.108   1.706  0.0549  0.5069  0.0488
 4977TIP3    H114872   1.531   7.062   1.739  0.2982 -0.9774 -1.2899
 4977TIP3    H214873   1.682   7.064   1.748  0.2299  0.9286  0.1867
 4978TIP3   OH214874   6.305   0.858   6.825  0.4479  0.0744  0.6552
 4978TIP3    H114875   6.300   0.805   6.745  0.5006  0.1161  0.6235
 4978TIP3    H214876   6.215   0.867   6.854  0.5778 -1.6498  1.7290
 4979TIP3   OH214877   3.021   6.207   2.142 -0.2293  0.6276 -0.2997
 4979TIP3    H114878   2.938   6.248   2.118 -0.2724  0.0247 -1.1977
 4979TIP3    H214879   2.995   6.132   2.196 -0.2727  0.4081 -0.6249
 4980TIP3   OH214880   2.838   6.013   0.379  0.0088 -0.3844  0.0524
 4980TIP3    H114881   2.790   5.982   0.303 -1.7899  1.1347  0.4903
 4980TIP3    H214882   2.813   5.955   0.450 -0.5937 -0.0765  0.0990
 4981TIP3   OH214883   2.038   4.082   1.983  0.0612 -0.2710 -0.3335
 4981TIP3    H114884   2.109   4.113   2.038  0.6565  0.5702 -1.5267
 4981TIP3    H214885   2.027   4.150   1.916 -1.8620 -0.3796 -0.2040
 4982TIP3   OH214886   2.288   5.533   2.993 -0.2242 -0.0266  0.3985
 4982TIP3    H114887   2.256   5.577   3.072 -1.2679 -0.7298  0.3842
 4982TIP3    H214888   2.253   5.586   2.921  0.3902  0.3846  0.3978
 4983TIP3   OH214889   2.801   6.734   2.348  0.3569  0.3523 -0.4310
 4983TIP3    H114890   2.829   6.687   2.427 -0.5925 -1.1317 -0.9476
 4983TIP3    H214891   2.875   6.725   2.287  0.5567  0.3713 -0.1933
 4984TIP3   OH214892   1.630   2.006   5.594 -0.6509 -0.0267  0.5338
 4984TIP3    H114893   1.646   1.999   5.500 -0.0489 -0.1283  0.6372
 4984TIP3    H214894   1.544   1.966   5.607  0.3152 -2.3144  0.3372
 4985TIP3   OH214895   0.470   0.199   4.634 -0.0547  0.6899  0.1155
 4985TIP3    H114896   0.490   0.147   4.712  1.5628 -0.6828 -1.1219
 4985TIP3    H214897   0.517   0.281   4.646  1.6774 -0.2232 -0.1629
 4986TIP3   OH214898   5.743   2.187   2.388 -0.1875 -0.1098 -0.0666
 4986TIP3    H114899   5.684   2.241   2.440 -0.2589 -0.9344  0.7341
 4986TIP3    H214900   5.698   2.176   2.304  0.6952  2.6436 -0.9725
 4987TIP3   OH214901   1.331   2.097   4.340  0.0460 -0.1061  0.4709
 4987TIP3    H114902   1.365   2.119   4.253  4.4732  0.7175  2.1753
 4987TIP3    H214903   1.351   2.004   4.350 -1.1422 -0.3867  0.4057
 4988TIP3   OH214904   7.528   7.406   4.032 -0.0764  0.5355  0.2480
 4988TIP3    H114905   7.592   7.363   3.975 -0.4142 -1.4735  1.2746
 4988TIP3    H214906   7.579   7.432   4.109 -0.5261 -1.8802  1.4743
 4989TIP3   OH214907   1.359   4.783   5.306 -0.2845  0.3929 -0.3036
 4989TIP3    H114908   1.365   4.689   5.325  3.2395  0.3614 -0.8106
 4989TIP3    H214909   1.358   4.825   5.392 -2.8853 -0.0473 -0.0549
 4990TIP3   OH214910   0.589   1.464   1.810 -0.0842  0.2815 -0.0364
 4990TIP3    H114911   0.677   1.490   1.780  1.5819 -4.5145 -0.0594
 4990TIP3    H214912   0.602   1.431   1.898 -1.9359 -0.3197  0.0498
 4991TIP3   OH214913   4.006   0.773   0.178  0.5626  0.3116 -0.1894
 4991TIP3    H114914   4.085   0.725   0.202 -0.3821 -1.6794 -0.8673
 4991TIP3    H214915   3.994   0.836   0.248 -0.1055 -2.8331  2.7637
 4992TIP3   OH214916   0.090   6.546   3.646 -0.3676 -0.1479  0.0774
 4992TIP3    H114917  -0.002   6.571   3.634 -0.2341  0.3689  0.0953
 4992TIP3    H214918   0.101   6.470   3.590 -0.9491 -0.5529  0.4932
 4993TIP3   OH214919   2.885   3.092   5.013 -0.2017  0.2429 -0.2870
 4993TIP3    H114920   2.851   3.083   4.924  0.0686 -0.7077 -0.2974
 4993TIP3    H214921   2.809   3.076   5.069 -0.3164  0.5935 -0.3389
 4994TIP3   OH214922   4.418   3.793   5.435 -0.1608 -0.2561 -0.3379
 4994TIP3    H114923   4.375   3.712   5.408 -0.3620 -0.3266  0.1903
 4994TIP3    H214924   4.346   3.852   5.458  0.0074 -0.2276  0.1248
 4995TIP3   OH214925   1.910   3.133   4.706  0.5606  0.6608  0.1746
 4995TIP3    H114926   1.925   3.122   4.799 -0.0885  1.6561  0.4147
 4995TIP3    H214927   1.816   3.115   4.694  0.4459  1.4087 -0.1290
 4996TIP3   OH214928   6.140   4.162   6.263  0.5711  0.1448 -0.2690
 4996TIP3    H114929   6.076   4.092   6.260  2.0209 -1.2558 -0.0488
 4996TIP3    H214930   6.163   4.178   6.172  0.9093 -0.3401 -0.2749
 4997TIP3   OH214931   1.321   5.342   0.258  0.2451 -0.1427 -0.1758
 4997TIP3    H114932   1.282   5.373   0.339 -0.8396 -1.3506 -0.2074
 4997TIP3    H214933   1.397   5.399   0.244  0.2127  0.3315  1.4566
 4998TIP3   OH214934   1.118   3.333   3.860 -0.5025 -0.0305 -0.2737
 4998TIP3    H114935   1.200   3.361   3.820 -0.9013  1.3453 -0.1842
 4998TIP3    H214936   1.143   3.293   3.943 -0.0126  1.9912  0.5988
 4999TIP3   OH214937   0.506   1.043   3.637  0.0267  0.2734 -0.0662
 4999TIP3    H114938   0.543   0.963   3.673  0.7449  0.0889 -1.1668
 4999TIP3    H214939   0.550   1.114   3.684  0.1628  0.0347  0.1663
 5000TIP3   OH214940   2.965   7.735   2.944 -0.0155  0.4675  0.5693
 5000TIP3    H114941   2.955   7.647   2.907 -2.1759  0.0733  1.9152
 5000TIP3    H214942   2.991   7.720   3.035 -1.0834  1.1729  1.0106
 5001TIP3   OH214943   5.837   1.474   5.002  0.3589  0.2810  0.1365
 5001TIP3    H114944   5.756   1.526   5.003  0.6348  0.7199  0.0179
 5001TIP3    H214945   5.881   1.499   4.921  0.6784  0.1422  0.2640
 5002TIP3   OH214946   5.062   2.299   0.321 -0.0583 -0.5697  0.3434
 5002TIP3    H114947   5.028   2.211   0.306  0.2035 -0.7825  0.9440
 5002TIP3    H214948   5.156   2.292   0.302 -0.2478 -0.0995 -0.8524
 5003TIP3   OH214949   2.214   2.430   1.839 -0.0440  0.2516  0.0370
 5003TIP3    H114950   2.215   2.388   1.926 -3.4287  1.0386  0.5957
 5003TIP3    H214951   2.192   2.521   1.857  3.5366  1.6018 -1.4619
 5004TIP3   OH214952   2.651   6.104   6.272  0.4126 -0.3496 -0.1791
 5004TIP3    H114953   2.571   6.054   6.287 -0.5995  1.4984  0.8627
 5004TIP3    H214954   2.621   6.186   6.231  1.9690 -0.3715 -1.4691
 5005TIP3   OH214955   7.968   2.806   3.801 -0.2110 -0.3294  0.0019
 5005TIP3    H114956   7.912   2.808   3.724  1.4151  0.9028 -1.2250
 5005TIP3    H214957   8.038   2.744   3.778  0.1298 -0.1730  0.5963
 5006TIP3   OH214958   1.362   5.396   5.429  0.1699 -0.4850 -0.0564
 5006TIP3    H114959   1.323   5.388   5.341  1.1575  0.9192 -0.6524
 5006TIP3    H214960   1.366   5.490   5.445  1.0277 -0.6883  1.0457
 5007TIP3   OH214961   5.651   2.618  -0.009  0.3604  0.1187  0.0104
 5007TIP3    H114962   5.644   2.545   0.052  1.0861  0.5711  0.6556
 5007TIP3    H214963   5.745   2.633  -0.017  0.3167 -0.3844 -1.7862
 5008TIP3   OH214964   0.783   1.527   0.060 -0.1062 -0.0270 -0.3057
 5008TIP3    H114965   0.866   1.492   0.093  0.6004  0.3123 -1.6441
 5008TIP3    H214966   0.716   1.468   0.094  1.0073 -2.5464 -2.2176
 5009TIP3   OH214967   3.844   2.416   5.129  0.3408 -0.1476  0.5287
 5009TIP3    H114968   3.880   2.475   5.196  0.6176 -0.2957  0.5148
 5009TIP3    H214969   3.796   2.473   5.070  2.1275  0.3444 -0.5313
 5010TIP3   OH214970   1.612   1.982   4.667 -0.3282  0.0068 -0.1091
 5010TIP3    H114971   1.549   2.036   4.619 -1.5424 -1.8105 -0.6742
 5010TIP3    H214972   1.558   1.932   4.728  0.8092 -0.2602  0.7029
 5011TIP3   OH214973   0.207   4.397   3.987  0.0395 -0.1933  0.1203
 5011TIP3    H114974   0.241   4.330   3.927  0.4912 -0.6004  0.8164
 5011TIP3    H214975   0.259   4.475   3.967  3.5971 -1.4978  3.0787
 5012TIP3   OH214976   8.303   1.583   4.408 -0.4040 -0.0564  0.1205
 5012TIP3    H114977   8.328   1.661   4.358  0.3678  1.2819  2.4319
 5012TIP3    H214978   8.343   1.510   4.361 -0.6295  0.9824 -1.7785
 5013TIP3   OH214979   0.791   0.434   2.141  0.2506 -0.7773  0.3371
 5013TIP3    H114980   0.816   0.504   2.202  0.3306 -0.5267  0.0235
 5013TIP3    H214981   0.706   0.462   2.106  1.0704  0.0534 -1.0921
 5014TIP3   OH214982   2.124   1.297   5.392  0.2940  0.0921  0.2860
 5014TIP3    H114983   2.166   1.341   5.318  1.2905 -0.5134  0.4756
 5014TIP3    H214984   2.056   1.242   5.351  1.4307 -0.9410 -0.3046
 5015TIP3   OH214985   3.799   5.926   6.510 -0.0550  0.3460  0.4496
 5015TIP3    H114986   3.704   5.923   6.502 -0.0839  0.9326  0.5397
 5015TIP3    H214987   3.829   5.953   6.424  0.1747 -1.8483 -0.2285
 5016TIP3   OH214988   1.460   4.476   1.955  0.0549  0.2858  0.2566
 5016TIP3    H114989   1.471   4.476   2.050  0.1526 -0.0824  0.2484
 5016TIP3    H214990   1.393   4.541   1.938 -1.0331 -0.6815  0.7044
 5017TIP3   OH214991   5.802   0.830   0.568  0.7967  0.0644 -0.1932
 5017TIP3    H114992   5.752   0.795   0.494  0.7788  0.3603 -0.3230
 5017TIP3    H214993   5.854   0.902   0.530 -0.3126  1.1950  0.3585
 5018TIP3   OH214994   4.767   1.632   2.121  0.3333  0.6284  0.1175
 5018TIP3    H114995   4.780   1.544   2.085 -0.1996 -0.1554  1.7301
 5018TIP3    H214996   4.778   1.621   2.215  0.9786  2.4485  0.2962
 5019TIP3   OH214997   6.598   1.341   3.453  0.0886  0.1961 -0.6504
 5019TIP3    H114998   6.669   1.294   3.496 -0.4782  0.9465  1.2098
 5019TIP3    H214999   6.521   1.287   3.470  0.0924 -0.3521 -2.2223
 5020TIP3   OH215000   1.888   6.582   5.843 -0.3435 -0.0339  0.6650
 5020TIP3    H115001   1.974   6.548   5.870 -0.7501 -0.7149  1.1284
 5020TIP3    H215002   1.895   6.592   5.748  0.0611 -0.6214  0.6264
 5021TIP3   OH215003   3.353   3.854   6.374  0.7015 -0.0507  0.2910
 5021TIP3    H115004   3.281   3.798   6.347 -0.4223  0.9178  1.1351
 5021TIP3    H215005   3.330   3.880   6.464  0.6577  2.4824 -0.3662
 5022TIP3   OH215006   2.148   1.598   2.968 -0.2283  0.2784 -0.3706
 5022TIP3    H115007   2.189   1.511   2.968  1.4460  1.0183 -0.0333
 5022TIP3    H215008   2.070   1.588   2.914 -1.1001 -1.8879  1.1378
 5023TIP3   OH215009   1.112   5.782   1.892 -0.3138 -0.0441 -0.6214
 5023TIP3    H115010   1.125   5.689   1.872 -2.0973 -0.2568 -0.9715
 5023TIP3    H215011   1.092   5.783   1.986  0.2856  0.0605 -0.4923
 5024TIP3   OH215012   1.288   4.503   4.640 -0.2498 -0.0817  0.4130
 5024TIP3    H115013   1.318   4.521   4.729 -0.1810 -0.3827  0.4483
 5024TIP3    H215014   1.297   4.587   4.595  0.3657 -0.0989  0.5020
 5025TIP3   OH215015   5.561   1.530   2.665  0.0848 -0.2306  0.3354
 5025TIP3    H115016   5.515   1.614   2.657 -2.1285 -1.3634  0.4099
 5025TIP3    H215017   5.652   1.554   2.682 -0.3554  2.1465 -0.2676
 5026TIP3   OH215018   0.795   0.917   2.108 -0.1956  0.2208  0.2040
 5026TIP3    H115019   0.818   1.009   2.115  0.3543  0.1320 -0.3686
 5026TIP3    H215020   0.699   0.916   2.108 -0.3034  0.5245  3.4114
 5027TIP3   OH215021   0.575   5.557   5.309  0.3004 -0.1118  0.0892
 5027TIP3    H115022   0.597   5.522   5.223 -0.2641  1.0357 -0.5481
 5027TIP3    H215023   0.515   5.492   5.347 -2.0876  0.8592 -1.7673
 5028TIP3   OH215024   3.500   2.616   1.234 -0.2584  0.5370 -0.0965
 5028TIP3    H115025   3.537   2.703   1.221 -2.5422  1.4974 -0.7615
 5028TIP3    H215026   3.453   2.597   1.153  0.8024 -1.7018 -0.2753
 5029TIP3   OH215027   5.980   2.127   1.714 -0.3898  0.4287 -0.0552
 5029TIP3    H115028   5.898   2.171   1.736 -1.5089 -1.0433 -1.1045
 5029TIP3    H215029   6.004   2.080   1.794 -0.1800  1.4019  0.4704
 5030TIP3   OH215030   5.258   4.151   0.146 -0.3996 -0.0626  0.4293
 5030TIP3    H115031   5.195   4.216   0.116  1.3574  1.2444 -0.5703
 5030TIP3    H215032   5.207   4.092   0.202 -2.7544  0.2525 -1.2498
 5031TIP3   OH215033   3.242   3.063   4.094 -0.1722  0.6510 -0.9043
 5031TIP3    H115034   3.161   3.113   4.084 -0.3631  0.1796 -1.8754
 5031TIP3    H215035   3.310   3.121   4.061 -0.1434  0.9686 -0.2862
 5032TIP3   OH215036   6.723   7.144   0.982  0.2665 -0.6968 -0.2794
 5032TIP3    H115037   6.818   7.145   0.968  0.0149 -0.4885 -2.3076
 5032TIP3    H215038   6.692   7.070   0.929 -0.7134 -0.6831  0.2592
 5033TIP3   OH215039   0.051   1.387   1.123 -0.5623  0.1504 -0.1317
 5033TIP3    H115040   0.104   1.460   1.154 -0.1299 -0.1566 -0.1354
 5033TIP3    H215041   0.115   1.320   1.099 -0.9761 -0.4541  0.4307
 5034TIP3   OH215042   3.637   2.641   1.796  0.2957 -0.1026  0.8985
 5034TIP3    H115043   3.586   2.582   1.741  0.4345  1.2059 -0.7019
 5034TIP3    H215044   3.580   2.716   1.811  0.8130  0.2291  1.2672
 5035TIP3   OH215045   0.839   5.113   3.503  0.5478  0.4094  0.0367
 5035TIP3    H115046   0.817   5.084   3.592  2.2236 -2.3007 -0.3303
 5035TIP3    H215047   0.758   5.101   3.453  0.4078 -1.0207  0.5677
 5036TIP3   OH215048   4.024   5.727   5.190  0.3283 -0.3364 -0.3685
 5036TIP3    H115049   4.117   5.735   5.171  0.2042  2.1568 -0.2348
 5036TIP3    H215050   3.980   5.754   5.110 -0.2498  0.3791  0.1702
 5037TIP3   OH215051   2.056   5.733   1.963 -0.9863  0.1370 -0.0138
 5037TIP3    H115052   2.081   5.689   2.044  0.9860 -0.3093 -0.7918
 5037TIP3    H215053   2.083   5.824   1.975 -0.7605  0.0871 -0.1404
 5038TIP3   OH215054   7.903   7.682   0.515  0.1071 -0.0046 -0.2904
 5038TIP3    H115055   7.844   7.674   0.440  1.0783  0.2815 -1.1088
 5038TIP3    H215056   7.981   7.724   0.479  1.5989 -2.1290  0.3335
 5039TIP3   OH215057   7.510   7.162   5.497 -0.0539 -0.1557  0.1266
 5039TIP3    H115058   7.509   7.109   5.417 -0.3313 -1.2745  0.8583
 5039TIP3    H215059   7.499   7.252   5.465 -0.1835 -0.5814 -1.0965
 5040TIP3   OH215060   5.190   0.070   3.895 -0.2328  0.1667  0.0604
 5040TIP3    H115061   5.114   0.091   3.840  0.8031  1.2113 -1.0383
 5040TIP3    H215062   5.167   0.104   3.981 -2.8525 -3.4946  1.0546
 5041TIP3   OH215063   8.083   0.122   5.441 -0.6222 -0.0630 -0.2835
 5041TIP3    H115064   8.118   0.189   5.382  0.4790 -0.5443 -0.2054
 5041TIP3    H215065   7.988   0.131   5.434 -0.5711 -0.7618 -2.9029
 5042TIP3   OH215066   7.694   0.272   3.529  0.3581  0.6853 -0.2666
 5042TIP3    H115067   7.726   0.236   3.611  0.4077 -0.9081 -0.9541
 5042TIP3    H215068   7.749   0.349   3.514  0.2088  1.1264  1.2692
 5043TIP3   OH215069   7.024   0.812   4.980 -0.0897  0.2672 -0.9039
 5043TIP3    H115070   7.022   0.834   4.887  2.0596 -2.2703 -1.7009
 5043TIP3    H215071   6.939   0.772   4.998  0.1542 -0.9949 -2.3509
 5044TIP3   OH215072   1.046   6.419   2.196  0.3490 -0.0195 -0.1698
 5044TIP3    H115073   1.118   6.434   2.257 -0.5756 -1.4315  1.3528
 5044TIP3    H215074   1.050   6.494   2.136  1.4806  1.3031  1.4358
 5045TIP3   OH215075   7.351   4.765   6.014 -0.5596  0.3977  0.6057
 5045TIP3    H115076   7.379   4.697   6.075 -2.2038  0.5332  1.5910
 5045TIP3    H215077   7.257   4.750   6.004 -0.9376  2.4039  0.7376
 5046TIP3   OH215078   6.121   5.143   0.297  0.1548 -0.0961  0.2476
 5046TIP3    H115079   6.189   5.104   0.352 -1.2093  0.6222  2.5889
 5046TIP3    H215080   6.039   5.122   0.341 -1.0062  0.9028 -1.3103
 5047TIP3   OH215081   5.680   7.777   2.978  0.0059  0.0201 -0.2534
 5047TIP3    H115082   5.704   7.853   2.926  0.3441  0.4695  0.5417
 5047TIP3    H215083   5.693   7.805   3.069 -0.3419 -0.8226  0.0656
 5048TIP3   OH215084   2.481   4.342   5.956  0.0010  0.2189  0.1634
 5048TIP3    H115085   2.544   4.281   5.919  0.0298 -0.6553  1.5672
 5048TIP3    H215086   2.417   4.356   5.887  0.5314 -0.6250 -0.5170
 5049TIP3   OH215087   1.320   2.796   2.580  0.8266  0.3451 -0.5292
 5049TIP3    H115088   1.288   2.806   2.669  0.5245  0.3594 -0.6388
 5049TIP3    H215089   1.310   2.883   2.541  2.2891  0.7099 -0.1483
 5050TIP3   OH215090   1.188   5.855   4.694  0.4870  0.1389 -0.2022
 5050TIP3    H115091   1.172   5.948   4.683 -0.4497  0.0095 -0.0278
 5050TIP3    H215092   1.261   5.850   4.756 -0.6463  0.7458  1.2481
 5051TIP3   OH215093   2.055   1.144   4.018 -0.2098  0.1292 -0.5280
 5051TIP3    H115094   2.037   1.137   4.112  0.4678 -2.0015 -0.5187
 5051TIP3    H215095   2.091   1.233   4.008  1.8654 -0.3650  1.6343
 5052TIP3   OH215096   1.826   5.189   0.460  0.5858 -0.3501  0.0244
 5052TIP3    H115097   1.739   5.201   0.422  0.6762  0.3930  0.0364
 5052TIP3    H215098   1.818   5.224   0.548  0.9553 -0.0644 -0.0540
 5053TIP3   OH215099   5.567   3.636   5.380  0.2819  0.1229 -0.3601
 5053TIP3    H115100   5.634   3.628   5.448  0.3767 -1.9079 -0.6428
 5053TIP3    H215101   5.603   3.586   5.306 -0.2695  1.4472 -1.5642
 5054TIP3   OH215102   4.673   6.709   0.727  0.4450  0.1800 -0.3369
 5054TIP3    H115103   4.735   6.640   0.707 -1.0464 -1.4814  0.4537
 5054TIP3    H215104   4.618   6.673   0.797 -0.0041  2.4149  0.5648
 5055TIP3   OH215105   7.975   2.130   1.814 -0.0555  0.0310  0.2244
 5055TIP3    H115106   8.011   2.213   1.845 -0.7706  0.2921  0.3758
 5055TIP3    H215107   7.916   2.155   1.743  0.7471 -0.4734 -0.6428
 5056TIP3   OH215108   6.446   2.657   3.419  0.0795  0.0670  0.0567
 5056TIP3    H115109   6.397   2.727   3.461  2.1059  1.5848  0.0407
 5056TIP3    H215110   6.401   2.577   3.445 -1.9271  1.3116  0.6100
 5057TIP3   OH215111   4.476   7.072   0.187  0.4147 -0.4799 -0.4452
 5057TIP3    H115112   4.442   7.053   0.274 -0.6835 -2.2313 -1.1968
 5057TIP3    H215113   4.424   7.017   0.129  0.8422  0.9469 -2.2621
 5058TIP3   OH215114   5.714   7.860   1.991 -0.0582 -0.6045  0.1213
 5058TIP3    H115115   5.743   7.804   2.063 -1.5088 -0.2994  0.9688
 5058TIP3    H215116   5.619   7.854   1.992 -0.1959  0.9193 -0.5326
 5059TIP3   OH215117   1.513   4.502   4.073 -0.5355  0.3363 -0.7570
 5059TIP3    H115118   1.466   4.454   4.141  0.4629  0.7891  0.2870
 5059TIP3    H215119   1.600   4.462   4.071 -0.4235  0.5999 -1.4868
 5060TIP3   OH215120   3.196   5.437   1.326  0.5505  0.0155 -0.1440
 5060TIP3    H115121   3.126   5.478   1.378  1.2088  0.5305  0.3573
 5060TIP3    H215122   3.212   5.499   1.255 -0.5331 -0.8128 -1.1447
 5061TIP3   OH215123   7.168   7.343   0.213 -0.5788  0.0375 -0.3111
 5061TIP3    H115124   7.237   7.364   0.151 -1.2924 -0.3646 -1.2663
 5061TIP3    H215125   7.147   7.251   0.196 -0.3011 -0.2906  1.0161
 5062TIP3   OH215126   5.216   2.765   6.098  0.0622 -0.3676 -0.0972
 5062TIP3    H115127   5.241   2.716   6.176 -1.8345 -0.0453  0.7939
 5062TIP3    H215128   5.154   2.831   6.130 -0.3978  0.0958 -1.8029
 5063TIP3   OH215129   0.466   1.644   1.284  0.1634  0.4405 -0.6482
 5063TIP3    H115130   0.411   1.622   1.208  2.5082  0.1551 -2.3892
 5063TIP3    H215131   0.484   1.559   1.325 -0.3900  0.4992 -0.2699
 5064TIP3   OH215132   4.051   5.941   5.464 -0.1115 -0.0347  0.2266
 5064TIP3    H115133   4.036   5.872   5.529 -1.2221 -0.3954 -0.3950
 5064TIP3    H215134   4.034   5.899   5.380 -0.7645  0.9913 -0.1694
 5065TIP3   OH215135   0.193   0.081   0.126 -0.9778  0.0495  0.0842
 5065TIP3    H115136   0.271   0.035   0.096 -0.6469 -0.5368  1.7500
 5065TIP3    H215137   0.123   0.016   0.118 -0.6595 -0.5384  1.6628
 5066TIP3   OH215138   6.912   2.676   6.642 -0.3595 -0.3565  0.0212
 5066TIP3    H115139   6.879   2.766   6.652 -1.1816 -0.5856 -0.5691
 5066TIP3    H215140   6.990   2.673   6.698  0.6727  1.2217 -1.2442
 5067TIP3   OH215141   7.995   4.913   2.515  0.5642  0.0555  0.1848
 5067TIP3    H115142   8.074   4.915   2.569  1.4474 -1.9286 -0.9336
 5067TIP3    H215143   8.015   4.969   2.440  0.7973 -0.1778  0.0701
 5068TIP3   OH215144   3.852   3.543   1.775 -0.6870  0.4430  0.1360
 5068TIP3    H115145   3.800   3.622   1.789 -0.9665  0.7388 -2.2248
 5068TIP3    H215146   3.940   3.566   1.807 -1.0982  1.2167  0.7291
 5069TIP3   OH215147   3.358   5.135   5.318  0.3579 -0.0697 -0.5597
 5069TIP3    H115148   3.405   5.062   5.358  0.7134  0.8410  0.7490
 5069TIP3    H215149   3.267   5.121   5.342  0.0732 -1.2000 -2.1138
 5070TIP3   OH215150   0.313   2.883   0.955  0.6237 -0.1176  0.2921
 5070TIP3    H115151   0.290   2.942   0.883 -1.5217  0.6965  1.5644
 5070TIP3    H215152   0.375   2.934   1.008 -0.0225  0.4117  0.5520
 5071TIP3   OH215153   8.325   2.501   0.936 -0.2724 -0.3282 -0.1510
 5071TIP3    H115154   8.414   2.536   0.943 -0.6128  0.9341 -1.6617
 5071TIP3    H215155   8.293   2.532   0.852 -1.2477 -2.9290 -0.8356
 5072TIP3   OH215156   2.955   2.766   0.904  0.2047  0.3785  0.2568
 5072TIP3    H115157   2.899   2.715   0.845  1.4739  0.1017 -0.7855
 5072TIP3    H215158   2.957   2.716   0.985 -0.1151 -0.2244 -0.0985
 5073TIP3   OH215159   3.987   0.736   2.268 -0.1282 -0.0976 -0.4211
 5073TIP3    H115160   3.990   0.766   2.177  0.7278  0.9795 -0.0525
 5073TIP3    H215161   4.035   0.802   2.317  0.1452 -1.0973  0.7038
 5074TIP3   OH215162   1.812   0.493   5.333 -0.3504  0.0435  0.3416
 5074TIP3    H115163   1.725   0.527   5.312 -0.4593 -0.4147  0.0356
 5074TIP3    H215164   1.848   0.465   5.249  0.1664  0.3927  0.4423
 5075TIP3   OH215165   1.301   0.104   3.742 -0.1301 -0.0762  0.3258
 5075TIP3    H115166   1.346   0.171   3.793  1.3573 -1.2503  0.6383
 5075TIP3    H215167   1.330   0.021   3.781 -0.9855 -0.9286 -0.7940
 5076TIP3   OH215168   4.585   5.737   5.575 -0.0344  0.5484  0.0036
 5076TIP3    H115169   4.561   5.652   5.614 -0.1013  1.1049  1.2205
 5076TIP3    H215170   4.600   5.794   5.650 -1.2324  1.9711 -0.7858
 5077TIP3   OH215171   4.463   6.164   5.382  0.3135  0.5355 -0.3840
 5077TIP3    H115172   4.484   6.074   5.359 -0.3617  0.2668  0.0126
 5077TIP3    H215173   4.419   6.157   5.467  1.9374  1.4173  0.5718
 5078TIP3   OH215174   3.378   1.244   5.609  0.0457  0.1832  0.7947
 5078TIP3    H115175   3.396   1.178   5.676  2.2985 -0.1480 -0.0462
 5078TIP3    H215176   3.390   1.328   5.655  0.1156 -0.0253  1.1602
 5079TIP3   OH215177   2.988   7.817   5.002 -0.2986 -0.8516 -0.3135
 5079TIP3    H115178   3.082   7.836   5.003 -0.1304 -1.6762 -0.1134
 5079TIP3    H215179   2.971   7.777   5.087 -1.2080  1.0276  0.4359
 5080TIP3   OH215180   6.413   4.442   3.470  0.9371 -0.0549  0.6339
 5080TIP3    H115181   6.477   4.416   3.404  0.3142 -0.5872  0.2222
 5080TIP3    H215182   6.458   4.432   3.553  1.0168 -1.5857  0.4283
 5081TIP3   OH215183   0.715   2.510   2.149  0.2051 -0.1931 -0.0251
 5081TIP3    H115184   0.767   2.566   2.207  0.9717  0.8787 -1.6549
 5081TIP3    H215185   0.627   2.549   2.152  0.2192 -0.1854  0.4488
 5082TIP3   OH215186   7.772   5.644   2.508 -0.0539 -0.0195 -0.0933
 5082TIP3    H115187   7.679   5.649   2.487 -0.2144 -0.2741  0.5323
 5082TIP3    H215188   7.784   5.707   2.579 -0.3654 -2.0689  1.8862
 5083TIP3   OH215189   0.154   6.885   6.416  0.0336  0.1261  0.2214
 5083TIP3    H115190   0.242   6.855   6.439 -0.4262 -2.5200 -0.9864
 5083TIP3    H215191   0.168   6.953   6.350  1.1662  0.2743  0.5938
 5084TIP3   OH215192   8.354   6.304   3.061 -0.1340 -0.2369  0.2224
 5084TIP3    H115193   8.424   6.293   2.997  0.4631 -0.4679  0.8995
 5084TIP3    H215194   8.294   6.367   3.021  0.1136 -0.5517 -0.6542
 5085TIP3   OH215195   2.664   5.431   5.772 -0.2661 -0.3549  0.2199
 5085TIP3    H115196   2.642   5.523   5.756 -0.0462 -0.6022 -1.7063
 5085TIP3    H215197   2.588   5.397   5.820 -1.2135  0.3854 -0.7009
 5086TIP3   OH215198   6.664   4.568   3.358  0.2317  0.5690 -0.9012
 5086TIP3    H115199   6.695   4.578   3.448  1.5842  2.2134 -1.5015
 5086TIP3    H215200   6.743   4.576   3.304 -0.8105  1.7295 -2.3412
 5087TIP3   OH215201   6.259   6.375   1.980 -0.1633  0.4247 -0.2322
 5087TIP3    H115202   6.339   6.325   1.991 -1.3273 -1.5695 -0.2373
 5087TIP3    H215203   6.234   6.401   2.068  0.5015  1.1098 -0.2388
 5088TIP3   OH215204   7.779   6.666   0.123 -0.5478  0.1195 -0.3536
 5088TIP3    H115205   7.844   6.646   0.056  0.4621  2.5430 -0.1894
 5088TIP3    H215206   7.705   6.609   0.103  0.8776 -1.3600 -1.6843
 5089TIP3   OH215207   7.428   0.637   4.416  0.7369  0.3884  0.1305
 5089TIP3    H115208   7.373   0.587   4.476  0.4570 -0.5244 -0.8591
 5089TIP3    H215209   7.426   0.727   4.451 -0.9702  0.2777  0.4032
 5090TIP3   OH215210   6.963   3.914   4.512  0.2319 -0.1375 -0.6778
 5090TIP3    H115211   6.883   3.923   4.459  0.1059 -1.1033 -0.6725
 5090TIP3    H215212   6.971   3.998   4.558  0.3903  0.7685 -2.2793
 5091TIP3   OH215213   6.985   6.046   6.154 -0.0942 -0.6207  0.3022
 5091TIP3    H115214   7.017   6.010   6.071  1.0320 -0.4036  0.6362
 5091TIP3    H215215   6.979   5.970   6.212  1.2538 -0.4648  0.6799
 5092TIP3   OH215216   0.366   0.910   0.727 -0.1581  0.4224  0.1196
 5092TIP3    H115217   0.283   0.927   0.771 -1.2819 -1.1912 -1.2319
 5092TIP3    H215218   0.342   0.893   0.636  1.8918  1.9739 -0.7951
 5093TIP3   OH215219   4.452   3.669   0.639  0.6135  0.2010  0.1428
 5093TIP3    H115220   4.394   3.743   0.656 -0.7489 -0.8880  0.4138
 5093TIP3    H215221   4.493   3.652   0.724 -0.7438 -0.6996  0.6605
 5094TIP3   OH215222   0.794   5.323   2.284 -0.2608 -0.3493  0.3166
 5094TIP3    H115223   0.815   5.275   2.204  1.0760  0.8066 -0.0689
 5094TIP3    H215224   0.724   5.271   2.325  0.2609 -1.9359 -0.6786
 5095TIP3   OH215225   7.011   1.365   3.395  0.4237  0.2402  0.4500
 5095TIP3    H115226   7.089   1.311   3.405  0.3381  0.0399  0.0652
 5095TIP3    H215227   6.984   1.352   3.304  0.0424  0.4436  0.5297
 5096TIP3   OH215228   0.675   4.930   4.841 -0.0562 -0.1624 -0.2697
 5096TIP3    H115229   0.592   4.886   4.856 -0.4904  0.3444 -1.1291
 5096TIP3    H215230   0.742   4.864   4.862 -0.6820 -0.8999 -0.5730
 5097TIP3   OH215231   8.027   0.359   5.200  0.0099 -0.0518  0.2209
 5097TIP3    H115232   8.088   0.409   5.254  0.4503 -0.3205 -0.0244
 5097TIP3    H215233   8.078   0.332   5.124 -0.9473  1.4658 -1.0179
 5098TIP3   OH215234   6.835   6.430   5.038  0.2215  0.4222 -0.1447
 5098TIP3    H115235   6.753   6.459   4.998  0.2579 -0.2857 -0.7424
 5098TIP3    H215236   6.872   6.367   4.976  0.9270  0.2921  0.3917
 5099TIP3   OH215237   3.490   1.169   4.135 -0.0628  0.3578 -0.2497
 5099TIP3    H115238   3.501   1.100   4.070  0.8685 -0.0376  0.3025
 5099TIP3    H215239   3.426   1.134   4.197 -0.5709  0.5276 -0.6802
 5100TIP3   OH215240   6.162   0.375   3.018  0.0053 -0.0651 -0.1460
 5100TIP3    H115241   6.173   0.324   2.937  0.5785  0.2950 -0.3025
 5100TIP3    H215242   6.131   0.312   3.082  0.5020 -0.5704 -0.3936
 5101TIP3   OH215243   4.403   7.032   1.235  0.4614 -0.6094 -0.0584
 5101TIP3    H115244   4.389   7.096   1.166 -1.2965 -1.5430 -0.6422
 5101TIP3    H215245   4.498   7.025   1.243  0.6910  1.2468 -0.7031
 5102TIP3   OH215246   1.974   3.421   1.342 -0.4888  0.3624 -0.6369
 5102TIP3    H115247   1.910   3.451   1.407  0.0438 -2.5558  1.4056
 5102TIP3    H215248   2.058   3.423   1.388 -0.1490 -2.0891 -1.0136
 5103TIP3   OH215249   2.615   1.744   4.389 -0.3004 -0.1681  0.2379
 5103TIP3    H115250   2.524   1.728   4.364  0.0090 -0.4147 -0.7484
 5103TIP3    H215251   2.645   1.812   4.328  0.6041 -1.1094 -0.3945
 5104TIP3   OH215252   7.356   3.114   4.043 -0.5717  0.6358 -0.0670
 5104TIP3    H115253   7.297   3.041   4.022  0.8516 -0.5146 -0.2117
 5104TIP3    H215254   7.307   3.192   4.017 -1.2389 -0.3830 -2.0952
 5105TIP3   OH215255   6.799   6.154   3.888 -0.0036 -0.1493  0.6645
 5105TIP3    H115256   6.742   6.163   3.964  0.8712 -1.4801  1.5143
 5105TIP3    H215257   6.886   6.139   3.924  0.5739 -0.0111 -0.6106
 5106TIP3   OH215258   5.884   0.795   2.809 -0.0100 -0.2106 -0.3406
 5106TIP3    H115259   5.910   0.886   2.800 -0.8752  0.1195  0.4155
 5106TIP3    H215260   5.966   0.746   2.800  0.7214  0.7391  0.8553
 5107TIP3   OH215261   1.260   2.369   6.689  0.5958  0.4035 -0.0878
 5107TIP3    H115262   1.338   2.425   6.682  0.7563  0.2564  0.5010
 5107TIP3    H215263   1.267   2.328   6.775  1.3583 -1.8580 -1.1601
 5108TIP3   OH215264   3.472   4.514   3.516 -0.5550 -0.1992  0.0673
 5108TIP3    H115265   3.409   4.562   3.570  0.1781  1.0818 -0.1739
 5108TIP3    H215266   3.465   4.555   3.430  0.1069 -0.5258 -0.1415
 5109TIP3   OH215267   7.101   2.342   0.492 -0.0324  0.4795  0.4186
 5109TIP3    H115268   7.134   2.430   0.473 -1.1382  0.2195 -3.5766
 5109TIP3    H215269   7.006   2.353   0.501 -0.4245 -0.4368 -1.9854
 5110TIP3   OH215270   1.405   5.714   0.279 -0.1755  0.0606  0.0464
 5110TIP3    H115271   1.345   5.685   0.348 -0.6858 -0.4496 -0.5954
 5110TIP3    H215272   1.442   5.796   0.312 -0.3471 -0.2156  0.9584
 5111TIP3   OH215273   0.422   4.037   2.049  0.2006 -0.2098  0.1110
 5111TIP3    H115274   0.395   3.953   2.084  1.6160 -0.6711  0.1679
 5111TIP3    H215275   0.363   4.101   2.090  0.8280 -0.8868  2.1774
 5112TIP3   OH215276   1.824   2.720   2.936  0.1243  0.8489 -0.4283
 5112TIP3    H115277   1.858   2.676   2.858 -0.4814 -1.4141  0.5104
 5112TIP3    H215278   1.732   2.737   2.915 -0.1613 -0.1869 -0.0595
 5113TIP3   OH215279   4.739   7.198   5.512 -0.8971 -0.0180 -0.2039
 5113TIP3    H115280   4.770   7.149   5.436  1.6602  3.1469 -1.4748
 5113TIP3    H215281   4.813   7.255   5.535 -2.8199  1.6446  2.4721
 5114TIP3   OH215282   7.555   1.146   4.815  0.4498 -0.1861 -0.1594
 5114TIP3    H115283   7.559   1.186   4.902 -0.3302  2.4112 -1.2397
 5114TIP3    H215284   7.644   1.115   4.799  1.0697  1.0269  0.8039
 5115TIP3   OH215285   1.559   3.973   5.030 -0.1298 -0.1852 -0.2618
 5115TIP3    H115286   1.524   3.922   4.957  0.6689 -0.7502 -0.2650
 5115TIP3    H215287   1.517   3.938   5.108 -1.9291  1.2363 -0.5208
 5116TIP3   OH215288   3.015   4.799   3.104  0.1122  0.1407 -0.2938
 5116TIP3    H115289   2.956   4.729   3.075  1.5426 -2.0017  1.6652
 5116TIP3    H215290   2.959   4.860   3.150 -1.0457 -0.1233 -1.2913
 5117TIP3   OH215291   1.633   4.907   3.644 -0.0528 -0.0270 -0.5043
 5117TIP3    H115292   1.631   4.832   3.584  2.3890 -0.2223 -0.4265
 5117TIP3    H215293   1.709   4.891   3.700 -0.4598  1.7093  0.6102
 5118TIP3   OH215294   0.038   4.870   5.300 -0.0504 -0.3609 -0.2540
 5118TIP3    H115295   0.011   4.867   5.392  0.9706 -0.2955  0.0603
 5118TIP3    H215296   0.096   4.946   5.294  0.3803 -0.7218 -0.8129
 5119TIP3   OH215297   3.916   7.289   1.812 -0.1470  0.4834  0.0682
 5119TIP3    H115298   3.920   7.384   1.805  0.4009  0.3913 -1.0148
 5119TIP3    H215299   3.910   7.258   1.722 -3.4512 -0.4314  0.4730
 5120TIP3   OH215300   2.827   4.912   2.898  0.3622 -0.1493 -0.0731
 5120TIP3    H115301   2.891   4.924   2.969  0.4495  2.6607 -0.5309
 5120TIP3    H215302   2.881   4.906   2.819  0.1378 -0.3524 -0.2110
 5121TIP3   OH215303   4.606   4.439   4.372 -0.1400  0.4357 -0.1237
 5121TIP3    H115304   4.585   4.528   4.343 -2.6830 -0.5808 -1.6882
 5121TIP3    H215305   4.523   4.403   4.401  0.8120 -1.5227  0.3340
 5122TIP3   OH215306   5.211   4.496   4.596 -0.6998 -0.0503  0.7296
 5122TIP3    H115307   5.172   4.569   4.644 -0.5987 -0.0532  0.8156
 5122TIP3    H215308   5.291   4.475   4.644 -0.3891  0.2073  0.3410
 5123TIP3   OH215309   3.646   0.575   1.249  0.6327  0.0552 -0.3232
 5123TIP3    H115310   3.606   0.543   1.330  0.4640  0.1131 -0.3819
 5123TIP3    H215311   3.612   0.664   1.241 -0.4737 -0.4136 -1.1830
 5124TIP3   OH215312   7.412   0.985   5.504  0.1343  0.1180  0.0865
 5124TIP3    H115313   7.320   0.989   5.530 -0.1713  0.3501 -1.0008
 5124TIP3    H215314   7.419   1.047   5.431  1.0735 -0.1590 -0.0640
 5125TIP3   OH215315   5.393   1.330   4.493 -0.6051  0.4242 -0.0041
 5125TIP3    H115316   5.323   1.321   4.429 -0.7112  1.0357  0.0133
 5125TIP3    H215317   5.467   1.283   4.455 -0.6857  0.7294 -0.5478
 5126TIP3   OH215318   3.697   3.944   5.379 -0.2148 -0.6566  0.0249
 5126TIP3    H115319   3.779   3.993   5.383 -0.5004 -0.1542 -0.1479
 5126TIP3    H215320   3.650   3.982   5.305 -0.4138 -1.2444 -0.1604
 5127TIP3   OH215321   3.362   4.149   5.039 -0.9385 -0.4489  0.4903
 5127TIP3    H115322   3.439   4.103   5.072  1.2330  2.1199 -0.5337
 5127TIP3    H215323   3.293   4.083   5.035  1.5585 -3.2387  0.2509
 5128TIP3   OH215324   2.596   7.220   3.994  0.6428 -0.8393 -0.0832
 5128TIP3    H115325   2.538   7.282   4.037  0.2008 -1.3612  0.0790
 5128TIP3    H215326   2.621   7.158   4.062  1.0277 -0.8872 -0.2615
 5129TIP3   OH215327   6.897   3.180   0.647  0.3827  1.3152  0.3679
 5129TIP3    H115328   6.904   3.263   0.695  2.8898  1.6498 -0.4535
 5129TIP3    H215329   6.893   3.206   0.555 -0.7204  0.5404  0.1768
 5130TIP3   OH215330   5.389   5.358   0.053 -0.2686 -0.0240  0.3213
 5130TIP3    H115331   5.425   5.387   0.137  1.1736 -1.2814  0.1838
 5130TIP3    H215332   5.440   5.406  -0.012 -0.2751 -0.2665  0.1402
 5131TIP3   OH215333   7.231   4.542   2.353  0.3673 -0.0663  0.2751
 5131TIP3    H115334   7.275   4.618   2.316  0.8191 -0.4796 -0.0471
 5131TIP3    H215335   7.302   4.484   2.381  0.0379  0.0118  1.3438
 5132TIP3   OH215336   2.619   2.690   2.711  0.3566 -0.1805 -0.2230
 5132TIP3    H115337   2.704   2.652   2.732  0.3180 -0.3165 -0.3155
 5132TIP3    H215338   2.560   2.615   2.700 -0.2863 -0.0876  1.9499
 5133TIP3   OH215339   5.264   4.975   4.412 -0.2230  0.1348  0.4176
 5133TIP3    H115340   5.224   4.901   4.458  0.2189  0.0615  0.6912
 5133TIP3    H215341   5.332   5.007   4.471  0.0198  0.3546  0.0297
 5134TIP3   OH215342   2.318   2.993   3.074 -0.5217  0.0183  0.3088
 5134TIP3    H115343   2.337   3.002   3.167 -4.6793 -0.0640  1.3905
 5134TIP3    H215344   2.364   2.914   3.047 -0.2782 -0.7110  2.6727
 5135TIP3   OH215345   5.145   3.240   5.493 -0.6839 -0.1927 -0.1755
 5135TIP3    H115346   5.149   3.222   5.587 -0.4419 -0.9690 -0.3254
 5135TIP3    H215347   5.215   3.185   5.455 -1.8077 -1.1273 -0.9775
 5136TIP3   OH215348   6.323   6.222   3.466  0.0506  0.0304 -0.1500
 5136TIP3    H115349   6.282   6.204   3.381 -1.2118  1.3556  0.1433
 5136TIP3    H215350   6.336   6.317   3.467 -0.1397  0.0627  1.2221
 5137TIP3   OH215351   1.603   5.832   2.649  0.5798  0.4031  0.3041
 5137TIP3    H115352   1.615   5.925   2.671  0.6752  0.5771 -0.4563
 5137TIP3    H215353   1.601   5.830   2.554  3.6146 -0.7299  0.1336
 5138TIP3   OH215354   6.154   7.655   4.727 -0.6312  0.9896  0.3576
 5138TIP3    H115355   6.079   7.689   4.775  0.0765  2.1651  0.6450
 5138TIP3    H215356   6.179   7.726   4.668  0.4881  0.7518  0.5330
 5139TIP3   OH215357   4.958   5.371   5.724 -0.2992 -0.0328 -0.0990
 5139TIP3    H115358   5.051   5.347   5.723  0.2599  1.9345 -0.3883
 5139TIP3    H215359   4.929   5.349   5.813  0.2877 -1.1575 -0.1672
 5140TIP3   OH215360   0.664   2.098   6.646  0.0332  0.1613  0.0909
 5140TIP3    H115361   0.717   2.147   6.583 -0.5067 -0.3985 -0.8255
 5140TIP3    H215362   0.611   2.165   6.690  0.5722  0.5822  0.1068
 5141TIP3   OH215363   1.348   7.159   3.725 -0.7985  0.1574  0.1608
 5141TIP3    H115364   1.348   7.204   3.641 -0.1717 -0.7008 -0.3121
 5141TIP3    H215365   1.440   7.136   3.741 -1.2542 -2.4514 -0.4689
 5142TIP3   OH215366   7.774   2.217   0.367  0.2406 -0.3939 -0.3915
 5142TIP3    H115367   7.715   2.284   0.402  0.5908 -0.1538 -0.2638
 5142TIP3    H215368   7.857   2.262   0.353  0.7130 -0.9885  0.4443
 5143TIP3   OH215369   7.016   1.023   2.449 -0.2326 -0.0778  0.1670
 5143TIP3    H115370   7.047   1.023   2.539 -0.8934 -0.0863  0.3999
 5143TIP3    H215371   6.936   0.971   2.450 -0.8505  0.8359 -0.1995
 5144TIP3   OH215372   4.734   7.233   4.006  0.0583 -0.2707 -0.0445
 5144TIP3    H115373   4.723   7.327   3.994  2.1085  0.0989  0.7391
 5144TIP3    H215374   4.693   7.214   4.090  2.5726  0.5892  1.4768
 5145TIP3   OH215375   8.237   5.025   3.403 -0.2752  0.7970 -0.0397
 5145TIP3    H115376   8.187   4.993   3.478  0.1540 -0.8106 -0.4076
 5145TIP3    H215377   8.274   5.108   3.433 -2.8457  1.9167  0.3562
 5146TIP3   OH215378   7.310   1.169   2.534  0.0290 -0.2776 -0.1088
 5146TIP3    H115379   7.317   1.076   2.556 -0.3682  0.0743  1.6525
 5146TIP3    H215380   7.220   1.192   2.555  0.2823  0.6298  0.0001
 5147TIP3   OH215381   2.629   7.056   5.297  0.7284 -0.2702 -0.0908
 5147TIP3    H115382   2.542   7.084   5.271  0.3276  0.1630  1.5640
 5147TIP3    H215383   2.619   6.965   5.324  0.5246  0.0912  1.1250
 5148TIP3   OH215384   7.087   5.351   0.728  0.1444  0.5462 -0.0845
 5148TIP3    H115385   7.005   5.388   0.696 -1.2101 -2.1148  0.0297
 5148TIP3    H215386   7.064   5.312   0.812  1.2504 -1.1271 -0.5212
 5149TIP3   OH215387   3.777   7.901   3.035 -0.2686 -0.3469  0.2865
 5149TIP3    H115388   3.726   7.979   3.053 -1.0606 -0.3061 -1.8851
 5149TIP3    H215389   3.748   7.872   2.949  1.3147 -1.9945  0.2395
 5150TIP3   OH215390   7.878   6.522   3.346  0.2917 -0.0552 -0.5386
 5150TIP3    H115391   7.864   6.582   3.273 -0.5388  0.6679  0.1782
 5150TIP3    H215392   7.893   6.437   3.306 -1.9797 -0.0452 -1.5283
 5151TIP3   OH215393   7.897   6.160   0.441 -0.2615 -0.1718  0.1542
 5151TIP3    H115394   7.978   6.211   0.449 -0.4489  0.3207 -0.8433
 5151TIP3    H215395   7.877   6.131   0.530  1.2987 -0.7610  0.3344
 5152TIP3   OH215396   7.607   4.231   3.177  0.5855  0.0215 -0.2750
 5152TIP3    H115397   7.588   4.296   3.110  1.7862  0.9302  0.2369
 5152TIP3    H215398   7.593   4.277   3.260 -0.2845 -0.9084  0.1313
 5153TIP3   OH215399   0.098   3.924   2.208 -0.2268  0.0972 -1.0802
 5153TIP3    H115400   0.156   3.993   2.241  0.3038 -1.5535  1.7623
 5153TIP3    H215401   0.013   3.967   2.195  0.5176  1.6183 -1.0371
 5154TIP3   OH215402   8.302   1.502   6.337  0.4898  0.5198 -0.3102
 5154TIP3    H115403   8.311   1.505   6.432  0.3368  0.1293 -0.2847
 5154TIP3    H215404   8.368   1.439   6.308 -1.7677 -2.0523 -0.1629
 5155TIP3   OH215405   4.134   2.035   5.090  0.3066  0.2868  0.0808
 5155TIP3    H115406   4.054   2.039   5.142  0.6301 -0.7788  0.6877
 5155TIP3    H215407   4.126   1.953   5.041  0.5188  0.7352 -0.7217
 5156TIP3   OH215408   8.390   4.093   6.325 -0.5101  0.5425 -0.9580
 5156TIP3    H115409   8.427   4.088   6.413  1.7786  3.1442 -1.6351
 5156TIP3    H215410   8.369   4.002   6.302  1.3026 -0.5274  1.2763
 5157TIP3   OH215411   4.749   2.099   0.517 -0.2694  0.8609 -0.3832
 5157TIP3    H115412   4.711   2.023   0.474  1.0501  1.1816 -2.2208
 5157TIP3    H215413   4.673   2.153   0.541 -1.1121  0.1413 -1.3277
 5158TIP3   OH215414   8.252   5.546   1.783  0.0582  0.1172 -0.3680
 5158TIP3    H115415   8.339   5.560   1.744  0.1624 -2.6253 -1.3695
 5158TIP3    H215416   8.194   5.603   1.733  0.9674  0.4085 -1.1352
 5159TIP3   OH215417   7.447   6.927   1.766 -0.1748 -0.1555  0.1907
 5159TIP3    H115418   7.458   6.860   1.833 -0.5256  1.0217  1.4666
 5159TIP3    H215419   7.489   6.890   1.688  0.1608 -1.5901  1.0181
 5160TIP3   OH215420   3.708   3.898   3.196 -0.3143 -0.4131  0.4064
 5160TIP3    H115421   3.768   3.965   3.164  0.4436 -0.8941  0.7984
 5160TIP3    H215422   3.723   3.894   3.290  1.8201 -3.1236  0.1048
 5161TIP3   OH215423   3.578   4.737   5.588 -0.3859  0.4166 -0.3128
 5161TIP3    H115424   3.517   4.664   5.603 -0.3831  0.5536  0.3703
 5161TIP3    H215425   3.563   4.762   5.497 -1.3547  0.4511 -0.1525
 5162TIP3   OH215426   3.384   4.479   1.460  0.5042 -0.5419  0.3288
 5162TIP3    H115427   3.354   4.454   1.547  1.3604 -1.1169  0.4727
 5162TIP3    H215428   3.413   4.570   1.469  0.4381 -0.5475  0.6050
 5163TIP3   OH215429   5.335   0.002   4.633  0.5533 -0.0119 -0.5467
 5163TIP3    H115430   5.333   0.060   4.557  1.4851  1.3057  0.3935
 5163TIP3    H215431   5.254   0.021   4.680  0.8056  0.4759 -0.2980
 5164TIP3   OH215432   6.293   1.812   1.305  0.7537 -0.3018  0.7441
 5164TIP3    H115433   6.200   1.803   1.329  0.2178  0.4956 -0.8597
 5164TIP3    H215434   6.331   1.863   1.375 -1.2864  4.0385 -0.9468
 5165TIP3   OH215435   4.858   6.643   6.104  0.0270  0.0635  0.0775
 5165TIP3    H115436   4.832   6.620   6.014  0.4654  0.0075 -0.0393
 5165TIP3    H215437   4.776   6.656   6.150 -0.1955  0.6614 -0.4791
 5166TIP3   OH215438   7.800   1.970   2.562  0.0544 -0.4035  0.3708
 5166TIP3    H115439   7.781   2.064   2.561  2.1820  0.1034  1.5101
 5166TIP3    H215440   7.755   1.937   2.640  0.6303  0.0105  0.8868
 5167TIP3   OH215441   4.482   1.517   2.964  0.0815 -0.3698 -0.1516
 5167TIP3    H115442   4.568   1.523   2.923 -0.1773  0.0020 -0.6547
 5167TIP3    H215443   4.452   1.608   2.970 -1.5513 -0.6386 -2.7593
 5168TIP3   OH215444   4.353   7.426   6.009 -0.1384 -0.4580  0.3144
 5168TIP3    H115445   4.332   7.425   6.102 -0.1587  2.7310  0.4480
 5168TIP3    H215446   4.269   7.409   5.965 -1.4309  3.3497  0.9447
 5169TIP3   OH215447   3.912   3.685   5.674  0.1654  0.0885  0.3570
 5169TIP3    H115448   3.835   3.742   5.664  0.7201  0.9815  1.1143
 5169TIP3    H215449   3.951   3.682   5.586 -0.8495 -0.5705 -0.0956
 5170TIP3   OH215450   0.448   3.621   1.300 -0.1033 -0.5028 -0.4240
 5170TIP3    H115451   0.403   3.643   1.382  0.1960  0.1340 -0.4343
 5170TIP3    H215452   0.417   3.686   1.237  1.1620  0.2283 -0.3252
 5171TIP3   OH215453   2.389   1.883   0.408  0.0181  0.1239  0.0608
 5171TIP3    H115454   2.300   1.851   0.395  0.2548 -1.0390  1.0899
 5171TIP3    H215455   2.419   1.841   0.489  0.1932  3.4325  1.9015
 5172TIP3   OH215456   6.547   7.663   3.047  0.6672  0.0696 -0.2155
 5172TIP3    H115457   6.570   7.604   2.974  0.8187  0.5671 -0.5792
 5172TIP3    H215458   6.459   7.636   3.073  1.2125 -1.1428  0.4619
 5173TIP3   OH215459   5.653   4.701   4.877 -0.3132 -0.2281 -0.2483
 5173TIP3    H115460   5.717   4.758   4.835 -1.3551  0.8066 -0.4658
 5173TIP3    H215461   5.682   4.693   4.968  0.0357  0.3467 -0.3110
 5174TIP3   OH215462   7.816   4.211   2.145 -0.6569  0.2643  0.3216
 5174TIP3    H115463   7.796   4.216   2.052  1.0487  0.3594 -0.0701
 5174TIP3    H215464   7.833   4.118   2.160  0.4170  0.4391  0.2257
 5175TIP3   OH215465   5.402   1.762   2.727 -0.1398 -0.4684 -0.2511
 5175TIP3    H115466   5.489   1.801   2.723 -0.8767  1.1917 -3.6593
 5175TIP3    H215467   5.345   1.834   2.757 -0.4178 -1.6228  2.2745
 5176TIP3   OH215468   2.660   5.084   4.332 -0.7506 -0.0374 -0.2730
 5176TIP3    H115469   2.608   5.041   4.265  2.9633 -2.0932 -2.1059
 5176TIP3    H215470   2.677   5.016   4.398  4.0901 -1.5186 -2.5651
 5177TIP3   OH215471   3.433   6.770   1.743  1.2301  0.3602 -0.0970
 5177TIP3    H115472   3.430   6.824   1.822  0.2717 -0.3997  0.4003
 5177TIP3    H215473   3.412   6.831   1.672 -0.3325  0.5728  0.5073
 5178TIP3   OH215474   1.311   3.014   0.297 -0.0487 -0.3595  0.7081
 5178TIP3    H115475   1.312   2.923   0.327  1.5873 -0.5261  0.2600
 5178TIP3    H215476   1.310   3.066   0.377  1.6432 -0.8032  1.0679
 5179TIP3   OH215477   3.268   1.778   5.175  0.0635  0.2752  0.6096
 5179TIP3    H115478   3.281   1.778   5.269 -0.6322 -2.1641  0.7685
 5179TIP3    H215479   3.356   1.780   5.138  0.3479  0.6904  1.2898
 5180TIP3   OH215480   6.309   3.374   6.487 -0.5521 -0.3948  0.2291
 5180TIP3    H115481   6.342   3.426   6.560 -0.1006 -2.2772  1.4640
 5180TIP3    H215482   6.347   3.414   6.409  1.4548 -0.1006  1.2868
 5181TIP3   OH215483   7.686   0.407   0.202  0.0525 -0.0688 -0.6282
 5181TIP3    H115484   7.696   0.418   0.296 -2.4349  0.0228 -0.3194
 5181TIP3    H215485   7.683   0.496   0.167 -0.5041 -0.0749 -0.6007
 5182TIP3   OH215486   0.452   5.071   1.818  0.2037  0.0046  0.3957
 5182TIP3    H115487   0.502   4.997   1.785  1.0931  0.7987 -0.0995
 5182TIP3    H215488   0.401   5.101   1.743  1.1505  0.9321  0.0890
 5183TIP3   OH215489   1.152   6.282   3.751 -0.9872  0.2545 -0.0142
 5183TIP3    H115490   1.068   6.298   3.795 -1.4867 -2.0281 -0.0160
 5183TIP3    H215491   1.147   6.191   3.723  0.2735  0.9231 -2.7460
 5184TIP3   OH215492   0.808   6.666   3.510  0.7381  0.2378 -0.0852
 5184TIP3    H115493   0.793   6.753   3.547 -1.3689 -0.2290  0.2966
 5184TIP3    H215494   0.721   6.626   3.507  1.2025 -0.7753 -3.0447
 5185TIP3   OH215495   4.865   2.509   4.861 -0.7834  0.2409 -0.4797
 5185TIP3    H115496   4.901   2.551   4.782 -1.1077  0.3087 -0.5903
 5185TIP3    H215497   4.771   2.502   4.845 -0.6893 -0.8262 -0.5894
 5186TIP3   OH215498   5.768   3.765   3.292 -0.2584 -0.0418 -0.2336
 5186TIP3    H115499   5.796   3.846   3.335 -2.1008  0.3208  0.3957
 5186TIP3    H215500   5.725   3.715   3.362  0.1885 -1.2314 -0.7864
 5187TIP3   OH215501   4.038   0.942   5.680  0.0068  1.0275 -0.1223
 5187TIP3    H115502   4.016   1.002   5.610 -1.5831  1.4770  0.7050
 5187TIP3    H215503   4.061   0.998   5.754  0.3335  0.5961  0.1087
 5188TIP3   OH215504   1.174   2.705   0.102  0.0274 -0.0961 -0.4481
 5188TIP3    H115505   1.100   2.729   0.047 -0.9701 -1.0555  0.4356
 5188TIP3    H215506   1.168   2.610   0.111 -0.1671  0.0749  1.7300
 5189TIP3   OH215507   5.068   4.022   1.043 -0.7684 -0.5641  0.1730
 5189TIP3    H115508   5.115   3.942   1.021  0.1330 -0.1810  0.6682
 5189TIP3    H215509   5.010   4.038   0.968  0.0070 -0.9486 -0.5187
 5190TIP3   OH215510   5.515   7.611   3.460 -0.6850  0.4011  0.0664
 5190TIP3    H115511   5.454   7.674   3.499  0.6913  1.9771 -0.2061
 5190TIP3    H215512   5.470   7.578   3.382 -1.0600  1.8563 -0.3618
 5191TIP3   OH215513   2.575   6.443   1.093 -0.3712 -0.9487  0.3088
 5191TIP3    H115514   2.507   6.470   1.156  0.6093 -1.2268  1.5387
 5191TIP3    H215515   2.635   6.389   1.145  1.9791  1.0267 -0.1767
 5192TIP3   OH215516   3.809   1.471   2.219  0.2095 -0.4287  0.3529
 5192TIP3    H115517   3.766   1.392   2.186  1.3340 -0.7015 -0.5431
 5192TIP3    H215518   3.737   1.530   2.241 -0.6319 -1.0367 -0.6385
 5193TIP3   OH215519   7.476   1.260   0.829 -0.4052 -0.0863  0.2211
 5193TIP3    H115520   7.476   1.253   0.925  0.0563 -1.8420  0.1268
 5193TIP3    H215521   7.481   1.354   0.812 -0.3120  0.2505  1.9241
 5194TIP3   OH215522   3.533   5.592   3.835  0.5426  0.0898  0.4204
 5194TIP3    H115523   3.531   5.603   3.930  0.3957 -1.4724  0.6303
 5194TIP3    H215524   3.461   5.531   3.817  1.4235 -0.7223 -0.5011
 5195TIP3   OH215525   0.783   4.374   5.527  0.1909  0.6674 -0.6520
 5195TIP3    H115526   0.821   4.424   5.454  2.3027  1.4465  0.8856
 5195TIP3    H215527   0.852   4.373   5.594 -0.4022 -2.7964  0.1206
 5196TIP3   OH215528   6.233   4.065   4.485  0.5400  0.1290 -0.1771
 5196TIP3    H115529   6.216   3.975   4.460  0.7104  0.5449 -1.9128
 5196TIP3    H215530   6.157   4.114   4.455 -0.0248  0.4498  1.6554
 5197TIP3   OH215531   1.469   1.847   6.279 -0.3511  0.2787 -0.1339
 5197TIP3    H115532   1.383   1.872   6.246  0.6705  1.5228 -2.0777
 5197TIP3    H215533   1.519   1.825   6.201  1.0831 -0.5234  0.9572
 5198TIP3   OH215534   4.384   7.479   4.876 -0.6798  0.2688 -0.8570
 5198TIP3    H115535   4.398   7.390   4.844 -1.4962  0.6481 -2.4181
 5198TIP3    H215536   4.449   7.532   4.830  1.2942  0.2453  1.6963
 5199TIP3   OH215537   7.781   6.046   1.724  1.0401 -0.4493 -0.4510
 5199TIP3    H115538   7.718   5.981   1.695 -1.0792 -0.6840  3.9137
 5199TIP3    H215539   7.732   6.128   1.725  0.9046 -0.4886  2.2729
 5200TIP3   OH215540   5.784   3.047   6.220  0.2310  0.2367  0.3576
 5200TIP3    H115541   5.709   3.106   6.231  0.2575  0.2615  0.4087
 5200TIP3    H215542   5.834   3.057   6.301  0.6532  0.7420  0.0464
 5201TIP3   OH215543   3.449   4.611   4.119 -0.0231 -0.6071 -0.0929
 5201TIP3    H115544   3.493   4.572   4.043  0.3581  1.3871 -0.9363
 5201TIP3    H215545   3.365   4.563   4.124  0.4672 -1.6212 -0.9861
 5202TIP3   OH215546  -0.000   4.083   3.166 -0.4858 -0.2523  0.0797
 5202TIP3    H115547   0.044   4.021   3.108 -1.3253 -0.3801 -0.4377
 5202TIP3    H215548   0.071   4.132   3.207  0.1550 -0.8890 -0.2442
 5203TIP3   OH215549   6.803   3.256   3.536  0.4004 -0.9684 -0.1198
 5203TIP3    H115550   6.860   3.207   3.476  1.3049 -0.6090  0.4189
 5203TIP3    H215551   6.719   3.262   3.491  1.2918  0.0353 -1.7349
 5204TIP3   OH215552   7.867   1.334   0.909 -0.1022 -0.2792 -0.3056
 5204TIP3    H115553   7.803   1.278   0.954 -0.2406  0.5262  0.5333
 5204TIP3    H215554   7.816   1.378   0.841 -0.3640  0.0660  0.1076
 5205TIP3   OH215555   5.370   3.545   2.162 -0.2101  0.3446 -0.0431
 5205TIP3    H115556   5.340   3.479   2.099  1.4895 -1.5674  1.0214
 5205TIP3    H215557   5.417   3.609   2.108 -1.1608  0.2509 -1.0206
 5206TIP3   OH215558   0.262   1.640   6.409 -0.0067 -0.7012  0.2597
 5206TIP3    H115559   0.300   1.678   6.329 -0.5296 -0.2473  0.2202
 5206TIP3    H215560   0.309   1.684   6.480 -1.1169  0.6028  0.2272
 5207TIP3   OH215561   2.191   7.541   0.840  0.2565  0.0854  0.0635
 5207TIP3    H115562   2.261   7.565   0.779  1.1611 -0.4495  0.8734
 5207TIP3    H215563   2.181   7.619   0.896 -0.7819  0.6918 -0.9225
 5208TIP3   OH215564   5.089   6.110   3.324  0.2545  0.1759 -0.1162
 5208TIP3    H115565   5.107   6.110   3.418 -1.1842 -0.5068  0.1868
 5208TIP3    H215566   5.048   6.025   3.307 -0.5814  0.7540 -1.1359
 5209TIP3   OH215567   7.583   5.459   3.929  0.2171 -0.4495  0.2084
 5209TIP3    H115568   7.510   5.431   3.873 -0.3161 -1.0635  1.1852
 5209TIP3    H215569   7.653   5.398   3.907  0.1066 -0.5080  0.0076
 5210TIP3   OH215570   0.168   0.126   6.468 -0.2596  0.1578  1.0639
 5210TIP3    H115571   0.220   0.202   6.494  0.7975 -0.1348 -0.0470
 5210TIP3    H215572   0.187   0.059   6.534  1.5490 -0.2374  0.2282
 5211TIP3   OH215573   3.219   1.274   1.944 -0.4198  0.0304  0.0734
 5211TIP3    H115574   3.161   1.261   1.868  0.7376 -2.6036 -0.4501
 5211TIP3    H215575   3.171   1.336   1.999 -1.9969  0.8717 -2.0703
 5212TIP3   OH215576   0.886   0.386   4.962 -0.6980  0.0781 -0.1358
 5212TIP3    H115577   0.834   0.360   5.037 -0.6321 -0.6653 -0.3350
 5212TIP3    H215578   0.966   0.334   4.969 -1.5812 -1.6336 -1.8551
 5213TIP3   OH215579   7.742   2.866   1.044 -0.4305 -0.6156  0.2212
 5213TIP3    H115580   7.835   2.870   1.065 -0.2868 -2.3508  0.0054
 5213TIP3    H215581   7.706   2.800   1.103 -1.2777 -0.8983 -0.5821
 5214TIP3   OH215582   2.776   3.016   4.087 -0.4065 -0.1986 -0.5505
 5214TIP3    H115583   2.766   2.981   4.176 -0.8199  1.4500  0.0751
 5214TIP3    H215584   2.723   2.957   4.033  0.6891 -1.8612  0.0849
 5215TIP3   OH215585   0.709   6.633   2.383  0.1253  1.0293  0.2921
 5215TIP3    H115586   0.770   6.602   2.450  0.7801  1.3468 -0.1487
 5215TIP3    H215587   0.735   6.587   2.304  1.0488  2.5767 -0.3495
 5216TIP3   OH215588   3.880   7.410   5.072 -0.2105 -0.3998 -0.2433
 5216TIP3    H115589   3.834   7.483   5.114 -0.4671 -0.3064 -0.6832
 5216TIP3    H215590   3.958   7.450   5.034 -1.3060  0.0537 -2.1877
 5217TIP3   OH215591   7.740   1.591   1.075 -0.4733  0.0819  0.1898
 5217TIP3    H115592   7.760   1.557   1.162  0.0886  0.9793  0.4322
 5217TIP3    H215593   7.826   1.606   1.036 -0.6981  1.0629  0.0445
 5218TIP3   OH215594   6.701   1.240   3.075 -0.0650 -0.5434 -0.3784
 5218TIP3    H115595   6.795   1.228   3.087  0.1553 -0.2478 -1.6403
 5218TIP3    H215596   6.693   1.322   3.026 -0.9822 -0.4890 -0.1511
 5219TIP3   OH215597   1.166   2.672   2.394 -0.5418  0.2644  0.0468
 5219TIP3    H115598   1.112   2.750   2.408 -0.1399  0.4257  0.7186
 5219TIP3    H215599   1.247   2.690   2.440  0.4778  0.4150 -1.6963
 5220TIP3   OH215600   0.240   0.784   4.084  0.3898  0.4217 -0.3591
 5220TIP3    H115601   0.306   0.839   4.041  0.3909  0.2532 -0.5775
 5220TIP3    H215602   0.266   0.695   4.062  2.1535  0.1227  2.4791
 5221TIP3   OH215603   4.796   1.382   1.982  0.0875 -0.9201  0.1260
 5221TIP3    H115604   4.723   1.397   1.922  0.0360  2.8208  0.9162
 5221TIP3    H215605   4.874   1.408   1.932  0.2223  0.5737  1.0752
 5222TIP3   OH215606   7.729   7.458   6.661  0.2507 -0.2490 -0.4205
 5222TIP3    H115607   7.735   7.532   6.601 -0.5189  0.6551  0.5632
 5222TIP3    H215608   7.817   7.449   6.698  0.4587 -0.1072 -0.8805
 5223TIP3   OH215609   7.927   0.618   0.408  0.1739 -0.3686  0.5387
 5223TIP3    H115610   7.984   0.679   0.454 -0.6947  1.2504 -0.4302
 5223TIP3    H215611   7.954   0.624   0.317 -0.3850 -0.8991  0.3343
 5224TIP3   OH215612   2.638   4.988   5.162 -0.4587 -0.0208  0.0840
 5224TIP3    H115613   2.591   4.907   5.142 -0.6638  0.5399 -1.9495
 5224TIP3    H215614   2.730   4.964   5.162 -0.5893 -0.5946  1.3813
 5225TIP3   OH215615   1.252   1.680   6.413  0.8721 -0.2082  0.7216
 5225TIP3    H115616   1.185   1.635   6.360  0.3434  0.7502  0.5351
 5225TIP3    H215617   1.323   1.698   6.351  0.2067  1.0096  0.2726
 5226TIP3   OH215618   4.841   5.599   0.876 -0.3211 -0.8420  0.0194
 5226TIP3    H115619   4.778   5.670   0.880  2.7633  2.3054 -1.9185
 5226TIP3    H215620   4.884   5.600   0.962 -0.1719 -0.2262 -0.0606
 5227TIP3   OH215621   1.495   6.199   4.371 -0.6747  0.1292 -0.0065
 5227TIP3    H115622   1.408   6.173   4.402  0.0142 -0.8862  1.1923
 5227TIP3    H215623   1.495   6.178   4.277 -1.0368 -1.8951  0.4024
 5228TIP3   OH215624   2.713   0.770   4.904 -0.2363 -0.0568 -0.3157
 5228TIP3    H115625   2.761   0.707   4.957  1.0011  1.4084  0.3953
 5228TIP3    H215626   2.624   0.769   4.941 -0.0245 -0.7903  0.1916
 5229TIP3   OH215627  -0.013   4.680   6.793  0.0930  0.1931  0.7102
 5229TIP3    H115628  -0.018   4.776   6.787 -0.4278  0.0820 -1.0226
 5229TIP3    H215629   0.076   4.660   6.764  0.2066  0.1321  1.0881
 5230TIP3   OH215630   2.709   4.175   6.864  0.7729 -0.1026  0.3737
 5230TIP3    H115631   2.798   4.209   6.867  1.2863 -1.1595 -1.3243
 5230TIP3    H215632   2.707   4.121   6.785 -0.7855 -1.7452  1.4712
 5231TIP3   OH215633   4.540   2.185   1.429 -0.3024  0.1322  0.0672
 5231TIP3    H115634   4.488   2.265   1.419 -0.9663  0.5143  4.5319
 5231TIP3    H215635   4.629   2.211   1.407 -0.6430  1.8988  0.6064
 5232TIP3   OH215636   1.130   1.406   2.711  0.6583 -0.1904 -0.2975
 5232TIP3    H115637   1.098   1.324   2.675 -0.1791 -0.3849  0.8440
 5232TIP3    H215638   1.063   1.433   2.774  0.1725  2.1347 -1.6751
 5233TIP3   OH215639   0.080   1.268   1.384 -0.3080  0.1463 -1.0958
 5233TIP3    H115640   0.022   1.299   1.454  1.4585  0.4298  0.3082
 5233TIP3    H215641   0.049   1.312   1.305 -1.8491  0.4400 -0.3563
 5234TIP3   OH215642   1.955   7.375   5.074  0.0016  0.1868 -0.2655
 5234TIP3    H115643   1.908   7.292   5.071  0.3709 -0.1049  1.0955
 5234TIP3    H215644   1.891   7.438   5.107 -0.6476  0.7681 -2.4440
 5235TIP3   OH215645   3.000   0.637   4.898 -0.1962 -0.8197 -0.6492
 5235TIP3    H115646   2.943   0.580   4.949  0.3872 -0.4735  0.4194
 5235TIP3    H215647   3.087   0.626   4.936  0.3117 -0.7362 -1.7369
 5236TIP3   OH215648   0.530   7.391   2.805  0.1095 -0.4219  0.2563
 5236TIP3    H115649   0.548   7.410   2.713 -2.8671 -1.3190 -0.6338
 5236TIP3    H215650   0.597   7.327   2.830  0.8786 -0.2790 -1.3338
 5237TIP3   OH215651   1.890   6.684   4.642  0.1783  0.0525 -0.4966
 5237TIP3    H115652   1.864   6.766   4.686  0.5864  1.3828 -2.5871
 5237TIP3    H215653   1.829   6.619   4.677  0.1612  1.0971  1.6260
 5238TIP3   OH215654   6.289   6.993   3.440 -0.3162  0.2134  0.1778
 5238TIP3    H115655   6.338   7.046   3.376  0.4932 -1.3504 -0.5542
 5238TIP3    H215656   6.348   6.988   3.516  0.4510 -1.1895 -0.4836
 5239TIP3   OH215657   5.021   3.817   3.728  0.7219 -0.3720 -0.8426
 5239TIP3    H115658   4.999   3.755   3.797 -0.7582  0.6536 -0.3530
 5239TIP3    H215659   4.976   3.784   3.650 -0.5341  0.3384 -0.4498
 5240TIP3   OH215660   7.704   1.698   6.338 -0.2199 -0.4563  0.5094
 5240TIP3    H115661   7.719   1.716   6.431 -0.3190  3.5670 -0.0802
 5240TIP3    H215662   7.609   1.707   6.327 -0.0683  0.5537 -0.1530
 5241TIP3   OH215663   4.574   0.877   1.267 -0.2423  0.3752  0.0647
 5241TIP3    H115664   4.595   0.947   1.329  0.6492  1.2297 -1.1612
 5241TIP3    H215665   4.554   0.801   1.323  0.8927  1.0085  1.4064
 5242TIP3   OH215666   4.092   6.012   5.725  0.2487 -0.5258  0.3836
 5242TIP3    H115667   4.085   6.006   5.629  0.4046 -0.6807  0.3806
 5242TIP3    H215668   4.186   6.019   5.742  0.1295  2.2208  0.3878
 5243TIP3   OH215669   3.267   7.710   4.121 -0.3866  0.1267  0.0678
 5243TIP3    H115670   3.222   7.626   4.125 -0.8754  0.2513 -1.9999
 5243TIP3    H215671   3.297   7.725   4.211 -1.9919 -1.3062  0.8995
 5244TIP3   OH215672   8.102   2.073   5.070  0.1591  0.6710 -0.2941
 5244TIP3    H115673   8.161   2.112   5.134 -0.3375  1.5934 -0.3822
 5244TIP3    H215674   8.076   1.990   5.109  3.5804 -1.1112 -1.4200
 5245TIP3   OH215675   2.469   5.750   0.244 -0.4535 -0.3954 -0.3176
 5245TIP3    H115676   2.414   5.695   0.188 -1.5587 -0.1333  0.4573
 5245TIP3    H215677   2.409   5.780   0.313  0.2215  1.3881 -0.4534
 5246TIP3   OH215678   7.625   2.479   1.853 -0.0980  0.3079 -0.0980
 5246TIP3    H115679   7.562   2.518   1.914 -0.0871 -1.0360  0.8415
 5246TIP3    H215680   7.571   2.432   1.790 -0.0714 -0.0875  0.1681
 5247TIP3   OH215681   4.752   5.574   3.938 -0.3068  0.5956 -0.0143
 5247TIP3    H115682   4.823   5.514   3.917 -2.1392 -0.6236 -3.7661
 5247TIP3    H215683   4.796   5.654   3.968  2.6065 -0.3255 -1.4540
 5248TIP3   OH215684   5.890   1.449   6.598 -0.5942  0.5696  0.2566
 5248TIP3    H115685   5.816   1.400   6.561 -0.4175 -1.7312  2.6936
 5248TIP3    H215686   5.877   1.444   6.692  2.5706  0.2770  0.7652
 5249TIP3   OH215687   0.529   6.350   0.422 -0.8265  0.1003  0.2087
 5249TIP3    H115688   0.491   6.339   0.509 -2.1899 -0.5311 -0.4254
 5249TIP3    H215689   0.535   6.260   0.388 -1.1336  0.4037 -0.6656
 5250TIP3   OH215690   7.352   5.946   1.376  0.2979 -0.0514  0.5064
 5250TIP3    H115691   7.294   6.021   1.388  1.3441  0.9525 -0.4634
 5250TIP3    H215692   7.331   5.913   1.289 -1.5078 -2.1601  1.6228
 5251TIP3   OH215693   8.028   1.626   4.440 -0.0895 -0.0305 -0.4871
 5251TIP3    H115694   8.122   1.644   4.448 -0.1535  1.2777 -2.1964
 5251TIP3    H215695   7.985   1.705   4.473 -0.5315  0.0695 -1.2657
 5252TIP3   OH215696   1.382   2.420   3.851 -0.3963  0.1163  0.1315
 5252TIP3    H115697   1.388   2.460   3.938  2.1520  0.9492 -0.3562
 5252TIP3    H215698   1.367   2.493   3.791  0.6591 -0.0848 -0.3951
 5253TIP3   OH215699   1.027   6.943   4.421  0.0904  0.0791  0.3978
 5253TIP3    H115700   1.063   6.924   4.508  0.1969 -1.0445  0.1294
 5253TIP3    H215701   1.105   6.947   4.365 -0.0165  0.3337  0.2664
 5254TIP3   OH215702   1.810   6.925   0.882 -0.6008 -0.1142  1.1241
 5254TIP3    H115703   1.738   6.868   0.910 -0.1205 -0.1275  2.3746
 5254TIP3    H215704   1.887   6.869   0.884 -0.5676 -0.1585 -0.4326
 5255TIP3   OH215705   1.637   1.824   1.637  0.7560  0.2738 -0.1015
 5255TIP3    H115706   1.634   1.892   1.570  0.7983  0.9762  0.5943
 5255TIP3    H215707   1.654   1.743   1.588 -1.1377  0.4541 -1.1590
 5256TIP3   OH215708   5.654   0.372   2.278  0.3663 -0.5353  0.4833
 5256TIP3    H115709   5.717   0.416   2.221 -0.4548 -0.9225 -0.7834
 5256TIP3    H215710   5.708   0.326   2.342  1.3060  0.4806  0.4561
 5257TIP3   OH215711   8.391   1.856   1.678 -0.1165  0.2336  0.1251
 5257TIP3    H115712   8.389   1.800   1.755 -3.1284 -1.1629 -0.7894
 5257TIP3    H215713   8.365   1.943   1.710 -1.3060 -0.3262  0.7481
 5258TIP3   OH215714   8.005   7.733   4.630 -0.4365 -0.3850  0.2269
 5258TIP3    H115715   7.923   7.721   4.582  0.2666  0.0710 -1.1467
 5258TIP3    H215716   8.002   7.823   4.662  0.6271  0.5941 -2.1486
 5259TIP3   OH215717   7.884   0.975   0.142 -0.3901 -0.1746  0.2742
 5259TIP3    H115718   7.803   0.939   0.179 -1.1797  1.5786  0.3864
 5259TIP3    H215719   7.873   0.964   0.047  0.1323 -1.6484  0.3547
 5260TIP3   OH215720   7.805   4.590   4.164  0.6704  0.6877  0.3421
 5260TIP3    H115721   7.740   4.612   4.098  1.2361  0.3880 -0.3277
 5260TIP3    H215722   7.757   4.590   4.247 -0.3802 -0.4242 -0.2442
 5261TIP3   OH215723   5.307   2.405   2.810 -0.6072 -0.1042  0.1962
 5261TIP3    H115724   5.333   2.348   2.738 -0.3681 -0.5461  0.6300
 5261TIP3    H215725   5.261   2.477   2.768  0.1926  0.0318 -0.4696
 5262TIP3   OH215726   5.942   7.686   0.232 -0.2963 -0.0083  0.8458
 5262TIP3    H115727   5.952   7.748   0.304 -0.7149 -2.5774  3.2891
 5262TIP3    H215728   6.019   7.699   0.177  0.0471  2.0152  1.7438
 5263TIP3   OH215729   3.271   6.530   5.385  0.5377  0.2989 -0.5714
 5263TIP3    H115730   3.250   6.518   5.478  1.0124 -1.8162 -0.6799
 5263TIP3    H215731   3.366   6.518   5.381  0.2558 -2.4392 -1.6139
 5264TIP3   OH215732   0.193   5.770   4.065  0.3051  0.5229  0.1433
 5264TIP3    H115733   0.253   5.838   4.097 -0.8187  0.7327  1.9596
 5264TIP3    H215734   0.126   5.763   4.134  0.2653 -2.2920 -0.0774
 5265TIP3   OH215735   5.249   1.478   3.726  0.3517 -0.4744  0.2112
 5265TIP3    H115736   5.305   1.554   3.746 -0.9036  0.5385 -0.0326
 5265TIP3    H215737   5.286   1.407   3.778  0.6671  0.6735  1.6040
 5266TIP3   OH215738   0.270   2.203   2.365  0.1289 -0.2371 -0.2497
 5266TIP3    H115739   0.349   2.154   2.341 -0.1477 -0.4996 -0.6412
 5266TIP3    H215740   0.297   2.294   2.364  0.0949 -0.2119 -1.7796
 5267TIP3   OH215741   0.026   3.759   0.737  0.6893 -0.1328 -0.3691
 5267TIP3    H115742  -0.005   3.775   0.648  1.8689 -0.4611 -0.8516
 5267TIP3    H215743  -0.012   3.831   0.788  1.4845  1.1253 -1.4781
 5268TIP3   OH215744   0.087   0.411   3.418  0.0575 -0.6039  0.3994
 5268TIP3    H115745   0.052   0.476   3.357  0.8696  1.0286  1.5968
 5268TIP3    H215746   0.010   0.377   3.464 -0.3721 -0.4277 -0.1844
 5269TIP3   OH215747   4.228   4.356   4.962  0.5560 -0.7198  0.1176
 5269TIP3    H115748   4.153   4.339   5.018  1.1572 -0.1692  1.1322
 5269TIP3    H215749   4.238   4.278   4.908  0.9958 -2.0156  1.9966
 5270TIP3   OH215750   0.137   3.088   6.647  0.1100 -0.1679  0.5210
 5270TIP3    H115751   0.126   3.003   6.604 -0.4195 -0.0284  0.3781
 5270TIP3    H215752   0.208   3.130   6.598  0.7523 -0.7388  0.9348
 5271TIP3   OH215753   7.520   0.028   2.024 -0.2310  0.3266  0.4668
 5271TIP3    H115754   7.501  -0.039   2.090 -0.1910  1.1215  1.3091
 5271TIP3    H215755   7.524   0.110   2.074 -0.0382  0.9241 -0.5065
 5272TIP3   OH215756   1.559   0.203   5.198 -0.5457 -0.2387  0.0697
 5272TIP3    H115757   1.614   0.163   5.131  1.1547  1.5488  0.3065
 5272TIP3    H215758   1.577   0.153   5.277  1.2439  0.6353  0.2732
 5273TIP3   OH215759   8.190   7.824   0.748  0.1975  0.6617 -0.2584
 5273TIP3    H115760   8.193   7.919   0.737 -2.0163  0.6302 -1.6551
 5273TIP3    H215761   8.166   7.790   0.662 -1.3235 -0.9801  0.7303
 5274TIP3   OH215762   3.510   5.610   2.544  0.5817 -0.0261 -1.1433
 5274TIP3    H115763   3.422   5.574   2.550  1.4032 -1.9887  0.3354
 5274TIP3    H215764   3.543   5.581   2.459  0.2067 -0.2776 -1.2021
 5275TIP3   OH215765   2.459   2.610   5.256  0.4503  0.1994  0.0685
 5275TIP3    H115766   2.368   2.634   5.240  0.1859  0.9997  2.4284
 5275TIP3    H215767   2.470   2.527   5.210 -1.3975  0.1949 -0.4446
 5276TIP3   OH215768   7.573   2.791   3.932  0.2588 -0.7925  0.0439
 5276TIP3    H115769   7.529   2.706   3.940 -0.3676 -0.3678  1.4430
 5276TIP3    H215770   7.527   2.836   3.861  1.2695 -1.9846 -1.4299
 5277TIP3   OH215771   7.021   7.595   4.465 -0.1252 -0.0296  0.0834
 5277TIP3    H115772   7.023   7.501   4.449 -2.7346 -0.1160 -0.1790
 5277TIP3    H215773   7.057   7.634   4.386  2.1628 -0.7467  0.6725
 5278TIP3   OH215774   0.316   4.349   0.777 -0.6206 -0.1202 -0.2997
 5278TIP3    H115775   0.321   4.395   0.693 -1.8305 -0.1541 -0.4121
 5278TIP3    H215776   0.244   4.287   0.766 -0.0053 -0.9805  0.3686
 5279TIP3   OH215777   2.567   3.462   2.678 -0.1032  0.6006 -0.2842
 5279TIP3    H115778   2.539   3.467   2.587 -2.0567  2.5698  0.3274
 5279TIP3    H215779   2.662   3.453   2.674 -0.1244  0.8501 -2.5061
 5280TIP3   OH215780   1.279   2.109   5.998  0.4052 -0.6318  0.3518
 5280TIP3    H115781   1.307   2.188   5.951  1.9666 -0.6543  1.1715
 5280TIP3    H215782   1.360   2.061   6.014 -0.2400 -1.2877  1.8537
 5281TIP3   OH215783   6.027   6.242   6.351  0.9235 -0.1418  0.0793
 5281TIP3    H115784   6.100   6.259   6.410 -0.9535  2.0443  1.9761
 5281TIP3    H215785   6.069   6.219   6.267  3.6848 -2.5054  1.9207
 5282TIP3   OH215786   3.368   2.855   2.346  0.1487 -0.5473  0.2100
 5282TIP3    H115787   3.451   2.815   2.320 -0.2540 -1.2163 -0.0628
 5282TIP3    H215788   3.301   2.803   2.302 -0.3698  0.9221 -0.8151
 5283TIP3   OH215789   5.427   7.195   5.815 -0.7746  0.2944  0.4556
 5283TIP3    H115790   5.443   7.222   5.906 -1.1343  1.2830  0.2378
 5283TIP3    H215791   5.340   7.230   5.795 -0.3758  0.7535 -0.5120
 5284TIP3   OH215792   1.608   7.755   4.074  0.1174  0.2255  0.2846
 5284TIP3    H115793   1.676   7.760   4.007 -0.4749  0.2714 -0.3321
 5284TIP3    H215794   1.568   7.842   4.074 -0.6815 -0.1265 -0.1765
 5285TIP3   OH215795   3.244   6.091   5.447 -0.5053  0.4984  0.4824
 5285TIP3    H115796   3.236   6.013   5.392 -0.5504 -0.1564  1.4018
 5285TIP3    H215797   3.172   6.085   5.509 -0.0736  0.8859  1.0350
 5286TIP3   OH215798   6.050   4.342   3.900  0.4149  0.5678  0.3015
 5286TIP3    H115799   6.100   4.348   3.981  0.4291 -0.0316  0.3430
 5286TIP3    H215800   5.971   4.393   3.917 -0.4508 -1.0358  1.3711
 5287TIP3   OH215801   2.936   2.480   4.430  0.1958 -0.2811 -0.5066
 5287TIP3    H115802   2.924   2.514   4.519  3.1039  0.4440 -0.2780
 5287TIP3    H215803   2.879   2.534   4.375 -0.7043  0.0893  0.7517
 5288TIP3   OH215804   0.505   2.419   4.740  0.2373  0.2301 -0.7742
 5288TIP3    H115805   0.534   2.458   4.822 -1.0102 -0.6506  0.1195
 5288TIP3    H215806   0.500   2.493   4.680 -0.7327  1.2488  0.5031
 5289TIP3   OH215807   1.523   1.984   6.012  0.6595 -0.3083 -0.2794
 5289TIP3    H115808   1.495   1.922   5.944 -0.4498 -0.7226  0.5128
 5289TIP3    H215809   1.594   1.939   6.057 -1.4153 -1.9545  1.5588
 5290TIP3   OH215810   0.548   1.758   5.844 -0.0682  0.3314  0.1892
 5290TIP3    H115811   0.591   1.677   5.816  0.6791  1.0700 -0.8195
 5290TIP3    H215812   0.459   1.751   5.808 -0.5189 -0.7174  1.4064
 5291TIP3   OH215813   0.443   1.592   5.381 -0.4158 -0.4487 -0.2406
 5291TIP3    H115814   0.482   1.618   5.298  0.1578  0.7946  0.4025
 5291TIP3    H215815   0.516   1.562   5.434 -0.7792 -1.2268 -0.1635
 5292TIP3   OH215816   6.535   6.011   2.471 -0.0830 -0.6886  0.0020
 5292TIP3    H115817   6.440   6.003   2.469 -0.1142 -0.3712 -2.4010
 5292TIP3    H215818   6.554   6.055   2.554 -2.0480 -0.4543  0.3573
 5293TIP3   OH215819   6.529   1.704   2.771 -0.2057 -0.4558 -0.7623
 5293TIP3    H115820   6.558   1.628   2.820  0.8757  1.3959  1.6587
 5293TIP3    H215821   6.604   1.726   2.714 -0.1553 -0.6277 -0.7622
 5294TIP3   OH215822   7.491   1.711   0.302  0.1026 -0.1621 -0.2424
 5294TIP3    H115823   7.458   1.797   0.277  0.7116  0.7715  1.9382
 5294TIP3    H215824   7.455   1.695   0.389  2.7333 -0.5183  0.8832
 5295TIP3   OH215825   2.969   5.125   4.686 -0.0252 -0.4075  0.0215
 5295TIP3    H115826   2.914   5.152   4.613  2.1730  0.4074 -1.4402
 5295TIP3    H215827   2.968   5.201   4.745 -0.8627 -0.6119  0.2878
 5296TIP3   OH215828   5.763   6.882   3.800  0.0599 -0.3600 -0.0284
 5296TIP3    H115829   5.839   6.824   3.807  0.7114  0.0096 -2.8772
 5296TIP3    H215830   5.739   6.900   3.890  2.4690 -1.6433  0.9744
 5297TIP3   OH215831   5.630   0.028   1.229  0.1430  0.0483 -0.0488
 5297TIP3    H115832   5.635   0.116   1.266  0.1117 -0.0794  0.2631
 5297TIP3    H215833   5.578  -0.021   1.292  1.1747 -0.5035  0.3903
 5298TIP3   OH215834   4.422   6.731   0.318  0.0719  0.0896  0.7493
 5298TIP3    H115835   4.343   6.725   0.265  0.3136  0.5922  0.3267
 5298TIP3    H215836   4.437   6.642   0.350 -0.6191 -0.0222  0.7733
 5299TIP3   OH215837   0.138   4.787   0.017  0.5666 -0.3720 -0.5495
 5299TIP3    H115838   0.177   4.720   0.072 -0.1721 -2.5518 -2.4945
 5299TIP3    H215839   0.045   4.786   0.040  0.6903  0.7807  0.1158
 5300TIP3   OH215840   2.830   4.337   6.065 -0.4470 -0.0418  0.4954
 5300TIP3    H115841   2.747   4.289   6.066  0.0434 -0.9562 -0.1834
 5300TIP3    H215842   2.811   4.417   6.015 -0.9096 -0.2693  0.3015
 5301TIP3   OH215843   5.873   5.868   3.994  0.5676  0.3238 -0.6425
 5301TIP3    H115844   5.893   5.893   3.904  0.6088  4.4978  0.3261
 5301TIP3    H215845   5.797   5.920   4.017  1.2432  0.2614  2.0948
 5302TIP3   OH215846   5.272   2.273   5.652 -0.3843 -0.3619  0.5076
 5302TIP3    H115847   5.307   2.228   5.729  1.4084 -1.6951 -0.9874
 5302TIP3    H215848   5.217   2.207   5.609 -1.7717  0.5234  0.8543
 5303TIP3   OH215849   7.389   3.583   0.105 -0.3179  0.2694 -0.3082
 5303TIP3    H115850   7.378   3.577   0.200  0.4665 -1.4164 -0.2923
 5303TIP3    H215851   7.359   3.672   0.083 -3.5157 -0.3267  1.0768
 5304TIP3   OH215852   3.979   7.823   3.247 -0.0791 -0.1761 -0.3650
 5304TIP3    H115853   4.029   7.863   3.176 -0.4277  1.1471  0.0953
 5304TIP3    H215854   3.897   7.796   3.205 -1.1152  2.3573 -0.1776
 5305TIP3   OH215855   7.691   3.445   3.625  0.5290 -0.4442 -0.5305
 5305TIP3    H115856   7.753   3.471   3.557  1.0674 -0.6407 -0.1192
 5305TIP3    H215857   7.696   3.350   3.626  2.2527 -0.3875  1.3524
 5306TIP3   OH215858   7.853   2.441   1.695  0.2170 -0.1240  0.5742
 5306TIP3    H115859   7.902   2.521   1.714  0.4195 -0.2182  0.4459
 5306TIP3    H215860   7.777   2.445   1.754  0.5338 -0.1321  0.9839
 5307TIP3   OH215861   3.352   4.564   0.407  0.2987 -0.8349  0.0777
 5307TIP3    H115862   3.316   4.599   0.488  1.2357 -1.2713  0.7042
 5307TIP3    H215863   3.442   4.541   0.429  0.3629 -1.5979 -0.9087
 5308TIP3   OH215864   8.217   3.739   0.049 -0.7140 -0.6172 -0.5866
 5308TIP3    H115865   8.156   3.672   0.016 -0.3964 -0.7730 -0.8667
 5308TIP3    H215866   8.185   3.759   0.137 -0.6609 -1.3390 -0.3931
 5309TIP3   OH215867   5.942   1.117   3.633  0.1351 -0.2525  0.2847
 5309TIP3    H115868   5.976   1.088   3.548  0.3928  0.1024  0.2654
 5309TIP3    H215869   6.017   1.109   3.692  0.0641 -0.1179  0.3917
 5310TIP3   OH215870   1.134   7.730   3.571 -0.2769  0.1987 -0.7744
 5310TIP3    H115871   1.125   7.785   3.493 -0.6478 -0.3762 -1.1420
 5310TIP3    H215872   1.048   7.691   3.583 -0.5488  1.1311  0.5829
 5311TIP3   OH215873   0.545   1.377   1.053  0.4501  0.1540 -0.3124
 5311TIP3    H115874   0.518   1.307   1.112  0.4234 -0.5388 -1.1311
 5311TIP3    H215875   0.619   1.419   1.098 -1.5796  1.7953  1.7505
 5312TIP3   OH215876   0.344   0.868   6.250  0.2801 -0.2429 -0.4497
 5312TIP3    H115877   0.314   0.851   6.160  1.9647  0.5948 -1.2080
 5312TIP3    H215878   0.320   0.789   6.298 -1.1684 -0.4757 -1.4833
 5313TIP3   OH215879   4.433   7.402   1.673  0.4086  0.7335 -0.5416
 5313TIP3    H115880   4.405   7.401   1.764  0.1551  0.6522 -0.6202
 5313TIP3    H215881   4.513   7.455   1.673  1.9322 -1.4168  0.1791
 5314TIP3   OH215882   0.734   3.903   4.384  0.4250 -0.0768 -0.9425
 5314TIP3    H115883   0.658   3.847   4.400  0.9106 -0.3534  0.6021
 5314TIP3    H215884   0.709   3.958   4.310 -1.7987  0.7705  0.3565
 5315TIP3   OH215885   5.761   3.539   6.708 -0.6543  0.3980  0.1499
 5315TIP3    H115886   5.836   3.488   6.675  0.2155  0.7089  1.5651
 5315TIP3    H215887   5.684   3.489   6.680  0.1540 -1.6946  1.3778
 5316TIP3   OH215888   5.377   3.508   2.421 -0.2508 -0.1549 -0.3951
 5316TIP3    H115889   5.388   3.531   2.329  0.1134 -2.2620 -0.9315
 5316TIP3    H215890   5.300   3.451   2.423 -1.8427  1.8537  1.0393
 5317TIP3   OH215891   5.142   4.454   6.515 -0.4331 -0.7011  0.0994
 5317TIP3    H115892   5.200   4.519   6.475 -1.0477 -0.1407  0.0877
 5317TIP3    H215893   5.199   4.399   6.567  0.0941 -0.0733  0.1972
 5318TIP3   OH215894   4.100   2.450   0.525 -0.0753  0.0357  0.2609
 5318TIP3    H115895   4.178   2.421   0.479  0.7035  1.7159  0.4523
 5318TIP3    H215896   4.052   2.370   0.545  1.1872 -0.9559 -0.5859
 5319TIP3   OH215897   2.883   4.864   3.671  0.4217 -0.1581  0.4426
 5319TIP3    H115898   2.863   4.942   3.618  0.3554 -0.1051  0.5448
 5319TIP3    H215899   2.864   4.891   3.760 -0.2284 -0.4966  0.4168
 5320TIP3   OH215900   5.869   2.131   4.061 -0.1611  0.1040 -0.2914
 5320TIP3    H115901   5.794   2.133   4.002 -1.0125  1.1713  0.7620
 5320TIP3    H215902   5.912   2.216   4.048 -0.1011  0.1665  0.2876
 5321TIP3   OH215903   7.399   2.658   5.135  0.0540 -0.0029 -0.4715
 5321TIP3    H115904   7.483   2.615   5.120 -0.2818 -0.4703 -1.0675
 5321TIP3    H215905   7.396   2.674   5.229 -0.6066 -2.9652  0.0834
 5322TIP3   OH215906   5.540   5.038   4.531  0.4150  0.5777  0.4427
 5322TIP3    H115907   5.565   5.104   4.596  1.0485 -0.2431  1.0565
 5322TIP3    H215908   5.615   4.979   4.527  0.1882  0.3519 -0.7083
 5323TIP3   OH215909   3.572   2.982   5.264  0.0476 -0.3264  0.0412
 5323TIP3    H115910   3.543   3.035   5.338  1.3875  0.3519  0.1111
 5323TIP3    H215911   3.603   3.045   5.199 -0.4038 -0.9478 -0.7891
 5324TIP3   OH215912   1.518   0.871   2.493  0.3195  0.5152 -0.4206
 5324TIP3    H115913   1.431   0.863   2.453  1.1697  1.0923 -2.4901
 5324TIP3    H215914   1.516   0.808   2.566 -1.1687 -0.8938 -1.5885
 5325TIP3   OH215915   5.148   4.201   1.921 -0.5400  0.4848  0.3778
 5325TIP3    H115916   5.179   4.181   2.010  3.3445 -0.2075 -0.9330
 5325TIP3    H215917   5.197   4.279   1.895 -1.6969  0.7578 -1.1300
 5326TIP3   OH215918   5.291   4.245   6.306 -0.0328  0.1347  0.3228
 5326TIP3    H115919   5.196   4.249   6.290 -0.4147 -0.8545  2.1625
 5326TIP3    H215920   5.318   4.162   6.266  0.3292  0.9973 -1.3120
 5327TIP3   OH215921   6.424   4.598   5.173 -0.1505 -0.1308 -0.0997
 5327TIP3    H115922   6.372   4.679   5.166  0.3904  0.2600  0.3151
 5327TIP3    H215923   6.491   4.618   5.238  2.2588  0.3419 -2.5583
 5328TIP3   OH215924   3.383   2.665   6.825  0.3505  0.2508  0.9371
 5328TIP3    H115925   3.450   2.733   6.838  0.6503  0.0409  0.5169
 5328TIP3    H215926   3.316   2.708   6.772  0.5014  0.2459  0.7402
 5329TIP3   OH215927   4.134   2.747   6.795  0.5866  0.4360 -0.3210
 5329TIP3    H115928   4.098   2.661   6.776  0.7550 -0.5952  3.3781
 5329TIP3    H215929   4.067   2.808   6.763 -1.6864 -1.2472  0.8833
 5330TIP3   OH215930   6.900   4.036   2.274 -0.2218 -0.2101 -0.0876
 5330TIP3    H115931   6.883   4.126   2.300  0.7022  0.1302 -0.6002
 5330TIP3    H215932   6.840   4.019   2.202 -0.3194  0.0314 -0.0618
 5331TIP3   OH215933   1.866   0.565   6.815 -0.3261 -0.1933 -0.1181
 5331TIP3    H115934   1.779   0.587   6.848 -0.9520 -0.2809 -1.6599
 5331TIP3    H215935   1.926   0.621   6.865 -1.0569 -1.4243  2.2752
 5332TIP3   OH215936   2.739   0.816   4.630  0.1222 -0.8540  0.0281
 5332TIP3    H115937   2.734   0.797   4.723 -0.5740 -0.2756  0.1170
 5332TIP3    H215938   2.782   0.739   4.592 -0.2418 -1.4169  0.7287
 5333TIP3   OH215939   0.372   3.441   5.938  0.0647  0.1716 -0.2741
 5333TIP3    H115940   0.413   3.373   5.991  0.0604 -0.2339 -0.7796
 5333TIP3    H215941   0.383   3.522   5.988 -1.9201 -0.5242  1.4345
 5334TIP3   OH215942   1.595   2.265   3.763 -0.4268  0.2327 -0.3220
 5334TIP3    H115943   1.562   2.175   3.762 -1.4351  0.5967 -0.5482
 5334TIP3    H215944   1.528   2.314   3.810  0.9793  0.5546  1.4441
 5335TIP3   OH215945   6.931   3.064   4.071 -0.5139 -0.5658  0.4076
 5335TIP3    H115946   6.890   3.009   4.004 -0.3572  0.7646 -0.8359
 5335TIP3    H215947   6.857   3.096   4.124 -0.5639 -2.2929  1.4443
 5336TIP3   OH215948   6.018   2.250   1.382 -0.3930  0.5300  0.2126
 5336TIP3    H115949   5.959   2.272   1.309  0.5806  1.3526 -0.3522
 5336TIP3    H215950   6.042   2.335   1.420 -0.3311  0.1499  1.0594
 5337TIP3   OH215951   6.148   7.678   2.336  0.3701 -0.1963  0.0388
 5337TIP3    H115952   6.179   7.641   2.418 -0.5895 -0.8985  0.0997
 5337TIP3    H215953   6.080   7.617   2.306 -1.1951  1.4420  0.0888
 5338TIP3   OH215954   7.439   1.501   2.107  0.1395 -0.0883  0.6308
 5338TIP3    H115955   7.394   1.447   2.173  1.1804 -0.8202  0.7747
 5338TIP3    H215956   7.377   1.570   2.085 -1.1655 -1.2423  0.5938
 5339TIP3   OH215957   7.634   3.118   3.872 -0.5447  0.3103 -0.0366
 5339TIP3    H115958   7.564   3.083   3.928 -0.6102 -0.1329 -0.3915
 5339TIP3    H215959   7.701   3.147   3.934 -0.2386 -0.9684  0.2724
 5340TIP3   OH215960   2.533   1.841   2.729 -0.0525 -0.0566 -0.9703
 5340TIP3    H115961   2.561   1.921   2.773  0.7567 -2.0374  2.4820
 5340TIP3    H215962   2.439   1.854   2.712 -0.3659  0.9553  1.2432
 5341TIP3   OH215963   0.504   2.352   2.526  0.0285 -0.0171 -0.1158
 5341TIP3    H115964   0.557   2.275   2.546  0.1950 -0.0133 -0.5296
 5341TIP3    H215965   0.535   2.420   2.586  1.1533  0.2683 -0.9907
 5342TIP3   OH215966   4.895   1.741   3.012  0.1464  0.5437 -0.3048
 5342TIP3    H115967   4.958   1.729   2.942 -0.5552  0.6290 -0.9592
 5342TIP3    H215968   4.902   1.834   3.034  0.0019  0.6273 -0.6126
 5343TIP3   OH215969   1.034   5.038   2.146 -0.0058 -0.0911 -0.2682
 5343TIP3    H115970   1.033   4.945   2.169 -0.6020  0.2022  0.9812
 5343TIP3    H215971   1.070   5.082   2.224  2.5860  0.5542 -1.6947
 5344TIP3   OH215972   0.288   0.269   4.449 -0.0318  0.2984 -0.0928
 5344TIP3    H115973   0.331   0.243   4.367 -0.4142 -0.3140 -0.1038
 5344TIP3    H215974   0.343   0.232   4.517 -0.1981  0.0532 -0.0923
 5345TIP3   OH215975   2.480   5.887   5.542  0.4583  0.2856  0.1769
 5345TIP3    H115976   2.405   5.946   5.543  0.7235  0.6572 -0.7923
 5345TIP3    H215977   2.550   5.937   5.500  0.5712 -0.8371 -1.0414
 5346TIP3   OH215978   3.777   7.413   6.739  0.8524 -0.3872  0.4148
 5346TIP3    H115979   3.837   7.371   6.800  0.1522 -1.0385  0.6669
 5346TIP3    H215980   3.706   7.350   6.727 -0.6493  1.0218  1.4399
 5347TIP3   OH215981   6.758   1.334   5.398 -0.2212  0.1031 -0.3409
 5347TIP3    H115982   6.839   1.329   5.348  0.3991  2.9710  0.2116
 5347TIP3    H215983   6.724   1.422   5.381 -2.6080 -0.5998  0.3832
 5348TIP3   OH215984   0.122   0.233   1.926 -0.6206  0.6453 -0.3075
 5348TIP3    H115985   0.133   0.141   1.948 -0.2263  0.4463 -1.3167
 5348TIP3    H215986   0.047   0.235   1.867 -2.0970  1.2592  1.4760
 5349TIP3   OH215987   3.584   2.836   0.255 -0.0624  0.0309 -0.0177
 5349TIP3    H115988   3.524   2.836   0.329 -0.4718 -1.7081 -0.3042
 5349TIP3    H215989   3.665   2.872   0.290 -0.9228  1.4070  0.6563
 5350TIP3   OH215990   5.006   2.471   3.253  0.1202  0.0284 -0.5924
 5350TIP3    H115991   5.102   2.470   3.248  0.1353 -0.2042 -0.2857
 5350TIP3    H215992   4.978   2.500   3.167  0.4314 -1.3487 -1.1802
 5351TIP3   OH215993   4.963   0.913   3.524 -0.4084  0.1167 -0.1408
 5351TIP3    H115994   4.971   0.944   3.434 -0.9505  0.3450 -0.1128
 5351TIP3    H215995   4.876   0.940   3.551 -0.2348  0.0802  0.4670
 5352TIP3   OH215996   6.867   7.447   2.071  0.1254  0.5400 -0.0170
 5352TIP3    H115997   6.830   7.412   1.990  0.9330  0.6034 -0.4178
 5352TIP3    H215998   6.807   7.417   2.140  0.5611 -1.2659 -0.3862
 5353TIP3   OH215999   7.669   2.276   5.516 -0.0477 -0.2066  0.2887
 5353TIP3    H116000   7.704   2.299   5.430  1.1836 -0.8227  0.6037
 5353TIP3    H216001   7.594   2.334   5.528  2.1062  2.7575  0.4964
 5354TIP3   OH216002   4.763   5.935   6.636 -0.0666 -0.4053  0.9277
 5354TIP3    H116003   4.738   5.889   6.716  0.3834 -0.0995  1.2497
 5354TIP3    H216004   4.818   5.873   6.588 -0.7726 -0.7822  0.6009
 5355TIP3   OH216005   7.257   3.967   5.500  0.0728  0.1536 -0.3068
 5355TIP3    H116006   7.221   3.888   5.539  0.9144 -0.1856 -0.1941
 5355TIP3    H216007   7.288   4.019   5.575  0.8375 -0.0748 -0.4509
 5356TIP3   OH216008   1.100   2.283   4.314 -0.1431  0.2419 -0.0756
 5356TIP3    H116009   1.115   2.356   4.374 -0.9884 -1.0332  1.8001
 5356TIP3    H216010   1.182   2.233   4.315 -0.0896  0.3308 -0.1067
 5357TIP3   OH216011   4.035   6.216   5.380 -0.6939  0.4088  0.7392
 5357TIP3    H116012   4.052   6.125   5.405 -0.2027  0.1204 -0.5601
 5357TIP3    H216013   3.947   6.215   5.342 -0.2028  0.2091 -0.4331
 5358TIP3   OH216014   7.375   0.095   5.834  0.0925 -0.2284 -0.5350
 5358TIP3    H116015   7.312   0.129   5.898  0.2750 -0.3101 -0.3096
 5358TIP3    H216016   7.324   0.033   5.781  0.0921 -0.6495 -0.0514
 5359TIP3   OH216017   1.823   3.869   1.707  0.2335  0.0358 -0.3952
 5359TIP3    H116018   1.853   3.824   1.786 -1.2029  0.5185  0.4647
 5359TIP3    H216019   1.889   3.937   1.692  0.0510  0.5413  0.9536
 5360TIP3   OH216020   3.593   5.797   6.735  0.3723  0.1862  0.5278
 5360TIP3    H116021   3.683   5.766   6.728  1.6081  3.0639  1.9911
 5360TIP3    H216022   3.552   5.737   6.798  1.3054 -0.9629  0.0930
 5361TIP3   OH216023   7.863   7.170   0.154  0.5593 -0.4345 -0.0155
 5361TIP3    H116024   7.927   7.141   0.219  0.9561 -0.3368 -0.3590
 5361TIP3    H216025   7.838   7.090   0.107  0.8473 -0.3898 -0.2486
 5362TIP3   OH216026   7.590   7.773   4.301  0.1233 -0.0965 -0.4441
 5362TIP3    H116027   7.679   7.744   4.322 -0.2766 -0.7663  0.4245
 5362TIP3    H216028   7.535   7.700   4.329 -0.6990  0.2776 -1.0489
 5363TIP3   OH216029   3.361   4.316   1.246  0.1403 -0.3140  0.1784
 5363TIP3    H116030   3.379   4.362   1.328  0.8993  0.6775 -0.5093
 5363TIP3    H216031   3.353   4.224   1.271 -3.3235  0.2964  1.8856
 5364TIP3   OH216032   1.684   0.805   4.332  0.1474  0.3145 -0.4581
 5364TIP3    H116033   1.592   0.822   4.352  0.3084 -0.0293  0.7029
 5364TIP3    H216034   1.707   0.869   4.265 -1.0697  0.0716 -1.1237
 5365TIP3   OH216035   4.953   2.716   4.680 -0.3731  0.2745  0.6522
 5365TIP3    H116036   4.916   2.644   4.629 -0.9253 -0.6340  2.2459
 5365TIP3    H216037   5.047   2.711   4.663 -0.3070 -1.3485  1.3178
 5366TIP3   OH216038   3.421   4.043   4.272  0.6788  0.3617  0.1824
 5366TIP3    H116039   3.430   4.077   4.361  1.9190 -2.8027  1.4040
 5366TIP3    H216040   3.348   3.982   4.276 -0.1009  1.1088 -1.3679
 5367TIP3   OH216041   6.978   0.174   6.311 -0.5131  0.4338 -0.7824
 5367TIP3    H116042   6.887   0.152   6.331  0.2048  0.0227  2.9528
 5367TIP3    H216043   7.004   0.234   6.382  1.6531  2.0289 -2.7571
 5368TIP3   OH216044   0.053   0.824   0.474 -0.4144 -0.3383 -0.4350
 5368TIP3    H116045  -0.042   0.819   0.485 -0.1940 -0.4174  1.9891
 5368TIP3    H216046   0.088   0.807   0.561  1.7353  2.5021 -0.5901
 5369TIP3   OH216047   8.084   4.267   5.583 -0.3145 -0.6328  0.3971
 5369TIP3    H116048   7.998   4.273   5.541  0.1264 -0.8882 -0.5694
 5369TIP3    H216049   8.070   4.209   5.658 -0.9151 -0.9188  0.0698
 5370TIP3   OH216050   4.236   1.089   5.256  0.0236  0.1915  0.2308
 5370TIP3    H116051   4.267   1.104   5.167  1.2057 -2.5626  0.0989
 5370TIP3    H216052   4.164   1.151   5.266  2.5017  3.5672 -1.0902
 5371TIP3   OH216053   6.404   5.917   6.010 -0.6700  0.0245  0.0244
 5371TIP3    H116054   6.450   5.974   6.072 -0.5134 -0.3751  0.2817
 5371TIP3    H216055   6.349   5.977   5.959  1.5796  0.8054 -1.6498
 5372TIP3   OH216056   2.018   5.063   0.309 -0.2837 -0.0979 -0.2409
 5372TIP3    H116057   1.997   4.970   0.320 -0.3893 -0.3351 -2.1199
 5372TIP3    H216058   1.969   5.107   0.379 -2.3007 -1.2187 -0.8835
 5373TIP3   OH216059   2.556   5.007   3.639  0.0519  0.7605  0.2339
 5373TIP3    H116060   2.643   5.046   3.644  0.0631  0.6227  1.8400
 5373TIP3    H216061   2.498   5.079   3.614  0.6013  0.8685 -0.7731
 5374TIP3   OH216062   4.431   7.334   2.809 -0.4835  0.1858 -0.4844
 5374TIP3    H116063   4.470   7.365   2.891 -0.3812 -0.3638 -0.3223
 5374TIP3    H216064   4.396   7.413   2.768 -2.9321  0.1326  1.3287
 5375TIP3   OH216065   0.145   2.943   6.188 -0.5202  0.4851 -0.1031
 5375TIP3    H116066   0.124   2.853   6.164  0.6503  0.1207  0.1427
 5375TIP3    H216067   0.210   2.971   6.122 -2.1632  1.7990 -1.2647
 5376TIP3   OH216068   0.844   5.217   1.750 -0.0870 -0.8129  0.0477
 5376TIP3    H116069   0.876   5.270   1.677 -0.9396 -1.1098 -0.5498
 5376TIP3    H216070   0.826   5.132   1.712 -1.2425 -0.7592  0.4388
 5377TIP3   OH216071   0.327   3.036   5.990  0.0361 -0.1472 -1.1353
 5377TIP3    H116072   0.267   3.038   5.916 -0.6575 -1.3641 -0.6350
 5377TIP3    H216073   0.409   3.071   5.955 -0.6672  0.6121 -2.0924
 5378TIP3   OH216074   5.557   5.146   0.228 -0.4848 -0.7444  0.3329
 5378TIP3    H116075   5.565   5.241   0.226 -0.3464 -0.7668 -1.1796
 5378TIP3    H216076   5.494   5.125   0.159 -0.6319 -1.7489  0.7472
 5379TIP3   OH216077   7.987   6.350   2.796 -0.2336  0.5723  0.8869
 5379TIP3    H116078   7.930   6.340   2.720  2.6936 -2.8967 -1.1487
 5379TIP3    H216079   7.947   6.295   2.864  0.7528 -2.2403 -0.6798
 5380TIP3   OH216080   7.895   0.082   0.452  0.5502  0.1940  0.2172
 5380TIP3    H116081   7.901   0.169   0.414  1.7582  1.0801  2.2899
 5380TIP3    H216082   7.878   0.024   0.377 -0.6933  2.2071 -1.1493
 5381TIP3   OH216083   3.686   4.842   1.330  0.3334  0.0088 -0.7272
 5381TIP3    H116084   3.758   4.813   1.385  1.7466  2.5833 -1.0597
 5381TIP3    H216085   3.637   4.903   1.386 -1.0455 -0.9388 -0.8393
 5382TIP3   OH216086   4.953   1.430   4.321 -0.7756 -0.0117 -0.1248
 5382TIP3    H116087   4.905   1.401   4.243 -0.8371  0.6657 -0.3481
 5382TIP3    H216088   4.948   1.526   4.318 -0.0999  0.0437  0.2913
 5383TIP3   OH216089   5.691   5.845   6.460  0.3847 -0.6106  0.0740
 5383TIP3    H116090   5.695   5.782   6.532 -2.0915 -0.2497  0.5997
 5383TIP3    H216091   5.666   5.792   6.384  0.4119 -0.5912  0.0521
 5384TIP3   OH216092   7.728   4.903   1.763  0.1027 -0.4726  0.0068
 5384TIP3    H116093   7.649   4.945   1.797 -0.2929  0.4867 -1.9523
 5384TIP3    H216094   7.700   4.814   1.742 -0.0552 -0.5947  0.7242
 5385TIP3   OH216095   6.532   2.519   3.977  0.0721 -0.1276  1.0058
 5385TIP3    H116096   6.614   2.548   4.014  0.8495 -0.1075 -0.6436
 5385TIP3    H216097   6.554   2.438   3.930 -0.2486  1.1672 -1.5672
 5386TIP3   OH216098   5.204   2.498   1.730  0.9027 -0.1299  0.1949
 5386TIP3    H116099   5.252   2.431   1.682 -0.2367 -0.6064 -0.3170
 5386TIP3    H216100   5.142   2.534   1.666 -0.6725 -0.7956  1.2905
 5387TIP3   OH216101   7.115   2.980   0.318  0.5104  0.0125 -0.7339
 5387TIP3    H116102   7.025   3.010   0.323  0.8556  0.9104  2.1959
 5387TIP3    H216103   7.151   3.022   0.240 -0.8233  1.9875 -0.3395
 5388TIP3   OH216104   7.955   3.918   4.900  0.0762  0.2103 -0.5379
 5388TIP3    H116105   7.911   3.859   4.961  0.0839 -0.3098 -1.0344
 5388TIP3    H216106   8.041   3.932   4.939  0.5232 -1.0771 -1.0277
 5389TIP3   OH216107   7.591   0.963   6.135 -0.1688 -0.0420 -0.2408
 5389TIP3    H116108   7.541   0.890   6.097  0.4379 -0.0073 -1.1210
 5389TIP3    H216109   7.553   1.041   6.095  0.3058  0.0115 -0.5926
 5390TIP3   OH216110   6.417   6.683   1.542  0.1379 -0.1956 -0.0004
 5390TIP3    H116111   6.424   6.775   1.514 -0.9754 -0.0399  0.2196
 5390TIP3    H216112   6.374   6.687   1.627  0.2757 -0.9148  0.1039
 5391TIP3   OH216113   8.252   1.904   0.731  0.6054 -0.4064  0.1620
 5391TIP3    H116114   8.274   1.838   0.797 -3.0523 -0.1688  1.8927
 5391TIP3    H216115   8.246   1.986   0.781  1.9902  0.7000 -1.3780
 5392TIP3   OH216116   0.949   4.304   5.037 -0.1816  0.6199  0.2257
 5392TIP3    H116117   1.026   4.320   4.981 -0.9217  1.8698 -0.4632
 5392TIP3    H216118   0.975   4.229   5.091  1.1930  0.4489 -0.6081
 5393TIP3   OH216119   3.026   7.782   0.365 -0.2542  0.1258 -0.0406
 5393TIP3    H116120   3.028   7.795   0.270  1.5388 -1.5323 -0.2844
 5393TIP3    H216121   2.933   7.780   0.387 -0.7065  1.8428 -1.5280
 5394TIP3   OH216122   7.214   0.337   4.902  0.1523  0.5833 -0.2940
 5394TIP3    H116123   7.152   0.352   4.973  0.0808  1.2988 -0.5028
 5394TIP3    H216124   7.178   0.387   4.828 -1.3351 -2.3372 -1.7367
 5395TIP3   OH216125   0.243   1.149   3.974 -0.2608 -0.4215 -0.4099
 5395TIP3    H116126   0.266   1.218   4.036  1.2713 -0.9136 -0.3735
 5395TIP3    H216127   0.216   1.195   3.895  0.8068  0.2513 -0.4104
 5396TIP3   OH216128   0.192   3.361   2.052  0.2246 -0.1222  0.6267
 5396TIP3    H116129   0.168   3.304   2.125 -1.3368 -1.1044 -0.6022
 5396TIP3    H216130   0.277   3.328   2.023  0.3877 -0.3593  1.3532
 5397TIP3   OH216131   2.289   1.212   5.676 -0.2983 -0.2791 -0.5308
 5397TIP3    H116132   2.211   1.267   5.673 -1.1204 -1.3082  0.8374
 5397TIP3    H216133   2.345   1.253   5.741  0.1024  0.1997 -1.1730
 5398TIP3   OH216134   5.252   4.677   2.083 -0.4905  0.0714 -0.3386
 5398TIP3    H116135   5.322   4.735   2.113  0.4344 -1.1841  0.0129
 5398TIP3    H216136   5.297   4.611   2.029 -1.0540 -1.9270  1.4882
 5399TIP3   OH216137   0.280   6.315   5.282  0.0723 -0.1877 -0.2345
 5399TIP3    H116138   0.366   6.307   5.322 -0.2515  0.8677  0.7380
 5399TIP3    H216139   0.282   6.257   5.207  1.4720 -0.5246  0.0498
 5400TIP3   OH216140   6.569   0.290   5.552 -0.2025 -0.1655  0.3568
 5400TIP3    H116141   6.489   0.244   5.576  0.0051 -1.1747 -0.7669
 5400TIP3    H216142   6.569   0.369   5.606 -1.7596 -0.3327  0.6444
 5401TIP3   OH216143   7.153   4.765   2.615 -0.6208  0.0139  0.0951
 5401TIP3    H116144   7.221   4.724   2.562 -1.5561 -1.7091  0.1494
 5401TIP3    H216145   7.190   4.771   2.703 -0.1949 -0.0046 -0.0835
 5402TIP3   OH216146   6.998   5.746   3.099 -0.5483  0.0882 -0.6758
 5402TIP3    H116147   7.032   5.720   3.185 -1.4080  2.2662  0.3919
 5402TIP3    H216148   6.985   5.663   3.053  0.4795 -1.1145  1.0701
 5403TIP3   OH216149   1.688   4.215   4.284 -0.5602 -0.0605  0.2781
 5403TIP3    H116150   1.744   4.141   4.261 -1.5831 -0.3594 -1.4547
 5403TIP3    H216151   1.738   4.293   4.258 -0.0401 -0.1866  0.8657
 5404TIP3   OH216152   0.294   0.417   6.081 -0.6935  0.1413  0.5828
 5404TIP3    H116153   0.276   0.475   6.007 -1.3538 -1.6007 -0.6778
 5404TIP3    H216154   0.390   0.411   6.083 -0.4535  2.8438  2.0642
 5405TIP3   OH216155   6.153   6.299   3.773 -0.4313 -0.5960  0.0329
 5405TIP3    H116156   6.147   6.213   3.816 -0.7015 -0.4938  0.2008
 5405TIP3    H216157   6.063   6.330   3.768 -0.3458 -0.3631 -0.1190
 5406TIP3   OH216158   4.542   5.990   2.571 -0.8572 -0.0613  0.3852
 5406TIP3    H116159   4.516   5.967   2.660 -0.8397  1.3604  0.7775
 5406TIP3    H216160   4.517   5.914   2.519 -0.6257 -1.0336  1.6301
 5407TIP3   OH216161   0.866   0.754   4.694 -0.2946 -0.2298  0.8688
 5407TIP3    H116162   0.839   0.781   4.607  1.4351 -0.4506  0.2381
 5407TIP3    H216163   0.869   0.658   4.690  2.3871 -0.1858  0.2948
 5408TIP3   OH216164   4.915   5.196   3.728  0.3360  0.7204  0.2993
 5408TIP3    H116165   4.859   5.131   3.771 -0.6527  1.6569  0.4723
 5408TIP3    H216166   4.858   5.237   3.663  0.4763  2.4040  1.1694
 5409TIP3   OH216167   2.573   7.038   4.901 -0.2100 -0.2597 -0.3461
 5409TIP3    H116168   2.576   6.984   4.822 -1.2050  0.2957 -0.7900
 5409TIP3    H216169   2.535   6.980   4.967 -1.4929 -0.0583 -0.8793
 5410TIP3   OH216170   2.664   3.528   0.010 -0.1365 -0.2535  0.4940
 5410TIP3    H116171   2.748   3.536   0.055  0.7122  0.6791 -1.1737
 5410TIP3    H216172   2.606   3.588   0.058  0.7332  0.6906  0.4102
 5411TIP3   OH216173   6.870   6.576   2.573 -0.0558  0.0212  0.6029
 5411TIP3    H116174   6.953   6.550   2.613 -0.1809 -0.7477  0.3751
 5411TIP3    H216175   6.805   6.517   2.611 -0.3626  0.0670  0.1577
 5412TIP3   OH216176   2.628   1.188   1.645 -0.2960 -0.0263  0.4048
 5412TIP3    H116177   2.618   1.127   1.572  3.3499 -1.1982  0.7026
 5412TIP3    H216178   2.575   1.264   1.619 -0.4579 -1.0266 -2.6743
 5413TIP3   OH216179   5.964   6.664   0.818 -0.5628 -0.2585 -0.2586
 5413TIP3    H116180   5.886   6.700   0.776 -1.8978  0.2637  2.4781
 5413TIP3    H216181   5.994   6.733   0.877  1.4054 -0.8324 -0.5138
 5414TIP3   OH216182   3.584   1.246   0.728 -0.3878 -0.8730 -0.2566
 5414TIP3    H116183   3.501   1.210   0.758 -1.9081  1.5657 -1.1769
 5414TIP3    H216184   3.585   1.230   0.633 -1.4541  1.8404 -0.8358
 5415TIP3   OH216185   6.765   6.967   0.091  0.4471  0.0251 -0.1515
 5415TIP3    H116186   6.837   7.026   0.066  0.2603  0.8210  1.1040
 5415TIP3    H216187   6.692   7.025   0.109  0.8478 -0.3097  3.2393
 5416TIP3   OH216188   5.122   4.129   3.533  0.1354  0.5921 -0.1280
 5416TIP3    H116189   5.149   4.206   3.583  2.8700 -0.0194 -0.4741
 5416TIP3    H216190   5.030   4.116   3.556  0.2417  2.5686  1.7477
 5417TIP3   OH216191   8.136   2.098   6.295 -0.1748 -0.0306  0.1166
 5417TIP3    H116192   8.160   2.157   6.367  0.5536  0.6600 -0.6832
 5417TIP3    H216193   8.120   2.014   6.338  0.3175  0.3537  1.0863
 5418TIP3   OH216194   2.881   4.677   0.277  0.1744  0.2823 -0.4983
 5418TIP3    H116195   2.791   4.643   0.273 -0.1573  0.8254  1.1899
 5418TIP3    H216196   2.932   4.606   0.316  0.3948  0.1517 -1.0104
 5419TIP3   OH216197   3.321   0.038   0.737  0.4208  0.0225  0.2393
 5419TIP3    H116198   3.285   0.073   0.818  2.2092 -1.6418  1.8756
 5419TIP3    H216199   3.416   0.039   0.750  0.7787 -0.1868 -1.9079
 5420TIP3   OH216200   5.101   5.667   6.010  0.1086  0.2821 -0.7681
 5420TIP3    H116201   5.105   5.738   6.073 -0.0415 -0.0043 -0.4274
 5420TIP3    H216202   5.187   5.667   5.968  0.6121 -0.2217  0.2186
 5421TIP3   OH216203   3.529   6.167   4.533 -0.4646  0.3435 -0.3751
 5421TIP3    H116204   3.620   6.169   4.561 -0.4365 -0.9048 -0.3032
 5421TIP3    H216205   3.501   6.077   4.549 -1.4335  0.4559 -1.2944
 5422TIP3   OH216206   5.807   6.159   2.099  0.9025 -0.2078 -0.3139
 5422TIP3    H116207   5.851   6.181   2.017  0.0188  0.8219 -0.5322
 5422TIP3    H216208   5.759   6.078   2.079 -2.8651  2.1821 -2.3013
 5423TIP3   OH216209   6.435   5.811   3.632  0.1813  0.2819 -0.5467
 5423TIP3    H116210   6.468   5.892   3.670 -0.0276 -1.1921  3.1994
 5423TIP3    H216211   6.348   5.833   3.600 -0.9687  1.1341  2.7717
 5424TIP3   OH216212   6.467   7.264   2.760 -0.6017  0.2711 -0.0992
 5424TIP3    H116213   6.388   7.270   2.705 -0.4319 -0.5119 -0.4330
 5424TIP3    H216214   6.435   7.281   2.849 -1.1125  0.1804 -0.2598
 5425TIP3   OH216215   2.880   1.488   0.885  0.2473 -0.0746 -0.3171
 5425TIP3    H116216   2.860   1.549   0.957  0.6779 -0.0049 -0.2565
 5425TIP3    H216217   2.794   1.455   0.858 -0.1597  1.6951 -1.3505
 5426TIP3   OH216218   2.114   4.731   0.967 -0.3001  0.6118  0.4555
 5426TIP3    H116219   2.057   4.771   1.032  0.6893  0.9222  1.1537
 5426TIP3    H216220   2.121   4.796   0.897  0.4643  1.2444  1.1044
 5427TIP3   OH216221   5.396   1.630   6.464 -0.2921  0.1630 -0.3492
 5427TIP3    H116222   5.449   1.551   6.453 -1.2330 -0.7495  1.3227
 5427TIP3    H216223   5.373   1.655   6.374 -0.0673 -1.5348 -0.9192
 5428TIP3   OH216224   2.237   0.931   1.654  0.2486 -0.3892  0.0862
 5428TIP3    H116225   2.327   0.927   1.621 -0.2285  2.4483 -1.9360
 5428TIP3    H216226   2.228   1.020   1.690 -0.9279 -1.5879  3.1731
 5429TIP3   OH216227   7.724   2.033   4.088 -0.0479  0.1879  0.1730
 5429TIP3    H116228   7.636   2.066   4.107 -0.7726 -1.4994  0.0105
 5429TIP3    H216229   7.738   1.963   4.152  0.4078 -0.7807 -0.9375
 5430TIP3   OH216230   2.780   4.246   2.826  0.5349  0.2317  0.0706
 5430TIP3    H116231   2.711   4.199   2.873 -0.0036 -0.2740 -1.2038
 5430TIP3    H216232   2.841   4.178   2.798  0.6682  0.4949 -0.2795
 5431TIP3   OH216233   2.932   7.341   1.192  0.1741  0.2038  0.8639
 5431TIP3    H116234   3.000   7.409   1.196 -0.7632  1.1952  0.6133
 5431TIP3    H216235   2.855   7.388   1.161 -0.3153 -1.1540 -0.0259
 5432TIP3   OH216236   4.830   5.815   6.351 -0.0353  0.6642  0.4759
 5432TIP3    H116237   4.854   5.884   6.289  1.8048  0.5993  1.0484
 5432TIP3    H216238   4.796   5.745   6.296  2.0464  0.3981 -0.5843
 5433TIP3   OH216239   3.390   1.144   5.871  0.1126 -0.3560 -0.0921
 5433TIP3    H116240   3.445   1.068   5.892  1.1765  0.2630 -0.5473
 5433TIP3    H216241   3.387   1.194   5.952  0.7841 -0.0598 -0.2432
 5434TIP3   OH216242   7.472   3.826   2.392  0.0104 -0.1470  0.2610
 5434TIP3    H116243   7.408   3.761   2.362 -0.8051  0.1596  1.3003
 5434TIP3    H216244   7.518   3.782   2.463  1.9077 -0.8524 -1.2920
 5435TIP3   OH216245   0.941   1.921   1.240  0.3261  0.1948  0.0591
 5435TIP3    H116246   0.949   1.888   1.151  1.5291  2.4901 -0.7862
 5435TIP3    H216247   0.849   1.911   1.262  0.1683 -1.1772 -1.1095
 5436TIP3   OH216248   1.940   6.347   3.342 -0.4549 -0.4779  0.2130
 5436TIP3    H116249   1.915   6.439   3.338  0.2366 -0.2436  0.9881
 5436TIP3    H216250   1.868   6.305   3.389  0.6913  0.2703  2.8437
 5437TIP3   OH216251   1.729   0.523   4.454 -1.0328 -0.4837 -0.3144
 5437TIP3    H116252   1.716   0.580   4.379 -1.8922  0.6828  0.6901
 5437TIP3    H216253   1.640   0.499   4.482 -0.7301 -0.6959  0.4873
 5438TIP3   OH216254   2.604   2.172   6.408 -0.2623 -0.2664  0.0706
 5438TIP3    H116255   2.533   2.208   6.356 -0.5136  0.1723  0.7095
 5438TIP3    H216256   2.608   2.227   6.486  1.9059  0.8124 -0.7213
 5439TIP3   OH216257   3.007   6.999   3.047 -0.1273  0.1086 -0.1788
 5439TIP3    H116258   2.912   6.985   3.047  0.0912 -1.7812  1.4552
 5439TIP3    H216259   3.027   7.030   2.959 -1.9633 -1.7600 -1.3343
 5440TIP3   OH216260   6.187   1.924   0.157  0.4058  0.2634 -0.4904
 5440TIP3    H116261   6.096   1.955   0.165  0.6622  0.9069  0.0903
 5440TIP3    H216262   6.239   1.998   0.189  1.0506 -0.7486  0.8629
 5441TIP3   OH216263   5.907   3.296   1.595 -0.2073 -0.2795 -0.0210
 5441TIP3    H116264   5.821   3.274   1.631 -0.0999  1.3767  1.3590
 5441TIP3    H216265   5.892   3.307   1.501 -1.8103  1.2411  0.3620
 5442TIP3   OH216266   2.777   6.732   1.423  0.3847  0.4130 -0.0476
 5442TIP3    H116267   2.722   6.657   1.448 -0.2716  0.7939 -0.3344
 5442TIP3    H216268   2.862   6.693   1.404 -0.1522 -0.3707 -0.9335
 5443TIP3   OH216269   4.875   1.870   0.911  0.2508 -0.4618  0.0706
 5443TIP3    H116270   4.852   1.863   0.818  0.1857 -0.8477  0.1117
 5443TIP3    H216271   4.791   1.885   0.955  0.1707 -1.0935  0.1442
 5444TIP3   OH216272   2.771   6.662   1.103 -0.7961 -0.2060  0.0869
 5444TIP3    H116273   2.699   6.601   1.116 -0.5669 -0.8100 -1.3296
 5444TIP3    H216274   2.850   6.608   1.116 -0.5981 -0.1386 -0.7698
 5445TIP3   OH216275   0.740   1.897   3.379 -0.0301 -0.7907  0.2598
 5445TIP3    H116276   0.722   1.884   3.473  0.9363 -0.3017  0.5235
 5445TIP3    H216277   0.653   1.907   3.340 -0.4249  2.1749  1.6056
 5446TIP3   OH216278   3.985   1.940   1.920  0.0238 -0.4016 -0.6704
 5446TIP3    H116279   4.030   1.861   1.891  1.9990  0.5059 -0.1984
 5446TIP3    H216280   3.897   1.933   1.882 -0.4680 -3.6325  0.7215
 5447TIP3   OH216281   1.522   5.390   1.635 -0.2734  0.1230  0.6157
 5447TIP3    H116282   1.580   5.463   1.659 -0.7475  0.6502  0.1816
 5447TIP3    H216283   1.444   5.432   1.599 -0.9945 -0.5707  1.3119
 5448TIP3   OH216284   3.156   4.422   3.252 -0.1847  0.8548 -0.1324
 5448TIP3    H116285   3.132   4.402   3.343 -0.2614 -1.4920 -0.5891
 5448TIP3    H216286   3.242   4.464   3.259 -0.1947  0.7267  1.0426
 5449TIP3   OH216287   7.210   5.947   0.031  0.4694  0.0328 -0.5968
 5449TIP3    H116288   7.153   5.872   0.012  0.6857 -0.9708  2.2406
 5449TIP3    H216289   7.150   6.020   0.045  0.0628 -0.2909 -0.6198
 5450TIP3   OH216290   5.989   4.410   4.966 -0.1953  0.6043 -0.0608
 5450TIP3    H116291   6.031   4.400   4.881  0.9681  1.8865  0.3335
 5450TIP3    H216292   5.975   4.504   4.975  0.1089  0.5356  1.3544
 5451TIP3   OH216293   0.447   0.297   3.334  0.4320 -0.5438  0.4314
 5451TIP3    H116294   0.393   0.284   3.412 -0.0381  0.7647  0.3458
 5451TIP3    H216295   0.387   0.285   3.260  0.3171  0.5340  0.3296
 5452TIP3   OH216296   3.261   0.917   0.532  0.2701 -0.0595  0.2661
 5452TIP3    H116297   3.187   0.930   0.592  0.7175  1.2542  0.5631
 5452TIP3    H216298   3.305   0.838   0.565  0.0608  0.2014  1.1977
 5453TIP3   OH216299   2.017   7.758   5.317  0.4924  0.1624 -0.1999
 5453TIP3    H116300   1.981   7.835   5.272  0.6085 -0.0216 -0.6128
 5453TIP3    H216301   2.068   7.713   5.250 -0.2257 -0.7145 -0.1850
 5454TIP3   OH216302   0.160   1.675   5.108  0.0153  0.5108 -0.3091
 5454TIP3    H116303   0.174   1.761   5.146  1.2928 -0.1064  0.6706
 5454TIP3    H216304   0.106   1.628   5.172  1.6444 -0.3194  0.5074
 5455TIP3   OH216305   6.038  -0.006   6.745 -0.1532 -0.1813 -0.3064
 5455TIP3    H116306   6.031   0.085   6.717  0.0572  0.4102  1.4358
 5455TIP3    H216307   6.124  -0.012   6.787 -0.2197 -1.1493 -0.2858
 5456TIP3   OH216308   3.977   7.333   3.961  0.7323  0.6951  0.0862
 5456TIP3    H116309   3.901   7.317   3.906  0.9345 -1.3960  0.3206
 5456TIP3    H216310   4.049   7.348   3.899  0.7835 -0.7559 -0.2365
 5457TIP3   OH216311   8.050   4.580   5.845 -0.3717  0.1513  0.3426
 5457TIP3    H116312   8.034   4.559   5.753  2.0807 -1.2526  0.1496
 5457TIP3    H216313   7.963   4.583   5.884 -1.5573  1.6658 -2.1508
 5458TIP3   OH216314   0.296   5.262   5.103 -0.1086  0.4578  0.4334
 5458TIP3    H116315   0.358   5.288   5.035  0.3738  0.8226  0.9961
 5458TIP3    H216316   0.214   5.244   5.057  0.2444  0.5842 -0.2480
 5459TIP3   OH216317   5.537   3.652   0.377 -0.0161  0.1568  0.3163
 5459TIP3    H116318   5.459   3.694   0.341  1.1933  0.8054 -1.7656
 5459TIP3    H216319   5.523   3.559   0.363 -0.3988  0.2767 -0.1416
 5460TIP3   OH216320   0.937   7.029   0.790  0.1409 -0.8275 -0.1235
 5460TIP3    H116321   0.961   6.940   0.764  0.9672 -0.9156  0.8867
 5460TIP3    H216322   0.948   7.031   0.885 -0.1957  0.2633 -0.0824
 5461TIP3   OH216323   5.205   3.309   0.626 -0.1280 -0.6135  0.3166
 5461TIP3    H116324   5.296   3.277   0.626 -0.1182 -0.6346  1.5499
 5461TIP3    H216325   5.209   3.391   0.675 -0.6792 -0.2805 -0.1843
 5462TIP3   OH216326   3.767   2.167   2.089 -0.0263 -0.0660  0.1595
 5462TIP3    H116327   3.760   2.099   2.022  0.5325  0.2795 -0.2525
 5462TIP3    H216328   3.861   2.184   2.096 -0.0108 -0.5644  1.5022
 5463TIP3   OH216329   3.165   5.801   6.177 -0.0153 -0.4433  0.4586
 5463TIP3    H116330   3.076   5.798   6.212 -0.6430  0.5562 -0.9571
 5463TIP3    H216331   3.194   5.891   6.192 -0.1211 -0.1231 -1.0612
 5464TIP3   OH216332   3.480   0.282   4.237  0.1993  0.1904  0.3495
 5464TIP3    H116333   3.487   0.188   4.218  0.1135  0.2711 -0.0937
 5464TIP3    H216334   3.512   0.325   4.158  0.5750  0.5376  0.6819
 5465TIP3   OH216335   0.890   0.296   0.235  0.0577  0.2951 -0.0544
 5465TIP3    H116336   0.853   0.384   0.232 -0.2412  0.2181  0.9861
 5465TIP3    H216337   0.967   0.305   0.291  1.0102  0.2265 -1.3109
 5466TIP3   OH216338   5.170   0.463   0.526  0.5855 -0.3579  0.4942
 5466TIP3    H116339   5.184   0.454   0.432 -1.5082 -1.8451  0.2393
 5466TIP3    H216340   5.250   0.429   0.565  1.1316 -0.5783 -0.7626
 5467TIP3   OH216341   7.475   0.267   2.141  0.0215  0.0875 -0.0053
 5467TIP3    H116342   7.385   0.297   2.129  0.2206  0.5761 -0.3074
 5467TIP3    H216343   7.502   0.307   2.224 -0.2666 -0.6333  0.4482
 5468TIP3   OH216344   6.930   3.825   3.702  0.2599 -0.7469  0.4929
 5468TIP3    H116345   6.840   3.794   3.695 -0.0022 -0.2307  1.3522
 5468TIP3    H216346   6.923   3.905   3.755  1.4863 -1.9902  2.6687
 5469TIP3   OH216347   3.610   4.991   3.843  0.0298 -0.1297 -0.0768
 5469TIP3    H116348   3.550   5.062   3.822  0.6047  0.0428 -1.2312
 5469TIP3    H216349   3.693   5.017   3.801  1.2387  0.1490  2.3369
 5470TIP3   OH216350   2.735   0.236   2.529 -0.2316  0.0117 -0.2326
 5470TIP3    H116351   2.741   0.328   2.504 -2.4984  0.2518 -0.0295
 5470TIP3    H216352   2.688   0.236   2.612  0.9402 -1.2774  0.4842
 5471TIP3   OH216353   4.069   1.129   0.761  0.1778  0.2955 -0.2110
 5471TIP3    H116354   3.996   1.083   0.801  1.4025 -0.2059  1.6093
 5471TIP3    H216355   4.032   1.213   0.733 -0.9955  0.2559  1.1030
 5472TIP3   OH216356   1.570   2.622   5.715 -0.1146 -0.2348 -0.6085
 5472TIP3    H116357   1.605   2.540   5.750  0.1913  0.4477  0.7495
 5472TIP3    H216358   1.519   2.596   5.638  0.1040 -1.6695 -0.2860
 5473TIP3   OH216359   1.272   4.540   0.891  0.3608 -0.0035 -0.2297
 5473TIP3    H116360   1.213   4.537   0.816 -0.6945 -0.8976  0.5996
 5473TIP3    H216361   1.348   4.589   0.860 -1.5037  2.7076 -0.8200
 5474TIP3   OH216362   2.728   3.859   6.057  1.1253 -0.1064 -0.4647
 5474TIP3    H116363   2.668   3.918   6.012  1.6767  0.0100 -1.0594
 5474TIP3    H216364   2.771   3.914   6.123  0.7156 -0.1477 -0.1620
 5475TIP3   OH216365   2.115   7.104   0.719 -0.7044 -0.0022  0.1231
 5475TIP3    H116366   2.119   7.193   0.685  0.2480 -0.6364 -1.5174
 5475TIP3    H216367   2.063   7.055   0.654 -1.6409 -0.5599  1.2477
 5476TIP3   OH216368   2.058   0.795   4.113  0.1609  0.4006 -0.6379
 5476TIP3    H116369   2.046   0.854   4.187 -0.0583  0.1320 -0.4575
 5476TIP3    H216370   2.023   0.843   4.038 -1.2177  0.0033 -0.2768
 5477TIP3   OH216371   4.143   7.316   4.175  0.4818 -0.4456 -0.6650
 5477TIP3    H116372   4.103   7.371   4.242 -1.2539 -1.4007 -0.8530
 5477TIP3    H216373   4.077   7.308   4.107  2.1371  0.3484 -2.4606
 5478TIP3   OH216374   6.191   4.923   6.479  0.1538  0.5708  0.4782
 5478TIP3    H116375   6.265   4.896   6.426 -0.3687  0.7842 -0.3846
 5478TIP3    H216376   6.117   4.872   6.446  0.1623 -0.6611  2.2407
 5479TIP3   OH216377   2.690   2.638   4.393 -0.1372  0.0955 -0.8000
 5479TIP3    H116378   2.630   2.702   4.356  0.4175  0.5822 -0.8777
 5479TIP3    H216379   2.738   2.687   4.461 -1.1584 -0.7752  0.6015
 5480TIP3   OH216380   6.002   4.265   1.925  0.1212  0.0953 -0.1080
 5480TIP3    H116381   5.942   4.307   1.863  0.5315 -0.4618 -0.8988
 5480TIP3    H216382   5.946   4.237   1.997 -0.8407 -1.5409 -1.3948
 5481TIP3   OH216383   6.770   0.082   0.243  0.1518  0.5031 -0.4624
 5481TIP3    H116384   6.753   0.000   0.290 -0.9771  0.4409 -0.9598
 5481TIP3    H216385   6.760   0.150   0.309 -0.0237  0.3248 -0.3053
 5482TIP3   OH216386   3.691   0.237   0.450  0.2354  0.1329  0.6003
 5482TIP3    H116387   3.599   0.260   0.444  0.1725 -0.2702 -0.0385
 5482TIP3    H216388   3.737   0.315   0.420  0.0498 -0.1829 -0.5739
 5483TIP3   OH216389   1.588   4.730   2.598 -0.0618  0.2146 -0.4836
 5483TIP3    H116390   1.500   4.734   2.559 -0.2388 -0.6384 -0.2004
 5483TIP3    H216391   1.616   4.821   2.603 -1.3602  0.6038  0.3719
 5484TIP3   OH216392   0.416   0.568   5.443  0.2282  0.2541  0.3248
 5484TIP3    H116393   0.484   0.634   5.429 -0.0008  0.7552  1.4328
 5484TIP3    H216394   0.340   0.618   5.473 -0.4456 -0.3617 -0.3332
 5485TIP3   OH216395   8.240   4.023   1.186  0.2408 -0.3678  0.2413
 5485TIP3    H116396   8.251   4.105   1.232  0.4848 -0.9322  1.2083
 5485TIP3    H216397   8.158   4.033   1.138  1.2209  1.1441 -1.2073
 5486TIP3   OH216398   4.348   4.645   4.558  0.2941  0.0103 -0.2958
 5486TIP3    H116399   4.426   4.693   4.585 -0.7718  1.5826  0.1028
 5486TIP3    H216400   4.286   4.658   4.630 -0.4177 -1.0262 -0.6987
 5487TIP3   OH216401   1.495   0.656   2.722 -0.7247 -0.0786 -0.0049
 5487TIP3    H116402   1.519   0.673   2.812 -0.4846 -0.9698  0.1069
 5487TIP3    H216403   1.544   0.578   2.698 -0.5010  0.3535 -1.0289
 5488TIP3   OH216404   2.401   0.880   3.102 -0.1459  0.2612 -0.3593
 5488TIP3    H116405   2.487   0.841   3.118 -0.5865 -0.5824  0.0200
 5488TIP3    H216406   2.348   0.809   3.065 -1.2554  0.1673  1.2638
 5489TIP3   OH216407   5.101   1.444   3.055  0.5686 -0.0585  0.8607
 5489TIP3    H116408   5.128   1.438   3.146 -0.9115  1.7078  1.4862
 5489TIP3    H216409   5.115   1.536   3.031 -0.2693 -0.1966 -0.2652
 5490TIP3   OH216410   3.936   3.692   5.377 -0.5476  0.0672  0.4322
 5490TIP3    H116411   3.942   3.733   5.291  1.3980 -0.2765  0.3583
 5490TIP3    H216412   3.843   3.680   5.392 -1.0620  2.2688 -0.6010
 5491TIP3   OH216413   0.487   0.119   1.925  0.0841 -0.4997  0.1775
 5491TIP3    H116414   0.457   0.080   1.842 -0.5714  0.4297 -0.0460
 5491TIP3    H216415   0.578   0.092   1.933  0.0986 -0.7755 -0.7544
 5492TIP3   OH216416   5.219   0.470   1.908  0.0244 -0.3538 -0.4404
 5492TIP3    H116417   5.133   0.441   1.879 -0.4569  0.1406  0.4717
 5492TIP3    H216418   5.224   0.443   2.000  1.1183 -0.9927 -0.6681
 5493TIP3   OH216419   7.167   7.363   3.515 -0.0172  0.1261 -0.2281
 5493TIP3    H116420   7.072   7.360   3.523  0.1018 -0.3326  1.7616
 5493TIP3    H216421   7.193   7.272   3.504  0.2376  0.1342  0.2687
 5494TIP3   OH216422   7.136   5.577   0.940  0.3271  0.0622  0.3158
 5494TIP3    H116423   7.057   5.600   0.891 -0.7202  0.7240  2.2024
 5494TIP3    H216424   7.126   5.483   0.958 -0.9551  0.4671  1.9993
 5495TIP3   OH216425   1.302   2.997   1.967  0.0664  0.7754 -0.2722
 5495TIP3    H116426   1.237   3.035   1.908  0.9279  0.8247 -1.2129
 5495TIP3    H216427   1.338   2.923   1.919 -0.1690 -0.0176  0.7483
 5496TIP3   OH216428   6.758   4.831   3.273 -0.1984 -0.0452  0.4578
 5496TIP3    H116429   6.681   4.821   3.217  0.0948 -1.0088  0.2059
 5496TIP3    H216430   6.726   4.813   3.361 -0.0983 -1.3716  0.2471
 5497TIP3   OH216431   3.972   6.220   1.451  0.3746  0.4990 -0.3297
 5497TIP3    H116432   3.909   6.290   1.438  0.5173  1.0471  1.6273
 5497TIP3    H216433   3.923   6.151   1.494  0.9401  0.6534  0.5802
 5498TIP3   OH216434   1.517   5.436   2.054 -0.1888 -0.1333  0.1344
 5498TIP3    H116435   1.546   5.471   2.139 -0.1009  0.5047 -0.1561
 5498TIP3    H216436   1.441   5.382   2.076  0.5155 -0.8969  0.7617
 5499TIP3   OH216437   3.594   1.511   6.430  0.6239 -0.2893  0.4191
 5499TIP3    H116438   3.574   1.461   6.350  1.2902  0.1616 -0.0335
 5499TIP3    H216439   3.681   1.482   6.455  2.2434  2.5351 -1.3858
 5500TIP3   OH216440   0.930   0.909   4.250  0.0687 -0.4495 -0.1803
 5500TIP3    H116441   0.892   0.956   4.324 -0.0384 -1.8526  0.6764
 5500TIP3    H216442   0.924   0.972   4.177 -0.2364  0.7870  0.8665
 5501TIP3   OH216443   5.301   1.155   1.051  0.0425 -0.1417 -0.5251
 5501TIP3    H116444   5.230   1.210   1.017  2.1428  1.4466 -2.5670
 5501TIP3    H216445   5.313   1.087   0.985 -0.4845 -1.3330  0.5397
 5502TIP3   OH216446   2.530   5.146   4.958 -0.5609 -0.7761  0.5025
 5502TIP3    H116447   2.470   5.190   5.019 -1.4052 -1.5358  0.2537
 5502TIP3    H216448   2.590   5.097   5.014  0.3578  0.6192  0.7789
 5503TIP3   OH216449   6.824   6.944   6.071 -0.0537 -0.3641  0.3660
 5503TIP3    H116450   6.793   6.854   6.065 -2.0603  0.2484  0.8208
 5503TIP3    H216451   6.767   6.993   6.011  3.3396  0.1213 -2.7737
 5504TIP3   OH216452   1.861   1.630   2.525 -0.1277  0.5803 -0.0735
 5504TIP3    H116453   1.853   1.724   2.507  0.2485  0.2497 -2.1962
 5504TIP3    H216454   1.942   1.604   2.481 -0.5598 -0.8672 -0.0528
 5505TIP3   OH216455   4.772   7.751   0.903 -0.3656 -0.1083  0.1847
 5505TIP3    H116456   4.729   7.665   0.895  0.9733 -0.7477 -0.5025
 5505TIP3    H216457   4.842   7.736   0.966 -1.0401  0.8913  1.1993
 5506TIP3   OH216458   6.077   5.805   5.550  0.0638 -0.2723 -0.2527
 5506TIP3    H116459   6.060   5.754   5.629  1.3924 -2.0371 -1.0243
 5506TIP3    H216460   6.142   5.870   5.577 -0.8249  0.3176  0.4968
 5507TIP3   OH216461   6.849   6.164   1.184  0.0932  0.1176 -0.1981
 5507TIP3    H116462   6.822   6.227   1.117  0.5886  1.4302  0.7787
 5507TIP3    H216463   6.838   6.212   1.266  1.7093 -0.6324  0.4908
 5508TIP3   OH216464   3.224   7.776   0.933 -0.1742 -0.3132 -0.2881
 5508TIP3    H116465   3.232   7.707   0.867  0.1025 -0.8326  0.2821
 5508TIP3    H216466   3.151   7.830   0.903 -1.9759 -2.2079  0.4560
 5509TIP3   OH216467   4.253   0.308   1.637  0.1974  0.1761  0.5322
 5509TIP3    H116468   4.290   0.358   1.710  1.1981 -1.9109  1.5500
 5509TIP3    H216469   4.182   0.256   1.677  1.0118 -1.2906  0.1475
 5510TIP3   OH216470   1.424   4.248   6.493 -0.1468  0.1433 -0.3883
 5510TIP3    H116471   1.385   4.300   6.423 -0.4075 -0.4217 -0.6734
 5510TIP3    H216472   1.502   4.296   6.519 -0.9106  1.1960  0.0420
 5511TIP3   OH216473   3.416   3.924   4.772  0.6780 -0.0783  0.2338
 5511TIP3    H116474   3.484   3.989   4.754  1.3181 -0.7190  0.2839
 5511TIP3    H216475   3.436   3.892   4.860  0.2668 -0.2313  0.2747
 5512TIP3   OH216476   3.967   6.230   0.402 -0.2456  0.6807  0.0942
 5512TIP3    H116477   3.913   6.246   0.479 -0.0402  0.2536  0.3278
 5512TIP3    H216478   4.041   6.178   0.434  0.8053  2.0341 -0.0469
 5513TIP3   OH216479   2.659   3.035   5.208  0.3992  0.3782 -0.6564
 5513TIP3    H116480   2.616   3.095   5.268  1.8445 -0.1883  1.0452
 5513TIP3    H216481   2.595   2.966   5.192  0.0259  0.4765  0.3485
 5514TIP3   OH216482   6.018   0.474   1.734  0.2942  0.2392  0.8586
 5514TIP3    H116483   5.970   0.503   1.657  0.2473 -0.8047  0.4822
 5514TIP3    H216484   6.088   0.419   1.699  2.7992  2.9128  1.2342
 5515TIP3   OH216485   8.078   7.256   6.166 -0.1251 -0.4183 -0.6127
 5515TIP3    H116486   8.061   7.310   6.243  2.8133 -0.2670  0.0465
 5515TIP3    H216487   8.027   7.177   6.180  0.7601 -0.6256  1.8008
 5516TIP3   OH216488   3.071   5.834   2.847 -0.1482 -0.0296  0.1140
 5516TIP3    H116489   3.128   5.855   2.922 -0.5155 -0.8370  0.6328
 5516TIP3    H216490   3.046   5.919   2.812  0.2469  0.3607  0.7547
 5517TIP3   OH216491   7.317   7.587   4.221 -0.2418  0.1876 -0.0281
 5517TIP3    H116492   7.313   7.679   4.245 -0.1537  0.2811 -0.3607
 5517TIP3    H216493   7.289   7.585   4.129  0.2527 -0.0539 -0.1736
 5518TIP3   OH216494   3.792   7.078   2.397  0.1916  0.0615 -0.4063
 5518TIP3    H116495   3.782   7.053   2.489  0.0315  0.3646 -0.3383
 5518TIP3    H216496   3.870   7.135   2.397 -1.8627  3.1217  0.1934
 5519TIP3   OH216497   4.934   2.070   0.301 -0.0867  0.1425  0.4734
 5519TIP3    H116498   4.888   2.084   0.384 -0.2728  4.1531 -0.1248
 5519TIP3    H216499   4.865   2.044   0.240 -0.6600  1.0156  0.7281
 5520TIP3   OH216500   2.218   0.816   1.241  0.2225 -0.5941 -0.5141
 5520TIP3    H116501   2.149   0.878   1.266  0.2584 -0.7487 -0.0180
 5520TIP3    H216502   2.170   0.737   1.215  0.2223 -1.3773  1.6395
 5521TIP3   OH216503   3.320   1.145   4.732 -0.9446  0.2361  0.0615
 5521TIP3    H116504   3.267   1.221   4.706 -0.5680  0.2056 -0.8418
 5521TIP3    H216505   3.282   1.073   4.682 -0.5449  0.0666  0.0031
 5522TIP3   OH216506   2.191   6.404   2.009  0.2808  0.4805 -0.2309
 5522TIP3    H116507   2.277   6.432   1.980  0.6717 -1.4674 -1.1418
 5522TIP3    H216508   2.144   6.383   1.928  0.3290 -2.1508  0.3341
 5523TIP3   OH216509   5.546   4.203   4.948  0.0405  0.0619 -0.1907
 5523TIP3    H116510   5.620   4.242   4.902  1.5031 -1.9216  0.3314
 5523TIP3    H216511   5.510   4.273   5.003  1.3279  1.1372 -0.6906
 5524TIP3   OH216512   1.931   5.206   3.560 -0.2152  0.1986  1.0357
 5524TIP3    H116513   2.009   5.257   3.580  0.0672 -0.0754  0.6405
 5524TIP3    H216514   1.858   5.265   3.581  0.0986  1.5622 -1.2984
 5525TIP3   OH216515   8.331   7.939   5.174 -0.1358  0.1725  0.1395
 5525TIP3    H116516   8.238   7.948   5.150  0.0599 -0.3818 -0.8754
 5525TIP3    H216517   8.349   7.846   5.164  0.2204  0.0715  1.5666
 5526TIP3   OH216518   0.352   4.647   3.918 -0.1783  0.3048 -0.1614
 5526TIP3    H116519   0.442   4.615   3.919 -0.0394  0.6621 -0.5233
 5526TIP3    H216520   0.316   4.615   3.835 -0.4783 -0.0769  0.1114
 5527TIP3   OH216521   6.325   1.298   4.445 -0.3285  0.2132 -0.3589
 5527TIP3    H116522   6.280   1.380   4.426  0.5529  0.7142 -0.3048
 5527TIP3    H216523   6.255   1.232   4.442 -0.8145  0.7476 -1.8328
 5528TIP3   OH216524   5.653   6.499   6.485  0.2767 -0.0668  0.2852
 5528TIP3    H116525   5.607   6.433   6.432  1.0002 -0.5434  0.2308
 5528TIP3    H216526   5.597   6.576   6.481  0.7537  0.2246 -1.9810
 5529TIP3   OH216527   0.755   2.987   4.889 -0.0589 -0.0640 -0.3149
 5529TIP3    H116528   0.738   3.014   4.799  0.6485 -1.6715 -0.9840
 5529TIP3    H216529   0.809   3.057   4.925  0.3756  0.2058 -1.4385
 5530TIP3   OH216530   5.052   1.101   4.512  0.3333 -0.1994 -0.3239
 5530TIP3    H116531   5.110   1.162   4.466  0.6491 -0.2811 -0.0387
 5530TIP3    H216532   5.107   1.026   4.533  0.2575 -0.0709  0.3747
 5531TIP3   OH216533   6.013   6.729   4.842  0.0096 -0.0696  0.1467
 5531TIP3    H116534   6.099   6.702   4.873 -0.0500  0.0043  0.3815
 5531TIP3    H216535   6.030   6.782   4.764  0.0870 -1.4663 -0.8170
 5532TIP3   OH216536   7.585   5.644   1.366  0.0093 -0.0452  0.3908
 5532TIP3    H116537   7.653   5.577   1.356  0.1731  0.0478  0.8319
 5532TIP3    H216538   7.633   5.727   1.356 -0.0434  0.0194  0.6705
 5533TIP3   OH216539   0.571   7.795   0.522  0.0224 -0.1849 -0.1190
 5533TIP3    H116540   0.562   7.823   0.613  0.9332  0.9863 -0.3709
 5533TIP3    H216541   0.541   7.870   0.470 -0.1646 -0.7169 -0.7956
 5534TIP3   OH216542   3.827   1.123   1.286 -0.4999  0.2186  0.0337
 5534TIP3    H116543   3.743   1.105   1.243 -0.8609  1.1419  0.3332
 5534TIP3    H216544   3.857   1.037   1.316 -0.0492 -0.5351 -2.3361
 5535TIP3   OH216545   3.971   0.619   6.340  0.3254  0.3471 -0.2869
 5535TIP3    H116546   3.988   0.575   6.423  0.1245 -1.6279 -1.2240
 5535TIP3    H216547   3.964   0.548   6.276 -2.7931  1.5151 -1.4671
 5536TIP3   OH216548   5.198   5.535   1.905  0.3368 -0.3140  0.6267
 5536TIP3    H116549   5.155   5.619   1.886  1.5378  0.1649 -0.0758
 5536TIP3    H216550   5.134   5.469   1.879 -0.0620  0.3835 -0.1973
 5537TIP3   OH216551   7.399   1.675   3.207  0.0862  0.1210  0.4655
 5537TIP3    H116552   7.304   1.682   3.197  0.0473 -1.9531 -1.4960
 5537TIP3    H216553   7.412   1.642   3.296 -0.8918  1.7172  1.2455
 5538TIP3   OH216554   1.227   7.675   2.082  0.1828 -0.1793 -0.3682
 5538TIP3    H116555   1.144   7.627   2.088  0.6058 -0.8753  0.1294
 5538TIP3    H216556   1.213   7.739   2.012 -0.5752 -0.6859 -0.6966
 5539TIP3   OH216557   3.491   6.347   1.099  0.5976 -0.0557  0.2209
 5539TIP3    H116558   3.514   6.288   1.028 -0.0169 -0.0204 -0.0127
 5539TIP3    H216559   3.575   6.380   1.132  0.9857 -1.5687  0.8081
 5540TIP3   OH216560   6.253   1.280   3.334 -0.2409 -0.7185  0.1401
 5540TIP3    H116561   6.158   1.296   3.340  0.2147  2.4670  0.3441
 5540TIP3    H216562   6.279   1.324   3.253  1.1570 -0.9881  0.4270
 5541TIP3   OH216563   3.242   1.284   6.764  0.2900  0.3823 -0.3797
 5541TIP3    H116564   3.221   1.233   6.686  1.5096  0.3689 -0.7203
 5541TIP3    H216565   3.204   1.370   6.748 -1.6960 -0.3583  0.1535
 5542TIP3   OH216566   0.894   4.405   1.036  0.3925 -0.7428 -0.4919
 5542TIP3    H116567   0.988   4.413   1.053  0.2019  0.2825  0.2094
 5542TIP3    H216568   0.864   4.336   1.094  0.8774 -1.8479 -1.5017
 5543TIP3   OH216569   3.485   0.167   5.701 -0.2746  0.0244 -0.2318
 5543TIP3    H116570   3.517   0.193   5.788  0.5810 -1.8754  0.0873
 5543TIP3    H216571   3.479   0.071   5.706 -0.5272 -0.0955 -2.1762
 5544TIP3   OH216572   3.505   6.094   4.943 -0.8429 -0.3163  0.3810
 5544TIP3    H116573   3.487   6.152   5.017  0.5062 -1.3997  1.6231
 5544TIP3    H216574   3.532   6.153   4.872 -2.1796  0.7392  0.7094
 5545TIP3   OH216575   6.975   0.952   1.140  0.4385 -0.1428  0.5049
 5545TIP3    H116576   7.010   1.016   1.202 -0.7890 -0.8681  2.0101
 5545TIP3    H216577   7.040   0.882   1.139  1.1055  0.4585 -0.0866
 5546TIP3   OH216578   7.780   3.120   3.284 -0.1335  0.2629  0.0142
 5546TIP3    H116579   7.828   3.155   3.360 -0.2243  2.1741 -0.7599
 5546TIP3    H216580   7.838   3.134   3.210 -0.3979 -0.8249 -0.4201
 5547TIP3   OH216581   3.330   1.423   4.117  0.1989 -0.2512 -0.2678
 5547TIP3    H116582   3.404   1.362   4.114  0.7769  0.3967  0.3284
 5547TIP3    H216583   3.252   1.368   4.111  0.6211 -1.2583  2.4290
 5548TIP3   OH216584   7.026   2.659   2.001  0.0038  0.6363 -0.5866
 5548TIP3    H116585   7.049   2.592   1.937  0.3550  0.8797 -0.7167
 5548TIP3    H216586   7.106   2.674   2.051  0.2866  1.8084 -1.3315
 5549TIP3   OH216587   3.993   0.473   2.528  0.0017 -0.2270 -0.3370
 5549TIP3    H116588   4.071   0.525   2.506 -0.1198  0.2902  0.4001
 5549TIP3    H216589   3.921   0.521   2.488  0.0194 -0.5145 -0.7181
 5550TIP3   OH216590   1.252   4.913   3.077  0.3749  0.6897 -0.1163
 5550TIP3    H116591   1.347   4.907   3.086  0.4036  2.0695  0.7323
 5550TIP3    H216592   1.218   4.851   3.141  0.6927  0.4996 -0.1289
 5551TIP3   OH216593   3.428   5.412   1.112  0.2600 -0.0485 -0.6341
 5551TIP3    H116594   3.386   5.447   1.191  0.3552  1.4658 -1.2181
 5551TIP3    H216595   3.432   5.317   1.127 -0.9121  0.0666  0.5916
 5552TIP3   OH216596   3.795   1.826   2.227 -0.2760 -0.3378 -0.6034
 5552TIP3    H116597   3.717   1.876   2.250  0.0187  0.1953 -0.7507
 5552TIP3    H216598   3.860   1.853   2.291 -0.0893 -0.4705 -0.7379
 5553TIP3   OH216599   3.238   5.788   3.167 -0.1691  0.3403  0.0205
 5553TIP3    H116600   3.179   5.792   3.242  1.0781 -3.1219  1.3886
 5553TIP3    H216601   3.326   5.788   3.206  0.6276  1.2771 -1.6780
 5554TIP3   OH216602   5.075   6.310   1.066 -0.3756 -0.4715  0.5303
 5554TIP3    H116603   5.051   6.217   1.069 -0.8795 -0.3410  0.7040
 5554TIP3    H216604   5.080   6.336   1.158  1.0398 -0.6400  0.5153
 5555TIP3   OH216605   0.776   7.619   2.795 -0.2382  0.2518  0.3902
 5555TIP3    H116606   0.841   7.675   2.752 -0.9619  0.0475 -1.0470
 5555TIP3    H216607   0.794   7.531   2.761 -0.5837  0.0112  0.8241
 5556TIP3   OH216608   8.213   4.514   3.918  0.2221  0.2432 -0.0337
 5556TIP3    H116609   8.123   4.488   3.937  0.4128 -1.6789 -1.4630
 5556TIP3    H216610   8.264   4.476   3.989 -0.1765  2.4598  1.5146
 5557TIP3   OH216611   5.778   2.894   3.990  0.1593 -0.8154 -0.7891
 5557TIP3    H116612   5.746   2.962   4.050 -0.0872  0.6453 -2.4864
 5557TIP3    H216613   5.703   2.874   3.934  0.8042 -1.0300 -1.5915
 5558TIP3   OH216614   6.611   1.992   1.102  0.1925  0.3147  0.0643
 5558TIP3    H116615   6.549   1.929   1.066  1.2346 -0.2055 -0.8933
 5558TIP3    H216616   6.677   2.004   1.033  0.2553  2.1531  0.3708
 5559TIP3   OH216617   0.787   1.984   3.726  0.1750  0.3250 -0.3704
 5559TIP3    H116618   0.856   2.025   3.673  1.4036 -0.5531  0.4832
 5559TIP3    H216619   0.740   2.057   3.765  1.8525  0.9617  0.5352
 5560TIP3   OH216620   1.941   6.196   3.599 -0.3778 -0.3052  0.4470
 5560TIP3    H116621   1.863   6.229   3.554  0.5638  0.5602 -0.5807
 5560TIP3    H216622   1.995   6.273   3.614 -0.3535 -0.6695  2.5020
 5561TIP3   OH216623   2.787   2.243   1.034  0.2774  0.1602 -0.1421
 5561TIP3    H116624   2.724   2.174   1.013 -0.1071 -0.0854  1.5988
 5561TIP3    H216625   2.845   2.247   0.958  1.0654 -2.9515  0.1201
 5562TIP3   OH216626   1.951   2.581   2.048  0.3924  0.3929 -0.3806
 5562TIP3    H116627   2.014   2.546   2.112  3.0769  0.4372 -2.8194
 5562TIP3    H216628   1.905   2.503   2.015  0.0276  0.2128  0.5239
 5563TIP3   OH216629   0.597   1.395   5.070  0.7295 -0.0498  0.1414
 5563TIP3    H116630   0.559   1.317   5.029  1.4965  0.4693 -1.6472
 5563TIP3    H216631   0.667   1.421   5.011 -1.3740  3.7324 -1.0009
 5564TIP3   OH216632   2.035   4.468   0.388  0.5808  0.1491  0.1024
 5564TIP3    H116633   2.025   4.500   0.477  1.0942  0.8146 -0.0724
 5564TIP3    H216634   2.129   4.458   0.376  0.6305  1.3707 -0.7911
 5565TIP3   OH216635   3.666   2.073   6.229  0.3730  0.3794 -0.5193
 5565TIP3    H116636   3.680   1.978   6.235  0.7546  0.4486 -0.1660
 5565TIP3    H216637   3.674   2.103   6.320  1.1330  0.8562 -0.7295
 5566TIP3   OH216638   7.080   4.333   4.183  0.3534  0.2065 -0.5033
 5566TIP3    H116639   7.078   4.242   4.154  0.1756 -1.6725  4.4282
 5566TIP3    H216640   6.988   4.359   4.187  0.1671 -0.5331  0.7625
 5567TIP3   OH216641   7.068   3.266   1.146 -0.4188  0.5729 -0.0158
 5567TIP3    H116642   7.139   3.276   1.209 -1.3075  1.4279  0.8714
 5567TIP3    H216643   7.103   3.301   1.064  0.6553 -0.3136  0.0473
 5568TIP3   OH216644   3.301   1.771   6.243 -0.2435 -0.3277 -0.4003
 5568TIP3    H116645   3.207   1.778   6.260  0.0949 -0.1176  1.5977
 5568TIP3    H216646   3.341   1.831   6.305  1.2404 -0.4495 -1.1972
 5569TIP3   OH216647   7.678   2.014   5.029  0.2180  0.1589  0.2859
 5569TIP3    H116648   7.584   2.017   5.010  0.2188  0.9705  0.3773
 5569TIP3    H216649   7.685   2.046   5.118  0.6686  1.0617 -0.0627
 5570TIP3   OH216650   2.138   3.138   4.546  0.0532  0.1305 -0.2667
 5570TIP3    H116651   2.056   3.136   4.595  1.4944 -2.0527  2.3489
 5570TIP3    H216652   2.193   3.199   4.595  0.7172 -0.1740 -0.6231
 5571TIP3   OH216653   2.038   1.753   4.989 -0.3016 -0.4315  0.1741
 5571TIP3    H116654   1.966   1.814   4.972  0.2651  0.6039  1.3358
 5571TIP3    H216655   2.113   1.791   4.944 -0.5570 -1.8170 -1.5379
 5572TIP3   OH216656   0.719   4.088   5.061  0.0783 -0.1717  0.3475
 5572TIP3    H116657   0.725   4.102   5.156  2.4844 -0.6534  0.3439
 5572TIP3    H216658   0.744   3.996   5.049  0.9997  0.2068 -0.8199
 5573TIP3   OH216659   6.069   5.634   0.326 -0.0316 -0.1340 -0.2614
 5573TIP3    H116660   6.023   5.577   0.265 -0.1080  0.4383 -0.7433
 5573TIP3    H216661   6.042   5.603   0.413 -0.5679 -0.4137 -0.5248
 5574TIP3   OH216662   1.309   0.433   6.115  0.6780  0.4929  0.1248
 5574TIP3    H116663   1.292   0.515   6.069 -0.4547 -0.4996 -1.3479
 5574TIP3    H216664   1.379   0.454   6.177 -0.6496  2.9274  0.9103
 5575TIP3   OH216665   1.082   6.736   5.559 -0.1593  0.4491 -0.5011
 5575TIP3    H116666   0.987   6.735   5.571 -0.2315  1.3638 -0.9043
 5575TIP3    H216667   1.100   6.660   5.503 -0.3322 -1.1967  1.5403
 5576TIP3   OH216668   6.694   4.951   5.755  0.4903  0.2472 -0.2124
 5576TIP3    H116669   6.652   4.976   5.837  1.2403 -0.7238  0.4997
 5576TIP3    H216670   6.731   5.032   5.720 -1.4365  1.0230 -0.5800
 5577TIP3   OH216671   5.446   7.296   6.686  0.1532  0.2406 -0.3927
 5577TIP3    H116672   5.449   7.349   6.766  1.7326  1.1925 -1.0238
 5577TIP3    H216673   5.527   7.244   6.689 -0.9623 -1.5552 -0.1981
 5578TIP3   OH216674   2.037   1.366   4.757  0.5076  0.2298 -0.4429
 5578TIP3    H116675   2.083   1.441   4.718  2.2240  0.3380  1.6011
 5578TIP3    H216676   1.993   1.403   4.834  0.3512 -0.6341 -0.1069
 5579TIP3   OH216677   2.630   1.901   2.070 -1.1043 -0.1697  0.4184
 5579TIP3    H116678   2.556   1.910   2.010 -1.9528 -1.6729  1.1740
 5579TIP3    H216679   2.707   1.898   2.013 -1.8048 -0.6119 -0.5340
 5580TIP3   OH216680   7.815   2.097   1.325  0.6682 -0.2495  0.2375
 5580TIP3    H116681   7.814   2.179   1.276  2.5261 -0.4488 -0.1828
 5580TIP3    H216682   7.848   2.032   1.263 -2.8598 -1.8878 -0.1780
 5581TIP3   OH216683   0.435   0.174   4.242 -0.3874  0.0608 -0.3042
 5581TIP3    H116684   0.426   0.081   4.264  1.2959  0.2976  1.7914
 5581TIP3    H216685   0.474   0.174   4.155  1.1485 -1.3001  0.3116
 5582TIP3   OH216686   3.962   1.137   2.280  0.5299  0.2737 -0.1184
 5582TIP3    H116687   4.047   1.165   2.312 -0.1403  0.6754  1.4514
 5582TIP3    H216688   3.960   1.164   2.189  1.3179  2.0939  0.3583
 5583TIP3   OH216689   0.914   3.159   2.901  0.5149 -0.1784  0.1748
 5583TIP3    H116690   0.902   3.171   2.995  0.7322 -1.4633  0.3854
 5583TIP3    H216691   0.832   3.190   2.862  0.7733  1.2122  0.6985
 5584TIP3   OH216692   5.535   3.208   6.241 -0.4514  0.1308 -0.0199
 5584TIP3    H116693   5.508   3.287   6.194 -1.4803  0.4847  1.1099
 5584TIP3    H216694   5.492   3.137   6.195  1.6418  0.0044 -1.9511
 5585TIP3   OH216695   6.391   2.376   3.447  0.2365 -0.5160 -0.7481
 5585TIP3    H116696   6.445   2.298   3.435 -0.1006 -0.6340 -1.5548
 5585TIP3    H216697   6.342   2.384   3.365 -1.3888 -0.7283  0.1690
 5586TIP3   OH216698   3.974   0.455   6.108 -0.8666 -0.2712 -0.2044
 5586TIP3    H116699   3.885   0.438   6.076 -0.6256  1.2871 -1.8885
 5586TIP3    H216700   4.022   0.375   6.091 -1.8664 -1.0534  0.5023
 5587TIP3   OH216701   4.628   3.555   2.012 -0.7407  0.7648  0.2228
 5587TIP3    H116702   4.538   3.565   1.982 -0.2934  2.0264 -0.7927
 5587TIP3    H216703   4.649   3.638   2.055 -0.6373 -0.1953  2.1521
 5588TIP3   OH216704   6.530   2.673   0.789 -0.0358  0.6183 -0.4622
 5588TIP3    H116705   6.623   2.673   0.767  0.1466 -0.9245  0.1657
 5588TIP3    H216706   6.527   2.664   0.884 -0.8242  0.4896 -0.4864
 5589TIP3   OH216707   1.932   4.621   6.560 -0.4054 -0.3644 -0.4074
 5589TIP3    H116708   1.908   4.561   6.489  1.4958 -1.1004 -0.4766
 5589TIP3    H216709   2.027   4.631   6.552 -0.3212  0.5100  1.2931
 5590TIP3   OH216710   1.245   4.179   5.362 -0.3356 -0.1802 -0.3349
 5590TIP3    H116711   1.270   4.089   5.382  2.8712  0.2202 -1.8996
 5590TIP3    H216712   1.219   4.177   5.270  0.3731  0.5646 -0.5625
 5591TIP3   OH216713   2.662   7.811   4.317 -0.1582 -0.3655  0.2761
 5591TIP3    H116714   2.706   7.750   4.257  0.8676  0.2185  0.4036
 5591TIP3    H216715   2.591   7.761   4.355 -0.6383 -0.8553 -1.1894
 5592TIP3   OH216716   7.360   0.198   2.923  0.1263  0.1566  0.1494
 5592TIP3    H116717   7.317   0.284   2.926  0.5882  0.4118 -0.4261
 5592TIP3    H216718   7.425   0.206   2.853  2.8778  0.5863  2.5905
 5593TIP3   OH216719   7.211   2.841   3.987  0.0643 -0.1699 -0.4748
 5593TIP3    H116720   7.284   2.780   3.978 -0.7464 -1.3830  0.8163
 5593TIP3    H216721   7.135   2.793   3.956 -0.2112  1.1331 -1.9253
 5594TIP3   OH216722   6.631   6.743   0.893  0.0682  0.2417 -0.2481
 5594TIP3    H116723   6.703   6.801   0.920  0.9392 -0.9853  0.1326
 5594TIP3    H216724   6.675   6.665   0.860 -1.0995 -0.3575 -0.4099
 5595TIP3   OH216725   4.320   4.044   1.673  0.1053 -0.5676  0.2505
 5595TIP3    H116726   4.333   4.098   1.751  0.1654  1.3296 -0.9915
 5595TIP3    H216727   4.305   3.956   1.706 -0.0808  0.2210  2.3942
 5596TIP3   OH216728   6.668   6.396   2.002 -0.4600  0.4278 -0.0838
 5596TIP3    H116729   6.673   6.309   1.961 -1.2691 -0.2040  1.0827
 5596TIP3    H216730   6.596   6.388   2.065  0.8458  1.2677  1.5875
 5597TIP3   OH216731   1.253   4.061   4.931  0.1685  0.2536  0.3860
 5597TIP3    H116732   1.327   4.113   4.962  0.4584  1.0372 -1.4762
 5597TIP3    H216733   1.203   4.121   4.876  0.5772 -1.4201 -1.9559
 5598TIP3   OH216734   0.720   7.505   0.762 -0.0507 -0.0349 -0.7356
 5598TIP3    H116735   0.686   7.437   0.820  1.1985 -0.2923 -0.2889
 5598TIP3    H216736   0.774   7.459   0.699 -0.8740  0.3197 -1.7370
 5599TIP3   OH216737   8.265   2.763   2.865  0.3745 -0.2232 -0.0495
 5599TIP3    H116738   8.284   2.754   2.958 -0.0987  0.2368  0.1017
 5599TIP3    H216739   8.250   2.673   2.835 -2.1604 -0.2339  0.9370
 5600TIP3   OH216740   5.493   5.329   4.055 -0.3176  0.1163  0.0549
 5600TIP3    H116741   5.544   5.303   3.978  2.7632  2.7986  1.0000
 5600TIP3    H216742   5.505   5.256   4.117 -2.4775 -1.8667 -1.6535
 5601TIP3   OH216743   0.242   6.330   1.592  0.0890 -0.1688  0.5132
 5601TIP3    H116744   0.211   6.370   1.511  0.1860 -1.1834 -0.0403
 5601TIP3    H216745   0.188   6.371   1.660 -2.8144 -2.0592 -0.4369
 5602TIP3   OH216746   0.219   2.051   0.120 -0.0155 -0.2796  0.0870
 5602TIP3    H116747   0.266   2.055   0.203 -1.3765 -0.7158  0.9137
 5602TIP3    H216748   0.178   1.964   0.120 -0.9420  0.1400 -0.5235
 5603TIP3   OH216749   2.030   5.705   4.965 -0.3851 -0.3166 -0.0258
 5603TIP3    H116750   2.070   5.698   5.051  3.1071 -2.1756 -1.6123
 5603TIP3    H216751   1.997   5.617   4.946  0.2099 -0.3244 -1.1229
 5604TIP3   OH216752   1.698   3.702   5.341 -0.0385  0.4974 -0.2391
 5604TIP3    H116753   1.788   3.691   5.372  0.1464  0.4697 -0.7838
 5604TIP3    H216754   1.698   3.665   5.253 -0.7009  0.0590 -0.0577
 5605TIP3   OH216755   5.342   4.993   2.902  0.5524 -0.2817  0.3935
 5605TIP3    H116756   5.267   5.035   2.860  1.2417  1.5934  0.9280
 5605TIP3    H216757   5.414   5.004   2.840  0.7781 -0.6139  0.5893
 5606TIP3   OH216758   3.211   1.105   6.510 -0.3920  0.8984  0.1469
 5606TIP3    H116759   3.184   1.026   6.463 -0.1197 -0.1917  1.7381
 5606TIP3    H216760   3.129   1.142   6.544 -0.2574 -1.4723  3.5283
 5607TIP3   OH216761   0.223   7.538   2.900 -0.2716  0.1928  0.2810
 5607TIP3    H116762   0.133   7.507   2.907 -0.6926  1.1320 -0.7104
 5607TIP3    H216763   0.217   7.633   2.907  0.7035  0.2373  0.6790
 5608TIP3   OH216764   6.804   5.836   0.860 -0.0122 -0.1057  0.1971
 5608TIP3    H116765   6.843   5.809   0.943 -0.1932  1.6462  0.9061
 5608TIP3    H216766   6.713   5.810   0.867  0.6514 -3.0559 -0.9312
 5609TIP3   OH216767   6.281   6.462   3.348 -0.0178 -0.2462  0.4251
 5609TIP3    H116768   6.299   6.552   3.373 -0.6976 -0.2686  1.0233
 5609TIP3    H216769   6.187   6.451   3.363 -0.0987 -0.8190 -0.3918
 5610TIP3   OH216770   5.787   2.073   0.286 -0.6152 -0.1086 -0.0272
 5610TIP3    H116771   5.765   1.996   0.339  0.9747 -0.4995  0.1414
 5610TIP3    H216772   5.746   2.146   0.331 -0.4342 -0.6106  0.9939
 5611TIP3   OH216773   4.762   7.249   4.486  0.0371  0.2070 -0.5405
 5611TIP3    H116774   4.767   7.338   4.520 -0.7673 -0.5457  1.7478
 5611TIP3    H216775   4.853   7.224   4.471  0.2428  1.5840 -1.7945
 5612TIP3   OH216776   5.344   1.027   5.362 -0.1213  0.6176 -0.2308
 5612TIP3    H116777   5.396   0.972   5.303 -1.1558 -0.1554 -0.4550
 5612TIP3    H216778   5.256   1.027   5.323 -0.3057  1.8510  0.1593
 5613TIP3   OH216779   4.750   7.444   2.862 -0.2187  0.4193  0.2095
 5613TIP3    H116780   4.800   7.505   2.916  0.3086  1.5075 -1.4354
 5613TIP3    H216781   4.777   7.357   2.893  0.6838  1.0019  1.1192
 5614TIP3   OH216782   6.208   0.153   1.269  1.1485  0.3514  0.2687
 5614TIP3    H116783   6.244   0.239   1.246 -0.0173  0.3453 -1.8559
 5614TIP3    H216784   6.197   0.109   1.185  1.8621 -1.9771  1.3252
 5615TIP3   OH216785   3.823   3.671   2.719  0.1238 -0.0255  0.0293
 5615TIP3    H116786   3.765   3.598   2.696  2.6873 -2.4717  0.7620
 5615TIP3    H216787   3.809   3.683   2.813 -0.2049  0.3508 -0.0666
 5616TIP3   OH216788   4.719   6.178   6.087  0.1380 -0.1202 -0.1923
 5616TIP3    H116789   4.759   6.241   6.028  1.8399  0.3321  1.3666
 5616TIP3    H216790   4.648   6.226   6.129  0.2435  0.1883 -0.3630
 5617TIP3   OH216791   4.774   1.189   6.056  0.0030  0.1054  0.4362
 5617TIP3    H116792   4.853   1.230   6.092  0.5141 -1.3016  0.9778
 5617TIP3    H216793   4.806   1.129   5.990 -0.5823 -0.6958  0.8684
 5618TIP3   OH216794   2.197   6.904   3.621  0.3269 -0.0529 -0.4129
 5618TIP3    H116795   2.212   6.845   3.548  1.2285 -0.3716  0.0199
 5618TIP3    H216796   2.222   6.990   3.588 -1.6097  0.2455 -1.2588
 5619TIP3   OH216797   3.353   7.720   5.756  0.7050 -0.1011 -0.3289
 5619TIP3    H116798   3.344   7.748   5.666  0.5596 -2.1228 -0.9973
 5619TIP3    H216799   3.440   7.679   5.760  1.5299  1.6605  0.9679
 5620TIP3   OH216800   1.573   4.073   0.008  0.1988  0.5063  0.6218
 5620TIP3    H116801   1.580   4.166   0.027  0.6997 -0.1924  4.7035
 5620TIP3    H216802   1.479   4.057  -0.001 -0.3471  0.8825  4.2359
 5621TIP3   OH216803   2.761   7.165   2.021  0.1254  0.2204  0.1166
 5621TIP3    H116804   2.829   7.139   1.959  0.7100 -1.4857  1.3946
 5621TIP3    H216805   2.808   7.193   2.100 -0.5930 -1.3415  1.1563
 5622TIP3   OH216806   4.594   0.501   4.529  0.4592 -0.0228  0.6709
 5622TIP3    H116807   4.514   0.499   4.476  1.1754  0.0718 -0.4374
 5622TIP3    H216808   4.583   0.578   4.585  0.9574  1.6548 -1.4134
 5623TIP3   OH216809   4.042   0.454   5.527  0.3338  0.3751  0.8126
 5623TIP3    H116810   4.135   0.458   5.550  0.2620  1.5219  0.9658
 5623TIP3    H216811   4.000   0.414   5.602  0.9341 -2.0659 -0.0668
 5624TIP3   OH216812   5.572   5.428   0.236 -0.0323  0.5835 -0.0596
 5624TIP3    H116813   5.629   5.448   0.310 -1.5568  2.3460  0.7339
 5624TIP3    H216814   5.631   5.411   0.163  1.4944  1.7961  0.8401
 5625TIP3   OH216815   3.074   5.509   5.018  0.1463 -0.4751  0.5948
 5625TIP3    H116816   3.045   5.419   4.999 -0.5624 -0.0509 -0.3999
 5625TIP3    H216817   3.132   5.531   4.946  0.7852 -0.3225  1.1420
 5626TIP3   OH216818   4.867   7.023   2.360  0.4642 -0.3788 -0.3250
 5626TIP3    H116819   4.898   7.105   2.322 -2.4304  0.9940  0.0408
 5626TIP3    H216820   4.944   6.987   2.405  1.6864  2.4457  0.0548
 5627TIP3   OH216821   7.115   0.461   3.219  0.2763 -0.7298 -0.5341
 5627TIP3    H116822   7.072   0.544   3.242  0.7746 -0.4775 -0.5013
 5627TIP3    H216823   7.208   0.478   3.232  0.3550 -1.4139 -0.1667
 5628TIP3   OH216824   7.341   0.783   5.794  0.3379  0.0283  0.1901
 5628TIP3    H116825   7.367   0.789   5.886  1.0404  0.5832 -0.0358
 5628TIP3    H216826   7.348   0.872   5.761  0.5748 -0.2504 -0.5316
 5629TIP3   OH216827   7.003   2.739   0.600 -0.0032  0.4216 -0.0653
 5629TIP3    H116828   7.046   2.760   0.683  0.9716  1.3300 -0.7716
 5629TIP3    H216829   6.937   2.807   0.589  0.8981  1.2187 -0.7423
 5630TIP3   OH216830   6.961   4.743   1.928  0.4781  0.0909  0.3665
 5630TIP3    H116831   6.991   4.773   1.842  1.3758 -2.7171 -0.4098
 5630TIP3    H216832   7.040   4.744   1.982  0.0913  1.0197  0.9405
 5631TIP3   OH216833   7.764   7.030   1.487  0.5462  0.3357 -0.1102
 5631TIP3    H116834   7.731   7.120   1.482  1.4951  0.6359 -1.9016
 5631TIP3    H216835   7.836   7.035   1.549  1.5876  1.1982 -1.3229
 5632TIP3   OH216836   7.185   1.822   3.108  0.3903 -0.2565 -0.2174
 5632TIP3    H116837   7.158   1.911   3.088  0.7716 -0.4440 -1.6734
 5632TIP3    H216838   7.212   1.785   3.023  3.2053 -0.7530  0.7843
 5633TIP3   OH216839   1.364   7.138   5.340  0.0285 -0.1721 -0.3161
 5633TIP3    H116840   1.342   7.065   5.398  0.7969 -0.9179 -0.9415
 5633TIP3    H216841   1.355   7.216   5.395 -0.9633 -0.7160  0.3117
 5634TIP3   OH216842   7.273   3.449   1.416 -0.0765 -0.7505  0.0152
 5634TIP3    H116843   7.330   3.514   1.456  1.5112 -1.3804 -1.1150
 5634TIP3    H216844   7.321   3.419   1.338 -2.3731 -0.6209 -1.5588
 5635TIP3   OH216845   3.998   2.227   0.626  0.7610 -0.2335  0.1223
 5635TIP3    H116846   4.056   2.182   0.687  0.6711  1.6820  1.7174
 5635TIP3    H216847   3.915   2.233   0.672  1.2252  2.9813  0.7382
 5636TIP3   OH216848   5.906   4.045   3.253 -0.4678  0.4729 -0.6775
 5636TIP3    H116849   5.845   4.013   3.188 -2.2631  0.9715  0.6848
 5636TIP3    H216850   5.855   4.050   3.334  1.6991 -0.2609  0.8310
 5637TIP3   OH216851   1.067   5.454   1.832  0.1794 -0.1342 -0.1535
 5637TIP3    H116852   1.050   5.385   1.896  2.0148  0.6230  1.2493
 5637TIP3    H216853   0.982   5.496   1.819 -0.4287 -0.9119  1.0787
 5638TIP3   OH216854   5.183   7.388   1.654 -0.1823  0.0607  0.0001
 5638TIP3    H116855   5.192   7.475   1.614 -1.4048  0.3981  0.4125
 5638TIP3    H216856   5.174   7.329   1.579  0.3995  0.3150 -0.2782
 5639TIP3   OH216857   6.416   4.169   1.287  0.3178  0.1275 -0.8377
 5639TIP3    H116858   6.373   4.136   1.208  0.0362 -0.4909 -0.4281
 5639TIP3    H216859   6.495   4.116   1.295  0.7205  0.6766 -1.1006
 5640TIP3   OH216860   0.848   0.233   0.599  0.6614  0.5351  0.1343
 5640TIP3    H116861   0.931   0.189   0.581 -0.0734 -0.4640 -0.9724
 5640TIP3    H216862   0.865   0.326   0.579  0.8471 -0.0120 -2.6408
 5641TIP3   OH216863   1.865   5.094   4.601 -0.2753  0.4746 -0.0025
 5641TIP3    H116864   1.873   5.170   4.543  1.2407 -0.3704 -0.9514
 5641TIP3    H216865   1.941   5.039   4.581 -1.2041 -1.2034  0.8162
 5642TIP3   OH216866   0.176   3.719   4.291  0.0230 -0.0026 -0.2416
 5642TIP3    H116867   0.096   3.688   4.333  0.2029  0.5215  0.5148
 5642TIP3    H216868   0.245   3.704   4.356  0.4507  0.0554 -0.6744
 5643TIP3   OH216869   6.584   7.176   5.999 -0.2661  0.2792 -0.2008
 5643TIP3    H116870   6.630   7.186   6.082  0.6867  0.5487 -0.7534
 5643TIP3    H216871   6.499   7.137   6.023  0.1011  0.1144  0.8612
 5644TIP3   OH216872   4.277   2.680   0.825  0.4275 -0.0718  0.3356
 5644TIP3    H116873   4.371   2.662   0.824  0.4990  0.3315 -0.3734
 5644TIP3    H216874   4.260   2.725   0.743 -0.3220  0.2086  0.6371
 5645TIP3   OH216875   2.464   1.046   0.429  0.6124 -0.0568 -0.0827
 5645TIP3    H116876   2.393   1.018   0.487  0.9094  0.4048  0.5138
 5645TIP3    H216877   2.459   0.987   0.355 -0.0469 -0.3857  0.2172
 5646TIP3   OH216878   6.712   1.860   5.383  0.4739  0.5755  0.0427
 5646TIP3    H116879   6.802   1.835   5.361  0.2443 -1.3067  1.0908
 5646TIP3    H216880   6.721   1.923   5.454  0.9685  0.2152  0.3032
 5647TIP3   OH216881   4.421   7.096   5.475  0.5164 -0.2679 -0.3769
 5647TIP3    H116882   4.357   7.106   5.404  1.0270 -0.0652 -0.8154
 5647TIP3    H216883   4.426   7.002   5.490 -3.2422 -0.2223  2.7757
 5648TIP3   OH216884   1.524   2.861   0.378 -0.5116 -0.3633  0.2561
 5648TIP3    H116885   1.503   2.904   0.296 -1.5126 -1.1842  0.0518
 5648TIP3    H216886   1.525   2.767   0.356 -1.3168 -0.6295  1.2660
 5649TIP3   OH216887   3.975   3.208   4.931  0.3102 -0.3178 -0.2827
 5649TIP3    H116888   3.983   3.203   5.026  2.2876  0.0778 -0.3943
 5649TIP3    H216889   4.027   3.135   4.898 -0.7845 -0.7705 -1.0849
 5650TIP3   OH216890   6.982   5.758  -0.029  0.1940  0.1789  0.5934
 5650TIP3    H116891   6.915   5.824  -0.015  0.1305  0.2430  0.0089
 5650TIP3    H216892   6.977   5.701   0.049 -1.1998 -0.3965  0.1153
 5651TIP3   OH216893   5.810   7.518   0.620  0.8209 -0.1217 -0.2910
 5651TIP3    H116894   5.729   7.469   0.631  0.7969  0.1615  0.9304
 5651TIP3    H216895   5.853   7.476   0.546 -0.6520  0.0316 -1.2693
 5652TIP3   OH216896   2.374   4.322   1.515  0.2544  0.1426  0.1636
 5652TIP3    H116897   2.317   4.309   1.440 -0.2036  0.5679  0.4334
 5652TIP3    H216898   2.352   4.250   1.574  0.0843  0.2341  0.2124
 5653TIP3   OH216899   0.809   5.339   1.106  0.0374 -0.0807  0.2526
 5653TIP3    H116900   0.855   5.415   1.143  2.4747 -1.9328  1.3713
 5653TIP3    H216901   0.729   5.331   1.158  1.0222  0.2442  1.8988
 5654TIP3   OH216902   5.913   5.720   2.667 -0.6023 -1.0071 -0.1043
 5654TIP3    H116903   5.827   5.690   2.636 -0.7297 -0.2083 -0.5771
 5654TIP3    H216904   5.970   5.711   2.590 -0.9050  0.9376 -0.6279
 5655TIP3   OH216905   5.295   1.453   5.759 -0.1899 -0.0555 -0.6067
 5655TIP3    H116906   5.200   1.447   5.749 -0.3498  1.1135  0.0335
 5655TIP3    H216907   5.325   1.501   5.682 -0.2926  0.6974 -0.1941
 5656TIP3   OH216908   4.607   2.491   4.654  0.5568 -0.0910 -0.3145
 5656TIP3    H116909   4.536   2.517   4.595  0.2054  1.1853  0.6337
 5656TIP3    H216910   4.687   2.508   4.604  0.2378 -1.8415 -1.5129
 5657TIP3   OH216911   7.354   2.326   3.722 -0.2769  0.2551  0.0579
 5657TIP3    H116912   7.408   2.249   3.739 -0.4713 -0.0420 -0.6741
 5657TIP3    H216913   7.301   2.303   3.646  1.0876  1.8236 -1.4587
 5658TIP3   OH216914   8.061   4.960   1.438 -0.3347  0.2600 -0.5577
 5658TIP3    H116915   7.999   4.975   1.510 -1.0184  1.2160 -1.3189
 5658TIP3    H216916   8.105   4.879   1.461 -1.7674 -0.3713  0.0881
 5659TIP3   OH216917   1.164   0.099   4.591 -0.0681 -0.0175 -0.0275
 5659TIP3    H116918   1.223   0.130   4.660 -0.5663 -0.3873  0.5755
 5659TIP3    H216919   1.175   0.004   4.591  0.2113  0.0124 -0.7226
 5660TIP3   OH216920   3.865   1.376   3.497 -0.3443  0.1625  0.0896
 5660TIP3    H116921   3.844   1.298   3.549 -0.0249  0.5140  0.7662
 5660TIP3    H216922   3.960   1.373   3.486 -0.5400 -0.5823 -1.5976
 5661TIP3   OH216923   4.380   3.505   3.238 -0.1108  0.1528  0.6818
 5661TIP3    H116924   4.419   3.515   3.152  0.9624  0.1796  1.1542
 5661TIP3    H216925   4.286   3.518   3.224  0.0799  0.3947 -0.4344
 5662TIP3   OH216926   7.345   6.787   2.668  0.5518  0.5375 -0.4202
 5662TIP3    H116927   7.280   6.765   2.736  0.0636  0.2247 -0.9724
 5662TIP3    H216928   7.388   6.703   2.649 -1.0983  0.0322 -2.3094
 5663TIP3   OH216929   2.163   2.070   4.979 -0.5515 -0.5595 -0.1314
 5663TIP3    H116930   2.189   1.983   4.947 -0.5878 -0.4259 -0.5298
 5663TIP3    H216931   2.125   2.113   4.903 -1.1344 -0.4299  0.2282
 5664TIP3   OH216932   6.129   3.000   1.292  0.0290  0.1946  0.3269
 5664TIP3    H116933   6.039   2.975   1.310 -0.3541  1.4522  0.2714
 5664TIP3    H216934   6.142   2.981   1.199 -0.7094  1.4337 -0.0656
 5665TIP3   OH216935   4.062   3.588   4.767  0.5046  0.4473  0.0523
 5665TIP3    H116936   4.042   3.526   4.696 -0.1028  1.5737 -0.7975
 5665TIP3    H216937   4.052   3.674   4.727  1.8388  1.1142  1.0717
 5666TIP3   OH216938   5.173   3.307   1.472  0.3409  0.1130 -0.0224
 5666TIP3    H116939   5.146   3.337   1.385  1.8319 -2.5408 -1.5163
 5666TIP3    H216940   5.112   3.237   1.494  0.8201 -0.1715  0.4326
 5667TIP3   OH216941   5.873   2.634   2.079  0.2620  0.7359 -0.0306
 5667TIP3    H116942   5.944   2.641   2.015  1.4170 -0.9688  0.9920
 5667TIP3    H216943   5.918   2.633   2.164 -1.1118  1.1416  0.7240
 5668TIP3   OH216944   7.802   7.375   5.309  0.1285  0.0063  0.7115
 5668TIP3    H116945   7.722   7.348   5.264 -0.5521  2.2310  0.4275
 5668TIP3    H216946   7.872   7.357   5.246 -0.5475  0.9358 -0.3584
 5669TIP3   OH216947   3.048   3.909   5.311 -0.2943  0.3322 -0.1756
 5669TIP3    H116948   3.073   3.968   5.382 -1.3237 -0.7275  1.1192
 5669TIP3    H216949   3.082   3.824   5.338 -0.3002 -0.0072 -1.1896
 5670TIP3   OH216950   5.075   3.464   4.686  0.1880  0.3176 -0.0969
 5670TIP3    H116951   5.050   3.440   4.775  1.9431 -0.0866  0.3195
 5670TIP3    H216952   5.003   3.430   4.632 -0.4346 -0.2924  1.0642
 5671TIP3   OH216953   2.282   5.850   5.303 -0.4304 -0.2859  0.4577
 5671TIP3    H116954   2.277   5.935   5.346 -1.4961 -0.5148  0.8030
 5671TIP3    H216955   2.366   5.814   5.330  0.2907  0.8814 -0.1346
 5672TIP3   OH216956   0.682   7.862   5.482  0.0059  0.0807  0.1043
 5672TIP3    H116957   0.751   7.925   5.462  0.4333 -0.8051 -1.4136
 5672TIP3    H216958   0.601   7.906   5.458  0.3418 -0.1079 -1.4621
 5673TIP3   OH216959   5.456   6.083   2.560  0.1290  0.2642  0.3613
 5673TIP3    H116960   5.397   6.119   2.626  1.5112  0.4433  1.5667
 5673TIP3    H216961   5.477   6.157   2.503 -1.3476  0.0272 -0.5290
 5674TIP3   OH216962   1.948   1.716   6.180 -0.0710 -0.3842 -0.1742
 5674TIP3    H116963   2.024   1.733   6.123  0.5407  1.3299  1.0758
 5674TIP3    H216964   1.969   1.632   6.221  0.2686 -0.8256 -1.1990
 5675TIP3   OH216965   4.045   5.778   6.583  0.2399 -0.0116 -0.1063
 5675TIP3    H116966   4.097   5.835   6.527 -0.7657 -0.3113 -1.4057
 5675TIP3    H216967   3.986   5.837   6.630 -0.6064  0.1045 -1.2414
 5676TIP3   OH216968   0.150   3.912   0.492 -0.0089 -0.1132 -0.7521
 5676TIP3    H116969   0.233   3.959   0.486  0.1825 -0.3676 -0.1072
 5676TIP3    H216970   0.152   3.851   0.418  1.4051 -1.7299  0.5359
 5677TIP3   OH216971   5.811   0.578   0.696 -0.7810  0.5674 -0.1994
 5677TIP3    H116972   5.781   0.664   0.666  0.6349  1.6539  1.2704
 5677TIP3    H216973   5.903   0.593   0.720 -0.0844 -1.7158 -1.2137
 5678TIP3   OH216974   0.352   4.965   3.500 -0.5308  0.3444  0.1067
 5678TIP3    H116975   0.349   4.955   3.595 -0.5313 -0.9430 -0.0159
 5678TIP3    H216976   0.261   4.951   3.471 -0.2015 -1.3328 -0.2417
 5679TIP3   OH216977   6.945   4.924   6.421  0.3931 -0.0096  0.7152
 5679TIP3    H116978   6.861   4.951   6.458  0.4287  0.1964  0.6437
 5679TIP3    H216979   6.925   4.900   6.330  0.1924 -1.0815  1.0196
 5680TIP3   OH216980   3.857   5.040   3.717  0.4694  0.2475 -0.1177
 5680TIP3    H116981   3.910   5.057   3.640  2.9749  0.2171  1.5032
 5680TIP3    H216982   3.908   4.978   3.769 -0.5696  1.0988  2.0742
 5681TIP3   OH216983   5.916   5.053   0.472  0.1015 -0.0319 -0.4075
 5681TIP3    H116984   5.848   5.120   0.474  0.3119  0.1699  0.3670
 5681TIP3    H216985   5.869   4.971   0.482  0.0780  0.2153  2.9144
 5682TIP3   OH216986   1.478   3.099   4.288 -0.1805 -0.2831  0.1208
 5682TIP3    H116987   1.407   3.041   4.316  0.2439 -0.8394  0.0640
 5682TIP3    H216988   1.434   3.180   4.260 -0.6116  0.4993  2.7854
 5683TIP3   OH216989   3.148   1.896   4.957 -0.0232  0.1786 -0.2019
 5683TIP3    H116990   3.177   1.812   4.920  0.2187  0.3780 -0.4636
 5683TIP3    H216991   3.197   1.905   5.039  0.3591  0.3256 -0.4464
 5684TIP3   OH216992   5.577   2.151   6.023 -0.3954  0.8544 -0.0280
 5684TIP3    H116993   5.607   2.061   6.035 -0.9859  0.6681  0.0901
 5684TIP3    H216994   5.504   2.160   6.084 -0.2881  1.4413  0.0197
 5685TIP3   OH216995   5.944   1.567   3.068 -0.4380 -0.0833 -0.2082
 5685TIP3    H116996   5.854   1.599   3.074 -0.2094  0.3022  1.4751
 5685TIP3    H216997   5.939   1.477   3.099 -0.1199  0.1960  0.6663
 5686TIP3   OH216998   1.871   0.447   6.055 -0.3839  0.3701 -0.2513
 5686TIP3    H116999   1.917   0.507   5.996 -1.2670  0.9899 -0.3351
 5686TIP3    H217000   1.938   0.418   6.118  0.1815  0.9939 -0.5567
 5687TIP3   OH217001   4.606   7.343   1.437 -0.2375  0.0651  0.2065
 5687TIP3    H117002   4.572   7.366   1.523  0.6996  0.2987  0.5226
 5687TIP3    H217003   4.692   7.384   1.433 -0.2803  0.0890 -0.8566
 5688TIP3   OH217004   4.144   5.262   5.853 -0.6290  0.1426  0.0114
 5688TIP3    H117005   4.140   5.348   5.895 -0.9473  1.1618 -1.9750
 5688TIP3    H217006   4.192   5.277   5.771  1.4816 -2.0933  0.7013
 5689TIP3   OH217007   7.621   6.295   0.595 -0.3521  0.3531  0.3161
 5689TIP3    H117008   7.576   6.238   0.532  0.5040 -1.2183  1.0653
 5689TIP3    H217009   7.598   6.384   0.567 -1.5451 -0.3303 -1.0452
 5690TIP3   OH217010   5.004   2.387   5.296  0.0431  0.3881  0.2944
 5690TIP3    H117011   4.917   2.347   5.298 -0.1320  0.7812  0.8240
 5690TIP3    H217012   5.047   2.354   5.375  0.8249 -0.7662 -0.5780
 5691TIP3   OH217013   0.708   6.108   6.307 -0.8916  0.3443  0.2510
 5691TIP3    H117014   0.749   6.047   6.367 -0.8446 -1.4811 -1.5476
 5691TIP3    H217015   0.775   6.125   6.240 -1.7000  0.4950 -0.5374
 5692TIP3   OH217016   3.161   7.212   6.457 -0.4751 -0.1023 -0.4990
 5692TIP3    H117017   3.076   7.180   6.489 -0.9822  3.8265  3.0431
 5692TIP3    H217018   3.225   7.170   6.515 -0.6581  1.1931  0.7001
 5693TIP3   OH217019   3.110   3.192   0.826  0.1963  0.2281  0.4402
 5693TIP3    H117020   3.019   3.194   0.799  0.6173  0.4545 -1.0519
 5693TIP3    H217021   3.153   3.259   0.773  0.7931  1.9605  2.9426
 5694TIP3   OH217022   2.409   4.378   1.189 -1.2745  0.4682 -0.0396
 5694TIP3    H117023   2.447   4.321   1.122 -0.0655  0.7300  0.4166
 5694TIP3    H217024   2.337   4.423   1.143 -1.5760 -0.6381 -0.6824
 5695TIP3   OH217025   0.621   6.419   5.603 -0.4178  0.1594 -0.6594
 5695TIP3    H117026   0.557   6.350   5.583 -0.4730 -0.2459  0.8402
 5695TIP3    H217027   0.632   6.466   5.520 -0.8896 -1.2298 -1.5437
 5696TIP3   OH217028   7.250   7.829   5.786  0.7268 -0.1257  0.0399
 5696TIP3    H117029   7.157   7.820   5.768  0.6585  1.9475 -0.9529
 5696TIP3    H217030   7.267   7.768   5.858 -1.4014 -0.4855  0.2945
 5697TIP3   OH217031   6.908   6.438   5.599 -0.2892  0.1258  0.2600
 5697TIP3    H117032   6.873   6.526   5.614  1.8149  1.0103  0.3597
 5697TIP3    H217033   6.976   6.428   5.666 -1.8272 -2.4268  1.5737
 5698TIP3   OH217034   2.293   7.528   5.885  0.7962  0.3181 -0.3564
 5698TIP3    H117035   2.236   7.470   5.835  0.1503  1.1317 -0.5697
 5698TIP3    H217036   2.370   7.539   5.830  1.0583 -0.5611 -0.1881
 5699TIP3   OH217037   6.169   7.003   0.416  0.3746  0.7202  0.0148
 5699TIP3    H117038   6.233   7.036   0.353  3.1243 -2.4228  0.8858
 5699TIP3    H217039   6.218   6.940   0.470 -3.1472 -0.8673  1.6976
 5700TIP3   OH217040   3.791   5.210   2.314 -0.6649 -0.1881  0.2511
 5700TIP3    H117041   3.866   5.249   2.358 -0.1925  0.4196 -1.0559
 5700TIP3    H217042   3.828   5.141   2.259 -0.7365  1.5643 -2.1222
 5701TIP3   OH217043   6.306   6.319   4.860 -0.1234  0.1517 -0.2288
 5701TIP3    H117044   6.253   6.248   4.898  1.0297 -0.2855  0.6010
 5701TIP3    H217045   6.277   6.398   4.906  3.3496 -0.7278  4.1096
 5702TIP3   OH217046   0.074   0.866   4.508 -0.0351  0.0733 -0.5369
 5702TIP3    H117047  -0.002   0.878   4.566  0.4913 -0.3502  0.2590
 5702TIP3    H217048   0.042   0.811   4.437 -0.2494 -0.8301  0.2495
 5703TIP3   OH217049   4.376   3.925   4.882 -0.3786  0.1374 -0.7495
 5703TIP3    H117050   4.410   4.014   4.873 -0.6876  0.3355 -0.0513
 5703TIP3    H217051   4.451   3.868   4.866  0.7292  0.5682  2.2611
 5704TIP3   OH217052   7.733   0.520   1.408 -0.2630  0.0076  0.0438
 5704TIP3    H117053   7.786   0.593   1.441  0.3833 -0.1522 -0.6111
 5704TIP3    H217054   7.701   0.550   1.323 -1.3705  0.1584  0.4872
 5705TIP3   OH217055   1.822   4.443   4.176 -0.3552  0.2394 -0.0302
 5705TIP3    H117056   1.845   4.535   4.186 -1.1869  0.5608 -0.8538
 5705TIP3    H217057   1.905   4.399   4.161  0.2941  0.5175  2.4275
 5706TIP3   OH217058   2.859   0.838   2.612 -0.1196  0.4094 -0.0377
 5706TIP3    H117059   2.853   0.751   2.652 -1.7141  0.4137 -0.2091
 5706TIP3    H217060   2.904   0.892   2.677 -0.0851 -0.2718  0.5184
 5707TIP3   OH217061   0.590   2.755   4.896  0.6136 -0.1626 -0.1957
 5707TIP3    H117062   0.665   2.812   4.916  1.7451 -1.5820 -0.1855
 5707TIP3    H217063   0.533   2.764   4.973  0.9030  0.7334 -0.0717
 5708TIP3   OH217064   4.200   2.420   4.688 -0.1693  0.0467 -0.8688
 5708TIP3    H117065   4.117   2.382   4.718  0.1786  0.6448  0.9708
 5708TIP3    H217066   4.212   2.498   4.742  2.1209 -0.5969 -0.3369
 5709TIP3   OH217067   1.664   1.697   6.625 -0.4142  0.1232 -0.3307
 5709TIP3    H117068   1.577   1.693   6.665 -0.0271 -1.9965  0.4338
 5709TIP3    H217069   1.664   1.779   6.576 -2.4235  0.7419  0.5899
 5710TIP3   OH217070   5.227   0.236   6.678  0.1061  0.0433  0.1960
 5710TIP3    H117071   5.311   0.193   6.661 -0.4407 -1.4848  1.1044
 5710TIP3    H217072   5.181   0.231   6.594  0.7460  0.4978 -0.1897
 5711TIP3   OH217073   7.057   6.956   6.743 -0.2921  0.1702 -0.0121
 5711TIP3    H117074   6.998   6.881   6.739 -0.3129  0.1339  0.8140
 5711TIP3    H217075   6.999   7.033   6.737 -0.2511  0.1294 -1.0834
 5712TIP3   OH217076   3.443   3.828   6.109  0.2933  0.6727 -0.0269
 5712TIP3    H117077   3.415   3.914   6.078  1.3160  0.8639 -0.4498
 5712TIP3    H217078   3.424   3.828   6.203 -1.8297  0.4946 -0.4061
 5713TIP3   OH217079   0.242   6.998   6.851  0.1024 -0.0805  0.0292
 5713TIP3    H117080   0.200   7.023   6.768 -3.2381 -1.7366  1.0485
 5713TIP3    H217081   0.211   7.062   6.914 -0.8770 -1.2540  0.7856
 5714TIP3   OH217082   6.289   4.822  -0.008  0.8661 -0.0555  0.1474
 5714TIP3    H117083   6.223   4.877   0.035  0.1485 -1.4724  0.9296
 5714TIP3    H217084   6.289   4.741   0.042  1.2061 -1.1413 -1.5229
 5715TIP3   OH217085   3.605   4.209   6.109  0.3185  0.6147  0.1614
 5715TIP3    H117086   3.572   4.280   6.164 -2.6661 -0.9408  0.5793
 5715TIP3    H217087   3.611   4.134   6.169  0.2016 -0.2990 -0.9418
 5716TIP3   OH217088   7.023   2.097   1.815  0.3332 -0.0298  0.6523
 5716TIP3    H117089   6.978   2.115   1.732 -0.7368  0.0234  1.2187
 5716TIP3    H217090   6.956   2.114   1.882  1.5785  1.3106  1.6192
 5717TIP3   OH217091   0.331   6.607   1.933 -0.6132  0.1130  0.0803
 5717TIP3    H117092   0.329   6.512   1.945  1.2396  0.0500  0.2192
 5717TIP3    H217093   0.274   6.641   2.001  0.0635 -0.8510  1.1651
 5718TIP3   OH217094   0.819   3.618   2.281 -0.3663 -0.2934 -0.0998
 5718TIP3    H117095   0.745   3.566   2.313 -0.1387 -0.7905 -0.3734
 5718TIP3    H217096   0.787   3.658   2.200 -0.5839  0.1027  0.1765
 5719TIP3   OH217097   4.306   0.255   5.912 -0.2858 -0.4342  0.3085
 5719TIP3    H117098   4.243   0.209   5.967 -1.5210 -1.2316 -1.6461
 5719TIP3    H217099   4.391   0.221   5.939 -0.9046 -1.3210  1.2022
 5720TIP3   OH217100   8.050   0.886   2.855  0.2321  0.5927  0.1425
 5720TIP3    H117101   8.077   0.818   2.794 -2.1051  0.3193 -0.6717
 5720TIP3    H217102   8.075   0.852   2.941  1.4642 -0.0561 -0.4453
 5721TIP3   OH217103   5.556   3.969   0.392  0.0522 -0.7832  0.0081
 5721TIP3    H117104   5.506   4.042   0.354 -0.6856 -1.3423 -0.1149
 5721TIP3    H217105   5.512   3.950   0.475  1.3514  0.0960  0.9468
 5722TIP3   OH217106   5.560   1.310   3.166  0.0150 -0.6453  0.1612
 5722TIP3    H117107   5.546   1.340   3.076  1.2631  0.0020  0.1593
 5722TIP3    H217108   5.540   1.386   3.220  0.2589 -0.7239  0.3620
 5723TIP3   OH217109   6.093   3.738   0.944  0.4626 -0.3149  0.5676
 5723TIP3    H117110   6.110   3.673   1.012 -0.8833 -1.3970 -0.0844
 5723TIP3    H217111   6.076   3.687   0.865 -0.5935  0.8068  0.0278
 5724TIP3   OH217112   2.566   1.742   1.106 -0.2719  0.5506 -0.1832
 5724TIP3    H117113   2.521   1.696   1.035  0.5590 -0.5415 -0.0232
 5724TIP3    H217114   2.603   1.673   1.161  0.0827  1.3935  0.6842
 5725TIP3   OH217115   6.147   4.018   5.896  0.0061 -0.4766 -0.0780
 5725TIP3    H117116   6.116   3.957   5.962  1.1396 -1.4311 -0.3852
 5725TIP3    H217117   6.080   4.017   5.828 -0.7942 -0.0782  0.6983
 5726TIP3   OH217118   3.781   1.495   4.686  0.1899  0.0636  0.3516
 5726TIP3    H117119   3.779   1.414   4.635 -1.2595  1.1795 -1.4892
 5726TIP3    H217120   3.835   1.555   4.634 -0.8734  1.0761  0.3810
 5727TIP3   OH217121   6.414   0.858   2.300  0.2890  0.0415 -0.0119
 5727TIP3    H117122   6.395   0.771   2.335  0.3923  0.0587  0.0857
 5727TIP3    H217123   6.370   0.860   2.215 -0.0496  0.0386  0.1615
 5728TIP3   OH217124   7.648   7.504   6.287  0.2734  0.1788  0.1575
 5728TIP3    H117125   7.709   7.569   6.253 -1.6866  2.0078 -0.1133
 5728TIP3    H217126   7.696   7.458   6.356  2.0589  1.2160 -0.3457
 5729TIP3   OH217127   1.430   2.927   6.331 -0.5588  0.0640 -0.4528
 5729TIP3    H117128   1.396   2.895   6.247 -1.0439 -0.5591 -0.0210
 5729TIP3    H217129   1.352   2.945   6.384 -0.2463  0.1756 -0.0254
 5730TIP3   OH217130   8.155   2.642   3.712  0.4120 -0.0381 -0.1565
 5730TIP3    H117131   8.217   2.712   3.691 -0.9053  1.4575  0.6468
 5730TIP3    H217132   8.186   2.607   3.796  0.3141  0.5360  0.1229
 5731TIP3   OH217133   0.937   0.998   0.202 -0.0805  0.4539 -0.0803
 5731TIP3    H117134   1.025   0.975   0.229  0.1952 -0.1651 -1.4101
 5731TIP3    H217135   0.895   1.031   0.281  1.6148  1.6157  0.3860
 5732TIP3   OH217136   2.425   6.966   5.553  0.7589 -0.0803 -0.5932
 5732TIP3    H117137   2.370   6.949   5.477  1.2617 -2.5587 -0.4733
 5732TIP3    H217138   2.387   7.045   5.593  0.1951  0.9919 -3.0898
 5733TIP3   OH217139   7.076   4.590   5.336  0.0764 -0.3860  0.1020
 5733TIP3    H117140   6.992   4.559   5.369  0.3910 -1.6000 -0.1889
 5733TIP3    H217141   7.077   4.565   5.244  0.4570  0.2632 -0.0749
 5734TIP3   OH217142   5.944   2.292   6.031  0.1596  0.3108 -0.4395
 5734TIP3    H117143   6.015   2.239   5.995  0.6266 -0.2436  1.2350
 5734TIP3    H217144   5.865   2.256   5.991  0.6119 -0.6619 -0.4850
 5735TIP3   OH217145   0.255   7.865   2.597 -0.9645  0.2184  0.7746
 5735TIP3    H117146   0.288   7.879   2.508 -2.2200  0.2511  0.2989
 5735TIP3    H217147   0.301   7.787   2.628 -1.8688 -0.8996 -0.6057
 5736TIP3   OH217148   8.412   4.924   4.016 -0.1563  0.4314  0.0898
 5736TIP3    H117149   8.369   4.897   4.097 -1.2491  2.4672  0.2302
 5736TIP3    H217150   8.352   4.895   3.947 -0.0655  0.2399  0.0890
 5737TIP3   OH217151   0.475   2.645   2.170  0.0914  0.5913 -0.0861
 5737TIP3    H117152   0.534   2.698   2.117  2.8096 -1.9128  0.2013
 5737TIP3    H217153   0.390   2.652   2.125  1.3902  1.5463 -2.5941
 5738TIP3   OH217154   8.042   0.681   2.485 -0.1738 -0.2952 -0.2475
 5738TIP3    H117155   8.016   0.733   2.409 -1.1278 -0.5601 -0.1103
 5738TIP3    H217156   8.082   0.602   2.447 -1.5843 -0.9165 -0.5180
 5739TIP3   OH217157   4.305   0.749   4.492  0.1572 -0.1902  0.0079
 5739TIP3    H117158   4.342   0.783   4.410  2.2348 -0.5117  0.7550
 5739TIP3    H217159   4.367   0.776   4.559 -1.5799  0.1688  1.5345
 5740TIP3   OH217160   7.697   7.016   2.828 -0.0998 -0.3308 -0.0507
 5740TIP3    H117161   7.673   6.928   2.856  0.5665  0.2618  2.6252
 5740TIP3    H217162   7.788   7.027   2.855  0.1544  0.8431 -1.2707
 5741TIP3   OH217163   6.787   0.984   3.486 -0.5433 -0.5329  0.1333
 5741TIP3    H117164   6.767   1.015   3.398 -0.0548  2.4025  0.9557
 5741TIP3    H217165   6.709   1.002   3.538 -0.2562 -0.7532  0.6622
 5742TIP3   OH217166   7.602   4.158   0.849  0.0812 -0.3785  0.4917
 5742TIP3    H117167   7.633   4.141   0.760  2.7424 -0.0266  1.2901
 5742TIP3    H217168   7.579   4.251   0.849  0.8043 -0.1966  0.3748
 5743TIP3   OH217169   8.142   0.270   4.129 -0.0356  0.0324  0.5622
 5743TIP3    H117170   8.206   0.332   4.165 -0.1510  0.1914  0.4943
 5743TIP3    H217171   8.193   0.191   4.112  0.5534  0.7530 -1.2319
 5744TIP3   OH217172   7.090   0.246   3.945  0.1535  0.2327  0.1498
 5744TIP3    H117173   7.032   0.286   4.009  1.4519  0.0406  1.4973
 5744TIP3    H217174   7.102   0.314   3.878 -1.5183  0.3011 -0.1253
 5745TIP3   OH217175   1.211   7.738   3.153 -0.1921  0.4822  0.3770
 5745TIP3    H117176   1.119   7.752   3.134  0.0516  0.9599 -0.4857
 5745TIP3    H217177   1.227   7.647   3.130 -0.8550 -0.1733  2.2721
 5746TIP3   OH217178   6.918   5.333   3.757  0.6930  0.4127  0.5870
 5746TIP3    H117179   6.883   5.384   3.684  0.5791 -0.9143 -0.3138
 5746TIP3    H217180   6.984   5.276   3.718  0.2020 -0.7594  1.4086
 5747TIP3   OH217181   1.950   5.505   0.035  0.0925 -0.7992 -0.2069
 5747TIP3    H117182   1.900   5.426   0.015 -0.1135 -0.1824 -2.3548
 5747TIP3    H217183   1.954   5.507   0.131 -0.9601 -2.7264 -0.0668
 5748TIP3   OH217184   7.695   3.076   4.206  0.8683  0.1529 -0.3807
 5748TIP3    H117185   7.683   2.983   4.187  2.4994  0.1714 -1.7063
 5748TIP3    H217186   7.704   3.081   4.301  2.1444 -1.2314 -0.4038
 5749TIP3   OH217187   2.742   7.052   0.895  0.7470 -0.3559 -0.1078
 5749TIP3    H117188   2.658   7.025   0.933  0.8376 -2.4417 -1.2438
 5749TIP3    H217189   2.791   7.089   0.968 -1.4248  1.7570  0.4389
 5750TIP3   OH217190   7.784   6.118   2.391  0.5696 -0.1926 -0.1185
 5750TIP3    H117191   7.827   6.033   2.405  1.4591  0.2628 -0.0211
 5750TIP3    H217192   7.755   6.115   2.300  0.9432 -0.4559 -0.2322
 5751TIP3   OH217193   4.597   7.566   5.191  0.1315 -0.3845 -0.5887
 5751TIP3    H117194   4.506   7.537   5.187 -0.0975  0.0098  1.0409
 5751TIP3    H217195   4.614   7.605   5.105 -1.6959  0.8385 -0.4420
 5752TIP3   OH217196   3.920   0.793   4.760  0.3935  0.2616  0.3991
 5752TIP3    H117197   3.919   0.709   4.713  0.0043  0.2421  0.4433
 5752TIP3    H217198   3.829   0.823   4.759  0.2679 -0.0123  1.6150
 5753TIP3   OH217199   6.409   6.483   6.597  0.1213 -0.5562  0.4575
 5753TIP3    H117200   6.333   6.541   6.589  1.0141  0.5918  0.0701
 5753TIP3    H217201   6.464   6.523   6.664  0.8450 -0.8386  0.0507
 5754TIP3   OH217202   6.194   0.342   4.975  0.7736 -0.8060 -0.0016
 5754TIP3    H117203   6.192   0.436   4.957  0.1353 -1.0807 -1.5831
 5754TIP3    H217204   6.253   0.333   5.049  2.3880  0.6751 -1.0187
 5755TIP3   OH217205   4.730   6.185   1.374  0.1221  0.2492 -1.2622
 5755TIP3    H117206   4.684   6.267   1.357  1.2021  0.7790 -1.7055
 5755TIP3    H217207   4.820   6.201   1.345  0.6194 -0.7278 -0.3301
 5756TIP3   OH217208   5.209   7.546   6.284 -0.2507 -0.1554  0.1560
 5756TIP3    H117209   5.155   7.607   6.233  1.4582  2.0987  0.8750
 5756TIP3    H217210   5.186   7.563   6.375  0.3845 -0.4392  0.3809
 5757TIP3   OH217211   0.568   3.192   5.010  0.2143 -0.7814  0.3474
 5757TIP3    H117212   0.479   3.214   5.039  0.0172 -0.5449 -0.4066
 5757TIP3    H217213   0.556   3.112   4.959  0.5260 -1.0860  0.7516
 5758TIP3   OH217214   1.523   5.149   1.170  0.1016  0.4919 -0.0725
 5758TIP3    H117215   1.540   5.147   1.265  0.0668 -1.8239 -0.0567
 5758TIP3    H217216   1.458   5.218   1.159  1.3564  1.9709  1.3495
 5759TIP3   OH217217   7.690   7.320   2.785  0.2798  0.3524 -0.3687
 5759TIP3    H117218   7.660   7.229   2.775 -1.1731  0.7073  0.4323
 5759TIP3    H217219   7.621   7.372   2.744  0.7170  1.1258 -0.1345
 5760TIP3   OH217220   5.415   7.774   6.888 -0.2830  0.2783 -0.1055
 5760TIP3    H117221   5.350   7.797   6.821  0.3733  0.0568 -0.8386
 5760TIP3    H217222   5.490   7.742   6.838 -0.3834 -1.4872  0.8018
 5761TIP3   OH217223   2.657   3.560   1.274 -0.1870  0.6180  0.4822
 5761TIP3    H117224   2.569   3.588   1.301 -0.0930  0.3900  1.0274
 5761TIP3    H217225   2.707   3.642   1.268 -1.6337  1.4748 -4.6166
 5762TIP3   OH217226   3.190   2.997   4.976 -0.1610 -0.8663  1.2005
 5762TIP3    H117227   3.109   2.963   4.939  0.4653 -1.2024  0.1105
 5762TIP3    H217228   3.209   2.938   5.050 -0.2366 -1.5732  0.6660
 5763TIP3   OH217229   6.585   7.751   4.778  0.6415 -0.0833 -0.3538
 5763TIP3    H117230   6.539   7.820   4.827  0.0020 -0.8409  0.1263
 5763TIP3    H217231   6.515   7.701   4.736  1.0334 -1.2097  0.3229
 5764TIP3   OH217232   1.872   1.251   1.325 -0.3574 -0.2157  0.3930
 5764TIP3    H117233   1.869   1.329   1.381 -0.0740 -0.2166  0.4116
 5764TIP3    H217234   1.780   1.232   1.306 -0.5428 -1.0486  1.9904
 5765TIP3   OH217235   3.628   3.727   2.411 -0.0720 -0.1902 -0.5441
 5765TIP3    H117236   3.633   3.702   2.504  3.9852  0.3540 -0.4205
 5765TIP3    H217237   3.649   3.647   2.364  1.1545  0.2399 -0.7654
 5766TIP3   OH217238   3.522   6.505   5.720 -0.4491 -0.0213  0.3871
 5766TIP3    H117239   3.522   6.520   5.625  0.0933 -0.7709  0.2586
 5766TIP3    H217240   3.537   6.592   5.757 -0.9116  0.3247 -0.1994
 5767TIP3   OH217241   1.825   0.112   3.444 -0.8511 -0.2087  0.1467
 5767TIP3    H117242   1.780   0.032   3.474 -1.8679  0.7880  1.4176
 5767TIP3    H217243   1.913   0.083   3.421 -1.0130 -1.5996  1.1442
 5768TIP3   OH217244   2.109   0.224   1.140  0.4984  0.3473  0.0624
 5768TIP3    H117245   2.174   0.195   1.204  0.6940  1.6975  0.5013
 5768TIP3    H217246   2.115   0.161   1.069  0.5767 -0.9502  1.1714
 5769TIP3   OH217247   2.403   6.266   0.260  0.0335 -0.2053  0.6085
 5769TIP3    H117248   2.493   6.251   0.287  0.4570  1.0453 -0.0718
 5769TIP3    H217249   2.384   6.193   0.200  0.3143 -0.9082  1.3551
 5770TIP3   OH217250   3.383   5.932   0.489 -0.0148  0.1965  0.0221
 5770TIP3    H117251   3.345   6.005   0.539  1.2947  0.0621  1.2693
 5770TIP3    H217252   3.421   5.974   0.412  1.3129  0.9801  1.0495
 5771TIP3   OH217253   6.590   4.182   1.013 -0.1416 -0.3688  0.2497
 5771TIP3    H117254   6.495   4.185   1.000 -0.1108 -0.8123 -0.1377
 5771TIP3    H217255   6.601   4.144   1.100 -0.3289  0.3272  0.5746
 5772TIP3   OH217256   5.485   1.403   2.419 -0.1055  0.3940  0.1888
 5772TIP3    H117257   5.498   1.445   2.504 -0.1634  2.2237 -0.6579
 5772TIP3    H217258   5.566   1.419   2.371 -1.2722  2.4592 -1.2878
 5773TIP3   OH217259   6.538   3.533   6.639  0.3995 -0.2321  0.2431
 5773TIP3    H117260   6.511   3.624   6.626 -1.8790 -0.8644  0.1570
 5773TIP3    H217261   6.560   3.528   6.732 -2.6764 -0.2750  1.0733
 5774TIP3   OH217262   5.868   3.117   2.585 -0.7641 -0.0698  0.0590
 5774TIP3    H117263   5.793   3.176   2.586 -0.3211  0.4893  0.7806
 5774TIP3    H217264   5.833   3.035   2.551 -1.2577  0.7666 -1.5876
 5775TIP3   OH217265   0.734   6.328   0.950 -0.1026 -0.6914 -0.2567
 5775TIP3    H117266   0.690   6.243   0.959  0.3941 -0.7964  1.3848
 5775TIP3    H217267   0.825   6.306   0.930  0.1358 -0.5595  0.6719
 5776TIP3   OH217268   1.229   7.558   4.838 -0.1292  0.1223  0.3490
 5776TIP3    H117269   1.293   7.617   4.878  1.2526 -0.1530 -1.3287
 5776TIP3    H217270   1.245   7.473   4.879  0.7154  0.0195 -0.1657
 5777TIP3   OH217271   4.645   0.672   0.877  0.5242 -0.4208  0.0147
 5777TIP3    H117272   4.700   0.637   0.948  1.2044 -1.9332 -1.1979
 5777TIP3    H217273   4.569   0.613   0.875 -0.6657  0.9882  0.9361
 5778TIP3   OH217274   0.466   2.301   1.926 -0.3691 -0.0019  0.0667
 5778TIP3    H117275   0.540   2.252   1.889 -0.4150 -0.4160  0.5231
 5778TIP3    H217276   0.418   2.332   1.849 -1.3882 -2.2303 -0.2974
 5779TIP3   OH217277   2.601   5.802   1.414 -0.1478  0.2255 -0.2483
 5779TIP3    H117278   2.640   5.744   1.348 -0.6471  0.6949 -0.9632
 5779TIP3    H217279   2.571   5.742   1.483  0.3258 -0.2745 -0.4679
 5780TIP3   OH217280   7.516   6.945   5.268 -0.2200  0.2152  0.1446
 5780TIP3    H117281   7.518   6.870   5.208  0.5910  0.1968  0.1786
 5780TIP3    H217282   7.425   6.973   5.269 -0.5971 -0.9619  0.3602
 5781TIP3   OH217283   6.917   6.006   0.683 -0.5355  0.8039  0.2930
 5781TIP3    H117284   7.003   5.988   0.721 -0.5085 -0.3743 -0.2840
 5781TIP3    H217285   6.856   5.959   0.739 -0.5683 -0.3036 -0.6468
 5782TIP3   OH217286   7.242   6.602   5.110  0.1404  0.0953 -0.2652
 5782TIP3    H117287   7.284   6.531   5.158  1.9928  0.9855 -0.4912
 5782TIP3    H217288   7.246   6.575   5.018 -1.6417 -0.7126 -0.1489
 5783TIP3   OH217289   4.633   0.413   0.413  0.2190 -0.2379 -0.2268
 5783TIP3    H117290   4.723   0.438   0.391  0.1283  1.4113  1.0203
 5783TIP3    H217291   4.590   0.496   0.434 -2.4831 -0.5571 -3.5721
 5784TIP3   OH217292   0.764   5.691   5.928 -0.2157  0.8214  0.7901
 5784TIP3    H117293   0.848   5.733   5.912  1.2065 -1.3998  1.9328
 5784TIP3    H217294   0.749   5.703   6.022 -0.3806 -0.0904  0.8946
 5785TIP3   OH217295   2.069   1.931   4.331  0.9897  0.0005 -0.3080
 5785TIP3    H117296   2.111   1.952   4.414 -0.5462  1.3585  0.1849
 5785TIP3    H217297   2.066   2.014   4.284 -0.1329 -0.2842 -0.7762
 5786TIP3   OH217298   4.229   2.543   2.182 -0.5789 -0.3845 -0.0671
 5786TIP3    H117299   4.313   2.584   2.204 -0.3790  0.0881 -1.6452
 5786TIP3    H217300   4.215   2.480   2.253  0.3492  0.5956  1.0418
 5787TIP3   OH217301   3.551   7.831   1.349  0.0893  0.1012  0.1867
 5787TIP3    H117302   3.575   7.831   1.441  0.6210  2.3230  0.1063
 5787TIP3    H217303   3.480   7.895   1.342 -0.6265 -0.7456 -0.8184
 5788TIP3   OH217304   2.599   6.360   6.137 -0.2719  0.3349  0.4793
 5788TIP3    H117305   2.549   6.429   6.094 -0.2808 -0.3728 -0.6779
 5788TIP3    H217306   2.626   6.302   6.066  0.4581 -0.3975  1.3324
 5789TIP3   OH217307   2.088   6.082   3.324  0.0131  0.1693 -0.0094
 5789TIP3    H117308   2.108   6.152   3.263  1.6889 -1.4696 -1.4895
 5789TIP3    H217309   2.029   6.121   3.388 -1.5017  2.1181 -2.4068
 5790TIP3   OH217310   4.466   4.202   2.362 -0.7811  0.1343 -0.4303
 5790TIP3    H117311   4.517   4.215   2.442  1.6931  1.1773 -2.0809
 5790TIP3    H217312   4.478   4.109   2.341 -1.5028 -0.1650  0.3904
 5791TIP3   OH217313   8.204   7.390   4.440  0.3154  0.1736 -0.3537
 5791TIP3    H117314   8.295   7.416   4.449  0.5336  1.0382 -3.5873
 5791TIP3    H217315   8.160   7.468   4.406 -1.5255 -0.4095  0.5139
 5792TIP3   OH217316   1.747   6.590   3.908 -0.1078  0.3606  0.2437
 5792TIP3    H117317   1.692   6.600   3.830 -0.7353  1.2240  0.7779
 5792TIP3    H217318   1.689   6.609   3.981  0.2988 -1.1308  0.9846
 5793TIP3   OH217319   0.037   1.214   4.492  0.2000  0.3843  0.2528
 5793TIP3    H117320   0.096   1.143   4.466 -0.0384 -0.0721  0.9316
 5793TIP3    H217321  -0.037   1.206   4.433  0.2119  0.1170  0.2708
 5794TIP3   OH217322   8.330   3.855   6.734 -0.3757 -0.2816  0.5613
 5794TIP3    H117323   8.236   3.838   6.737 -0.2711 -1.0106  0.0887
 5794TIP3    H217324   8.370   3.769   6.747  0.1970 -0.3183 -1.1175
 5795TIP3   OH217325   0.755   2.822   2.447 -0.7626 -0.5710  0.3025
 5795TIP3    H117326   0.791   2.737   2.473 -0.1378 -0.6204 -0.6752
 5795TIP3    H217327   0.660   2.808   2.445 -0.7892 -0.7457  1.8259
 5796TIP3   OH217328   1.564   2.471   4.080 -0.4980  0.1203  0.1625
 5796TIP3    H117329   1.623   2.500   4.011 -2.4196  0.2482 -1.5141
 5796TIP3    H217330   1.609   2.398   4.122  0.8521  0.2409 -1.0248
 5797TIP3   OH217331   2.206   2.811   3.636  0.2280 -0.1745  0.0909
 5797TIP3    H117332   2.229   2.778   3.549 -1.5548  2.1116 -1.3767
 5797TIP3    H217333   2.133   2.757   3.663 -0.3351  0.1803 -0.6635
 5798TIP3   OH217334   1.045   4.244   4.315 -0.6330  0.4607 -0.0932
 5798TIP3    H117335   1.102   4.174   4.284 -2.3400 -1.1814  0.2970
 5798TIP3    H217336   1.103   4.301   4.366  0.5548 -1.4758  0.8293
 5799TIP3   OH217337   2.370   1.781   2.976 -0.0959  0.1310  0.1708
 5799TIP3    H117338   2.414   1.791   2.892 -1.5883  1.3377 -0.5060
 5799TIP3    H217339   2.312   1.706   2.964  1.1261 -0.9538  0.8036
 5800TIP3   OH217340   6.842   0.510   5.968 -0.1628 -0.2987  0.0174
 5800TIP3    H117341   6.845   0.525   6.062  2.5943 -2.5958  0.4180
 5800TIP3    H217342   6.901   0.576   5.931  0.3691 -0.7023  0.1400
 5801TIP3   OH217343   7.964   4.228   3.062 -0.1343 -0.9324 -0.7402
 5801TIP3    H117344   7.907   4.259   2.992 -1.0527  0.0814  0.4030
 5801TIP3    H217345   8.048   4.211   3.019 -0.0259  1.6952 -1.7534
 5802TIP3   OH217346   6.460   6.605   4.479 -0.1984  0.2667 -0.8388
 5802TIP3    H117347   6.368   6.579   4.484 -0.3501  0.6915 -1.3845
 5802TIP3    H217348   6.494   6.559   4.402  0.8927 -2.4443  1.1248
 5803TIP3   OH217349   1.582   4.869   4.644 -0.1156  0.5338 -0.0470
 5803TIP3    H117350   1.604   4.777   4.657  3.0828  1.1854 -0.0885
 5803TIP3    H217351   1.589   4.908   4.731 -0.3523  0.9444 -0.2085
 5804TIP3   OH217352   5.268   7.014   6.184 -0.1983 -0.3527 -0.5592
 5804TIP3    H117353   5.305   6.989   6.099  2.1318  0.6366  0.0624
 5804TIP3    H217354   5.276   7.110   6.185 -0.7380 -0.3110  0.5392
 5805TIP3   OH217355   5.950   3.188   5.775 -0.0823  0.0780  0.4435
 5805TIP3    H117356   5.977   3.122   5.838  1.1906  0.7663  0.6631
 5805TIP3    H217357   5.992   3.162   5.693 -0.9410 -0.2889  0.1173
 5806TIP3   OH217358   0.633   5.888   6.743 -0.1374 -1.3616 -0.2476
 5806TIP3    H117359   0.620   5.835   6.822  0.8188 -0.7971  0.3142
 5806TIP3    H217360   0.584   5.968   6.761 -0.3163 -1.4287 -0.4366
 5807TIP3   OH217361   5.235   3.956   6.324  0.0131  0.3588  0.1172
 5807TIP3    H117362   5.176   3.973   6.397 -0.6423 -0.3426 -0.2296
 5807TIP3    H217363   5.178   3.953   6.247  0.5206 -0.1803 -0.2519
 5808TIP3   OH217364   2.573   7.420   5.284 -0.6312 -0.4517  0.0239
 5808TIP3    H117365   2.581   7.402   5.378 -0.2915 -0.8873 -0.0833
 5808TIP3    H217366   2.597   7.512   5.275  3.6949 -1.3665 -0.1206
 5809TIP3   OH217367   2.265   4.950   0.370 -0.2401  0.6762 -0.7575
 5809TIP3    H117368   2.246   4.864   0.408 -0.6322  2.3697  3.3639
 5809TIP3    H217369   2.179   4.984   0.344 -0.4236  0.8096  0.0054
 5810TIP3   OH217370   6.674   7.671   0.493  0.2970 -0.0161 -0.2218
 5810TIP3    H117371   6.617   7.744   0.467  0.2490 -0.6506 -2.0767
 5810TIP3    H217372   6.616   7.610   0.537  0.3243  1.0075  1.2946
 5811TIP3   OH217373   2.875   0.235   5.249 -0.1892  0.1223 -0.4721
 5811TIP3    H117374   2.858   0.299   5.180 -1.9029  1.7538  1.3332
 5811TIP3    H217375   2.825   0.158   5.222 -1.7011  1.1030 -0.6103
 5812TIP3   OH217376   3.978   2.665   4.087  0.0060  0.5359 -0.1635
 5812TIP3    H117377   3.907   2.606   4.062  0.8076 -0.3971 -0.2943
 5812TIP3    H217378   4.025   2.681   4.006 -0.4989  1.7899 -0.2261
 5813TIP3   OH217379   6.696   5.807   0.562 -1.1440 -0.5207  0.4211
 5813TIP3    H117380   6.644   5.744   0.612 -1.7194 -0.2044  0.2222
 5813TIP3    H217381   6.658   5.806   0.474 -0.8783 -0.2105  0.2999
 5814TIP3   OH217382   1.051   5.117   3.674 -0.0134 -0.3840 -0.6487
 5814TIP3    H117383   0.971   5.113   3.622  0.5960  0.1026 -1.6496
 5814TIP3    H217384   1.105   5.184   3.631  0.6093 -0.1375  0.4686
 5815TIP3   OH217385   5.771   7.425   0.908  0.3941  0.5657  0.6000
 5815TIP3    H117386   5.685   7.395   0.940 -0.0697  2.3673  1.1532
 5815TIP3    H217387   5.781   7.383   0.823 -0.2310 -1.0679  1.2936
 5816TIP3   OH217388   3.347   5.982   1.836 -0.2800 -0.4383 -0.1274
 5816TIP3    H117389   3.419   5.928   1.866 -0.6495 -0.6228  0.4345
 5816TIP3    H217390   3.272   5.954   1.888 -0.7499 -0.2206 -0.6726
 5817TIP3   OH217391   2.901   5.306   5.728 -0.0745 -0.0472  0.7314
 5817TIP3    H117392   2.965   5.367   5.762 -0.7497  0.6777  0.7340
 5817TIP3    H217393   2.816   5.344   5.752 -0.6056  0.6661 -1.9892
 5818TIP3   OH217394   5.968   2.305   0.303 -0.9097  0.2379  0.2843
 5818TIP3    H117395   5.932   2.279   0.218  0.6785  0.9037 -0.6351
 5818TIP3    H217396   6.018   2.229   0.332  2.0205  1.3647 -1.4270
 5819TIP3   OH217397   4.334   5.552   0.357  0.4286 -0.0702 -0.3066
 5819TIP3    H117398   4.344   5.457   0.357 -3.3619 -0.6301  0.2713
 5819TIP3    H217399   4.269   5.570   0.289  1.3939  2.2087 -0.7232
 5820TIP3   OH217400   4.788   4.080   3.435  0.2618 -0.2263 -0.2828
 5820TIP3    H117401   4.804   4.160   3.385 -3.0105  1.7123  1.3843
 5820TIP3    H217402   4.706   4.045   3.399  0.7134 -1.8420  0.1827
 5821TIP3   OH217403   3.975   3.824   3.397 -0.5174 -0.2807 -0.1838
 5821TIP3    H117404   3.926   3.883   3.456 -0.3975 -0.2380 -0.1272
 5821TIP3    H217405   3.933   3.739   3.410  1.9534 -1.2194  2.9686
 5822TIP3   OH217406   5.398   2.217   3.276  0.0273  0.1507  0.6646
 5822TIP3    H117407   5.439   2.133   3.298 -0.2228  0.1932  1.3011
 5822TIP3    H217408   5.343   2.237   3.351 -2.5878 -0.7828 -0.8722
 5823TIP3   OH217409   7.024   1.087   3.943 -0.1192  0.1935  0.1149
 5823TIP3    H117410   6.953   1.085   4.007 -0.1139  0.2769  0.1231
 5823TIP3    H217411   6.980   1.104   3.859 -0.1094  0.2343  0.1183
 5824TIP3   OH217412   8.181   5.620   4.967 -0.7978  0.4124 -0.3925
 5824TIP3    H117413   8.155   5.587   5.052 -1.3540 -1.1054 -1.1212
 5824TIP3    H217414   8.117   5.584   4.906  0.4807  0.1951 -1.6551
 5825TIP3   OH217415   1.722   6.865   3.114 -0.6976  0.0585  0.0551
 5825TIP3    H117416   1.643   6.863   3.059 -1.3803 -1.5982  1.0037
 5825TIP3    H217417   1.693   6.827   3.198  0.7381  0.8783  0.9635
 5826TIP3   OH217418   7.377   3.891   4.255  0.2343  0.0300 -0.2595
 5826TIP3    H117419   7.324   3.871   4.332 -0.4863  0.4727 -0.6306
 5826TIP3    H217420   7.447   3.947   4.288  0.3881 -0.4312  0.2079
 5827TIP3   OH217421   1.451   6.319   3.386 -0.3689 -0.3055  0.2208
 5827TIP3    H117422   1.376   6.266   3.413 -0.8747  0.8801  1.2251
 5827TIP3    H217423   1.413   6.392   3.337  0.3943 -1.3047 -1.9774
 5828TIP3   OH217424   7.457   2.626   0.919 -0.1923  0.1029 -0.2164
 5828TIP3    H117425   7.378   2.573   0.909 -1.5204  1.5593  1.7605
 5828TIP3    H217426   7.442   2.703   0.865 -0.5084  0.7632  0.7957
 5829TIP3   OH217427   5.919   2.915   2.155  0.2466 -0.8558  0.4914
 5829TIP3    H117428   5.928   2.822   2.176 -1.4740 -0.9369  1.0596
 5829TIP3    H217429   5.888   2.916   2.065  0.6275 -0.8054  0.3582
 5830TIP3   OH217430   3.798   6.192   4.619  0.7890  0.1348 -0.6860
 5830TIP3    H117431   3.844   6.266   4.660  0.8786 -0.2946  0.0009
 5830TIP3    H217432   3.857   6.118   4.632  0.7794 -0.0269 -1.5361
 5831TIP3   OH217433   1.780   1.696   2.171 -0.0190 -0.5909 -0.0014
 5831TIP3    H117434   1.737   1.629   2.222 -0.7952  0.5785  0.9299
 5831TIP3    H217435   1.766   1.670   2.080  0.7914 -2.3265  0.3211
 5832TIP3   OH217436   3.186   0.241   5.660 -0.4163  0.2132 -0.1995
 5832TIP3    H117437   3.121   0.226   5.592 -2.0610 -0.7998  1.4879
 5832TIP3    H217438   3.264   0.194   5.630 -0.9511  0.1427 -1.5512
 5833TIP3   OH217439   0.687   2.323   3.272  0.7694  0.0689 -0.0213
 5833TIP3    H117440   0.661   2.409   3.239 -0.6643 -0.3597 -0.1247
 5833TIP3    H217441   0.607   2.289   3.314  0.8353 -1.8008 -1.2904
 5834TIP3   OH217442   0.251   4.291   0.347  0.1987  0.3078 -0.2971
 5834TIP3    H117443   0.332   4.275   0.298 -0.8293  0.3398 -2.1322
 5834TIP3    H217444   0.265   4.373   0.393  1.8298 -0.5828  0.8833
 5835TIP3   OH217445   5.963   1.722   5.515  0.5633  0.5737 -0.1435
 5835TIP3    H117446   5.965   1.686   5.603 -0.6260 -1.6073 -0.9192
 5835TIP3    H217447   5.869   1.728   5.493  0.8302 -0.8764 -1.9443
 5836TIP3   OH217448   6.465   6.240   4.479 -0.3084 -0.1361 -0.4311
 5836TIP3    H117449   6.458   6.187   4.399 -0.5743 -0.7941  0.0265
 5836TIP3    H217450   6.379   6.281   4.488 -0.3422 -0.2232 -0.3637
 5837TIP3   OH217451   2.091   4.371   3.023 -0.0383 -0.0130  1.1487
 5837TIP3    H117452   2.109   4.424   3.100 -0.7791  0.0725  1.2728
 5837TIP3    H217453   2.022   4.418   2.977 -0.0133 -0.3657  0.7448
 5838TIP3   OH217454   1.075   3.073   6.362 -0.0207  0.0792 -0.1262
 5838TIP3    H117455   1.110   3.052   6.449  0.8039  1.7712 -0.0156
 5838TIP3    H217456   0.980   3.065   6.372 -0.0875  2.1673  1.5238
 5839TIP3   OH217457   1.470   6.878   4.344  0.6476 -0.5022 -0.3137
 5839TIP3    H117458   1.514   6.866   4.428  1.6435 -0.1643 -0.7681
 5839TIP3    H217459   1.457   6.972   4.337  1.7940 -0.3733 -1.1121
 5840TIP3   OH217460   0.284   4.877   5.499  0.2202  0.4967 -0.7159
 5840TIP3    H117461   0.197   4.868   5.537 -0.0593  2.5518 -0.7663
 5840TIP3    H217462   0.274   4.944   5.431  2.2664  2.5295  0.8186
 5841TIP3   OH217463   4.847   3.383   4.115 -0.1144 -0.1733 -0.1208
 5841TIP3    H117464   4.755   3.379   4.091 -0.0609 -0.1690 -0.3322
 5841TIP3    H217465   4.875   3.291   4.119  0.2654 -0.1535 -1.6261
 5842TIP3   OH217466   1.728   0.300   5.866 -0.1752  0.7861 -0.3643
 5842TIP3    H117467   1.633   0.284   5.873  0.0186  0.0189  0.7941
 5842TIP3    H217468   1.744   0.370   5.929  0.2088  0.0196  0.4183
 5843TIP3   OH217469   3.312   3.912   0.764 -0.0546  0.4118  0.2409
 5843TIP3    H117470   3.231   3.958   0.742 -0.2115  0.1090  0.1825
 5843TIP3    H217471   3.360   3.906   0.682 -0.4075 -0.2605  0.0791
 5844TIP3   OH217472   1.243   2.072   3.438  0.2250 -0.1223  0.5192
 5844TIP3    H117473   1.253   2.139   3.371  0.4785  0.5932  1.2547
 5844TIP3    H217474   1.199   2.116   3.510 -1.0173 -1.1579  0.4323
 5845TIP3   OH217475   5.567   3.529   3.781  0.0819  0.0335 -1.0567
 5845TIP3    H117476   5.485   3.506   3.738 -0.6128 -1.8015  1.0748
 5845TIP3    H217477   5.551   3.616   3.818 -0.6937 -0.0602 -1.1502
 5846TIP3   OH217478   7.942   2.741   4.275  0.1797  0.5838  0.6896
 5846TIP3    H117479   7.851   2.762   4.252  0.3010  0.0423 -0.3000
 5846TIP3    H217480   7.989   2.744   4.193  0.7740 -0.6192  0.9638
 5847TIP3   OH217481   3.172   2.809   5.195  0.6951 -0.9394  0.2082
 5847TIP3    H117482   3.143   2.726   5.156 -0.4921 -0.5694  0.2493
 5847TIP3    H217483   3.090   2.855   5.215  1.3179 -0.3046  1.3756
 5848TIP3   OH217484   8.377   4.971   4.777  0.0192 -0.2392 -0.4505
 5848TIP3    H117485   8.426   4.888   4.772 -0.4498 -0.4470 -1.8404
 5848TIP3    H217486   8.339   4.970   4.865  0.6725 -1.1184 -0.1532
 5849TIP3   OH217487   3.471   1.809   4.993  0.8313 -0.2578 -0.0543
 5849TIP3    H117488   3.439   1.829   4.905  0.7111 -0.1153  0.0219
 5849TIP3    H217489   3.480   1.714   4.994 -0.3233 -0.3821  0.1670
 5850TIP3   OH217490   2.581   1.010   5.143 -0.3325  0.2140  0.2065
 5850TIP3    H117491   2.583   1.016   5.047  1.1910  1.7876  0.2809
 5850TIP3    H217492   2.592   0.917   5.162  1.0365  0.0632 -1.1403
 5851TIP3   OH217493   7.293   6.159   5.896 -0.0255 -0.0056  0.3471
 5851TIP3    H117494   7.345   6.083   5.922  1.6630  1.3190  1.0436
 5851TIP3    H217495   7.329   6.185   5.811  1.1851  1.4982  1.2720
 5852TIP3   OH217496   6.194   4.807   2.599  0.0689  0.0986 -0.5096
 5852TIP3    H117497   6.201   4.715   2.574  0.5083  0.1814 -0.6962
 5852TIP3    H217498   6.174   4.852   2.517  1.0808  0.3176 -0.6408
 5853TIP3   OH217499   6.126   1.721   5.865  0.0965 -0.3556  0.1350
 5853TIP3    H117500   6.128   1.630   5.894  0.3413  0.1491  1.8369
 5853TIP3    H217501   6.211   1.756   5.891 -0.0421  0.4031 -0.3939
 5854TIP3   OH217502   1.301   1.947   2.502 -0.1448  0.1348  0.3583
 5854TIP3    H117503   1.321   1.854   2.501 -2.5607 -0.4454  0.4015
 5854TIP3    H217504   1.272   1.965   2.591  1.1409  1.1869  0.6116
 5855TIP3   OH217505   7.533   3.594   5.662 -0.4451  0.0576 -0.6868
 5855TIP3    H117506   7.450   3.561   5.696 -0.6952  1.2985 -0.0467
 5855TIP3    H217507   7.579   3.627   5.739 -0.6773  2.1642 -1.3799
 5856TIP3   OH217508   8.010   6.061   5.761  0.3060 -0.0193 -0.3823
 5856TIP3    H117509   7.922   6.025   5.748  0.4973 -0.8856  0.5361
 5856TIP3    H217510   7.996   6.154   5.776 -0.4915 -0.1996  0.0745
 5857TIP3   OH217511   8.090   0.314   6.465  0.1945 -0.1104 -0.0452
 5857TIP3    H117512   8.182   0.290   6.449  0.6513 -0.0064  2.1224
 5857TIP3    H217513   8.043   0.231   6.464  0.1653 -0.1074 -1.7961
 5858TIP3   OH217514   2.377   0.136   1.642  0.2797 -0.3193  0.5776
 5858TIP3    H117515   2.319   0.211   1.655  2.0184  0.9988  1.2010
 5858TIP3    H217516   2.445   0.169   1.582  0.0388 -2.0293 -0.7112
 5859TIP3   OH217517   1.593   3.275   1.425  0.2881  0.0820 -0.3819
 5859TIP3    H117518   1.657   3.291   1.494  0.6414  1.1210 -0.9150
 5859TIP3    H217519   1.645   3.258   1.347 -0.0161  1.7407 -1.0062
 5860TIP3   OH217520   3.633   0.851   3.027  0.5369 -0.1733  0.4875
 5860TIP3    H117521   3.678   0.771   2.999  0.1127 -0.4528  0.5893
 5860TIP3    H217522   3.674   0.921   2.976  0.2178 -0.5904 -0.3676
 5861TIP3   OH217523   3.072   3.333   3.949 -0.2707 -0.4175 -0.2081
 5861TIP3    H117524   3.135   3.386   3.999 -0.7029 -0.6375  0.5767
 5861TIP3    H217525   3.016   3.398   3.907  0.8294 -0.1989 -1.4007
 5862TIP3   OH217526   5.821   6.005   2.906 -0.3631  0.1872  0.1973
 5862TIP3    H117527   5.739   6.054   2.902 -1.8554 -2.1259 -0.0821
 5862TIP3    H217528   5.831   5.981   2.998  0.3587  0.9706  0.3343
 5863TIP3   OH217529   1.931   5.361   6.156  0.2087 -0.3378 -0.6351
 5863TIP3    H117530   1.978   5.444   6.159  0.3113 -0.3280 -1.8158
 5863TIP3    H217531   1.924   5.334   6.247  0.1583  0.9664 -0.2281
 5864TIP3   OH217532   3.338   1.961   4.749  0.4115  0.0175  0.2703
 5864TIP3    H117533   3.404   2.017   4.790  0.1679  1.4185 -1.1511
 5864TIP3    H217534   3.265   1.961   4.810  1.3635 -0.8843  1.4797
 5865TIP3   OH217535   5.766   6.704   2.232  0.3721 -0.3979  0.1117
 5865TIP3    H117536   5.818   6.666   2.161 -1.5102  0.8466 -2.0565
 5865TIP3    H217537   5.710   6.769   2.189 -2.2458 -0.9274  2.4225
 5866TIP3   OH217538   1.285   0.639   4.999  0.1674 -0.2270 -0.2094
 5866TIP3    H117539   1.216   0.697   4.968 -0.0852  0.1837  1.0515
 5866TIP3    H217540   1.241   0.579   5.060  0.9334  0.1747  0.7729
 5867TIP3   OH217541   6.094   5.394   3.235  0.2796 -0.1596 -0.2712
 5867TIP3    H117542   6.048   5.441   3.305 -0.8757 -1.5601 -0.0403
 5867TIP3    H217543   6.034   5.396   3.161 -0.5233 -2.5570  0.2276
 5868TIP3   OH217544   4.314   1.611   2.081  0.0896  0.2920  0.0595
 5868TIP3    H117545   4.224   1.644   2.079  0.1794  0.7745  1.9983
 5868TIP3    H217546   4.307   1.519   2.057 -1.0736  0.0808  1.1444
 5869TIP3   OH217547   5.764   4.586   5.637  0.1688  0.3437  0.6376
 5869TIP3    H117548   5.786   4.494   5.648 -0.2360  0.2521  0.7237
 5869TIP3    H217549   5.843   4.626   5.603  1.0547  0.3667  2.5824
 5870TIP3   OH217550   1.291   3.005   3.378 -0.0450 -0.2449  0.0400
 5870TIP3    H117551   1.236   2.936   3.342  2.8294 -2.8758  0.3082
 5870TIP3    H217552   1.338   3.041   3.303  0.6311 -0.6843  0.2423
 5871TIP3   OH217553   5.541   1.223   4.860 -0.3168  0.5083  0.3541
 5871TIP3    H117554   5.459   1.193   4.820 -0.3215 -0.0151  0.7488
 5871TIP3    H217555   5.544   1.317   4.840  0.7498 -0.0702 -2.7323
 5872TIP3   OH217556   6.370   2.441   2.937 -0.1773 -0.3664 -0.8156
 5872TIP3    H117557   6.317   2.486   3.003 -1.0296 -0.7334 -1.2302
 5872TIP3    H217558   6.447   2.411   2.984  0.2434  1.2062 -0.4464
 5873TIP3   OH217559   6.154   0.756   2.113 -0.6994  0.4002  0.2809
 5873TIP3    H117560   6.133   0.666   2.135 -0.5937 -0.0059 -1.1716
 5873TIP3    H217561   6.076   0.790   2.068  0.2799  0.0424 -1.8365
 5874TIP3   OH217562   1.772   7.523   6.300  0.0165  0.2902 -0.2997
 5874TIP3    H117563   1.756   7.578   6.224  0.8809  0.6010 -0.2666
 5874TIP3    H217564   1.851   7.559   6.340  1.3166 -1.6672 -0.9441
 5875TIP3   OH217565   4.717   4.168   5.521 -0.3241  0.5680 -0.3709
 5875TIP3    H117566   4.658   4.243   5.521 -1.0314  0.0231 -0.9507
 5875TIP3    H217567   4.740   4.155   5.429  0.4670  0.5837 -0.1870
 5876TIP3   OH217568   0.432   7.279   2.201 -0.1250 -0.0172 -0.1559
 5876TIP3    H117569   0.484   7.202   2.179 -0.0284  0.2195 -0.7969
 5876TIP3    H217570   0.353   7.272   2.147 -0.1217  0.3188 -0.2092
 5877TIP3   OH217571   3.209   1.398   4.670  0.1314  0.0211  0.1767
 5877TIP3    H117572   3.185   1.462   4.604  1.2936  0.2259 -0.0768
 5877TIP3    H217573   3.234   1.450   4.746 -2.5186 -0.2408  1.3009
 5878TIP3   OH217574   8.148   3.141   0.556 -0.3872 -0.2798 -0.3849
 5878TIP3    H117575   8.145   3.055   0.599 -0.3392  0.1272  0.4500
 5878TIP3    H217576   8.058   3.154   0.525  0.2505 -1.9999 -3.3555
 5879TIP3   OH217577   1.287   0.855   2.369  0.1144 -0.4714 -0.5130
 5879TIP3    H117578   1.319   0.850   2.279  0.3561  0.1201 -0.4681
 5879TIP3    H217579   1.208   0.909   2.363  0.4129 -0.0019 -0.3056
 5880TIP3   OH217580   4.535   7.796   6.143 -0.0373 -0.1010 -0.1075
 5880TIP3    H117581   4.460   7.736   6.143  0.2571 -0.4809  0.3430
 5880TIP3    H217582   4.496   7.883   6.134 -0.4353 -0.3939 -1.5228
 5881TIP3   OH217583   7.316   7.882   0.516  0.1984 -0.4154 -0.1299
 5881TIP3    H117584   7.398   7.923   0.544  1.2862 -2.6849  0.2022
 5881TIP3    H217585   7.255   7.900   0.586  0.3908  1.2565 -0.3500
 5882TIP3   OH217586   0.518   1.515   2.691  0.3467  0.2776  0.0667
 5882TIP3    H117587   0.597   1.523   2.638 -0.5272  1.6535 -1.1038
 5882TIP3    H217588   0.446   1.510   2.627 -0.5937 -0.0485  1.1048
 5883TIP3   OH217589   5.949   7.106   6.121  0.0009  0.3195 -0.0070
 5883TIP3    H117590   5.956   7.041   6.191  1.8475 -0.5200 -0.8998
 5883TIP3    H217591   5.929   7.188   6.166 -1.3692 -0.6515  1.2378
 5884TIP3   OH217592   2.987   5.226   6.331  0.2409  0.1097 -0.2950
 5884TIP3    H117593   2.947   5.224   6.418  0.2243  1.3306 -0.2527
 5884TIP3    H217594   3.031   5.141   6.323  0.2959 -0.0014  0.9322
 5885TIP3   OH217595   1.151   1.645   6.116  0.3511 -0.0373 -0.4500
 5885TIP3    H117596   1.182   1.588   6.046  0.4802 -1.1318  0.4594
 5885TIP3    H217597   1.056   1.634   6.115  0.2547  0.7947 -1.1437
 5886TIP3   OH217598   0.178   2.587   2.575  0.1405 -0.0029  0.4751
 5886TIP3    H117599   0.262   2.553   2.543 -0.0666  1.3317 -1.7581
 5886TIP3    H217600   0.155   2.655   2.511 -2.3991  0.0189  1.3164
 5887TIP3   OH217601   2.833   5.722   5.287  0.4064 -0.0571  0.2758
 5887TIP3    H117602   2.822   5.638   5.332  0.8444 -2.0314 -2.9478
 5887TIP3    H217603   2.745   5.759   5.283 -0.1701 -1.4083 -0.0406
 5888TIP3   OH217604   5.591   3.833   6.333 -0.3104 -0.2874 -0.6449
 5888TIP3    H117605   5.667   3.798   6.288  0.8789  0.4688  0.6825
 5888TIP3    H217606   5.516   3.792   6.291  0.9331 -3.5186  0.0616
 5889TIP3   OH217607   0.328   1.338   4.141  0.1595 -0.8530  0.1692
 5889TIP3    H117608   0.339   1.431   4.118  1.8781 -1.2391 -0.6633
 5889TIP3    H217609   0.259   1.339   4.207 -3.0035  0.6134 -2.7969
 5890TIP3   OH217610   3.625   1.151   4.692 -0.0379  0.6872  0.5565
 5890TIP3    H117611   3.628   1.065   4.734  0.3922  0.8088  0.7788
 5890TIP3    H217612   3.538   1.185   4.713  0.2502  0.8434  1.5549
 5891TIP3   OH217613   3.766   2.540   2.466 -0.4215  0.4796 -0.1212
 5891TIP3    H117614   3.852   2.581   2.472 -0.6386  0.8064  0.9483
 5891TIP3    H217615   3.774   2.478   2.393  0.7650  0.3864  0.0691
 5892TIP3   OH217616   0.240   4.249   2.043  0.1069 -0.1638 -0.4420
 5892TIP3    H117617   0.152   4.282   2.027  0.4020  0.4882 -0.7855
 5892TIP3    H217618   0.280   4.314   2.101  0.7614  0.2166 -1.2860
 5893TIP3   OH217619   5.181   5.932   5.846 -0.4973  0.1054 -0.1223
 5893TIP3    H117620   5.236   5.853   5.850 -0.8627 -0.2192 -1.1157
 5893TIP3    H217621   5.139   5.936   5.931 -1.2881 -1.3999 -0.3952
 5894TIP3   OH217622   4.732   6.263   0.026 -0.1981  0.1067  0.0012
 5894TIP3    H117623   4.786   6.226  -0.044 -0.6601 -0.5850  0.0003
 5894TIP3    H217624   4.745   6.202   0.099 -0.5475  0.2472  0.1788
 5895TIP3   OH217625   0.955   5.922   2.268 -0.7234  0.4617  0.7068
 5895TIP3    H117626   0.987   5.832   2.277 -1.1938  0.2438  0.2655
 5895TIP3    H217627   0.957   5.957   2.357 -1.8177 -0.4380  1.1200
 5896TIP3   OH217628   4.933   6.805   5.702 -0.4891  0.5198  0.1360
 5896TIP3    H117629   5.018   6.760   5.702 -0.2994  0.8702  0.0302
 5896TIP3    H217630   4.911   6.815   5.609  1.0541  3.5354 -0.0425
 5897TIP3   OH217631   2.274   0.507   4.930 -0.4343  0.2272 -0.1712
 5897TIP3    H117632   2.293   0.453   5.007  0.3672 -0.4056 -0.7862
 5897TIP3    H217633   2.356   0.506   4.880 -0.3758  2.0826 -0.1805
 5898TIP3   OH217634   1.466   0.751   5.569 -0.0782 -0.1012  0.0682
 5898TIP3    H117635   1.560   0.765   5.557  0.3345 -1.6711  1.1301
 5898TIP3    H217636   1.426   0.783   5.488  0.9774  3.7185  0.8468
 5899TIP3   OH217637   5.629   6.925   0.424 -0.0690  0.7768 -0.5896
 5899TIP3    H117638   5.607   6.884   0.341 -0.2017 -1.4949  0.4957
 5899TIP3    H217639   5.557   6.901   0.482  0.2256  1.9655  0.3070
 5900TIP3   OH217640   7.737   7.085   4.575 -0.0529  0.2698 -0.2800
 5900TIP3    H117641   7.780   7.017   4.627  0.1171 -0.2381 -1.0715
 5900TIP3    H217642   7.684   7.134   4.638 -0.0409 -0.4845  0.3234
 5901TIP3   OH217643   0.350   5.341   3.848  0.0939 -0.0128  0.0991
 5901TIP3    H117644   0.321   5.280   3.916  0.7209  0.0668  0.4406
 5901TIP3    H217645   0.414   5.291   3.797  0.6731  0.3873  0.4297
 5902TIP3   OH217646   1.733   3.368   0.853  0.1608  0.2039  0.2688
 5902TIP3    H117647   1.713   3.309   0.780 -0.9950  0.9319 -0.0156
 5902TIP3    H217648   1.759   3.309   0.924 -0.9119 -0.6645 -0.0216
 5903TIP3   OH217649   7.279   0.980   0.365  0.1387 -0.5545 -0.2337
 5903TIP3    H117650   7.290   0.997   0.271 -0.3987 -0.5099 -0.2940
 5903TIP3    H217651   7.353   0.924   0.389  0.8725  0.3010 -0.4509
 5904TIP3   OH217652   6.694   1.435   6.589  0.0378 -0.0324  0.2876
 5904TIP3    H117653   6.738   1.504   6.638 -0.4517  1.0322 -0.7182
 5904TIP3    H217654   6.602   1.443   6.614  0.1209 -1.0446  0.9796
 5905TIP3   OH217655   4.852   4.674   3.495  0.1910 -0.5730  0.0362
 5905TIP3    H117656   4.898   4.633   3.569 -1.9372 -0.3098  1.6270
 5905TIP3    H217657   4.869   4.768   3.506 -1.1264 -0.4145  1.0063
 5906TIP3   OH217658   8.360   3.532   3.428 -0.2071  0.5475  0.0861
 5906TIP3    H117659   8.441   3.570   3.463  0.0356  0.8638 -0.8055
 5906TIP3    H217660   8.378   3.516   3.336  0.4592 -3.7739  0.7431
 5907TIP3   OH217661   3.718   3.339   4.745 -0.2290 -0.4506 -0.1284
 5907TIP3    H117662   3.707   3.259   4.693  2.0331 -1.1666  0.3560
 5907TIP3    H217663   3.674   3.320   4.828  1.0353 -1.6153  0.3226
 5908TIP3   OH217664   2.805   7.899   1.787 -0.6321  0.1856 -0.4223
 5908TIP3    H117665   2.783   7.968   1.724 -2.5254 -0.3487 -0.3932
 5908TIP3    H217666   2.894   7.873   1.763  0.2500  2.7495 -0.2901
 5909TIP3   OH217667   0.340   5.703   0.961  0.2257  0.7159  0.0116
 5909TIP3    H117668   0.265   5.721   0.904  0.3196  1.8391  0.2074
 5909TIP3    H217669   0.411   5.756   0.925  1.1715 -0.8864 -0.5995
 5910TIP3   OH217670   1.448   5.071   4.921  0.1496  0.6002 -0.2518
 5910TIP3    H117671   1.418   5.157   4.949  1.2633  0.2938  2.1638
 5910TIP3    H217672   1.539   5.085   4.894  0.4365  0.1703  0.4523
 5911TIP3   OH217673   6.253   4.663   3.528 -0.3067  0.3234  0.1445
 5911TIP3    H117674   6.238   4.636   3.619  1.0444 -0.5879  0.1312
 5911TIP3    H217675   6.318   4.600   3.495 -1.9148 -0.3774 -1.9568
 5912TIP3   OH217676   8.081   1.430   3.814  0.1681  0.1130 -0.4384
 5912TIP3    H117677   8.051   1.437   3.904  1.2701 -1.5637  0.1141
 5912TIP3    H217678   8.121   1.514   3.795  0.1520  0.4004  0.7257
 5913TIP3   OH217679   8.226   1.972   1.217  0.2549 -0.3000 -0.2311
 5913TIP3    H117680   8.218   1.988   1.311  0.1289  1.4939 -0.5133
 5913TIP3    H217681   8.136   1.975   1.184  0.0747 -2.8128 -0.1947
 5914TIP3   OH217682   3.330   3.654   3.184  0.2995 -0.5475  0.0120
 5914TIP3    H117683   3.290   3.718   3.243  0.9270  0.9606 -1.1047
 5914TIP3    H217684   3.257   3.608   3.144 -0.2175  0.1866  0.0968
 5915TIP3   OH217685   8.333   7.418   5.125  0.0045  0.3376 -0.6459
 5915TIP3    H117686   8.378   7.340   5.091  0.0561  0.5176 -0.9964
 5915TIP3    H217687   8.307   7.394   5.214  0.5817  0.1445 -0.5235
 5916TIP3   OH217688   7.157   0.173   1.101  0.4125  0.2056 -0.0373
 5916TIP3    H117689   7.252   0.175   1.110  0.4925 -1.2003 -0.3858
 5916TIP3    H217690   7.129   0.100   1.157 -0.4226  0.3274 -0.2828
 5917TIP3   OH217691   6.214   5.584   1.412 -0.7623 -0.2125  0.1590
 5917TIP3    H117692   6.273   5.515   1.443 -2.4803 -1.0258  1.8042
 5917TIP3    H217693   6.272   5.657   1.392  0.7908 -0.7827  2.2147
 5918TIP3   OH217694   8.092   1.965   4.445 -0.4537 -0.0757  0.3795
 5918TIP3    H117695   8.102   1.935   4.536 -1.6585 -2.1377 -0.1138
 5918TIP3    H217696   7.999   1.986   4.437 -0.2996  0.3826 -0.3124
 5919TIP3   OH217697   8.289   1.693   2.944  0.2911  0.5939  0.7072
 5919TIP3    H117698   8.385   1.700   2.948  0.3606 -0.0937  0.3165
 5919TIP3    H217699   8.270   1.677   2.851 -0.2371  1.1909  0.7067
 5920TIP3   OH217700   3.035   7.222   5.047 -0.5196 -0.3150 -0.5254
 5920TIP3    H117701   2.984   7.213   5.128 -0.0555 -1.9153 -0.3798
 5920TIP3    H217702   3.108   7.280   5.072  0.2197 -1.6451  0.5348
 5921TIP3   OH217703   5.365   2.106   5.839 -0.1981  0.2002 -0.0957
 5921TIP3    H117704   5.357   2.011   5.826 -1.4291  0.1706  0.7374
 5921TIP3    H217705   5.442   2.116   5.895 -1.1172 -0.4830  1.3622
 5922TIP3   OH217706   4.997   6.362   1.625 -0.1603  0.3945  0.0532
 5922TIP3    H117707   4.919   6.353   1.679 -0.0148  1.3117  0.4188
 5922TIP3    H217708   5.059   6.299   1.662 -0.1195  0.8923  0.8608
 5923TIP3   OH217709   2.233   0.041   2.233 -0.3522  0.5312  0.2050
 5923TIP3    H117710   2.178   0.084   2.168 -0.8866  0.8244  0.8523
 5923TIP3    H217711   2.251  -0.046   2.195 -0.7022  0.6814 -0.3072
 5924TIP3   OH217712   4.226   2.112   3.317  0.2608  0.2403  0.0791
 5924TIP3    H117713   4.150   2.170   3.312  0.6878  0.7586 -0.4936
 5924TIP3    H217714   4.298   2.161   3.277  0.3417 -1.1706 -1.6451
 5925TIP3   OH217715   4.362   6.257   2.179 -0.4820 -0.1917 -0.0337
 5925TIP3    H117716   4.428   6.209   2.229  1.5197  1.8890 -0.4706
 5925TIP3    H217717   4.412   6.303   2.112 -2.2408  2.2047  0.1629
 5926TIP3   OH217718   0.796   1.463   6.659  0.2319  0.6855 -0.3048
 5926TIP3    H117719   0.749   1.518   6.597  0.4606  1.4173  0.1576
 5926TIP3    H217720   0.737   1.390   6.678 -0.4206  1.2183 -0.2786
 5927TIP3   OH217721   2.019   1.159   1.006 -0.4039 -0.1355  0.0470
 5927TIP3    H117722   2.073   1.164   0.926  0.7168 -1.2603  0.6990
 5927TIP3    H217723   1.995   1.250   1.023  2.3045  0.6301  0.3677
 5928TIP3   OH217724   7.646   0.879   6.659 -0.1536  0.0029  0.0505
 5928TIP3    H117725   7.577   0.935   6.695 -0.4100  0.6587 -1.4004
 5928TIP3    H217726   7.718   0.939   6.640  0.2453 -0.4474  0.1180
 5929TIP3   OH217727   6.312   2.986   3.373 -0.2476  0.7268 -0.3757
 5929TIP3    H117728   6.259   3.064   3.355  0.2469  1.0347 -0.5345
 5929TIP3    H217729   6.327   2.947   3.287 -2.7402 -1.0849 -0.0925
 5930TIP3   OH217730   6.590   2.829   3.233  0.4881 -0.0195  0.0037
 5930TIP3    H117731   6.620   2.850   3.144 -1.7789  2.3915 -0.3328
 5930TIP3    H217732   6.603   2.735   3.241  0.4723 -0.4005 -3.0377
 5931TIP3   OH217733   6.863   0.269   4.657 -0.2380  0.8004  0.4613
 5931TIP3    H117734   6.919   0.263   4.580  0.2137  1.5067  0.7239
 5931TIP3    H217735   6.880   0.188   4.705 -0.3584  0.4594 -0.0688
 5932TIP3   OH217736   1.908   4.739   6.043 -0.1119  0.5136 -0.1984
 5932TIP3    H117737   1.935   4.741   6.134 -0.8990 -0.5500  0.0802
 5932TIP3    H217738   1.941   4.655   6.009 -0.3191  0.6355 -0.7212
 5933TIP3   OH217739   6.795   5.194   5.780 -0.3719  0.3794 -0.3438
 5933TIP3    H117740   6.749   5.223   5.701 -0.5402  0.9861 -0.0314
 5933TIP3    H217741   6.885   5.226   5.769 -0.4159  0.5345 -0.2537
 5934TIP3   OH217742   6.193   2.714   5.906 -0.5211  0.4433 -0.5344
 5934TIP3    H117743   6.176   2.626   5.873  0.0152  0.3144 -0.4785
 5934TIP3    H217744   6.288   2.718   5.917 -0.6817  0.4869  0.9899
 5935TIP3   OH217745   4.977   5.741   2.044  0.4609  0.2974  0.3401
 5935TIP3    H117746   4.925   5.662   2.028  0.2779  0.6964 -1.1341
 5935TIP3    H217747   5.048   5.711   2.100  0.7466 -1.0664 -0.6947
 5936TIP3   OH217748   0.647   0.393   5.397  0.2182  0.1284  0.6055
 5936TIP3    H117749   0.589   0.376   5.471 -3.0865 -1.4630 -2.0729
 5936TIP3    H217750   0.647   0.488   5.388  0.2265  0.3140  2.2087
 5937TIP3   OH217751   0.292   2.137   3.744 -0.4450  0.0514  0.4741
 5937TIP3    H117752   0.221   2.122   3.683  0.6269 -0.3682 -0.7067
 5937TIP3    H217753   0.360   2.074   3.719  1.2075  1.8556  0.1280
 5938TIP3   OH217754   6.687   2.903   0.408 -0.2641 -0.4668 -0.2633
 5938TIP3    H117755   6.709   2.891   0.315  1.6838  2.8111 -0.3902
 5938TIP3    H217756   6.592   2.919   0.408 -0.7210 -2.6686 -1.3071
 5939TIP3   OH217757   5.248   7.276   6.296  0.0562 -0.3560  0.0468
 5939TIP3    H117758   5.173   7.241   6.344  0.9133  0.5929  2.2588
 5939TIP3    H217759   5.234   7.370   6.294  1.0312 -0.1943  0.2542
 5940TIP3   OH217760   0.613   4.711   3.212  0.3381  0.4799  0.2697
 5940TIP3    H117761   0.637   4.618   3.211  0.8826  0.6036  1.0753
 5940TIP3    H217762   0.546   4.717   3.279 -2.3044  0.0927 -2.1129
 5941TIP3   OH217763   6.173   3.837   1.800  0.0525  0.2913 -0.2279
 5941TIP3    H117764   6.173   3.831   1.895 -1.1431 -0.6831 -0.2532
 5941TIP3    H217765   6.140   3.925   1.781 -0.3981  0.2372  0.2740
 5942TIP3   OH217766   6.568   4.313   4.044 -0.1369  0.0004 -0.4631
 5942TIP3    H117767   6.599   4.228   4.010  0.0941  0.6436 -1.9567
 5942TIP3    H217768   6.482   4.294   4.082  0.2023 -1.0178 -0.1613
 5943TIP3   OH217769   3.715   4.196   4.497  0.2065  0.3250  0.2364
 5943TIP3    H117770   3.728   4.135   4.424 -0.2969 -0.9217  1.1379
 5943TIP3    H217771   3.621   4.217   4.493  0.3824  1.0680 -0.0783
 5944TIP3   OH217772   8.281   6.759   2.911  0.0578  0.3012  0.3169
 5944TIP3    H117773   8.312   6.850   2.912 -1.2492  0.7950 -0.5088
 5944TIP3    H217774   8.340   6.714   2.851 -0.1770  0.9785 -0.4498
 5945TIP3   OH217775   6.288   6.481   5.429  0.4233  0.4132  0.1549
 5945TIP3    H117776   6.249   6.528   5.504  2.2055  4.3898 -1.1328
 5945TIP3    H217777   6.361   6.432   5.467 -0.7183 -0.3844  1.4146
 5946TIP3   OH217778   7.746   0.801   3.076  0.0578 -0.0358 -0.8120
 5946TIP3    H117779   7.748   0.765   3.165  0.1145 -0.6875 -1.0700
 5946TIP3    H217780   7.799   0.741   3.025 -0.0942  0.2563 -1.3182
 5947TIP3   OH217781   5.718   1.447   2.288 -0.1094 -0.4219 -0.0341
 5947TIP3    H117782   5.795   1.501   2.270  0.5252 -1.5757 -0.8656
 5947TIP3    H217783   5.709   1.392   2.211 -1.6281 -0.4921  0.1646
 5948TIP3   OH217784   6.311   6.286   2.496 -0.3757  0.2418 -0.4586
 5948TIP3    H117785   6.277   6.196   2.492 -2.5473  0.9740 -0.1974
 5948TIP3    H217786   6.376   6.284   2.565  0.1814 -1.2793 -0.9761
 5949TIP3   OH217787   0.950   6.876   5.140 -0.3033  0.4527  0.0401
 5949TIP3    H117788   0.915   6.883   5.229 -0.4521  1.2568 -0.0652
 5949TIP3    H217789   0.874   6.855   5.087 -0.5711  1.7077 -0.1202
 5950TIP3   OH217790   6.216   6.924   6.540 -0.7976 -0.1095 -0.0115
 5950TIP3    H117791   6.310   6.906   6.534 -0.8767 -0.7310  0.5547
 5950TIP3    H217792   6.209   7.018   6.523 -0.1396 -0.1644 -0.6457
 5951TIP3   OH217793   5.676   0.692   0.342 -0.0141 -0.0866  0.3247
 5951TIP3    H117794   5.623   0.679   0.421 -1.2346  3.1096  0.1838
 5951TIP3    H217795   5.617   0.674   0.270 -0.8270  2.6578  0.1799
 5952TIP3   OH217796   1.521   0.999   1.093 -0.3824 -0.3234 -0.3354
 5952TIP3    H117797   1.569   0.952   1.024  1.2702 -0.7547  1.0072
 5952TIP3    H217798   1.585   1.060   1.129 -1.6815  1.0003 -0.2046
 5953TIP3   OH217799   4.298   1.550   0.214  0.1157  0.4087 -0.1739
 5953TIP3    H117800   4.254   1.511   0.138 -1.1843  2.2300 -0.4260
 5953TIP3    H217801   4.265   1.501   0.289  0.1564 -0.3497 -0.6482
 5954TIP3   OH217802   8.361   2.103   3.300  0.2521 -0.3103 -0.2300
 5954TIP3    H117803   8.432   2.072   3.243  1.5367  0.3067  0.9764
 5954TIP3    H217804   8.321   2.175   3.251 -0.0915 -1.1775 -1.2696
 5955TIP3   OH217805   1.751   7.346   4.451  0.0198  0.2290 -0.3969
 5955TIP3    H117806   1.830   7.390   4.421  0.3679  1.2836  1.8123
 5955TIP3    H217807   1.724   7.396   4.529 -1.3453 -1.6397  0.4192
 5956TIP3   OH217808   1.092  -0.007   4.085  0.0447  0.3831  0.0761
 5956TIP3    H117809   1.109   0.079   4.123 -0.1748 -0.3857  2.0218
 5956TIP3    H217810   1.120  -0.069   4.152  0.0965 -1.0813 -1.2388
 5957TIP3   OH217811   0.049   7.089   5.059  0.0943 -0.0682 -0.1554
 5957TIP3    H117812   0.118   7.046   5.007  0.3448  1.7906 -1.4571
 5957TIP3    H217813   0.097   7.143   5.122 -0.2183 -0.7211  0.6661
 5958TIP3   OH217814   5.703   1.142   3.376 -0.2719  0.0187  0.6883
 5958TIP3    H117815   5.692   1.206   3.305  0.1292 -0.5078  0.1396
 5958TIP3    H217816   5.649   1.068   3.351 -0.3383 -0.0637  1.0694
 5959TIP3   OH217817   2.107   4.516   2.661 -0.2280 -0.4519 -0.4172
 5959TIP3    H117818   2.084   4.564   2.740 -0.0476 -0.0525 -0.6046
 5959TIP3    H217819   2.187   4.558   2.629  0.0605 -1.0146 -0.4630
 5960TIP3   OH217820   0.042   1.270   6.087  0.1815 -0.2810 -0.0099
 5960TIP3    H117821   0.133   1.300   6.095  1.0608 -2.4953 -0.8249
 5960TIP3    H217822   0.029   1.213   6.163 -1.0588  1.1080  0.8794
 5961TIP3   OH217823   4.958   4.878   2.787 -0.0775  0.0522  0.0436
 5961TIP3    H117824   4.922   4.798   2.750  1.5877  0.1203 -1.8585
 5961TIP3    H217825   4.964   4.939   2.713  0.6952  1.1946  1.0059
 5962TIP3   OH217826   1.053   5.433   5.321  0.5090 -0.0295  0.1930
 5962TIP3    H117827   1.021   5.403   5.406 -2.1635  1.2340 -0.2832
 5962TIP3    H217828   1.070   5.527   5.333 -0.5828  0.3146 -0.8356
 5963TIP3   OH217829   5.587   3.048   1.979 -0.0633 -0.2584  0.0657
 5963TIP3    H117830   5.575   3.124   2.037 -4.1740  0.2711 -1.1159
 5963TIP3    H217831   5.549   2.975   2.029 -0.4491 -0.5249 -0.6136
 5964TIP3   OH217832   7.808   1.453   6.783  0.3554  0.1284 -0.0491
 5964TIP3    H117833   7.806   1.492   6.695  1.0898  0.2739 -0.0036
 5964TIP3    H217834   7.719   1.467   6.817  0.4158  1.1748 -0.2880
 5965TIP3   OH217835   1.391   6.216   1.120  0.4186  0.0358 -0.0976
 5965TIP3    H117836   1.392   6.304   1.156 -1.8001  0.3985 -0.7843
 5965TIP3    H217837   1.467   6.173   1.160  0.0610  1.4386  2.2814
 5966TIP3   OH217838   3.893   6.614   1.057  0.2900 -0.7477  0.0505
 5966TIP3    H117839   3.923   6.685   1.000  2.5811 -1.9349 -0.3057
 5966TIP3    H217840   3.903   6.649   1.146 -1.2182  0.3074 -0.1393
 5967TIP3   OH217841   6.957   2.799   3.028  0.2551  0.0940 -0.2733
 5967TIP3    H117842   6.924   2.725   2.978 -0.2704  0.2774 -0.2112
 5967TIP3    H217843   7.028   2.835   2.975 -0.1145  0.1209 -0.7517
 5968TIP3   OH217844   1.767   5.479   3.216  0.1776 -0.2977  0.5445
 5968TIP3    H117845   1.676   5.494   3.190  0.3626  2.0443  0.9778
 5968TIP3    H217846   1.814   5.467   3.133 -0.2811  0.1605  0.2099
 5969TIP3   OH217847   1.191   1.031   6.582 -0.3483 -0.0414  0.3063
 5969TIP3    H117848   1.116   1.074   6.621  0.2851  0.7404  0.6793
 5969TIP3    H217849   1.250   1.102   6.557 -0.4289 -0.5472 -1.4608
 5970TIP3   OH217850   6.698   1.087   0.914  0.7298  0.2846 -0.5602
 5970TIP3    H117851   6.719   0.995   0.901  1.0740  0.1732  0.6356
 5970TIP3    H217852   6.650   1.113   0.836 -1.5852 -1.5712  0.1448
 5971TIP3   OH217853   0.253   6.013   3.674 -0.4560  0.1469 -0.1782
 5971TIP3    H117854   0.268   6.087   3.733  0.5156 -0.1191 -0.0685
 5971TIP3    H217855   0.172   6.035   3.628 -0.1551  1.3076 -0.1905
 5972TIP3   OH217856   5.481   2.888   6.174 -0.2745  0.5533  0.1217
 5972TIP3    H117857   5.447   2.800   6.191 -0.6684  0.8033  0.6605
 5972TIP3    H217858   5.407   2.946   6.190 -0.0766  0.9715 -0.4432
 5973TIP3   OH217859   0.835   4.737   4.939 -0.0009 -0.7072  0.2870
 5973TIP3    H117860   0.922   4.763   4.968  0.1317 -1.1072  0.2520
 5973TIP3    H217861   0.845   4.717   4.846 -0.5314  1.0576 -0.1798
 5974TIP3   OH217862   0.078   5.838   2.674  0.1819 -0.0559 -0.5833
 5974TIP3    H117863   0.043   5.887   2.749  1.0823 -1.4918  0.8548
 5974TIP3    H217864   0.122   5.903   2.620  2.0107  0.6939  1.6444
 5975TIP3   OH217865   4.024   3.803   4.625 -0.1049 -0.0375 -0.6368
 5975TIP3    H117866   4.119   3.808   4.612 -0.1860  1.7130 -0.7488
 5975TIP3    H217867   3.987   3.840   4.544 -0.9882 -2.8114 -1.6343
 5976TIP3   OH217868   2.179   2.815   5.639  0.4837  0.5124  0.1122
 5976TIP3    H117869   2.186   2.797   5.733  0.2370  1.0928  0.2452
 5976TIP3    H217870   2.228   2.744   5.598  2.7320  1.5750  0.7824
 5977TIP3   OH217871   6.562   2.835   4.094  0.1101  0.3656 -0.4973
 5977TIP3    H117872   6.581   2.743   4.109 -0.9418  0.1216 -0.5792
 5977TIP3    H217873   6.622   2.882   4.153  0.7004 -0.3590 -0.5105
 5978TIP3   OH217874   7.972   6.859   3.277  0.0805  0.0061 -0.3112
 5978TIP3    H117875   7.919   6.815   3.344  0.5423 -1.0321 -0.6096
 5978TIP3    H217876   8.010   6.934   3.322 -1.3622  0.5774  0.0015
 5979TIP3   OH217877   3.710   6.746   5.774 -0.0991 -0.0493  0.6522
 5979TIP3    H117878   3.661   6.731   5.854  1.3980 -0.2905  1.5652
 5979TIP3    H217879   3.660   6.814   5.728 -1.7192 -0.8787  1.1034
 5980TIP3   OH217880   3.581   7.511   3.803 -0.2601  0.0338 -0.1562
 5980TIP3    H117881   3.512   7.506   3.736  0.7259  1.4143 -1.3363
 5980TIP3    H217882   3.584   7.603   3.829  1.7433  0.2405 -0.8687
 5981TIP3   OH217883   1.361   2.749   4.091 -0.8642  0.2573 -0.3467
 5981TIP3    H117884   1.438   2.761   4.035 -1.6735  0.9166 -1.3575
 5981TIP3    H217885   1.340   2.837   4.123 -1.9310  0.2939 -1.1008
 5982TIP3   OH217886   1.584   5.932   1.169  0.5317 -0.5803 -0.2216
 5982TIP3    H117887   1.563   5.968   1.254  1.6008 -1.6547  0.5402
 5982TIP3    H217888   1.635   6.000   1.125 -1.0058  0.4279 -0.4864
 5983TIP3   OH217889   5.891   1.542   4.745 -0.1586  0.4224  0.3079
 5983TIP3    H117890   5.972   1.591   4.760 -0.5516  0.7251  1.6497
 5983TIP3    H217891   5.826   1.610   4.728 -0.0685  0.1592 -1.1687
 5984TIP3   OH217892   4.181   4.578   4.772  0.1830  0.3370  0.1699
 5984TIP3    H117893   4.227   4.499   4.802  2.0180  1.2397 -0.1383
 5984TIP3    H217894   4.167   4.629   4.852  0.6910  0.5568  0.1155
 5985TIP3   OH217895   8.416   0.503   5.623  0.4947 -0.3846  0.0410
 5985TIP3    H117896   8.416   0.417   5.582 -1.8881 -0.7744  0.7188
 5985TIP3    H217897   8.324   0.523   5.639  1.0064  2.0324  0.4880
 5986TIP3   OH217898   1.460   4.372   0.029 -0.3051  0.0662  0.8905
 5986TIP3    H117899   1.383   4.386   0.084 -0.6036  1.4487  0.1706
 5986TIP3    H217900   1.533   4.406   0.080  0.1546 -2.6429  2.2411
 5987TIP3   OH217901   1.500   7.711   3.675  0.2088  0.3619  0.1746
 5987TIP3    H117902   1.460   7.796   3.692 -0.4811 -0.0309  0.5398
 5987TIP3    H217903   1.465   7.654   3.743  0.4558 -0.2876 -0.2342
 5988TIP3   OH217904   2.263   0.571   6.453  0.3794  0.0363 -0.1519
 5988TIP3    H117905   2.284   0.544   6.543 -0.2355 -0.0051 -0.0181
 5988TIP3    H217906   2.170   0.594   6.456  0.7835  1.8539 -0.3405
 5989TIP3   OH217907   1.911   4.637   3.717  0.2832  0.3622 -0.4338
 5989TIP3    H117908   1.968   4.663   3.644 -0.6572  0.9974 -0.9719
 5989TIP3    H217909   1.882   4.720   3.755 -0.2238  0.0508 -0.1367
 5990TIP3   OH217910   8.381   5.440   2.070  0.1308 -0.5125 -0.2601
 5990TIP3    H117911   8.396   5.503   1.999  1.7091 -2.3000 -1.6066
 5990TIP3    H217912   8.323   5.486   2.131 -1.3699  1.0839 -2.7235
 5991TIP3   OH217913   4.860   0.198   6.793 -0.6725 -0.4786  0.2586
 5991TIP3    H117914   4.802   0.243   6.854 -0.1609  0.4078  0.1011
 5991TIP3    H217915   4.921   0.150   6.849  0.4605  1.1654  0.5039
 5992TIP3   OH217916   2.893   0.416   0.839 -0.4658  0.2483  0.3619
 5992TIP3    H117917   2.919   0.363   0.764 -1.7283  1.0600 -0.6960
 5992TIP3    H217918   2.927   0.368   0.915 -0.3827 -1.3392 -0.6267
 5993TIP3   OH217919   1.606   5.842   2.397 -0.8372 -0.2129 -0.1317
 5993TIP3    H117920   1.677   5.814   2.340  0.2409  2.5764 -0.3273
 5993TIP3    H217921   1.526   5.825   2.346 -0.0949 -0.5597 -1.2128
 5994TIP3   OH217922   7.153   2.598   0.411  0.1627 -0.0212 -0.1340
 5994TIP3    H117923   7.234   2.646   0.392 -0.2846  0.5887 -0.5261
 5994TIP3    H217924   7.097   2.662   0.454  0.6264 -0.9939  2.0183
 5995TIP3   OH217925   6.012   7.311   1.486 -0.5795  0.1047 -0.1074
 5995TIP3    H117926   6.070   7.272   1.552 -0.8347  1.3715  0.8957
 5995TIP3    H217927   6.063   7.382   1.448 -0.9512  0.2846 -0.2692
 5996TIP3   OH217928   6.739   6.454   6.506 -0.7982 -0.5393 -0.5352
 5996TIP3    H117929   6.809   6.393   6.481  0.6909 -0.1419  2.2595
 5996TIP3    H217930   6.757   6.533   6.454  0.5010 -0.6530 -0.3062
 5997TIP3   OH217931   0.558   3.794   0.759 -0.2533 -0.0487 -0.3675
 5997TIP3    H117932   0.516   3.861   0.706 -0.6629  0.0552  0.0832
 5997TIP3    H217933   0.645   3.829   0.778 -0.4021  0.2725 -0.2793
 5998TIP3   OH217934   5.109   3.475   5.281  0.1252  0.1941 -0.4361
 5998TIP3    H117935   5.064   3.555   5.309  1.0425  0.0828  1.5556
 5998TIP3    H217936   5.199   3.503   5.266  0.9745 -0.7587  2.3493
 5999TIP3   OH217937   0.589   6.042   5.868 -0.1288  0.2443 -0.0016
 5999TIP3    H117938   0.682   6.028   5.887  0.0634  1.2992 -0.1569
 5999TIP3    H217939   0.560   6.107   5.932 -0.8732 -0.3877  0.3250
 6000TIP3   OH217940   5.198   1.711   0.911 -0.1608  0.6220  0.3269
 6000TIP3    H117941   5.125   1.666   0.955 -0.7462  1.1871 -0.0539
 6000TIP3    H217942   5.267   1.713   0.977 -0.3313 -0.2968  0.5561
 6001TIP3   OH217943   7.466   1.534   2.981  0.4097  0.2706  0.1466
 6001TIP3    H117944   7.377   1.516   2.949 -0.0220  1.4461  0.6592
 6001TIP3    H217945   7.453   1.589   3.058  1.5808  0.2102  0.3933
 6002TIP3   OH217946   0.207   3.635   2.007 -0.1094  0.8929  0.2183
 6002TIP3    H117947   0.204   3.540   2.021  1.3880  0.7645 -0.1724
 6002TIP3    H217948   0.137   3.669   2.062 -1.4524 -0.5276 -0.5417
 6003TIP3   OH217949   0.075   6.786   1.827 -0.3240  0.3410  0.0359
 6003TIP3    H117950   0.133   6.802   1.752 -1.6629 -1.4428 -1.4941
 6003TIP3    H217951   0.125   6.727   1.883 -0.3543 -0.6150 -0.9102
 6004TIP3   OH217952   0.773   0.501   3.988  0.6555  0.0203  0.1060
 6004TIP3    H117953   0.813   0.475   3.906  0.5328 -0.1312  0.0935
 6004TIP3    H217954   0.773   0.597   3.986 -2.7843  0.1468 -1.7895
 6005TIP3   OH217955   0.307   5.337   2.929  1.0028 -0.5483  0.0117
 6005TIP3    H117956   0.262   5.336   3.014  1.8803 -1.2062  0.4726
 6005TIP3    H217957   0.237   5.319   2.865  0.7620 -2.6190  0.8028
 6006TIP3   OH217958   4.780   4.331   4.153  0.1753  0.0812  0.0445
 6006TIP3    H117959   4.718   4.347   4.225  0.0600 -1.1313  0.2382
 6006TIP3    H217960   4.827   4.252   4.179 -0.0165 -0.5068 -1.2998
 6007TIP3   OH217961   0.595   2.261   2.188 -0.2804 -0.5261  0.2645
 6007TIP3    H117962   0.651   2.337   2.198  1.6961 -1.8355 -0.3636
 6007TIP3    H217963   0.566   2.263   2.097 -1.5059  0.2670  0.6432
 6008TIP3   OH217964   6.537   4.106   6.019  0.4668 -0.2176 -0.4055
 6008TIP3    H117965   6.516   4.019   6.051  1.5299 -0.2884  0.1120
 6008TIP3    H217966   6.489   4.113   5.936 -1.6829 -0.3340  0.7570
 6009TIP3   OH217967   6.868   2.937   5.369 -0.4825  0.3177 -0.8611
 6009TIP3    H117968   6.908   2.997   5.433 -1.9793 -0.9134  1.3977
 6009TIP3    H217969   6.940   2.912   5.312  2.0065 -1.3922  2.6565
 6010TIP3   OH217970   0.706   7.900   2.286  0.1607  0.0055  0.3899
 6010TIP3    H117971   0.637   7.874   2.225  1.1129 -1.1347 -0.2620
 6010TIP3    H217972   0.690   7.847   2.365  0.8079 -0.9715 -0.1125
 6011TIP3   OH217973   7.900   5.134   3.535  0.6040 -0.3285 -0.1299
 6011TIP3    H117974   7.849   5.073   3.481  0.6268  0.8143 -1.5057
 6011TIP3    H217975   7.882   5.107   3.625 -0.1968 -1.7093 -0.6698
 6012TIP3   OH217976   2.472   4.299   1.925  0.3241  0.7030 -0.4191
 6012TIP3    H117977   2.506   4.350   1.999  0.0479  1.2017 -0.6327
 6012TIP3    H217978   2.505   4.343   1.847  2.9466 -1.3987 -0.6411
 6013TIP3   OH217979   4.475   0.321   2.327 -0.7839 -0.0322 -0.5527
 6013TIP3    H117980   4.397   0.354   2.373 -0.7030 -2.4122  1.4816
 6013TIP3    H217981   4.547   0.340   2.387  0.0733  0.9389 -1.8324
 6014TIP3   OH217982   3.671   6.915   6.142 -0.5983  0.0956 -0.3890
 6014TIP3    H117983   3.688   6.974   6.068 -0.6482 -0.3149 -0.7303
 6014TIP3    H217984   3.671   6.973   6.218  0.9105  0.3429 -0.5273
 6015TIP3   OH217985   2.755   6.768   5.170 -0.3161  0.1549 -0.0543
 6015TIP3    H117986   2.771   6.674   5.173 -1.5040 -0.0589  0.1543
 6015TIP3    H217987   2.719   6.790   5.256  0.8713  1.0040  0.2632
 6016TIP3   OH217988   4.357   5.292   3.882  0.0770 -0.3294  0.0834
 6016TIP3    H117989   4.359   5.259   3.972  1.2927 -1.8208 -0.4350
 6016TIP3    H217990   4.391   5.381   3.888  0.4002 -0.5088  1.0748
 6017TIP3   OH217991   3.583   6.622   0.257  0.7621  0.1594 -0.4597
 6017TIP3    H117992   3.666   6.645   0.298 -1.0490  1.1643  3.1473
 6017TIP3    H217993   3.538   6.570   0.324 -2.2947  1.4264 -1.3521
 6018TIP3   OH217994   8.269   1.680   1.258  0.0479 -0.3057  0.7746
 6018TIP3    H117995   8.262   1.773   1.280  0.1501  0.2256 -1.2604
 6018TIP3    H217996   8.340   1.676   1.194 -0.6063 -1.6324  0.0935
 6019TIP3   OH217997   3.816   5.407   0.583 -0.4891 -0.2372  0.0368
 6019TIP3    H117998   3.792   5.469   0.652 -0.1061 -1.3239  1.1990
 6019TIP3    H217999   3.891   5.447   0.539 -1.8424  1.3156 -0.9997
 6020TIP3   OH218000   1.240   3.987   4.597 -0.2192  0.3387 -0.0017
 6020TIP3    H118001   1.155   3.945   4.613 -0.6025  1.4161  0.8840
 6020TIP3    H218002   1.284   3.984   4.682  0.6394 -0.2023 -0.4551
 6021TIP3   OH218003   6.078   7.308   4.015 -0.2218 -0.6755 -0.2405
 6021TIP3    H118004   6.065   7.240   4.082 -2.9979 -0.0544 -0.0085
 6021TIP3    H218005   6.156   7.354   4.043  1.1011 -3.0167  0.2205
 6022TIP3   OH218006   0.565   5.107   1.137 -0.7383  0.3668  0.0963
 6022TIP3    H118007   0.606   5.046   1.076 -1.5074  0.3019 -0.3646
 6022TIP3    H218008   0.485   5.063   1.165 -0.8752  0.8114  0.4092
 6023TIP3   OH218009   6.127   0.316   0.868  0.3108  0.1393  0.8181
 6023TIP3    H118010   6.038   0.338   0.896 -0.9683 -2.1163 -1.1183
 6023TIP3    H218011   6.179   0.393   0.892 -2.2526  1.8184  1.4359
 6024TIP3   OH218012   4.052   3.163   6.036  0.2641  0.1202  0.2615
 6024TIP3    H118013   4.123   3.141   5.975  1.9510 -1.7140  2.6606
 6024TIP3    H218014   3.984   3.098   6.018 -0.5262  1.3535 -1.4735
 6025TIP3   OH218015   3.033   5.307   6.073 -0.1401  0.3225 -0.3353
 6025TIP3    H118016   3.040   5.284   6.166 -1.0480  0.4094 -0.2362
 6025TIP3    H218017   2.956   5.363   6.068 -0.3287 -0.0034 -1.2083
 6026TIP3   OH218018   3.284   0.074   1.512  0.0045  0.2316 -0.4564
 6026TIP3    H118019   3.212   0.136   1.498  0.3417  0.9555  0.8929
 6026TIP3    H218020   3.247   0.009   1.572 -0.1368 -0.5308 -1.3443
 6027TIP3   OH218021   5.313   7.848   1.691  0.1129 -0.4085  0.2310
 6027TIP3    H118022   5.328   7.788   1.619  0.8200  0.4918 -0.3965
 6027TIP3    H218023   5.259   7.799   1.753  0.0393 -1.4110 -0.6087
 6028TIP3   OH218024   1.003   2.879   5.867 -0.5160 -0.0753  0.3031
 6028TIP3    H118025   1.090   2.908   5.839 -1.5330  1.8945 -0.9997
 6028TIP3    H218026   0.955   2.960   5.883 -1.6860 -1.1127  2.5448
 6029TIP3   OH218027   2.571   1.563   3.104 -0.0088 -0.0172  0.2838
 6029TIP3    H118028   2.613   1.489   3.061 -2.2346 -1.7862  0.8999
 6029TIP3    H218029   2.565   1.630   3.037  0.9125 -0.8793 -0.6968
 6030TIP3   OH218030   1.829   3.469   1.572 -0.1672  0.1818 -0.0010
 6030TIP3    H118031   1.798   3.403   1.633 -0.2650  0.4241  0.2125
 6030TIP3    H218032   1.842   3.547   1.625 -2.6463  1.1512 -0.7003
 6031TIP3   OH218033   4.731   1.538   2.849  0.0186  0.1464  0.4108
 6031TIP3    H118034   4.802   1.602   2.858 -0.0738  0.1272  1.2876
 6031TIP3    H218035   4.737   1.511   2.757  0.3587  1.0584  0.1405
 6032TIP3   OH218036   8.415   2.083   1.025  0.2753  0.1905 -0.2860
 6032TIP3    H118037   8.364   2.134   0.962 -1.5367  0.4735  1.3101
 6032TIP3    H218038   8.352   2.059   1.093  1.6914 -1.8549  0.4080
 6033TIP3   OH218039   5.950   6.954   4.972  0.1229 -0.4348 -0.0290
 6033TIP3    H118040   6.016   6.976   5.038 -1.1767 -1.9899  1.9146
 6033TIP3    H218041   5.974   6.866   4.943 -0.2600 -0.4078 -0.4314
 6034TIP3   OH218042   4.974   4.105   2.647  0.1286 -0.0337  0.2732
 6034TIP3    H118043   4.949   4.083   2.737  0.4601 -1.7980 -0.0167
 6034TIP3    H218044   4.898   4.079   2.594  1.1476 -2.2290 -0.2530
 6035TIP3   OH218045   2.577   4.637   3.684 -0.4326 -0.3768 -0.1455
 6035TIP3    H118046   2.583   4.707   3.749 -0.1577 -1.5174  1.1030
 6035TIP3    H218047   2.518   4.573   3.723 -1.0759 -0.6320 -1.4836
 6036TIP3   OH218048   5.846   5.779   3.712  0.5483  0.0616  0.3908
 6036TIP3    H118049   5.782   5.820   3.653 -0.0748 -2.2924 -0.6945
 6036TIP3    H218050   5.807   5.695   3.734  2.8887 -1.0923  0.4161
 6037TIP3   OH218051   0.073   6.066   4.094  0.4459  0.3636 -0.1148
 6037TIP3    H118052   0.047   6.055   4.185 -0.9027  0.0802 -0.5133
 6037TIP3    H218053   0.161   6.103   4.099  0.5003  0.1082  1.2962
 6038TIP3   OH218054   0.985   5.466   4.586 -0.4073  0.2317  0.0048
 6038TIP3    H118055   0.933   5.474   4.505 -1.0417  0.2439  0.4079
 6038TIP3    H218056   1.021   5.378   4.582 -0.9241  0.0169 -0.0121
 6039TIP3   OH218057   1.920   2.676   1.133  0.0403 -0.0448  0.4479
 6039TIP3    H118058   1.909   2.712   1.045 -1.7939 -0.7461  0.3555
 6039TIP3    H218059   2.008   2.639   1.132 -0.6247 -1.7824 -1.7703
 6040TIP3   OH218060   4.568   5.274   4.801 -0.0290 -0.4279  0.7118
 6040TIP3    H118061   4.648   5.280   4.749 -0.0388  0.3916  0.7791
 6040TIP3    H218062   4.596   5.293   4.891 -0.2324 -0.5307  0.7978
 6041TIP3   OH218063   4.484   1.759   0.639  0.1316 -0.6006 -0.0123
 6041TIP3    H118064   4.536   1.693   0.593  0.8829  0.1609 -0.2775
 6041TIP3    H218065   4.393   1.741   0.612  0.2940 -1.6451  0.0868
 6042TIP3   OH218066   7.813   1.785   6.576 -0.6210  0.0286 -0.5139
 6042TIP3    H118067   7.750   1.733   6.626 -0.1751 -0.5426 -0.5460
 6042TIP3    H218068   7.763   1.862   6.548 -1.3514 -0.4981 -0.6816
 6043TIP3   OH218069   1.951   4.820   3.078 -0.2198 -0.6540  0.1708
 6043TIP3    H118070   1.910   4.905   3.060 -1.1290 -1.0505  0.3386
 6043TIP3    H218071   1.958   4.816   3.173  2.3654  0.3971  0.1027
 6044TIP3   OH218072   6.436   2.791   6.560 -0.4730  0.2321  0.1921
 6044TIP3    H118073   6.407   2.752   6.643 -0.4030  0.7559  0.4663
 6044TIP3    H218074   6.368   2.855   6.539 -0.9346 -0.5013 -0.6052
 6045TIP3   OH218075   5.906   3.470   4.444 -0.7802 -0.1282 -0.3009
 6045TIP3    H118076   5.971   3.461   4.374 -0.4556 -0.9416  0.0891
 6045TIP3    H218077   5.823   3.481   4.398 -0.2782  1.9336 -0.8228
 6046TIP3   OH218078   7.462   5.499   5.325  0.3512 -0.5273 -0.0485
 6046TIP3    H118079   7.440   5.462   5.239  0.1650  1.0696 -0.7244
 6046TIP3    H218080   7.557   5.487   5.333  0.1472 -2.1741  0.2902
 6047TIP3   OH218081   2.991   7.847   5.992  0.1526  0.1703  0.0818
 6047TIP3    H118082   3.007   7.755   5.972  0.6271  0.4186 -0.7156
 6047TIP3    H218083   3.001   7.892   5.908 -2.7704  0.6162 -0.1091
 6048TIP3   OH218084   2.237   0.826   5.171 -0.4321 -0.4304  0.0517
 6048TIP3    H118085   2.158   0.873   5.198 -0.2045  0.9086 -1.4075
 6048TIP3    H218086   2.247   0.756   5.235 -1.7871  0.4664  1.3161
 6049TIP3   OH218087   1.059   7.095   5.373 -0.2446 -0.1564 -0.1179
 6049TIP3    H118088   1.007   7.022   5.338 -0.7842  0.9986 -1.8618
 6049TIP3    H218089   1.095   7.139   5.296  2.3407 -0.1433  0.9782
 6050TIP3   OH218090   3.396   7.307   2.782 -0.7165  0.4639  0.2881
 6050TIP3    H118091   3.438   7.393   2.790 -1.1682  0.7080  0.0704
 6050TIP3    H218092   3.442   7.264   2.711 -1.2934  1.0120 -0.4379
 6051TIP3   OH218093   6.776   4.532   2.104 -0.1862 -0.1218  0.4357
 6051TIP3    H118094   6.793   4.617   2.065 -3.3242  0.5555  0.3254
 6051TIP3    H218095   6.824   4.534   2.187  3.3159 -0.0679 -1.3946
 6052TIP3   OH218096   7.764   6.540   6.192  0.1790 -0.2380 -0.0626
 6052TIP3    H118097   7.840   6.483   6.178  2.0567  1.8781  1.0142
 6052TIP3    H218098   7.735   6.563   6.104  1.0525 -0.7187 -0.4928
 6053TIP3   OH218099   5.208   7.308   5.596  0.0723  0.2952 -0.0288
 6053TIP3    H118100   5.113   7.306   5.609 -0.0272  1.9859 -0.1885
 6053TIP3    H218101   5.235   7.392   5.634  1.6238 -0.4823  0.6691
 6054TIP3   OH218102   2.451   7.827   1.047  0.5302 -0.5373  0.0052
 6054TIP3    H118103   2.397   7.792   1.118  0.0831 -0.5599 -0.3394
 6054TIP3    H218104   2.489   7.749   1.005  1.0986 -0.5059  0.4496
 6055TIP3   OH218105   4.027   7.130   5.725  0.0722 -0.3525  0.2878
 6055TIP3    H118106   3.941   7.139   5.766  0.1070  1.0868  0.0758
 6055TIP3    H218107   4.027   7.041   5.689 -1.4217 -0.2865  0.0621
 6056TIP3   OH218108   7.726   6.717   3.818 -0.3359  0.1942 -0.8497
 6056TIP3    H118109   7.755   6.627   3.812 -0.1955  0.2804 -1.5399
 6056TIP3    H218110   7.657   6.725   3.753 -1.5584  0.1378  0.3823
 6057TIP3   OH218111   6.107   1.363   1.658 -0.0412 -0.0241  0.4965
 6057TIP3    H118112   6.124   1.392   1.568  0.0392  0.7979  0.7699
 6057TIP3    H218113   6.034   1.417   1.688 -0.8373 -1.0934  0.5456
 6058TIP3   OH218114   6.010   4.629   0.330  0.2239  0.2247 -0.6105
 6058TIP3    H118115   6.014   4.560   0.397 -0.0330  0.6235 -0.1841
 6058TIP3    H218116   5.942   4.599   0.270  0.6766 -0.2919 -0.8769
 6059TIP3   OH218117   2.573   2.124   1.460 -0.0645 -0.2644  0.4073
 6059TIP3    H118118   2.632   2.199   1.459 -0.4285  0.0233  0.1294
 6059TIP3    H218119   2.556   2.106   1.367  2.1639 -2.4018  0.2991
 6060TIP3   OH218120   0.001   2.348   6.733 -0.0238  0.1774 -0.4573
 6060TIP3    H118121   0.008   2.257   6.705  1.1360 -0.0385  0.4692
 6060TIP3    H218122   0.048   2.352   6.816  1.0519  1.8687 -1.0868
 6061TIP3   OH218123   2.519   3.644   4.553  0.3293  0.6354  0.5938
 6061TIP3    H118124   2.568   3.606   4.626  1.5380 -1.8002 -1.3360
 6061TIP3    H218125   2.432   3.606   4.560  0.0235  1.4576  1.4766
 6062TIP3   OH218126   0.444   3.492   6.395  0.0181 -0.5506  0.3328
 6062TIP3    H118127   0.378   3.424   6.406 -0.2310 -0.5846 -1.1796
 6062TIP3    H218128   0.399   3.563   6.350  0.2803  0.6490  1.8624
 6063TIP3   OH218129   2.080   7.765   0.987  0.2411  0.5910  0.2552
 6063TIP3    H118130   2.023   7.819   1.042  0.3888  2.0084 -0.9256
 6063TIP3    H218131   2.087   7.813   0.904  1.5745 -0.5167 -0.3234
 6064TIP3   OH218132   7.593   3.877   3.033  0.4809  0.4346 -0.2215
 6064TIP3    H118133   7.615   3.881   2.940  0.8566 -1.2430 -0.2407
 6064TIP3    H218134   7.673   3.903   3.078  0.9545 -0.7546 -0.3568
 6065TIP3   OH218135   1.710   1.181   6.367 -0.1350  0.1140  0.3527
 6065TIP3    H118136   1.713   1.251   6.432 -2.4295  1.2322 -0.6640
 6065TIP3    H218137   1.801   1.171   6.338  0.4366  1.7424  1.4615
 6066TIP3   OH218138   0.100   4.365   5.361  0.5531  0.1699  0.6138
 6066TIP3    H118139   0.159   4.429   5.400 -0.3903  1.0060  0.7040
 6066TIP3    H218140   0.022   4.415   5.338 -0.4982 -1.0604  1.3492
 6067TIP3   OH218141   2.872   5.648   3.246 -0.2480  0.1028  0.3801
 6067TIP3    H118142   2.928   5.581   3.284  1.1693 -0.2198 -2.0424
 6067TIP3    H218143   2.920   5.730   3.260 -0.7160  0.2661  1.0569
 6068TIP3   OH218144   5.370   5.526   5.253  0.2295 -0.4135 -0.2724
 6068TIP3    H118145   5.444   5.504   5.309  1.2483 -0.3791 -1.5473
 6068TIP3    H218146   5.332   5.604   5.293 -0.5484 -1.7185  1.6765
 6069TIP3   OH218147   0.156   5.585   6.580  1.1511  0.0039  0.2232
 6069TIP3    H118148   0.118   5.507   6.619  1.5585  0.2224  1.0874
 6069TIP3    H218149   0.086   5.621   6.526  0.8023 -0.6917  0.2022
 6070TIP3   OH218150   2.512   5.828   1.055 -0.5168 -0.0378  0.0142
 6070TIP3    H118151   2.557   5.906   1.089 -1.6586  0.5103  0.3080
 6070TIP3    H218152   2.532   5.760   1.119  1.3683 -0.3091 -0.7811
 6071TIP3   OH218153   3.156   2.035   2.452 -0.0581 -0.1339 -0.4821
 6071TIP3    H118154   3.085   2.064   2.510  0.7128  0.8692 -0.0027
 6071TIP3    H218155   3.223   2.103   2.461  1.7871 -1.9681  0.5392
 6072TIP3   OH218156   3.859   3.203   5.421 -0.8979 -0.9155  0.1492
 6072TIP3    H118157   3.799   3.130   5.410 -3.1611  1.0413 -1.5032
 6072TIP3    H218158   3.910   3.205   5.340  0.6994 -1.8694  1.0726
 6073TIP3   OH218159   1.660   4.473   5.788 -0.2988  0.0342  0.3752
 6073TIP3    H118160   1.681   4.541   5.851 -0.9408  0.9773 -0.3987
 6073TIP3    H218161   1.744   4.451   5.747 -0.2113  1.0447 -0.0261
 6074TIP3   OH218162   0.099   5.337   2.324 -0.2124  0.1701  0.1297
 6074TIP3    H118163   0.076   5.244   2.324  0.5313 -0.0247 -1.1255
 6074TIP3    H218164   0.087   5.365   2.234  0.1126  1.1715  0.3822
 6075TIP3   OH218165   6.451   1.182   1.360 -0.1474 -0.4757  0.1146
 6075TIP3    H118166   6.527   1.172   1.302  0.9853  0.0872  1.4247
 6075TIP3    H218167   6.462   1.113   1.425 -1.2920 -0.9718 -0.2028
 6076TIP3   OH218168   6.650   6.284   2.443  0.6126  0.4814 -0.3537
 6076TIP3    H118169   6.698   6.299   2.524  0.1395  0.5483 -0.0869
 6076TIP3    H218170   6.620   6.193   2.449  2.0266 -0.0751 -1.2146
 6077TIP3   OH218171   4.792   3.176   4.978 -0.3047  0.2543 -0.0700
 6077TIP3    H118172   4.814   3.082   4.981 -2.3032 -0.3922 -2.3932
 6077TIP3    H218173   4.876   3.219   4.963  0.7116 -1.0897  1.3849
 6078TIP3   OH218174   7.254   0.423   2.210 -0.6733 -0.1284 -0.1339
 6078TIP3    H118175   7.304   0.472   2.276 -1.9752 -2.1633  2.5833
 6078TIP3    H218176   7.192   0.486   2.175  1.5443  1.5975 -1.2255
 6079TIP3   OH218177   3.995   0.117   5.778 -0.3302  0.2710 -0.1546
 6079TIP3    H118178   3.956   0.179   5.716 -1.0241  0.2764  0.2715
 6079TIP3    H218179   3.950   0.034   5.760 -0.4891  0.2587  0.3016
 6080TIP3   OH218180   7.590   1.677   4.444  0.6085  0.0698 -0.0189
 6080TIP3    H118181   7.675   1.688   4.485  1.3424  1.4008 -1.7656
 6080TIP3    H218182   7.601   1.603   4.384  0.5888  0.3359 -0.3543
 6081TIP3   OH218183   6.366   4.672   5.951  0.4247 -0.4042  0.2600
 6081TIP3    H118184   6.426   4.617   5.900  1.4951  0.2924  0.7346
 6081TIP3    H218185   6.423   4.723   6.008 -0.7112 -0.9955  2.0170
 6082TIP3   OH218186   6.758   7.548   4.851  0.6710  0.3107 -0.9200
 6082TIP3    H118187   6.708   7.629   4.847 -0.1549 -0.1590 -0.6231
 6082TIP3    H218188   6.735   7.501   4.770 -0.2094 -0.3621 -0.3030
 6083TIP3   OH218189   0.613   4.828   3.697 -0.1028 -0.0388 -0.0008
 6083TIP3    H118190   0.602   4.758   3.761  1.4904 -1.3540 -1.1140
 6083TIP3    H218191   0.586   4.789   3.614  0.3395  0.8134 -0.5555
 6084TIP3   OH218192   3.110   2.855   2.090 -0.2354 -0.1587  0.0043
 6084TIP3    H118193   3.167   2.829   2.017 -1.6118  2.6862 -2.3238
 6084TIP3    H218194   3.047   2.784   2.098  0.4524 -0.9217 -1.0583
 6085TIP3   OH218195   5.599   3.094   4.124 -0.2093 -0.3418 -0.2385
 6085TIP3    H118196   5.567   3.110   4.212  1.3360  1.0577  0.1318
 6085TIP3    H218197   5.523   3.064   4.075 -1.0836 -1.1665  1.5622
 6086TIP3   OH218198   0.277   2.592   6.819 -0.3303  0.2229  0.3502
 6086TIP3    H118199   0.320   2.669   6.783 -0.9243 -0.0138 -0.9297
 6086TIP3    H218200   0.344   2.550   6.873 -0.1500  1.8803  1.5167
 6087TIP3   OH218201   6.129   7.786   5.445  0.1045 -0.1601 -0.0018
 6087TIP3    H118202   6.067   7.829   5.504  0.4836 -0.1141  0.3646
 6087TIP3    H218203   6.112   7.825   5.359 -0.1546  0.0815  0.1584
 6088TIP3   OH218204   3.922   2.575   1.105 -0.3289  0.0710 -0.3103
 6088TIP3    H118205   3.938   2.638   1.175 -0.1328 -1.5339  1.1477
 6088TIP3    H218206   3.826   2.565   1.104 -0.2979 -0.2849  0.0869
 6089TIP3   OH218207   3.706   7.551   2.576 -0.5250  0.0718  0.4026
 6089TIP3    H118208   3.683   7.489   2.507  0.7268 -0.0350  0.0594
 6089TIP3    H218209   3.677   7.508   2.657  0.6216 -1.1306  0.2013
 6090TIP3   OH218210   8.066   2.370   0.614 -1.2035  0.4207 -0.5092
 6090TIP3    H118211   8.015   2.322   0.680  0.5819  0.2548  0.8232
 6090TIP3    H218212   8.130   2.419   0.665 -0.5544  1.2603 -2.0776
 6091TIP3   OH218213   6.407   2.038   4.985 -0.4223 -0.3023 -0.1135
 6091TIP3    H118214   6.418   2.115   5.041  2.1453 -0.8145  0.1947
 6091TIP3    H218215   6.466   1.973   5.022 -2.4457 -2.4341 -0.4435
 6092TIP3   OH218216   4.879   3.057   1.924 -0.4587 -0.2595 -0.3992
 6092TIP3    H118217   4.850   3.138   1.965  0.0212 -0.7745  1.0092
 6092TIP3    H218218   4.956   3.083   1.874 -1.6125  0.5623 -1.8402
 6093TIP3   OH218219   0.383   4.349   3.289 -0.7798 -0.5025 -0.1757
 6093TIP3    H118220   0.334   4.279   3.332 -0.0594 -0.5656  0.5735
 6093TIP3    H218221   0.379   4.328   3.196 -3.5049  0.3541 -0.3333
 6094TIP3   OH218222   1.717   1.674   1.858 -0.5349 -0.0861 -0.4986
 6094TIP3    H118223   1.635   1.648   1.899 -0.5447 -0.6081 -0.8399
 6094TIP3    H218224   1.695   1.750   1.805 -0.3506  1.1253  1.1151
 6095TIP3   OH218225   4.136   6.469   5.391 -0.0638  0.2131 -0.3333
 6095TIP3    H118226   4.121   6.416   5.469  0.4419  0.7614  0.1481
 6095TIP3    H218227   4.129   6.408   5.318 -1.0173 -0.2198  0.1068
 6096TIP3   OH218228   5.122   2.289   2.431  0.2025  0.9252  0.1006
 6096TIP3    H118229   5.083   2.243   2.505  2.2119 -1.8612 -0.4208
 6096TIP3    H218230   5.099   2.235   2.355  3.8920 -0.2551 -0.3605
 6097TIP3   OH218231   6.811   6.402   2.252  0.5230 -0.0895  0.4730
 6097TIP3    H118232   6.850   6.314   2.251 -0.0402 -0.3430 -0.0910
 6097TIP3    H218233   6.734   6.392   2.307  0.4014  0.0276  0.3211
 6098TIP3   OH218234   0.513   5.753   0.483 -0.1435  0.3348  0.2211
 6098TIP3    H118235   0.493   5.757   0.390 -0.8010  0.0043  0.3389
 6098TIP3    H218236   0.604   5.780   0.490  0.3366 -0.9884 -0.6589
 6099TIP3   OH218237   1.997   3.910   5.339 -0.0622  0.2632  0.7766
 6099TIP3    H118238   1.948   3.877   5.264  0.8858 -0.4417  0.4546
 6099TIP3    H218239   2.060   3.971   5.302  0.9306 -0.6709  0.8935
 6100TIP3   OH218240   6.465   7.818   0.445  0.2309  0.1269  0.3233
 6100TIP3    H118241   6.429   7.878   0.379  0.9621  0.3537  0.1191
 6100TIP3    H218242   6.399   7.817   0.515  0.5660  1.8361  0.7151
 6101TIP3   OH218243   8.429   1.193   5.826  0.4397 -0.2432 -0.0601
 6101TIP3    H118244   8.337   1.201   5.803  0.5958  1.9898 -0.1056
 6101TIP3    H218245   8.431   1.194   5.921  0.4563  0.3473 -0.0657
 6102TIP3   OH218246   0.330   2.043   2.003  0.0279 -0.1349 -0.1186
 6102TIP3    H118247   0.352   2.136   2.007  1.9213 -0.5720  0.4967
 6102TIP3    H218248   0.377   2.010   1.927 -0.0013 -0.7489  0.1223
 6103TIP3   OH218249   4.800   6.389   0.498 -0.0672  0.1925 -0.2069
 6103TIP3    H118250   4.849   6.447   0.556  1.1761  0.9205 -1.8835
 6103TIP3    H218251   4.713   6.385   0.536  1.2369 -1.2728  2.9768
 6104TIP3   OH218252   6.145   1.346   6.779 -0.5327  0.5672  0.0142
 6104TIP3    H118253   6.204   1.299   6.839  1.3900  1.6116 -0.9365
 6104TIP3    H218254   6.097   1.277   6.734  0.6465 -0.4184  0.2025
 6105TIP3   OH218255   2.882   2.477   1.755  0.0532  0.3251 -0.3105
 6105TIP3    H118256   2.968   2.493   1.717  0.6707  0.2105  0.9963
 6105TIP3    H218257   2.860   2.558   1.801  0.1655 -0.1795  0.6529
 6106TIP3   OH218258   3.218   2.364   0.462 -0.0293  0.1984  0.1663
 6106TIP3    H118259   3.132   2.401   0.441 -0.7652 -1.0462  0.8763
 6106TIP3    H218260   3.224   2.284   0.409  0.1537 -0.3846  1.0513
 6107TIP3   OH218261   4.626   2.105   5.488  0.0400 -0.1199  0.2714
 6107TIP3    H118262   4.565   2.114   5.415  0.3079  0.9146  0.1623
 6107TIP3    H218263   4.658   2.015   5.481 -0.6258 -0.3227 -0.3348
 6108TIP3   OH218264   4.942   0.256   2.828 -0.1424  0.3856 -0.3292
 6108TIP3    H118265   4.976   0.345   2.825  0.2091  0.2437 -0.6179
 6108TIP3    H218266   5.019   0.202   2.845 -0.3590  0.1413 -0.1252
 6109TIP3   OH218267   7.444   3.656   2.671 -0.1676  0.4563  0.5533
 6109TIP3    H118268   7.375   3.589   2.673 -0.5261  0.8245  0.7188
 6109TIP3    H218269   7.495   3.640   2.750  0.8142 -0.7116 -0.2676
 6110TIP3   OH218270   1.832   0.795   1.917  0.2467 -0.1316  0.1321
 6110TIP3    H118271   1.776   0.757   1.848 -2.5002  0.3366  1.9635
 6110TIP3    H218272   1.866   0.719   1.964 -2.1684 -0.5162  1.4300
 6111TIP3   OH218273   5.228   0.181   1.548  0.1280  0.5457  0.5700
 6111TIP3    H118274   5.201   0.185   1.640 -2.0286  0.6884 -0.0090
 6111TIP3    H218275   5.231   0.273   1.521 -1.2098  0.4366  0.0018
 6112TIP3   OH218276   0.086   4.063   1.060 -0.1701  0.5116  0.0869
 6112TIP3    H118277   0.164   4.087   1.110  0.2570 -0.1512 -0.2390
 6112TIP3    H218278   0.019   4.045   1.126 -0.0305  1.0207  0.3709
 6113TIP3   OH218279   6.616   2.046   0.087 -0.0171 -0.1006  0.4883
 6113TIP3    H118280   6.668   2.090   0.020 -0.4952  1.4322  1.0795
 6113TIP3    H218281   6.595   1.960   0.049  0.6668  0.2946 -0.8398
 6114TIP3   OH218282   3.207   0.895   5.748 -0.1335 -0.4171 -0.1499
 6114TIP3    H118283   3.215   0.859   5.836  1.3908  2.0913  0.8326
 6114TIP3    H218284   3.297   0.898   5.715 -0.2525  1.7944 -0.3951
 6115TIP3   OH218285   8.278   3.428   4.813  0.0395 -0.5508 -0.1061
 6115TIP3    H118286   8.299   3.515   4.848 -1.7602 -0.8611  2.0206
 6115TIP3    H218287   8.303   3.432   4.721 -1.7548  2.9024 -0.6014
 6116TIP3   OH218288   2.284   6.336   4.673 -0.3820 -0.6118 -0.1762
 6116TIP3    H118289   2.352   6.270   4.686 -0.1149 -0.2648  0.1947
 6116TIP3    H218290   2.263   6.330   4.580  1.3043  0.3871 -0.6588
 6117TIP3   OH218291   0.442   0.489   5.017  0.0440 -0.2451 -0.3414
 6117TIP3    H118292   0.509   0.556   5.030  0.1214 -0.5793  1.2061
 6117TIP3    H218293   0.400   0.480   5.102 -0.5128 -1.5871 -0.7228
 6118TIP3   OH218294   6.852   2.860   4.656 -0.3910  0.0326  0.4478
 6118TIP3    H118295   6.777   2.864   4.716 -1.5217  1.7954 -0.9868
 6118TIP3    H218296   6.915   2.923   4.693  0.4032 -1.3745  1.5966
 6119TIP3   OH218297   4.845   1.590   6.304 -0.0225  0.1843  0.1124
 6119TIP3    H118298   4.824   1.516   6.360  1.4050 -0.6857 -0.4265
 6119TIP3    H218299   4.818   1.562   6.216  0.8748  0.1095 -0.1567
 6120TIP3   OH218300   1.294   6.200   3.008 -0.5011  0.4265 -0.2430
 6120TIP3    H118301   1.241   6.239   3.078  0.7942  0.3086  0.8518
 6120TIP3    H218302   1.384   6.223   3.031  0.1082 -1.2152 -0.8488
 6121TIP3   OH218303   5.405   7.730   4.159  0.0520  0.5824 -0.4867
 6121TIP3    H118304   5.400   7.640   4.191 -1.2207  0.3658 -1.1881
 6121TIP3    H218305   5.313   7.758   4.154  0.4312  1.9090 -0.3106
 6122TIP3   OH218306   7.908   0.408   1.033 -0.0364  0.1008 -0.6314
 6122TIP3    H118307   7.833   0.428   1.089  0.5168 -2.2610  1.1163
 6122TIP3    H218308   7.897   0.465   0.957 -2.2256  1.6021  0.7016
 6123TIP3   OH218309   5.382   6.353   2.381  0.2691 -0.4749  0.0904
 6123TIP3    H118310   5.465   6.337   2.336  0.4797  1.5234 -0.3219
 6123TIP3    H218311   5.323   6.385   2.313 -0.2709 -0.1136  0.7141
 6124TIP3   OH218312   0.680   0.570   6.686 -0.1101  0.1028 -0.3978
 6124TIP3    H118313   0.767   0.602   6.710 -0.8187  1.9248 -0.0922
 6124TIP3    H218314   0.683   0.476   6.703  2.0218 -0.0016 -1.1137
 6125TIP3   OH218315   3.200  -0.002   5.850 -0.3073  0.2742  0.0407
 6125TIP3    H118316   3.267   0.051   5.807  1.3552  0.9979  3.2018
 6125TIP3    H218317   3.136   0.061   5.883  1.7172  0.5958  3.8775
 6126TIP3   OH218318   1.444   3.540   0.720 -0.2853  0.2971 -0.6654
 6126TIP3    H118319   1.357   3.578   0.705  0.0628  0.3219 -2.8926
 6126TIP3    H218320   1.446   3.462   0.664  0.5598 -0.6442  0.6152
 6127TIP3   OH218321   4.290   3.548   0.993 -0.2753  0.1946  0.4501
 6127TIP3    H118322   4.364   3.580   0.941  0.1199 -0.0984  0.8255
 6127TIP3    H218323   4.330   3.516   1.074 -0.7742 -0.3110  0.5003
 6128TIP3   OH218324   8.050   1.655   2.434  0.6906 -0.1271  0.0020
 6128TIP3    H118325   8.088   1.650   2.521 -0.7584  0.2165  0.6817
 6128TIP3    H218326   8.121   1.687   2.378  1.8256 -1.0156  0.9069
 6129TIP3   OH218327   4.344   3.146   1.833 -0.0161  0.0469 -0.0819
 6129TIP3    H118328   4.356   3.109   1.921  0.6340  2.0812  0.7484
 6129TIP3    H218329   4.301   3.076   1.783  0.7750 -1.6391  1.4705
 6130TIP3   OH218330   3.813   3.884   1.265  0.7191 -0.1210  0.2909
 6130TIP3    H118331   3.776   3.850   1.347 -0.0667 -2.4501 -0.9273
 6130TIP3    H218332   3.908   3.881   1.279  0.5991 -0.3165  1.1653
 6131TIP3   OH218333   0.160   1.324   3.556 -0.3159 -0.6124  0.1767
 6131TIP3    H118334   0.071   1.299   3.582 -0.8566  0.9926 -0.0476
 6131TIP3    H218335   0.213   1.247   3.577 -1.5000 -1.0561  1.7161
 6132TIP3   OH218336   2.779   6.931   4.481  0.2715 -0.4775 -0.1369
 6132TIP3    H118337   2.742   7.007   4.434 -0.9945 -1.5912 -1.0385
 6132TIP3    H218338   2.841   6.969   4.543  0.7993  1.1995 -1.5871
 6133TIP3   OH218339   7.160   2.149   0.315 -0.3566 -0.0333  0.1806
 6133TIP3    H118340   7.103   2.178   0.243  1.6185 -1.4403 -2.0731
 6133TIP3    H218341   7.158   2.222   0.377 -1.9867  1.3564 -1.3816
 6134TIP3   OH218342   6.898   4.725   2.524  0.2087  0.0957  0.8841
 6134TIP3    H118343   6.847   4.737   2.604  1.1023 -1.8031  1.8154
 6134TIP3    H218344   6.989   4.741   2.551  0.3008  1.9309 -0.3870
 6135TIP3   OH218345   0.462   3.284   1.969 -0.1987  0.1844 -0.1054
 6135TIP3    H118346   0.550   3.312   1.996 -0.3201 -0.7936  1.4163
 6135TIP3    H218347   0.462   3.189   1.980 -1.4865  0.1845  0.0511
 6136TIP3   OH218348   3.041   3.857   3.190  0.1901  0.2568 -0.8248
 6136TIP3    H118349   3.062   3.827   3.278 -0.7946  0.6347 -0.4549
 6136TIP3    H218350   2.956   3.818   3.170  0.4825  0.0329 -1.6812
 6137TIP3   OH218351   7.205   1.661   5.619  0.3761  0.7020  0.2055
 6137TIP3    H118352   7.274   1.691   5.678 -1.0137  0.3382  2.1299
 6137TIP3    H218353   7.141   1.620   5.677  0.6566 -3.1487 -1.8961
 6138TIP3   OH218354   6.585   2.837   3.758 -0.9467 -0.0178 -0.6661
 6138TIP3    H118355   6.569   2.790   3.839 -0.6953  1.0102 -0.0076
 6138TIP3    H218356   6.538   2.786   3.691  0.9314 -2.2995 -0.3509
 6139TIP3   OH218357   3.924   5.581   3.367  0.6529  0.1223 -0.5243
 6139TIP3    H118358   3.967   5.664   3.346  0.8543  0.1314 -0.0752
 6139TIP3    H218359   3.887   5.595   3.454 -0.2003  0.0920 -0.8707
 6140TIP3   OH218360   2.957   3.852   0.783 -0.9570  0.6642 -0.0305
 6140TIP3    H118361   2.986   3.789   0.718 -1.8140 -0.7158  0.8529
 6140TIP3    H218362   2.978   3.811   0.867  0.0671  2.3656  0.5909
 6141TIP3   OH218363   3.133   0.857   6.374  0.4380 -0.0570  0.4142
 6141TIP3    H118364   3.039   0.862   6.359  0.1818 -0.3844  1.7783
 6141TIP3    H218365   3.172   0.862   6.286 -0.6915  2.9170 -0.0432
 6142TIP3   OH218366   6.186   4.054   4.810 -0.0385  0.2362 -0.0456
 6142TIP3    H118367   6.181   4.020   4.721  1.4681 -0.3368  0.0599
 6142TIP3    H218368   6.212   4.146   4.799  2.6086 -0.4554 -0.1879
 6143TIP3   OH218369   8.158   6.376   4.300 -0.1305  0.4208 -0.5175
 6143TIP3    H118370   8.227   6.425   4.344  0.1027  0.2618 -0.7040
 6143TIP3    H218371   8.201   6.336   4.225  0.3477 -2.1868  0.9985
 6144TIP3   OH218372   5.055   7.224   1.423 -0.4661 -0.3620 -0.0031
 6144TIP3    H118373   5.122   7.157   1.436 -0.8088 -0.3914  1.9785
 6144TIP3    H218374   4.973   7.175   1.417 -0.4224 -0.2827 -1.7484
 6145TIP3   OH218375   3.535   7.566   4.213  0.4977  0.0532 -0.0450
 6145TIP3    H118376   3.552   7.501   4.281 -0.5945 -0.1305  0.0786
 6145TIP3    H218377   3.449   7.602   4.235  0.0493 -0.1167 -1.4075
 6146TIP3   OH218378   3.062   1.296   5.532  0.2376 -0.3488  0.6237
 6146TIP3    H118379   3.110   1.379   5.540  1.0965 -0.8656  1.0085
 6146TIP3    H218380   3.065   1.258   5.620  0.1265 -0.9325  0.3810
 6147TIP3   OH218381   6.336   6.035   6.651  0.2345 -0.2531  0.2985
 6147TIP3    H118382   6.262   5.986   6.687 -0.0472 -0.2993 -0.3390
 6147TIP3    H218383   6.377   6.075   6.728 -1.0396  0.5846  0.5757
 6148TIP3   OH218384   0.088   1.698   2.418 -0.1054 -0.3556  0.1934
 6148TIP3    H118385   0.020   1.673   2.356 -0.1304  0.1245  0.0195
 6148TIP3    H218386   0.147   1.754   2.368 -0.8633  1.1612  0.9238
 6149TIP3   OH218387   8.029   0.925   1.266  0.4843 -0.2874 -0.4100
 6149TIP3    H118388   8.037   0.942   1.360 -1.4906  0.3919 -0.3188
 6149TIP3    H218389   8.018   0.831   1.260 -0.8580 -0.1858  0.1891
 6150TIP3   OH218390   6.926   1.517   1.258  0.6127  0.0299  0.6797
 6150TIP3    H118391   6.890   1.469   1.332 -0.8874 -0.3788 -0.2852
 6150TIP3    H218392   6.969   1.450   1.204 -0.0733  0.0142  0.1514
 6151TIP3   OH218393   7.757   5.107   5.191 -0.0113 -0.0779  0.0469
 6151TIP3    H118394   7.721   5.030   5.147  1.3188 -1.0986  0.6725
 6151TIP3    H218395   7.848   5.111   5.161 -0.3840  2.0403 -0.9811
 6152TIP3   OH218396   0.422   5.493   0.451 -0.1081 -0.2851 -0.0604
 6152TIP3    H118397   0.440   5.585   0.468 -0.1006 -0.3750  0.4264
 6152TIP3    H218398   0.497   5.447   0.489 -0.2526 -0.5138 -0.0530
 6153TIP3   OH218399   6.267   7.946   1.454  0.4799  0.9241  0.1743
 6153TIP3    H118400   6.202   7.880   1.429  1.2316  0.1013  0.3274
 6153TIP3    H218401   6.348   7.918   1.410  0.4156  2.7524 -1.2333
 6154TIP3   OH218402   2.100   2.238   4.466 -0.2639  0.1662 -0.2766
 6154TIP3    H118403   2.049   2.303   4.514  1.0066  1.6047 -0.7933
 6154TIP3    H218404   2.047   2.217   4.389 -1.6769 -1.1145  0.9782
 6155TIP3   OH218405   2.004   1.889   3.017 -0.2168 -0.0681 -0.2849
 6155TIP3    H118406   2.015   1.866   2.925  2.0090 -2.3701  0.4514
 6155TIP3    H218407   1.953   1.816   3.054 -1.9250  1.2868  0.2078
 6156TIP3   OH218408   6.646   6.187   4.717  0.7298  0.6107  0.3459
 6156TIP3    H118409   6.732   6.211   4.683  0.3370  1.2127 -0.2522
 6156TIP3    H218410   6.587   6.196   4.642  0.0686  0.6735  0.8641
 6157TIP3   OH218411   7.959   3.439   1.675  0.3514  0.0999 -0.1693
 6157TIP3    H118412   7.916   3.507   1.623  0.0725 -1.0444 -1.4905
 6157TIP3    H218413   8.051   3.464   1.676  0.0410  1.3292  0.7312
 6158TIP3   OH218414   1.609   4.983   0.981  0.1577  0.3570  0.1424
 6158TIP3    H118415   1.563   5.055   1.024  0.1852  0.3371  0.2053
 6158TIP3    H218416   1.692   4.976   1.027  0.0581  0.1319  0.2932
 6159TIP3   OH218417   7.204   4.183   0.509 -0.1719  0.1071  0.8007
 6159TIP3    H118418   7.176   4.268   0.476  1.9875  0.2412 -0.9312
 6159TIP3    H218419   7.293   4.197   0.540  1.2207 -1.8800 -1.7897
 6160TIP3   OH218420   6.299   6.929   4.140  0.2277  0.2582 -0.3825
 6160TIP3    H118421   6.280   6.853   4.085  0.5407 -0.2633  0.2183
 6160TIP3    H218422   6.391   6.919   4.165  0.1837  0.6594 -0.0336
 6161TIP3   OH218423   2.495   4.148   1.051  0.1764  0.9018  0.4622
 6161TIP3    H118424   2.561   4.165   0.984  0.8283 -0.4435  0.7373
 6161TIP3    H218425   2.545   4.137   1.132  0.1410 -3.8816  0.0972
 6162TIP3   OH218426   0.881   2.691   3.361  0.3298  0.2497  0.1976
 6162TIP3    H118427   0.801   2.743   3.354  1.0557  1.6633  1.7449
 6162TIP3    H218428   0.949   2.746   3.322  1.2783  0.9367  2.6823
 6163TIP3   OH218429   6.509   5.225   2.794  0.2164 -0.0985 -0.2640
 6163TIP3    H118430   6.424   5.180   2.788  0.6677 -0.9561 -0.4016
 6163TIP3    H218431   6.542   5.226   2.704  0.8456 -0.7747 -0.0513
 6164TIP3   OH218432   6.705   1.777   4.658 -0.0204  0.0618 -0.0946
 6164TIP3    H118433   6.685   1.848   4.597 -0.4202  1.4013  1.5121
 6164TIP3    H218434   6.634   1.713   4.645 -2.0513  1.8921  1.2227
 6165TIP3   OH218435   8.043   5.415   2.968 -0.3431 -0.2140 -0.1720
 6165TIP3    H118436   8.071   5.503   2.943  0.1198 -0.2264  0.2889
 6165TIP3    H218437   7.976   5.392   2.904 -1.4191  0.9857  0.4791
 6166TIP3   OH218438   2.932   1.760   4.295 -0.5137 -0.3722  0.3521
 6166TIP3    H118439   2.891   1.722   4.218 -1.0256 -0.2609  0.5636
 6166TIP3    H218440   2.899   1.708   4.369 -0.5385 -0.0729  0.5551
 6167TIP3   OH218441   3.938   5.828   0.090 -0.4175  0.0067 -0.0360
 6167TIP3    H118442   3.920   5.905   0.036  4.0062  1.5160  0.2459
 6167TIP3    H218443   3.870   5.765   0.065 -1.8897  2.5491 -3.2503
 6168TIP3   OH218444   5.401   7.375   3.663  0.3963  0.0546  0.2921
 6168TIP3    H118445   5.476   7.408   3.712 -0.5164  1.2331  0.9359
 6168TIP3    H218446   5.440   7.314   3.599  1.6445 -1.4128  2.3131
 6169TIP3   OH218447   2.190   4.997   1.300  0.0301 -0.2933 -0.4505
 6169TIP3    H118448   2.223   5.086   1.311  1.6306 -0.9872  0.6424
 6169TIP3    H218449   2.242   4.961   1.229  0.1151 -0.7030 -0.1807
 6170TIP3   OH218450   1.384   4.920   3.791  0.2497  0.0740 -0.2995
 6170TIP3    H118451   1.465   4.954   3.753  0.9235  0.4991  1.4241
 6170TIP3    H218452   1.405   4.832   3.820  0.8698  0.9629  2.2381
 6171TIP3   OH218453   0.334   3.486   0.472  0.3135  0.2178 -0.4881
 6171TIP3    H118454   0.308   3.567   0.516  2.8570  0.3030  1.0302
 6171TIP3    H218455   0.282   3.418   0.514 -0.0630  0.7775 -0.0413
 6172TIP3   OH218456   3.371   0.603   4.347 -0.0163 -0.1639 -0.1127
 6172TIP3    H118457   3.307   0.567   4.409  0.0641 -0.4726 -0.2057
 6172TIP3    H218458   3.340   0.574   4.262 -0.2944  0.5127 -0.2498
 6173TIP3   OH218459   5.386   7.200   0.774  0.7701 -0.0397 -0.4278
 6173TIP3    H118460   5.307   7.160   0.810  1.8751 -0.6281  1.4869
 6173TIP3    H218461   5.400   7.156   0.690 -1.0444  0.2670 -0.9370
 6174TIP3   OH218462   3.590   0.130   6.647  0.3895 -0.1467 -0.2014
 6174TIP3    H118463   3.618   0.134   6.738 -4.2687  0.2852  1.4746
 6174TIP3    H218464   3.641   0.199   6.604  2.4721 -0.1061  2.0944
 6175TIP3   OH218465   5.815   3.002   3.542 -0.3585 -0.5071  0.3403
 6175TIP3    H118466   5.906   3.003   3.572 -0.8393  1.8974  2.0230
 6175TIP3    H218467   5.764   2.984   3.621 -1.3875 -0.9958 -0.4170
 6176TIP3   OH218468   5.738   3.565   2.570  0.2766  0.1045  0.3441
 6176TIP3    H118469   5.690   3.541   2.649  0.6129  0.1457  0.5631
 6176TIP3    H218470   5.693   3.518   2.499 -0.6003  0.7992  0.4249
 6177TIP3   OH218471   5.014   1.326   6.119  0.7408  0.6716 -0.5829
 6177TIP3    H118472   5.022   1.410   6.073 -0.1204  0.5599 -0.9531
 6177TIP3    H218473   5.074   1.334   6.193  2.8592  0.5373 -2.1835
 6178TIP3   OH218474   4.713   7.567   5.436  0.6154 -0.3355 -0.1754
 6178TIP3    H118475   4.791   7.615   5.460  0.3086  0.1882 -0.2178
 6178TIP3    H218476   4.708   7.574   5.340 -0.2538  0.8601 -0.0656
 6179TIP3   OH218477   6.760   6.491   1.688  0.2067 -0.2812  0.0585
 6179TIP3    H118478   6.826   6.463   1.752  0.9528  0.1690 -0.4999
 6179TIP3    H218479   6.694   6.421   1.690  0.6499 -0.6933  0.6927
 6180TIP3   OH218480   3.591   4.037   5.135  0.3874 -0.1537  0.3897
 6180TIP3    H118481   3.559   3.973   5.071  0.4290  0.6811 -0.4839
 6180TIP3    H218482   3.647   4.095   5.085 -1.2994  1.8372  0.6662
 6181TIP3   OH218483   7.049   5.837   4.146 -0.2010 -0.0024  0.0291
 6181TIP3    H118484   7.039   5.757   4.095  0.0460 -1.1418  1.6868
 6181TIP3    H218485   6.976   5.835   4.208 -0.8451  1.6512 -0.6083
 6182TIP3   OH218486   4.383   7.292   0.038 -0.1371  0.1368 -0.1858
 6182TIP3    H118487   4.409   7.212   0.083 -0.9716 -0.7169 -1.1384
 6182TIP3    H218488   4.440   7.296  -0.038  1.2876  1.5854  0.9055
 6183TIP3   OH218489   4.944   4.391   2.644 -0.3353  0.0786  0.4610
 6183TIP3    H118490   4.967   4.303   2.612 -0.4637  0.0970  0.3195
 6183TIP3    H218491   5.013   4.447   2.609 -0.0860 -0.0096  0.7970
 6184TIP3   OH218492   0.361   5.356   5.366 -0.4459  0.2826  0.4744
 6184TIP3    H118493   0.293   5.328   5.429  1.0651 -2.0887  1.1715
 6184TIP3    H218494   0.329   5.326   5.281 -0.3568 -0.7046  0.7810
 6185TIP3   OH218495   4.772   2.347   0.109  1.0109  0.8447  0.7147
 6185TIP3    H118496   4.748   2.407   0.038 -1.0341 -1.2467 -0.4874
 6185TIP3    H218497   4.850   2.302   0.077  0.8654  0.8416  0.3576
 6186TIP3   OH218498   6.015   4.398   5.305  0.4429 -0.3597  0.2915
 6186TIP3    H118499   6.097   4.445   5.288  1.2842 -2.2808 -1.6617
 6186TIP3    H218500   6.041   4.326   5.363 -0.4267  0.4899  1.7597
 6187TIP3   OH218501   5.384   0.463   6.378 -0.0720  0.5314 -0.2879
 6187TIP3    H118502   5.438   0.462   6.457 -1.3839 -0.4585  0.6360
 6187TIP3    H218503   5.430   0.523   6.319  2.1562 -0.4120  0.3528
 6188TIP3   OH218504   2.561   4.861   2.873  0.2607  0.3815 -0.0214
 6188TIP3    H118505   2.654   4.882   2.882  0.3295 -0.1223  0.5581
 6188TIP3    H218506   2.519   4.945   2.855  0.5539  1.0127  1.9804
 6189TIP3   OH218507   1.371   1.512   4.653  0.3426  0.6465  0.4051
 6189TIP3    H118508   1.380   1.560   4.735 -1.7406  0.5665  0.7222
 6189TIP3    H218509   1.299   1.555   4.607  0.8282  0.0731 -0.9544
 6190TIP3   OH218510   5.602   5.605   4.842  0.1563 -0.1092  0.2327
 6190TIP3    H118511   5.515   5.581   4.874  0.7852 -0.6157  1.6532
 6190TIP3    H218512   5.605   5.568   4.753 -1.5247  1.0577 -0.3650
 6191TIP3   OH218513   2.078   2.155   0.470 -0.2193 -0.6898  0.3566
 6191TIP3    H118514   2.118   2.156   0.383  1.5549 -0.8285  1.1215
 6191TIP3    H218515   2.054   2.063   0.484  0.2475 -0.8228  0.3156
 6192TIP3   OH218516   1.564   6.648   4.079 -0.2397  0.1658  0.4843
 6192TIP3    H118517   1.469   6.652   4.067 -0.2370  4.0871  0.6261
 6192TIP3    H218518   1.577   6.654   4.174  0.1755 -0.2526  0.4615
 6193TIP3   OH218519   2.102   7.434   4.719  0.1103  0.7022 -0.0832
 6193TIP3    H118520   2.015   7.449   4.757  0.2606  1.0990  0.1116
 6193TIP3    H218521   2.158   7.499   4.762  0.8852 -0.6981  1.1123
 6194TIP3   OH218522   5.250   6.402   6.334 -0.1644  0.2467 -0.0149
 6194TIP3    H118523   5.221   6.357   6.255 -0.4733 -1.5013  1.0589
 6194TIP3    H218524   5.345   6.404   6.327 -0.1661 -0.2692 -0.2427
 6195TIP3   OH218525   6.102   5.429   4.220 -0.1509 -0.0269 -0.5905
 6195TIP3    H118526   6.073   5.429   4.311  0.9484  0.5966 -0.2070
 6195TIP3    H218527   6.188   5.387   4.222  0.3014  0.8266 -1.1761
 6196TIP3   OH218528   0.975   1.341   4.777 -0.0226 -0.2155 -0.6192
 6196TIP3    H118529   0.936   1.408   4.721  2.1390  2.3825  0.7240
 6196TIP3    H218530   1.060   1.324   4.738  0.0915 -0.9778 -0.0560
 6197TIP3   OH218531   8.033   2.534   5.231 -0.6539  0.1862 -0.3329
 6197TIP3    H118532   7.994   2.617   5.259 -1.8977  0.2151 -1.9995
 6197TIP3    H218533   8.006   2.525   5.140  3.5818  0.4140 -1.8367
 6198TIP3   OH218534   5.951   6.638   5.561 -0.3221 -0.1308 -0.1190
 6198TIP3    H118535   5.892   6.577   5.519 -1.8502  1.0071  0.2838
 6198TIP3    H218536   5.922   6.724   5.531  0.8168  0.4878  0.4797
 6199TIP3   OH218537   2.716   1.531   1.691 -0.2327  0.0863  0.3918
 6199TIP3    H118538   2.790   1.483   1.728  2.1746  1.7402 -1.9084
 6199TIP3    H218539   2.680   1.472   1.625 -0.5916 -0.4639  1.0610
 6200TIP3   OH218540   7.544   4.845   5.758 -0.5391  0.2603 -0.1428
 6200TIP3    H118541   7.554   4.909   5.688  0.6614  0.9777  0.6647
 6200TIP3    H218542   7.613   4.866   5.820 -0.6565 -1.2902  0.5513
 6201TIP3   OH218543   6.385   1.424   1.449 -0.2231  0.5460 -0.0241
 6201TIP3    H118544   6.369   1.333   1.422 -1.5686  1.3768 -2.4181
 6201TIP3    H218545   6.303   1.470   1.428 -0.0118  2.1357  2.2407
 6202TIP3   OH218546   2.263   1.373   1.994 -0.5357 -0.3081 -0.1302
 6202TIP3    H118547   2.284   1.463   2.020  3.3137 -0.5758 -1.5963
 6202TIP3    H218548   2.251   1.326   2.076  2.4988  0.6036  0.9660
 6203TIP3   OH218549   0.366   0.269   0.907 -0.2903  0.8629  0.1537
 6203TIP3    H118550   0.444   0.296   0.955 -0.1152 -0.7651  0.8573
 6203TIP3    H218551   0.388   0.182   0.874 -1.5291  0.7080 -0.3041
 6204TIP3   OH218552   0.910   3.256   1.012  0.1073 -0.2891 -0.2810
 6204TIP3    H118553   0.924   3.201   1.089  1.0879  0.3018 -0.0206
 6204TIP3    H218554   0.998   3.285   0.987 -0.1795 -0.6160 -1.7418
 6205TIP3   OH218555   3.235   2.153   2.029  0.1083  0.5275  0.5910
 6205TIP3    H118556   3.303   2.098   1.990 -0.9866 -1.9518  2.0124
 6205TIP3    H218557   3.153   2.120   1.992 -0.5795  1.2573  1.4338
 6206TIP3   OH218558   0.508   6.697   3.006 -0.3615 -0.1306 -0.0582
 6206TIP3    H118559   0.467   6.653   3.081 -2.0290 -0.9531 -1.3761
 6206TIP3    H218560   0.552   6.773   3.043 -2.5753  0.4413  1.5665
 6207TIP3   OH218561   6.915   3.071   4.430 -0.2448  0.6005  0.0642
 6207TIP3    H118562   6.999   3.096   4.391  0.4656 -1.4073  0.2034
 6207TIP3    H218563   6.937   3.040   4.518 -0.8525 -1.6328 -0.5193
 6208TIP3   OH218564   6.777   6.961   2.386 -0.0133 -0.5157  0.8337
 6208TIP3    H118565   6.857   6.930   2.344  0.4697 -2.1769  2.7794
 6208TIP3    H218566   6.712   6.966   2.316  1.5610  0.0544 -0.6336
 6209TIP3   OH218567   3.594   3.386   5.650  0.1385  0.2343 -0.3374
 6209TIP3    H118568   3.683   3.383   5.685 -0.5342 -0.4859  1.4466
 6209TIP3    H218569   3.564   3.475   5.669  0.4632  0.4778 -0.9416
 6210TIP3   OH218570   2.206   1.632   4.692 -0.2924 -0.2446 -0.2637
 6210TIP3    H118571   2.130   1.673   4.652  0.1149  0.6836 -0.1193
 6210TIP3    H218572   2.281   1.669   4.645  0.3063  2.0657  2.2714
 6211TIP3   OH218573   5.160   2.853   1.873  0.2722 -0.0359  0.1242
 6211TIP3    H118574   5.201   2.893   1.950  0.2798 -0.3205  0.2701
 6211TIP3    H218575   5.091   2.797   1.909 -0.5304  0.7703 -0.1419
 6212TIP3   OH218576   5.578   2.269   6.302 -0.6014 -0.4689  0.4195
 6212TIP3    H118577   5.496   2.234   6.268  0.8262 -2.6481 -1.0704
 6212TIP3    H218578   5.611   2.325   6.232 -1.6999  2.0636  1.8236
 6213TIP3   OH218579   4.065   4.763   1.885  0.3027 -0.1957 -0.0051
 6213TIP3    H118580   4.000   4.710   1.932 -0.5449  2.0973  1.5816
 6213TIP3    H218581   4.074   4.720   1.800 -0.9812 -2.3320  0.8542
 6214TIP3   OH218582   2.927   6.130   1.866  0.2388 -0.3371 -1.0038
 6214TIP3    H118583   2.949   6.199   1.804 -0.1916  0.1468 -0.6318
 6214TIP3    H218584   2.942   6.169   1.952 -0.6166 -0.4842 -0.7748
 6215TIP3   OH218585   3.809   7.213   2.864  0.2438 -0.1691 -0.1753
 6215TIP3    H118586   3.771   7.300   2.863 -0.4154 -0.4532 -0.6473
 6215TIP3    H218587   3.883   7.218   2.803 -1.2976 -0.5781 -2.1548
 6216TIP3   OH218588   7.798   3.266   4.039  0.4830 -0.4069  0.0526
 6216TIP3    H118589   7.862   3.334   4.059  0.3394 -0.3819  0.4519
 6216TIP3    H218590   7.787   3.220   4.122  2.0732 -2.2118 -0.6566
 6217TIP3   OH218591   1.405   0.279   5.661  0.5044 -0.6678  0.2908
 6217TIP3    H118592   1.500   0.269   5.655  0.6355 -0.6060  1.7550
 6217TIP3    H218593   1.392   0.333   5.740 -0.7509 -0.8624  0.2334
 6218TIP3   OH218594   4.109   7.869   2.462 -0.6784  0.7261  0.6854
 6218TIP3    H118595   4.102   7.940   2.398 -1.9163  0.9867  1.0720
 6218TIP3    H218596   4.022   7.828   2.462  0.0529 -0.9337  0.3296
 6219TIP3   OH218597   5.087   5.764   0.485  0.6096  0.0443  0.1932
 6219TIP3    H118598   5.082   5.670   0.465  1.1767  0.0554 -0.0164
 6219TIP3    H218599   5.002   5.784   0.526  0.3828 -0.5004  0.0038
 6220TIP3   OH218600   4.077   2.923   0.202 -0.4282  0.1733  0.6508
 6220TIP3    H118601   4.091   2.857   0.270  1.0629  0.6322  0.8167
 6220TIP3    H218602   4.099   2.879   0.121  1.6363  0.7359  0.8612
 6221TIP3   OH218603   4.069   3.994   2.717 -0.0414 -0.4964 -0.0656
 6221TIP3    H118604   3.974   3.984   2.715  0.1250 -2.2297 -0.9321
 6221TIP3    H218605   4.096   3.955   2.800 -0.1488  1.1321  0.7863
 6222TIP3   OH218606   3.854   7.778   1.582 -0.2943 -0.6404 -0.1848
 6222TIP3    H118607   3.838   7.871   1.566 -0.4689 -0.5725  0.3669
 6222TIP3    H218608   3.923   7.755   1.520 -0.2399 -0.1390 -0.3176
 6223TIP3   OH218609   4.040   1.311   4.702 -0.7457  0.3699 -0.2580
 6223TIP3    H118610   3.992   1.361   4.635 -2.3809 -0.2611  0.3882
 6223TIP3    H218611   4.132   1.327   4.682 -1.2036  1.7973 -1.4455
 6224TIP3   OH218612   3.658   2.032   0.629  0.3466 -0.1590 -0.1070
 6224TIP3    H118613   3.718   2.051   0.702  0.7926  2.3010 -0.9976
 6224TIP3    H218614   3.712   1.992   0.562  0.4672 -0.2171  0.0260
 6225TIP3   OH218615   0.233   2.667   4.320  0.0753 -0.1562 -0.1106
 6225TIP3    H118616   0.178   2.647   4.244 -0.1003 -2.3892  0.5280
 6225TIP3    H218617   0.271   2.583   4.345  1.4287  0.8150  1.2919
 6226TIP3   OH218618   6.178   2.785   3.498 -0.0099 -0.2916 -0.0205
 6226TIP3    H118619   6.122   2.708   3.486  0.6476 -0.8419  0.4140
 6226TIP3    H218620   6.194   2.818   3.409 -0.1280 -0.7673 -0.2171
 6227TIP3   OH218621   6.485   1.644   1.193  0.4778  0.1091 -0.2122
 6227TIP3    H118622   6.422   1.704   1.235  1.3519  0.7787  0.1593
 6227TIP3    H218623   6.532   1.605   1.266 -0.0880 -1.0661 -0.4503
 6228TIP3   OH218624   7.173   0.207   5.507  0.4534  0.3598  0.1124
 6228TIP3    H118625   7.231   0.150   5.457  0.3312  1.5996 -1.5299
 6228TIP3    H218626   7.109   0.148   5.546  1.0038 -0.7197 -0.5716
 6229TIP3   OH218627   6.621   4.876   2.258  0.7114  0.0876  0.5015
 6229TIP3    H118628   6.689   4.883   2.191 -0.0967  0.9295 -0.2808
 6229TIP3    H218629   6.665   4.895   2.340  1.5700 -0.1678  0.1151
 6230TIP3   OH218630   0.861   6.025   5.893 -0.6146  0.3138  0.3446
 6230TIP3    H118631   0.912   5.945   5.891  0.3686  0.9443 -0.2475
 6230TIP3    H218632   0.899   6.077   5.964 -0.8356  0.5300  0.3107
 6231TIP3   OH218633   6.781   4.898   1.338 -0.2206  0.1432  0.3998
 6231TIP3    H118634   6.801   4.936   1.424  2.2245 -0.0611 -0.0241
 6231TIP3    H218635   6.820   4.959   1.275 -0.3694 -0.6597 -0.4870
 6232TIP3   OH218636   2.766   3.303   4.382  0.4329  0.7864 -0.3601
 6232TIP3    H118637   2.858   3.308   4.409  0.7014 -1.2794 -0.6994
 6232TIP3    H218638   2.770   3.297   4.286 -0.0127  0.4132 -0.3576
 6233TIP3   OH218639   7.574   2.609   5.588 -0.2950 -0.4124 -0.8088
 6233TIP3    H118640   7.658   2.638   5.550 -0.4725 -0.5667 -1.3285
 6233TIP3    H218641   7.523   2.690   5.598 -0.2686 -0.3778 -0.9520
 6234TIP3   OH218642   4.914   0.695   6.533 -0.3107  0.2357 -0.6825
 6234TIP3    H118643   4.977   0.623   6.524  2.4969  2.0507  2.0630
 6234TIP3    H218644   4.949   0.765   6.478 -1.0992  0.6297 -0.6984
 6235TIP3   OH218645   1.489   0.236   5.953  0.2565 -0.0928  0.1089
 6235TIP3    H118646   1.455   0.296   6.019  1.2739  1.0702 -0.3755
 6235TIP3    H218647   1.514   0.157   6.002  0.7145  0.6278  1.0803
 6236TIP3   OH218648   0.883   0.951   5.213  0.1720 -0.3668 -0.5996
 6236TIP3    H118649   0.949   0.907   5.266  0.3720 -0.3703 -0.8488
 6236TIP3    H218650   0.856   0.886   5.148  0.4802 -0.1177 -0.9778
 6237TIP3   OH218651   7.868   6.373   4.844  0.4532  0.0560  0.1196
 6237TIP3    H118652   7.845   6.281   4.859  2.1712 -0.6925 -1.4381
 6237TIP3    H218653   7.786   6.421   4.855 -0.3499 -1.5577  1.6595
 6238TIP3   OH218654   4.017   4.160   1.954 -0.2511 -0.0724  0.4679
 6238TIP3    H118655   3.971   4.085   1.991 -1.4769  0.6612  0.4999
 6238TIP3    H218656   4.091   4.174   2.013  0.4637 -1.7385 -0.0007
 6239TIP3   OH218657   6.287   3.750   6.433 -0.7915 -0.1175  0.6912
 6239TIP3    H118658   6.345   3.787   6.366 -1.1241  1.6805  1.3270
 6239TIP3    H218659   6.212   3.810   6.434 -1.5020 -0.9976  1.6160
 6240TIP3   OH218660   5.417   5.493   0.976 -0.1451 -0.4374 -0.1404
 6240TIP3    H118661   5.322   5.497   0.986 -0.3673 -0.7594 -1.7410
 6240TIP3    H218662   5.432   5.417   0.918  1.0329 -0.0200 -0.4216
 6241TIP3   OH218663   0.308   0.014   1.097 -0.2354  0.3345 -0.0139
 6241TIP3    H118664   0.297   0.055   1.011  0.5249 -0.5222 -0.5322
 6241TIP3    H218665   0.402   0.007   1.109 -0.2893  1.6752  1.5143
 6242TIP3   OH218666   0.546   0.528   2.077 -0.1105  0.0643  0.1549
 6242TIP3    H118667   0.485   0.456   2.061  0.7417 -1.0291  1.5796
 6242TIP3    H218668   0.499   0.586   2.137  0.2331 -0.7969  1.2850
 6243TIP3   OH218669   5.293   4.603   5.005 -0.0896  0.1416 -0.1426
 6243TIP3    H118670   5.382   4.572   5.023  0.3894 -0.6093 -3.3287
 6243TIP3    H218671   5.247   4.526   4.971 -1.1318  1.1411 -1.0757
 6244TIP3   OH218672   1.091   4.862   3.726 -0.0527  0.4775  0.6361
 6244TIP3    H118673   1.063   4.953   3.721  1.0118  0.9872  2.8038
 6244TIP3    H218674   1.187   4.866   3.726  0.0184 -0.7320 -0.3118
 6245TIP3   OH218675   3.097   2.902   3.050  0.2014 -0.0716  0.1116
 6245TIP3    H118676   3.048   2.854   2.983 -0.8947  0.3857  0.5572
 6245TIP3    H218677   3.160   2.838   3.084  0.9421 -0.2574 -1.4780
 6246TIP3   OH218678   7.693   7.181   4.098 -0.3984 -0.5069 -0.6798
 6246TIP3    H118679   7.779   7.208   4.066  0.1010 -0.6340  0.5284
 6246TIP3    H218680   7.695   7.085   4.094 -0.1466 -0.5421  0.1912
 6247TIP3   OH218681   1.913   5.825   6.081 -0.1343 -0.5647 -0.1112
 6247TIP3    H118682   1.966   5.856   6.008 -1.0255 -1.2663 -1.0923
 6247TIP3    H218683   1.842   5.776   6.040 -1.0424 -0.4148  1.1947
 6248TIP3   OH218684   7.604   7.052   5.728 -0.2136 -0.1525 -0.4543
 6248TIP3    H118685   7.693   7.028   5.703 -0.4736  0.1121 -1.6893
 6248TIP3    H218686   7.564   7.084   5.647 -1.9868 -1.8712 -0.3184
 6249TIP3   OH218687   3.667   1.992   5.524 -0.0839 -0.1491  0.2203
 6249TIP3    H118688   3.711   2.060   5.474 -1.4479 -0.8268 -2.0223
 6249TIP3    H218689   3.738   1.932   5.550  0.5828 -0.3022 -1.7883
 6250TIP3   OH218690   8.240   1.200   4.322  0.1480  0.1938 -0.5170
 6250TIP3    H118691   8.185   1.129   4.356 -0.5078  2.0284  2.5765
 6250TIP3    H218692   8.188   1.237   4.250 -1.2927 -0.0121  0.3786
 6251TIP3   OH218693   4.763   0.576   2.708  0.0014  0.0022 -0.2354
 6251TIP3    H118694   4.761   0.532   2.623 -0.4322  2.0285 -1.3325
 6251TIP3    H218695   4.837   0.636   2.703  0.4355 -0.3566  1.1376
 6252TIP3   OH218696   5.721   6.490   4.044 -0.1878 -0.5633  0.1717
 6252TIP3    H118697   5.720   6.527   4.132 -0.1391 -0.6833  0.2223
 6252TIP3    H218698   5.683   6.559   3.988  0.9579  0.0197  0.0915
 6253TIP3   OH218699   0.959   0.290   0.891 -0.2883 -0.6534  0.4360
 6253TIP3    H118700   1.016   0.252   0.958  0.5583  0.3803  0.3395
 6253TIP3    H218701   0.974   0.236   0.814  2.4393  0.9319 -0.2963
 6254TIP3   OH218702   5.993   2.347   3.962 -0.5000 -0.1545 -0.2943
 6254TIP3    H118703   5.953   2.429   3.989 -2.0089 -0.6943 -0.7901
 6254TIP3    H218704   6.071   2.339   4.016 -1.2911  0.7386  1.0149
 6255TIP3   OH218705   0.492   1.426   0.104  0.2909 -0.2370 -0.1602
 6255TIP3    H118706   0.530   1.454   0.187  0.4254  1.0950 -0.6512
 6255TIP3    H218707   0.488   1.506   0.051 -0.7890 -0.8488 -1.0506
 6256TIP3   OH218708   7.502   0.406   4.098  0.3902  0.1838 -0.1746
 6256TIP3    H118709   7.445   0.353   4.043 -1.7156  2.0685  0.0441
 6256TIP3    H218710   7.498   0.365   4.184 -2.2869  1.3197  0.3311
 6257TIP3   OH218711   7.507   4.282   4.084 -0.2632 -0.0276  0.1940
 6257TIP3    H118712   7.482   4.199   4.043  0.1909 -0.6416  1.1366
 6257TIP3    H218713   7.429   4.337   4.075 -0.3095 -0.2770 -1.1258
 6258TIP3   OH218714   0.553   6.628   1.772 -0.0442 -0.5206 -0.6518
 6258TIP3    H118715   0.597   6.677   1.842  1.8728 -0.8444 -1.5793
 6258TIP3    H218716   0.475   6.592   1.815 -0.3235  1.4212  0.6312
 6259TIP3   OH218717   5.975   3.326   4.965 -0.4557 -0.8513 -0.0489
 6259TIP3    H118718   6.029   3.255   4.931  1.3504  0.1676  0.6079
 6259TIP3    H218719   5.992   3.327   5.059 -0.8186  0.1608  0.0184
 6260TIP3   OH218720   4.190   2.679   4.827  0.1065  0.0014  0.2852
 6260TIP3    H118721   4.234   2.646   4.906 -0.2197  0.8560  0.8340
 6260TIP3    H218722   4.259   2.724   4.778  0.7832 -2.2024 -0.9336
 6261TIP3   OH218723   6.291   4.219   2.435 -0.0268 -0.1650 -0.1681
 6261TIP3    H118724   6.317   4.190   2.348 -2.1798  0.4092 -1.0791
 6261TIP3    H218725   6.373   4.244   2.478  0.9228  2.3942 -3.1117
 6262TIP3   OH218726   0.036   4.902   1.375  0.1383 -0.3869 -0.3669
 6262TIP3    H118727   0.017   4.873   1.286  2.6657  1.4706 -1.6637
 6262TIP3    H218728  -0.009   4.986   1.383 -0.5801 -0.8302  0.3674
 6263TIP3   OH218729   2.515   7.174   5.866  0.4760 -0.4297  0.3323
 6263TIP3    H118730   2.592   7.135   5.825  0.2179 -0.9755  0.3637
 6263TIP3    H218731   2.525   7.268   5.852  1.1545 -0.5000  0.3488
 6264TIP3   OH218732   5.989   7.882   1.735  0.2627  0.1396  0.2168
 6264TIP3    H118733   6.045   7.827   1.680 -0.0459  0.7410 -0.7280
 6264TIP3    H218734   5.984   7.836   1.819  0.1613 -1.1565 -0.4819
 6265TIP3   OH218735   6.569   2.427   0.988 -0.2823 -0.0131 -0.7767
 6265TIP3    H118736   6.484   2.388   1.002  0.1408 -1.0414 -1.0175
 6265TIP3    H218737   6.557   2.520   1.009 -1.2752 -0.2802 -0.1319
 6266TIP3   OH218738   0.663   7.130   6.585  0.2207 -0.0255  0.6171
 6266TIP3    H118739   0.716   7.050   6.588  2.6326  1.4247 -0.3960
 6266TIP3    H218740   0.638   7.137   6.493 -1.5300 -0.5006  1.0249
 6267TIP3   OH218741   3.062   1.018   3.282  0.2001 -0.1664 -0.1710
 6267TIP3    H118742   2.970   0.992   3.277  0.3713 -0.6654 -1.1681
 6267TIP3    H218743   3.095   1.004   3.193  1.9026 -2.5144  0.7267
 6268TIP3   OH218744   6.236   1.780   3.330  0.1945 -0.1379  0.6943
 6268TIP3    H118745   6.263   1.719   3.399  1.1787  1.1442  1.5093
 6268TIP3    H218746   6.310   1.782   3.270 -1.1227 -2.1385 -1.1198
 6269TIP3   OH218747   2.033   0.391   0.859 -0.1420  0.1261 -0.0395
 6269TIP3    H118748   2.119   0.427   0.883  0.6477 -2.2447  1.0641
 6269TIP3    H218749   2.011   0.435   0.777  1.5496  1.6824  0.2523
 6270TIP3   OH218750   1.876   1.872   0.736  0.3144  0.3108 -0.0210
 6270TIP3    H118751   1.784   1.844   0.729  0.5481 -0.4870  0.0175
 6270TIP3    H218752   1.876   1.962   0.703 -0.4809  0.3129 -0.0343
 6271TIP3   OH218753   6.367   4.797   3.832 -0.3968 -0.0131 -0.0435
 6271TIP3    H118754   6.463   4.795   3.834 -0.3593  1.5481  1.0872
 6271TIP3    H218755   6.346   4.849   3.754 -0.2957  0.5126  0.2769
 6272TIP3   OH218756   2.412   7.207   4.362  0.5197 -0.7664 -0.0080
 6272TIP3    H118757   2.379   7.135   4.416 -1.1385  1.6137  2.3425
 6272TIP3    H218758   2.344   7.221   4.296  0.4450 -0.8111  0.0592
 6273TIP3   OH218759   1.012   5.628   2.345 -0.0292  0.0789 -0.0483
 6273TIP3    H118760   1.021   5.647   2.438  0.0892 -0.6230  0.0863
 6273TIP3    H218761   1.067   5.552   2.330 -1.2736 -0.7818 -0.3805
 6274TIP3   OH218762   1.807   4.631   4.427 -0.3842  0.2316  0.2032
 6274TIP3    H118763   1.811   4.697   4.357  1.4005 -0.9244 -0.8589
 6274TIP3    H218764   1.727   4.582   4.410  0.9097 -1.2236 -2.2470
 6275TIP3   OH218765   1.090   2.303   4.037  0.3763  0.0309 -0.5950
 6275TIP3    H118766   1.152   2.371   4.063 -0.6704  0.6839  0.2592
 6275TIP3    H218767   1.085   2.244   4.112 -0.7706  0.5324 -0.2616
 6276TIP3   OH218768   6.801   6.353   0.973  0.2060  0.2510 -0.5097
 6276TIP3    H118769   6.892   6.382   0.978  0.3267 -0.1231 -0.4959
 6276TIP3    H218770   6.754   6.411   1.033  0.5579 -0.0384  0.0517
 6277TIP3   OH218771   1.280   5.864   2.140  0.0871  0.5712  0.0714
 6277TIP3    H118772   1.339   5.939   2.132 -1.1860  1.4460 -2.2689
 6277TIP3    H218773   1.233   5.878   2.222  1.8464  0.7795  1.0823
 6278TIP3   OH218774   5.416   7.140   2.459  0.3696  0.4099 -0.0207
 6278TIP3    H118775   5.456   7.145   2.545 -2.1179 -1.7156  1.4031
 6278TIP3    H218776   5.322   7.140   2.476 -0.2159  0.3222 -2.7661
 6279TIP3   OH218777   5.337   2.895   5.860 -0.0145 -0.3891 -0.1577
 6279TIP3    H118778   5.356   2.841   5.937  1.6546 -3.3072 -2.4020
 6279TIP3    H218779   5.243   2.882   5.845  0.0388 -1.4065  0.2621
 6280TIP3   OH218780   1.477   5.045   2.820  0.0678 -0.8629 -0.0792
 6280TIP3    H118781   1.447   5.054   2.730  0.5210 -0.3258 -0.1818
 6280TIP3    H218782   1.422   4.976   2.857  1.0963 -2.3822 -1.2882
 6281TIP3   OH218783   7.886   4.530   1.801 -0.0647  0.4744  0.1853
 6281TIP3    H118784   7.801   4.552   1.764  1.1053 -0.4855 -3.4675
 6281TIP3    H218785   7.914   4.610   1.846 -2.4475  1.0854  0.7273
 6282TIP3   OH218786   3.252   6.781   5.320  0.4073  0.1046  0.1160
 6282TIP3    H118787   3.276   6.796   5.228  0.3114  0.6225  0.1705
 6282TIP3    H218788   3.249   6.686   5.329 -2.9750 -0.0767 -1.3277
 6283TIP3   OH218789   1.106   3.185   2.678  0.9279 -0.3124  0.0043
 6283TIP3    H118790   1.061   3.200   2.595  0.1987 -2.1856  0.0053
 6283TIP3    H218791   1.036   3.180   2.743  1.2675 -1.3187  0.3184
 6284TIP3   OH218792   3.380   2.162   1.006 -0.2315  0.7211  0.0116
 6284TIP3    H118793   3.411   2.208   0.927  0.7033  1.8072  0.9719
 6284TIP3    H218794   3.455   2.111   1.036 -0.4801  0.5678  0.3816
 6285TIP3   OH218795   6.134   1.519   1.415  0.3074 -0.1355 -0.2988
 6285TIP3    H118796   6.056   1.477   1.377 -0.6285  0.1222  1.2756
 6285TIP3    H218797   6.119   1.613   1.402  1.7524 -0.1239 -2.5583
 6286TIP3   OH218798   6.913   0.853   0.376 -0.4558  0.1048  0.6816
 6286TIP3    H118799   6.985   0.799   0.342 -1.4660 -0.4901 -0.6030
 6286TIP3    H218800   6.837   0.795   0.374 -1.9904  1.9526 -2.3966
 6287TIP3   OH218801   2.654   1.359   3.676  0.2375 -0.0381  0.4095
 6287TIP3    H118802   2.697   1.378   3.592  2.0288  1.5106  1.5748
 6287TIP3    H218803   2.561   1.372   3.659  0.4310 -0.9214 -1.5997
 6288TIP3   OH218804   1.252   6.934   5.914  0.2843  0.1749 -0.4790
 6288TIP3    H118805   1.288   7.014   5.876  0.3814  0.1221 -0.4979
 6288TIP3    H218806   1.308   6.864   5.882  0.5688  0.1666  0.0234
 6289TIP3   OH218807   0.262   2.660   0.307 -0.2404 -0.0022  0.6342
 6289TIP3    H118808   0.169   2.643   0.325 -0.0540 -1.4780  0.3108
 6289TIP3    H218809   0.289   2.589   0.249  0.2425  2.3286 -2.1839
 6290TIP3   OH218810   3.015   2.276   6.346 -0.1805 -0.6241  0.4334
 6290TIP3    H118811   3.051   2.288   6.434  0.5063 -0.3605  0.1217
 6290TIP3    H218812   3.044   2.354   6.298  0.5180 -1.3651 -0.3754
 6291TIP3   OH218813   4.014   4.669   4.393 -0.0475 -0.0100  0.1052
 6291TIP3    H118814   3.935   4.713   4.362 -0.5811 -0.6105  0.5741
 6291TIP3    H218815   4.063   4.649   4.314 -0.6996 -0.2440 -0.2487
 6292TIP3   OH218816   0.650   7.287   1.309  0.0423 -0.0624  0.0242
 6292TIP3    H118817   0.663   7.206   1.357  0.9085  0.6299  1.0163
 6292TIP3    H218818   0.573   7.271   1.253 -0.0996 -1.3710  0.5727
 6293TIP3   OH218819   1.789   7.721   6.585 -0.3836 -0.4783 -0.0114
 6293TIP3    H118820   1.723   7.652   6.584  0.3990 -1.2566 -1.0280
 6293TIP3    H218821   1.799   7.745   6.677  0.1526 -2.5690  0.5285
 6294TIP3   OH218822   7.949   2.420   0.297  0.4164  0.2736  0.0905
 6294TIP3    H118823   7.944   2.452   0.207 -0.5656 -0.1317 -0.0225
 6294TIP3    H218824   8.035   2.380   0.304  0.8540  1.1056 -0.3876
 6295TIP3   OH218825   7.421   2.028   4.953  0.1942 -0.1342  0.3207
 6295TIP3    H118826   7.378   1.976   5.021 -1.5875  2.5380  1.4007
 6295TIP3    H218827   7.377   2.003   4.872  0.9793 -1.8990  0.3775
 6296TIP3   OH218828   5.149   7.389   2.455  0.1572 -0.4372  0.4448
 6296TIP3    H118829   5.210   7.463   2.447  1.0450 -1.1143  0.7774
 6296TIP3    H218830   5.157   7.342   2.373 -0.8672  0.1524 -0.0166
 6297TIP3   OH218831   0.460   1.785   2.158  0.1179 -0.1923  0.1780
 6297TIP3    H118832   0.474   1.721   2.088  1.7253 -2.2684  2.2561
 6297TIP3    H218833   0.365   1.796   2.161 -0.2905 -2.8732 -0.0268
 6298TIP3   OH218834   3.816   6.413   1.660  0.3909 -0.3848  0.0959
 6298TIP3    H118835   3.855   6.392   1.745  0.4584  0.8972  0.4067
 6298TIP3    H218836   3.739   6.466   1.681  1.4418  1.5518 -0.6622
 6299TIP3   OH218837   0.435   5.400   4.879 -0.1980  0.3741 -0.2485
 6299TIP3    H118838   0.480   5.466   4.826 -0.2841 -0.3735 -1.2855
 6299TIP3    H218839   0.368   5.364   4.820  0.0904 -0.9041  0.1729
 6300TIP3   OH218840   4.832   2.793   6.318  0.0389 -0.5498 -0.1710
 6300TIP3    H118841   4.762   2.734   6.349 -0.1103 -0.3915 -0.2073
 6300TIP3    H218842   4.797   2.831   6.238  0.4742 -1.0515 -0.6028
 6301TIP3   OH218843   1.546   2.565   0.655  0.3471  0.3270 -0.0192
 6301TIP3    H118844   1.575   2.656   0.653  0.6654  0.2693  1.1596
 6301TIP3    H218845   1.519   2.550   0.746 -0.6511 -0.4694 -0.4239
 6302TIP3   OH218846   3.843   6.612   6.452  0.3608 -0.2805  0.3109
 6302TIP3    H118847   3.917   6.568   6.411  0.7219  0.3493  0.2662
 6302TIP3    H218848   3.779   6.625   6.381 -0.7108 -2.6544  0.7531
 6303TIP3   OH218849   1.682   5.140   4.785  0.1001  0.3365  0.5236
 6303TIP3    H118850   1.729   5.171   4.863 -0.2268 -1.0758  1.3295
 6303TIP3    H218851   1.751   5.109   4.726  0.3088  0.6901  0.5777
 6304TIP3   OH218852   6.420   1.685   4.793 -0.3763 -0.0021 -0.2387
 6304TIP3    H118853   6.374   1.710   4.713  2.2004  0.0136 -1.8131
 6304TIP3    H218854   6.477   1.613   4.767 -0.4987 -0.9805  1.9612
 6305TIP3   OH218855   5.173   1.761   3.552 -0.0810  0.2468 -0.8280
 6305TIP3    H118856   5.209   1.677   3.581 -0.0656 -0.2581 -2.2275
 6305TIP3    H218857   5.113   1.738   3.481 -2.0633  1.1955  0.4454
 6306TIP3   OH218858   0.246   2.239   1.660  0.2370  0.0220 -0.4685
 6306TIP3    H118859   0.179   2.296   1.698  0.8020  0.1131  0.4228
 6306TIP3    H218860   0.323   2.295   1.650  1.8530 -1.2038  3.3903
 6307TIP3   OH218861   3.566   4.470   4.685 -0.0018 -0.0301  0.3197
 6307TIP3    H118862   3.633   4.483   4.752 -0.0458  3.5420 -0.1070
 6307TIP3    H218863   3.484   4.463   4.734  0.2222  0.0150  0.7030
 6308TIP3   OH218864   1.101   3.562   5.045  0.2249  0.5750  0.5699
 6308TIP3    H118865   1.056   3.604   5.119 -1.9030 -1.0421  0.3151
 6308TIP3    H218866   1.072   3.470   5.050  3.0005 -0.4382 -0.0970
 6309TIP3   OH218867   7.105   4.935   0.608 -0.0437 -0.1267 -0.3686
 6309TIP3    H118868   7.036   4.975   0.555 -1.2788  0.5915  1.6741
 6309TIP3    H218869   7.066   4.853   0.639  0.0478  0.2353  0.7255
 6310TIP3   OH218870   1.955   1.520   2.790 -0.0018 -0.1257 -0.1707
 6310TIP3    H118871   1.916   1.563   2.714  1.9828  1.3963 -0.4182
 6310TIP3    H218872   1.989   1.437   2.756  1.8522  1.0116 -1.3174
 6311TIP3   OH218873   2.446   1.042   4.898 -0.3682  0.1542  0.0680
 6311TIP3    H118874   2.375   0.978   4.892 -1.0165  0.9887 -2.2972
 6311TIP3    H218875   2.403   1.123   4.923 -0.1798  0.5212 -0.7545
 6312TIP3   OH218876   6.714   4.653   1.232  0.1808 -0.6178 -0.2606
 6312TIP3    H118877   6.627   4.624   1.258 -0.4603  1.4928  0.0663
 6312TIP3    H218878   6.734   4.726   1.290  2.0156 -0.7977 -0.6074
 6313TIP3   OH218879   2.823   7.454   2.402  0.5749  0.7348 -0.0829
 6313TIP3    H118880   2.885   7.511   2.356 -0.5862  1.4420 -0.8230
 6313TIP3    H218881   2.737   7.482   2.370 -0.1809  0.3219  1.5207
 6314TIP3   OH218882   7.681   1.135   3.582  0.0717 -0.1647  0.3291
 6314TIP3    H118883   7.733   1.099   3.653  0.3532  0.9087  0.6724
 6314TIP3    H218884   7.742   1.141   3.508  0.1154 -0.0701  0.3726
 6315TIP3   OH218885   7.787   2.109   0.858 -0.4080  0.3154  0.5411
 6315TIP3    H118886   7.708   2.089   0.908  0.1415 -1.8387  0.6682
 6315TIP3    H218887   7.809   2.027   0.814  0.0864  1.6913 -1.9360
 6316TIP3   OH218888   5.049   0.358   1.163 -0.5619 -0.0863 -0.0964
 6316TIP3    H118889   4.975   0.356   1.223 -0.7547 -1.0791 -0.3560
 6316TIP3    H218890   5.013   0.388   1.080 -0.8234 -1.2031 -0.4024
 6317TIP3   OH218891   3.500   5.308   2.093  0.2815 -0.0555  0.2108
 6317TIP3    H118892   3.432   5.264   2.042 -0.4292  0.8377  0.3616
 6317TIP3    H218893   3.510   5.253   2.171 -1.6459  0.7786  1.1020
 6318TIP3   OH218894   0.206   0.445   0.813 -0.2044 -0.4102  0.4750
 6318TIP3    H118895   0.216   0.510   0.883  0.7916 -1.7930  1.6816
 6318TIP3    H218896   0.267   0.375   0.836  0.1464 -0.9468 -1.7833
 6319TIP3   OH218897   6.720   4.047   4.523  0.1286  0.6189 -0.8258
 6319TIP3    H118898   6.666   4.126   4.528  2.8495  2.6811 -1.6352
 6319TIP3    H218899   6.699   4.009   4.437 -0.2104  1.2326 -1.0198
 6320TIP3   OH218900   3.136   3.871   6.095  0.1616 -0.2828 -0.4059
 6320TIP3    H118901   3.194   3.940   6.128 -0.1556 -1.2681  2.4854
 6320TIP3    H218902   3.140   3.880   6.000  2.7971  1.4962 -0.2317
 6321TIP3   OH218903   4.718   3.938   2.574 -0.1598 -0.1283 -0.1082
 6321TIP3    H118904   4.645   3.917   2.516  0.6119 -1.5461 -0.6100
 6321TIP3    H218905   4.789   3.882   2.544  1.0013  0.8614  0.6809
 6322TIP3   OH218906   5.683   3.549   1.777  0.4492  0.0990  0.2792
 6322TIP3    H118907   5.639   3.554   1.692 -0.6309 -1.2172  0.7181
 6322TIP3    H218908   5.757   3.609   1.770 -0.9374  1.7865 -0.7962
 6323TIP3   OH218909   4.288   7.373   2.522  0.3106 -0.0965  0.0821
 6323TIP3    H118910   4.219   7.434   2.497  1.3276  0.6104 -1.0813
 6323TIP3    H218911   4.289   7.377   2.618 -1.7328 -0.6895  0.1831
 6324TIP3   OH218912   0.380   5.658   2.827 -0.0843  0.4155  0.3324
 6324TIP3    H118913   0.290   5.626   2.824  0.0516  0.0563  0.0399
 6324TIP3    H218914   0.418   5.614   2.904 -1.2556  3.5221  2.9210
 6325TIP3   OH218915   5.802   5.753   5.983 -0.5732  0.2490 -0.4407
 6325TIP3    H118916   5.877   5.813   5.978 -0.0153 -0.5065 -1.2473
 6325TIP3    H218917   5.745   5.792   6.050  2.0994 -0.9090  2.7843
 6326TIP3   OH218918   7.865   1.612   4.079  0.6482 -0.3333  0.2614
 6326TIP3    H118919   7.901   1.629   3.992  0.5091 -0.4432  0.1832
 6326TIP3    H218920   7.807   1.536   4.067  0.2668 -0.0586  0.3598
 6327TIP3   OH218921   6.127   5.936   1.733  0.1003 -0.2500 -0.1302
 6327TIP3    H118922   6.046   5.959   1.778 -0.4892  1.7551 -2.0379
 6327TIP3    H218923   6.100   5.873   1.666 -0.4213  2.0563 -2.2381
 6328TIP3   OH218924   1.145   3.118   2.174  0.7039 -0.2345 -0.0850
 6328TIP3    H118925   1.070   3.059   2.184  0.5117  0.2256  1.3127
 6328TIP3    H218926   1.192   3.084   2.098 -1.1754 -0.2626 -1.3056
 6329TIP3   OH218927   2.742   3.186   2.064  0.5866  0.1436 -0.2658
 6329TIP3    H118928   2.822   3.194   2.012  1.4772  1.5059  1.2406
 6329TIP3    H218929   2.744   3.096   2.098  0.5295 -0.4074 -1.6659
 6330TIP3   OH218930   3.296   7.519   3.675 -0.4818  0.0819  0.4765
 6330TIP3    H118931   3.281   7.435   3.631 -0.2606  0.7880 -1.0266
 6330TIP3    H218932   3.298   7.498   3.768  0.8235 -1.7602  0.0776
 6331TIP3   OH218933   8.144   0.892   4.147  0.1560  0.1307  0.2399
 6331TIP3    H118934   8.226   0.939   4.133 -1.6049  2.9515 -1.5579
 6331TIP3    H218935   8.108   0.930   4.227 -0.9035  1.3971 -0.7929
 6332TIP3   OH218936   4.027   7.250   2.700 -0.0859 -0.1426 -0.7544
 6332TIP3    H118937   4.021   7.251   2.604 -1.0031 -2.0730 -0.7560
 6332TIP3    H218938   4.105   7.198   2.719  0.0324  0.1444 -0.4455
 6333TIP3   OH218939   7.048   0.012   2.092  0.5017  0.5038 -0.1866
 6333TIP3    H118940   7.060   0.081   2.158 -0.1148  1.1517 -0.7432
 6333TIP3    H218941   7.122   0.024   2.032  0.7907  0.2248  0.1109
 6334TIP3   OH218942   6.238   0.044   4.062  0.2082  0.5763  0.4011
 6334TIP3    H118943   6.165   0.104   4.049  0.2292  0.4624 -0.2568
 6334TIP3    H218944   6.220   0.003   4.147 -1.7037 -1.1217 -0.7349
 6335TIP3   OH218945   3.725   5.581   0.785 -0.6315  0.2278  0.4930
 6335TIP3    H118946   3.699   5.534   0.864 -0.3735 -1.6881 -0.5089
 6335TIP3    H218947   3.643   5.609   0.745 -0.7998  0.4382  0.9845
 6336TIP3   OH218948   6.221   1.123   0.468  0.0548  0.3805 -0.8160
 6336TIP3    H118949   6.238   1.089   0.379  1.2908  0.7309 -0.7264
 6336TIP3    H218950   6.306   1.120   0.511 -0.6703 -0.4667  0.6131
 6337TIP3   OH218951   6.906   6.083   6.653 -0.2008 -0.1938 -0.2494
 6337TIP3    H118952   6.881   6.148   6.718  0.1228  2.1452 -2.3239
 6337TIP3    H218953   6.967   6.025   6.699  3.1278  3.5794  0.6937
 6338TIP3   OH218954   1.134   2.933   0.510  0.2607  0.7337 -0.4841
 6338TIP3    H118955   1.148   2.971   0.597 -2.6632 -0.6142  0.7170
 6338TIP3    H218956   1.174   2.846   0.515  0.2029  0.7051 -0.5155
 6339TIP3   OH218957   7.481   4.072   5.346 -0.2071 -0.3694 -0.0201
 6339TIP3    H118958   7.398   4.078   5.395  0.6095  0.1134  1.3662
 6339TIP3    H218959   7.548   4.092   5.411  1.0414 -1.1417 -1.0266
 6340TIP3   OH218960   5.509   1.493   4.794  0.0706 -0.7209  0.1791
 6340TIP3    H118961   5.545   1.561   4.738  0.3514  0.2181  1.4503
 6340TIP3    H218962   5.421   1.477   4.759 -0.5775  1.3662  0.7260
 6341TIP3   OH218963   3.283   5.378   3.380  0.4512 -0.0258 -0.1794
 6341TIP3    H118964   3.280   5.396   3.286 -0.4216 -2.8321 -0.7596
 6341TIP3    H218965   3.370   5.339   3.394 -0.3240 -1.8903 -0.3363
 6342TIP3   OH218966   0.254   0.151   6.053  0.5675  1.0384  0.8723
 6342TIP3    H118967   0.336   0.142   6.004  0.0020  0.4559  0.0067
 6342TIP3    H218968   0.250   0.243   6.078  1.4318  1.0922  0.8212
 6343TIP3   OH218969   0.740   7.248   0.342 -0.2784 -0.3127  0.4506
 6343TIP3    H118970   0.676   7.188   0.381  0.0505 -0.8708  0.1352
 6343TIP3    H218971   0.816   7.193   0.322 -0.3843 -0.0181 -0.8465
 6344TIP3   OH218972   3.923   3.364   1.438 -0.3112 -0.1849  0.4815
 6344TIP3    H118973   3.907   3.317   1.520 -2.7333  1.1096  0.8328
 6344TIP3    H218974   3.980   3.438   1.463  1.0894 -1.2092  0.4547
 6345TIP3   OH218975   2.190   0.220   0.593 -0.0868 -0.1400 -0.1211
 6345TIP3    H118976   2.171   0.294   0.536 -1.1425  1.3019  1.9898
 6345TIP3    H218977   2.120   0.157   0.574 -0.3232  0.2451 -0.5487
 6346TIP3   OH218978   5.196   1.924   1.739  0.5090 -0.0105  0.7589
 6346TIP3    H118979   5.259   1.891   1.675  0.8469  0.6669  0.7415
 6346TIP3    H218980   5.248   1.951   1.814  0.1553 -0.3123  1.1220
 6347TIP3   OH218981   6.309   4.548   0.457  0.5032 -0.0461 -0.0615
 6347TIP3    H118982   6.279   4.594   0.536  1.7046  0.0751  0.3553
 6347TIP3    H218983   6.289   4.456   0.474  3.1966 -0.4428  1.6898
 6348TIP3   OH218984   7.215   2.703   2.195  0.1512  0.3711  0.1921
 6348TIP3    H118985   7.140   2.723   2.251  0.1365 -0.2241  0.3928
 6348TIP3    H218986   7.266   2.784   2.193  0.5544  0.1879  1.6979
 6349TIP3   OH218987   3.759   1.590   4.122  0.4277 -0.2617  0.2498
 6349TIP3    H118988   3.738   1.672   4.077  0.9896 -0.3904 -0.2696
 6349TIP3    H218989   3.708   1.523   4.076  0.9659 -0.3865 -0.1737
 6350TIP3   OH218990   1.589   0.791   0.497 -0.2279  0.3448  0.1383
 6350TIP3    H118991   1.682   0.770   0.498 -0.1779  0.5885  0.6571
 6350TIP3    H218992   1.566   0.794   0.404  0.7285  2.2979 -0.0631
 6351TIP3   OH218993   7.279   2.957   5.570 -0.3174  0.1883  0.4617
 6351TIP3    H118994   7.299   3.050   5.575 -1.4148  0.5650 -1.2981
 6351TIP3    H218995   7.300   2.932   5.480 -1.2494 -0.9389  0.5299
 6352TIP3   OH218996   0.430   6.232   2.614  0.1794  0.0142 -0.6336
 6352TIP3    H118997   0.498   6.297   2.598 -0.5922  0.9993 -0.0568
 6352TIP3    H218998   0.477   6.154   2.644  1.1185  0.2883 -1.3546
 6353TIP3   OH218999   4.700   6.080   1.084 -0.0871  0.6238  0.4678
 6353TIP3    H119000   4.655   6.000   1.056  2.6275 -0.7497 -0.3525
 6353TIP3    H219001   4.727   6.062   1.174  1.2631  0.2154  0.0034
 6354TIP3   OH219002   0.660   6.924   3.029  0.0628 -0.1293 -0.1960
 6354TIP3    H119003   0.644   6.949   3.120 -2.0639 -1.1236 -0.2279
 6354TIP3    H219004   0.635   7.002   2.978 -1.5017 -0.4771 -0.0275
 6355TIP3   OH219005   0.984   5.788   6.737 -0.6584 -0.1399 -0.2900
 6355TIP3    H119006   0.927   5.747   6.672 -0.5528 -0.5425 -0.1305
 6355TIP3    H219007   1.022   5.864   6.692 -1.0967 -0.0367 -0.4864
 6356TIP3   OH219008   5.258   7.496   6.663 -0.1197  0.5295  0.3380
 6356TIP3    H119009   5.187   7.455   6.712 -1.2195 -0.1857 -1.7362
 6356TIP3    H219010   5.334   7.441   6.681 -1.1461 -1.4293 -0.9206
 6357TIP3   OH219011   1.744   6.786   5.082  0.0364 -0.1170  0.0417
 6357TIP3    H119012   1.651   6.785   5.062  0.4654  1.7005 -2.4096
 6357TIP3    H219013   1.788   6.793   4.997  2.2782  2.4176  1.2513
 6358TIP3   OH219014   7.485   5.177   0.422 -0.5372 -0.0027  0.5628
 6358TIP3    H119015   7.578   5.158   0.429  0.0260 -0.4570 -4.5262
 6358TIP3    H219016   7.443   5.110   0.477  2.0393 -1.0315  1.4263
 6359TIP3   OH219017   1.812   3.472   4.234  0.0769  0.0215 -0.5134
 6359TIP3    H119018   1.802   3.452   4.141 -0.1242 -2.7206  0.0287
 6359TIP3    H219019   1.722   3.474   4.268  0.0991  1.7217 -0.4443
 6360TIP3   OH219020   2.412   3.787   0.450 -0.0672 -0.2223  0.0824
 6360TIP3    H119021   2.331   3.786   0.400  0.8562 -0.5215 -1.4807
 6360TIP3    H219022   2.419   3.699   0.486 -0.3093 -0.2810 -0.0111
 6361TIP3   OH219023   2.969   1.075   2.769  0.0926 -0.1054  0.4296
 6361TIP3    H119024   2.910   1.144   2.800 -1.2088 -1.0807  0.2097
 6361TIP3    H219025   3.039   1.122   2.725 -2.1135  1.0838 -2.1053
 6362TIP3   OH219026   4.590   4.905   1.461 -0.1243  0.0768  0.7078
 6362TIP3    H119027   4.506   4.881   1.422  0.4411  0.8646 -1.1257
 6362TIP3    H219028   4.627   4.823   1.493 -0.9445 -0.5119  0.1788
 6363TIP3   OH219029   6.731   3.754   3.926  0.0891 -0.0083 -0.0943
 6363TIP3    H119030   6.647   3.762   3.972 -0.4410 -2.3892 -0.5182
 6363TIP3    H219031   6.722   3.673   3.875  1.9286  0.7623 -1.7138
 6364TIP3   OH219032   6.728   7.927   2.375  0.0856 -0.1092  0.3460
 6364TIP3    H119033   6.729   7.835   2.350 -0.6119 -0.0612  0.1055
 6364TIP3    H219034   6.793   7.968   2.318  0.3659 -0.4429  0.4218
 6365TIP3   OH219035   1.813   2.597   0.383 -0.0204  0.1870  0.0126
 6365TIP3    H119036   1.723   2.592   0.350  0.1418 -3.1855 -0.2373
 6365TIP3    H219037   1.837   2.689   0.372 -2.9276  0.9161 -1.2395
 6366TIP3   OH219038   4.528   0.690   0.484  0.5639 -0.0389  0.1883
 6366TIP3    H119039   4.443   0.727   0.507  1.5279  1.4374  1.5885
 6366TIP3    H219040   4.578   0.764   0.449  1.0360 -1.0565 -1.4157
 6367TIP3   OH219041   2.257   3.604   4.473 -0.0704  0.8718  0.2361
 6367TIP3    H119042   2.238   3.688   4.432 -1.2354  0.2218 -0.6154
 6367TIP3    H219043   2.175   3.556   4.467  0.2431  0.1025  1.7812
 6368TIP3   OH219044   3.987   2.823   0.713  0.4087 -0.3936 -0.2189
 6368TIP3    H119045   4.048   2.841   0.641  0.8818 -1.4644 -0.1051
 6368TIP3    H219046   3.984   2.905   0.763  1.4287 -0.2002 -0.4589
 6369TIP3   OH219047   2.485   3.027   4.690  0.3077 -0.7274  0.2251
 6369TIP3    H119048   2.524   3.057   4.608  2.3039 -1.7855  0.7230
 6369TIP3    H219049   2.479   3.106   4.744 -1.0706 -0.0098 -0.8866
 6370TIP3   OH219050   0.285   7.712   3.250 -0.0462  0.0825  0.1212
 6370TIP3    H119051   0.353   7.663   3.297  0.0118 -0.5408 -0.6016
 6370TIP3    H219052   0.216   7.725   3.315  0.5472  0.2855  0.7240
 6371TIP3   OH219053   1.364   0.802   5.315  0.2919 -0.8701 -0.0578
 6371TIP3    H119054   1.334   0.715   5.290  0.9499 -1.3447  0.7717
 6371TIP3    H219055   1.342   0.857   5.240 -1.0618 -1.5370 -0.1837
 6372TIP3   OH219056   3.695   0.671   3.636  0.7536  0.0097  0.0911
 6372TIP3    H119057   3.783   0.684   3.600  0.8084 -0.0358  0.2080
 6372TIP3    H219058   3.652   0.757   3.626  0.7314 -0.0319 -0.1806
 6373TIP3   OH219059   4.035   4.449   1.499  0.4001 -0.0975 -0.2873
 6373TIP3    H119060   3.997   4.383   1.557  0.2944  0.8360  0.7588
 6373TIP3    H219061   4.090   4.400   1.439 -0.5136 -1.2321 -0.2273
 6374TIP3   OH219062   0.188   1.052   4.317 -0.2329  0.0845 -0.0050
 6374TIP3    H119063   0.137   0.983   4.360 -0.5496  0.9230  1.0128
 6374TIP3    H219064   0.196   1.023   4.226 -2.3485 -0.1893 -0.1452
 6375TIP3   OH219065   0.102   6.564   4.116  0.2365 -0.4086  0.4959
 6375TIP3    H119066   0.143   6.556   4.030 -0.4038  0.9558  0.0324
 6375TIP3    H219067   0.057   6.481   4.130  0.7505 -0.8191 -0.2745
 6376TIP3   OH219068   1.619   6.908   5.329  0.2563  0.1803 -0.3869
 6376TIP3    H119069   1.563   6.905   5.251 -1.4999 -2.5687  0.8314
 6376TIP3    H219070   1.706   6.886   5.298 -0.3598 -0.5520 -1.6627
 6377TIP3   OH219071   7.923   4.014   5.725 -0.7796 -0.2550 -0.0289
 6377TIP3    H119072   7.865   3.957   5.674  0.1404 -1.8313  0.6115
 6377TIP3    H219073   7.867   4.085   5.756 -2.6326 -2.2639  1.4555
 6378TIP3   OH219074   7.929   4.292   3.343 -0.4935  0.5412  0.0318
 6378TIP3    H119075   7.928   4.252   3.256  1.1905  0.3196  0.0733
 6378TIP3    H219076   7.842   4.275   3.378 -0.6349 -0.9176 -0.9336
 6379TIP3   OH219077   3.865   3.966   1.008 -0.9568  0.0871  0.5691
 6379TIP3    H119078   3.854   3.949   1.101 -1.7184  0.6178  0.5827
 6379TIP3    H219079   3.890   3.881   0.970 -1.5867 -0.3390  1.1067
 6380TIP3   OH219080   1.951   1.666   0.903 -0.1538  0.3616  0.3577
 6380TIP3    H119081   1.938   1.700   0.992  0.0440  1.2633  0.0486
 6380TIP3    H219082   1.944   1.743   0.847  2.3956  0.2590 -0.1933
 6381TIP3   OH219083   7.178   1.082   1.932 -0.1144  0.4240 -0.2187
 6381TIP3    H119084   7.124   1.030   1.873 -0.5992  0.2257  0.3844
 6381TIP3    H219085   7.132   1.078   2.016  1.1920 -0.3266  0.4897
 6382TIP3   OH219086   3.074   0.937   3.008 -0.0815  0.3704  0.0366
 6382TIP3    H119087   3.006   0.871   3.011  1.7985 -1.8654 -2.1268
 6382TIP3    H219088   3.068   0.974   2.919  1.5914 -0.0256 -0.2716
 6383TIP3   OH219089   2.139   4.249   4.703  0.1253  0.2504  0.2074
 6383TIP3    H119090   2.203   4.240   4.632 -0.0233  3.1660 -0.4203
 6383TIP3    H219091   2.066   4.296   4.663 -0.9750 -0.0600  1.7647
 6384TIP3   OH219092   2.996   5.465   4.576 -0.2600  0.2133  0.1442
 6384TIP3    H119093   2.956   5.391   4.530  1.4669 -0.5837 -0.1625
 6384TIP3    H219094   2.923   5.507   4.623 -1.3625 -1.4041 -0.0473
 6385TIP3   OH219095   2.966   0.271   1.057  0.5840 -0.1662  0.3003
 6385TIP3    H119096   2.954   0.179   1.036  1.3051 -0.1858 -0.0202
 6385TIP3    H219097   3.011   0.270   1.142  0.1562 -0.0969  0.5356
 6386TIP3   OH219098   4.894   1.070   4.740  0.2897  0.3415  0.6195
 6386TIP3    H119099   4.963   1.073   4.806  0.7926  1.3640  0.0727
 6386TIP3    H219100   4.941   1.066   4.656 -0.3286 -0.1355  0.2881
 6387TIP3   OH219101   1.185   2.126   5.675 -0.6189  0.2433 -0.1350
 6387TIP3    H119102   1.108   2.150   5.727  0.3830 -2.0287  2.6650
 6387TIP3    H219103   1.251   2.192   5.699  0.0677 -1.1824  2.2903
 6388TIP3   OH219104   5.606   2.830   3.008  0.6933 -0.1832  0.0648
 6388TIP3    H119105   5.521   2.853   3.046 -1.1672 -1.7500 -2.8694
 6388TIP3    H219106   5.628   2.904   2.951  0.2563 -0.6720 -0.7507
 6389TIP3   OH219107   4.812   0.656   5.518  0.6857  0.3227 -0.2902
 6389TIP3    H119108   4.721   0.628   5.521  0.7142  0.2728  1.8057
 6389TIP3    H219109   4.821   0.700   5.434 -1.5367  1.1915 -0.1482
 6390TIP3   OH219110   1.999   2.299   3.876 -0.2738 -0.4761  0.1389
 6390TIP3    H119111   2.049   2.218   3.866 -0.8833 -1.0233  1.3731
 6390TIP3    H219112   2.065   2.368   3.866  0.6218 -1.1617  1.0386
 6391TIP3   OH219113   5.725   4.746   5.174  0.2737  0.5720 -0.3824
 6391TIP3    H119114   5.754   4.663   5.212 -0.7584  0.0025 -0.8041
 6391TIP3    H219115   5.805   4.797   5.167  0.9180 -0.3434 -0.0145
 6392TIP3   OH219116   8.047   5.598   3.897 -0.0793 -0.1071 -0.6122
 6392TIP3    H119117   8.135   5.628   3.876 -0.0756  0.4628  0.1598
 6392TIP3    H219118   8.052   5.573   3.990 -0.5353 -0.8177 -0.7688
 6393TIP3   OH219119   1.406   1.629   6.692  0.0433 -0.2348 -0.1908
 6393TIP3    H119120   1.354   1.688   6.638 -0.2377 -0.8879 -0.6534
 6393TIP3    H219121   1.413   1.549   6.640 -0.2170 -0.8748  0.7267
 6394TIP3   OH219122   3.908   7.676   6.537 -0.3282 -0.1590 -0.8901
 6394TIP3    H119123   3.973   7.730   6.582  0.0390  1.8765 -3.6422
 6394TIP3    H219124   3.835   7.670   6.599  0.6082  1.4856  0.4592
 6395TIP3   OH219125   2.588   6.657   2.651 -0.2817 -0.1834 -0.5761
 6395TIP3    H119126   2.563   6.597   2.582  1.6345  0.5519 -1.9962
 6395TIP3    H219127   2.683   6.666   2.642  0.1147 -0.2753  2.3530
 6396TIP3   OH219128   6.192   4.540   2.565 -0.2164  0.3171  0.2643
 6396TIP3    H119129   6.149   4.472   2.618  0.7090 -0.0718  0.5347
 6396TIP3    H219130   6.231   4.491   2.492  0.6164  0.5287  0.5631
 6397TIP3   OH219131   1.853   7.539   5.407 -0.6081 -0.6560 -0.1928
 6397TIP3    H119132   1.904   7.620   5.404 -2.8425  0.8457 -0.0132
 6397TIP3    H219133   1.769   7.562   5.366 -1.5248 -2.7135  0.3983
 6398TIP3   OH219134   2.701   5.912   0.157 -0.2420  0.4429  0.3015
 6398TIP3    H119135   2.617   5.868   0.159  0.3182 -0.6283  1.4761
 6398TIP3    H219136   2.722   5.921   0.064 -1.3109  0.0912  0.0186
 6399TIP3   OH219137   2.330   0.066   1.235 -0.4052  0.4667 -0.3594
 6399TIP3    H119138   2.291  -0.002   1.180  0.4825  0.7131 -1.3491
 6399TIP3    H219139   2.393   0.110   1.177 -0.5517  1.7639  0.4177
 6400TIP3   OH219140   7.313   1.690   1.729 -0.3690  0.5400  0.0137
 6400TIP3    H119141   7.250   1.649   1.670 -0.4480  0.7729 -0.0640
 6400TIP3    H219142   7.276   1.776   1.749 -0.0410  0.7101 -0.0978
 6401TIP3   OH219143   1.506   4.541   5.509  0.1266 -0.9367  0.1598
 6401TIP3    H119144   1.531   4.494   5.588 -2.3812 -1.2669  0.8460
 6401TIP3    H219145   1.546   4.628   5.518 -1.8336 -0.1934  2.9423
 6402TIP3   OH219146   7.916   5.081   1.650 -0.0934  0.1225  0.1392
 6402TIP3    H119147   7.851   5.026   1.694 -0.6646  1.1319  0.6048
 6402TIP3    H219148   7.995   5.072   1.703 -0.3645  0.2180  0.5706
 6403TIP3   OH219149   7.429   2.974   1.104 -0.3227  0.2344 -0.8985
 6403TIP3    H119150   7.518   2.985   1.137 -0.3952  0.2753 -0.7204
 6403TIP3    H219151   7.387   2.914   1.166 -0.3643  0.0717 -1.0823
 6404TIP3   OH219152   7.581   6.057   2.544  0.0004 -0.3158  0.4385
 6404TIP3    H119153   7.656   6.095   2.498  1.2150 -0.7432  1.9876
 6404TIP3    H219154   7.524   6.026   2.474 -0.0913  2.5020 -0.8421
 6405TIP3   OH219155   3.612   2.501   1.528 -0.0113 -0.5785  0.1462
 6405TIP3    H119156   3.548   2.549   1.476  0.8764  0.3791 -0.0902
 6405TIP3    H219157   3.639   2.428   1.472  0.8307  0.3609 -0.7142
 6406TIP3   OH219158   4.198   1.879   3.662  0.0973  0.0827 -0.8991
 6406TIP3    H119159   4.147   1.800   3.681 -0.0168  0.1875 -0.7654
 6406TIP3    H219160   4.133   1.941   3.628  0.2607 -0.0280 -1.4261
 6407TIP3   OH219161   5.132   5.458   2.869  0.0983 -0.0563 -0.4988
 6407TIP3    H119162   5.050   5.507   2.876  0.0895 -0.2669  2.1214
 6407TIP3    H219163   5.105   5.366   2.869  0.2977 -0.1347  0.7235
 6408TIP3   OH219164   5.453   6.318   1.923  0.1665 -0.2572  0.0307
 6408TIP3    H119165   5.416   6.265   1.994 -0.0824  0.9683  0.8602
 6408TIP3    H219166   5.493   6.393   1.967 -2.1271  1.8503 -1.1531
 6409TIP3   OH219167   2.857   7.188   5.259  0.2120  0.7160 -0.0032
 6409TIP3    H119168   2.879   7.143   5.341  1.0481 -0.3504 -0.7832
 6409TIP3    H219169   2.770   7.156   5.237  1.0477 -1.1088 -0.8838
 6410TIP3   OH219170   7.833   7.897   0.044  0.3606  0.9826  0.3317
 6410TIP3    H119171   7.806   7.954   0.116 -1.0336  0.3227  0.3638
 6410TIP3    H219172   7.752   7.876  -0.002  0.6090 -1.9558  1.0616
 6411TIP3   OH219173   6.399   5.903   5.296 -0.4752 -0.4792 -0.1397
 6411TIP3    H119174   6.316   5.857   5.287  0.0866 -1.3085 -1.4898
 6411TIP3    H219175   6.379   5.979   5.351 -2.1786 -0.5106 -0.6516
 6412TIP3   OH219176   6.519   0.408   1.419 -0.1559  0.0160 -0.2960
 6412TIP3    H119177   6.608   0.425   1.390 -0.3539  0.3092 -0.7524
 6412TIP3    H219178   6.473   0.380   1.339 -0.4894 -0.0466 -0.0854
 6413TIP3   OH219179   5.252   5.749   4.392 -0.0216  0.1263  0.1067
 6413TIP3    H119180   5.307   5.760   4.314 -0.1662  1.2726  0.1445
 6413TIP3    H219181   5.241   5.838   4.425 -3.4443  0.2299 -0.9356
 6414TIP3   OH219182   7.578   7.270   1.191 -0.2148  0.1139  0.6351
 6414TIP3    H119183   7.557   7.266   1.098 -0.8315 -0.5434  0.7899
 6414TIP3    H219184   7.668   7.302   1.194  0.0149 -0.4080 -0.2147
 6415TIP3   OH219185   4.896   1.723   4.359 -0.1656  0.0840 -0.5018
 6415TIP3    H119186   4.904   1.817   4.376  0.2029 -0.2064  1.0451
 6415TIP3    H219187   4.804   1.710   4.335 -1.2840  0.3199  3.1145
 6416TIP3   OH219188   2.317   6.352   3.827  0.4232  0.1206  0.7203
 6416TIP3    H119189   2.338   6.261   3.805  0.4693  0.3389 -0.1645
 6416TIP3    H219190   2.265   6.345   3.907 -0.5672 -0.7674  0.0339
 6417TIP3   OH219191   1.224   1.525   5.631  0.2547  0.0705  0.4336
 6417TIP3    H119192   1.193   1.579   5.558 -0.7599  0.7000  1.3077
 6417TIP3    H219193   1.318   1.516   5.616  0.0632  0.1926 -0.9456
 6418TIP3   OH219194   1.446   3.260   6.337  0.2536  0.2643  0.0723
 6418TIP3    H119195   1.513   3.329   6.341 -1.8682  2.4314  3.0579
 6418TIP3    H219196   1.462   3.207   6.415 -1.4733  0.8488  0.8535
 6419TIP3   OH219197   3.091   1.149   5.784 -1.1759  0.0440  0.1482
 6419TIP3    H119198   3.129   1.066   5.756 -0.2654  0.0384  1.3408
 6419TIP3    H219199   3.159   1.191   5.837 -1.7376  1.4154 -0.1669
 6420TIP3   OH219200   0.286   7.723   4.059  0.4223  0.0442  0.2790
 6420TIP3    H119201   0.247   7.672   4.129  1.8852  2.0017  2.6810
 6420TIP3    H219202   0.220   7.789   4.037 -0.3377 -1.0236 -0.8361
 6421TIP3   OH219203   2.121   7.294   3.249 -0.0410  0.0288  0.0583
 6421TIP3    H119204   2.027   7.306   3.235  0.1446  0.0300 -1.2330
 6421TIP3    H219205   2.156   7.267   3.164  0.9903 -0.8830  0.7339
 6422TIP3   OH219206   4.261   0.458   4.607  0.2192 -0.0511 -0.5427
 6422TIP3    H119207   4.240   0.380   4.554 -1.1447  1.5264 -2.5077
 6422TIP3    H219208   4.301   0.519   4.545 -1.3198  1.8421  0.2027
 6423TIP3   OH219209   3.219   1.477   0.203  0.4051 -0.1079  0.0509
 6423TIP3    H119210   3.300   1.522   0.181  0.8257  0.0745  1.8222
 6423TIP3    H219211   3.239   1.384   0.195  0.3388 -0.0375 -0.9692
 6424TIP3   OH219212   3.564   4.231   4.054 -0.2252 -0.4283 -0.3552
 6424TIP3    H119213   3.521   4.187   4.128 -1.0075  0.1484 -0.4520
 6424TIP3    H219214   3.629   4.288   4.095  0.7333 -1.5782 -0.2248
 6425TIP3   OH219215   7.413   0.882   3.973  0.1974 -0.4042 -0.3385
 6425TIP3    H119216   7.471   0.884   3.897  0.7928 -1.7453  0.0421
 6425TIP3    H219217   7.452   0.817   4.032  0.1599  1.1167  1.4639
 6426TIP3   OH219218   6.707   7.709   3.815 -0.7959 -0.1116  0.3527
 6426TIP3    H119219   6.728   7.620   3.845  0.7873  0.7798  2.1005
 6426TIP3    H219220   6.637   7.738   3.873 -0.6725  0.1283  0.3793
 6427TIP3   OH219221   8.292   7.678   1.219 -0.1418  0.8451  0.3343
 6427TIP3    H119222   8.288   7.767   1.185 -1.8199  0.3216 -0.9851
 6427TIP3    H219223   8.361   7.635   1.169 -1.2148  0.6624 -1.0683
 6428TIP3   OH219224   4.147   6.749   2.280  0.0644  0.3009 -0.2651
 6428TIP3    H119225   4.061   6.754   2.323 -0.2952 -1.4216 -0.7158
 6428TIP3    H219226   4.139   6.676   2.219  1.6612  0.5326 -0.7969
 6429TIP3   OH219227   5.372   3.605   5.603 -0.2803  0.2138 -0.3090
 6429TIP3    H119228   5.432   3.655   5.547 -0.2115  1.0255  0.4689
 6429TIP3    H219229   5.291   3.656   5.602 -1.3577 -1.3905 -2.1702
 6430TIP3   OH219230   8.038   1.831   0.580 -0.5540  0.0043 -0.1318
 6430TIP3    H119231   8.023   1.898   0.513 -2.3428 -0.3761 -0.1773
 6430TIP3    H219232   8.109   1.865   0.633 -0.1287  1.0329 -1.3083
 6431TIP3   OH219233   3.658   0.340   2.041 -0.0258 -0.2104 -0.5002
 6431TIP3    H119234   3.620   0.331   2.128 -2.0708 -1.9504 -1.4884
 6431TIP3    H219235   3.745   0.300   2.048 -0.5795 -1.2881  0.4818
 6432TIP3   OH219236   7.626   4.214   1.126  0.5680  0.0243 -0.5769
 6432TIP3    H119237   7.594   4.191   1.039  0.5545  2.2936 -1.2579
 6432TIP3    H219238   7.701   4.272   1.109 -0.2216  1.5676  0.8504
 6433TIP3   OH219239   4.292   7.198   5.741 -0.2860  0.1382 -0.0858
 6433TIP3    H119240   4.205   7.157   5.748  0.0032 -0.6802 -1.0362
 6433TIP3    H219241   4.346   7.131   5.699  0.4296  1.1979 -0.8826
 6434TIP3   OH219242   1.211   7.570   4.404  0.1016  0.1597 -0.3630
 6434TIP3    H119243   1.204   7.649   4.350 -0.3743  0.6475  0.3846
 6434TIP3    H219244   1.179   7.598   4.490  0.4659 -0.7046  0.0605
 6435TIP3   OH219245   5.523   6.705   6.235 -0.0508 -0.5991  0.3039
 6435TIP3    H119246   5.585   6.770   6.204 -0.6669 -0.1638 -0.0449
 6435TIP3    H219247   5.510   6.727   6.328 -2.0666  1.3307 -0.3412
 6436TIP3   OH219248   3.046   7.620   2.331  0.3156  0.3020  0.5698
 6436TIP3    H119249   3.118   7.556   2.337 -0.0199 -0.2346 -0.7018
 6436TIP3    H219250   3.085   7.696   2.289 -0.0738 -0.4144 -1.1941
 6437TIP3   OH219251   4.819   6.556   2.649 -0.2257 -0.1748  0.1025
 6437TIP3    H119252   4.803   6.639   2.695  0.7783  0.2449 -0.2732
 6437TIP3    H219253   4.736   6.535   2.607 -0.3090  0.9903 -0.3413
 6438TIP3   OH219254   3.980   4.007   3.699 -0.1059 -0.6751  0.4738
 6438TIP3    H119255   3.941   4.087   3.662  0.3544 -0.7991 -0.2886
 6438TIP3    H219256   3.912   3.941   3.692 -0.3038 -0.4880  0.6143
 6439TIP3   OH219257   1.873   6.715   2.400  0.2718 -0.0771 -0.6304
 6439TIP3    H119258   1.945   6.773   2.425 -0.3998  0.6125 -0.2900
 6439TIP3    H219259   1.850   6.742   2.311  0.5758 -0.4453 -0.8229
 6440TIP3   OH219260   5.090   6.242   5.458  0.0852  0.7967 -0.2123
 6440TIP3    H119261   5.106   6.333   5.479  0.2384  0.5018  1.0263
 6440TIP3    H219262   5.147   6.193   5.518 -0.6021 -0.1175 -0.2870
 6441TIP3   OH219263   1.227   1.951   0.925 -0.1946 -0.1889  0.3882
 6441TIP3    H119264   1.225   2.036   0.969 -3.2451 -0.0351  0.2017
 6441TIP3    H219265   1.232   1.971   0.832 -1.0888 -0.1434  0.3335
 6442TIP3   OH219266   6.127   2.742   1.915 -0.2539 -0.2286 -0.4878
 6442TIP3    H119267   6.193   2.722   1.982 -1.0448 -3.4775 -0.5304
 6442TIP3    H219268   6.120   2.837   1.917  2.1967  0.0289  1.6600
 6443TIP3   OH219269   3.843   5.685   2.242 -0.5344  0.1066  0.9408
 6443TIP3    H119270   3.806   5.771   2.258 -0.1677  0.1105  1.8086
 6443TIP3    H219271   3.936   5.695   2.262  0.0158  0.1427 -1.3424
 6444TIP3   OH219272   4.033   2.025   6.206  0.6542  0.5654 -0.0653
 6444TIP3    H119273   4.117   2.054   6.170  0.2193 -0.3834 -1.9646
 6444TIP3    H219274   3.967   2.068   6.151 -0.0276 -3.1952 -2.5918
 6445TIP3   OH219275   1.534   0.126   4.488 -0.3734 -1.0154 -0.2868
 6445TIP3    H119276   1.450   0.085   4.467 -0.4164 -0.1111 -2.0666
 6445TIP3    H219277   1.533   0.209   4.441  1.1202 -0.5214  0.4859
 6446TIP3   OH219278   4.992   0.326   6.011  0.2033  0.1214  0.0858
 6446TIP3    H119279   4.949   0.348   6.093  0.1533  0.8271 -0.1275
 6446TIP3    H219280   5.049   0.252   6.033 -0.4397 -0.2425  0.5667
 6447TIP3   OH219281   2.647   5.549   0.727  0.5960  0.4752  0.2136
 6447TIP3    H119282   2.601   5.531   0.645 -0.2321 -2.0392  1.1571
 6447TIP3    H219283   2.739   5.535   0.706  0.2882 -1.4309 -0.0297
 6448TIP3   OH219284   4.677   3.348   6.653  0.4540  0.6247  0.6506
 6448TIP3    H119285   4.748   3.313   6.705  0.5100 -0.1874  0.0458
 6448TIP3    H219286   4.635   3.413   6.709  0.4846 -0.2569  1.7098
 6449TIP3   OH219287   2.875   7.285   3.141 -0.0861 -0.1513 -0.5347
 6449TIP3    H119288   2.791   7.278   3.185  0.5010 -1.5225  0.4201
 6449TIP3    H219289   2.856   7.268   3.049 -0.7545 -1.1629 -0.2192
 6450TIP3   OH219290   5.539   5.010   3.396  0.4220  0.8398 -0.0123
 6450TIP3    H119291   5.482   5.079   3.362 -0.0279  0.5606  0.1539
 6450TIP3    H219292   5.485   4.931   3.392  0.0674  0.9168  2.0610
 6451TIP3   OH219293   3.070   2.335   4.261 -0.3573 -0.0470 -0.0017
 6451TIP3    H119294   3.073   2.261   4.323 -0.6858 -0.2519 -0.2289
 6451TIP3    H219295   3.029   2.406   4.310  0.7718  0.2784  0.5173
 6452TIP3   OH219296   1.227   5.427   2.490 -0.0583 -0.1294 -0.4513
 6452TIP3    H119297   1.304   5.378   2.518  1.0455  2.8429  2.2166
 6452TIP3    H219298   1.174   5.436   2.569 -1.1225  1.3778 -1.2898
 6453TIP3   OH219299   8.296   4.382   3.584 -0.2215 -0.0563  0.0679
 6453TIP3    H119300   8.309   4.292   3.614 -0.9210 -0.4910 -0.8683
 6453TIP3    H219301   8.208   4.405   3.616 -1.1632 -0.6817 -1.9053
 6454TIP3   OH219302   1.010   2.920   2.350 -0.0437  0.0661  0.4550
 6454TIP3    H119303   1.033   2.895   2.261  0.3817  0.6697  0.3828
 6454TIP3    H219304   0.918   2.896   2.360 -0.0156 -0.2539 -0.0521
 6455TIP3   OH219305   5.770   7.492   2.979 -0.2865 -0.0376 -0.0778
 6455TIP3    H119306   5.738   7.580   2.961 -1.9186 -0.4118  0.7888
 6455TIP3    H219307   5.781   7.490   3.074  2.1448 -0.0287 -0.3032
 6456TIP3   OH219308   7.223   2.716   2.899  0.0056  0.4174 -0.0048
 6456TIP3    H119309   7.203   2.740   2.808  0.7121 -0.9541 -0.5533
 6456TIP3    H219310   7.316   2.693   2.897  0.5174  2.0919  1.4688
 6457TIP3   OH219311   8.285   6.317   5.840 -0.3533 -0.7897 -0.6429
 6457TIP3    H119312   8.319   6.407   5.835  1.2186 -1.3647 -0.9200
 6457TIP3    H219313   8.269   6.303   5.933 -0.3901 -0.3033 -0.5700
 6458TIP3   OH219314   1.253   3.468   1.673  0.4355  0.1349  0.0891
 6458TIP3    H119315   1.288   3.435   1.590  0.7261  2.3990 -0.7750
 6458TIP3    H219316   1.188   3.533   1.647 -1.2904 -0.8569  1.6916
 6459TIP3   OH219317   2.614   1.401   0.073  0.1242  0.2195 -0.3805
 6459TIP3    H119318   2.617   1.495   0.095  2.0725  0.4255 -1.2575
 6459TIP3    H219319   2.653   1.358   0.149 -0.7077  0.1219 -0.0066
 6460TIP3   OH219320   5.149   3.672   2.303  0.5458 -0.1756 -0.1066
 6460TIP3    H119321   5.197   3.640   2.227 -0.4200 -0.7016 -0.5230
 6460TIP3    H219322   5.200   3.746   2.335  1.4886 -0.5671 -0.6666
 6461TIP3   OH219323   1.870   6.610   3.263 -0.1864  0.0413 -0.5096
 6461TIP3    H119324   1.896   6.657   3.342  3.7243 -1.3735 -0.7141
 6461TIP3    H219325   1.916   6.655   3.192 -1.6489 -0.2116 -1.6676
 6462TIP3   OH219326   6.689   0.971   2.399  0.1605  0.0462 -0.1856
 6462TIP3    H119327   6.673   1.034   2.470 -0.2966  0.4466 -0.6325
 6462TIP3    H219328   6.639   0.893   2.424  0.9865 -0.2648  0.5279
 6463TIP3   OH219329   4.171   6.843   5.239 -0.1255  0.4532  0.4117
 6463TIP3    H119330   4.161   6.818   5.147 -0.9487 -0.3787  0.7041
 6463TIP3    H219331   4.126   6.773   5.287 -0.6872  1.4696  1.3925
 6464TIP3   OH219332   1.477   7.806   6.629  0.2602  0.3403 -0.0103
 6464TIP3    H119333   1.486   7.741   6.559  1.0184  1.1043 -0.6464
 6464TIP3    H219334   1.422   7.874   6.592  0.6129  0.7218  0.1608
 6465TIP3   OH219335   4.355   0.703   6.875  0.3269  0.6456 -0.3270
 6465TIP3    H119336   4.349   0.684   6.782  0.5266  0.4185 -0.2948
 6465TIP3    H219337   4.449   0.707   6.893  0.2981  1.9184 -0.3789
 6466TIP3   OH219338   3.514   1.335   4.489  0.2170  0.7137 -0.0267
 6466TIP3    H119339   3.458   1.270   4.447 -0.0335  1.0359 -0.2024
 6466TIP3    H219340   3.595   1.288   4.508 -0.6650 -0.1935  1.6982
 6467TIP3   OH219341   5.266   0.384   3.851 -0.4537 -0.6181  0.9400
 6467TIP3    H119342   5.214   0.462   3.832 -0.6752 -1.1608 -0.9045
 6467TIP3    H219343   5.244   0.322   3.781  2.9515 -0.7122 -0.2721
 6468TIP3   OH219344   4.696   5.380   1.300  0.4295  0.4077  0.4485
 6468TIP3    H119345   4.726   5.293   1.273 -0.2860  0.4716 -0.6077
 6468TIP3    H219346   4.661   5.367   1.388 -0.6262 -0.6091 -0.0874
 6469TIP3   OH219347   0.658   3.106   2.233  0.0949 -0.4190  1.1538
 6469TIP3    H119348   0.677   3.101   2.327 -0.3157 -0.0193  1.2605
 6469TIP3    H219349   0.745   3.112   2.192  0.2519  1.1138  1.6265
 6470TIP3   OH219350   5.420   0.479   4.215 -0.9175  0.4608  0.5791
 6470TIP3    H119351   5.444   0.387   4.220 -0.5766  0.2948 -2.4127
 6470TIP3    H219352   5.474   0.522   4.281  0.2462 -1.2442  0.7853
 6471TIP3   OH219353   6.138   6.469   2.212  0.3209  0.5659 -0.0741
 6471TIP3    H119354   6.206   6.496   2.273 -0.7061  2.7780  0.1609
 6471TIP3    H219355   6.088   6.403   2.260  0.4536  1.1614  0.9075
 6472TIP3   OH219356   6.104   1.918   6.473  0.3442  0.0565 -0.2653
 6472TIP3    H119357   6.051   1.845   6.505 -0.1783 -0.3948 -2.0337
 6472TIP3    H219358   6.042   1.989   6.458  0.6959  0.5228  0.4266
 6473TIP3   OH219359   4.952   7.913   4.016  0.4468  0.1936 -0.1314
 6473TIP3    H119360   5.035   7.945   4.053  1.0746  0.7323 -1.8794
 6473TIP3    H219361   4.969   7.821   3.996 -0.2010 -0.3634  1.6686
 6474TIP3   OH219362   7.034   6.757   5.895 -0.0461 -0.0359  0.0534
 6474TIP3    H119363   6.995   6.675   5.923  0.2704  0.2968  1.5725
 6474TIP3    H219364   7.125   6.736   5.877 -0.0397 -0.0770  0.1347
 6475TIP3   OH219365   1.315   4.853   5.004  0.3649  0.6641  0.3340
 6475TIP3    H119366   1.373   4.929   4.995  1.4196 -0.1273  0.3255
 6475TIP3    H219367   1.310   4.838   5.099 -0.6518  1.3304  0.4066
 6476TIP3   OH219368   6.358   1.611   3.880  0.2870 -0.4429 -0.2335
 6476TIP3    H119369   6.400   1.551   3.817 -0.1768 -0.8817 -0.1278
 6476TIP3    H219370   6.293   1.557   3.925  1.7549 -0.5900  1.8342
 6477TIP3   OH219371   4.703   2.553   5.182  0.7548 -0.2001 -0.0479
 6477TIP3    H119372   4.705   2.468   5.224  1.0866 -0.8945 -1.3981
 6477TIP3    H219373   4.650   2.539   5.103 -1.4580  1.4997  1.0315
 6478TIP3   OH219374   5.475   0.354   2.720  0.1417 -0.5413 -0.1850
 6478TIP3    H119375   5.541   0.411   2.759 -0.0932 -0.2217 -0.2495
 6478TIP3    H219376   5.433   0.311   2.794  0.8327 -1.2128 -0.1704
 6479TIP3   OH219377   8.153   1.560   4.165 -0.3480  0.3761  0.2172
 6479TIP3    H119378   8.084   1.596   4.220 -2.0384  1.1062 -2.2094
 6479TIP3    H219379   8.221   1.627   4.165 -0.3563  0.4005  1.3078
 6480TIP3   OH219380   7.550   3.250   4.947  1.0464  0.2233  0.2132
 6480TIP3    H119381   7.502   3.332   4.953  0.5102 -0.0847  0.1970
 6480TIP3    H219382   7.493   3.185   4.989  1.3759 -0.1762  0.0567
 6481TIP3   OH219383   5.504   3.250   5.701  0.3432 -0.5426  0.4387
 6481TIP3    H119384   5.512   3.292   5.786  0.3305  0.4094 -0.0137
 6481TIP3    H219385   5.473   3.162   5.720 -3.5528  0.8020  1.2859
 6482TIP3   OH219386   5.834   7.655   2.684 -0.1818  0.1459  0.1352
 6482TIP3    H119387   5.827   7.570   2.640  1.1864  0.3019 -0.3960
 6482TIP3    H219388   5.749   7.696   2.669 -0.7749 -1.0101  0.1781
 6483TIP3   OH219389   3.658   4.635   2.222  0.2053  0.1229  0.3029
 6483TIP3    H119390   3.606   4.691   2.163 -0.8562 -1.3428 -0.1990
 6483TIP3    H219391   3.678   4.692   2.296  0.4595  1.6274 -0.8672
 6484TIP3   OH219392   7.396   2.013   0.312  0.2215  0.7925 -0.4645
 6484TIP3    H119393   7.437   2.043   0.393 -0.7091  1.0961 -0.0913
 6484TIP3    H219394   7.312   2.058   0.309 -0.1898  0.0220 -1.0954
 6485TIP3   OH219395   4.563   2.593   3.002 -0.7007  0.2916  0.5373
 6485TIP3    H119396   4.582   2.633   2.917 -1.7271 -0.3943 -0.0387
 6485TIP3    H219397   4.646   2.550   3.026 -0.8256 -0.8552 -0.9014
 6486TIP3   OH219398   6.503   4.858   2.747 -0.2150 -0.1919 -0.2804
 6486TIP3    H119399   6.459   4.943   2.750 -0.9854 -0.5711 -0.5444
 6486TIP3    H219400   6.507   4.830   2.839  0.7884  0.4944 -0.1032
 6487TIP3   OH219401   3.499   5.691   0.682  0.2986  0.2217 -0.4122
 6487TIP3    H119402   3.434   5.754   0.651  0.3680  1.2098  1.3678
 6487TIP3    H219403   3.453   5.607   0.682 -0.4724  0.6374 -0.6858
 6488TIP3   OH219404   4.672   0.039   5.149  0.1915  0.1484 -0.2488
 6488TIP3    H119405   4.602   0.087   5.104 -0.4868 -1.1541 -0.6246
 6488TIP3    H219406   4.673   0.076   5.237 -1.4044 -0.2201 -0.0395
 6489TIP3   OH219407   6.488   2.688   1.050 -0.3791  0.5283 -0.0721
 6489TIP3    H119408   6.548   2.762   1.057  1.1121 -0.6072 -0.2808
 6489TIP3    H219409   6.438   2.689   1.131  0.5054  1.0322  0.4751
 6490TIP3   OH219410   2.004   6.293   6.172 -0.1656  0.4875 -0.2653
 6490TIP3    H119411   2.074   6.235   6.200  0.5781  1.9772  1.1482
 6490TIP3    H219412   1.934   6.235   6.144  1.1747 -1.0469 -0.5523
 6491TIP3   OH219413   3.315   2.915   0.352 -0.4517  0.5723 -0.3226
 6491TIP3    H119414   3.251   2.862   0.399 -0.7205  1.6171  0.5326
 6491TIP3    H219415   3.268   2.950   0.277 -0.8340  1.1131  0.1537
 6492TIP3   OH219416   1.532   4.389   5.278  0.6788 -0.6474  0.0371
 6492TIP3    H119417   1.472   4.425   5.343 -0.2665 -0.8426 -0.7016
 6492TIP3    H219418   1.594   4.460   5.261 -1.1490  0.7562 -1.4032
 6493TIP3   OH219419   7.666   6.850   4.055  0.2756 -0.4647  0.0069
 6493TIP3    H119420   7.702   6.786   4.117 -0.0464 -1.3710 -0.7305
 6493TIP3    H219421   7.672   6.807   3.970 -0.4416  0.2781 -0.4296
 6494TIP3   OH219422   8.350   6.310   4.095 -0.0410  0.2361 -0.5436
 6494TIP3    H119423   8.383   6.223   4.116 -1.5519 -0.9125 -2.5381
 6494TIP3    H219424   8.308   6.300   4.009 -1.0549  2.7218 -0.4321
 6495TIP3   OH219425   5.486   5.916   1.474 -0.0572  0.3756 -0.5805
 6495TIP3    H119426   5.480   5.825   1.446  0.4287  0.6444 -1.5921
 6495TIP3    H219427   5.422   5.923   1.544  2.5295 -1.7411  2.3017
 6496TIP3   OH219428   3.132   4.422   3.950  0.1781  0.4541 -0.7490
 6496TIP3    H119429   3.190   4.470   4.009  1.5970 -0.3101 -1.4799
 6496TIP3    H219430   3.097   4.489   3.891  0.8589  0.8383 -0.7279
 6497TIP3   OH219431   7.333   1.182   6.592 -0.2332  0.2086 -0.2658
 6497TIP3    H119432   7.253   1.223   6.558 -0.6780  0.1787  0.7107
 6497TIP3    H219433   7.369   1.135   6.518 -2.1588 -1.3739 -0.2851
 6498TIP3   OH219434   4.498   6.734   5.756 -0.8536 -0.3493 -0.4737
 6498TIP3    H119435   4.444   6.661   5.786 -1.3916 -0.3720 -1.4649
 6498TIP3    H219436   4.436   6.806   5.741 -0.5826 -0.2760 -1.3118
 6499TIP3   OH219437   4.658   3.751   2.219  0.5511  0.0624 -0.6321
 6499TIP3    H119438   4.660   3.839   2.257 -3.2945 -0.6163  1.5797
 6499TIP3    H219439   4.698   3.695   2.285 -0.7934 -0.3444 -0.1362
 6500TIP3   OH219440   6.798   4.645   3.974 -0.2393 -0.5673 -0.5366
 6500TIP3    H119441   6.867   4.663   4.038 -0.5584  3.2257 -1.0247
 6500TIP3    H219442   6.836   4.578   3.917  2.1146 -0.2735  0.5373
 6501TIP3   OH219443   7.594   2.503   3.781  0.3518  0.2504 -0.2661
 6501TIP3    H119444   7.644   2.451   3.718 -0.8952 -1.6867  0.2611
 6501TIP3    H219445   7.503   2.488   3.757 -0.1118  0.3589  1.3143
 6502TIP3   OH219446   5.873   1.148   4.147  0.3559  0.4711 -0.1414
 6502TIP3    H119447   5.843   1.159   4.237  0.6415 -0.8810  0.1327
 6502TIP3    H219448   5.930   1.071   4.149 -1.2792 -0.8696 -1.8735
 6503TIP3   OH219449   3.498   1.290   3.231  0.2461 -0.1049  0.3009
 6503TIP3    H119450   3.555   1.296   3.308 -0.2815 -2.4785  0.9868
 6503TIP3    H219451   3.527   1.209   3.187 -2.3462 -1.2464  0.5390
 6504TIP3   OH219452   3.997   5.085   5.267 -0.0193 -0.0525  0.1404
 6504TIP3    H119453   4.027   5.168   5.230 -0.8973  0.1467 -0.1667
 6504TIP3    H219454   4.020   5.091   5.360  1.4209 -0.1913 -0.1870
 6505TIP3   OH219455   2.699   0.489   4.924  0.3479 -0.0524 -0.0485
 6505TIP3    H119456   2.638   0.415   4.935 -1.1839  1.2986  1.2521
 6505TIP3    H219457   2.747   0.492   5.007  1.4197 -0.4201 -0.6413
 6506TIP3   OH219458   3.922   1.329   1.438  1.0972  0.3155  0.6402
 6506TIP3    H119459   3.845   1.354   1.490  1.8916  2.0787  1.0355
 6506TIP3    H219460   3.889   1.262   1.378 -0.2786 -0.4112  2.1258
 6507TIP3   OH219461   5.947   3.656   5.278  0.7413 -0.1989  0.1697
 6507TIP3    H119462   5.969   3.749   5.280  3.9541 -0.7933  3.3204
 6507TIP3    H219463   5.900   3.640   5.359  0.3632 -1.3708 -0.2586
 6508TIP3   OH219464   2.783   1.391   2.715  0.2338  0.0035  0.1363
 6508TIP3    H119465   2.696   1.371   2.681 -0.3850  1.6984  0.6221
 6508TIP3    H219466   2.837   1.404   2.636 -0.0271 -0.6839 -0.1639
 6509TIP3   OH219467   2.358   7.452   3.310  0.3020 -0.6117  0.0007
 6509TIP3    H119468   2.339   7.540   3.277  1.5719  0.8053  2.7440
 6509TIP3    H219469   2.283   7.399   3.282 -0.5036  1.2904 -1.7295
 6510TIP3   OH219470   5.053   7.161   1.787  0.4906 -0.2393 -0.6173
 6510TIP3    H119471   4.958   7.164   1.803  0.4103  2.1720 -1.1417
 6510TIP3    H219472   5.073   7.246   1.746  3.2729  0.4986  1.8952
 6511TIP3   OH219473   6.330   5.571   0.358 -0.3202 -0.8485  0.5208
 6511TIP3    H119474   6.277   5.644   0.325 -0.1450 -1.1319 -0.4213
 6511TIP3    H219475   6.285   5.493   0.325  0.3863 -1.1092  0.1602
 6512TIP3   OH219476   3.671   1.781   4.607 -0.8126 -0.5277 -0.0384
 6512TIP3    H119477   3.673   1.746   4.518 -0.9787  1.0995 -0.7058
 6512TIP3    H219478   3.632   1.710   4.659  1.2268 -2.3551 -0.8300
 6513TIP3   OH219479   0.179   0.974   6.436  0.2050  0.3581  0.0197
 6513TIP3    H119480   0.258   0.950   6.388 -0.9648 -1.3193 -1.1847
 6513TIP3    H219481   0.115   0.995   6.368 -1.3537 -1.5743  0.7905
 6514TIP3   OH219482   7.891   6.989   4.790 -0.1789 -0.3816  0.1895
 6514TIP3    H119483   7.851   7.056   4.846 -0.7466  0.5499 -1.2680
 6514TIP3    H219484   7.978   7.022   4.772 -0.3721 -0.1508 -0.3303
 6515TIP3   OH219485   6.418   5.743   1.361 -0.1149 -1.1749  0.3831
 6515TIP3    H119486   6.489   5.710   1.306  0.3801 -2.2995  1.6194
 6515TIP3    H219487   6.456   5.819   1.406  0.4922 -2.0102  1.3452
 6516TIP3   OH219488   0.444   7.056   2.791  0.2223 -0.4770  0.6803
 6516TIP3    H119489   0.358   7.098   2.785  0.9342  0.9250 -0.4844
 6516TIP3    H219490   0.483   7.070   2.704  1.4672 -1.4557  1.0497
 6517TIP3   OH219491   5.499   4.623   5.563 -0.0177 -0.3176  0.2648
 6517TIP3    H119492   5.480   4.711   5.597 -0.7863 -0.0965 -0.6759
 6517TIP3    H219493   5.594   4.618   5.563  0.2168  1.7250 -2.4966
 6518TIP3   OH219494   7.478   1.735   4.148 -0.7911  0.0590  0.4207
 6518TIP3    H119495   7.391   1.756   4.183 -0.7293 -0.2503  0.7643
 6518TIP3    H219496   7.494   1.646   4.178 -1.5126 -0.9266 -1.9164
 6519TIP3   OH219497   0.851   3.190   2.036  0.1753  0.2028  0.3884
 6519TIP3    H119498   0.784   3.211   1.970  0.8015 -1.0310 -0.6896
 6519TIP3    H219499   0.922   3.252   2.018  0.8773 -0.9439 -0.9801
 6520TIP3   OH219500   3.022   5.537   2.232 -0.0175 -0.0872  0.0336
 6520TIP3    H119501   3.050   5.595   2.161 -0.1148  0.2990  0.3061
 6520TIP3    H219502   3.100   5.526   2.286  0.4077 -1.3784 -0.7849
 6521TIP3   OH219503   0.102   7.773   5.902  0.2945  0.3430  0.1850
 6521TIP3    H119504   0.157   7.714   5.954  0.7848  1.5374  1.0874
 6521TIP3    H219505   0.015   7.763   5.940  0.3782  0.1997  0.3412
 6522TIP3   OH219506   7.418   5.201   5.818  0.6520 -0.1737 -0.4904
 6522TIP3    H119507   7.367   5.133   5.863 -0.1656  0.2455 -0.7525
 6522TIP3    H219508   7.445   5.160   5.736  1.2630 -0.5998 -0.0821
 6523TIP3   OH219509   1.641   2.742   3.928  0.1076  0.0946 -0.4291
 6523TIP3    H119510   1.719   2.773   3.881 -0.3844 -0.0396 -1.3625
 6523TIP3    H219511   1.622   2.657   3.888  1.1299 -1.2277  1.7269
 6524TIP3   OH219512   8.121   6.452   1.635 -0.1605 -0.0306  0.2559
 6524TIP3    H119513   8.203   6.492   1.607 -0.3339  0.1651  0.0320
 6524TIP3    H219514   8.145   6.402   1.713 -0.3274  2.1235  1.7644
 6525TIP3   OH219515   6.793   4.142   3.379  0.1293  0.4715  0.1243
 6525TIP3    H119516   6.765   4.133   3.470 -3.2243 -1.6688 -0.9386
 6525TIP3    H219517   6.853   4.069   3.365  2.3459  1.9994  1.0246
 6526TIP3   OH219518   7.100   6.286   4.227  0.1091  0.0400  0.1062
 6526TIP3    H119519   7.166   6.355   4.234 -0.6336  0.7076  0.8330
 6526TIP3    H219520   7.084   6.258   4.317 -0.1891 -0.5115 -0.1119
 6527TIP3   OH219521   7.668   0.084   6.116 -0.1907  0.2525 -0.5020
 6527TIP3    H119522   7.757   0.120   6.122 -0.2811  0.3469  0.4145
 6527TIP3    H219523   7.657   0.063   6.024  1.0926 -0.5399 -0.5025
 6528TIP3   OH219524   0.745   4.355   2.081  0.3568  0.6124  0.2424
 6528TIP3    H119525   0.689   4.401   2.017 -0.0208  0.4371  0.4465
 6528TIP3    H219526   0.717   4.264   2.076  1.4721  0.3005 -0.5458
 6529TIP3   OH219527   1.535   0.296   0.437 -0.0815  0.4521 -0.2228
 6529TIP3    H119528   1.442   0.277   0.425 -0.1513 -1.6121  2.6225
 6529TIP3    H219529   1.570   0.300   0.348 -2.5353 -0.5684 -1.3436
 6530TIP3   OH219530   2.464   2.442   2.733  0.1839 -0.5847  0.4846
 6530TIP3    H119531   2.387   2.494   2.760  0.5775  1.5335 -2.0509
 6530TIP3    H219532   2.428   2.373   2.677 -0.1660 -2.1083  2.4713
 6531TIP3   OH219533   6.246   2.368   3.688  0.2342  0.0197  0.1403
 6531TIP3    H119534   6.225   2.306   3.758  0.1514  0.1140  0.1989
 6531TIP3    H219535   6.302   2.318   3.629  1.6410  0.4252  1.0925
 6532TIP3   OH219536   0.686   7.694   3.582  0.6347  0.2326  0.7111
 6532TIP3    H119537   0.651   7.697   3.493  1.2298  3.5572  0.4742
 6532TIP3    H219538   0.654   7.610   3.617 -1.1842 -0.3258 -1.9661
 6533TIP3   OH219539   1.981   7.087   2.267 -0.3268  0.2576 -0.1555
 6533TIP3    H119540   2.065   7.131   2.277 -0.5194  0.5245  0.3495
 6533TIP3    H219541   1.916   7.157   2.278 -0.6305 -0.0917  0.3288
 6534TIP3   OH219542   5.431   2.145   4.604 -0.3140 -1.0767 -0.9674
 6534TIP3    H119543   5.351   2.182   4.641 -0.0261  0.2910 -1.6639
 6534TIP3    H219544   5.501   2.171   4.665  0.1386  1.0537 -2.3038
 6535TIP3   OH219545   6.742   3.187   2.623  0.8987  0.3013 -0.3240
 6535TIP3    H119546   6.685   3.247   2.575 -0.5074 -0.4365  0.3439
 6535TIP3    H219547   6.765   3.234   2.703  2.0294  0.9608 -1.0154
 6536TIP3   OH219548   6.667   5.698   2.589  0.6668 -0.3202 -0.5258
 6536TIP3    H119549   6.629   5.610   2.598  0.5025 -0.2116 -0.0976
 6536TIP3    H219550   6.734   5.701   2.658 -0.3236  0.4005  0.4403
 6537TIP3   OH219551   5.650   2.168   6.566  0.0057  0.1691  0.6288
 6537TIP3    H119552   5.626   2.225   6.640  0.0753  0.4974  0.3996
 6537TIP3    H219553   5.607   2.208   6.490 -0.4469 -0.4330  0.5669
 6538TIP3   OH219554   4.347   7.392   5.249  0.0852  0.5380 -0.1683
 6538TIP3    H119555   4.341   7.353   5.162 -1.0820  1.9052 -0.7468
 6538TIP3    H219556   4.257   7.418   5.270 -0.1064 -1.7011  2.4284
 6539TIP3   OH219557   4.953   7.882   6.728 -0.3061  0.5585 -0.1313
 6539TIP3    H119558   4.909   7.865   6.811  0.6136  2.3187  0.7629
 6539TIP3    H219559   4.883   7.881   6.663 -1.4510  1.7385  1.0293
 6540TIP3   OH219560   2.978   0.270   3.992  0.1659 -0.6659  0.1430
 6540TIP3    H119561   2.943   0.246   4.077  0.5921 -2.1535 -0.0851
 6540TIP3    H219562   3.041   0.340   4.011  0.3022 -1.0218  1.0614
 6541TIP3   OH219563   3.815   3.558   3.412  0.3685 -0.3123 -0.3671
 6541TIP3    H119564   3.721   3.563   3.398  0.0151  1.2281  1.8861
 6541TIP3    H219565   3.836   3.465   3.409 -1.6248 -0.8741  1.0999
 6542TIP3   OH219566   0.485   7.344   5.240  0.7225  0.5139  0.0546
 6542TIP3    H119567   0.535   7.409   5.190  1.7122 -0.5288 -0.3375
 6542TIP3    H219568   0.491   7.374   5.330  0.8285  1.1910 -0.1706
 6543TIP3   OH219569   3.758   1.760   0.800  0.4750 -0.5759  0.3244
 6543TIP3    H119570   3.761   1.664   0.807 -2.0797 -0.6910  0.6421
 6543TIP3    H219571   3.707   1.776   0.721 -3.5834  0.3696  2.8715
 6544TIP3   OH219572   0.835   2.700   1.097  0.1203  0.0629  0.1900
 6544TIP3    H119573   0.773   2.758   1.141  0.0788  0.2050 -0.0505
 6544TIP3    H219574   0.904   2.685   1.161 -0.0294  0.1219  0.3649
 6545TIP3   OH219575   2.393   6.962   4.094 -0.1892 -0.0028  0.0629
 6545TIP3    H119576   2.396   6.931   4.003  0.1437 -0.3350  0.1847
 6545TIP3    H219577   2.300   6.970   4.113 -0.2615  0.6627 -0.5031
 6546TIP3   OH219578   0.733   7.755   6.298  0.1212 -0.4716  0.2457
 6546TIP3    H119579   0.658   7.708   6.261  1.7986 -2.5869 -0.6704
 6546TIP3    H219580   0.738   7.727   6.389 -1.1425  1.0150  0.8280
 6547TIP3   OH219581   3.274   5.589   4.827  0.2343 -0.9848 -0.8265
 6547TIP3    H119582   3.263   5.567   4.735  0.3164  0.0669 -1.1040
 6547TIP3    H219583   3.284   5.685   4.828  4.6535 -1.2340 -0.2009
 6548TIP3   OH219584   2.536   3.830   4.856  0.0254  0.1937 -0.1776
 6548TIP3    H119585   2.559   3.899   4.918  0.8977 -0.2925  0.0554
 6548TIP3    H219586   2.618   3.809   4.812 -0.4282 -0.0332 -0.9296
 6549TIP3   OH219587   5.716   6.817   4.448  0.3252  0.1755 -0.0464
 6549TIP3    H119588   5.732   6.912   4.448  0.3620  0.1853  0.9578
 6549TIP3    H219589   5.652   6.804   4.517  0.1420 -0.5114 -0.3414
 6550TIP3   OH219590   5.292   6.159   2.084 -0.0451  0.0474  0.6083
 6550TIP3    H119591   5.229   6.102   2.127 -0.4546 -0.6142 -0.7985
 6550TIP3    H219592   5.241   6.236   2.057 -0.4069 -0.6844 -0.9251
 6551TIP3   OH219593   5.289   0.911   0.916 -0.6076 -0.4608 -0.0909
 6551TIP3    H119594   5.241   0.868   0.845  1.1433 -1.2919 -0.8314
 6551TIP3    H219595   5.305   0.842   0.980 -0.4551 -0.1833  0.1709
 6552TIP3   OH219596   3.355   4.296   2.701  0.4452  0.0604  0.6821
 6552TIP3    H119597   3.315   4.308   2.788 -1.4336  1.5578 -0.3200
 6552TIP3    H219598   3.449   4.298   2.718  0.1251  0.6424  2.6661
 6553TIP3   OH219599   2.221   3.121   4.896  0.4005 -0.8417 -0.3551
 6553TIP3    H119600   2.132   3.087   4.905 -0.5089  1.2684 -0.7939
 6553TIP3    H219601   2.217   3.183   4.823  2.5511 -1.6184 -1.2190
 6554TIP3   OH219602   0.882   1.179   1.375  0.4495 -0.2637 -0.1308
 6554TIP3    H119603   0.905   1.099   1.422  0.9249  0.2448  0.5103
 6554TIP3    H219604   0.907   1.250   1.434 -0.3080  0.3539 -0.5397
 6555TIP3   OH219605   3.432   4.870   4.563 -0.0845  0.2643 -0.0452
 6555TIP3    H119606   3.439   4.966   4.569  0.0621  0.1813  1.6842
 6555TIP3    H219607   3.418   4.853   4.470  3.6007  1.7461 -1.0535
 6556TIP3   OH219608   1.279   6.633   6.827 -0.5605  0.6802  0.1020
 6556TIP3    H119609   1.341   6.595   6.889  0.9423  1.3290 -0.9390
 6556TIP3    H219610   1.238   6.557   6.784 -1.8356  0.2167  2.0098
 6557TIP3   OH219611   1.400   7.577   0.853 -0.5798  0.6692 -0.0544
 6557TIP3    H119612   1.442   7.508   0.800  0.4392  1.4401 -0.2834
 6557TIP3    H219613   1.423   7.555   0.943  1.8388  1.9741 -0.2536
 6558TIP3   OH219614   8.273   6.136   1.543 -0.1475  0.4332 -0.3712
 6558TIP3    H119615   8.326   6.057   1.546  1.1484  1.2994  0.1842
 6558TIP3    H219616   8.206   6.123   1.611 -0.9004 -0.8079 -1.3094
 6559TIP3   OH219617   6.978   2.878   5.774  0.2143 -0.0422 -0.4182
 6559TIP3    H119618   6.919   2.880   5.849  0.3235  0.7333 -0.3459
 6559TIP3    H219619   6.956   2.957   5.724  1.6373  0.6392 -0.0253
 6560TIP3   OH219620   5.447   1.009   6.850  0.9308  0.3154 -0.1181
 6560TIP3    H119621   5.363   0.985   6.889  1.5427 -0.9438  0.5023
 6560TIP3    H219622   5.424   1.055   6.769 -0.3434 -0.1347 -0.0346
 6561TIP3   OH219623   5.493   4.954   0.911  0.0752  0.3993  0.3004
 6561TIP3    H119624   5.504   4.875   0.965  1.1184  0.1586 -0.2342
 6561TIP3    H219625   5.582   4.975   0.882 -0.4966  0.3205 -1.5953
 6562TIP3   OH219626   7.924   5.302   1.898 -0.5011  0.3297  0.1377
 6562TIP3    H119627   7.830   5.291   1.880 -0.6139  0.1013  0.8470
 6562TIP3    H219628   7.929   5.383   1.949 -0.0433  1.7030 -1.9580
 6563TIP3   OH219629   3.940   1.048   5.436 -0.3349  0.0210  0.2569
 6563TIP3    H119630   3.910   1.138   5.431 -0.1252  0.1894  1.7637
 6563TIP3    H219631   3.954   1.023   5.345  0.6243  1.8443 -0.1455
 6564TIP3   OH219632   7.406   3.864   3.790  0.0042  0.2170  0.4412
 6564TIP3    H119633   7.329   3.807   3.793 -0.2907  0.4139 -1.6704
 6564TIP3    H219634   7.474   3.810   3.751 -0.5635  1.4922 -2.5848
 6565TIP3   OH219635   2.704   5.075   5.794  0.3728  0.2966  0.2612
 6565TIP3    H119636   2.796   5.073   5.822  0.1536  0.3591  1.0105
 6565TIP3    H219637   2.666   5.148   5.842 -0.1106  0.1633  0.0807
 6566TIP3   OH219638   0.258   1.106   4.803 -0.6478  0.3941 -0.3302
 6566TIP3    H119639   0.320   1.147   4.864 -0.1536 -0.9554  0.1128
 6566TIP3    H219640   0.186   1.077   4.858 -0.6323 -0.0020 -0.5131
 6567TIP3   OH219641   6.156   6.874   5.164 -0.4803  0.3530  0.0944
 6567TIP3    H119642   6.165   6.783   5.190 -2.1049 -0.4322 -1.8343
 6567TIP3    H219643   6.139   6.921   5.246  0.4381 -1.0314  1.1272
 6568TIP3   OH219644   1.267   6.733   2.892 -0.1154 -0.0856 -0.0637
 6568TIP3    H119645   1.304   6.721   2.979  0.5099  0.5968 -0.2289
 6568TIP3    H219646   1.214   6.812   2.899 -0.7223 -0.4810 -0.0990
 6569TIP3   OH219647   3.942   0.653   3.133 -0.0201  0.6172  0.3237
 6569TIP3    H119648   3.995   0.679   3.057 -0.1527 -0.5877 -0.2038
 6569TIP3    H219649   3.853   0.645   3.099  0.0562 -0.7288  0.3989
 6570TIP3   OH219650   5.190   4.527   0.610  0.2524 -0.1452  0.2759
 6570TIP3    H119651   5.189   4.623   0.615  2.1359 -0.0792 -0.1847
 6570TIP3    H219652   5.237   4.499   0.689  2.7646 -0.4848 -1.2479
 6571TIP3   OH219653   1.086   1.560   1.183 -0.1009  0.1183 -0.5266
 6571TIP3    H119654   1.106   1.545   1.275  1.1816  1.2150 -0.5921
 6571TIP3    H219655   1.064   1.653   1.178  2.5040  0.7535 -1.6998
 6572TIP3   OH219656   4.072   1.325   3.222 -0.0978 -0.3062  0.1491
 6572TIP3    H119657   4.060   1.419   3.229 -3.2228 -0.4884 -0.8158
 6572TIP3    H219658   4.035   1.290   3.304 -0.5111 -0.7368 -0.2134
 6573TIP3   OH219659   0.565   3.138   1.287  0.0319  0.1309 -0.0020
 6573TIP3    H119660   0.490   3.194   1.308  0.4066  0.6658 -0.0810
 6573TIP3    H219661   0.627   3.153   1.358  0.3475  0.2057 -0.2900
 6574TIP3   OH219662   7.110   7.623   5.158  0.4104  0.0305  0.4307
 6574TIP3    H119663   7.069   7.541   5.132 -1.3636  1.0180  0.0050
 6574TIP3    H219664   7.096   7.628   5.253 -0.7055  0.4718  0.2545
 6575TIP3   OH219665   1.610   7.460   0.025 -0.0209 -0.2615  0.3420
 6575TIP3    H119666   1.672   7.398   0.061  0.7737  0.9549  1.1504
 6575TIP3    H219667   1.573   7.505   0.101 -1.2479 -0.3495 -0.1711
 6576TIP3   OH219668   5.279   7.241   3.047  0.1045  0.2827  0.0046
 6576TIP3    H119669   5.278   7.249   3.142  1.9204  1.2009 -0.0096
 6576TIP3    H219670   5.357   7.290   3.019 -0.4258  0.1120 -1.9610
 6577TIP3   OH219671   6.562   6.979   2.213 -0.2407 -0.0187  0.0112
 6577TIP3    H119672   6.520   7.064   2.213 -1.3683 -0.5518 -0.6677
 6577TIP3    H219673   6.492   6.917   2.191  0.4607 -1.1676  0.8717
 6578TIP3   OH219674   1.992   7.534   2.521  0.2747  0.1842 -0.2353
 6578TIP3    H119675   1.947   7.531   2.606  0.0930 -1.4130 -0.3526
 6578TIP3    H219676   2.047   7.612   2.526 -0.0051  0.3256  1.2132
 6579TIP3   OH219677   2.580   4.074   5.967  0.1705  0.1653  0.1880
 6579TIP3    H119678   2.518   4.097   6.037 -0.2343  0.2096 -0.1790
 6579TIP3    H219679   2.525   4.030   5.901  0.3724  1.0051 -0.5427
 6580TIP3   OH219680   3.297   6.458   0.141  0.1919 -0.5009  0.0803
 6580TIP3    H119681   3.257   6.406   0.211 -0.3682  0.0121  0.1470
 6580TIP3    H219682   3.360   6.514   0.186 -0.7058  0.3657  0.2807
 6581TIP3   OH219683   2.425   6.748   4.380 -0.3200  0.2366 -0.3212
 6581TIP3    H119684   2.439   6.760   4.286  1.7271  0.8488  0.0238
 6581TIP3    H219685   2.371   6.823   4.406  1.2734  1.5212 -0.5781
 6582TIP3   OH219686   8.351   0.526   0.730  0.5440 -0.2925 -0.5875
 6582TIP3    H119687   8.372   0.532   0.824  1.7076  0.0793 -0.8459
 6582TIP3    H219688   8.357   0.432   0.711  1.3674 -0.2711 -0.4953
 6583TIP3   OH219689   3.103   5.174   0.993  0.1788 -0.4722 -0.2719
 6583TIP3    H119690   3.073   5.199   1.080  0.6592  0.2239 -0.3002
 6583TIP3    H219691   3.071   5.084   0.982 -1.0157 -0.1139  0.0904
 6584TIP3   OH219692   7.904   3.316   0.353  0.1411  0.2156  0.0195
 6584TIP3    H119693   7.880   3.236   0.307 -0.4512  0.1648  0.3961
 6584TIP3    H219694   7.870   3.303   0.442 -1.7843  1.7005 -0.4339
 6585TIP3   OH219695   5.465   1.232   5.509 -0.3196  0.0021  0.2707
 6585TIP3    H119696   5.417   1.295   5.456  0.1249  0.9973  1.0219
 6585TIP3    H219697   5.429   1.147   5.483  0.1588  0.3906 -1.9300
 6586TIP3   OH219698   2.990   6.201   5.120  0.1156  0.0845 -0.1462
 6586TIP3    H119699   2.928   6.179   5.189  0.3075  0.1569  0.0480
 6586TIP3    H219700   3.058   6.252   5.163 -0.1194  0.7224 -0.5245
 6587TIP3   OH219701   5.631   7.796   0.043  0.1731 -0.1728  0.5877
 6587TIP3    H119702   5.554   7.756   0.001 -0.3017  0.6987  0.6141
 6587TIP3    H219703   5.705   7.746   0.008 -0.4685 -1.8873  1.5249
 6588TIP3   OH219704   5.074   2.311   0.926  0.5470 -0.3636  0.1670
 6588TIP3    H119705   5.028   2.390   0.898 -1.2151 -1.0559  0.9665
 6588TIP3    H219706   5.166   2.331   0.914  0.0472  0.9833 -1.7892
 6589TIP3   OH219707   3.572   7.073   0.031  0.4311 -0.7551  0.3924
 6589TIP3    H119708   3.619   6.992   0.011  0.3848 -0.6482 -0.1582
 6589TIP3    H219709   3.634   7.124   0.084  1.3278 -0.2053 -1.1150
 6590TIP3   OH219710   8.308   7.882   2.453  0.0237  0.4004 -0.5275
 6590TIP3    H119711   8.337   7.973   2.462  1.6246 -0.2524  1.5323
 6590TIP3    H219712   8.251   7.867   2.528  0.1085 -0.4313 -0.6163
 6591TIP3   OH219713   0.619   2.382   4.357 -0.6037  0.4924  0.1106
 6591TIP3    H119714   0.683   2.330   4.309 -2.0194 -0.2772 -1.0154
 6591TIP3    H219715   0.580   2.440   4.292 -1.7662  0.2267  0.5340
 6592TIP3   OH219716   7.119   0.181   3.245  0.1915 -0.4202 -0.0331
 6592TIP3    H119717   7.135   0.272   3.222  1.0273 -1.2374 -3.2157
 6592TIP3    H219718   7.201   0.150   3.283  0.0747  0.0034  0.5733
 6593TIP3   OH219719   7.700   5.421   6.232 -0.1533  0.0550  0.4072
 6593TIP3    H119720   7.663   5.351   6.180 -1.1984  0.3141  0.7617
 6593TIP3    H219721   7.772   5.381   6.280 -1.7471 -1.2243  1.8562
 6594TIP3   OH219722   4.544   2.756   1.200  0.3376  0.3439  0.1479
 6594TIP3    H119723   4.572   2.738   1.110  0.1569 -0.7065  0.2911
 6594TIP3    H219724   4.461   2.803   1.190  0.4063  0.3857 -0.2379
 6595TIP3   OH219725   0.297   4.599   2.461  0.2048  0.4950  0.3139
 6595TIP3    H119726   0.373   4.602   2.402  1.3114 -0.9276  1.5691
 6595TIP3    H219727   0.284   4.690   2.487  1.3419  0.8097 -0.1372
 6596TIP3   OH219728   5.605   4.976   1.304  0.0821  0.2289 -0.1590
 6596TIP3    H119729   5.587   5.031   1.228  0.8912  0.7086 -0.0178
 6596TIP3    H219730   5.565   4.892   1.283  0.0333  0.4483 -0.9847
 6597TIP3   OH219731   4.275   1.763   1.777 -0.4876  0.4089 -0.1505
 6597TIP3    H119732   4.356   1.728   1.814 -0.8097  0.3780  0.5358
 6597TIP3    H219733   4.295   1.777   1.684 -0.4721 -1.9659 -0.5661
 6598TIP3   OH219734   5.829   3.686   5.905 -0.1957  0.3128  0.6830
 6598TIP3    H119735   5.809   3.655   5.816  0.7403  2.2438 -0.2632
 6598TIP3    H219736   5.800   3.615   5.962 -0.8173 -0.9976 -1.1621
 6599TIP3   OH219737   3.134   1.641   4.520 -0.8773  0.8878  0.7821
 6599TIP3    H119738   3.134   1.711   4.455 -0.6469 -0.4246 -0.6927
 6599TIP3    H219739   3.044   1.609   4.521 -0.7986  0.6681  0.8592
 6600TIP3   OH219740   2.939   3.250   0.060 -0.3625 -0.1373  0.4045
 6600TIP3    H119741   2.927   3.344   0.048 -0.5751 -0.0586  1.1993
 6600TIP3    H219742   2.923   3.213  -0.027 -3.0716  0.3045  0.6143
 6601TIP3   OH219743   5.812   2.486   2.873  0.2997 -0.1831 -0.2671
 6601TIP3    H119744   5.728   2.523   2.845  0.0224 -0.9798 -0.5296
 6601TIP3    H219745   5.846   2.549   2.937  0.3561  1.0421 -1.4557
 6602TIP3   OH219746   1.233   0.312   2.793 -0.2166  0.1806 -0.8053
 6602TIP3    H119747   1.214   0.230   2.839  2.8816 -0.4125 -0.3818
 6602TIP3    H219748   1.278   0.285   2.714  2.7495  1.4267  0.3201
 6603TIP3   OH219749   6.765   4.652   0.571 -0.2190 -0.0956 -0.3801
 6603TIP3    H119750   6.693   4.713   0.587 -1.2644 -1.6197  1.1017
 6603TIP3    H219751   6.829   4.672   0.639 -0.3384 -0.2997 -0.2051
 6604TIP3   OH219752   0.825   1.190   2.118 -0.0505  0.3342 -0.6987
 6604TIP3    H119753   0.904   1.209   2.068 -0.1545  0.5143 -0.7949
 6604TIP3    H219754   0.759   1.249   2.083  0.1184  1.1405  0.2882
 6605TIP3   OH219755   0.067   7.820   2.794 -0.2308 -0.3399  0.0671
 6605TIP3    H119756   0.028   7.739   2.760 -1.6620  0.1879  0.3899
 6605TIP3    H219757   0.120   7.853   2.721 -0.3112 -1.1307 -0.3569
 6606TIP3   OH219758   3.797   6.933   1.079  0.5550  0.5197  0.0213
 6606TIP3    H119759   3.733   7.003   1.063 -1.2539 -0.8861  0.8195
 6606TIP3    H219760   3.800   6.884   0.997 -0.8341 -0.5006  0.5478
 6607TIP3   OH219761   6.754   6.057   0.411 -0.0565 -0.1897  0.0039
 6607TIP3    H119762   6.773   5.995   0.482  0.3641  0.3029  0.3359
 6607TIP3    H219763   6.665   6.036   0.383 -0.3281 -0.2161  0.8635
 6608TIP3   OH219764   4.127   3.475   5.269  0.3257  0.0670 -0.0587
 6608TIP3    H119765   4.042   3.517   5.280  0.2674 -0.0854  0.0759
 6608TIP3    H219766   4.151   3.444   5.356 -0.2231 -1.2873 -0.3620
 6609TIP3   OH219767   3.990   5.125   2.813  0.5214  0.8594 -0.3831
 6609TIP3    H119768   4.075   5.128   2.857  0.4354  1.6097 -0.2619
 6609TIP3    H219769   3.926   5.147   2.881  0.3228  1.3162 -0.7109
 6610TIP3   OH219770   2.712   6.935   6.617 -0.0236 -0.2506 -0.1730
 6610TIP3    H119771   2.623   6.966   6.600  0.6709  2.6211  0.8740
 6610TIP3    H219772   2.737   6.978   6.698  2.2304 -1.2304 -0.2859
 6611TIP3   OH219773   7.230   3.315   3.280  0.3477 -0.2780 -0.0703
 6611TIP3    H119774   7.241   3.397   3.232 -2.4332  0.6391  0.6226
 6611TIP3    H219775   7.240   3.339   3.372  0.5367 -0.9263  0.0849
 6612TIP3   OH219776   3.149   5.783   0.445 -0.0291 -0.5510  0.5136
 6612TIP3    H119777   3.236   5.822   0.442 -0.8017  1.1887 -1.0647
 6612TIP3    H219778   3.092   5.853   0.476 -1.2616 -0.7829 -1.0927
 6613TIP3   OH219779   6.192   0.142   5.360 -0.3314 -0.1853 -0.3367
 6613TIP3    H119780   6.122   0.203   5.337 -0.3231  0.3974  1.0255
 6613TIP3    H219781   6.202   0.086   5.284 -3.5877 -1.5448  0.0624
 6614TIP3   OH219782   2.858   6.571   2.551 -0.0896  0.0077 -0.6338
 6614TIP3    H119783   2.898   6.514   2.486 -1.5249  0.1365 -1.6952
 6614TIP3    H219784   2.921   6.575   2.623  1.0179 -1.0897 -1.5101
 6615TIP3   OH219785   2.909   4.855   1.409 -0.2125 -0.1019  0.4202
 6615TIP3    H119786   2.900   4.840   1.315 -1.3621  0.0563  0.4980
 6615TIP3    H219787   2.837   4.806   1.449 -0.0319  0.2408  1.1875
 6616TIP3   OH219788   1.027   1.603   0.423 -0.2276  0.1486  0.1986
 6616TIP3    H119789   0.961   1.552   0.469 -0.9074 -0.5954 -1.5187
 6616TIP3    H219790   1.094   1.539   0.399  0.6192  0.7085  0.9943
 6617TIP3   OH219791   5.385   4.192   1.215 -0.3944 -0.2040  0.4433
 6617TIP3    H119792   5.366   4.111   1.262 -0.7004  0.0523  0.7708
 6617TIP3    H219793   5.476   4.213   1.236 -0.4657 -0.2056  0.7505
 6618TIP3   OH219794   4.303   0.520   2.464  0.3008  0.5616  0.0902
 6618TIP3    H119795   4.375   0.570   2.501 -1.2252  1.7681  1.5360
 6618TIP3    H219796   4.280   0.566   2.383  1.2599  0.0332 -0.5054
 6619TIP3   OH219797   5.475   7.668   2.803 -0.0812  0.0914 -0.0850
 6619TIP3    H119798   5.442   7.748   2.762  0.3935 -0.4489 -1.6260
 6619TIP3    H219799   5.530   7.698   2.875  0.2748  1.1618 -0.7814
 6620TIP3   OH219800   2.333   6.664   4.063 -0.0014 -0.0392  0.0828
 6620TIP3    H119801   2.333   6.745   4.012 -1.0485  0.1322  0.3435
 6620TIP3    H219802   2.241   6.645   4.079  0.2149 -1.4304 -0.1907
 6621TIP3   OH219803   5.832   0.546   1.538 -0.2098  0.6030  0.4957
 6621TIP3    H119804   5.822   0.543   1.443 -0.2630  0.9835  0.4871
 6621TIP3    H219805   5.747   0.519   1.572  0.3527 -1.4197  0.4578
 6622TIP3   OH219806   4.927   2.867   3.064  0.2303  0.1885 -0.4438
 6622TIP3    H119807   4.965   2.949   3.032 -0.6877  0.1929 -1.5738
 6622TIP3    H219808   4.995   2.831   3.122  0.2124  2.2663  0.9986
 6623TIP3   OH219809   8.375   1.279   4.077 -0.4727  0.3086  0.0350
 6623TIP3    H119810   8.440   1.309   4.014  2.0815 -0.5359  2.0835
 6623TIP3    H219811   8.291   1.305   4.040  1.0933  2.8828 -2.0206
 6624TIP3   OH219812   5.147   2.870   3.642 -0.0594  0.5643 -0.1418
 6624TIP3    H119813   5.207   2.847   3.571  1.4625  0.1285  1.2434
 6624TIP3    H219814   5.087   2.933   3.602 -0.7267 -1.3679 -2.4463
 6625TIP3   OH219815   7.197   7.732   1.648 -0.4403 -0.3320 -0.3445
 6625TIP3    H119816   7.256   7.665   1.615  2.3774  1.2044  1.2217
 6625TIP3    H219817   7.164   7.695   1.731  0.6932 -0.0632  0.2525
 6626TIP3   OH219818   2.840   3.455   0.455 -0.6048  0.6187 -0.0136
 6626TIP3    H119819   2.748   3.430   0.449 -0.6355  0.8609 -0.6147
 6626TIP3    H219820   2.888   3.379   0.424 -0.6578  0.9050 -0.8379
 6627TIP3   OH219821   6.526   6.948   4.579 -0.1943  0.2013  0.3369
 6627TIP3    H119822   6.578   7.004   4.522 -1.4366  1.3687  0.3095
 6627TIP3    H219823   6.439   6.945   4.538 -0.9403  0.5854  1.8281
 6628TIP3   OH219824   6.098   1.323   2.003  0.3085  0.3597  0.9071
 6628TIP3    H119825   6.058   1.362   1.926 -1.6653  0.1166  1.7490
 6628TIP3    H219826   6.131   1.398   2.053 -1.5984  0.8835  1.4964
 6629TIP3   OH219827   0.429   2.510   5.127  0.1397 -0.8537  0.4180
 6629TIP3    H119828   0.387   2.460   5.197  1.0121 -0.0902  1.5295
 6629TIP3    H219829   0.512   2.466   5.113  0.4481 -0.3602  0.6566
 6630TIP3   OH219830   4.119   4.542   4.174  0.2290 -0.3241  0.6050
 6630TIP3    H119831   4.174   4.465   4.184  1.1443  0.3132  0.5696
 6630TIP3    H219832   4.057   4.518   4.105  0.1146 -1.2359  1.0100
 6631TIP3   OH219833   7.479   0.175   5.384 -0.0699  0.2741  0.3622
 6631TIP3    H119834   7.471   0.252   5.440  0.3495 -0.6344  1.7087
 6631TIP3    H219835   7.433   0.106   5.431  0.7389 -0.6441 -0.1657
 6632TIP3   OH219836   4.204   6.242   5.986 -0.3343  0.1890 -0.9572
 6632TIP3    H119837   4.177   6.258   6.076 -3.0117  0.4366 -1.7381
 6632TIP3    H219838   4.286   6.193   5.994 -0.6485 -0.0304  1.5806
 6633TIP3   OH219839   5.840   4.567   2.668 -0.3467 -0.3002  0.4536
 6633TIP3    H119840   5.880   4.505   2.730  2.0324 -0.5649 -1.2070
 6633TIP3    H219841   5.887   4.649   2.683 -1.2386  0.2336  0.4175
 6634TIP3   OH219842   6.282   7.548   6.430 -0.9254  0.1642  0.6668
 6634TIP3    H119843   6.282   7.524   6.337  1.8563 -0.0521  0.6427
 6634TIP3    H219844   6.233   7.478   6.473 -0.0173 -1.1552 -0.3657
 6635TIP3   OH219845   5.590   0.975   1.011 -0.1658  0.3269 -0.1563
 6635TIP3    H119846   5.615   0.979   0.919  0.6031  0.0576  0.0349
 6635TIP3    H219847   5.522   1.042   1.020  2.4968  3.2220 -0.0758
 6636TIP3   OH219848   7.666   6.428   0.835  0.0663  0.3085 -0.3993
 6636TIP3    H119849   7.575   6.458   0.831 -0.0421 -0.0366 -0.5770
 6636TIP3    H219850   7.672   6.362   0.766  0.8404  1.3670 -1.3798
 6637TIP3   OH219851   4.780   2.667   0.494  0.0986 -0.2714 -0.1335
 6637TIP3    H119852   4.826   2.688   0.574  0.2198  1.2483 -0.5793
 6637TIP3    H219853   4.689   2.653   0.521  0.1504  0.1681  0.2730
 6638TIP3   OH219854   5.020   3.587   4.038 -0.0241  0.8015 -0.0798
 6638TIP3    H119855   4.954   3.541   4.090  1.1407  1.0205  1.6924
 6638TIP3    H219856   5.005   3.680   4.056  0.9779  0.8389  0.6756
 6639TIP3   OH219857   3.900   4.170   6.034 -0.5624  0.2853  0.1357
 6639TIP3    H119858   3.906   4.077   6.057 -0.6036  0.2388 -0.0368
 6639TIP3    H219859   3.807   4.185   6.018 -0.7009  0.6178  1.2166
 6640TIP3   OH219860   7.270   6.646   3.932  0.3854  0.1087  0.6936
 6640TIP3    H119861   7.174   6.654   3.933  0.3162 -0.6272  0.5634
 6640TIP3    H219862   7.301   6.728   3.970 -0.2445  1.0673 -0.7771
 6641TIP3   OH219863   1.051   6.227   5.108 -0.1455 -0.7110 -1.2452
 6641TIP3    H119864   1.076   6.170   5.180 -0.4176 -1.1830 -1.5227
 6641TIP3    H219865   1.130   6.234   5.054  0.4543  0.6752 -0.2365
 6642TIP3   OH219866   3.950   3.681   0.981  0.5402  0.1931 -1.1548
 6642TIP3    H119867   3.926   3.624   1.054  3.3031 -0.0695 -0.3166
 6642TIP3    H219868   3.900   3.648   0.907 -5.8645  3.0951  1.1842
 6643TIP3   OH219869   6.553   4.018   1.536  0.2100  0.5209  0.2574
 6643TIP3    H119870   6.506   4.098   1.561 -3.1169 -1.4231  0.8482
 6643TIP3    H219871   6.533   4.008   1.442 -0.5675 -0.2600  0.4888
 6644TIP3   OH219872   2.742   3.928   5.289  0.2364  0.0517  0.5241
 6644TIP3    H119873   2.838   3.924   5.289  0.2666  0.1353  2.2638
 6644TIP3    H219874   2.720   3.969   5.372 -1.2741  2.0435 -0.7756
 6645TIP3   OH219875   3.039   0.084   1.321  0.1351  0.5155  0.2659
 6645TIP3    H119876   3.040   0.009   1.261  0.8255  0.7307 -0.0024
 6645TIP3    H219877   2.998   0.050   1.400 -0.6231  0.1784 -0.2612
 6646TIP3   OH219878   8.180   1.546   3.493  0.0109 -0.4083 -0.3846
 6646TIP3    H119879   8.099   1.524   3.447  0.0832  0.1109 -0.7744
 6646TIP3    H219880   8.151   1.590   3.573 -0.0949 -0.3375 -0.4615
 6647TIP3   OH219881   5.922   6.613   2.498  0.1040 -0.2069  0.0862
 6647TIP3    H119882   5.918   6.548   2.568  0.8862 -0.3496  0.0048
 6647TIP3    H219883   5.850   6.589   2.440 -0.6009 -0.0375  0.8772
 6648TIP3   OH219884   0.788   1.618   1.781 -0.6425  0.1580  0.2357
 6648TIP3    H119885   0.800   1.682   1.711  3.4432 -0.6534 -0.0529
 6648TIP3    H219886   0.751   1.668   1.853 -1.4590  1.8623 -1.2800
 6649TIP3   OH219887   8.411   6.000   5.455 -0.0290 -0.4832 -0.1620
 6649TIP3    H119888   8.328   5.982   5.411 -0.5294  0.7260  0.2523
 6649TIP3    H219889   8.386   6.034   5.541  0.9145 -1.1956  0.4133
 6650TIP3   OH219890   5.558   3.979   4.171  0.5180 -0.0403 -0.3880
 6650TIP3    H119891   5.531   3.984   4.263  0.9857 -0.8753 -0.2001
 6650TIP3    H219892   5.652   3.998   4.172  0.5849 -0.3642 -0.6609
 6651TIP3   OH219893   5.824   3.076   0.414  0.4506  0.4910  0.0740
 6651TIP3    H119894   5.859   3.161   0.441  1.5131 -0.2447  1.1239
 6651TIP3    H219895   5.781   3.042   0.493  0.2701 -0.0535 -0.2542
 6652TIP3   OH219896   0.660   1.501   5.848 -0.6631 -0.2441 -0.1311
 6652TIP3    H119897   0.724   1.432   5.866 -1.1016 -0.6453 -0.0667
 6652TIP3    H219898   0.587   1.481   5.907 -1.5007 -0.7076 -1.2604
 6653TIP3   OH219899   5.453   3.040   5.146 -0.5086  0.0228 -0.0289
 6653TIP3    H119900   5.529   3.004   5.192 -3.1742 -1.7548  3.4196
 6653TIP3    H219901   5.476   3.132   5.129  3.0777 -0.9055 -1.0240
 6654TIP3   OH219902   1.037   2.896   0.999  0.2262  0.0258  0.6507
 6654TIP3    H119903   0.960   2.840   1.004 -0.1538  0.6200  1.7936
 6654TIP3    H219904   1.018   2.968   1.059  0.3768  1.7951 -1.2797
 6655TIP3   OH219905   2.386   0.360   2.769  0.1148  0.1634  0.3107
 6655TIP3    H119906   2.411   0.433   2.826 -0.1302 -0.5161  1.3054
 6655TIP3    H219907   2.469   0.330   2.731  0.5768 -0.7303  1.9575
 6656TIP3   OH219908   4.085   0.412   2.050 -0.7182 -0.2765  0.1533
 6656TIP3    H119909   4.122   0.338   2.001 -0.5827  0.4693 -0.8978
 6656TIP3    H219910   4.123   0.403   2.137  1.6177  0.1496 -0.7267
 6657TIP3   OH219911   1.509   7.425   0.472  0.1768  0.1292  0.3066
 6657TIP3    H119912   1.533   7.508   0.513 -0.2494  0.8018 -0.7728
 6657TIP3    H219913   1.418   7.411   0.498 -0.1336  0.6200 -0.4989
 6658TIP3   OH219914   8.303   1.785   4.184  0.1974 -0.1631 -0.1044
 6658TIP3    H119915   8.376   1.839   4.214  0.1449  0.4429 -1.0413
 6658TIP3    H219916   8.229   1.845   4.178 -0.0494 -0.4952 -0.4412
 6659TIP3   OH219917   2.762   2.047   2.999  0.5445 -0.0445 -0.4334
 6659TIP3    H119918   2.796   1.961   3.025 -1.4319 -0.4501  0.9726
 6659TIP3    H219919   2.818   2.109   3.046 -0.4384 -0.6915  1.7025
 6660TIP3   OH219920   2.450   4.123   6.208  0.0351 -0.2510 -0.0848
 6660TIP3    H119921   2.392   4.197   6.228  0.2315  0.8781 -3.0726
 6660TIP3    H219922   2.399   4.046   6.232 -1.3190  0.8030  0.5921
 6661TIP3   OH219923   2.709   0.686   2.397 -0.0223  0.9113 -0.2415
 6661TIP3    H119924   2.797   0.724   2.397  0.8292 -0.9346 -0.4743
 6661TIP3    H219925   2.724   0.593   2.382 -1.4982 -0.6440  5.4751
 6662TIP3   OH219926   1.558   0.977   3.079  0.2353 -0.2045 -0.7799
 6662TIP3    H119927   1.547   0.960   3.173  1.4921  1.0725 -0.3662
 6662TIP3    H219928   1.593   0.895   3.044  1.3890 -0.1679  0.2076
 6663TIP3   OH219929   2.842   1.447   2.119  0.4584  0.0089  0.0756
 6663TIP3    H119930   2.770   1.508   2.135 -0.1541 -0.5420 -0.5285
 6663TIP3    H219931   2.824   1.373   2.177  0.1621 -0.4288 -0.5661
 6664TIP3   OH219932   6.716   3.013   4.264  0.0518  0.1680 -0.4702
 6664TIP3    H119933   6.706   3.108   4.261  1.5371  0.3537 -0.7259
 6664TIP3    H219934   6.781   2.998   4.333  0.5999 -0.5681 -1.1272
 6665TIP3   OH219935   4.181   7.465   0.059 -0.1022 -0.5933 -0.2087
 6665TIP3    H119936   4.259   7.408   0.062  1.4724  1.4876  1.7437
 6665TIP3    H219937   4.216   7.553   0.068 -2.6957  0.4502  0.3288
 6666TIP3   OH219938   0.314   1.605   4.357  0.4426 -0.5434  0.3178
 6666TIP3    H119939   0.240   1.546   4.344 -0.0357  0.1968 -0.4528
 6666TIP3    H219940   0.287   1.686   4.315  1.9192 -0.4282 -0.4564
 6667TIP3   OH219941   1.417   2.042   2.866 -0.3240  0.5440 -0.0064
 6667TIP3    H119942   1.389   1.953   2.848  0.0108  0.0864  1.6076
 6667TIP3    H219943   1.450   2.074   2.782  3.4552 -2.3014  0.1326
 6668TIP3   OH219944   6.660   2.639   0.502  0.2474 -0.2317 -0.0516
 6668TIP3    H119945   6.601   2.606   0.434  2.1121 -1.4112 -1.1729
 6668TIP3    H219946   6.662   2.734   0.487 -0.3937 -0.3162 -0.7807
 6669TIP3   OH219947   5.146   6.937   1.131  0.0341  0.1201 -0.4306
 6669TIP3    H119948   5.087   6.867   1.159 -0.4934 -0.1368 -2.0757
 6669TIP3    H219949   5.103   7.017   1.161 -0.5055 -0.1380 -0.4984
 6670TIP3   OH219950   7.029   1.778   5.114 -0.0178 -0.4180  0.2225
 6670TIP3    H119951   7.053   1.800   5.024  1.4064 -0.4720  0.5665
 6670TIP3    H219952   7.021   1.862   5.158 -0.6916 -0.3923  0.0617
 6671TIP3   OH219953   5.410   4.373   4.205 -0.2604 -0.0702 -0.4967
 6671TIP3    H119954   5.419   4.340   4.116 -2.2799 -2.3331  0.0607
 6671TIP3    H219955   5.319   4.401   4.211 -0.3431 -0.6082  1.0478
 6672TIP3   OH219956   6.810   1.490   6.235 -0.1230  0.3973  0.0526
 6672TIP3    H119957   6.872   1.451   6.174  1.0000  3.0552 -0.6336
 6672TIP3    H219958   6.849   1.475   6.321  1.1785  1.4420 -0.3237
 6673TIP3   OH219959   6.448   3.374   0.312 -0.1277 -0.1358 -0.3031
 6673TIP3    H119960   6.396   3.334   0.382  1.9533 -1.6966  0.4640
 6673TIP3    H219961   6.513   3.427   0.359  0.2366  0.1707 -1.1385
 6674TIP3   OH219962   4.149   6.694   3.509 -0.4022 -0.4763 -0.0084
 6674TIP3    H119963   4.127   6.752   3.582  0.5334 -1.2432  0.9073
 6674TIP3    H219964   4.141   6.606   3.546 -0.4375 -0.8943 -0.9937
 6675TIP3   OH219965   0.477   4.916   0.567  0.4049 -0.0110  0.2541
 6675TIP3    H119966   0.563   4.923   0.609 -0.1925 -0.6795  1.6529
 6675TIP3    H219967   0.428   4.991   0.601  0.1841 -0.0778  0.0840
 6676TIP3   OH219968   4.721   6.809   0.251 -0.4863 -0.2200  0.5625
 6676TIP3    H119969   4.804   6.763   0.268 -1.3251 -1.8015  0.5330
 6676TIP3    H219970   4.655   6.740   0.250 -2.1650  1.1848  2.8149
 6677TIP3   OH219971   5.032   7.516   0.721 -0.2775 -0.0480  0.7696
 6677TIP3    H119972   5.101   7.553   0.777 -0.3473  3.9937 -1.4068
 6677TIP3    H219973   4.963   7.490   0.783  0.8969  1.2449  2.7469
 6678TIP3   OH219974   5.930   1.787   5.184 -0.3254  0.2541 -0.0005
 6678TIP3    H119975   6.025   1.797   5.172 -0.1144 -1.9276 -0.6787
 6678TIP3    H219976   5.904   1.863   5.235  1.9682  0.4196  1.0394
 6679TIP3   OH219977   6.142   7.851   5.767 -0.0569 -0.5083  0.1800
 6679TIP3    H119978   6.217   7.803   5.732  0.2371  0.5456 -0.6794
 6679TIP3    H219979   6.076   7.847   5.697  0.1857  0.8066 -0.1550
 6680TIP3   OH219980   3.371   6.048   2.494  0.5189 -0.3560  0.2170
 6680TIP3    H119981   3.435   6.007   2.552  0.8205  0.3966  0.4209
 6680TIP3    H219982   3.391   6.141   2.497 -0.6726 -0.0914  0.3835
 6681TIP3   OH219983   1.526   0.027   4.857  0.5031 -0.3243 -0.2824
 6681TIP3    H119984   1.511   0.117   4.827  0.5919  0.2247  1.2504
 6681TIP3    H219985   1.621   0.016   4.852  0.5973  0.0495  0.5282
 6682TIP3   OH219986   1.146   4.066   1.233  0.2308 -0.1158 -0.0145
 6682TIP3    H119987   1.236   4.036   1.216  0.4948  0.6337  0.0278
 6682TIP3    H219988   1.156   4.158   1.257 -0.5243 -0.1202  0.3170
 6683TIP3   OH219989   3.030   4.550   2.537 -0.6059  0.0657  0.0772
 6683TIP3    H119990   2.956   4.567   2.596  0.0052 -3.8119  2.3283
 6683TIP3    H219991   3.107   4.563   2.591  0.3459  1.7846 -1.5889
 6684TIP3   OH219992   1.412   3.871   2.521  0.1150 -0.3119 -0.4096
 6684TIP3    H119993   1.337   3.890   2.463  1.1269  0.1853 -1.6177
 6684TIP3    H219994   1.400   3.780   2.547 -1.0605 -0.1556 -0.3619
 6685TIP3   OH219995   6.246   5.575   1.021 -0.0472  0.1954  0.9026
 6685TIP3    H119996   6.262   5.665   1.048  2.0352 -0.0473  0.6618
 6685TIP3    H219997   6.315   5.557   0.956 -2.1109 -0.6768 -1.2034
 6686TIP3   OH219998   5.648   7.566   6.365  0.4706  0.7224  0.7054
 6686TIP3    H119999   5.569   7.596   6.410 -1.0174 -0.4384 -0.9723
 6686TIP3    H220000   5.670   7.637   6.304  0.2890  0.7562  0.6783
 6687TIP3   OH220001   5.431   4.732   1.329  0.0133 -0.2274  0.1268
 6687TIP3    H120002   5.437   4.685   1.412  1.0090 -0.1467  0.1054
 6687TIP3    H220003   5.402   4.665   1.266  0.8145 -0.6703  0.2231
 6688TIP3   OH220004   0.486   4.642   6.306 -0.2373 -0.2643  0.3472
 6688TIP3    H120005   0.479   4.705   6.234  0.9415 -0.3521  0.1311
 6688TIP3    H220006   0.403   4.649   6.352 -0.0950  1.5513  0.4092
 6689TIP3   OH220007   2.999   4.705   3.449 -0.2110 -0.0438  0.4778
 6689TIP3    H120008   2.947   4.756   3.511 -1.4083  1.6119 -1.7349
 6689TIP3    H220009   3.039   4.770   3.392 -0.3558 -1.4940 -1.3732
 6690TIP3   OH220010   3.351   0.552   0.194 -0.4509 -0.0727 -0.6213
 6690TIP3    H120011   3.329   0.600   0.115  1.4485 -0.1821 -1.2662
 6690TIP3    H220012   3.274   0.498   0.212 -1.4678  1.0148 -1.5517
 6691TIP3   OH220013   3.732   6.584   5.142 -0.1646 -0.4644  0.2436
 6691TIP3    H120014   3.800   6.538   5.092 -1.0809 -0.8756 -0.6510
 6691TIP3    H220015   3.714   6.528   5.217  0.6314 -0.2429  0.6129
 6692TIP3   OH220016   4.457   6.979   4.007  0.9592 -0.1114  0.1312
 6692TIP3    H120017   4.466   7.074   3.997  2.0935 -0.1509  0.6293
 6692TIP3    H220018   4.468   6.963   4.101  0.7963 -0.7440  0.0506
 6693TIP3   OH220019   0.779   4.760   5.346  0.1100 -0.6437 -0.3306
 6693TIP3    H120020   0.838   4.831   5.369 -0.6544  0.5808 -1.8944
 6693TIP3    H220021   0.836   4.689   5.318  0.8838 -0.0487 -0.3046
 6694TIP3   OH220022   4.503   7.382   5.461  0.4575 -0.2607  0.2956
 6694TIP3    H120023   4.567   7.445   5.430 -2.7385  2.7600 -0.8753
 6694TIP3    H220024   4.447   7.365   5.386 -0.4274 -2.4497  1.3379
 6695TIP3   OH220025   8.267   3.104   4.562  0.2647 -0.1964  0.4893
 6695TIP3    H120026   8.228   3.026   4.522  0.3837 -0.7570  1.4599
 6695TIP3    H220027   8.192   3.162   4.578  0.3271  0.5424 -1.5788
 6696TIP3   OH220028   0.525   1.815   3.197  0.3002  0.2416  0.0850
 6696TIP3    H120029   0.479   1.844   3.118  0.9849 -0.2219 -0.4910
 6696TIP3    H220030   0.596   1.760   3.165  0.0205 -0.7258  1.0723
 6697TIP3   OH220031   4.258   3.953   3.703 -0.4736 -0.1560  0.1150
 6697TIP3    H120032   4.162   3.956   3.704 -0.4744 -0.1732  0.0806
 6697TIP3    H220033   4.279   3.861   3.722 -0.4738 -0.2397 -0.2683
 6698TIP3   OH220034   0.192   0.374   3.817  0.5152  0.3714 -0.3036
 6698TIP3    H120035   0.153   0.381   3.905  1.8820  0.4961  0.3154
 6698TIP3    H220036   0.140   0.306   3.774 -0.8463  1.0340  0.2231
 6699TIP3   OH220037   0.687   0.868   6.680 -0.2839 -0.2959  0.0881
 6699TIP3    H120038   0.664   0.802   6.745  3.0920 -2.8690 -1.0249
 6699TIP3    H220039   0.632   0.848   6.604 -0.0538 -1.1540  0.1431
 6700TIP3   OH220040   5.717   5.578   6.343 -0.2296 -0.4733  0.2967
 6700TIP3    H120041   5.725   5.504   6.283  0.2317 -1.5627  1.6521
 6700TIP3    H220042   5.802   5.622   6.338  0.0444 -0.9519  0.6257
 6701TIP3   OH220043   4.843   2.966   4.666  0.4560 -0.1893 -0.1719
 6701TIP3    H120044   4.919   3.022   4.649  0.3601  0.2617  0.7941
 6701TIP3    H220045   4.879   2.877   4.669  0.7188 -0.1147 -1.0715
 6702TIP3   OH220046   5.615   3.180   3.086 -0.4703 -0.1721  0.1650
 6702TIP3    H120047   5.671   3.258   3.095 -1.3097  0.7143 -1.7013
 6702TIP3    H220048   5.670   3.117   3.040  0.0406 -0.5359  1.2302
 6703TIP3   OH220049   1.407   5.897   3.437  0.0979  0.6851  0.0638
 6703TIP3    H120050   1.445   5.817   3.402 -3.0801 -0.1652 -1.8601
 6703TIP3    H220051   1.396   5.880   3.531 -0.0905 -0.9543 -0.2434
 6704TIP3   OH220052   7.803   7.740   3.946 -0.1166  0.3061  0.2309
 6704TIP3    H120053   7.743   7.806   3.981 -0.6553 -0.1795  0.2380
 6704TIP3    H220054   7.803   7.671   4.013 -1.3267 -0.7375 -0.7928
 6705TIP3   OH220055   0.365   7.675   5.993  0.5890  0.5814 -0.5363
 6705TIP3    H120056   0.390   7.756   5.948  0.5964  0.5517 -0.5855
 6705TIP3    H220057   0.369   7.608   5.925 -0.1750  0.6710 -0.6845
 6706TIP3   OH220058   6.562   6.503   4.919  0.1315  0.0055 -0.5912
 6706TIP3    H120059   6.551   6.429   4.859  2.4316 -0.4400 -0.5654
 6706TIP3    H220060   6.549   6.581   4.865  0.7098 -0.4044 -1.3303
 6707TIP3   OH220061   3.692   6.135   3.848  0.0759 -0.3777  0.1152
 6707TIP3    H120062   3.671   6.226   3.869  4.9630  0.7709  1.3405
 6707TIP3    H220063   3.683   6.130   3.753 -1.4044  0.9742  0.1469
 6708TIP3   OH220064   4.434   2.817   2.663 -0.1324 -0.7203  0.6271
 6708TIP3    H120065   4.439   2.873   2.741  1.6409  0.2445 -0.1147
 6708TIP3    H220066   4.522   2.820   2.627 -1.1010 -0.4782 -1.8790
 6709TIP3   OH220067   0.163   4.358   6.359 -0.2346  0.5437 -0.4946
 6709TIP3    H120068   0.090   4.357   6.297  0.7364 -0.1267 -1.6723
 6709TIP3    H220069   0.223   4.292   6.326  1.3719  1.7601 -0.1034
 6710TIP3   OH220070   5.359   6.162   5.895  0.3779 -0.5604 -0.0147
 6710TIP3    H120071   5.439   6.153   5.843  0.9417  2.4812  0.1425
 6710TIP3    H220072   5.289   6.166   5.830  0.8719  1.2672 -0.4815
 6711TIP3   OH220073   5.286   1.220   3.046  0.3011 -0.1076 -0.5458
 6711TIP3    H120074   5.374   1.247   3.021  1.1082 -1.2290  0.9430
 6711TIP3    H220075   5.237   1.302   3.052  1.4914  0.6210 -0.4444
 6712TIP3   OH220076   7.051   0.562   4.728  0.8394 -0.2530 -0.4188
 6712TIP3    H120077   7.117   0.630   4.718  1.3226 -0.6340  0.1051
 6712TIP3    H220078   7.007   0.558   4.643 -0.3476  1.8752  0.0475
 6713TIP3   OH220079   4.194   6.447   0.834 -0.3136  0.1546  0.4385
 6713TIP3    H120080   4.256   6.446   0.907  0.5576 -2.1222 -0.2340
 6713TIP3    H220081   4.117   6.400   0.866 -0.8323  1.0729  0.5711
 6714TIP3   OH220082   2.088   2.181   6.653  0.3947  0.0355  0.0335
 6714TIP3    H120083   2.060   2.181   6.561  0.5867  0.4729 -0.0263
 6714TIP3    H220084   2.169   2.232   6.654 -0.3213  1.2265  0.6512
 6715TIP3   OH220085   7.376   2.613   3.989  0.1900  0.2199 -0.2644
 6715TIP3    H120086   7.313   2.542   3.984  1.9385 -1.4289 -0.1463
 6715TIP3    H220087   7.403   2.615   4.081  1.8393 -0.5501 -0.7031
 6716TIP3   OH220088   6.766   7.772   1.422  0.2317 -0.1441 -0.4301
 6716TIP3    H120089   6.856   7.804   1.432  0.0689 -0.0275  0.8216
 6716TIP3    H220090   6.734   7.764   1.511 -0.7374 -0.9706 -0.8387
 6717TIP3   OH220091   8.069   2.962   6.317  0.4729 -0.6406 -0.7934
 6717TIP3    H120092   7.977   2.943   6.295  0.2289  0.2120 -0.5320
 6717TIP3    H220093   8.068   2.970   6.412  0.9425 -1.2226 -0.7341
 6718TIP3   OH220094   4.053   0.994   1.592 -0.6316 -0.3250  0.7460
 6718TIP3    H120095   3.965   1.023   1.615 -0.0798  0.7747  1.6269
 6718TIP3    H220096   4.106   1.016   1.669  0.7494  0.6975 -0.4214
 6719TIP3   OH220097   6.377   1.207   5.763  0.3789  0.4836  0.1183
 6719TIP3    H120098   6.362   1.129   5.711  0.4355 -0.1235  0.9868
 6719TIP3    H220099   6.458   1.245   5.728 -0.6412  1.2315 -1.5586
 6720TIP3   OH220100   5.956   1.163   0.213  0.7873  1.1230  0.1970
 6720TIP3    H120101   5.914   1.175   0.128  1.1010 -1.4058 -0.3917
 6720TIP3    H220102   5.884   1.146   0.274  0.6829  1.1115  0.0702
 6721TIP3   OH220103   1.609   6.598   2.889  0.1796  0.0044  0.4928
 6721TIP3    H120104   1.599   6.658   2.815  0.4332  0.0275  0.4744
 6721TIP3    H220105   1.521   6.589   2.926 -0.1136 -0.7175 -0.3601
 6722TIP3   OH220106   1.587   5.911   0.739 -0.5822 -0.2049  0.2594
 6722TIP3    H120107   1.681   5.912   0.753 -0.7365 -0.8192  1.4443
 6722TIP3    H220108   1.554   5.981   0.796 -0.8707 -0.0946 -0.0355
 6723TIP3   OH220109   5.179   1.916   0.312  0.2086 -0.3637  0.0054
 6723TIP3    H120110   5.118   1.969   0.260  1.1964 -0.0222 -0.8491
 6723TIP3    H220111   5.124   1.871   0.376 -0.7830  0.9006  0.0829
 6724TIP3   OH220112   0.980   4.516   2.856  0.0924 -0.1489  0.0720
 6724TIP3    H120113   1.036   4.442   2.832  0.8785  0.0762  1.1135
 6724TIP3    H220114   0.905   4.510   2.798  1.2109 -0.4423 -1.4134
 6725TIP3   OH220115   7.587   7.683   0.746  0.1623 -0.6769 -0.0605
 6725TIP3    H120116   7.592   7.757   0.686 -2.4543 -0.9033 -0.6860
 6725TIP3    H220117   7.530   7.714   0.817  1.3175 -1.1976  1.1367
 6726TIP3   OH220118   1.964   1.189   5.153 -0.0150  0.5588 -0.1446
 6726TIP3    H120119   2.023   1.177   5.079 -1.1581  0.2957 -1.0499
 6726TIP3    H220120   1.887   1.137   5.131 -1.7797  3.0797 -0.3402
 6727TIP3   OH220121  -0.027   2.365   1.256  0.1656 -0.8703  0.7979
 6727TIP3    H120122   0.003   2.288   1.209 -1.2882 -0.8464 -0.2392
 6727TIP3    H220123   0.044   2.429   1.246  1.0949 -1.8277  1.1036
 6728TIP3   OH220124   4.810   4.889   5.679 -0.0298  0.1905 -0.2942
 6728TIP3    H120125   4.794   4.959   5.742  1.3928 -0.9025  1.3676
 6728TIP3    H220126   4.724   4.852   5.662 -0.3740 -0.0907  1.7861
 6729TIP3   OH220127   4.706   7.176   2.513  0.2237 -1.2219 -0.0544
 6729TIP3    H120128   4.664   7.106   2.563  0.5749 -2.7837 -1.8416
 6729TIP3    H220129   4.773   7.132   2.462  2.4613  0.8744  0.9095
 6730TIP3   OH220130   1.202   6.495   0.512  0.0792  0.0023 -0.5318
 6730TIP3    H120131   1.154   6.537   0.440  2.0434 -1.1727 -2.6520
 6730TIP3    H220132   1.149   6.419   0.535 -1.3733  1.2525  0.4326
 6731TIP3   OH220133   7.603   1.616   6.622 -0.0429  0.2311 -0.0638
 6731TIP3    H120134   7.544   1.595   6.694 -2.6723  1.1686 -1.7940
 6731TIP3    H220135   7.612   1.533   6.574 -2.4796  0.6696 -1.4335
 6732TIP3   OH220136   3.700   6.012   2.855 -0.7065  0.0137 -0.2898
 6732TIP3    H120137   3.665   6.099   2.836 -0.3926 -0.2246 -2.1477
 6732TIP3    H220138   3.624   5.963   2.887 -0.9385  0.8830  0.5509
 6733TIP3   OH220139   6.446   0.113   2.628  0.3083 -0.7499 -0.0181
 6733TIP3    H120140   6.420   0.057   2.555 -1.8159  1.2521 -0.9604
 6733TIP3    H220141   6.528   0.153   2.601 -0.1578 -0.4862 -1.1124
 6734TIP3   OH220142   8.402   3.855   1.354  0.1167  0.2067  0.2773
 6734TIP3    H120143   8.327   3.866   1.296  0.0381  1.2979  0.5707
 6734TIP3    H220144   8.391   3.922   1.422  1.1842  0.1715  0.5077
 6735TIP3   OH220145   5.645   4.605   0.861 -0.2089  0.1111 -0.5917
 6735TIP3    H120146   5.657   4.510   0.865 -0.7054 -0.0365 -2.0325
 6735TIP3    H220147   5.714   4.636   0.802 -1.4102  0.3505 -1.9000
 6736TIP3   OH220148   7.353   6.447   4.230  0.3741  0.2146  0.0819
 6736TIP3    H120149   7.350   6.427   4.136  0.9469 -1.3701  0.3678
 6736TIP3    H220150   7.419   6.515   4.238 -1.3194  2.0898 -0.8990
 6737TIP3   OH220151   1.267   1.866   1.757 -0.0588  0.0599 -0.3198
 6737TIP3    H120152   1.249   1.827   1.671 -1.5491 -0.3632  0.1533
 6737TIP3    H220153   1.244   1.796   1.819  1.6236  0.1232  0.4254
 6738TIP3   OH220154   5.534   0.440   3.812 -0.2777  0.3463 -0.4238
 6738TIP3    H120155   5.546   0.486   3.729  0.3330  0.1838 -0.4268
 6738TIP3    H220156   5.439   0.431   3.820 -0.4518  2.1504 -0.1251
 6739TIP3   OH220157   2.777   1.337   5.599  0.0117 -0.3423 -0.2292
 6739TIP3    H120158   2.730   1.323   5.516  0.7852 -0.6609 -0.6231
 6739TIP3    H220159   2.869   1.330   5.575  0.2686  0.4206  0.5078
 6740TIP3   OH220160   5.212   2.800   5.288 -0.0182 -0.1735 -0.3594
 6740TIP3    H120161   5.298   2.773   5.320 -0.7225 -1.1901  0.7810
 6740TIP3    H220162   5.227   2.825   5.197  1.9140  1.9988  0.4597
 6741TIP3   OH220163   1.026   3.375   2.005  0.0525 -0.6007 -0.5577
 6741TIP3    H120164   1.097   3.379   2.070 -1.9842  1.6627  1.7375
 6741TIP3    H220165   1.036   3.455   1.954  0.5992 -1.5260 -1.9560
 6742TIP3   OH220166   2.967   6.660   4.493  0.0934  0.5691 -0.4175
 6742TIP3    H120167   2.983   6.674   4.586 -0.7688  0.4331 -0.2407
 6742TIP3    H220168   3.053   6.636   4.457 -0.0559 -2.2802  0.8782
 6743TIP3   OH220169   5.212   2.237   3.010 -0.1898  0.2635 -1.2580
 6743TIP3    H120170   5.303   2.218   3.035 -0.6014  2.0057  2.1396
 6743TIP3    H220171   5.220   2.302   2.940  1.1980  1.0459 -0.4206
 6744TIP3   OH220172   7.536   6.550   5.755 -0.5654 -0.0161 -0.3115
 6744TIP3    H120173   7.557   6.459   5.732  1.0857 -0.1857  1.5702
 6744TIP3    H220174   7.543   6.598   5.673  1.3709 -1.1458 -0.8808
 6745TIP3   OH220175   2.508   5.474   1.443  0.1923 -0.1299 -0.3413
 6745TIP3    H120176   2.523   5.419   1.520  1.4500  1.6837  0.7947
 6745TIP3    H220177   2.415   5.465   1.424 -0.3016 -0.0997  1.8451
 6746TIP3   OH220178   5.145   1.522   6.610 -0.2366  0.5219  0.4999
 6746TIP3    H120179   5.096   1.563   6.539 -0.7868 -1.0304 -0.0585
 6746TIP3    H220180   5.230   1.564   6.609  0.6780 -1.1038 -2.7270
 6747TIP3   OH220181   6.590   2.912   2.317  0.1310 -0.3332  0.7425
 6747TIP3    H120182   6.654   2.983   2.312 -1.5359  1.3406  1.7406
 6747TIP3    H220183   6.524   2.935   2.252 -1.1111 -0.1986  2.0067
 6748TIP3   OH220184   5.523   1.989   1.019  0.6920 -0.7371 -0.2526
 6748TIP3    H120185   5.581   2.033   1.081  0.8427  0.5089 -1.2331
 6748TIP3    H220186   5.489   1.914   1.068  0.4909  0.4051  1.4844
 6749TIP3   OH220187   0.877   6.351   4.857  0.0759  0.3510  0.1130
 6749TIP3    H120188   0.846   6.404   4.930  0.6197 -1.0510  1.4005
 6749TIP3    H220189   0.970   6.337   4.874  0.1961 -0.0722 -0.8061
 6750TIP3   OH220190   6.847   5.528   5.773 -0.0634  0.0852 -0.5255
 6750TIP3    H120191   6.850   5.499   5.864 -0.0140  0.5261 -0.3870
 6750TIP3    H220192   6.913   5.475   5.728  1.1210  1.0444  0.0272
 6751TIP3   OH220193   4.723   0.724   1.911 -1.0843  0.1812 -0.1220
 6751TIP3    H120194   4.733   0.630   1.891 -1.3103  0.3719 -1.1831
 6751TIP3    H220195   4.795   0.766   1.864 -1.9777  0.7090 -1.0382
 6752TIP3   OH220196   6.372   7.206   0.672 -0.0506  0.0033 -0.2802
 6752TIP3    H120197   6.329   7.204   0.587  1.1382  0.7579 -0.9273
 6752TIP3    H220198   6.404   7.296   0.681  0.7118 -0.3292  0.5050
 6753TIP3   OH220199   1.548   6.455   2.465  0.4251  0.1260  0.0874
 6753TIP3    H120200   1.638   6.447   2.435  0.0615  0.6406 -1.2092
 6753TIP3    H220201   1.521   6.366   2.485  0.4802 -0.3527 -1.8008
 6754TIP3   OH220202   1.388   1.137   1.424  0.2629 -0.2625 -0.4087
 6754TIP3    H120203   1.319   1.175   1.370  0.4072 -0.1531 -0.5195
 6754TIP3    H220204   1.406   1.204   1.490  0.7156 -0.0094 -0.7768
 6755TIP3   OH220205   0.625   1.929   5.101  0.5738 -0.0950  0.6735
 6755TIP3    H120206   0.610   1.835   5.099 -1.3952  0.1747  0.5104
 6755TIP3    H220207   0.697   1.943   5.039  0.3537 -1.3974  0.0901
 6756TIP3   OH220208   4.140   7.656   0.392 -0.0289 -0.2650  0.2406
 6756TIP3    H120209   4.205   7.675   0.460 -0.2542  0.0717  0.3611
 6756TIP3    H220210   4.065   7.710   0.414 -0.4899 -0.9141  0.3046
 6757TIP3   OH220211   5.951   1.567   1.764  0.2794 -0.0935  0.5540
 6757TIP3    H120212   5.908   1.614   1.836  1.6982  0.4523  1.0796
 6757TIP3    H220213   6.030   1.618   1.747 -0.0805 -0.1437 -1.4950
 6758TIP3   OH220214   6.084   7.130   4.543 -0.2968  0.2225 -0.4368
 6758TIP3    H120215   6.174   7.155   4.524  0.0092 -0.1931  0.4320
 6758TIP3    H220216   6.031   7.190   4.489  0.4629  1.3747  0.0581
 6759TIP3   OH220217   7.296   5.794   4.002 -0.1434  0.2803  0.4384
 6759TIP3    H120218   7.227   5.832   4.057  1.4181  0.6055  2.3069
 6759TIP3    H220219   7.329   5.721   4.053  0.0192 -0.7066 -1.0424
 6760TIP3   OH220220   7.157   2.918   6.719  0.0020  0.0339  0.0266
 6760TIP3    H120221   7.167   2.862   6.796  0.0726 -0.1160 -0.0920
 6760TIP3    H220222   7.191   3.003   6.747  2.1671 -0.5995 -0.5452
 6761TIP3   OH220223   7.151   0.377   4.369  0.2538  0.0254  0.1075
 6761TIP3    H120224   7.158   0.282   4.360  2.7784  0.2728 -1.5756
 6761TIP3    H220225   7.198   0.397   4.450 -0.7793 -0.1773  0.7715
 6762TIP3   OH220226   3.041   4.313   1.543  0.0104  0.1255  0.5456
 6762TIP3    H120227   3.022   4.228   1.503 -0.7059 -0.0559  1.2498
 6762TIP3    H220228   2.963   4.365   1.527 -0.5229 -0.1245  2.1363
 6763TIP3   OH220229   3.417   5.165   3.229  0.3237  0.6178 -0.3888
 6763TIP3    H120230   3.427   5.070   3.219  0.6782  0.6340 -0.2110
 6763TIP3    H220231   3.491   5.202   3.181 -0.3726  0.8502 -1.3175
 6764TIP3   OH220232   4.851   7.902   0.573  0.2044 -0.1860  0.4365
 6764TIP3    H120233   4.928   7.930   0.525 -0.6013 -0.9210 -1.3810
 6764TIP3    H220234   4.884   7.837   0.635  0.9281 -1.4906 -1.2263
 6765TIP3   OH220235   7.644   1.338   1.451 -0.2749  0.3706 -0.3525
 6765TIP3    H120236   7.553   1.313   1.466  0.1972 -1.4989 -0.3409
 6765TIP3    H220237   7.660   1.409   1.514 -1.3724 -0.0968  0.4989
 6766TIP3   OH220238   7.031   0.917   4.718 -0.5933 -0.0375 -0.2335
 6766TIP3    H120239   6.946   0.945   4.685 -0.5630  1.2560  0.7357
 6766TIP3    H220240   7.095   0.964   4.665 -0.5065  0.1189  0.0078
 6767TIP3   OH220241   0.462   2.410   1.667 -0.1486 -0.2878  0.3497
 6767TIP3    H120242   0.444   2.502   1.651  0.2114 -0.2590  0.1013
 6767TIP3    H220243   0.535   2.389   1.609  1.0576 -0.2238  1.7766
 6768TIP3   OH220244   5.446   2.795   0.009 -0.3407 -0.1985  0.2702
 6768TIP3    H120245   5.458   2.795   0.104  1.6594  2.5694  0.1215
 6768TIP3    H220246   5.514   2.736  -0.023  2.3560  2.5633  0.4255
 6769TIP3   OH220247   1.372   5.443   3.971  0.3684 -0.1717  0.1724
 6769TIP3    H120248   1.408   5.419   4.056  0.5447 -2.1203 -0.4014
 6769TIP3    H220249   1.277   5.441   3.984  0.3968 -0.1156  0.3968
 6770TIP3   OH220250   3.952   7.546   6.306 -0.6527 -0.1277 -0.3111
 6770TIP3    H120251   3.926   7.601   6.380 -1.8845 -1.1446  0.0403
 6770TIP3    H220252   3.983   7.465   6.347  0.7865  0.1226 -0.8358
 6771TIP3   OH220253   5.804   5.568   5.713 -0.3624 -0.5806  0.2038
 6771TIP3    H120254   5.863   5.531   5.779 -0.8692 -0.6544  0.6179
 6771TIP3    H220255   5.755   5.635   5.760 -0.2106 -0.1246 -0.2826
 6772TIP3   OH220256   7.005   7.209   0.886 -0.2801 -0.0810  0.0036
 6772TIP3    H120257   6.986   7.294   0.846 -0.0655 -0.3341 -0.6492
 6772TIP3    H220258   7.091   7.221   0.927 -0.8121  0.3873  1.0097
 6773TIP3   OH220259   3.334   5.972   4.158  0.2355 -0.1629 -0.1983
 6773TIP3    H120260   3.278   5.913   4.108  0.4891  1.0355 -2.0011
 6773TIP3    H220261   3.418   5.971   4.111  1.2252 -0.6781  1.5066
 6774TIP3   OH220262   6.437   2.746   5.394 -0.7160 -0.4517  0.1673
 6774TIP3    H120263   6.525   2.712   5.406 -1.4030 -1.7500  2.0249
 6774TIP3    H220264   6.449   2.840   5.380  1.0417 -0.8763 -1.7972
 6775TIP3   OH220265   5.717   1.302   1.005 -0.2326 -0.1221 -0.5186
 6775TIP3    H120266   5.659   1.284   1.079 -1.5851  0.9600 -1.2666
 6775TIP3    H220267   5.798   1.256   1.026 -0.1053  1.1673  2.2374
 6776TIP3   OH220268   8.119   4.782   0.339 -0.4331 -0.4377  0.6174
 6776TIP3    H120269   8.081   4.834   0.268 -0.0858  0.2614  0.9268
 6776TIP3    H220270   8.116   4.841   0.415 -0.2236 -0.9520  1.0287
 6777TIP3   OH220271   2.266   3.610   2.249 -0.1308 -0.2158 -0.2346
 6777TIP3    H120272   2.331   3.679   2.241 -1.1057  0.4993 -3.6189
 6777TIP3    H220273   2.199   3.646   2.307  0.8432  0.3730  0.5607
 6778TIP3   OH220274   1.006   3.570   3.659 -0.3426  0.5920 -0.8971
 6778TIP3    H120275   0.958   3.489   3.643  0.5716 -0.1256 -0.1312
 6778TIP3    H220276   1.096   3.542   3.675 -0.3997  1.5677  1.4622
 6779TIP3   OH220277   7.901   2.140   4.888 -0.1158 -0.0883 -0.0627
 6779TIP3    H120278   7.826   2.094   4.926 -0.2751  0.4593  0.3000
 6779TIP3    H220279   7.978   2.095   4.924 -0.2497  0.8599  1.5124
 6780TIP3   OH220280   3.091   5.226   5.260 -0.7054 -0.1277 -0.3684
 6780TIP3    H120281   3.057   5.212   5.349 -0.0227  0.7836  0.0639
 6780TIP3    H220282   3.022   5.194   5.202 -1.7907  0.5979  0.4808
 6781TIP3   OH220283   0.317   0.686   0.952  0.3949 -0.2492 -0.4786
 6781TIP3    H120284   0.369   0.699   1.031  1.7049 -0.4910 -1.2795
 6781TIP3    H220285   0.380   0.659   0.885 -0.9062 -1.6165 -1.2164
 6782TIP3   OH220286   3.532   0.996   0.584  0.1974 -0.2363  1.1340
 6782TIP3    H120287   3.443   0.980   0.617 -0.2816 -0.5791 -0.2571
 6782TIP3    H220288   3.519   1.034   0.497  1.4183  1.0541  1.4902
 6783TIP3   OH220289   1.842   3.928   0.828 -0.1382 -0.0563  0.0071
 6783TIP3    H120290   1.761   3.978   0.832  0.3161  0.6553  0.5714
 6783TIP3    H220291   1.825   3.850   0.882 -0.0167  0.7529  1.2654
 6784TIP3   OH220292   4.326   1.332   2.810  0.3521  0.1646 -0.3927
 6784TIP3    H120293   4.238   1.347   2.845  0.0470  0.7302 -1.3730
 6784TIP3    H220294   4.378   1.404   2.846  0.0210  0.7908 -1.1458
 6785TIP3   OH220295   4.677   4.261   1.729  0.5228  0.1218  0.3806
 6785TIP3    H120296   4.625   4.319   1.784  0.1798 -1.2057  1.5122
 6785TIP3    H220297   4.644   4.275   1.641 -0.0562  1.0798  0.7358
 6786TIP3   OH220298   4.380   3.668   5.878 -0.3141  0.2685 -0.0956
 6786TIP3    H120299   4.339   3.673   5.964  0.4734  0.4065  0.2855
 6786TIP3    H220300   4.316   3.625   5.822 -1.5249  1.7164  0.1285
 6787TIP3   OH220301   3.923   4.545   1.724 -0.2520  0.0248  0.0007
 6787TIP3    H120302   3.969   4.539   1.640  2.5828 -0.6038  1.4524
 6787TIP3    H220303   3.850   4.484   1.716 -0.0915  0.0320 -2.0009
 6788TIP3   OH220304   7.703   3.766   1.457  0.0749 -0.3035  0.4721
 6788TIP3    H120305   7.629   3.806   1.503  0.0381 -0.0028  0.1555
 6788TIP3    H220306   7.703   3.675   1.486 -0.5424 -0.3535  0.3259
 6789TIP3   OH220307   4.733   6.526   2.050  0.3716 -0.1135  0.0283
 6789TIP3    H120308   4.821   6.561   2.066  0.2734 -0.4045  1.2805
 6789TIP3    H220309   4.679   6.562   2.120 -0.0649 -1.5168  0.4531
 6790TIP3   OH220310   3.230   0.774   3.439 -0.5716 -0.2349 -0.1922
 6790TIP3    H120311   3.234   0.836   3.366  2.0069  2.4770  2.0049
 6790TIP3    H220312   3.153   0.801   3.489 -1.3270 -0.9694 -0.9288
 6791TIP3   OH220313   4.566   6.699   6.490 -0.2770 -0.4450 -0.2686
 6791TIP3    H120314   4.569   6.607   6.514 -0.1799  0.0768  1.8787
 6791TIP3    H220315   4.475   6.725   6.506 -0.1462 -0.0038 -0.2222
 6792TIP3   OH220316   4.115   3.003   1.630  0.7319 -0.2245 -0.4223
 6792TIP3    H120317   4.043   2.962   1.582  0.3940 -1.9182  1.3950
 6792TIP3    H220318   4.154   2.931   1.680  1.9533  1.1709  0.7265
 6793TIP3   OH220319   8.113   6.778   6.356  0.3448 -0.6153  0.5793
 6793TIP3    H120320   8.183   6.781   6.420 -0.1765  0.4641  1.1272
 6793TIP3    H220321   8.139   6.842   6.289  0.3383 -0.8970  0.3071
 6794TIP3   OH220322   3.264   3.263   0.382 -0.0164 -0.1121  0.2316
 6794TIP3    H120323   3.233   3.227   0.299  0.1776  0.9186 -0.3122
 6794TIP3    H220324   3.276   3.357   0.364 -0.3664  0.2059  1.5389
 6795TIP3   OH220325   4.235   4.227   2.722 -0.2701 -0.3315 -0.3397
 6795TIP3    H120326   4.178   4.296   2.756  1.4742  1.3991 -0.7585
 6795TIP3    H220327   4.176   4.153   2.706 -2.5465  1.6107 -1.5638
 6796TIP3   OH220328   5.939   4.960   5.188  0.8241  0.2411  0.0621
 6796TIP3    H120329   5.966   5.041   5.144  0.3163  0.9525  1.0171
 6796TIP3    H220330   5.887   4.990   5.262 -2.4624 -1.0376 -1.5628
 6797TIP3   OH220331   1.804   1.564   1.171 -0.2612  0.2042  0.0457
 6797TIP3    H120332   1.825   1.655   1.151  0.3152 -0.5435 -3.3124
 6797TIP3    H220333   1.726   1.570   1.227 -0.7565  2.7340 -0.7792
 6798TIP3   OH220334   3.592   5.007   6.512 -0.3484  0.4797  0.3437
 6798TIP3    H120335   3.613   5.100   6.501  0.5001  0.2154 -0.4598
 6798TIP3    H220336   3.519   5.006   6.574  0.2199  1.6247  1.0773
 6799TIP3   OH220337   2.456   3.978   1.639  0.3499 -0.0257 -0.0049
 6799TIP3    H120338   2.428   3.941   1.555 -1.2540  0.6627  0.1792
 6799TIP3    H220339   2.545   3.945   1.652  0.0111 -1.5053 -1.1688
 6800TIP3   OH220340   5.830   3.711   6.248  0.1283 -0.2216 -0.3949
 6800TIP3    H120341   5.806   3.638   6.191 -2.6945  0.0591  0.2701
 6800TIP3    H220342   5.890   3.673   6.311  0.1542 -1.5153 -1.1611
 6801TIP3   OH220343   1.603   0.391   6.227 -0.4377 -0.5070  0.5391
 6801TIP3    H120344   1.640   0.435   6.150 -0.0907  0.3408  1.1683
 6801TIP3    H220345   1.648   0.432   6.302 -0.9917 -1.0871  1.2056
 6802TIP3   OH220346   8.362   5.096   0.224 -0.3900 -0.5034  0.1787
 6802TIP3    H120347   8.373   5.027   0.158  0.3975 -2.6171  2.3947
 6802TIP3    H220348   8.340   5.049   0.304  0.9825  1.7893  1.9992
 6803TIP3   OH220349   3.581   1.033   5.277  0.3455 -0.1218  0.2251
 6803TIP3    H120350   3.631   0.963   5.317  3.9225  2.7101  1.2945
 6803TIP3    H220351   3.640   1.070   5.211 -0.8655  2.5230  0.4704
 6804TIP3   OH220352   2.703   4.437   3.872  0.3827 -0.0127 -0.5535
 6804TIP3    H120353   2.741   4.448   3.786 -2.0846  2.2100 -1.5176
 6804TIP3    H220354   2.735   4.512   3.923 -1.2907  0.9801 -0.8857
 6805TIP3   OH220355   7.324   1.490   5.229  0.6143  0.0559  0.1455
 6805TIP3    H120356   7.386   1.419   5.244  0.2528 -0.6698 -1.5188
 6805TIP3    H220357   7.285   1.507   5.314  2.6651  0.1526  1.1294
 6806TIP3   OH220358   0.544   6.415   4.597  0.4402  0.3488 -0.0899
 6806TIP3    H120359   0.555   6.510   4.585 -0.7190  0.3072 -1.9491
 6806TIP3    H220360   0.633   6.380   4.595  0.7965  1.2383 -1.3659
 6807TIP3   OH220361   7.702   1.009   2.835  0.4374 -0.0526 -0.3973
 6807TIP3    H120362   7.668   1.094   2.861 -1.0593 -0.6815 -0.2229
 6807TIP3    H220363   7.641   0.945   2.872  0.3014 -1.1237 -2.3115
 6808TIP3   OH220364   3.274   6.271   2.200 -0.1977 -0.1970  0.0368
 6808TIP3    H120365   3.182   6.266   2.172 -0.4219 -0.3693  0.7579
 6808TIP3    H220366   3.277   6.351   2.254 -0.3361 -1.0623  1.3880
 6809TIP3   OH220367   4.645   4.684   5.842  0.5384 -0.1983 -0.6093
 6809TIP3    H120368   4.706   4.707   5.912  2.1961  1.8270 -2.5672
 6809TIP3    H220369   4.685   4.609   5.799  0.2394 -0.5606 -0.2628
 6810TIP3   OH220370   5.383   3.257   1.618 -1.2142  0.0485  0.2807
 6810TIP3    H120371   5.312   3.274   1.556  1.2459  1.4865 -2.3425
 6810TIP3    H220372   5.442   3.331   1.608  1.1651 -1.5463  1.6183
 6811TIP3   OH220373   2.028   1.818   2.714 -0.2539 -0.1335  0.0161
 6811TIP3    H120374   1.959   1.808   2.649 -0.3166  1.5259 -0.2288
 6811TIP3    H220375   2.070   1.901   2.691  0.5757 -0.1685  1.3115
 6812TIP3   OH220376   3.815   3.896   3.962  0.1686 -0.0509  0.0234
 6812TIP3    H120377   3.819   3.871   3.869  1.1635 -0.7227  0.2243
 6812TIP3    H220378   3.902   3.932   3.980 -0.1151  0.3405  0.6194
 6813TIP3   OH220379   6.278   7.665   1.007  0.0479  0.0381 -0.5025
 6813TIP3    H120380   6.288   7.613   0.927 -2.1975 -0.2505 -0.6604
 6813TIP3    H220381   6.345   7.631   1.066  1.2369 -0.2736 -1.9672
 6814TIP3   OH220382   5.910   7.167   3.331 -0.3607  0.3574 -0.3178
 6814TIP3    H120383   5.955   7.108   3.392  1.2839  2.1944  0.3585
 6814TIP3    H220384   5.819   7.167   3.360  0.2244  0.5335  1.6302
 6815TIP3   OH220385   3.863   7.563   3.263  0.3810  0.4317 -0.7208
 6815TIP3    H120386   3.903   7.476   3.269 -0.5928  0.0187  0.2553
 6815TIP3    H220387   3.920   7.619   3.316  0.3511  0.1126 -0.3442
 6816TIP3   OH220388   6.455   4.579   6.342 -0.5117 -0.6003  0.4160
 6816TIP3    H120389   6.494   4.536   6.419 -0.8201 -1.9917 -0.1674
 6816TIP3    H220390   6.506   4.546   6.268  0.7587  1.8631  0.0751
 6817TIP3   OH220391   5.022   6.971   3.729  0.2588 -0.4581 -0.3024
 6817TIP3    H120392   4.938   7.017   3.737 -0.2016 -1.3439  0.1114
 6817TIP3    H220393   5.063   6.983   3.814  1.3815  1.4812 -1.0487
 6818TIP3   OH220394   3.503   6.259   1.520  0.7277  0.4291 -0.1868
 6818TIP3    H120395   3.532   6.350   1.517 -1.8997  1.3268 -1.1241
 6818TIP3    H220396   3.512   6.234   1.612  0.0170  2.1862  0.3856
 6819TIP3   OH220397   5.749   2.464   0.689 -0.2291  0.2315  0.1599
 6819TIP3    H120398   5.674   2.520   0.713  0.5973  1.0847  0.8218
 6819TIP3    H220399   5.747   2.393   0.753  0.1003  0.7890  0.7977
 6820TIP3   OH220400   2.016   4.971   6.171 -0.4948 -0.0643  0.2817
 6820TIP3    H120401   2.079   4.902   6.193  1.7487  2.0291  0.8800
 6820TIP3    H220402   2.000   4.959   6.077  0.5219 -0.8514  0.1881
 6821TIP3   OH220403   5.820   5.149   5.378  0.7368 -0.8037  0.1581
 6821TIP3    H120404   5.791   5.197   5.300  1.7464  1.6633  1.2135
 6821TIP3    H220405   5.744   5.096   5.403 -0.6970  0.7352 -0.7148
 6822TIP3   OH220406   2.967   7.373   0.691  0.0700  0.1397  0.9258
 6822TIP3    H120407   3.006   7.298   0.644 -1.7456 -0.2864 -0.0062
 6822TIP3    H220408   3.018   7.448   0.661 -0.6934 -0.1858 -1.4279
 6823TIP3   OH220409   8.279   7.149   2.239 -0.5725 -0.5440  0.1074
 6823TIP3    H120410   8.347   7.180   2.180 -0.8645 -2.4414 -1.3320
 6823TIP3    H220411   8.258   7.224   2.294  2.5217  0.1519  0.4940
 6824TIP3   OH220412   6.931   3.265   3.780  0.3694  0.3913 -0.4844
 6824TIP3    H120413   6.983   3.185   3.777 -0.2059  0.0029 -0.2325
 6824TIP3    H220414   6.893   3.272   3.692  1.1475  0.8798 -0.7846
 6825TIP3   OH220415   3.309   2.385   4.480  0.1072 -0.0700  0.0139
 6825TIP3    H120416   3.349   2.453   4.534  0.2593  0.5992 -0.9173
 6825TIP3    H220417   3.260   2.433   4.413  1.3523 -0.8393 -1.5058
 6826TIP3   OH220418   0.886   1.357   4.130 -0.2879 -0.2966 -0.3145
 6826TIP3    H120419   0.948   1.427   4.110 -0.0409 -0.3784  0.1583
 6826TIP3    H220420   0.918   1.281   4.082  0.2690 -0.4783  0.3452
 6827TIP3   OH220421   7.602   4.595   4.644  0.0019  0.2728  0.1216
 6827TIP3    H120422   7.510   4.566   4.647 -0.5501  1.6406 -1.5407
 6827TIP3    H220423   7.651   4.523   4.682 -1.6391 -1.1571 -0.3264
 6828TIP3   OH220424   1.589   7.294   6.370  0.6508  0.0288  0.3598
 6828TIP3    H120425   1.609   7.258   6.284  2.1541  0.3811  0.5364
 6828TIP3    H220426   1.645   7.372   6.377  1.5238 -0.7092  2.1640
 6829TIP3   OH220427   5.970   0.770   2.346  0.6161 -0.3545  0.1055
 6829TIP3    H120428   5.888   0.769   2.296  0.7874  0.8884 -0.2342
 6829TIP3    H220429   6.011   0.685   2.326 -1.2018 -1.6049  1.3879
 6830TIP3   OH220430   1.401   7.909   3.209 -0.1143 -0.3752 -0.2238
 6830TIP3    H120431   1.330   7.846   3.193  0.6194 -1.7970  1.7626
 6830TIP3    H220432   1.424   7.941   3.122 -2.5572 -0.5434 -1.0239
 6831TIP3   OH220433   7.356   4.678   5.164 -0.0359  0.5838  0.0934
 6831TIP3    H120434   7.304   4.607   5.127  0.3571 -0.5369  1.6286
 6831TIP3    H220435   7.437   4.637   5.192  1.2972  2.1025 -1.2441
 6832TIP3   OH220436   2.982   3.754   2.801 -0.9390 -0.0451 -0.0601
 6832TIP3    H120437   2.892   3.724   2.817 -1.5615  1.7988  0.1014
 6832TIP3    H220438   2.990   3.757   2.706 -0.6539 -1.2357 -0.0961
 6833TIP3   OH220439   4.200   2.081   2.013 -0.5080 -0.1640  0.3801
 6833TIP3    H120440   4.139   2.047   1.947 -1.4918  0.6930  0.8355
 6833TIP3    H220441   4.154   2.154   2.054  0.7086  0.3147  0.9484
 6834TIP3   OH220442   7.858   5.110   3.991 -0.0507  0.1490 -0.4270
 6834TIP3    H120443   7.815   5.098   4.075  0.0263  1.0296 -0.2518
 6834TIP3    H220444   7.949   5.131   4.013  0.4437 -1.4690 -0.7862
 6835TIP3   OH220445   7.049   3.966   0.508  0.2594  0.3089  0.4413
 6835TIP3    H120446   7.110   4.037   0.524  1.3094 -0.4920  0.1090
 6835TIP3    H220447   7.032   3.970   0.413 -1.4552  1.4910  0.7579
 6836TIP3   OH220448   0.327   2.565   6.135 -0.1535  0.0858 -0.4739
 6836TIP3    H120449   0.297   2.567   6.226 -1.8995  0.4937 -1.0096
 6836TIP3    H220450   0.293   2.482   6.102  0.1727  0.1028 -0.8458
 6837TIP3   OH220451   5.970   7.823   4.339  0.1264  0.7990  0.1123
 6837TIP3    H120452   5.982   7.737   4.298  0.4800  1.7270 -1.8445
 6837TIP3    H220453   5.887   7.815   4.387  1.3065 -1.3260  2.0037
 6838TIP3   OH220454   0.056   7.204   2.053 -0.8111  0.0243  0.0965
 6838TIP3    H120455   0.108   7.126   2.071  1.0380  1.5234  1.5809
 6838TIP3    H220456   0.105   7.251   1.986 -2.4136 -0.4754 -1.5204
 6839TIP3   OH220457   3.090   6.949   3.298 -0.7454 -0.0851 -0.3849
 6839TIP3    H120458   3.006   6.913   3.328  0.3860 -0.6413  2.4435
 6839TIP3    H220459   3.069   6.992   3.215 -3.4265 -1.8523 -0.7653
 6840TIP3   OH220460   4.758   3.266   3.413  0.2714 -0.3217  0.0362
 6840TIP3    H120461   4.827   3.327   3.388 -0.4842  0.7538  0.5435
 6840TIP3    H220462   4.798   3.211   3.481  1.0522 -0.6252 -0.6496
 6841TIP3   OH220463   5.723   4.251   2.384  0.0066  0.8980 -0.2331
 6841TIP3    H120464   5.805   4.211   2.415 -0.6061  0.2621  0.5980
 6841TIP3    H220465   5.681   4.182   2.334 -0.9501  0.5599  1.0094
 6842TIP3   OH220466   4.030   2.603   2.560  0.6679 -0.3679 -0.0598
 6842TIP3    H120467   3.999   2.574   2.646  0.8372  0.1571  0.1818
 6842TIP3    H220468   4.029   2.699   2.565 -0.5651 -0.3045 -1.0909
 6843TIP3   OH220469   8.181   1.364   6.602  0.1850 -0.8304 -0.0153
 6843TIP3    H120470   8.146   1.311   6.673 -0.6737  0.5514  0.6538
 6843TIP3    H220471   8.276   1.361   6.613  0.0701 -0.8670  1.0253
 6844TIP3   OH220472   0.155   0.114   1.399 -0.0406  0.0112 -0.6251
 6844TIP3    H120473   0.233   0.142   1.447 -0.6564  0.0847  0.3535
 6844TIP3    H220474   0.174   0.024   1.373 -0.3871 -0.6786  1.3191
 6845TIP3   OH220475   6.351   6.143   5.443  0.2469  0.4011 -0.4870
 6845TIP3    H120476   6.266   6.103   5.465  0.9066 -0.2296  1.0839
 6845TIP3    H220477   6.398   6.146   5.526  2.0157  0.1362 -1.4239
 6846TIP3   OH220478   0.821   4.437   3.254  0.0514 -0.1742 -0.3018
 6846TIP3    H120479   0.867   4.467   3.175 -0.7501  0.2545 -0.6167
 6846TIP3    H220480   0.891   4.426   3.319  0.6984 -0.3268 -1.0054
 6847TIP3   OH220481   0.345   0.369   5.252  0.5436  0.1289  0.0627
 6847TIP3    H120482   0.415   0.304   5.248 -0.4557 -1.0139  0.5859
 6847TIP3    H220483   0.370   0.427   5.323  1.2237  0.0671 -0.1187
 6848TIP3   OH220484   3.449   1.518   5.715  0.4093 -0.2349 -0.3301
 6848TIP3    H120485   3.421   1.550   5.801  0.4046 -0.0365 -0.4046
 6848TIP3    H220486   3.530   1.566   5.697  0.1271  0.1184 -0.6738
 6849TIP3   OH220487   2.726   3.614   5.649  0.0934  0.0922  0.5807
 6849TIP3    H120488   2.808   3.664   5.652 -0.0375  0.3304  3.9770
 6849TIP3    H220489   2.754   3.522   5.646  0.3563  0.1793 -1.5412
 6850TIP3   OH220490   0.503   4.207   0.330 -0.0238  0.1959  0.0066
 6850TIP3    H120491   0.531   4.121   0.300  2.7010  1.1954 -0.5766
 6850TIP3    H220492   0.523   4.208   0.424 -2.9814 -0.8040  0.7708
 6851TIP3   OH220493   3.791   4.547   5.400  0.2398  0.1711  0.1935
 6851TIP3    H120494   3.876   4.539   5.442 -0.0385 -0.2219  0.6980
 6851TIP3    H220495   3.728   4.522   5.469 -0.3216  1.1416  0.0442
 6852TIP3   OH220496   3.563   6.158   0.893  0.0406  0.7455  0.5625
 6852TIP3    H120497   3.512   6.079   0.875 -0.8329  1.8141 -2.1050
 6852TIP3    H220498   3.650   6.139   0.858 -0.2578  1.0600 -0.3627
 6853TIP3   OH220499   0.584   7.560   2.292 -0.1657 -0.5448  0.5026
 6853TIP3    H120500   0.627   7.495   2.236 -1.3148 -1.4589  0.6309
 6853TIP3    H220501   0.653   7.621   2.316  0.7239 -1.1321 -0.4880
 6854TIP3   OH220502   6.046   5.892   2.417  0.4977  0.0954 -0.4004
 6854TIP3    H120503   5.957   5.859   2.407  0.0798  0.6278  1.2016
 6854TIP3    H220504   6.096   5.816   2.447  0.2271  0.1434  0.2010
 6855TIP3   OH220505   7.137   3.063   6.468 -0.0896  0.0817  0.1482
 6855TIP3    H120506   7.064   3.123   6.480 -0.4022 -0.6241  2.1016
 6855TIP3    H220507   7.141   3.013   6.550  0.3412 -2.3495 -1.2654
 6856TIP3   OH220508   8.023   7.835   1.875  0.4585  0.6062 -0.0286
 6856TIP3    H120509   8.115   7.835   1.850  0.8304 -1.5171  1.0203
 6856TIP3    H220510   8.013   7.910   1.933  1.8203  0.2709  0.6753
 6857TIP3   OH220511   4.705   0.631   2.203  0.3264 -0.2163 -0.4307
 6857TIP3    H120512   4.618   0.594   2.192  0.1607 -0.1002  0.4382
 6857TIP3    H220513   4.714   0.693   2.130 -0.4325 -0.0019 -0.3488
 6858TIP3   OH220514   2.922   2.700   4.178 -0.4150  0.0820  0.8231
 6858TIP3    H120515   3.012   2.706   4.146  0.0262 -0.6303  1.8487
 6858TIP3    H220516   2.870   2.674   4.102  0.5944 -1.5796  0.6465
 6859TIP3   OH220517   6.796   5.967   2.911 -0.5849 -0.0082  0.4365
 6859TIP3    H120518   6.748   5.996   2.989 -0.6121 -1.5538  1.0273
 6859TIP3    H220519   6.777   5.874   2.904 -0.9737  0.1663 -1.7297
 6860TIP3   OH220520   3.254   0.673   5.352  0.0493  0.0884  0.2097
 6860TIP3    H120521   3.270   0.599   5.410  1.6141 -0.2445 -0.5706
 6860TIP3    H220522   3.168   0.705   5.376 -0.3119 -1.4796  1.1248
 6861TIP3   OH220523   2.117   2.800   1.708 -0.0338  0.1870 -0.0102
 6861TIP3    H120524   2.029   2.767   1.725 -0.1119 -0.3906 -1.3600
 6861TIP3    H220525   2.117   2.822   1.614  1.6215 -1.0776 -0.3661
 6862TIP3   OH220526   4.836   6.714   1.014  0.4715 -0.4443  0.3150
 6862TIP3    H120527   4.899   6.740   0.947  0.5279 -1.9412 -0.2451
 6862TIP3    H220528   4.861   6.624   1.037 -0.0984 -0.2721  1.7007
 6863TIP3   OH220529   7.004   2.652   3.929  0.5032  0.4218 -0.3490
 6863TIP3    H120530   7.022   2.595   4.003  3.1466  0.1464 -1.1119
 6863TIP3    H220531   6.988   2.592   3.856  2.6815  0.5430 -1.0130
 6864TIP3   OH220532   1.898   7.882   3.277 -0.8709  0.5242 -0.4526
 6864TIP3    H120533   1.837   7.948   3.243 -1.1871  0.3768 -0.1799
 6864TIP3    H220534   1.859   7.854   3.360 -0.7531 -0.0235 -0.5772
 6865TIP3   OH220535   2.211   0.701   3.500 -0.0526  0.3667 -0.7981
 6865TIP3    H120536   2.227   0.671   3.410 -1.5210 -1.3261 -0.5599
 6865TIP3    H220537   2.161   0.630   3.539 -1.4781  2.1067  0.6584
 6866TIP3   OH220538   4.331   7.752   6.453 -0.2307 -0.0132  0.1515
 6866TIP3    H120539   4.341   7.837   6.408  0.6120 -0.8747 -1.3600
 6866TIP3    H220540   4.290   7.696   6.388  1.6082 -1.4939  0.2108
 6867TIP3   OH220541   2.118   6.113   4.711 -0.6692  0.5039  0.0510
 6867TIP3    H120542   2.114   6.181   4.645 -0.1321  0.6813  0.1934
 6867TIP3    H220543   2.053   6.138   4.777 -0.1381  1.1411  0.3426
 6868TIP3   OH220544   5.881   0.248   2.447  0.3170 -0.0632  0.3373
 6868TIP3    H120545   5.895   0.191   2.522  1.2286 -2.4352 -1.5040
 6868TIP3    H220546   5.938   0.324   2.463  0.9104 -0.7854  1.7718
 6869TIP3   OH220547   4.222   0.640   5.256 -0.6312 -0.0067 -0.5741
 6869TIP3    H120548   4.312   0.612   5.273 -1.0714 -1.1883 -0.0623
 6869TIP3    H220549   4.202   0.700   5.328 -0.7981 -1.0513  0.2723
 6870TIP3   OH220550   7.496   4.162   6.685 -0.0340  0.0964  0.6707
 6870TIP3    H120551   7.583   4.122   6.684 -0.1481 -0.1547  0.7119
 6870TIP3    H220552   7.475   4.169   6.778  0.3569  1.0708  0.6962
 6871TIP3   OH220553   3.190   0.506   5.597 -0.2285 -0.4156  0.3283
 6871TIP3    H120554   3.172   0.559   5.675 -2.1209  0.0862 -0.3883
 6871TIP3    H220555   3.198   0.417   5.629 -0.6219 -0.1655  1.1372
 6872TIP3   OH220556   6.445   3.377   2.693 -0.1734 -0.1253 -0.5996
 6872TIP3    H120557   6.483   3.357   2.608  0.8768  0.2013 -0.2234
 6872TIP3    H220558   6.430   3.291   2.734 -0.1466 -0.2654 -0.8836
 6873TIP3   OH220559   0.864   5.361   3.232 -0.3786 -0.5021 -0.5249
 6873TIP3    H120560   0.802   5.355   3.304 -1.6007 -1.0512 -1.5780
 6873TIP3    H220561   0.847   5.283   3.178 -0.2800  0.4466 -1.9963
 6874TIP3   OH220562   7.991   6.461   6.800  0.1987 -0.5093  0.1467
 6874TIP3    H120563   7.963   6.547   6.769  1.0084 -0.6080 -0.8951
 6874TIP3    H220564   8.043   6.479   6.878 -0.0021 -0.0898  0.1856
 6875TIP3   OH220565   2.211   2.450   3.758 -0.0912 -0.4612 -0.3935
 6875TIP3    H120566   2.252   2.491   3.834 -1.0984 -1.8748  0.9805
 6875TIP3    H220567   2.236   2.358   3.764 -2.1379 -1.0592 -0.3742
 6876TIP3   OH220568   7.606   0.570   3.864 -0.1496 -0.1482 -0.1815
 6876TIP3    H120569   7.682   0.549   3.918 -0.7169  0.0002  0.7078
 6876TIP3    H220570   7.531   0.561   3.924 -0.8911 -0.9280 -1.2008
 6877TIP3   OH220571   3.507   6.793   2.573  0.0356 -0.0741 -0.1989
 6877TIP3    H120572   3.564   6.864   2.601  0.0220 -0.3241  0.4943
 6877TIP3    H220573   3.483   6.748   2.654  0.2145 -1.0009 -0.6447
 6878TIP3   OH220574   6.391   3.552   3.464 -0.1607 -0.1126  0.4194
 6878TIP3    H120575   6.482   3.547   3.495  0.5880 -1.2987 -1.7262
 6878TIP3    H220576   6.390   3.497   3.385 -2.2002  1.6418 -0.8862
 6879TIP3   OH220577   5.180   7.362   0.522  0.3715  0.0801  0.5449
 6879TIP3    H120578   5.172   7.277   0.563 -0.7432  0.3000  0.8231
 6879TIP3    H220579   5.268   7.363   0.484  0.5866 -0.9756  0.9949
 6880TIP3   OH220580   2.008   7.280   2.771  0.3891 -0.4890 -0.3180
 6880TIP3    H120581   2.082   7.315   2.722  1.0910 -2.7882 -1.0291
 6880TIP3    H220582   2.020   7.185   2.768 -1.4064 -0.8361  1.4432
 6881TIP3   OH220583   6.466   5.349   2.352  0.4648 -0.5655 -0.3822
 6881TIP3    H120584   6.431   5.283   2.292 -1.6092  0.7089 -0.6780
 6881TIP3    H220585   6.462   5.431   2.303  1.1768  0.1076  0.6310
 6882TIP3   OH220586   6.941   7.713   2.009 -0.2383  0.5221 -0.0076
 6882TIP3    H120587   6.911   7.623   2.024  0.7307  0.0921 -0.5522
 6882TIP3    H220588   6.866   7.767   2.033 -0.9221 -0.4409  0.1141
 6883TIP3   OH220589   3.521   6.226   3.192  0.7065  0.0596 -0.1608
 6883TIP3    H120590   3.435   6.185   3.197  1.3725 -1.3733  0.2516
 6883TIP3    H220591   3.531   6.271   3.276  0.4893 -0.0415 -0.0812
 6884TIP3   OH220592   5.908   0.755   3.529  0.3019 -0.1908 -0.0064
 6884TIP3    H120593   5.946   0.675   3.566  3.5688  0.2871 -1.9210
 6884TIP3    H220594   5.952   0.826   3.574 -1.3285  0.5385  0.4812
 6885TIP3   OH220595   1.765   0.829   1.540 -0.3896  0.0549  0.1583
 6885TIP3    H120596   1.673   0.856   1.535 -0.2484  0.6357  0.6636
 6885TIP3    H220597   1.766   0.762   1.609 -0.4117  0.1220  0.2234
 6886TIP3   OH220598   7.744   5.336   3.101 -0.5223 -0.3108 -0.0714
 6886TIP3    H120599   7.693   5.327   3.182  0.2705  0.0571  0.4702
 6886TIP3    H220600   7.826   5.376   3.128  0.8997 -2.6755 -0.6067
 6887TIP3   OH220601   7.297   5.494   2.379 -0.0268 -0.6305  0.5128
 6887TIP3    H120602   7.257   5.431   2.439 -0.1514 -0.2263  0.8592
 6887TIP3    H220603   7.358   5.545   2.433 -1.2634  0.7686  0.6648
 6888TIP3   OH220604   7.837   4.260   5.810 -0.0047 -0.3285 -0.6475
 6888TIP3    H120605   7.810   4.205   5.882  3.0998 -0.9755  0.1829
 6888TIP3    H220606   7.826   4.350   5.842 -1.0586 -0.5467 -0.3801
 6889TIP3   OH220607   4.432   7.031   4.823 -0.0010 -0.5527  0.1400
 6889TIP3    H120608   4.504   7.060   4.766 -0.3627 -1.3108 -0.7277
 6889TIP3    H220609   4.368   6.993   4.763 -0.5149 -1.1356  1.0388
 6890TIP3   OH220610   4.059   2.247   0.113  0.4573  0.1967  0.0006
 6890TIP3    H120611   4.133   2.202   0.073 -0.0430 -1.2791  0.6715
 6890TIP3    H220612   4.038   2.317   0.052  2.4418  0.6999 -0.1597
 6891TIP3   OH220613   5.714   3.040   2.871 -0.0936 -0.2979  0.5727
 6891TIP3    H120614   5.793   3.077   2.832 -1.2968  2.5898  0.6231
 6891TIP3    H220615   5.678   2.983   2.803 -0.5553  2.2916 -1.5393
 6892TIP3   OH220616   0.894   0.814   6.514 -0.3333 -0.1730 -0.5024
 6892TIP3    H120617   0.968   0.780   6.564 -0.0754 -0.6907 -1.2241
 6892TIP3    H220618   0.830   0.840   6.581  0.4642  0.2196  0.1249
 6893TIP3   OH220619   7.875   7.168   5.500 -0.1868 -0.1361  0.2692
 6893TIP3    H120620   7.927   7.224   5.441  2.7522 -2.8182  0.0760
 6893TIP3    H220621   7.813   7.124   5.442 -0.7409  0.9358  0.0214
 6894TIP3   OH220622   0.811   1.615   5.214 -0.3966 -0.0455  0.4477
 6894TIP3    H120623   0.855   1.538   5.248  0.5183  0.0483 -0.4714
 6894TIP3    H220624   0.780   1.588   5.127  0.5526  0.8142 -0.1805
 6895TIP3   OH220625   4.451   0.034   1.248 -0.0028 -0.2951  0.0747
 6895TIP3    H120626   4.408  -0.051   1.252 -0.2012 -0.1577  1.7164
 6895TIP3    H220627   4.426   0.077   1.330  2.0581  0.3655  0.4211
 6896TIP3   OH220628   5.007   4.958   0.102  0.4646 -0.4790 -0.3538
 6896TIP3    H120629   5.024   5.012   0.025 -1.1340  2.5477  1.2340
 6896TIP3    H220630   4.917   4.926   0.091 -0.8996  2.3722  1.3873
 6897TIP3   OH220631   6.017   0.232   2.143  0.3580 -0.1546  0.3426
 6897TIP3    H120632   5.955   0.168   2.178  0.6151 -0.4670  0.2344
 6897TIP3    H220633   5.966   0.282   2.079  0.3772 -0.8302 -0.2184
 6898TIP3   OH220634   1.013   7.292   1.270 -0.2928  0.2516  0.3427
 6898TIP3    H120635   0.962   7.257   1.343  0.9028  0.1097  1.1561
 6898TIP3    H220636   1.027   7.384   1.293 -2.1610  0.9172 -1.0504
 6899TIP3   OH220637   1.870   4.992   5.672 -0.1494  0.4796  0.6007
 6899TIP3    H120638   1.928   4.935   5.621  0.9019  0.7834  1.4128
 6899TIP3    H220639   1.813   4.931   5.720 -0.3523  0.1688 -0.0297
 6900TIP3   OH220640   5.423   4.250   6.553 -0.4598  0.1534  0.7253
 6900TIP3    H120641   5.453   4.160   6.566  1.7223  0.4524 -1.4334
 6900TIP3    H220642   5.374   4.247   6.471 -0.6232  0.8636  0.7873
 6901TIP3   OH220643   4.438   6.806   5.456 -0.1527  0.1727 -0.2219
 6901TIP3    H120644   4.491   6.728   5.475 -0.0353  0.0825 -0.9152
 6901TIP3    H220645   4.350   6.783   5.487 -0.1746 -0.3264 -0.6419
 6902TIP3   OH220646   4.374   4.863   5.245 -0.1629  0.0830  0.1478
 6902TIP3    H120647   4.282   4.878   5.270 -0.5221 -2.8405  1.0065
 6902TIP3    H220648   4.370   4.844   5.151 -0.3785  0.4058  0.0900
 6903TIP3   OH220649   7.949   1.888   5.301 -0.0926  0.0011 -0.5633
 6903TIP3    H120650   8.039   1.865   5.323 -0.3228  0.3181  0.7823
 6903TIP3    H220651   7.941   1.869   5.207  0.6128 -2.4523 -0.1989
 6904TIP3   OH220652   2.304   5.513   3.883 -0.2113 -0.4748  0.0720
 6904TIP3    H120653   2.255   5.460   3.821  0.1852 -1.0333  0.2218
 6904TIP3    H220654   2.371   5.556   3.830 -1.2295  0.7882 -0.2386
 6905TIP3   OH220655   3.498   5.155   2.949  0.1031  0.3349 -0.1041
 6905TIP3    H120656   3.464   5.080   2.998 -1.3389 -0.0227 -1.5717
 6905TIP3    H220657   3.561   5.117   2.887  0.4541  0.5268  0.1337
 6906TIP3   OH220658   1.386   7.854   1.471  0.3335 -0.3021  0.0512
 6906TIP3    H120659   1.388   7.949   1.455  0.0971 -0.1984  0.6384
 6906TIP3    H220660   1.295   7.829   1.456  0.3464 -0.3989  0.1370
 6907TIP3   OH220661   7.957   7.725   5.915  0.3069  0.0199  0.6025
 6907TIP3    H120662   7.905   7.789   5.964 -0.6877 -0.0776 -0.3143
 6907TIP3    H220663   7.908   7.644   5.920 -0.7919  0.4174 -2.0597
 6908TIP3   OH220664   1.310   6.022   3.872 -0.3076  0.1212  0.0170
 6908TIP3    H120665   1.356   6.073   3.806 -2.4330  0.6359 -1.1416
 6908TIP3    H220666   1.336   5.931   3.854  2.1949  0.5215  1.0553
 6909TIP3   OH220667   3.778   6.688   3.505 -0.4925  0.0276 -0.1220
 6909TIP3    H120668   3.768   6.607   3.554 -1.8320 -0.2924 -0.8676
 6909TIP3    H220669   3.688   6.721   3.494  0.1033  2.8092  2.0614
 6910TIP3   OH220670   1.318   0.483   3.850  0.1259 -0.1301  0.3687
 6910TIP3    H120671   1.374   0.438   3.787  2.0086  0.3610  1.5878
 6910TIP3    H220672   1.295   0.566   3.807  1.6209  0.3269  0.3911
 6911TIP3   OH220673   6.128   6.301   1.194  0.6521 -0.8828  0.0958
 6911TIP3    H120674   6.083   6.336   1.117  0.8550  2.9377  1.5116
 6911TIP3    H220675   6.219   6.330   1.183  0.6775 -0.2497  1.7435
 6912TIP3   OH220676   4.215   7.095   3.627 -0.4461 -0.5943  0.3457
 6912TIP3    H120677   4.195   7.175   3.676 -0.7616 -0.8170  0.5843
 6912TIP3    H220678   4.158   7.098   3.551  1.0750  0.4767 -0.8009
 6913TIP3   OH220679   0.909   6.785   2.835 -0.0410 -0.1898  0.2892
 6913TIP3    H120680   0.828   6.831   2.815  0.8930  0.6189 -2.0352
 6913TIP3    H220681   0.967   6.853   2.871  0.4411 -0.1362 -0.5599
 6914TIP3   OH220682   3.850   3.092   1.256 -0.3519 -0.1698  0.3406
 6914TIP3    H120683   3.913   3.149   1.212 -0.4495  0.8440  1.4432
 6914TIP3    H220684   3.796   3.057   1.186  1.6455 -1.3621 -0.6883
 6915TIP3   OH220685   3.183   2.459   3.379  0.3407  0.3624  0.2065
 6915TIP3    H120686   3.091   2.446   3.356  0.4253  0.7549 -0.3528
 6915TIP3    H220687   3.181   2.476   3.473 -0.0247 -0.9785  0.4682
 6916TIP3   OH220688   5.182   4.532   0.319 -0.8309 -0.4851  0.0041
 6916TIP3    H120689   5.200   4.623   0.343 -1.4838 -0.2546 -0.3695
 6916TIP3    H220690   5.231   4.480   0.383  0.2472  0.1258 -0.3047
 6917TIP3   OH220691   1.037   5.504   3.641  0.1420  0.4356 -0.3958
 6917TIP3    H120692   0.942   5.513   3.635 -0.3530 -2.4175  1.1239
 6917TIP3    H220693   1.066   5.494   3.550 -1.1826  0.2764 -0.8250
 6918TIP3   OH220694   4.264   4.130   4.588 -0.2438  0.2592  0.8452
 6918TIP3    H120695   4.277   4.046   4.633  1.6681  0.1303  0.1394
 6918TIP3    H220696   4.173   4.127   4.558 -0.2488 -1.5225  0.9219
 6919TIP3   OH220697   4.222   3.689   3.426 -0.2846  0.5115 -0.0559
 6919TIP3    H120698   4.164   3.647   3.363 -0.9542  1.8757 -0.3859
 6919TIP3    H220699   4.192   3.780   3.429 -0.1075  0.5490  2.0379
 6920TIP3   OH220700   4.116   6.334   5.711 -0.2155 -0.0848  0.1103
 6920TIP3    H120701   4.118   6.276   5.788  0.4695  0.2219  0.3294
 6920TIP3    H220702   4.098   6.421   5.747  2.1307  0.4289  0.1862
 6921TIP3   OH220703   6.463   0.147   4.217 -0.1054  0.3424  0.1501
 6921TIP3    H120704   6.372   0.123   4.206 -0.1582  0.4480  0.3418
 6921TIP3    H220705   6.500   0.078   4.272 -0.2546  0.6841  0.6886
 6922TIP3   OH220706   0.011   6.803   0.610  0.2647 -0.1739 -0.1096
 6922TIP3    H120707  -0.070   6.842   0.643 -0.6474 -0.5479 -1.7801
 6922TIP3    H220708   0.074   6.875   0.612 -0.3238  0.3386  0.4998
 6923TIP3   OH220709   1.189   5.973   2.927  0.1217  0.2862 -0.0617
 6923TIP3    H120710   1.182   6.068   2.925  0.5301  0.3611  1.4957
 6923TIP3    H220711   1.242   5.953   3.004  2.1918 -1.1073 -1.7452
 6924TIP3   OH220712   1.886   5.652   0.980  0.2141 -0.6300  0.0767
 6924TIP3    H120713   1.847   5.692   0.903  0.2710 -1.9749 -0.6918
 6924TIP3    H220714   1.981   5.665   0.970  0.1198  0.8541  0.9079
 6925TIP3   OH220715   1.145   0.766   0.861  0.0715  0.1930  0.1274
 6925TIP3    H120716   1.100   0.820   0.926 -1.5469 -0.9362  0.0110
 6925TIP3    H220717   1.134   0.676   0.893  0.5513 -0.2699 -0.9471
 6926TIP3   OH220718   3.278   7.635   3.115  0.3280  0.1067 -0.5043
 6926TIP3    H120719   3.314   7.547   3.111 -0.2354 -0.2826  1.5014
 6926TIP3    H220720   3.203   7.627   3.174  1.2357  2.1997  1.0474
 6927TIP3   OH220721   3.423   4.208   5.330  0.5614 -0.1688  0.0799
 6927TIP3    H120722   3.395   4.125   5.292 -0.5368  0.5507 -0.7342
 6927TIP3    H220723   3.487   4.243   5.267 -1.8207  1.3872 -1.6354
 6928TIP3   OH220724   5.653   0.652   3.592 -0.6069  0.0632 -0.1901
 6928TIP3    H120725   5.740   0.675   3.559 -0.1115 -0.6629  0.5724
 6928TIP3    H220726   5.643   0.701   3.673 -0.7829 -0.0810 -0.1217
 6929TIP3   OH220727   7.390   5.767   6.081 -0.0446 -0.4376  0.0014
 6929TIP3    H120728   7.370   5.836   6.143 -0.0742  1.8128 -2.3266
 6929TIP3    H220729   7.471   5.727   6.113 -0.3957  0.1961  1.7507
 6930TIP3   OH220730   2.210   2.342   5.431  0.3456  0.2495  0.4097
 6930TIP3    H120731   2.199   2.267   5.373  0.6206  1.0431 -0.6950
 6930TIP3    H220732   2.121   2.366   5.456 -0.1877  2.3799 -2.9584
 6931TIP3   OH220733   4.904   1.264   1.245  0.3319  0.1839  0.5769
 6931TIP3    H120734   4.863   1.185   1.280  0.3101 -0.0869 -0.0540
 6931TIP3    H220735   4.832   1.324   1.227  0.1367 -0.5036 -1.0684
 6932TIP3   OH220736   3.698   3.794   2.956  0.5053  0.8438 -0.4926
 6932TIP3    H120737   3.634   3.847   2.909  0.7194  1.5445 -0.0160
 6932TIP3    H220738   3.703   3.834   3.043  0.3621 -0.2228  0.0185
 6933TIP3   OH220739   7.871   2.394   5.003  0.2828 -0.1345  0.2524
 6933TIP3    H120740   7.884   2.305   4.971  1.6208  0.0010  0.3885
 6933TIP3    H220741   7.953   2.440   4.985 -0.3986  1.0982  0.1363
 6934TIP3   OH220742   3.518   2.941   4.478  0.9159 -0.0413  0.5529
 6934TIP3    H120743   3.485   2.962   4.565 -1.7642 -1.2683 -0.0706
 6934TIP3    H220744   3.583   2.871   4.493  1.6708  0.8550  1.6414
 6935TIP3   OH220745   3.054   0.354   2.015  0.2796 -0.3397  0.3919
 6935TIP3    H120746   2.986   0.410   1.978  0.7393  0.2836  0.4607
 6935TIP3    H220747   3.124   0.356   1.949  0.8788  0.3382  1.0306
 6936TIP3   OH220748   0.151   6.642   2.147 -0.5865 -0.2372 -0.4737
 6936TIP3    H120749   0.196   6.567   2.186  0.5799  0.0256 -1.2462
 6936TIP3    H220750   0.062   6.638   2.182  0.3732 -0.0201  2.1575
 6937TIP3   OH220751   4.151   5.411   3.424  0.0964  0.0930 -0.0766
 6937TIP3    H120752   4.071   5.463   3.418  0.5271  0.6542 -1.1382
 6937TIP3    H220753   4.194   5.444   3.503 -0.0365  0.7823 -0.2856
 6938TIP3   OH220754   1.450   3.017   5.556  0.1596  0.4599 -0.0165
 6938TIP3    H120755   1.460   3.111   5.540  1.5046  0.4662  0.7386
 6938TIP3    H220756   1.501   3.000   5.635  0.9264 -1.1224 -0.8152
 6939TIP3   OH220757   6.829   2.271   6.181  0.1330  0.9817 -0.0690
 6939TIP3    H120758   6.852   2.351   6.228  1.6615  0.1443  0.6408
 6939TIP3    H220759   6.793   2.213   6.248  1.0161  0.3016 -0.1698
 6940TIP3   OH220760   1.106   5.647   2.914  0.7653 -0.1852 -0.2820
 6940TIP3    H120761   1.177   5.707   2.936  1.2784 -1.0766  0.5850
 6940TIP3    H220762   1.030   5.703   2.900  1.2148  0.6560  0.5848
 6941TIP3   OH220763   2.522   3.167   6.499 -0.7355 -0.3006  0.3825
 6941TIP3    H120764   2.482   3.189   6.583  0.5193 -1.2267  1.2608
 6941TIP3    H220765   2.526   3.071   6.499 -0.5435 -0.3009 -0.6486
 6942TIP3   OH220766   2.424   4.489   6.771  0.0752 -0.7385  0.4009
 6942TIP3    H120767   2.436   4.399   6.740 -0.5937 -1.2010  1.4325
 6942TIP3    H220768   2.360   4.527   6.711 -0.6315 -1.3789  0.7310
 6943TIP3   OH220769   0.501   4.430   5.546 -0.3057  0.0642 -0.3457
 6943TIP3    H120770   0.462   4.423   5.458 -1.7907  0.0461  0.2804
 6943TIP3    H220771   0.592   4.405   5.534  0.0267  1.8303 -2.2451
 6944TIP3   OH220772   7.906   3.329   0.855  0.8934 -0.0605 -0.3153
 6944TIP3    H120773   7.991   3.350   0.815  1.3551  0.1763  0.7364
 6944TIP3    H220774   7.863   3.413   0.866  1.1738 -0.0076  0.5102
 6945TIP3   OH220775   3.269   2.135   2.810 -0.1561  0.6158  0.2391
 6945TIP3    H120776   3.244   2.186   2.733 -0.2494  1.0019  0.5227
 6945TIP3    H220777   3.198   2.071   2.820 -2.5460  3.3102  2.5473
 6946TIP3   OH220778   0.287   4.750   1.463 -0.0586  0.3566  0.1762
 6946TIP3    H120779   0.317   4.694   1.391  0.6462 -1.0705  1.5325
 6946TIP3    H220780   0.212   4.797   1.427 -0.5750 -1.3380 -1.0744
 6947TIP3   OH220781   1.568   5.462   2.763 -0.0940 -0.4786 -0.0105
 6947TIP3    H120782   1.609   5.515   2.695 -1.2671  0.9389  0.3345
 6947TIP3    H220783   1.499   5.519   2.800 -0.2388 -1.6112  1.5750
 6948TIP3   OH220784   4.779   4.044   6.011  0.3113  0.0968 -0.2289
 6948TIP3    H120785   4.799   4.100   5.936  0.1876 -0.0554 -0.3745
 6948TIP3    H220786   4.785   4.103   6.086  0.1680  0.3085 -0.3820
 6949TIP3   OH220787   7.630   0.021   5.865 -0.0120  0.3548 -0.1521
 6949TIP3    H120788   7.665  -0.014   5.784 -0.4485 -0.1295 -0.1383
 6949TIP3    H220789   7.537   0.036   5.847  0.0354  0.9217  0.0393
 6950TIP3   OH220790   4.444   3.396   4.435  0.2868  0.9115 -0.0184
 6950TIP3    H120791   4.470   3.453   4.507 -1.6736  0.8687  0.7791
 6950TIP3    H220792   4.428   3.311   4.477  2.2641 -0.0496 -1.0458
 6951TIP3   OH220793   3.922   1.477   4.308  0.0766 -0.0524 -0.0732
 6951TIP3    H120794   3.860   1.507   4.242 -0.2865  0.2011  0.3730
 6951TIP3    H220795   3.983   1.421   4.261 -0.5374 -0.3676 -0.5054
 6952TIP3   OH220796   6.694   6.688   1.519 -0.1696  0.2112  0.6723
 6952TIP3    H120797   6.739   6.624   1.575 -1.5597 -2.8939 -1.4991
 6952TIP3    H220798   6.601   6.679   1.542 -0.2982  2.8023  1.4959
 6953TIP3   OH220799   6.665   7.438   6.482 -0.0770  0.1332  0.8407
 6953TIP3    H120800   6.613   7.466   6.406 -1.0312 -0.7640  1.1475
 6953TIP3    H220801   6.736   7.503   6.487 -0.0670  0.2974 -0.7254
 6954TIP3   OH220802   6.443   4.181   6.276 -0.3382  0.1140 -0.2751
 6954TIP3    H120803   6.349   4.174   6.265 -0.3651 -0.7989  0.4275
 6954TIP3    H220804   6.457   4.179   6.370  0.4546 -0.9933 -0.3965
 6955TIP3   OH220805   3.637   7.831   3.575 -0.7023 -0.0461 -0.0228
 6955TIP3    H120806   3.556   7.840   3.526 -0.8626  1.3128  0.4575
 6955TIP3    H220807   3.624   7.884   3.654  0.3730 -0.4113  0.4276
 6956TIP3   OH220808   5.230   0.142   4.418 -0.0925 -0.8924  0.0835
 6956TIP3    H120809   5.172   0.066   4.411  0.3310 -1.2991  0.8606
 6956TIP3    H220810   5.209   0.195   4.341 -0.9016 -1.4395 -0.0899
 6957TIP3   OH220811   6.061   3.484   1.711 -0.4428  0.3955 -0.5261
 6957TIP3    H120812   6.015   3.406   1.682 -0.3640 -0.6230  1.8733
 6957TIP3    H220813   5.991   3.546   1.734 -0.5211  0.4622 -0.9279
 6958TIP3   OH220814   3.975   6.795   3.336  0.2698 -0.4939  0.6596
 6958TIP3    H120815   3.895   6.764   3.378  0.9969 -2.2147  0.8353
 6958TIP3    H220816   4.046   6.767   3.394  1.0606  0.5313  0.2365
 6959TIP3   OH220817   7.686   3.011   2.899 -0.0033  0.3850  0.3936
 6959TIP3    H120818   7.630   3.089   2.899 -1.6006 -0.7068 -0.5868
 6959TIP3    H220819   7.772   3.043   2.870 -0.9747  1.5722 -1.3297
 6960TIP3   OH220820   7.028   2.315   4.341 -0.0247  0.4253 -0.1765
 6960TIP3    H120821   7.008   2.226   4.312  0.1816  0.1982  0.3709
 6960TIP3    H220822   6.956   2.339   4.399  0.5043  0.1701  0.6033
 6961TIP3   OH220823   7.026   0.674   3.800  0.0862  0.0422  0.0601
 6961TIP3    H120824   6.933   0.675   3.821  0.4462  1.4549  1.7765
 6961TIP3    H220825   7.067   0.731   3.865  2.1216 -0.2624 -0.8564
 6962TIP3   OH220826   8.289   3.155   0.319 -0.2264 -0.2446  0.0348
 6962TIP3    H120827   8.384   3.161   0.332 -0.0896 -2.1400  0.1552
 6962TIP3    H220828   8.253   3.140   0.406 -0.6568  0.5205 -0.0034
 6963TIP3   OH220829   2.005   2.153   1.795 -0.2679 -0.2172  0.0917
 6963TIP3    H120830   1.942   2.220   1.768  1.5627  1.1579 -1.0427
 6963TIP3    H220831   1.974   2.123   1.880 -1.8357  1.1871  0.0595
 6964TIP3   OH220832   4.864   3.236   6.820  0.3672  0.1962  0.3386
 6964TIP3    H120833   4.901   3.226   6.908 -0.1633 -0.9481  0.4503
 6964TIP3    H220834   4.896   3.159   6.772 -0.6516 -0.0361  0.0102
 6965TIP3   OH220835   6.665   5.557   3.975  0.5733  0.2275 -0.2258
 6965TIP3    H120836   6.655   5.635   3.919  2.5031 -0.1235 -1.1492
 6965TIP3    H220837   6.654   5.483   3.915  2.0048 -0.1576 -0.0596
 6966TIP3   OH220838   6.218   3.011   2.786 -0.0739  0.3797 -0.2815
 6966TIP3    H120839   6.198   2.935   2.840 -0.2894  1.6560  1.4927
 6966TIP3    H220840   6.236   2.974   2.699  2.6416 -1.9560  1.1381
 6967TIP3   OH220841   3.233   7.771   1.209 -0.0681  0.3148 -0.1539
 6967TIP3    H120842   3.244   7.793   1.116  0.4363  0.6909 -0.0068
 6967TIP3    H220843   3.169   7.835   1.241 -2.5937 -1.6253 -0.9137
 6968TIP3   OH220844   0.569   2.351   6.744  0.0768  0.4364  0.1111
 6968TIP3    H120845   0.563   2.425   6.805  1.2622 -0.2601  1.1270
 6968TIP3    H220846   0.653   2.362   6.701 -0.9179  1.1377 -1.7550
 6969TIP3   OH220847   3.357   0.234   4.505  0.3743  0.2704 -0.0088
 6969TIP3    H120848   3.420   0.192   4.563 -0.0222  0.1817  0.3576
 6969TIP3    H220849   3.411   0.270   4.434  0.8153  0.0156  0.1907
 6970TIP3   OH220850   0.677   5.995   5.508 -0.0051  0.4667 -0.1275
 6970TIP3    H120851   0.752   6.029   5.556  0.6946  0.8573 -1.4411
 6970TIP3    H220852   0.686   5.900   5.513 -1.7565  0.3235  3.2315
 6971TIP3   OH220853   0.100   4.339   2.662 -0.4563  0.5063 -0.2682
 6971TIP3    H120854   0.051   4.257   2.655 -0.5190  0.6477 -1.7705
 6971TIP3    H220855   0.123   4.345   2.755 -2.6000  0.0568  0.3475
 6972TIP3   OH220856   1.152   7.086   0.027  0.1225  0.2805 -0.1293
 6972TIP3    H120857   1.200   7.154  -0.021 -0.7537  0.9137 -0.1331
 6972TIP3    H220858   1.217   7.047   0.084  0.7972  0.6752 -0.6114
 6973TIP3   OH220859   6.142   7.307   5.318 -0.2311  0.1522  0.0571
 6973TIP3    H120860   6.141   7.369   5.391 -1.3195  1.0685 -0.7076
 6973TIP3    H220861   6.050   7.286   5.303  0.0295 -0.5245 -0.6377
 6974TIP3   OH220862   6.768   3.084   6.251 -0.1737  0.0016 -0.1590
 6974TIP3    H120863   6.755   3.116   6.340 -1.3466 -0.7831 -0.0162
 6974TIP3    H220864   6.697   3.020   6.238  0.3911 -0.4090 -1.4079
 6975TIP3   OH220865   1.421   0.279   4.282 -0.4127 -0.3872  0.5711
 6975TIP3    H120866   1.377   0.351   4.327  0.7212  0.1335  0.8885
 6975TIP3    H220867   1.365   0.260   4.208 -1.5427 -0.2394  1.3579
 6976TIP3   OH220868   7.549   7.176   4.731  0.1075 -0.7862  0.0717
 6976TIP3    H120869   7.523   7.135   4.814 -0.8203 -0.0589  0.1554
 6976TIP3    H220870   7.467   7.206   4.692  0.7461  1.1809  0.1301
 6977TIP3   OH220871   3.951   0.479   3.338 -0.2511  0.4456 -0.1476
 6977TIP3    H120872   4.036   0.435   3.345 -0.0884  0.4941 -1.4896
 6977TIP3    H220873   3.961   0.539   3.264 -1.1966  1.0701  0.2113
 6978TIP3   OH220874   5.770   2.894   3.205 -0.3406  0.4378  0.1882
 6978TIP3    H120875   5.817   2.954   3.146  0.5572 -0.5329 -0.1116
 6978TIP3    H220876   5.728   2.832   3.146 -0.7617  0.4120  0.5195
 6979TIP3   OH220877   4.831   5.611   5.418 -0.3183  0.5268 -0.5341
 6979TIP3    H120878   4.833   5.516   5.411  0.4126  0.5113 -0.1906
 6979TIP3    H220879   4.742   5.635   5.391 -0.4366 -0.2288 -0.8540
 6980TIP3   OH220880   1.971   7.647   1.870  0.0807 -0.1714 -0.9049
 6980TIP3    H120881   1.904   7.641   1.802 -0.4550  0.0135 -0.4007
 6980TIP3    H220882   2.043   7.696   1.829  0.4855 -1.5407 -1.8944
 6981TIP3   OH220883   5.149   2.659   3.012 -0.2838  0.9097 -0.1768
 6981TIP3    H120884   5.210   2.651   2.939  0.9307  0.0300  0.8897
 6981TIP3    H220885   5.194   2.618   3.086 -1.1557  2.4505  1.2805
 6982TIP3   OH220886   7.618   1.259   2.107  0.2772 -0.2162  0.1751
 6982TIP3    H120887   7.564   1.333   2.080 -1.0958 -0.2143  2.6113
 6982TIP3    H220888   7.708   1.288   2.090 -0.2458  1.7874  0.5369
 6983TIP3   OH220889   3.265   0.816   0.049 -0.4896  0.7208 -0.6614
 6983TIP3    H120890   3.228   0.867  -0.023 -1.2150 -0.2676 -1.0157
 6983TIP3    H220891   3.252   0.870   0.127 -0.3999  1.4645 -1.1573
 6984TIP3   OH220892   2.158   0.695   0.276  0.3206  0.0239 -0.6375
 6984TIP3    H120893   2.160   0.640   0.354 -1.0943  2.8408  1.6207
 6984TIP3    H220894   2.076   0.671   0.233  0.8036 -1.1320 -0.9361
 6985TIP3   OH220895   8.262   4.437   2.213  0.1777  0.3519 -0.3279
 6985TIP3    H120896   8.280   4.530   2.198 -0.7819  0.5618 -0.2730
 6985TIP3    H220897   8.168   4.434   2.229  0.0514 -0.7483 -1.1920
 6986TIP3   OH220898   6.185   2.657   6.309  0.8735  0.1571 -0.6604
 6986TIP3    H120899   6.134   2.720   6.258 -1.0573 -1.0910 -0.3649
 6986TIP3    H220900   6.159   2.572   6.275  0.3344 -0.6696  1.6477
 6987TIP3   OH220901   0.604   7.819   0.020 -0.5208  0.3350  0.1365
 6987TIP3    H120902   0.611   7.869   0.101  1.1499  1.2334 -0.5356
 6987TIP3    H220903   0.590   7.729   0.050  0.4246  0.5821  1.4440
 6988TIP3   OH220904   0.672   6.092   4.482  0.3795 -0.3592  0.3537
 6988TIP3    H120905   0.612   6.047   4.540 -0.0152 -0.4840 -0.1424
 6988TIP3    H220906   0.741   6.126   4.539  0.5666 -1.3931  0.7650
 6989TIP3   OH220907   4.600   0.106   0.811 -0.7721  0.4329  0.3675
 6989TIP3    H120908   4.518   0.139   0.774  0.0327  1.1228 -0.8843
 6989TIP3    H220909   4.631   0.042   0.748 -0.5938 -0.2020  1.0862
 6990TIP3   OH220910   4.487   7.033   3.549 -0.2658  0.1245  0.3170
 6990TIP3    H120911   4.407   7.068   3.510 -0.4864  1.5626  1.9588
 6990TIP3    H220912   4.458   6.953   3.594 -0.8240  0.6416  0.9139
 6991TIP3   OH220913   6.549   2.278   3.834 -0.4303 -0.1674  0.0708
 6991TIP3    H120914   6.464   2.237   3.844 -0.0331 -1.0860 -0.2564
 6991TIP3    H220915   6.612   2.213   3.866  0.0228  1.3975  2.6888
 6992TIP3   OH220916   1.014   6.309   6.476 -0.0363  0.1472 -0.0475
 6992TIP3    H120917   0.932   6.354   6.456  0.9856  2.3439  0.3938
 6992TIP3    H220918   1.073   6.334   6.405  0.3627 -1.1781 -0.2082
 6993TIP3   OH220919   1.600   6.805   1.014 -0.0629 -0.1434  0.3424
 6993TIP3    H120920   1.607   6.710   1.017 -0.8954 -0.2732 -0.9591
 6993TIP3    H220921   1.513   6.824   1.047 -0.8735 -0.0576 -1.6848
 6994TIP3   OH220922   3.576   3.897   1.115 -1.0366 -0.1278 -0.4778
 6994TIP3    H120923   3.659   3.859   1.146 -0.8621  0.7697  0.1897
 6994TIP3    H220924   3.584   3.896   1.019 -0.8449 -1.3228 -0.4679
 6995TIP3   OH220925   7.836   4.353   2.846  0.6343  0.2116 -0.2482
 6995TIP3    H120926   7.894   4.426   2.826  2.6582 -1.2427  0.0259
 6995TIP3    H220927   7.762   4.393   2.893  1.5454  2.0827 -0.3337
 6996TIP3   OH220928   1.549   5.495   0.310  0.1082 -0.3416 -0.2135
 6996TIP3    H120929   1.499   5.576   0.300 -1.2272 -0.9856  0.9587
 6996TIP3    H220930   1.617   5.516   0.373  0.5606  0.2113 -0.8797
 6997TIP3   OH220931   8.015   0.399   6.202  0.1613 -0.8935 -0.6686
 6997TIP3    H120932   8.098   0.406   6.249  0.3911 -1.1556 -1.0321
 6997TIP3    H220933   7.981   0.489   6.201 -0.9706 -1.2037  1.9921
 6998TIP3   OH220934   1.515   2.023   3.857 -0.1315  0.0446  0.2854
 6998TIP3    H120935   1.501   2.068   3.940 -1.6531 -0.8122  0.5303
 6998TIP3    H220936   1.436   1.971   3.845  1.0083 -1.5357 -0.6319
 6999TIP3   OH220937   2.400   4.979   5.332 -0.3788  0.0569  0.4088
 6999TIP3    H120938   2.355   4.987   5.248  0.4935 -1.7878 -0.2859
 6999TIP3    H220939   2.471   5.043   5.328 -1.4034  1.2454  0.5147
 7000TIP3   OH220940   0.452   1.396   1.381  0.4148 -0.3731 -0.4145
 7000TIP3    H120941   0.446   1.356   1.468  0.5711 -0.3251 -0.3800
 7000TIP3    H220942   0.492   1.329   1.326  0.9873 -0.1545 -0.2787
 7001TIP3   OH220943   2.578   2.198   5.329 -0.3048 -0.1074 -0.7118
 7001TIP3    H120944   2.599   2.117   5.281 -1.1484 -1.0089  0.3833
 7001TIP3    H220945   2.531   2.252   5.266  0.1947 -0.4968 -1.4351
 7002TIP3   OH220946   7.445   0.662   1.403 -0.0424 -0.0997  0.4513
 7002TIP3    H120947   7.505   0.625   1.468 -0.2165  0.0356  0.6887
 7002TIP3    H220948   7.489   0.742   1.374  0.1903 -0.3287  0.1592
 7003TIP3   OH220949   7.701   7.660   3.107 -0.1485  0.0439 -0.0324
 7003TIP3    H120950   7.771   7.723   3.085 -0.2488 -0.2012 -1.1326
 7003TIP3    H220951   7.745   7.575   3.108 -0.5005 -0.1704 -1.2110
 7004TIP3   OH220952   1.947   5.399   0.297 -0.1389 -0.1104 -0.2028
 7004TIP3    H120953   1.919   5.310   0.318  0.2201  0.1274  1.3643
 7004TIP3    H220954   2.041   5.400   0.313 -0.0641  0.4410 -0.6292
 7005TIP3   OH220955   3.550   7.625   5.094 -0.6471 -0.1166  0.2557
 7005TIP3    H120956   3.464   7.584   5.090  0.3567 -2.3548  0.1771
 7005TIP3    H220957   3.597   7.588   5.019  0.4086  1.0018  0.3430
 7006TIP3   OH220958   4.738   0.479   2.452  0.5639  0.1329  0.2225
 7006TIP3    H120959   4.792   0.401   2.456 -0.5081 -0.6288  0.3323
 7006TIP3    H220960   4.725   0.495   2.358  1.1671  0.4533  0.1942
 7007TIP3   OH220961   7.086   7.026   2.745  0.3477 -0.3067 -0.2799
 7007TIP3    H120962   7.040   7.071   2.674  2.1572  0.4009 -1.0685
 7007TIP3    H220963   7.025   6.958   2.774 -1.1202  0.4985 -1.3254
 7008TIP3   OH220964   7.993   7.090   1.665  0.6831 -0.1620 -0.0580
 7008TIP3    H120965   7.996   7.162   1.602 -0.2951  0.2150  0.3066
 7008TIP3    H220966   8.084   7.080   1.693  1.2430 -0.7182 -1.9225
 7009TIP3   OH220967   5.825   5.368   6.734 -0.2407 -0.0883  0.5197
 7009TIP3    H120968   5.880   5.425   6.679  0.4291 -0.8937  0.3314
 7009TIP3    H220969   5.875   5.287   6.742 -1.0104 -0.5216  1.0951
 7010TIP3   OH220970   3.681   1.789   2.655 -0.2894 -0.6285 -0.0992
 7010TIP3    H120971   3.655   1.721   2.718  0.5243 -0.1139  0.8286
 7010TIP3    H220972   3.754   1.750   2.607 -0.4234 -0.7507 -0.2028
 7011TIP3   OH220973   7.187   1.637   2.012  0.0577  0.2883  0.2118
 7011TIP3    H120974   7.164   1.545   2.024  0.5888  0.3301  1.7974
 7011TIP3    H220975   7.200   1.647   1.918 -0.3749 -1.1694 -0.0142
 7012TIP3   OH220976   7.441   3.366   6.683  0.9539  0.1921  0.1682
 7012TIP3    H120977   7.502   3.356   6.756  1.0733 -0.4190 -0.0072
 7012TIP3    H220978   7.496   3.388   6.608  0.7344  1.9180  0.4584
 7013TIP3   OH220979   7.719   2.907   5.524  0.4958 -0.4945 -0.4672
 7013TIP3    H120980   7.677   2.900   5.438 -0.1217  3.0543 -0.6066
 7013TIP3    H220981   7.810   2.928   5.504  0.3916  0.1519 -0.2790
 7014TIP3   OH220982   6.148   6.581   5.231  0.1379  0.3180 -0.3398
 7014TIP3    H120983   6.163   6.526   5.154 -0.1364  0.1106 -0.2472
 7014TIP3    H220984   6.194   6.537   5.302 -0.8029 -0.2693 -0.0764
 7015TIP3   OH220985   4.110   6.244   4.935  0.2739 -0.2181  0.0539
 7015TIP3    H120986   4.037   6.183   4.939 -0.6287  0.7546 -0.7360
 7015TIP3    H220987   4.183   6.193   4.901 -0.0629 -1.1830  0.7575
 7016TIP3   OH220988   2.369   7.410   2.484 -0.0559  0.4359 -0.1080
 7016TIP3    H120989   2.441   7.447   2.434  1.4954  0.7438  2.1848
 7016TIP3    H220990   2.295   7.409   2.423  1.6711  0.7542 -2.3456
 7017TIP3   OH220991   4.698   2.098   3.286 -0.2363  0.4868 -0.8480
 7017TIP3    H120992   4.714   2.192   3.279  3.0748  0.0843 -0.4875
 7017TIP3    H220993   4.637   2.090   3.359 -0.8227  2.3619 -1.0771
 7018TIP3   OH220994   2.980   6.919   6.223  0.3730 -0.4404 -0.4921
 7018TIP3    H120995   3.068   6.880   6.225  0.4441 -0.3006 -0.8398
 7018TIP3    H220996   2.925   6.857   6.271  0.4532 -1.0573 -1.1774
 7019TIP3   OH220997   5.451   6.503   1.717 -0.1206 -0.5557 -0.2214
 7019TIP3    H120998   5.446   6.433   1.784 -1.1264 -1.3176 -1.0513
 7019TIP3    H220999   5.439   6.584   1.767 -0.7548 -1.1019  0.5540
 7020TIP3   OH221000   5.055   0.307   3.304  0.2754 -0.2356  0.0352
 7020TIP3    H121001   5.136   0.325   3.256 -0.2408  1.0921 -0.3522
 7020TIP3    H221002   5.023   0.392   3.332 -0.8154 -0.7711  0.4955
 7021TIP3   OH221003   1.124   3.271   0.206  0.0253 -0.0217 -0.1247
 7021TIP3    H121004   1.199   3.219   0.234 -0.2485  0.0932  0.8648
 7021TIP3    H221005   1.140   3.289   0.113  1.6852  0.7917  0.2812
 7022TIP3   OH221006   2.969   3.010   2.567  0.6792  0.2400  0.4079
 7022TIP3    H121007   3.058   3.020   2.600  0.3603  0.5727  1.2140
 7022TIP3    H221008   2.965   3.065   2.489  1.5102 -0.7043 -0.3180
 7023TIP3   OH221009   7.766   2.468   2.337  0.0403  0.0984  0.1221
 7023TIP3    H121010   7.695   2.404   2.347  0.5525 -0.5132 -0.1380
 7023TIP3    H221011   7.778   2.503   2.425 -0.5876  0.2146  0.1695
 7024TIP3   OH221012   0.106   5.807   6.397  0.3808  0.6542 -0.7959
 7024TIP3    H121013   0.118   5.901   6.382  1.2852  0.6902  0.0597
 7024TIP3    H221014   0.175   5.766   6.345 -1.5148  0.2627 -3.1874
 7025TIP3   OH221015   5.589   5.744   0.539  0.0853  0.3835 -0.3557
 7025TIP3    H121016   5.595   5.700   0.624  0.2237  2.1205  0.5704
 7025TIP3    H221017   5.547   5.828   0.557  0.9155  1.1785 -1.8393
 7026TIP3   OH221018   2.702   6.160   5.958 -0.1030  0.1333 -0.2776
 7026TIP3    H121019   2.670   6.082   5.912  0.0644 -0.0341 -0.1119
 7026TIP3    H221020   2.784   6.132   5.999  0.5262  0.7037 -1.1145
 7027TIP3   OH221021   2.882   2.484   2.603  0.4489  0.5560  0.2781
 7027TIP3    H121022   2.845   2.431   2.673  1.1544 -1.5527 -0.8459
 7027TIP3    H221023   2.823   2.470   2.529 -0.1067  2.4797  0.3074
 7028TIP3   OH221024   3.670   1.158   6.408  0.1848  0.0419  0.0126
 7028TIP3    H121025   3.617   1.099   6.354  1.1462 -1.2987  0.4704
 7028TIP3    H221026   3.606   1.213   6.453 -0.8726 -1.6767  0.7193
 7029TIP3   OH221027   5.862   7.355   6.476 -0.0226 -0.0116  0.2657
 7029TIP3    H121028   5.848   7.368   6.382  0.6478  1.0069  0.2877
 7029TIP3    H221029   5.936   7.412   6.497 -0.0077 -0.4146  1.3681
 7030TIP3   OH221030   0.927   6.772   3.263  0.1448 -0.3355  0.1723
 7030TIP3    H121031   0.914   6.727   3.347 -2.1677 -1.4710 -0.7166
 7030TIP3    H221032   0.994   6.838   3.282  0.2468 -1.0540  2.7031
 7031TIP3   OH221033   6.448   3.271   1.577  0.6997  0.8114 -1.1080
 7031TIP3    H121034   6.449   3.364   1.599 -1.0561  0.5138  0.4532
 7031TIP3    H221035   6.504   3.230   1.643  0.8651  0.6633 -1.3376
 7032TIP3   OH221036   0.860   7.563   1.795 -0.2921 -0.2266  0.7648
 7032TIP3    H121037   0.773   7.534   1.822  0.2992 -1.9776  0.9273
 7032TIP3    H221038   0.867   7.653   1.827 -3.0097  0.9752 -1.5163
 7033TIP3   OH221039   3.388   6.815   4.221  0.3961 -0.1105  0.2855
 7033TIP3    H121040   3.368   6.754   4.150 -0.3316  1.0737 -0.5795
 7033TIP3    H221041   3.422   6.893   4.176  0.6295  0.3890  1.2970
 7034TIP3   OH221042   3.765   0.894   0.673 -0.6925  0.3640  0.0303
 7034TIP3    H121043   3.794   0.952   0.743  0.4743  0.9990 -0.9375
 7034TIP3    H221044   3.686   0.936   0.638  0.6581  1.9773 -1.2875
 7035TIP3   OH221045   3.991   2.420   0.840 -0.3770  0.3412  0.5459
 7035TIP3    H121046   3.979   2.476   0.763  0.7244  0.0010  0.1180
 7035TIP3    H221047   4.075   2.376   0.826 -1.2219 -1.4597  0.8645
 7036TIP3   OH221048   5.120   7.377   2.747  0.1075  0.0443 -0.3908
 7036TIP3    H121049   5.152   7.354   2.660  1.9984 -2.1532  0.8121
 7036TIP3    H221050   5.067   7.302   2.774  3.8402 -1.9261  2.3504
 7037TIP3   OH221051   7.768   3.402   4.869 -0.5871  0.0184  0.0382
 7037TIP3    H121052   7.690   3.456   4.885 -1.5418 -1.4992  0.6505
 7037TIP3    H221053   7.739   3.312   4.883  1.3575 -0.5787  0.5376
 7038TIP3   OH221054   5.091   7.074   0.447  0.2246 -0.3913  0.3512
 7038TIP3    H121055   5.031   7.046   0.378  0.1638  0.6040 -0.0182
 7038TIP3    H221056   5.035   7.084   0.525  0.2098 -1.0328  0.4345
 7039TIP3   OH221057   2.414   0.257   2.209 -0.0600  0.0330 -0.0363
 7039TIP3    H121058   2.446   0.246   2.120  0.0901  0.6755 -0.0659
 7039TIP3    H221059   2.387   0.169   2.236  0.2140 -0.2251 -0.5895
 7040TIP3   OH221060   6.802   3.994   6.489 -0.3882 -0.9005  0.2333
 7040TIP3    H121061   6.896   3.989   6.472 -0.4368 -2.0202  0.1903
 7040TIP3    H221062   6.777   4.081   6.460  0.8441 -0.1500  1.2856
 7041TIP3   OH221063   1.257   2.966   4.394  0.1201 -0.3360  0.9283
 7041TIP3    H121064   1.168   3.001   4.408  1.0367  1.6670  2.2898
 7041TIP3    H221065   1.252   2.876   4.424 -1.3279 -0.0918  1.5283
 7042TIP3   OH221066   8.301   2.551   4.331  0.1360  0.4521  0.1977
 7042TIP3    H121067   8.344   2.586   4.253  0.3533 -0.5309 -0.1459
 7042TIP3    H221068   8.220   2.512   4.298 -0.2794  0.9565  0.6218
 7043TIP3   OH221069   5.602   7.321   1.325  0.1301 -0.2851 -0.3935
 7043TIP3    H121070   5.572   7.376   1.253  2.4457  1.2171 -0.3230
 7043TIP3    H221071   5.633   7.241   1.284  1.4264  0.5568 -1.1185
 7044TIP3   OH221072   6.620   7.458   1.512 -0.7623 -0.3354 -0.1219
 7044TIP3    H121073   6.645   7.371   1.481 -0.2871  0.1751 -1.2336
 7044TIP3    H221074   6.577   7.498   1.437 -0.1660  0.7090  0.0766
 7045TIP3   OH221075   0.095   4.872   3.416 -0.1152 -0.0888  0.0595
 7045TIP3    H121076   0.114   4.866   3.509  0.1689 -1.5732 -0.0777
 7045TIP3    H221077   0.019   4.930   3.411 -0.7328 -0.7650  1.2919
 7046TIP3   OH221078   6.551   0.647   1.897 -0.1142 -0.1778 -0.2947
 7046TIP3    H121079   6.594   0.634   1.812  1.2090  0.6621  0.2135
 7046TIP3    H221080   6.521   0.560   1.923  2.1989 -1.0126 -0.2186
 7047TIP3   OH221081   3.274   4.446   2.957  0.0335  0.4188  0.2236
 7047TIP3    H121082   3.354   4.445   3.010 -0.4257  0.5576  0.9163
 7047TIP3    H221083   3.203   4.446   3.020 -0.5472 -1.0332 -0.3888
 7048TIP3   OH221084   2.319   2.639   3.907 -0.6198  0.0531  0.1414
 7048TIP3    H121085   2.321   2.677   3.994  1.9680 -0.3182  0.3271
 7048TIP3    H221086   2.322   2.714   3.848 -1.5924  0.2796  0.3667
 7049TIP3   OH221087   6.450   3.041   1.098  0.7949  0.2967 -0.0143
 7049TIP3    H121088   6.537   3.001   1.104  1.2608  1.3025  0.2798
 7049TIP3    H221089   6.466   3.135   1.110 -0.2556  0.5811 -0.6730
 7050TIP3   OH221090   7.939   0.399   3.225  0.2907  0.0881 -0.6816
 7050TIP3    H121091   7.884   0.381   3.301  0.0249  1.2216 -0.5958
 7050TIP3    H221092   8.015   0.445   3.260 -0.2932  1.4877 -1.2137
 7051TIP3   OH221093   3.443   4.236   4.478  0.2020 -0.5553 -0.6388
 7051TIP3    H121094   3.460   4.291   4.555 -1.3704 -0.6641 -0.1835
 7051TIP3    H221095   3.355   4.261   4.450 -0.9108 -3.3474  0.0624
 7052TIP3   OH221096   3.733   3.385   4.137 -0.1437 -0.0444  0.1124
 7052TIP3    H121097   3.663   3.448   4.155  0.4968  0.7762 -0.1736
 7052TIP3    H221098   3.732   3.325   4.211  0.0196  1.0325  1.0072
 7053TIP3   OH221099   2.384   3.639   5.255  0.2916 -0.0780 -0.0702
 7053TIP3    H121100   2.339   3.572   5.307  0.6999  0.7316  1.3852
 7053TIP3    H221101   2.476   3.612   5.255  0.6485  0.9496  1.4144
 7054TIP3   OH221102   7.705   0.744   4.403  0.0331 -0.1603 -0.1203
 7054TIP3    H121103   7.621   0.777   4.370  0.2752  1.9861  1.1701
 7054TIP3    H221104   7.681   0.687   4.477 -0.3509  2.2164  1.7258
 7055TIP3   OH221105   2.524  -0.011   4.187 -0.1517  0.0843 -0.4647
 7055TIP3    H121106   2.551  -0.020   4.096  0.1681  1.3196 -0.5165
 7055TIP3    H221107   2.576   0.063   4.220  1.3513 -1.6748  1.3617
 7056TIP3   OH221108   0.141   5.603   1.692  0.1917 -0.3510  0.4770
 7056TIP3    H121109   0.232   5.581   1.713 -0.6567 -2.9605  1.8584
 7056TIP3    H221110   0.120   5.546   1.617 -0.8545 -1.3347  1.4811
 7057TIP3   OH221111   6.213   6.068   4.975 -0.0613 -0.0557 -0.3398
 7057TIP3    H121112   6.226   6.091   5.067  1.0874  0.0015 -0.5084
 7057TIP3    H221113   6.298   6.036   4.946 -1.1037 -2.8835 -0.5999
 7058TIP3   OH221114   7.944   6.615   1.829  0.1992  0.1900  1.0441
 7058TIP3    H121115   8.002   6.633   1.756  0.2649  2.3880  1.5719
 7058TIP3    H221116   8.000   6.624   1.907 -0.1797 -0.7117  1.4311
 7059TIP3   OH221117   4.435   1.817   4.444  0.2751  0.0906  0.4232
 7059TIP3    H121118   4.473   1.842   4.528  2.2982  3.9191 -1.3141
 7059TIP3    H221119   4.397   1.898   4.410 -2.4920 -1.8262 -1.4770
 7060TIP3   OH221120   6.889   7.358   5.212 -0.2180  0.5359  0.0120
 7060TIP3    H121121   6.893   7.322   5.301 -1.8399 -0.0414 -0.1068
 7060TIP3    H221122   6.817   7.421   5.215 -0.7114  0.0489 -1.0365
 7061TIP3   OH221123   4.045   5.233   1.605 -0.4136 -0.5751  0.1871
 7061TIP3    H121124   3.959   5.210   1.638 -1.4785  2.3914 -0.2248
 7061TIP3    H221125   4.034   5.238   1.510  0.4317 -0.8908  0.0589
 7062TIP3   OH221126   2.263   3.885   6.271 -0.0267 -0.0323 -0.5507
 7062TIP3    H121127   2.211   3.891   6.351 -1.0964  1.0802 -1.2963
 7062TIP3    H221128   2.339   3.833   6.296 -1.3886 -1.5673  0.6368
 7063TIP3   OH221129   7.297   2.165   1.691  0.9566 -0.0181  0.2473
 7063TIP3    H121130   7.236   2.166   1.764  1.3934 -0.5996  0.6221
 7063TIP3    H221131   7.340   2.079   1.695  1.7351  0.3400 -0.0607
 7064TIP3   OH221132   4.627   7.594   6.851  0.2938  0.2714 -0.3765
 7064TIP3    H121133   4.630   7.617   6.758 -0.3650  0.5139 -0.3481
 7064TIP3    H221134   4.614   7.678   6.896  1.8091  0.3100  0.0346
 7065TIP3   OH221135   1.587   4.262   2.483  0.0621 -0.7473 -0.3809
 7065TIP3    H121136   1.647   4.188   2.491  0.6437 -0.1062  2.0351
 7065TIP3    H221137   1.640   4.330   2.440  0.6245 -0.6813  0.3870
 7066TIP3   OH221138   1.339   6.995   2.732  0.1288 -0.7905  0.1075
 7066TIP3    H121139   1.268   7.057   2.715  0.1646 -1.1108 -1.3927
 7066TIP3    H221140   1.306   6.911   2.700  1.0723 -1.0004 -0.3543
 7067TIP3   OH221141   4.494   7.548   2.958 -0.3306  0.0943  0.0537
 7067TIP3    H121142   4.536   7.624   2.999  1.3811 -1.2973  0.9928
 7067TIP3    H221143   4.533   7.543   2.871 -1.4451  1.0409 -0.5285
 7068TIP3   OH221144   3.774   4.214   4.956 -0.1717 -0.3516  0.1237
 7068TIP3    H121145   3.860   4.194   4.992  1.1164 -0.1796 -2.5965
 7068TIP3    H221146   3.767   4.310   4.960  0.2521 -0.2829 -0.6116
 7069TIP3   OH221147   4.729   2.220   5.842  0.5712 -0.5471  0.4407
 7069TIP3    H121148   4.677   2.141   5.852  0.0557 -0.1326  1.0935
 7069TIP3    H221149   4.805   2.192   5.790 -0.7295 -0.9549 -1.3450
 7070TIP3   OH221150   4.441   6.621   3.251  0.8041  0.3310  0.0765
 7070TIP3    H121151   4.365   6.599   3.197  1.5412  0.3269 -1.0107
 7070TIP3    H221152   4.510   6.641   3.187  1.2620  1.9666  1.0256
 7071TIP3   OH221153   6.924   2.522   3.707 -0.1611 -0.2344 -0.3053
 7071TIP3    H121154   6.832   2.545   3.697 -0.3134 -0.3502  0.6916
 7071TIP3    H221155   6.924   2.427   3.718 -0.0048 -0.1442  0.5156
 7072TIP3   OH221156   3.408   0.496   2.787  0.5214 -0.4825 -0.2467
 7072TIP3    H121157   3.440   0.580   2.755  2.3156 -1.1359 -0.2551
 7072TIP3    H221158   3.341   0.519   2.852 -0.6388  0.8929 -1.8496
 7073TIP3   OH221159   2.594   2.559   6.857  0.4277  0.0690  0.2627
 7073TIP3    H121160   2.575   2.469   6.884 -1.1804  0.7237  1.4552
 7073TIP3    H221161   2.644   2.549   6.776 -0.5437 -1.8790 -0.1592
 7074TIP3   OH221162   0.209   0.420   2.553  0.1928  0.1099 -0.1432
 7074TIP3    H121163   0.185   0.498   2.602 -0.3390  0.2499 -0.6140
 7074TIP3    H221164   0.213   0.350   2.619  0.2170  0.4395  0.2049
 7075TIP3   OH221165   0.085   7.580   1.033 -0.6160 -0.2087  0.6325
 7075TIP3    H121166   0.139   7.502   1.019 -0.7977 -0.2246  0.0096
 7075TIP3    H221167   0.020   7.578   0.963 -3.2213 -1.6763  2.8645
 7076TIP3   OH221168   6.870   5.744   3.777 -0.4491 -0.0614 -0.4290
 7076TIP3    H121169   6.821   5.735   3.696 -1.9580  1.1326  0.3021
 7076TIP3    H221170   6.807   5.781   3.840  0.9436  0.0015  1.0041
 7077TIP3   OH221171   5.853   6.090   6.759  0.3009  0.3072 -0.0077
 7077TIP3    H121172   5.770   6.074   6.713  0.7006 -0.0830 -0.6097
 7077TIP3    H221173   5.868   6.010   6.809 -0.3300  0.8820  1.1413
 7078TIP3   OH221174   6.462   3.190   4.042  0.0487  0.0008 -0.4621
 7078TIP3    H121175   6.541   3.189   4.097 -0.1689 -0.7384 -0.1536
 7078TIP3    H221176   6.495   3.175   3.954  0.1591 -1.5199 -0.1840
 7079TIP3   OH221177   1.461   4.008   4.263 -0.0269 -0.6346  0.1306
 7079TIP3    H121178   1.520   4.083   4.261 -0.9189  0.2672  2.6445
 7079TIP3    H221179   1.473   3.965   4.179  3.3912  0.0950  0.0956
 7080TIP3   OH221180   4.882   0.578   0.479  0.1565  0.1629 -0.0769
 7080TIP3    H121181   4.929   0.653   0.443 -1.6958  2.0793  1.2256
 7080TIP3    H221182   4.923   0.501   0.438  3.5043  1.7011  0.0187
 7081TIP3   OH221183   2.046   5.406   4.677 -0.1393  0.6276  0.5163
 7081TIP3    H121184   2.131   5.361   4.674 -0.7670 -0.7358  1.8230
 7081TIP3    H221185   2.066   5.496   4.652  1.3826 -0.0493 -0.9351
 7082TIP3   OH221186   1.344   2.398   1.302 -0.9382 -0.0015  0.0999
 7082TIP3    H121187   1.273   2.391   1.365 -2.7995 -0.3664 -1.9180
 7082TIP3    H221188   1.352   2.492   1.284 -1.1612  0.0086  0.0596
 7083TIP3   OH221189   8.073   3.974   4.472 -0.2114  0.7893 -0.1634
 7083TIP3    H121190   7.984   4.006   4.457 -1.3111 -1.6172  0.6674
 7083TIP3    H221191   8.087   3.908   4.403  0.5201  0.4255  0.3148
 7084TIP3   OH221192   4.156   3.680   5.521 -0.4627 -0.5049  0.0336
 7084TIP3    H121193   4.182   3.589   5.535 -2.3999 -1.4723 -1.9410
 7084TIP3    H221194   4.082   3.675   5.460  0.3676  2.4815 -1.4681
 7085TIP3   OH221195   0.353   5.959   1.437 -0.0296 -0.2042 -0.2031
 7085TIP3    H121196   0.379   6.043   1.400  0.4894 -0.4760 -0.4582
 7085TIP3    H221197   0.370   5.896   1.367 -0.3645 -0.5342  0.0075
 7086TIP3   OH221198   7.390   6.879   4.002  0.5997 -0.4883  0.2877
 7086TIP3    H121199   7.479   6.902   3.976  0.7503 -0.9717  0.3790
 7086TIP3    H221200   7.398   6.849   4.093  0.2181  0.2636  0.5855
 7087TIP3   OH221201   5.961   3.036   5.383  0.2034  0.3476 -0.6274
 7087TIP3    H121202   5.894   3.089   5.427  2.3696  1.9805  0.8877
 7087TIP3    H221203   6.026   3.017   5.450  1.8094 -0.2748 -2.2621
 7088TIP3   OH221204   7.703   0.430   6.246 -0.0845 -0.7144  0.6798
 7088TIP3    H121205   7.631   0.392   6.297 -0.8212  0.9749  0.9801
 7088TIP3    H221206   7.780   0.378   6.271 -0.7806 -1.1200  2.0985
 7089TIP3   OH221207   1.114   4.743   4.836  0.0736 -0.0740 -0.1270
 7089TIP3    H121208   1.130   4.766   4.745 -0.9318  0.5638 -0.1513
 7089TIP3    H221209   1.166   4.806   4.887 -1.2892  1.1785 -0.2281
 7090TIP3   OH221210   0.874   3.716   3.383  0.1387  0.2628 -0.4314
 7090TIP3    H121211   0.912   3.628   3.384 -0.4761 -0.0100  0.5342
 7090TIP3    H221212   0.939   3.771   3.339  1.0852 -0.4259  0.0937
 7091TIP3   OH221213   7.969   5.619   5.445 -0.0989 -0.0953 -0.2214
 7091TIP3    H121214   8.025   5.605   5.521 -0.7819 -1.0833  0.1298
 7091TIP3    H221215   8.012   5.571   5.374  0.4800  0.7320 -0.4352
 7092TIP3   OH221216   0.272   1.247   2.652 -0.2553  0.6695 -0.1007
 7092TIP3    H121217   0.199   1.203   2.697  0.2081 -1.1915 -1.0826
 7092TIP3    H221218   0.345   1.240   2.713 -0.2383  0.2479 -0.1670
 7093TIP3   OH221219   3.234   7.032   5.956  0.5745  0.2100  0.2371
 7093TIP3    H121220   3.258   7.057   5.866  0.5159  0.1016  0.1910
 7093TIP3    H221221   3.149   7.073   5.971 -0.6036 -1.7679 -0.6387
 7094TIP3   OH221222   0.820   5.255   0.377 -0.4953  0.4924  0.3592
 7094TIP3    H121223   0.791   5.336   0.418  0.1264  1.3641 -0.8520
 7094TIP3    H221224   0.872   5.211   0.444  0.7145  1.9962  0.4748
 7095TIP3   OH221225   1.410   2.429   6.099 -0.0763  0.5439  0.0043
 7095TIP3    H121226   1.357   2.464   6.027 -0.8404  0.7580  0.6528
 7095TIP3    H221227   1.499   2.460   6.081 -0.3927  1.2161 -0.4560
 7096TIP3   OH221228   1.646   4.409   6.532 -0.5494 -0.0307 -0.1534
 7096TIP3    H121229   1.670   4.459   6.454 -0.8764  1.8434  0.8930
 7096TIP3    H221230   1.713   4.341   6.538 -0.3520 -0.0283 -1.8919
 7097TIP3   OH221231   7.751   2.942   0.769  0.6106  0.1069  0.1898
 7097TIP3    H121232   7.721   2.951   0.859 -0.5462  2.1823 -0.3274
 7097TIP3    H221233   7.709   2.863   0.736  1.6435 -1.1037  1.6376
 7098TIP3   OH221234   6.036   6.703   2.817  0.5016 -0.1416  0.5970
 7098TIP3    H121235   6.105   6.687   2.881  0.4552 -0.8995  0.4691
 7098TIP3    H221236   6.033   6.623   2.764  0.8765  0.6591 -0.6826
 7099TIP3   OH221237   2.077   4.367   4.097 -0.2999 -0.0080 -0.0367
 7099TIP3    H121238   2.061   4.406   4.011 -0.6765 -0.7111 -0.2953
 7099TIP3    H221239   2.161   4.322   4.087  0.9390  1.9905  0.7243
 7100TIP3   OH221240   5.783   1.624   4.110 -0.1168 -0.3181  0.3428
 7100TIP3    H121241   5.849   1.630   4.040  1.6247  0.3342  1.9605
 7100TIP3    H221242   5.779   1.713   4.146 -2.8289 -0.0110 -0.4524
 7101TIP3   OH221243   1.964   2.450   4.585 -0.0728 -0.1660  0.6010
 7101TIP3    H121244   2.031   2.517   4.578  0.7894 -0.9145  1.4262
 7101TIP3    H221245   1.900   2.487   4.647 -0.3806  0.4921 -0.0895
 7102TIP3   OH221246   0.086   1.331   3.847  0.1680  0.5556  0.5685
 7102TIP3    H121247   0.019   1.315   3.780 -0.2522  0.2648  1.0541
 7102TIP3    H221248   0.099   1.426   3.846  1.6506  0.3842 -1.3439
 7103TIP3   OH221249   7.515   7.752   2.911 -0.4737  0.0040  0.6147
 7103TIP3    H121250   7.579   7.721   2.975  0.4482 -0.7686 -0.6343
 7103TIP3    H221251   7.433   7.709   2.936  0.2095 -1.4774  0.4161
 7104TIP3   OH221252   4.239   3.276   6.215 -0.2592 -0.0889  0.1219
 7104TIP3    H121253   4.297   3.200   6.209 -1.2834 -0.9282  0.5750
 7104TIP3    H221254   4.165   3.256   6.158 -0.3387  0.7733 -0.1045
 7105TIP3   OH221255   0.312   5.293   6.467 -0.8104  0.4191 -0.0489
 7105TIP3    H121256   0.376   5.226   6.443 -1.5063 -0.7279  1.1668
 7105TIP3    H221257   0.280   5.327   6.383 -0.5853 -0.9015 -0.6879
 7106TIP3   OH221258   5.707   3.852   1.435  0.2030 -0.0854  0.6078
 7106TIP3    H121259   5.706   3.758   1.450  1.2663 -0.3384 -0.6975
 7106TIP3    H221260   5.722   3.890   1.521 -1.7587 -1.0100  1.3915
 7107TIP3   OH221261   3.766   7.942   4.446 -0.1231  0.0904 -0.0103
 7107TIP3    H121262   3.773   7.847   4.438  2.5890  0.1995  0.2000
 7107TIP3    H221263   3.731   7.955   4.534  0.8909 -0.7310  0.5441
 7108TIP3   OH221264   6.828   5.819   5.086  0.3927 -0.0028  0.5020
 7108TIP3    H121265   6.906   5.845   5.134  0.2211  1.0849  0.2179
 7108TIP3    H221266   6.761   5.881   5.114  0.1005  0.1802 -0.5765
 7109TIP3   OH221267   2.211   6.287   4.409  0.2502 -0.5838  0.6090
 7109TIP3    H121268   2.128   6.295   4.361  0.2134 -3.6111 -0.0205
 7109TIP3    H221269   2.264   6.360   4.376 -0.9646 -0.5852 -1.5927
 7110TIP3   OH221270   7.246   4.298   0.865 -0.5290 -0.1069 -0.9202
 7110TIP3    H121271   7.262   4.213   0.904 -0.4237  0.5154  0.4529
 7110TIP3    H221272   7.310   4.305   0.794  1.7493  0.1277  1.0177
 7111TIP3   OH221273   0.328   1.481   0.464  0.9380 -0.1935 -0.4540
 7111TIP3    H121274   0.390   1.408   0.471  2.0363  0.7839  0.5053
 7111TIP3    H221275   0.378   1.552   0.424  0.2821  0.4365 -0.2033
 7112TIP3   OH221276   6.329   4.262   1.670  0.1166 -0.1454 -0.0239
 7112TIP3    H121277   6.307   4.348   1.635 -0.7979 -0.0236  0.7990
 7112TIP3    H221278   6.251   4.209   1.656  0.8195 -0.9884 -0.9131
 7113TIP3   OH221279   5.535   4.347   6.211 -0.1092  0.0696 -0.3128
 7113TIP3    H121280   5.446   4.335   6.243 -0.1085  0.3163 -0.2199
 7113TIP3    H221281   5.581   4.269   6.241 -0.1737  0.1750  0.0682
 7114TIP3   OH221282   1.218   7.278   0.337 -0.0037  0.0317 -0.4205
 7114TIP3    H121283   1.166   7.346   0.296 -2.4729 -0.8031  1.0356
 7114TIP3    H221284   1.246   7.316   0.420 -1.6133 -0.7057  0.5174
 7115TIP3   OH221285   6.856   1.936   3.454  0.7424 -0.3972 -0.0122
 7115TIP3    H121286   6.932   1.920   3.398  1.5929 -1.1908  1.3242
 7115TIP3    H221287   6.828   1.849   3.482  0.7106  0.0136  1.2880
 7116TIP3   OH221288   5.695   7.126   3.640  0.2218  0.2242 -0.1487
 7116TIP3    H121289   5.667   7.171   3.720  2.9152 -0.7903  1.5361
 7116TIP3    H221290   5.735   7.045   3.672 -0.6089 -1.3265 -2.7468
 7117TIP3   OH221291   1.202   6.037   1.858  0.8454 -0.1205  0.1328
 7117TIP3    H121292   1.250   6.075   1.932 -0.6277  0.7523  0.6921
 7117TIP3    H221293   1.196   5.944   1.879 -1.7213  0.4312  2.5150
 7118TIP3   OH221294   7.208   0.974   3.319 -0.0213 -0.2527  0.3744
 7118TIP3    H121295   7.191   0.899   3.262  0.9958  1.4362 -2.3796
 7118TIP3    H221296   7.280   0.945   3.376 -0.9521 -1.9613  0.7346
 7119TIP3   OH221297   4.260   7.685   6.179  0.4769  0.0302  0.0513
 7119TIP3    H121298   4.175   7.667   6.138  0.3371  0.0706  0.3224
 7119TIP3    H221299   4.290   7.599   6.210 -0.2372  0.2438  1.4365
 7120TIP3   OH221300   6.700   2.053   5.601 -0.2649 -0.2060 -0.1370
 7120TIP3    H121301   6.744   1.985   5.651  0.8680  0.5914 -0.0177
 7120TIP3    H221302   6.607   2.037   5.616  0.0085  0.3318  2.7262
 7121TIP3   OH221303   2.626   6.067   5.086 -0.0250 -0.2561  0.1971
 7121TIP3    H121304   2.560   6.002   5.109  1.0876 -1.5014 -0.0437
 7121TIP3    H221305   2.680   6.076   5.165 -1.7956  2.5256  1.2582
 7122TIP3   OH221306   5.892   7.086   1.380 -0.3929 -0.4721 -0.2032
 7122TIP3    H121307   5.821   7.104   1.318  1.2206  0.1365 -2.0078
 7122TIP3    H221308   5.915   7.172   1.415  0.3786 -0.4317 -0.7669
 7123TIP3   OH221309   5.100   4.804   0.326  0.6468  0.1846 -0.7541
 7123TIP3    H121310   5.063   4.727   0.284 -0.5016  1.1197 -1.5078
 7123TIP3    H221311   5.065   4.878   0.276  3.2493  1.1563 -1.2945
 7124TIP3   OH221312   5.361   0.929   4.345  0.6451  0.9030 -0.2202
 7124TIP3    H121313   5.326   0.901   4.429  0.9918  0.0302 -0.3557
 7124TIP3    H221314   5.435   0.871   4.329  2.0134  2.5242 -0.0778
 7125TIP3   OH221315   3.144   5.184   0.270  0.2679 -0.3378 -0.4196
 7125TIP3    H121316   3.197   5.228   0.336  0.9980 -1.0840 -0.4978
 7125TIP3    H221317   3.069   5.149   0.318  0.1618  0.1742 -0.2050
 7126TIP3   OH221318   1.320   2.579   3.641  0.8849 -0.4555  0.2030
 7126TIP3    H121319   1.230   2.564   3.613  0.1867  0.6927  1.6576
 7126TIP3    H221320   1.368   2.597   3.561 -0.2277 -0.8434 -0.5723
 7127TIP3   OH221321   7.372   7.555   5.251  0.1277 -0.0224  0.3154
 7127TIP3    H121322   7.293   7.550   5.197  0.3457 -1.1422  0.0763
 7127TIP3    H221323   7.426   7.622   5.209 -1.1533  1.6010  1.1420
 7128TIP3   OH221324   5.512   2.890   0.881  0.3813 -0.0400  0.6203
 7128TIP3    H121325   5.435   2.850   0.922 -0.9310  1.5783 -0.1336
 7128TIP3    H221326   5.570   2.909   0.955 -0.2120 -0.7358  1.2866
 7129TIP3   OH221327   6.189   0.774   0.659 -0.0756 -0.7970 -0.3283
 7129TIP3    H121328   6.158   0.789   0.570  0.7325  0.3575 -0.4462
 7129TIP3    H221329   6.269   0.723   0.648  0.1660 -0.4310 -0.2897
 7130TIP3   OH221330   3.879   2.776   3.800 -0.1620  0.1771  0.4176
 7130TIP3    H121331   3.822   2.825   3.860  0.2833  2.4028 -0.8747
 7130TIP3    H221332   3.960   2.827   3.798  0.5571 -0.9815 -0.5336
 7131TIP3   OH221333   7.263   0.925   6.414 -0.2196 -0.0098 -0.4783
 7131TIP3    H121334   7.320   0.849   6.425 -0.7706 -1.0674 -3.9015
 7131TIP3    H221335   7.184   0.904   6.464  1.1438  0.1909  1.9021
 7132TIP3   OH221336   7.203   1.310   0.911 -0.4759 -0.4638 -0.3552
 7132TIP3    H121337   7.283   1.265   0.882  0.7831  0.7574  1.0180
 7132TIP3    H221338   7.134   1.275   0.855  0.9081 -2.0289 -1.1788
 7133TIP3   OH221339   1.982   3.490   0.705 -0.5435 -0.4526 -0.0694
 7133TIP3    H121340   2.023   3.572   0.679 -1.1970  0.4425  1.5461
 7133TIP3    H221341   1.922   3.469   0.634 -0.1829  0.3326 -0.6227
 7134TIP3   OH221342   7.365   7.523   0.940  0.3234  0.0584  0.6237
 7134TIP3    H121343   7.419   7.515   1.019 -0.3094  0.3404  1.0982
 7134TIP3    H221344   7.366   7.616   0.919  0.1237  0.0500  0.5706
 7135TIP3   OH221345   2.408   7.119   3.820 -0.1964 -0.0949  0.4972
 7135TIP3    H121346   2.471   7.165   3.876  0.1196 -0.1300  0.1805
 7135TIP3    H221347   2.352   7.188   3.785  1.0342  0.2470 -0.9408
 7136TIP3   OH221348   3.011   3.509   1.928  0.0348 -0.2660  0.2124
 7136TIP3    H121349   2.998   3.430   1.874 -0.6163 -0.2055  0.2730
 7136TIP3    H221350   3.058   3.477   2.005  1.3319 -0.2890 -0.5482
 7137TIP3   OH221351   2.319   1.462   3.210  0.1505  0.2593  0.2767
 7137TIP3    H121352   2.353   1.391   3.156 -0.0163 -0.9152  1.6492
 7137TIP3    H221353   2.382   1.533   3.200  0.3832 -0.1120 -1.0334
 7138TIP3   OH221354   8.079   5.201   2.378  0.4149 -0.1858 -0.2879
 7138TIP3    H121355   8.040   5.278   2.419  1.0585  0.3944 -0.7670
 7138TIP3    H221356   8.082   5.221   2.285 -1.8965 -1.8552 -0.8442
 7139TIP3   OH221357   1.120   5.575   6.523  0.2436 -0.2876  0.1081
 7139TIP3    H121358   1.180   5.618   6.585 -0.7270  0.0680  0.8272
 7139TIP3    H221359   1.178   5.524   6.466  1.5241  2.2768 -1.0789
 7140TIP3   OH221360   2.681   4.329   3.310  0.2589  0.0279  0.0443
 7140TIP3    H121361   2.725   4.413   3.296  0.4715  0.0211  0.6767
 7140TIP3    H221362   2.701   4.305   3.400 -0.2554 -0.4378  0.0432
 7141TIP3   OH221363   7.360   4.726   3.112 -0.3100 -0.1685 -0.2830
 7141TIP3    H121364   7.419   4.766   3.176 -0.6543 -0.4944  0.2471
 7141TIP3    H221365   7.416   4.671   3.058 -0.2010 -1.0208  0.6517
 7142TIP3   OH221366   3.604   0.926   1.531 -0.1865  0.3971 -0.6670
 7142TIP3    H121367   3.609   0.985   1.607 -2.2365  2.1172 -1.7495
 7142TIP3    H221368   3.671   0.860   1.547 -0.3499  0.8525  2.4922
 7143TIP3   OH221369   6.567   5.786   4.354 -0.8479  0.3015 -0.4165
 7143TIP3    H121370   6.524   5.869   4.333 -0.5608  0.4570 -0.3896
 7143TIP3    H221371   6.522   5.721   4.300 -0.7367  0.5515 -0.8102
 7144TIP3   OH221372   1.652   0.974   2.017  0.3124  0.3531  0.2872
 7144TIP3    H121373   1.660   0.953   2.110 -1.1592 -0.4459  0.2580
 7144TIP3    H221374   1.695   0.900   1.973  0.1826  0.2606  0.3142
 7145TIP3   OH221375   4.336   4.899   1.621 -0.5005  0.3483 -0.6925
 7145TIP3    H121376   4.305   4.960   1.688 -1.6361  0.1415 -0.9984
 7145TIP3    H221377   4.364   4.955   1.548 -2.6507  0.5443 -1.4501
 7146TIP3   OH221378   8.315   6.417   3.313  0.1394  0.6414 -0.1952
 7146TIP3    H121379   8.312   6.378   3.226  1.5607  0.2249 -0.0946
 7146TIP3    H221380   8.250   6.369   3.364 -1.0528  1.2191 -1.1383
 7147TIP3   OH221381   6.429   7.830  -0.008  0.5448  0.2117  0.1727
 7147TIP3    H121382   6.480   7.761   0.035  1.4579  0.0756 -1.0523
 7147TIP3    H221383   6.461   7.911   0.031  0.0629  0.0008  1.0256
 7148TIP3   OH221384   6.317   2.091   6.512  0.0753  0.2678  0.0473
 7148TIP3    H121385   6.349   2.132   6.432  1.8604 -0.5118  0.3068
 7148TIP3    H221386   6.250   2.030   6.482 -1.4786  2.1629 -0.4998
 7149TIP3   OH221387   2.876   4.416   5.337  0.1832 -0.1232 -0.8537
 7149TIP3    H121388   2.950   4.368   5.300  1.0109 -1.1098  1.8106
 7149TIP3    H221389   2.900   4.508   5.327  0.1427 -0.3125 -3.0427
 7150TIP3   OH221390   5.646   3.644   3.518  0.1904 -0.1429 -0.2770
 7150TIP3    H121391   5.662   3.551   3.532  3.0860  0.3087  0.0754
 7150TIP3    H221392   5.704   3.688   3.579 -2.4413  1.9957  0.9054
 7151TIP3   OH221393   0.763   6.801   0.377 -0.1469 -0.4733 -0.3632
 7151TIP3    H121394   0.701   6.874   0.380 -1.6927 -1.7623  1.3624
 7151TIP3    H221395   0.760   6.772   0.285  0.9822  1.9365 -1.2415
 7152TIP3   OH221396   5.476   0.495   2.445  0.4518  0.1969 -0.9424
 7152TIP3    H121397   5.533   0.452   2.382  2.4986  0.4641  0.6228
 7152TIP3    H221398   5.465   0.430   2.515 -1.0030  0.2331 -1.1156
 7153TIP3   OH221399   2.641   7.353   4.691  0.3381  0.2960 -0.6674
 7153TIP3    H121400   2.708   7.299   4.733  0.1869  0.0378 -0.7572
 7153TIP3    H221401   2.582   7.377   4.762  0.2206  0.0657 -0.6855
 7154TIP3   OH221402   5.556   0.550   1.350  0.4978  0.1054  0.3241
 7154TIP3    H121403   5.560   0.645   1.338  0.6071  0.6817  3.7812
 7154TIP3    H221404   5.472   0.524   1.312  0.7252  1.4413 -1.2072
 7155TIP3   OH221405   3.011   0.182   3.715  0.9904 -0.1391 -0.3510
 7155TIP3    H121406   2.980   0.178   3.806  0.5185  0.7588 -0.4652
 7155TIP3    H221407   3.047   0.094   3.699 -0.8901 -1.0337  0.0121
 7156TIP3   OH221408   6.326   2.444   5.992  0.3840 -0.3680 -0.7941
 7156TIP3    H121409   6.264   2.433   6.064 -0.1522  0.2190 -1.1433
 7156TIP3    H221410   6.412   2.446   6.033  0.0533  0.4250 -0.1168
 7157TIP3   OH221411   1.995   2.061   5.405 -0.1702  0.2767 -0.1294
 7157TIP3    H121412   1.938   2.129   5.442  0.8671  0.9850  0.2074
 7157TIP3    H221413   1.950   1.979   5.425 -0.7085  0.7751  0.7851
 7158TIP3   OH221414   1.665   2.085   0.516  0.1605  0.4723 -0.1846
 7158TIP3    H121415   1.660   2.116   0.425 -0.3413  0.1619 -0.2693
 7158TIP3    H221416   1.700   2.159   0.564 -0.7927  1.1105 -0.4270
 7159TIP3   OH221417   3.232   3.739   0.969 -0.2998  0.3813  0.5983
 7159TIP3    H121418   3.283   3.662   0.944 -0.3229 -0.3221  2.5285
 7159TIP3    H221419   3.252   3.804   0.902  0.5530 -0.9491 -0.4993
 7160TIP3   OH221420   2.015   1.400   5.938 -0.0835 -0.0211 -0.4559
 7160TIP3    H121421   2.046   1.414   6.028 -1.4416 -0.2432  0.0658
 7160TIP3    H221422   2.096   1.391   5.887  0.7152 -1.0215  0.9049
 7161TIP3   OH221423   8.348   4.255   3.951  0.1740 -0.3227  0.1928
 7161TIP3    H121424   8.425   4.304   3.921  0.9047  0.2274  2.7538
 7161TIP3    H221425   8.377   4.213   4.032 -1.6656 -1.7734  0.1680
 7162TIP3   OH221426   6.707   2.039   4.020 -0.2858  0.4044  0.0459
 7162TIP3    H121427   6.785   1.998   3.981 -0.4925 -0.9053  0.9741
 7162TIP3    H221428   6.638   1.974   4.011 -0.2749 -0.1115  2.8374
 7163TIP3   OH221429   2.931   2.452   5.904 -0.1910  0.0959 -0.2661
 7163TIP3    H121430   2.861   2.506   5.941  0.3071  2.0354 -1.9861
 7163TIP3    H221431   2.896   2.421   5.821  0.2132 -0.7845 -0.1257
 7164TIP3   OH221432   7.320   1.951   2.459  0.1091  0.3899  0.4669
 7164TIP3    H121433   7.380   2.016   2.420  1.0268  1.1166  2.9176
 7164TIP3    H221434   7.358   1.867   2.435  0.6583  0.8003 -0.1648
 7165TIP3   OH221435   6.362   3.046   4.641 -0.0139  0.5893 -0.2097
 7165TIP3    H121436   6.302   3.120   4.632  0.4732  1.0820  0.4521
 7165TIP3    H221437   6.436   3.068   4.585  0.3316  0.8286  0.3278
 7166TIP3   OH221438   1.437   1.553   6.181 -0.2145  0.3359 -0.2603
 7166TIP3    H121439   1.341   1.547   6.175 -0.1527 -0.0079 -1.0830
 7166TIP3    H221440   1.466   1.462   6.187  0.1155  0.3736 -1.1606
 7167TIP3   OH221441   5.264   2.459   5.460 -0.6311  0.0105  0.1780
 7167TIP3    H121442   5.290   2.380   5.508 -1.0213 -1.0836 -1.3498
 7167TIP3    H221443   5.338   2.477   5.402 -0.2705  1.1721  0.9730
 7168TIP3   OH221444   5.183   5.398   3.277  0.5735 -0.3521 -0.5656
 7168TIP3    H121445   5.130   5.470   3.243  0.0107 -0.3883  0.2275
 7168TIP3    H221446   5.267   5.407   3.231  0.1154  0.0939 -1.3499
 7169TIP3   OH221447   4.809   1.061   0.559 -0.0242 -0.0699 -0.3573
 7169TIP3    H121448   4.822   0.967   0.577  0.0402 -0.4349 -2.1549
 7169TIP3    H221449   4.733   1.064   0.502 -0.0017  0.9898 -0.3482
 7170TIP3   OH221450   5.478   5.400   3.200 -0.0827 -0.1849  0.0671
 7170TIP3    H121451   5.442   5.311   3.209  0.7057 -0.3805  1.5734
 7170TIP3    H221452   5.541   5.393   3.128  0.2971 -0.9639  0.4664
 7171TIP3   OH221453   6.231   0.022   4.326 -0.3431  0.1387 -0.0853
 7171TIP3    H121454   6.267  -0.023   4.402 -2.2515 -1.5667 -0.1028
 7171TIP3    H221455   6.141   0.044   4.352 -1.5502 -1.7383 -2.2242
 7172TIP3   OH221456   5.566   2.844   0.238 -0.1631 -0.6364 -0.1512
 7172TIP3    H121457   5.659   2.827   0.221 -0.6197 -3.1207 -0.4927
 7172TIP3    H221458   5.554   2.821   0.330 -0.2780  0.6285  0.1697
 7173TIP3   OH221459   5.456   3.155   6.631  0.2618 -0.1377  0.2084
 7173TIP3    H121460   5.483   3.135   6.541 -1.9861  0.3182 -0.6486
 7173TIP3    H221461   5.480   3.247   6.643  1.0260 -0.3408  0.2736
 7174TIP3   OH221462   0.954   2.492   1.438 -0.6575 -0.3227 -0.0686
 7174TIP3    H121463   0.945   2.556   1.368  2.5528 -0.1375 -0.4831
 7174TIP3    H221464   0.952   2.543   1.519 -0.0506  0.0738 -0.2971
 7175TIP3   OH221465   2.906   0.484   5.125  0.3135 -0.0276  0.8627
 7175TIP3    H121466   2.879   0.514   5.212  0.0201 -2.5961  1.7305
 7175TIP3    H221467   2.998   0.460   5.135  0.2757 -0.3488  0.4791
 7176TIP3   OH221468   5.761   1.749   0.834 -0.1315  0.3903 -0.0103
 7176TIP3    H121469   5.686   1.793   0.795  0.7667  2.0231  0.0364
 7176TIP3    H221470   5.828   1.817   0.844  0.6209 -0.5244  1.9308
 7177TIP3   OH221471   1.379   7.624   6.121 -0.3690  0.0050 -0.2974
 7177TIP3    H121472   1.412   7.537   6.143 -0.1801  0.6129  2.1750
 7177TIP3    H221473   1.382   7.672   6.204 -1.5048  2.0376 -1.3523
 7178TIP3   OH221474   3.436   0.962   3.349 -0.4223 -0.0366  0.4134
 7178TIP3    H121475   3.354   0.993   3.387 -1.2161 -1.3018 -0.2235
 7178TIP3    H221476   3.410   0.911   3.273  1.0445  0.8362 -0.7352
 7179TIP3   OH221477   6.702   3.572   4.450 -0.0658 -0.1606  0.1901
 7179TIP3    H121478   6.783   3.543   4.410 -0.1894 -0.1261 -0.0868
 7179TIP3    H221479   6.722   3.579   4.544  0.5268  0.7883  0.0057
 7180TIP3   OH221480   2.817   3.414   1.706 -0.4132  0.0837  0.0015
 7180TIP3    H121481   2.747   3.463   1.749  0.4932  0.0514  1.5931
 7180TIP3    H221482   2.789   3.323   1.709 -1.0889  0.2437 -0.9710
 7181TIP3   OH221483   7.519   3.545   5.382  0.7270  0.2970 -0.4665
 7181TIP3    H121484   7.499   3.563   5.474  0.3022  0.2728 -0.5508
 7181TIP3    H221485   7.601   3.591   5.365  0.9922  0.0173  0.0192
 7182TIP3   OH221486   0.121   2.269   2.859  0.6189 -0.2090 -0.5068
 7182TIP3    H121487   0.086   2.352   2.828 -0.3560 -0.6466 -0.6169
 7182TIP3    H221488   0.059   2.203   2.827  1.6571 -1.0363 -0.8806
 7183TIP3   OH221489   3.139   5.211   6.832  0.2888  0.3769  0.1672
 7183TIP3    H121490   3.169   5.270   6.901  1.0172 -0.3489  0.4824
 7183TIP3    H221491   3.183   5.243   6.753 -0.4720  1.1499  0.0436
 7184TIP3   OH221492   0.567   7.077   4.124 -0.1134  0.2030  0.0908
 7184TIP3    H121493   0.582   6.992   4.166 -0.4392  0.8204  1.5069
 7184TIP3    H221494   0.628   7.137   4.167 -1.0365  1.0307  0.2896
 7185TIP3   OH221495   6.655   6.330   6.093  0.3965 -0.2074 -0.2020
 7185TIP3    H121496   6.716   6.315   6.165 -1.2229 -1.7627  0.9366
 7185TIP3    H221497   6.599   6.401   6.124  0.9699  0.5528 -0.8448
 7186TIP3   OH221498   6.263   1.979   4.417 -0.0305  0.1976  0.1019
 7186TIP3    H121499   6.287   1.964   4.326 -0.0257 -1.5040  0.3581
 7186TIP3    H221500   6.172   2.011   4.413 -0.5620 -1.3183 -0.4403
 7187TIP3   OH221501   7.962   0.031   5.747 -0.5156  0.0688 -0.2188
 7187TIP3    H121502   7.930   0.120   5.734 -0.5305 -0.2189 -2.6934
 7187TIP3    H221503   8.047   0.042   5.789 -1.7058  1.0427  2.1876
 7188TIP3   OH221504   6.251   7.024   2.545  0.1917  0.4274  0.1786
 7188TIP3    H121505   6.206   6.969   2.481  0.5860  0.1659  0.1238
 7188TIP3    H221506   6.322   6.969   2.578  0.8571  1.0453 -0.1931
 7189TIP3   OH221507   5.586   5.584   5.966  0.4410 -0.5964  0.4180
 7189TIP3    H121508   5.675   5.620   5.960  0.6913 -1.2060  0.3270
 7189TIP3    H221509   5.599   5.496   6.001 -0.3176  0.1333  2.7160
 7190TIP3   OH221510   2.536   0.741   5.179 -0.0135  0.2519  0.0324
 7190TIP3    H121511   2.531   0.649   5.202  0.7532 -0.4485 -2.3211
 7190TIP3    H221512   2.445   0.769   5.170 -0.2417 -0.4422  0.1390
 7191TIP3   OH221513   2.435   2.180   4.066 -0.2275  0.1838  0.0818
 7191TIP3    H121514   2.413   2.180   4.159 -1.1774  2.4548 -0.0954
 7191TIP3    H221515   2.530   2.189   4.063 -0.0408 -1.2172  0.7941
 7192TIP3   OH221516   8.331   5.232   1.900  0.3712 -0.3129 -0.0191
 7192TIP3    H121517   8.319   5.315   1.947 -1.7204 -0.3476 -0.3921
 7192TIP3    H221518   8.394   5.253   1.831 -0.0331  0.9774 -0.0360
 7193TIP3   OH221519   1.632   5.279   5.104 -0.4136  0.0786  0.3973
 7193TIP3    H121520   1.627   5.209   5.169  0.6104 -0.3674  0.0240
 7193TIP3    H221521   1.726   5.297   5.096 -0.4186 -0.5361 -1.6430
 7194TIP3   OH221522   2.864   1.769   2.987 -0.2023 -0.7631  0.0789
 7194TIP3    H121523   2.778   1.734   2.961 -0.9271 -0.4379  1.8564
 7194TIP3    H221524   2.884   1.724   3.069  0.8125 -0.0402  0.2460
 7195TIP3   OH221525   2.096   6.203   5.054 -0.1812 -0.4105  0.5702
 7195TIP3    H121526   2.159   6.238   5.117 -1.6609  1.1178  1.3038
 7195TIP3    H221527   2.052   6.281   5.020 -0.0086 -1.2699 -1.7580
 7196TIP3   OH221528   0.899   4.954   1.637 -0.3551  0.1714 -0.1234
 7196TIP3    H121529   0.939   5.002   1.565 -2.6837  1.5040 -0.6042
 7196TIP3    H221530   0.939   4.867   1.633  2.7213  1.4660 -0.2750
 7197TIP3   OH221531   5.465   6.470   1.108  0.0447  0.1120 -0.1495
 7197TIP3    H121532   5.508   6.474   1.023  0.7866  0.6896  0.2349
 7197TIP3    H221533   5.493   6.550   1.153  0.1841 -0.4938  0.8819
 7198TIP3   OH221534   0.734   6.438   4.166 -0.2141  0.0174  0.2447
 7198TIP3    H121535   0.664   6.383   4.203 -1.8984  0.4303 -2.0727
 7198TIP3    H221536   0.722   6.523   4.207 -0.5233 -0.1407  0.4902
 7199TIP3   OH221537   1.140   1.199   2.111 -0.1851 -0.1985 -0.3553
 7199TIP3    H121538   1.206   1.170   2.048 -0.3496  1.6047 -1.4578
 7199TIP3    H221539   1.168   1.288   2.135 -0.0453 -0.8945  2.2962
 7200TIP3   OH221540   3.676   3.228   3.921 -0.1065  0.3559  0.3607
 7200TIP3    H121541   3.685   3.313   3.966  0.6183  0.8475 -0.6676
 7200TIP3    H221542   3.763   3.189   3.926 -0.0361  0.3733 -0.4970
 7201TIP3   OH221543   2.903   0.710   6.183 -0.3108 -0.1555  0.2355
 7201TIP3    H121544   2.852   0.782   6.147  0.0114 -0.1317 -0.1849
 7201TIP3    H221545   2.838   0.649   6.218 -0.7469 -0.9084 -1.7149
 7202TIP3   OH221546   3.563   4.807   6.292  0.0074 -0.1482  0.0987
 7202TIP3    H121547   3.561   4.882   6.352 -0.7117  0.5707 -0.7946
 7202TIP3    H221548   3.656   4.784   6.285  0.0297 -1.2391  2.6467
 7203TIP3   OH221549   3.799   6.077   6.239  0.1210 -0.9196  0.6387
 7203TIP3    H121550   3.709   6.058   6.213  0.5440 -1.1772 -0.6892
 7203TIP3    H221551   3.835   6.127   6.166  0.4494  1.0461  2.0324
 7204TIP3   OH221552   5.965   1.051   2.445 -0.0417  0.3123  0.6386
 7204TIP3    H121553   6.053   1.075   2.415 -0.0222  1.1980  1.3594
 7204TIP3    H221554   5.947   0.968   2.402  1.2054  0.0499  0.5830
 7205TIP3   OH221555   4.722   1.333   4.163  0.1590  0.3325  0.2618
 7205TIP3    H121556   4.675   1.251   4.175  0.0840  0.0833 -1.4517
 7205TIP3    H221557   4.726   1.345   4.068  0.3993  2.1813  0.4594
 7206TIP3   OH221558   3.635   5.848   5.596 -0.1088  0.2222  0.0700
 7206TIP3    H121559   3.699   5.801   5.650 -1.5243 -0.9730  0.7926
 7206TIP3    H221560   3.686   5.881   5.522  1.3473 -0.6427  0.6282
 7207TIP3   OH221561   0.937   0.240   1.301  0.4755 -0.1717 -0.1108
 7207TIP3    H121562   0.997   0.312   1.283 -0.7200  1.0243  0.4062
 7207TIP3    H221563   0.878   0.239   1.226 -1.6661  1.7798  1.3918
 7208TIP3   OH221564   3.385   2.173   4.283 -0.2756  0.0172 -0.2654
 7208TIP3    H121565   3.393   2.090   4.330 -0.0518 -0.6966 -1.5232
 7208TIP3    H221566   3.372   2.238   4.352  2.0379 -0.6963  0.9701
 7209TIP3   OH221567   3.680   1.843   5.231  0.0642 -0.5394 -0.3644
 7209TIP3    H121568   3.590   1.874   5.215  0.4295  0.9150  0.2157
 7209TIP3    H221569   3.668   1.768   5.289 -0.7359  1.1748  1.8627
 7210TIP3   OH221570   3.572   3.655   3.327 -0.1418 -0.0795 -0.0364
 7210TIP3    H121571   3.589   3.720   3.259 -1.0012 -0.1657 -0.3421
 7210TIP3    H221572   3.481   3.628   3.313  0.6260 -2.4424 -0.8291
 7211TIP3   OH221573   6.453   7.871   5.730 -0.0776  0.6378 -0.7095
 7211TIP3    H121574   6.535   7.911   5.757  0.0248 -0.2090  0.3321
 7211TIP3    H221575   6.451   7.880   5.635  1.0624  0.9482 -0.7167
 7212TIP3   OH221576   7.988   0.816   3.928  0.0843  0.1035 -0.2602
 7212TIP3    H121577   7.943   0.893   3.893  2.1895  0.8934 -1.4842
 7212TIP3    H221578   8.029   0.847   4.009 -1.0594 -0.4524  0.5523
 7213TIP3   OH221579   1.839   7.299   2.443 -0.5201  0.5690 -0.0754
 7213TIP3    H121580   1.769   7.331   2.386 -0.9236  0.4375  0.3420
 7213TIP3    H221581   1.879   7.379   2.478  0.0989  0.6695 -0.9654
 7214TIP3   OH221582   7.390   5.413   1.916  0.0631  0.1404  0.5839
 7214TIP3    H121583   7.479   5.416   1.881  0.7173 -1.0630  2.0496
 7214TIP3    H221584   7.345   5.349   1.860  0.9525 -1.3801  1.5533
 7215TIP3   OH221585   5.669   0.138   6.363  0.2084  0.1766 -0.1937
 7215TIP3    H121586   5.739   0.183   6.316 -1.3958  2.0177 -0.9716
 7215TIP3    H221587   5.713   0.093   6.435  2.4320 -0.5885 -1.9042
 7216TIP3   OH221588   2.287   7.909   5.244 -0.2060 -0.1085  0.4900
 7216TIP3    H121589   2.360   7.953   5.202  0.6436 -0.3350  1.6735
 7216TIP3    H221590   2.228   7.887   5.172  0.2474  1.2449 -0.3420
 7217TIP3   OH221591   4.537   3.262   1.094 -0.2207  0.2062  0.0595
 7217TIP3    H121592   4.586   3.198   1.144  0.1172  2.4570  2.8901
 7217TIP3    H221593   4.464   3.213   1.056  1.7716 -2.3758 -0.6748
 7218TIP3   OH221594   5.211   5.279   2.117 -0.2051 -0.0647  0.4829
 7218TIP3    H121595   5.278   5.222   2.155  0.2059 -0.0602 -0.2080
 7218TIP3    H221596   5.227   5.275   2.023  0.1695  1.5983  0.4337
 7219TIP3   OH221597   8.224   5.992   4.493  0.4427 -0.1921  0.3167
 7219TIP3    H121598   8.211   5.909   4.446  0.4200 -1.8341  3.0167
 7219TIP3    H221599   8.138   6.011   4.530  0.3612  1.2952 -0.5711
 7220TIP3   OH221600   8.267   3.476   2.734 -0.6790  0.2684 -0.0200
 7220TIP3    H121601   8.222   3.513   2.658  1.8417  1.9382 -0.8572
 7220TIP3    H221602   8.261   3.545   2.801 -0.5375 -0.0499  0.3217
 7221TIP3   OH221603   8.358   2.699   1.338  0.5975 -0.0938 -0.8603
 7221TIP3    H121604   8.432   2.639   1.355  0.6807  0.5701  1.3428
 7221TIP3    H221605   8.375   2.774   1.394 -0.9763  0.7681 -1.4965
 7222TIP3   OH221606   6.159   5.114   5.937 -0.4208  0.6897  0.3802
 7222TIP3    H121607   6.063   5.107   5.930 -0.2451 -0.7220 -1.3167
 7222TIP3    H221608   6.192   5.058   5.867  1.6760  0.4230  1.5098
 7223TIP3   OH221609   8.363   1.246   0.537 -0.5150  0.1061 -0.0613
 7223TIP3    H121610   8.439   1.210   0.491 -0.5805 -1.5111  1.0029
 7223TIP3    H221611   8.398   1.285   0.617 -0.5058  2.0842 -0.9747
 7224TIP3   OH221612   2.354   7.111   5.260 -0.1584  0.0883  0.2640
 7224TIP3    H121613   2.331   7.198   5.226 -1.2059  0.7747  2.5366
 7224TIP3    H221614   2.309   7.050   5.201 -0.6435  1.1330 -0.4884
 7225TIP3   OH221615   4.711   5.638   1.943 -0.6622 -0.0411 -0.3034
 7225TIP3    H121616   4.678   5.665   2.029  1.2622  0.7672  0.2411
 7225TIP3    H221617   4.663   5.692   1.881 -2.7541 -1.2807  0.1221
 7226TIP3   OH221618   2.682   1.186   3.871  0.5002  0.2488  0.6249
 7226TIP3    H121619   2.674   1.252   3.802  0.6964 -0.2821  0.0910
 7226TIP3    H221620   2.757   1.215   3.924  0.7575  0.3007  0.2311
 7227TIP3   OH221621   4.191   2.112   6.664 -0.3810 -0.6446 -0.1207
 7227TIP3    H121622   4.151   2.181   6.610 -1.1202 -0.2447  0.8947
 7227TIP3    H221623   4.191   2.149   6.753  1.6645 -0.9037  0.0354
 7228TIP3   OH221624   2.377   1.202   0.649 -0.2715  0.1332 -0.0832
 7228TIP3    H121625   2.463   1.234   0.675 -0.1721 -0.3940  0.2417
 7228TIP3    H221626   2.394   1.151   0.569 -0.3796  0.5738 -0.3938
 7229TIP3   OH221627   4.278   0.338   5.648 -0.4122  0.2731  0.0084
 7229TIP3    H121628   4.352   0.324   5.589 -0.5676 -1.4518  0.1605
 7229TIP3    H221629   4.303   0.294   5.729 -2.1307 -1.6123 -0.4044
 7230TIP3   OH221630   1.002   5.194   2.651  0.2242 -0.2495 -0.3602
 7230TIP3    H121631   1.054   5.220   2.727 -0.8760 -1.3474  0.8428
 7230TIP3    H221632   0.941   5.266   2.638 -1.2462 -1.0629  1.4572
 7231TIP3   OH221633   4.776   6.813   2.731 -0.0999  0.0883  0.3005
 7231TIP3    H121634   4.762   6.877   2.661  0.5155  0.8760  0.8719
 7231TIP3    H221635   4.757   6.862   2.812 -2.2223 -1.1836  0.6588
 7232TIP3   OH221636   1.896   0.609   0.730  0.3047 -0.8244  0.0371
 7232TIP3    H121637   1.835   0.602   0.803  1.2834  0.0081  0.9794
 7232TIP3    H221638   1.843   0.594   0.652 -1.1088 -0.0438  0.8131
 7233TIP3   OH221639   1.424   3.241   0.083 -0.0561 -0.0895 -0.0506
 7233TIP3    H121640   1.512   3.234   0.046 -0.0097  2.2556 -0.4901
 7233TIP3    H221641   1.394   3.150   0.090  2.4812 -0.9603  0.3550
 7234TIP3   OH221642   4.374   4.428   3.873  0.3125  0.1370  0.1835
 7234TIP3    H121643   4.361   4.406   3.965  1.7439  1.6132  0.7947
 7234TIP3    H221644   4.466   4.409   3.856  0.1460  0.1964 -0.8626
 7235TIP3   OH221645   4.443   4.787   5.002  0.2854 -0.0275 -0.5583
 7235TIP3    H121646   4.435   4.694   5.021 -1.4054  0.0047 -0.9633
 7235TIP3    H221647   4.411   4.797   4.913 -0.8881  1.1257 -0.0403
 7236TIP3   OH221648   0.564   4.852   1.658 -0.9679  0.0006  0.2948
 7236TIP3    H121649   0.581   4.777   1.601  0.1384 -0.7375  1.5034
 7236TIP3    H221650   0.551   4.926   1.599 -3.0619 -1.2882 -0.9799
 7237TIP3   OH221651   1.112   2.953   6.646  0.4022 -0.3209  0.5143
 7237TIP3    H121652   1.107   3.046   6.668  0.7658 -0.2438  0.2732
 7237TIP3    H221653   1.201   2.927   6.671  0.6771 -0.3379 -0.4391
 7238TIP3   OH221654   6.283   4.454   4.336  0.0217 -1.0573 -0.2158
 7238TIP3    H121655   6.224   4.526   4.313 -2.6581 -1.8609  3.2086
 7238TIP3    H221656   6.342   4.492   4.402 -0.3772 -1.5668  0.4484
 7239TIP3   OH221657   4.800   0.397   6.522  0.3032  0.0275  0.0255
 7239TIP3    H121658   4.737   0.345   6.573 -1.0480  1.0751 -0.5244
 7239TIP3    H221659   4.773   0.488   6.535  1.3289  0.4591 -0.7259
 7240TIP3   OH221660   5.596   5.349   1.745  0.2911  0.5987 -0.2113
 7240TIP3    H121661   5.677   5.359   1.795 -0.0582 -0.4919  0.5979
 7240TIP3    H221662   5.595   5.256   1.719 -1.8530 -0.0592  1.8633
 7241TIP3   OH221663   6.363   6.829   2.065  0.1209  0.5539  0.0071
 7241TIP3    H121664   6.378   6.863   1.977 -1.5029 -0.8929 -0.8974
 7241TIP3    H221665   6.410   6.745   2.067  0.7163  0.8883  0.7805
 7242TIP3   OH221666   5.416   0.627   5.244  0.1999 -0.4887 -0.3257
 7242TIP3    H121667   5.495   0.588   5.281  0.2918 -0.7947 -0.8314
 7242TIP3    H221668   5.359   0.553   5.223  0.0512 -0.3108 -0.5666
 7243TIP3   OH221669   5.550   3.774   0.646 -0.2465 -0.1134  0.0004
 7243TIP3    H121670   5.464   3.752   0.612 -0.3906  1.7090 -0.9319
 7243TIP3    H221671   5.537   3.855   0.695  0.6758 -0.6498  1.2047
 7244TIP3   OH221672   1.945   2.280   1.422 -0.3752 -0.5195 -0.1255
 7244TIP3    H121673   1.956   2.312   1.512 -0.6876  0.1728 -0.3292
 7244TIP3    H221674   2.020   2.221   1.409  2.6458  3.1512 -1.0872
 7245TIP3   OH221675   1.730   3.203   5.652 -0.2056 -0.4210  0.0176
 7245TIP3    H121676   1.659   3.190   5.714  0.8848 -0.9526  1.2157
 7245TIP3    H221677   1.787   3.268   5.694 -0.1584  0.2615 -1.0726
 7246TIP3   OH221678   3.028   0.832   0.682  0.0833 -0.6196  0.6333
 7246TIP3    H121679   2.995   0.791   0.762 -0.6436 -1.9075 -0.2894
 7246TIP3    H221680   3.028   0.761   0.617  0.8979  0.3326 -0.4429
 7247TIP3   OH221681   4.819   4.179   5.771 -0.0395 -0.0610  0.6764
 7247TIP3    H121682   4.796   4.180   5.678 -1.2760  0.0975  0.9605
 7247TIP3    H221683   4.903   4.224   5.776 -0.3201  0.5992 -0.2793
 7248TIP3   OH221684   6.160   5.133   5.092 -0.7936  0.1107 -0.2654
 7248TIP3    H121685   6.247   5.137   5.132 -1.1604 -0.5990  0.6598
 7248TIP3    H221686   6.116   5.212   5.122 -0.5693  0.3212 -0.4896
 7249TIP3   OH221687   1.260   3.911   5.467  0.0042  0.8019 -0.1488
 7249TIP3    H121688   1.211   3.864   5.534  0.2768  1.2036  0.3350
 7249TIP3    H221689   1.351   3.883   5.480  0.0749  0.9777 -0.2703
 7250TIP3   OH221690   3.240   4.797   2.954 -0.5047 -0.1859 -0.2155
 7250TIP3    H121691   3.313   4.822   3.010  0.9806 -1.3092 -1.5744
 7250TIP3    H221692   3.164   4.798   3.012  0.4125  1.8084  1.0641
 7251TIP3   OH221693   3.649   2.854   3.228  0.1974  0.3380 -0.8347
 7251TIP3    H121694   3.660   2.888   3.317 -2.1319 -0.1353 -0.2912
 7251TIP3    H221695   3.669   2.761   3.235 -0.4107  0.2117 -0.6750
 7252TIP3   OH221696   5.445   7.805   1.939 -0.0986  0.1130  0.0320
 7252TIP3    H121697   5.439   7.802   1.844 -0.8625  0.5844  0.0553
 7252TIP3    H221698   5.354   7.805   1.969  0.1334 -1.7277  0.8399
 7253TIP3   OH221699   3.980   5.645   4.097 -0.7237  0.7779  0.5888
 7253TIP3    H121700   3.980   5.569   4.155 -1.7672  1.2287  1.2133
 7253TIP3    H221701   4.068   5.682   4.106  0.8933 -1.9910 -2.0360
 7254TIP3   OH221702   7.599   2.322   1.021 -0.1163  0.0450  0.3307
 7254TIP3    H121703   7.578   2.229   1.018 -1.7454  0.3838  0.1435
 7254TIP3    H221704   7.654   2.333   1.098 -1.0161 -0.8753  1.1132
 7255TIP3   OH221705   3.584   2.449   6.406 -0.3646 -0.7729 -0.1346
 7255TIP3    H121706   3.578   2.432   6.312 -0.8131  2.5474 -0.8304
 7255TIP3    H221707   3.657   2.510   6.415  0.0490 -1.4661  1.8105
 7256TIP3   OH221708   1.039   5.941   0.209  0.5567 -0.1503 -0.2023
 7256TIP3    H121709   1.080   5.921   0.293 -0.3113 -2.6667 -0.3194
 7256TIP3    H221710   0.998   6.027   0.223  2.1485  0.4163  1.2634
 7257TIP3   OH221711   3.665   3.484   1.564  0.1532  0.1942  0.2861
 7257TIP3    H121712   3.689   3.410   1.508 -2.3777 -0.6891  0.2337
 7257TIP3    H221713   3.746   3.508   1.608  2.6482  1.6179 -4.3450
 7258TIP3   OH221714   5.404   1.743   3.393  0.6108  0.2610  0.0760
 7258TIP3    H121715   5.418   1.814   3.331 -0.5478 -1.4642 -2.3444
 7258TIP3    H221716   5.326   1.769   3.442  0.5905  0.9350 -0.3053
 7259TIP3   OH221717   7.386   6.217   5.648 -0.0653 -0.3287  0.2480
 7259TIP3    H121718   7.433   6.288   5.603 -0.5779 -0.1624 -0.0295
 7259TIP3    H221719   7.386   6.145   5.585 -0.1948 -0.3231  0.2421
 7260TIP3   OH221720   2.110   4.404   5.122  0.3500 -0.1113  0.1741
 7260TIP3    H121721   2.032   4.374   5.076 -0.4914  2.7533 -0.4201
 7260TIP3    H221722   2.092   4.385   5.215 -0.4431 -0.7034 -0.0876
 7261TIP3   OH221723   6.145   3.192   3.331 -0.1873  0.0202  0.5390
 7261TIP3    H121724   6.181   3.256   3.270 -1.4871 -0.7774 -1.1034
 7261TIP3    H221725   6.076   3.239   3.378 -0.5566  0.0668 -0.0503
 7262TIP3   OH221726   1.595   5.670   1.629 -0.6382 -0.1604  0.1711
 7262TIP3    H121727   1.612   5.661   1.535 -0.3952 -1.6856  0.3283
 7262TIP3    H221728   1.682   5.679   1.668 -0.5941 -1.3817  0.3939
 7263TIP3   OH221729   8.186   4.042   0.408 -0.3052 -0.2030 -0.3575
 7263TIP3    H121730   8.263   4.097   0.427  0.4628 -0.4374 -2.4890
 7263TIP3    H221731   8.185   3.977   0.478 -0.5842  1.8172  1.6157
 7264TIP3   OH221732   2.761   5.913   2.742  0.6766 -0.0759  0.7715
 7264TIP3    H121733   2.779   5.822   2.766  0.6464 -0.4923 -0.6627
 7264TIP3    H221734   2.666   5.917   2.735  0.7426 -0.4356 -0.8402
 7265TIP3   OH221735   4.730   2.756   5.870  0.2298 -0.3584  0.0521
 7265TIP3    H121736   4.648   2.719   5.901 -0.3547 -0.3727 -1.4237
 7265TIP3    H221737   4.746   2.831   5.927 -1.4363  0.3614 -0.3776
 7266TIP3   OH221738   1.865   4.493   6.812 -0.1181  0.7370  0.5691
 7266TIP3    H121739   1.864   4.550   6.735 -0.3160  1.1777  0.8884
 7266TIP3    H221740   1.886   4.406   6.778 -2.8617  0.3300 -0.3859
 7267TIP3   OH221741   1.626   1.102   2.411 -0.0519  0.0326  0.4994
 7267TIP3    H121742   1.693   1.077   2.475  0.1176 -2.0982 -0.4346
 7267TIP3    H221743   1.553   1.043   2.428 -1.4098  1.7300  0.9128
 7268TIP3   OH221744   4.989   2.172   4.517  0.1665  0.1789 -0.0864
 7268TIP3    H121745   5.068   2.192   4.566 -0.1265 -0.2961  0.5923
 7268TIP3    H221746   5.021   2.150   4.429  0.9298 -1.3741  0.5410
 7269TIP3   OH221747   7.017   2.070   4.208 -0.7762  0.3528 -0.0423
 7269TIP3    H121748   6.922   2.074   4.198 -1.0067  1.6009  2.0240
 7269TIP3    H221749   7.050   2.045   4.121 -2.9702 -0.1213 -0.7872
 7270TIP3   OH221750   6.039   0.527   2.215 -0.5838  0.8115  0.7006
 7270TIP3    H121751   5.995   0.461   2.161 -0.1549  0.7322  0.4392
 7270TIP3    H221752   6.072   0.478   2.290  0.0735  0.6409  0.3161
 7271TIP3   OH221753   2.345   2.974   4.030 -0.4019 -0.6550 -0.6353
 7271TIP3    H121754   2.336   3.056   3.981  0.3679 -1.5724 -2.3894
 7271TIP3    H221755   2.327   2.999   4.121 -0.2339  1.4481 -1.1193
 7272TIP3   OH221756   1.481   6.775   3.852  0.0371  0.2618 -0.4662
 7272TIP3    H121757   1.398   6.734   3.876 -0.1569  1.4830  1.1383
 7272TIP3    H221758   1.534   6.768   3.931  1.3205 -0.0968 -1.3328
 7273TIP3   OH221759   0.771   0.775   3.992 -0.0499  0.5120 -0.0329
 7273TIP3    H121760   0.699   0.787   3.930 -1.3234  0.4069  1.3530
 7273TIP3    H221761   0.785   0.861   4.031  1.1361  0.7072 -0.8401
 7274TIP3   OH221762   7.054   4.679   6.311 -0.1050  0.0998  0.4325
 7274TIP3    H121763   6.998   4.646   6.382 -1.3721  0.7205 -0.2435
 7274TIP3    H221764   7.070   4.771   6.334 -2.0707  0.8607 -0.9524
 7275TIP3   OH221765   2.844   2.930   4.348  0.0550  0.2888  0.0120
 7275TIP3    H121766   2.872   2.864   4.284  0.0360  0.3743 -0.0849
 7275TIP3    H221767   2.816   2.879   4.424  0.4958  0.2007  0.1199
 7276TIP3   OH221768   6.773   4.603   4.647  0.3114 -0.1342  0.8633
 7276TIP3    H121769   6.722   4.682   4.663  0.5414  0.1687  0.1390
 7276TIP3    H221770   6.863   4.634   4.635  0.6203 -0.6336  1.8063
 7277TIP3   OH221771   1.251   6.629   0.898  0.2536  0.5991  0.1356
 7277TIP3    H121772   1.161   6.608   0.874  0.1022  1.7666 -0.3881
 7277TIP3    H221773   1.295   6.544   0.903 -0.6745  0.0652 -0.4139
 7278TIP3   OH221774   2.177   5.199   6.302 -0.0988 -0.1986 -0.2560
 7278TIP3    H121775   2.137   5.138   6.241  1.0779 -0.9550 -0.3132
 7278TIP3    H221776   2.195   5.147   6.380  0.7493  0.0955 -0.2368
 7279TIP3   OH221777   1.123   5.844   0.460 -0.2002 -0.0597  0.1635
 7279TIP3    H121778   1.068   5.766   0.460 -2.2927  1.3341 -0.0582
 7279TIP3    H221779   1.186   5.830   0.531 -2.3272 -0.7506  2.0133
 7280TIP3   OH221780   3.320   0.104   5.141  0.0912  0.3883  0.2307
 7280TIP3    H121781   3.268   0.141   5.069 -1.0155 -0.3856  0.6075
 7280TIP3    H221782   3.407   0.091   5.103 -0.7299 -0.9310 -1.3008
 7281TIP3   OH221783   0.112   2.757   2.369  0.5346 -0.1821  0.7334
 7281TIP3    H121784   0.167   2.739   2.293  0.9115 -0.3349  1.0379
 7281TIP3    H221785   0.034   2.799   2.333  0.8792  0.0951  0.3074
 7282TIP3   OH221786   0.572   0.718   3.355 -0.1165  0.2544  0.1505
 7282TIP3    H121787   0.477   0.730   3.342  0.2894  1.2239 -2.6105
 7282TIP3    H221788   0.589   0.628   3.327 -0.1660  0.2210  0.2280
 7283TIP3   OH221789   0.846   6.826   1.364 -0.4291 -0.6270  0.4524
 7283TIP3    H121790   0.832   6.784   1.449 -0.4249  0.6499  1.1224
 7283TIP3    H221791   0.763   6.817   1.318 -1.0988  0.3748  1.4020
 7284TIP3   OH221792   5.730   0.977   3.756 -0.3584 -0.1699  0.0656
 7284TIP3    H121793   5.701   1.048   3.813 -1.3184 -0.8138  0.3976
 7284TIP3    H221794   5.807   1.013   3.712 -0.5542  0.9149  0.5543
 7285TIP3   OH221795   0.741   0.261   5.170  0.5295  0.1447 -0.3952
 7285TIP3    H121796   0.775   0.173   5.184 -0.1216 -0.1460 -0.5804
 7285TIP3    H221797   0.715   0.291   5.257 -0.0216 -0.1793 -0.4441
 7286TIP3   OH221798   7.928   1.766   3.824  0.1823  0.3328  0.2450
 7286TIP3    H121799   7.973   1.845   3.855 -0.1153  0.3533  0.6330
 7286TIP3    H221800   7.866   1.798   3.759  1.3761  0.1991 -1.0097
 7287TIP3   OH221801   1.961   0.934   0.188  0.1468  0.5340  0.2323
 7287TIP3    H121802   2.047   0.891   0.191 -0.0044  0.2622  0.6177
 7287TIP3    H221803   1.961   0.979   0.103  0.1205 -0.5994 -0.3863
 7288TIP3   OH221804   7.613   0.407   1.917  0.3039 -0.0846 -0.4167
 7288TIP3    H121805   7.552   0.344   1.955  0.5135 -0.1165 -0.1331
 7288TIP3    H221806   7.596   0.403   1.822 -0.0097 -0.2210 -0.3547
 7289TIP3   OH221807   8.049   6.877   2.484 -0.3803  0.3545  0.1821
 7289TIP3    H121808   7.985   6.814   2.515 -3.0169  3.3556  1.3081
 7289TIP3    H221809   8.024   6.894   2.393 -1.2072  1.4609  0.5953
 7290TIP3   OH221810   0.523   5.420   5.602 -0.3769 -0.3544 -0.1345
 7290TIP3    H121811   0.554   5.351   5.660 -1.3678  0.1800  1.0574
 7290TIP3    H221812   0.435   5.392   5.576 -0.4698  0.0692 -0.2849
 7291TIP3   OH221813   3.724   5.837   0.391  0.0630 -0.5327 -0.0450
 7291TIP3    H121814   3.660   5.909   0.386  1.1511  0.6011  1.3357
 7291TIP3    H221815   3.670   5.759   0.404 -1.0905  0.3956  1.1865
 7292TIP3   OH221816   4.785   7.838   1.777  0.3109 -0.4523  0.6605
 7292TIP3    H121817   4.753   7.872   1.860 -1.3083 -2.1049  0.7901
 7292TIP3    H221818   4.837   7.761   1.800  1.4689  0.1863  0.2339
 7293TIP3   OH221819   0.575   0.905   4.268  0.2018 -0.0026 -0.2155
 7293TIP3    H121820   0.639   0.957   4.219 -0.3378  2.6332  1.6373
 7293TIP3    H221821   0.499   0.900   4.210  1.2751 -1.3454 -1.5904
 7294TIP3   OH221822   6.945   3.322   0.404  0.4818 -0.3585  0.6315
 7294TIP3    H121823   6.954   3.283   0.317  2.4059  1.2850  0.0133
 7294TIP3    H221824   7.011   3.391   0.406  0.8762 -0.7071  3.6295
 7295TIP3   OH221825   4.775   3.501   0.530 -0.1006 -0.7196 -0.2045
 7295TIP3    H121826   4.799   3.594   0.522  0.4140 -0.8092  0.2580
 7295TIP3    H221827   4.686   3.497   0.495 -0.0501 -0.0870 -0.4265
 7296TIP3   OH221828   2.486   5.655   5.994 -0.1864 -0.3138 -0.5492
 7296TIP3    H121829   2.446   5.741   5.985  0.1761 -0.2152 -1.3194
 7296TIP3    H221830   2.505   5.647   6.088 -1.7234 -0.2543 -0.2191
 7297TIP3   OH221831   4.440   2.404   6.533  0.1791  0.0930 -0.7925
 7297TIP3    H121832   4.376   2.342   6.571  1.2038  0.1758  1.2200
 7297TIP3    H221833   4.402   2.490   6.549  1.9533  0.3618  3.1814
 7298TIP3   OH221834   4.095   6.472   1.576  0.0233 -0.2495  0.6847
 7298TIP3    H121835   4.004   6.446   1.588 -0.2783  0.0163 -0.7625
 7298TIP3    H221836   4.090   6.564   1.549  0.5350 -0.7363 -1.2693
 7299TIP3   OH221837   2.933   7.066   1.522  0.6656  0.4377 -0.2015
 7299TIP3    H121838   2.979   6.982   1.527  1.3079  0.5839 -2.5536
 7299TIP3    H221839   2.996   7.125   1.481 -0.2001  1.7781  0.3425
 7300TIP3   OH221840   2.906   5.531   2.602  0.0326  0.0647 -0.6355
 7300TIP3    H121841   2.852   5.548   2.679 -1.1055  0.0514 -1.4087
 7300TIP3    H221842   2.996   5.536   2.635 -0.3600  2.0536  0.2933
 7301TIP3   OH221843   4.538   2.609   0.689 -0.2033  0.0686  0.2110
 7301TIP3    H121844   4.515   2.599   0.597  0.5654 -1.6004  0.1680
 7301TIP3    H221845   4.574   2.524   0.714  0.5015  0.7970  1.7909
 7302TIP3   OH221846   2.194   4.546   3.188 -0.2901 -0.2815 -0.0359
 7302TIP3    H121847   2.227   4.636   3.180  0.1525 -0.4237  0.1530
 7302TIP3    H221848   2.254   4.504   3.249 -0.0910 -0.8932 -0.6373
 7303TIP3   OH221849   4.540   1.867   0.371 -0.4116  0.1770  0.1691
 7303TIP3    H121850   4.503   1.839   0.455  2.6598  0.4291  1.7161
 7303TIP3    H221851   4.577   1.787   0.333 -0.2466  0.3829 -0.1058
 7304TIP3   OH221852   1.470   5.803   1.945 -0.2455  0.3499  0.3823
 7304TIP3    H121853   1.472   5.898   1.959  0.9291  0.4383 -0.2400
 7304TIP3    H221854   1.397   5.772   1.998 -0.5785  1.5913  0.6769
 7305TIP3   OH221855   5.816   0.341   1.070  0.5417  0.0149  0.4357
 7305TIP3    H121856   5.822   0.411   1.135  0.9205 -0.6464  1.1259
 7305TIP3    H221857   5.727   0.307   1.079  0.7788 -0.4734  1.0470
 7306TIP3   OH221858   5.172   7.055   3.530  0.3829 -0.1047  0.3719
 7306TIP3    H121859   5.094   7.026   3.577  0.0339 -0.2973 -0.3148
 7306TIP3    H221860   5.148   7.049   3.437  0.7712  1.0693  0.1799
 7307TIP3   OH221861   3.953   2.281   3.607 -0.8790 -0.1579 -0.1831
 7307TIP3    H121862   3.963   2.347   3.538  1.0093  0.7094  0.8485
 7307TIP3    H221863   3.969   2.198   3.563  0.7061  0.4137 -0.7542
 7308TIP3   OH221864   6.849   5.423   1.496 -0.1718 -0.5070 -0.6406
 7308TIP3    H121865   6.774   5.461   1.543 -0.6594 -2.5271  0.2844
 7308TIP3    H221866   6.912   5.495   1.490 -0.1706 -0.0678  2.9179
 7309TIP3   OH221867   0.832   5.581   1.847  0.2098 -0.4815 -0.6305
 7309TIP3    H121868   0.808   5.638   1.920  1.3007 -1.3245  0.4223
 7309TIP3    H221869   0.761   5.516   1.843 -0.3603  0.1423 -0.9907
 7310TIP3   OH221870   3.879   5.352   4.701  0.2325  0.6414 -0.0663
 7310TIP3    H121871   3.852   5.364   4.792 -1.9436  0.4899 -0.6294
 7310TIP3    H221872   3.799   5.368   4.650  1.1180 -0.3772 -1.8781
 7311TIP3   OH221873   6.780   2.015   2.686 -0.4497 -0.1679  0.1600
 7311TIP3    H121874   6.725   1.938   2.672  0.9022 -0.8866 -1.6531
 7311TIP3    H221875   6.833   2.022   2.606 -1.1227  3.1764 -0.1534
 7312TIP3   OH221876   4.059   4.042   1.509 -0.8797  0.4137 -0.1010
 7312TIP3    H121877   4.049   4.052   1.414  1.2075 -1.8303 -0.6579
 7312TIP3    H221878   4.153   4.045   1.524 -1.1555  0.4662  1.8940
 7313TIP3   OH221879   5.375   7.034   4.959 -0.5914  0.0998 -0.2280
 7313TIP3    H121880   5.457   7.084   4.962 -0.5053  0.0480 -1.3743
 7313TIP3    H221881   5.360   7.009   5.050  0.8707 -0.2120 -0.0337
 7314TIP3   OH221882   6.289   0.444   5.469 -0.4303  0.0041  0.0109
 7314TIP3    H121883   6.352   0.374   5.452 -1.5348 -0.6659 -1.6644
 7314TIP3    H221884   6.221   0.403   5.521 -1.1547 -0.2485 -1.1021
 7315TIP3   OH221885   3.138   5.728   3.776  0.0798 -0.5422 -0.0905
 7315TIP3    H121886   3.161   5.694   3.690  0.6373  0.9966 -0.5861
 7315TIP3    H221887   3.204   5.690   3.835  2.5313  1.7931 -1.0908
 7316TIP3   OH221888   7.257   6.562   0.496  0.3265 -0.0777 -0.1969
 7316TIP3    H121889   7.232   6.632   0.435 -3.1465 -0.0979  0.9761
 7316TIP3    H221890   7.186   6.498   0.488  2.1424 -2.2974  0.6061
 7317TIP3   OH221891   1.205   0.381   0.683  0.1399 -0.2386 -0.0451
 7317TIP3    H121892   1.146   0.453   0.701  0.2050 -0.4889  1.2969
 7317TIP3    H221893   1.190   0.319   0.755  0.5388 -1.2619 -0.8139
 7318TIP3   OH221894   0.889   3.064   0.400 -0.3662  0.4647  1.0079
 7318TIP3    H121895   0.984   3.057   0.403 -0.2899  1.0939  0.4471
 7318TIP3    H221896   0.862   3.067   0.491  0.0316 -1.0483  1.1980
 7319TIP3   OH221897   4.608   7.701   6.588 -0.0193 -0.6291 -0.2536
 7319TIP3    H121898   4.664   7.780   6.590 -0.8599 -0.0244 -0.1116
 7319TIP3    H221899   4.556   7.711   6.509 -1.0672 -0.3739  0.4473
 7320TIP3   OH221900   7.417   3.998   3.213  0.0291 -0.6926  0.5053
 7320TIP3    H121901   7.486   3.972   3.152 -0.9586  0.9955 -1.4868
 7320TIP3    H221902   7.463   4.037   3.287  1.2515  0.6805 -0.9109
 7321TIP3   OH221903   4.415   0.466   3.816  0.0318  0.3710 -0.0955
 7321TIP3    H121904   4.466   0.544   3.835 -0.0792  0.5067 -0.3527
 7321TIP3    H221905   4.446   0.437   3.730  0.8597 -0.4990  0.4717
 7322TIP3   OH221906   0.586   1.978   4.778  0.2898 -0.5486  0.8210
 7322TIP3    H121907   0.654   2.011   4.838  0.5205 -0.6024  0.5938
 7322TIP3    H221908   0.512   2.038   4.791  1.8451  2.2905 -2.0387
 7323TIP3   OH221909   4.946   1.156   6.376  0.4301 -0.0524  0.4375
 7323TIP3    H121910   5.016   1.220   6.371  0.5570 -0.1454  0.9137
 7323TIP3    H221911   4.869   1.206   6.404  0.5614 -0.1298  0.9391
 7324TIP3   OH221912   7.672   3.636   6.167 -0.8222  0.3469 -0.1879
 7324TIP3    H121913   7.719   3.634   6.251 -2.3119 -1.4262  0.6969
 7324TIP3    H221914   7.727   3.585   6.108 -0.2917  0.6647  0.0237
 7325TIP3   OH221915   0.951   0.971   0.735  0.0438  0.2353  0.6321
 7325TIP3    H121916   0.953   1.039   0.803  1.7318  1.6276 -0.7037
 7325TIP3    H221917   0.969   0.890   0.782 -0.4561  0.9181  2.0656
 7326TIP3   OH221918   1.752   7.562   3.696  0.2007  0.1331 -0.6185
 7326TIP3    H121919   1.658   7.576   3.685  0.3008  0.9978 -0.5105
 7326TIP3    H221920   1.779   7.631   3.758  0.8327 -0.3539 -0.3365
 7327TIP3   OH221921   0.356   3.908   4.155  0.1250  0.2636  0.2093
 7327TIP3    H121922   0.349   3.853   4.077  1.5257  1.1705 -0.5966
 7327TIP3    H221923   0.284   3.879   4.211 -0.5618 -0.8062 -1.1591
 7328TIP3   OH221924   7.202   7.903   2.184 -0.0445  0.4908  0.3823
 7328TIP3    H121925   7.182   7.810   2.173  3.0121 -0.1409 -0.8104
 7328TIP3    H221926   7.280   7.904   2.239 -1.1898  2.5400  2.1211
 7329TIP3   OH221927   5.510   6.960   3.201 -0.0256 -0.0031  0.4534
 7329TIP3    H121928   5.577   6.901   3.168 -0.8516 -0.0666 -1.1660
 7329TIP3    H221929   5.482   6.920   3.284  1.7922 -0.0508  1.1014
 7330TIP3   OH221930   6.620   1.196   6.475  0.5827 -0.4511  0.2550
 7330TIP3    H121931   6.652   1.278   6.512  2.6840 -1.3762  0.6005
 7330TIP3    H221932   6.638   1.130   6.542  0.9871 -1.5438 -0.8904
 7331TIP3   OH221933   7.078   3.650   0.439 -0.0441 -0.1331  0.0958
 7331TIP3    H121934   7.036   3.723   0.483 -1.6559 -2.6457  3.1448
 7331TIP3    H221935   7.033   3.644   0.354 -1.2780  1.1771  0.6199
 7332TIP3   OH221936   7.937   2.682   4.909 -0.1132 -0.1470  0.5224
 7332TIP3    H121937   7.896   2.763   4.876 -0.4618 -0.3893  0.3573
 7332TIP3    H221938   8.014   2.712   4.956 -2.0896  0.6076  3.5801
 7333TIP3   OH221939   1.913   2.033   3.997  0.3551 -0.1497 -0.4676
 7333TIP3    H121940   1.836   1.988   3.964  0.2536 -0.2781 -0.0668
 7333TIP3    H221941   1.974   2.035   3.924  0.5631 -1.3892 -0.3398
 7334TIP3   OH221942   6.320   2.618   1.303 -0.5129 -0.0335  0.1155
 7334TIP3    H121943   6.228   2.614   1.277 -0.1550 -1.3697 -1.0376
 7334TIP3    H221944   6.324   2.569   1.385 -0.7648 -0.3728 -0.0721
 7335TIP3   OH221945   6.364   1.504   0.646 -0.0997  0.1132  0.2533
 7335TIP3    H121946   6.383   1.431   0.705 -0.3656 -0.6018 -0.5347
 7335TIP3    H221947   6.448   1.546   0.631  0.1979 -0.5539  0.0340
 7336TIP3   OH221948   7.380   7.818   5.533  0.3815 -0.3123 -0.4632
 7336TIP3    H121949   7.351   7.742   5.483 -0.0741 -0.4584  0.0132
 7336TIP3    H221950   7.315   7.826   5.603  0.0865  0.8717 -0.8517
 7337TIP3   OH221951   3.259   7.444   2.345 -0.6645  0.4796 -0.4622
 7337TIP3    H121952   3.309   7.513   2.390 -0.7691 -0.0530  0.5121
 7337TIP3    H221953   3.305   7.430   2.263 -1.4016  2.6324 -1.2951
 7338TIP3   OH221954   7.125   4.593   1.572 -0.0592 -0.5739 -0.4291
 7338TIP3    H121955   7.046   4.587   1.518 -0.0665 -0.6788 -0.4076
 7338TIP3    H221956   7.098   4.558   1.657 -0.4274  0.8321  0.0636
 7339TIP3   OH221957   7.641   3.064   4.484  0.3158 -0.5108  0.1808
 7339TIP3    H121958   7.637   2.974   4.517  0.9219 -1.2536 -1.6248
 7339TIP3    H221959   7.670   3.116   4.558 -0.7233 -1.6815  1.4675
 7340TIP3   OH221960   2.894   2.884   5.288  0.1354 -0.7364 -0.1549
 7340TIP3    H121961   2.820   2.939   5.260 -0.0729 -1.4736 -1.0939
 7340TIP3    H221962   2.853   2.809   5.331  0.4045 -0.4585  0.6145
 7341TIP3   OH221963   2.948   0.423   1.429  0.0761  0.0935  0.2056
 7341TIP3    H121964   3.026   0.424   1.374 -0.4680 -0.8836 -0.6397
 7341TIP3    H221965   2.882   0.379   1.376 -0.6543 -0.3412  1.4175
 7342TIP3   OH221966   5.667   0.666   2.650  0.0057  0.5744 -0.1346
 7342TIP3    H121967   5.756   0.686   2.680 -0.9858  2.9938  1.5247
 7342TIP3    H221968   5.616   0.742   2.676 -2.1374  0.3586 -3.1958
 7343TIP3   OH221969   2.397   3.442   6.334 -0.5985 -0.4030  0.0063
 7343TIP3    H121970   2.339   3.505   6.293  1.2526  1.3046 -0.1360
 7343TIP3    H221971   2.390   3.363   6.279 -3.0360 -0.4358  0.2631
 7344TIP3   OH221972   3.041   7.271   0.082 -0.2947 -0.0232 -0.0888
 7344TIP3    H121973   3.131   7.242   0.066  0.0319  0.5551  0.6433
 7344TIP3    H221974   3.013   7.310  -0.001 -0.0461 -0.6437 -0.4703
 7345TIP3   OH221975   4.978   5.380   1.825 -0.0971 -0.1155  0.1838
 7345TIP3    H121976   4.933   5.354   1.744 -0.1720 -0.8010  0.4319
 7345TIP3    H221977   4.921   5.348   1.895 -0.7709  1.7772  0.5355
 7346TIP3   OH221978   2.067   5.986   2.089  0.4718 -0.7666 -0.2303
 7346TIP3    H121979   2.156   5.986   2.051  0.8219 -0.6246  0.5750
 7346TIP3    H221980   2.080   6.008   2.181 -0.3899 -0.9286 -0.0609
 7347TIP3   OH221981   4.612   1.411   2.391  0.2461  0.1776  0.0643
 7347TIP3    H121982   4.644   1.485   2.443  0.9031 -0.4802  0.6207
 7347TIP3    H221983   4.688   1.354   2.382 -0.4164 -0.7509  0.2072
 7348TIP3   OH221984   0.440   3.653   1.843  0.1212  0.2286 -0.5032
 7348TIP3    H121985   0.380   3.657   1.917  0.0109  0.2405 -0.5945
 7348TIP3    H221986   0.417   3.728   1.788 -0.0032  0.0412 -0.7081
 7349TIP3   OH221987   6.121   4.863   5.605  0.4302 -0.0790  0.1929
 7349TIP3    H121988   6.185   4.865   5.677  0.5107 -0.2543  0.1253
 7349TIP3    H221989   6.143   4.940   5.552  0.7147 -0.2480  0.0605
 7350TIP3   OH221990   6.534   2.945   6.227  0.6494  0.1689 -0.1745
 7350TIP3    H121991   6.516   2.854   6.206  0.6810  0.2506 -0.5698
 7350TIP3    H221992   6.447   2.985   6.236  0.5710 -0.3820  2.2783
 7351TIP3   OH221993   4.464   2.156   2.015 -0.0379  0.0662 -0.1305
 7351TIP3    H121994   4.377   2.118   2.003  0.5915 -1.2238 -0.9280
 7351TIP3    H221995   4.523   2.090   1.979  1.2375  1.1464 -0.0852
 7352TIP3   OH221996   3.726   4.533   1.431  0.4157 -0.6951 -0.1631
 7352TIP3    H121997   3.711   4.439   1.417 -1.4829 -0.4259 -0.1747
 7352TIP3    H221998   3.784   4.559   1.359  0.6046 -1.7583 -0.4138
 7353TIP3   OH221999   6.544   3.855   4.649 -0.0431 -0.7100  0.1093
 7353TIP3    H122000   6.607   3.905   4.597 -0.6290 -1.1383 -1.0422
 7353TIP3    H222001   6.512   3.918   4.714  1.0295 -0.2917  0.2534
 7354TIP3   OH222002   0.485   4.729   3.491  0.4309  0.3354  0.1206
 7354TIP3    H122003   0.403   4.686   3.513 -0.1344  0.7184 -1.1316
 7354TIP3    H222004   0.462   4.821   3.482  0.8226  0.3442 -0.9582
 7355TIP3   OH222005   7.610   3.970   0.570 -0.2518 -0.0367  0.0528
 7355TIP3    H122006   7.678   3.913   0.606  1.0507  1.4842  0.0868
 7355TIP3    H222007   7.604   3.945   0.478  1.0560  0.4403 -0.1798
 7356TIP3   OH222008   4.631   5.379   3.749  0.2379 -0.5673 -0.3237
 7356TIP3    H122009   4.693   5.424   3.805  1.0996 -0.8752 -1.0119
 7356TIP3    H222010   4.582   5.322   3.808  1.2812 -1.0510  0.0868
 7357TIP3   OH222011   2.564   5.254   2.591 -0.6217 -0.2438  0.0035
 7357TIP3    H122012   2.638   5.312   2.570  0.3044 -0.6320  1.9965
 7357TIP3    H222013   2.561   5.193   2.518  0.8920 -0.0701 -0.2469
 7358TIP3   OH222014   5.170   3.888   4.945 -0.1508 -0.7415 -0.0028
 7358TIP3    H122015   5.082   3.912   4.915 -0.2074  0.2485  0.9007
 7358TIP3    H222016   5.206   3.969   4.981  1.2405 -1.0795 -0.5810
 7359TIP3   OH222017   5.298   5.795   6.835 -0.0437 -0.0012 -0.3796
 7359TIP3    H122018   5.351   5.746   6.772 -0.3371  0.0407 -0.6624
 7359TIP3    H222019   5.250   5.858   6.781 -0.2732  0.0550 -0.1077
 7360TIP3   OH222020   5.101   4.902   1.650 -0.8262 -0.3719 -0.3614
 7360TIP3    H122021   5.057   4.950   1.720 -1.0732 -1.0296 -0.0569
 7360TIP3    H222022   5.194   4.922   1.663 -0.9181 -0.0308 -0.2031
 7361TIP3   OH222023   1.414   2.189   4.089  0.4936  0.2347 -0.4859
 7361TIP3    H122024   1.361   2.264   4.063  1.2119  0.6291 -0.8342
 7361TIP3    H222025   1.504   2.221   4.087  0.7210 -0.2550  0.6495
 7362TIP3   OH222026   1.363   3.116   6.108 -0.6191 -0.4608  0.2865
 7362TIP3    H122027   1.397   3.155   6.189 -0.2225 -1.4118  0.5798
 7362TIP3    H222028   1.440   3.083   6.063 -1.0002 -1.3004  0.2441
 7363TIP3   OH222029   2.592   1.951   5.153  0.3926  0.1845 -0.1288
 7363TIP3    H122030   2.550   1.868   5.179  0.6027 -0.5047 -1.8826
 7363TIP3    H222031   2.679   1.925   5.124 -0.1734  0.7013 -2.5095
 7364TIP3   OH222032   6.607   6.308   3.639 -0.0153  0.5518 -0.2249
 7364TIP3    H122033   6.675   6.274   3.580  0.3369 -0.1631  0.5619
 7364TIP3    H222034   6.635   6.398   3.657  1.4058 -0.0854  1.0063
 7365TIP3   OH222035   1.043   1.230   0.493  0.5166 -0.3798  0.1015
 7365TIP3    H122036   0.976   1.163   0.476 -1.7180  1.7738 -0.1528
 7365TIP3    H222037   1.001   1.291   0.554  1.2388  2.4575 -2.0590
 7366TIP3   OH222038   2.662   0.619   1.396 -0.2008 -0.3837 -0.0343
 7366TIP3    H122039   2.583   0.669   1.377 -0.7056 -0.8805  0.7344
 7366TIP3    H222040   2.706   0.669   1.465 -0.8493 -1.1233  0.9391
 7367TIP3   OH222041   4.391   7.246   1.960 -0.3317  0.4821 -0.5730
 7367TIP3    H122042   4.475   7.221   1.998  0.1856  1.8549 -0.7369
 7367TIP3    H222043   4.331   7.251   2.035  0.1969  1.2661 -0.1915
 7368TIP3   OH222044   6.096   0.161   0.665 -0.3351  0.2472  0.3842
 7368TIP3    H122045   6.109   0.231   0.729  1.1237  0.2274  0.1454
 7368TIP3    H222046   6.015   0.118   0.693 -2.1305  2.9394 -0.3652
 7369TIP3   OH222047   2.590   0.400   4.411  0.8864  0.1355 -0.3826
 7369TIP3    H122048   2.590   0.368   4.321 -1.4125 -0.2854 -0.2949
 7369TIP3    H222049   2.576   0.322   4.464 -2.3806  0.8314 -0.0113
 7370TIP3   OH222050   3.717   6.542   2.619  0.1395 -0.2111 -0.1554
 7370TIP3    H122051   3.796   6.488   2.621  2.9623  3.4435 -0.1296
 7370TIP3    H222052   3.689   6.539   2.527  0.2556 -1.6019 -0.1630
 7371TIP3   OH222053   8.255   3.300   4.048  0.4107 -0.5663  0.1158
 7371TIP3    H122054   8.305   3.304   3.966  0.7160 -0.2019  0.3194
 7371TIP3    H222055   8.287   3.221   4.091 -1.3267 -2.0301 -1.1202
 7372TIP3   OH222056   6.726   0.012   0.989 -0.2164 -0.2233  0.2474
 7372TIP3    H122057   6.637   0.026   1.023 -0.2490  1.1313 -0.3630
 7372TIP3    H222058   6.784   0.047   1.056 -0.1821  0.0257  0.0860
 7373TIP3   OH222059   0.258   0.797   2.490  0.1714 -0.5689 -0.2334
 7373TIP3    H122060   0.226   0.711   2.518  2.4022 -1.4168 -0.0514
 7373TIP3    H222061   0.186   0.857   2.508 -0.2436 -1.8356  2.8943
 7374TIP3   OH222062   2.286   3.197   2.009 -0.1151  0.2306 -0.2085
 7374TIP3    H122063   2.253   3.151   1.932  1.3762  0.5390 -1.0822
 7374TIP3    H222064   2.226   3.173   2.080 -0.2379 -1.8325 -0.9621
 7375TIP3   OH222065   4.195   2.022   0.533 -0.2172 -1.0422  0.5653
 7375TIP3    H122066   4.113   2.026   0.582 -0.0365 -0.1360  0.8226
 7375TIP3    H222067   4.263   2.017   0.600  0.2242  3.0162  0.6646
 7376TIP3   OH222068   2.299   4.188   4.487  0.1077  0.2460  0.3413
 7376TIP3    H122069   2.324   4.100   4.512 -0.4309 -0.3584 -1.1376
 7376TIP3    H222070   2.381   4.230   4.461  0.3630  0.2022  1.0388
 7377TIP3   OH222071   5.077   2.362   4.266  0.4828 -0.5690 -0.2764
 7377TIP3    H122072   5.135   2.304   4.217  2.0332  0.2791  0.4700
 7377TIP3    H222073   5.050   2.428   4.203  2.2385  0.3591 -0.1072
 7378TIP3   OH222074   2.656   5.926   4.303 -0.2196 -0.2169  0.2998
 7378TIP3    H122075   2.664   6.018   4.328  0.2205 -0.7364  2.2397
 7378TIP3    H222076   2.578   5.923   4.247 -0.1616  1.3421  0.0900
 7379TIP3   OH222077   5.428   1.376   0.481 -0.2479 -0.8175 -0.0887
 7379TIP3    H122078   5.453   1.418   0.564 -1.6553 -0.2370  0.0652
 7379TIP3    H222079   5.457   1.438   0.414 -1.5692  0.0567  0.1065
 7380TIP3   OH222080   4.479   0.197   6.371 -0.6550 -0.4605 -0.4767
 7380TIP3    H122081   4.431   0.157   6.299 -2.1742 -0.4189  0.4630
 7380TIP3    H222082   4.457   0.289   6.367  0.4550 -0.1867 -0.8278
 7381TIP3   OH222083   5.873   6.500   3.688  0.2001  0.0524 -0.3844
 7381TIP3    H122084   5.816   6.435   3.731  0.5580 -0.4899 -0.7284
 7381TIP3    H222085   5.894   6.562   3.758 -1.5293  0.7687 -0.4462
 7382TIP3   OH222086   3.860   2.188   3.094 -0.1716  0.2360  0.0651
 7382TIP3    H122087   3.865   2.141   3.177 -0.9185  1.1240  0.6352
 7382TIP3    H222088   3.883   2.123   3.028  0.3089 -0.5151  0.9527
 7383TIP3   OH222089   0.368   4.783   0.352 -0.3942 -0.3735 -0.2854
 7383TIP3    H122090   0.392   4.844   0.421 -0.7262 -1.0829  0.4745
 7383TIP3    H222091   0.450   4.738   0.331 -0.7706 -2.1651  1.6841
 7384TIP3   OH222092   1.728   5.737   6.338 -0.1953 -0.7104 -0.1660
 7384TIP3    H122093   1.659   5.740   6.404 -0.4866 -1.6615 -0.4027
 7384TIP3    H222094   1.683   5.707   6.258  0.6383 -2.3182 -0.0763
 7385TIP3   OH222095   5.672   7.665   0.912 -0.5597 -0.0188  0.0156
 7385TIP3    H122096   5.728   7.588   0.917  0.6439  0.8685  1.0272
 7385TIP3    H222097   5.584   7.631   0.902  0.2760 -1.4802 -4.6650
 7386TIP3   OH222098   0.238   1.436   5.744  0.0766 -0.3485  0.1333
 7386TIP3    H122099   0.294   1.375   5.697  1.0590 -0.7537  1.7438
 7386TIP3    H222100   0.155   1.434   5.697  0.7915 -1.2202 -1.1548
 7387TIP3   OH222101   4.796   6.864   0.548  0.0499  0.1974 -0.1493
 7387TIP3    H122102   4.762   6.812   0.621  2.9629  1.1381  2.0486
 7387TIP3    H222103   4.847   6.803   0.496 -1.1180 -0.2341 -0.8328
 7388TIP3   OH222104   3.401   0.848   4.888  0.2280  0.0444  0.6064
 7388TIP3    H122105   3.361   0.926   4.850  1.4243 -0.1356 -1.1129
 7388TIP3    H222106   3.399   0.864   4.982 -3.9173  0.0086  0.7254
 7389TIP3   OH222107   8.184   7.311   5.379  0.0046  0.1006 -0.9794
 7389TIP3    H122108   8.161   7.236   5.435 -1.3992 -0.9633 -2.8642
 7389TIP3    H222109   8.203   7.382   5.441 -1.5939 -0.9737  0.8649
 7390TIP3   OH222110   3.076   0.402   6.618  0.1592 -0.1114  0.1264
 7390TIP3    H122111   3.073   0.371   6.527  2.9506 -1.0671  0.2611
 7390TIP3    H222112   3.157   0.452   6.623 -0.3581  0.6200  1.9178
 7391TIP3   OH222113   2.792   1.836   3.846 -0.3772 -0.3395  0.1649
 7391TIP3    H122114   2.719   1.775   3.854 -1.0276  0.4871  0.6037
 7391TIP3    H222115   2.849   1.797   3.779 -1.0582 -1.1420  0.0482
 7392TIP3   OH222116   2.070   6.449   3.657  0.2819  0.3034  0.1157
 7392TIP3    H122117   2.130   6.408   3.719 -0.6504  1.0972  1.6036
 7392TIP3    H222118   2.080   6.543   3.671 -0.6739  0.4735 -0.2280
 7393TIP3   OH222119   3.312   3.581   5.010  0.0368 -0.3397 -0.2473
 7393TIP3    H122120   3.252   3.558   4.939  0.7550 -0.9920 -0.6537
 7393TIP3    H222121   3.347   3.498   5.040  1.5727  0.0894 -0.7630
 7394TIP3   OH222122   0.774   0.026   4.742  0.6125 -0.0167  0.8504
 7394TIP3    H122123   0.702   0.010   4.683  0.6155 -1.0879  1.1185
 7394TIP3    H222124   0.824   0.097   4.701  0.2239 -0.2593 -0.0556
 7395TIP3   OH222125   5.796   3.260   3.286 -0.5470  0.2544  0.3793
 7395TIP3    H122126   5.853   3.282   3.359 -0.0454 -1.9326  0.7260
 7395TIP3    H222127   5.820   3.170   3.263 -2.1796  0.1295 -1.0741
 7396TIP3   OH222128   7.724   7.508   0.118  0.4380 -0.2914 -0.0716
 7396TIP3    H122129   7.699   7.483   0.029 -2.6944  2.2858 -0.1120
 7396TIP3    H222130   7.684   7.442   0.174 -1.4864  0.4434 -0.4809
 7397TIP3   OH222131   1.682   1.736   6.140 -0.0949  0.2826 -0.0518
 7397TIP3    H122132   1.776   1.719   6.141 -0.5473 -2.8840 -1.0197
 7397TIP3    H222133   1.642   1.655   6.173 -2.5637  0.6132 -1.9385
 7398TIP3   OH222134   3.385   2.452   4.845 -0.0539 -0.4563  0.0360
 7398TIP3    H122135   3.301   2.470   4.803 -0.2087 -0.8212  0.1858
 7398TIP3    H222136   3.449   2.459   4.774 -0.1883  0.0172 -0.0394
 7399TIP3   OH222137   7.421   7.802   0.920 -0.1426 -0.4453 -0.4480
 7399TIP3    H122138   7.424   7.889   0.880 -0.4404 -0.8693 -1.4192
 7399TIP3    H222139   7.410   7.819   1.014 -1.4715  0.5535 -0.7511
 7400TIP3   OH222140   4.404   2.108   0.366 -0.1164 -0.0592  0.4072
 7400TIP3    H122141   4.421   2.024   0.324 -1.3675  0.1633 -0.6230
 7400TIP3    H222142   4.321   2.095   0.413  0.4903  0.1476  1.5529
 7401TIP3   OH222143   0.537   5.046   0.072 -0.1196 -0.1378  0.7861
 7401TIP3    H122144   0.447   5.067   0.049 -0.1958 -0.6573  0.6013
 7401TIP3    H222145   0.535   5.032   0.167  0.0590  1.3074  1.0168
 7402TIP3   OH222146   3.079   3.753   6.753 -0.2347  0.3479 -0.0460
 7402TIP3    H122147   3.117   3.675   6.795  0.6952  0.0576 -1.3643
 7402TIP3    H222148   3.136   3.825   6.781  1.4280 -0.0916 -2.0482
 7403TIP3   OH222149   6.297   2.226   2.777  0.0986  0.1047  1.0233
 7403TIP3    H122150   6.301   2.292   2.847  0.7400 -0.2626  1.3507
 7403TIP3    H222151   6.388   2.219   2.747 -0.2696  0.7173 -0.2977
 7404TIP3   OH222152   0.284   3.285   1.239  0.1800 -0.3960  0.4024
 7404TIP3    H122153   0.237   3.290   1.156 -0.4306 -0.2101  0.7509
 7404TIP3    H222154   0.226   3.233   1.295 -0.0279  0.5818  1.1116
 7405TIP3   OH222155   4.998   1.921   4.778  0.2796 -0.6738 -0.0988
 7405TIP3    H122156   4.917   1.890   4.737 -0.3613  0.7337  0.0124
 7405TIP3    H222157   5.018   2.003   4.733  0.8815 -0.3065  0.7908
 7406TIP3   OH222158   5.225   7.749   3.763 -0.3825 -0.8284 -0.3120
 7406TIP3    H122159   5.218   7.681   3.696 -0.3327  0.1491 -1.3477
 7406TIP3    H222160   5.233   7.831   3.713 -1.0446  0.0023  0.8830
 7407TIP3   OH222161  -0.018   4.120   5.050 -0.0957  0.1630 -0.0182
 7407TIP3    H122162   0.072   4.098   5.075 -0.3223 -0.4665  0.2729
 7407TIP3    H222163  -0.011   4.205   5.006  0.3860  1.0190  1.6436
 7408TIP3   OH222164   6.362   3.929   0.279  0.3002  0.4204 -0.1766
 7408TIP3    H122165   6.420   3.958   0.350  0.2147  0.6928 -0.2148
 7408TIP3    H222166   6.319   4.010   0.250 -1.0858  0.0376  0.7293
 7409TIP3   OH222167   2.695   3.065   0.533 -0.3824  0.3335  0.0732
 7409TIP3    H122168   2.621   3.056   0.473  0.9011 -1.6065 -1.3451
 7409TIP3    H222169   2.754   3.127   0.489 -0.0927  0.0205  0.0152
 7410TIP3   OH222170   6.359   6.713   3.482 -0.1261 -0.2048  0.1163
 7410TIP3    H122171   6.367   6.731   3.576  2.0715  2.6994 -0.4781
 7410TIP3    H222172   6.329   6.796   3.445  0.7865 -0.7383 -1.9390
 7411TIP3   OH222173   6.952   3.968   2.555 -0.0317 -0.4341  0.2619
 7411TIP3    H122174   7.015   4.038   2.569  0.3999 -0.7129 -0.2479
 7411TIP3    H222175   6.915   3.985   2.468 -1.6299  0.4634  1.0616
 7412TIP3   OH222176   1.529   4.635   3.485  0.0077  0.3462 -0.1581
 7412TIP3    H122177   1.541   4.568   3.552 -0.1183 -0.2369 -0.7020
 7412TIP3    H222178   1.596   4.615   3.419 -0.5875  0.2251 -0.7383
 7413TIP3   OH222179   3.688   7.406   0.716 -0.2268 -0.1913 -0.3739
 7413TIP3    H122180   3.655   7.320   0.689  1.3909 -1.1449  0.4997
 7413TIP3    H222181   3.631   7.433   0.787 -2.1026  0.5274 -2.0587
 7414TIP3   OH222182   2.115   7.694   5.584 -0.1792 -0.4200 -0.1889
 7414TIP3    H122183   2.120   7.731   5.496 -3.0109  0.1981 -0.1641
 7414TIP3    H222184   2.059   7.618   5.575  0.2561 -0.8954  0.9445
 7415TIP3   OH222185   8.277  -0.011   6.252  0.1438  0.0921 -0.4687
 7415TIP3    H122186   8.292   0.084   6.247  0.7958 -0.0109 -0.5395
 7415TIP3    H222187   8.280  -0.031   6.345 -1.6532  0.3912 -0.3200
 7416TIP3   OH222188   6.102   2.074   0.431 -0.2868 -0.4324  0.6009
 7416TIP3    H122189   6.184   2.113   0.399  0.3216 -1.4328  0.9126
 7416TIP3    H222190   6.118   1.980   0.429 -1.5181 -0.6497  0.4571
 7417TIP3   OH222191   0.548   2.284   6.408 -0.2558  0.1986  0.2062
 7417TIP3    H122192   0.493   2.206   6.396 -1.2860  0.8809  0.3709
 7417TIP3    H222193   0.637   2.250   6.407 -0.6431 -0.8655 -0.6579
 7418TIP3   OH222194   5.079   1.490   4.702  0.2099  0.0610  0.1194
 7418TIP3    H122195   4.986   1.477   4.685  0.3330 -1.3462  0.4309
 7418TIP3    H222196   5.104   1.563   4.645 -1.6538  2.3257  2.0004
 7419TIP3   OH222197   6.255   7.684   0.656 -0.0275  0.7463  0.1922
 7419TIP3    H122198   6.170   7.704   0.617  0.0266  1.4616  0.4207
 7419TIP3    H222199   6.247   7.593   0.685 -0.1772  0.3160 -1.1531
 7420TIP3   OH222200   6.256   5.698   6.150 -0.1989 -0.6409  0.5215
 7420TIP3    H122201   6.272   5.755   6.075 -1.3257 -0.7147  0.2145
 7420TIP3    H222202   6.311   5.621   6.134 -0.9300 -0.9495 -0.5724
 7421TIP3   OH222203   5.593   0.756   4.380 -0.3887  0.0378 -0.5564
 7421TIP3    H122204   5.647   0.681   4.403  1.2533  1.2058 -0.4382
 7421TIP3    H222205   5.645   0.803   4.314 -0.4561  2.0892  0.7661
 7422TIP3   OH222206   0.504   5.028   1.460 -0.3449  0.0188  0.2161
 7422TIP3    H122207   0.477   5.012   1.370  1.3132 -0.1337 -0.2926
 7422TIP3    H222208   0.448   5.100   1.490 -0.0118  0.9863 -1.3876
 7423TIP3   OH222209   0.845   5.570   4.816 -0.9056 -0.3861  0.0517
 7423TIP3    H122210   0.899   5.550   4.739 -1.1965  0.2491 -0.3222
 7423TIP3    H222211   0.896   5.537   4.890 -0.2045 -0.1978 -0.3357
 7424TIP3   OH222212   0.066   1.740   1.069 -0.4572 -0.5376  0.1776
 7424TIP3    H122213   0.063   1.835   1.074 -0.0160 -0.4521 -0.9956
 7424TIP3    H222214   0.009   1.718   0.995  0.4695 -1.0963 -0.3796
 7425TIP3   OH222215   5.362   3.265   2.641  0.2424 -0.0470 -0.4757
 7425TIP3    H122216   5.289   3.270   2.579 -0.0148 -0.3924 -0.2051
 7425TIP3    H222217   5.322   3.272   2.727  0.6596  1.0073 -0.3497
 7426TIP3   OH222218   0.579   0.411   6.154  0.2545 -0.8711  0.0522
 7426TIP3    H122219   0.656   0.378   6.107  1.4899  1.0542  0.6151
 7426TIP3    H222220   0.565   0.347   6.224  1.0337 -1.5035 -0.3491
 7427TIP3   OH222221   7.458   7.752   0.100  0.0605  0.1496  0.0476
 7427TIP3    H122222   7.458   7.847   0.099 -1.5160  0.1780 -1.1229
 7427TIP3    H222223   7.384   7.728   0.156 -0.0506 -0.3850 -0.3210
 7428TIP3   OH222224   1.009   2.859   5.074 -0.1997 -0.2752  0.7026
 7428TIP3    H122225   0.947   2.843   5.003  0.1315 -1.6646  0.6956
 7428TIP3    H222226   0.959   2.844   5.154  0.0209 -1.0681  0.7026
 7429TIP3   OH222227   5.504   6.496   4.693 -0.2711  0.5651  0.3918
 7429TIP3    H122228   5.475   6.411   4.724  1.3959 -0.1288  0.1615
 7429TIP3    H222229   5.451   6.513   4.615 -0.8117 -0.1229  0.6026
 7430TIP3   OH222230   5.399   6.951   1.224  0.4101  0.0551  0.4907
 7430TIP3    H122231   5.434   7.026   1.177 -0.6614  0.4758  0.3516
 7430TIP3    H222232   5.310   6.940   1.191  0.2355 -0.7119  1.1685
 7431TIP3   OH222233   4.964   3.521   1.070 -0.1235  0.0151  0.3650
 7431TIP3    H122234   4.954   3.565   1.154  0.3857  0.2218  0.3220
 7431TIP3    H222235   4.876   3.523   1.031 -0.3160  0.1072  0.7954
 7432TIP3   OH222236   4.051   2.270   2.692  0.8060 -0.4336  0.0554
 7432TIP3    H122237   4.030   2.361   2.712  0.0507 -0.3957 -0.8591
 7432TIP3    H222238   4.144   2.262   2.715  1.2861  0.9844 -1.2003
 7433TIP3   OH222239   5.023   6.151   6.342 -0.0740 -0.1363 -0.4281
 7433TIP3    H122240   5.109   6.152   6.298  0.9642  0.5463  1.5079
 7433TIP3    H222241   4.975   6.223   6.301  0.3503 -0.3479 -1.3462
 7434TIP3   OH222242   1.964   7.500   4.378  0.1765  0.2562  0.0712
 7434TIP3    H122243   2.055   7.518   4.404  0.3486 -2.7750  2.0200
 7434TIP3    H222244   1.970   7.480   4.284  2.0237 -2.1630  0.5900
 7435TIP3   OH222245   6.878   6.075   4.368 -0.3206 -0.2671  0.1824
 7435TIP3    H122246   6.842   6.155   4.408 -0.1619 -0.0417 -0.1205
 7435TIP3    H222247   6.959   6.059   4.416 -1.1298 -1.1541  1.3199
 7436TIP3   OH222248   4.870   7.826   4.980  0.5588 -0.7431  0.2199
 7436TIP3    H122249   4.842   7.841   5.070 -1.2682 -1.3926 -0.1881
 7436TIP3    H222250   4.966   7.829   4.983  0.5434  1.9932  1.6810
 7437TIP3   OH222251   3.085   5.483   5.499  0.3002 -0.0422 -0.3123
 7437TIP3    H122252   3.130   5.501   5.417 -1.1000 -1.3599 -1.4320
 7437TIP3    H222253   3.062   5.570   5.533  3.4493  0.6783  0.2747
 7438TIP3   OH222254   2.987   4.060   4.503  0.0099 -0.2296  0.0405
 7438TIP3    H122255   2.959   3.973   4.533 -1.7369  0.7268  1.3467
 7438TIP3    H222256   3.082   4.059   4.512  0.3150 -2.7546 -2.1128
 7439TIP3   OH222257   4.466   0.418   0.838  0.1755 -0.1016 -0.3158
 7439TIP3    H122258   4.396   0.405   0.775 -0.1888 -0.0238  0.0690
 7439TIP3    H222259   4.453   0.350   0.904 -0.1371  0.5179  0.2813
 7440TIP3   OH222260   6.285   3.848   3.531 -0.3620  0.1730  0.0918
 7440TIP3    H122261   6.260   3.885   3.446  0.6776  0.8045  0.0400
 7440TIP3    H222262   6.319   3.761   3.510  1.1280  0.8282 -0.3313
 7441TIP3   OH222263   0.485   1.159   1.245  0.5695  0.2320  1.1298
 7441TIP3    H122264   0.552   1.092   1.252 -1.9388 -2.6467  0.0835
 7441TIP3    H222265   0.421   1.136   1.312  0.0658  2.2083  1.3927
 7442TIP3   OH222266   8.034   4.152   6.074  0.1015  0.0724 -0.3692
 7442TIP3    H122267   8.101   4.215   6.100  1.5942 -1.3597 -0.6062
 7442TIP3    H222268   7.963   4.165   6.137  1.1853  0.6744  0.7737
 7443TIP3   OH222269   3.681   2.048   3.952 -0.3359 -0.1968  0.1508
 7443TIP3    H122270   3.739   2.111   3.995  0.8133 -2.2317  1.8193
 7443TIP3    H222271   3.668   2.083   3.864  3.1081  0.6254 -0.1872
 7444TIP3   OH222272   4.435   6.767   2.412 -0.4406  0.0724  0.3178
 7444TIP3    H122273   4.443   6.672   2.407 -0.5584 -0.0167  1.6377
 7444TIP3    H222274   4.345   6.785   2.385  0.0766 -0.0043 -1.6846
 7445TIP3   OH222275   6.281   3.343   1.160  0.1417 -0.0978  0.2631
 7445TIP3    H122276   6.215   3.298   1.107  1.9591  0.4651 -2.7417
 7445TIP3    H222277   6.252   3.331   1.250 -2.3422 -2.5477 -0.7171
 7446TIP3   OH222278   7.176   5.637   6.324 -0.4670  0.4318  0.7457
 7446TIP3    H122279   7.130   5.691   6.260  0.7304 -0.5972 -1.0837
 7446TIP3    H222280   7.268   5.658   6.311 -0.1931  0.0968  2.0722
 7447TIP3   OH222281   2.517   0.647   6.634 -1.0168  1.1188 -0.2808
 7447TIP3    H122282   2.491   0.556   6.645 -0.7998  0.5949 -3.3301
 7447TIP3    H222283   2.512   0.684   6.722 -1.8514 -1.6107  0.9236
 7448TIP3   OH222284   1.478   1.412   1.165 -0.3073  0.2480  0.0967
 7448TIP3    H122285   1.413   1.420   1.096 -1.3440  0.5416  1.0954
 7448TIP3    H222286   1.505   1.502   1.184 -0.6852  0.2393  0.6893
 7449TIP3   OH222287   7.163   0.601   6.646 -0.4321 -0.8112  0.4741
 7449TIP3    H122288   7.130   0.562   6.727  1.0682  0.2728  1.6601
 7449TIP3    H222289   7.255   0.574   6.641 -0.2390 -0.0661 -0.3581
 7450TIP3   OH222290   6.460   4.060   5.081 -0.1386  0.1290 -0.3249
 7450TIP3    H122291   6.440   4.153   5.077  0.1399  0.1577 -2.4223
 7450TIP3    H222292   6.375   4.017   5.091 -0.1835  0.5963  1.7423
 7451TIP3   OH222293   4.114   7.609   6.791 -0.4081 -0.3908  0.0013
 7451TIP3    H122294   4.090   7.699   6.812 -0.2623 -0.0240 -1.3318
 7451TIP3    H222295   4.202   7.615   6.754 -0.0912 -1.1787  0.5891
 7452TIP3   OH222296   6.103   3.583   3.594  0.4317 -0.3579  0.0519
 7452TIP3    H122297   6.010   3.571   3.578  0.2043  1.1341  0.0867
 7452TIP3    H222298   6.146   3.549   3.515 -0.1928 -0.3374 -0.3034
 7453TIP3   OH222299   3.523   2.372   2.057 -0.1668 -0.0002 -0.5495
 7453TIP3    H122300   3.588   2.308   2.029 -0.5947 -0.9689  0.6112
 7453TIP3    H222301   3.483   2.403   1.975  1.0612 -0.1000 -1.2066
 7454TIP3   OH222302   6.800   6.475   3.159 -0.1840  0.7620 -0.1290
 7454TIP3    H122303   6.871   6.453   3.219  0.6801  0.6078 -1.1620
 7454TIP3    H222304   6.720   6.464   3.210  0.4034 -1.2187  0.4543
 7455TIP3   OH222305   3.014   0.240   2.621 -0.3316  0.0285 -0.4112
 7455TIP3    H122306   2.994   0.147   2.612 -3.5073  0.6089 -0.5162
 7455TIP3    H222307   3.006   0.258   2.715 -1.4667  0.4745 -0.5738
 7456TIP3   OH222308   3.094   3.908   1.372  0.2318 -0.1803  0.0889
 7456TIP3    H122309   3.085   3.813   1.369 -1.0926 -0.0807  0.2111
 7456TIP3    H222310   3.153   3.929   1.300 -2.2424 -0.8311 -2.3279
 7457TIP3   OH222311   1.740   7.779   0.520 -0.0983 -0.1449  0.1681
 7457TIP3    H122312   1.645   7.783   0.530 -0.3536 -3.0513 -0.4026
 7457TIP3    H222313   1.754   7.779   0.425  0.4736  0.0053  0.2487
 7458TIP3   OH222314   8.323   0.846   1.223 -0.4463 -0.1364 -0.3957
 7458TIP3    H122315   8.281   0.783   1.281 -0.2981  0.9203  0.9265
 7458TIP3    H222316   8.416   0.823   1.226 -0.5092 -0.4350 -0.6834
 7459TIP3   OH222317   0.480   4.326   4.338 -0.2411 -0.0548  0.0512
 7459TIP3    H122318   0.538   4.262   4.378 -0.7883 -0.2984  0.4802
 7459TIP3    H222319   0.538   4.388   4.294  0.3416 -0.1989  0.6088
 7460TIP3   OH222320   1.164   3.871   6.744  0.3935  0.0783 -0.1350
 7460TIP3    H122321   1.106   3.947   6.738  1.7270  1.0678 -0.9670
 7460TIP3    H222322   1.145   3.833   6.830 -0.2480  1.3842  0.3314
 7461TIP3   OH222323   2.969   1.696   5.973 -0.2521  0.3466 -0.0843
 7461TIP3    H122324   3.058   1.698   5.939 -0.6745  0.1996 -1.2494
 7461TIP3    H222325   2.940   1.606   5.962 -0.0631  0.0214  1.6777
 7462TIP3   OH222326   4.034   4.134   5.030  0.1647  0.3880  0.0122
 7462TIP3    H122327   4.055   4.073   4.960 -0.2667 -0.4274  0.5822
 7462TIP3    H222328   4.053   4.086   5.111 -0.2087  0.9962  0.4712
 7463TIP3   OH222329   2.883   0.657   0.520  0.4386 -0.0222 -0.0309
 7463TIP3    H122330   2.802   0.644   0.570  1.4273 -0.4005  1.5471
 7463TIP3    H222331   2.871   0.742   0.477 -0.3994  0.3876  0.9706
 7464TIP3   OH222332   7.537   7.800   6.443 -0.4152 -1.0071  0.1699
 7464TIP3    H122333   7.510   7.739   6.511  0.3124 -0.9723  0.4999
 7464TIP3    H222334   7.564   7.744   6.370  1.9331 -1.1723  1.1001
 7465TIP3   OH222335   6.006   6.405   0.429  0.1839 -0.0747 -0.0120
 7465TIP3    H122336   5.988   6.447   0.345 -1.2115  0.0457  0.3183
 7465TIP3    H222337   6.069   6.462   0.472  0.0951  0.4323 -0.5456
 7466TIP3   OH222338   0.621   5.365   4.074 -0.1198 -0.1642 -0.1802
 7466TIP3    H122339   0.593   5.435   4.132  1.0167 -1.3250  1.9111
 7466TIP3    H222340   0.544   5.310   4.064 -1.6563  2.3050 -3.5380
 7467TIP3   OH222341   0.523   0.373   1.372  0.0154 -0.3742  0.8730
 7467TIP3    H122342   0.473   0.316   1.431  0.7297 -1.6910  0.2635
 7467TIP3    H222343   0.597   0.403   1.424 -0.2081 -0.2310  1.1128
 7468TIP3   OH222344   1.232   1.238   0.890  0.4164  0.3179 -0.4396
 7468TIP3    H122345   1.285   1.316   0.905  0.8658 -0.4036  2.1937
 7468TIP3    H222346   1.148   1.258   0.932  0.1879 -0.2544 -0.6144
 7469TIP3   OH222347   7.610   3.879   2.769  0.1791 -0.0736  0.5224
 7469TIP3    H122348   7.549   3.827   2.716  1.0498 -1.6276  0.9911
 7469TIP3    H222349   7.648   3.941   2.706  0.2514 -1.0389 -0.4250
 7470TIP3   OH222350   1.973   3.168   4.156  0.1943 -0.0544 -0.6362
 7470TIP3    H122351   2.037   3.166   4.228 -1.4415  1.0027  0.9642
 7470TIP3    H222352   1.983   3.256   4.119 -0.0047 -0.0546 -0.6884
 7471TIP3   OH222353   3.495   5.370   5.173  0.1962  0.1559 -0.4621
 7471TIP3    H122354   3.412   5.323   5.166 -0.5364  1.4056 -0.4400
 7471TIP3    H222355   3.559   5.303   5.196 -1.0533 -0.6193  0.8904
 7472TIP3   OH222356   7.511   1.925   1.252 -0.2355  0.2788  0.0460
 7472TIP3    H122357   7.567   1.900   1.324 -1.0726  1.0287  0.9843
 7472TIP3    H222358   7.443   1.857   1.250 -0.8294  0.8401  0.6844
 7473TIP3   OH222359   0.776   7.469   4.031 -0.5649  0.2772 -0.1052
 7473TIP3    H122360   0.862   7.479   4.072  0.1681 -0.3368 -1.4336
 7473TIP3    H222361   0.734   7.555   4.042  0.5014  0.8141 -0.0878
 7474TIP3   OH222362   3.912   1.592   2.720  0.3124  0.2235 -0.1158
 7474TIP3    H122363   3.923   1.611   2.627 -1.0003 -0.0258 -0.3528
 7474TIP3    H222364   3.973   1.521   2.738 -0.1262 -0.4034 -1.0352
 7475TIP3   OH222365   4.098   0.157   6.686  0.4299 -0.1935 -0.3520
 7475TIP3    H122366   4.047   0.180   6.763  1.0349  0.0971 -0.0334
 7475TIP3    H222367   4.187   0.183   6.707  1.1714 -2.7464  0.0325
 7476TIP3   OH222368   8.233   4.465   0.980 -0.3708  0.4314 -0.0416
 7476TIP3    H122369   8.327   4.476   0.968 -0.0526 -1.1697  0.7416
 7476TIP3    H222370   8.197   4.553   0.969  1.1391  0.9677 -0.9282
 7477TIP3   OH222371   0.510   5.659   2.181  0.5065  0.1630 -0.5873
 7477TIP3    H122372   0.597   5.654   2.220 -0.7703  0.4872  2.6889
 7477TIP3    H222373   0.480   5.568   2.178 -0.0587  0.2548  1.0887
 7478TIP3   OH222374   3.679   4.810   4.710  0.0534  0.6762 -0.3494
 7478TIP3    H122375   3.753   4.752   4.692 -0.4483 -0.2402  0.4356
 7478TIP3    H222376   3.614   4.787   4.643  0.1198  0.8186 -0.4626
 7479TIP3   OH222377   1.058   2.844   3.213  0.1647  0.0531  0.0625
 7479TIP3    H122378   1.024   2.925   3.250  0.7923  0.4938 -0.2973
 7479TIP3    H222379   1.034   2.848   3.120  1.8321  0.7520 -0.3780
 7480TIP3   OH222380   5.492   1.445   1.471 -0.1387  0.1584  0.0133
 7480TIP3    H122381   5.528   1.443   1.559 -1.0054 -1.5800  0.3862
 7480TIP3    H222382   5.568   1.448   1.413  0.4282  2.0119  0.7867
 7481TIP3   OH222383   3.171   7.742   0.589  0.0952 -0.0380  0.1685
 7481TIP3    H122384   3.123   7.740   0.506  0.5423 -0.4876 -0.0808
 7481TIP3    H222385   3.104   7.766   0.654 -0.3231  0.0104 -0.2737
 7482TIP3   OH222386   0.800   1.471   4.936 -0.3744 -0.1354 -0.0283
 7482TIP3    H122387   0.826   1.545   4.880  0.8587 -0.3238  0.2573
 7482TIP3    H222388   0.865   1.403   4.917 -1.3411 -1.0687 -0.0902
 7483TIP3   OH222389   8.068   5.273   4.110 -0.2325 -0.0290  0.5002
 7483TIP3    H122390   8.054   5.364   4.137 -0.2782  0.6051 -1.5037
 7483TIP3    H222391   8.123   5.279   4.031 -0.0452 -1.7506  0.4602
 7484TIP3   OH222392   4.512   6.748   4.293  0.5140  0.3927 -0.0237
 7484TIP3    H122393   4.602   6.780   4.297 -0.0160  1.8943  1.2558
 7484TIP3    H222394   4.513   6.681   4.226  2.5432  0.5142 -0.1778
 7485TIP3   OH222395   3.381   5.089   1.066  0.1606 -0.9928  0.3667
 7485TIP3    H122396   3.301   5.084   1.014  0.1177  0.5957  0.2352
 7485TIP3    H222397   3.360   5.041   1.147 -0.7730 -0.9801  0.1456
 7486TIP3   OH222398   1.375   0.205   1.541  0.0950 -0.6384 -0.3844
 7486TIP3    H122399   1.301   0.198   1.602  1.6786  1.4537  1.9586
 7486TIP3    H222400   1.341   0.259   1.470 -1.0498 -0.9469 -0.1070
 7487TIP3   OH222401   2.260   2.196   2.852 -0.1987  0.0873 -0.0308
 7487TIP3    H122402   2.341   2.154   2.823 -0.0082  0.4454 -0.0202
 7487TIP3    H222403   2.274   2.216   2.944 -0.4631 -0.2380  0.0820
 7488TIP3   OH222404   0.733   1.131   5.638  0.3317  0.4555  0.1858
 7488TIP3    H122405   0.751   1.103   5.728  2.7194 -1.2119 -0.7107
 7488TIP3    H222406   0.811   1.180   5.612  0.4072 -0.4446 -1.4442
 7489TIP3   OH222407   1.615   1.291   5.029  0.2950 -0.0915  0.6303
 7489TIP3    H122408   1.608   1.285   5.124  0.2065 -0.2389  0.6146
 7489TIP3    H222409   1.524   1.291   4.998  0.3216  0.0701  0.5535
 7490TIP3   OH222410   3.228   6.593   0.594  0.4396 -0.1578 -0.5603
 7490TIP3    H122411   3.171   6.650   0.646  2.4305  0.5194  1.0040
 7490TIP3    H222412   3.263   6.650   0.525  2.2624  0.5524  0.8756
 7491TIP3   OH222413   1.450   5.516   0.679  0.4539 -0.0307  0.0724
 7491TIP3    H122414   1.497   5.435   0.659 -1.3343 -0.9644 -0.5186
 7491TIP3    H222415   1.398   5.496   0.757 -0.1005  0.5039 -0.1481
 7492TIP3   OH222416   5.071   2.648   5.506  0.0120 -0.1118 -0.1905
 7492TIP3    H122417   4.982   2.636   5.537 -0.7620  1.0808 -1.7971
 7492TIP3    H222418   5.109   2.560   5.504 -1.7380 -0.8808 -1.2292
 7493TIP3   OH222419   6.404   5.116   1.512 -0.3048 -0.3734 -0.3917
 7493TIP3    H122420   6.358   5.129   1.595 -0.7904  1.4025 -0.8871
 7493TIP3    H222421   6.425   5.023   1.510 -3.0018 -1.0863  0.3215
 7494TIP3   OH222422   3.060   2.542   1.355  0.0752  0.7911  0.2941
 7494TIP3    H122423   3.136   2.596   1.377 -0.1261  0.6875  1.3185
 7494TIP3    H222424   3.071   2.463   1.408 -0.6276  0.6762  0.2826
 7495TIP3   OH222425   3.903   7.766   4.229 -0.0477 -0.3273  0.6418
 7495TIP3    H122426   3.884   7.738   4.140 -2.5600  0.9997  0.6683
 7495TIP3    H222427   3.909   7.685   4.279 -0.7964 -1.0337 -0.3696
 7496TIP3   OH222428   6.170   0.564   3.342  0.0421 -0.5491 -0.5283
 7496TIP3    H122429   6.206   0.478   3.365 -0.6860 -1.2288 -1.7986
 7496TIP3    H222430   6.190   0.619   3.417 -0.3603 -2.0869  0.7658
 7497TIP3   OH222431   6.325   3.507   2.980 -0.2649  0.0003  0.3853
 7497TIP3    H122432   6.375   3.576   3.024 -0.2887  0.3953 -0.1941
 7497TIP3    H222433   6.372   3.493   2.898  0.1108 -1.1328  0.7708
 7498TIP3   OH222434   8.066   0.795   0.554 -0.3129 -0.0418  0.3650
 7498TIP3    H122435   8.121   0.867   0.523  2.2651 -2.1391 -0.2712
 7498TIP3    H222436   8.085   0.789   0.648 -1.4494  0.7994  0.6722
 7499TIP3   OH222437   3.072   3.029   0.535 -0.1943  0.1609 -0.5189
 7499TIP3    H122438   3.072   3.125   0.539  0.6706  0.1524  0.0103
 7499TIP3    H222439   3.165   3.005   0.538 -0.3209 -0.6509 -1.9430
 7500TIP3   OH222440   7.124   3.069   2.883 -0.8807 -0.1698 -0.0728
 7500TIP3    H122441   7.061   3.046   2.815 -0.2364 -1.7142 -0.1944
 7500TIP3    H222442   7.208   3.073   2.838 -0.7165  0.7089  0.2921
 7501TIP3   OH222443   2.702   1.738   4.847  0.9727  0.6098  0.1672
 7501TIP3    H122444   2.710   1.771   4.758  0.1450 -1.3219 -0.6861
 7501TIP3    H222445   2.620   1.687   4.847  1.6390 -0.5605  1.6320
 7502TIP3   OH222446   3.162   2.278   5.832 -0.4325  0.0955  0.7948
 7502TIP3    H122447   3.134   2.264   5.741  0.9167  0.9561  0.2022
 7502TIP3    H222448   3.100   2.341   5.868  0.1950  1.3537 -0.2268
 7503TIP3   OH222449   6.255   3.956   0.901 -0.1248 -0.9547 -0.2950
 7503TIP3    H122450   6.195   3.887   0.929 -0.5317 -0.8823 -0.9637
 7503TIP3    H222451   6.342   3.916   0.905 -0.0803 -0.7440  1.6916
 7504TIP3   OH222452   3.049   7.393   6.751 -0.5032  0.1077  1.2895
 7504TIP3    H122453   3.057   7.301   6.727  1.5518  1.2512 -3.5201
 7504TIP3    H222454   2.955   7.410   6.749 -0.7673 -1.1924 -1.3678
 7505TIP3   OH222455   0.647   3.925   2.171 -0.1017 -0.3084 -0.2845
 7505TIP3    H122456   0.673   3.918   2.079 -1.0315  0.2350 -0.6050
 7505TIP3    H222457   0.573   3.864   2.180 -1.7677  1.5482 -0.6056
 7506TIP3   OH222458   5.760   2.588   3.243  0.1535 -0.7087 -0.1957
 7506TIP3    H122459   5.801   2.578   3.157 -0.3777 -1.5364 -0.3663
 7506TIP3    H222460   5.787   2.510   3.292  1.4935  0.3739  0.8457
 7507TIP3   OH222461   7.712   0.456   0.508  0.0759  0.1075  0.1778
 7507TIP3    H122462   7.781   0.513   0.473  1.0699 -1.7789 -1.1565
 7507TIP3    H222463   7.631   0.493   0.475  0.6130  1.2269  0.0595
 7508TIP3   OH222464   0.840   6.520   6.361 -0.0084 -0.0149  0.2430
 7508TIP3    H122465   0.868   6.510   6.270 -1.3082  0.0445 -0.1886
 7508TIP3    H222466   0.854   6.613   6.380 -1.7590  0.4835 -0.6516
 7509TIP3   OH222467   5.670   4.487   6.019 -0.0054 -0.2694  0.2553
 7509TIP3    H122468   5.636   4.435   6.092  1.3237 -0.8717  0.4603
 7509TIP3    H222469   5.595   4.494   5.959 -0.6017 -1.2899  0.8389
 7510TIP3   OH222470   2.407   4.931   1.574  0.0766  0.2434 -0.0834
 7510TIP3    H122471   2.492   4.975   1.568  0.0580  0.1436 -1.7851
 7510TIP3    H222472   2.397   4.888   1.489 -0.3047 -2.3268  1.1496
 7511TIP3   OH222473   8.173   6.280   0.471 -0.3988  0.0007  0.4664
 7511TIP3    H122474   8.188   6.259   0.378 -0.7699  0.2444  0.3493
 7511TIP3    H222475   8.173   6.376   0.473 -0.9991 -0.0019  0.6182
 7512TIP3   OH222476   1.869   6.347   4.613  0.0043 -0.3489 -1.0871
 7512TIP3    H122477   1.908   6.345   4.525  0.7182 -2.2605 -0.7774
 7512TIP3    H222478   1.942   6.370   4.671  0.0829 -1.3201 -0.7796
 7513TIP3   OH222479   4.546   4.844   5.546 -0.4619  0.7515 -0.2284
 7513TIP3    H122480   4.500   4.779   5.598  0.5011 -0.1880 -0.5227
 7513TIP3    H222481   4.588   4.794   5.476  0.5007  1.6500 -0.3159
 7514TIP3   OH222482   0.086   3.671   5.785  0.3005 -0.7148 -0.4427
 7514TIP3    H122483   0.093   3.652   5.692  0.9411 -0.5064 -0.4471
 7514TIP3    H222484   0.047   3.592   5.823 -2.3649  0.1273 -1.2043
 7515TIP3   OH222485   7.714   6.901   1.911 -0.0031 -0.1306 -0.6501
 7515TIP3    H122486   7.696   6.990   1.880  0.7925 -0.0823 -0.9934
 7515TIP3    H222487   7.807   6.902   1.934 -0.5145 -0.1920  1.6779
 7516TIP3   OH222488   0.812   3.658   5.337 -0.3234 -0.4118  0.0580
 7516TIP3    H122489   0.817   3.716   5.261 -0.0653 -0.0921  0.3117
 7516TIP3    H222490   0.804   3.718   5.411  3.3960 -0.4515  0.6896
 7517TIP3   OH222491   2.586   4.750   1.966  0.7093 -0.0122  0.3858
 7517TIP3    H122492   2.515   4.704   1.921  0.5135  1.1774 -0.5740
 7517TIP3    H222493   2.602   4.828   1.912  1.0320  1.0409  1.9524
 7518TIP3   OH222494   4.525   5.480   2.716 -0.1222 -0.0223  0.4209
 7518TIP3    H122495   4.459   5.548   2.701  1.3170  1.2963 -0.1179
 7518TIP3    H222496   4.608   5.527   2.717  1.0915 -1.9626 -1.5513
 7519TIP3   OH222497   1.656   6.526   1.663  0.0457  0.3498 -0.2120
 7519TIP3    H122498   1.718   6.556   1.596 -1.0143 -0.7288 -1.7752
 7519TIP3    H222499   1.604   6.603   1.684  0.7189  0.8243 -0.2581
 7520TIP3   OH222500   4.316   6.087   4.830  0.7202  0.1792  0.1116
 7520TIP3    H122501   4.326   6.002   4.873  0.6959  0.0001 -0.2304
 7520TIP3    H222502   4.397   6.133   4.848  1.5090 -0.6242 -1.2479
 7521TIP3   OH222503   5.856   4.071   4.064 -0.0284 -0.2898 -0.2555
 7521TIP3    H122504   5.849   4.141   4.129  1.0516 -0.9204  0.5905
 7521TIP3    H222505   5.950   4.056   4.056 -0.0553  0.3189 -2.6179
 7522TIP3   OH222506   4.036   5.591   0.694  0.6354 -0.0943  0.2310
 7522TIP3    H122507   4.006   5.657   0.631  2.1511 -0.0440 -0.4888
 7522TIP3    H222508   3.992   5.615   0.776 -1.8275 -0.5064 -0.8750
 7523TIP3   OH222509   2.459   7.019   3.060  0.4446  0.2774 -0.3812
 7523TIP3    H122510   2.459   7.076   2.983  2.7498  1.3851  0.3262
 7523TIP3    H222511   2.441   6.932   3.026 -0.2615  1.0016 -1.9254
 7524TIP3   OH222512   8.089   3.970   5.295 -0.1723 -0.0115 -0.7449
 7524TIP3    H122513   8.099   3.917   5.216  2.1882  3.0972 -2.7589
 7524TIP3    H222514   8.025   4.037   5.271 -0.1929  0.3939  0.3857
 7525TIP3   OH222515   7.025   7.889   1.827  1.0946  0.0978 -0.3587
 7525TIP3    H122516   6.972   7.860   1.753 -0.1665  0.7116  0.2742
 7525TIP3    H222517   7.030   7.813   1.885  3.1683 -0.8142 -1.5890
 7526TIP3   OH222518   4.989   2.868   5.066  0.0596 -0.0071  0.3547
 7526TIP3    H122519   5.058   2.928   5.036 -2.4181  2.0271 -1.7435
 7526TIP3    H222520   5.013   2.784   5.027  1.9265  0.3688  0.6125
 7527TIP3   OH222521   4.473   2.951   6.617  0.4145  0.1617 -0.3152
 7527TIP3    H122522   4.552   2.917   6.575  0.2412  1.1477 -1.4772
 7527TIP3    H222523   4.404   2.890   6.591  0.7573 -0.7263  0.7364
 7528TIP3   OH222524   4.481   4.374   2.704 -0.3704 -0.0557 -0.1710
 7528TIP3    H122525   4.392   4.337   2.699 -0.2188 -0.5169  0.4261
 7528TIP3    H222526   4.533   4.317   2.647  0.0038 -1.2164  1.2859
 7529TIP3   OH222527   8.275   7.195   3.282 -0.1139 -0.4684 -0.0773
 7529TIP3    H122528   8.301   7.190   3.374 -0.4169  0.3217  0.0558
 7529TIP3    H222529   8.180   7.195   3.284 -0.1321  0.4679 -0.3215
 7530TIP3   OH222530   1.781   2.984   4.155 -0.2642 -0.1160  0.5763
 7530TIP3    H122531   1.837   3.059   4.133 -0.4967 -0.1072 -0.0286
 7530TIP3    H222532   1.692   3.019   4.150 -0.4347 -0.6727 -0.7716
 7531TIP3   OH222533   8.298   2.226   5.736 -0.2152  0.3180 -0.3036
 7531TIP3    H122534   8.344   2.155   5.781 -0.5604  0.1101 -0.2736
 7531TIP3    H222535   8.367   2.273   5.689  0.2357  0.9053  0.9103
 7532TIP3   OH222536   3.517   1.563   4.685  0.4816  0.2273  0.5614
 7532TIP3    H122537   3.493   1.503   4.614 -0.0292 -0.5958  1.4119
 7532TIP3    H222538   3.606   1.536   4.710  0.2922 -0.1267  0.8724
 7533TIP3   OH222539   8.267   3.569   6.624 -0.4054  0.2832 -0.1974
 7533TIP3    H122540   8.284   3.548   6.716  0.0159  0.6161 -0.1981
 7533TIP3    H222541   8.284   3.487   6.578  0.0638  0.2964 -0.0578
 7534TIP3   OH222542   5.059   0.503   2.809  0.3846  0.0601 -0.0843
 7534TIP3    H122543   5.047   0.587   2.766  1.7045  0.9534  1.1907
 7534TIP3    H222544   5.141   0.469   2.772  0.2713 -0.2988 -0.0096
 7535TIP3   OH222545   1.195   0.070   2.942 -0.0781  0.3695 -0.0719
 7535TIP3    H122546   1.101   0.072   2.925 -1.5608  3.0054  5.9324
 7535TIP3    H222547   1.206  -0.003   3.003  0.9467  2.1722  2.0312
 7536TIP3   OH222548   3.435   5.963   2.918  0.0191  0.0192  0.0937
 7536TIP3    H122549   3.354   5.987   2.963 -0.7628 -1.3697 -0.5197
 7536TIP3    H222550   3.460   5.878   2.954  2.0742  1.0746  1.3566
 7537TIP3   OH222551   1.855   0.793   0.442 -0.2469  0.5977  0.1311
 7537TIP3    H122552   1.859   0.810   0.348  2.3625  1.2660  0.2982
 7537TIP3    H222553   1.860   0.697   0.449 -2.8205  0.3515 -0.4126
 7538TIP3   OH222554   7.494   5.627   5.556 -0.2327 -0.4509 -0.6603
 7538TIP3    H122555   7.540   5.551   5.592 -0.5396  0.1257  1.0282
 7538TIP3    H222556   7.459   5.596   5.472  1.8301 -1.3865 -1.2350
 7539TIP3   OH222557   2.638   0.786   0.401 -0.5569  0.0052  0.5798
 7539TIP3    H122558   2.704   0.847   0.369 -0.0013 -1.3365 -1.0060
 7539TIP3    H222559   2.564   0.796   0.341 -0.2474 -1.2138 -0.0476
 7540TIP3   OH222560   3.547   6.547   1.634  0.5584 -0.5043  0.6531
 7540TIP3    H122561   3.536   6.613   1.703  0.9485 -1.0543  1.2531
 7540TIP3    H222562   3.491   6.578   1.562  0.2093  0.1228  1.1806
 7541TIP3   OH222563   0.139   0.812   5.758  0.0756  0.0275 -0.3641
 7541TIP3    H122564   0.154   0.902   5.731  0.9258 -0.0577 -0.1882
 7541TIP3    H222565   0.135   0.762   5.676 -1.6639  0.3875 -0.5399
 7542TIP3   OH222566   0.182   2.108   6.627 -0.3401  0.4254  0.3150
 7542TIP3    H122567   0.252   2.064   6.676  0.5569  0.9128 -0.5071
 7542TIP3    H222568   0.217   2.195   6.609 -1.6025  1.0583  0.8350
 7543TIP3   OH222569   3.934   6.041   5.007 -0.2603 -0.1424  0.0982
 7543TIP3    H122570   4.003   5.981   4.978  0.4775  0.2870  0.9043
 7543TIP3    H222571   3.854   6.009   4.965  0.1019 -1.7020  0.5404
 7544TIP3   OH222572   3.158   1.529   3.519  0.4350 -0.1716  0.0398
 7544TIP3    H122573   3.179   1.577   3.439 -1.2488  1.5944  0.6130
 7544TIP3    H222574   3.113   1.450   3.488  0.5435  0.0710 -0.7593
 7545TIP3   OH222575   0.368   4.919   6.787 -0.1465  0.2246 -0.1885
 7545TIP3    H122576   0.326   4.935   6.702 -1.4111 -0.0761  0.3513
 7545TIP3    H222577   0.308   4.859   6.833  0.4122  0.5354  0.9947
 7546TIP3   OH222578   0.154   7.893   1.580 -0.2427  0.2526 -0.1711
 7546TIP3    H122579   0.186   7.830   1.644 -1.3963 -1.2137 -0.9778
 7546TIP3    H222580   0.059   7.885   1.583 -0.3362  0.1795 -2.0057
 7547TIP3   OH222581   0.321   6.920   4.512 -0.4221 -0.2710  0.2599
 7547TIP3    H122582   0.365   6.981   4.571 -0.0846 -0.0856 -0.1767
 7547TIP3    H222583   0.265   6.974   4.457  0.3587 -0.2607 -0.5586
 7548TIP3   OH222584   3.719   1.556   5.693 -0.0621 -0.0826  0.3716
 7548TIP3    H122585   3.734   1.577   5.785 -0.4064 -1.6680  0.8302
 7548TIP3    H222586   3.711   1.460   5.691  0.4663 -0.1298 -1.3929
 7549TIP3   OH222587   4.472   1.428   6.350 -0.1077  0.6551 -0.3648
 7549TIP3    H122588   4.460   1.502   6.290  0.5661  0.0566 -1.2787
 7549TIP3    H222589   4.386   1.386   6.353 -0.4138  1.2965 -0.0808
 7550TIP3   OH222590   1.217   4.029   5.788  0.4288 -0.0786 -0.7612
 7550TIP3    H122591   1.295   3.973   5.782  0.5819  0.2976 -3.0838
 7550TIP3    H222592   1.188   4.040   5.698 -0.9289  1.7522 -0.1657
 7551TIP3   OH222593   7.325   7.616   0.591 -0.0351 -0.0013 -0.1849
 7551TIP3    H122594   7.397   7.626   0.653  0.4832 -0.9181 -0.6227
 7551TIP3    H222595   7.323   7.699   0.544  2.0603 -0.6117 -1.5266
 7552TIP3   OH222596   2.758   3.044   1.210  1.2307  0.5848  0.1477
 7552TIP3    H122597   2.754   3.091   1.294 -0.3080 -1.1924  1.1392
 7552TIP3    H222598   2.692   3.086   1.156  0.3697  0.0658  0.7746
 7553TIP3   OH222599   6.970   1.413   6.432 -0.9408 -0.3294 -0.2062
 7553TIP3    H122600   6.937   1.413   6.521  0.5247  1.8623  0.4351
 7553TIP3    H222601   7.027   1.336   6.427  0.3097  0.4475  1.3546
 7554TIP3   OH222602   3.436   3.128   4.947 -0.2691  0.1681 -0.6832
 7554TIP3    H122603   3.354   3.079   4.957  0.3458 -0.4237  2.7920
 7554TIP3    H222604   3.416   3.216   4.977 -0.0371  0.5874 -1.6931
 7555TIP3   OH222605   2.490   4.243   6.639  0.6962 -0.1340 -0.4351
 7555TIP3    H122606   2.573   4.200   6.660  1.6308  1.7932  0.0605
 7555TIP3    H222607   2.423   4.184   6.673  1.8729 -1.4127 -0.2473
 7556TIP3   OH222608   1.860   1.871   3.487 -0.1811  0.0615  0.5760
 7556TIP3    H122609   1.945   1.915   3.489 -0.7335  1.1310  1.3186
 7556TIP3    H222610   1.872   1.798   3.425  1.1200  0.4936  0.2921
 7557TIP3   OH222611   1.178   1.917   6.205 -0.1731 -0.7069  0.5958
 7557TIP3    H122612   1.171   1.836   6.154  0.1050  0.2308 -0.9758
 7557TIP3    H222613   1.171   1.987   6.141 -0.9752  0.5516  2.0015
 7558TIP3   OH222614   3.585   2.048   2.610  0.2855 -0.0592  0.3751
 7558TIP3    H122615   3.659   2.105   2.591 -0.1766 -0.2785 -2.4066
 7558TIP3    H222616   3.622   1.961   2.617  0.2874 -0.2324 -1.4531
 7559TIP3   OH222617   2.498   2.330   2.053 -0.7111  0.3091  0.0221
 7559TIP3    H122618   2.406   2.349   2.074 -0.0560  3.8037  0.3629
 7559TIP3    H222619   2.499   2.324   1.958 -1.4261 -0.8829  0.0679
 7560TIP3   OH222620   4.114   2.928   3.899 -0.0486  0.2087  0.6123
 7560TIP3    H122621   4.165   2.848   3.890  0.2027  0.4683 -0.4607
 7560TIP3    H222622   4.121   2.951   3.991 -0.8532 -1.4674  1.1360
 7561TIP3   OH222623   3.786   5.033   0.381 -0.3986  0.0001 -0.1547
 7561TIP3    H122624   3.691   5.031   0.395 -0.3362 -0.2103  0.2444
 7561TIP3    H222625   3.802   4.966   0.314 -0.2835 -1.4987  1.3223
 7562TIP3   OH222626   8.091   7.512   3.419  0.6011  0.3302 -0.4951
 7562TIP3    H122627   8.072   7.484   3.330 -0.4181 -0.9766  0.0974
 7562TIP3    H222628   8.081   7.607   3.417 -2.3588  0.0945 -1.1608
 7563TIP3   OH222629   0.009   7.463   3.421  0.1812 -0.1255  0.0827
 7563TIP3    H122630  -0.041   7.383   3.409  1.4415 -0.8118 -0.8742
 7563TIP3    H222631   0.067   7.445   3.495 -1.4765  0.9513  1.7077
 7564TIP3   OH222632   4.794   2.054   1.475  0.1224 -0.4007  0.6819
 7564TIP3    H122633   4.722   2.083   1.531  1.5502  2.3618  1.2360
 7564TIP3    H222634   4.870   2.052   1.533  0.9321 -1.1791 -0.3659
 7565TIP3   OH222635   1.795   4.709   5.369  0.5521 -0.6370  0.0436
 7565TIP3    H122636   1.890   4.707   5.366  0.6283 -2.2927  1.7087
 7565TIP3    H222637   1.773   4.711   5.462 -0.9570 -4.3533 -0.0346
 7566TIP3   OH222638   2.025   7.185   6.085  0.6480 -0.4045 -0.3444
 7566TIP3    H122639   2.060   7.274   6.087 -0.7002  0.2161 -2.2632
 7566TIP3    H222640   1.954   7.186   6.149  1.3276 -0.4587  0.4387
 7567TIP3   OH222641   4.618   0.921   4.992  0.2192  0.2757  0.3228
 7567TIP3    H122642   4.614   0.991   4.927  1.7842 -0.3827 -0.5425
 7567TIP3    H222643   4.591   0.842   4.944  0.5326 -0.0673  0.7002
 7568TIP3   OH222644   1.854   6.886   4.815 -0.1393 -0.3684  0.0332
 7568TIP3    H122645   1.944   6.917   4.803 -0.4126  0.1604 -0.6535
 7568TIP3    H222646   1.801   6.965   4.812 -0.6416 -0.6871  0.4060
 7569TIP3   OH222647   2.188   7.928   2.134  0.1309 -0.7668  0.3709
 7569TIP3    H122648   2.231   7.866   2.193 -0.2125 -1.1134  0.2583
 7569TIP3    H222649   2.107   7.951   2.178 -0.0992 -0.9826  0.0612
 7570TIP3   OH222650   4.937   7.544   5.862  0.1565  0.4158  0.8773
 7570TIP3    H122651   4.854   7.592   5.870  0.4916  1.2629 -0.4406
 7570TIP3    H222652   4.983   7.563   5.944 -1.6793 -1.6459  2.5483
 7571TIP3   OH222653   7.041   3.813   4.240  0.5638 -0.0021 -0.7991
 7571TIP3    H122654   7.026   3.753   4.167  0.2412 -0.3378 -0.4608
 7571TIP3    H222655   6.960   3.808   4.292  1.0189 -0.2165 -0.0988
 7572TIP3   OH222656   2.268   0.539   0.901  0.3603 -0.1283  0.7818
 7572TIP3    H122657   2.335   0.525   0.968 -0.2179 -0.9751  1.2117
 7572TIP3    H222658   2.191   0.569   0.950 -0.3304 -1.5558  0.6425
 7573TIP3   OH222659   8.344   7.475   2.880 -0.0414  0.6605 -0.6879
 7573TIP3    H122660   8.340   7.385   2.849  1.3758  0.1860  0.3625
 7573TIP3    H222661   8.303   7.527   2.810 -0.2159 -0.7045 -1.6407
 7574TIP3   OH222662   5.004   7.618   2.676 -0.0124  0.2639 -0.2957
 7574TIP3    H122663   5.054   7.537   2.688 -0.2099 -0.0124 -1.2102
 7574TIP3    H222664   4.918   7.588   2.644 -0.3920  0.7926  0.2156
 7575TIP3   OH222665   2.554   4.607   3.329 -0.8788  0.4238  0.2185
 7575TIP3    H122666   2.544   4.612   3.234 -0.7092  0.4968  0.2038
 7575TIP3    H222667   2.639   4.563   3.342 -1.3074 -0.3872  0.3411
 7576TIP3   OH222668   1.999   6.708   2.978  0.3268  0.3725 -0.2243
 7576TIP3    H122669   1.950   6.766   2.919  3.0347  0.9843 -2.1246
 7576TIP3    H222670   1.977   6.620   2.948  1.0587  0.6601 -1.7660
 7577TIP3   OH222671   5.326   6.157   4.949  0.1005 -0.5633 -0.1925
 7577TIP3    H122672   5.320   6.253   4.949  0.7178 -0.5209 -0.7629
 7577TIP3    H222673   5.287   6.131   5.033 -1.3970  0.0899 -0.6479
 7578TIP3   OH222674   0.090   1.399   4.295 -0.3650 -0.1535 -0.0515
 7578TIP3    H122675   0.027   1.354   4.240  0.7399 -2.9578  0.7833
 7578TIP3    H222676   0.100   1.342   4.371  3.2029  0.0547 -0.2004
 7579TIP3   OH222677   2.769   3.719   3.996  0.0118 -0.5449  0.1978
 7579TIP3    H122678   2.833   3.672   4.049  0.7699 -0.4067 -0.5721
 7579TIP3    H222679   2.761   3.804   4.040  2.2625  0.3916 -1.0526
 7580TIP3   OH222680   3.433   4.812   4.309 -0.1136 -0.0395 -0.2072
 7580TIP3    H122681   3.452   4.736   4.254  0.0780 -1.4886  1.7479
 7580TIP3    H222682   3.343   4.836   4.287 -0.3816 -1.2172 -0.4687
 7581TIP3   OH222683   4.526   5.532   0.079 -0.2223 -0.1444 -0.6411
 7581TIP3    H122684   4.454   5.489   0.033  1.1987 -0.9251 -2.2336
 7581TIP3    H222685   4.491   5.618   0.104 -1.2236  0.1149 -2.7648
 7582TIP3   OH222686   4.914   3.222   2.617 -0.0964 -0.3705  0.3218
 7582TIP3    H122687   4.944   3.152   2.676 -1.5729  0.0757  1.6903
 7582TIP3    H222688   4.844   3.265   2.666  0.3641  1.6927 -0.7458
 7583TIP3   OH222689   0.562   4.954   5.268 -0.3326  0.3696  0.6811
 7583TIP3    H122690   0.588   5.042   5.296 -0.1381  0.4464  0.2764
 7583TIP3    H222691   0.645   4.907   5.255 -0.4542 -0.2575  2.0552
 7584TIP3   OH222692   1.434   4.967   1.906  0.2019 -1.1359  0.6353
 7584TIP3    H122693   1.449   4.951   1.813 -0.6859 -1.0613  0.4711
 7584TIP3    H222694   1.388   5.050   1.909 -0.3908 -1.4732  1.0934
 7585TIP3   OH222695   5.492   5.372   1.342 -0.1708 -0.5677 -0.0231
 7585TIP3    H122696   5.587   5.377   1.355 -0.2992 -0.2840  0.8716
 7585TIP3    H222697   5.480   5.303   1.277  0.5803 -1.4300  0.7295
 7586TIP3   OH222698   4.673   5.006   3.706 -0.1237 -0.2674 -0.6216
 7586TIP3    H122699   4.684   4.995   3.612 -2.5791  2.9342 -1.4540
 7586TIP3    H222700   4.595   5.061   3.715  1.0963  1.1780  3.1887
 7587TIP3   OH222701   3.135   7.690   1.479 -0.6771 -0.1278  0.1587
 7587TIP3    H122702   3.192   7.614   1.492 -1.6832 -1.2588 -1.6234
 7587TIP3    H222703   3.165   7.729   1.397 -2.6127 -0.9428 -0.9933
 7588TIP3   OH222704   6.778   1.343   4.774  0.3895 -0.5404  0.3054
 7588TIP3    H122705   6.778   1.265   4.831  3.1203 -1.3590 -0.6392
 7588TIP3    H222706   6.852   1.395   4.806 -0.5124  0.9644 -0.0034
 7589TIP3   OH222707   2.524   5.148   1.176  0.1912 -0.0612 -0.2661
 7589TIP3    H122708   2.502   5.219   1.116 -0.8473 -2.1011 -2.4692
 7589TIP3    H222709   2.603   5.108   1.140 -0.2415 -1.1074 -0.1034
 7590TIP3   OH222710   4.842   7.881   3.664  0.1536 -0.0947 -0.0121
 7590TIP3    H122711   4.889   7.853   3.585 -1.5537 -0.9411 -0.7793
 7590TIP3    H222712   4.901   7.944   3.705  1.7426 -0.7578 -1.1566
 7591TIP3   OH222713   7.951   4.796   5.168 -0.5827  0.0414  0.3178
 7591TIP3    H122714   7.881   4.809   5.232 -1.0549  1.9207 -0.5201
 7591TIP3    H222715   7.995   4.881   5.162  1.0307 -0.7794 -0.0521
 7592TIP3   OH222716   4.249   0.379   6.402 -0.6581 -0.3527  0.1162
 7592TIP3    H122717   4.238   0.380   6.307  1.6343 -1.5281 -0.2132
 7592TIP3    H222718   4.203   0.300   6.430  0.0274 -0.8829 -0.2313
 7593TIP3   OH222719   3.966   0.117   2.578 -0.2151  0.5979 -0.4637
 7593TIP3    H122720   3.991   0.209   2.583 -1.9353  1.0769 -0.0745
 7593TIP3    H222721   3.925   0.108   2.492  0.0930  0.1442 -0.5670
 7594TIP3   OH222722   7.907   7.841   1.508  0.1647 -0.0976 -0.3053
 7594TIP3    H122723   7.937   7.858   1.419  2.0957 -0.6611  0.1750
 7594TIP3    H222724   7.931   7.919   1.557  1.3740 -0.7568  0.1942
 7595TIP3   OH222725   1.261   7.538   5.213 -0.4516 -0.5662  0.5053
 7595TIP3    H122726   1.192   7.501   5.158  0.0300  0.8474 -1.1523
 7595TIP3    H222727   1.231   7.627   5.231  0.4356 -0.3049  0.7123
 7596TIP3   OH222728   1.579   0.908   3.393 -0.7375 -0.0900  1.0271
 7596TIP3    H122729   1.487   0.888   3.373 -1.4300  0.9823  2.9398
 7596TIP3    H222730   1.597   0.861   3.474  0.9305 -1.5002 -0.0645
 7597TIP3   OH222731   2.104   6.933   4.924 -0.0746 -0.5165 -0.2198
 7597TIP3    H122732   2.178   6.900   4.977 -0.1113 -0.2998 -0.0321
 7597TIP3    H222733   2.097   7.025   4.948 -0.0891 -0.4168 -0.6119
 7598TIP3   OH222734   1.784   7.094   0.668 -0.0276 -0.3586 -0.1174
 7598TIP3    H122735   1.760   7.175   0.713  0.9989  0.1939 -0.5272
 7598TIP3    H222736   1.795   7.030   0.738 -2.8687 -0.7307  0.0805
 7599TIP3   OH222737   6.161   0.883   6.024 -0.1380 -0.5925  0.3553
 7599TIP3    H122738   6.215   0.813   5.988  2.3220  1.8474 -1.0299
 7599TIP3    H222739   6.090   0.894   5.961 -0.6284 -1.8362  0.6522
 7600TIP3   OH222740   6.403   6.162   0.214  0.0339 -0.4767  0.1679
 7600TIP3    H122741   6.339   6.229   0.237 -1.3133 -1.8458  0.5797
 7600TIP3    H222742   6.401   6.158   0.118  0.7989  0.6735  0.0882
 7601TIP3   OH222743   2.176   1.737   3.666  0.2657  0.6375 -0.5479
 7601TIP3    H122744   2.226   1.783   3.599  0.7929  0.8638 -0.0102
 7601TIP3    H222745   2.186   1.645   3.644 -0.4935  0.7431 -1.4191
 7602TIP3   OH222746   1.823   0.284   6.398  0.2553  0.7914 -0.2626
 7602TIP3    H122747   1.768   0.338   6.455  0.1782 -1.8597  2.3866
 7602TIP3    H222748   1.763   0.220   6.360  1.0323 -0.4060  0.4794
 7603TIP3   OH222749   2.273   7.115   5.741  0.4380 -0.1461 -0.5556
 7603TIP3    H122750   2.219   7.058   5.796 -0.1722 -0.6240 -1.6286
 7603TIP3    H222751   2.347   7.138   5.797 -0.6752  0.2333  0.8353
 7604TIP3   OH222752   1.557   4.648   0.408 -0.1592 -0.5203 -0.5514
 7604TIP3    H122753   1.476   4.611   0.443 -0.1955  0.6763  0.7134
 7604TIP3    H222754   1.548   4.743   0.421  1.6224 -0.3875  0.0318
 7605TIP3   OH222755   1.295   7.068   3.981  0.1147  0.4797 -0.5206
 7605TIP3    H122756   1.380   7.070   4.027 -0.4433 -1.4619  0.7378
 7605TIP3    H222757   1.312   7.113   3.898  1.7954  2.0499  0.5893
 7606TIP3   OH222758   6.209   4.593   5.329  0.6356 -0.4026 -0.1292
 7606TIP3    H122759   6.281   4.556   5.278  1.1680  1.4895 -0.8555
 7606TIP3    H222760   6.193   4.678   5.289 -1.6385 -0.5189  0.3991
 7607TIP3   OH222761   5.560   1.897   4.503 -0.0511 -0.2789  0.4854
 7607TIP3    H122762   5.504   1.968   4.532 -0.7576  0.1867 -1.7941
 7607TIP3    H222763   5.511   1.817   4.521 -0.8806  0.0510 -0.2607
 7608TIP3   OH222764   1.263   4.311   4.022 -0.0751 -0.1710  0.3933
 7608TIP3    H122765   1.291   4.343   4.108  1.4939  0.4125 -0.2972
 7608TIP3    H222766   1.208   4.236   4.041 -0.1325  0.2261  1.9228
 7609TIP3   OH222767   7.318   0.143   0.562 -0.2142  0.0076 -0.9237
 7609TIP3    H122768   7.227   0.116   0.552 -0.1752  0.1808 -1.7877
 7609TIP3    H222769   7.342   0.112   0.649 -1.1342  0.0735 -0.6335
 7610TIP3   OH222770   0.696   4.494   4.280  0.8207  0.2438 -0.3665
 7610TIP3    H122771   0.743   4.566   4.322  0.2435  0.6651 -0.4325
 7610TIP3    H222772   0.732   4.415   4.320  1.8781  0.5306 -0.7064
 7611TIP3   OH222773   3.982   5.535   0.392  0.6038 -0.0626  0.2505
 7611TIP3    H122774   3.962   5.629   0.397  0.2537 -0.0975 -0.3778
 7611TIP3    H222775   4.061   5.524   0.445  1.3116  0.7821 -0.6098
 7612TIP3   OH222776   3.775   1.277   2.628 -0.0323  0.1913  0.7794
 7612TIP3    H122777   3.755   1.288   2.721  0.0372  1.4487  0.6687
 7612TIP3    H222778   3.723   1.344   2.584 -0.9662 -1.1401 -0.2246
 7613TIP3   OH222779   7.566   5.518   5.942 -0.4362  0.5181  0.1164
 7613TIP3    H122780   7.658   5.545   5.945 -0.3884  0.3602  0.0473
 7613TIP3    H222781   7.547   5.508   5.848 -0.7498  1.3408  0.0835
 7614TIP3   OH222782   7.107   5.172   6.374 -0.3059  0.9509 -0.5620
 7614TIP3    H122783   7.066   5.085   6.380  1.9371 -0.2517 -1.1396
 7614TIP3    H222784   7.151   5.171   6.289 -0.1922  2.6607 -0.5476
 7615TIP3   OH222785   7.323   6.278   6.637  0.1037  1.0999 -0.5654
 7615TIP3    H122786   7.259   6.246   6.573 -1.2827  2.3471  0.1202
 7615TIP3    H222787   7.293   6.367   6.658  1.4398  1.3012  0.6267
 7616TIP3   OH222788   2.589   2.005   1.204  0.0361  0.0961 -0.5763
 7616TIP3    H122789   2.584   1.926   1.150 -0.3739  0.5629 -1.2319
 7616TIP3    H222790   2.663   1.989   1.263  0.1584 -0.6435 -0.9227
 7617TIP3   OH222791   5.257   3.754   1.390  0.0554 -0.6961 -0.0803
 7617TIP3    H122792   5.309   3.755   1.310 -1.4850 -1.6494 -1.1431
 7617TIP3    H222793   5.171   3.787   1.363 -0.7526 -1.8829  0.9676
 7618TIP3   OH222794   2.419   7.181   2.632  0.2265 -0.4725 -0.9066
 7618TIP3    H122795   2.411   7.268   2.593  1.0393  0.0712  0.0581
 7618TIP3    H222796   2.473   7.132   2.571  1.2959  0.2896 -0.6127
 7619TIP3   OH222797   7.451   7.275   2.463  0.0766  0.1990  0.5471
 7619TIP3    H122798   7.377   7.321   2.425 -0.4668 -0.7636  0.4214
 7619TIP3    H222799   7.413   7.198   2.505  1.2115 -1.8082 -1.8239
 7620TIP3   OH222800   2.325   5.247   1.340 -0.6822 -0.4748 -0.2176
 7620TIP3    H122801   2.411   5.222   1.308 -0.6695 -0.4177 -0.2282
 7620TIP3    H222802   2.301   5.323   1.287 -0.6941 -0.4274 -0.1440
 7621TIP3   OH222803   6.103   3.255   6.357 -0.2045 -0.5449  0.3187
 7621TIP3    H122804   6.165   3.285   6.424  0.2866 -2.6051  0.8584
 7621TIP3    H222805   6.076   3.335   6.312  3.4415  0.4484 -0.4573
 7622TIP3   OH222806   0.422   2.448   4.093  0.3174  0.1196  0.3273
 7622TIP3    H122807   0.432   2.398   4.012  1.5441 -0.1500  0.6271
 7622TIP3    H222808   0.350   2.405   4.139  0.5131 -0.5599  0.0032
 7623TIP3   OH222809   7.080   3.962   6.012 -0.0101 -0.2176 -0.3149
 7623TIP3    H122810   7.144   4.014   5.963 -0.0988  1.0358  0.8383
 7623TIP3    H222811   6.996   3.986   5.974  0.0951 -1.1238 -1.1699
 7624TIP3   OH222812   2.863   6.359   4.951 -0.7681 -0.2402  0.1318
 7624TIP3    H122813   2.917   6.345   4.873  0.1967 -0.4532  0.8092
 7624TIP3    H222814   2.895   6.294   5.014 -1.5806 -0.1214  0.6828
 7625TIP3   OH222815   8.290   5.569   0.645  0.4321  0.1330  0.2091
 7625TIP3    H122816   8.212   5.581   0.699 -1.0574  0.6393 -1.9083
 7625TIP3    H222817   8.286   5.642   0.582  1.5600 -0.9143 -1.1330
 7626TIP3   OH222818   1.980   6.201   1.317 -0.2121  0.0814 -0.1751
 7626TIP3    H122819   1.988   6.188   1.222 -0.5830 -0.4478 -0.1386
 7626TIP3    H222820   1.920   6.133   1.345  2.8406 -2.3434  1.0409
 7627TIP3   OH222821   4.769   5.650   2.458  0.7014  0.0931  0.4577
 7627TIP3    H122822   4.854   5.671   2.419  0.0066  2.8235  0.2491
 7627TIP3    H222823   4.733   5.582   2.400  0.8444  2.1510 -2.2738
 7628TIP3   OH222824   3.554   7.731   3.951 -0.3247  0.0434 -0.3054
 7628TIP3    H122825   3.548   7.675   4.028 -0.8373  0.2620 -0.1826
 7628TIP3    H222826   3.506   7.810   3.975 -0.2499  0.2279 -0.7519
 7629TIP3   OH222827   3.086   6.714   5.074 -0.0525 -0.2121 -0.0024
 7629TIP3    H122828   3.090   6.806   5.047  0.8441 -0.0416  0.6621
 7629TIP3    H222829   3.053   6.717   5.164 -0.1357 -0.5474 -0.0209
 7630TIP3   OH222830   7.776   2.527   6.648 -0.0180  0.0117 -0.1997
 7630TIP3    H122831   7.748   2.489   6.731  0.2184  0.1615 -0.0503
 7630TIP3    H222832   7.791   2.452   6.591  2.0152 -0.2446  0.5813
 7631TIP3   OH222833   0.912   4.676   3.832  0.2804  0.7242  0.2515
 7631TIP3    H122834   0.970   4.749   3.813  2.2191 -0.6114  0.7938
 7631TIP3    H222835   0.962   4.621   3.892 -1.0313 -1.1678 -0.3233
 7632TIP3   OH222836   2.110   7.780   0.255  0.6112 -0.0301  0.0017
 7632TIP3    H122837   2.025   7.794   0.214  0.0911 -0.8207  0.7699
 7632TIP3    H222838   2.116   7.685   0.266  0.6224  0.1509  1.9219
 7633TIP3   OH222839   1.900   5.318   6.433 -0.0851 -0.2759 -0.0196
 7633TIP3    H122840   1.867   5.230   6.416 -0.2927 -0.0285 -0.9684
 7633TIP3    H222841   1.849   5.348   6.508 -1.1754 -0.3736 -0.6860
 7634TIP3   OH222842   8.218   6.188   2.812  0.5040 -0.5807 -0.3232
 7634TIP3    H122843   8.274   6.243   2.757  1.8846  0.1222  1.6519
 7634TIP3    H222844   8.146   6.245   2.837  2.0959  0.5945  1.9824
 7635TIP3   OH222845   7.147   7.802   1.083 -0.1491 -0.1957 -0.3619
 7635TIP3    H122846   7.076   7.862   1.105 -0.9718 -0.7042 -1.5051
 7635TIP3    H222847   7.123   7.767   0.997  0.2689 -2.1949  0.2817
 7636TIP3   OH222848   4.764   6.826   3.777  0.1080  0.4305  0.1162
 7636TIP3    H122849   4.673   6.829   3.747  0.0097  2.5852  0.4461
 7636TIP3    H222850   4.764   6.875   3.859  1.3110 -0.8685  0.9310
 7637TIP3   OH222851   0.082   7.408   2.576  0.4279  0.0371 -0.2734
 7637TIP3    H122852   0.123   7.377   2.657  1.5514  2.2174  0.0608
 7637TIP3    H222853   0.140   7.378   2.507 -0.0759 -1.0855 -0.2361
 7638TIP3   OH222854   5.507   4.056   6.049 -0.4759 -0.0318 -0.2110
 7638TIP3    H122855   5.594   4.044   6.012  0.5596 -0.9809  2.3716
 7638TIP3    H222856   5.485   3.972   6.090 -1.0207  1.2424  2.2966
 7639TIP3   OH222857   4.947   4.679   6.809 -0.1101 -0.0703  0.3070
 7639TIP3    H122858   4.961   4.660   6.902 -2.7238 -2.0460  0.4144
 7639TIP3    H222859   5.036   4.684   6.772  0.9777 -1.2849  2.5375
 7640TIP3   OH222860   4.980   5.347   4.443 -0.4771  0.6736 -0.0583
 7640TIP3    H122861   4.904   5.376   4.394  0.2124  1.3807 -0.7272
 7640TIP3    H222862   5.055   5.371   4.389  0.2097 -0.4960  0.3372
 7641TIP3   OH222863   8.084   0.466   3.639 -0.5401 -0.3877  0.0331
 7641TIP3    H122864   8.097   0.419   3.721 -0.5373  0.9810  0.8595
 7641TIP3    H222865   8.146   0.539   3.643  1.4929 -1.8418 -2.4918
 7642TIP3   OH222866   5.030   0.870   3.239 -0.0011  0.0906  0.2742
 7642TIP3    H122867   4.955   0.926   3.219  1.0586  1.5343  0.2321
 7642TIP3    H222868   5.103   0.930   3.252  2.1591 -1.3030 -3.7088
 7643TIP3   OH222869   0.519   2.703   1.444  0.6138  0.6157  0.5736
 7643TIP3    H122870   0.581   2.753   1.391  0.3574 -0.1946 -0.5178
 7643TIP3    H222871   0.560   2.618   1.455  0.0190  0.3126  0.4657
 7644TIP3   OH222872   2.369   7.103   0.345  0.1873  0.5569  0.3492
 7644TIP3    H122873   2.410   7.091   0.260  0.6451  1.3085  0.4505
 7644TIP3    H222874   2.440   7.088   0.408  0.6904  3.0983  0.4982
 7645TIP3   OH222875   5.272   6.414   3.611  0.2440  0.5613  0.6171
 7645TIP3    H122876   5.193   6.454   3.649 -1.9513 -0.7455 -2.2286
 7645TIP3    H222877   5.268   6.323   3.638  0.3333  0.3117 -0.1883
 7646TIP3   OH222878   1.943   4.148   0.664 -0.2247 -0.3663  0.3275
 7646TIP3    H122879   2.025   4.170   0.708  0.1942 -0.4482 -0.3997
 7646TIP3    H222880   1.891   4.103   0.730  0.7062 -1.1975  0.5128
 7647TIP3   OH222881   2.352   6.528   2.735  0.2020  0.1168  0.0249
 7647TIP3    H122882   2.439   6.547   2.698 -0.3960 -0.0040 -1.5106
 7647TIP3    H222883   2.297   6.600   2.704 -0.3664 -0.0643  0.5875
 7648TIP3   OH222884   2.806   5.882   1.810 -0.7918 -0.4032  0.5260
 7648TIP3    H122885   2.843   5.970   1.820 -0.6888 -0.4833  0.8540
 7648TIP3    H222886   2.866   5.825   1.858 -1.7205 -0.4400  1.7002
 7649TIP3   OH222887   2.753   1.506   6.734 -0.5275 -0.2394  0.7394
 7649TIP3    H122888   2.707   1.589   6.725  0.2413  0.1414  0.2387
 7649TIP3    H222889   2.774   1.481   6.644  2.7116  1.0091  0.9974
 7650TIP3   OH222890   7.146   6.497   5.745 -0.2059  0.4275  0.8891
 7650TIP3    H122891   7.156   6.462   5.833  1.1397  2.0669  1.4393
 7650TIP3    H222892   7.186   6.583   5.749  0.2600  0.3807 -1.4374
 7651TIP3   OH222893   6.690   6.698   0.564 -0.6347  0.3916  0.3586
 7651TIP3    H122894   6.711   6.650   0.644 -0.3194  0.5789  0.3877
 7651TIP3    H222895   6.774   6.732   0.533 -0.6280 -0.3742 -0.4988
 7652TIP3   OH222896   7.378   6.677   4.631  0.2437  0.1928  0.3299
 7652TIP3    H122897   7.371   6.585   4.607  0.6087  0.3003 -0.2166
 7652TIP3    H222898   7.311   6.721   4.577 -0.1698  0.2057  0.8454
 7653TIP3   OH222899   7.873   1.117   2.639 -0.3329  0.0779  0.6978
 7653TIP3    H122900   7.928   1.122   2.561 -1.1904 -0.6975  0.0121
 7653TIP3    H222901   7.802   1.179   2.621  0.3651  1.1756  1.6343
 7654TIP3   OH222902   1.334   5.242   2.157 -0.6385  0.1503 -0.1612
 7654TIP3    H122903   1.252   5.291   2.142 -1.8997 -2.1654 -1.5506
 7654TIP3    H222904   1.305   5.154   2.180  1.5042 -0.4845  0.3029
 7655TIP3   OH222905   5.314   0.519   1.231  0.1786  0.5903  0.0984
 7655TIP3    H122906   5.319   0.565   1.147 -0.6754 -1.0786 -0.9277
 7655TIP3    H222907   5.249   0.450   1.217  1.9048 -1.4275  1.2704
 7656TIP3   OH222908   0.762   3.206   0.582  0.4346  0.0769 -0.4535
 7656TIP3    H122909   0.668   3.215   0.568  0.4772  0.6194 -0.4047
 7656TIP3    H222910   0.769   3.154   0.662  0.1881 -1.0969 -1.1556
 7657TIP3   OH222911   4.195   7.656   2.320  0.1307  0.6313 -0.1535
 7657TIP3    H122912   4.171   7.739   2.362  0.8685  0.2227  1.1375
 7657TIP3    H222913   4.119   7.600   2.332  0.6066  0.2682  1.3756
 7658TIP3   OH222914   7.942   3.707   3.208  0.3983  0.3925 -0.8116
 7658TIP3    H122915   7.968   3.766   3.278 -1.1572 -0.0926  0.2204
 7658TIP3    H222916   7.931   3.763   3.131 -1.8164  1.6179  0.3371
 7659TIP3   OH222917   6.598   5.667   1.164  0.1328  0.7176  0.4083
 7659TIP3    H122918   6.689   5.685   1.140 -0.1639  0.3683 -1.1162
 7659TIP3    H222919   6.587   5.573   1.147 -0.4501  0.7168  0.7684
 7660TIP3   OH222920   5.268   1.971   5.328 -0.3684  0.0461 -0.0997
 7660TIP3    H122921   5.226   2.019   5.256  0.1584  1.0701  0.2505
 7660TIP3    H222922   5.362   1.976   5.308 -0.3163 -1.1393 -0.2186
 7661TIP3   OH222923   4.667   7.727   5.661 -0.0670 -0.3745  0.0609
 7661TIP3    H122924   4.656   7.671   5.584 -0.7291  0.5060 -0.4938
 7661TIP3    H222925   4.618   7.683   5.730 -0.2215 -0.7046 -0.2565
 7662TIP3   OH222926   0.244   3.378   0.993 -0.4087  0.0498 -0.1174
 7662TIP3    H122927   0.182   3.446   1.020 -0.9455 -0.6478  0.4390
 7662TIP3    H222928   0.317   3.426   0.954  0.4937  1.1206  2.6754
 7663TIP3   OH222929   3.146   5.393   1.890  0.4906  0.2741 -0.1551
 7663TIP3    H122930   3.221   5.436   1.931  0.7872  0.8938 -1.3083
 7663TIP3    H222931   3.088   5.465   1.864 -2.6459 -0.1934  4.3822
 7664TIP3   OH222932   4.898   2.405   0.528 -0.2098 -0.2916 -0.3435
 7664TIP3    H122933   4.860   2.486   0.495 -0.4317  0.3933  1.4574
 7664TIP3    H222934   4.955   2.375   0.458  0.4830  1.8571 -0.7778
 7665TIP3   OH222935   0.713   3.284   1.815 -0.2236 -0.4795 -0.6607
 7665TIP3    H122936   0.639   3.253   1.763  1.1242 -0.8716 -2.4053
 7665TIP3    H222937   0.733   3.371   1.780  0.3678 -0.5137 -0.4172
 7666TIP3   OH222938   4.614   1.187   4.539 -0.1108  0.5041 -0.5568
 7666TIP3    H122939   4.591   1.223   4.454  1.7551  1.8963 -0.5413
 7666TIP3    H222940   4.676   1.250   4.576 -0.2776 -0.4511  1.5040
 7667TIP3   OH222941   2.217   4.404   2.240  0.7259 -0.2971 -0.5534
 7667TIP3    H122942   2.253   4.388   2.327  1.9208 -2.6307 -1.3866
 7667TIP3    H222943   2.162   4.328   2.221  0.1501  0.3640 -1.6702
 7668TIP3   OH222944   7.786   3.031   5.078  0.0300  0.3064  0.7226
 7668TIP3    H122945   7.772   2.968   5.007  0.0503  0.6835  0.3793
 7668TIP3    H222946   7.849   3.093   5.043  2.3596 -1.1165  2.0976
 7669TIP3   OH222947   4.956   4.194   1.227 -0.5531 -0.5632 -0.1053
 7669TIP3    H122948   4.871   4.155   1.247  0.3486 -2.4398  0.2732
 7669TIP3    H222949   5.006   4.124   1.184  1.3723 -0.1094  1.2240
 7670TIP3   OH222950   4.067   3.634   0.684 -0.1400  0.1400 -0.2544
 7670TIP3    H122951   4.024   3.695   0.624  0.3015  0.7651  0.0457
 7670TIP3    H222952   4.125   3.690   0.737 -0.3856 -0.4170  0.6281
 7671TIP3   OH222953   8.149   2.145   2.994 -0.0311 -0.3963 -0.0183
 7671TIP3    H122954   8.082   2.177   2.933 -0.3182  1.3514  1.1487
 7671TIP3    H222955   8.191   2.073   2.947 -0.1316  0.9510 -2.3695
 7672TIP3   OH222956   7.241   1.905   4.748  0.0225  0.4301 -0.3200
 7672TIP3    H122957   7.269   1.851   4.674 -1.9882  0.6271 -1.2864
 7672TIP3    H222958   7.172   1.961   4.713 -0.7380  0.8086  1.6240
 7673TIP3   OH222959   1.683   2.102   3.004 -0.1940 -0.0741 -0.4068
 7673TIP3    H122960   1.694   2.096   3.099  2.0944 -0.6087 -0.6438
 7673TIP3    H222961   1.597   2.064   2.987 -0.2354 -0.8597  1.3644
 7674TIP3   OH222962   0.369   5.313   0.221  0.2406  0.1401 -0.1627
 7674TIP3    H122963   0.430   5.241   0.238  0.8102  0.1483 -1.9899
 7674TIP3    H222964   0.402   5.385   0.274  1.0804 -0.2398 -0.1505
 7675TIP3   OH222965   2.150   1.336   0.639 -0.6342  0.2707  0.1390
 7675TIP3    H122966   2.233   1.290   0.653 -0.0852  0.8756 -1.0070
 7675TIP3    H222967   2.158   1.416   0.692 -1.3912 -0.6622  1.7422
 7676TIP3   OH222968   4.839   3.299   4.616 -0.2655 -0.3824  0.5048
 7676TIP3    H122969   4.808   3.344   4.536  0.2425  0.8677  0.9770
 7676TIP3    H222970   4.759   3.265   4.657 -0.7937  0.8674  0.5627
 7677TIP3   OH222971   2.511   0.009   6.823  0.7160  0.1333 -0.6592
 7677TIP3    H122972   2.486   0.078   6.885  0.7028  0.2384 -0.7826
 7677TIP3    H222973   2.439   0.005   6.761 -0.1311 -1.2014  0.3538
 7678TIP3   OH222974   3.432   7.378   4.763 -0.0746  0.0419 -0.0899
 7678TIP3    H122975   3.389   7.463   4.750  0.9185  0.7295  0.9591
 7678TIP3    H222976   3.512   7.399   4.810  0.9113 -1.3393 -1.0952
 7679TIP3   OH222977   2.504   2.391   1.233 -0.3025 -0.2638 -0.3024
 7679TIP3    H122978   2.456   2.453   1.287  0.4896  1.3335 -1.3386
 7679TIP3    H222979   2.440   2.324   1.210 -1.1247  0.0335  1.0400
 7680TIP3   OH222980   3.136   6.485   5.622 -0.4083  0.3883  0.2756
 7680TIP3    H122981   3.161   6.555   5.682  2.8728  0.2306 -0.6907
 7680TIP3    H222982   3.164   6.404   5.665  0.0342  0.0904 -0.5478
 7681TIP3   OH222983   6.313   5.421   0.753 -0.2144 -0.4846  0.4739
 7681TIP3    H122984   6.226   5.462   0.764 -0.3287 -1.1755  2.4261
 7681TIP3    H222985   6.299   5.329   0.775  1.1862 -0.4267  1.7200
 7682TIP3   OH222986   7.805   0.148   3.793  0.2441 -0.0006  0.1033
 7682TIP3    H122987   7.781   0.114   3.879  0.6733 -1.0307 -0.1626
 7682TIP3    H222988   7.885   0.199   3.809  0.5041 -0.4521  0.2764
 7683TIP3   OH222989   4.619   1.412   3.416  0.2899  0.7985  0.1726
 7683TIP3    H122990   4.533   1.414   3.373 -0.2041 -1.2906  0.9237
 7683TIP3    H222991   4.682   1.428   3.346 -0.6235  0.0246 -0.8594
 7684TIP3   OH222992   1.207   3.584   6.704 -0.0670 -0.3699  0.1193
 7684TIP3    H122993   1.172   3.666   6.740  0.4807 -0.5175  1.0364
 7684TIP3    H222994   1.284   3.566   6.758 -0.4936 -1.7711  0.2970
 7685TIP3   OH222995   2.883   7.286   2.606 -0.0061 -0.6667  0.2778
 7685TIP3    H122996   2.847   7.356   2.552  1.6831  0.3520  0.3929
 7685TIP3    H222997   2.945   7.241   2.549 -0.2762 -1.3918  0.5433
 7686TIP3   OH222998   5.949   1.981   5.989 -0.6251 -0.1315 -0.1659
 7686TIP3    H122999   5.916   1.909   6.042  1.7687 -1.8756 -0.9193
 7686TIP3    H223000   5.882   1.994   5.921 -0.2259 -3.0596 -1.2348
 7687TIP3   OH223001   4.524   2.916   6.867 -0.4429  0.2999 -0.0969
 7687TIP3    H123002   4.619   2.929   6.863 -0.5346  1.3557  0.8605
 7687TIP3    H223003   4.496   2.922   6.776  0.3598  0.3294 -0.3522
 7688TIP3   OH223004   5.101   3.182   3.933  0.4075  0.2437 -0.5580
 7688TIP3    H123005   5.180   3.205   3.982 -0.1816  2.1561 -0.4165
 7688TIP3    H223006   5.031   3.184   3.997 -0.2310  1.8606 -1.2524
 7689TIP3   OH223007   2.929   3.988   6.256 -0.2473  0.4762  0.0677
 7689TIP3    H123008   2.995   4.033   6.309 -1.1545  0.1675  1.5050
 7689TIP3    H223009   2.980   3.930   6.199  0.8413  2.0852 -0.6458
 7690TIP3   OH223010   2.414   6.756   1.598 -0.5091 -0.0950 -0.0974
 7690TIP3    H123011   2.432   6.832   1.543  2.0051 -0.2918  0.2967
 7690TIP3    H223012   2.444   6.782   1.686  1.6088 -1.8554 -0.1974
 7691TIP3   OH223013   7.378   5.590   4.158  0.2540 -0.1941  1.0829
 7691TIP3    H123014   7.361   5.502   4.126 -1.8858  0.7531 -0.6914
 7691TIP3    H223015   7.473   5.599   4.156  0.4009 -1.2803 -2.3152
 7692TIP3   OH223016   2.188   7.201   5.000 -0.3018  0.4228 -0.0320
 7692TIP3    H123017   2.271   7.221   4.957  0.1839 -0.4662  0.4508
 7692TIP3    H223018   2.129   7.272   4.974  0.2765  0.4680 -1.2841
 7693TIP3   OH223019   1.338   2.898   2.279 -0.3977 -0.1852 -0.5117
 7693TIP3    H123020   1.359   2.963   2.346 -2.3803 -1.1861  1.2028
 7693TIP3    H223021   1.273   2.940   2.224 -1.6541 -0.6361  0.5768
 7694TIP3   OH223022   6.658   1.850   6.854  0.2455  0.1281  0.0043
 7694TIP3    H123023   6.636   1.913   6.786 -0.0788 -0.4238 -0.4123
 7694TIP3    H223024   6.634   1.894   6.936  0.9957  0.9409 -0.1952
 7695TIP3   OH223025   3.211   2.640   4.335  0.8228  0.2501  0.3880
 7695TIP3    H123026   3.296   2.637   4.379  1.7394  1.5493 -1.1949
 7695TIP3    H223027   3.230   2.676   4.248 -1.1526 -0.6899 -0.4944
 7696TIP3   OH223028   3.358   0.125   2.536  0.6832  0.0215  0.1083
 7696TIP3    H123029   3.386   0.064   2.604 -0.1009 -0.3501  0.1063
 7696TIP3    H223030   3.300   0.074   2.480  2.3387 -0.0629 -1.6331
 7697TIP3   OH223031   0.894   3.881   5.675 -0.5499  0.3000 -0.4511
 7697TIP3    H123032   0.944   3.961   5.657 -0.1690  0.2415  0.2916
 7697TIP3    H223033   0.808   3.897   5.636 -0.4724  1.0670 -0.3315
 7698TIP3   OH223034   5.996   3.154   3.901 -0.4782 -0.4688  0.3976
 7698TIP3    H123035   6.001   3.088   3.971 -1.1148  0.6927  1.5883
 7698TIP3    H223036   6.085   3.159   3.867  0.3338  0.2773  2.4569
 7699TIP3   OH223037   7.628   6.757   4.531  0.3321  0.3280  0.2638
 7699TIP3    H123038   7.561   6.696   4.562  0.3705  0.7093  1.1245
 7699TIP3    H223039   7.654   6.806   4.609 -0.0837  1.8253 -0.4983
 7700TIP3   OH223040   6.010   4.447   2.203 -0.3205  0.3408 -0.0058
 7700TIP3    H123041   5.972   4.517   2.257 -0.2213  0.4462 -0.0726
 7700TIP3    H223042   6.056   4.493   2.133  0.2786  0.2233  0.3033
 7701TIP3   OH223043   4.191   2.679   3.834 -0.6491  0.6323  0.0767
 7701TIP3    H123044   4.228   2.660   3.747  0.7011  1.5152  0.4164
 7701TIP3    H223045   4.183   2.594   3.876  0.7513  0.3536 -0.1510
 7702TIP3   OH223046   5.476   6.952   3.791  0.5747 -0.1896  0.4172
 7702TIP3    H123047   5.440   7.021   3.847 -0.4810  1.7579 -2.3819
 7702TIP3    H223048   5.571   6.963   3.795  0.4457  0.8951  0.6934
 7703TIP3   OH223049   3.693   1.045   5.633  0.2980 -0.0017  0.0863
 7703TIP3    H123050   3.778   1.036   5.590 -0.3533 -1.4401 -0.9984
 7703TIP3    H223051   3.651   1.119   5.589  0.1918 -0.5897 -0.8289
 7704TIP3   OH223052   4.855   0.307   4.202 -0.2123 -0.0692 -0.3355
 7704TIP3    H123053   4.939   0.269   4.177  0.8450  2.4291 -0.8637
 7704TIP3    H223054   4.801   0.301   4.124 -0.0660 -0.4517 -0.4081
 7705TIP3   OH223055   3.865   2.470   3.396 -0.0000 -0.4407 -0.3477
 7705TIP3    H123056   3.789   2.460   3.338  0.4393 -1.1801 -0.8143
 7705TIP3    H223057   3.857   2.558   3.431 -1.9762 -1.0546  0.9090
 7706TIP3   OH223058   5.817   3.716   1.108  0.1644 -0.0640 -0.1333
 7706TIP3    H123059   5.872   3.650   1.066  0.8365  0.5807 -0.2961
 7706TIP3    H223060   5.875   3.791   1.120 -0.9932  1.1134 -1.4694
 7707TIP3   OH223061   3.212   0.647   5.085  0.1780  0.1562 -0.0337
 7707TIP3    H123062   3.178   0.607   5.165 -0.8244 -0.4216 -0.7304
 7707TIP3    H223063   3.264   0.721   5.115 -0.4181  0.1164  1.1363
 7708TIP3   OH223064   6.318   3.419   4.032  0.5927  0.1887  0.0747
 7708TIP3    H123065   6.354   3.330   4.038 -1.5258 -0.8140 -0.7586
 7708TIP3    H223066   6.305   3.434   3.938 -1.0794  0.4446  0.2997
 7709TIP3   OH223067   7.912   0.359   4.460 -0.4497  0.4451 -0.0506
 7709TIP3    H123068   7.824   0.353   4.497 -1.1589  1.7888 -1.3987
 7709TIP3    H223069   7.899   0.359   4.365  0.9163  1.4261 -0.2850
 7710TIP3   OH223070   4.157   2.638   3.343  0.9748 -0.3183  0.2942
 7710TIP3    H123071   4.112   2.720   3.366 -1.9104 -0.8982 -2.5154
 7710TIP3    H223072   4.230   2.665   3.288  1.2532  0.4278  1.0037
 7711TIP3   OH223073   8.193   1.686   3.758 -0.3126 -0.0647 -0.1752
 7711TIP3    H123074   8.106   1.725   3.754 -0.1201  0.4155  0.2476
 7711TIP3    H223075   8.253   1.760   3.767  0.2488 -0.3014 -1.5716
 7712TIP3   OH223076   2.684   1.608   5.238 -0.6064  0.4833 -0.6256
 7712TIP3    H123077   2.652   1.668   5.305 -0.1040 -0.0495  0.1066
 7712TIP3    H223078   2.763   1.651   5.204  0.2073 -0.1083  0.4559
 7713TIP3   OH223079   7.675   6.158   2.841 -0.0152 -0.6259 -0.0839
 7713TIP3    H123080   7.593   6.121   2.807  0.4516 -2.2275  0.4378
 7713TIP3    H223081   7.706   6.214   2.771 -1.9834  0.7452  0.0437
 7714TIP3   OH223082   6.793   1.639   3.915  0.5346  0.0338 -0.0945
 7714TIP3    H123083   6.863   1.697   3.887  0.4816  0.5114  0.7268
 7714TIP3    H223084   6.816   1.616   4.005  0.8209 -1.6338 -0.5599
 7715TIP3   OH223085   7.323   6.908   0.575  0.5302  0.4721 -0.9839
 7715TIP3    H123086   7.288   6.895   0.487  2.0429  1.0676 -1.7100
 7715TIP3    H223087   7.367   6.993   0.571 -2.1296  2.1148  1.2960
 7716TIP3   OH223088   2.711   0.177   1.766 -0.0110 -0.4832 -0.2793
 7716TIP3    H123089   2.672   0.231   1.835 -1.4029 -0.2801 -1.1948
 7716TIP3    H223090   2.753   0.241   1.707 -0.7976 -0.4645 -0.8294
 7717TIP3   OH223091   1.703   1.280   1.570  0.1720  0.4993  0.1568
 7717TIP3    H123092   1.750   1.202   1.544  0.3184  0.9659 -1.0383
 7717TIP3    H223093   1.627   1.283   1.512 -1.4004 -0.2561  2.0655
 7718TIP3   OH223094   5.993   3.642   4.670  0.2157  0.0749  0.1639
 7718TIP3    H123095   5.946   3.576   4.618 -1.6097  0.2781  1.4707
 7718TIP3    H223096   6.083   3.611   4.672  0.1698 -0.4100 -2.3398
 7719TIP3   OH223097   4.683   3.602   0.157 -0.9600 -0.3477  0.1681
 7719TIP3    H123098   4.689   3.535   0.089  0.2727 -0.0662 -0.0280
 7719TIP3    H223099   4.773   3.633   0.168 -1.4790  1.1832  0.3536
 7720TIP3   OH223100   3.139   4.791   1.562 -0.2207 -0.1270  0.5530
 7720TIP3    H123101   3.085   4.784   1.640  0.2291  0.1976  0.9030
 7720TIP3    H223102   3.086   4.840   1.499 -0.5413 -0.2963  0.6893
 7721TIP3   OH223103   4.108   2.059   2.931  0.1460 -0.2807 -0.9431
 7721TIP3    H123104   4.148   2.133   2.886 -1.1180  0.8528 -0.2718
 7721TIP3    H223105   4.051   2.019   2.865  1.2725 -1.0591 -1.4842
 7722TIP3   OH223106   3.922   2.855   4.708  0.0004 -0.6229  0.0409
 7722TIP3    H123107   3.990   2.863   4.775  1.0896 -0.1518 -1.0897
 7722TIP3    H223108   3.867   2.783   4.739 -0.5976  0.7098  2.3497
 7723TIP3   OH223109   3.821   1.120   5.965 -0.4253 -0.1600  0.1916
 7723TIP3    H123110   3.915   1.111   5.950 -0.6382  0.6122 -1.8695
 7723TIP3    H223111   3.782   1.045   5.921 -0.8782  0.4350 -0.4385
 7724TIP3   OH223112   2.548   1.403   0.482 -0.1116  0.5442  0.2175
 7724TIP3    H123113   2.462   1.441   0.465  0.3943  0.8775 -2.0427
 7724TIP3    H223114   2.569   1.355   0.402  1.4227 -0.2796  1.0614
 7725TIP3   OH223115   5.498   2.591   1.352  0.1756  0.3333  0.1934
 7725TIP3    H123116   5.409   2.563   1.333 -0.0440  0.7160  0.6398
 7725TIP3    H223117   5.491   2.642   1.433  1.0709 -1.3136  1.3952
 7726TIP3   OH223118   6.427   0.915   6.252  0.0087 -0.2494  0.0037
 7726TIP3    H123119   6.432   0.946   6.162 -1.0438  1.2959  0.4489
 7726TIP3    H223120   6.353   0.855   6.252 -1.2312  1.2318  0.2207
 7727TIP3   OH223121   6.215   0.176   2.393 -0.9290  0.0205  0.7366
 7727TIP3    H123122   6.164   0.169   2.313 -1.8183 -0.1226  1.3038
 7727TIP3    H223123   6.242   0.086   2.412 -0.0529  0.1501  0.1962
 7728TIP3   OH223124   6.647   0.528   5.275  0.0042 -0.0621 -0.1373
 7728TIP3    H123125   6.672   0.551   5.364  0.3000 -1.4048  0.1454
 7728TIP3    H223126   6.552   0.536   5.273 -0.2124 -1.8643  0.8829
 7729TIP3   OH223127   5.324   2.046   2.178 -0.0031 -0.5888 -0.5249
 7729TIP3    H123128   5.234   2.034   2.147  0.7010 -2.2357 -2.1484
 7729TIP3    H223129   5.377   2.034   2.099  1.6465  0.2780  0.4186
 7730TIP3   OH223130   4.125   3.995   5.234 -0.0228  0.2571  0.0703
 7730TIP3    H123131   4.127   3.997   5.330  0.7836 -1.5667  0.1357
 7730TIP3    H223132   4.210   3.958   5.209 -0.3936  0.3032 -1.3332
 7731TIP3   OH223133   0.650   1.761   3.774  0.4105 -0.3171 -0.5385
 7731TIP3    H123134   0.673   1.852   3.754  2.3426 -1.0579 -2.0165
 7731TIP3    H223135   0.704   1.709   3.715 -0.7582 -2.4509  0.1561
 7732TIP3   OH223136   8.004   3.635   6.140 -0.1180 -0.2617  0.0567
 7732TIP3    H123137   7.985   3.634   6.234 -0.7227 -0.1112 -0.0559
 7732TIP3    H223138   7.956   3.711   6.107  0.3602 -0.1197 -0.3236
 7733TIP3   OH223139   0.709   6.023   2.189  0.0330  0.0593  0.7439
 7733TIP3    H123140   0.793   6.020   2.236  0.1050  2.9970  0.9711
 7733TIP3    H223141   0.645   6.046   2.256 -0.7039 -0.6434  0.2868
 7734TIP3   OH223142   1.911   3.605   1.848 -1.0917  0.5235  0.2214
 7734TIP3    H123143   1.934   3.518   1.879 -1.8601  0.3663  0.3695
 7734TIP3    H223144   1.968   3.664   1.897  0.8758  0.0072 -1.3051
 7735TIP3   OH223145   7.267   4.044   0.974  0.0685  0.1580 -0.0464
 7735TIP3    H123146   7.175   4.038   0.999 -0.3870  1.5978 -1.2600
 7735TIP3    H223147   7.279   3.973   0.911 -0.6052  0.7961 -0.9301
 7736TIP3   OH223148   4.323   0.194   4.508 -0.2438 -0.2140  0.1738
 7736TIP3    H123149   4.417   0.213   4.503 -0.7711  2.5701 -1.0038
 7736TIP3    H223150   4.306   0.136   4.434  0.5319 -0.9032  0.5130
 7737TIP3   OH223151   3.214   7.325   5.737  0.2780  0.2153 -0.1803
 7737TIP3    H123152   3.121   7.303   5.735 -0.2534  2.2795 -1.5208
 7737TIP3    H223153   3.238   7.321   5.830 -0.7630 -1.6657  0.0461
 7738TIP3   OH223154   3.132   3.679   6.284 -0.1220 -0.7206 -0.4101
 7738TIP3    H123155   3.051   3.629   6.271 -0.0568 -0.9008 -0.1357
 7738TIP3    H223156   3.127   3.750   6.220 -1.6676  0.7239  1.1595
 7739TIP3   OH223157   6.129   0.912   5.310 -0.4274 -0.4038  0.0716
 7739TIP3    H123158   6.088   0.836   5.268 -1.3474  0.6255 -0.9926
 7739TIP3    H223159   6.193   0.875   5.370 -0.9799 -2.0207 -0.2797
 7740TIP3   OH223160   1.644   4.775   5.594 -0.2367 -0.0404  0.2530
 7740TIP3    H123161   1.669   4.788   5.686  1.2738 -0.8507 -0.0104
 7740TIP3    H223162   1.572   4.837   5.580  2.0808  3.0661  0.9042
 7741TIP3   OH223163   0.009   4.517   1.235  0.2011  0.2679  0.8810
 7741TIP3    H123164   0.023   4.429   1.200  0.1584  0.1558  1.1419
 7741TIP3    H223165   0.057   4.574   1.175  0.7292  0.0086  1.0459
 7742TIP3   OH223166   4.104   2.346   3.325 -0.2786 -1.0665 -0.2119
 7742TIP3    H123167   4.153   2.409   3.273 -0.2581 -0.5098  0.4734
 7742TIP3    H223168   4.026   2.394   3.353 -0.4387 -1.4573  0.0167
 7743TIP3   OH223169   0.537   2.646   5.984 -0.3744 -0.5431  0.2677
 7743TIP3    H123170   0.458   2.603   6.017  0.2885 -0.6382  1.8260
 7743TIP3    H223171   0.546   2.725   6.037 -0.4685  0.4864 -1.2100
 7744TIP3   OH223172   2.175   5.523   4.130  0.1798  0.2520  0.1504
 7744TIP3    H123173   2.101   5.581   4.146 -0.0829  0.1173 -0.5761
 7744TIP3    H223174   2.201   5.540   4.039 -1.1199 -2.1266 -0.7482
 7745TIP3   OH223175   5.984   7.889   5.199 -0.3287 -0.1869  0.1615
 7745TIP3    H123176   5.920   7.863   5.133 -2.6756  1.9931  1.3796
 7745TIP3    H223177   6.039   7.954   5.154 -1.3415  0.6278  0.0633
 7746TIP3   OH223178   0.878   1.390   5.378 -0.4138 -0.1936  0.2335
 7746TIP3    H123179   0.906   1.432   5.459 -1.6249 -2.0755  1.7423
 7746TIP3    H223180   0.890   1.296   5.395  0.8100 -0.6119 -2.4021
 7747TIP3   OH223181   1.574   6.936   0.169  0.0541  0.0966  0.1764
 7747TIP3    H123182   1.539   7.000   0.232  1.5800  0.2118  0.9647
 7747TIP3    H223183   1.655   6.975   0.138 -1.1306  0.4840 -2.6811
 7748TIP3   OH223184   4.787   5.867   3.059 -0.4032  0.0227  0.0226
 7748TIP3    H123185   4.702   5.909   3.070 -0.2509 -0.0245  1.4806
 7748TIP3    H223186   4.840   5.931   3.012 -0.1848  1.5045  2.1788
 7749TIP3   OH223187   1.666   0.140   2.751  0.3804  0.3449  0.0574
 7749TIP3    H123188   1.632   0.166   2.666 -0.5773 -0.6855  0.1031
 7749TIP3    H223189   1.588   0.126   2.805  0.9368 -0.0430  0.7865
 7750TIP3   OH223190   0.628   4.189   0.602 -0.0198  0.3177  0.4248
 7750TIP3    H123191   0.715   4.161   0.573 -0.5508  2.0184 -3.5805
 7750TIP3    H223192   0.645   4.253   0.671  1.7908 -0.4627  0.7637
 7751TIP3   OH223193   1.761   4.066   2.751 -0.0462  0.1991 -0.0288
 7751TIP3    H123194   1.775   4.156   2.780 -2.1766  0.3149  0.7688
 7751TIP3    H223195   1.782   4.067   2.658  3.1405  0.7127  0.5486
 7752TIP3   OH223196   8.068   1.462   5.069 -0.2816 -0.1638 -0.4002
 7752TIP3    H123197   8.084   1.542   5.019  1.0153  0.1580  0.4726
 7752TIP3    H223198   8.061   1.491   5.160  0.3842 -1.0363 -0.0512
 7753TIP3   OH223199   5.419   3.084   0.629 -0.4012 -0.1728 -0.0002
 7753TIP3    H123200   5.440   3.030   0.705  2.3838 -0.3736 -0.8195
 7753TIP3    H223201   5.376   3.025   0.568 -3.5946  0.1964  1.6405
 7754TIP3   OH223202   1.168   6.070   5.311  0.1318 -0.2816  0.0917
 7754TIP3    H123203   1.110   5.995   5.299  0.6721 -0.6521 -0.2312
 7754TIP3    H223204   1.244   6.051   5.256  0.9846 -0.2406  1.2152
 7755TIP3   OH223205   6.842   3.321   2.888 -0.2712  0.0751  0.5073
 7755TIP3    H123206   6.922   3.311   2.939  0.1263 -0.4150 -0.1995
 7755TIP3    H223207   6.810   3.408   2.912  1.4090  1.0303 -0.4833
 7756TIP3   OH223208   7.784   2.366   5.292  0.3351 -0.0347  0.0126
 7756TIP3    H123209   7.725   2.400   5.225 -0.0904  2.9450  1.7426
 7756TIP3    H223210   7.859   2.426   5.290  0.0638  0.4867  2.5006
 7757TIP3   OH223211   6.130   2.614   4.104 -0.1341 -0.0470  0.4622
 7757TIP3    H123212   6.044   2.633   4.140 -0.7162 -1.2023 -0.2499
 7757TIP3    H223213   6.188   2.681   4.141 -1.0634 -0.0638  2.0091
 7758TIP3   OH223214   2.010   5.411   4.954 -0.1304  0.8315  0.5647
 7758TIP3    H123215   1.972   5.332   4.991  0.1474  0.0994 -0.6507
 7758TIP3    H223216   2.025   5.389   4.862  2.3899  1.3860  0.7840
 7759TIP3   OH223217   5.312   6.776   3.688  0.2162  0.3042  0.3402
 7759TIP3    H123218   5.381   6.826   3.731 -1.0040  1.3397  1.1547
 7759TIP3    H223219   5.237   6.835   3.686 -0.9941 -1.1624  0.5001
 7760TIP3   OH223220   0.927   1.741   4.885  0.1191  0.0365 -0.2756
 7760TIP3    H123221   0.928   1.802   4.811  0.0649 -0.5949 -0.8082
 7760TIP3    H223222   1.012   1.697   4.881 -0.1919 -0.5528 -0.4350
 7761TIP3   OH223223   0.339   3.100   4.701 -0.9607 -0.1663 -0.2597
 7761TIP3    H123224   0.323   3.009   4.723 -0.1515 -0.2189  0.1596
 7761TIP3    H223225   0.306   3.149   4.776 -1.9670 -0.0606 -0.7554
 7762TIP3   OH223226   2.003   5.422   1.592 -0.4094 -0.1110  0.4778
 7762TIP3    H123227   2.070   5.366   1.630  0.7793  0.8567 -0.0997
 7762TIP3    H223228   1.998   5.395   1.500 -0.2824  0.2883  0.3483
 7763TIP3   OH223229   0.566   7.709   4.023 -0.1413  0.0830  0.2361
 7763TIP3    H123230   0.560   7.778   3.957 -1.1872  0.2769  0.5083
 7763TIP3    H223231   0.474   7.686   4.041  0.1983 -1.5104  0.0081
 7764TIP3   OH223232   0.974   4.218   1.708 -0.5326 -0.0252  0.7138
 7764TIP3    H123233   0.904   4.217   1.643 -1.8833  0.0699  2.1204
 7764TIP3    H223234   0.961   4.299   1.757  1.4798  0.7549  0.0951
 7765TIP3   OH223235   3.613   1.422   6.114  0.0848 -0.5897  0.0065
 7765TIP3    H123236   3.703   1.409   6.143 -0.5900 -1.8679  1.7007
 7765TIP3    H223237   3.576   1.334   6.108 -1.1704 -0.0716 -0.2272
 7766TIP3   OH223238   8.187   3.844   5.530  0.9423 -0.3742  0.0525
 7766TIP3    H123239   8.249   3.784   5.491  2.2192 -1.7040  3.7247
 7766TIP3    H223240   8.143   3.886   5.456  3.1068 -2.5845 -2.6518
 7767TIP3   OH223241   6.792   4.273   6.610 -0.2390  0.1822  0.2382
 7767TIP3    H123242   6.711   4.256   6.657  0.3450  1.0761  1.6471
 7767TIP3    H223243   6.857   4.218   6.654  0.0787  0.0610 -0.3704
 7768TIP3   OH223244   5.721   3.561   5.167  0.2744 -0.0894  0.4155
 7768TIP3    H123245   5.688   3.608   5.091 -0.3788  0.4380  1.0084
 7768TIP3    H223246   5.809   3.596   5.181  0.8576 -0.9975 -0.7493
 7769TIP3   OH223247   7.499   5.672   4.579 -0.2788 -0.6514 -0.5458
 7769TIP3    H123248   7.456   5.693   4.496 -0.1176 -1.4460 -0.8351
 7769TIP3    H223249   7.526   5.757   4.613  1.2986 -0.4251 -2.1969
 7770TIP3   OH223250   6.084   6.634   0.281 -0.3084  0.9142  0.1883
 7770TIP3    H123251   6.033   6.655   0.203 -2.3419 -0.7511  0.9669
 7770TIP3    H223252   6.043   6.684   0.351  0.3941  1.0590  0.5008
 7771TIP3   OH223253   1.531   1.462   2.954 -0.2565 -0.3463  0.6110
 7771TIP3    H123254   1.625   1.456   2.971 -0.3998 -1.6094  1.0273
 7771TIP3    H223255   1.520   1.430   2.865 -0.1742  0.9389  0.1131
 7772TIP3   OH223256   1.737   3.323   6.652 -0.0851 -0.2991  0.3557
 7772TIP3    H123257   1.785   3.390   6.604 -0.4669  0.9625  1.6478
 7772TIP3    H223258   1.694   3.271   6.584  2.4587 -1.0369 -0.8190
 7773TIP3   OH223259   2.031   6.205   0.454  0.3692 -0.9338  0.4485
 7773TIP3    H123260   2.096   6.267   0.421  0.6389 -2.0019 -1.1796
 7773TIP3    H223261   2.078   6.155   0.521  2.1286 -3.1869 -2.1887
 7774TIP3   OH223262   2.995   0.317   6.879 -0.3260  0.1693 -0.2111
 7774TIP3    H123263   2.923   0.254   6.874 -0.7588  0.7103 -1.1173
 7774TIP3    H223264   3.012   0.341   6.787 -0.3432  1.5446  0.1261
 7775TIP3   OH223265   6.034   1.301   0.871 -0.2444 -0.0972 -0.4532
 7775TIP3    H123266   6.085   1.235   0.917 -1.4279  0.7385  2.2640
 7775TIP3    H223267   6.093   1.375   0.861  0.0726 -0.3465 -0.4241
 7776TIP3   OH223268   2.960   0.793   2.260 -0.0392 -0.7370 -0.2876
 7776TIP3    H123269   3.031   0.786   2.324  0.3333 -0.3241 -0.6480
 7776TIP3    H223270   3.001   0.768   2.177  0.0000  0.6400 -0.7026
 7777TIP3   OH223271   8.276   6.684   2.251  0.2268 -0.3900 -0.3025
 7777TIP3    H123272   8.245   6.628   2.322  0.9623 -0.4064  0.0182
 7777TIP3    H223273   8.292   6.769   2.292 -0.8384  0.0593 -0.7783
 7778TIP3   OH223274   5.947   1.066   0.507  0.1667 -0.4171 -0.1673
 7778TIP3    H123275   6.027   1.110   0.477  1.8166 -3.7469 -1.0953
 7778TIP3    H223276   5.960   1.054   0.601  0.5976 -0.6163 -0.2509
 7779TIP3   OH223277   0.390   6.627   4.965 -0.1107 -0.0943 -0.1409
 7779TIP3    H123278   0.382   6.722   4.968  0.3839 -0.0788  1.6385
 7779TIP3    H223279   0.340   6.596   5.041  1.1872 -1.1183  0.3385
 7780TIP3   OH223280   4.943   2.245   4.882  0.5177  0.3483  0.2305
 7780TIP3    H123281   5.009   2.247   4.951  1.1600  1.4839 -0.3907
 7780TIP3    H223282   4.909   2.334   4.878  1.4081  0.6599 -1.7292
 7781TIP3   OH223283   3.310   4.266   0.529 -0.2341 -0.0998  0.3490
 7781TIP3    H123284   3.388   4.241   0.479 -0.0371  2.6729 -0.8986
 7781TIP3    H223285   3.341   4.279   0.618  0.5825  0.1897  0.0326
 7782TIP3   OH223286   2.116   2.639   0.894 -0.0066 -0.2198  0.0947
 7782TIP3    H123287   2.171   2.661   0.818  1.1823 -2.6746  0.1660
 7782TIP3    H223288   2.120   2.544   0.900 -1.9247 -0.2534  1.9172
 7783TIP3   OH223289   8.016   5.981   2.814  0.4490 -0.3377  0.1960
 7783TIP3    H123290   8.037   5.938   2.731 -1.5142 -3.0465  0.9264
 7783TIP3    H223291   8.093   6.034   2.835  1.5075 -0.5791 -2.6846
 7784TIP3   OH223292   0.641   5.145   5.052 -0.3545 -0.0084  0.1492
 7784TIP3    H123293   0.717   5.107   5.096 -0.3818 -0.7516 -0.4258
 7784TIP3    H223294   0.630   5.091   4.973  0.2597  1.8247 -1.2797
 7785TIP3   OH223295   2.541   1.458   4.172  0.0524  0.0420  0.0998
 7785TIP3    H123296   2.474   1.395   4.147 -0.0409  0.8278 -1.8250
 7785TIP3    H223297   2.503   1.544   4.152  0.3223  0.7435  2.2931
 7786TIP3   OH223298   3.426   3.901   0.497 -0.0137  0.2790 -0.9085
 7786TIP3    H123299   3.457   3.980   0.451 -0.2697  0.2616 -1.1188
 7786TIP3    H223300   3.485   3.832   0.469  1.6183  0.8096  0.9997
 7787TIP3   OH223301   8.096   5.625   1.165  0.5097 -0.1653  0.3493
 7787TIP3    H123302   8.116   5.678   1.241 -0.1159  0.2022  0.2627
 7787TIP3    H223303   8.018   5.575   1.190 -0.5717  1.0134 -0.5323
 7788TIP3   OH223304   0.516   0.086   3.119 -0.5979  0.0323 -0.0961
 7788TIP3    H123305   0.519   0.165   3.173  1.7872  0.0363 -0.1148
 7788TIP3    H223306   0.519   0.119   3.029  2.7508  0.0183 -0.1130
 7789TIP3   OH223307   1.155   3.906   1.025 -0.9075 -0.3432 -0.6477
 7789TIP3    H123308   1.114   3.956   1.096 -1.3227 -1.6627  0.0598
 7789TIP3    H223309   1.237   3.874   1.063 -0.5971 -0.1255 -1.1293
 7790TIP3   OH223310   8.165   1.718   5.889 -0.8620 -0.6340 -0.1166
 7790TIP3    H123311   8.206   1.652   5.945 -0.4956 -0.3346 -0.0287
 7790TIP3    H223312   8.154   1.794   5.945  0.4273  0.0161 -0.6991
 7791TIP3   OH223313   1.168   6.344   4.706  0.1190  0.0142 -0.4972
 7791TIP3    H123314   1.243   6.289   4.681 -1.4709 -3.4922  1.6618
 7791TIP3    H223315   1.103   6.329   4.637 -0.4073 -1.1675  0.2160
 7792TIP3   OH223316   1.794   5.559   0.451 -0.1260  0.4069 -0.3777
 7792TIP3    H123317   1.844   5.515   0.382  0.9219  0.7693  0.1210
 7792TIP3    H223318   1.819   5.651   0.444  0.5910  0.3445  0.9343
 7793TIP3   OH223319   8.158   4.747   6.624  0.5775 -0.2010 -0.2864
 7793TIP3    H123320   8.236   4.794   6.651  0.8102 -1.7108  1.8219
 7793TIP3    H223321   8.086   4.795   6.665  0.7763 -1.2640  1.4099
 7794TIP3   OH223322   3.926   5.576   1.437 -0.0730 -0.6728 -0.1740
 7794TIP3    H123323   3.846   5.529   1.458  0.7807 -1.6374  1.0758
 7794TIP3    H223324   3.902   5.668   1.443 -0.8637 -0.9427  1.1507
 7795TIP3   OH223325   0.312   0.812   5.975  0.0123  0.1793  0.8673
 7795TIP3    H123326   0.231   0.776   5.940  1.1120  0.3166 -2.1071
 7795TIP3    H223327   0.301   0.907   5.966 -0.9155  0.4777  4.0510
 7796TIP3   OH223328   5.887   3.225   1.043 -0.2908  0.0256 -0.0921
 7796TIP3    H123329   5.839   3.165   0.986  0.7624 -1.1703  0.2357
 7796TIP3    H223330   5.979   3.207   1.025  0.0619  0.1389  1.4382
 7797TIP3   OH223331   1.402   7.345   6.120  0.2463  0.5018 -0.5049
 7797TIP3    H123332   1.322   7.297   6.099  0.6055 -0.2363 -0.2198
 7797TIP3    H223333   1.471   7.298   6.073  0.5659  0.9144 -0.4518
 7798TIP3   OH223334   1.275   2.241   0.549 -0.1582  0.1196  0.3380
 7798TIP3    H123335   1.319   2.198   0.622  0.5552  1.9710  1.0693
 7798TIP3    H223336   1.248   2.326   0.583 -1.6305  0.2447 -0.9920
 7799TIP3   OH223337   4.091   0.070   5.392  0.1255 -0.0410  0.0876
 7799TIP3    H123338   4.090   0.117   5.475  2.3765  0.3367 -0.0405
 7799TIP3    H223339   4.007   0.024   5.389  0.0611 -0.1755  2.6130
 7800TIP3   OH223340   0.509   4.144   2.656  0.2039 -0.1544 -0.0183
 7800TIP3    H123341   0.479   4.232   2.634  1.9901  0.2431 -1.1350
 7800TIP3    H223342   0.580   4.158   2.718 -0.1717 -0.8769  0.5806
 7801TIP3   OH223343   7.896   5.900   5.005 -0.2838 -0.0442  0.0168
 7801TIP3    H123344   7.821   5.841   5.005 -0.8669  0.6795 -0.4928
 7801TIP3    H223345   7.942   5.881   4.923 -0.1950 -0.1257  0.0846
 7802TIP3   OH223346   4.298   7.189   5.053 -0.2855 -0.1783 -0.1567
 7802TIP3    H123347   4.335   7.203   4.966 -0.5963  1.1052 -0.1052
 7802TIP3    H223348   4.339   7.108   5.084  1.8647  0.7303 -0.4357
 7803TIP3   OH223349   4.659   5.995   1.561  0.2193  0.9254 -0.0918
 7803TIP3    H123350   4.673   6.018   1.470 -0.0237  0.9163 -0.1329
 7803TIP3    H223351   4.665   6.078   1.608  1.0254  0.8388 -0.0286
 7804TIP3   OH223352   5.480   6.471   5.022  0.3896  0.1093  0.0950
 7804TIP3    H123353   5.498   6.454   5.114  1.9078 -1.9585 -0.4906
 7804TIP3    H223354   5.566   6.475   4.981 -0.0938  3.9233 -0.8831
 7805TIP3   OH223355   1.829   6.862   2.181 -1.0687 -0.5799  0.0703
 7805TIP3    H123356   1.888   6.937   2.180  1.8484 -2.7158 -0.7038
 7805TIP3    H223357   1.751   6.892   2.135  0.5355  1.5917 -1.4037
 7806TIP3   OH223358   4.880   6.942   4.914 -0.0084  0.4613 -0.0595
 7806TIP3    H123359   4.888   6.990   4.996 -2.1114  0.0338  0.4660
 7806TIP3    H223360   4.796   6.969   4.878 -1.0037 -2.2374 -0.0552
 7807TIP3   OH223361   2.779   2.423   2.367  0.2408  0.3717 -0.7791
 7807TIP3    H123362   2.804   2.363   2.296  0.5222  2.5687 -2.6513
 7807TIP3    H223363   2.698   2.464   2.337 -1.7498 -1.2550  1.9074
 7808TIP3   OH223364   6.858   6.264   0.642  0.0924 -0.4456  0.4891
 7808TIP3    H123365   6.882   6.172   0.651 -1.2697 -1.0928 -1.6784
 7808TIP3    H223366   6.767   6.262   0.614  0.1416  1.5557  0.0598
 7809TIP3   OH223367   0.332   2.497   6.401 -0.1738  0.0174 -0.0646
 7809TIP3    H123368   0.292   2.469   6.483  2.5060 -1.3572  0.9153
 7809TIP3    H223369   0.406   2.437   6.389 -0.0719  0.5928 -3.1826
 7810TIP3   OH223370   6.296   1.336   6.121  0.1224  0.1162  0.1423
 7810TIP3    H123371   6.373   1.387   6.144  1.8868 -2.0681 -0.4819
 7810TIP3    H223372   6.269   1.370   6.035  0.6146  0.6756  0.2087
 7811TIP3   OH223373   3.357   3.917   6.654  0.2790 -0.2304  0.1085
 7811TIP3    H123374   3.409   3.837   6.659 -0.2657 -0.6886 -1.0411
 7811TIP3    H223375   3.421   3.986   6.639  0.6264 -0.7057 -0.6893
 7812TIP3   OH223376   3.194   7.075   2.852 -0.1462 -0.1631 -0.3133
 7812TIP3    H123377   3.210   6.981   2.860  0.5820  0.1373  3.0040
 7812TIP3    H223378   3.282   7.113   2.841 -0.3185  0.2328 -0.3161
 7813TIP3   OH223379   7.783   1.989   2.939 -0.1999 -0.0628  0.6277
 7813TIP3    H123380   7.757   1.916   2.882 -2.0670  0.2884  0.9414
 7813TIP3    H223381   7.786   1.950   3.027  1.3776 -0.3088  0.4932
 7814TIP3   OH223382   5.786   1.261   5.196  0.1630 -0.3064 -0.2451
 7814TIP3    H123383   5.691   1.254   5.182 -0.2092  1.9045  0.6874
 7814TIP3    H223384   5.812   1.337   5.145  1.3418 -0.5783 -0.0732
 7815TIP3   OH223385   7.366   3.704   1.009  0.4306 -0.0925  0.1586
 7815TIP3    H123386   7.424   3.780   1.006  0.6455 -0.2804 -1.2509
 7815TIP3    H223387   7.414   3.638   1.059  1.2645 -0.0907 -0.6193
 7816TIP3   OH223388   3.265   1.494   6.393 -0.4715  0.8811  0.1452
 7816TIP3    H123389   3.170   1.486   6.384 -0.5098  0.5680  0.7824
 7816TIP3    H223390   3.287   1.573   6.344 -0.5427 -1.1068 -3.3559
 7817TIP3   OH223391   4.873   5.539   0.017  0.0008  0.0279 -0.6196
 7817TIP3    H123392   4.911   5.454   0.039 -0.0778 -0.4014 -1.9927
 7817TIP3    H223393   4.791   5.517  -0.028 -0.4681  0.8627 -0.1999
 7818TIP3   OH223394   3.794   5.766   1.129  0.0801  0.2325 -0.0538
 7818TIP3    H123395   3.783   5.840   1.069  0.5116  1.7904  1.7155
 7818TIP3    H223396   3.747   5.694   1.086  0.7014  1.1316 -2.4387
 7819TIP3   OH223397   7.582   0.566   5.331  0.4828  0.0682 -0.7050
 7819TIP3    H123398   7.656   0.566   5.271  1.4578 -0.9880  0.4450
 7819TIP3    H223399   7.581   0.653   5.369 -0.6551  1.0426 -2.7862
 7820TIP3   OH223400   1.596   6.758   4.576 -0.1067 -0.1606  0.0276
 7820TIP3    H123401   1.628   6.709   4.651  2.0851  0.8674 -0.1490
 7820TIP3    H223402   1.648   6.726   4.502  0.5173  1.5202 -0.3071
 7821TIP3   OH223403   8.034   7.780   6.329 -0.5634  0.1760  0.2678
 7821TIP3    H123404   8.113   7.769   6.382 -0.4399  0.5458  0.1576
 7821TIP3    H223405   8.039   7.869   6.295  1.1412 -1.0402 -3.1942
 7822TIP3   OH223406   4.976   4.187   5.049  0.3782 -0.3646  0.4017
 7822TIP3    H123407   4.902   4.245   5.035 -0.6708 -1.3541  1.5639
 7822TIP3    H223408   4.968   4.121   4.979  0.4339 -0.2072  0.2470
 7823TIP3   OH223409   4.596   6.384   6.533  0.0314  0.5756  0.4028
 7823TIP3    H123410   4.664   6.398   6.599  1.9762 -0.7339 -1.1706
 7823TIP3    H223411   4.569   6.293   6.545  0.4811  0.2878 -0.5929
 7824TIP3   OH223412   5.483   7.840   4.809  0.4327 -0.5825 -0.3822
 7824TIP3    H123413   5.484   7.892   4.728  0.4059  0.3181  0.1788
 7824TIP3    H223414   5.410   7.875   4.859  0.4967 -1.0843  0.0674
 7825TIP3   OH223415   4.582   5.086   3.237  0.3207  0.2806 -0.1354
 7825TIP3    H123416   4.565   5.166   3.286 -1.5070 -0.5116  0.6155
 7825TIP3    H223417   4.499   5.039   3.238  1.9570 -2.9204  1.8036
 7826TIP3   OH223418   6.648   5.035   3.665  0.0240 -0.2050  0.5390
 7826TIP3    H123419   6.738   5.007   3.652  0.4812  0.9584  1.0072
 7826TIP3    H223420   6.636   5.109   3.605 -1.0810 -1.2218 -0.5416
 7827TIP3   OH223421   3.459   3.643   5.676  1.0465  0.0872  0.1626
 7827TIP3    H123422   3.371   3.677   5.657  0.6969 -0.8478  0.0626
 7827TIP3    H223423   3.509   3.660   5.597  1.3826  1.9189  0.7126
 7828TIP3   OH223424   1.840   4.209   6.657  0.2723 -0.4256 -0.2899
 7828TIP3    H123425   1.780   4.142   6.691 -1.9422  1.9009  0.7551
 7828TIP3    H223426   1.927   4.175   6.677 -0.7490 -2.5500  1.0298
 7829TIP3   OH223427   4.246   6.833   4.683  0.4784  0.5784  0.5150
 7829TIP3    H123428   4.278   6.749   4.652 -1.0972 -0.2525  1.0417
 7829TIP3    H223429   4.214   6.815   4.772  0.2650  1.7744  0.6969
 7830TIP3   OH223430   4.592   7.784   3.567  0.5741  0.3437  0.0224
 7830TIP3    H123431   4.634   7.807   3.649 -0.8116  0.9911  0.5768
 7830TIP3    H223432   4.664   7.775   3.504  1.6965 -0.6682  1.3989
 7831TIP3   OH223433   5.000   3.637   5.010  0.0050  0.7080  0.1925
 7831TIP3    H123434   5.058   3.706   5.041 -0.2589  0.3422  1.5543
 7831TIP3    H223435   4.929   3.634   5.074 -0.4638 -0.2071 -0.3467
 7832TIP3   OH223436   3.373   1.362   2.186  0.3332 -0.7007  0.0796
 7832TIP3    H123437   3.285   1.365   2.148 -0.2580 -0.0653  1.4088
 7832TIP3    H223438   3.397   1.269   2.182 -1.4781 -1.3347  1.9381
 7833TIP3   OH223439   6.946   1.012   4.292 -0.0124 -0.1189  0.1799
 7833TIP3    H123440   6.924   0.944   4.356 -0.7190  0.2599  0.3503
 7833TIP3    H223441   6.864   1.028   4.245  0.4945 -0.3780 -0.8116
 7834TIP3   OH223442   8.384   2.501   0.373  0.4046 -0.6776  0.1032
 7834TIP3    H123443   8.423   2.416   0.357  0.6326 -0.2139 -2.0631
 7834TIP3    H223444   8.365   2.536   0.286 -1.2902  0.7494  0.9779
 7835TIP3   OH223445   5.073   4.287   5.841  0.2463  1.1346 -0.2765
 7835TIP3    H123446   5.046   4.238   5.918 -1.7983  0.3679 -1.3764
 7835TIP3    H223447   5.162   4.257   5.823 -0.3227 -0.9531  0.0758
 7836TIP3   OH223448   4.513   2.920   3.867  0.0794  0.3285 -0.2141
 7836TIP3    H123449   4.457   2.998   3.869 -1.1885 -0.5604  0.3535
 7836TIP3    H223450   4.498   2.881   3.781  0.2529  0.3876 -0.2712
 7837TIP3   OH223451   3.024   5.413   3.254 -0.4458  0.1347 -0.0897
 7837TIP3    H123452   3.063   5.452   3.176  1.1920  0.5545  0.9000
 7837TIP3    H223453   3.059   5.324   3.256 -0.0518  0.3008  0.4576
 7838TIP3   OH223454   7.836   1.087   4.790 -0.5171 -0.3797 -0.3691
 7838TIP3    H123455   7.885   1.168   4.806  1.1333 -0.5372 -3.6695
 7838TIP3    H223456   7.901   1.018   4.800 -0.7509 -0.8601 -1.9515
 7839TIP3   OH223457   5.272   5.048   0.789  0.4606  0.2858 -0.0176
 7839TIP3    H123458   5.347   5.024   0.844 -0.4988 -1.3386  0.6308
 7839TIP3    H223459   5.300   5.024   0.700  0.8558  0.0471  0.1643
 7840TIP3   OH223460   4.332   0.507   1.803  0.3926 -0.4148 -0.0983
 7840TIP3    H123461   4.259   0.551   1.846 -0.6498 -1.5671 -0.6086
 7840TIP3    H223462   4.387   0.578   1.770 -1.2046  0.5207 -0.8669
 7841TIP3   OH223463   1.085   3.442   6.499 -0.0111 -0.1146  0.3449
 7841TIP3    H123464   1.070   3.516   6.440  0.2102 -0.0370  0.3863
 7841TIP3    H223465   1.121   3.481   6.578 -3.6639  0.2696  2.0455
 7842TIP3   OH223466   8.127   3.344   2.302  0.4166  0.3375 -0.2745
 7842TIP3    H123467   8.178   3.264   2.316  1.8175  1.0572 -1.0381
 7842TIP3    H223468   8.173   3.389   2.231 -0.2949  1.8655  0.1987
 7843TIP3   OH223469   7.887   2.891   5.950  0.1675 -0.1478 -0.5645
 7843TIP3    H123470   7.810   2.870   6.003  1.7416 -1.0787  1.5005
 7843TIP3    H223471   7.960   2.854   5.999  1.8582 -0.1863 -2.9569
 7844TIP3   OH223472   3.998   2.333   1.417 -0.1953  0.5580  0.4866
 7844TIP3    H123473   3.984   2.351   1.324  0.4310  1.3441  0.5326
 7844TIP3    H223474   3.999   2.237   1.424 -0.6890  0.4930 -0.2369
 7845TIP3   OH223475   2.990   5.881   3.335 -0.0314  0.3030 -0.4880
 7845TIP3    H123476   3.018   5.972   3.340 -1.9193  0.9463 -0.6407
 7845TIP3    H223477   2.945   5.866   3.419 -0.9755 -0.0178 -1.0373
 7846TIP3   OH223478   2.003   3.720   4.265  0.5166  0.0420  0.0005
 7846TIP3    H123479   2.033   3.631   4.246  0.8760  0.1317  0.1332
 7846TIP3    H223480   1.917   3.709   4.304 -0.3548 -0.1569 -1.8554
 7847TIP3   OH223481   3.783   3.975   2.706 -0.0457  0.2224  0.1108
 7847TIP3    H123482   3.778   3.880   2.696 -0.0573  0.1948  0.3795
 7847TIP3    H223483   3.703   4.008   2.665  0.9156  0.2632 -1.8568
 7848TIP3   OH223484   3.179   7.186   0.935 -0.0064 -0.3408 -0.2011
 7848TIP3    H123485   3.142   7.122   0.875  0.5568  0.2060 -1.1511
 7848TIP3    H223486   3.107   7.206   0.995 -0.9003 -0.1641 -1.2907
 7849TIP3   OH223487   2.215   5.535   0.346 -0.2429  0.8474  0.2133
 7849TIP3    H123488   2.225   5.625   0.375  0.2353  0.9134 -0.1510
 7849TIP3    H223489   2.304   5.501   0.341 -0.3020  0.8308 -1.1374
 7850TIP3   OH223490   0.206   6.064   1.647 -0.0575  0.1866 -0.6606
 7850TIP3    H123491   0.210   6.157   1.624  1.2082  0.9414  2.1602
 7850TIP3    H223492   0.288   6.028   1.614  0.9219  0.8573  0.9033
 7851TIP3   OH223493   3.772   7.656   4.465  0.5405  0.2369  0.1750
 7851TIP3    H123494   3.780   7.625   4.555  0.2989  1.4834  0.6403
 7851TIP3    H223495   3.738   7.580   4.416  0.9904 -0.5471  1.0565
 7852TIP3   OH223496   5.567   1.918   0.734  0.4477 -0.4658  0.1488
 7852TIP3    H123497   5.489   1.936   0.681 -0.2695 -2.0118  0.5960
 7852TIP3    H223498   5.551   1.963   0.817  0.3323 -0.2520  0.0113
 7853TIP3   OH223499   7.659   5.280   1.896 -0.5162 -0.2830 -0.3668
 7853TIP3    H123500   7.617   5.281   1.982 -1.0062 -1.5039 -0.5609
 7853TIP3    H223501   7.634   5.195   1.859  1.1909 -0.5649 -0.9735
 7854TIP3   OH223502   4.400   0.385   1.307  0.1946 -0.9040 -0.6206
 7854TIP3    H123503   4.375   0.349   1.222 -1.9361 -0.9781 -0.0381
 7854TIP3    H223504   4.324   0.368   1.363  1.9873 -1.9963  1.6804
 7855TIP3   OH223505   8.155   7.565   4.762  0.1586  0.1879  0.1598
 7855TIP3    H123506   8.139   7.581   4.855  0.8463  0.1610  0.2905
 7855TIP3    H223507   8.090   7.618   4.717 -0.2648  0.1010  0.6577
 7856TIP3   OH223508   8.013   5.531   0.223  0.0527 -0.0562 -0.3826
 7856TIP3    H123509   8.036   5.444   0.258  2.9746  0.5801 -0.4551
 7856TIP3    H223510   8.011   5.588   0.299 -0.6126  0.0485 -0.4758
 7857TIP3   OH223511   0.036   0.661   2.311  0.4857  0.3428  0.1626
 7857TIP3    H123512   0.085   0.581   2.289  0.0510 -0.1787  1.0100
 7857TIP3    H223513   0.027   0.707   2.228  3.1028  0.8709  0.0784
 7858TIP3   OH223514   0.713   5.787   5.187  0.2220 -0.2493  0.6029
 7858TIP3    H123515   0.713   5.691   5.195  0.1430 -0.2353  0.7801
 7858TIP3    H223516   0.801   5.813   5.212  1.1528 -0.4778 -2.0809
 7859TIP3   OH223517   6.718   5.067   0.612 -0.1584  0.5479  0.2552
 7859TIP3    H123518   6.801   5.095   0.574 -0.7889  1.2995 -0.6307
 7859TIP3    H223519   6.668   5.149   0.622 -0.5584  0.1830  1.3529
 7860TIP3   OH223520   0.788   0.504   4.332 -0.4493 -0.5145  0.5650
 7860TIP3    H123521   0.779   0.411   4.353  1.4802 -0.6639  0.8644
 7860TIP3    H223522   0.828   0.506   4.245 -2.2890  0.0848 -0.3231
 7861TIP3   OH223523   1.214   3.224   5.797 -0.0438  0.4173  0.6379
 7861TIP3    H123524   1.203   3.172   5.717  0.3375  1.9801 -0.4834
 7861TIP3    H223525   1.159   3.180   5.862  0.4076 -1.4672 -0.1811
 7862TIP3   OH223526   1.716   0.613   1.742 -0.0882 -0.3155 -0.0423
 7862TIP3    H123527   1.621   0.603   1.738 -0.0119 -0.9609 -0.2484
 7862TIP3    H223528   1.750   0.524   1.747  0.4047 -0.0547  2.4896
 7863TIP3   OH223529   2.254   6.769   5.785 -0.2085  0.5099 -0.5747
 7863TIP3    H123530   2.336   6.743   5.743  0.0825 -0.9033  0.7628
 7863TIP3    H223531   2.187   6.754   5.719  0.3647 -0.5807 -0.9348
 7864TIP3   OH223532   5.534   5.165   2.218  0.3024  0.3984  0.0261
 7864TIP3    H123533   5.548   5.259   2.228  2.5297 -0.0578  2.1516
 7864TIP3    H223534   5.597   5.138   2.151  1.2550  0.1143  1.0197
 7865TIP3   OH223535   2.247   0.340   6.058 -0.2057  0.1068 -0.3058
 7865TIP3    H123536   2.322   0.392   6.087  1.1743 -1.6522 -0.5579
 7865TIP3    H223537   2.188   0.340   6.133 -0.2426  1.9972 -0.3076
 7866TIP3   OH223538   3.550   6.473   4.497 -0.6944  0.3299 -0.0816
 7866TIP3    H123539   3.522   6.564   4.494 -0.8989  0.2677 -0.0748
 7866TIP3    H223540   3.601   6.465   4.578  0.1693  0.6820 -0.5746
 7867TIP3   OH223541   0.552   1.202   4.023 -0.5773  0.1800 -0.3467
 7867TIP3    H123542   0.487   1.272   4.018 -1.8703 -1.0053 -0.8396
 7867TIP3    H223543   0.555   1.178   4.115  0.2642  1.2194 -0.0909
 7868TIP3   OH223544   6.218   3.038   0.242 -0.2196  0.0222 -0.1790
 7868TIP3    H123545   6.179   3.005   0.161 -0.3447  0.2533 -0.2135
 7868TIP3    H223546   6.187   3.128   0.249  1.1606  0.5818 -0.7781
 7869TIP3   OH223547   1.042   0.565   4.481 -0.6762 -1.0662 -0.0843
 7869TIP3    H123548   1.023   0.556   4.574 -0.0477  0.9376  0.3033
 7869TIP3    H223549   0.958   0.552   4.437 -0.9650 -2.1001  0.7357
 7870TIP3   OH223550   5.798   0.005   0.137 -0.7286 -0.3837  0.5603
 7870TIP3    H123551   5.833   0.053   0.061 -1.3568  1.6783  1.5157
 7870TIP3    H223552   5.703   0.012   0.128 -0.8080 -0.2348  1.4720
 7871TIP3   OH223553   2.454   3.855   2.605 -0.5672 -0.1676 -0.2997
 7871TIP3    H123554   2.391   3.788   2.578 -1.5322  0.7313 -0.3427
 7871TIP3    H223555   2.529   3.805   2.637 -0.4949 -1.2619 -2.0679
 7872TIP3   OH223556   7.778   2.365   1.245  0.2522 -0.2867  0.0082
 7872TIP3    H123557   7.729   2.422   1.304  0.5048  0.6211 -0.6369
 7872TIP3    H223558   7.870   2.388   1.259  0.3222 -0.1614 -0.6141
 7873TIP3   OH223559   4.153   1.472   2.546 -0.0329 -0.2469 -0.1228
 7873TIP3    H123560   4.080   1.481   2.484 -0.7065 -2.0084  0.3385
 7873TIP3    H223561   4.229   1.506   2.499 -0.8618  0.1010 -1.2466
 7874TIP3   OH223562   2.791   2.738   4.878  0.4284  0.5936 -0.4147
 7874TIP3    H123563   2.759   2.803   4.941  0.0582 -0.4643  0.5070
 7874TIP3    H223564   2.758   2.655   4.910  2.4935 -0.3138 -0.4958
 7875TIP3   OH223565   2.994   4.109   3.359  0.2893  0.0737 -0.0627
 7875TIP3    H123566   2.942   4.097   3.280 -0.8662  0.7075  0.5672
 7875TIP3    H223567   3.080   4.072   3.338 -0.4370 -1.0937 -1.1004
 7876TIP3   OH223568   8.257   1.728   2.612 -0.1829  0.3583  0.2627
 7876TIP3    H123569   8.216   1.813   2.631  0.8526  1.3381 -1.5888
 7876TIP3    H223570   8.327   1.749   2.550  0.1304 -1.8534 -0.2013
 7877TIP3   OH223571   7.160   1.807   0.722 -0.3027  0.4908  0.1919
 7877TIP3    H123572   7.120   1.893   0.733 -1.2776 -0.2678  3.9323
 7877TIP3    H223573   7.087   1.746   0.725  0.4996 -0.5915 -1.0462
 7878TIP3   OH223574   2.370   5.277   2.948 -0.6884  0.2387 -0.2647
 7878TIP3    H123575   2.334   5.355   2.991  0.6159  1.1632 -0.7697
 7878TIP3    H223576   2.321   5.204   2.986 -1.6644  1.2596  0.5306
 7879TIP3   OH223577   6.214   3.902   2.878  0.4948  0.0434  0.2771
 7879TIP3    H123578   6.244   3.952   2.802  0.6505  0.5038  0.6367
 7879TIP3    H223579   6.251   3.948   2.953  0.9332 -0.8204  0.6009
 7880TIP3   OH223580   7.805   7.466   3.839 -0.3610 -0.1879 -0.7554
 7880TIP3    H123581   7.781   7.559   3.839  1.2608  0.2645 -0.9451
 7880TIP3    H223582   7.758   7.429   3.764 -2.4407  0.0426  0.3553
 7881TIP3   OH223583   4.606   2.737   0.918  0.3381  0.2856  0.1963
 7881TIP3    H123584   4.590   2.697   0.832 -2.1945  2.3659 -0.4241
 7881TIP3    H223585   4.617   2.830   0.899  1.3142  0.5828  2.0224
 7882TIP3   OH223586   4.065   0.956   2.480 -0.1782 -0.3230 -0.5941
 7882TIP3    H123587   4.158   0.964   2.501 -0.2609  0.3456 -0.4417
 7882TIP3    H223588   4.053   1.016   2.406 -0.2174 -1.4317 -1.5108
 7883TIP3   OH223589   5.763   7.613   5.970  0.6232  0.0539  0.3484
 7883TIP3    H123590   5.779   7.661   6.051  1.2951  1.0070 -0.3228
 7883TIP3    H223591   5.669   7.593   5.972  0.7297 -0.3707  1.5778
 7884TIP3   OH223592   0.164   0.368   0.527  0.1314  0.1066 -0.5665
 7884TIP3    H123593   0.190   0.417   0.605  0.5506 -1.7236  0.4857
 7884TIP3    H223594   0.216   0.288   0.530 -0.1825 -0.2051 -2.4950
 7885TIP3   OH223595   1.490   7.421   5.100 -0.2188 -0.0306  0.1443
 7885TIP3    H123596   1.423   7.472   5.145 -1.1690 -1.2851  0.1927
 7885TIP3    H223597   1.447   7.387   5.023  0.8680  0.5309 -0.7504
 7886TIP3   OH223598   5.786   5.981   3.187  0.0967 -0.4532 -0.3126
 7886TIP3    H123599   5.834   5.949   3.263  0.3646 -0.5492 -0.5196
 7886TIP3    H223600   5.758   6.069   3.211 -0.4127 -0.7336  0.1562
 7887TIP3   OH223601   2.613   2.889   3.915  0.3213  0.1584 -0.2910
 7887TIP3    H123602   2.524   2.920   3.930  0.5708  1.8139 -1.9292
 7887TIP3    H223603   2.611   2.854   3.826  1.3111  0.2304 -0.3501
 7888TIP3   OH223604   3.247   6.535   3.670 -0.0582  0.4473 -0.1064
 7888TIP3    H123605   3.229   6.600   3.601 -0.7935  1.0368  0.6172
 7888TIP3    H223606   3.162   6.495   3.688  0.4224 -0.8646 -0.6631
 7889TIP3   OH223607   6.945   1.328   2.992 -0.0498 -0.3473  0.2885
 7889TIP3    H123608   7.006   1.262   3.024 -1.5816 -1.5178  0.8783
 7889TIP3    H223609   6.965   1.406   3.043  0.9452 -0.7043  0.4653
 7890TIP3   OH223610   6.071   0.360   5.630 -0.0276  0.4300  0.0587
 7890TIP3    H123611   6.036   0.433   5.679  1.3646  0.6518  0.7805
 7890TIP3    H223612   6.049   0.282   5.682  0.5070  0.5668  0.5018
 7891TIP3   OH223613   7.255   0.729   3.677  0.2734 -0.0167 -0.3289
 7891TIP3    H123614   7.262   0.652   3.621 -0.2595  0.1207 -0.5909
 7891TIP3    H223615   7.167   0.722   3.716  0.2759  0.3801 -0.2467
 7892TIP3   OH223616   3.385   6.593   2.986 -0.0701  0.2455 -0.3993
 7892TIP3    H123617   3.433   6.583   3.068 -1.6879  1.5540  0.7790
 7892TIP3    H223618   3.436   6.544   2.922  2.7494  1.4499  0.7687
 7893TIP3   OH223619   6.563   1.293   2.798 -0.0781 -0.5095  0.5788
 7893TIP3    H123620   6.595   1.365   2.850  2.3055 -1.2797  0.3001
 7893TIP3    H223621   6.480   1.268   2.838  0.6732  0.2540  2.6967
 7894TIP3   OH223622   3.986   0.215   5.073 -0.2894 -0.2898  0.4052
 7894TIP3    H123623   3.950   0.294   5.032 -2.3133 -1.2693  0.1837
 7894TIP3    H223624   4.028   0.247   5.153  0.2071  1.1664 -0.3957
 7895TIP3   OH223625   2.081   6.946   4.368 -0.1368 -0.0619 -0.5160
 7895TIP3    H123626   2.137   6.950   4.445 -0.5841  0.1621 -0.1963
 7895TIP3    H223627   2.005   7.000   4.390  0.6776  1.7801 -1.9131
 7896TIP3   OH223628   0.221   2.994   1.955  0.0193  0.0241  0.2354
 7896TIP3    H123629   0.244   2.970   1.865  1.3667  1.5607  0.1333
 7896TIP3    H223630   0.303   3.023   1.994 -1.1079  2.7915  0.8249
 7897TIP3   OH223631   2.314   6.231   2.483 -0.2274  0.4786  0.4935
 7897TIP3    H123632   2.366   6.230   2.564  2.2806  0.2339 -1.0194
 7897TIP3    H223633   2.273   6.317   2.482 -0.9278  0.2229  2.3491
 7898TIP3   OH223634   1.470   6.242   5.493 -0.0862 -0.5657 -0.2400
 7898TIP3    H123635   1.462   6.244   5.398  0.0870  0.9774 -0.2387
 7898TIP3    H223636   1.382   6.261   5.525 -0.4688 -2.4692 -0.0467
 7899TIP3   OH223637   0.434   6.092   5.151 -0.0893  0.4385 -0.0473
 7899TIP3    H123638   0.362   6.123   5.096 -0.5854  1.8752  1.3464
 7899TIP3    H223639   0.512   6.103   5.096 -0.7015  0.6377 -0.9055
 7900TIP3   OH223640   3.383   6.808   0.082  0.7206 -0.2182 -0.3923
 7900TIP3    H123641   3.448   6.866   0.043  1.2837 -0.8333 -0.3951
 7900TIP3    H223642   3.425   6.722   0.081 -0.0492 -0.5990 -0.2738
 7901TIP3   OH223643   3.109   2.318   2.629  0.1774  0.4002  0.2430
 7901TIP3    H123644   3.187   2.374   2.640 -0.3672  1.1965  0.1455
 7901TIP3    H223645   3.046   2.374   2.583 -0.1546 -0.5211 -0.4525
 7902TIP3   OH223646   5.099   1.594   0.145 -0.1330 -0.1326 -0.3759
 7902TIP3    H123647   5.096   1.511   0.098  1.4229 -1.1411  1.1955
 7902TIP3    H223648   5.126   1.570   0.234 -2.9699  1.6548  1.1201
 7903TIP3   OH223649   7.933   3.894   2.964  0.3663  0.0827 -0.2221
 7903TIP3    H123650   7.886   3.944   2.897  1.7111  0.5223 -0.8628
 7903TIP3    H223651   8.014   3.944   2.979  0.8098 -0.8515  0.5830
 7904TIP3   OH223652   3.397   0.856   1.694 -0.2157 -0.0690  0.3659
 7904TIP3    H123653   3.330   0.924   1.683 -0.6381 -0.5223  0.0959
 7904TIP3    H223654   3.458   0.870   1.621  0.5047  0.9233  1.1356
 7905TIP3   OH223655   0.897   1.571   4.615 -0.0035  0.3118 -0.1498
 7905TIP3    H123656   0.937   1.646   4.571  0.0292  0.6847  0.4989
 7905TIP3    H223657   0.864   1.515   4.544 -0.1567  1.0083 -0.6297
 7906TIP3   OH223658   5.311   1.517   1.876 -0.0544 -0.3213 -0.3993
 7906TIP3    H123659   5.304   1.557   1.963 -2.2475  0.5111 -0.8819
 7906TIP3    H223660   5.375   1.571   1.829  1.3013 -0.9044  0.7313
 7907TIP3   OH223661   4.763   2.845   6.789 -0.1417 -0.2536  0.3935
 7907TIP3    H123662   4.753   2.750   6.779  1.2535 -0.4666  0.7840
 7907TIP3    H223663   4.756   2.879   6.700 -1.9648 -0.5557  0.3893
 7908TIP3   OH223664   2.055   1.448   6.220 -0.3951 -0.8965 -0.3354
 7908TIP3    H123665   2.034   1.412   6.306  0.0005  1.0270  0.6295
 7908TIP3    H223666   2.150   1.442   6.213  0.0570  2.4743  1.1535
 7909TIP3   OH223667   7.198   1.576   2.368  0.5802 -0.0210 -0.3709
 7909TIP3    H123668   7.128   1.614   2.315 -1.9853 -0.1299  2.6119
 7909TIP3    H223669   7.200   1.484   2.342 -0.0471  0.1044 -0.8939
 7910TIP3   OH223670   0.282   6.220   4.189  0.1953  0.2371 -0.1499
 7910TIP3    H123671   0.235   6.243   4.269 -0.3955 -0.8864 -0.1489
 7910TIP3    H223672   0.373   6.244   4.206 -0.2444  1.8170  0.1077
 7911TIP3   OH223673   5.402   6.155   6.830  0.4972  0.4308  0.1986
 7911TIP3    H123674   5.323   6.119   6.791  0.9193  0.0453 -0.3117
 7911TIP3    H223675   5.415   6.104   6.910 -1.7474  2.8229  2.2643
 7912TIP3   OH223676   3.536   6.078   0.284 -0.1710  0.0293  0.1435
 7912TIP3    H123677   3.455   6.091   0.235 -0.0171 -1.7229 -0.6484
 7912TIP3    H223678   3.603   6.121   0.230 -0.3006 -0.1115 -0.1295
 7913TIP3   OH223679   0.900   6.352   5.598 -0.0346 -0.0522  0.1548
 7913TIP3    H123680   0.821   6.406   5.593  0.5734  0.9617  1.1292
 7913TIP3    H223681   0.926   6.338   5.507  1.0049  3.1213 -0.1455
 7914TIP3   OH223682   0.208   0.485   0.291  0.2436 -0.4125  0.2609
 7914TIP3    H123683   0.181   0.445   0.373  1.0314 -0.0647  0.7069
 7914TIP3    H223684   0.274   0.550   0.317 -0.5047  0.6969 -0.4942
 7915TIP3   OH223685   4.324   1.559   5.882  0.4669  0.0242 -0.1383
 7915TIP3    H123686   4.403   1.526   5.839 -1.0007 -0.8778 -2.3178
 7915TIP3    H223687   4.344   1.651   5.899  1.4668  0.2285 -2.0705
 7916TIP3   OH223688   2.725   2.223   4.755 -0.2357 -0.2402 -0.6338
 7916TIP3    H123689   2.797   2.212   4.817  0.0725 -1.3823 -1.1655
 7916TIP3    H223690   2.650   2.182   4.797  0.0424 -1.2743 -1.1072
 7917TIP3   OH223691   0.838   2.514   5.190  0.1706 -0.2489 -0.6968
 7917TIP3    H123692   0.915   2.509   5.247  0.8229 -0.3996 -1.5690
 7917TIP3    H223693   0.785   2.585   5.227  0.7724 -0.0886 -0.1292
 7918TIP3   OH223694   5.482   0.174   4.233  0.6600  0.1199  0.2824
 7918TIP3    H123695   5.475   0.180   4.138 -0.0583  1.5060  0.4000
 7918TIP3    H223696   5.443   0.089   4.254  0.7585 -0.1647 -0.6469
 7919TIP3   OH223697   6.085   3.007   3.615  0.3745  0.3837  0.2957
 7919TIP3    H123698   6.118   2.998   3.704 -0.0138 -1.2290  0.3123
 7919TIP3    H223699   6.115   2.928   3.570  0.7466  1.2591 -1.0859
 7920TIP3   OH223700   6.892   7.444   3.483 -0.0594  0.1859 -0.2694
 7920TIP3    H123701   6.820   7.491   3.525 -0.0049 -0.0505  0.0897
 7920TIP3    H223702   6.907   7.492   3.401 -0.9714 -0.0735 -0.5978
 7921TIP3   OH223703   5.259   3.520   3.610 -0.0405  0.5463  0.0942
 7921TIP3    H123704   5.228   3.486   3.694  0.5529  0.5172  0.3104
 7921TIP3    H223705   5.264   3.614   3.623 -1.6875  0.7331 -0.5066
 7922TIP3   OH223706   2.024   1.209   2.432  0.0088 -0.2526 -0.1324
 7922TIP3    H123707   2.028   1.244   2.343 -1.6011 -0.9098 -0.4908
 7922TIP3    H223708   2.033   1.115   2.422 -2.2333 -0.5367  0.1649
 7923TIP3   OH223709   4.433   4.825   5.927 -0.1370  0.1285 -0.7403
 7923TIP3    H123710   4.517   4.795   5.893  0.2903 -0.5943  0.8515
 7923TIP3    H223711   4.375   4.750   5.920 -0.1685  0.1084 -0.3187
 7924TIP3   OH223712   4.099   3.323   4.038 -0.2834  0.3128  0.8178
 7924TIP3    H123713   4.029   3.261   4.058  0.3640 -0.7385 -0.0528
 7924TIP3    H223714   4.058   3.388   3.981 -0.7486  0.1469  0.9550
 7925TIP3   OH223715   2.487   4.737   4.037 -0.1628  0.0728  0.2153
 7925TIP3    H123716   2.466   4.644   4.048  2.2775 -0.7459 -1.2270
 7925TIP3    H223717   2.433   4.765   3.963 -0.3201 -0.4173  0.1407
 7926TIP3   OH223718   2.001   3.721   3.909  0.3858 -0.0157 -1.1139
 7926TIP3    H123719   2.047   3.728   3.826  0.6848  1.4860 -0.8571
 7926TIP3    H223720   1.916   3.762   3.893  0.4869  0.3860 -0.6679
 7927TIP3   OH223721   1.062   1.823   3.379 -0.2503  0.0797 -0.5618
 7927TIP3    H123722   0.982   1.837   3.428 -0.3432 -0.5815 -0.5184
 7927TIP3    H223723   1.110   1.906   3.386  1.3878 -0.9911  3.5942
 7928TIP3   OH223724   4.216   4.371   0.271  0.4910  0.4162  0.1032
 7928TIP3    H123725   4.304   4.366   0.308  0.9854 -1.7922 -1.1720
 7928TIP3    H223726   4.229   4.401   0.181 -0.2754  1.7491  0.4035
 7929TIP3   OH223727   6.963   5.935   2.273 -0.0971  0.1370  0.4215
 7929TIP3    H123728   6.875   5.923   2.308 -0.7699  1.1152 -0.8425
 7929TIP3    H223729   6.966   5.880   2.195 -0.1444  1.2405 -0.3885
 7930TIP3   OH223730   1.788   4.844   3.873 -0.0111 -0.7033  0.0889
 7930TIP3    H123731   1.875   4.862   3.909 -0.5587 -0.8150  1.5193
 7930TIP3    H223732   1.731   4.908   3.915 -0.7840 -1.2673 -0.0823
 7931TIP3   OH223733   2.798   6.086   6.819 -0.9282  0.1841 -0.4263
 7931TIP3    H123734   2.876   6.063   6.868 -1.4531 -1.5001 -0.3094
 7931TIP3    H223735   2.767   6.168   6.858 -0.1470 -0.0029  0.6083
 7932TIP3   OH223736   4.857   1.267   4.913  0.3290 -0.4871  0.0843
 7932TIP3    H123737   4.833   1.214   4.837  0.1504 -1.3446  0.7315
 7932TIP3    H223738   4.816   1.224   4.988  1.5975 -0.4299  0.8517
 7933TIP3   OH223739   1.122   7.304   6.087 -0.2468  0.3365 -0.2778
 7933TIP3    H123740   1.064   7.228   6.090 -2.8343  2.1923  0.2332
 7933TIP3    H223741   1.123   7.329   5.994  0.4629 -0.2062 -0.4195
 7934TIP3   OH223742   7.145   7.539   1.869  0.4888  0.0875 -0.2526
 7934TIP3    H123743   7.124   7.465   1.812 -1.4153  0.1845  0.2775
 7934TIP3    H223744   7.139   7.504   1.957  2.0999  0.2833 -0.0212
 7935TIP3   OH223745   3.192   3.507   4.158 -0.5085  0.3038 -0.2410
 7935TIP3    H123746   3.280   3.535   4.132  0.5457 -1.8320  0.7593
 7935TIP3    H223747   3.187   3.527   4.251 -0.4791 -0.8964  0.0401
 7936TIP3   OH223748   6.456   0.892   5.260  0.2362 -0.6024 -0.2344
 7936TIP3    H123749   6.387   0.837   5.225  2.1045 -1.9538 -2.0094
 7936TIP3    H223750   6.491   0.842   5.334 -0.4737 -0.0362  0.5022
 7937TIP3   OH223751   5.572   0.977   2.008 -0.2922 -0.0408  0.1540
 7937TIP3    H123752   5.481   0.968   2.039 -0.0528  2.5034  1.9928
 7937TIP3    H223753   5.614   1.032   2.075  1.9962  0.7349 -1.7903
 7938TIP3   OH223754   3.570   5.869   1.923  0.4251  0.6536  0.0165
 7938TIP3    H123755   3.652   5.915   1.940  0.9452 -0.5915  1.0261
 7938TIP3    H223756   3.589   5.812   1.849  0.7171 -0.1869  0.7224
 7939TIP3   OH223757   8.385   4.344   6.157 -0.3138  0.0524 -0.0467
 7939TIP3    H123758   8.389   4.249   6.167  0.0697 -0.0077 -0.6903
 7939TIP3    H223759   8.311   4.359   6.098 -1.7444  0.3111  1.7454
 7940TIP3   OH223760   4.464   0.092   3.287  0.1509  0.3665 -0.3920
 7940TIP3    H123761   4.476   0.086   3.382  0.1702  0.4839 -0.3867
 7940TIP3    H223762   4.395   0.029   3.267 -0.9707  1.4499 -0.0889
 7941TIP3   OH223763   6.184   2.497   1.776  0.4978  0.0760 -0.7111
 7941TIP3    H123764   6.170   2.586   1.809  0.8423 -0.1561  0.0699
 7941TIP3    H223765   6.155   2.440   1.847 -0.6641 -0.4606 -1.5901
 7942TIP3   OH223766   1.376   3.297   3.729  0.3980  0.1364 -0.5225
 7942TIP3    H123767   1.456   3.293   3.781  0.0999 -0.0394 -0.0767
 7942TIP3    H223768   1.357   3.206   3.708  0.2936  0.1761 -0.5973
 7943TIP3   OH223769   2.349   4.739   2.241  0.4174  0.9100  0.8379
 7943TIP3    H123770   2.443   4.756   2.251  0.4114  1.3345  0.2215
 7943TIP3    H223771   2.309   4.826   2.233  0.3312  0.6902 -1.8714
 7944TIP3   OH223772   7.399   6.899   3.023 -0.4693 -0.2311  0.2243
 7944TIP3    H123773   7.483   6.862   3.049  0.1458  0.0393 -1.2871
 7944TIP3    H223774   7.358   6.831   2.969 -0.9307 -0.1037  0.4059
 7945TIP3   OH223775   1.921   3.902   3.541  0.1726 -0.1113  0.1444
 7945TIP3    H123776   1.881   3.906   3.454  1.6716 -0.4470 -0.5823
 7945TIP3    H223777   1.893   3.818   3.576 -0.1865 -0.1096 -0.1320
 7946TIP3   OH223778   0.888   7.068   0.178 -0.9259 -0.0291  0.2372
 7946TIP3    H123779   0.942   7.047   0.255 -1.0040  0.6234  0.4771
 7946TIP3    H223780   0.949   7.062   0.104 -1.2483 -2.5171  0.0865
 7947TIP3   OH223781   6.545   5.381   4.779 -0.2840 -0.1566 -0.0127
 7947TIP3    H123782   6.493   5.385   4.699  0.1990 -0.3323 -0.3377
 7947TIP3    H223783   6.552   5.472   4.807 -1.0256 -0.1551  0.2098
 7948TIP3   OH223784   2.399   3.174   2.555  0.6236  0.2093  0.1518
 7948TIP3    H123785   2.459   3.128   2.496  0.0090  0.3150 -0.5785
 7948TIP3    H223786   2.386   3.260   2.514 -2.8939 -1.0403 -1.8073
 7949TIP3   OH223787   7.649   1.333   5.586  0.3200  0.0410 -0.1520
 7949TIP3    H123788   7.712   1.353   5.655  0.5508 -0.3881 -0.2360
 7949TIP3    H223789   7.566   1.321   5.632  0.3815  0.2021  0.0013
 7950TIP3   OH223790   7.510   2.074   3.672 -0.4037  0.1168  0.6389
 7950TIP3    H123791   7.513   2.006   3.606 -2.1319 -0.1895  0.8431
 7950TIP3    H223792   7.540   2.031   3.753 -0.1266 -0.0036  0.4746
 7951TIP3   OH223793   0.935   2.355   2.826  0.6122  0.5005 -0.6416
 7951TIP3    H123794   0.992   2.406   2.884  0.5025  1.6561 -1.5137
 7951TIP3    H223795   0.849   2.397   2.834  0.5631  0.5800 -1.5135
 7952TIP3   OH223796   5.857   7.380   5.728  0.6139  0.2275  0.0172
 7952TIP3    H123797   5.830   7.466   5.696  0.5224  0.6402  1.1328
 7952TIP3    H223798   5.941   7.396   5.771  0.5058 -0.1959  0.3954
 7953TIP3   OH223799   0.965   2.597   4.959  0.1182  0.2061 -0.1758
 7953TIP3    H123800   0.936   2.519   4.910  2.8716 -0.3723 -1.0441
 7953TIP3    H223801   0.915   2.593   5.041 -0.4041 -2.0477 -0.5231
 7954TIP3   OH223802   2.053   4.009   1.637  0.2749 -1.1539  0.3066
 7954TIP3    H123803   2.116   4.080   1.651 -0.3312 -0.4198 -0.5742
 7954TIP3    H223804   2.106   3.930   1.639  1.0243 -0.6564  0.9201
 7955TIP3   OH223805   1.583   1.092   5.733  0.4543  0.2401 -0.2449
 7955TIP3    H123806   1.539   1.011   5.706 -0.5871  0.7815 -0.2263
 7955TIP3    H223807   1.582   1.089   5.828 -1.7812  1.3729 -0.1724
 7956TIP3   OH223808   5.381   1.928   1.508 -0.3886 -0.2057 -0.0775
 7956TIP3    H123809   5.370   1.842   1.467  1.3253 -0.1772 -0.6903
 7956TIP3    H223810   5.340   1.989   1.447  0.1244 -0.4029 -0.6282
 7957TIP3   OH223811   5.456   1.656   3.774  0.2201 -0.1304  0.3219
 7957TIP3    H123812   5.535   1.612   3.806  1.4333  1.9849  0.4218
 7957TIP3    H223813   5.482   1.693   3.689 -0.5035  0.9717  0.5566
 7958TIP3   OH223814   8.067   5.132   5.418  0.6327 -0.2883  0.0381
 7958TIP3    H123815   8.061   5.092   5.331 -0.6946  0.1648 -0.0969
 7958TIP3    H223816   8.133   5.080   5.464 -0.4374 -2.1344 -0.4062
 7959TIP3   OH223817   0.468   5.224   2.763  0.2487 -0.0133  0.3337
 7959TIP3    H123818   0.553   5.249   2.800  0.1026  0.8019  0.1420
 7959TIP3    H223819   0.404   5.269   2.818 -0.0558 -0.5485  0.4178
 7960TIP3   OH223820   3.476   2.691   5.592  0.4082 -0.4381  0.2306
 7960TIP3    H123821   3.423   2.617   5.619 -0.7056  0.0684 -0.4884
 7960TIP3    H223822   3.566   2.659   5.596 -0.1230 -2.4973 -1.9575
 7961TIP3   OH223823   7.325   2.311   4.947  0.3853  0.2383  0.3334
 7961TIP3    H123824   7.372   2.322   4.864  0.4249 -0.4635  0.2586
 7961TIP3    H223825   7.364   2.234   4.986 -1.0861 -0.7060  0.0057
 7962TIP3   OH223826   1.521   0.060   4.014 -0.0721 -0.3662 -0.6737
 7962TIP3    H123827   1.467   0.139   4.025  0.6864  0.0690  0.0090
 7962TIP3    H223828   1.458  -0.008   3.989 -1.2054 -0.2501  1.5933
 7963TIP3   OH223829   3.116   1.524   6.678 -0.3161 -0.1099 -0.0165
 7963TIP3    H123830   3.047   1.549   6.740 -1.3474  0.0612 -1.1772
 7963TIP3    H223831   3.072   1.524   6.592  0.9078 -0.9258 -0.6795
 7964TIP3   OH223832   7.950   0.952   2.068  0.6107  0.0984  0.9003
 7964TIP3    H123833   7.967   1.022   2.004 -1.1382  0.5373  0.8635
 7964TIP3    H223834   7.856   0.958   2.085  0.3105 -2.5327  0.5830
 7965TIP3   OH223835   5.424   6.581   0.380  0.5190  0.8355 -0.2379
 7965TIP3    H123836   5.489   6.514   0.402  2.5218  2.9097  0.5364
 7965TIP3    H223837   5.400   6.563   0.290 -1.0842 -2.5089  0.7107
 7966TIP3   OH223838   4.249   6.478   6.151 -0.8092 -0.3398 -0.0315
 7966TIP3    H123839   4.326   6.527   6.121 -0.7105 -1.0494 -0.9736
 7966TIP3    H223840   4.194   6.470   6.073 -0.5529 -2.2358 -0.0554
 7967TIP3   OH223841   0.423   4.189   1.811  0.2292 -0.0414  0.3191
 7967TIP3    H123842   0.461   4.126   1.872  0.9714  0.7792  0.7450
 7967TIP3    H223843   0.344   4.221   1.854  1.4594  1.5306  1.5223
 7968TIP3   OH223844   2.692   5.926   5.832 -0.5806  0.3086  0.3721
 7968TIP3    H123845   2.693   5.846   5.779 -0.9495  0.9567 -0.6543
 7968TIP3    H223846   2.605   5.929   5.870 -0.3891 -0.0462  0.8415
 7969TIP3   OH223847   6.703   3.098   5.258  0.1652 -0.0713  0.0734
 7969TIP3    H123848   6.639   3.071   5.324 -0.1190 -2.7141 -1.1170
 7969TIP3    H223849   6.785   3.058   5.286  0.5894  0.7124 -0.0205
 7970TIP3   OH223850   0.593   1.038   2.810 -0.2430  0.2820 -0.0602
 7970TIP3    H123851   0.586   0.979   2.885  0.1115 -0.1798 -0.3875
 7970TIP3    H223852   0.522   1.101   2.823  1.0097  1.4094  1.7021
 7971TIP3   OH223853   4.858   7.379   0.495  0.5227 -0.8246 -0.5923
 7971TIP3    H123854   4.859   7.284   0.505  0.5265 -0.6219  1.8472
 7971TIP3    H223855   4.768   7.399   0.469  0.6643 -1.5114 -1.6765
 7972TIP3   OH223856   2.266   3.662   6.635  0.1248 -0.7617  0.5028
 7972TIP3    H123857   2.280   3.713   6.715  3.4498  0.8944 -0.9470
 7972TIP3    H223858   2.193   3.706   6.591  0.1532  0.0975  1.2766
 7973TIP3   OH223859   2.197   6.364   6.506 -0.2915  0.1544  0.1959
 7973TIP3    H123860   2.232   6.296   6.448 -0.6459 -1.0876  1.3579
 7973TIP3    H223861   2.106   6.339   6.520 -0.0179 -0.0628  1.8848
 7974TIP3   OH223862   2.351   5.247   5.137  0.1962  0.6583 -0.0081
 7974TIP3    H123863   2.404   5.237   5.216 -0.2983  1.1973  0.3989
 7974TIP3    H223864   2.272   5.291   5.166  0.6750  2.3202 -1.0342
 7975TIP3   OH223865   4.575   3.025   2.840  0.5229  0.2541 -0.0405
 7975TIP3    H123866   4.502   2.993   2.894 -0.6079 -0.2317 -1.7449
 7975TIP3    H223867   4.647   2.966   2.859  0.1941  0.1669  0.9983
 7976TIP3   OH223868   8.309   6.024   3.183 -0.3375 -0.4348 -0.0705
 7976TIP3    H123869   8.361   6.098   3.152  0.3171  0.1236  2.1731
 7976TIP3    H223870   8.373   5.962   3.218 -0.9924 -1.2789 -0.3292
 7977TIP3   OH223871   0.719   3.471   0.292  0.1341 -0.5105  0.1871
 7977TIP3    H123872   0.714   3.380   0.265  0.5682 -0.2987 -0.6510
 7977TIP3    H223873   0.665   3.476   0.371 -1.7871 -1.0039 -1.0394
 7978TIP3   OH223874   5.398   7.421   5.110 -0.1416  0.1419  0.1938
 7978TIP3    H123875   5.446   7.464   5.180 -0.2439 -1.0268  1.0139
 7978TIP3    H223876   5.458   7.354   5.077 -0.9202 -0.8486  0.7436
 7979TIP3   OH223877   2.244   0.152   5.690 -0.4924 -0.5361 -0.2253
 7979TIP3    H123878   2.230   0.241   5.723  0.9004 -0.0576 -0.8430
 7979TIP3    H223879   2.324   0.158   5.638 -1.9330 -1.5121 -2.7332
 7980TIP3   OH223880   1.848   4.719   4.159  0.1017  0.1099 -0.2077
 7980TIP3    H123881   1.901   4.784   4.205 -0.1111 -1.2506  2.1357
 7980TIP3    H223882   1.764   4.763   4.143  0.7169  1.1185 -0.6818
 7981TIP3   OH223883   0.792   5.776   2.042  0.9312  0.9550 -0.6794
 7981TIP3    H123884   0.819   5.852   2.093 -2.4353  0.8647  1.6034
 7981TIP3    H223885   0.697   5.780   2.042  0.6578 -2.4329 -1.7889
 7982TIP3   OH223886   6.987   3.121   3.348  0.3481 -0.0293  0.3679
 7982TIP3    H123887   7.054   3.113   3.416 -0.6028  0.8060  1.4462
 7982TIP3    H223888   6.938   3.039   3.354  0.8746 -0.3795 -0.0058
 7983TIP3   OH223889   3.238   1.111   3.492 -0.3284 -0.5479 -0.4956
 7983TIP3    H123890   3.185   1.111   3.572  0.0874 -0.7396 -0.2160
 7983TIP3    H223891   3.176   1.088   3.423 -0.9320  0.6869 -0.4034
 7984TIP3   OH223892   3.775   2.963   2.331  0.8354  0.0152  0.2865
 7984TIP3    H123893   3.737   2.881   2.300 -0.1479  0.3860  0.4689
 7984TIP3    H223894   3.790   3.014   2.251  2.6564 -0.8080  0.0501
 7985TIP3   OH223895   5.490   3.049   4.655  0.3511  0.1076  0.5655
 7985TIP3    H123896   5.545   3.126   4.643  1.4737 -0.7750 -0.2512
 7985TIP3    H223897   5.401   3.083   4.662  0.6921  1.4071 -0.8961
 7986TIP3   OH223898   2.785   1.023   1.416 -0.2754  0.2781  0.1247
 7986TIP3    H123899   2.802   0.939   1.460  0.9046  0.2272 -0.4141
 7986TIP3    H223900   2.690   1.024   1.404 -0.2042 -1.5356 -0.9194
 7987TIP3   OH223901   0.836   0.517   0.610 -0.5389 -0.1290 -0.1610
 7987TIP3    H123902   0.921   0.561   0.617 -0.8083  0.3723  6.4784
 7987TIP3    H223903   0.771   0.585   0.625 -1.3614 -1.4960  3.5795
 7988TIP3   OH223904   5.329   5.368   2.723  0.6115  0.4860  0.2237
 7988TIP3    H123905   5.260   5.431   2.744 -0.8020 -0.8352 -0.2696
 7988TIP3    H223906   5.283   5.284   2.715  2.4126 -0.6065  0.7712
 7989TIP3   OH223907   7.881   0.576   4.010 -0.0219 -0.5934  0.3126
 7989TIP3    H123908   7.899   0.617   4.095 -0.5062  0.1433  0.0730
 7989TIP3    H223909   7.936   0.625   3.948  0.1830 -0.9999  0.1748
 7990TIP3   OH223910   5.730   5.318   0.039 -0.0003  0.5020 -0.1910
 7990TIP3    H123911   5.674   5.335  -0.037 -1.1545 -0.2650  0.4615
 7990TIP3    H223912   5.724   5.224   0.052 -2.1047  0.8931  2.5194
 7991TIP3   OH223913   2.596   2.824   1.246 -0.3300 -0.0096 -0.2377
 7991TIP3    H123914   2.648   2.904   1.251  1.2410 -0.7639 -2.7628
 7991TIP3    H223915   2.661   2.753   1.248 -1.5982 -1.1985  0.7846
 7992TIP3   OH223916   4.538   0.115   5.955  0.8053  0.3326 -0.1539
 7992TIP3    H123917   4.560   0.066   6.034 -1.7067 -1.2184 -0.2986
 7992TIP3    H223918   4.556   0.054   5.883 -0.0696  0.4796 -0.5102
 7993TIP3   OH223919   4.544   2.960   0.067  0.6722 -0.1074  0.2245
 7993TIP3    H123920   4.528   3.014   0.145  0.9759 -0.1202  0.2944
 7993TIP3    H223921   4.575   2.876   0.101 -0.3438 -0.5284  0.1397
 7994TIP3   OH223922   4.824   6.983   3.991  0.1717  0.6217  0.1093
 7994TIP3    H123923   4.795   7.070   4.017 -0.1565  1.2312 -2.1004
 7994TIP3    H223924   4.919   6.991   3.983  0.0368  1.1802 -1.2899
 7995TIP3   OH223925   5.247   0.903   4.576  0.4323 -0.2862 -0.0071
 7995TIP3    H123926   5.308   0.909   4.649  0.9071  0.7017 -0.4611
 7995TIP3    H223927   5.188   0.831   4.599  0.3233  0.2631  1.5324
 7996TIP3   OH223928   2.498   6.961   0.987  0.2621 -0.3610  0.0393
 7996TIP3    H123929   2.475   7.036   1.041  0.7753  1.5977 -2.2559
 7996TIP3    H223930   2.467   6.885   1.035 -0.1730  1.3064  2.5374
 7997TIP3   OH223931   4.130   4.082   3.439 -0.3381 -0.0548 -0.3432
 7997TIP3    H123932   4.055   4.137   3.459  1.3361  2.2714 -0.0642
 7997TIP3    H223933   4.106   3.995   3.472 -1.6746  1.3118  2.6536
 7998TIP3   OH223934   2.596   0.756   6.253 -0.1710  0.5073 -0.4902
 7998TIP3    H123935   2.524   0.803   6.296 -1.2036 -0.7675 -0.7543
 7998TIP3    H223936   2.628   0.696   6.320 -0.1754  0.2121 -0.7504
 7999TIP3   OH223937   0.222   4.056   4.392 -0.3937  0.0690  0.0490
 7999TIP3    H123938   0.154   3.988   4.394  0.7917 -1.1516  1.0005
 7999TIP3    H223939   0.174   4.137   4.380 -1.7045 -1.0598 -3.7799
 8000TIP3   OH223940   8.225   0.275   5.032  0.3201  0.0681 -0.2463
 8000TIP3    H123941   8.296   0.325   5.074  1.0322 -1.9349  1.1076
 8000TIP3    H223942   8.252   0.184   5.042 -0.9921 -0.6296 -2.4907
 8001TIP3   OH223943   3.139   5.164   3.216  0.4109 -0.1888 -0.4185
 8001TIP3    H123944   3.232   5.174   3.240  0.3187 -0.3478  0.0187
 8001TIP3    H223945   3.119   5.072   3.237  0.1112 -0.1121 -0.3673
 8002TIP3   OH223946   4.158   6.451   2.227 -0.6795  0.1426 -0.5494
 8002TIP3    H123947   4.213   6.376   2.205  1.4836  1.0000  1.5096
 8002TIP3    H223948   4.111   6.471   2.146  1.1185 -1.4202 -2.0719
 8003TIP3   OH223949   6.609   6.645   2.241  0.2195  0.1492  1.1853
 8003TIP3    H123950   6.686   6.607   2.283  1.3711 -0.8758 -1.6191
 8003TIP3    H223951   6.644   6.715   2.185 -0.9793  0.2353  0.5055
 8004TIP3   OH223952   2.136   0.356   1.876 -0.1104  0.2184 -0.1751
 8004TIP3    H123953   2.194   0.334   1.949  0.1410 -0.5019 -0.5751
 8004TIP3    H223954   2.065   0.291   1.881  0.1149 -0.0834 -0.7944
 8005TIP3   OH223955   0.873   5.015   6.851 -0.0327  0.3415  0.3610
 8005TIP3    H123956   0.915   5.061   6.778  2.6485 -2.9420 -0.4282
 8005TIP3    H223957   0.887   5.072   6.926 -0.3846  2.5569 -1.1510
 8006TIP3   OH223958   3.625   0.876   0.308 -0.6937 -0.6753 -0.3061
 8006TIP3    H123959   3.643   0.970   0.305  1.3227 -0.7958  2.8327
 8006TIP3    H223960   3.608   0.851   0.217  0.0321  2.4663 -1.4152
 8007TIP3   OH223961   3.435   4.228   2.185  0.3097 -0.4234 -0.1946
 8007TIP3    H123962   3.487   4.263   2.113 -0.5792  0.5872 -0.3774
 8007TIP3    H223963   3.499   4.198   2.249  1.1155  0.2010 -0.6812
 8008TIP3   OH223964   7.091   4.033   6.420 -0.1291 -0.4953  0.2284
 8008TIP3    H123965   7.168   4.070   6.463 -0.4238  0.2328  0.1527
 8008TIP3    H223966   7.092   3.940   6.443  1.2741 -0.6900 -0.5208
 8009TIP3   OH223967   5.527   4.878   3.801 -0.1611 -0.5101  0.5933
 8009TIP3    H123968   5.450   4.908   3.752  0.6269  1.9694  0.7272
 8009TIP3    H223969   5.599   4.884   3.738  0.0920 -2.1409  0.6736
 8010TIP3   OH223970   1.326   1.885   1.306  0.0677  0.2425 -0.2306
 8010TIP3    H123971   1.242   1.925   1.331  0.1396 -0.1292  0.6502
 8010TIP3    H223972   1.391   1.931   1.359  0.0928 -1.3574  1.2443
 8011TIP3   OH223973   3.319   0.953   2.761 -0.5763  0.2314 -0.1707
 8011TIP3    H123974   3.400   0.992   2.794  0.7269 -1.5789 -1.0618
 8011TIP3    H223975   3.281   1.021   2.706  0.3738  1.1062  0.2155
 8012TIP3   OH223976   3.513   3.307   3.488 -0.0603  0.1585 -0.6334
 8012TIP3    H123977   3.575   3.243   3.522 -1.6512 -1.1883 -0.1658
 8012TIP3    H223978   3.507   3.375   3.556 -0.4494 -0.6369  0.1398
 8013TIP3   OH223979   7.197   0.963   6.744  0.5748 -0.3088 -0.7678
 8013TIP3    H123980   7.120   0.956   6.687 -1.3032  1.0496  1.4322
 8013TIP3    H223981   7.262   1.009   6.690 -1.8348  2.8175 -1.2812
 8014TIP3   OH223982   6.071   5.023   0.051 -1.1023  0.0017 -0.2713
 8014TIP3    H123983   6.067   5.101  -0.004 -2.5400 -0.9567 -1.6146
 8014TIP3    H223984   6.084   5.057   0.140 -1.3459  1.7314 -0.8608
 8015TIP3   OH223985   3.809   6.228   6.752 -0.2205 -0.2575 -0.3296
 8015TIP3    H123986   3.817   6.252   6.660  2.3306  0.1721 -0.0576
 8015TIP3    H223987   3.816   6.132   6.752  0.9136 -0.1911 -0.5320
 8016TIP3   OH223988   7.034   2.488   3.352  0.0480  0.0420  0.3614
 8016TIP3    H123989   7.084   2.525   3.279  0.9111 -0.0279  0.9104
 8016TIP3    H223990   6.994   2.565   3.394 -0.6223  0.0671 -0.2862
 8017TIP3   OH223991   6.196   7.468   1.346  0.2408 -0.2440  0.3167
 8017TIP3    H123992   6.285   7.493   1.369 -0.0874 -1.6095  3.7039
 8017TIP3    H223993   6.206   7.408   1.272  2.1376 -0.3196  0.5934
 8018TIP3   OH223994   1.338   3.935   1.896  0.2085  1.1469  0.3216
 8018TIP3    H123995   1.318   4.019   1.854 -1.3362 -0.2116 -1.8625
 8018TIP3    H223996   1.259   3.914   1.947 -0.1289  0.2532 -0.5387
 8019TIP3   OH223997   2.744   5.110   4.060  0.1468 -0.4708  0.5430
 8019TIP3    H123998   2.709   5.124   4.148 -0.7490  1.9740 -0.1144
 8019TIP3    H223999   2.668   5.121   4.003  1.0169 -0.3605 -0.6208
 8020TIP3   OH224000   6.379   6.779   5.454  0.1118 -0.5983 -0.0991
 8020TIP3    H124001   6.406   6.691   5.426  0.1247 -0.1581 -1.5452
 8020TIP3    H224002   6.291   6.768   5.489 -0.2988 -1.0264 -1.2474
 8021TIP3   OH224003   4.557   1.627   1.256  0.7154 -0.0427  0.2124
 8021TIP3    H124004   4.645   1.654   1.282  0.2083  2.3117 -0.2974
 8021TIP3    H224005   4.529   1.693   1.193 -1.3813 -0.7886  0.2904
 8022TIP3   OH224006   6.793   4.379   1.848 -0.1812  0.3582 -0.5882
 8022TIP3    H124007   6.705   4.377   1.809 -0.3685 -0.9652 -0.1648
 8022TIP3    H224008   6.786   4.445   1.917 -1.7534 -1.5848  1.3059
 8023TIP3   OH224009   2.571   2.894   5.551  0.2609  0.1297  0.0037
 8023TIP3    H124010   2.600   2.985   5.540  3.0522 -0.6744 -0.1665
 8023TIP3    H224011   2.481   2.893   5.519 -0.4721  3.1520  1.6000
 8024TIP3   OH224012   6.019   4.371   4.678 -0.0014  0.2288  0.5134
 8024TIP3    H124013   6.005   4.294   4.623 -0.1470 -1.2022  2.4432
 8024TIP3    H224014   5.961   4.437   4.641  1.1824 -0.0503 -2.0880
 8025TIP3   OH224015   6.178   4.203   3.547 -0.4175 -0.0018 -0.0156
 8025TIP3    H124016   6.118   4.171   3.614  0.5297  0.0460  0.8626
 8025TIP3    H224017   6.181   4.298   3.560  1.7139 -0.2210  1.5660
 8026TIP3   OH224018   7.298   6.067   3.629 -0.1310 -0.0859 -0.0017
 8026TIP3    H124019   7.363   5.998   3.639  0.2478  0.5476  2.5070
 8026TIP3    H224020   7.221   6.035   3.677 -1.4615 -0.4747 -2.2489
 8027TIP3   OH224021   3.729   0.689   2.628 -0.1210 -0.2102  0.1139
 8027TIP3    H124022   3.714   0.636   2.550  1.0824  1.1536 -1.0944
 8027TIP3    H224023   3.644   0.728   2.647 -0.3361 -0.2623 -0.7344
 8028TIP3   OH224024   2.017   4.498   0.112 -0.4669  0.2434 -0.2440
 8028TIP3    H124025   2.036   4.592   0.105  0.2093  0.0996 -0.4330
 8028TIP3    H224026   2.036   4.477   0.204  1.5519 -0.1391 -0.6831
 8029TIP3   OH224027   3.447   5.274   5.928  0.2983  0.1730 -0.0441
 8029TIP3    H124028   3.433   5.342   5.863  0.0418  0.1207 -0.0444
 8029TIP3    H224029   3.389   5.203   5.902  0.5628 -0.0465 -0.0427
 8030TIP3   OH224030   0.415   5.580   1.734  0.4320  0.3540 -0.3384
 8030TIP3    H124031   0.406   5.652   1.796  0.7706  0.0126  0.1152
 8030TIP3    H224032   0.489   5.528   1.767  0.3776 -0.0407 -0.8155
 8031TIP3   OH224033   1.439   1.017   4.620  0.0205  0.5063  0.7742
 8031TIP3    H124034   1.421   0.924   4.633 -1.8794  0.6981 -0.0723
 8031TIP3    H224035   1.427   1.030   4.526 -1.0840  1.8292  1.0652
 8032TIP3   OH224036   8.284   1.365   1.543  0.0442 -0.4069  0.1717
 8032TIP3    H124037   8.271   1.452   1.579  1.7467 -0.0253 -0.0335
 8032TIP3    H224038   8.263   1.305   1.615  0.9138  0.2538  0.9970
 8033TIP3   OH224039   3.674   2.560   3.198 -0.1787 -0.2297 -0.2407
 8033TIP3    H124040   3.582   2.547   3.220 -0.1970 -0.1280 -0.2574
 8033TIP3    H224041   3.688   2.507   3.120 -0.4850  0.5699 -0.8513
 8034TIP3   OH224042   5.853   1.496   4.325 -0.2292 -0.0199  0.0336
 8034TIP3    H124043   5.827   1.522   4.237  0.5897  2.2579  0.3799
 8034TIP3    H224044   5.803   1.554   4.383  0.4061 -0.3869  0.9771
 8035TIP3   OH224045   6.782   3.767   6.310 -0.7376  0.2855  0.1425
 8035TIP3    H124046   6.786   3.830   6.382 -0.9739 -2.3778  2.7027
 8035TIP3    H224047   6.865   3.779   6.264  0.0086  1.2503  1.6399
 8036TIP3   OH224048   4.557   6.119   6.626  1.0051  0.0089 -0.2349
 8036TIP3    H124049   4.640   6.072   6.631  1.6676  1.2546  2.8861
 8036TIP3    H224050   4.494   6.060   6.668  0.5596 -0.4174 -1.4758
 8037TIP3   OH224051   6.252   3.083   3.821 -0.0672 -0.2551  0.7497
 8037TIP3    H124052   6.259   2.988   3.832 -0.1089 -0.4070 -0.4367
 8037TIP3    H224053   6.327   3.107   3.766 -0.0250  0.4128  1.0857
 8038TIP3   OH224054   6.576   5.761   2.115  0.0633  0.0340  0.7529
 8038TIP3    H124055   6.619   5.792   2.195 -0.2129 -0.5859  1.1524
 8038TIP3    H224056   6.565   5.667   2.129  2.0296 -0.5268 -0.9477
 8039TIP3   OH224057   3.620   0.178   5.459  0.2324  0.5437 -0.3973
 8039TIP3    H124058   3.567   0.210   5.533  0.0772  0.7335 -0.5898
 8039TIP3    H224059   3.666   0.256   5.427  1.3531  0.2175  0.3532
 8040TIP3   OH224060   1.724   7.137   6.574 -0.0232  0.4356  0.4321
 8040TIP3    H124061   1.785   7.210   6.589 -1.5386  1.8045  0.2618
 8040TIP3    H224062   1.656   7.175   6.519  0.2972 -1.7817 -1.6152
 8041TIP3   OH224063   3.042   3.695   3.587  0.1893 -0.2949  0.1472
 8041TIP3    H124064   3.025   3.789   3.599 -1.1839 -0.7119  1.9404
 8041TIP3    H224065   2.967   3.662   3.539  0.0005 -0.6951  0.7042
 8042TIP3   OH224066   3.481   7.584   6.456  0.2633 -0.0596 -0.2807
 8042TIP3    H124067   3.446   7.601   6.369  0.1648 -1.4686 -0.5423
 8042TIP3    H224068   3.404   7.576   6.512  0.3257  0.8132 -0.0634
 8043TIP3   OH224069   7.991   3.057   4.357 -0.1264 -0.1188 -0.4223
 8043TIP3    H124070   7.919   3.008   4.316  0.6174 -1.9533  0.3657
 8043TIP3    H224071   8.065   3.046   4.297  0.1556 -0.3098 -0.0415
 8044TIP3   OH224072   7.068   2.905   1.440 -0.3658 -0.5993  0.9425
 8044TIP3    H124073   6.997   2.872   1.494  0.4771  1.5854  3.6151
 8044TIP3    H224074   7.059   3.000   1.443  0.7801 -0.3381 -1.3905
 8045TIP3   OH224075   1.727   1.635   5.040 -0.3778  0.0336  0.0705
 8045TIP3    H124076   1.766   1.550   5.059  1.3568  0.3615 -1.7519
 8045TIP3    H224077   1.753   1.690   5.114  1.9584 -0.0034 -0.6449
 8046TIP3   OH224078   2.982   7.778   0.793 -0.4078  0.0052  0.6868
 8046TIP3    H124079   2.897   7.734   0.786 -0.7767  0.6856  0.8446
 8046TIP3    H224080   2.967   7.866   0.759  0.8152 -0.5732 -1.5410
 8047TIP3   OH224081   3.291   2.106   6.251 -0.1698  1.0923  0.6667
 8047TIP3    H124082   3.219   2.125   6.311 -0.5877 -0.8933  0.8878
 8047TIP3    H224083   3.248   2.073   6.172  0.4449  1.4734  0.1745
 8048TIP3   OH224084   3.182   1.349   6.037 -0.5672  0.1845 -0.0939
 8048TIP3    H124085   3.250   1.411   6.063  0.7032 -0.5694 -1.4721
 8048TIP3    H224086   3.158   1.376   5.948 -2.0503  0.4029  0.3532
 8049TIP3   OH224087   6.565   4.357   0.690  0.7010  0.3897 -0.3185
 8049TIP3    H124088   6.637   4.370   0.752 -0.6362  0.8715  1.1794
 8049TIP3    H224089   6.515   4.438   0.694  0.6725  0.4968 -2.1944
 8050TIP3   OH224090   2.851   5.545   6.430 -0.0742 -0.7902  0.2201
 8050TIP3    H124091   2.763   5.582   6.441 -0.9353 -2.5389 -0.4402
 8050TIP3    H224092   2.859   5.529   6.336  0.9255 -0.7403  0.2883
 8051TIP3   OH224093   1.921   3.133   1.030 -0.3359  0.1096  0.3696
 8051TIP3    H124094   1.979   3.186   0.975  0.8690  0.8614  2.2674
 8051TIP3    H224095   1.978   3.067   1.070 -1.0325 -0.0128  1.2079
 8052TIP3   OH224096   7.357   1.056   0.611  0.5067 -0.0112  0.0894
 8052TIP3    H124097   7.309   1.007   0.677  0.1356  0.6746  0.3445
 8052TIP3    H224098   7.309   1.040   0.529  0.2110  0.1641  0.2272
 8053TIP3   OH224099   1.220   0.640   2.636  0.0809  0.1061  0.2302
 8053TIP3    H124100   1.161   0.631   2.712 -0.4585  1.0643 -0.0617
 8053TIP3    H224101   1.307   0.649   2.674 -0.2213  0.8737  0.7507
 8054TIP3   OH224102   4.222   1.584   3.655 -0.2461 -0.2470 -0.0897
 8054TIP3    H124103   4.283   1.619   3.720 -1.7116  0.3322  1.0302
 8054TIP3    H224104   4.139   1.577   3.701 -0.8296 -1.9159 -1.3102
 8055TIP3   OH224105   1.057   7.154   4.985 -0.3323  0.5278  0.3050
 8055TIP3    H124106   1.084   7.134   4.896 -0.9452  1.3094 -0.0703
 8055TIP3    H224107   0.968   7.120   4.992 -0.4715  0.9111  0.4530
 8056TIP3   OH224108   8.213   3.983   5.778 -0.2345  0.2702 -0.1172
 8056TIP3    H124109   8.129   4.026   5.762 -1.2099 -1.1574  0.9768
 8056TIP3    H224110   8.222   3.920   5.706 -0.2546  0.1877 -0.0473
 8057TIP3   OH224111   1.166   6.402   6.284  0.2774 -0.4738  0.1603
 8057TIP3    H124112   1.198   6.462   6.351 -1.2716  1.0033 -0.3574
 8057TIP3    H224113   1.223   6.418   6.209 -0.8796  1.3662 -0.4035
 8058TIP3   OH224114   0.551   5.729   3.507 -0.1425 -0.4203 -0.5099
 8058TIP3    H124115   0.514   5.670   3.572  1.1480  0.2479  0.8926
 8058TIP3    H224116   0.617   5.677   3.461 -0.3382 -0.5973 -0.5933
 8059TIP3   OH224117   3.148   4.685   6.819  0.6003 -0.2692 -0.1264
 8059TIP3    H124118   3.123   4.777   6.818  0.3191 -0.2886  1.5959
 8059TIP3    H224119   3.065   4.638   6.828  0.8674 -0.5653  0.9933
 8060TIP3   OH224120   5.526   1.788   2.202  0.1614  0.4005 -0.0418
 8060TIP3    H124121   5.598   1.768   2.262 -0.3479  1.2941  0.9000
 8060TIP3    H224122   5.471   1.850   2.250 -0.5858  0.6834 -1.2164
 8061TIP3   OH224123   0.296   4.111   2.307  0.0983  0.0263 -0.1892
 8061TIP3    H124124   0.388   4.101   2.331 -0.1246 -0.1479  0.6340
 8061TIP3    H224125   0.279   4.205   2.318  0.2003  0.0757 -0.4431
 8062TIP3   OH224126   4.417   5.021   0.157 -0.1969 -0.1522  0.1947
 8062TIP3    H124127   4.346   4.961   0.177 -0.1110 -0.2141  0.3155
 8062TIP3    H224128   4.440   5.061   0.241 -0.2299  0.0235  0.1210
 8063TIP3   OH224129   6.762   2.932   0.679  0.4315 -0.2664 -0.2856
 8063TIP3    H124130   6.794   3.022   0.669 -0.2374  0.3207  2.2194
 8063TIP3    H224131   6.700   2.920   0.607  1.7748  0.6245 -1.6662
 8064TIP3   OH224132   5.846   0.464   3.759 -0.1429  0.5498 -0.0952
 8064TIP3    H124133   5.816   0.375   3.740  0.0262  0.7455 -1.3715
 8064TIP3    H224134   5.786   0.496   3.826 -0.5558 -0.3203 -0.0298
 8065TIP3   OH224135   3.841   1.575   5.379  0.0590  0.6515  0.0035
 8065TIP3    H124136   3.884   1.519   5.314  0.6245 -0.0022  0.9289
 8065TIP3    H224137   3.911   1.626   5.418 -0.4919  2.3670 -1.1100
 8066TIP3   OH224138   6.990   0.019   1.391  0.1543  0.5702  0.0691
 8066TIP3    H124139   7.082   0.045   1.390  0.4113 -0.3136  0.4404
 8066TIP3    H224140   6.975  -0.023   1.306 -0.1379  1.4439 -0.3321
 8067TIP3   OH224141   2.589   5.238   0.589 -0.2134 -0.2430  0.8634
 8067TIP3    H124142   2.559   5.163   0.537 -0.2246 -0.3128  0.9704
 8067TIP3    H224143   2.554   5.222   0.677 -2.7574  1.3411  0.2388
 8068TIP3   OH224144   3.718   3.100   6.191 -0.2559  0.4217  0.0539
 8068TIP3    H124145   3.715   3.159   6.116  0.0550  1.0389  0.5195
 8068TIP3    H224146   3.669   3.146   6.259 -0.3447 -0.0323  0.3018
 8069TIP3   OH224147   0.774   6.998   4.390  0.3286  0.4003  0.2428
 8069TIP3    H124148   0.767   7.093   4.381 -0.9127  0.2092 -1.6181
 8069TIP3    H224149   0.867   6.980   4.396  0.5349  1.7930  1.9551
 8070TIP3   OH224150   6.418   5.151   5.195 -0.0606  0.2520 -0.0122
 8070TIP3    H124151   6.483   5.152   5.124  2.0431 -2.6943  1.6613
 8070TIP3    H224152   6.447   5.220   5.255  2.2014 -1.5840  1.1427
 8071TIP3   OH224153   2.715   7.645   3.277 -0.2028 -1.0832 -0.8776
 8071TIP3    H124154   2.738   7.655   3.370 -1.9724 -1.7618 -0.3262
 8071TIP3    H224155   2.759   7.717   3.234  0.6418 -0.7298  0.4981
 8072TIP3   OH224156   5.077   1.811   2.310 -0.1833  0.5201  0.5221
 8072TIP3    H124157   5.091   1.825   2.216 -1.5030  0.5980  0.3220
 8072TIP3    H224158   5.165   1.815   2.348  0.4845 -0.5040 -0.8284
 8073TIP3   OH224159   4.125   2.126   5.932  0.1126 -0.1737  0.8107
 8073TIP3    H124160   4.139   2.197   5.870  0.9028  0.4518  1.6821
 8073TIP3    H224161   4.030   2.125   5.946  0.1862  1.5609  1.7243
 8074TIP3   OH224162   7.418   3.857   6.813  0.2724  0.1262  0.1184
 8074TIP3    H124163   7.463   3.940   6.825  1.3591  0.1167 -2.9090
 8074TIP3    H224164   7.325   3.879   6.815  0.5432  1.3718 -0.2197
 8075TIP3   OH224165   0.135   6.828   3.647 -0.2536 -0.3390  0.1510
 8075TIP3    H124166   0.048   6.862   3.669  0.3606  1.2903  0.2110
 8075TIP3    H224167   0.124   6.733   3.644 -1.6163 -0.2906  2.0421
 8076TIP3   OH224168   4.538   7.673   2.702  0.1194  0.1352 -0.0507
 8076TIP3    H124169   4.477   7.746   2.703  0.1208  0.1672 -1.1790
 8076TIP3    H224170   4.531   7.636   2.614 -0.0913 -1.4077  0.5718
 8077TIP3   OH224171   0.461   1.859   6.551 -0.1636 -0.4016 -0.0894
 8077TIP3    H124172   0.492   1.918   6.483  1.2397  0.0103  0.8482
 8077TIP3    H224173   0.531   1.793   6.559 -0.3115 -0.4616  0.9061
 8078TIP3   OH224174   4.006   1.249   5.253 -0.0919 -0.1736 -0.3472
 8078TIP3    H124175   4.028   1.325   5.199 -0.8285 -0.0508 -0.4879
 8078TIP3    H224176   3.934   1.207   5.206 -0.1801 -0.5406  0.1119
 8079TIP3   OH224177   4.678   3.717   3.979  0.2938  0.5625 -1.0026
 8079TIP3    H124178   4.631   3.636   3.999  4.9154 -2.0087  1.2966
 8079TIP3    H224179   4.719   3.701   3.894  1.1864  0.4664 -0.5635
 8080TIP3   OH224180   5.881   1.115   6.540 -0.4685  0.7502  0.4329
 8080TIP3    H124181   5.814   1.178   6.512 -0.8080  0.5754  0.8401
 8080TIP3    H224182   5.964   1.161   6.526 -0.6643  0.9389 -0.1513
 8081TIP3   OH224183   5.178   0.934   1.964 -0.0562 -0.2227  0.4814
 8081TIP3    H124184   5.165   0.872   1.893  0.8525 -0.0415  0.1409
 8081TIP3    H224185   5.242   0.892   2.022  1.4884  0.8490 -0.3641
 8082TIP3   OH224186   7.490   3.642   0.738  0.2486 -0.1693  0.4091
 8082TIP3    H124187   7.417   3.644   0.800 -0.4552  0.5629 -0.3958
 8082TIP3    H224188   7.493   3.731   0.702  0.3770 -0.6643 -0.8674
 8083TIP3   OH224189   6.977   7.387   4.946  0.1150 -0.0584 -0.5355
 8083TIP3    H124190   6.956   7.357   5.035 -1.7597 -0.0782 -0.9434
 8083TIP3    H224191   6.902   7.439   4.920  0.9406  0.5140 -1.8794
 8084TIP3   OH224192   8.385   4.583   5.756  0.8662 -0.3747  0.0938
 8084TIP3    H124193   8.299   4.546   5.736  0.9226 -1.3132  1.4542
 8084TIP3    H224194   8.445   4.508   5.751  1.4333  0.0673  0.1732
 8085TIP3   OH224195   7.662   1.773   2.119 -0.2096  0.5506  0.6608
 8085TIP3    H124196   7.713   1.851   2.095 -1.7068  1.6360  0.8343
 8085TIP3    H224197   7.599   1.763   2.048 -0.1749 -0.3826  0.7531
 8086TIP3   OH224198   7.738   2.867   3.675  0.4318  0.4185 -0.5603
 8086TIP3    H124199   7.710   2.874   3.766  0.7609 -0.7733 -0.3542
 8086TIP3    H224200   7.657   2.854   3.626  0.4244 -1.2155 -0.1673
 8087TIP3   OH224201   4.826   6.190   3.492 -0.2032 -0.1634 -0.2785
 8087TIP3    H124202   4.767   6.210   3.420  0.6541  0.6404 -0.7820
 8087TIP3    H224203   4.822   6.267   3.549  1.6930  0.7174 -1.2493
 8088TIP3   OH224204   2.428   0.188   3.052 -0.4493 -0.4249 -0.0465
 8088TIP3    H124205   2.336   0.195   3.026 -0.6136  0.3775  0.6792
 8088TIP3    H224206   2.444   0.268   3.103  0.7107 -0.4542 -0.3395
 8089TIP3   OH224207   5.089   5.247   0.832  0.5386 -0.4826  0.3789
 8089TIP3    H124208   5.105   5.318   0.769 -1.2440 -0.9129 -0.6128
 8089TIP3    H224209   5.166   5.191   0.824  1.4051  0.6780  0.2760
 8090TIP3   OH224210   7.898   3.696   5.331 -0.2796  0.1337 -0.3402
 8090TIP3    H124211   7.991   3.711   5.315  0.0839 -0.9682  0.6654
 8090TIP3    H224212   7.890   3.601   5.343 -1.4968  0.2412 -0.1491
 8091TIP3   OH224213   4.081   1.707   5.487  0.0778 -0.5350 -0.0313
 8091TIP3    H124214   4.148   1.642   5.510 -1.5528 -2.3512 -0.1181
 8091TIP3    H224215   4.115   1.749   5.408 -0.1826 -3.6724 -2.0154
 8092TIP3   OH224216   2.309   4.415   0.292 -0.0713  0.4742  0.0260
 8092TIP3    H124217   2.304   4.343   0.355 -0.0321  1.1659  0.8528
 8092TIP3    H224218   2.306   4.373   0.207  1.8614 -0.6704  0.4504
 8093TIP3   OH224219   4.921   6.800   1.245 -0.7121 -0.5332 -0.3999
 8093TIP3    H124220   4.888   6.814   1.157 -1.2703 -0.1204 -0.1316
 8093TIP3    H224221   4.972   6.719   1.239  0.6612  0.3647 -1.4608
 8094TIP3   OH224222   0.407   2.045   6.324 -0.0609  0.0535 -0.2246
 8094TIP3    H124223   0.312   2.053   6.334 -0.0070 -0.4024  0.7702
 8094TIP3    H224224   0.420   1.959   6.284  0.0178 -0.9021  1.7415
 8095TIP3   OH224225   1.030   2.323   2.545 -0.6731 -0.1691  0.6192
 8095TIP3    H124226   1.121   2.351   2.537 -0.6987 -0.3104 -0.2894
 8095TIP3    H224227   1.013   2.322   2.639  0.7804 -1.7570  0.9229
 8096TIP3   OH224228   0.320   6.020   5.744 -0.1679  0.2698  0.0329
 8096TIP3    H124229   0.408   6.014   5.779 -0.2233  0.8174  0.2895
 8096TIP3    H224230   0.302   6.115   5.741 -1.3613  0.1311  1.5675
 8097TIP3   OH224231   7.948   1.165   6.012 -0.2583  0.5225  0.1171
 8097TIP3    H124232   7.902   1.104   6.070 -0.4176 -0.5765 -1.1090
 8097TIP3    H224233   8.011   1.209   6.068 -0.9433  0.0544  1.2767
 8098TIP3   OH224234   3.550   4.640   2.972  0.0917  0.2880 -0.2468
 8098TIP3    H124235   3.642   4.665   2.962  0.3828 -1.1499 -1.5412
 8098TIP3    H224236   3.514   4.703   3.034  2.4734 -0.3719  1.9610
 8099TIP3   OH224237   7.396   4.583   2.659 -0.2154 -0.5790  0.1706
 8099TIP3    H124238   7.388   4.518   2.589  0.5402  1.9051 -2.3639
 8099TIP3    H224239   7.385   4.532   2.739  1.5005 -4.0458 -1.5783
 8100TIP3   OH224240   2.679   6.508   4.805 -0.0597  0.1387 -0.2265
 8100TIP3    H124241   2.722   6.594   4.811 -1.3786  0.8019  0.2038
 8100TIP3    H224242   2.724   6.454   4.869  2.7633 -0.4437 -2.5020
 8101TIP3   OH224243   6.960   6.382   2.951  0.0849  0.1321 -0.3872
 8101TIP3    H124244   6.888   6.405   3.010  0.4630  1.2491 -0.3245
 8101TIP3    H224245   7.023   6.337   3.007 -0.4318 -0.6075 -0.3851
 8102TIP3   OH224246   5.530   5.149   5.669  0.1861  0.4612 -0.0502
 8102TIP3    H124247   5.554   5.060   5.696 -1.0506  0.4044  0.9775
 8102TIP3    H224248   5.509   5.193   5.751  0.4325  1.6022 -0.5904
 8103TIP3   OH224249   6.480   0.047   1.087  0.4703 -0.5961 -0.0372
 8103TIP3    H124250   6.404   0.061   1.030  1.3836 -1.6603 -1.5911
 8103TIP3    H224251   6.442   0.027   1.173 -0.9550  2.5430  0.2288
 8104TIP3   OH224252   3.802   1.454   3.250 -0.2574 -0.1529  0.0906
 8104TIP3    H124253   3.872   1.518   3.236 -0.5108  0.0002 -0.5119
 8104TIP3    H224254   3.817   1.421   3.339  1.2381 -0.9371 -0.4287
 8105TIP3   OH224255   6.762   2.916   3.403  0.2658 -0.0347  0.2671
 8105TIP3    H124256   6.721   2.904   3.489  0.1546 -0.1631  0.1976
 8105TIP3    H224257   6.690   2.903   3.341 -0.2829  2.5939  0.2054
 8106TIP3   OH224258   8.231   5.689   4.523 -0.3852 -0.1226 -0.6462
 8106TIP3    H124259   8.225   5.618   4.459 -0.6138 -1.0549  0.3703
 8106TIP3    H224260   8.305   5.664   4.579 -0.7421  0.2142 -0.0137
 8107TIP3   OH224261   3.301   3.075   2.208  0.6122 -0.5191  0.6624
 8107TIP3    H124262   3.262   3.032   2.132  1.7365 -1.4935  0.6135
 8107TIP3    H224263   3.323   3.003   2.267  0.5438  0.1685  1.5413
 8108TIP3   OH224264   1.460   0.184   0.936  0.0848  0.1871 -0.1385
 8108TIP3    H124265   1.454   0.163   1.029  0.1186  0.7095 -0.0149
 8108TIP3    H224266   1.488   0.276   0.934 -0.5483  0.3767 -0.6583
 8109TIP3   OH224267   1.456   0.501   4.534 -0.4073 -0.2981  0.5510
 8109TIP3    H124268   1.459   0.568   4.603  1.6266  0.9715 -0.6672
 8109TIP3    H224269   1.412   0.544   4.461  2.6576  0.5452 -0.9422
 8110TIP3   OH224270   2.100   2.716   4.511  0.0642 -0.2641 -0.2864
 8110TIP3    H124271   2.028   2.771   4.543  0.8793  1.5382 -1.3766
 8110TIP3    H224272   2.102   2.733   4.416  1.8257 -0.3678 -0.2975
 8111TIP3   OH224273   0.377   5.545   3.675  0.6428 -0.3512  0.3572
 8111TIP3    H124274   0.375   5.483   3.748 -1.6938 -0.7237  0.0628
 8111TIP3    H224275   0.315   5.613   3.701  0.3711 -0.0926 -0.9188
 8112TIP3   OH224276   1.504   1.726   0.218 -0.7107  0.1826  0.2750
 8112TIP3    H124277   1.447   1.725   0.141  0.4430 -1.0752 -0.6036
 8112TIP3    H224278   1.539   1.816   0.221 -1.7268  0.5935  0.0798
 8113TIP3   OH224279   1.004   5.260   4.893 -0.0088 -0.1225  0.1417
 8113TIP3    H124280   1.019   5.199   4.966  0.7686  0.0406  0.1357
 8113TIP3    H224281   0.955   5.333   4.931 -0.5037 -0.5176  0.2637
 8114TIP3   OH224282   4.813   0.199   2.425 -0.1213 -0.7005 -0.1585
 8114TIP3    H124283   4.906   0.200   2.448  0.4674 -3.0330 -2.0101
 8114TIP3    H224284   4.811   0.171   2.334 -2.6433  0.2553 -0.4842
 8115TIP3   OH224285   7.275   1.618   0.158  0.6806 -0.2599  0.1754
 8115TIP3    H124286   7.359   1.636   0.201  0.3820  0.5878  0.4270
 8115TIP3    H224287   7.220   1.694   0.180 -0.2879 -1.0005  0.3568
 8116TIP3   OH224288   2.801   1.699   6.374  0.1848  0.6178 -0.4267
 8116TIP3    H124289   2.787   1.725   6.283 -1.0507  0.4262 -0.3145
 8116TIP3    H224290   2.735   1.749   6.423  0.6069  0.4536  0.3200
 8117TIP3   OH224291   1.117   5.412   2.151  0.1898 -0.2084  0.2855
 8117TIP3    H124292   1.083   5.501   2.146 -1.0656 -0.6325  0.6299
 8117TIP3    H224293   1.058   5.362   2.095  2.9137 -0.3073 -2.7861
 8118TIP3   OH224294   8.267   0.105   1.329 -0.0710  0.1605  0.0940
 8118TIP3    H124295   8.277   0.028   1.274 -0.2683  0.1755  0.0375
 8118TIP3    H224296   8.335   0.096   1.396  0.8597  0.6543 -0.7431
 8119TIP3   OH224297   0.102   5.894   1.114  0.6377  0.3150  0.8125
 8119TIP3    H124298   0.066   5.877   1.201  0.6939  1.0151  0.9803
 8119TIP3    H224299   0.026   5.893   1.056  0.7092 -1.1072  0.7086
 8120TIP3   OH224300   7.722   4.092   5.997  0.3559  0.3409 -0.1764
 8120TIP3    H124301   7.718   4.130   6.085  1.4993 -0.8812  0.4422
 8120TIP3    H224302   7.783   4.019   6.005  0.4046  0.1298 -1.9761
 8121TIP3   OH224303   7.043   3.495   3.816  0.1713  0.1469 -0.3441
 8121TIP3    H124304   7.012   3.404   3.822  0.8689 -0.1783 -1.2872
 8121TIP3    H224305   6.998   3.530   3.739 -0.8638  0.9402  0.5922
 8122TIP3   OH224306   4.646   7.366   3.134 -0.0441 -0.1987 -0.0361
 8122TIP3    H124307   4.608   7.279   3.122  0.8112 -0.9505  2.2138
 8122TIP3    H224308   4.577   7.426   3.105 -1.8049 -1.5872  1.0466
 8123TIP3   OH224309   7.762   7.051   5.261  0.2548 -0.2784 -0.0471
 8123TIP3    H124310   7.681   7.001   5.255  0.6514 -0.9733  0.2954
 8123TIP3    H224311   7.827   6.998   5.215  0.7414 -0.2228  0.5565
 8124TIP3   OH224312   6.863   3.381   0.834 -0.0177 -0.3437 -0.5055
 8124TIP3    H124313   6.858   3.474   0.814 -0.3384 -0.0708  0.7500
 8124TIP3    H224314   6.887   3.377   0.927 -0.0529 -1.5034 -0.5257
 8125TIP3   OH224315   1.622   2.680   5.354  0.0123 -0.2287  0.0175
 8125TIP3    H124316   1.643   2.742   5.425 -0.4455 -0.4438  0.3428
 8125TIP3    H224317   1.631   2.732   5.274  0.7736 -0.0432  0.2072
 8126TIP3   OH224318   6.534   0.915   0.320  0.2703 -0.2016  0.1257
 8126TIP3    H124319   6.486   0.867   0.252  1.0119 -1.2140  0.2839
 8126TIP3    H224320   6.560   0.847   0.383  0.6561  0.5412  0.7846
 8127TIP3   OH224321   0.202   7.418   0.507 -0.4718  0.2459 -0.2368
 8127TIP3    H124322   0.286   7.462   0.506  0.0347 -0.6987 -0.3831
 8127TIP3    H224323   0.216   7.338   0.457 -1.4225  0.0097 -0.1560
 8128TIP3   OH224324   4.809   5.128   0.313 -0.2624 -0.0865 -0.3515
 8128TIP3    H124325   4.817   5.221   0.295 -0.1018 -0.2549 -1.2336
 8128TIP3    H224326   4.879   5.109   0.375  0.1322  0.2598 -0.6810
 8129TIP3   OH224327   0.126   6.275   4.418 -0.3016 -0.1984  0.6755
 8129TIP3    H124328   0.181   6.287   4.495 -2.5263  0.9017  2.1907
 8129TIP3    H224329   0.070   6.353   4.415 -1.4255 -0.9939 -1.0973
 8130TIP3   OH224330   0.624   6.325   2.417  0.1096 -0.0793  0.1801
 8130TIP3    H124331   0.696   6.341   2.356  0.5744 -1.3482  0.3648
 8130TIP3    H224332   0.571   6.257   2.375 -0.2151 -0.1368  0.6677
 8131TIP3   OH224333   8.330   2.414   4.924  0.2020  0.6881 -0.1075
 8131TIP3    H124334   8.245   2.414   4.878  0.7346 -0.9232 -1.2047
 8131TIP3    H224335   8.311   2.373   5.008 -0.4751  2.1862  0.4985
 8132TIP3   OH224336   2.789   3.580   4.996 -0.2397  0.5188  0.5145
 8132TIP3    H124337   2.833   3.500   4.967 -1.0989  0.0752  0.4018
 8132TIP3    H224338   2.819   3.647   4.936 -1.2668 -0.1890 -0.8371
 8133TIP3   OH224339   8.137   2.795   3.257 -0.2187  0.4667  0.1770
 8133TIP3    H124340   8.133   2.876   3.205 -0.0708  0.6666  0.4728
 8133TIP3    H224341   8.066   2.804   3.321 -0.9892 -0.1898 -0.5678
 8134TIP3   OH224342   7.169   2.061   3.801 -0.7876  0.0557 -0.5358
 8134TIP3    H124343   7.203   2.039   3.715 -0.7406 -0.7449 -0.3181
 8134TIP3    H224344   7.247   2.070   3.856 -0.7728  1.3126 -0.7366
 8135TIP3   OH224345   3.708   5.126   5.500  0.1667  0.0100  0.2540
 8135TIP3    H124346   3.761   5.184   5.556  1.4438 -0.8146 -0.0716
 8135TIP3    H224347   3.629   5.111   5.551  0.4870  0.7827  1.0249
 8136TIP3   OH224348   5.829   1.747   6.127  0.0177  0.1465 -0.0991
 8136TIP3    H124349   5.858   1.685   6.060 -0.6783 -1.3621  0.9482
 8136TIP3    H224350   5.894   1.739   6.197 -0.9351 -0.6184  0.7274
 8137TIP3   OH224351   5.258   0.268  -0.003  0.0614 -0.0602  0.0508
 8137TIP3    H124352   5.290   0.329  -0.069 -0.2388  0.9811  0.8220
 8137TIP3    H224353   5.282   0.309   0.080 -0.5916 -0.7556  0.5936
 8138TIP3   OH224354   3.123   4.076   5.529  0.2919  0.1123 -0.1770
 8138TIP3    H124355   3.051   4.130   5.562  0.2843  1.0251 -1.5876
 8138TIP3    H224356   3.202   4.126   5.549  0.2364  1.1373 -2.2142
 8139TIP3   OH224357   0.217   0.358   1.156 -0.2468 -0.1545 -0.6358
 8139TIP3    H124358   0.261   0.315   1.083  0.9184 -0.2027  0.0628
 8139TIP3    H224359   0.270   0.436   1.173 -0.2297 -0.3750  0.4276
 8140TIP3   OH224360   7.792   1.975   6.309 -0.8361 -0.3732  0.1285
 8140TIP3    H124361   7.706   1.983   6.351 -0.5137 -0.3299  0.7859
 8140TIP3    H224362   7.808   2.061   6.271 -2.0857 -0.9951 -1.9862
 8141TIP3   OH224363   5.799   1.582   0.307  0.3794 -0.1782  0.3278
 8141TIP3    H124364   5.799   1.675   0.333  1.8502 -0.3450  1.0489
 8141TIP3    H224365   5.892   1.561   0.297  0.0169 -1.2610 -1.0499
 8142TIP3   OH224366   2.372   4.467   5.393  0.1933  0.0598  0.1980
 8142TIP3    H124367   2.311   4.539   5.410  0.0441  0.1652 -0.7022
 8142TIP3    H224368   2.317   4.393   5.370  0.3833 -0.0216 -0.0003
 8143TIP3   OH224369   4.997   7.126   4.439 -0.1009 -0.5282  0.2112
 8143TIP3    H124370   5.046   7.134   4.521 -0.0130  0.3572  0.0809
 8143TIP3    H224371   5.011   7.034   4.412  1.8838 -0.2117 -0.0475
 8144TIP3   OH224372   2.236   4.676   0.644  0.6909  0.4908  0.3135
 8144TIP3    H124373   2.270   4.632   0.566 -1.7179  1.3627 -1.3382
 8144TIP3    H224374   2.151   4.635   0.660  0.2367  1.7161  1.2352
 8145TIP3   OH224375   3.326   7.930   6.044 -0.0899 -0.2956  0.0988
 8145TIP3    H124376   3.341   7.894   6.132  0.1847 -0.3326  0.0385
 8145TIP3    H224377   3.331   7.854   5.987 -2.4426 -0.6263  0.2595
 8146TIP3   OH224378   4.871   6.345   5.331 -0.0633  0.1552  0.4093
 8146TIP3    H124379   4.951   6.307   5.367  1.3550  1.3193 -1.3224
 8146TIP3    H224380   4.849   6.417   5.391  2.3221  2.1486 -0.9241
 8147TIP3   OH224381   1.297   0.141   2.565  0.1519  0.0488  0.5901
 8147TIP3    H124382   1.346   0.186   2.496  1.6397  1.5026  2.4702
 8147TIP3    H224383   1.211   0.123   2.526  1.6469 -1.3593 -2.3875
 8148TIP3   OH224384   5.547   5.208   4.941 -0.1701 -0.6300 -0.0951
 8148TIP3    H124385   5.463   5.243   4.910  0.0366  0.6406  0.7011
 8148TIP3    H224386   5.524   5.124   4.981 -1.6489  1.0345  2.8808
 8149TIP3   OH224387   0.831   7.710   0.168 -0.1958 -0.5760 -0.1308
 8149TIP3    H124388   0.772   7.643   0.132 -2.4465  0.6577  1.0017
 8149TIP3    H224389   0.919   7.678   0.148 -1.1886 -3.1734 -0.8123
 8150TIP3   OH224390   3.823   5.814   3.961  0.1929  0.2329  0.0458
 8150TIP3    H124391   3.773   5.759   3.901 -1.5324  1.7094  0.0264
 8150TIP3    H224392   3.869   5.753   4.018  0.6872 -1.2023 -1.8012
 8151TIP3   OH224393   0.349   6.280   5.716  0.0120 -0.6978 -0.8684
 8151TIP3    H124394   0.288   6.325   5.658 -1.9705 -1.1797  0.7672
 8151TIP3    H224395   0.331   6.315   5.803  0.4556 -2.4906  0.0020
 8152TIP3   OH224396   4.525   0.878   6.486 -0.0403 -0.0576  0.2972
 8152TIP3    H124397   4.562   0.906   6.402  0.3626 -0.4418  0.3392
 8152TIP3    H224398   4.568   0.933   6.551 -0.7943  0.6486  0.2032
 8153TIP3   OH224399   0.825   7.704   4.218 -0.6465 -0.7460 -0.3279
 8153TIP3    H124400   0.878   7.752   4.154  0.9544 -1.4930  0.3968
 8153TIP3    H224401   0.868   7.619   4.226 -0.7423 -0.6325  1.8434
 8154TIP3   OH224402   0.661   3.855   6.384 -0.3541  0.0129 -0.2080
 8154TIP3    H124403   0.696   3.832   6.470 -2.4110 -1.4993  0.3049
 8154TIP3    H224404   0.582   3.904   6.403 -1.5583 -1.4658 -1.1726
 8155TIP3   OH224405   2.943   7.485   3.588  0.4703 -0.7116  0.1666
 8155TIP3    H124406   2.981   7.495   3.675 -0.9745 -1.1884  0.8943
 8155TIP3    H224407   3.018   7.473   3.530  1.4382 -1.0376  1.4351
 8156TIP3   OH224408   6.194   1.883   2.650 -0.2888 -0.4855 -0.0202
 8156TIP3    H124409   6.212   1.792   2.625  0.3887 -0.5209  0.5469
 8156TIP3    H224410   6.184   1.929   2.567  0.1836 -0.9262 -0.3312
 8157TIP3   OH224411   0.609   6.594   0.559 -0.2524  0.2547 -0.0499
 8157TIP3    H124412   0.687   6.639   0.592  1.6567 -1.2550 -2.2693
 8157TIP3    H224413   0.596   6.630   0.472 -2.1977  0.5715  0.3293
 8158TIP3   OH224414   1.786   6.718   1.903 -0.0891 -0.3726  0.1390
 8158TIP3    H124415   1.795   6.733   1.809  0.4305 -0.4632  0.1717
 8158TIP3    H224416   1.787   6.806   1.941  0.6462 -0.3678  0.1335
 8159TIP3   OH224417   7.601   7.650   1.688  0.1681 -0.1416 -0.3844
 8159TIP3    H124418   7.551   7.611   1.759  0.6859 -0.0363  0.0413
 8159TIP3    H224419   7.653   7.719   1.729 -1.0750  1.3374 -1.1934
 8160TIP3   OH224420   6.986   1.248   0.689 -0.2146 -0.0050  0.3497
 8160TIP3    H124421   6.943   1.171   0.652 -0.3907 -1.0657  2.5816
 8160TIP3    H224422   6.925   1.281   0.755 -0.2231  2.2120 -0.6583
 8161TIP3   OH224423   4.391   7.470   4.313  0.5551 -0.3001 -0.2110
 8161TIP3    H124424   4.486   7.478   4.321  0.5165  0.3839 -0.3661
 8161TIP3    H224425   4.377   7.415   4.236  0.8249 -0.4643 -0.1433
 8162TIP3   OH224426   3.941   1.823   4.720 -0.6022 -0.6303 -0.1655
 8162TIP3    H124427   3.861   1.874   4.730 -1.9132 -2.4383 -0.8103
 8162TIP3    H224428   3.922   1.763   4.648  1.9279 -0.0865 -1.3746
 8163TIP3   OH224429   3.604   7.828   6.462  0.0013  0.4982 -0.4336
 8163TIP3    H124430   3.569   7.739   6.455 -0.8156  0.8770 -1.3055
 8163TIP3    H224431   3.533   7.885   6.433  1.3376  1.2858 -2.3455
 8164TIP3   OH224432   2.317   6.532   3.179 -0.3152  0.5201  0.1297
 8164TIP3    H124433   2.287   6.510   3.267 -0.6365 -0.5022 -0.2139
 8164TIP3    H224434   2.398   6.482   3.169 -1.3991 -1.1317 -0.9088
 8165TIP3   OH224435   0.592   5.557   4.687 -0.4528  0.1686  0.1822
 8165TIP3    H124436   0.565   5.471   4.655  0.1667  0.1423 -0.3184
 8165TIP3    H224437   0.674   5.539   4.734 -1.0838  0.2888  1.3337
 8166TIP3   OH224438   4.459   5.796   3.495  0.0051  0.5615  0.3816
 8166TIP3    H124439   4.449   5.877   3.445 -0.8132  0.3306  0.1558
 8166TIP3    H224440   4.377   5.787   3.543  0.3863  0.2545  0.9953
 8167TIP3   OH224441   0.762   5.827   4.900  0.2061  0.2591  0.2992
 8167TIP3    H124442   0.792   5.738   4.879 -0.1113 -0.2349  1.8237
 8167TIP3    H224443   0.703   5.816   4.974 -1.2750  1.5724 -0.6220
 8168TIP3   OH224444   5.752   5.253   5.135 -0.4381 -0.2308 -0.3695
 8168TIP3    H124445   5.668   5.218   5.105 -0.5815 -0.8660  0.7202
 8168TIP3    H224446   5.762   5.335   5.088 -1.7419 -0.0873 -0.4232
 8169TIP3   OH224447   1.156   5.690   4.425 -0.4845  0.1030 -0.4342
 8169TIP3    H124448   1.106   5.735   4.356 -1.1140  0.3215  0.1484
 8169TIP3    H224449   1.137   5.740   4.504  0.6179  0.1468 -0.1798
 8170TIP3   OH224450   3.571   2.509   5.318  0.1039  0.3580  0.0309
 8170TIP3    H124451   3.507   2.580   5.324  0.4853  0.7550 -0.5418
 8170TIP3    H224452   3.526   2.433   5.356  0.2823  1.2897  2.3060
 8171TIP3   OH224453   6.022   6.209   2.327  0.3613  0.0836  0.6053
 8171TIP3    H124454   5.927   6.214   2.312  0.2207 -2.4320  0.1721
 8171TIP3    H224455   6.030   6.198   2.422  0.0537 -1.2662  0.5061
 8172TIP3   OH224456   2.619   2.892   0.789  0.4786 -0.3635 -0.2224
 8172TIP3    H124457   2.697   2.936   0.824  0.1430 -0.8508  1.1802
 8172TIP3    H224458   2.604   2.935   0.705  2.3584 -0.3591 -0.6195
 8173TIP3   OH224459   7.788   1.468   3.663 -0.4848 -0.1181  0.4379
 8173TIP3    H124460   7.815   1.467   3.571 -1.6975 -0.0589  0.0648
 8173TIP3    H224461   7.867   1.445   3.711  0.2672  0.2397 -0.5911
 8174TIP3   OH224462   3.106   7.813   4.600 -0.7323  0.0583  0.1167
 8174TIP3    H124463   3.043   7.764   4.654 -2.7260  0.4776 -1.6792
 8174TIP3    H224464   3.083   7.789   4.510  2.2935 -0.4118 -0.6329
 8175TIP3   OH224465   2.249   7.804   5.800  0.3966  0.2302 -0.0298
 8175TIP3    H124466   2.236   7.729   5.858  0.3442  1.2698  1.3317
 8175TIP3    H224467   2.215   7.774   5.715 -1.6098 -0.5672  0.9982
 8176TIP3   OH224468   6.415   5.938   6.349  0.1028  0.1589  0.2123
 8176TIP3    H124469   6.499   5.961   6.310  0.3242 -0.1818  0.4771
 8176TIP3    H224470   6.426   5.957   6.442  1.1160 -3.1079  0.8800
 8177TIP3   OH224471   1.728   1.438   5.864 -0.0178  0.4463  0.6011
 8177TIP3    H124472   1.815   1.404   5.885  0.4096  0.6325 -0.7516
 8177TIP3    H224473   1.743   1.530   5.844 -0.5910  0.5723  0.7421
 8178TIP3   OH224474   5.684   3.167   0.202  0.7958  0.0757  0.4035
 8178TIP3    H124475   5.598   3.137   0.171  1.3924 -0.3761 -0.9115
 8178TIP3    H224476   5.712   3.099   0.263  1.1313 -0.9163 -0.8122
 8179TIP3   OH224477   4.314   4.953   0.658  0.2187  0.8873  0.1006
 8179TIP3    H124478   4.268   5.013   0.599 -1.3725  0.0487  0.4293
 8179TIP3    H224479   4.378   4.909   0.602  0.1235  1.5410 -0.5488
 8180TIP3   OH224480   7.429   3.826   4.622 -0.2356  0.9414  0.4372
 8180TIP3    H124481   7.469   3.891   4.564  0.4117 -1.4534 -1.9912
 8180TIP3    H224482   7.343   3.809   4.583 -0.2128  0.0060  0.7638
 8181TIP3   OH224483   5.263   5.868   1.608 -0.3657  0.2099 -0.1636
 8181TIP3    H124484   5.238   5.785   1.567 -0.1364 -0.8612  1.7193
 8181TIP3    H224485   5.180   5.910   1.629 -0.5829 -0.8923  1.3702
 8182TIP3   OH224486   0.910   0.942   1.512  0.3085  0.2213  0.7176
 8182TIP3    H124487   0.984   0.934   1.573 -0.5267  1.2787  1.9231
 8182TIP3    H224488   0.838   0.899   1.557  0.1357 -0.6894 -0.4008
 8183TIP3   OH224489   3.957   6.258   3.865 -0.1694  0.3185 -0.4308
 8183TIP3    H124490   4.000   6.195   3.807 -0.3055  0.4156 -0.6389
 8183TIP3    H224491   3.873   6.217   3.886 -0.0669  0.2249 -0.1959
 8184TIP3   OH224492   7.232   7.666   5.991  0.3856 -0.1340  0.0678
 8184TIP3    H124493   7.145   7.629   6.005  1.2915 -1.3170  4.0226
 8184TIP3    H224494   7.274   7.606   5.928 -1.3880  0.0929 -1.3872
 8185TIP3   OH224495   1.878   2.854   4.547 -0.6186  0.1073 -0.2598
 8185TIP3    H124496   1.896   2.927   4.607 -1.2406  0.5182 -0.5610
 8185TIP3    H224497   1.806   2.886   4.492 -0.9032 -0.7373 -0.3896
 8186TIP3   OH224498   2.306   6.273   5.223 -0.5851 -0.1597  0.3118
 8186TIP3    H124499   2.299   6.220   5.302 -1.0564 -3.5422 -1.8092
 8186TIP3    H224500   2.400   6.283   5.208 -0.4906 -0.1992  0.8724
 8187TIP3   OH224501   7.599   7.150   3.057 -0.0309  0.5183  0.3291
 8187TIP3    H124502   7.597   7.116   2.968 -0.0863  0.1165  0.4852
 8187TIP3    H224503   7.509   7.145   3.087  0.0987  0.0170  0.6472
 8188TIP3   OH224504   5.942   6.848   0.414 -0.2166 -0.0293 -0.2061
 8188TIP3    H124505   5.861   6.869   0.460 -1.9582  0.5651 -3.2764
 8188TIP3    H224506   6.001   6.921   0.433 -1.6637  1.2934 -0.6444
 8189TIP3   OH224507   1.472   1.328   5.919 -0.2310  0.4438  0.0994
 8189TIP3    H124508   1.559   1.366   5.905 -1.2662  3.0038  0.0721
 8189TIP3    H224509   1.470   1.306   6.012  1.2043 -1.9246 -0.3350
 8190TIP3   OH224510   5.665   1.711   5.198  0.6310  0.3488 -0.1605
 8190TIP3    H124511   5.751   1.737   5.165  1.4512 -0.5909  1.1507
 8190TIP3    H224512   5.683   1.672   5.284 -1.1442  0.4302  0.2803
 8191TIP3   OH224513   6.570   2.231   3.281  0.1723  0.0337  0.0869
 8191TIP3    H124514   6.530   2.145   3.274  1.3743 -0.4543 -1.2028
 8191TIP3    H224515   6.638   2.222   3.348 -0.8196  0.4637  1.1878
 8192TIP3   OH224516   1.973   3.615   3.661  0.2742 -0.4692  0.3366
 8192TIP3    H124517   2.035   3.616   3.587 -0.8526 -2.2470 -0.6772
 8192TIP3    H224518   1.913   3.544   3.642 -1.1807  0.2095  2.0847
 8193TIP3   OH224519   7.410   2.183   1.295 -0.1278 -0.5418 -0.2068
 8193TIP3    H124520   7.337   2.189   1.233 -0.7919 -1.7861  0.4159
 8193TIP3    H224521   7.462   2.109   1.264 -0.4085 -1.1128  0.6368
 8194TIP3   OH224522   3.866   2.066   1.509  0.2299  0.3648 -0.5678
 8194TIP3    H124523   3.795   2.001   1.510  0.4200  0.1090  1.9910
 8194TIP3    H224524   3.942   2.018   1.475  0.3252 -0.7507  1.1311
 8195TIP3   OH224525   6.224   7.201   6.764  0.4150  0.2095 -0.1310
 8195TIP3    H124526   6.280   7.124   6.776 -0.4474 -0.2895  0.8590
 8195TIP3    H224527   6.198   7.197   6.672  1.2834 -0.0526 -0.3702
 8196TIP3   OH224528   3.698   2.919   4.209 -0.1904  0.1663 -0.0181
 8196TIP3    H124529   3.774   2.874   4.246  0.7267  1.6223 -0.0425
 8196TIP3    H224530   3.635   2.923   4.281  0.6303  0.8477  0.6930
 8197TIP3   OH224531   4.981   0.293   0.046 -0.1125  0.0950  0.1286
 8197TIP3    H124532   5.075   0.282   0.063 -0.2352 -0.7148  0.2765
 8197TIP3    H224533   4.971   0.270  -0.046 -0.1340  0.4321  0.0430
 8198TIP3   OH224534   2.008   0.048   2.031 -0.5002 -0.1428 -0.5810
 8198TIP3    H124535   1.915   0.061   2.012 -1.2278 -2.0315  1.3117
 8198TIP3    H224536   2.034  -0.023   1.972 -0.7826 -0.8843  0.1660
 8199TIP3   OH224537   6.376   4.852   6.285  0.9501  0.3321 -0.7031
 8199TIP3    H124538   6.434   4.881   6.215  1.0164 -0.3936 -0.9613
 8199TIP3    H224539   6.413   4.768   6.314 -1.2873 -1.4245 -2.5489
 8200TIP3   OH224540   4.270   7.008   2.934 -0.3342 -0.3053  0.0045
 8200TIP3    H124541   4.302   7.016   3.023 -0.0951 -0.4310 -0.0682
 8200TIP3    H224542   4.298   6.921   2.906 -2.4301 -1.2450  0.6113
 8201TIP3   OH224543   4.101   1.161   6.747 -0.3846 -0.2272  0.1063
 8201TIP3    H124544   4.152   1.240   6.731 -0.8763 -0.2719 -1.9506
 8201TIP3    H224545   4.166   1.093   6.765  0.4988 -0.4614 -3.2113
 8202TIP3   OH224546   7.635   6.331   4.317  0.1467 -0.4393  0.3352
 8202TIP3    H124547   7.651   6.245   4.277 -0.5992 -0.7069  0.5940
 8202TIP3    H224548   7.658   6.318   4.410 -0.6442 -0.5670  0.5198
 8203TIP3   OH224549   6.589   2.499   6.396  0.2781 -0.2248 -0.2070
 8203TIP3    H124550   6.567   2.585   6.361 -0.5752 -0.1030  0.5802
 8203TIP3    H224551   6.545   2.496   6.481  1.6102 -0.8102  0.5072
 8204TIP3   OH224552   2.427   0.124   0.994 -0.1495 -0.2964 -0.4240
 8204TIP3    H124553   2.486   0.064   0.947  1.1738  0.1758  0.5553
 8204TIP3    H224554   2.413   0.196   0.932 -2.5293 -1.9707 -1.9814
 8205TIP3   OH224555   6.875   5.953   6.412 -0.3704  0.4979  0.2038
 8205TIP3    H124556   6.881   6.007   6.491  0.2479  0.8736 -0.0896
 8205TIP3    H224557   6.903   5.866   6.440 -2.3730  0.0364  0.9245
 8206TIP3   OH224558   8.162   2.733   2.429 -0.2104 -0.5413  0.1119
 8206TIP3    H124559   8.232   2.668   2.428  1.1039  0.7837  1.0918
 8206TIP3    H224560   8.168   2.776   2.343 -0.2412 -0.8588 -0.0500
 8207TIP3   OH224561   4.321   6.891   0.070 -0.3691  0.3249 -0.2291
 8207TIP3    H124562   4.279   6.817   0.113  2.5212 -1.2011  0.2272
 8207TIP3    H224563   4.305   6.877  -0.023  2.2563 -2.4743 -0.3955
 8208TIP3   OH224564   6.400   1.637   1.796 -0.0894  0.5386  0.2751
 8208TIP3    H124565   6.308   1.664   1.790 -0.1717  0.4362  0.9975
 8208TIP3    H224566   6.400   1.546   1.765 -0.0938  0.7936 -0.4955
 8209TIP3   OH224567   5.095   2.786   6.352 -0.0801 -0.3623  0.1084
 8209TIP3    H124568   5.003   2.788   6.376 -0.1929  0.3860 -0.3559
 8209TIP3    H224569   5.138   2.844   6.416  0.1371 -0.9821  0.5449
 8210TIP3   OH224570   6.122   0.957   6.362 -0.0822  0.1752 -0.0126
 8210TIP3    H124571   6.165   0.903   6.428 -1.5986  1.2080  1.8822
 8210TIP3    H224572   6.094   1.035   6.408 -0.2158  1.4793 -2.1437
 8211TIP3   OH224573   3.946   2.100   4.507  0.2064  0.5384 -0.3683
 8211TIP3    H124574   3.917   2.061   4.590 -1.3315  0.1362 -1.0561
 8211TIP3    H224575   3.877   2.162   4.484 -0.5576 -0.9552 -2.4314
 8212TIP3   OH224576   3.999   7.836   4.561  0.3009 -0.2493 -0.5773
 8212TIP3    H124577   3.974   7.744   4.550 -1.7964  0.1349  0.5117
 8212TIP3    H224578   3.937   7.884   4.506 -1.2552  0.7210  1.8639
 8213TIP3   OH224579   6.393   0.927   4.085 -0.1224 -0.3960 -0.0128
 8213TIP3    H124580   6.433   0.842   4.104  0.0128 -0.3024  0.1269
 8213TIP3    H224581   6.448   0.990   4.132 -1.1398 -0.3766  1.2049
 8214TIP3   OH224582   1.094   5.196   4.624  0.7642 -0.6909 -0.4402
 8214TIP3    H124583   1.187   5.192   4.642  0.5378 -0.3827  0.8797
 8214TIP3    H224584   1.054   5.227   4.706 -0.3445  0.6010 -1.4088
 8215TIP3   OH224585   7.636   2.038   0.192 -0.4053 -0.2388  0.0879
 8215TIP3    H124586   7.664   2.118   0.237  0.5275 -1.0056  0.9309
 8215TIP3    H224587   7.542   2.033   0.209 -0.9858  1.8877 -1.9783
 8216TIP3   OH224588   4.132   0.037   1.052 -0.0512  0.5506 -0.6030
 8216TIP3    H124589   4.121  -0.055   1.076  2.8995  0.4911  0.9751
 8216TIP3    H224590   4.098   0.042   0.963 -0.0123 -2.1339 -0.8710
 8217TIP3   OH224591   7.746   5.951   4.547 -0.7345  0.1990  0.2475
 8217TIP3    H124592   7.698   5.950   4.630 -0.2717  3.2679  0.6610
 8217TIP3    H224593   7.680   5.929   4.482 -1.4750 -0.6798  1.2458
 8218TIP3   OH224594   2.272   0.172   3.775 -0.8077 -0.8125  0.0602
 8218TIP3    H124595   2.261   0.089   3.727 -0.2652 -0.2200 -1.1307
 8218TIP3    H224596   2.191   0.181   3.826 -1.1456 -1.7650 -0.2869
 8219TIP3   OH224597   7.417   7.091   6.376 -0.1751 -0.7611  0.4139
 8219TIP3    H124598   7.508   7.080   6.351 -0.0325  0.1075  0.5551
 8219TIP3    H224599   7.374   7.122   6.297 -0.0937  0.1147  0.7108
 8220TIP3   OH224600   7.800   7.816   5.210 -0.1198  0.1402  0.5205
 8220TIP3    H124601   7.730   7.760   5.246 -1.2861 -0.3146 -2.1835
 8220TIP3    H224602   7.759   7.859   5.135  2.4715 -0.0809 -1.1394
 8221TIP3   OH224603   5.988   1.240   5.885 -0.8347  0.4199  0.2915
 8221TIP3    H124604   5.932   1.174   5.844  0.0352  0.2107 -0.5755
 8221TIP3    H224605   6.040   1.192   5.948 -0.6218  0.3802  0.0844
 8222TIP3   OH224606   2.470   2.441   4.497  0.3770  0.4450 -0.1045
 8222TIP3    H124607   2.459   2.511   4.562 -2.6203  0.4674 -0.4943
 8222TIP3    H224608   2.544   2.469   4.443 -0.0513  2.7697  0.4157
 8223TIP3   OH224609   3.399   6.660   1.422 -0.2019  0.1172 -0.0225
 8223TIP3    H124610   3.354   6.714   1.487  0.4072 -0.8564  1.2486
 8223TIP3    H224611   3.460   6.721   1.379 -0.1395  0.6497  0.7799
 8224TIP3   OH224612   6.230   2.811   3.863 -0.1799  0.6838 -0.0630
 8224TIP3    H124613   6.236   2.755   3.785 -0.2795  1.0299 -0.3245
 8224TIP3    H224614   6.236   2.750   3.937 -1.8050  0.1586 -0.3358
 8225TIP3   OH224615   0.215   3.525   0.152  0.1776 -0.1483  0.0840
 8225TIP3    H124616   0.234   3.473   0.074 -0.8995  0.3284 -0.5179
 8225TIP3    H224617   0.286   3.589   0.157 -0.1577  0.3310 -0.9775
 8226TIP3   OH224618   7.849   1.111   5.588 -0.3978  0.4669  0.4282
 8226TIP3    H124619   7.757   1.134   5.574 -0.5251 -0.0944  0.3034
 8226TIP3    H224620   7.875   1.161   5.666 -0.7390  0.8055  0.3283
 8227TIP3   OH224621   1.207   3.752   3.010  0.4808 -0.2408  0.2044
 8227TIP3    H124622   1.228   3.667   2.973 -0.0031 -0.4233  0.3449
 8227TIP3    H224623   1.286   3.804   2.997  0.8356 -0.7603  0.2669
 8228TIP3   OH224624   1.092   0.075   0.595 -0.3213 -0.0850  0.2526
 8228TIP3    H124625   1.135   0.028   0.523  0.8098  1.4567 -0.1460
 8228TIP3    H224626   1.141   0.049   0.673 -0.7050 -0.7433  0.2842
 8229TIP3   OH224627   1.618   2.998   0.042 -0.1810  0.0295 -0.2240
 8229TIP3    H124628   1.692   2.956  -0.002 -0.9615  0.9159 -2.5018
 8229TIP3    H224629   1.547   2.935   0.033 -0.2114 -0.0054  0.2550
 8230TIP3   OH224630   8.017   7.116   3.374  0.0926 -0.4179  0.0753
 8230TIP3    H124631   8.025   7.118   3.469 -0.0212  1.1274  0.0759
 8230TIP3    H224632   7.934   7.160   3.356  0.5889  0.2049 -0.7734
 8231TIP3   OH224633   0.657   7.082   0.715  0.2278 -0.1273  0.3001
 8231TIP3    H124634   0.751   7.067   0.711  0.1247 -0.5407 -0.8498
 8231TIP3    H224635   0.629   7.038   0.795  1.0922  0.5245  0.9810
 8232TIP3   OH224636   2.488   0.552   1.068 -0.6249  0.3058 -0.3436
 8232TIP3    H124637   2.542   0.479   1.038 -0.5229  1.7128 -4.0104
 8232TIP3    H224638   2.535   0.631   1.041 -2.4542  1.6828  0.2491
 8233TIP3   OH224639   4.725   4.718   3.842 -0.4502 -0.0295  0.1287
 8233TIP3    H124640   4.719   4.699   3.935  1.5887 -0.9674  0.1010
 8233TIP3    H224641   4.801   4.670   3.811 -0.0566  1.6000 -1.6867
 8234TIP3   OH224642   4.557   2.791   6.180  0.0547 -0.2474  0.3255
 8234TIP3    H124643   4.518   2.852   6.243  0.3131 -0.5768  0.8124
 8234TIP3    H224644   4.504   2.711   6.188 -0.1889 -0.1406 -0.1988
 8235TIP3   OH224645   3.056   7.180   6.191  0.0693 -0.0411  0.4235
 8235TIP3    H124646   3.087   7.177   6.281  1.0572 -0.2432  0.0842
 8235TIP3    H224647   3.012   7.096   6.177 -0.2863  0.0832  0.7812
 8236TIP3   OH224648   5.348   6.838   1.669  0.1376  0.6154 -0.2717
 8236TIP3    H124649   5.427   6.801   1.628 -0.7673 -1.6093 -0.1655
 8236TIP3    H224650   5.363   6.827   1.763 -0.4775 -0.2553 -0.2671
 8237TIP3   OH224651   8.148   3.856   2.720 -0.5710 -0.7428 -0.2973
 8237TIP3    H124652   8.056   3.866   2.745 -0.8508 -2.4882 -0.4815
 8237TIP3    H224653   8.151   3.882   2.628 -0.4605  1.1642  0.1945
 8238TIP3   OH224654   0.607   6.836   2.766 -0.3090  0.0398  0.6258
 8238TIP3    H124655   0.597   6.782   2.845 -1.1565  0.6095  0.9296
 8238TIP3    H224656   0.552   6.912   2.783 -2.1563 -0.7625 -1.3806
 8239TIP3   OH224657   8.217   4.844   2.670 -0.0141 -0.4108 -0.0379
 8239TIP3    H124658   8.294   4.829   2.615 -0.7572 -1.1996 -0.8861
 8239TIP3    H224659   8.235   4.797   2.751  0.3781 -0.6115 -0.2418
 8240TIP3   OH224660   7.475   0.123   3.372  0.2236 -0.1529  0.4291
 8240TIP3    H124661   7.394   0.109   3.421 -0.1417 -0.3544 -0.2297
 8240TIP3    H224662   7.543   0.127   3.439 -0.3411  0.1008  0.9944
 8241TIP3   OH224663   6.772   2.595   4.840 -0.3175  0.1674 -0.3998
 8241TIP3    H124664   6.846   2.553   4.797  0.1993 -0.4392  0.9928
 8241TIP3    H224665   6.701   2.531   4.833  0.3611 -0.8699  1.3843
 8242TIP3   OH224666   7.687   5.122   6.132 -0.1721 -0.2087 -0.1529
 8242TIP3    H124667   7.710   5.086   6.218  0.3798  0.1554 -0.1459
 8242TIP3    H224668   7.680   5.045   6.075 -0.6333 -0.4602  0.2347
 8243TIP3   OH224669   6.248   0.605   4.864  0.0650  0.1871  0.6545
 8243TIP3    H124670   6.329   0.555   4.847 -0.6720 -1.1972  1.0693
 8243TIP3    H224671   6.211   0.621   4.777 -0.2844 -1.0334  0.5652
 8244TIP3   OH224672   4.262   6.447   0.359 -0.2525  0.3473  0.7068
 8244TIP3    H124673   4.183   6.392   0.362  0.8086 -1.3439 -0.6614
 8244TIP3    H224674   4.284   6.462   0.451 -0.8871 -1.1041  1.1245
 8245TIP3   OH224675   7.488   4.122   5.080  0.1044 -0.6700  0.1328
 8245TIP3    H124676   7.512   4.098   5.169  1.1816  3.0370  1.0170
 8245TIP3    H224677   7.569   4.112   5.030  0.3678  0.3762  0.3421
 8246TIP3   OH224678   5.133   2.599   2.708  0.0144 -0.0799  0.0330
 8246TIP3    H124679   5.056   2.559   2.748 -0.1624 -0.4210 -0.6269
 8246TIP3    H224680   5.127   2.574   2.615  0.7162  0.2073 -0.0944
 8247TIP3   OH224681   2.899   7.087   5.509  0.6709  0.1798  0.0528
 8247TIP3    H124682   2.816   7.041   5.521  0.5867  0.6236  1.3679
 8247TIP3    H224683   2.960   7.019   5.482 -0.0749 -0.1823 -0.7702
 8248TIP3   OH224684   1.620   4.539   0.176 -0.4290  0.3984 -0.2048
 8248TIP3    H124685   1.710   4.571   0.168 -1.0002  1.9647 -0.6906
 8248TIP3    H224686   1.583   4.590   0.248 -0.4172 -1.6010  1.3440
 8249TIP3   OH224687   5.806   6.162   5.544  0.2838  0.1690  0.2283
 8249TIP3    H124688   5.859   6.198   5.472  0.0362 -0.6389 -0.3792
 8249TIP3    H224689   5.716   6.187   5.522 -0.0156 -1.5788 -0.7249
 8250TIP3   OH224690   8.313   5.291   5.126  0.0852  0.3181 -0.2745
 8250TIP3    H124691   8.254   5.227   5.085 -0.2632  0.0410  0.6360
 8250TIP3    H224692   8.381   5.306   5.061  0.6001 -1.5767 -0.2106
 8251TIP3   OH224693   5.790   5.951   4.660  0.0016  0.2376 -0.0732
 8251TIP3    H124694   5.884   5.936   4.652 -0.1872 -1.4208  0.5853
 8251TIP3    H224695   5.775   5.963   4.754 -0.6707 -1.2066  0.0221
 8252TIP3   OH224696   0.467   6.209   5.473  0.5465 -0.0265  0.2890
 8252TIP3    H124697   0.429   6.189   5.558 -1.2586  0.6369 -0.3004
 8252TIP3    H224698   0.520   6.133   5.451 -1.0992 -1.3767  0.8336
 8253TIP3   OH224699   7.460   2.888   1.516  0.4524  0.1946 -0.0846
 8253TIP3    H124700   7.550   2.861   1.529 -0.5367 -3.1946  0.5835
 8253TIP3    H224701   7.465   2.983   1.501  4.1698 -0.0377 -1.1804
 8254TIP3   OH224702   0.470   0.557   5.797  0.3608 -0.4513  0.1777
 8254TIP3    H124703   0.544   0.611   5.825 -0.8644  1.1737  0.4649
 8254TIP3    H224704   0.458   0.581   5.705 -0.1153 -0.3295  0.2720
 8255TIP3   OH224705   3.926   1.251   3.795  0.8908 -0.2916  0.8464
 8255TIP3    H124706   3.848   1.307   3.794  2.2332  1.7013 -1.0832
 8255TIP3    H224707   3.929   1.212   3.708  2.8668  0.9750  0.2857
 8256TIP3   OH224708   4.954   6.591   4.768  0.2681 -0.2204  0.1434
 8256TIP3    H124709   5.030   6.641   4.741  0.8152 -0.8984  0.3889
 8256TIP3    H224710   4.987   6.530   4.833 -0.1237 -1.7012 -0.9771
 8257TIP3   OH224711   3.734   5.358   6.708  0.1372 -0.0070 -0.5005
 8257TIP3    H124712   3.757   5.438   6.756 -1.0497  0.1873 -0.2223
 8257TIP3    H224713   3.647   5.375   6.672  0.0673 -0.9980 -0.8404
 8258TIP3   OH224714   7.120   4.421   4.439 -0.2029  0.0346  0.2676
 8258TIP3    H124715   7.057   4.361   4.478 -0.2470  0.4404  0.8301
 8258TIP3    H224716   7.120   4.400   4.346 -0.8653 -0.2419  0.3328
 8259TIP3   OH224717   6.840   5.287   6.297 -0.1831  0.0806  0.2576
 8259TIP3    H124718   6.927   5.254   6.321 -1.4652 -1.0448  4.3359
 8259TIP3    H224719   6.810   5.228   6.228  1.6408 -0.5532 -0.0453
 8260TIP3   OH224720   5.231   7.867   4.414  0.3088 -0.3868 -0.0762
 8260TIP3    H124721   5.166   7.805   4.381  0.3409 -0.3571 -0.1953
 8260TIP3    H224722   5.313   7.819   4.413  0.1781 -0.6442  0.7115
 8261TIP3   OH224723   0.614   1.574   6.314 -0.1748 -0.1745  0.3451
 8261TIP3    H124724   0.670   1.616   6.380  1.3948  0.5355 -1.3330
 8261TIP3    H224725   0.626   1.480   6.328  0.6705 -0.0284  0.6504
 8262TIP3   OH224726   7.189   2.503   5.790  0.5765 -0.4843  0.0558
 8262TIP3    H124727   7.105   2.525   5.830  0.8404 -0.0257  0.3661
 8262TIP3    H224728   7.179   2.412   5.761  1.1077 -1.6729  3.1928
 8263TIP3   OH224729   5.819   4.371   5.826 -0.7223 -0.1817  0.0337
 8263TIP3    H124730   5.766   4.296   5.799  0.0410 -1.4445  1.8538
 8263TIP3    H224731   5.758   4.427   5.875 -1.4435  0.7517 -1.8550
 8264TIP3   OH224732   3.236   7.343   5.177  0.1358  0.3531 -0.1474
 8264TIP3    H124733   3.293   7.266   5.182 -0.0876  0.2612  1.2119
 8264TIP3    H224734   3.259   7.395   5.254 -2.4698 -0.3145  1.1969
 8265TIP3   OH224735   6.317   1.285   2.907 -0.3982 -0.0998  0.1584
 8265TIP3    H124736   6.226   1.257   2.918 -0.6819  0.5480 -0.4293
 8265TIP3    H224737   6.329   1.352   2.974 -0.9173  1.0667 -0.8684
 8266TIP3   OH224738   2.003   7.052   3.457  0.2101  0.1428 -0.4624
 8266TIP3    H124739   2.058   7.120   3.496 -0.5977  0.0289  0.9416
 8266TIP3    H224740   2.043   7.034   3.372  0.8605  1.8443 -0.5451
 8267TIP3   OH224741   7.300   2.112   3.123  0.7268 -0.2645 -0.2657
 8267TIP3    H124742   7.341   2.042   3.072  2.1245 -0.1298  0.6260
 8267TIP3    H224743   7.369   2.178   3.132 -0.0848  0.5381  0.2236
 8268TIP3   OH224744   5.954   5.510   6.544  0.4125 -0.1182 -0.1438
 8268TIP3    H124745   5.890   5.496   6.474  0.7291 -0.7743 -0.3108
 8268TIP3    H224746   6.028   5.553   6.502  0.2149  0.3452 -0.0175
 8269TIP3   OH224747   2.045   3.339   5.490 -0.6327  0.3493  0.2584
 8269TIP3    H124748   2.130   3.315   5.525 -1.3275 -1.8032  0.5839
 8269TIP3    H224749   1.990   3.262   5.504 -2.2230  1.1209 -1.3390
 8270TIP3   OH224750   1.952   5.695   1.397 -0.1525 -0.4130 -0.3343
 8270TIP3    H124751   1.933   5.789   1.389  0.0597 -0.2281  0.9864
 8270TIP3    H224752   2.030   5.682   1.343  2.2082  1.0369  2.4477
 8271TIP3   OH224753   0.424   7.448   3.353  0.0942  0.2156  0.3555
 8271TIP3    H124754   0.385   7.390   3.419 -1.0652  0.8903  0.2944
 8271TIP3    H224755   0.359   7.451   3.282  0.2517  1.3522  0.2434
 8272TIP3   OH224756   7.399   0.448   6.606  0.3820 -0.4343 -0.3872
 8272TIP3    H124757   7.438   0.442   6.518 -2.0256 -3.1478 -1.4476
 8272TIP3    H224758   7.442   0.380   6.656 -0.0573 -0.6480 -0.2937
 8273TIP3   OH224759   5.387   2.151   0.844 -0.0450 -0.4172 -0.7739
 8273TIP3    H124760   5.304   2.114   0.814  0.2023 -0.9838 -0.7637
 8273TIP3    H224761   5.411   2.099   0.920 -0.5934  0.9268  0.3683
 8274TIP3   OH224762   6.609   5.216   2.550 -0.1649  0.2709 -0.1286
 8274TIP3    H124763   6.564   5.260   2.478  1.5974 -0.0666 -1.5004
 8274TIP3    H224764   6.680   5.167   2.509  1.3563  0.6141  1.8708
 8275TIP3   OH224765   5.371   4.494   2.712  0.0753 -0.2696 -0.0553
 8275TIP3    H124766   5.392   4.435   2.639  2.0065  0.2811 -0.0199
 8275TIP3    H224767   5.447   4.489   2.769 -1.0050  0.0423  1.4567
 8276TIP3   OH224768   5.064   3.141   4.620 -0.1647  0.0710  0.8729
 8276TIP3    H124769   4.999   3.204   4.653 -1.6260 -1.0250  0.2003
 8276TIP3    H224770   5.073   3.162   4.527 -2.9730 -2.4490 -0.1578
 8277TIP3   OH224771   4.259   4.597   0.657 -0.0075 -0.4691  0.1256
 8277TIP3    H124772   4.289   4.653   0.585  2.1564 -0.5663  0.8902
 8277TIP3    H224773   4.269   4.652   0.735 -0.9163 -0.8687  0.5343
 8278TIP3   OH224774   0.504   4.030   3.314  0.2128  0.1316  0.3751
 8278TIP3    H124775   0.540   4.013   3.227  0.2795  1.7211  0.0586
 8278TIP3    H224776   0.561   3.982   3.374  0.2219 -0.8940 -0.4452
 8279TIP3   OH224777   5.916   6.820   0.124 -0.0688  0.6709 -0.2680
 8279TIP3    H124778   5.831   6.778   0.116 -0.0639  0.1971  1.7700
 8279TIP3    H224779   5.919   6.853   0.214  1.8598  0.7555 -0.3199
 8280TIP3   OH224780   1.754   5.359   5.906  0.2533  0.6340 -0.5328
 8280TIP3    H124781   1.760   5.368   6.001  0.6959  0.1036 -0.5090
 8280TIP3    H224782   1.829   5.304   5.882  1.2653  2.3273 -1.4089
 8281TIP3   OH224783   6.873   6.517   1.377  0.8641  0.1630 -0.9247
 8281TIP3    H124784   6.863   6.602   1.420 -1.3250  0.0530 -1.0912
 8281TIP3    H224785   6.881   6.455   1.449  1.7126  0.4220 -0.7873
 8282TIP3   OH224786   4.461   1.196   1.131  0.2517  0.4607  0.5196
 8282TIP3    H124787   4.468   1.136   1.205 -0.4212  2.2980  2.1631
 8282TIP3    H224788   4.545   1.242   1.129  1.1785 -1.1802 -1.4014
 8283TIP3   OH224789   8.154   0.628   3.241  0.0237  0.4955  0.1998
 8283TIP3    H124790   8.131   0.721   3.242  0.2576  0.5691 -0.4085
 8283TIP3    H224791   8.246   0.626   3.268  0.0593  0.4601  0.0796
 8284TIP3   OH224792   2.224   4.084   2.195  0.1375 -0.2712 -0.5606
 8284TIP3    H124793   2.131   4.086   2.219  0.2653  2.9547  0.0493
 8284TIP3    H224794   2.256   4.002   2.232 -1.6017  0.4331  2.9362
 8285TIP3   OH224795   1.263   2.411   1.641 -0.4272 -0.3669  0.0125
 8285TIP3    H124796   1.319   2.347   1.684 -0.1668 -0.0728  0.1088
 8285TIP3    H224797   1.181   2.363   1.624 -0.2685 -0.6955  0.1684
 8286TIP3   OH224798   2.625   5.882   6.657  0.3567  0.2637 -0.0181
 8286TIP3    H124799   2.639   5.976   6.670  0.1358  0.1404  1.2928
 8286TIP3    H224800   2.602   5.850   6.744  1.8543 -1.2692 -0.1465
 8287TIP3   OH224801   3.366   2.624   1.001  1.0771 -0.4448  0.1926
 8287TIP3    H124802   3.303   2.566   1.042  1.0971 -2.1609 -2.0279
 8287TIP3    H224803   3.315   2.702   0.978  0.0156 -1.3175 -0.5068
 8288TIP3   OH224804   6.458   1.496   5.333 -0.2293  0.1028 -0.1588
 8288TIP3    H124805   6.410   1.579   5.336  0.5381  0.5465  0.3243
 8288TIP3    H224806   6.496   1.488   5.420  3.0662  1.3024 -1.3408
 8289TIP3   OH224807   6.721   0.329   6.246 -0.1206 -0.4409 -0.0654
 8289TIP3    H124808   6.715   0.425   6.241  0.7553 -0.3992 -0.4659
 8289TIP3    H224809   6.690   0.308   6.334 -2.4760  0.0105 -0.7091
 8290TIP3   OH224810   2.713   4.501   2.916 -0.3458  0.2099  0.0186
 8290TIP3    H124811   2.624   4.491   2.947 -0.6668  1.2017 -0.5310
 8290TIP3    H224812   2.744   4.412   2.901 -0.1371 -0.3549  3.1887
 8291TIP3   OH224813   5.135   4.688   0.877 -0.1489 -0.1235  0.3933
 8291TIP3    H124814   5.050   4.644   0.887 -0.3008  0.1355  0.2578
 8291TIP3    H224815   5.131   4.728   0.790  0.5606 -1.0664 -0.0858
 8292TIP3   OH224816   6.064   5.421   6.163  0.5303 -0.2143 -0.2924
 8292TIP3    H124817   6.143   5.371   6.142 -0.2794 -1.7233  0.1085
 8292TIP3    H224818   5.999   5.355   6.186 -0.2104  1.0952  1.6066
 8293TIP3   OH224819   5.208   5.284   6.559  0.5949  0.5155 -0.2000
 8293TIP3    H124820   5.298   5.291   6.590  1.4759 -1.4872 -2.0681
 8293TIP3    H224821   5.205   5.338   6.481  0.0948  0.7361 -0.0340
 8294TIP3   OH224822   4.654   1.921   3.084 -0.2022  0.1254  0.2228
 8294TIP3    H124823   4.661   1.999   3.140 -3.1177  1.4132 -0.9927
 8294TIP3    H224824   4.635   1.850   3.146 -0.2999  0.9096  1.1306
 8295TIP3   OH224825   7.121   3.984   4.752 -0.0644 -0.2685  0.0807
 8295TIP3    H124826   7.092   3.894   4.764 -0.8315  0.2290  2.4734
 8295TIP3    H224827   7.174   4.002   4.830  2.7026  0.4165 -1.8182
 8296TIP3   OH224828   2.346   2.763   3.396  0.3613 -0.1446 -0.0765
 8296TIP3    H124829   2.396   2.764   3.314  0.4328  0.8120 -0.0325
 8296TIP3    H224830   2.369   2.679   3.437  1.4596 -0.0042 -0.3561
 8297TIP3   OH224831   8.278   2.025   4.860  0.3127  0.4365  0.0050
 8297TIP3    H124832   8.362   2.023   4.906  0.1999  0.2990  0.2054
 8297TIP3    H224833   8.219   2.071   4.919  0.2564  0.5737 -0.1558
 8298TIP3   OH224834   3.517   0.191   5.978 -0.1397 -0.1963 -0.7242
 8298TIP3    H124835   3.437   0.236   6.004  0.6057  1.1366 -0.6611
 8298TIP3    H224836   3.583   0.260   5.974  1.4016 -1.4800  0.7917
 8299TIP3   OH224837   1.361   7.571   1.792 -0.0965  0.3521 -0.3749
 8299TIP3    H124838   1.395   7.489   1.827 -1.6183  0.4879  1.6341
 8299TIP3    H224839   1.380   7.636   1.861  0.3551  1.5143 -1.5586
 8300TIP3   OH224840   5.769   6.382   6.751  0.2228  0.1882 -0.4274
 8300TIP3    H124841   5.807   6.302   6.789 -0.4822 -0.3853 -0.8955
 8300TIP3    H224842   5.677   6.378   6.777  0.2884  1.1188 -0.0317
 8301TIP3   OH224843   4.516   2.265   4.791 -0.3922 -0.3049  0.3583
 8301TIP3    H124844   4.578   2.213   4.742 -0.2770 -0.2047  0.3973
 8301TIP3    H224845   4.539   2.356   4.771 -1.2548 -0.2674 -0.5402
 8302TIP3   OH224846   4.060   2.252   2.214  0.9323 -0.4671 -0.2322
 8302TIP3    H124847   4.053   2.333   2.263 -0.1410 -1.3641  1.1636
 8302TIP3    H224848   4.005   2.190   2.262  0.9331 -1.7565 -1.8117
 8303TIP3   OH224849   4.623   1.776   2.447 -0.2263  0.4603 -0.0604
 8303TIP3    H124850   4.693   1.831   2.411 -0.2637 -0.9364 -2.5066
 8303TIP3    H224851   4.603   1.815   2.532  1.5846  2.5674 -0.5059
 8304TIP3   OH224852   3.398   2.442   5.705 -0.6210  0.1961 -0.0783
 8304TIP3    H124853   3.355   2.457   5.790  0.6968 -1.3354  0.9250
 8304TIP3    H224854   3.354   2.366   5.668 -0.9553  0.6445 -0.6146
 8305TIP3   OH224855   0.202   4.416   4.830  0.0838  0.5372 -0.1093
 8305TIP3    H124856   0.288   4.399   4.870 -0.1458 -1.0698 -0.2526
 8305TIP3    H224857   0.207   4.374   4.744 -1.2173 -0.5785  0.3298
 8306TIP3   OH224858   6.190   2.582   6.569 -0.2439  0.0051 -0.0732
 8306TIP3    H124859   6.196   2.615   6.479  0.2895 -0.1471 -0.0915
 8306TIP3    H224860   6.252   2.510   6.573 -1.5595 -1.1628 -0.0911
 8307TIP3   OH224861   6.901   3.202   6.568 -0.3079 -0.2068  0.3185
 8307TIP3    H124862   6.806   3.206   6.559 -0.2615  1.2472  0.3128
 8307TIP3    H224863   6.918   3.229   6.659  0.1940  1.5532 -0.2633
 8308TIP3   OH224864   1.623   5.305   6.608  0.3895 -0.3678  0.0462
 8308TIP3    H124865   1.555   5.320   6.542  1.3101  1.2761 -0.5830
 8308TIP3    H224866   1.613   5.378   6.669 -0.4859 -1.8918  1.8137
 8309TIP3   OH224867   7.294   7.582   3.655 -0.6061  0.6166  0.3486
 8309TIP3    H124868   7.292   7.568   3.749  0.1373 -0.3930  0.2382
 8309TIP3    H224869   7.243   7.510   3.619  1.2622 -0.5431 -0.1281
 8310TIP3   OH224870   5.759   7.691   5.147 -0.5328  0.3915 -0.6580
 8310TIP3    H124871   5.756   7.602   5.112  0.8320 -0.4088  1.1237
 8310TIP3    H224872   5.693   7.692   5.217 -0.2706  0.6467 -0.4072
 8311TIP3   OH224873   4.510   3.728   4.327 -0.6757  0.1382  0.6033
 8311TIP3    H124874   4.466   3.802   4.284 -0.9777 -0.5553 -0.3196
 8311TIP3    H224875   4.439   3.680   4.370 -0.9082 -1.0723 -1.0211
 8312TIP3   OH224876   4.663   3.125   2.477  0.3124  0.5581  0.4118
 8312TIP3    H124877   4.657   3.213   2.514 -3.4818  0.5646  0.1145
 8312TIP3    H224878   4.646   3.137   2.383  1.5582 -0.3700  0.0357
 8313TIP3   OH224879   5.247   5.835   2.353 -0.5644 -0.4103 -0.4939
 8313TIP3    H124880   5.194   5.839   2.432 -0.4821  0.4339 -0.4751
 8313TIP3    H224881   5.257   5.926   2.326 -0.0583 -0.6448 -1.1213
 8314TIP3   OH224882   7.122   6.632   1.876  0.0213 -0.0199  0.5598
 8314TIP3    H124883   7.163   6.651   1.960  0.7773 -1.7462  0.6357
 8314TIP3    H224884   7.075   6.550   1.891  0.6600 -0.6784 -0.8370
 8315TIP3   OH224885   5.879   1.904   3.629  0.1912 -0.0373 -0.3093
 8315TIP3    H124886   5.837   1.981   3.591 -0.5062 -1.0607 -1.7242
 8315TIP3    H224887   5.971   1.912   3.605  0.7862  1.8708  2.2132
 8316TIP3   OH224888   7.352   5.760   3.719  0.2090  0.4118 -0.1084
 8316TIP3    H124889   7.446   5.742   3.710  0.2923 -0.8118  2.2705
 8316TIP3    H224890   7.336   5.752   3.813 -2.0026  2.1593 -0.2686
 8317TIP3   OH224891   4.621   2.327   0.360  0.1063  0.1699  0.3229
 8317TIP3    H124892   4.562   2.255   0.338  1.2396 -0.5686 -0.4057
 8317TIP3    H224893   4.689   2.322   0.294  0.4281  1.6639  0.5226
 8318TIP3   OH224894   2.807   0.574   4.517  0.1770  0.0088  0.0803
 8318TIP3    H124895   2.752   0.518   4.462 -1.2788 -0.0422  1.5232
 8318TIP3    H224896   2.825   0.522   4.595  0.6921  0.7340  0.4590
 8319TIP3   OH224897   7.449   5.035   2.965 -0.0691  0.0496 -0.4078
 8319TIP3    H124898   7.419   5.089   3.038 -3.6657 -3.3077  0.9492
 8319TIP3    H224899   7.512   4.975   3.005 -0.5376 -0.5156 -0.5149
 8320TIP3   OH224900   4.936   0.231   4.588 -0.3858 -0.4932 -0.4824
 8320TIP3    H124901   4.892   0.264   4.667  1.1318  0.3468  0.0605
 8320TIP3    H224902   5.008   0.293   4.573 -0.1453 -1.1040 -2.0663
 8321TIP3   OH224903   5.398   4.086   1.509 -0.4585 -0.1401  0.5131
 8321TIP3    H124904   5.368   4.051   1.593 -0.3398 -2.6286 -0.3979
 8321TIP3    H224905   5.469   4.146   1.532 -0.8611 -0.2527  2.2064
 8322TIP3   OH224906   2.672   4.450   2.126  0.2057  0.3455  0.0575
 8322TIP3    H124907   2.622   4.380   2.169  1.1414  0.0604  0.7247
 8322TIP3    H224908   2.761   4.414   2.119  0.1762  0.5449 -1.7866
 8323TIP3   OH224909   1.157   0.305   1.762 -0.1009  0.4324  0.4076
 8323TIP3    H124910   1.174   0.369   1.692 -0.5124  0.6988  0.5512
 8323TIP3    H224911   1.096   0.349   1.821  0.6874  0.4264  1.2508
 8324TIP3   OH224912   2.191   7.381   6.316  0.6304  0.7624 -0.0673
 8324TIP3    H124913   2.178   7.314   6.248 -1.8889 -1.0537  1.9735
 8324TIP3    H224914   2.139   7.456   6.286  0.3344  0.3517 -0.6032
 8325TIP3   OH224915   5.290   0.337   3.170 -0.1130  0.4245  0.5973
 8325TIP3    H124916   5.344   0.412   3.147 -0.9528  1.0612  0.6858
 8325TIP3    H224917   5.295   0.279   3.094 -0.3067  1.0511  0.0999
 8326TIP3   OH224918   0.744   2.750   2.831  0.0869  0.3741 -0.3388
 8326TIP3    H124919   0.735   2.656   2.846  2.9742 -0.1968 -1.3761
 8326TIP3    H224920   0.678   2.771   2.765  0.6094 -1.3898 -1.4956
 8327TIP3   OH224921   1.314   7.453   5.464 -0.5752 -0.3911  0.6536
 8327TIP3    H124922   1.305   7.469   5.370 -1.9369 -0.3969  0.7641
 8327TIP3    H224923   1.312   7.541   5.503  0.2598 -0.3702  0.6774
 8328TIP3   OH224924   0.111   7.470   3.680 -0.0060  0.2504 -0.0134
 8328TIP3    H124925   0.170   7.541   3.705 -0.8160  0.7559  0.5140
 8328TIP3    H224926   0.124   7.403   3.748  0.2845  0.1729 -0.1465
 8329TIP3   OH224927   7.110   5.215   3.602  0.3324 -0.6001  0.5123
 8329TIP3    H124928   7.181   5.168   3.646  1.7882 -0.0793 -1.1085
 8329TIP3    H224929   7.142   5.305   3.595 -1.2120  0.0299  1.1506
 8330TIP3   OH224930   2.339   1.549   6.709  0.0436 -0.2414  0.1875
 8330TIP3    H124931   2.312   1.499   6.786 -0.1661 -0.3899  0.0199
 8330TIP3    H224932   2.378   1.629   6.744  1.1855 -0.9062  0.4816
 8331TIP3   OH224933   6.881   3.747   0.268 -0.4015  0.2160  0.3398
 8331TIP3    H124934   6.848   3.834   0.291  0.0665  0.1995  1.1266
 8331TIP3    H224935   6.872   3.742   0.173 -1.1019  0.8447  0.3615
 8332TIP3   OH224936   2.404   3.251   3.540  0.4244  0.0607  0.4938
 8332TIP3    H124937   2.468   3.200   3.589 -0.4124 -0.2162  1.3428
 8332TIP3    H224938   2.434   3.342   3.549  2.0643 -0.2560 -1.2474
 8333TIP3   OH224939   0.188   6.089   6.640  0.3739 -0.6970  0.8319
 8333TIP3    H124940   0.126   6.106   6.569  1.8613  2.6814  0.1001
 8333TIP3    H224941   0.152   6.014   6.687 -1.7658 -1.7877 -2.2312
 8334TIP3   OH224942   0.394   2.181   4.812  0.0716  0.0455  0.1387
 8334TIP3    H124943   0.435   2.262   4.785 -0.9403 -0.1140 -2.0726
 8334TIP3    H224944   0.324   2.208   4.871  0.7839  0.6178  0.7390
 8335TIP3   OH224945   4.756   2.292   5.342  0.3392 -0.5273  0.5946
 8335TIP3    H124946   4.671   2.336   5.353  1.4654  1.4605  1.9246
 8335TIP3    H224947   4.749   2.212   5.395 -0.2735  0.2899  1.7845
 8336TIP3   OH224948   6.678   5.705   3.580 -0.0030 -0.0216  0.0249
 8336TIP3    H124949   6.643   5.708   3.491  0.4813  1.6130 -0.1328
 8336TIP3    H224950   6.602   5.722   3.636  0.0331  0.8893 -0.1866
 8337TIP3   OH224951   4.978   4.969   0.858  0.0862  0.0962  0.1952
 8337TIP3    H124952   4.944   5.054   0.885  0.7203  0.4269 -0.0186
 8337TIP3    H224953   5.059   4.990   0.811  0.3488 -0.6363  0.3141
 8338TIP3   OH224954   6.598   1.316   1.592  0.2153 -0.2404 -0.6041
 8338TIP3    H124955   6.560   1.354   1.513 -1.5509 -1.6141 -0.4774
 8338TIP3    H224956   6.530   1.324   1.659  1.8154  1.2740  0.9663
 8339TIP3   OH224957   0.005   4.119   6.836 -0.3813 -0.2331  0.2602
 8339TIP3    H124958   0.028   4.201   6.793  0.6541 -0.7725 -0.2606
 8339TIP3    H224959  -0.008   4.057   6.764 -0.2805 -0.7456  0.6761
 8340TIP3   OH224960   1.825   7.562   2.741  0.3752 -0.7235  0.2414
 8340TIP3    H124961   1.744   7.513   2.726 -0.9664  1.3124  0.3112
 8340TIP3    H224962   1.814   7.641   2.687  1.7906  0.1478  1.1819
 8341TIP3   OH224963   4.867   1.103   4.312  0.0116 -0.0542  0.3217
 8341TIP3    H124964   4.924   1.120   4.387  0.2709 -0.5579  0.2422
 8341TIP3    H224965   4.901   1.158   4.243  0.4573 -0.4170  0.2502
 8342TIP3   OH224966   1.561   6.100   0.055 -0.7197  0.2825 -0.1628
 8342TIP3    H124967   1.487   6.056   0.096 -0.9268  1.3814  0.7109
 8342TIP3    H224968   1.638   6.061   0.096 -0.9011  0.7583  0.6639
 8343TIP3   OH224969   1.068   4.117   3.653  0.2906 -0.2528 -0.2273
 8343TIP3    H124970   1.124   4.141   3.579 -0.4509  0.6748 -0.5041
 8343TIP3    H224971   1.080   4.022   3.662  2.2002 -0.0327 -0.0124
 8344TIP3   OH224972   0.700   4.182   5.338 -0.0062  0.0681 -0.0152
 8344TIP3    H124973   0.748   4.231   5.405  1.0091 -2.2292  1.0356
 8344TIP3    H224974   0.651   4.249   5.290  0.7807  2.0069  1.7423
 8345TIP3   OH224975   6.768   0.005   5.897  0.4925  0.1118 -0.3894
 8345TIP3    H124976   6.720   0.038   5.972 -0.4012 -0.6011 -0.6330
 8345TIP3    H224977   6.808   0.083   5.858  1.8412  0.3664  1.3937
 8346TIP3   OH224978   4.909   0.734   4.444 -0.7140 -0.4022  0.0006
 8346TIP3    H124979   4.869   0.647   4.449 -0.4378 -0.5911 -0.8440
 8346TIP3    H224980   4.860   0.787   4.507 -2.2290 -0.6513 -0.9080
 8347TIP3   OH224981   7.070   2.033   4.584  0.2869  0.5292 -0.0085
 8347TIP3    H124982   7.065   2.123   4.615 -0.2167  0.5786 -0.2230
 8347TIP3    H224983   7.140   2.033   4.519  0.9138  0.5621  0.6572
 8348TIP3   OH224984   6.462   2.711   5.854  0.5595 -0.2879 -0.1790
 8348TIP3    H124985   6.455   2.627   5.809  1.2378 -0.2035 -0.4444
 8348TIP3    H224986   6.512   2.693   5.933 -0.3225 -0.3637  0.3820
 8349TIP3   OH224987   7.287   7.251   5.696 -0.3958  0.4067  0.1218
 8349TIP3    H124988   7.326   7.245   5.783 -1.2516  2.5670  0.7132
 8349TIP3    H224989   7.355   7.217   5.637  1.1943  1.2226  1.3935
 8350TIP3   OH224990   8.190   1.006   6.846 -0.3400  0.3879 -0.3810
 8350TIP3    H124991   8.170   1.098   6.862 -2.1174  0.0280 -0.2880
 8350TIP3    H224992   8.245   1.006   6.768  2.2103  1.6863  1.3011
 8351TIP3   OH224993   3.579   7.750   1.739 -0.3550 -0.3959  0.1122
 8351TIP3    H124994   3.673   7.767   1.733 -0.3137  0.2098  1.8899
 8351TIP3    H224995   3.538   7.829   1.703 -0.2403 -1.0963 -1.6827
 8352TIP3   OH224996   7.425   1.437   1.244  0.0944  0.5559 -0.3175
 8352TIP3    H124997   7.442   1.412   1.335 -0.8774  0.7171 -0.0813
 8352TIP3    H224998   7.405   1.354   1.200 -0.3155  0.5763 -0.1759
 8353TIP3   OH224999   8.270   2.805   5.861 -0.3750  0.0705  0.1344
 8353TIP3    H125000   8.342   2.770   5.913 -0.3229  0.3786  0.2672
 8353TIP3    H225001   8.203   2.829   5.926  0.4137  2.1876  0.2196
 8354TIP3   OH225002   2.141   3.919   5.787  0.0533  0.6271 -0.4648
 8354TIP3    H125003   2.135   3.956   5.875 -2.3369  0.8914 -0.6818
 8354TIP3    H225004   2.147   3.824   5.801  0.3728  0.7105 -0.0140
 8355TIP3   OH225005   0.201   7.197   6.492  0.3965 -0.6522  0.1169
 8355TIP3    H125006   0.276   7.251   6.468  0.3519 -0.6268  0.0305
 8355TIP3    H225007   0.196   7.132   6.423  0.1845 -0.4971 -0.0165
 8356TIP3   OH225008   1.674   2.037   2.708 -0.1012  0.1937 -0.1773
 8356TIP3    H125009   1.698   2.080   2.790 -1.7929  0.5148  0.1790
 8356TIP3    H225010   1.601   2.089   2.674 -1.4722 -1.7248 -0.3068
 8357TIP3   OH225011   8.364   6.525   4.471  0.1010 -0.1722  0.3636
 8357TIP3    H125012   8.443   6.569   4.440 -0.2039 -1.2212 -2.1188
 8357TIP3    H225013   8.304   6.596   4.492  0.3643  0.6513 -1.4783
 8358TIP3   OH225014   8.331   5.249   3.533  0.3786  0.3017 -0.1613
 8358TIP3    H125015   8.357   5.330   3.490  1.2125 -0.3081 -0.8255
 8358TIP3    H225016   8.413   5.210   3.563  0.1215 -0.9179 -0.9627
 8359TIP3   OH225017   1.976   0.573   2.028  0.5707 -0.1065  0.2254
 8359TIP3    H125018   2.034   0.501   2.052  0.2287 -0.1366  0.9749
 8359TIP3    H225019   1.901   0.531   1.987  0.6718 -0.1215  0.0502
 8360TIP3   OH225020   4.373   0.545   6.583  0.0802  0.0096  0.0502
 8360TIP3    H125021   4.467   0.531   6.596  0.1730 -1.6519 -1.9619
 8360TIP3    H225022   4.346   0.475   6.524 -2.5155  0.2671  0.8191
 8361TIP3   OH225023   1.975   6.993   3.053  0.4820  0.2849  0.2449
 8361TIP3    H125024   2.003   6.977   2.963 -0.8723  3.2725 -0.8376
 8361TIP3    H225025   1.893   6.944   3.062  1.2444 -1.0220  0.3295
 8362TIP3   OH225026   4.711   0.596   6.152 -0.4272  0.3733 -0.1631
 8362TIP3    H125027   4.752   0.672   6.111 -0.5537  0.5257 -0.0105
 8362TIP3    H225028   4.693   0.624   6.242 -0.9496  0.3429 -0.2515
 8363TIP3   OH225029   3.561   6.936   3.704 -0.1988  0.2383  0.2324
 8363TIP3    H125030   3.475   6.947   3.744 -0.8950  0.1334 -1.1562
 8363TIP3    H225031   3.580   7.022   3.665 -0.4888 -0.2013 -0.9343
 8364TIP3   OH225032   6.808   5.486   6.048 -0.0541  0.5066 -0.1362
 8364TIP3    H125033   6.757   5.415   6.087 -0.9007  0.9199 -0.4751
 8364TIP3    H225034   6.899   5.465   6.072  0.1632 -2.3801 -2.7594
 8365TIP3   OH225035   4.790   7.866   5.258 -0.4852  0.6207  0.1666
 8365TIP3    H125036   4.729   7.931   5.293 -1.1577  0.1738 -0.1520
 8365TIP3    H225037   4.838   7.833   5.334 -0.4901  1.1282  0.3908
 8366TIP3   OH225038   6.967   2.005   5.296 -0.4688 -0.7596 -0.3731
 8366TIP3    H125039   6.924   2.083   5.260 -1.4728  0.2252  2.6675
 8366TIP3    H225040   7.057   2.034   5.313 -0.6780 -0.4524  0.2100
 8367TIP3   OH225041   8.065   1.211   2.259  0.3312  0.4880  0.1185
 8367TIP3    H125042   7.994   1.250   2.208  1.1202  2.6268  0.5455
 8367TIP3    H225043   8.135   1.197   2.196 -0.1307 -0.8081 -0.1355
 8368TIP3   OH225044   4.110   2.355   4.377 -0.2314  0.0319 -0.2956
 8368TIP3    H125045   4.115   2.288   4.445 -0.7600  0.6414  0.3575
 8368TIP3    H225046   4.142   2.311   4.298 -1.5012 -1.3129 -0.1219
 8369TIP3   OH225047   5.558   5.976   0.664 -0.4130 -0.1095  0.1662
 8369TIP3    H125048   5.489   6.009   0.721 -0.1765 -1.6142  1.3995
 8369TIP3    H225049   5.639   6.002   0.707 -0.1877  0.8316 -0.7819
 8370TIP3   OH225050   4.116   5.747   2.347 -0.0072 -0.3139 -0.2237
 8370TIP3    H125051   4.097   5.727   2.438  1.9735 -0.8404  0.1281
 8370TIP3    H225052   4.146   5.837   2.348  1.1630 -0.6822 -0.1265
 8371TIP3   OH225053   0.673   4.283   6.847  0.2510 -0.0671 -0.5315
 8371TIP3    H125054   0.642   4.196   6.872 -0.0238 -0.1101 -1.0087
 8371TIP3    H225055   0.717   4.269   6.762  0.5670  0.1906 -0.4139
 8372TIP3   OH225056   4.635   7.803   4.200 -0.0094  0.0425 -0.3989
 8372TIP3    H125057   4.603   7.713   4.194 -0.2447  0.0106  1.1100
 8372TIP3    H225058   4.560   7.857   4.172 -0.4168 -0.1581  0.3058
 8373TIP3   OH225059   0.261   6.071   0.353  0.0469  0.5358  0.4515
 8373TIP3    H125060   0.346   6.082   0.310 -0.8951 -0.3182 -1.7713
 8373TIP3    H225061   0.282   6.033   0.438  1.8477 -0.8330 -0.5295
 8374TIP3   OH225062   1.270   0.178   5.267  0.6041 -0.1167 -0.4719
 8374TIP3    H125063   1.365   0.167   5.270  0.6498  0.3807  1.5983
 8374TIP3    H225064   1.234   0.091   5.282  0.7767 -0.0548  0.3572
 8375TIP3   OH225065   8.371   4.647   4.538  0.1192  0.4978  0.0726
 8375TIP3    H125066   8.300   4.710   4.530 -1.2248 -0.9507  0.1422
 8375TIP3    H225067   8.342   4.571   4.488  0.2370 -1.2974  2.5429
 8376TIP3   OH225068   4.326   1.228   6.060 -0.0183 -0.1588 -0.1140
 8376TIP3    H125069   4.276   1.236   6.142 -1.6439 -0.1428 -1.0708
 8376TIP3    H225070   4.394   1.296   6.067 -1.4978  1.3493  0.3011
 8377TIP3   OH225071   1.275   4.456   6.377 -0.1581  0.6339 -0.5701
 8377TIP3    H125072   1.338   4.517   6.416 -1.3190  0.8919  1.0112
 8377TIP3    H225073   1.189   4.494   6.398 -0.8871 -0.9713 -0.5226
 8378TIP3   OH225074   4.016   1.687   6.476  0.1109 -0.4605  0.1489
 8378TIP3    H125075   3.964   1.610   6.496  0.6395 -1.2790 -1.4931
 8378TIP3    H225076   3.953   1.759   6.472 -0.7505 -1.2451 -0.7052
 8379TIP3   OH225077   8.173   6.518   6.235  0.0757  0.4600 -0.2023
 8379TIP3    H125078   8.099   6.465   6.264  0.2444  0.4260  0.1660
 8379TIP3    H225079   8.149   6.608   6.258 -0.5498  0.6598 -1.5113
 8380TIP3   OH225080   7.087   1.209   2.724  0.2123 -0.3572  0.1790
 8380TIP3    H125081   7.064   1.121   2.751 -0.4135 -0.2741 -0.0594
 8380TIP3    H225082   7.006   1.244   2.685  0.4463  0.3227  0.2905
 8381TIP3   OH225083   2.644   4.694   0.807 -0.8191 -0.1931 -1.0750
 8381TIP3    H125084   2.668   4.780   0.843  2.9898 -1.5715  0.2724
 8381TIP3    H225085   2.565   4.669   0.854 -0.9491  1.7890 -0.1389
 8382TIP3   OH225086   7.778   6.332   2.630  0.1710  0.3460  0.6684
 8382TIP3    H125087   7.780   6.303   2.538  1.4050  1.7874  0.1983
 8382TIP3    H225088   7.714   6.403   2.630  0.7515  0.8741  0.7412
 8383TIP3   OH225089   6.592   4.035   3.957 -0.6099 -1.0330 -0.4269
 8383TIP3    H125090   6.678   4.004   3.929  0.5437  2.3170 -1.0515
 8383TIP3    H225091   6.530   3.993   3.897  0.4002 -4.0999  0.5077
 8384TIP3   OH225092   0.296   2.311   5.267  0.2670 -0.6458  0.2621
 8384TIP3    H125093   0.283   2.250   5.339  0.8333 -0.4128  0.5754
 8384TIP3    H225094   0.335   2.258   5.197 -1.3964 -1.1381 -0.3439
 8385TIP3   OH225095   2.726   0.472   3.246  0.1719 -0.2617  0.2358
 8385TIP3    H125096   2.799   0.412   3.260 -0.0978 -0.4182  0.9768
 8385TIP3    H225097   2.727   0.488   3.151  0.5477 -1.0448  0.0965
 8386TIP3   OH225098   2.907   1.965   1.225  0.8301  0.3433  0.6703
 8386TIP3    H125099   2.897   1.875   1.254 -0.6626  0.2094 -0.1682
 8386TIP3    H225100   2.907   1.959   1.129 -1.1420  1.3774  0.5619
 8387TIP3   OH225101   0.499   1.076   1.725  0.0068 -0.4408  0.1765
 8387TIP3    H125102   0.468   1.164   1.703  0.8189  0.1177  1.1970
 8387TIP3    H225103   0.420   1.029   1.751 -0.5242 -0.2122 -0.9429
 8388TIP3   OH225104   7.209   3.856   1.433 -0.7672 -0.1792 -0.0403
 8388TIP3    H125105   7.293   3.844   1.477 -1.1461 -0.0405  0.7367
 8388TIP3    H225106   7.148   3.876   1.504 -1.5775 -0.8723 -0.5321
 8389TIP3   OH225107   6.601   3.174   0.153 -0.0944 -0.8359  0.0645
 8389TIP3    H125108   6.531   3.204   0.211 -1.0334 -2.6273 -0.0811
 8389TIP3    H225109   6.560   3.165   0.067  0.8166 -0.0261 -0.4652
 8390TIP3   OH225110   0.665   3.572   2.834 -0.8496 -0.4841 -0.2065
 8390TIP3    H125111   0.625   3.531   2.911  0.5590 -0.9259  0.3076
 8390TIP3    H225112   0.692   3.659   2.864 -3.0709  0.6071 -1.0737
 8391TIP3   OH225113   5.390   3.188   1.046 -0.5539 -0.1984 -0.1149
 8391TIP3    H125114   5.430   3.109   1.008 -2.5136 -0.1022 -2.6321
 8391TIP3    H225115   5.460   3.227   1.098  1.9237 -1.2257 -2.3982
 8392TIP3   OH225116   6.056   4.192   0.392  0.0923  0.3847 -0.4115
 8392TIP3    H125117   6.050   4.244   0.472  2.5319  0.7827 -0.4077
 8392TIP3    H225118   5.980   4.134   0.395  0.4758 -0.0928  2.5573
 8393TIP3   OH225119   1.992   7.107   0.975 -0.4739 -0.4802  0.7123
 8393TIP3    H125120   2.048   7.101   0.898 -2.1630  2.4796 -0.9243
 8393TIP3    H225121   1.906   7.077   0.945 -1.1365  0.6166  1.4294
 8394TIP3   OH225122   2.282   7.483   1.847 -0.1501 -0.2330 -0.6102
 8394TIP3    H125123   2.361   7.430   1.836 -0.0700 -0.0722 -0.8078
 8394TIP3    H225124   2.222   7.452   1.778 -0.2067 -0.2549 -0.5518
 8395TIP3   OH225125   2.591   5.351   4.789  0.1064  0.3757  0.1548
 8395TIP3    H125126   2.650   5.421   4.816  0.7168 -0.4681  1.1131
 8395TIP3    H225127   2.603   5.283   4.855 -2.5780  0.4930  0.8757
 8396TIP3   OH225128   5.020   2.768   1.102 -0.2910  0.0423 -0.0929
 8396TIP3    H125129   4.953   2.825   1.066  0.3842  0.5880 -0.5183
 8396TIP3    H225130   4.972   2.705   1.155 -1.2189 -0.1926 -1.1782
 8397TIP3   OH225131   7.262   6.496   1.284  0.3573  0.1836  0.0955
 8397TIP3    H125132   7.320   6.420   1.273  0.9917  0.7242 -0.3303
 8397TIP3    H225133   7.310   6.554   1.344  0.7839  1.1429 -1.1311
 8398TIP3   OH225134   5.356   6.697   3.010  0.2683 -0.1166  0.3509
 8398TIP3    H125135   5.313   6.780   2.990 -0.1046 -0.9051 -2.6047
 8398TIP3    H225136   5.285   6.634   3.019  0.6227 -0.5976 -0.0998
 8399TIP3   OH225137   0.150   0.509   4.146  0.2392  0.3457  0.1619
 8399TIP3    H125138   0.118   0.432   4.100 -1.8928  0.1736  1.7616
 8399TIP3    H225139   0.228   0.479   4.193  1.1623 -0.0185 -1.5524
 8400TIP3   OH225140   3.335   3.412   1.680 -0.6127  0.0480  0.2076
 8400TIP3    H125141   3.271   3.373   1.740  0.9923 -0.6137  1.5692
 8400TIP3    H225142   3.328   3.359   1.600 -2.2605  0.4757  0.0284
 8401TIP3   OH225143   1.500   1.513   5.658  0.6852  0.5986 -0.0282
 8401TIP3    H125144   1.539   1.523   5.745  1.2146 -1.1226 -0.0358
 8401TIP3    H225145   1.538   1.583   5.606  1.4419  0.7852  0.7649
 8402TIP3   OH225146   4.436   6.547   4.127  0.6874  0.1317 -0.4285
 8402TIP3    H125147   4.362   6.546   4.188  2.2487 -0.2949  1.5722
 8402TIP3    H225148   4.406   6.493   4.054 -0.7146 -0.6953  0.6841
 8403TIP3   OH225149   7.066   2.007   6.234 -0.2589 -0.1637 -0.4771
 8403TIP3    H125150   7.010   1.961   6.171 -1.2833  2.2326 -1.4478
 8403TIP3    H225151   7.061   1.955   6.314 -2.0350 -1.2395 -1.2395
 8404TIP3   OH225152   2.829   7.810   6.215  0.3593 -0.4867 -0.4718
 8404TIP3    H125153   2.859   7.839   6.129  0.7836  0.3685 -0.0498
 8404TIP3    H225154   2.826   7.890   6.268  2.0138 -1.2355  0.8760
 8405TIP3   OH225155   2.668   1.512   1.225  0.0626  0.7023  0.2807
 8405TIP3    H125156   2.724   1.479   1.296  0.1269  1.5772  0.6491
 8405TIP3    H225157   2.587   1.462   1.234  1.0378 -1.1960 -0.7897
 8406TIP3   OH225158   0.865   2.105   0.257 -0.1080  0.1266  0.2026
 8406TIP3    H125159   0.904   2.022   0.231 -1.6035  0.0972 -2.1992
 8406TIP3    H225160   0.890   2.116   0.349 -0.3779 -3.2791  0.8000
 8407TIP3   OH225161   3.730   6.579   2.885 -0.0294 -0.2095 -0.2301
 8407TIP3    H125162   3.721   6.674   2.878  1.7758 -0.0003 -0.2272
 8407TIP3    H225163   3.712   6.546   2.797 -0.3749  0.1594 -0.2965
 8408TIP3   OH225164   5.026   3.701   6.332  0.2362  0.0032 -0.8263
 8408TIP3    H125165   5.088   3.771   6.312  0.1519 -0.0287 -1.1943
 8408TIP3    H225166   4.951   3.746   6.369  0.7110 -0.0053  0.1883
 8409TIP3   OH225167   0.549   0.262   0.157 -0.2054 -0.0365 -0.4151
 8409TIP3    H125168   0.562   0.321   0.082  0.7583 -0.1589 -0.3445
 8409TIP3    H225169   0.547   0.174   0.118 -2.0753  0.0287 -0.5773
 8410TIP3   OH225170   4.107   5.465   4.578 -0.3487  0.0744 -0.1028
 8410TIP3    H125171   4.044   5.409   4.624 -0.2314 -1.0795 -1.3118
 8410TIP3    H225172   4.113   5.429   4.490  1.3683  0.6833 -0.2764
 8411TIP3   OH225173   2.925   7.066   1.825  0.2838  0.0628  0.4331
 8411TIP3    H125174   2.991   7.004   1.855 -1.0214 -1.0649  1.1140
 8411TIP3    H225175   2.933   7.066   1.729  0.1077 -1.4274  0.3944
 8412TIP3   OH225176   1.067   6.678   2.059 -0.1769 -0.8290  0.2846
 8412TIP3    H125177   1.127   6.660   2.130  0.1961 -1.9482 -0.2955
 8412TIP3    H225178   1.076   6.772   2.043  1.4818 -0.9925  0.1426
 8413TIP3   OH225179   3.349   7.058   1.263 -0.5420 -0.0721 -0.3335
 8413TIP3    H125180   3.265   7.101   1.281 -0.8207 -0.5641 -0.4532
 8413TIP3    H225181   3.398   7.122   1.212 -0.5541  0.5174  0.3622
 8414TIP3   OH225182   2.872   3.606   6.029 -0.3612  0.0949  0.4712
 8414TIP3    H125183   2.808   3.651   5.974 -0.1273  0.0495  0.1560
 8414TIP3    H225184   2.840   3.517   6.036 -0.3987  0.1038  0.4137
 8415TIP3   OH225185   0.692   4.638   1.488  0.2572 -0.1105 -0.0072
 8415TIP3    H125186   0.766   4.685   1.449  0.3317 -0.5425 -0.3926
 8415TIP3    H225187   0.732   4.579   1.551  0.3914 -1.4734 -1.3271
 8416TIP3   OH225188   7.926   4.365   4.871 -0.1240  0.4416 -0.7798
 8416TIP3    H125189   7.888   4.432   4.928 -2.7731 -1.1079 -0.5653
 8416TIP3    H225190   7.969   4.304   4.931 -3.8683 -1.8127 -0.0153
 8417TIP3   OH225191   4.495   4.393   6.514  0.3773  0.3227  0.2460
 8417TIP3    H125192   4.496   4.385   6.419 -1.2779  0.4492  0.1832
 8417TIP3    H225193   4.454   4.478   6.531  0.9664  0.4599  1.0798
 8418TIP3   OH225194   1.180   6.532   0.199  0.2664 -0.1306  0.2565
 8418TIP3    H125195   1.262   6.507   0.157 -0.2739 -0.3884 -0.6676
 8418TIP3    H225196   1.112   6.495   0.143 -0.4792 -0.9404  1.6547
 8419TIP3   OH225197   1.723   4.961   2.577  0.0454  0.4297 -0.4018
 8419TIP3    H125198   1.807   4.988   2.613 -0.1917  0.6463 -0.0040
 8419TIP3    H225199   1.704   5.026   2.509  0.7430 -0.2836 -1.2941
 8420TIP3   OH225200   2.137   0.229   2.983  0.3864 -0.4322  0.3950
 8420TIP3    H125201   2.044   0.209   2.970  0.7087 -1.0136 -1.2459
 8420TIP3    H225202   2.144   0.323   2.966  0.2158 -0.5419 -0.3279
 8421TIP3   OH225203   5.988   0.772   6.242  0.0129  0.0916 -0.9539
 8421TIP3    H125204   6.060   0.816   6.287  0.7846 -1.5580 -0.4983
 8421TIP3    H225205   6.015   0.769   6.150  1.1917 -1.6400 -0.6051
 8422TIP3   OH225206   7.848   6.318   1.538 -0.1521  0.1997  0.3428
 8422TIP3    H125207   7.927   6.320   1.484 -0.9973 -0.6392 -1.0078
 8422TIP3    H225208   7.879   6.326   1.628  1.3870  0.7209 -0.2119
 8423TIP3   OH225209   1.055   6.541   5.056  0.1954  0.3569  0.1299
 8423TIP3    H125210   1.145   6.506   5.056  0.5985  1.3637  0.3366
 8423TIP3    H225211   1.066   6.635   5.040 -0.8338  0.4683  0.0481
 8424TIP3   OH225212   6.658   7.382   6.752  0.2283  0.0452 -0.4389
 8424TIP3    H125213   6.699   7.457   6.796  0.8477 -0.1383 -0.6906
 8424TIP3    H225214   6.684   7.391   6.661  0.6998 -0.7183 -0.3952
 8425TIP3   OH225215   2.908   7.226   2.254 -0.5874  0.0874 -0.3093
 8425TIP3    H125216   2.954   7.168   2.315 -1.4783  1.2889  1.6067
 8425TIP3    H225217   2.881   7.300   2.308 -1.3555  1.2671 -2.2253
 8426TIP3   OH225218   5.189   3.097   5.056 -0.1735 -0.1222  0.5747
 8426TIP3    H125219   5.255   3.066   5.119  0.9648 -0.6512 -0.8384
 8426TIP3    H225220   5.224   3.180   5.023  0.0989 -0.6989 -0.6222
 8427TIP3   OH225221   6.330   4.183   1.030 -0.1089  0.0473 -0.0344
 8427TIP3    H125222   6.283   4.104   1.006  0.3940 -0.0863 -0.5906
 8427TIP3    H225223   6.267   4.254   1.014 -0.8731 -0.2932  1.3226
 8428TIP3   OH225224   4.795   4.848   0.385  0.0417  0.4119  0.1342
 8428TIP3    H125225   4.834   4.895   0.459 -0.3496 -0.8930  1.2077
 8428TIP3    H225226   4.782   4.916   0.319  0.8039  1.5452  1.0798
 8429TIP3   OH225227   1.185   0.476   2.426 -0.6208  0.0915  0.0049
 8429TIP3    H125228   1.178   0.547   2.490  0.0539 -1.5252  1.9764
 8429TIP3    H225229   1.096   0.441   2.418 -0.3105 -1.3800  2.1733
 8430TIP3   OH225230   2.295   1.840   3.454 -0.2646  0.0181 -0.8971
 8430TIP3    H125231   2.351   1.803   3.386 -1.5714 -0.9220 -1.5098
 8430TIP3    H225232   2.234   1.896   3.407  0.3200  1.2784 -0.1992
 8431TIP3   OH225233   1.324   4.983   2.279  0.2440 -0.1962 -0.1692
 8431TIP3    H125234   1.241   4.936   2.272  0.0382  0.1503 -0.0872
 8431TIP3    H225235   1.391   4.915   2.277 -0.0981 -0.6006  1.1734
 8432TIP3   OH225236   1.804   7.832   2.650 -0.1727 -0.1104  0.1359
 8432TIP3    H125237   1.774   7.885   2.576 -0.9023 -1.3490 -0.4971
 8432TIP3    H225238   1.898   7.844   2.652  0.3446 -2.2968 -2.9253
 8433TIP3   OH225239   1.933   0.598   0.185  0.2455 -0.1474 -0.1799
 8433TIP3    H125240   1.895   0.565   0.266  0.8129  0.2400  0.2534
 8433TIP3    H225241   1.869   0.577   0.118 -1.0577  1.1056  0.6168
 8434TIP3   OH225242   2.946   4.386   0.883  0.0337 -0.3043 -0.2622
 8434TIP3    H125243   2.990   4.302   0.872 -1.1615 -0.9995  0.0651
 8434TIP3    H225244   3.014   4.445   0.915  0.9440 -1.0837 -0.7238
 8435TIP3   OH225245   0.195   0.467   5.828 -0.1590  1.2261  0.5432
 8435TIP3    H125246   0.283   0.483   5.794 -0.2045 -0.6334 -0.5562
 8435TIP3    H225247   0.137   0.497   5.758 -0.2940 -0.6776 -0.2076
 8436TIP3   OH225248   3.303   6.206   1.315 -0.1966 -0.4293 -0.0253
 8436TIP3    H125249   3.349   6.262   1.252 -1.0158 -0.8960 -1.0755
 8436TIP3    H225250   3.373   6.155   1.357  0.6773  2.0622  1.7461
 8437TIP3   OH225251   7.652   6.735   2.855  0.6132  0.5468  0.1893
 8437TIP3    H125252   7.602   6.728   2.774 -0.0124  2.7559  0.3222
 8437TIP3    H225253   7.617   6.666   2.911 -0.7039  0.6143 -0.5258
 8438TIP3   OH225254   3.163   7.291   3.191 -0.8772 -0.3179  0.7460
 8438TIP3    H125255   3.071   7.279   3.167 -0.5941  1.1251 -1.3525
 8438TIP3    H225256   3.199   7.344   3.120  2.1296 -2.6297  0.3383
 8439TIP3   OH225257   2.884   7.641   1.250  0.4978 -0.2581  0.5262
 8439TIP3    H125258   2.945   7.647   1.323 -0.5870  0.3306  1.4255
 8439TIP3    H225259   2.907   7.714   1.193  0.5558  0.0329  0.9198
 8440TIP3   OH225260   4.091   7.787   1.916 -0.5720 -0.0765  0.8156
 8440TIP3    H125261   4.122   7.833   1.838 -1.6736  1.4404  1.2214
 8440TIP3    H225262   4.119   7.842   1.990 -1.2608 -0.4463  1.3691
 8441TIP3   OH225263   5.367   2.390   3.684  0.4358 -0.3860  0.1000
 8441TIP3    H125264   5.326   2.477   3.681  2.2515  0.5211 -2.3873
 8441TIP3    H225265   5.320   2.340   3.617  1.3392 -0.3261 -0.5869
 8442TIP3   OH225266   5.528   3.664   0.937 -0.4362  0.6073  0.5566
 8442TIP3    H125267   5.476   3.591   0.902 -1.3592  0.5544  1.9790
 8442TIP3    H225268   5.578   3.696   0.861  0.9817 -2.2966  0.1102
 8443TIP3   OH225269   1.151   3.981   6.161  0.7783  0.2985  0.5352
 8443TIP3    H125270   1.165   3.903   6.108 -0.9842  0.2126  0.1170
 8443TIP3    H225271   1.107   3.949   6.240 -0.3288  0.8739  0.1841
 8444TIP3   OH225272   2.291   0.841   5.507 -0.5018  0.2773 -0.0765
 8444TIP3    H125273   2.324   0.923   5.471  1.0862 -0.2699  0.0361
 8444TIP3    H225274   2.316   0.775   5.443  0.7164 -0.4632  1.1093
 8445TIP3   OH225275   2.184   5.576   6.792 -0.0710 -0.2223  0.5832
 8445TIP3    H125276   2.253   5.587   6.856 -0.0100  2.3735  0.1458
 8445TIP3    H225277   2.218   5.615   6.711 -1.3459 -0.5362 -0.1511
 8446TIP3   OH225278   4.657   5.418   5.286 -0.2640 -0.4381  0.3729
 8446TIP3    H125279   4.567   5.390   5.299 -0.3317 -0.0843  0.6477
 8446TIP3    H225280   4.699   5.406   5.371 -0.4944  1.0514  0.7127
 8447TIP3   OH225281   3.616   4.998   2.356 -0.3155 -0.1783  0.5518
 8447TIP3    H125282   3.605   4.982   2.449 -1.0861  2.1454  0.9294
 8447TIP3    H225283   3.642   5.090   2.351 -2.6915  0.4887 -1.6114
 8448TIP3   OH225284   7.642   3.197   0.050  0.1616 -0.0304 -0.0570
 8448TIP3    H125285   7.578   3.251   0.096 -0.0313  0.0887 -0.4617
 8448TIP3    H225286   7.713   3.257   0.028  0.2391 -0.0806  0.0562
 8449TIP3   OH225287   3.407   2.465   2.470  0.4413 -0.0950 -0.3887
 8449TIP3    H125288   3.357   2.435   2.394 -1.3971  2.0333 -0.1227
 8449TIP3    H225289   3.423   2.558   2.453  0.3563  0.3275  1.6468
 8450TIP3   OH225290   3.876   2.803   1.856  0.2306  0.0184  0.1991
 8450TIP3    H125291   3.821   2.729   1.834 -0.0519 -0.4048  2.1162
 8450TIP3    H225292   3.959   2.787   1.811  0.6868 -2.2642  1.6938
 8451TIP3   OH225293   4.698   5.437   3.213  0.0878  0.2051  0.2583
 8451TIP3    H125294   4.752   5.470   3.141  0.0516  0.3745  0.3080
 8451TIP3    H225295   4.684   5.513   3.269  1.6211 -0.2827  1.3932
 8452TIP3   OH225296   3.788   0.480   1.629  0.1308 -0.5857 -0.2993
 8452TIP3    H125297   3.751   0.497   1.716 -0.4876 -0.1125 -0.6417
 8452TIP3    H225298   3.848   0.408   1.642  1.3297  0.5681  0.8455
 8453TIP3   OH225299   7.878   7.683   2.208 -0.2725  0.2195 -0.4606
 8453TIP3    H125300   7.973   7.695   2.211 -0.1748 -0.4708 -0.6573
 8453TIP3    H225301   7.865   7.611   2.147 -1.1459  2.6722 -3.3940
 8454TIP3   OH225302   8.187   2.869   0.303 -0.4175 -0.1709  0.2157
 8454TIP3    H125303   8.109   2.878   0.358 -1.4040  2.2400 -1.3780
 8454TIP3    H225304   8.199   2.956   0.265  4.0372  0.0491  1.5540
 8455TIP3   OH225305   3.943   2.921   6.282 -0.1105 -0.0070  0.1496
 8455TIP3    H125306   3.891   2.868   6.343 -1.3011 -0.5284 -1.2439
 8455TIP3    H225307   3.884   2.991   6.254  0.3917  0.2045 -0.4192
 8456TIP3   OH225308   5.687   4.808   2.947  0.0396  0.0519  1.1815
 8456TIP3    H125309   5.640   4.778   3.025 -0.8825 -2.0602 -0.0851
 8456TIP3    H225310   5.751   4.739   2.931 -1.2945 -0.7538 -1.1460
 8457TIP3   OH225311   7.148   6.061   1.754 -0.6840 -0.3488  0.4985
 8457TIP3    H125312   7.153   6.055   1.850 -0.6353  1.0733  0.6090
 8457TIP3    H225313   7.219   6.121   1.730 -0.9235 -0.4061 -0.3979
 8458TIP3   OH225314   7.561   2.040   1.008  0.3828  0.0471  0.2106
 8458TIP3    H125315   7.476   2.029   0.965  0.4314  0.5024 -0.0132
 8458TIP3    H225316   7.553   1.993   1.091 -0.0327 -0.0459  0.1206
 8459TIP3   OH225317   2.996   1.909   5.782  0.4667 -0.5438 -0.4939
 8459TIP3    H125318   2.984   1.943   5.871 -2.0111 -0.3397 -0.8341
 8459TIP3    H225319   2.993   1.814   5.792  2.0174 -0.5777 -0.1753
 8460TIP3   OH225320   0.210   6.436   0.822  0.6213 -0.3822  0.2941
 8460TIP3    H125321   0.199   6.344   0.846 -0.0685 -0.3045  0.2972
 8460TIP3    H225322   0.187   6.439   0.729  1.9861 -0.4471 -0.0621
 8461TIP3   OH225323   5.043   0.118   0.292 -0.0193  0.7788  0.6260
 8461TIP3    H125324   4.986   0.043   0.276 -0.7894  1.9423 -2.9547
 8461TIP3    H225325   5.120   0.102   0.238  0.3111  2.0309  0.6917
 8462TIP3   OH225326   1.918   7.672   1.279  0.3990 -0.0343 -0.1895
 8462TIP3    H125327   1.920   7.746   1.340 -1.1799 -0.9314  1.0315
 8462TIP3    H225328   1.827   7.668   1.249  0.5160 -1.3257 -0.4197
 8463TIP3   OH225329   1.920   0.560   3.890 -0.4759  0.1227 -0.1178
 8463TIP3    H125330   1.852   0.578   3.955  1.3071 -2.1705  2.6664
 8463TIP3    H225331   2.002   0.571   3.938  1.1145  0.8001 -2.7705
 8464TIP3   OH225332   6.528   2.299   5.064  0.3151 -0.4669 -0.0356
 8464TIP3    H125333   6.499   2.321   5.153 -1.7336 -1.3802 -0.4108
 8464TIP3    H225334   6.615   2.262   5.076  0.2035 -0.2916  1.5627
 8465TIP3   OH225335   0.918   7.847   5.762  0.2957  0.2537  0.0857
 8465TIP3    H125336   0.847   7.851   5.827 -0.4046 -1.6507 -0.4906
 8465TIP3    H225337   0.953   7.759   5.772  0.8099  0.2610 -1.4816
 8466TIP3   OH225338   0.232   6.891   1.596  0.2834 -0.1052 -0.0207
 8466TIP3    H125339   0.248   6.884   1.502  1.7098 -0.3728  0.2055
 8466TIP3    H225340   0.207   6.982   1.609  0.6984  0.0968 -0.5857
 8467TIP3   OH225341   0.516   3.158   4.278  0.6980  0.1632 -0.2560
 8467TIP3    H125342   0.441   3.186   4.330  0.0605  1.0925 -1.6040
 8467TIP3    H225343   0.591   3.198   4.321  0.2804  0.2110  0.4403
 8468TIP3   OH225344   5.115   7.756   0.034  0.0287  0.6558 -0.5857
 8468TIP3    H125345   5.048   7.776   0.100  1.8704  1.1135  1.2582
 8468TIP3    H225346   5.126   7.839  -0.013 -0.2801  0.7443 -0.5119
 8469TIP3   OH225347   5.649   2.097   3.593 -0.1795  0.0313 -0.0776
 8469TIP3    H125348   5.579   2.074   3.653  0.5676 -0.3928  0.6490
 8469TIP3    H225349   5.646   2.193   3.588 -1.5787 -0.0254 -1.0265
 8470TIP3   OH225350   4.651   4.699   1.967 -0.3930  0.1323  0.1244
 8470TIP3    H125351   4.564   4.732   1.989  0.3463  1.5631  1.0064
 8470TIP3    H225352   4.686   4.763   1.905  1.1069  1.1902  1.9481
 8471TIP3   OH225353   5.577   2.335   4.882  0.5302 -1.3081  0.0833
 8471TIP3    H125354   5.603   2.246   4.857  0.6956 -1.0195 -0.8104
 8471TIP3    H225355   5.642   2.391   4.840 -0.8335 -0.6403 -1.2178
 8472TIP3   OH225356   7.086   1.152   0.290  0.2759  0.0656 -0.0707
 8472TIP3    H125357   7.020   1.176   0.355  0.0669 -0.9280  0.1124
 8472TIP3    H225358   7.154   1.107   0.340  1.1967  1.2327 -0.2334
 8473TIP3   OH225359   0.887   6.378   1.441  0.0851  0.2150 -0.1520
 8473TIP3    H125360   0.871   6.339   1.527  0.9690 -0.5142 -0.3108
 8473TIP3    H225361   0.799   6.391   1.404 -0.2716 -0.1815  0.5348
 8474TIP3   OH225362  -0.006   4.233   5.855 -0.0999  0.0004  0.0780
 8474TIP3    H125363  -0.021   4.172   5.927  1.4228  0.3410  0.7089
 8474TIP3    H225364   0.076   4.277   5.876  1.4892 -1.2822 -2.7705
 8475TIP3   OH225365   4.086   2.340   5.441  0.0090 -0.1194 -0.1721
 8475TIP3    H125366   4.025   2.311   5.509  1.1082  0.2325  0.9934
 8475TIP3    H225367   4.094   2.264   5.383 -0.8421 -0.4672  0.1365
 8476TIP3   OH225368   0.051   2.621   6.636 -0.0776  0.3575  0.6797
 8476TIP3    H125369   0.117   2.571   6.684 -0.0559  1.3075  1.6798
 8476TIP3    H225370  -0.032   2.600   6.680  0.1477  2.5451  2.3574
 8477TIP3   OH225371   6.955   1.612   0.745 -0.0328 -0.4309 -0.0992
 8477TIP3    H125372   6.868   1.652   0.741  0.6334  0.9830 -1.2993
 8477TIP3    H225373   6.971   1.581   0.656  0.7818 -0.4783  0.0599
 8478TIP3   OH225374   4.689   0.153   0.332  0.0686  0.3187 -0.3123
 8478TIP3    H125375   4.724   0.241   0.346  2.8960 -0.8396  0.6083
 8478TIP3    H225376   4.676   0.118   0.420  1.9598 -1.2168 -0.5901
 8479TIP3   OH225377   2.448   7.280   4.964  0.3330  0.1640 -0.1966
 8479TIP3    H125378   2.507   7.303   5.036 -1.6931 -1.7729  2.2664
 8479TIP3    H225379   2.470   7.189   4.944 -1.4450 -0.4540  0.4796
 8480TIP3   OH225380   2.916   5.334   3.717 -0.4962  0.1950 -0.1597
 8480TIP3    H125381   2.963   5.402   3.670 -1.1788  1.0337  0.3462
 8480TIP3    H225382   2.824   5.354   3.703 -0.7146 -0.9237 -0.4230
 8481TIP3   OH225383   4.612   4.989   5.099 -0.1388  0.2476 -0.4690
 8481TIP3    H125384   4.569   4.999   5.184 -2.4956  1.0368 -1.6610
 8481TIP3    H225385   4.566   4.917   5.057  0.1110  0.7243 -1.5892
 8482TIP3   OH225386   0.486   0.195   5.099 -0.1244  0.2872 -0.3232
 8482TIP3    H125387   0.481   0.178   5.005  2.4036 -0.8101 -0.3263
 8482TIP3    H225388   0.567   0.244   5.111 -1.2707  1.9762  1.1429
 8483TIP3   OH225389   1.049   0.261   4.140  0.3064 -0.2501 -0.4904
 8483TIP3    H125390   1.068   0.349   4.170  1.1171  0.0159 -1.7331
 8483TIP3    H225391   0.954   0.259   4.131 -0.0659 -0.5224  2.5142
 8484TIP3   OH225392   1.940   7.192   0.438 -0.2800 -0.1850  0.3186
 8484TIP3    H125393   1.874   7.258   0.457 -1.0639 -0.4491 -1.2889
 8484TIP3    H225394   1.920   7.119   0.497 -0.0700  0.5729  1.3412
 8485TIP3   OH225395   5.113   2.863   2.332  0.6287  0.4120  0.2899
 8485TIP3    H125396   5.032   2.914   2.328  0.3812  0.0068  0.0033
 8485TIP3    H225397   5.120   2.836   2.424 -1.4251 -2.4627 -0.2484
 8486TIP3   OH225398   4.996   3.242   3.620  0.4187 -0.8330 -0.4181
 8486TIP3    H125399   5.018   3.323   3.666 -1.5566  1.3469 -2.9975
 8486TIP3    H225400   4.942   3.194   3.682  2.3136 -0.6836  1.4879
 8487TIP3   OH225401   7.926   6.318   5.844  0.6023 -0.2050  0.1846
 8487TIP3    H125402   7.908   6.345   5.754  1.3301  1.3408  0.4605
 8487TIP3    H225403   7.841   6.323   5.889  0.6343  1.3675  0.1245
 8488TIP3   OH225404   5.118   2.080   1.089  0.0189  0.0655  0.2954
 8488TIP3    H125405   5.095   2.143   1.021 -1.6320  0.4179  1.1213
 8488TIP3    H225406   5.034   2.051   1.124  0.6342 -3.7154 -1.0043
 8489TIP3   OH225407   5.308   3.619   4.025  0.1281  0.1010  0.1805
 8489TIP3    H125408   5.317   3.661   3.939  0.6067 -1.0297 -0.3511
 8489TIP3    H225409   5.218   3.636   4.051 -0.7413 -1.3676 -1.5821
 8490TIP3   OH225410   2.719   5.177   0.210 -0.2208 -0.0795  0.7901
 8490TIP3    H125411   2.795   5.179   0.153 -0.2909 -0.0004  0.7005
 8490TIP3    H225412   2.717   5.087   0.244  0.7388  0.3016  1.9095
 8491TIP3   OH225413   8.170   4.807   4.540  0.2094 -0.1081 -0.0650
 8491TIP3    H125414   8.114   4.866   4.489 -0.2695 -1.5437 -1.2726
 8491TIP3    H225415   8.151   4.829   4.631 -0.3553  1.2291 -0.4794
 8492TIP3   OH225416   0.761   2.132   4.928  0.2039 -0.3477 -0.0475
 8492TIP3    H125417   0.845   2.171   4.952 -0.3536  0.3454  0.8293
 8492TIP3    H225418   0.697   2.173   4.987 -0.7367 -0.9436 -0.6198
 8493TIP3   OH225419   6.837   1.687   3.025 -0.7854 -0.5156  0.1616
 8493TIP3    H125420   6.778   1.758   3.050 -0.3361 -0.6007  1.5261
 8493TIP3    H225421   6.908   1.731   2.979 -1.2237 -0.2610 -0.2912
 8494TIP3   OH225422   7.497   2.391   4.754 -0.0863  0.8550 -0.3873
 8494TIP3    H125423   7.555   2.466   4.764 -0.1963  0.9438 -0.4163
 8494TIP3    H225424   7.537   2.339   4.685  0.0431  0.8361 -0.2993
 8495TIP3   OH225425   0.712   2.509   3.847  0.1723 -0.3220  0.5146
 8495TIP3    H125426   0.729   2.541   3.758  0.3836 -2.4228 -0.2633
 8495TIP3    H225427   0.798   2.508   3.889 -0.1410  2.2517  1.3785
 8496TIP3   OH225428   1.286   1.896   6.574  0.0890  0.0405  0.1400
 8496TIP3    H125429   1.286   1.841   6.496  0.3796 -0.9255  0.7975
 8496TIP3    H225430   1.355   1.960   6.559  1.9230 -1.7187  0.6596
 8497TIP3   OH225431   4.785   6.094   0.233  0.3144 -0.0817 -0.1459
 8497TIP3    H125432   4.751   6.007   0.212 -1.0637  0.4441 -0.2130
 8497TIP3    H225433   4.794   6.094   0.329 -0.5088 -0.0282 -0.0603
 8498TIP3   OH225434   1.983   0.613   6.411 -0.5041 -0.7474  0.0203
 8498TIP3    H125435   1.910   0.563   6.377  0.7402 -1.3754 -1.8635
 8498TIP3    H225436   1.965   0.703   6.384 -0.9212 -0.7765  0.1936
 8499TIP3   OH225437   3.303   3.138   5.276  0.2173 -0.0775 -0.4201
 8499TIP3    H125438   3.328   3.045   5.274  0.0370 -0.2306  2.0115
 8499TIP3    H225439   3.210   3.138   5.255 -0.2621 -0.7121  1.4861
 8500TIP3   OH225440   7.461   5.018   0.124  0.6713 -0.4190  0.1090
 8500TIP3    H125441   7.519   5.043   0.052 -1.4926  1.6199 -1.0618
 8500TIP3    H225442   7.510   5.040   0.203  1.8428  0.3941 -0.8125
 8501TIP3   OH225443   7.954   2.792   3.489  0.5844  0.5414 -1.1256
 8501TIP3    H125444   7.927   2.714   3.538  1.5622 -0.7753 -2.5861
 8501TIP3    H225445   7.880   2.853   3.497 -0.9773 -1.2372 -1.4348
 8502TIP3   OH225446   4.602   4.588   3.508  0.1549  0.2868 -0.2485
 8502TIP3    H125447   4.542   4.662   3.508  1.1116  1.0945  0.6535
 8502TIP3    H225448   4.681   4.621   3.466  0.2213 -0.5627 -0.8156
 8503TIP3   OH225449   2.717   6.900   0.321  0.0512  0.0686  0.2680
 8503TIP3    H125450   2.692   6.969   0.383  1.5121 -0.0519  1.0279
 8503TIP3    H225451   2.795   6.934   0.278 -1.3636  0.4796 -2.1095
 8504TIP3   OH225452   0.530   5.900   0.828 -0.0208 -0.0242 -0.3112
 8504TIP3    H125453   0.542   5.984   0.872  0.0711  0.3582 -1.0636
 8504TIP3    H225454   0.507   5.922   0.738 -0.6233 -0.8037 -0.3541
 8505TIP3   OH225455   5.106   0.898   5.054 -0.1557  0.2452 -0.3198
 8505TIP3    H125456   5.147   0.978   5.020 -1.1663  0.8674 -0.1006
 8505TIP3    H225457   5.012   0.913   5.046 -0.3607 -1.2864 -1.0863
 8506TIP3   OH225458   8.257   7.837   1.751  0.2585 -0.1598 -0.0400
 8506TIP3    H125459   8.282   7.803   1.665  0.3844 -0.1836  0.0066
 8506TIP3    H225460   8.284   7.928   1.750  1.2812 -0.4480  0.3878
 8507TIP3   OH225461   3.753   0.580   4.166  0.5312 -0.1040  0.1293
 8507TIP3    H125462   3.695   0.546   4.235  1.1002 -0.5380  0.4034
 8507TIP3    H225463   3.712   0.552   4.084 -0.7124  1.2891  0.2188
 8508TIP3   OH225464   1.817   6.994   1.858  0.4075 -0.1644  0.2464
 8508TIP3    H125465   1.851   6.929   1.796  1.1335  2.3718 -2.2084
 8508TIP3    H225466   1.894   7.044   1.885 -0.2559  0.2993  1.3388
 8509TIP3   OH225467   3.425   0.602   4.741  0.1965  0.4418 -0.3863
 8509TIP3    H125468   3.402   0.690   4.773  1.7211  0.6265  0.3117
 8509TIP3    H225469   3.500   0.617   4.684  1.3831 -0.5201  0.8532
 8510TIP3   OH225470   7.626   5.572   0.744  0.7029  0.1403  0.4367
 8510TIP3    H125471   7.532   5.585   0.730  0.7590 -0.5334 -0.6931
 8510TIP3    H225472   7.640   5.479   0.730  2.0106  0.6835 -2.6437
 8511TIP3   OH225473   1.226   2.566   2.143  0.0865  0.4186  0.0150
 8511TIP3    H125474   1.225   2.476   2.176 -3.0691 -0.1062 -1.1702
 8511TIP3    H225475   1.198   2.619   2.217  0.0681  0.1701  0.1865
 8512TIP3   OH225476   4.784   3.608   5.158 -0.3602 -0.8335 -0.2025
 8512TIP3    H125477   4.714   3.551   5.190 -2.1665  1.3028 -0.1255
 8512TIP3    H225478   4.754   3.697   5.178  1.3639  0.2867 -2.1959
 8513TIP3   OH225479   0.659   4.612   3.880 -0.1924  0.0430  0.1568
 8513TIP3    H125480   0.751   4.624   3.856  0.1489  0.5934  1.6130
 8513TIP3    H225481   0.636   4.526   3.844  1.3053 -0.7229  0.9158
 8514TIP3   OH225482   1.772   0.036   4.121  0.1503  0.2030  0.1634
 8514TIP3    H125483   1.755   0.026   4.215 -1.7667  0.9222 -0.0533
 8514TIP3    H225484   1.686   0.057   4.084  0.6867 -1.0731 -1.9160
 8515TIP3   OH225485   6.452   4.260   6.550 -0.2675 -0.0139  0.4363
 8515TIP3    H125486   6.457   4.219   6.636 -1.7744  1.5941  1.3515
 8515TIP3    H225487   6.469   4.353   6.567  1.0137  0.1066 -1.2578
 8516TIP3   OH225488   2.368   4.924   1.108  0.2535 -0.4229 -0.2389
 8516TIP3    H125489   2.409   5.007   1.133  1.2288 -0.5543 -1.3146
 8516TIP3    H225490   2.439   4.861   1.107  0.0843 -0.6618 -2.1467
 8517TIP3   OH225491   1.229   3.781   4.884 -0.0860 -0.6319 -0.0309
 8517TIP3    H125492   1.270   3.858   4.923  2.1703 -1.7254 -0.0816
 8517TIP3    H225493   1.213   3.722   4.958 -0.5570 -0.6654 -0.1540
 8518TIP3   OH225494   2.107   1.612   6.535 -0.7768  0.2433  0.0035
 8518TIP3    H125495   2.171   1.594   6.603  0.3526 -0.6280 -1.2447
 8518TIP3    H225496   2.158   1.644   6.461 -1.7916 -0.3022 -0.9706
 8519TIP3   OH225497   3.779   6.130   1.651  0.0846  0.5624  0.3720
 8519TIP3    H125498   3.823   6.215   1.647  0.5591  0.3198  0.4716
 8519TIP3    H225499   3.699   6.148   1.702  0.1530  0.9586  0.3486
 8520TIP3   OH225500   1.262   1.131   3.466  0.2211 -0.0434  0.1659
 8520TIP3    H125501   1.315   1.160   3.540  1.4365  0.0330 -0.7069
 8520TIP3    H225502   1.315   1.152   3.388 -1.9432  1.9011 -0.8956
 8521TIP3   OH225503   8.378   2.014   5.900  0.1321  0.1912 -0.6142
 8521TIP3    H125504   8.333   1.940   5.940 -0.6535  0.6939 -0.5305
 8521TIP3    H225505   8.451   2.033   5.958 -1.2320  1.1750  0.8777
 8522TIP3   OH225506   7.186   1.300   4.664  0.4943 -0.1826 -0.1767
 8522TIP3    H125507   7.161   1.283   4.755  0.4998  0.7604  0.0107
 8522TIP3    H225508   7.228   1.386   4.666 -0.9286  0.5879 -1.3036
 8523TIP3   OH225509   5.236   1.819   0.047 -0.1477  0.2192  0.4057
 8523TIP3    H125510   5.231   1.843   0.139 -1.0880 -1.1459  0.7372
 8523TIP3    H225511   5.191   1.735   0.041 -1.8755  1.1804 -1.6224
 8524TIP3   OH225512   5.446   5.816   3.719 -0.1413  0.3605  0.2616
 8524TIP3    H125513   5.471   5.732   3.755  0.4620  0.4545  0.0776
 8524TIP3    H225514   5.446   5.876   3.794  2.9665  0.9847 -0.0820
 8525TIP3   OH225515   1.416   0.512   1.715 -0.0767 -0.3675 -0.0745
 8525TIP3    H125516   1.344   0.571   1.736  0.0699  1.0084 -2.9774
 8525TIP3    H225517   1.375   0.440   1.668  0.0028 -1.7225  1.8098
 8526TIP3   OH225518   4.963   6.062   1.007  0.0702  0.9651  0.4962
 8526TIP3    H125519   4.990   6.068   0.915 -0.9851 -1.1556 -0.0190
 8526TIP3    H225520   4.868   6.073   1.004 -0.2656 -1.4131  1.0130
 8527TIP3   OH225521   7.688   2.747   2.491 -0.3907  0.1956  0.2100
 8527TIP3    H125522   7.707   2.841   2.488 -0.0338  0.1138 -0.6028
 8527TIP3    H225523   7.680   2.726   2.584  0.5389  0.8373  0.4469
 8528TIP3   OH225524   3.262   2.050   1.272 -0.1465 -0.1959 -0.2026
 8528TIP3    H125525   3.180   2.096   1.253  0.0573  0.9283  1.4487
 8528TIP3    H225526   3.324   2.120   1.293  1.1647 -1.0521 -1.0598
 8529TIP3   OH225527   2.711   5.457   5.053 -0.1164 -0.0594  0.0327
 8529TIP3    H125528   2.616   5.447   5.053 -0.1056 -0.5459 -1.6987
 8529TIP3    H225529   2.726   5.548   5.026 -0.0608  1.1647  3.6558
 8530TIP3   OH225530   3.719   6.928   2.177  0.9997  0.3572 -0.1394
 8530TIP3    H125531   3.799   6.938   2.126  1.6883  1.8318  1.1488
 8530TIP3    H225532   3.738   6.972   2.260 -1.4673  1.6081 -0.1481
 8531TIP3   OH225533   1.620   1.453   0.150 -0.2601  0.1855 -0.3282
 8531TIP3    H125534   1.649   1.393   0.219 -0.5392  1.1274  0.6476
 8531TIP3    H225535   1.607   1.537   0.195  1.7208  1.4554 -1.9406
 8532TIP3   OH225536   7.232   1.232   3.388  0.4291  0.1375 -0.0043
 8532TIP3    H125537   7.247   1.138   3.374  0.6002  0.1748 -0.0787
 8532TIP3    H225538   7.235   1.243   3.483 -0.7609 -0.1217  0.0684
 8533TIP3   OH225539   0.342   1.708   5.618 -0.3092  0.4539 -0.1437
 8533TIP3    H125540   0.300   1.625   5.640  4.1451 -1.3750  2.8894
 8533TIP3    H225541   0.387   1.692   5.535  1.0567 -0.4915  0.7463
 8534TIP3   OH225542   0.976   6.446   3.340  0.1349 -0.0251 -0.1145
 8534TIP3    H125543   0.995   6.486   3.425 -0.1231  0.3795 -0.2455
 8534TIP3    H225544   0.881   6.455   3.330  0.4388  2.2500 -1.5819
 8535TIP3   OH225545   2.610   2.378   1.787  0.2975  0.0467  0.0321
 8535TIP3    H125546   2.683   2.341   1.738 -1.2600 -0.3936 -2.0722
 8535TIP3    H225547   2.615   2.472   1.770  1.1292  0.2092  1.0318
 8536TIP3   OH225548   3.166   7.592   5.363  0.6952  0.3238 -0.5027
 8536TIP3    H125549   3.120   7.517   5.400  1.2275 -1.1222 -2.5843
 8536TIP3    H225550   3.098   7.655   5.343 -0.1993 -0.9615 -1.6895
 8537TIP3   OH225551   2.135   2.806   4.223  0.3171 -0.2699 -0.2386
 8537TIP3    H125552   2.063   2.755   4.186  0.3034 -0.0671 -0.4916
 8537TIP3    H225553   2.108   2.897   4.216 -0.2053 -0.2652  1.3807
 8538TIP3   OH225554   5.773   6.514   1.302  0.7665  0.3206 -0.3397
 8538TIP3    H125555   5.747   6.594   1.256  1.0695  1.0934  0.7894
 8538TIP3    H225556   5.864   6.529   1.329  1.7694 -1.4985 -2.3938
 8539TIP3   OH225557   7.806   6.863   1.228  0.3323 -0.5673  0.1843
 8539TIP3    H125558   7.888   6.913   1.230 -0.4661  0.9176 -1.4573
 8539TIP3    H225559   7.744   6.915   1.279  0.0802 -1.0529  0.3858
 8540TIP3   OH225560   3.016   4.100   4.203  0.3028 -0.8500  0.2134
 8540TIP3    H125561   3.097   4.051   4.187  1.3413  0.7268  0.4153
 8540TIP3    H225562   3.007   4.100   4.298  1.3254  0.8414  0.3529
 8541TIP3   OH225563   3.652   0.028   6.138  0.3835  0.5244 -0.0689
 8541TIP3    H125564   3.595   0.080   6.082  1.1296 -1.6053 -3.0526
 8541TIP3    H225565   3.595  -0.040   6.173  0.2651  0.8576  0.3937
 8542TIP3   OH225566   7.903   4.899   6.754  0.4708 -0.3213 -0.0959
 8542TIP3    H125567   7.957   4.888   6.832 -1.4680  1.1802  1.5345
 8542TIP3    H225568   7.886   4.993   6.749 -2.6879 -0.7776  0.0206
 8543TIP3   OH225569   3.301   1.835   0.440 -0.0442 -0.1010 -0.3739
 8543TIP3    H125570   3.218   1.822   0.394 -0.6951  1.6103  0.2372
 8543TIP3    H225571   3.293   1.921   0.480  1.1866 -0.8001  1.5168
 8544TIP3   OH225572   2.183   3.225   5.147  0.4841 -0.1549 -0.5999
 8544TIP3    H125573   2.149   3.149   5.194  0.9530  0.6082  1.0431
 8544TIP3    H225574   2.199   3.193   5.058 -0.0395 -1.7583 -0.1502
 8545TIP3   OH225575   2.601   1.786   1.662 -0.0353  0.4010 -0.1542
 8545TIP3    H125576   2.630   1.708   1.710  2.5230  1.1973 -0.2670
 8545TIP3    H225577   2.583   1.754   1.574 -0.4514 -0.3036  0.1724
 8546TIP3   OH225578   1.898   1.678   0.197  0.6204 -0.1769 -0.5582
 8546TIP3    H125579   1.822   1.695   0.253 -1.7347  2.3638 -4.0518
 8546TIP3    H225580   1.896   1.584   0.182  0.2523 -0.6603  2.0361
 8547TIP3   OH225581   6.367   5.235   6.076 -0.0236  0.4321 -0.5557
 8547TIP3    H125582   6.285   5.211   6.032  0.4328  2.5895 -2.8034
 8547TIP3    H225583   6.420   5.155   6.073 -1.2494 -0.3999 -0.9613
 8548TIP3   OH225584   6.713   4.259   5.798  0.2219 -0.5138 -0.3468
 8548TIP3    H125585   6.682   4.169   5.812 -0.3303 -0.4793 -1.2619
 8548TIP3    H225586   6.796   4.249   5.751  0.0857 -0.5529 -0.5842
 8549TIP3   OH225587   0.939   3.921   4.901 -0.2537  0.3555  0.6001
 8549TIP3    H125588   0.990   3.999   4.920  0.6489 -0.0756  0.0431
 8549TIP3    H225589   0.982   3.882   4.825  0.2090 -1.4279  1.6870
 8550TIP3   OH225590   6.706   0.049   2.150  0.1357  0.3055 -0.2342
 8550TIP3    H125591   6.673   0.116   2.210  0.7177  0.3343  0.0624
 8550TIP3    H225592   6.800   0.066   2.145  0.1597  0.0354 -0.8232
 8551TIP3   OH225593   5.939   6.761   3.375 -0.3737  0.1133  0.1073
 8551TIP3    H125594   5.983   6.685   3.414  1.5679  2.0959  2.1099
 8551TIP3    H225595   5.921   6.818   3.449 -3.0525  1.0671 -1.1689
 8552TIP3   OH225596   4.927   5.736   4.130  0.2992  0.0574 -0.2188
 8552TIP3    H125597   5.009   5.704   4.169 -0.0662  0.7022  1.1586
 8552TIP3    H225598   4.951   5.760   4.040  0.8758 -2.7275 -0.9005
 8553TIP3   OH225599   7.930   4.520   3.520 -0.2584 -0.7247  0.3958
 8553TIP3    H125600   7.942   4.439   3.471 -4.2428 -0.1975 -1.8799
 8553TIP3    H225601   7.987   4.584   3.476  1.5909 -1.7752  1.1285
 8554TIP3   OH225602   6.873   1.946   2.954  0.3101  0.3148 -0.1816
 8554TIP3    H125603   6.864   2.002   2.877 -0.7001  1.4308  0.7265
 8554TIP3    H225604   6.953   1.977   2.997  1.1973 -0.6854 -1.0457
 8555TIP3   OH225605   3.696   2.531   0.404  0.3474 -0.0922 -0.2649
 8555TIP3    H125606   3.726   2.536   0.495  0.4130  1.7739 -0.3430
 8555TIP3    H225607   3.602   2.549   0.409  0.3557  0.0466 -0.5582
 8556TIP3   OH225608   1.696   6.522   0.760 -0.4242  0.2059 -0.1892
 8556TIP3    H125609   1.657   6.522   0.847 -1.4983 -2.2251 -0.5751
 8556TIP3    H225610   1.632   6.477   0.705  0.8972  0.2928 -1.9031
 8557TIP3   OH225611   8.270   5.596   1.429 -0.1550 -0.0447 -1.2202
 8557TIP3    H125612   8.283   5.691   1.430  1.5955 -0.2503 -1.2801
 8557TIP3    H225613   8.189   5.583   1.478  0.1142  1.4210 -0.3068
 8558TIP3   OH225614   5.375   6.965   5.938 -0.4687 -0.0375  0.2724
 8558TIP3    H125615   5.369   7.045   5.886 -1.0613 -0.7703 -0.8352
 8558TIP3    H225616   5.459   6.971   5.982  0.9758 -0.2700 -2.2899
 8559TIP3   OH225617   3.455   0.583   5.887 -0.2011 -0.0074 -0.2007
 8559TIP3    H125618   3.388   0.516   5.871  1.5180 -1.9273  0.1757
 8559TIP3    H225619   3.480   0.570   5.978  1.0455  0.3042 -0.4788
 8560TIP3   OH225620   1.369   3.670   0.236  0.2741 -0.1506  0.3567
 8560TIP3    H125621   1.312   3.721   0.293  0.4662  0.6924 -0.1935
 8560TIP3    H225622   1.326   3.674   0.150 -0.2844 -1.8211  0.5159
 8561TIP3   OH225623   1.240   0.857   1.656  0.3958 -0.7004  0.4997
 8561TIP3    H125624   1.294   0.864   1.735  0.7020  3.2419  0.1386
 8561TIP3    H225625   1.153   0.833   1.688  1.4085 -3.4496  1.4730
 8562TIP3   OH225626   6.085   5.611   2.472  0.6174 -0.0501 -0.5366
 8562TIP3    H125627   6.038   5.543   2.423  0.0975  0.6726 -1.0671
 8562TIP3    H225628   6.164   5.568   2.503  0.8257 -0.6026 -1.7795
 8563TIP3   OH225629   0.198   3.103   4.117  0.0332  0.1132 -0.3912
 8563TIP3    H125630   0.135   3.133   4.183 -0.2688  0.3986 -0.7996
 8563TIP3    H225631   0.190   3.168   4.046  0.6214  0.0219 -0.5442
 8564TIP3   OH225632   6.703   0.543   4.348  0.0540  0.7522 -0.6134
 8564TIP3    H125633   6.683   0.483   4.277 -1.6798  1.9839 -1.2481
 8564TIP3    H225634   6.629   0.535   4.408  0.3832  1.3799 -0.1024
 8565TIP3   OH225635   4.987   3.858   4.033 -0.2407  0.1366 -0.7489
 8565TIP3    H125636   5.034   3.888   4.111  1.6238  1.9470 -2.4624
 8565TIP3    H225637   4.917   3.922   4.021  0.7863  1.1227 -1.7022
 8566TIP3   OH225638   6.820   1.151   2.081 -0.1198  0.0654  0.0764
 8566TIP3    H125639   6.773   1.073   2.112  1.4852 -1.6998 -1.6668
 8566TIP3    H225640   6.810   1.149   1.986  0.8874  1.3612 -0.0833
 8567TIP3   OH225641   4.227   0.676   0.929 -0.5140 -0.1267  0.6658
 8567TIP3    H125642   4.226   0.645   1.019  0.4203 -0.0961  0.6997
 8567TIP3    H225643   4.232   0.771   0.936 -0.6103 -0.1148  0.5792
 8568TIP3   OH225644   4.879   4.999   5.161  0.0883 -0.1848  1.0949
 8568TIP3    H125645   4.892   4.905   5.145 -0.1488 -0.1209  0.5018
 8568TIP3    H225646   4.786   5.014   5.140  0.3905  0.3903  0.0869
 8569TIP3   OH225647   5.367   5.021   5.502  0.2988 -0.1823 -0.3743
 8569TIP3    H125648   5.367   5.052   5.412  0.6712  1.1194  0.0498
 8569TIP3    H225649   5.439   5.068   5.544 -0.3538 -0.1732  0.8017
 8570TIP3   OH225650   0.680   5.694   1.164 -0.3117 -0.0963  0.5528
 8570TIP3    H125651   0.738   5.650   1.226 -0.9113 -1.0469  0.4584
 8570TIP3    H225652   0.693   5.788   1.182  0.4779 -0.3159  1.2220
 8571TIP3   OH225653   6.204   1.574   1.050  0.8745  0.2709  0.5525
 8571TIP3    H125654   6.111   1.596   1.042  1.0472  0.6998 -0.4006
 8571TIP3    H225655   6.209   1.519   1.128 -0.1774  0.2422  0.6133
 8572TIP3   OH225656   7.678   6.952   2.541  0.5273 -0.4985 -0.0399
 8572TIP3    H125657   7.607   6.889   2.553 -0.8825  0.3448 -2.9984
 8572TIP3    H225658   7.705   6.975   2.630 -1.3765 -2.5180  1.1586
 8573TIP3   OH225659   1.652   7.731   5.330  0.0907  0.0905  0.8529
 8573TIP3    H125660   1.570   7.758   5.291  0.8410  1.5124  0.1738
 8573TIP3    H225661   1.707   7.706   5.256  0.7707  0.6536  1.1474
 8574TIP3   OH225662   3.306   5.037   1.324 -0.7026 -0.9719 -0.0212
 8574TIP3    H125663   3.296   4.943   1.311 -0.2627 -0.9953 -0.1988
 8574TIP3    H225664   3.388   5.046   1.373 -1.6642 -0.8026  1.6580
 8575TIP3   OH225665   6.828   4.425   5.440 -0.4507  0.4258 -0.3149
 8575TIP3    H125666   6.831   4.333   5.465  1.4692  0.5251 -0.0297
 8575TIP3    H225667   6.763   4.464   5.499 -0.8858 -0.6461 -0.0771
 8576TIP3   OH225668   0.188   1.182   3.295 -1.0374 -0.7868  0.3558
 8576TIP3    H125669   0.101   1.212   3.267 -1.2621 -1.5287  0.2536
 8576TIP3    H225670   0.181   1.173   3.390 -0.5188  0.9263  0.5899
 8577TIP3   OH225671   3.810   1.284   4.522  0.0287 -0.0513 -0.1062
 8577TIP3    H125672   3.779   1.207   4.568  0.1913  0.0433  0.1660
 8577TIP3    H225673   3.816   1.257   4.430  0.5297 -0.4996  0.0564
 8578TIP3   OH225674   2.090   0.902   3.615 -0.1498 -0.2847  0.0582
 8578TIP3    H125675   2.106   0.989   3.580  0.3898 -0.2311  0.4325
 8578TIP3    H225676   2.145   0.844   3.562 -0.6266 -0.4243 -0.2948
 8579TIP3   OH225677   3.940   7.860   5.193 -0.1005  0.0650  0.1463
 8579TIP3    H125678   3.845   7.874   5.198 -0.1916 -0.6423  0.4913
 8579TIP3    H225679   3.978   7.942   5.223 -0.5907  0.6980 -0.9005
 8580TIP3   OH225680   5.446   5.675   6.373  0.4154 -0.0016 -0.1541
 8580TIP3    H125681   5.456   5.731   6.297  0.9296  3.0536  1.9581
 8580TIP3    H225682   5.531   5.632   6.383  0.2674 -0.6020 -1.3904
 8581TIP3   OH225683   6.387   5.483   0.024 -0.8452  0.2714  0.3308
 8581TIP3    H125684   6.336   5.484  -0.058 -1.8970 -2.9406  0.8134
 8581TIP3    H225685   6.334   5.432   0.085  1.6712 -0.8073  1.7890
 8582TIP3   OH225686   8.187   0.100   5.901  0.6471  0.2178  0.1076
 8582TIP3    H125687   8.159   0.187   5.931 -1.1984 -1.0720  2.5180
 8582TIP3    H225688   8.266   0.082   5.952  0.4712  0.1103  0.3464
 8583TIP3   OH225689   7.232   2.093   5.266 -0.1870 -0.0531 -0.1753
 8583TIP3    H125690   7.296   2.157   5.234  0.5357  0.1635  1.5558
 8583TIP3    H225691   7.243   2.017   5.209  0.8935  0.3687 -0.5657
 8584TIP3   OH225692   2.611   1.885   6.481  0.2127  0.4713  0.5023
 8584TIP3    H125693   2.633   1.963   6.531 -1.1788  1.2011  0.0425
 8584TIP3    H225694   2.583   1.918   6.395  0.9258 -0.6310 -0.1960
 8585TIP3   OH225695   3.547   7.493   5.524 -0.0711 -0.2024  0.2513
 8585TIP3    H125696   3.479   7.428   5.509  0.3921 -0.3937 -1.2408
 8585TIP3    H225697   3.621   7.444   5.559 -0.3528 -0.1591  0.9158
 8586TIP3   OH225698   2.005   3.390   4.674  0.1767 -0.4861  0.5424
 8586TIP3    H125699   1.970   3.302   4.655 -0.1060 -0.1397 -0.6023
 8586TIP3    H225700   1.996   3.398   4.769  0.0239 -1.6242  0.6476
 8587TIP3   OH225701   0.991   1.613   3.220 -0.2901  0.2233 -0.2169
 8587TIP3    H125702   0.900   1.588   3.236 -0.3307  1.1022  1.1496
 8587TIP3    H225703   1.017   1.660   3.300  1.0706  0.7904 -0.9611
 8588TIP3   OH225704   2.706   5.602   1.237  0.6223 -0.6499 -0.2622
 8588TIP3    H125705   2.667   5.554   1.164 -0.0536 -1.2409  0.4565
 8588TIP3    H225706   2.668   5.560   1.315  0.1796  0.9167  0.4013
 8589TIP3   OH225707   7.235   6.876   5.234  0.2580 -0.6967  0.2073
 8589TIP3    H125708   7.159   6.931   5.215  0.9580 -0.2259 -1.4482
 8589TIP3    H225709   7.225   6.800   5.178  0.7018 -0.9350  0.4419
 8590TIP3   OH225710   3.591   4.939   2.611  0.6178 -1.1536 -0.5128
 8590TIP3    H125711   3.534   4.879   2.659 -0.8741  0.7307  0.2538
 8590TIP3    H225712   3.635   4.990   2.680 -0.3591  0.5430 -1.0829
 8591TIP3   OH225713   4.925   4.316   6.455  0.2683  0.0694 -0.4287
 8591TIP3    H125714   4.959   4.243   6.506  0.2818 -0.3438 -1.0088
 8591TIP3    H225715   4.976   4.391   6.482  0.8611 -0.3141 -0.4559
 8592TIP3   OH225716   3.330   7.334   5.490  0.3220  0.4964  0.3836
 8592TIP3    H125717   3.298   7.327   5.580 -1.6480  0.7221 -0.2529
 8592TIP3    H225718   3.336   7.243   5.460 -2.1884  0.4560 -0.2423
 8593TIP3   OH225719   0.902   3.962   0.914  0.3344 -0.5209 -0.0466
 8593TIP3    H125720   0.879   3.894   0.850  1.4354  0.1626 -1.2213
 8593TIP3    H225721   0.984   3.932   0.952  0.1115 -0.5171  0.4355
 8594TIP3   OH225722   7.528   4.799   4.829  0.6903  0.1186  0.5546
 8594TIP3    H125723   7.438   4.771   4.816  0.5952 -0.3935  2.1302
 8594TIP3    H225724   7.579   4.747   4.767 -0.1000  0.6069 -0.5357
 8595TIP3   OH225725   2.393   1.223   6.836 -0.0744  1.1052 -0.1864
 8595TIP3    H125726   2.390   1.249   6.744 -0.8711  0.1515 -0.4486
 8595TIP3    H225727   2.455   1.284   6.876 -0.8653  2.5193 -1.0306
 8596TIP3   OH225728   6.163   4.834   0.708  0.8715 -0.1371 -0.1873
 8596TIP3    H125729   6.206   4.919   0.705 -3.3292  2.3142  0.7824
 8596TIP3    H225730   6.134   4.818   0.619 -1.0600  1.1652  0.1480
 8597TIP3   OH225731   5.633   4.012   3.213  0.4699 -0.6956  0.2934
 8597TIP3    H125732   5.626   4.043   3.122  0.4803  1.3396  0.9256
 8597TIP3    H225733   5.563   3.948   3.222 -1.0990  0.8097 -0.5304
 8598TIP3   OH225734   5.747   3.322   4.016 -0.8774  0.3811 -0.0343
 8598TIP3    H125735   5.749   3.355   4.106  1.1981 -0.9886  0.4960
 8598TIP3    H225736   5.748   3.227   4.025 -2.6080  0.1555 -1.5405
 8599TIP3   OH225737   1.672   0.779   3.626 -0.1161  0.0370 -0.2585
 8599TIP3    H125738   1.701   0.866   3.653  0.0428 -0.0277 -0.2188
 8599TIP3    H225739   1.578   0.778   3.644 -0.6877  1.1613 -2.7770
 8600TIP3   OH225740   6.354   5.014   1.860 -0.0353 -0.2957  0.5631
 8600TIP3    H125741   6.296   5.083   1.829 -1.2505 -1.6059 -0.1838
 8600TIP3    H225742   6.379   4.967   1.780 -1.4296 -2.3771  1.2875
 8601TIP3   OH225743   7.529   2.246   3.136 -0.4284 -0.0333 -0.1707
 8601TIP3    H125744   7.611   2.197   3.143 -1.0817 -0.9790  1.3058
 8601TIP3    H225745   7.548   2.313   3.071  0.7244 -1.7683 -1.7312
 8602TIP3   OH225746   1.060   4.529   1.237  0.0307 -0.6484  0.4652
 8602TIP3    H125747   1.133   4.543   1.298 -0.5970 -0.3058  1.1477
 8602TIP3    H225748   1.037   4.616   1.206 -0.6344 -0.6705  0.8920
 8603TIP3   OH225749   6.248   0.424   4.177  0.4836  0.1768  0.4356
 8603TIP3    H125750   6.199   0.400   4.256  1.2838  0.1661  0.9352
 8603TIP3    H225751   6.299   0.346   4.156  0.1285  0.1113 -0.2122
 8604TIP3   OH225752   8.259   0.515   2.489 -0.2897 -0.4635  0.0750
 8604TIP3    H125753   8.310   0.472   2.420 -0.0876  0.3223 -0.2757
 8604TIP3    H225754   8.304   0.599   2.503 -2.5128  1.1389 -1.5792
 8605TIP3   OH225755   5.959   5.804   4.991  0.0026 -0.1036  0.6757
 8605TIP3    H125756   5.932   5.747   4.919 -0.2526 -0.5393  1.1113
 8605TIP3    H225757   6.003   5.746   5.053 -0.0950  0.1992  1.0374
 8606TIP3   OH225758   7.891   7.863   2.496  0.2563  0.2568  0.3918
 8606TIP3    H125759   7.879   7.837   2.404  0.3482 -1.8741  0.9314
 8606TIP3    H225760   7.986   7.856   2.510 -0.0408 -2.7468  1.4894
 8607TIP3   OH225761   6.736   2.637   4.164  0.0632  0.1626 -0.0235
 8607TIP3    H125762   6.822   2.601   4.141  0.3558  1.6353 -1.4393
 8607TIP3    H225763   6.755   2.699   4.235  0.2970  0.9446 -0.7507
 8608TIP3   OH225764   5.227   0.473   1.499  0.5609  0.1230  0.4157
 8608TIP3    H125765   5.262   0.505   1.416  0.4145 -1.1801 -0.1833
 8608TIP3    H225766   5.303   0.466   1.556  1.1192 -1.4464 -0.4584
 8609TIP3   OH225767   5.682   2.989   2.405 -0.2569 -0.1921  0.1560
 8609TIP3    H125768   5.627   3.067   2.397 -0.0081 -0.0254  0.0625
 8609TIP3    H225769   5.768   3.017   2.372  0.1209 -0.2054  1.0894
 8610TIP3   OH225770   0.258   7.108   1.313 -0.0049 -0.5831  0.7616
 8610TIP3    H125771   0.339   7.105   1.365  0.8011  0.2772 -0.3995
 8610TIP3    H225772   0.239   7.016   1.293 -0.2171 -0.9202  2.3550
 8611TIP3   OH225773   5.721   6.440   2.394 -0.0642 -0.1040 -0.6456
 8611TIP3    H125774   5.684   6.369   2.341 -1.7957  0.8744 -0.8139
 8611TIP3    H225775   5.695   6.520   2.350  3.5460  0.7363 -1.5740
 8612TIP3   OH225776   2.511   0.537   0.468 -0.8175 -0.4470  0.0084
 8612TIP3    H125777   2.487   0.555   0.559 -0.2080 -0.4968  0.1835
 8612TIP3    H225778   2.571   0.608   0.444  1.8235 -2.2675  0.7909
 8613TIP3   OH225779   7.083   5.684   5.704 -0.0996 -0.4795 -0.1503
 8613TIP3    H125780   7.135   5.625   5.758  0.0815  0.4751  0.7442
 8613TIP3    H225781   7.002   5.698   5.753 -0.0088  0.2657 -0.1930
 8614TIP3   OH225782   5.832   2.943   4.867  0.3450 -0.1992 -0.1308
 8614TIP3    H125783   5.843   2.975   4.956  0.7258  0.0301 -0.2554
 8614TIP3    H225784   5.739   2.954   4.848  0.4808  0.9105 -0.1982
 8615TIP3   OH225785   3.756   4.219   2.292 -0.2111  0.0145  0.3118
 8615TIP3    H125786   3.710   4.149   2.338  0.6696 -0.5037  0.4206
 8615TIP3    H225787   3.727   4.299   2.335 -0.7616 -0.3277  0.5874
 8616TIP3   OH225788   5.455   7.363   4.545 -0.1048  0.0384 -0.2217
 8616TIP3    H125789   5.550   7.353   4.545 -0.1682 -1.0766  1.9339
 8616TIP3    H225790   5.432   7.374   4.637 -2.0608  0.5825 -0.7196
 8617TIP3   OH225791   5.186   5.073   1.096 -0.9267 -0.3382  0.2788
 8617TIP3    H125792   5.125   5.104   1.029 -1.1788  0.6417  0.9455
 8617TIP3    H225793   5.174   4.978   1.097 -2.5060 -0.1600  0.4567
 8618TIP3   OH225794   5.821   4.032   4.478 -0.6269  0.4239  1.1247
 8618TIP3    H125795   5.827   3.960   4.414 -0.1570  0.7308  0.8180
 8618TIP3    H225796   5.806   3.988   4.561 -2.1639  0.0619  0.6788
 8619TIP3   OH225797   7.296   4.463   0.462 -0.5853 -0.3957  0.7393
 8619TIP3    H125798   7.322   4.547   0.424 -0.9091  0.1853  1.7644
 8619TIP3    H225799   7.376   4.410   0.458 -0.0356  0.3794  1.1964
 8620TIP3   OH225800   6.104   6.902   2.170  0.0876  0.2702 -0.1148
 8620TIP3    H125801   6.098   6.858   2.254 -0.0169 -2.0330 -1.2490
 8620TIP3    H225802   6.197   6.898   2.147 -0.3578 -2.7176 -1.8218
 8621TIP3   OH225803   6.503   7.847   4.440  0.6969 -0.1990 -0.1131
 8621TIP3    H125804   6.480   7.830   4.531  0.0346 -0.4137 -0.3143
 8621TIP3    H225805   6.599   7.849   4.440  0.7089 -0.3747  0.5552
 8622TIP3   OH225806   4.892   4.639   1.652 -0.3478 -0.1105 -0.5347
 8622TIP3    H125807   4.919   4.553   1.687  0.5750  0.1438 -0.5977
 8622TIP3    H225808   4.837   4.618   1.577 -0.4671 -0.6581 -0.2986
 8623TIP3   OH225809   0.561   0.919   0.936  0.5515  0.3615  0.3065
 8623TIP3    H125810   0.499   0.916   0.864  2.8938  0.1024 -1.8664
 8623TIP3    H225811   0.599   1.007   0.931  1.2784  0.0859  0.7582
 8624TIP3   OH225812   5.748   7.875   3.599  0.0700  0.4339  0.3514
 8624TIP3    H125813   5.684   7.839   3.660  0.4844  0.1873  0.6485
 8624TIP3    H225814   5.819   7.811   3.598  0.1608  0.5391 -0.2325
 8625TIP3   OH225815   7.152   2.658   6.384  0.3721 -0.2541  0.1733
 8625TIP3    H125816   7.131   2.720   6.454 -1.2569 -0.4652 -0.0819
 8625TIP3    H225817   7.227   2.609   6.417  1.7605  1.8466  0.3648
 8626TIP3   OH225818   5.893   3.963   0.136 -0.4858  0.0329 -0.2034
 8626TIP3    H125819   5.809   3.925   0.109 -0.8185  1.3411 -1.0900
 8626TIP3    H225820   5.871   4.048   0.172  0.5349  0.9548 -1.6389
 8627TIP3   OH225821   0.326   5.980   0.598  0.0397 -0.2929 -0.2138
 8627TIP3    H125822   0.392   5.910   0.592  1.5635  1.1062 -0.3759
 8627TIP3    H225823   0.242   5.933   0.603  1.0086 -2.1273 -0.2464
 8628TIP3   OH225824   1.405   2.197   5.379 -0.4930  0.2524  0.5314
 8628TIP3    H125825   1.477   2.223   5.436 -1.8230  0.2553  2.2639
 8628TIP3    H225826   1.406   2.102   5.380 -0.7658  0.2509  0.9070
 8629TIP3   OH225827   2.614   5.647   6.537 -0.1394 -0.1188 -0.1831
 8629TIP3    H125828   2.632   5.734   6.574  1.2254 -0.4945  0.0792
 8629TIP3    H225829   2.567   5.602   6.607  0.6940 -0.1597  0.3759
 8630TIP3   OH225830   4.750   6.626   5.847  0.3504  0.0960  0.4243
 8630TIP3    H125831   4.822   6.673   5.804  0.7028 -0.4164  0.4425
 8630TIP3    H225832   4.672   6.677   5.826  0.8861  1.4881  1.5927
 8631TIP3   OH225833   7.256   0.924   1.624 -0.1935 -1.0323 -0.0964
 8631TIP3    H125834   7.200   1.001   1.618  0.4102 -0.5513  0.3143
 8631TIP3    H225835   7.324   0.939   1.558  1.0067 -0.2886  1.2557
 8632TIP3   OH225836   7.655   6.045   2.162  0.2304  0.1718  0.0426
 8632TIP3    H125837   7.630   6.103   2.090  0.4323 -0.8827 -0.9000
 8632TIP3    H225838   7.589   5.976   2.162  1.0753 -0.6533 -0.1074
 8633TIP3   OH225839   1.909   6.379   6.569  0.5285  0.2370  0.2020
 8633TIP3    H125840   1.843   6.339   6.513  2.5215 -0.3903 -1.8541
 8633TIP3    H225841   1.894   6.473   6.559  0.0803  0.1110 -0.4259
 8634TIP3   OH225842   4.006   6.032   0.744  0.2623  0.4976  0.1418
 8634TIP3    H125843   3.993   5.973   0.819 -1.7759  1.4577  0.6119
 8634TIP3    H225844   3.990   5.977   0.667 -0.3581  0.1389  0.5202
 8635TIP3   OH225845   7.195   2.226   5.776  0.7283 -0.3155 -0.6111
 8635TIP3    H125846   7.283   2.252   5.747  0.6884 -0.5336 -0.9347
 8635TIP3    H225847   7.211   2.167   5.850  0.8173  0.6923  0.2030
 8636TIP3   OH225848   7.426   6.475   3.778  0.2638  0.0416  0.4516
 8636TIP3    H125849   7.366   6.433   3.717  1.4917 -1.1002 -0.0175
 8636TIP3    H225850   7.376   6.548   3.814 -0.8411  0.1147 -1.1306
 8637TIP3   OH225851   4.265   5.156   3.432 -0.4472  0.2407 -0.3118
 8637TIP3    H125852   4.205   5.222   3.399 -0.7915 -0.5013 -1.2251
 8637TIP3    H225853   4.280   5.097   3.358  1.2165  0.2598 -0.0436
 8638TIP3   OH225854   0.604   7.460   1.892  0.0965 -0.5574 -0.2250
 8638TIP3    H125855   0.542   7.517   1.938  0.7957  0.0360  0.0016
 8638TIP3    H225856   0.639   7.403   1.960 -1.3378 -1.9852 -0.6122
 8639TIP3   OH225857   7.056   3.751   6.202 -0.0841 -0.2685  0.2111
 8639TIP3    H125858   7.078   3.832   6.155  0.1214 -0.2513  0.3322
 8639TIP3    H225859   7.070   3.682   6.137 -0.3859 -0.1984  0.0682
 8640TIP3   OH225860   5.747   3.557   1.373 -0.2485 -0.3820  0.3403
 8640TIP3    H125861   5.839   3.578   1.387  0.3657 -1.5429 -1.5781
 8640TIP3    H225862   5.724   3.605   1.293 -1.2455 -0.3410  0.6421
 8641TIP3   OH225863   2.329   3.480   0.987 -0.0503  0.1121  0.5308
 8641TIP3    H125864   2.357   3.485   0.896  1.3482  0.2992  0.9510
 8641TIP3    H225865   2.352   3.566   1.024  1.9715 -0.8792  1.7371
 8642TIP3   OH225866   5.644   0.560   4.085  0.3291 -0.0154 -0.2849
 8642TIP3    H125867   5.555   0.527   4.100 -0.1525  0.7678 -1.3344
 8642TIP3    H225868   5.633   0.630   4.021  1.5871  0.7756  0.3338
 8643TIP3   OH225869   1.016   4.729   1.556 -0.1347 -0.3919  0.2346
 8643TIP3    H125870   0.973   4.741   1.471 -0.1217  0.4705  0.3471
 8643TIP3    H225871   1.102   4.768   1.545 -0.2732  0.0610  0.7660
 8644TIP3   OH225872   0.711   6.476   5.876  0.1991  0.1564 -0.0583
 8644TIP3    H125873   0.686   6.449   5.788 -0.2437 -3.6218  1.0448
 8644TIP3    H225874   0.629   6.482   5.924  0.5427  0.6673  0.4869
 8645TIP3   OH225875   1.084   3.590   1.070  0.1985 -0.1463 -0.6385
 8645TIP3    H125876   1.153   3.626   1.126 -0.3659  1.6032 -0.9804
 8645TIP3    H225877   1.004   3.600   1.122 -0.0087 -0.7385 -0.8358
 8646TIP3   OH225878   1.654   7.163   0.960 -0.4807  0.3882 -0.1234
 8646TIP3    H125879   1.660   7.067   0.958 -0.5492  0.3855 -0.2300
 8646TIP3    H225880   1.589   7.181   1.028 -1.1649  0.3234 -0.7541
 8647TIP3   OH225881   0.369   4.269   3.806  0.1019 -0.2718 -0.2910
 8647TIP3    H125882   0.371   4.184   3.762 -0.6730 -1.6737  2.1643
 8647TIP3    H225883   0.451   4.312   3.780 -0.6580 -0.5524 -3.6699
 8648TIP3   OH225884   6.306   3.385   1.867  0.3394  0.2699  0.1124
 8648TIP3    H125885   6.268   3.362   1.782 -1.5817  0.4144  0.8884
 8648TIP3    H225886   6.325   3.478   1.860 -1.9073  0.8301  0.5192
 8649TIP3   OH225887   3.046   2.370   0.921 -0.5977 -0.2223  0.0205
 8649TIP3    H125888   3.062   2.275   0.920 -0.5894 -0.2232 -0.6922
 8649TIP3    H225889   3.099   2.403   0.848 -1.4980  0.1674 -0.4739
 8650TIP3   OH225890   4.016   4.869   3.855  0.3523  0.4434  0.5333
 8650TIP3    H125891   3.993   4.827   3.938 -0.6132 -1.0472 -0.4533
 8650TIP3    H225892   4.109   4.887   3.863  0.8463 -1.9537  1.0243
 8651TIP3   OH225893   1.038   3.854   3.908 -0.7213  0.0447  0.2724
 8651TIP3    H125894   0.996   3.826   3.990 -2.2272  0.5448 -0.3019
 8651TIP3    H225895   1.097   3.782   3.886 -1.4298 -0.7843  1.0062
 8652TIP3   OH225896   2.081   1.728   1.825 -0.2509  0.1748 -0.1061
 8652TIP3    H125897   2.088   1.671   1.748  1.4129  1.0936 -0.6850
 8652TIP3    H225898   2.062   1.814   1.789 -1.9183  0.1743  0.7065
 8653TIP3   OH225899   1.417   1.698   2.430 -0.3210  0.4291  0.2193
 8653TIP3    H125900   1.400   1.620   2.484  0.5569 -0.2265 -0.4269
 8653TIP3    H225901   1.506   1.686   2.398 -0.4021  1.4015 -0.3975
 8654TIP3   OH225902   0.581   6.004   3.656  0.4930 -0.1773  0.1254
 8654TIP3    H125903   0.549   5.916   3.640 -3.5061  0.9755  0.7660
 8654TIP3    H225904   0.541   6.057   3.587  1.5652  1.3941  0.6377
 8655TIP3   OH225905   1.070   3.509   4.776 -0.0395  0.0695  0.0178
 8655TIP3    H125906   1.156   3.519   4.735  0.1182 -0.8327  0.1153
 8655TIP3    H225907   1.090   3.505   4.870  0.1777 -3.2548 -0.0580
 8656TIP3   OH225908   4.694   5.260   5.042 -0.3463  0.3402  0.0450
 8656TIP3    H125909   4.636   5.187   5.064  0.1846  0.2213  1.0843
 8656TIP3    H225910   4.706   5.307   5.124 -0.3780  1.3888 -0.5372
 8657TIP3   OH225911   5.651   2.972   1.137  0.1332 -0.3743 -0.2933
 8657TIP3    H125912   5.742   2.982   1.164 -0.1626 -0.2355  0.6925
 8657TIP3    H225913   5.601   3.016   1.206 -0.6938 -0.7232 -0.6610
 8658TIP3   OH225914   0.149   6.061   6.326  0.1450  0.1688  0.0690
 8658TIP3    H125915   0.124   6.034   6.238 -0.5525 -0.7827  0.5442
 8658TIP3    H225916   0.127   6.154   6.330 -0.0663  0.1554 -0.6766
 8659TIP3   OH225917   3.818   5.295   1.174  0.5020  0.4221  0.0686
 8659TIP3    H125918   3.770   5.236   1.116 -0.3769  0.4339  0.7583
 8659TIP3    H225919   3.868   5.238   1.231  1.4779  0.4133 -0.7700
 8660TIP3   OH225920   0.548   3.038   5.389  0.9288  0.3951 -0.1789
 8660TIP3    H125921   0.465   3.085   5.382  0.5464 -0.1973  0.3023
 8660TIP3    H225922   0.579   3.031   5.299  0.3663  0.4590 -0.3798
 8661TIP3   OH225923   2.540   5.900   1.889 -0.0832  0.1752 -0.0420
 8661TIP3    H125924   2.629   5.870   1.869 -0.0238 -0.0899  0.5890
 8661TIP3    H225925   2.552   5.983   1.935 -0.1781  0.3367 -0.3099
 8662TIP3   OH225926   7.455   5.246   2.745  0.7760 -0.4767 -0.0512
 8662TIP3    H125927   7.458   5.161   2.789  2.4411 -1.0127 -1.0710
 8662TIP3    H225928   7.505   5.305   2.802  1.7636 -0.8343 -0.5175
 8663TIP3   OH225929   4.759   3.594   4.834  0.0946  0.2480  0.3602
 8663TIP3    H125930   4.731   3.547   4.913  0.7780  0.8006  0.9401
 8663TIP3    H225931   4.854   3.596   4.839  0.0716  2.3563  0.7557
 8664TIP3   OH225932   3.576   5.102   6.865 -0.5161 -0.4283 -0.3353
 8664TIP3    H125933   3.626   5.156   6.804 -2.3682  1.4482 -0.3093
 8664TIP3    H225934   3.641   5.043   6.904  1.6257  1.6818 -0.4818
 8665TIP3   OH225935   6.021   0.121   4.720 -0.3358  0.3495 -0.1672
 8665TIP3    H125936   6.002   0.031   4.693 -0.5120 -0.2212  1.7163
 8665TIP3    H225937   5.943   0.170   4.693 -0.0513  0.0446 -1.6087
 8666TIP3   OH225938   6.968   3.666   3.323 -0.6700  1.2786  0.2822
 8666TIP3    H125939   7.056   3.655   3.286  0.1707  0.5569  2.3661
 8666TIP3    H225940   6.910   3.621   3.262  0.8242 -1.1357  0.5385
 8667TIP3   OH225941   3.697   3.119   0.920 -0.0134 -0.4467 -0.0857
 8667TIP3    H125942   3.686   3.142   0.828  1.1664  1.2164  0.1469
 8667TIP3    H225943   3.781   3.074   0.924  0.2362  0.0373  0.2548
 8668TIP3   OH225944   6.207   6.522   4.296  0.5220  0.1430  0.6826
 8668TIP3    H125945   6.240   6.433   4.309  3.4623  0.9286 -0.5215
 8668TIP3    H225946   6.115   6.510   4.271  0.8211 -2.5494  0.5761
 8669TIP3   OH225947   6.940   1.047   5.513  0.3971  0.8156 -0.0057
 8669TIP3    H125948   6.919   1.090   5.430  0.3412  1.8397  0.5163
 8669TIP3    H225949   7.032   1.021   5.504  1.0571  2.8176  0.3608
 8670TIP3   OH225950   6.076   2.147   3.535  0.4931 -0.1017 -0.5281
 8670TIP3    H125951   6.026   2.198   3.599  1.0787  0.4868 -0.5250
 8670TIP3    H225952   6.103   2.068   3.582  1.7074  0.7423  0.2738
 8671TIP3   OH225953   6.933   0.140   0.032 -0.5409  0.1169  0.1743
 8671TIP3    H125954   6.890   0.205  -0.024 -0.7078  0.0313  0.2026
 8671TIP3    H225955   6.864   0.109   0.090 -0.4698 -0.1101  0.1381
 8672TIP3   OH225956   6.104   0.725   2.616  0.2720 -0.4467  0.0296
 8672TIP3    H125957   6.063   0.772   2.543 -0.7327 -0.7742  0.3592
 8672TIP3    H225958   6.190   0.764   2.625 -0.4518  1.1827  0.1634
 8673TIP3   OH225959   7.135   3.720   6.751 -0.3237  0.0510 -0.3037
 8673TIP3    H125960   7.223   3.685   6.737  0.2650  0.7468  1.4553
 8673TIP3    H225961   7.085   3.688   6.676  0.6655 -2.8367  0.1371
 8674TIP3   OH225962   3.004   2.883   4.787  0.3766 -0.1365 -0.1568
 8674TIP3    H125963   3.039   2.840   4.709  1.6694 -2.1112  1.4187
 8674TIP3    H225964   2.930   2.828   4.813 -0.1154  0.5717 -0.0438
 8675TIP3   OH225965   5.167   4.355   1.144  0.2138 -0.1184 -0.0695
 8675TIP3    H125966   5.087   4.328   1.188 -0.6242  0.2106 -1.3585
 8675TIP3    H225967   5.229   4.283   1.161 -0.0249  0.0400  1.6903
 8676TIP3   OH225968   7.614   2.931   3.145  0.4664 -0.2079 -0.2915
 8676TIP3    H125969   7.638   2.972   3.062 -0.4537 -0.6405 -0.7859
 8676TIP3    H225970   7.637   2.839   3.135  1.5969 -0.0318  0.4492
 8677TIP3   OH225971   8.259   1.493   6.031  0.2989  0.0993 -0.4717
 8677TIP3    H125972   8.327   1.426   6.036  0.4916  0.3454  0.2964
 8677TIP3    H225973   8.201   1.475   6.104 -0.7100 -0.3568 -1.3691
 8678TIP3   OH225974   6.530   4.028   2.495 -0.0056 -0.4714 -0.8014
 8678TIP3    H125975   6.581   4.077   2.560 -1.8742 -0.5435  0.8446
 8678TIP3    H225976   6.528   4.086   2.419 -0.4383  1.1552  0.3682
 8679TIP3   OH225977   6.186   0.001   1.597 -0.1357 -0.0737 -0.8303
 8679TIP3    H125978   6.139  -0.006   1.513  1.2666  0.9734 -1.7531
 8679TIP3    H225979   6.141   0.071   1.644 -2.3667 -2.1439  0.3538
 8680TIP3   OH225980   0.790   3.182   5.169  0.2567 -0.5928 -0.2158
 8680TIP3    H125981   0.789   3.247   5.239 -0.3164 -0.8683  0.0410
 8680TIP3    H225982   0.712   3.202   5.117  0.4988 -0.5962 -0.5829
 8681TIP3   OH225983   4.513   3.771   6.429  0.2130  0.1588  0.1788
 8681TIP3    H125984   4.524   3.849   6.375 -2.7321  0.5022 -0.0816
 8681TIP3    H225985   4.501   3.804   6.518 -0.1564 -0.0424  0.2073
 8682TIP3   OH225986   2.047   3.454   4.077  0.6221 -0.0475 -1.0462
 8682TIP3    H125987   2.035   3.546   4.055 -0.1233  0.0992 -0.1055
 8682TIP3    H225988   2.141   3.445   4.094  0.7471  0.4585 -1.4662
 8683TIP3   OH225989   1.811   4.127   5.860  0.2755  0.1636  0.2477
 8683TIP3    H125990   1.732   4.178   5.879  0.8568  1.1277  0.0852
 8683TIP3    H225991   1.795   4.091   5.773  0.0402  0.3954  0.1940
 8684TIP3   OH225992   3.438   4.520   5.657 -0.2567 -0.2850  0.6959
 8684TIP3    H125993   3.364   4.496   5.600 -0.9817  0.8277  1.1124
 8684TIP3    H225994   3.422   4.472   5.738 -1.7569  1.5421  1.5671
 8685TIP3   OH225995   5.456   7.160   3.496  0.5169 -0.1756  0.6746
 8685TIP3    H125996   5.392   7.094   3.523  0.4791 -1.8888 -2.9978
 8685TIP3    H225997   5.539   7.129   3.532  0.3728 -1.9353 -0.4144
 8686TIP3   OH225998   3.192   5.259   2.269 -0.6081  0.0026 -0.4830
 8686TIP3    H125999   3.209   5.221   2.355  0.9045 -0.5349 -0.9919
 8686TIP3    H226000   3.247   5.338   2.266 -2.0105  1.0256 -0.3019
 8687TIP3   OH226001   4.469   1.790   2.938  0.0890 -0.1543  0.3050
 8687TIP3    H126002   4.392   1.819   2.987  0.0829  0.8167 -0.2493
 8687TIP3    H226003   4.543   1.811   2.996 -0.0369 -0.8637  0.7342
 8688TIP3   OH226004   5.297   2.879   1.071  0.0620 -0.3870  0.1285
 8688TIP3    H126005   5.307   2.910   1.161 -0.8944  1.5536 -0.3734
 8688TIP3    H226006   5.216   2.828   1.072  1.4747 -2.7852  0.8909
 8689TIP3   OH226007   6.896   4.379   3.438 -0.0970  0.0248 -0.0033
 8689TIP3    H126008   6.892   4.426   3.521 -0.0987  0.0352 -0.0093
 8689TIP3    H226009   6.824   4.316   3.442 -0.3753  0.3318 -0.1841
 8690TIP3   OH226010   3.882   3.684  -0.009 -0.3573 -0.4864 -0.1452
 8690TIP3    H126011   3.978   3.685  -0.006 -0.2330  1.0829 -2.0911
 8690TIP3    H226012   3.856   3.766   0.033 -0.7829 -0.4647 -0.4463
 8691TIP3   OH226013   3.556   1.740   3.741  0.2606  0.3610 -0.1412
 8691TIP3    H126014   3.514   1.679   3.680  0.4584 -0.8871  0.9263
 8691TIP3    H226015   3.488   1.804   3.762 -1.2371 -1.7207  1.6801
 8692TIP3   OH226016   0.375   5.758   4.740 -0.2689  0.1066  0.0003
 8692TIP3    H126017   0.404   5.844   4.771 -0.1338  1.9593 -4.4421
 8692TIP3    H226018   0.456   5.710   4.723 -0.1659  0.5086 -0.7296
 8693TIP3   OH226019   1.308   2.138   0.104 -0.0956 -0.4907 -0.1574
 8693TIP3    H126020   1.216   2.111   0.099  0.3976 -2.3922  0.4694
 8693TIP3    H226021   1.335   2.147   0.013 -0.9951  0.4791 -0.3492
 8694TIP3   OH226022   1.633   5.687   1.072  0.1550  0.2688  0.3028
 8694TIP3    H126023   1.616   5.779   1.094  0.9148  0.2583  1.0033
 8694TIP3    H226024   1.721   5.687   1.033 -0.1947 -0.0523 -0.4993
 8695TIP3   OH226025   0.165   2.855   1.498  0.6175 -0.6936 -0.1762
 8695TIP3    H126026   0.234   2.866   1.432  0.1661  0.8227 -0.4253
 8695TIP3    H226027   0.095   2.914   1.471  0.4003 -0.0432  1.6342
 8696TIP3   OH226028   0.004   3.650   1.749  0.1899 -0.4368  0.2477
 8696TIP3    H126029   0.089   3.669   1.790  0.4496 -0.3597 -0.3167
 8696TIP3    H226030  -0.037   3.736   1.737  0.0065 -0.4783  0.5714
 8697TIP3   OH226031   3.660   7.320   2.370 -0.1594  0.5015 -0.2692
 8697TIP3    H126032   3.709   7.241   2.347 -1.1731 -0.2884  0.2110
 8697TIP3    H226033   3.681   7.383   2.301 -1.3775 -1.0604 -2.1745
 8698TIP3   OH226034   5.126   6.700   2.295 -0.5083  0.1651 -0.3485
 8698TIP3    H126035   5.146   6.712   2.388 -0.0472 -1.2813 -0.2447
 8698TIP3    H226036   5.168   6.774   2.252  0.2071  0.2559  0.4750
 8699TIP3   OH226037   3.307   2.069   4.029  0.1341  0.4239  0.2423
 8699TIP3    H126038   3.259   2.145   3.995  0.4511  0.4462 -0.1616
 8699TIP3    H226039   3.332   2.095   4.117 -0.0208  0.6719  0.2183
 8700TIP3   OH226040   5.870   4.918   1.196  0.0194  0.1174 -0.2842
 8700TIP3    H126041   5.790   4.954   1.235 -0.4372 -0.1518 -0.9533
 8700TIP3    H226042   5.843   4.834   1.159  0.4212  0.3938 -1.2376
 8701TIP3   OH226043   0.759   5.897   0.363 -0.1212  0.3440  0.4686
 8701TIP3    H126044   0.795   5.854   0.440  0.5493  1.1660  0.6234
 8701TIP3    H226045   0.833   5.943   0.324 -0.6879  0.8447 -0.0380
 8702TIP3   OH226046   6.267   2.661   0.840 -0.0753 -0.2099 -0.4282
 8702TIP3    H126047   6.363   2.663   0.843 -0.0701 -0.9024  0.0778
 8702TIP3    H226048   6.246   2.567   0.836 -0.7967 -0.2094  1.9635
 8703TIP3   OH226049   2.220   3.640   0.693  0.4162  0.0110 -0.1565
 8703TIP3    H126050   2.188   3.632   0.782 -2.8130 -0.7890 -1.2807
 8703TIP3    H226051   2.175   3.717   0.658  0.8903 -0.2503 -1.3964
 8704TIP3   OH226052   2.076   2.906   3.335 -0.2811  0.0378 -0.1862
 8704TIP3    H126053   2.165   2.888   3.367 -0.5451 -1.6775 -0.3027
 8704TIP3    H226054   2.070   2.856   3.253 -1.1965  0.5474 -0.4432
 8705TIP3   OH226055   7.485   4.181   1.597 -0.1617  0.2794 -0.1355
 8705TIP3    H126056   7.524   4.208   1.680 -0.1166 -1.5415  0.4873
 8705TIP3    H226057   7.390   4.190   1.611 -0.1915 -0.7176  0.4051
 8706TIP3   OH226058   5.976   0.123   4.395  0.2372  0.3595 -0.4522
 8706TIP3    H126059   5.975   0.217   4.374  0.5812  0.6296  0.6927
 8706TIP3    H226060   5.924   0.115   4.475  1.8500 -0.1171  0.5977
 8707TIP3   OH226061   7.156   3.132   2.110  0.0765  0.1987  0.0694
 8707TIP3    H126062   7.224   3.066   2.124  0.2972  0.4317  0.1007
 8707TIP3    H226063   7.143   3.133   2.015  1.6792  1.6997 -0.1794
 8708TIP3   OH226064   4.545   4.540   0.645  0.3327 -0.9201 -0.4506
 8708TIP3    H126065   4.449   4.535   0.650  0.4147 -1.4285  1.0794
 8708TIP3    H226066   4.576   4.492   0.721  1.8256 -0.7535 -0.9117
 8709TIP3   OH226067   3.887   2.218   4.078  0.0845 -0.1889 -0.3880
 8709TIP3    H126068   3.875   2.207   4.172 -1.9538 -0.7973 -0.6629
 8709TIP3    H226069   3.858   2.308   4.061  0.3417 -0.1186 -0.4641
 8710TIP3   OH226070   0.793   6.415   0.331  0.0123 -0.4407  0.1449
 8710TIP3    H126071   0.806   6.488   0.270  0.7691  0.8439  1.7866
 8710TIP3    H226072   0.698   6.416   0.349 -0.1712 -0.6499 -0.7590
 8711TIP3   OH226073   8.073   0.387   5.947 -0.0300  0.7110  0.5547
 8711TIP3    H126074   8.023   0.339   6.013 -1.2261  0.0716 -0.7497
 8711TIP3    H226075   8.058   0.479   5.967 -0.5758  0.5225  1.0283
 8712TIP3   OH226076   2.522   2.733   0.978 -0.4596 -0.1441  0.0807
 8712TIP3    H126077   2.567   2.805   0.934 -2.2386  1.5345  0.8569
 8712TIP3    H226078   2.532   2.753   1.072 -2.5618  0.1673  0.2709
 8713TIP3   OH226079   6.635   3.106   4.798  0.3386 -0.0964  0.4515
 8713TIP3    H126080   6.712   3.095   4.853  2.5711  0.7172 -2.2884
 8713TIP3    H226081   6.581   3.029   4.816  3.0256 -2.0497  0.6332
 8714TIP3   OH226082   7.324   2.617   0.062 -0.4807  0.1086 -0.3236
 8714TIP3    H126083   7.382   2.628  -0.013  0.5344  1.0586  0.5536
 8714TIP3    H226084   7.356   2.681   0.126 -2.9480  1.1931 -0.0549
 8715TIP3   OH226085   0.294   7.922   0.622 -0.5237  0.6292  0.1075
 8715TIP3    H126086   0.249   7.847   0.662 -0.3231  0.3751 -0.1416
 8715TIP3    H226087   0.380   7.923   0.665 -0.3270  0.3881 -0.2786
 8716TIP3   OH226088   2.137   7.188   4.579  0.4133 -0.0423  0.2247
 8716TIP3    H126089   2.134   7.274   4.621 -1.9585  0.0685 -0.0239
 8716TIP3    H226090   2.048   7.174   4.546  0.7326 -2.5835  0.2030
 8717TIP3   OH226091   7.039   4.944   1.142 -0.4405 -0.0774 -0.1342
 8717TIP3    H126092   6.966   5.006   1.137 -0.7803 -0.4524  0.0636
 8717TIP3    H226093   7.117   4.999   1.149 -0.7694  0.3312  0.4349
 8718TIP3   OH226094   4.013   3.224   5.188  0.1694  0.2583  0.4320
 8718TIP3    H126095   4.042   3.307   5.150  0.9914  0.4768  1.5050
 8718TIP3    H226096   4.091   3.187   5.228 -0.2673 -0.8768  0.2775
 8719TIP3   OH226097   4.090   6.104   3.693  0.4770  0.2376 -0.3247
 8719TIP3    H126098   4.172   6.081   3.648  0.8227 -1.4163  1.0170
 8719TIP3    H226099   4.042   6.021   3.697 -0.1424  0.6420  1.0956
 8720TIP3   OH226100   8.105   2.214   3.823  0.0867 -0.1506  0.2588
 8720TIP3    H126101   8.102   2.214   3.727  0.8451 -0.6904  0.2270
 8720TIP3    H226102   8.016   2.239   3.849 -0.1389 -0.0283 -0.5811
 8721TIP3   OH226103   2.973   1.286   6.206 -0.5207  0.3665  0.4744
 8721TIP3    H126104   3.055   1.298   6.159 -0.0767  0.9998  1.4061
 8721TIP3    H226105   2.925   1.222   6.153 -0.1292  1.2198 -0.9674
 8722TIP3   OH226106   6.042   7.921   0.047 -0.2469  0.1422 -0.2562
 8722TIP3    H126107   6.102   7.858   0.087 -0.9657  0.0012  0.6340
 8722TIP3    H226108   6.080   7.939  -0.039 -1.2355 -3.4093 -1.6383
 8723TIP3   OH226109   1.956   0.438   4.141 -0.7929 -0.0735  0.5393
 8723TIP3    H126110   1.878   0.493   4.152 -1.3102 -0.8894  1.0989
 8723TIP3    H226111   1.944   0.366   4.204 -0.1954 -0.8863 -0.2475
 8724TIP3   OH226112   4.644   4.985   2.135 -0.3726 -0.7287  0.0015
 8724TIP3    H126113   4.560   4.964   2.176 -0.3519 -0.5253  0.1527
 8724TIP3    H226114   4.659   5.077   2.157  0.1437 -0.9081  0.4291
 8725TIP3   OH226115   6.616   7.033   2.802 -0.1707 -0.4533 -0.5670
 8725TIP3    H126116   6.543   7.091   2.779  0.2433  1.2897  2.0069
 8725TIP3    H226117   6.686   7.057   2.742 -0.3502  1.0165 -0.2281
 8726TIP3   OH226118   7.912   0.160   6.160  0.1734 -0.0781  0.3189
 8726TIP3    H126119   7.953   0.246   6.170 -0.7030  0.3552  0.2937
 8726TIP3    H226120   7.919   0.120   6.246 -1.8508  1.1508  1.1383
 8727TIP3   OH226121   5.347   7.006   4.096  0.1830 -0.4009 -0.1869
 8727TIP3    H126122   5.398   6.928   4.115 -0.2077 -0.7056 -0.3712
 8727TIP3    H226123   5.396   7.078   4.137  0.2510 -0.8164  0.4724
 8728TIP3   OH226124   5.729   3.408   2.337  0.0645 -0.5038 -0.2659
 8728TIP3    H126125   5.724   3.418   2.242  0.6824  0.1342 -0.2399
 8728TIP3    H226126   5.801   3.346   2.351  1.0046  0.5693 -0.1765
 8729TIP3   OH226127   4.804   5.561   1.527 -0.0500  0.2354 -0.5768
 8729TIP3    H126128   4.837   5.471   1.528  1.5884  0.7307 -2.5867
 8729TIP3    H226129   4.709   5.552   1.540  0.0207 -1.8070 -1.1192
 8730TIP3   OH226130   7.753   7.335   1.532 -0.4269  0.6872 -0.3494
 8730TIP3    H126131   7.732   7.362   1.443 -1.7688 -1.5072 -0.7621
 8730TIP3    H226132   7.674   7.354   1.582  0.4864  2.3604  0.5389
 8731TIP3   OH226133   2.221   6.763   1.980  0.1685  0.2307 -0.1090
 8731TIP3    H126134   2.197   6.671   1.969 -0.4628  0.2740  0.7972
 8731TIP3    H226135   2.142   6.805   2.013  0.6044  1.0028 -0.0155
 8732TIP3   OH226136   5.584   2.154   5.342 -0.1063 -0.2691  0.3912
 8732TIP3    H126137   5.552   2.228   5.290 -1.7693 -0.4302  1.1257
 8732TIP3    H226138   5.582   2.185   5.432 -0.7019 -1.1402  0.6976
 8733TIP3   OH226139   7.503   3.030   3.445  0.4973  0.0513  0.4649
 8733TIP3    H126140   7.424   3.014   3.496 -0.5119  0.9691 -0.7240
 8733TIP3    H226141   7.562   3.075   3.505  1.0259 -2.5208  2.0215
 8734TIP3   OH226142   7.992   2.944   5.470 -0.3836  0.0664  0.5048
 8734TIP3    H126143   8.058   3.014   5.470  0.3137 -0.5831  0.5300
 8734TIP3    H226144   7.986   2.917   5.561 -0.7112  0.1350  0.5062
 8735TIP3   OH226145   1.976   0.169   6.622 -0.3257 -0.4989 -0.2322
 8735TIP3    H126146   1.910   0.236   6.606 -2.0741 -2.3883 -1.5770
 8735TIP3    H226147   2.010   0.146   6.535  0.3302 -1.2420  0.1978
 8736TIP3   OH226148   4.855   0.939   0.932 -0.1662  0.2984 -0.2191
 8736TIP3    H126149   4.868   0.901   0.845 -1.3358 -1.0953  0.1684
 8736TIP3    H226150   4.864   1.033   0.919  2.6244 -0.0392 -1.2779
 8737TIP3   OH226151   3.775   4.494   4.881  0.4177  0.0781  0.2268
 8737TIP3    H126152   3.749   4.536   4.963 -2.0248 -0.1220 -0.3776
 8737TIP3    H226153   3.792   4.566   4.821 -1.4825  0.2819 -0.1305
 8738TIP3   OH226154   6.508   1.133   2.011 -0.3995  0.1671  0.2691
 8738TIP3    H126155   6.429   1.079   2.012 -0.7453  0.6591  0.1801
 8738TIP3    H226156   6.572   1.084   2.063 -0.4896 -0.6339 -0.3584
 8739TIP3   OH226157   0.398   5.801   1.220 -0.2083 -0.1825  0.3352
 8739TIP3    H126158   0.478   5.839   1.185 -0.7504  0.1693 -0.5558
 8739TIP3    H226159   0.355   5.762   1.145  0.4520 -2.8717  1.2507
 8740TIP3   OH226160   7.063   0.093   0.424  0.1491 -0.1410 -0.0572
 8740TIP3    H126161   7.029   0.110   0.512  1.8809  0.8312  0.4900
 8740TIP3    H226162   7.004   0.140   0.366 -0.3233  0.2304  0.7090
 8741TIP3   OH226163   1.278   5.329   4.923 -0.0379 -0.0780 -0.2026
 8741TIP3    H126164   1.211   5.264   4.943 -0.7853  0.7153 -0.0973
 8741TIP3    H226165   1.234   5.393   4.867  0.5693  0.5615  0.0353
 8742TIP3   OH226166   5.026   0.419   4.878 -0.7227  0.1164  0.2954
 8742TIP3    H126167   5.092   0.482   4.906 -0.0663 -0.2689 -0.3665
 8742TIP3    H226168   4.950   0.473   4.857 -0.5026  0.5946  0.6967
 8743TIP3   OH226169   4.185   6.459   4.777  0.1228  0.0611 -0.5932
 8743TIP3    H126170   4.278   6.474   4.791 -0.1206  1.2973 -0.2153
 8743TIP3    H226171   4.163   6.387   4.837  0.3856  1.2095  0.9282
 8744TIP3   OH226172   3.521   1.253   0.411  0.5743  0.3845  0.1450
 8744TIP3    H126173   3.488   1.245   0.322  0.1416 -0.3593  0.3659
 8744TIP3    H226174   3.608   1.214   0.409  0.5819  0.4069  0.0459
 8745TIP3   OH226175   7.077   3.436   6.435  0.5828 -0.1370  0.2741
 8745TIP3    H126176   7.084   3.449   6.341 -0.1141  0.0442  0.2470
 8745TIP3    H226177   6.984   3.428   6.452  0.7129 -0.3176  0.9309
 8746TIP3   OH226178   2.828   1.071   2.473 -0.0404 -0.3310 -0.4235
 8746TIP3    H126179   2.818   0.991   2.523  0.3908  0.4942  1.0266
 8746TIP3    H226180   2.923   1.086   2.468 -0.0806 -0.3109 -1.3527
 8747TIP3   OH226181   2.037   2.863   6.702  0.1283  0.3141 -0.8764
 8747TIP3    H126182   2.078   2.783   6.734 -0.2117 -0.6849 -2.8082
 8747TIP3    H226183   2.110   2.920   6.678  0.3681  0.3198 -0.1509
 8748TIP3   OH226184   3.992   2.680   2.183 -0.2997 -0.4792  0.0979
 8748TIP3    H126185   4.024   2.770   2.179  1.6046 -1.1599 -1.4756
 8748TIP3    H226186   4.069   2.626   2.168 -1.2925 -2.4364  1.4992
 8749TIP3   OH226187   2.261   5.870   4.648 -0.0247  0.1757 -0.3784
 8749TIP3    H126188   2.332   5.915   4.603  0.5720 -0.8722 -0.5219
 8749TIP3    H226189   2.209   5.940   4.687  1.3747  0.9551  0.1748
 8750TIP3   OH226190   7.713   2.406   2.742  0.2826 -0.6467 -0.0329
 8750TIP3    H126191   7.761   2.482   2.711 -0.8873  0.0399 -0.2139
 8750TIP3    H226192   7.663   2.438   2.817  1.2176 -1.7011  1.0853
 8751TIP3   OH226193   4.774   1.254   1.617 -0.3101 -0.1423  0.3498
 8751TIP3    H126194   4.777   1.346   1.643 -0.8294 -0.3914  1.3359
 8751TIP3    H226195   4.866   1.229   1.608 -0.1644  0.7194 -0.9106
 8752TIP3   OH226196   6.562   5.740   0.901 -0.5256 -1.3175  0.3505
 8752TIP3    H126197   6.483   5.783   0.935  0.0697 -0.5324  0.7820
 8752TIP3    H226198   6.600   5.696   0.977  0.5181 -0.0144  0.6071
 8753TIP3   OH226199   7.480   1.532   5.807  0.5171 -0.0104 -0.3041
 8753TIP3    H126200   7.414   1.597   5.832  1.0062  0.6324 -0.6643
 8753TIP3    H226201   7.429   1.462   5.765 -0.4313 -1.4718  2.9752
 8754TIP3   OH226202   3.631   6.841   2.903  0.1084  0.1214  0.0238
 8754TIP3    H126203   3.706   6.837   2.962  0.3720 -1.0668 -0.3687
 8754TIP3    H226204   3.563   6.885   2.954  0.8698  0.6614  0.5939
 8755TIP3   OH226205   1.041   0.951   2.991 -0.1436 -0.0956  0.4106
 8755TIP3    H126206   1.101   0.889   3.032  0.6844  1.1311  1.0984
 8755TIP3    H226207   1.097   1.024   2.963 -0.9837  0.0387 -1.0472
 8756TIP3   OH226208   1.850   5.947   0.797  0.9291  0.4194  0.3827
 8756TIP3    H126209   1.865   6.040   0.781  0.6275  0.6627  1.3978
 8756TIP3    H226210   1.904   5.927   0.874  2.4455 -0.7119 -0.9260
 8757TIP3   OH226211   0.916   1.701   6.858 -0.1647  0.3567  0.0837
 8757TIP3    H126212   0.911   1.781   6.805 -0.7014  0.7878  0.7749
 8757TIP3    H226213   0.828   1.689   6.893 -0.9418 -2.2460 -2.4275
 8758TIP3   OH226214   2.180   0.087   6.228  0.5633 -0.0531  0.1165
 8758TIP3    H126215   2.122   0.157   6.259  1.6895  1.0095 -0.0954
 8758TIP3    H226216   2.264   0.105   6.270  1.3699 -0.2042 -1.3665
 8759TIP3   OH226217   7.072   1.649   4.730 -0.4129  0.1135  0.1194
 8759TIP3    H126218   7.020   1.726   4.756 -0.5155 -0.1417  0.6951
 8759TIP3    H226219   7.159   1.666   4.765 -0.0929  0.5489 -0.8621
 8760TIP3   OH226220   4.479   5.446   3.508  0.0548 -0.4249 -0.2847
 8760TIP3    H126221   4.525   5.413   3.585  0.9546  0.3701 -0.4618
 8760TIP3    H226222   4.412   5.505   3.543  1.5473  1.2715 -0.1180
 8761TIP3   OH226223   0.592   1.337   5.319 -0.1051 -0.4030  0.2131
 8761TIP3    H126224   0.680   1.357   5.350 -0.5659  2.2321  0.1123
 8761TIP3    H226225   0.594   1.360   5.226 -0.6802 -1.1456  0.0061
 8762TIP3   OH226226   7.834   5.129   4.620  0.1772 -0.0989 -0.2457
 8762TIP3    H126227   7.929   5.126   4.612  0.0467 -0.2798 -1.9638
 8762TIP3    H226228   7.815   5.080   4.700  1.4246 -1.5228 -0.7833
 8763TIP3   OH226229   4.460   3.382   1.666  0.4776 -0.2458 -0.2998
 8763TIP3    H126230   4.476   3.300   1.715  1.7853  0.0394 -0.2044
 8763TIP3    H226231   4.448   3.354   1.576  1.8745 -0.5075 -0.4350
 8764TIP3   OH226232   0.564   0.978   0.519 -0.7737 -0.5559  0.1375
 8764TIP3    H126233   0.471   0.993   0.533 -0.7771 -0.0550 -0.4176
 8764TIP3    H226234   0.574   0.971   0.424 -0.3054 -0.9995  0.2120
 8765TIP3   OH226235   7.269   7.530   3.279  0.6731 -0.1482  0.3295
 8765TIP3    H126236   7.359   7.557   3.296  1.3103 -2.7123  1.4449
 8765TIP3    H226237   7.239   7.491   3.361 -0.5319 -1.6568 -0.7531
 8766TIP3   OH226238   1.584   2.785   6.018  0.1636  0.5956  0.1149
 8766TIP3    H126239   1.493   2.780   6.048  0.1079 -1.0725 -0.2393
 8766TIP3    H226240   1.619   2.697   6.032  0.3863 -0.1200 -3.9121
 8767TIP3   OH226241   2.370   5.868   2.954 -0.2039  0.0820  0.0413
 8767TIP3    H126242   2.416   5.844   3.035  0.1354  0.4744 -0.0325
 8767TIP3    H226243   2.283   5.896   2.983  0.2765  1.2899  0.3967
 8768TIP3   OH226244   6.327   0.684   5.607  0.5382 -0.3018  0.3566
 8768TIP3    H126245   6.312   0.597   5.571  0.1055 -1.1095  2.3218
 8768TIP3    H226246   6.240   0.712   5.637  0.1978  1.8785 -2.3471
 8769TIP3   OH226247   1.742   5.659   0.739  0.0894  0.0182  0.3249
 8769TIP3    H126248   1.737   5.598   0.665  0.2927 -0.5401  0.7662
 8769TIP3    H226249   1.674   5.724   0.721  0.1482 -0.1071 -0.3611
 8770TIP3   OH226250   1.122   6.635   5.823 -0.2356 -0.5061 -0.3951
 8770TIP3    H126251   1.205   6.682   5.827  0.3928 -1.5991 -0.2817
 8770TIP3    H226252   1.078   6.670   5.745  1.1424 -1.2076 -1.5378
 8771TIP3   OH226253   2.022   2.243   2.357  0.5576 -0.4944  0.9466
 8771TIP3    H126254   2.061   2.244   2.445 -1.9546 -1.0846  2.1739
 8771TIP3    H226255   1.996   2.152   2.343  0.1932 -0.2542 -0.0622
 8772TIP3   OH226256   7.613   6.400   1.137 -0.8206  0.4731 -0.0411
 8772TIP3    H126257   7.671   6.466   1.175 -1.1817  1.8907 -1.8558
 8772TIP3    H226258   7.644   6.390   1.047 -0.8162 -1.8247  0.1565
 8773TIP3   OH226259   8.339   4.980   6.474 -0.9176 -0.0945 -0.0969
 8773TIP3    H126260   8.404   5.016   6.414 -0.3714  0.5207  0.8634
 8773TIP3    H226261   8.358   4.886   6.476 -0.7255 -0.0708 -0.6215
 8774TIP3   OH226262   6.685   3.283   4.243 -0.0751  0.0427 -0.2875
 8774TIP3    H126263   6.761   3.342   4.238 -0.1288  0.2543  1.0054
 8774TIP3    H226264   6.610   3.342   4.254 -0.3062 -0.2175 -0.4407
 8775TIP3   OH226265   0.436   0.362   0.613  0.5227 -0.1168  0.2789
 8775TIP3    H126266   0.429   0.433   0.676  3.0907 -0.3479  0.9010
 8775TIP3    H226267   0.492   0.397   0.544  0.1595 -0.8800 -0.4197
 8776TIP3   OH226268   6.328   5.543   3.178 -0.1042 -0.0180  0.4290
 8776TIP3    H126269   6.260   5.479   3.198  2.3598 -3.0440 -0.2279
 8776TIP3    H226270   6.284   5.609   3.125 -2.5417 -1.7293  0.1857
 8777TIP3   OH226271   6.967   1.478   2.754 -0.3869  0.1143 -0.7012
 8777TIP3    H126272   6.951   1.439   2.840 -2.7509  0.2459 -0.9915
 8777TIP3    H226273   6.919   1.422   2.693 -0.3872  1.1255 -1.6693
 8778TIP3   OH226274   1.245   2.640   3.186 -0.2309 -0.4429  0.1627
 8778TIP3    H126275   1.223   2.612   3.097  0.3874  0.1537 -0.1877
 8778TIP3    H226276   1.203   2.725   3.195  0.2057 -0.2360  0.2311
 8779TIP3   OH226277   2.269   6.442   3.450  0.0881 -0.6328  0.1781
 8779TIP3    H126278   2.200   6.453   3.515 -0.5546 -2.3286 -0.1714
 8779TIP3    H226279   2.345   6.414   3.500 -0.7618 -3.2401  0.1426
 8780TIP3   OH226280   6.613   3.837   5.020  0.4905 -1.0204 -0.0258
 8780TIP3    H126281   6.694   3.850   4.969  0.4593 -0.6041  0.0227
 8780TIP3    H226282   6.576   3.925   5.027 -0.6301 -1.3836 -1.1222
 8781TIP3   OH226283   3.810   0.093   5.244  0.2506 -0.0370 -0.5502
 8781TIP3    H126284   3.741   0.151   5.275  0.1707 -1.0114  1.2316
 8781TIP3    H226285   3.861   0.146   5.183 -1.2602  1.1107 -0.8695
 8782TIP3   OH226286   6.542   0.784   1.241  0.0090  0.7186  0.1740
 8782TIP3    H126287   6.592   0.757   1.318  0.1038  2.6474  0.8535
 8782TIP3    H226288   6.607   0.822   1.182 -0.2842  0.8186 -0.0900
 8783TIP3   OH226289   7.401   2.471   3.301 -0.1582  0.0708  0.0513
 8783TIP3    H126290   7.440   2.407   3.242  0.9595  1.9500 -1.3413
 8783TIP3    H226291   7.325   2.505   3.254  0.6182  1.4325 -0.2656
 8784TIP3   OH226292   4.266   5.841   2.809 -0.2772 -0.1364 -0.2023
 8784TIP3    H126293   4.262   5.777   2.738 -1.1693 -1.1026  0.6969
 8784TIP3    H226294   4.208   5.911   2.782  1.2260  0.6613 -1.5096
 8785TIP3   OH226295   6.217   7.738   3.920  0.3168  0.1691  0.1482
 8785TIP3    H126296   6.244   7.688   3.843  1.1054  1.6829 -0.5877
 8785TIP3    H226297   6.298   7.776   3.954  0.0534 -0.8227  2.0189
 8786TIP3   OH226298   1.927   4.557   1.928  0.3511  0.4481  0.6212
 8786TIP3    H126299   1.978   4.627   1.969 -1.0948  1.2867  1.0799
 8786TIP3    H226300   1.876   4.519   2.000 -0.5346  0.4333  0.0074
 8787TIP3   OH226301   6.813   4.141   0.066 -0.3026  0.0919  0.4714
 8787TIP3    H126302   6.795   4.067   0.125 -2.3011  0.2798  0.1740
 8787TIP3    H226303   6.823   4.216   0.125 -1.7729  0.1857  0.6404
 8788TIP3   OH226304   7.487   6.511   6.777  0.0281 -0.0310  0.5489
 8788TIP3    H126305   7.566   6.537   6.730  0.7800 -1.4818  0.9480
 8788TIP3    H226306   7.418   6.566   6.741  1.3696  1.9417  0.8542
 8789TIP3   OH226307   5.340   1.497   2.846  0.1989  0.1340  0.1347
 8789TIP3    H126308   5.362   1.422   2.790  1.3761  0.8511 -0.4229
 8789TIP3    H226309   5.372   1.573   2.797 -1.2045  1.0401  0.5626
 8790TIP3   OH226310   0.163   0.125   4.799 -0.4552  0.0750 -0.4365
 8790TIP3    H126311   0.225   0.147   4.729 -0.1548 -0.8826 -0.4788
 8790TIP3    H226312   0.083   0.174   4.776 -0.3774 -0.2475 -1.4700
 8791TIP3   OH226313   5.238   3.654   4.766  0.4704  0.1066 -0.0408
 8791TIP3    H126314   5.175   3.685   4.830 -0.7356  0.0136 -1.1576
 8791TIP3    H226315   5.201   3.572   4.733  0.7962  0.4362 -1.2630
 8792TIP3   OH226316   0.720   5.069   3.761  0.3381 -0.7565  0.3505
 8792TIP3    H126317   0.675   4.988   3.738  0.1123 -0.4344 -0.3645
 8792TIP3    H226318   0.752   5.054   3.850  0.6259 -1.7653  0.0900
 8793TIP3   OH226319   4.552   1.710   3.241  0.3241  0.2644  0.4520
 8793TIP3    H126320   4.551   1.754   3.326 -1.3122  0.8460  0.1588
 8793TIP3    H226321   4.488   1.639   3.249  0.5139  0.0153 -0.1458
 8794TIP3   OH226322   5.491   3.986   4.449 -0.8105  0.1074 -0.0844
 8794TIP3    H126323   5.494   4.074   4.488  1.6343  0.3237 -0.6212
 8794TIP3    H226324   5.422   3.941   4.498 -1.6987  2.1079  0.6265
 8795TIP3   OH226325   0.151   6.765   3.074  0.2070  0.4565 -0.0308
 8795TIP3    H126326   0.167   6.859   3.064 -0.9828  0.6177 -0.5139
 8795TIP3    H226327   0.122   6.756   3.165 -1.0072  0.7608 -0.3777
 8796TIP3   OH226328   2.977   3.080   3.886  0.2179  0.6025  0.2415
 8796TIP3    H126329   3.009   3.165   3.914 -0.1151  1.3654 -1.5746
 8796TIP3    H226330   2.899   3.064   3.939  0.4182  1.3158  0.7554
 8797TIP3   OH226331   1.408   4.307   4.297 -0.1797 -0.0221  0.3411
 8797TIP3    H126332   1.368   4.284   4.381  0.7505 -0.8994  0.5656
 8797TIP3    H226333   1.501   4.288   4.309  0.1535  0.9611 -0.5148
 8798TIP3   OH226334   8.058   6.195   3.070  0.4460 -0.6743 -1.0902
 8798TIP3    H126335   8.120   6.251   3.023 -0.0295  0.3320 -0.5574
 8798TIP3    H226336   8.113   6.132   3.116  0.9732 -0.9132 -2.0207
 8799TIP3   OH226337   1.142   7.232   0.950  0.4151 -0.1465 -0.1965
 8799TIP3    H126338   1.212   7.221   0.885  0.6754 -0.3658  0.1198
 8799TIP3    H226339   1.188   7.260   1.030  0.5249 -3.2550  0.9389
 8800TIP3   OH226340   7.650   0.901   1.950 -0.4598  0.0730  0.2461
 8800TIP3    H126341   7.686   0.975   1.900  0.0771  0.6810  1.4910
 8800TIP3    H226342   7.592   0.857   1.888 -0.7041  1.4728 -0.5770
 8801TIP3   OH226343   4.820   2.967   1.024 -0.0025  0.2173  0.0626
 8801TIP3    H126344   4.824   3.041   1.085 -2.1736  0.8917 -0.5340
 8801TIP3    H226345   4.735   2.975   0.982 -0.2953 -2.5987 -0.0814
 8802TIP3   OH226346   3.722   3.793   6.039  0.4817  0.0965 -0.0840
 8802TIP3    H126347   3.666   3.834   5.972  0.2440 -2.1290 -1.3558
 8802TIP3    H226348   3.661   3.766   6.107  0.1074 -1.2252 -0.8990
 8803TIP3   OH226349   5.269   5.951   4.789  0.1992 -0.3651  0.2088
 8803TIP3    H126350   5.238   5.893   4.858  2.5133  0.0220  1.6935
 8803TIP3    H226351   5.278   6.036   4.831  0.4062  0.2015 -0.9371
 8804TIP3   OH226352   3.181   0.387   1.319 -0.4613 -0.1821 -0.1874
 8804TIP3    H126353   3.242   0.316   1.338  1.0576  1.4307  1.2704
 8804TIP3    H226354   3.212   0.423   1.236  0.9701  0.9738  0.8121
 8805TIP3   OH226355   7.246   1.827   4.288  0.6117  0.2585 -0.7549
 8805TIP3    H126356   7.269   1.786   4.371 -0.5862  0.3328 -0.3630
 8805TIP3    H226357   7.225   1.918   4.311 -0.8820 -0.0159 -0.9117
 8806TIP3   OH226358   6.965   2.941   2.207 -0.4407  0.3610  0.7379
 8806TIP3    H126359   7.022   3.003   2.162 -1.8453  2.0052  1.1199
 8806TIP3    H226360   6.894   2.995   2.243 -2.5262 -1.6266 -0.1312
 8807TIP3   OH226361   6.006   6.983   3.528  0.3903  0.1579  0.7423
 8807TIP3    H126362   6.102   6.981   3.528  0.5033  0.8974 -2.0806
 8807TIP3    H226363   5.983   7.022   3.612  2.5829  0.4679  1.2697
 8808TIP3   OH226364   3.740   6.973   2.654 -0.1330  0.3291  0.0519
 8808TIP3    H126365   3.824   6.946   2.691  0.5678  3.4318  0.9850
 8808TIP3    H226366   3.686   6.997   2.729 -1.4166 -0.2874 -0.6248
 8809TIP3   OH226367   3.832   1.976   3.291 -0.3851 -0.1862 -0.1459
 8809TIP3    H126368   3.750   1.954   3.246 -1.7618  1.4046  1.4140
 8809TIP3    H226369   3.840   1.910   3.359 -1.0597  0.3639  0.4789
 8810TIP3   OH226370   3.201   0.830   4.318 -0.4470  0.1692  0.3096
 8810TIP3    H126371   3.280   0.776   4.314  1.0942  2.2910  0.1201
 8810TIP3    H226372   3.135   0.774   4.359  0.5361 -2.3693 -1.3420
 8811TIP3   OH226373   4.685   5.054   0.672 -0.1937 -0.4319  0.7663
 8811TIP3    H126374   4.660   4.962   0.683  0.3196 -0.6259  0.3911
 8811TIP3    H226375   4.657   5.097   0.752  1.7006 -1.3864  2.0092
 8812TIP3   OH226376   4.311   6.087   0.224  0.3299 -0.1776  0.4332
 8812TIP3    H126377   4.373   6.094   0.151 -0.6368 -1.0826 -0.5057
 8812TIP3    H226378   4.346   6.146   0.290  2.6502 -1.2871  0.2804
 8813TIP3   OH226379   0.621   5.408   0.795 -0.0547 -0.5601 -0.3254
 8813TIP3    H126380   0.539   5.363   0.814  0.4027 -1.3887 -0.2408
 8813TIP3    H226381   0.603   5.500   0.813 -1.4006 -0.5126 -1.7330
 8814TIP3   OH226382   3.245   4.238   3.603  0.0340 -0.2345 -0.9128
 8814TIP3    H126383   3.329   4.280   3.623  0.0295 -0.0772 -1.2159
 8814TIP3    H226384   3.186   4.311   3.584 -0.2708 -0.3262 -0.3426
 8815TIP3   OH226385   7.280   5.683   0.600  0.3688  0.3278  0.1596
 8815TIP3    H126386   7.299   5.589   0.604  0.8192  0.3489 -1.1140
 8815TIP3    H226387   7.197   5.692   0.647  0.9535 -0.5028  1.4296
 8816TIP3   OH226388   5.007   3.706   5.357  0.6251  0.6483 -0.1010
 8816TIP3    H126389   5.023   3.795   5.327 -0.2703  0.4445 -1.2551
 8816TIP3    H226390   4.928   3.712   5.411  0.2443  0.4745 -0.6331
 8817TIP3   OH226391   1.458   3.653   2.263  0.4241 -0.1943 -0.0458
 8817TIP3    H126392   1.483   3.725   2.206  0.0649  0.6119  0.7889
 8817TIP3    H226393   1.516   3.581   2.238  0.3034  0.1432 -1.3812
 8818TIP3   OH226394   5.304   6.783   1.957  0.0331  0.2355 -0.3410
 8818TIP3    H126395   5.380   6.742   1.999 -0.9515 -1.2385  0.0818
 8818TIP3    H226396   5.312   6.876   1.980  1.1431 -0.0516  0.5802
 8819TIP3   OH226397   4.969   4.524   4.960  0.2244 -0.2639  0.3087
 8819TIP3    H126398   4.912   4.560   4.891  1.6110 -0.8236 -1.1999
 8819TIP3    H226399   4.996   4.600   5.011  1.1053  0.5450 -1.2803
 8820TIP3   OH226400   5.502   2.648   2.559 -0.3839  0.0319 -0.0774
 8820TIP3    H126401   5.413   2.637   2.524 -0.1687  0.0678 -0.6521
 8820TIP3    H226402   5.495   2.626   2.652 -1.3395  1.6002  0.2602
 8821TIP3   OH226403   1.019   1.995   5.499 -0.3220  0.1930 -0.0205
 8821TIP3    H126404   1.093   2.045   5.533  0.4142 -0.0628 -1.1705
 8821TIP3    H226405   0.969   1.970   5.577  0.6362  0.6196  0.7589
 8822TIP3   OH226406   2.775   5.856   4.645  0.3292  0.5170  0.3522
 8822TIP3    H126407   2.828   5.933   4.629 -0.5735  0.8158 -1.4697
 8822TIP3    H226408   2.685   5.889   4.653  0.1499 -0.1690  1.3684
 8823TIP3   OH226409   1.680   6.158   1.079 -0.3517  0.4336 -0.1236
 8823TIP3    H126410   1.696   6.243   1.120  2.9717 -1.0309  2.1047
 8823TIP3    H226411   1.731   6.160   0.998  0.6646  0.2109  0.4993
 8824TIP3   OH226412   5.030   5.618   3.721  0.3341 -0.1794  0.2723
 8824TIP3    H126413   5.010   5.710   3.739 -0.0017 -0.3680  0.8837
 8824TIP3    H226414   4.982   5.570   3.788 -1.2839 -0.9385 -1.3396
 8825TIP3   OH226415   8.274   2.605   5.351 -0.0319  0.3903  0.7188
 8825TIP3    H126416   8.346   2.545   5.332 -0.5412  0.2198 -0.8368
 8825TIP3    H226417   8.199   2.567   5.306 -0.2368  2.4992 -0.8707
 8826TIP3   OH226418   2.047   7.153   5.243 -0.1758 -0.1433  0.1229
 8826TIP3    H126419   2.082   7.167   5.155 -2.7305  0.1715 -0.9287
 8826TIP3    H226420   2.091   7.074   5.274 -0.2984 -1.1394 -2.0689
 8827TIP3   OH226421   0.459   7.095   2.521 -0.0043 -0.2251 -0.0042
 8827TIP3    H126422   0.539   7.107   2.471  0.7992 -1.6912  0.8698
 8827TIP3    H226423   0.406   7.036   2.468  0.1084 -0.4018  0.0800
 8828TIP3   OH226424   2.186   2.685   5.154  0.0312 -0.0861  0.6680
 8828TIP3    H126425   2.172   2.592   5.136  2.3984 -0.3740 -0.0096
 8828TIP3    H226426   2.138   2.730   5.085  0.8704 -0.9171 -0.4990
 8829TIP3   OH226427   5.218   0.768   3.021  0.5757 -0.6927  0.0712
 8829TIP3    H126428   5.158   0.797   3.090  1.5111 -0.1013  0.6647
 8829TIP3    H226429   5.161   0.732   2.954 -0.6284  1.6338 -0.2849
 8830TIP3   OH226430   4.120   4.925   6.531 -0.3119  0.3046  0.5206
 8830TIP3    H126431   4.207   4.941   6.566 -0.0229 -2.3147  1.2311
 8830TIP3    H226432   4.105   4.996   6.469  1.6011  1.7590  1.6201
 8831TIP3   OH226433   5.328   3.861   2.366 -0.5334  0.2158 -0.0886
 8831TIP3    H126434   5.305   3.923   2.435 -0.8270 -0.2975  0.2877
 8831TIP3    H226435   5.417   3.832   2.388 -0.2651  0.7431 -0.4516
 8832TIP3   OH226436   0.375   0.569   1.279 -0.3194 -1.3349 -0.1659
 8832TIP3    H126437   0.431   0.497   1.311  0.3054 -0.2183  1.4080
 8832TIP3    H226438   0.436   0.640   1.259 -1.0171 -0.8327 -0.5725
 8833TIP3   OH226439   7.416   1.667   2.470  0.1480  0.0385 -0.3141
 8833TIP3    H126440   7.333   1.625   2.447 -0.3416  1.5599 -1.5069
 8833TIP3    H226441   7.481   1.622   2.417  0.0083 -0.7669  0.1813
 8834TIP3   OH226442   7.024   5.821   0.506  0.5361 -0.6218 -0.4563
 8834TIP3    H126443   6.997   5.741   0.550  1.4437 -0.5107  0.3221
 8834TIP3    H226444   6.982   5.891   0.556 -1.4301 -0.6286 -1.9747
 8835TIP3   OH226445   1.260   0.502   4.314 -0.1266 -0.0158  0.1478
 8835TIP3    H126446   1.266   0.547   4.229  0.6818 -0.0377  0.1836
 8835TIP3    H226447   1.181   0.537   4.354 -0.7951 -0.3665 -0.8234
 8836TIP3   OH226448   3.911   3.005   4.491  0.2385 -0.2122  0.3433
 8836TIP3    H126449   3.915   2.932   4.429  2.5091 -0.6495  0.8932
 8836TIP3    H226450   3.885   2.965   4.574 -0.7390  0.0183  0.1597
 8837TIP3   OH226451   8.107   4.237   5.057  0.1769  0.6300 -0.4293
 8837TIP3    H126452   8.120   4.332   5.064 -1.2541  0.8538 -0.5533
 8837TIP3    H226453   8.196   4.201   5.051  0.8051  1.8514  0.8631
 8838TIP3   OH226454   1.594   7.595   3.392 -0.3516 -0.1528 -0.2457
 8838TIP3    H126455   1.611   7.669   3.450 -0.2623 -0.8988  0.7061
 8838TIP3    H226456   1.662   7.601   3.325 -0.1771  0.4633 -0.0249
 8839TIP3   OH226457   7.435   6.836   4.881 -0.5075  0.0991 -0.0041
 8839TIP3    H126458   7.401   6.788   4.807 -0.9518  1.1339 -0.4912
 8839TIP3    H226459   7.364   6.895   4.907  0.1599  0.8054  0.2810
 8840TIP3   OH226460   4.303   1.446   4.905  0.2437  0.0634 -0.4271
 8840TIP3    H126461   4.373   1.510   4.894 -0.3796  0.8100 -0.2028
 8840TIP3    H226462   4.232   1.479   4.850  0.0016 -0.5817 -0.5109
 8841TIP3   OH226463   8.318   0.634   3.654 -0.2944 -0.0123  0.1169
 8841TIP3    H126464   8.405   0.616   3.620  0.2481  1.1077  0.8235
 8841TIP3    H226465   8.325   0.617   3.748 -1.7305 -2.9529 -0.1836
 8842TIP3   OH226466   2.140   0.524   2.922 -0.7507  0.1870 -0.2865
 8842TIP3    H126467   2.045   0.517   2.921 -0.8710  1.0990  1.3031
 8842TIP3    H226468   2.165   0.525   2.830 -2.3474  0.6817 -0.7465
 8843TIP3   OH226469   3.387   5.733   6.334  0.1195  0.2564 -0.2476
 8843TIP3    H126470   3.353   5.702   6.418  1.0808  1.0911  0.4872
 8843TIP3    H226471   3.310   5.759   6.284 -0.4365  0.2295  0.5850
 8844TIP3   OH226472   8.394   1.531   5.282 -0.2845  0.5444 -0.2342
 8844TIP3    H126473   8.467   1.502   5.336 -0.5982  1.0737  0.5098
 8844TIP3    H226474   8.317   1.517   5.338 -0.8505 -0.7567 -1.2994
 8845TIP3   OH226475   7.201   3.614   2.030  0.0762  0.0983 -0.5370
 8845TIP3    H126476   7.199   3.710   2.031  2.7503  0.2171 -0.1326
 8845TIP3    H226477   7.176   3.589   2.119 -0.5564  0.4173 -0.6194
 8846TIP3   OH226478   2.032   2.568   6.027 -0.3733  0.0096 -0.1377
 8846TIP3    H126479   2.104   2.630   6.015 -0.0930  0.6571  3.7068
 8846TIP3    H226480   1.953   2.617   6.006  0.0662  0.5216 -0.5959
 8847TIP3   OH226481   3.300   2.820   1.874 -0.1363 -0.4642 -0.1083
 8847TIP3    H126482   3.379   2.843   1.923  1.8600 -3.2539 -1.7581
 8847TIP3    H226483   3.308   2.869   1.792 -0.4237 -0.3301 -0.0573
 8848TIP3   OH226484   5.725   6.920   5.913  0.2078 -0.0940  0.3472
 8848TIP3    H126485   5.812   6.940   5.878  0.5419 -0.1022  1.1467
 8848TIP3    H226486   5.708   6.830   5.887  0.2227  0.0678 -0.2362
 8849TIP3   OH226487   4.778   5.321   5.517  1.0042 -0.0411  0.5755
 8849TIP3    H126488   4.850   5.349   5.574  0.1785  0.4354  1.4126
 8849TIP3    H226489   4.788   5.226   5.510  1.2171 -0.0863  1.3967
 8850TIP3   OH226490   7.613   1.803   0.019  0.0843 -0.2079 -0.3429
 8850TIP3    H126491   7.686   1.743   0.005 -0.4067 -0.9464  0.1354
 8850TIP3    H226492   7.646   1.869   0.079  0.4853 -0.2867 -0.4782
 8851TIP3   OH226493   1.407   3.609   2.586 -0.3463 -0.2490 -0.0165
 8851TIP3    H126494   1.323   3.594   2.542 -1.5462  0.1133  1.9972
 8851TIP3    H226495   1.459   3.531   2.565 -1.2148 -0.5353 -1.2292
 8852TIP3   OH226496   6.441   4.379   3.747 -0.0809  0.1109 -0.2504
 8852TIP3    H126497   6.521   4.402   3.794 -1.1027  1.2370  1.0064
 8852TIP3    H226498   6.421   4.290   3.776 -0.8812  0.9093  1.8250
 8853TIP3   OH226499   4.495   4.091   4.449 -0.0158 -0.1412 -0.3003
 8853TIP3    H126500   4.464   4.060   4.363  1.4010 -1.5017 -0.3524
 8853TIP3    H226501   4.415   4.111   4.497 -0.9228 -1.4493 -1.1931
 8854TIP3   OH226502   3.156   4.674   0.576 -0.2959 -0.1165  0.4224
 8854TIP3    H126503   3.081   4.616   0.565  3.2596 -5.3125 -0.1013
 8854TIP3    H226504   3.173   4.674   0.670  0.3461 -0.9033  0.3120
 8855TIP3   OH226505   6.336   4.489   5.543 -0.2925 -0.3167 -1.2362
 8855TIP3    H126506   6.254   4.519   5.504 -0.9735 -2.0187 -1.2034
 8855TIP3    H226507   6.326   4.506   5.636  0.0098  0.8104 -1.3979
 8856TIP3   OH226508   3.270   0.708   1.253  0.1002  0.6080 -0.0645
 8856TIP3    H126509   3.357   0.733   1.285 -0.2128 -1.4146  2.6820
 8856TIP3    H226510   3.286   0.631   1.198 -0.0161 -0.9036  1.9152
 8857TIP3   OH226511   6.896   4.138   0.762  0.3000  0.4261  0.5883
 8857TIP3    H126512   6.833   4.068   0.750 -0.3660  1.2997 -1.4873
 8857TIP3    H226513   6.971   4.096   0.803 -0.3207 -1.3565  0.0008
 8858TIP3   OH226514   5.940   6.910   6.596 -0.3640 -0.5690  0.5910
 8858TIP3    H126515   6.006   6.945   6.537  0.6890 -1.0094  1.4558
 8858TIP3    H226516   5.856   6.940   6.560  0.2774 -0.2949 -0.7313
 8859TIP3   OH226517   3.796   2.894   0.412 -0.4245  0.2694  0.4054
 8859TIP3    H126518   3.867   2.841   0.377  0.2913  0.3349  1.7002
 8859TIP3    H226519   3.808   2.980   0.371 -0.8276 -0.1882 -0.7155
 8860TIP3   OH226520   6.308   0.974   0.834  0.3736 -0.7362  0.1326
 8860TIP3    H126521   6.256   0.910   0.786 -0.8342 -0.0531  0.4907
 8860TIP3    H226522   6.365   0.921   0.890 -0.9057 -1.5138  0.7398
 8861TIP3   OH226523   2.807   3.689   1.956  0.1953  0.1986  0.2957
 8861TIP3    H126524   2.882   3.632   1.941 -0.1788 -0.4190  0.7269
 8861TIP3    H226525   2.843   3.778   1.951  0.8805 -0.0825  0.1441
 8862TIP3   OH226526   2.658   1.208   6.481  0.2884 -0.0439 -0.1885
 8862TIP3    H126527   2.660   1.115   6.501  0.9663 -0.2964 -1.3570
 8862TIP3    H226528   2.566   1.232   6.490  0.0252 -0.9409 -0.3926
 8863TIP3   OH226529   3.705   2.962   2.588  0.0800 -0.6511  0.3128
 8863TIP3    H126530   3.717   2.952   2.493 -0.1180 -1.3109  0.3511
 8863TIP3    H226531   3.791   2.988   2.620  0.1514 -0.4301 -0.0511
 8864TIP3   OH226532   4.816   1.135   2.073 -0.0235  0.1565 -0.2507
 8864TIP3    H126533   4.821   1.230   2.074 -1.2728  0.2398  0.7989
 8864TIP3    H226534   4.763   1.114   1.996 -0.2426  0.3447 -0.1517
 8865TIP3   OH226535   5.781   6.086   6.311  0.3541  0.1118  0.3581
 8865TIP3    H126536   5.860   6.133   6.338 -0.6151  1.4097  1.0538
 8865TIP3    H226537   5.750   6.044   6.391  1.1781 -1.7478 -0.2471
 8866TIP3   OH226538   2.642   4.574   5.582 -0.0763  0.2026  0.0787
 8866TIP3    H126539   2.667   4.488   5.550  1.7785  0.6055  0.2739
 8866TIP3    H226540   2.623   4.625   5.503  2.6988  0.6785 -0.3816
 8867TIP3   OH226541   2.504   2.451   0.928 -0.3441  0.1177 -0.2765
 8867TIP3    H126542   2.502   2.545   0.945 -1.5954  0.0971 -0.1551
 8867TIP3    H226543   2.500   2.411   1.014 -2.4703 -0.0015 -0.3621
 8868TIP3   OH226544   0.945   1.467   5.637  0.4312 -0.6046  0.4480
 8868TIP3    H126545   0.910   1.418   5.712 -1.3543 -1.1654 -0.6827
 8868TIP3    H226546   1.040   1.468   5.651  0.2688 -1.9557  1.9583
 8869TIP3   OH226547   0.424   5.279   0.935 -0.0596 -0.0986 -0.2656
 8869TIP3    H126548   0.482   5.226   0.989  0.5847 -0.2247 -1.0611
 8869TIP3    H226549   0.398   5.352   0.991 -1.2541 -1.4240  0.9714
 8870TIP3   OH226550   3.186   6.950   4.920 -0.2593  0.4667 -0.2250
 8870TIP3    H126551   3.209   6.930   4.829  2.7679  1.7245  0.1368
 8870TIP3    H226552   3.141   7.034   4.915 -0.6451  0.2346 -0.6254
 8871TIP3   OH226553   0.062   4.347   3.345  0.1441 -0.0483 -0.5230
 8871TIP3    H126554   0.126   4.320   3.410  0.3715 -0.5766 -0.9531
 8871TIP3    H226555  -0.015   4.373   3.395  1.1142  1.8295  0.0687
 8872TIP3   OH226556   4.365   0.503   6.166 -0.4525 -0.1947 -0.4217
 8872TIP3    H126557   4.316   0.525   6.087 -0.4705  0.0691 -0.3359
 8872TIP3    H226558   4.355   0.579   6.223  2.0766  0.9349 -1.3504
 8873TIP3   OH226559   0.677   7.241   0.996 -0.3492  0.6962  0.8609
 8873TIP3    H126560   0.686   7.327   1.037  1.1815  0.2043  1.6332
 8873TIP3    H226561   0.749   7.189   1.033 -1.4644 -1.0342  0.6886
 8874TIP3   OH226562   1.003   6.304   0.988  0.6028  0.1400 -0.1257
 8874TIP3    H126563   1.011   6.213   1.017  0.2526  0.6079  1.5492
 8874TIP3    H226564   0.997   6.355   1.069  0.7767  1.6647 -1.0258
 8875TIP3   OH226565   3.670   5.899   5.298 -0.2228 -0.2511 -0.0788
 8875TIP3    H126566   3.702   5.855   5.218  0.8424 -1.0052  0.7256
 8875TIP3    H226567   3.592   5.850   5.322 -1.5533  1.0361 -1.5686
 8876TIP3   OH226568   3.078   3.247   2.441 -0.6482  0.0361  0.2805
 8876TIP3    H126569   3.054   3.189   2.369  2.1442 -2.6638  1.3081
 8876TIP3    H226570   3.174   3.246   2.442 -0.5700  1.4457  2.9011
 8877TIP3   OH226571   3.784   1.824   3.527 -0.5849  0.0150 -0.0257
 8877TIP3    H126572   3.709   1.861   3.573 -1.2378 -0.4245 -0.6958
 8877TIP3    H226573   3.763   1.731   3.517 -0.4111  0.0671 -1.0626
 8878TIP3   OH226574   0.373   1.219   0.288 -0.0946  0.2791 -0.1067
 8878TIP3    H126575   0.438   1.288   0.301 -0.2723  0.5138 -0.4474
 8878TIP3    H226576   0.423   1.140   0.271  0.1217  0.2372  0.6875
 8879TIP3   OH226577   3.034   2.215   1.277 -0.4004  0.5316  1.0780
 8879TIP3    H126578   2.969   2.285   1.278  0.9113  1.7994  2.1802
 8879TIP3    H226579   2.983   2.136   1.258 -2.0574  1.6306  0.6643
 8880TIP3   OH226580   4.238   3.251   3.705  0.5257  0.3522  0.2164
 8880TIP3    H126581   4.279   3.312   3.644  3.1470 -0.4967  1.0170
 8880TIP3    H226582   4.152   3.289   3.722  0.8590  2.1482 -1.6918
 8881TIP3   OH226583   5.293   5.700   5.454  0.6687  0.5566  0.1426
 8881TIP3    H126584   5.300   5.620   5.506  1.6742  1.1284  0.9375
 8881TIP3    H226585   5.208   5.694   5.410  1.8945 -2.3375 -2.1832
 8882TIP3   OH226586   4.731   5.236   2.246  0.3160  0.1261  0.7184
 8882TIP3    H126587   4.779   5.264   2.325  0.2044  0.8870  0.5175
 8882TIP3    H226588   4.763   5.293   2.177  0.2364 -0.3846  0.2560
 8883TIP3   OH226589   0.743   5.759   3.039 -0.0737 -0.1208 -0.2894
 8883TIP3    H126590   0.811   5.803   3.090 -0.4171  0.2030 -0.1114
 8883TIP3    H226591   0.677   5.826   3.022  0.1403 -0.1698 -1.3628
 8884TIP3   OH226592   0.743   7.253   2.950  0.2650 -0.9294 -0.1138
 8884TIP3    H126593   0.712   7.274   3.038  1.9294  0.0114  0.3042
 8884TIP3    H226594   0.812   7.317   2.933  0.2564 -1.3482 -1.9548
 8885TIP3   OH226595   3.615   4.187   3.724 -0.3198  0.7105  0.2617
 8885TIP3    H126596   3.660   4.232   3.796 -0.4069  1.6768 -0.2731
 8885TIP3    H226597   3.554   4.128   3.768  0.7609  0.0931  0.9919
 8886TIP3   OH226598   1.950   2.530   6.596  0.2833 -0.3062 -0.0019
 8886TIP3    H126599   1.880   2.586   6.631 -0.6681 -1.5686  0.1640
 8886TIP3    H226600   1.916   2.441   6.603  1.8602 -0.9483 -0.0499
 8887TIP3   OH226601   5.004   7.039   6.331  0.0106 -0.3441  0.2454
 8887TIP3    H126602   5.057   7.066   6.256 -1.1801  0.0981 -0.4574
 8887TIP3    H226603   5.035   6.951   6.352 -1.5368 -1.7154 -2.6244
 8888TIP3   OH226604   1.541   4.557   1.060  0.2568 -0.0274 -0.3061
 8888TIP3    H126605   1.621   4.610   1.053 -0.3997  0.9970 -0.3910
 8888TIP3    H226606   1.531   4.519   0.973  0.4025  0.2246 -0.4380
 8889TIP3   OH226607   5.306   3.003   1.624 -0.3928  0.0502  0.0968
 8889TIP3    H126608   5.246   2.989   1.696  0.8234 -0.3810  1.0592
 8889TIP3    H226609   5.324   3.097   1.625  1.7226 -0.2791  2.1657
 8890TIP3   OH226610   7.954   5.893   2.453  0.0764 -0.1694  0.0693
 8890TIP3    H126611   8.032   5.900   2.508 -0.3934  1.1491  0.5965
 8890TIP3    H226612   7.917   5.807   2.476  0.8597 -0.4087  0.4863
 8891TIP3   OH226613   1.705   4.978   2.953  0.4243  0.2233  0.2499
 8891TIP3    H126614   1.659   5.032   3.017  1.6391  0.3839  1.0340
 8891TIP3    H226615   1.650   4.980   2.875 -1.6748 -0.8561  1.5888
 8892TIP3   OH226616   0.687   4.975   5.646  0.1047 -0.1617  0.0481
 8892TIP3    H126617   0.643   4.905   5.597  0.0159  0.2227 -0.4295
 8892TIP3    H226618   0.780   4.959   5.631  0.0600  0.7224 -1.3700
 8893TIP3   OH226619   1.461   6.901   5.112 -0.3948 -0.3870 -0.3077
 8893TIP3    H126620   1.391   6.845   5.077 -0.6753  0.2296 -0.7439
 8893TIP3    H226621   1.446   6.986   5.071 -0.5345  0.2649  1.0720
 8894TIP3   OH226622   3.675   2.255   1.440 -0.2094  0.7223 -0.0851
 8894TIP3    H126623   3.746   2.197   1.469 -1.0606  0.3246  1.3005
 8894TIP3    H226624   3.659   2.230   1.349 -1.0648 -1.7976  0.6748
 8895TIP3   OH226625   5.369   1.822   6.675 -0.7520 -0.2090  0.9357
 8895TIP3    H126626   5.391   1.781   6.591 -0.3147 -0.5426  1.2071
 8895TIP3    H226627   5.380   1.752   6.739  0.4745  0.4363  1.4638
 8896TIP3   OH226628   6.756   1.030   6.076 -0.2656  0.2734  0.3204
 8896TIP3    H126629   6.791   1.086   6.145 -1.0877  0.9549  0.2043
 8896TIP3    H226630   6.665   1.060   6.065 -0.4471 -0.4906 -0.3634
 8897TIP3   OH226631   4.789   3.171   1.270  0.3055  0.3597 -0.6753
 8897TIP3    H126632   4.771   3.242   1.332  1.3924  2.2864 -2.4502
 8897TIP3    H226633   4.884   3.158   1.277  0.3001 -0.0126 -1.2891
 8898TIP3   OH226634   3.898   1.396   6.787 -0.0639  0.0797  0.0093
 8898TIP3    H126635   3.984   1.375   6.749 -0.4159 -0.7632 -0.3403
 8898TIP3    H226636   3.855   1.311   6.797 -0.3609  0.3735  1.3972
 8899TIP3   OH226637   1.590   6.772   3.330 -0.6109 -0.5858  0.4304
 8899TIP3    H126638   1.610   6.688   3.371 -0.2472  0.0481  1.6000
 8899TIP3    H226639   1.586   6.834   3.403  1.4417  0.8701 -0.5907
 8900TIP3   OH226640   4.283   4.934   3.837  0.0362  0.0386  0.1903
 8900TIP3    H126641   4.326   5.005   3.790  0.0364  0.3815  0.6936
 8900TIP3    H226642   4.337   4.857   3.820  0.5376  0.3508  0.3631
 8901TIP3   OH226643   6.189   3.247   1.432 -0.1100  0.4843  0.1891
 8901TIP3    H126644   6.122   3.241   1.500  0.6947 -1.4499  0.8702
 8901TIP3    H226645   6.159   3.187   1.363 -1.1728  2.7795 -1.5012
 8902TIP3   OH226646   4.663   7.675   4.914  0.0236  0.0575 -0.6067
 8902TIP3    H126647   4.663   7.677   4.818  0.0405  2.7042 -0.6209
 8902TIP3    H226648   4.743   7.722   4.939  0.2827 -1.0432  0.7359
 8903TIP3   OH226649   7.710   1.467   6.187  0.1239  0.3173 -0.8408
 8903TIP3    H126650   7.734   1.545   6.237 -1.9688  0.2684  0.3827
 8903TIP3    H226651   7.732   1.394   6.245  0.0445  0.1140 -1.0663
 8904TIP3   OH226652   8.355   5.233   0.809  0.5939 -0.1584 -0.4783
 8904TIP3    H126653   8.437   5.190   0.830  0.7081  0.1353 -0.3093
 8904TIP3    H226654   8.374   5.327   0.818 -0.0405 -0.1156  0.6086
 8905TIP3   OH226655   1.800   0.241   4.514 -0.1036 -0.1980 -0.2564
 8905TIP3    H126656   1.710   0.207   4.511 -0.3724  0.2498  1.5400
 8905TIP3    H226657   1.790   0.335   4.498 -0.0415 -0.0488  0.5424
 8906TIP3   OH226658   4.028   7.216   2.417  0.3645 -0.4432  0.3449
 8906TIP3    H126659   4.027   7.299   2.368  1.6653  0.1288  1.2196
 8906TIP3    H226660   4.103   7.169   2.382 -1.1086 -1.8663 -1.0423
 8907TIP3   OH226661   3.508   1.635   1.008 -0.3311  0.0475 -0.2184
 8907TIP3    H126662   3.590   1.631   0.959 -0.1691 -1.2646  0.1169
 8907TIP3    H226663   3.524   1.698   1.078 -0.0722  0.8113 -0.9494
 8908TIP3   OH226664   0.577   3.649   0.524  0.0259 -0.3658 -0.5682
 8908TIP3    H126665   0.501   3.609   0.481  0.1068  0.5368 -1.5966
 8908TIP3    H226666   0.543   3.680   0.608 -0.9301  0.5797 -1.2700
 8909TIP3   OH226667   7.939   5.846   3.062 -0.6243 -0.5249 -0.1499
 8909TIP3    H126668   7.962   5.757   3.036  2.2538  0.0181  0.2295
 8909TIP3    H226669   7.964   5.901   2.988 -2.3905  0.0281 -0.3895
 8910TIP3   OH226670   3.179   3.886   4.296 -0.2098 -0.1741  0.4164
 8910TIP3    H126671   3.134   3.826   4.355  0.2009 -1.3109 -0.3820
 8910TIP3    H226672   3.216   3.829   4.228  0.0474  1.0033 -0.4669
 8911TIP3   OH226673   4.818   6.371   2.394  0.3023  0.3750 -0.1177
 8911TIP3    H126674   4.727   6.343   2.383 -0.0240  1.5084 -0.4732
 8911TIP3    H226675   4.815   6.437   2.462  0.8670  0.4261 -0.1335
 8912TIP3   OH226676   5.532   4.987   0.465  0.3252  0.0340  0.5273
 8912TIP3    H126677   5.443   5.020   0.473 -0.3818 -1.3158 -1.1088
 8912TIP3    H226678   5.572   5.042   0.397  0.4547  0.1043  0.6611
 8913TIP3   OH226679   4.097   1.080   4.565 -0.3994 -0.1158  0.3101
 8913TIP3    H126680   4.062   1.159   4.605  1.3412  0.9636 -0.1764
 8913TIP3    H226681   4.148   1.111   4.490 -1.8076 -1.9173 -1.5073
 8914TIP3   OH226682   4.511   6.148   0.494  0.1363 -0.1113  0.2581
 8914TIP3    H126683   4.509   6.232   0.540  2.4278  1.6444 -2.4924
 8914TIP3    H226684   4.602   6.119   0.503  0.4163 -0.1757 -2.2099
 8915TIP3   OH226685   5.549   1.448   4.233 -0.3854  0.0031 -0.3399
 8915TIP3    H126686   5.608   1.520   4.209 -0.2044 -0.4879 -1.4101
 8915TIP3    H226687   5.465   1.491   4.251  0.0104  0.5924  0.1668
 8916TIP3   OH226688   6.160   1.725   2.284 -0.7276 -0.7903 -0.1655
 8916TIP3    H126689   6.098   1.698   2.352 -0.2062 -0.0232  0.6422
 8916TIP3    H226690   6.226   1.777   2.331 -0.4200 -0.1384 -1.2770
 8917TIP3   OH226691   0.062   2.871   4.023  0.5306 -0.2723 -0.5537
 8917TIP3    H126692   0.100   2.880   3.936 -1.1874  1.5718 -1.1735
 8917TIP3    H226693   0.094   2.948   4.071 -1.7856  1.0076 -0.9138
 8918TIP3   OH226694   3.668   7.191   5.499  0.3242  0.7809 -0.4002
 8918TIP3    H126695   3.750   7.237   5.515  0.5697  0.8763 -1.8161
 8918TIP3    H226696   3.639   7.221   5.413 -1.1306  0.6381  0.0096
 8919TIP3   OH226697   2.530   2.651   3.214  0.2172 -0.6677 -0.2309
 8919TIP3    H126698   2.559   2.699   3.136 -2.9630 -0.1632 -1.2829
 8919TIP3    H226699   2.498   2.567   3.180 -3.2025  0.3630  0.0347
 8920TIP3   OH226700   0.301   3.697   6.308  1.2072 -0.1043  0.4653
 8920TIP3    H126701   0.219   3.647   6.301  1.2107  0.0295 -0.8112
 8920TIP3    H226702   0.318   3.726   6.219  0.5029  3.3625  1.3245
 8921TIP3   OH226703   5.533   3.501   2.766 -0.1618 -0.4490 -0.6104
 8921TIP3    H126704   5.484   3.559   2.825 -1.9620 -2.0610 -0.4188
 8921TIP3    H226705   5.465   3.457   2.715  1.2811 -0.4702 -2.6019
 8922TIP3   OH226706   7.304   3.606   5.234  0.5522 -0.8466  0.4105
 8922TIP3    H126707   7.377   3.585   5.292  1.3066 -0.2631 -0.3088
 8922TIP3    H226708   7.288   3.699   5.246  1.4705 -0.4573 -1.1223
 8923TIP3   OH226709   2.303   5.640   0.056 -0.6786  0.0665  0.1879
 8923TIP3    H126710   2.368   5.607  -0.005  0.0864 -0.1285  1.0859
 8923TIP3    H226711   2.253   5.562   0.081 -1.6427  0.3023 -0.9208
 8924TIP3   OH226712   5.950   0.332   3.341 -0.2700  0.1682  0.1634
 8924TIP3    H126713   5.978   0.423   3.327 -0.3571  0.1888  0.1253
 8924TIP3    H226714   6.006   0.301   3.412 -0.5186  0.3791  0.4509
 8925TIP3   OH226715   1.960   0.154   4.757  0.1954  0.3787  0.2617
 8925TIP3    H126716   1.961   0.238   4.804 -3.7470  0.2767  0.8226
 8925TIP3    H226717   1.904   0.170   4.682  1.9137 -1.0259 -1.4183
 8926TIP3   OH226718   1.853   1.969   5.006  0.0608 -0.1736 -0.7357
 8926TIP3    H126719   1.772   1.918   5.004 -0.9545  1.4007 -1.6190
 8926TIP3    H226720   1.834   2.043   5.064 -0.0543  1.5528 -2.8378
 8927TIP3   OH226721   3.108   1.365   1.008  0.5550 -0.0607 -0.3787
 8927TIP3    H126722   3.118   1.288   0.951  0.2494  0.1775 -0.7537
 8927TIP3    H226723   3.044   1.420   0.964  1.2764  0.7353 -0.4515
 8928TIP3   OH226724   3.309   3.907   1.596 -0.6014  0.0531 -0.3490
 8928TIP3    H126725   3.373   3.840   1.570 -1.5046 -1.6310  1.4202
 8928TIP3    H226726   3.249   3.912   1.522 -0.0532 -0.4888 -0.8550
 8929TIP3   OH226727   6.528   7.451   1.770 -0.5241  0.0804 -0.1335
 8929TIP3    H126728   6.531   7.452   1.674  1.5734 -0.9182 -0.1308
 8929TIP3    H226729   6.618   7.434   1.797 -0.9531  0.9467  2.0578
 8930TIP3   OH226730   8.398   3.158   4.296  0.0714 -0.1306  0.0697
 8930TIP3    H126731   8.346   3.121   4.367  0.6772  0.1127  0.6477
 8930TIP3    H226732   8.370   3.250   4.291  0.4427 -0.0012  0.3778
 8931TIP3   OH226733   2.538   6.654   3.429 -0.0647 -0.1523  0.4116
 8931TIP3    H126734   2.481   6.592   3.475  0.9501  0.0141  1.9746
 8931TIP3    H226735   2.572   6.603   3.354 -1.7068 -0.4437 -0.1783
 8932TIP3   OH226736   2.717   6.786   0.849 -0.0420 -0.1809 -0.0870
 8932TIP3    H126737   2.737   6.879   0.843 -2.1557  0.3775  0.5674
 8932TIP3    H226738   2.740   6.762   0.939  2.0803 -0.7746 -0.7163
 8933TIP3   OH226739   3.934   5.359   6.284  0.4292  0.1651 -0.3863
 8933TIP3    H126740   3.960   5.426   6.347  3.7875 -0.2731 -1.1276
 8933TIP3    H226741   3.867   5.402   6.230  1.1020  2.2479  0.3378
 8934TIP3   OH226742   7.721   6.611   1.266 -0.4424 -0.2234  0.3617
 8934TIP3    H126743   7.728   6.706   1.261 -1.2118 -0.2017 -0.4681
 8934TIP3    H226744   7.802   6.583   1.308 -0.1103  0.7826  0.4002
 8935TIP3   OH226745   1.078   6.834   1.175 -0.1530 -0.0532 -0.1322
 8935TIP3    H126746   1.024   6.805   1.101  1.2778  0.3280 -1.3777
 8935TIP3    H226747   1.022   6.823   1.251 -1.0408 -2.3353 -1.0197
 8936TIP3   OH226748   7.081   0.378   1.927  1.3273 -0.3153  0.2775
 8936TIP3    H126749   7.070   0.462   1.972 -0.9332 -0.0553 -0.5939
 8936TIP3    H226750   7.174   0.372   1.909  1.7701  1.2262  1.8097
 8937TIP3   OH226751   5.702   1.224   5.988  0.0210 -0.1831  0.2697
 8937TIP3    H126752   5.717   1.319   5.982  1.3150 -0.3970 -0.1084
 8937TIP3    H226753   5.754   1.197   6.064 -0.3390 -0.6036  0.3702
 8938TIP3   OH226754   1.910   3.495   2.517  0.2026 -0.1708  0.3548
 8938TIP3    H126755   1.892   3.526   2.606  0.6843  0.4009  0.2565
 8938TIP3    H226756   1.955   3.411   2.530 -1.3018 -0.9712  0.6164
 8939TIP3   OH226757   2.869   2.476   4.700  0.1756  0.3782  0.0179
 8939TIP3    H126758   2.808   2.482   4.773  1.0833  0.0197  0.8231
 8939TIP3    H226759   2.879   2.383   4.683  0.2083  0.4473 -0.3555
 8940TIP3   OH226760   0.481   6.324   0.728  0.0870  0.0893  0.1084
 8940TIP3    H126761   0.453   6.305   0.818 -0.7220  0.7427  0.0093
 8940TIP3    H226762   0.526   6.244   0.700 -1.1219 -0.7711  0.5206
 8941TIP3   OH226763   5.942   3.953   1.216  0.2681  0.5510  0.2469
 8941TIP3    H126764   5.867   3.953   1.276  0.7235  1.8757  0.8575
 8941TIP3    H226765   6.010   4.000   1.264  0.1204  3.2025 -1.9537
 8942TIP3   OH226766   7.915   4.926   1.210 -0.2618 -0.3521 -0.2643
 8942TIP3    H126767   7.960   4.851   1.170  0.3186  1.0980 -2.5615
 8942TIP3    H226768   7.961   4.940   1.293  1.6144 -0.7337 -1.1784
 8943TIP3   OH226769   6.967   0.972   2.726 -0.0781 -0.6355 -0.1623
 8943TIP3    H126770   6.992   0.883   2.703  0.5550 -0.7174  0.7774
 8943TIP3    H226771   6.884   0.963   2.773  1.0465 -1.0014  1.8857
 8944TIP3   OH226772   3.177   2.778   4.038 -0.0330 -0.1386 -0.4055
 8944TIP3    H126773   3.206   2.858   4.082  2.6114 -0.1779 -1.8457
 8944TIP3    H226774   3.165   2.804   3.947 -0.6252 -1.0644 -0.5983
 8945TIP3   OH226775   4.777   4.036   6.793  0.0912 -0.1965  0.0468
 8945TIP3    H126776   4.838   4.079   6.852 -0.0090 -0.0686  0.0586
 8945TIP3    H226777   4.730   4.108   6.750 -0.2775 -0.2961  0.2764
 8946TIP3   OH226778   2.409   6.459   1.854 -0.4902 -0.5634  0.3560
 8946TIP3    H126779   2.385   6.485   1.766  0.0678 -1.7263 -0.1553
 8946TIP3    H226780   2.467   6.529   1.885  1.8178 -1.5836 -1.3723
 8947TIP3   OH226781   2.117   2.943   0.060  0.2642  0.2608 -0.3307
 8947TIP3    H126782   2.184   3.004   0.032  0.8516  0.0543  0.5745
 8947TIP3    H226783   2.067   2.991   0.127 -0.4770  0.4053 -0.9785
 8948TIP3   OH226784   6.611   5.234   3.051  0.5920  0.1813 -0.1406
 8948TIP3    H126785   6.589   5.224   2.958 -0.5303 -0.5999  0.1977
 8948TIP3    H226786   6.677   5.167   3.067 -0.1518 -0.5470 -0.0795
 8949TIP3   OH226787   4.093   5.879   0.306  0.3246  0.8018 -0.1349
 8949TIP3    H126788   4.169   5.931   0.281  1.4482  0.0829  1.5737
 8949TIP3    H226789   4.042   5.871   0.226  2.3030  0.8892 -1.4727
 8950TIP3   OH226790   3.655   0.436   4.415 -0.4350  0.0654 -0.4047
 8950TIP3    H126791   3.587   0.393   4.362 -0.5065  0.8650 -0.9831
 8950TIP3    H226792   3.731   0.379   4.406 -1.0928 -0.9957  0.4831
 8951TIP3   OH226793   4.182   1.606   4.732 -0.0673 -0.2646  0.2460
 8951TIP3    H126794   4.228   1.582   4.652  1.3912  1.8939  0.3670
 8951TIP3    H226795   4.104   1.653   4.703  0.4539  0.5046  0.0631
 8952TIP3   OH226796   0.998   0.473   5.938  0.2060  0.1480 -0.0706
 8952TIP3    H126797   0.917   0.425   5.955 -0.9995  1.9750 -0.4595
 8952TIP3    H226798   1.017   0.518   6.021  1.7117 -1.4324  0.5174
 8953TIP3   OH226799   6.481   5.096   4.432 -0.0946 -0.5538 -0.3243
 8953TIP3    H126800   6.556   5.061   4.383  2.2647  0.8261  2.0277
 8953TIP3    H226801   6.468   5.034   4.503 -1.2224 -0.7677 -0.6975
 8954TIP3   OH226802   1.736   5.791   4.769  0.3603 -0.5923  0.0206
 8954TIP3    H126803   1.783   5.850   4.828 -1.5513  0.4984  0.5575
 8954TIP3    H226804   1.757   5.703   4.800  0.2119 -0.0702  1.7241
 8955TIP3   OH226805   2.503   7.496   0.200  0.4781  0.1151  0.0560
 8955TIP3    H126806   2.435   7.429   0.198 -0.0287  0.5956  0.8531
 8955TIP3    H226807   2.458   7.575   0.169  0.4439  0.6196  1.3299
 8956TIP3   OH226808   0.379   1.720   6.169 -0.0217  0.1154 -0.1716
 8956TIP3    H126809   0.361   1.698   6.078  0.5811  0.3904 -0.3627
 8956TIP3    H226810   0.457   1.669   6.191 -1.1382 -1.2908  0.7335
 8957TIP3   OH226811   2.454   0.529   3.919 -0.0622  0.1275  0.3809
 8957TIP3    H126812   2.440   0.452   3.973 -0.3082 -0.6823 -0.7823
 8957TIP3    H226813   2.366   0.565   3.904 -0.3294 -1.1329 -1.5053
 8958TIP3   OH226814   2.902   7.113   6.498  0.0490  0.3314 -0.0968
 8958TIP3    H126815   2.856   7.030   6.509  1.2616 -0.1005  2.1366
 8958TIP3    H226816   2.849   7.161   6.434 -2.2570 -1.0074  0.6991
 8959TIP3   OH226817   6.825   7.549   0.314 -0.1162  0.6233 -0.5285
 8959TIP3    H126818   6.777   7.597   0.381 -1.2372  1.2969 -1.7712
 8959TIP3    H226819   6.823   7.607   0.237  0.0673 -0.6378 -1.5131
 8960TIP3   OH226820   0.569   6.283   3.737 -0.8086 -0.3260  0.2092
 8960TIP3    H126821   0.499   6.294   3.803 -1.6330 -1.6386 -0.4177
 8960TIP3    H226822   0.592   6.191   3.742  1.4370  0.2065  0.8886
 8961TIP3   OH226823   6.967   0.791   0.701  0.4576 -0.3717 -0.8338
 8961TIP3    H126824   6.973   0.781   0.606  0.1074 -0.3046 -0.8626
 8961TIP3    H226825   7.041   0.741   0.735  0.3899 -0.6712 -1.1245
 8962TIP3   OH226826   5.971   6.904   2.607  0.5705  0.0585  0.3606
 8962TIP3    H126827   6.025   6.879   2.532  1.2775 -0.3481  0.9915
 8962TIP3    H226828   5.988   6.836   2.673  0.3839  0.7017  1.0863
 8963TIP3   OH226829   0.038   7.199   5.643  0.6797  0.2827 -0.1630
 8963TIP3    H126830   0.126   7.169   5.666  0.8133  0.3878 -0.5409
 8963TIP3    H226831   0.048   7.244   5.559  0.1082 -0.5649 -0.7040
 8964TIP3   OH226832   0.070   7.279   0.731 -0.1132 -0.0364 -0.6587
 8964TIP3    H126833   0.033   7.327   0.657  1.6271  0.0841 -1.5174
 8964TIP3    H226834   0.085   7.191   0.697 -4.8966 -1.9626  1.4021
 8965TIP3   OH226835   4.548   3.275   0.261 -0.5252  0.4618 -0.0043
 8965TIP3    H126836   4.614   3.226   0.309  0.1031  1.3353  0.0506
 8965TIP3    H226837   4.547   3.362   0.303 -3.1208 -0.0811  1.3269
 8966TIP3   OH226838   0.047   6.658   2.716  0.0900 -0.0704 -0.3615
 8966TIP3    H126839   0.079   6.731   2.662 -0.5574  0.9140  0.5430
 8966TIP3    H226840   0.117   6.592   2.710  0.8929  0.7897 -0.8574
 8967TIP3   OH226841   2.924   3.443   1.124  0.2398 -0.1668  0.4928
 8967TIP3    H126842   2.955   3.354   1.109 -0.7333 -0.4225 -0.1003
 8967TIP3    H226843   2.832   3.433   1.148  0.1827  0.6660  0.6678
 8968TIP3   OH226844   3.161   2.127   3.111  0.5405 -0.2293  0.1167
 8968TIP3    H126845   3.240   2.115   3.164  0.8654 -0.8400 -0.4984
 8968TIP3    H226846   3.190   2.113   3.021 -0.1167  0.2878 -0.1809
 8969TIP3   OH226847   3.129   0.837   1.478 -0.1172  0.5876  0.2817
 8969TIP3    H126848   3.126   0.762   1.537  0.5526  0.5232  0.2335
 8969TIP3    H226849   3.176   0.806   1.401  1.0079  1.3126  0.6455
 8970TIP3   OH226850   5.730   4.378   4.806 -0.6589  0.1366  0.3415
 8970TIP3    H126851   5.728   4.358   4.712 -0.6048  2.1100 -0.1335
 8970TIP3    H226852   5.808   4.333   4.838  0.6425  1.2297 -1.0800
 8971TIP3   OH226853   7.686   4.162   1.399  0.4450 -0.0661  0.2040
 8971TIP3    H126854   7.648   4.154   1.312  2.0930  2.3195 -0.8700
 8971TIP3    H226855   7.612   4.177   1.457 -0.6794 -1.6485 -0.7608
 8972TIP3   OH226856   7.959   6.286   4.461 -0.3712 -0.4027 -0.0250
 8972TIP3    H126857   8.047   6.304   4.427 -0.1311 -0.4721  0.5551
 8972TIP3    H226858   7.973   6.216   4.525 -0.7642  0.0415  0.5400
 8973TIP3   OH226859   8.356   5.934   3.873  0.1168  0.2748 -0.1811
 8973TIP3    H126860   8.406   5.994   3.929  0.9817 -0.3374 -0.2742
 8973TIP3    H226861   8.269   5.974   3.867  0.6203  1.4361 -0.1082
 8974TIP3   OH226862   7.388   7.555   1.548 -0.0798  0.1173 -0.8495
 8974TIP3    H126863   7.391   7.464   1.518  0.2596 -1.2238  2.6504
 8974TIP3    H226864   7.471   7.566   1.596 -1.0361  1.5165  0.5614
 8975TIP3   OH226865   0.882   6.464   6.088 -0.7245 -0.2029 -0.3147
 8975TIP3    H126866   0.829   6.468   6.009  0.2690 -0.7150 -1.0365
 8975TIP3    H226867   0.920   6.376   6.088 -2.2489 -0.9261  1.8014
 8976TIP3   OH226868   1.156   1.888   4.760 -0.1073 -0.4049 -0.5321
 8976TIP3    H126869   1.159   1.948   4.835  0.9656  0.4136 -1.1976
 8976TIP3    H226870   1.145   1.946   4.684  1.6332 -0.9693 -1.2481
 8977TIP3   OH226871   8.282   4.788   4.225  0.0025  0.5399  0.8296
 8977TIP3    H126872   8.354   4.795   4.287  1.2107  1.3402 -0.6122
 8977TIP3    H226873   8.208   4.828   4.270  0.3986 -0.3719  2.3751
 8978TIP3   OH226874   7.688   2.490   0.845 -0.0229 -0.2145  0.0768
 8978TIP3    H126875   7.641   2.434   0.907 -0.8183  0.7124  0.3347
 8978TIP3    H226876   7.769   2.514   0.890 -0.1877 -0.2657  0.4006
 8979TIP3   OH226877   7.335   2.538   6.528 -0.5427  0.5664 -0.0803
 8979TIP3    H126878   7.373   2.464   6.481 -0.9693 -0.1461  0.6805
 8979TIP3    H226879   7.410   2.594   6.548 -0.3208  0.7616 -1.3649
 8980TIP3   OH226880   1.227   0.250   4.884  0.3175 -0.1228  0.3384
 8980TIP3    H126881   1.232   0.305   4.962  0.9176  2.7162 -1.5671
 8980TIP3    H226882   1.316   0.248   4.850 -0.4313  1.4135 -1.9521
 8981TIP3   OH226883   4.068   0.896   6.457 -0.1561  0.8212  0.1545
 8981TIP3    H126884   4.023   0.864   6.536 -0.5891  1.3810  0.1369
 8981TIP3    H226885   4.117   0.820   6.426 -1.4517  0.0595 -0.0892
 8982TIP3   OH226886   1.592   4.232   5.975 -0.0155 -0.1536  0.2855
 8982TIP3    H126887   1.587   4.326   5.990 -0.9908  0.1557 -1.6800
 8982TIP3    H226888   1.502   4.201   5.986 -0.0548 -0.5245 -0.9684
 8983TIP3   OH226889   5.196   1.359   3.307  0.4020  0.3962  0.0066
 8983TIP3    H126890   5.161   1.390   3.391 -1.0764  0.6196 -0.6635
 8983TIP3    H226891   5.280   1.403   3.299  0.3179  0.8110  1.1100
 8984TIP3   OH226892   3.360   4.851   5.804 -0.6358 -0.0147 -0.5315
 8984TIP3    H126893   3.420   4.835   5.877 -0.3900  2.4862 -0.0953
 8984TIP3    H226894   3.412   4.834   5.726  0.3427  1.0918 -0.1425
 8985TIP3   OH226895   2.985   1.111   0.927 -0.0737  0.3429  0.0189
 8985TIP3    H126896   2.914   1.148   0.979  0.3181  1.0214  0.0819
 8985TIP3    H226897   3.004   1.027   0.969 -0.4520  0.4160  0.3446
 8986TIP3   OH226898   1.517   0.343   2.926 -0.1607 -0.1175 -0.1547
 8986TIP3    H126899   1.423   0.359   2.932 -0.2320  1.6522 -3.7195
 8986TIP3    H226900   1.556   0.412   2.980 -0.8081 -0.9448  1.4610
 8987TIP3   OH226901   7.248   2.794   3.313 -0.0280  0.0968 -0.0286
 8987TIP3    H126902   7.153   2.800   3.301  0.1051  1.3635 -0.6034
 8987TIP3    H226903   7.278   2.745   3.237 -0.1839  0.0637 -0.0697
 8988TIP3   OH226904   1.901   7.038   1.545  0.0230 -0.4278  0.4735
 8988TIP3    H126905   1.888   7.110   1.483  2.5784 -0.1385  0.1748
 8988TIP3    H226906   1.980   7.061   1.592  0.9238 -3.0235  0.3907
 8989TIP3   OH226907   1.850   3.772   5.713  0.7182 -0.1700  0.0278
 8989TIP3    H126908   1.816   3.844   5.660 -1.8829 -3.2847 -3.0698
 8989TIP3    H226909   1.814   3.787   5.800  0.5788  2.3623 -0.3892
 8990TIP3   OH226910   6.964   7.865   5.122 -0.2801 -0.1228 -0.0201
 8990TIP3    H126911   7.013   7.922   5.063  0.3055  0.0648  0.6455
 8990TIP3    H226912   7.010   7.781   5.118 -0.7689 -0.3812 -0.5062
 8991TIP3   OH226913   6.017   3.626   1.430 -0.3069  0.4085  0.0982
 8991TIP3    H126914   6.004   3.596   1.520  1.2877  0.8313  0.5019
 8991TIP3    H226915   6.084   3.694   1.437 -0.9440  1.2212 -1.2895
 8992TIP3   OH226916   0.012   1.851   3.855 -0.1596 -0.5182  0.2522
 8992TIP3    H126917   0.085   1.911   3.869 -0.3868 -0.2118  0.1384
 8992TIP3    H226918  -0.065   1.898   3.887 -0.2118 -1.1243  1.0436
 8993TIP3   OH226919   3.050   3.522   2.431 -0.3522  0.3653 -0.2518
 8993TIP3    H126920   3.103   3.563   2.363 -0.1592 -0.5566 -0.6699
 8993TIP3    H226921   3.067   3.428   2.421  0.0199  0.2364  1.3454
 8994TIP3   OH226922   2.794   3.962   1.863 -0.5379 -0.4617  0.5167
 8994TIP3    H126923   2.834   4.044   1.836 -1.1709 -0.1281  0.5671
 8994TIP3    H226924   2.716   3.988   1.912 -1.8798 -1.0749 -1.1795
 8995TIP3   OH226925   2.087   7.116   0.234  0.3899  0.5315 -0.0351
 8995TIP3    H126926   2.176   7.102   0.266  0.8802  2.1810 -0.6067
 8995TIP3    H226927   2.040   7.153   0.309 -0.2663 -1.6260  0.7217
 8996TIP3   OH226928   4.416   6.510   1.663 -0.0474  0.4052 -0.2668
 8996TIP3    H126929   4.397   6.530   1.755  2.6146 -0.3235  0.5284
 8996TIP3    H226930   4.512   6.505   1.659 -0.0966  0.3834 -3.0974
 8997TIP3   OH226931   2.329   5.334   1.887 -0.4074 -0.1415  0.2918
 8997TIP3    H126932   2.299   5.425   1.890 -4.0066 -1.2172  1.1596
 8997TIP3    H226933   2.357   5.321   1.797 -1.2058  1.4333 -0.2144
 8998TIP3   OH226934   7.865   5.134   0.189  0.2956 -0.0852  0.3475
 8998TIP3    H126935   7.946   5.184   0.201 -0.7088  1.6728  0.0727
 8998TIP3    H226936   7.841   5.105   0.277  1.5822 -1.2329  0.3412
 8999TIP3   OH226937   7.643   5.714   3.737 -0.1666 -0.1055 -0.6384
 8999TIP3    H126938   7.619   5.627   3.770 -0.1706  0.9744  2.5385
 8999TIP3    H226939   7.717   5.698   3.679 -0.0956 -2.2364 -0.0474
 9000TIP3   OH226940   1.097   0.782   4.817 -0.8611  0.2567 -0.9293
 9000TIP3    H126941   1.011   0.789   4.776 -0.9242  0.0522 -0.8342
 9000TIP3    H226942   1.126   0.872   4.828 -2.8159  0.6457  2.7415
 9001TIP3   OH226943   3.796   4.366   0.298  0.0527 -0.2374 -0.1804
 9001TIP3    H126944   3.814   4.285   0.345  2.2363 -0.8266 -1.8942
 9001TIP3    H226945   3.706   4.356   0.266 -0.5155 -0.9563  1.5340
 9002TIP3   OH226946   5.376   5.628   3.289  0.4489 -0.4002 -0.2299
 9002TIP3    H126947   5.415   5.540   3.291 -0.8658 -1.0094  0.5357
 9002TIP3    H226948   5.324   5.632   3.369 -1.6172  0.0774 -1.5204
 9003TIP3   OH226949   5.478   6.093   5.256  0.0856  0.6486 -0.3669
 9003TIP3    H126950   5.465   6.070   5.348 -1.4027  1.0883 -0.4278
 9003TIP3    H226951   5.517   6.015   5.216 -2.3337 -0.8304 -0.0283
 9004TIP3   OH226952   8.354   3.228   1.656  0.5570 -0.2894  0.0015
 9004TIP3    H126953   8.358   3.198   1.565  0.0576 -0.5107  0.0504
 9004TIP3    H226954   8.318   3.317   1.650  1.9005  0.2759 -0.1306
 9005TIP3   OH226955   3.198   6.628   1.838  0.5307  0.0871 -0.0477
 9005TIP3    H126956   3.285   6.660   1.817  0.5057  0.3086  0.1770
 9005TIP3    H226957   3.212   6.540   1.873  0.8227  0.6840  1.4319
 9006TIP3   OH226958   0.715   6.184   1.965  0.4507  0.3137 -0.7519
 9006TIP3    H126959   0.784   6.136   1.919 -0.8680  0.6334 -3.2162
 9006TIP3    H226960   0.703   6.136   2.047  2.1701 -0.9323 -1.1695
 9007TIP3   OH226961   5.361   6.063   4.232  0.4315 -0.4625  0.0360
 9007TIP3    H126962   5.385   5.971   4.229  0.4541 -0.4314 -1.1206
 9007TIP3    H226963   5.266   6.062   4.249  0.1374 -0.7542 -1.5148
 9008TIP3   OH226964   4.293   6.504   2.474 -0.0871  0.0761 -0.1929
 9008TIP3    H126965   4.235   6.482   2.401 -0.4570  2.4226 -0.7042
 9008TIP3    H226966   4.239   6.492   2.552 -0.3504 -0.4706 -0.4547
 9009TIP3   OH226967   4.783   0.741   1.108  0.2228  0.0841  0.2870
 9009TIP3    H126968   4.812   0.813   1.052  1.4274 -2.2509 -2.3283
 9009TIP3    H226969   4.711   0.778   1.159  0.8876  3.1547 -0.7812
 9010TIP3   OH226970   5.685   1.361   5.613  0.0015 -0.0221 -0.0639
 9010TIP3    H126971   5.627   1.290   5.584 -0.3910 -0.3612  1.4483
 9010TIP3    H226972   5.769   1.317   5.628  0.0584  0.0476 -0.1809
 9011TIP3   OH226973   4.571   7.303   5.758 -0.4951  0.2623 -0.2045
 9011TIP3    H126974   4.640   7.341   5.813 -1.6757  1.6638  0.3675
 9011TIP3    H226975   4.490   7.320   5.806 -1.2223 -1.9879 -0.5084
 9012TIP3   OH226976   1.373   6.716   5.765  0.1899 -0.4195  0.4366
 9012TIP3    H126977   1.401   6.661   5.692  1.2304 -0.1553  0.6221
 9012TIP3    H226978   1.448   6.774   5.782 -0.1923 -0.1971  1.4405
 9013TIP3   OH226979   7.162   6.675   0.072  0.5329 -0.4300 -0.3018
 9013TIP3    H126980   7.205   6.758   0.051  1.5545 -0.8062  0.2259
 9013TIP3    H226981   7.080   6.677   0.022 -0.1204  1.4728  0.7304
 9014TIP3   OH226982   8.291   2.148   4.440  0.0736  0.5832 -0.4463
 9014TIP3    H126983   8.227   2.077   4.435 -0.6952  1.2741 -0.5663
 9014TIP3    H226984   8.304   2.163   4.534 -0.3854  0.8245 -0.4170
 9015TIP3   OH226985   4.074   0.414   2.797  0.0617 -0.4802  0.1081
 9015TIP3    H126986   4.012   0.409   2.724  1.0251  0.6061 -0.7998
 9015TIP3    H226987   4.061   0.501   2.834  0.0724 -0.7671  0.8059
 9016TIP3   OH226988   0.752   7.631   6.538  0.0133  0.2382 -0.2163
 9016TIP3    H126989   0.832   7.646   6.588  0.0644  1.6856 -0.6994
 9016TIP3    H226990   0.700   7.573   6.594  1.1987 -0.3652  0.2952
 9017TIP3   OH226991   6.708   1.619   5.935  0.3851 -0.1740 -0.1087
 9017TIP3    H126992   6.618   1.622   5.967 -0.0624 -1.9329 -1.0760
 9017TIP3    H226993   6.748   1.547   5.982  0.7619 -0.4923 -0.8896
 9018TIP3   OH226994   4.058   4.864   2.879  0.5605  0.1200  0.3379
 9018TIP3    H126995   4.018   4.940   2.837 -1.4365 -2.3665 -2.6888
 9018TIP3    H226996   4.119   4.830   2.814 -2.1157 -3.4745 -0.6338
 9019TIP3   OH226997   2.253   7.761   1.223 -0.1287 -0.1342  0.2341
 9019TIP3    H126998   2.238   7.675   1.262 -1.1516  0.7467  1.9270
 9019TIP3    H226999   2.195   7.764   1.147 -0.9130 -0.5703  0.7996
 9020TIP3   OH227000   6.446   5.434   1.174  0.0129 -0.0239  0.1591
 9020TIP3    H127001   6.450   5.412   1.267  0.5832 -0.0516  0.1306
 9020TIP3    H227002   6.359   5.470   1.161 -0.0652 -0.0176  0.7062
 9021TIP3   OH227003   1.755   4.837   5.856 -0.3720  0.0036  0.2516
 9021TIP3    H127004   1.823   4.801   5.912 -1.4067 -1.5023  0.5939
 9021TIP3    H227005   1.678   4.846   5.913 -1.2950 -1.0714 -0.7757
 9022TIP3   OH227006   4.151   7.553   5.035 -0.0490  0.0922  0.0602
 9022TIP3    H127007   4.229   7.534   4.984  0.3849  0.9432  0.3869
 9022TIP3    H227008   4.161   7.503   5.115  0.0722  0.0560  0.0227
 9023TIP3   OH227009   0.125   0.980   0.958 -0.1090  0.4681 -0.0063
 9023TIP3    H127010   0.155   0.894   0.987  1.5636  0.4239 -1.7167
 9023TIP3    H227011   0.085   0.964   0.872  1.5285  1.5655 -1.0140
 9024TIP3   OH227012   2.858   5.717   6.164  0.0147 -0.2179  0.5368
 9024TIP3    H127013   2.872   5.624   6.146  1.1970 -0.0660  0.5746
 9024TIP3    H227014   2.875   5.760   6.080 -0.3220 -0.0096  0.5713
 9025TIP3   OH227015   0.530   3.272   5.597  0.0566  0.3010 -0.1534
 9025TIP3    H127016   0.480   3.192   5.580  0.0292  0.1697  0.5323
 9025TIP3    H227017   0.554   3.304   5.510 -0.3860 -0.1639 -0.4504
 9026TIP3   OH227018   0.746   4.227   3.019 -0.5599 -0.2579  0.2976
 9026TIP3    H127019   0.686   4.157   3.043 -0.2824 -0.7657 -0.4573
 9026TIP3    H227020   0.829   4.203   3.060 -0.5813 -0.1341  0.4140
 9027TIP3   OH227021   1.769   4.012   5.612 -0.2512  0.7216 -0.1354
 9027TIP3    H127022   1.720   4.040   5.534  0.8507 -0.1887 -1.1970
 9027TIP3    H227023   1.860   4.033   5.592  0.2254 -0.8066  0.3112
 9028TIP3   OH227024   4.927   1.277   3.225 -0.0715 -0.2198  0.5398
 9028TIP3    H127025   5.010   1.321   3.241 -0.2275  0.4239 -0.3253
 9028TIP3    H227026   4.881   1.333   3.162 -0.7005 -1.1131  0.1643
 9029TIP3   OH227027   8.276   3.083   3.277  0.5730  0.4667  0.1490
 9029TIP3    H127028   8.361   3.083   3.321  0.5777 -2.3313  0.3567
 9029TIP3    H227029   8.219   3.033   3.336 -0.4004 -0.2226 -1.3073
 9030TIP3   OH227030   8.206   1.291   4.633 -0.5276  0.0843  1.0763
 9030TIP3    H127031   8.296   1.316   4.612 -1.2966  0.6453 -2.0641
 9030TIP3    H227032   8.215   1.217   4.692  1.9742  0.6053  1.4578
 9031TIP3   OH227033   2.965   6.652   2.839  0.1733  0.2335  0.2982
 9031TIP3    H127034   2.909   6.686   2.909 -1.2326 -1.7383  0.2193
 9031TIP3    H227035   3.016   6.583   2.880  0.5491  0.1644 -0.2719
 9032TIP3   OH227036   5.592   7.409   2.801 -0.7409  0.2164 -0.2801
 9032TIP3    H127037   5.669   7.431   2.855 -1.5229 -0.6132  1.2502
 9032TIP3    H227038   5.537   7.487   2.805 -0.4974  0.4002 -0.4456
 9033TIP3   OH227039   5.968   2.518   0.545  0.1573  0.4289  0.0063
 9033TIP3    H127040   5.966   2.455   0.474  1.8512  0.8835 -0.4748
 9033TIP3    H227041   5.897   2.491   0.603 -1.4706  0.2046 -1.9636
 9034TIP3   OH227042   7.687   2.609   0.399  0.2911  0.1070  0.3056
 9034TIP3    H127043   7.706   2.635   0.309 -0.5664  2.0720  0.6322
 9034TIP3    H227044   7.621   2.540   0.390  2.2386 -1.7278 -0.5966
 9035TIP3   OH227045   5.987   3.959   2.186  0.3210  0.5162 -0.1326
 9035TIP3    H127046   6.010   4.041   2.230  0.9193 -0.2430  1.0223
 9035TIP3    H227047   6.042   3.893   2.229  0.3293 -0.3940 -1.4880
 9036TIP3   OH227048   5.844   3.933   6.790 -0.5677 -0.2900 -0.2595
 9036TIP3    H127049   5.787   3.985   6.847  0.5769 -1.5643  2.1948
 9036TIP3    H227050   5.783   3.884   6.735 -1.7619  0.4787  0.3104
 9037TIP3   OH227051   3.552   0.621   6.146 -0.0910 -0.4701  0.2593
 9037TIP3    H127052   3.596   0.649   6.226 -0.2329 -0.7478  0.4357
 9037TIP3    H227053   3.527   0.530   6.163  1.9833 -1.3299 -0.9967
 9038TIP3   OH227054   6.906   2.891   1.875 -0.0230 -0.0845 -0.6153
 9038TIP3    H127055   6.954   2.870   1.955 -0.1517  1.0835 -0.2219
 9038TIP3    H227056   6.814   2.891   1.901 -0.1354 -0.6584 -0.9922
 9039TIP3   OH227057   6.627   0.551   1.079  0.1635  0.0310 -0.5174
 9039TIP3    H127058   6.587   0.631   1.114 -1.3300 -0.3120 -1.3690
 9039TIP3    H227059   6.649   0.500   1.157  0.3728  0.9009  0.0102
 9040TIP3   OH227060   1.537   1.355   3.470 -0.0655 -0.3743  0.1416
 9040TIP3    H127061   1.534   1.446   3.443 -0.5862 -0.3834  0.1673
 9040TIP3    H227062   1.596   1.313   3.407 -0.7597 -0.2688 -0.5887
 9041TIP3   OH227063   2.268   0.836   0.865  0.5162 -0.5014 -0.7009
 9041TIP3    H127064   2.280   0.741   0.870  1.1693 -0.4057 -0.4636
 9041TIP3    H227065   2.330   0.872   0.927 -1.2233 -0.0113  0.8452
 9042TIP3   OH227066   5.116   0.066   2.897 -0.1765  0.2038 -0.4671
 9042TIP3    H127067   5.125  -0.009   2.838 -2.0389 -0.2001 -0.3162
 9042TIP3    H227068   5.059   0.034   2.967  1.2750  0.9418  1.1017
 9043TIP3   OH227069   3.107   0.472   0.270 -0.1807 -0.3304 -0.2058
 9043TIP3    H127070   3.074   0.561   0.281  0.2218 -0.3749  1.5910
 9043TIP3    H227071   3.036   0.426   0.225 -1.6188  0.1774  1.4278
 9044TIP3   OH227072   5.657   4.743   1.719 -0.7734  0.5582 -0.6598
 9044TIP3    H127073   5.726   4.748   1.785 -0.1381 -0.0713 -1.2710
 9044TIP3    H227074   5.676   4.815   1.659 -1.2886  1.0623 -0.2359
 9045TIP3   OH227075   3.078   0.363   2.400  0.3753 -0.1008  0.3791
 9045TIP3    H127076   3.113   0.298   2.339 -0.2261  0.5721 -0.7167
 9045TIP3    H227077   3.057   0.313   2.479  0.7653 -1.0772 -0.1192
 9046TIP3   OH227078   5.226   2.267   4.724  0.5656 -0.3878  0.0578
 9046TIP3    H127079   5.174   2.244   4.801 -1.1599  0.4939 -0.7960
 9046TIP3    H227080   5.267   2.350   4.747  1.5866 -1.0402  0.6985
 9047TIP3   OH227081   0.772   7.240   4.190 -0.4352  0.1795  0.5408
 9047TIP3    H127082   0.794   7.308   4.127 -2.2192 -0.2798 -0.6711
 9047TIP3    H227083   0.822   7.163   4.161  1.0058  0.7281  1.4731
 9048TIP3   OH227084   7.064   2.416   5.005  0.0995  0.4904 -0.0150
 9048TIP3    H127085   7.131   2.351   5.025 -1.9126 -1.9624 -0.6770
 9048TIP3    H227086   7.073   2.431   4.911 -1.2473 -1.1728 -0.4701
 9049TIP3   OH227087   6.510   4.830   3.486 -0.3441 -0.0222 -0.5617
 9049TIP3    H127088   6.558   4.865   3.561  0.1903  0.9524 -1.3316
 9049TIP3    H227089   6.428   4.797   3.523 -0.7468  1.7889  0.2737
 9050TIP3   OH227090   3.900   2.005   5.260 -0.1989  0.1730  0.4227
 9050TIP3    H127091   3.845   2.076   5.293 -0.6200  0.3548 -0.6091
 9050TIP3    H227092   3.839   1.933   5.242  0.0812 -0.0831  0.4928
 9051TIP3   OH227093   7.695   0.766   2.219  0.0821  0.2915  0.5257
 9051TIP3    H127094   7.614   0.787   2.173 -0.7797 -2.3275  0.7145
 9051TIP3    H227095   7.736   0.698   2.167  0.7974 -0.3201  1.8263
 9052TIP3   OH227096   5.965   2.215   2.750  0.0258  0.5835  0.3298
 9052TIP3    H127097   6.058   2.191   2.751 -0.3158 -0.7985  1.3622
 9052TIP3    H227098   5.962   2.293   2.694  1.6027 -0.1789 -0.9267
 9053TIP3   OH227099   6.069   3.787   0.566  0.0760 -0.4683 -0.1422
 9053TIP3    H127100   6.131   3.766   0.495  2.5300  1.2533  1.3125
 9053TIP3    H227101   6.071   3.710   0.622  0.7743 -0.5202 -0.2224
 9054TIP3   OH227102   7.366   2.026   4.061 -0.3229  0.2134  0.4539
 9054TIP3    H127103   7.342   1.968   4.134 -0.1547 -0.7428 -0.2322
 9054TIP3    H227104   7.418   1.971   4.003  0.5262  1.2850  0.1699
 9055TIP3   OH227105   5.989   4.177   5.151 -0.0511 -0.3808  0.4988
 9055TIP3    H127106   6.016   4.252   5.203  1.6033 -0.9685  0.5797
 9055TIP3    H227107   5.924   4.211   5.090  2.1871  1.6293 -0.9142
 9056TIP3   OH227108   4.657   4.207   2.577  0.4641  0.3071  0.1243
 9056TIP3    H127109   4.673   4.114   2.592  0.4701 -0.3950 -3.4196
 9056TIP3    H227110   4.728   4.235   2.520  0.2396  2.4320  0.7988
 9057TIP3   OH227111   5.664   2.207   4.287 -0.3848  0.1357 -0.3460
 9057TIP3    H127112   5.681   2.139   4.221 -2.2583 -1.3118  0.5483
 9057TIP3    H227113   5.574   2.192   4.314 -0.3477  2.0288  1.0467
 9058TIP3   OH227114   3.510   5.953   1.340  0.0881  0.2816 -0.0017
 9058TIP3    H127115   3.555   6.031   1.306 -2.1103  1.4493 -0.4616
 9058TIP3    H227116   3.563   5.925   1.415  2.7819  0.1584 -1.8139
 9059TIP3   OH227117   7.923   2.189   2.782  0.2384  0.5406 -0.3667
 9059TIP3    H127118   7.880   2.267   2.815  1.2015  0.9755 -0.0902
 9059TIP3    H227119   7.877   2.116   2.825  0.4648  1.0314  0.7566
 9060TIP3   OH227120   1.162   3.830   3.626 -0.0748  0.4025 -0.3268
 9060TIP3    H127121   1.101   3.760   3.651 -0.5760  0.0412 -2.3445
 9060TIP3    H227122   1.161   3.829   3.530  1.7612  1.5953 -0.4059
 9061TIP3   OH227123   2.857   2.850   6.496  0.2467 -0.6060 -0.5046
 9061TIP3    H127124   2.895   2.802   6.423 -0.2128 -0.9174 -0.5372
 9061TIP3    H227125   2.765   2.863   6.472  0.3520  0.2657 -0.4873
 9062TIP3   OH227126   4.749   6.518   0.130  0.1098 -0.5804  0.4350
 9062TIP3    H127127   4.840   6.523   0.158 -0.0422 -0.9733  1.0091
 9062TIP3    H227128   4.740   6.430   0.093 -0.0888 -0.6126  0.5606
 9063TIP3   OH227129   2.315   2.870   4.519  0.3341 -0.5485 -0.3488
 9063TIP3    H127130   2.240   2.811   4.515  0.8200 -1.4888  2.2060
 9063TIP3    H227131   2.285   2.942   4.574  1.3394 -1.0978  0.9752
 9064TIP3   OH227132   6.802   5.038   3.060 -0.6824 -0.2053 -0.3627
 9064TIP3    H127133   6.836   5.000   3.141 -1.1002  0.7613  0.2912
 9064TIP3    H227134   6.879   5.052   3.005 -0.2742  0.0226  0.2611
 9065TIP3   OH227135   1.987   4.244   1.100 -0.4773 -0.3518 -0.0214
 9065TIP3    H127136   1.995   4.149   1.096 -0.1765 -0.5180  2.5919
 9065TIP3    H227137   1.902   4.260   1.142 -0.8554  0.5691 -1.0900
 9066TIP3   OH227138   7.922   6.309   2.115 -0.6014  0.4404  0.1136
 9066TIP3    H127139   7.937   6.374   2.183 -0.9398 -0.4963  1.1000
 9066TIP3    H227140   7.929   6.225   2.159  1.3523 -0.2922 -1.4198
 9067TIP3   OH227141   1.061   5.211   4.154 -0.0346 -0.0265 -0.3376
 9067TIP3    H127142   1.113   5.283   4.189  0.3856 -0.6777  0.4014
 9067TIP3    H227143   1.086   5.206   4.061  0.2907  0.4586 -0.2784
 9068TIP3   OH227144   6.905   1.564   0.475 -0.1544  0.1154  0.1589
 9068TIP3    H127145   6.877   1.655   0.482  0.0238  0.1941 -0.1148
 9068TIP3    H227146   6.953   1.560   0.392  1.5766  0.2511  1.1107
 9069TIP3   OH227147   6.972   5.240   4.211 -0.1166 -0.1004  0.1906
 9069TIP3    H127148   6.877   5.225   4.215 -0.0783 -0.0668  1.6377
 9069TIP3    H227149   6.996   5.267   4.299  1.1181  0.7556 -0.3777
 9070TIP3   OH227150   1.870   0.482   0.432  0.7996  0.5928 -0.1221
 9070TIP3    H127151   1.813   0.471   0.508  0.0572  2.4079 -0.3738
 9070TIP3    H227152   1.914   0.397   0.423 -1.9038 -0.9677  0.0592
 9071TIP3   OH227153   7.923   0.703   4.263 -0.1650  0.3920 -0.0601
 9071TIP3    H127154   7.936   0.792   4.230  2.7615  0.0293 -0.1686
 9071TIP3    H227155   7.839   0.707   4.309 -1.1175  2.6422 -1.7702
 9072TIP3   OH227156   5.584   6.885   2.094 -0.8219  0.4764 -0.4557
 9072TIP3    H127157   5.534   6.954   2.138 -1.1589  1.1267 -1.8070
 9072TIP3    H227158   5.629   6.931   2.023 -0.0499 -0.4943 -0.6086
 9073TIP3   OH227159   2.045   0.039   4.071 -0.7705  0.4340 -0.1270
 9073TIP3    H127160   1.970   0.030   4.131 -1.2315  0.5535 -0.6760
 9073TIP3    H227161   2.021   0.113   4.015 -0.1517  0.5918 -0.1925
 9074TIP3   OH227162   4.347   5.727   1.950  0.3748 -0.0395 -0.2882
 9074TIP3    H127163   4.381   5.754   1.865  1.2060 -1.5778 -0.4792
 9074TIP3    H227164   4.317   5.637   1.937  0.1203 -0.1569  0.9437
 9075TIP3   OH227165   5.271  -0.004   2.153 -0.1396 -0.6018  0.5214
 9075TIP3    H127166   5.272   0.049   2.074 -0.6605 -0.6126  0.5032
 9075TIP3    H227167   5.359  -0.040   2.160 -0.0685 -0.5226 -0.0001
 9076TIP3   OH227168   1.856   1.732   3.237  0.1104 -0.1220  0.4348
 9076TIP3    H127169   1.946   1.699   3.235  1.0569  2.3181 -1.8378
 9076TIP3    H227170   1.816   1.700   3.156  0.3283  2.1854 -0.6622
 9077TIP3   OH227171   2.449   5.979   5.930  0.0391  0.4448  0.0862
 9077TIP3    H127172   2.415   6.002   6.016 -0.2760  0.9819 -0.1764
 9077TIP3    H227173   2.396   6.029   5.869 -0.0775 -0.3295 -0.4573
 9078TIP3   OH227174   0.520   2.141   3.126  0.1825 -0.1282  0.6023
 9078TIP3    H127175   0.442   2.113   3.078  0.0048  1.4677 -0.0907
 9078TIP3    H227176   0.497   2.128   3.218 -0.9754  0.4800  0.4168
 9079TIP3   OH227177   7.185   6.963   6.019  1.0671  0.7902 -0.0171
 9079TIP3    H127178   7.259   6.963   5.959  0.4814  1.1664 -0.7485
 9079TIP3    H227179   7.123   6.902   5.980  2.4718 -2.5610  2.5054
 9080TIP3   OH227180   1.997   7.232   3.875 -0.0783  0.0081  0.2159
 9080TIP3    H127181   1.922   7.273   3.917  0.5481  0.1296  1.2584
 9080TIP3    H227182   2.054   7.304   3.851  0.0993 -0.1301  0.2174
 9081TIP3   OH227183   7.027   5.908   5.551 -0.4257 -0.3196  0.0983
 9081TIP3    H127184   6.935   5.936   5.556 -0.0721  0.7088  1.0306
 9081TIP3    H227185   7.037   5.845   5.623  0.1958  1.3834  1.5506
 9082TIP3   OH227186   4.218   0.385   3.394 -0.0852 -0.4945  0.0487
 9082TIP3    H127187   4.296   0.390   3.339  0.0102 -1.8800  0.0131
 9082TIP3    H227188   4.230   0.453   3.459  0.7893 -0.1881 -0.4162
 9083TIP3   OH227189   4.936   6.074   2.926 -0.0401 -0.4046 -0.0684
 9083TIP3    H127190   4.890   6.092   2.844 -0.0346 -0.1348 -0.0152
 9083TIP3    H227191   4.949   6.161   2.966  0.2781 -0.4994  0.0428
 9084TIP3   OH227192   0.836   5.056   4.022 -0.2757 -0.4165  0.1652
 9084TIP3    H127193   0.910   5.004   4.054  0.8161  0.1096 -1.3865
 9084TIP3    H227194   0.828   5.128   4.084  2.1875  0.9287 -0.9244
 9085TIP3   OH227195   6.280   1.479   3.115  0.1340  0.4083  0.1990
 9085TIP3    H127196   6.361   1.513   3.152  1.9437 -2.5466 -0.7555
 9085TIP3    H227197   6.254   1.545   3.051  1.4333  1.7053  0.9425
 9086TIP3   OH227198   0.429   3.208   3.444 -0.0776  0.3361  0.0897
 9086TIP3    H127199   0.524   3.223   3.441  0.3147 -1.9101 -0.6550
 9086TIP3    H227200   0.398   3.238   3.359  0.2069 -0.2151 -0.2147
 9087TIP3   OH227201   7.661   1.988   4.678  0.9868  0.9752  0.0694
 9087TIP3    H127202   7.649   2.083   4.675 -0.4419  0.8343  0.5989
 9087TIP3    H227203   7.572   1.952   4.674  1.5778 -0.4292 -2.2394
 9088TIP3   OH227204   6.617   4.804   0.022  0.1140  0.5058  0.1277
 9088TIP3    H127205   6.674   4.764   0.087 -0.1377  1.6131  1.0534
 9088TIP3    H227206   6.533   4.813   0.065 -0.7870 -1.0476 -1.2047
 9089TIP3   OH227207   4.309   6.376   6.607 -0.4210 -0.2586 -0.2281
 9089TIP3    H127208   4.397   6.400   6.636 -1.1184  1.0587  0.9142
 9089TIP3    H227209   4.319   6.359   6.513  1.1988 -0.9924  0.0356
 9090TIP3   OH227210   6.703   0.693   0.410 -0.0524  0.1506  0.0064
 9090TIP3    H127211   6.730   0.636   0.338  1.0527  1.0403 -0.3158
 9090TIP3    H227212   6.703   0.636   0.487  0.1290 -0.4984 -0.4683
 9091TIP3   OH227213   0.184   6.682   4.501  0.3263  0.4380 -0.3614
 9091TIP3    H127214   0.246   6.750   4.476 -0.5464  1.0284 -0.9809
 9091TIP3    H227215   0.176   6.690   4.596  1.0600  0.4614 -0.2966
 9092TIP3   OH227216   4.144   6.442   3.635 -0.1095 -0.1017  0.2457
 9092TIP3    H127217   4.106   6.395   3.710  1.5950 -0.6686  0.7913
 9092TIP3    H227218   4.111   6.395   3.558  0.8686 -1.6911  0.7586
 9093TIP3   OH227219   1.176   0.421   5.141  0.0047 -0.2092  0.0570
 9093TIP3    H127220   1.245   0.377   5.191  0.4580  0.7037  0.2488
 9093TIP3    H227221   1.109   0.440   5.206 -0.3828 -0.9723 -0.1041
 9094TIP3   OH227222   0.743   2.145   1.529 -0.4735 -0.2221 -0.3782
 9094TIP3    H127223   0.708   2.078   1.587 -1.7615  0.9540  0.2671
 9094TIP3    H227224   0.819   2.180   1.575  0.2201 -1.2391 -0.7343
 9095TIP3   OH227225   4.411   4.177   5.161  0.1323  0.4839 -0.1727
 9095TIP3    H127226   4.418   4.179   5.065  0.7950 -0.2568 -0.1458
 9095TIP3    H227227   4.388   4.087   5.181  1.0974  0.3636  0.4335
 9096TIP3   OH227228   2.797   5.127   3.595 -0.3978  0.4836 -0.0789
 9096TIP3    H127229   2.860   5.178   3.645 -1.5067  1.1655  0.6599
 9096TIP3    H227230   2.800   5.164   3.507  0.6678  0.0920 -0.2204
 9097TIP3   OH227231   7.004   7.479   5.979 -0.4121 -0.2109 -0.5515
 9097TIP3    H127232   7.043   7.397   6.010  2.8577  1.5428  0.4669
 9097TIP3    H227233   6.993   7.467   5.885  1.9194 -1.1654 -0.7605
 9098TIP3   OH227234   6.298   6.115   0.788  0.1550  0.7450  0.2443
 9098TIP3    H127235   6.383   6.092   0.750 -0.4763 -0.0299 -0.7321
 9098TIP3    H227236   6.253   6.162   0.718 -0.9810 -0.6006  0.0366
 9099TIP3   OH227237   7.084   0.610   2.945  0.1258 -0.0008  0.4184
 9099TIP3    H127238   7.108   0.636   3.035 -1.2569  1.8897  0.3208
 9099TIP3    H227239   6.992   0.585   2.952  0.0917 -0.1174 -0.4179
 9100TIP3   OH227240   1.316   5.719   3.977 -0.4477  0.0276 -0.0721
 9100TIP3    H127241   1.359   5.633   3.969 -2.4557 -0.9620 -1.0535
 9100TIP3    H227242   1.387   5.779   4.000  1.3488 -1.5785 -1.0840
 9101TIP3   OH227243   5.409   4.139   4.007  0.4452 -0.0708 -0.6743
 9101TIP3    H127244   5.485   4.163   3.953  0.1526  1.0818 -0.5990
 9101TIP3    H227245   5.446   4.086   4.078  1.2243  0.6416 -0.5275
 9102TIP3   OH227246   4.229   4.711   3.266  0.3128 -0.1075  0.4995
 9102TIP3    H127247   4.283   4.788   3.244  0.5757 -0.4717 -0.1751
 9102TIP3    H227248   4.292   4.645   3.292  0.3190 -0.8871 -1.3312
 9103TIP3   OH227249   1.419   4.218   3.803 -0.3302  0.0937 -0.2319
 9103TIP3    H127250   1.380   4.130   3.799 -0.1716  0.0093  0.0713
 9103TIP3    H227251   1.362   4.266   3.863 -0.6961  0.3428 -0.7691
 9104TIP3   OH227252   7.315   5.085   6.567 -0.2492 -0.3121  0.1883
 9104TIP3    H127253   7.310   5.121   6.655  1.4007  1.7553 -0.4941
 9104TIP3    H227254   7.242   5.125   6.520  0.7543  1.1272 -0.1945
 9105TIP3   OH227255   7.112   4.324   1.442 -0.3315  0.9086 -0.1609
 9105TIP3    H127256   7.158   4.329   1.526 -0.4390  0.9402 -0.1035
 9105TIP3    H227257   7.181   4.328   1.376 -0.2821  1.3607 -0.0830
 9106TIP3   OH227258   3.182   7.862   2.343  0.1892 -0.2922  0.4458
 9106TIP3    H127259   3.180   7.882   2.437 -0.5040 -0.9204  0.5729
 9106TIP3    H227260   3.109   7.912   2.307 -0.2532 -0.9280  0.4347
 9107TIP3   OH227261   5.693   5.291   2.540  0.2561  0.1370  0.2193
 9107TIP3    H127262   5.718   5.199   2.534  0.9013  0.3607 -0.7772
 9107TIP3    H227263   5.663   5.302   2.630  2.9024 -0.3865  1.2493
 9108TIP3   OH227264   4.252   5.823   3.076  0.3774 -0.3574  0.1510
 9108TIP3    H127265   4.318   5.755   3.089 -1.2454 -2.4189 -1.6224
 9108TIP3    H227266   4.264   5.852   2.986 -0.1428  0.3819  0.3085
 9109TIP3   OH227267   3.246   5.968   3.659  0.1352  0.5836 -0.6759
 9109TIP3    H127268   3.208   5.885   3.688  0.3574  1.3760  2.2108
 9109TIP3    H227269   3.326   5.944   3.614  0.9187 -0.7772  1.3108
 9110TIP3   OH227270   1.591   6.542   3.684 -0.2611 -0.9909 -0.0031
 9110TIP3    H127271   1.529   6.572   3.617  0.0086  0.0130  0.1770
 9110TIP3    H227272   1.539   6.486   3.742 -0.2929 -2.6032 -1.5322
 9111TIP3   OH227273   2.319   1.506   3.897 -0.1356  0.2709 -0.2909
 9111TIP3    H127274   2.312   1.551   3.813 -0.6830  0.5246 -0.1176
 9111TIP3    H227275   2.379   1.561   3.949  0.0449  0.2208 -0.4452
 9112TIP3   OH227276   6.696   6.170   5.361 -0.1869 -0.0373  0.6937
 9112TIP3    H127277   6.718   6.257   5.328  0.9303 -0.6012 -0.1270
 9112TIP3    H227278   6.613   6.182   5.406 -0.0726  1.4475  0.5716
 9113TIP3   OH227279   1.950   3.264   1.902 -0.3662 -0.3757 -0.0015
 9113TIP3    H127280   1.966   3.253   1.808 -0.0299  1.1326 -0.1572
 9113TIP3    H227281   2.017   3.212   1.945  0.0237 -0.3883 -0.6138
 9114TIP3   OH227282   2.802   5.453   6.099 -0.3342  0.5669 -0.1618
 9114TIP3    H127283   2.720   5.500   6.114  0.0015  1.4352 -0.9080
 9114TIP3    H227284   2.784   5.363   6.124 -1.4565  0.7922 -0.1332
 9115TIP3   OH227285   3.387   4.928   0.813  0.5386  0.0911  0.1061
 9115TIP3    H127286   3.478   4.943   0.837  0.1834 -0.1490  1.7263
 9115TIP3    H227287   3.369   4.839   0.842 -0.2605  0.2128  0.0058
 9116TIP3   OH227288   2.851   0.860   3.862 -0.1645  0.1589  0.1353
 9116TIP3    H127289   2.769   0.838   3.817 -0.1181  1.0729 -0.4316
 9116TIP3    H227290   2.831   0.939   3.911  0.6623  1.0809 -0.9473
 9117TIP3   OH227291   0.190   4.294   3.583 -0.5166 -0.2285 -0.5232
 9117TIP3    H127292   0.206   4.209   3.543  1.3922  0.2568 -0.8978
 9117TIP3    H227293   0.263   4.306   3.644 -2.1538  0.0366  1.5090
 9118TIP3   OH227294   4.198   5.504   1.915  0.2205  0.2040 -0.4747
 9118TIP3    H127295   4.134   5.436   1.935 -1.1501  1.4509 -0.4738
 9118TIP3    H227296   4.176   5.531   1.826 -0.0179  1.4347 -0.0616
 9119TIP3   OH227297   7.494   7.510   5.758  0.1710  0.5560 -0.5368
 9119TIP3    H127298   7.560   7.469   5.703 -0.3268 -0.7940 -0.1639
 9119TIP3    H227299   7.422   7.531   5.698 -0.2333 -0.6060 -0.4776
 9120TIP3   OH227300   5.959   6.274   5.326 -0.2460  0.2167 -0.4100
 9120TIP3    H127301   5.919   6.259   5.240 -0.2174 -0.4376 -0.3103
 9120TIP3    H227302   6.044   6.230   5.321 -0.1953  0.2805 -0.0829
 9121TIP3   OH227303   2.730   7.509   0.024  0.2981  0.5837  0.0944
 9121TIP3    H127304   2.804   7.568   0.033 -1.0302  2.5887 -1.1646
 9121TIP3    H227305   2.674   7.528   0.099  0.9107 -0.7717  0.9275
 9122TIP3   OH227306   3.225   3.597   4.408 -0.2997 -0.6661 -0.7327
 9122TIP3    H127307   3.139   3.632   4.430 -0.2925 -0.8824 -0.3499
 9122TIP3    H227308   3.283   3.631   4.476 -0.1846 -0.9625 -0.6829
 9123TIP3   OH227309   6.111   2.546   6.840 -0.3450  0.1793 -0.0557
 9123TIP3    H127310   6.119   2.578   6.750 -2.9631  1.8806  0.1949
 9123TIP3    H227311   6.032   2.492   6.839 -0.7126  0.6492  1.3002
 9124TIP3   OH227312   2.644   2.187   6.682 -0.1088 -0.3233 -0.1099
 9124TIP3    H127313   2.681   2.258   6.735  0.0369 -0.8832  0.5541
 9124TIP3    H227314   2.562   2.165   6.726 -2.0472  1.8736 -2.3759
 9125TIP3   OH227315   4.711   5.026   6.801 -0.6047 -0.6803 -0.1234
 9125TIP3    H127316   4.764   5.093   6.758  2.4902 -1.9037  1.5013
 9125TIP3    H227317   4.625   5.067   6.812  0.7263  2.4786 -0.4421
 9126TIP3   OH227318   6.785   1.420   0.215  0.1728  0.3228  0.1713
 9126TIP3    H127319   6.875   1.427   0.248  0.4659 -0.0481 -0.5107
 9126TIP3    H227320   6.791   1.452   0.125 -0.2914 -0.0767 -0.0067
 9127TIP3   OH227321   4.668   2.196   2.376  0.4454 -0.2649  0.2057
 9127TIP3    H127322   4.629   2.142   2.445  1.8400 -1.0264  0.4494
 9127TIP3    H227323   4.712   2.133   2.318 -0.2630  0.4055 -1.1069
 9128TIP3   OH227324   1.937   4.203   0.356 -0.7979  0.3073 -0.3048
 9128TIP3    H127325   1.972   4.292   0.362 -2.1562  0.8121  0.5905
 9128TIP3    H227326   1.948   4.166   0.444 -0.7145 -0.2241 -0.5336
 9129TIP3   OH227327   8.280   5.928   0.985 -0.1943 -0.0451 -0.2497
 9129TIP3    H127328   8.200   5.935   0.932 -0.7112 -0.4027  0.4711
 9129TIP3    H227329   8.255   5.962   1.071  0.3992 -0.2642  0.0134
 9130TIP3   OH227330   3.116   2.861   3.769  0.0080 -0.0387 -0.1024
 9130TIP3    H127331   3.071   2.937   3.805  2.7962  1.9206 -0.3795
 9130TIP3    H227332   3.100   2.866   3.675  0.4359  0.4352 -0.1572
 9131TIP3   OH227333   1.144   7.336   5.813 -0.1133 -0.2820  0.0925
 9131TIP3    H127334   1.113   7.325   5.723  0.2824 -0.5579 -0.0150
 9131TIP3    H227335   1.229   7.291   5.814  1.2310  2.0625 -0.1574
 9132TIP3   OH227336   1.883   6.465   0.246  0.1720  0.1998  0.6475
 9132TIP3    H127337   1.899   6.551   0.206  0.9789 -0.7538 -1.1828
 9132TIP3    H227338   1.971   6.432   0.266 -0.0995 -0.5155  0.6583
 9133TIP3   OH227339   5.516   4.463   3.298  0.0239  0.1467  0.1109
 9133TIP3    H127340   5.568   4.421   3.229 -1.0643  0.4954 -0.9535
 9133TIP3    H227341   5.442   4.403   3.311  0.0071  0.2916  0.6930
 9134TIP3   OH227342   3.699   1.498   0.634  0.0014  0.2295  0.2786
 9134TIP3    H127343   3.670   1.438   0.703 -0.0593  0.2508  0.2718
 9134TIP3    H227344   3.623   1.507   0.577  0.8083 -1.8449 -1.2562
 9135TIP3   OH227345   0.266   0.707   3.451 -0.0278 -0.0479  0.2236
 9135TIP3    H127346   0.290   0.630   3.502 -0.3520  0.7868  1.6900
 9135TIP3    H227347   0.194   0.747   3.499 -0.9703  0.2894 -1.3869
 9136TIP3   OH227348   4.955   7.662   5.412  0.0387 -0.0929  0.1355
 9136TIP3    H127349   5.037   7.667   5.461  0.8372  0.5433 -1.1960
 9136TIP3    H227350   4.977   7.615   5.332 -1.5137 -2.2165  0.8699
 9137TIP3   OH227351   5.311   5.323   4.803  0.5380 -0.0616  0.0536
 9137TIP3    H127352   5.249   5.383   4.845 -1.3827 -0.1624 -2.3916
 9137TIP3    H227353   5.379   5.380   4.768 -0.2464  0.5160 -0.5674
 9138TIP3   OH227354   6.643   2.045   0.367 -0.0617 -0.2254 -0.1513
 9138TIP3    H127355   6.657   2.135   0.397  2.7193 -0.8373  0.7615
 9138TIP3    H227356   6.633   2.053   0.272 -0.0614  1.0598 -0.0662
 9139TIP3   OH227357   6.280   5.315   5.576  0.2052 -0.6396 -0.0863
 9139TIP3    H127358   6.339   5.300   5.650  1.3877 -0.1645 -0.8879
 9139TIP3    H227359   6.195   5.281   5.604  0.6792 -0.6451  1.3973
 9140TIP3   OH227360   6.204   4.957   4.071 -0.0369  0.1332 -0.3726
 9140TIP3    H127361   6.262   4.971   3.997 -0.7387 -0.3135 -1.0292
 9140TIP3    H227362   6.258   4.973   4.148  1.4183 -1.7863 -0.9009
 9141TIP3   OH227363   7.323   1.252   3.108  0.1612 -0.0069 -0.2851
 9141TIP3    H127364   7.413   1.261   3.139  0.1518 -2.8893  0.8739
 9141TIP3    H227365   7.270   1.257   3.187 -0.5533  0.0285 -0.7621
 9142TIP3   OH227366   7.619   5.684   4.103 -0.3464  0.6672 -0.2404
 9142TIP3    H127367   7.610   5.766   4.055  0.0683  0.8486 -0.0144
 9142TIP3    H227368   7.620   5.616   4.035  0.1607  0.9146 -0.4862
 9143TIP3   OH227369   3.711   5.340   4.925  0.0762 -0.6519  0.7760
 9143TIP3    H127370   3.702   5.258   4.973  0.1026 -1.5939 -0.7572
 9143TIP3    H227371   3.621   5.366   4.904  0.1034 -2.3140 -1.9153
 9144TIP3   OH227372   3.482   4.325   1.025 -0.3653  0.2245 -0.5004
 9144TIP3    H127373   3.422   4.309   1.097  1.4157  0.2735  1.0812
 9144TIP3    H227374   3.502   4.418   1.030  2.6119 -0.3624  1.4515
 9145TIP3   OH227375   7.842   2.183   6.876 -0.0538  0.1567 -0.3017
 9145TIP3    H127376   7.885   2.168   6.792  1.6115  0.3640  0.4772
 9145TIP3    H227377   7.821   2.095   6.908 -1.4764  0.0965 -1.2684
 9146TIP3   OH227378   3.647   4.813   3.412  0.3735  0.0498  0.9524
 9146TIP3    H127379   3.615   4.868   3.340  0.7124 -0.5627  0.3254
 9146TIP3    H227380   3.697   4.744   3.369  2.6006  0.9820  1.9095
 9147TIP3   OH227381   7.633   0.237   0.692  0.4544  0.3055 -0.2594
 9147TIP3    H127382   7.618   0.159   0.639  0.0665  1.2498 -1.5986
 9147TIP3    H227383   7.657   0.305   0.629  0.8702  1.2528  0.8775
 9148TIP3   OH227384   7.623   3.368   0.570 -0.3948 -0.4727 -0.2050
 9148TIP3    H127385   7.698   3.392   0.624 -0.3976  0.1189 -0.4558
 9148TIP3    H227386   7.623   3.272   0.571  1.3493 -0.5348 -1.5457
 9149TIP3   OH227387   2.251   7.423   5.301 -0.1960 -0.1256 -0.1902
 9149TIP3    H127388   2.183   7.374   5.255 -1.2858 -0.5841  1.7997
 9149TIP3    H227389   2.231   7.411   5.394  0.4273  2.7579  0.4237
 9150TIP3   OH227390   8.010   2.833   0.065  0.7892  0.3487  0.0013
 9150TIP3    H127391   8.016   2.747   0.024  1.4513 -0.1762  1.1343
 9150TIP3    H227392   8.050   2.821   0.151  1.4561  1.9538 -0.0500
 9151TIP3   OH227393   3.039   0.263   0.662  0.0265 -0.1146 -0.4864
 9151TIP3    H127394   3.045   0.170   0.639 -0.6089  0.0350 -1.3067
 9151TIP3    H227395   3.115   0.303   0.621 -0.7992  0.0553 -1.9168
 9152TIP3   OH227396   2.955   3.363   4.901  0.5260  0.4312 -0.3617
 9152TIP3    H127397   2.941   3.285   4.847 -1.8323  0.7895 -0.3430
 9152TIP3    H227398   3.035   3.403   4.865  1.3413 -1.5543 -0.8524
 9153TIP3   OH227399   4.553   5.345   1.528  0.4230 -0.5543 -0.0914
 9153TIP3    H127400   4.593   5.297   1.600 -1.9855 -1.0546  0.9929
 9153TIP3    H227401   4.476   5.294   1.505 -0.3232  1.0092 -1.2287
 9154TIP3   OH227402   1.503   0.831   4.975  0.2911  0.0615 -0.2152
 9154TIP3    H127403   1.418   0.861   5.007 -0.7499 -0.4181 -2.3327
 9154TIP3    H227404   1.532   0.768   5.040 -1.7137 -0.8796 -0.1513
 9155TIP3   OH227405   2.749   6.503   0.266  0.0257  0.2699 -0.3393
 9155TIP3    H127406   2.743   6.587   0.220 -2.4681 -0.5439 -1.7184
 9155TIP3    H227407   2.793   6.445   0.204 -0.9049 -0.1461 -0.6306
 9156TIP3   OH227408   2.006   4.039   4.829 -0.0739  0.0183  0.4181
 9156TIP3    H127409   2.033   3.983   4.757 -1.9720 -0.8129  0.2915
 9156TIP3    H227410   2.051   4.122   4.813  1.1808 -0.8198 -0.5328
 9157TIP3   OH227411   6.376   6.361   4.051 -0.0593 -0.0244  0.0289
 9157TIP3    H127412   6.400   6.415   3.975 -0.3829  0.3137  0.1615
 9157TIP3    H227413   6.362   6.274   4.015  0.2935  0.0192 -0.2195
 9158TIP3   OH227414   1.661   1.448   6.488 -0.1243 -0.2049 -0.4403
 9158TIP3    H127415   1.689   1.528   6.533  0.2210  0.0792 -1.1393
 9158TIP3    H227416   1.589   1.415   6.541  1.0717 -0.5743  1.0126
 9159TIP3   OH227417   5.413   3.730   2.898  0.1355  0.0437  0.5590
 9159TIP3    H127418   5.408   3.760   2.989  1.8626  0.3311  0.5960
 9159TIP3    H227419   5.387   3.806   2.846  0.8911  0.4672  0.7762
 9160TIP3   OH227420   8.297   4.939   6.743 -0.1350  0.1685  0.0166
 9160TIP3    H127421   8.331   5.008   6.799 -2.6518  0.5723  1.1952
 9160TIP3    H227422   8.305   4.973   6.655 -0.7374  1.7184  0.5330
 9161TIP3   OH227423   3.484   7.246   0.622 -0.4505 -0.5989  0.1215
 9161TIP3    H127424   3.515   7.203   0.543 -1.2087 -0.4626 -0.2643
 9161TIP3    H227425   3.472   7.176   0.686  2.5525 -0.4442  0.9699
 9162TIP3   OH227426   3.109   2.494   6.881 -0.4012  0.0649 -0.2937
 9162TIP3    H127427   3.197   2.530   6.872 -0.6506  0.5819 -0.7735
 9162TIP3    H227428   3.063   2.524   6.802 -0.8829 -0.5531 -0.2512
 9163TIP3   OH227429   1.948   4.920   1.990 -0.1476  0.4337 -0.1476
 9163TIP3    H127430   2.015   4.989   1.989  0.0223  0.2653 -0.4012
 9163TIP3    H227431   1.952   4.881   1.903 -1.6828  1.4797 -0.7213
 9164TIP3   OH227432   1.570   4.131   1.615 -0.1693 -0.0726 -0.0545
 9164TIP3    H127433   1.540   4.189   1.545  0.4426  2.0663  1.3553
 9164TIP3    H227434   1.656   4.100   1.585 -0.4412 -0.1679 -0.7608
 9165TIP3   OH227435   3.306   1.179   5.165 -0.3249  0.5878 -0.5527
 9165TIP3    H127436   3.271   1.146   5.248  1.6008  0.0957  0.1296
 9165TIP3    H227437   3.343   1.101   5.123 -3.5498  0.2913 -3.1908
 9166TIP3   OH227438   7.074   3.139   5.277  0.0095  0.6325  0.1315
 9166TIP3    H127439   7.093   3.047   5.261  1.1641  0.6952  0.9610
 9166TIP3    H227440   7.095   3.152   5.370 -0.1536  1.7214  0.0342
 9167TIP3   OH227441   4.556   6.780   4.722 -0.4411  0.3331  0.4079
 9167TIP3    H127442   4.569   6.855   4.664 -0.5087  0.2344  0.2630
 9167TIP3    H227443   4.473   6.741   4.692  0.4502 -0.8201 -0.6682
 9168TIP3   OH227444   5.214   7.767   6.623 -0.6181 -0.4724  0.3778
 9168TIP3    H127445   5.119   7.769   6.635 -0.9527  0.9496 -1.8899
 9168TIP3    H227446   5.234   7.674   6.611 -1.6792 -0.8055  0.9957
 9169TIP3   OH227447   2.977   4.556   2.962  0.4896 -1.0790 -0.4822
 9169TIP3    H127448   2.885   4.574   2.940  0.5191  0.3551  0.4391
 9169TIP3    H227449   3.027   4.604   2.896  0.5707 -0.8523 -0.2566
 9170TIP3   OH227450   5.497   1.047   4.589 -0.6413  0.0375 -0.5094
 9170TIP3    H127451   5.409   1.077   4.611 -1.1430 -2.4359  1.2412
 9170TIP3    H227452   5.502   1.054   4.493 -2.6931  0.2937 -0.6321
 9171TIP3   OH227453   5.525   4.884   2.459  0.2985  0.0158 -0.0140
 9171TIP3    H127454   5.526   4.869   2.553  0.7876  1.3202  0.2085
 9171TIP3    H227455   5.432   4.889   2.436  0.1029  3.0345  1.0142
 9172TIP3   OH227456   3.213   3.613   0.037 -0.3855 -0.0439 -0.0267
 9172TIP3    H127457   3.244   3.697   0.070  0.0650 -1.0518  2.3058
 9172TIP3    H227458   3.287   3.553   0.051 -0.7313 -0.8783 -1.5553
 9173TIP3   OH227459   6.311   3.310   2.315 -0.4691 -0.0780 -0.2239
 9173TIP3    H127460   6.267   3.237   2.269  0.9563  0.1731 -2.1017
 9173TIP3    H227461   6.266   3.315   2.400 -0.1215 -3.6339  0.3099
 9174TIP3   OH227462   5.575   6.711   5.376 -0.3680  0.6265 -0.0454
 9174TIP3    H127463   5.626   6.658   5.436 -0.5425  0.8857  0.3352
 9174TIP3    H227464   5.604   6.684   5.289 -0.2642  0.1074  0.1512
 9175TIP3   OH227465   2.052   1.790   5.504 -0.4067  0.0721 -0.3230
 9175TIP3    H127466   2.009   1.727   5.562  0.0256 -1.3089 -1.4538
 9175TIP3    H227467   2.039   1.756   5.416  2.0642  0.1248 -0.7991
 9176TIP3   OH227468   8.373   4.305   4.440  0.2336  0.2362  0.4973
 9176TIP3    H127469   8.441   4.367   4.412  1.5970 -0.8499  1.2210
 9176TIP3    H227470   8.294   4.357   4.448  0.5896  1.2468 -1.9047
 9177TIP3   OH227471   7.143   6.085   4.496  0.1940 -0.5893 -0.5049
 9177TIP3    H127472   7.161   6.043   4.580 -1.1837  0.6761  0.4875
 9177TIP3    H227473   7.222   6.071   4.444  0.9477 -1.7006  0.8743
 9178TIP3   OH227474   2.405   4.739   1.324  0.4956  0.2594  0.4874
 9178TIP3    H127475   2.336   4.682   1.359 -0.1788  0.5546 -0.3360
 9178TIP3    H227476   2.368   4.774   1.243  1.3268  1.0189  0.4273
 9179TIP3   OH227477   1.963   7.458   3.007  0.2185 -0.2314  0.0789
 9179TIP3    H127478   1.946   7.446   2.914 -0.2314  2.1097 -0.1933
 9179TIP3    H227479   1.930   7.378   3.048 -0.5488 -0.8419 -1.6661
 9180TIP3   OH227480   5.157   0.297   4.189 -0.3069  0.2270 -0.2553
 9180TIP3    H127481   5.230   0.329   4.135 -0.3323 -0.1263 -0.5004
 9180TIP3    H227482   5.120   0.376   4.229 -0.9889  0.6108 -1.6209
 9181TIP3   OH227483   2.230   0.173   4.232 -0.1648  0.2585  0.2273
 9181TIP3    H127484   2.208   0.134   4.148  0.6390 -1.3766  0.7243
 9181TIP3    H227485   2.150   0.166   4.284  0.3643 -2.4243  0.8672
 9182TIP3   OH227486   1.502   3.920   4.754 -0.0807 -0.6145  0.9993
 9182TIP3    H127487   1.594   3.930   4.731 -0.5244  0.1267 -0.6478
 9182TIP3    H227488   1.460   3.997   4.715 -1.7406 -2.1752 -0.4707
 9183TIP3   OH227489   0.883   0.289   3.387  0.0445  0.2763 -0.1368
 9183TIP3    H127490   0.951   0.282   3.320  0.7902  0.1834  0.6022
 9183TIP3    H227491   0.856   0.199   3.404 -0.3751  0.3264 -0.5431
 9184TIP3   OH227492   6.694   6.546   1.113 -0.3034 -0.3045  0.2828
 9184TIP3    H127493   6.608   6.578   1.143 -1.1980 -0.9628 -1.4292
 9184TIP3    H227494   6.748   6.625   1.109 -0.4567 -0.0289  2.4359
 9185TIP3   OH227495   2.338   5.956   6.167  0.4742  0.3014 -0.5041
 9185TIP3    H127496   2.254   5.910   6.174  0.1198  0.8807 -0.7776
 9185TIP3    H227497   2.400   5.901   6.214  0.3474 -1.0986 -1.8915
 9186TIP3   OH227498   5.613   1.995   3.320  0.0975  0.4378  0.0680
 9186TIP3    H127499   5.631   2.018   3.411 -0.6919  0.0486  0.3262
 9186TIP3    H227500   5.661   2.060   3.269  1.0240  0.3047  0.7490
 9187TIP3   OH227501   2.473   3.234   2.824 -0.2696 -0.0130 -0.5239
 9187TIP3    H127502   2.444   3.206   2.737  0.9020 -0.8447 -0.6800
 9187TIP3    H227503   2.527   3.311   2.807  0.3552 -0.4584 -0.6011
 9188TIP3   OH227504   7.326   5.272   1.670 -0.2759 -0.1729  0.2180
 9188TIP3    H127505   7.241   5.251   1.631 -0.3944  0.2833  0.2201
 9188TIP3    H227506   7.381   5.295   1.595 -0.4734  0.6031  0.3044
 9189TIP3   OH227507   0.512   5.647   6.539  0.0512 -0.4721 -0.0929
 9189TIP3    H127508   0.589   5.687   6.578  1.0969 -1.1682 -1.3623
 9189TIP3    H227509   0.543   5.611   6.455 -1.5008 -1.3149 -0.3465
 9190TIP3   OH227510   4.778   3.308   1.906  0.3077 -0.4586 -0.1412
 9190TIP3    H127511   4.713   3.366   1.946 -0.8420 -2.7092  1.4548
 9190TIP3    H227512   4.843   3.368   1.867 -1.5243  1.8543  0.1459
 9191TIP3   OH227513   4.199   2.800   1.842  0.0003  0.0300  0.0690
 9191TIP3    H127514   4.223   2.870   1.903 -1.2795  0.9669 -0.4456
 9191TIP3    H227515   4.278   2.783   1.791  0.3004  1.2181  0.1079
 9192TIP3   OH227516   7.187   7.812   2.932 -0.2244  0.4018 -0.4045
 9192TIP3    H127517   7.197   7.884   2.994 -1.0405  1.2311 -1.2016
 9192TIP3    H227518   7.126   7.845   2.866  1.5093  0.0015 -2.3304
 9193TIP3   OH227519   3.183   6.727   2.577 -0.1799 -0.2409 -0.3531
 9193TIP3    H127520   3.200   6.756   2.666 -0.3968  0.3497 -0.5001
 9193TIP3    H227521   3.204   6.803   2.522 -0.4245 -0.4693 -0.7704
 9194TIP3   OH227522   5.716   7.652   5.551 -0.1939  0.2119 -0.4944
 9194TIP3    H127523   5.769   7.600   5.489  0.3643  1.6530 -1.2674
 9194TIP3    H227524   5.685   7.726   5.499  0.0700  1.3249  0.8903
 9195TIP3   OH227525   1.882   0.757   3.468  0.2527 -0.2523 -0.2317
 9195TIP3    H127526   1.950   0.793   3.524 -0.6122  0.2333  0.5380
 9195TIP3    H227527   1.812   0.732   3.528 -0.2313 -0.7914 -0.9989
 9196TIP3   OH227528   2.215   4.063   2.594  0.2020  0.1578  0.1963
 9196TIP3    H127529   2.125   4.086   2.618  0.0954 -0.0963  0.0426
 9196TIP3    H227530   2.211   3.969   2.574  0.5718  0.0653  0.5380
 9197TIP3   OH227531   7.521   2.782   2.782  0.2085 -0.1305  0.3701
 9197TIP3    H127532   7.570   2.827   2.851 -0.3916  0.3462  0.5017
 9197TIP3    H227533   7.502   2.696   2.818  2.7420 -1.1223 -0.4917
 9198TIP3   OH227534   7.001   1.289   6.693  0.4349 -0.1232 -0.3071
 9198TIP3    H127535   7.031   1.334   6.772  2.4074 -0.4435 -0.8271
 9198TIP3    H227536   6.962   1.208   6.725 -1.2696  0.9497  0.4850
 9199TIP3   OH227537   7.395   3.197   5.579  0.5433  0.0107  0.2671
 9199TIP3    H127538   7.435   3.244   5.505  1.0505 -0.6801  0.0942
 9199TIP3    H227539   7.468   3.170   5.633  0.4410 -2.2580 -0.6440
 9200TIP3   OH227540   0.230   6.522   3.888  0.0318  0.0894 -0.1558
 9200TIP3    H127541   0.265   6.433   3.877 -1.5340 -0.4944 -0.6014
 9200TIP3    H227542   0.164   6.531   3.819 -1.9463  0.5115  1.6852
 9201TIP3   OH227543   6.098   3.403   2.836 -0.1522  0.0686 -0.0993
 9201TIP3    H127544   6.170   3.416   2.897  1.3536  0.6110 -1.8776
 9201TIP3    H227545   6.045   3.483   2.843  1.1479  1.0520 -0.8864
 9202TIP3   OH227546   3.994   1.017   3.973 -0.4259  0.2037 -0.1705
 9202TIP3    H127547   3.950   1.074   3.910 -1.3433 -1.4318 -1.0669
 9202TIP3    H227548   3.961   0.929   3.954  0.1476 -0.5088  1.8487
 9203TIP3   OH227549   0.499   5.908   6.261 -0.5043 -0.0007  0.2284
 9203TIP3    H127550   0.453   5.922   6.344 -0.8323 -1.1620  0.2701
 9203TIP3    H227551   0.560   5.981   6.254 -0.3516  0.0287  1.5874
 9204TIP3   OH227552   4.815   7.731   3.412  0.5526 -0.2399  0.6035
 9204TIP3    H127553   4.844   7.642   3.430  1.4710 -0.0884 -0.0280
 9204TIP3    H227554   4.854   7.752   3.327 -0.8863  0.2317  0.0391
 9205TIP3   OH227555   5.264   3.274   0.255  0.2995  0.0958 -0.1065
 9205TIP3    H127556   5.192   3.221   0.290  0.3442 -0.3577 -0.6904
 9205TIP3    H227557   5.295   3.226   0.178 -0.1340  1.3250 -1.0823
 9206TIP3   OH227558   5.859   0.271   1.506  0.0634 -0.5913 -0.0020
 9206TIP3    H127559   5.833   0.358   1.535 -0.1742 -0.0805 -1.6360
 9206TIP3    H227560   5.886   0.226   1.586 -2.0924  0.1720  1.2391
 9207TIP3   OH227561   0.416   4.751   1.167  1.0854 -0.5607 -0.0241
 9207TIP3    H127562   0.464   4.812   1.111  0.8608 -1.0060 -0.7057
 9207TIP3    H227563   0.481   4.688   1.197  1.0029 -0.9400 -0.6386
 9208TIP3   OH227564   7.769   4.240   4.015  0.4672  0.1266  0.4191
 9208TIP3    H127565   7.773   4.148   4.044  0.0511  0.0899  0.3699
 9208TIP3    H227566   7.702   4.279   4.071  0.0109  0.1787 -0.1505
 9209TIP3   OH227567   8.136   2.011   3.491 -0.0292  0.1501  0.3250
 9209TIP3    H127568   8.216   2.007   3.438  1.2837 -0.2433  2.2395
 9209TIP3    H227569   8.083   1.939   3.458  0.4622  0.3045 -0.8654
 9210TIP3   OH227570   5.470   7.473   0.969 -0.0690  0.9647  0.1286
 9210TIP3    H127571   5.386   7.428   0.961  0.1575  0.0297  2.1706
 9210TIP3    H227572   5.482   7.485   1.064  1.7121  1.8363 -0.1497
 9211TIP3   OH227573   6.184   7.271   1.153  0.7723 -0.4787 -0.0688
 9211TIP3    H127574   6.146   7.331   1.089  1.4718  1.0339  0.8999
 9211TIP3    H227575   6.208   7.194   1.101  1.5142  0.7701 -1.6753
 9212TIP3   OH227576   1.519   7.626   1.565 -0.1568 -0.0725 -0.2852
 9212TIP3    H127577   1.486   7.696   1.510 -0.0633 -0.1821 -0.4817
 9212TIP3    H227578   1.441   7.581   1.597 -0.1954 -1.4073 -2.1280
 9213TIP3   OH227579   4.181   6.479   2.737 -0.4080 -0.3447 -0.1112
 9213TIP3    H127580   4.260   6.473   2.791 -0.2249 -1.0987 -0.4498
 9213TIP3    H227581   4.123   6.537   2.786  0.9017  1.4587 -0.5484
 9214TIP3   OH227582   1.986   5.282   3.150  0.5161 -0.5385 -0.1250
 9214TIP3    H127583   1.989   5.364   3.101 -0.2774 -1.1906 -1.3040
 9214TIP3    H227584   2.012   5.215   3.087  0.0886 -1.3216  0.5161
 9215TIP3   OH227585   7.922   4.490   4.625  0.0084  0.0847 -0.1627
 9215TIP3    H127586   7.833   4.463   4.600  0.2853  0.3585 -1.5233
 9215TIP3    H227587   7.933   4.456   4.713 -1.1271 -0.7282 -0.3067
 9216TIP3   OH227588   3.226   0.969   0.264  0.2381  0.0443 -0.1734
 9216TIP3    H127589   3.154   1.032   0.271  0.7703  0.9401 -2.0315
 9216TIP3    H227590   3.257   0.959   0.354 -2.2583 -0.4861  0.7090
 9217TIP3   OH227591   5.749   6.070   1.571 -0.1901 -0.2966 -0.0649
 9217TIP3    H127592   5.693   6.147   1.570 -0.6354 -0.5805  1.1672
 9217TIP3    H227593   5.703   6.006   1.517 -1.9928 -1.1117  2.2646
 9218TIP3   OH227594   0.266   4.826   3.205 -0.4805  0.3488  0.3632
 9218TIP3    H127595   0.204   4.824   3.279 -0.9536 -0.3732 -0.0465
 9218TIP3    H227596   0.265   4.737   3.170  1.3538  0.1104  0.8005
 9219TIP3   OH227597   2.788   5.602   1.632  0.3527 -0.1600  0.0631
 9219TIP3    H127598   2.735   5.537   1.679  0.9942 -0.0858  0.9235
 9219TIP3    H227599   2.746   5.686   1.652 -1.2307 -0.3593 -2.0702
 9220TIP3   OH227600   6.167   7.654   1.613 -0.3309 -0.0818  0.1393
 9220TIP3    H127601   6.176   7.623   1.523 -1.8675 -0.7553  0.1756
 9220TIP3    H227602   6.253   7.686   1.637  0.0170  0.4268 -1.6882
 9221TIP3   OH227603   3.769   7.691   6.780 -0.0277 -0.0288  0.4922
 9221TIP3    H127604   3.832   7.693   6.851 -0.9146  0.3222  1.2958
 9221TIP3    H227605   3.729   7.604   6.785  0.8835 -0.5303 -0.4860
 9222TIP3   OH227606   0.255   1.380   2.033 -0.6370 -0.6010 -0.3529
 9222TIP3    H127607   0.285   1.458   2.080 -0.7754 -0.8699  0.1936
 9222TIP3    H227608   0.196   1.414   1.966 -0.3829 -0.2020 -0.3804
 9223TIP3   OH227609   3.091   3.614   0.674  0.3630  0.5930  1.0640
 9223TIP3    H127610   3.132   3.618   0.588 -1.3081  0.7101  0.2424
 9223TIP3    H227611   3.158   3.573   0.730  1.4200  0.3763 -0.2968
 9224TIP3   OH227612   6.468   5.114   3.830  0.1566 -0.6821  0.1239
 9224TIP3    H127613   6.496   5.108   3.922 -0.7686 -1.2165  0.3890
 9224TIP3    H227614   6.542   5.080   3.780  0.6650 -0.4023  0.6708
 9225TIP3   OH227615   3.285   6.124   0.639  0.7192 -0.1649 -0.0939
 9225TIP3    H127616   3.215   6.120   0.574 -0.2268 -1.1524  0.9621
 9225TIP3    H227617   3.270   6.207   0.685  0.0199 -0.5381  0.3637
 9226TIP3   OH227618   4.056   4.439   3.436  0.4725 -0.1971 -0.0058
 9226TIP3    H127619   4.119   4.384   3.483  1.0404 -0.2297 -0.7869
 9226TIP3    H227620   4.088   4.528   3.449 -0.5283 -0.0149  1.3803
 9227TIP3   OH227621   0.508   7.610   1.475 -0.0005 -0.2467 -0.0647
 9227TIP3    H127622   0.516   7.656   1.558 -0.8420 -1.6233  0.8010
 9227TIP3    H227623   0.581   7.549   1.474  0.2533  0.0553 -0.5479
 9228TIP3   OH227624   5.130   7.555   5.071  0.2310 -0.1162  1.0643
 9228TIP3    H127625   5.139   7.650   5.063 -0.7152 -0.1274 -0.4529
 9228TIP3    H227626   5.176   7.533   5.152  2.5518  1.3245  0.2186
 9229TIP3   OH227627   2.487   1.654   3.347 -0.1654 -0.0675 -0.2575
 9229TIP3    H127628   2.540   1.622   3.274  0.1332 -0.3554  0.0804
 9229TIP3    H227629   2.462   1.575   3.395 -1.2908  0.0203 -0.6683
 9230TIP3   OH227630   4.604   3.983   3.682  0.3828  0.5348 -0.2056
 9230TIP3    H127631   4.548   4.058   3.664 -0.8537 -0.4213 -0.4507
 9230TIP3    H227632   4.686   4.003   3.636  0.3324  2.0213  0.2843
 9231TIP3   OH227633   7.904   6.683   2.667 -1.0441 -0.1946  0.1027
 9231TIP3    H127634   7.814   6.658   2.686 -1.2273 -0.0370 -0.5436
 9231TIP3    H227635   7.914   6.770   2.706 -0.6775 -0.8599  1.5678
 9232TIP3   OH227636   6.852   6.644   3.377  0.2079 -0.3818 -0.1669
 9232TIP3    H127637   6.814   6.708   3.437 -1.4839 -1.5450  0.0730
 9232TIP3    H227638   6.941   6.630   3.410 -0.0365  0.4284  0.9040
 9233TIP3   OH227639   7.484   1.060   6.780 -0.5532 -0.1741  0.1667
 9233TIP3    H127640   7.435   1.126   6.730  0.5020  0.2277 -0.3749
 9233TIP3    H227641   7.546   1.111   6.832  0.3539 -0.7306 -0.3388
 9234TIP3   OH227642   6.074   5.130   5.481 -0.0936 -0.1946  0.1718
 9234TIP3    H127643   6.030   5.190   5.541  0.4649  0.4579 -0.0639
 9234TIP3    H227644   6.008   5.114   5.413  0.4332  1.9022 -0.9453
 9235TIP3   OH227645   2.993   2.768   6.072 -0.2648 -0.1802  0.3006
 9235TIP3    H127646   3.050   2.691   6.070  0.0350  0.0453 -1.6473
 9235TIP3    H227647   2.991   2.794   6.165 -0.6159 -2.6714  1.0692
 9236TIP3   OH227648   7.017   1.498   5.793  0.3888  0.0283  0.0803
 9236TIP3    H127649   6.934   1.480   5.838  0.1854  0.9891  0.1296
 9236TIP3    H227650   7.017   1.440   5.717  1.3449 -2.6347  1.9616
 9237TIP3   OH227651   5.325   2.807   3.408 -0.4543 -0.4976 -0.1226
 9237TIP3    H127652   5.376   2.883   3.435 -0.9647  0.1881 -1.0232
 9237TIP3    H227653   5.389   2.736   3.400  0.0567 -0.1209  0.5567
 9238TIP3   OH227654   1.265   6.231   2.340  0.3559  0.1916  0.2424
 9238TIP3    H127655   1.202   6.273   2.398 -0.0950 -0.6425  0.3708
 9238TIP3    H227656   1.220   6.227   2.255 -0.2043 -1.3368  0.5759
 9239TIP3   OH227657   4.483   4.227   1.508 -0.5549 -0.3563 -0.5694
 9239TIP3    H127658   4.518   4.185   1.430 -1.5165  1.7535 -2.2366
 9239TIP3    H227659   4.449   4.155   1.561  1.2753 -1.9522 -1.4413
 9240TIP3   OH227660   1.955   0.916   4.320 -0.4898  0.0529  0.5513
 9240TIP3    H127661   1.885   0.976   4.295  0.8342  1.7564  0.7074
 9240TIP3    H227662   1.950   0.911   4.415 -0.9901 -0.5922  0.4925
 9241TIP3   OH227663   1.918   1.232   6.758  0.0183  0.0814  0.1147
 9241TIP3    H127664   1.835   1.187   6.776  0.6147 -0.9681  0.3354
 9241TIP3    H227665   1.893   1.323   6.740 -1.3526 -0.5843 -1.5603
 9242TIP3   OH227666   4.295   3.022   1.408 -0.8182 -0.3961 -0.2302
 9242TIP3    H127667   4.261   2.938   1.377 -1.4585  0.0412 -0.7407
 9242TIP3    H227668   4.255   3.032   1.495 -0.9190 -0.5100 -0.2626
 9243TIP3   OH227669   5.263   2.007   3.549  0.3354  0.2007 -0.2906
 9243TIP3    H127670   5.219   2.034   3.468  0.1448  3.2462  0.6822
 9243TIP3    H227671   5.232   1.918   3.565 -1.2328  0.2648 -2.4819
 9244TIP3   OH227672   6.487   5.409   4.124 -0.4310 -0.3143  0.0364
 9244TIP3    H127673   6.533   5.487   4.094  0.5835 -0.3453  1.4428
 9244TIP3    H227674   6.495   5.348   4.051  0.1348  0.3422 -0.4705
 9245TIP3   OH227675   1.082   5.093   2.948  0.1458  0.2656 -0.4406
 9245TIP3    H127676   1.097   5.180   2.986 -0.2896 -0.1690  0.7406
 9245TIP3    H227677   1.141   5.035   2.995  0.0685 -0.1792 -0.8801
 9246TIP3   OH227678   7.541   0.683   4.157  0.6666  0.2366  0.0005
 9246TIP3    H127679   7.542   0.593   4.124 -2.2066  0.7320 -1.8346
 9246TIP3    H227680   7.487   0.679   4.236  0.2301  0.3644 -0.2839
 9247TIP3   OH227681   4.161   1.014   0.355 -0.8163 -0.3527  0.0421
 9247TIP3    H127682   4.204   1.008   0.440 -0.9686 -1.0669  0.0742
 9247TIP3    H227683   4.069   1.026   0.376 -0.8368 -0.3952 -0.0266
 9248TIP3   OH227684   4.731   0.565   4.015 -0.3267 -0.3347 -0.3308
 9248TIP3    H127685   4.810   0.544   4.064 -0.2810  1.5850  0.5235
 9248TIP3    H227686   4.719   0.492   3.955  0.7134 -1.8346  1.2028
 9249TIP3   OH227687   2.707   7.813   2.042  0.1633 -0.3792 -0.6785
 9249TIP3    H127688   2.683   7.726   2.011 -2.4539  0.7646 -2.2053
 9249TIP3    H227689   2.742   7.857   1.964 -2.0530  1.0535 -0.9413
 9250TIP3   OH227690   6.246   4.153   0.175 -0.0428 -0.1879  0.5090
 9250TIP3    H127691   6.172   4.175   0.231 -0.3057  2.2678 -0.6287
 9250TIP3    H227692   6.284   4.238   0.151  1.7463 -1.2606 -0.7901
 9251TIP3   OH227693   3.419   4.601   3.273  0.2467 -0.1080  0.3898
 9251TIP3    H127694   3.455   4.688   3.255  1.7901 -0.5620  1.1186
 9251TIP3    H227695   3.426   4.554   3.190  0.4208  0.1141  0.2803
 9252TIP3   OH227696   4.291   6.747   6.475 -0.0004 -0.2961 -0.4258
 9252TIP3    H127697   4.233   6.736   6.550  0.1851 -1.0444 -0.3846
 9252TIP3    H227698   4.231   6.758   6.401 -0.1822  0.4110 -0.1856
 9253TIP3   OH227699   0.061   2.619   5.538 -0.0028 -0.0491  0.1356
 9253TIP3    H127700  -0.028   2.625   5.503  0.2613 -0.4803 -0.6310
 9253TIP3    H227701   0.077   2.705   5.578 -1.2052 -0.3643  1.3902
 9254TIP3   OH227702   1.189   3.806   3.352 -0.3344 -0.0088  0.0974
 9254TIP3    H127703   1.283   3.815   3.365 -0.1899  0.5205 -1.1390
 9254TIP3    H227704   1.174   3.712   3.343  0.1288 -0.0758  0.0001
 9255TIP3   OH227705   7.961   3.226   4.950  0.1844 -0.6196 -0.4871
 9255TIP3    H127706   7.920   3.288   4.890 -0.0295  0.0792  0.3606
 9255TIP3    H227707   8.001   3.161   4.893  0.0093  0.0383 -1.3865
 9256TIP3   OH227708   6.010   3.498   1.108 -0.2450 -0.2389  0.0101
 9256TIP3    H127709   5.953   3.433   1.150 -0.8404  1.6989  2.4250
 9256TIP3    H227710   6.072   3.523   1.177  2.0703 -0.5351 -1.8449
 9257TIP3   OH227711   8.338   3.327   6.521  0.0716  0.4315  0.1717
 9257TIP3    H127712   8.256   3.285   6.547 -0.0639  0.6262  0.0566
 9257TIP3    H227713   8.406   3.265   6.549 -0.0701  0.6221  0.9563
 9258TIP3   OH227714   7.149   0.218   2.376  0.0045 -0.0135 -0.3558
 9258TIP3    H127715   7.229   0.172   2.401  0.0593  0.5550  0.5424
 9258TIP3    H227716   7.178   0.282   2.310  0.3614  0.4448  0.2372
 9259TIP3   OH227717   1.063   0.267   2.259  0.2945  0.1065 -0.1631
 9259TIP3    H127718   1.047   0.248   2.351  0.1753  1.5000  0.1206
 9259TIP3    H227719   1.043   0.184   2.214 -0.0811 -0.4585  1.0003
 9260TIP3   OH227720   3.303   5.959   1.562  0.1010  0.2185  0.4072
 9260TIP3    H127721   3.341   5.964   1.650  0.4302 -0.4980  0.3119
 9260TIP3    H227722   3.374   5.987   1.504  0.5398 -1.2059  0.2218
 9261TIP3   OH227723   1.966   2.193   5.721 -0.1506  0.1989 -0.2944
 9261TIP3    H127724   2.033   2.226   5.781 -0.7083  1.3914 -0.3115
 9261TIP3    H227725   1.955   2.262   5.656 -1.3507 -0.0095 -0.3329
 9262TIP3   OH227726   6.435   1.267   4.752  0.6774 -0.5247  0.6568
 9262TIP3    H127727   6.471   1.350   4.721  1.3019 -1.0100  0.0558
 9262TIP3    H227728   6.341   1.273   4.731  0.6746  0.1061  0.8110
 9263TIP3   OH227729   2.469   0.438   2.460  0.2718 -0.0306 -0.4838
 9263TIP3    H127730   2.379   0.471   2.456  0.7720  1.2639 -1.7404
 9263TIP3    H227731   2.476   0.379   2.385  0.7928  0.7357 -1.0426
 9264TIP3   OH227732   5.997   6.427   2.691  0.1393 -0.3987 -0.1940
 9264TIP3    H127733   6.008   6.405   2.783  0.7021 -1.0427 -0.4080
 9264TIP3    H227734   5.973   6.344   2.649 -1.1404  0.0836 -0.4694
 9265TIP3   OH227735   4.909   2.797   1.953 -0.2880 -0.0910  0.6391
 9265TIP3    H127736   4.893   2.891   1.954 -0.0633 -0.0482  2.0985
 9265TIP3    H227737   4.894   2.769   2.043 -1.9402 -1.7328 -0.0766
 9266TIP3   OH227738   2.846   7.457   1.900  0.5001  0.0139 -0.4614
 9266TIP3    H127739   2.813   7.387   1.843 -1.0673 -0.5222  1.0009
 9266TIP3    H227740   2.769   7.512   1.916  0.5100 -0.5569  2.0682
 9267TIP3   OH227741   6.773   0.331   3.866  0.4533  0.1554 -0.2151
 9267TIP3    H127742   6.734   0.267   3.807  0.6325  0.2408 -0.4250
 9267TIP3    H227743   6.867   0.315   3.861  0.3784 -1.7819  2.2166
 9268TIP3   OH227744   7.459   6.235   4.999 -0.0318  0.3388  0.7983
 9268TIP3    H127745   7.486   6.287   5.075  1.4244 -1.8099  1.8735
 9268TIP3    H227746   7.379   6.192   5.027  0.2958 -0.1565  0.9822
 9269TIP3   OH227747   1.507   1.914   1.859  0.2501  0.4180 -0.2224
 9269TIP3    H127748   1.420   1.899   1.821 -0.0629 -1.1703  0.9786
 9269TIP3    H227749   1.568   1.900   1.787 -0.4847  2.1407 -1.2297
 9270TIP3   OH227750   1.110   1.930   2.746 -0.5644  0.0714  0.3840
 9270TIP3    H127751   1.067   1.993   2.803 -1.3780 -0.5061  0.4284
 9270TIP3    H227752   1.049   1.916   2.674  0.2188  0.3862 -0.3628
 9271TIP3   OH227753   8.040   6.217   3.715  0.1160  0.1482 -0.3326
 9271TIP3    H127754   7.947   6.236   3.709  0.3766  3.1232  2.3283
 9271TIP3    H227755   8.048   6.160   3.791  0.5518  1.7730  0.9032
 9272TIP3   OH227756   6.349   1.861   4.181  0.1985 -0.1053 -0.1707
 9272TIP3    H127757   6.413   1.863   4.110 -0.4618 -0.3477 -0.7784
 9272TIP3    H227758   6.270   1.825   4.142 -0.1092 -0.4555  0.7457
 9273TIP3   OH227759   1.487   6.696   1.879 -0.3431  0.4470 -0.6270
 9273TIP3    H127760   1.447   6.615   1.912 -1.3188  1.0138 -0.3892
 9273TIP3    H227761   1.578   6.672   1.864 -1.1447 -1.4978 -3.2020
 9274TIP3   OH227762   4.323   5.779   1.426 -0.0061  0.1740 -0.8156
 9274TIP3    H127763   4.338   5.695   1.469 -0.3493  0.0712 -0.8868
 9274TIP3    H227764   4.299   5.839   1.496  0.0832  0.1711 -0.7831
 9275TIP3   OH227765   7.077   5.553   4.251  0.0975 -0.3589 -0.0136
 9275TIP3    H127766   7.076   5.606   4.171 -1.9395  2.1872  1.5077
 9275TIP3    H227767   7.015   5.483   4.234 -0.8412  0.5493 -0.4728
 9276TIP3   OH227768   8.002   7.804   3.737 -0.0251 -0.2043  1.1859
 9276TIP3    H127769   7.923   7.803   3.790 -0.1353  2.0384  1.1742
 9276TIP3    H227770   7.972   7.833   3.651  0.5288 -1.3977  0.5659
 9277TIP3   OH227771   0.991   4.087   3.059  0.1009  0.3809 -0.3014
 9277TIP3    H127772   0.999   4.037   3.141 -0.1739  1.1699  0.2227
 9277TIP3    H227773   1.078   4.081   3.019  0.8148  1.5188  0.9821
 9278TIP3   OH227774   6.564   1.336   5.015  0.4181  0.2294  0.1142
 9278TIP3    H127775   6.644   1.284   5.016  1.7426  2.1582  0.6959
 9278TIP3    H227776   6.520   1.313   4.934  0.6226 -2.1901  0.6281
 9279TIP3   OH227777   3.780   7.071   1.860  0.2779  0.0450  0.0245
 9279TIP3    H127778   3.840   7.145   1.855 -0.1202  0.4070  0.4914
 9279TIP3    H227779   3.827   7.005   1.911  1.4751 -0.8676 -2.1236
 9280TIP3   OH227780   4.896   7.203   3.786  0.0610  0.3577 -0.0818
 9280TIP3    H127781   4.830   7.189   3.853 -0.1709  0.4932 -0.2789
 9280TIP3    H227782   4.954   7.270   3.823  0.4588 -0.2218  0.3505
 9281TIP3   OH227783   0.178   1.841   4.510 -0.4146 -0.5141  0.1338
 9281TIP3    H127784   0.166   1.764   4.566 -1.9107 -1.3445 -1.2541
 9281TIP3    H227785   0.267   1.871   4.530 -0.6529 -1.1443  2.4541
 9282TIP3   OH227786   3.661   5.340   1.806 -0.5387  0.3900  0.5215
 9282TIP3    H127787   3.666   5.248   1.830 -0.0105  0.0778 -0.6905
 9282TIP3    H227788   3.679   5.387   1.887 -0.1455 -0.5868  1.0130
 9283TIP3   OH227789   1.407   0.905   4.135  0.5555 -0.0439  0.0208
 9283TIP3    H127790   1.313   0.915   4.146  0.3506  0.4771 -1.9001
 9283TIP3    H227791   1.445   0.974   4.190 -0.1009 -0.8303  1.5287
 9284TIP3   OH227792   8.342   0.982   3.809 -0.0858 -0.6416  0.1234
 9284TIP3    H127793   8.260   1.031   3.803  1.2770  1.7539 -0.2336
 9284TIP3    H227794   8.374   0.999   3.897  0.4781 -0.7660 -0.0535
 9285TIP3   OH227795   4.425   1.173   6.832 -0.6309  0.1290  0.0203
 9285TIP3    H127796   4.430   1.240   6.764 -2.1089 -0.3575 -0.6273
 9285TIP3    H227797   4.515   1.159   6.860 -0.1485  1.3442 -0.8522
 9286TIP3   OH227798   0.870   3.107  -0.025  0.1107  0.2183  0.1143
 9286TIP3    H127799   0.841   3.170   0.042  0.3580  2.0818 -1.4370
 9286TIP3    H227800   0.812   3.031  -0.013 -1.5649  1.5233  0.8043
 9287TIP3   OH227801   7.543   5.802   3.454  0.2705  0.1669  0.3083
 9287TIP3    H127802   7.556   5.882   3.504  0.4596  0.6586 -0.5300
 9287TIP3    H227803   7.597   5.812   3.376  0.1454 -0.6925  0.1001
 9288TIP3   OH227804   0.096   0.258   4.045 -0.6441  0.2022  0.2460
 9288TIP3    H127805   0.008   0.222   4.031 -0.7311  0.5931 -0.2448
 9288TIP3    H227806   0.155   0.196   4.002 -0.5337 -0.8989  1.9372
 9289TIP3   OH227807   7.089   6.132   0.963 -0.9025  0.1572  0.2700
 9289TIP3    H127808   7.116   6.215   0.923 -0.8884  0.0209 -0.0073
 9289TIP3    H227809   6.996   6.144   0.983 -0.8261  0.3476  0.5041
 9290TIP3   OH227810   5.020   1.992   2.965 -0.2447 -0.5857  0.3563
 9290TIP3    H127811   5.021   2.013   2.872 -0.3628  0.5288  0.5987
 9290TIP3    H227812   5.077   2.057   3.006 -0.6820 -0.6802  1.1390
 9291TIP3   OH227813   5.153   5.902   2.596 -0.4573  0.2402 -0.3700
 9291TIP3    H127814   5.094   5.978   2.590 -0.8472  0.1800  1.7695
 9291TIP3    H227815   5.146   5.875   2.688  0.7352 -1.5470 -0.7765
 9292TIP3   OH227816   3.141   6.451   2.677 -0.2997 -0.2241  0.0226
 9292TIP3    H127817   3.183   6.411   2.601 -0.0777 -0.5356  0.3060
 9292TIP3    H227818   3.133   6.544   2.655  1.4945  0.0474  0.3888
 9293TIP3   OH227819   3.712   5.915   2.274  0.1943 -0.3604  0.2999
 9293TIP3    H127820   3.643   5.951   2.219 -0.1556 -0.4592  0.6715
 9293TIP3    H227821   3.711   5.969   2.353  0.8970 -0.0228  0.0923
 9294TIP3   OH227822   8.039   5.491   0.498  0.1422  0.2575 -0.2687
 9294TIP3    H127823   8.096   5.566   0.481 -0.3538  0.3601 -1.6321
 9294TIP3    H227824   8.091   5.432   0.552  1.1963  0.7689 -0.7084
 9295TIP3   OH227825   4.391   4.017   2.583 -0.3530  0.1066 -0.5053
 9295TIP3    H127826   4.332   4.090   2.601  1.9569  1.9987 -0.0056
 9295TIP3    H227827   4.372   3.953   2.651 -0.5411  1.5124  0.8110
 9296TIP3   OH227828   2.422   3.191   6.751 -0.0643  0.1889  0.3847
 9296TIP3    H127829   2.503   3.195   6.801  0.2781  1.9306 -0.2369
 9296TIP3    H227830   2.384   3.278   6.760 -1.1867 -0.1908 -0.4394
 9297TIP3   OH227831   3.672   7.800   5.708 -0.0413  0.2486  0.0896
 9297TIP3    H127832   3.730   7.745   5.760 -0.7988 -0.0612  0.6107
 9297TIP3    H227833   3.707   7.888   5.719  1.0382 -0.0694 -0.5575
 9298TIP3   OH227834   0.558   4.425   5.249 -0.4516 -0.0850 -0.3754
 9298TIP3    H127835   0.560   4.498   5.187 -0.0361  0.9865  0.8772
 9298TIP3    H227836   0.467   4.396   5.248 -0.4206 -0.2203 -1.6089
 9299TIP3   OH227837   8.274   0.150   3.267  0.3675  0.2268  0.0731
 9299TIP3    H127838   8.311   0.152   3.355  0.6252 -1.5809  0.0502
 9299TIP3    H227839   8.180   0.134   3.280  0.4508 -0.3328  0.0409
 9300TIP3   OH227840   4.575   1.053   2.650 -0.5071  0.4202 -0.4268
 9300TIP3    H127841   4.532   1.128   2.609  0.1985  0.7159 -0.6402
 9300TIP3    H227842   4.650   1.034   2.593 -0.5227 -0.2769 -0.2270
 9301TIP3   OH227843   6.210   2.189   1.560  0.2057 -0.1533 -0.5860
 9301TIP3    H127844   6.124   2.204   1.522  0.0397  1.6554  0.3973
 9301TIP3    H227845   6.192   2.153   1.647  0.3673  1.1028 -0.0039
 9302TIP3   OH227846   4.732   5.477   4.284 -0.5877 -0.1748 -0.0702
 9302TIP3    H127847   4.730   5.403   4.224 -0.3290 -0.4695  0.2829
 9302TIP3    H227848   4.783   5.544   4.238 -1.0329 -0.1150 -0.4948
 9303TIP3   OH227849   3.594   3.711   4.039  0.3467 -0.0772 -0.0542
 9303TIP3    H127850   3.600   3.674   4.127 -0.8714  1.7489  0.8620
 9303TIP3    H227851   3.669   3.770   4.032  0.5404 -0.3520 -0.3150
 9304TIP3   OH227852   6.134   6.319   3.127 -0.0988 -0.1848  0.1451
 9304TIP3    H127853   6.053   6.294   3.082 -1.1296  2.7951  0.1583
 9304TIP3    H227854   6.114   6.307   3.220 -0.3345  0.0119  0.1217
 9305TIP3   OH227855   3.592   4.614   1.900 -0.1101  0.2827  0.0719
 9305TIP3    H127856   3.611   4.654   1.815 -1.0422  0.3611 -0.1081
 9305TIP3    H227857   3.514   4.659   1.931 -0.2811 -0.3480  0.5681
 9306TIP3   OH227858   3.536   7.127   2.916 -0.7426 -0.2741  0.4063
 9306TIP3    H127859   3.483   7.192   2.870 -0.0841  0.6707  0.9546
 9306TIP3    H227860   3.626   7.148   2.892 -0.4661 -0.4497  1.2628
 9307TIP3   OH227861   0.832   3.125   6.566  0.2262  0.2061 -0.6342
 9307TIP3    H127862   0.839   3.157   6.656 -0.9654  0.0560 -0.4677
 9307TIP3    H227863   0.838   3.204   6.512 -1.1919  0.5792 -0.2967
 9308TIP3   OH227864   3.591   2.848   6.867  0.0665  0.3677 -0.8399
 9308TIP3    H127865   3.586   2.909   6.794  1.2434  0.8475 -0.5389
 9308TIP3    H227866   3.680   2.814   6.864  1.0124  2.2807  1.8281
 9309TIP3   OH227867   7.953   1.973   5.619 -0.0742 -0.4590  0.6791
 9309TIP3    H127868   7.929   1.989   5.710 -3.5369 -0.6430 -0.0751
 9309TIP3    H227869   7.953   2.060   5.579  1.6893 -0.3508  0.8489
 9310TIP3   OH227870   4.117   6.796   3.107 -0.2659 -0.0689 -0.9606
 9310TIP3    H127871   4.054   6.797   3.179 -0.6632  0.0083 -1.3033
 9310TIP3    H227872   4.161   6.881   3.112 -1.4188  0.6043 -1.7755
 9311TIP3   OH227873   4.555   2.181   2.992 -0.5127 -0.0112 -0.4416
 9311TIP3    H127874   4.607   2.102   2.978  2.4538  1.0834  2.9055
 9311TIP3    H227875   4.576   2.237   2.917  1.3286 -0.5634 -0.3988
 9312TIP3   OH227876   1.680   2.674   3.247 -0.3145 -0.1545  0.5340
 9312TIP3    H127877   1.724   2.753   3.278  0.6419 -0.6493  0.4563
 9312TIP3    H227878   1.738   2.638   3.180 -1.6489  0.0951 -0.8220
 9313TIP3   OH227879   8.038   2.439   4.244  0.2903 -0.0242 -0.1676
 9313TIP3    H127880   8.031   2.512   4.183  0.2260  0.2941  0.2173
 9313TIP3    H227881   7.948   2.416   4.264  0.3138  0.2117  0.2104
 9314TIP3   OH227882   1.345   0.421   6.499 -0.1719 -0.3830  0.1094
 9314TIP3    H127883   1.257   0.421   6.534  0.0423 -0.5192  0.6543
 9314TIP3    H227884   1.391   0.490   6.547 -0.3009  0.5077 -1.0019
 9315TIP3   OH227885   5.943   0.927   5.860 -0.1715  0.2757  0.4178
 9315TIP3    H127886   5.924   0.921   5.766  0.1302 -1.0895  0.4203
 9315TIP3    H227887   5.867   0.887   5.902 -0.1031  0.4697  0.7233
 9316TIP3   OH227888   5.625   2.182   3.904 -0.0104  0.5890 -0.7608
 9316TIP3    H127889   5.646   2.267   3.864  0.4562  0.3818 -0.9696
 9316TIP3    H227890   5.556   2.146   3.849  2.4346 -0.9006 -3.1098
 9317TIP3   OH227891   2.659   5.082   1.601 -0.0833  0.1497 -0.4242
 9317TIP3    H127892   2.666   5.083   1.696 -0.9238 -0.9031 -0.3392
 9317TIP3    H227893   2.747   5.061   1.570  0.1661  0.3864  0.1194
 9318TIP3   OH227894   0.895   2.150   2.382 -0.0233 -0.1986  0.1425
 9318TIP3    H127895   0.821   2.109   2.428  0.5690 -2.3213 -0.6502
 9318TIP3    H227896   0.925   2.219   2.441 -1.6941 -0.2732  1.1511
 9319TIP3   OH227897   1.519   3.470   4.287 -0.5237 -0.1667 -0.2499
 9319TIP3    H127898   1.483   3.403   4.228 -1.6769  0.4684 -0.2853
 9319TIP3    H227899   1.465   3.547   4.272 -1.0318 -0.0711  1.8437
 9320TIP3   OH227900   3.285   3.873   3.013 -0.5218 -0.0763  0.7633
 9320TIP3    H127901   3.217   3.900   3.076 -0.4449 -0.7036  1.1211
 9320TIP3    H227902   3.343   3.817   3.064 -0.1678 -0.1707  0.2539
 9321TIP3   OH227903   8.070   1.876   6.644  0.2765  0.0113 -0.3698
 9321TIP3    H127904   7.984   1.850   6.611 -0.5998  0.1941  1.6505
 9321TIP3    H227905   8.085   1.819   6.719  2.5989 -1.0033 -1.4849
 9322TIP3   OH227906   3.533   4.139   3.218  0.2949 -0.0898 -0.3717
 9322TIP3    H127907   3.596   4.078   3.179  0.6240  0.2303 -0.3393
 9322TIP3    H227908   3.565   4.152   3.307 -0.0568 -0.2590 -0.2195
 9323TIP3   OH227909   4.959   1.622   1.032  0.0739 -0.0534 -0.0774
 9323TIP3    H127910   4.942   1.715   1.019  1.0451 -0.1286 -2.4579
 9323TIP3    H227911   4.888   1.578   0.987 -0.3178 -0.4982  0.9390
 9324TIP3   OH227912   6.842   3.715   2.233 -0.1545 -0.2975 -0.0890
 9324TIP3    H127913   6.804   3.738   2.148  1.6649 -2.1641 -1.5032
 9324TIP3    H227914   6.799   3.774   2.295 -1.4455  1.2328 -2.2976
 9325TIP3   OH227915   5.560   2.419   3.101  0.2429  0.0507 -0.3016
 9325TIP3    H127916   5.513   2.350   3.148 -0.4845 -0.5837 -1.9044
 9325TIP3    H227917   5.580   2.484   3.169 -2.0739 -0.1211  0.6364
 9326TIP3   OH227918   0.769   1.439   2.434 -0.0285 -0.2672  0.1976
 9326TIP3    H127919   0.790   1.521   2.479  0.5462 -0.6229  0.6017
 9326TIP3    H227920   0.684   1.454   2.393 -0.8435 -0.0950  1.8568
 9327TIP3   OH227921   1.556   7.357   5.543  0.3511 -0.1361  0.4699
 9327TIP3    H127922   1.585   7.312   5.464  1.5451  2.5326 -0.7642
 9327TIP3    H227923   1.474   7.399   5.517  0.8110  0.8538  0.5632
 9328TIP3   OH227924   5.926   1.756   6.608 -0.0714  0.1163  0.0281
 9328TIP3    H127925   5.851   1.696   6.605  1.2154 -1.6697  1.2649
 9328TIP3    H227926   5.990   1.710   6.662  0.8681  2.8115  1.3584
 9329TIP3   OH227927   6.021   3.607   3.292  0.5983 -0.0141 -0.4310
 9329TIP3    H127928   6.081   3.681   3.286 -1.3440  1.9016  1.8085
 9329TIP3    H227929   5.934   3.647   3.287 -0.5953 -2.5492 -2.4527
 9330TIP3   OH227930   4.038   7.097   4.706  0.3687  0.1156 -0.0265
 9330TIP3    H127931   4.116   7.062   4.750 -0.2362 -2.2557 -0.6987
 9330TIP3    H227932   4.048   7.069   4.615 -1.6434 -1.0143  0.0536
 9331TIP3   OH227933   4.764   3.802   4.232 -0.9168  0.3201 -0.0791
 9331TIP3    H127934   4.695   3.758   4.281  0.3424 -2.2634 -0.4560
 9331TIP3    H227935   4.742   3.786   4.140  1.0107 -2.1500 -0.2131
 9332TIP3   OH227936   5.706   5.232   0.511 -0.0284  0.3118 -0.1775
 9332TIP3    H127937   5.707   5.327   0.502 -1.4572  0.3214 -0.4793
 9332TIP3    H227938   5.635   5.215   0.573 -0.6199 -0.6139 -1.0770
 9333TIP3   OH227939   3.196   3.493   2.716  0.3831 -0.0209  0.5735
 9333TIP3    H127940   3.203   3.536   2.630  0.2966 -0.1082  0.5226
 9333TIP3    H227941   3.232   3.406   2.702  1.5635  0.3883  0.9415
 9334TIP3   OH227942   6.843   4.929   2.085  0.1073  0.1344  0.0370
 9334TIP3    H127943   6.861   4.863   2.018 -0.3076 -0.1409  0.1927
 9334TIP3    H227944   6.837   5.012   2.037  0.7326  0.0739 -0.1442
 9335TIP3   OH227945   4.164   3.411   6.474 -0.1548  0.3578 -0.4708
 9335TIP3    H127946   4.213   3.337   6.511 -1.9650 -0.4469  0.4143
 9335TIP3    H227947   4.158   3.391   6.381  1.2155  0.5112 -0.6181
 9336TIP3   OH227948   2.902   4.352   2.416 -0.2217 -0.4003  0.5571
 9336TIP3    H127949   2.813   4.349   2.448 -0.4583 -1.1978 -0.1455
 9336TIP3    H227950   2.942   4.425   2.463 -1.7010  1.0231 -0.2778
 9337TIP3   OH227951   0.138   0.497   4.461  0.2958 -0.0037  0.3469
 9337TIP3    H127952   0.200   0.424   4.453  2.2405  1.4586  1.0835
 9337TIP3    H227953   0.194   0.575   4.459 -1.7434  1.5320 -1.0141
 9338TIP3   OH227954   4.565   2.767   5.548 -0.2724  0.3563  0.1608
 9338TIP3    H127955   4.651   2.732   5.570 -1.4048 -1.7088  1.7191
 9338TIP3    H227956   4.526   2.790   5.633 -1.7711 -0.0968 -0.3748
 9339TIP3   OH227957   6.437   4.076   3.545  1.1172  0.7363 -0.0217
 9339TIP3    H127958   6.364   4.137   3.557 -0.2353 -0.1262 -2.9229
 9339TIP3    H227959   6.398   3.990   3.555  1.2374  0.1971 -3.0582
 9340TIP3   OH227960   7.215   6.565   6.691  0.0082  0.0503  0.7527
 9340TIP3    H127961   7.233   6.605   6.606  1.7223 -0.6534  0.7499
 9340TIP3    H227962   7.143   6.617   6.727  0.5166  1.5568 -0.3071
 9341TIP3   OH227963   4.226   1.849   5.332 -0.3343 -0.2657  0.2251
 9341TIP3    H127964   4.217   1.882   5.243  0.3446  0.2666  0.3417
 9341TIP3    H227965   4.315   1.813   5.336 -1.3206 -2.9269 -0.1274
 9342TIP3   OH227966   6.225   2.845   2.228 -0.3709 -0.2022  0.1620
 9342TIP3    H127967   6.157   2.906   2.254 -0.2740  0.1294 -0.3689
 9342TIP3    H227968   6.296   2.900   2.196 -0.6951 -0.6219 -1.3316
 9343TIP3   OH227969   0.564   2.864   0.559  0.2163  0.9461 -0.3245
 9343TIP3    H127970   0.549   2.781   0.514 -0.2691  0.8351  0.0291
 9343TIP3    H227971   0.659   2.872   0.565  0.2954  0.9959 -1.4164
 9344TIP3   OH227972   5.193   0.725   6.731  0.3955 -0.0808 -0.2222
 9344TIP3    H127973   5.287   0.741   6.726  0.4139 -0.3997 -1.2283
 9344TIP3    H227974   5.166   0.717   6.639 -0.7285  0.6649  0.0330
 9345TIP3   OH227975   6.296   5.485   3.651  0.0874 -0.0029  0.1558
 9345TIP3    H127976   6.284   5.402   3.605  0.9981 -0.2588  0.3652
 9345TIP3    H227977   6.233   5.544   3.609 -0.2574 -0.6736 -0.2988
 9346TIP3   OH227978   0.072   4.696   4.849  0.2761  0.7936 -0.3699
 9346TIP3    H127979   0.092   4.603   4.840 -0.2735  0.6217  0.1160
 9346TIP3    H227980   0.101   4.718   4.937  0.6095  1.1384 -0.5653
 9347TIP3   OH227981   4.034   0.351   4.254 -0.4678  0.3512 -0.1614
 9347TIP3    H127982   4.026   0.352   4.159 -0.4382  0.1090 -0.1678
 9347TIP3    H227983   4.077   0.433   4.276 -1.5825  0.9756 -0.2555
 9348TIP3   OH227984   1.128   4.292   4.818 -0.1314 -0.0853 -0.3326
 9348TIP3    H127985   1.196   4.358   4.804 -2.2745  2.3745  0.0240
 9348TIP3    H227986   1.060   4.314   4.754 -1.7121 -0.8167  1.0106
 9349TIP3   OH227987   5.762   7.101   4.478  0.0658 -0.0221 -0.4024
 9349TIP3    H127988   5.818   7.097   4.556  1.8275  1.5100 -1.4848
 9349TIP3    H227989   5.797   7.175   4.428 -0.0338 -1.8116 -3.3578
 9350TIP3   OH227990   6.963   1.258   5.241 -0.0604 -0.3871  0.2194
 9350TIP3    H127991   7.049   1.224   5.216 -0.6610 -0.4079 -2.0772
 9350TIP3    H227992   6.972   1.353   5.234 -0.1602 -0.3811  0.1648
 9351TIP3   OH227993   2.954   1.387   0.125  0.6078 -0.3158 -0.6853
 9351TIP3    H127994   3.025   1.440   0.161 -0.5071  1.0237 -0.3572
 9351TIP3    H227995   2.957   1.403   0.031 -0.8619  1.8879 -0.4199
 9352TIP3   OH227996   1.287   7.271   2.142  0.2463  0.3844 -0.4733
 9352TIP3    H127997   1.253   7.191   2.181  0.1629  2.2520  3.7897
 9352TIP3    H227998   1.220   7.298   2.080 -0.8686 -1.5489 -0.1850
 9353TIP3   OH227999   1.766   5.925   3.356  0.5112  0.0944 -0.6675
 9353TIP3    H128000   1.757   6.009   3.310  0.8506  1.6426  1.8379
 9353TIP3    H228001   1.842   5.883   3.315  1.3493  1.7951 -0.9667
 9354TIP3   OH228002   1.556   5.610   4.347  0.1839  0.5879 -0.2468
 9354TIP3    H128003   1.606   5.688   4.369  0.9331  0.7835 -2.3865
 9354TIP3    H228004   1.512   5.586   4.428 -0.2442  3.3460  0.4499
 9355TIP3   OH228005   1.206   7.102   4.767 -0.0771  0.6546 -0.4405
 9355TIP3    H128006   1.290   7.058   4.756  0.3480  1.3166  0.0689
 9355TIP3    H228007   1.148   7.058   4.705  0.4516 -0.2904 -0.2928
 9356TIP3   OH228008   2.882   2.280   2.788  0.4557 -0.5822 -0.1510
 9356TIP3    H128009   2.871   2.225   2.866  0.3619  3.1728  2.8278
 9356TIP3    H228010   2.975   2.273   2.767  0.8991 -0.3430  1.5331
 9357TIP3   OH228011   8.016   6.767   3.003 -0.2270 -0.0035 -0.3663
 9357TIP3    H128012   8.003   6.819   3.083  0.4517  2.1711 -1.5599
 9357TIP3    H228013   8.110   6.777   2.984 -0.5147  0.1433 -1.8059
 9358TIP3   OH228014   4.604   6.866   3.287 -0.0181  0.0869  0.0739
 9358TIP3    H128015   4.552   6.929   3.338 -1.9812 -0.5818 -1.0062
 9358TIP3    H228016   4.614   6.791   3.346  0.8109  0.6912  0.7293
 9359TIP3   OH228017   4.862   4.799   4.534 -0.3343 -0.0255  0.3572
 9359TIP3    H128018   4.910   4.836   4.609  0.3950 -1.4481  0.6482
 9359TIP3    H228019   4.898   4.844   4.458 -0.2411  0.6124  0.7682
 9360TIP3   OH228020   0.855   6.901   5.393  0.6341 -0.1614  0.1179
 9360TIP3    H128021   0.802   6.947   5.458 -0.2311  0.5332 -1.0394
 9360TIP3    H228022   0.871   6.815   5.433  0.9902  0.5847  1.6550
 9361TIP3   OH228023   3.211   6.239   4.915 -0.2059  0.7403  0.6918
 9361TIP3    H128024   3.279   6.241   4.982  0.1171  1.4697  0.3564
 9361TIP3    H228025   3.174   6.151   4.921 -0.4512  0.9137  2.0794
 9362TIP3   OH228026   6.255   7.087   5.824  0.0209 -0.3891 -0.2031
 9362TIP3    H128027   6.242   7.173   5.782 -1.5678 -1.0353 -1.1172
 9362TIP3    H228028   6.330   7.050   5.777  1.5959  0.9906  1.0921
 9363TIP3   OH228029   3.304   4.449   1.951 -0.3593 -0.2356 -0.2576
 9363TIP3    H128030   3.385   4.401   1.968 -0.1498  0.2238  0.0726
 9363TIP3    H228031   3.324   4.539   1.977 -0.5246  0.1818 -1.5089
 9364TIP3   OH228032   2.295   3.829   5.019 -0.3043  0.4009 -0.1398
 9364TIP3    H128033   2.341   3.784   5.090 -0.5445 -1.2926 -1.0261
 9364TIP3    H228034   2.360   3.837   4.949  0.3679  3.3239  0.6789
 9365TIP3   OH228035   4.333   5.652   2.599  0.1621 -0.2425  0.3527
 9365TIP3    H128036   4.372   5.717   2.541 -0.1570  1.2404  1.7228
 9365TIP3    H228037   4.249   5.630   2.559  0.9093 -0.9490 -0.8788
 9366TIP3   OH228038   5.425   4.750   0.740  0.4994 -0.0538  0.3033
 9366TIP3    H128039   5.421   4.829   0.794  0.5163  0.8494 -0.9706
 9366TIP3    H228040   5.499   4.700   0.776  2.3963  1.9011 -0.6642
 9367TIP3   OH228041   8.156   0.625   6.362  0.4084 -0.1733 -0.2041
 9367TIP3    H128042   8.128   0.713   6.387  0.1956 -0.6222  1.2166
 9367TIP3    H228043   8.098   0.566   6.411  0.0788 -1.1225 -1.6560
 9368TIP3   OH228044   3.759   1.854   1.062 -0.3600 -0.2509 -0.6575
 9368TIP3    H128045   3.757   1.831   0.969  0.1824 -0.3096 -0.6555
 9368TIP3    H228046   3.850   1.874   1.080 -0.4521 -0.2983 -0.1208
 9369TIP3   OH228047   5.534   5.139   1.595 -0.0046 -0.4629  0.5452
 9369TIP3    H128048   5.558   5.095   1.514 -2.4089 -0.4097 -0.2841
 9369TIP3    H228049   5.440   5.123   1.604 -0.0670  0.6685  2.6349
 9370TIP3   OH228050   5.832   7.098   4.761 -1.0018  0.9339  1.0733
 9370TIP3    H128051   5.891   7.073   4.832 -0.7056 -1.5207  0.0931
 9370TIP3    H228052   5.752   7.126   4.805 -0.5202  0.3365  2.3914
 9371TIP3   OH228053   1.509   1.773   3.124  0.7213  0.2997  0.1418
 9371TIP3    H128054   1.424   1.810   3.100  0.0245 -1.0912  0.3707
 9371TIP3    H228055   1.553   1.759   3.040  0.1239 -0.3140 -0.0868
 9372TIP3   OH228056   5.659   4.324   1.270  0.3247  0.4738 -0.1294
 9372TIP3    H128057   5.752   4.299   1.267  0.3031  0.2913  0.6134
 9372TIP3    H228058   5.647   4.363   1.356 -0.5457 -0.5581  0.2412
 9373TIP3   OH228059   7.052   6.591   5.323 -0.3546  0.2201 -0.2711
 9373TIP3    H128060   7.058   6.599   5.228 -0.7917  0.8652 -0.2499
 9373TIP3    H228061   7.124   6.532   5.346 -1.0730 -1.0418 -1.1364
 9374TIP3   OH228062   2.669   6.261   4.069  0.2693 -0.1145  0.0295
 9374TIP3    H128063   2.726   6.219   4.133 -1.7378 -0.0246  1.9935
 9374TIP3    H228064   2.639   6.190   4.012  0.2937 -0.6009  0.6169
 9375TIP3   OH228065   3.854   2.090   0.853 -0.0052 -0.0853 -0.1838
 9375TIP3    H128066   3.858   2.153   0.925 -0.7994  0.2661 -0.4371
 9375TIP3    H228067   3.910   2.017   0.882 -2.3990 -1.2048  2.0206
 9376TIP3   OH228068   5.599   6.092   5.787  0.1431 -0.0584 -0.0696
 9376TIP3    H128069   5.668   6.083   5.853  0.3367  0.3546 -0.2110
 9376TIP3    H228070   5.605   6.012   5.735 -0.7056 -0.8758  1.0535
 9377TIP3   OH228071   7.922   0.640   6.841 -0.0956  0.4166 -0.6604
 9377TIP3    H128072   7.942   0.710   6.903  0.5017  0.7711 -1.2369
 9377TIP3    H228073   7.829   0.648   6.824 -0.0909  0.8704 -0.4807
 9378TIP3   OH228074   8.061   7.417   0.841 -0.1354 -0.0379  0.1675
 9378TIP3    H128075   8.143   7.467   0.843  0.6849 -1.3628  0.2073
 9378TIP3    H228076   7.993   7.484   0.825  0.9936  1.0003 -0.4397
 9379TIP3   OH228077   1.997   1.612   5.705 -0.4680 -0.1042  0.2885
 9379TIP3    H128078   2.007   1.517   5.710  0.5067 -0.0126  0.3569
 9379TIP3    H228079   1.967   1.638   5.792 -2.8104 -0.5490 -0.3329
 9380TIP3   OH228080   1.414   7.831   5.217  0.3168  0.0605 -0.4523
 9380TIP3    H128081   1.450   7.917   5.193 -0.1221  0.5409  0.5352
 9380TIP3    H228082   1.343   7.851   5.278 -1.8221 -0.8390 -2.5066
 9381TIP3   OH228083   6.193   4.837   5.212  0.5349 -0.0310  0.4363
 9381TIP3    H128084   6.142   4.907   5.171  0.3828  0.0162  0.7063
 9381TIP3    H228085   6.241   4.880   5.282  0.1051 -0.2737  0.8877
 9382TIP3   OH228086   6.500   6.761   2.821 -0.1330  0.2256  0.0743
 9382TIP3    H128087   6.530   6.844   2.784 -0.2122 -0.3320 -1.3248
 9382TIP3    H228088   6.576   6.727   2.868  0.8559 -0.1985 -1.7129
 9383TIP3   OH228089   7.673   6.339   4.602  0.0040 -0.5723  0.1310
 9383TIP3    H128090   7.646   6.412   4.658 -0.6849  0.1255 -1.0507
 9383TIP3    H228091   7.768   6.345   4.599 -0.0055 -0.1222  0.5749
 9384TIP3   OH228092   5.763   7.426   5.016 -0.0640  0.6736 -0.6619
 9384TIP3    H128093   5.839   7.389   4.969 -1.0504 -0.5032 -1.4037
 9384TIP3    H228094   5.714   7.472   4.948 -0.3528  0.8618 -0.3227
 9385TIP3   OH228095   4.872   0.945   4.068  0.1514  0.0561 -0.2333
 9385TIP3    H128096   4.798   0.891   4.094  0.0837  0.1232 -0.2862
 9385TIP3    H228097   4.940   0.925   4.132  0.1253 -0.0877 -0.2506
 9386TIP3   OH228098   1.847   6.751   6.336 -0.5187  0.2715 -0.3289
 9386TIP3    H128099   1.875   6.799   6.413  0.2385 -2.2132  1.0562
 9386TIP3    H228100   1.788   6.683   6.369  0.5135 -1.4278 -1.7724
 9387TIP3   OH228101   1.654   0.109   1.681  0.0441 -0.1191  0.0842
 9387TIP3    H128102   1.635   0.020   1.711 -0.5497 -1.0052 -2.6125
 9387TIP3    H228103   1.568   0.146   1.660  0.4195  0.3077 -0.7387
 9388TIP3   OH228104   6.424   1.988   3.326 -0.2311  0.4035 -0.3256
 9388TIP3    H128105   6.414   1.967   3.419 -2.0577 -2.0828 -0.9599
 9388TIP3    H228106   6.336   2.016   3.299 -0.5035 -1.7189 -1.8500
 9389TIP3   OH228107   6.139   1.796   1.797 -0.1440 -0.2773 -0.0622
 9389TIP3    H128108   6.103   1.844   1.872  0.5278 -1.7562  1.2679
 9389TIP3    H228109   6.185   1.862   1.746  0.5441  0.5571  1.5736
 9390TIP3   OH228110   3.457   3.662   1.577 -0.1380 -0.0550  0.0196
 9390TIP3    H128111   3.530   3.607   1.551  0.8264  1.0763  0.2352
 9390TIP3    H228112   3.384   3.602   1.589  0.4879 -1.0883 -1.1875
 9391TIP3   OH228113   6.960   3.505   2.547  0.3581  0.3621 -0.1630
 9391TIP3    H128114   6.986   3.592   2.518  0.8177  0.5173  0.6744
 9391TIP3    H228115   6.870   3.516   2.578 -0.0739  0.2311 -1.3234
 9392TIP3   OH228116   5.174   4.320   3.763  0.1893 -0.3879 -0.0504
 9392TIP3    H128117   5.176   4.408   3.803 -0.5707  0.4023 -1.6681
 9392TIP3    H228118   5.150   4.262   3.835  0.0557  0.8226  0.9164
 9393TIP3   OH228119   4.017   5.173   1.326 -0.2506  0.4653  0.0608
 9393TIP3    H128120   4.099   5.219   1.312  0.2517  0.0956  1.5990
 9393TIP3    H228121   4.037   5.081   1.306 -0.5476  0.5145 -0.4750
 9394TIP3   OH228122   4.110   3.788   2.418 -0.2528 -0.5527 -0.5696
 9394TIP3    H128123   4.203   3.764   2.415 -0.0143  0.3531 -0.7464
 9394TIP3    H228124   4.078   3.750   2.500  0.4709 -0.2221 -0.1197
 9395TIP3   OH228125   3.572   3.511   0.963  0.4393 -0.4246  0.6174
 9395TIP3    H128126   3.583   3.553   1.048  0.1455  0.3645  0.2764
 9395TIP3    H228127   3.640   3.550   0.908  1.0509 -1.4053  0.6496
 9396TIP3   OH228128   3.578   1.455   3.477 -0.1274 -0.0728 -0.1484
 9396TIP3    H128129   3.671   1.429   3.472 -0.2877 -0.4202 -2.5236
 9396TIP3    H228130   3.532   1.374   3.500 -0.0055 -0.3376 -0.8291
 9397TIP3   OH228131   7.555   4.483   5.240  0.0796  0.7759  0.0422
 9397TIP3    H128132   7.468   4.447   5.258  0.6476 -1.2108 -0.9675
 9397TIP3    H228133   7.594   4.495   5.327 -0.8561  0.8059  0.4673
 9398TIP3   OH228134   1.855   2.778   5.921  0.9966 -0.4863  0.2790
 9398TIP3    H128135   1.784   2.777   5.985  1.0355 -0.3989  0.3243
 9398TIP3    H228136   1.917   2.842   5.956  0.5933  0.2321 -0.3043
 9399TIP3   OH228137   2.602   3.172   3.697  0.0502  0.4916  0.9213
 9399TIP3    H128138   2.676   3.230   3.717 -0.4048  1.3623  0.1592
 9399TIP3    H228139   2.642   3.085   3.686  0.6905  0.5623  2.4921
 9400TIP3   OH228140   0.723   2.873  -0.015 -0.1732 -0.5299 -0.4043
 9400TIP3    H128141   0.778   2.794  -0.012 -0.9628 -1.0667  0.8394
 9400TIP3    H228142   0.642   2.847   0.030 -0.2167  1.1546  0.5697
 9401TIP3   OH228143   7.944   6.766   5.412 -0.1850  0.3899  0.1311
 9401TIP3    H128144   7.933   6.830   5.342  0.9589 -0.4811 -0.9056
 9401TIP3    H228145   7.981   6.689   5.368 -3.4938 -1.8271  0.8818
 9402TIP3   OH228146   7.925   3.110   2.816  0.3571  0.1410  0.1741
 9402TIP3    H128147   7.963   3.134   2.731 -0.8713  2.0922  0.1104
 9402TIP3    H228148   7.908   3.194   2.858 -2.7211 -0.6342  0.6796
 9403TIP3   OH228149   1.213   7.802   4.257  0.4628  0.2049  0.5553
 9403TIP3    H128150   1.178   7.795   4.168 -1.0562  2.0059  0.9374
 9403TIP3    H228151   1.282   7.868   4.251  1.1288 -0.4798  0.5331
 9404TIP3   OH228152   1.467   0.640   2.271 -0.1233 -0.0071  0.4137
 9404TIP3    H128153   1.540   0.701   2.281 -0.5033  0.6511 -0.6513
 9404TIP3    H228154   1.410   0.658   2.346 -1.4507  2.7129 -1.0664
 9405TIP3   OH228155   0.218   4.407   4.335  0.1527 -0.2842  0.7260
 9405TIP3    H128156   0.310   4.385   4.326  0.4260  0.9224  0.4098
 9405TIP3    H228157   0.211   4.497   4.301 -0.7961  0.3320  2.4051
 9406TIP3   OH228158   5.568   2.471   1.674 -0.6416 -0.0374 -0.3301
 9406TIP3    H128159   5.562   2.546   1.734 -1.0045  0.0976 -0.5353
 9406TIP3    H228160   5.500   2.487   1.610 -0.6437 -0.4931 -0.4376
 9407TIP3   OH228161   6.747   5.376   5.507 -0.1850 -0.6770  0.0305
 9407TIP3    H128162   6.829   5.423   5.492 -1.4071  1.1379 -1.5436
 9407TIP3    H228163   6.685   5.444   5.534 -1.5004 -1.7624 -0.1472
 9408TIP3   OH228164   1.313   1.091   5.916 -0.1420 -0.3939  0.2923
 9408TIP3    H128165   1.378   1.161   5.908  1.1175 -1.3826  1.3706
 9408TIP3    H228166   1.342   1.024   5.854 -0.0475 -0.8860  0.8559
 9409TIP3   OH228167   2.461   6.964   6.548 -0.0640  0.7080  0.5869
 9409TIP3    H128168   2.383   7.000   6.588 -0.0077 -0.4132  1.7651
 9409TIP3    H228169   2.432   6.933   6.462 -1.4332 -1.5231  1.7744
 9410TIP3   OH228170   4.976   3.991   5.250 -0.0985 -0.0236  0.3142
 9410TIP3    H128171   5.023   4.037   5.320  0.6219  0.6866 -0.6065
 9410TIP3    H228172   4.945   4.061   5.192 -1.0863 -0.5712  0.1552
 9411TIP3   OH228173   0.826   5.064   0.079  0.1393  0.9166 -0.5755
 9411TIP3    H128174   0.742   5.025   0.104  0.3838  0.2178 -0.8065
 9411TIP3    H228175   0.809   5.158   0.077 -0.8103  0.7461 -1.2608
 9412TIP3   OH228176   1.477   2.195   4.573  0.0882 -0.4436 -0.7248
 9412TIP3    H128177   1.425   2.163   4.499  0.4160 -1.3287 -0.5881
 9412TIP3    H228178   1.505   2.282   4.546 -1.8721  0.2942 -0.5938
 9413TIP3   OH228179   7.581   3.368   6.005  0.3552 -0.1048  0.7252
 9413TIP3    H128180   7.511   3.313   5.968  1.0513 -0.8556  0.4804
 9413TIP3    H228181   7.592   3.336   6.094  0.7012 -0.3019  0.6122
 9414TIP3   OH228182   0.026   4.177   0.474  0.7614 -0.6842  0.0611
 9414TIP3    H128183   0.100   4.229   0.441  1.4348 -0.6991  1.4725
 9414TIP3    H228184   0.064   4.092   0.496  0.1803 -0.9136  0.2094
 9415TIP3   OH228185   7.231   5.915   3.219 -0.1329 -0.2835 -0.2786
 9415TIP3    H128186   7.326   5.920   3.231 -0.4268  1.4554  2.1455
 9415TIP3    H228187   7.206   5.831   3.257  0.4915 -1.1953 -1.8139
 9416TIP3   OH228188   7.354   7.338   1.336  0.2137 -0.3239 -0.2355
 9416TIP3    H128189   7.436   7.312   1.295  1.7915  2.6600  0.7238
 9416TIP3    H228190   7.311   7.394   1.272  0.2535  0.2433  0.2157
 9417TIP3   OH228191   4.780   7.441   2.593  0.5002 -0.3927 -0.5264
 9417TIP3    H128192   4.766   7.349   2.569 -0.4427 -0.0639 -1.3282
 9417TIP3    H228193   4.752   7.446   2.684  2.4777 -1.3009  0.2019
 9418TIP3   OH228194   5.790   5.306   4.226  0.0124  0.3243 -0.5238
 9418TIP3    H128195   5.763   5.378   4.283 -0.7367  0.0921 -0.5755
 9418TIP3    H228196   5.711   5.255   4.213  0.5244 -0.4720 -0.5560
 9419TIP3   OH228197   2.228   1.317   2.950  0.5690  0.0719 -0.4056
 9419TIP3    H128198   2.263   1.228   2.961 -0.4984 -0.2399  0.7510
 9419TIP3    H228199   2.245   1.339   2.859 -1.1022 -2.2142 -1.3739
 9420TIP3   OH228200   5.168   1.592   4.957 -0.2869 -0.0736  0.0618
 9420TIP3    H128201   5.257   1.626   4.966 -1.4024  2.8481  1.4383
 9420TIP3    H228202   5.164   1.558   4.867  2.0225  0.2822 -0.2263
 9421TIP3   OH228203   5.743   0.341   0.396 -0.2601  0.4534  0.3171
 9421TIP3    H128204   5.817   0.323   0.338  0.2805 -1.7302  1.5899
 9421TIP3    H228205   5.783   0.381   0.474 -0.6342  0.8486  0.3088
 9422TIP3   OH228206   1.199   1.666   0.628  0.6207 -0.3950 -0.1806
 9422TIP3    H128207   1.288   1.658   0.593  1.1159 -0.2566  0.9782
 9422TIP3    H228208   1.143   1.628   0.561  1.8324 -3.3593  0.3127
 9423TIP3   OH228209   2.243   6.754   5.408  0.0283 -0.6056  0.2242
 9423TIP3    H128210   2.278   6.675   5.367  0.2660 -0.2681 -0.2223
 9423TIP3    H228211   2.162   6.725   5.451  0.5738 -1.2761  0.8188
 9424TIP3   OH228212   8.384   6.395   5.027  0.0825 -0.0848 -0.2442
 9424TIP3    H128213   8.417   6.368   5.112  2.1072  2.7473  0.0274
 9424TIP3    H228214   8.289   6.384   5.033  0.2378 -0.7136  2.0680
 9425TIP3   OH228215   2.211   5.312   5.381  0.1422  0.1119  0.4740
 9425TIP3    H128216   2.118   5.290   5.382  0.1430 -0.0816 -1.2440
 9425TIP3    H228217   2.249   5.261   5.453 -0.3290 -3.3485 -1.5598
 9426TIP3   OH228218   5.703   3.447   2.078  0.0864  0.5512 -0.4100
 9426TIP3    H128219   5.721   3.537   2.103 -1.3177  0.5082  0.8919
 9426TIP3    H228220   5.706   3.448   1.982 -0.0207  1.9980 -0.4192
 9427TIP3   OH228221   2.494   6.829   5.055  0.7171 -0.0616  0.5642
 9427TIP3    H128222   2.576   6.818   5.103  0.8444 -2.0503 -0.0130
 9427TIP3    H228223   2.500   6.766   4.983 -0.9836  0.3205  0.0476
 9428TIP3   OH228224   7.613   2.044   6.547 -0.0017  0.0810 -0.0840
 9428TIP3    H128225   7.619   2.131   6.584 -0.8889  0.9464 -1.8140
 9428TIP3    H228226   7.522   2.037   6.517  0.4710 -0.7591 -1.4637
 9429TIP3   OH228227   1.539   6.099   1.390 -0.6837 -0.3742  0.4906
 9429TIP3    H128228   1.567   6.181   1.431  0.4683 -0.6889  0.3691
 9429TIP3    H228229   1.452   6.082   1.426 -0.5639  0.4434  1.1845
 9430TIP3   OH228230   7.528   2.338   6.455 -0.6403  0.5081  0.3289
 9430TIP3    H128231   7.623   2.333   6.454 -0.6696 -0.0732  0.0616
 9430TIP3    H228232   7.503   2.355   6.365 -0.9232 -2.6676 -0.3034
 9431TIP3   OH228233   3.211   2.818   6.645  0.6331  0.8603 -0.0583
 9431TIP3    H128234   3.116   2.800   6.647  0.5205  1.1496 -1.5128
 9431TIP3    H228235   3.219   2.900   6.596  1.7270 -0.0415 -1.4750
 9432TIP3   OH228236   3.180   2.317   4.001 -0.0238  0.3506 -0.8703
 9432TIP3    H128237   3.134   2.305   4.084  0.6468 -2.5808 -0.7987
 9432TIP3    H228238   3.130   2.384   3.955 -3.0013 -1.0030  0.1467
 9433TIP3   OH228239   6.713   3.253   3.911 -0.5889 -0.0586  0.3538
 9433TIP3    H128240   6.797   3.249   3.863  0.7075 -1.7073  2.5662
 9433TIP3    H228241   6.657   3.190   3.865  0.1359 -0.5447  0.1132
 9434TIP3   OH228242   1.856   6.552   2.788  0.0712 -0.2394 -0.2686
 9434TIP3    H128243   1.772   6.527   2.829  0.2691  0.0577  0.3200
 9434TIP3    H228244   1.834   6.627   2.734 -0.2320 -0.7543 -0.8822
 9435TIP3   OH228245   1.985   0.215   0.365 -0.1704 -0.9663  0.1441
 9435TIP3    H128246   1.904   0.189   0.321 -0.6876  1.2489 -0.3125
 9435TIP3    H228247   2.019   0.133   0.401 -2.9270 -1.8876  0.9074
 9436TIP3   OH228248   7.905   3.106   1.203  0.1892 -0.1212  0.1797
 9436TIP3    H128249   7.964   3.119   1.129 -0.6230 -0.1252 -0.4843
 9436TIP3    H228250   7.922   3.180   1.261  1.7974 -0.8342  0.6704
 9437TIP3   OH228251   3.875   1.946   6.479 -0.3370 -0.5081  0.2258
 9437TIP3    H128252   3.800   2.005   6.494 -0.7008 -1.2120  1.2935
 9437TIP3    H228253   3.914   1.978   6.398 -2.4262 -0.7538 -0.9586
 9438TIP3   OH228254   7.227   2.389   3.975 -0.4668  0.0763  0.3831
 9438TIP3    H128255   7.156   2.335   4.008  0.2201 -2.2115 -1.5714
 9438TIP3    H228256   7.243   2.357   3.887  1.6954  1.8377  0.0288
 9439TIP3   OH228257   3.951   3.944   2.159  0.0743 -0.0311  0.7406
 9439TIP3    H128258   3.998   3.911   2.237  1.2957  1.0248  0.4872
 9439TIP3    H228259   3.897   4.015   2.192  0.1666  0.0480  0.7231
 9440TIP3   OH228260   6.372   5.504   4.378 -0.1895  0.1943  0.0135
 9440TIP3    H128261   6.421   5.511   4.296  1.2965 -2.4273  0.5800
 9440TIP3    H228262   6.282   5.487   4.350 -0.0356  1.0141 -1.0500
 9441TIP3   OH228263   5.487   5.963   3.049 -0.4521 -0.5758  0.3106
 9441TIP3    H128264   5.427   6.026   3.009 -1.5687 -1.9648 -0.2747
 9441TIP3    H228265   5.513   6.004   3.131 -2.2832  0.0563  0.6201
 9442TIP3   OH228266   0.150   4.056   5.312 -0.2093  0.6636 -0.4219
 9442TIP3    H128267   0.180   3.972   5.346 -1.8661  0.5493  0.9369
 9442TIP3    H228268   0.163   4.050   5.218  0.6517 -0.7152 -0.2400
 9443TIP3   OH228269   2.241   4.835   4.317  0.5473  0.0668 -0.1924
 9443TIP3    H128270   2.268   4.780   4.390 -0.7254  0.6191  0.7288
 9443TIP3    H228271   2.261   4.925   4.345 -1.7950  0.4850  0.4192
 9444TIP3   OH228272   2.214   3.891   4.338  0.6096  0.0362  0.4842
 9444TIP3    H128273   2.215   3.972   4.289 -0.0289 -0.0929  0.2447
 9444TIP3    H228274   2.131   3.849   4.315 -0.4242  0.6485  2.7508
 9445TIP3   OH228275   5.446   4.480   5.821  0.1745  0.3002 -0.0776
 9445TIP3    H128276   5.478   4.535   5.749  2.6289 -0.8655  0.0489
 9445TIP3    H228277   5.461   4.390   5.791 -1.8672 -0.3068  0.5617
 9446TIP3   OH228278   5.983   5.477   5.908  0.2019 -0.1057 -0.1662
 9446TIP3    H128279   6.045   5.548   5.891 -0.3036  0.5624  0.6927
 9446TIP3    H228280   5.968   5.480   6.003 -1.0198 -0.3434 -0.3323
 9447TIP3   OH228281   3.535   7.331   1.965 -0.1718  0.1517 -0.2228
 9447TIP3    H128282   3.544   7.341   1.870 -0.8833  0.6657 -0.2524
 9447TIP3    H228283   3.460   7.386   1.987  0.2098  0.3223  0.6940
 9448TIP3   OH228284   1.371   7.291   1.773  0.0637 -0.0999  0.3764
 9448TIP3    H128285   1.320   7.222   1.815  1.0343 -0.4909  0.9364
 9448TIP3    H228286   1.460   7.256   1.767  0.1774  0.3545 -1.0791
 9449TIP3   OH228287   4.517   6.371   1.981 -0.0025  0.0899 -0.0067
 9449TIP3    H128288   4.440   6.420   1.954  0.5418  0.4855 -0.8880
 9449TIP3    H228289   4.578   6.438   2.011  1.0499  0.0849 -1.9574
 9450TIP3   OH228290   8.049   6.217   1.378 -0.0113 -0.1406 -0.1527
 9450TIP3    H128291   7.980   6.169   1.422 -0.1907  1.8878  1.9485
 9450TIP3    H228292   8.128   6.165   1.393 -0.5258 -0.8146  0.2809
 9451TIP3   OH228293   4.814   1.743   1.324  0.3067  0.2159 -0.6185
 9451TIP3    H128294   4.783   1.803   1.256  0.0308 -0.2203 -0.8878
 9451TIP3    H228295   4.896   1.708   1.288  1.1835  1.4274  0.1268
 9452TIP3   OH228296   2.931   0.866   1.825 -0.0913  0.0708  0.3448
 9452TIP3    H128297   2.863   0.927   1.855 -0.4950 -0.6648  0.9888
 9452TIP3    H228298   2.935   0.800   1.894 -0.6665 -1.4085 -0.9656
 9453TIP3   OH228299   6.348   0.402   2.326  0.8932 -0.0905 -0.4746
 9453TIP3    H128300   6.334   0.489   2.363 -1.7767 -0.6747  0.1046
 9453TIP3    H228301   6.283   0.347   2.369  0.9745 -1.8777 -2.4706
 9454TIP3   OH228302   4.808   1.773   1.591 -0.3899  0.0499 -0.1364
 9454TIP3    H128303   4.826   1.773   1.497  0.2607  0.1110 -0.0186
 9454TIP3    H228304   4.782   1.863   1.610 -0.1572  0.1299 -0.1945
 9455TIP3   OH228305   3.544   7.038   4.139  0.0842 -0.1466  0.0605
 9455TIP3    H128306   3.616   7.061   4.197 -1.0065  0.9847  1.0099
 9455TIP3    H228307   3.583   7.039   4.051  1.2313  0.3682  0.5545
 9456TIP3   OH228308   7.298   0.443   4.575  0.5409 -0.3642 -0.3652
 9456TIP3    H128309   7.366   0.407   4.632  0.4500  0.3664  0.2156
 9456TIP3    H228310   7.245   0.497   4.632 -2.0235 -2.7768 -0.2568
 9457TIP3   OH228311   1.101   7.664   4.632 -0.2869 -0.4043  0.0339
 9457TIP3    H128312   1.015   7.649   4.671 -0.1137  2.9003  2.0435
 9457TIP3    H228313   1.163   7.632   4.697  0.0841 -1.7126 -0.9090
 9458TIP3   OH228314   7.693   1.676   3.413 -0.5275  0.2862 -0.2432
 9458TIP3    H128315   7.656   1.600   3.457  1.6442 -0.3226  0.6564
 9458TIP3    H228316   7.738   1.640   3.336 -0.3032  0.7917 -0.3528
 9459TIP3   OH228317   5.851   1.701   5.813  0.2210  0.8333  0.0089
 9459TIP3    H128318   5.922   1.766   5.812  2.5162 -1.5377 -0.4387
 9459TIP3    H228319   5.891   1.622   5.847 -2.4641 -0.4355  0.4599
 9460TIP3   OH228320   8.068   2.483   6.053 -0.1899 -0.6639 -0.1993
 9460TIP3    H128321   8.124   2.421   6.099 -0.1718 -1.5949 -1.4145
 9460TIP3    H228322   8.084   2.464   5.960 -0.7334  0.6792 -0.5804
 9461TIP3   OH228323   1.165   7.166   4.210 -0.0595 -0.0065 -0.1869
 9461TIP3    H128324   1.233   7.152   4.276 -0.4583 -2.0836 -0.1527
 9461TIP3    H228325   1.202   7.133   4.129 -1.2086 -1.7364 -0.0503
 9462TIP3   OH228326   8.105   0.487   1.847  0.6276 -0.0499  1.1906
 9462TIP3    H128327   8.140   0.448   1.766 -0.5572 -0.9751  1.0897
 9462TIP3    H228328   8.054   0.416   1.887  0.3055  0.7330  2.1966
 9463TIP3   OH228329   5.673   1.839   2.786  0.4169  0.8387  0.1011
 9463TIP3    H128330   5.658   1.931   2.764  1.3631  0.6316 -1.6214
 9463TIP3    H228331   5.739   1.841   2.855 -0.1823  1.4597  0.6703
 9464TIP3   OH228332   4.713   0.825   4.691 -0.1186 -0.4806 -0.9496
 9464TIP3    H128333   4.727   0.917   4.711  1.8387 -1.2198  1.7809
 9464TIP3    H228334   4.620   0.817   4.674 -0.3676  1.9578 -1.0243
 9465TIP3   OH228335   4.480   4.676   6.600 -0.4691  0.2217  0.1134
 9465TIP3    H128336   4.447   4.760   6.567  0.1322  0.5407  0.3171
 9465TIP3    H228337   4.575   4.681   6.590 -0.5021 -0.8992 -0.9511
 9466TIP3   OH228338   4.856   6.220   2.145  0.0077 -0.2078  0.0753
 9466TIP3    H128339   4.894   6.274   2.076  1.4827  0.0977  1.0983
 9466TIP3    H228340   4.837   6.281   2.216 -0.5413 -0.6805  0.3476
 9467TIP3   OH228341   1.717   4.348   0.623  0.4502 -0.0202  0.6601
 9467TIP3    H128342   1.644   4.286   0.618  0.9382 -0.6123  0.8081
 9467TIP3    H228343   1.795   4.295   0.609  0.8091  0.7540 -0.4495
 9468TIP3   OH228344   4.391   7.888   5.685 -0.0844  0.0933  0.4612
 9468TIP3    H128345   4.386   7.838   5.603 -1.0328  1.1976 -0.1862
 9468TIP3    H228346   4.375   7.824   5.754  0.3182 -0.7780 -0.2428
 9469TIP3   OH228347   1.403   6.616   4.829  0.1097  0.0729 -0.3664
 9469TIP3    H128348   1.322   6.636   4.783  0.4172  0.9722 -0.5416
 9469TIP3    H228349   1.375   6.577   4.912 -0.4825 -0.1754 -0.6819
 9470TIP3   OH228350   1.614   4.381   4.505  0.0311 -0.2061  0.0043
 9470TIP3    H128351   1.670   4.317   4.461  0.5315 -0.2202  0.6432
 9470TIP3    H228352   1.604   4.347   4.594 -0.0782  0.3689  0.2176
 9471TIP3   OH228353   3.273   2.225   1.714  0.0145  0.2852 -0.4901
 9471TIP3    H128354   3.210   2.153   1.714 -0.5830  0.7940 -0.7117
 9471TIP3    H228355   3.343   2.195   1.656 -0.2567 -0.1000 -0.6281
 9472TIP3   OH228356   5.662   2.703   5.133  0.0237 -0.1504  0.5064
 9472TIP3    H128357   5.577   2.665   5.150  0.6352 -1.6278  0.3986
 9472TIP3    H228358   5.663   2.785   5.183 -1.8972  0.5389 -0.4782
 9473TIP3   OH228359   5.821   0.581   1.223 -0.6030  0.1020 -0.3855
 9473TIP3    H128360   5.741   0.631   1.240 -0.3476  0.2698  0.4040
 9473TIP3    H228361   5.855   0.617   1.141 -1.0533  0.4061 -0.4412
 9474TIP3   OH228362   5.001   7.832   2.494  0.0307  0.1886 -0.2677
 9474TIP3    H128363   4.982   7.784   2.575  1.0305  0.3403  0.0676
 9474TIP3    H228364   5.072   7.892   2.517 -0.5567  1.1806 -0.9230
 9475TIP3   OH228365   2.314   2.598   5.497  0.1253 -0.6888 -0.7311
 9475TIP3    H128366   2.286   2.507   5.506 -2.4455 -0.1638 -2.4044
 9475TIP3    H228367   2.370   2.598   5.419  0.8269 -0.9273 -0.2435
 9476TIP3   OH228368   0.379   3.752   0.111  0.5334 -0.6696 -0.2813
 9476TIP3    H128369   0.470   3.771   0.133  0.0981  1.0308  0.1547
 9476TIP3    H228370   0.356   3.818   0.046 -0.1682 -1.5866 -0.9905
 9477TIP3   OH228371   1.115   5.422   4.315 -0.0257  0.2612 -0.2739
 9477TIP3    H128372   1.147   5.493   4.370 -0.4015  0.8812 -0.8423
 9477TIP3    H228373   1.055   5.464   4.254  2.0649 -0.0071 -2.6492
 9478TIP3   OH228374   6.159   7.875   4.555  0.0476 -0.0436 -0.0747
 9478TIP3    H128375   6.123   7.963   4.562 -0.6299 -0.2984 -0.2463
 9478TIP3    H228376   6.109   7.834   4.484  1.9852  0.2059 -1.6841
 9479TIP3   OH228377   6.465   1.915   5.290 -0.5696 -0.1212  0.2080
 9479TIP3    H128378   6.556   1.892   5.311 -0.3951  0.4422  0.0840
 9479TIP3    H228379   6.438   1.850   5.225  0.6792  1.3718 -1.9028
 9480TIP3   OH228380   1.600   1.385   1.835 -0.3009 -0.2655 -0.0369
 9480TIP3    H128381   1.599   1.348   1.747  0.9781 -0.7645  0.1320
 9480TIP3    H228382   1.548   1.465   1.829  0.3366  0.0755 -1.4266
 9481TIP3   OH228383   5.347   2.496   4.802  0.4478 -0.3937 -0.3326
 9481TIP3    H128384   5.442   2.485   4.789  0.2561 -0.7839 -1.6237
 9481TIP3    H228385   5.326   2.576   4.754  0.3130  0.4521  1.0811
 9482TIP3   OH228386   2.779   7.347   6.774 -0.3052 -0.2796  0.0020
 9482TIP3    H128387   2.719   7.368   6.845 -1.4462  0.2690 -1.0828
 9482TIP3    H228388   2.722   7.329   6.699  0.8915  1.7459 -1.4797
 9483TIP3   OH228389   2.629   4.759   6.392 -0.0992  0.1568 -0.7329
 9483TIP3    H128390   2.534   4.768   6.393 -0.0144  1.2011 -0.4441
 9483TIP3    H228391   2.652   4.746   6.484  0.0387  0.0397 -0.7851
 9484TIP3   OH228392   7.424   2.062   6.215 -0.1512 -0.3766 -0.7526
 9484TIP3    H128393   7.437   2.157   6.217  1.1115 -0.5408  0.4426
 9484TIP3    H228394   7.359   2.046   6.283  0.4911 -0.4527 -0.1376
 9485TIP3   OH228395   7.818   3.477   5.875 -0.2181 -0.2495  0.2316
 9485TIP3    H128396   7.754   3.418   5.914 -1.2124  1.4011  1.2157
 9485TIP3    H228397   7.774   3.562   5.872  1.5805  0.7284  0.0051
 9486TIP3   OH228398   3.222   3.779   0.334  0.1838  0.3772 -0.1811
 9486TIP3    H128399   3.136   3.812   0.359  0.0770 -0.5580  0.8185
 9486TIP3    H228400   3.284   3.833   0.384 -0.0188 -1.2927  2.0310
 9487TIP3   OH228401   5.293   1.111   4.133  0.0014  0.1893  0.2188
 9487TIP3    H128402   5.327   1.099   4.222  0.2569  1.0273  0.2501
 9487TIP3    H228403   5.303   1.026   4.091 -0.7982 -0.4027  1.2128
 9488TIP3   OH228404   5.969   0.135   1.732 -0.6232  0.2051  0.7708
 9488TIP3    H128405   5.916   0.056   1.723 -0.0954 -0.2626  1.6819
 9488TIP3    H228406   6.041   0.110   1.789  0.7412  0.7686 -0.6411
 9489TIP3   OH228407   1.283   7.840   2.297 -0.2301 -0.0743 -0.2315
 9489TIP3    H128408   1.320   7.780   2.362 -1.6289 -0.5575  0.1624
 9489TIP3    H228409   1.293   7.795   2.214  1.1021  0.3212 -0.3073
 9490TIP3   OH228410   4.731   5.968   2.104 -0.6366  0.0697 -0.0198
 9490TIP3    H128411   4.740   6.060   2.128  0.8467 -0.2220  0.6916
 9490TIP3    H228412   4.817   5.930   2.123 -1.5944 -1.7438  0.9145
 9491TIP3   OH228413   8.333   5.037   3.003 -0.3032  0.1008  0.8402
 9491TIP3    H128414   8.249   5.054   2.959 -0.8305  1.3427  2.2341
 9491TIP3    H228415   8.315   4.965   3.063 -0.1707 -0.0916  0.6536
 9492TIP3   OH228416   1.384   5.567   4.557 -0.4052 -0.7049  0.0929
 9492TIP3    H128417   1.331   5.536   4.630 -0.4661  0.7159  0.6882
 9492TIP3    H228418   1.321   5.608   4.497 -0.1840 -0.5295 -0.0227
 9493TIP3   OH228419   4.791   2.387   6.065  0.6449  0.3941  0.0397
 9493TIP3    H128420   4.748   2.335   6.132  0.4933  0.3867 -0.0630
 9493TIP3    H228421   4.781   2.336   5.985 -0.0236  0.8563 -0.1782
 9494TIP3   OH228422   5.740   2.251   1.762 -0.2832 -0.4060  0.2751
 9494TIP3    H128423   5.684   2.320   1.727  1.8629  0.3979 -1.8569
 9494TIP3    H228424   5.795   2.296   1.827  2.3009  0.5345 -2.3020
 9495TIP3   OH228425   5.813   4.167   6.561 -1.0057  0.0072  0.0495
 9495TIP3    H128426   5.901   4.200   6.543 -1.4631  2.5063  1.8452
 9495TIP3    H228427   5.767   4.175   6.478  0.3542 -1.1310 -0.8556
 9496TIP3   OH228428   0.513   6.909   6.852 -0.1637 -0.2838  0.4622
 9496TIP3    H128429   0.536   6.981   6.794  0.2161 -0.2162  0.6938
 9496TIP3    H228430   0.419   6.918   6.866 -0.9350 -2.0504 -2.5656
 9497TIP3   OH228431   6.724   1.743   6.304 -0.4314  0.3738 -0.3660
 9497TIP3    H128432   6.743   1.657   6.266  1.3803  1.0640 -1.1638
 9497TIP3    H228433   6.751   1.736   6.395 -0.6997 -0.0241 -0.3154
 9498TIP3   OH228434   5.952   1.060   3.355 -0.0408  0.1777  0.6992
 9498TIP3    H128435   5.946   0.982   3.300 -0.2263  0.4737  0.2934
 9498TIP3    H228436   5.861   1.081   3.378 -0.1789  1.3939 -0.8001
 9499TIP3   OH228437   3.957   3.262   1.080 -0.3352  0.1906  0.3651
 9499TIP3    H128438   3.897   3.335   1.092 -0.7909 -0.2540  0.8685
 9499TIP3    H228439   4.011   3.286   1.005 -1.5036  0.3592 -0.4381
 9500TIP3   OH228440   4.248   7.680   4.002 -0.2269  0.0389  0.0987
 9500TIP3    H128441   4.279   7.736   3.930  1.9520 -0.0777  0.8665
 9500TIP3    H228442   4.269   7.591   3.973  1.5291  0.0519  1.2180
 9501TIP3   OH228443   8.070   3.746   0.855  0.4572 -0.0173  0.2128
 9501TIP3    H128444   8.126   3.779   0.785  0.3835  2.5935  1.2788
 9501TIP3    H228445   7.983   3.782   0.834  0.3507  0.4506  1.4011
 9502TIP3   OH228446   2.243   7.655   4.807 -0.3359 -0.2063 -0.5986
 9502TIP3    H128447   2.235   7.750   4.816 -1.0444 -0.4327  2.0533
 9502TIP3    H228448   2.337   7.638   4.818 -0.4770  0.0620  1.3920
 9503TIP3   OH228449   2.559   5.027   2.330  0.1704 -0.3703 -1.2385
 9503TIP3    H128450   2.628   4.964   2.353  0.6820  0.2752 -0.9517
 9503TIP3    H228451   2.483   4.998   2.381  0.1299 -1.2721 -1.7898
 9504TIP3   OH228452   2.602   4.463   5.232  0.4251 -0.3694 -0.4113
 9504TIP3    H128453   2.682   4.472   5.284  0.1704  1.1523 -0.2095
 9504TIP3    H228454   2.531   4.473   5.296  0.1057  0.8954 -0.9306
 9505TIP3   OH228455   1.125   7.190   2.801 -0.4950  0.2342 -0.1230
 9505TIP3    H128456   1.160   7.235   2.724  2.5664 -1.3771  0.1870
 9505TIP3    H228457   1.081   7.259   2.851  2.6822  2.6935 -0.3542
 9506TIP3   OH228458   5.592   7.002   6.131 -0.2594  0.1541  0.0383
 9506TIP3    H128459   5.616   7.095   6.131  2.9053 -0.5357  0.6501
 9506TIP3    H228460   5.662   6.959   6.082 -1.2022 -2.0344  0.4865
 9507TIP3   OH228461   1.363   6.135   6.090 -0.0259  0.5649  0.3736
 9507TIP3    H128462   1.367   6.214   6.035 -0.8644  0.8383  0.6856
 9507TIP3    H228463   1.359   6.063   6.027 -1.4662  0.8971  0.0443
 9508TIP3   OH228464   1.732   4.168   3.820  0.3714  0.6378 -0.5742
 9508TIP3    H128465   1.642   4.158   3.789  0.3529  1.7547 -0.9178
 9508TIP3    H228466   1.742   4.262   3.834  1.6963  0.6055 -1.1762
 9509TIP3   OH228467   3.667   0.522   3.226 -0.1671  0.2222 -0.3373
 9509TIP3    H128468   3.689   0.461   3.156  1.4433 -1.2353  1.3522
 9509TIP3    H228469   3.750   0.541   3.269 -0.7719  2.7912 -0.0875
 9510TIP3   OH228470   4.377   3.957   4.233  0.5671 -0.1878 -0.4568
 9510TIP3    H128471   4.362   3.985   4.143  1.2764 -0.3491 -0.6289
 9510TIP3    H228472   4.292   3.968   4.276  0.7909  2.1587 -0.5148
 9511TIP3   OH228473   1.432   7.712   2.480 -0.0127  0.4069 -0.3113
 9511TIP3    H128474   1.513   7.737   2.436 -1.2733  1.2331 -2.3245
 9511TIP3    H228475   1.416   7.622   2.452 -0.9463  1.0158 -1.8767
 9512TIP3   OH228476   1.625   7.687   1.255 -0.0236  0.4915  0.5587
 9512TIP3    H128477   1.661   7.604   1.287  0.2355 -0.2941 -1.5868
 9512TIP3    H228478   1.539   7.664   1.220  0.5866  0.8043 -1.2577
 9513TIP3   OH228479   7.020   5.612   3.973 -0.0413  0.4250 -0.6239
 9513TIP3    H128480   6.948   5.630   3.912  0.2474  0.9282 -0.8194
 9513TIP3    H228481   7.060   5.531   3.940 -0.8371 -0.1526 -0.2108
 9514TIP3   OH228482   7.696   6.561   3.540 -0.2004 -0.2185  0.2807
 9514TIP3    H128483   7.772   6.568   3.482 -1.4119  0.7393 -1.2574
 9514TIP3    H228484   7.665   6.652   3.549 -2.2629 -0.7752 -0.6620
 9515TIP3   OH228485   6.452   2.236   6.341  0.1239 -0.2184  0.8445
 9515TIP3    H128486   6.497   2.320   6.334  0.0394 -0.2245  0.0955
 9515TIP3    H228487   6.516   2.172   6.310 -0.3250 -0.2443 -0.0642
 9516TIP3   OH228488   7.046   2.870   1.099 -0.5803  0.4173  0.4729
 9516TIP3    H128489   7.001   2.952   1.121  1.5937  2.1274 -0.9501
 9516TIP3    H228490   7.099   2.850   1.177 -2.1166 -0.4419  1.3391
 9517TIP3   OH228491   4.060   6.715   4.412 -0.4401  0.1181 -0.6268
 9517TIP3    H128492   4.055   6.763   4.494 -0.5920  0.7174 -0.9837
 9517TIP3    H228493   3.971   6.680   4.400 -0.5315  0.3953 -0.7559
 9518TIP3   OH228494   4.854   6.763   4.601 -0.9381  0.2659  0.5838
 9518TIP3    H128495   4.866   6.700   4.673  2.0237  1.5289  1.3343
 9518TIP3    H228496   4.814   6.839   4.643 -1.9605 -0.0728  0.2446
 9519TIP3   OH228497   0.021   5.305   6.439 -0.5256 -0.0513  0.3072
 9519TIP3    H128498   0.036   5.232   6.380 -0.3413 -0.2395  0.5833
 9519TIP3    H228499   0.082   5.291   6.511 -0.5060  0.3618  0.3752
 9520TIP3   OH228500   1.116   3.560   2.637 -0.1183 -0.3642 -0.3497
 9520TIP3    H128501   1.106   3.523   2.725  1.5010  1.1829  0.5567
 9520TIP3    H228502   1.111   3.485   2.578  0.5404 -1.6761  1.1936
 9521TIP3   OH228503   4.142   7.396   6.545 -0.0252 -0.0197  0.0401
 9521TIP3    H128504   4.221   7.408   6.598  1.7999  1.1841 -2.7495
 9521TIP3    H228505   4.074   7.446   6.592  0.8194 -0.9494  2.4243
 9522TIP3   OH228506   0.990   7.199   6.487  0.3790 -0.3720  0.3541
 9522TIP3    H128507   0.975   7.274   6.429  1.6219  1.2506  1.9933
 9522TIP3    H228508   1.085   7.183   6.481  0.2375 -1.3469  0.5814
 9523TIP3   OH228509   4.523   1.136   5.235  0.5102 -0.6338  0.1758
 9523TIP3    H128510   4.523   1.106   5.144  0.0891  1.6009 -0.6427
 9523TIP3    H228511   4.432   1.159   5.253  0.4737 -1.6498  1.4110
 9524TIP3   OH228512   5.827   0.565   6.289 -0.4341 -0.0821 -0.6000
 9524TIP3    H128513   5.843   0.482   6.243 -1.8470 -0.8686  0.2557
 9524TIP3    H228514   5.885   0.628   6.245  0.8125 -1.5424 -1.1567
 9525TIP3   OH228515   2.386   1.511   5.828  0.7429 -0.2471  0.2975
 9525TIP3    H128516   2.397   1.583   5.767 -0.9643 -0.7506 -0.6591
 9525TIP3    H228517   2.469   1.507   5.876  1.6687  0.9240 -1.1417
 9526TIP3   OH228518   6.118   6.810   4.321  0.4764  0.0601  0.1204
 9526TIP3    H128519   6.139   6.717   4.330 -0.1205 -0.0320  0.5769
 9526TIP3    H228520   6.198   6.848   4.285 -0.0439 -1.0291 -2.4428
 9527TIP3   OH228521   3.138   4.889   3.745  0.5401  0.4975  0.1922
 9527TIP3    H128522   3.065   4.880   3.685 -0.4956  0.8855  1.3476
 9527TIP3    H228523   3.213   4.910   3.689 -0.2002 -0.0099 -1.0204
 9528TIP3   OH228524   2.691   5.724   4.907  0.1226 -0.2380 -0.3411
 9528TIP3    H128525   2.729   5.722   4.820 -0.9447  0.4671 -0.8452
 9528TIP3    H228526   2.614   5.780   4.898 -0.8194 -1.3145  0.7266
 9529TIP3   OH228527   0.212   6.598   5.177  0.1419 -0.6361 -0.3701
 9529TIP3    H128528   0.158   6.653   5.233 -1.5539 -0.6381 -1.8954
 9529TIP3    H228529   0.213   6.512   5.220  2.5310  0.3681  1.8496
 9530TIP3   OH228530   1.670   7.633   4.872  0.2852  0.5502  0.2778
 9530TIP3    H128531   1.671   7.669   4.784 -1.8749 -2.5500 -1.2010
 9530TIP3    H228532   1.593   7.673   4.913 -0.8831 -0.6474 -0.6306
 9531TIP3   OH228533   6.527   1.159   0.432  0.0672  0.1130  0.0140
 9531TIP3    H128534   6.528   1.077   0.382  1.4784  0.9852 -1.5124
 9531TIP3    H228535   6.507   1.226   0.367  1.9674  1.2984  0.5604
 9532TIP3   OH228536   6.326   1.826   0.427 -0.0429  0.3299  0.5254
 9532TIP3    H128537   6.369   1.911   0.418  0.7838 -0.0132  1.1447
 9532TIP3    H228538   6.389   1.763   0.391  0.2027 -0.2329  1.8888
 9533TIP3   OH228539   1.200   4.037   4.222 -0.0021  0.2700 -0.4417
 9533TIP3    H128540   1.162   3.961   4.266  0.4728  1.7595  2.9189
 9533TIP3    H228541   1.295   4.025   4.230  0.0818  1.3629  0.6141
 9534TIP3   OH228542   1.070   3.822   2.768 -0.1048  0.0695 -0.1879
 9534TIP3    H128543   1.086   3.800   2.860  1.2274  0.6412 -0.2593
 9534TIP3    H228544   1.100   3.745   2.719 -0.6523 -0.1659 -0.1549
 9535TIP3   OH228545   5.548   7.770   0.490 -0.0603 -0.0471  0.1607
 9535TIP3    H128546   5.626   7.816   0.522 -0.4399  1.3760 -0.8470
 9535TIP3    H228547   5.577   7.681   0.473  0.9845  0.0834  1.1419
 9536TIP3   OH228548   2.903   1.155   5.337  0.1143  0.0556 -0.5337
 9536TIP3    H128549   2.813   1.187   5.330  0.4906  1.1337 -0.7623
 9536TIP3    H228550   2.948   1.223   5.388  0.4771 -1.1872  0.9005
 9537TIP3   OH228551   6.250   3.494   0.088 -0.2608  0.1163  0.3359
 9537TIP3    H128552   6.236   3.588   0.099 -0.7583 -0.0657  1.2959
 9537TIP3    H228553   6.342   3.480   0.111  0.2172  0.5632 -1.1756
 9538TIP3   OH228554   7.122   1.094   1.336 -0.1842  0.3288  0.1084
 9538TIP3    H128555   7.144   1.139   1.417 -2.5907  0.7178  0.6232
 9538TIP3    H228556   7.186   1.023   1.330  0.5152  0.7435  1.9534
 9539TIP3   OH228557   6.021   2.154   0.747 -0.2145 -0.8448 -0.6575
 9539TIP3    H128558   6.104   2.182   0.708 -0.0143 -0.4104  0.0703
 9539TIP3    H228559   5.976   2.108   0.676  0.7786 -1.3565 -0.9753
 9540TIP3   OH228560   7.721   1.529   2.928 -0.0964 -0.1402  0.2349
 9540TIP3    H128561   7.738   1.546   2.836 -1.7205 -0.4862 -0.1672
 9540TIP3    H228562   7.626   1.513   2.932 -0.0836  0.0354  1.9828
 9541TIP3   OH228563   6.513   3.054   6.683 -0.5860  0.3603  0.4556
 9541TIP3    H128564   6.561   3.026   6.606 -0.1159  1.0277  0.4926
 9541TIP3    H228565   6.448   3.116   6.650  0.5260  1.7240  0.7293
 9542TIP3   OH228566   7.501   6.461   1.586  0.3180  0.4848  0.8199
 9542TIP3    H128567   7.455   6.472   1.669 -1.2677  1.2780 -0.1093
 9542TIP3    H228568   7.582   6.512   1.596 -0.0298  0.8816  1.7311
 9543TIP3   OH228569   1.128   6.625   4.710  0.3503 -0.4230  0.0529
 9543TIP3    H128570   1.112   6.540   4.751  1.2218 -1.1386 -1.0166
 9543TIP3    H228571   1.085   6.619   4.624  0.7882  0.0397 -0.2075
 9544TIP3   OH228572   6.046   0.235   4.033 -0.1577 -0.2755  0.2510
 9544TIP3    H128573   6.039   0.320   4.076  0.3316 -0.9212  1.6971
 9544TIP3    H228574   5.959   0.197   4.040  0.0547 -0.6141  1.2448
 9545TIP3   OH228575   7.919   1.224   0.567  0.3659  0.2603 -0.0303
 9545TIP3    H128576   7.975   1.193   0.638 -1.3250  1.0531  1.7519
 9545TIP3    H228577   7.966   1.299   0.530  2.2123 -1.3853 -1.1724
 9546TIP3   OH228578   1.538   0.034   6.140 -0.8722 -0.1592  0.0385
 9546TIP3    H128579   1.572   0.045   6.229 -0.3619 -0.2296 -0.1506
 9546TIP3    H228580   1.592  -0.034   6.101 -1.5135 -0.5962 -0.1154
 9547TIP3   OH228581   4.330   4.963   4.441 -0.2757  0.4444  0.3362
 9547TIP3    H128582   4.400   5.005   4.491  0.2695  1.5971 -1.3047
 9547TIP3    H228583   4.313   4.881   4.487  0.2870  1.3732  2.2971
 9548TIP3   OH228584   7.617   5.425   5.680 -0.2131  0.1486 -0.1092
 9548TIP3    H128585   7.699   5.380   5.663  0.1014 -0.1031  1.8803
 9548TIP3    H228586   7.560   5.359   5.718 -0.6586  0.7871  0.3597
 9549TIP3   OH228587   2.036   2.020   0.969 -0.2079 -0.1233  0.1205
 9549TIP3    H128588   1.987   2.016   0.887 -0.2839 -0.5057  0.1800
 9549TIP3    H228589   2.042   2.113   0.989 -0.6451 -0.0559 -0.0509
 9550TIP3   OH228590   1.392   6.313   0.384 -0.6847 -0.1425  0.3164
 9550TIP3    H128591   1.365   6.385   0.441 -0.5204 -0.3584  0.6689
 9550TIP3    H228592   1.439   6.252   0.442  1.0851  0.4977 -0.3941
 9551TIP3   OH228593   0.073   3.923   3.542 -0.0508 -0.4901 -0.0954
 9551TIP3    H128594   0.021   3.938   3.621 -0.0917 -1.3731  0.0544
 9551TIP3    H228595   0.009   3.905   3.473 -0.0695  1.2253 -0.5805
 9552TIP3   OH228596   2.998   4.163   5.866  0.1152  0.1620 -0.2034
 9552TIP3    H128597   3.045   4.237   5.828 -1.0329  1.3472  0.5626
 9552TIP3    H228598   2.957   4.200   5.945 -0.7247 -1.2254  0.0343
 9553TIP3   OH228599   7.966   0.350   0.364  0.1991  0.4521 -0.1755
 9553TIP3    H128600   8.051   0.306   0.358  1.0688  1.9276  0.7263
 9553TIP3    H228601   7.987   0.440   0.390 -1.6203  0.9648 -0.3290
 9554TIP3   OH228602   7.006   7.306   4.469  0.2190  0.1678 -0.2955
 9554TIP3    H128603   6.940   7.237   4.470 -1.7325  1.9363  0.9129
 9554TIP3    H228604   7.088   7.261   4.450 -1.2266 -2.1934 -1.3560
 9555TIP3   OH228605   6.151   3.795   2.344 -0.2082  0.1799  0.5658
 9555TIP3    H128606   6.225   3.823   2.397 -0.8803  0.3058  1.4760
 9555TIP3    H228607   6.088   3.760   2.407 -1.5952  1.5402  0.0217
 9556TIP3   OH228608   2.715   2.490   4.938  0.7784 -0.6780 -0.2827
 9556TIP3    H128609   2.721   2.492   5.033 -0.5558  0.6439 -0.1999
 9556TIP3    H228610   2.632   2.446   4.920 -0.4896  1.7214 -0.7069
 9557TIP3   OH228611   1.172   3.720   1.644  0.2274  0.4361  0.2471
 9557TIP3    H128612   1.113   3.740   1.572 -0.4353  2.4448  1.2871
 9557TIP3    H228613   1.252   3.768   1.623  0.9771 -1.0142 -0.3683
 9558TIP3   OH228614   7.239   0.668   5.356  0.0065  0.8548 -0.1838
 9558TIP3    H128615   7.254   0.586   5.404  0.9635  0.9689 -0.2600
 9558TIP3    H228616   7.325   0.691   5.321 -0.6561  0.8033 -1.9408
 9559TIP3   OH228617   5.568   2.367   6.763  0.6865  0.1870 -0.1611
 9559TIP3    H128618   5.483   2.351   6.805  1.1847 -1.0144  0.4223
 9559TIP3    H228619   5.602   2.445   6.807  0.9302 -0.7065  1.2560
 9560TIP3   OH228620   4.064   3.504   2.348  1.2891 -0.2567 -0.2416
 9560TIP3    H128621   4.111   3.457   2.418  0.3781 -0.1616  0.4561
 9560TIP3    H228622   4.025   3.580   2.392 -1.2480 -1.4161 -0.3085
 9561TIP3   OH228623   8.250   6.642   5.164  0.8836  0.3187  0.4095
 9561TIP3    H128624   8.334   6.618   5.125  0.3240  0.1975 -0.7593
 9561TIP3    H228625   8.264   6.729   5.202  1.4500  0.4303 -0.0531
 9562TIP3   OH228626   2.447   1.103   2.862  0.0465  0.3329 -0.0617
 9562TIP3    H128627   2.464   1.016   2.899 -0.3810  0.9608  1.7234
 9562TIP3    H228628   2.500   1.106   2.782 -0.1826 -1.6730 -0.3298
 9563TIP3   OH228629   6.645   6.924   5.838  0.1234 -0.3395 -0.0539
 9563TIP3    H128630   6.564   6.943   5.790 -0.1854 -0.6777  0.3327
 9563TIP3    H228631   6.639   6.831   5.859  0.9264 -0.5233 -0.6095
 9564TIP3   OH228632   7.492   3.246   4.293 -0.0504  0.0678 -0.5409
 9564TIP3    H128633   7.548   3.171   4.273 -1.6137 -1.1926 -0.4312
 9564TIP3    H228634   7.420   3.240   4.230 -1.3538  0.1386  0.8721
 9565TIP3   OH228635   6.209   4.598   1.721 -0.0722  0.1992 -0.5349
 9565TIP3    H128636   6.292   4.564   1.690 -0.3164 -0.4277 -0.5155
 9565TIP3    H228637   6.149   4.586   1.647 -1.2130 -3.2799  0.7328
 9566TIP3   OH228638   6.519   6.324   0.559 -0.3014 -0.0210  0.1841
 9566TIP3    H128639   6.442   6.269   0.546  0.7314 -2.2810  2.6280
 9566TIP3    H228640   6.490   6.393   0.619 -1.0399  0.7327 -1.0225
 9567TIP3   OH228641   0.965   0.095   1.789 -0.0006  0.1590  0.2060
 9567TIP3    H128642   1.050   0.136   1.806  0.0041  0.4265 -0.4600
 9567TIP3    H228643   0.921   0.154   1.729 -1.1593  0.6377  1.4727
 9568TIP3   OH228644   1.877   1.950   4.605  0.2288  1.0096 -0.2524
 9568TIP3    H128645   1.784   1.946   4.626  0.4101  1.3624  0.6296
 9568TIP3    H228646   1.892   1.874   4.548 -0.5029  0.6984 -0.0344
 9569TIP3   OH228647   6.229   5.814   0.210  0.2443 -0.3454  0.1744
 9569TIP3    H128648   6.228   5.786   0.119 -0.4395  1.2190 -0.3224
 9569TIP3    H228649   6.157   5.765   0.251 -0.1261 -0.2565 -0.3691
 9570TIP3   OH228650   8.340   1.482   5.700  0.1220 -0.0034  0.4887
 9570TIP3    H128651   8.349   1.488   5.795 -0.0992  0.6899  0.4654
 9570TIP3    H228652   8.262   1.427   5.688  0.8130 -1.0747  0.6899
 9571TIP3   OH228653   7.629   4.938   5.040 -0.6314  0.0657  0.4121
 9571TIP3    H128654   7.577   4.907   4.965 -0.1686  2.6385 -1.0930
 9571TIP3    H228655   7.582   4.906   5.117 -1.1718 -2.6351 -0.9138
 9572TIP3   OH228656   6.258   6.034   4.126  0.2990  0.0573 -0.1590
 9572TIP3    H128657   6.176   6.061   4.084 -0.8090 -0.3678  1.6235
 9572TIP3    H228658   6.230   5.976   4.197  2.2967 -1.9831 -0.9152
 9573TIP3   OH228659   1.948   5.859   2.480 -0.4251  0.0488 -0.1131
 9573TIP3    H128660   1.917   5.944   2.510 -2.3505  0.1246 -2.1170
 9573TIP3    H228661   2.029   5.878   2.432  0.6775  0.3485  1.7794
 9574TIP3   OH228662   7.817   2.330   6.462 -0.5839  0.7898 -0.2962
 9574TIP3    H128663   7.836   2.334   6.368 -0.6073  0.4853 -0.3140
 9574TIP3    H228664   7.851   2.245   6.490 -2.5557 -0.1000 -0.4676
 9575TIP3   OH228665   5.849   4.662   1.921 -0.4397 -0.5796 -0.4411
 9575TIP3    H128666   5.778   4.661   1.985 -0.7988  0.8043 -0.7788
 9575TIP3    H228667   5.903   4.736   1.947 -0.6742  0.1005 -1.8064
 9576TIP3   OH228668   8.102   6.292   5.318 -0.5421 -0.2964  0.3279
 9576TIP3    H128669   8.192   6.277   5.292 -0.3717 -1.5127  1.4578
 9576TIP3    H228670   8.057   6.209   5.298 -0.7539 -0.7079  2.2380
 9577TIP3   OH228671   0.597   0.712   5.042  0.4169 -0.1518  0.6767
 9577TIP3    H128672   0.513   0.756   5.036 -0.1635 -1.2525  0.5807
 9577TIP3    H228673   0.661   0.778   5.013 -0.3456  0.8277  1.1561
 9578TIP3   OH228674   7.588   7.851   5.702  0.1147  0.1680  0.4317
 9578TIP3    H128675   7.541   7.813   5.628  0.2020 -0.8295  0.8801
 9578TIP3    H228676   7.675   7.872   5.667  0.8074 -2.0437  0.6894
 9579TIP3   OH228677   1.476   2.723   0.100 -0.1150  0.0975 -0.0294
 9579TIP3    H128678   1.401   2.709   0.042 -0.4531  2.2821 -0.1830
 9579TIP3    H228679   1.464   2.657   0.169 -2.3930  0.5903  0.1436
 9580TIP3   OH228680   7.867   5.850   2.137  0.4823 -0.4129  0.6400
 9580TIP3    H128681   7.808   5.778   2.157 -1.3884  0.8393 -0.0528
 9580TIP3    H228682   7.810   5.927   2.134  1.6281  0.4894 -2.8541
 9581TIP3   OH228683   2.622   3.712   1.007  0.2950 -0.6135 -0.5376
 9581TIP3    H128684   2.713   3.741   1.015 -0.2806  0.8138  1.6628
 9581TIP3    H228685   2.598   3.731   0.917  1.4177  1.4400 -0.4476
 9582TIP3   OH228686   0.415   1.622   4.837 -0.5400 -0.4098  0.4405
 9582TIP3    H128687   0.482   1.617   4.770  3.3412 -0.5526  3.9225
 9582TIP3    H228688   0.378   1.710   4.828  2.8946  1.2130  0.5770
 9583TIP3   OH228689   1.780   7.091   5.818 -0.2157  0.0610 -0.0850
 9583TIP3    H128690   1.777   7.112   5.725  2.1568 -0.0377 -0.2309
 9583TIP3    H228691   1.869   7.113   5.845 -0.7968 -0.0803  2.1311
 9584TIP3   OH228692   3.383   4.845   3.577 -0.1472  0.1778 -0.3514
 9584TIP3    H128693   3.365   4.769   3.632 -1.8372  1.3318  0.7908
 9584TIP3    H228694   3.479   4.853   3.579 -0.1091  0.1066  2.4204
 9585TIP3   OH228695   0.802   4.822   2.547  0.1506  0.1097  0.5036
 9585TIP3    H128696   0.882   4.869   2.523  0.6172 -1.2116 -0.6406
 9585TIP3    H228697   0.756   4.809   2.463  0.4633 -2.2048  0.6244
 9586TIP3   OH228698   6.657   6.709   5.567  0.1858 -0.2489  0.6755
 9586TIP3    H128699   6.740   6.727   5.524 -0.4450  2.6918  0.5332
 9586TIP3    H228700   6.597   6.688   5.495  0.2270  0.1042  0.5363
 9587TIP3   OH228701   6.374   1.237   3.590  0.0816 -0.1552 -0.3049
 9587TIP3    H128702   6.314   1.249   3.664  1.5898  0.6119  0.8407
 9587TIP3    H228703   6.319   1.253   3.513 -1.7544 -1.8804  0.5521
 9588TIP3   OH228704   4.001   4.444   2.333 -0.3615 -0.0258  0.1381
 9588TIP3    H128705   4.094   4.421   2.329 -0.0841  0.6289  2.1138
 9588TIP3    H228706   3.965   4.409   2.251  1.6925  0.0986 -0.8953
 9589TIP3   OH228707   4.848   7.886   1.372 -0.1721  0.1739  1.0288
 9589TIP3    H128708   4.841   7.965   1.426 -1.5335 -1.2891  3.1778
 9589TIP3    H228709   4.910   7.831   1.421  0.7408 -0.1345 -0.4268
 9590TIP3   OH228710   7.572   5.578   4.995 -0.1998 -0.9007  0.4707
 9590TIP3    H128711   7.512   5.521   5.042 -0.4971 -0.4182  0.6870
 9590TIP3    H228712   7.565   5.550   4.903  1.6031 -2.9329  0.8859
 9591TIP3   OH228713   4.521   5.962   3.835  0.1800  0.2494  0.4935
 9591TIP3    H128714   4.463   5.920   3.898 -3.3051  2.2347 -1.1274
 9591TIP3    H228715   4.567   6.029   3.886  0.6757 -0.9938  1.7179
 9592TIP3   OH228716   6.372   2.491   5.225  0.4772  0.3177 -0.0747
 9592TIP3    H128717   6.303   2.432   5.257 -2.2567  2.8792 -0.7886
 9592TIP3    H228718   6.439   2.488   5.293 -1.5382 -0.3550  2.0240
 9593TIP3   OH228719   4.709   7.163   4.834  0.0328  0.0409 -0.0828
 9593TIP3    H128720   4.648   7.220   4.786  0.2175 -1.0062 -1.6471
 9593TIP3    H228721   4.703   7.192   4.925 -2.5363  0.1937 -0.2372
 9594TIP3   OH228722   3.625   5.614   5.239 -0.1538  0.5800  0.6315
 9594TIP3    H128723   3.697   5.593   5.298  0.4855  0.9491 -0.0097
 9594TIP3    H228724   3.600   5.530   5.201 -0.1424  0.4362  0.9372
 9595TIP3   OH228725   6.606   7.445   2.531 -0.0723 -0.1089  0.4253
 9595TIP3    H128726   6.537   7.510   2.520 -1.5525 -1.7893 -0.8638
 9595TIP3    H228727   6.561   7.369   2.567  1.2154 -1.0591  0.0751
 9596TIP3   OH228728   2.553   4.357   0.526  0.1972  0.1559  0.7468
 9596TIP3    H128729   2.488   4.372   0.594 -0.2376 -0.6197  0.5229
 9596TIP3    H228730   2.529   4.272   0.489  0.6993  0.3551 -0.0639
 9597TIP3   OH228731   5.405   2.201   5.075 -0.2247  0.1144  0.2693
 9597TIP3    H128732   5.450   2.119   5.097  0.3902  0.7928  1.6311
 9597TIP3    H228733   5.451   2.233   4.998  0.5563 -0.0321  0.6670
 9598TIP3   OH228734   3.560   6.414   0.786 -0.0313 -0.3894 -0.2534
 9598TIP3    H128735   3.578   6.343   0.847  1.5015 -0.5453 -0.8395
 9598TIP3    H228736   3.534   6.370   0.705  0.9096 -0.2958 -0.6139
 9599TIP3   OH228737   2.756   6.708   3.043 -0.3730  0.0542 -0.4065
 9599TIP3    H128738   2.710   6.637   2.999 -0.3446 -0.1045 -0.1780
 9599TIP3    H228739   2.713   6.787   3.011 -0.7958 -0.0923 -0.2011
 9600TIP3   OH228740   0.807   5.199   4.265 -0.0284 -0.5018 -0.8808
 9600TIP3    H128741   0.808   5.284   4.309  0.9264 -0.6573 -0.5626
 9600TIP3    H228742   0.895   5.190   4.228  0.2527 -1.8249  0.0326
 9601TIP3   OH228743   1.767   6.094   4.477 -0.0361 -0.1032  0.2270
 9601TIP3    H128744   1.824   6.170   4.473 -1.2674  0.8326 -0.3081
 9601TIP3    H228745   1.702   6.109   4.408  0.4009 -2.2433 -0.7534
 9602TIP3   OH228746   0.548   7.244   1.711  0.6139 -0.2222  0.5634
 9602TIP3    H128747   0.600   7.185   1.766  0.4673 -0.7486  0.1391
 9602TIP3    H228748   0.541   7.324   1.763  1.9938 -0.0730  0.5573
 9603TIP3   OH228749   6.660   7.859   6.118  0.6221  0.3604 -0.5837
 9603TIP3    H128750   6.721   7.852   6.192  1.4008  0.0029 -1.2372
 9603TIP3    H228751   6.679   7.945   6.080  2.1137 -0.5133 -1.9400
 9604TIP3   OH228752   6.556   4.527   6.597  0.1022 -0.3298  0.8552
 9604TIP3    H128753   6.612   4.528   6.675  0.0169 -0.6251  0.9236
 9604TIP3    H228754   6.547   4.619   6.573  0.0208 -0.2236  1.2730
 9605TIP3   OH228755   6.796   5.642   3.222 -0.7351 -0.5296 -0.4417
 9605TIP3    H128756   6.849   5.703   3.170 -0.6409 -0.3357 -0.1205
 9605TIP3    H228757   6.726   5.696   3.258 -0.8708 -0.6891 -0.4660
 9606TIP3   OH228758   3.021   6.822   1.625  0.5804  0.0418  0.3136
 9606TIP3    H128759   3.116   6.819   1.636  0.6658 -0.2408 -0.4435
 9606TIP3    H228760   3.004   6.772   1.545 -0.0153  1.7911 -0.7158
 9607TIP3   OH228761   4.455   0.430   4.831 -0.2370 -0.1299 -0.2321
 9607TIP3    H128762   4.380   0.424   4.772 -0.4637  1.2870 -0.1298
 9607TIP3    H228763   4.424   0.487   4.902  0.5448 -0.5395  0.4511
 9608TIP3   OH228764   2.753   7.409   4.300 -0.2345  0.1847  0.2971
 9608TIP3    H128765   2.679   7.448   4.347 -1.1261 -2.3218  1.1378
 9608TIP3    H228766   2.826   7.415   4.361 -0.6927 -0.5825  0.9336
 9609TIP3   OH228767   7.008   7.692   0.848 -0.0822  0.0243 -0.3346
 9609TIP3    H128768   6.986   7.716   0.758 -1.1013  1.9754  0.3716
 9609TIP3    H228769   6.923   7.692   0.893  0.4174 -0.9179  0.6382
 9610TIP3   OH228770   7.182   4.991   0.880  0.5502 -0.1151 -0.0722
 9610TIP3    H128771   7.151   4.990   0.789  0.2122  2.2446 -0.0461
 9610TIP3    H228772   7.137   4.918   0.922 -1.7961  0.6741 -1.0517
 9611TIP3   OH228773   7.343   5.434   0.325 -0.1498  0.6371  0.5442
 9611TIP3    H128774   7.381   5.372   0.387  0.1923  0.0231 -0.2555
 9611TIP3    H228775   7.412   5.449   0.261 -0.6786  0.8187  0.0075
 9612TIP3   OH228776   8.070   4.622   2.444 -0.0943 -0.6311 -0.1583
 9612TIP3    H128777   8.058   4.708   2.485  1.6773 -1.4792  2.4347
 9612TIP3    H228778   8.152   4.631   2.395  1.6253 -1.4279  2.3367
 9613TIP3   OH228779   6.764   0.710   4.683  0.2822  1.4527 -0.2293
 9613TIP3    H128780   6.848   0.715   4.637 -0.1712  2.9659 -0.9592
 9613TIP3    H228781   6.781   0.651   4.757  0.9731 -1.2993 -2.4145
 9614TIP3   OH228782   1.075   6.020   6.623 -0.3279  0.6785  0.5686
 9614TIP3    H128783   1.094   6.114   6.634 -0.9815  0.7826  0.8829
 9614TIP3    H228784   1.025   6.016   6.542  0.2460  0.5192  0.2199
 9615TIP3   OH228785   7.658   5.327   6.672  0.1323  0.4328  0.3105
 9615TIP3    H128786   7.572   5.368   6.668  0.2151  0.5778 -0.0008
 9615TIP3    H228787   7.643   5.238   6.639  0.2575  0.7175 -0.5316
 9616TIP3   OH228788   4.227   7.865   5.170 -0.1976  0.4010  0.3503
 9616TIP3    H128789   4.139   7.835   5.195 -0.4036  1.9727  1.6678
 9616TIP3    H228790   4.235   7.839   5.078 -1.5242 -0.9032  0.5473
 9617TIP3   OH228791   5.687   5.541   3.729 -0.6910 -0.3054  0.0477
 9617TIP3    H128792   5.755   5.491   3.775  0.9822  1.3263 -0.5115
 9617TIP3    H228793   5.630   5.475   3.690  1.6482 -1.8289 -1.0261
 9618TIP3   OH228794   7.208   5.810   4.591 -0.4522  0.0022  0.5861
 9618TIP3    H128795   7.116   5.828   4.609 -0.8526 -2.9019  2.0882
 9618TIP3    H228796   7.255   5.848   4.665 -0.8452 -1.2914  1.5460
 9619TIP3   OH228797   3.913   5.882   3.682  0.0977 -0.8952  0.1071
 9619TIP3    H128798   3.846   5.948   3.697  1.9142  1.0305  0.3062
 9619TIP3    H228799   3.898   5.816   3.749 -1.6421 -0.5989  0.0498
 9620TIP3   OH228800   6.513   1.633   0.319  0.1614 -0.1131 -0.2158
 9620TIP3    H128801   6.532   1.562   0.380 -1.0281 -0.8632 -0.6694
 9620TIP3    H228802   6.581   1.627   0.253  0.7354 -0.0901  0.3620
 9621TIP3   OH228803   3.034   4.090   1.080  0.0278  0.0292 -0.2626
 9621TIP3    H128804   3.126   4.067   1.091  0.2645  1.7618  1.9454
 9621TIP3    H228805   3.028   4.118   0.988  1.7897  0.2116 -0.3706
 9622TIP3   OH228806   1.246   0.663   6.366 -0.3291  0.3202 -0.6923
 9622TIP3    H128807   1.238   0.713   6.448  3.1314  2.3105 -1.3783
 9622TIP3    H228808   1.282   0.579   6.393  0.6422  0.9004 -0.0870
 9623TIP3   OH228809   3.980   5.360   1.921 -0.7310  0.0574  0.1009
 9623TIP3    H128810   3.977   5.265   1.929  2.2829 -0.0315  1.9588
 9623TIP3    H228811   3.957   5.392   2.009 -3.6446  1.2519 -0.9636
 9624TIP3   OH228812   7.755   2.398   4.260 -0.2572 -0.6421  0.7344
 9624TIP3    H128813   7.755   2.303   4.272  2.8812 -1.2344 -2.2466
 9624TIP3    H228814   7.716   2.412   4.174 -0.9730  0.8453  1.2595
 9625TIP3   OH228815   7.736   4.902   5.961 -0.2039  0.5546 -0.3097
 9625TIP3    H128816   7.773   4.869   6.042 -2.0635 -0.9919 -0.0210
 9625TIP3    H228817   7.812   4.927   5.907  1.1585 -1.0573  0.7863
 9626TIP3   OH228818   6.835   1.181   6.268  0.1022 -0.3209 -0.1694
 9626TIP3    H128819   6.918   1.185   6.316 -0.5697 -0.6879  1.0544
 9626TIP3    H228820   6.768   1.200   6.333 -0.8576 -1.1187 -0.8905
 9627TIP3   OH228821   0.682   0.664   5.330 -0.1514  0.1023 -0.2794
 9627TIP3    H128822   0.671   0.759   5.336 -1.6827  0.0223 -1.2521
 9627TIP3    H228823   0.691   0.647   5.237  4.4169 -0.3746  0.0149
 9628TIP3   OH228824   5.360   6.596   4.455 -0.3245  0.0818 -0.0919
 9628TIP3    H128825   5.328   6.685   4.446  0.4130  0.5654  1.5559
 9628TIP3    H228826   5.358   6.560   4.367 -1.2028  1.5229 -0.6926
 9629TIP3   OH228827   4.139   1.066   1.133 -0.0347 -0.5039  0.4364
 9629TIP3    H128828   4.072   1.112   1.183 -1.7858 -2.7202  0.3334
 9629TIP3    H228829   4.192   1.022   1.199 -0.6668 -1.2580  0.4580
 9630TIP3   OH228830   0.199   5.363   0.581  0.4159 -0.1548 -0.1894
 9630TIP3    H128831   0.127   5.329   0.529  1.9069 -2.1953 -1.0739
 9630TIP3    H228832   0.237   5.433   0.527  0.1680 -0.2770 -0.5216
 9631TIP3   OH228833   4.985   6.856   4.383  0.5021 -0.6208 -0.3883
 9631TIP3    H128834   5.068   6.811   4.363 -0.1114 -1.7740 -0.4481
 9631TIP3    H228835   4.960   6.821   4.469  1.1305  1.3351  0.6476
 9632TIP3   OH228836   4.558   3.396   2.527 -0.0014  0.5167  0.2696
 9632TIP3    H128837   4.479   3.416   2.477  0.6920  0.9544 -0.6904
 9632TIP3    H228838   4.563   3.466   2.593 -0.3652  0.5390  0.2733
 9633TIP3   OH228839   1.253   5.967   2.661 -0.3887  0.2957  0.2599
 9633TIP3    H128840   1.301   6.048   2.677  0.6169 -0.3714  0.6986
 9633TIP3    H228841   1.224   5.938   2.747 -0.5193  0.0565  0.1364
 9634TIP3   OH228842   5.482   4.360   2.190  0.2061 -0.0069 -0.0508
 9634TIP3    H128843   5.461   4.444   2.232  0.0941 -0.5333  0.9672
 9634TIP3    H228844   5.546   4.383   2.122 -0.9886  1.1215 -0.8431
 9635TIP3   OH228845   1.208   3.595   0.837  0.5043 -0.1295 -0.5052
 9635TIP3    H128846   1.140   3.613   0.902  1.0321  0.5995 -0.1352
 9635TIP3    H228847   1.280   3.557   0.887  0.1696 -1.4453 -0.9823
 9636TIP3   OH228848   2.458   0.964   1.020  0.7600  0.4516 -0.2275
 9636TIP3    H128849   2.515   1.029   0.979 -0.4859  0.9304 -1.2541
 9636TIP3    H228850   2.404   1.014   1.081  1.7532 -0.0799  1.1565
 9637TIP3   OH228851   4.053   7.415   1.331 -0.3563 -0.2538  0.3616
 9637TIP3    H128852   4.107   7.446   1.259 -0.4007 -0.7593  0.1058
 9637TIP3    H228853   4.026   7.327   1.305 -1.8954  0.2466  0.1467
 9638TIP3   OH228854   1.731   1.148   3.641 -0.0854  0.0095 -0.2109
 9638TIP3    H128855   1.805   1.202   3.668  2.2471 -2.1802 -1.7313
 9638TIP3    H228856   1.708   1.180   3.554  0.2731 -0.4497 -0.4766
 9639TIP3   OH228857   3.730   1.782   3.917  0.0094  0.1208  0.1918
 9639TIP3    H128858   3.673   1.756   3.844 -0.9312  0.1153  0.9054
 9639TIP3    H228859   3.703   1.871   3.938  0.3021  0.1401  0.4922
 9640TIP3   OH228860   7.184   1.142   5.744  0.4268  0.2603  0.1404
 9640TIP3    H128861   7.201   1.144   5.838  2.8698  0.1304 -0.2382
 9640TIP3    H228862   7.156   1.052   5.727  0.2928  0.1968  0.6868
 9641TIP3   OH228863   0.539   0.624   0.795 -0.2091  0.3600  0.5057
 9641TIP3    H128864   0.590   0.553   0.834  0.4778  0.3884 -0.3276
 9641TIP3    H228865   0.599   0.668   0.735 -1.1950  0.4043 -0.4892
 9642TIP3   OH228866   7.548   2.708   6.563 -0.5684 -0.3653  0.5085
 9642TIP3    H128867   7.618   2.653   6.598 -1.5346 -2.5788 -0.7931
 9642TIP3    H228868   7.592   2.785   6.529  1.2146 -1.5451  0.0121
 9643TIP3   OH228869   6.594   2.773   1.567 -0.1462  0.0024  0.6110
 9643TIP3    H128870   6.549   2.690   1.579 -0.5956  0.3566  1.4444
 9643TIP3    H228871   6.536   2.825   1.511 -0.1207 -0.0503  0.5363
 9644TIP3   OH228872   3.003   4.829   1.783  0.4582  0.3142 -0.0372
 9644TIP3    H128873   2.961   4.746   1.804  2.5866 -0.5226  1.2170
 9644TIP3    H228874   2.936   4.895   1.800 -1.0665 -1.0818 -0.4185
 9645TIP3   OH228875   7.932   0.361   1.474  0.1428 -0.1190  0.2256
 9645TIP3    H128876   7.993   0.342   1.403 -1.7019 -3.1499 -0.7350
 9645TIP3    H228877   7.863   0.412   1.432  0.0924 -0.0700  0.3688
 9646TIP3   OH228878   0.264   0.671   6.433 -0.2491 -0.1638  0.0068
 9646TIP3    H128879   0.295   0.617   6.506  0.3168  0.6499  0.3780
 9646TIP3    H228880   0.171   0.649   6.425 -0.3309 -0.2152  1.0164
 9647TIP3   OH228881   1.249   4.104   0.741 -0.0251  0.1532 -0.4919
 9647TIP3    H128882   1.218   4.151   0.819  0.3690  0.8583 -0.7475
 9647TIP3    H228883   1.225   4.013   0.757  0.7462  0.1469  0.8212
 9648TIP3   OH228884   1.070   2.016   6.696  0.4783 -0.3670 -0.2711
 9648TIP3    H128885   1.085   2.098   6.650  0.3588 -0.4488 -0.4582
 9648TIP3    H228886   1.119   1.951   6.646 -0.2417 -0.5801 -0.7060
 9649TIP3   OH228887   3.618   5.489   3.508  0.0618  0.0049 -0.1127
 9649TIP3    H128888   3.618   5.502   3.414 -0.5288 -1.4672 -0.3461
 9649TIP3    H228889   3.662   5.405   3.521 -0.0611  0.0820  0.9070
 9650TIP3   OH228890   3.676   1.550   0.026 -0.6053  0.4370  0.6007
 9650TIP3    H128891   3.620   1.473   0.035  1.1727 -0.8936  0.7339
 9650TIP3    H228892   3.735   1.528  -0.046  0.3916  1.3805  1.1074
 9651TIP3   OH228893   4.075   4.069   0.834 -0.2462  0.5183 -0.4411
 9651TIP3    H128894   4.006   4.063   0.901  1.0899 -1.5528  0.8635
 9651TIP3    H228895   4.064   4.156   0.796 -1.2772  1.6887  2.2743
 9652TIP3   OH228896   2.578   4.857   3.394 -0.3977 -0.2585 -0.0913
 9652TIP3    H128897   2.576   4.876   3.488  0.4638  0.1203 -0.1403
 9652TIP3    H228898   2.558   4.764   3.388 -1.2726 -0.1160  0.4053
 9653TIP3   OH228899   8.297   7.712   6.572 -0.1602 -0.0881  0.3829
 9653TIP3    H128900   8.245   7.789   6.552 -1.9270 -1.1533  0.6689
 9653TIP3    H228901   8.374   7.746   6.619 -0.7649  1.4989  0.2665
 9654TIP3   OH228902   4.540   2.430   5.011  0.8092 -0.2173 -0.0407
 9654TIP3    H128903   4.556   2.385   5.094  1.9587 -2.3994 -1.3491
 9654TIP3    H228904   4.518   2.361   4.949  2.7524  0.9160 -2.2078
 9655TIP3   OH228905   4.956   2.285   6.694 -0.2735  0.6512 -0.1604
 9655TIP3    H128906   4.921   2.244   6.773 -0.9336  0.8227 -0.3586
 9655TIP3    H228907   4.878   2.308   6.642  0.1066  1.5133 -0.3699
 9656TIP3   OH228908   0.160   0.141   5.689  0.0092 -0.3971 -0.0437
 9656TIP3    H128909   0.069   0.123   5.712 -0.0033  0.0595  0.2914
 9656TIP3    H228910   0.201   0.167   5.772  0.1404  0.5840 -0.3960
 9657TIP3   OH228911   5.032   1.560   2.380  0.0219  0.2416 -0.6573
 9657TIP3    H128912   5.054   1.650   2.358  4.5317 -0.8588 -1.6625
 9657TIP3    H228913   5.021   1.516   2.296 -2.7387 -0.1878 -0.1829
 9658TIP3   OH228914   5.768   1.846   0.456 -0.0515 -0.5008  0.1459
 9658TIP3    H128915   5.857   1.811   0.459  0.6359  1.0626 -0.5591
 9658TIP3    H228916   5.740   1.850   0.547  1.5685  1.2357  0.6234
 9659TIP3   OH228917   8.027   1.178   0.265 -0.4010  0.4177 -0.0172
 9659TIP3    H128918   7.942   1.220   0.249 -1.0008 -0.7842 -0.0612
 9659TIP3    H228919   8.020   1.093   0.223  0.3748 -0.1978  1.0505
 9660TIP3   OH228920   3.954   6.357   0.938 -0.0040 -0.2031 -0.0403
 9660TIP3    H128921   3.932   6.441   0.976  0.0625 -0.3914  0.4205
 9660TIP3    H228922   3.963   6.298   1.013 -0.0586 -0.6207 -0.3560
 9661TIP3   OH228923   2.227   0.303   3.398  0.2280  0.0716  0.0420
 9661TIP3    H128924   2.293   0.343   3.342  1.8807  0.5653  2.2422
 9661TIP3    H228925   2.154   0.365   3.397  1.1259  1.1543  0.2009
 9662TIP3   OH228926   3.309   4.342   2.443 -0.3066 -0.2372  0.3349
 9662TIP3    H128927   3.277   4.255   2.420  0.2563 -0.2116 -0.6288
 9662TIP3    H228928   3.337   4.334   2.534  0.7392 -1.3819 -0.0488
 9663TIP3   OH228929   6.832   1.322   0.907  0.0447 -0.1519  0.1019
 9663TIP3    H128930   6.787   1.238   0.920 -1.2144  0.4944  0.1585
 9663TIP3    H228931   6.857   1.350   0.995 -1.6379  0.6053  0.3894
 9664TIP3   OH228932   1.231   1.818   3.080  0.5777  0.8739 -0.4712
 9664TIP3    H128933   1.199   1.773   3.158 -0.6562 -0.0701 -1.4867
 9664TIP3    H228934   1.215   1.756   3.009  1.4985  1.7987 -1.5071
 9665TIP3   OH228935   0.821   5.705   3.543 -0.7619 -0.3516  0.5794
 9665TIP3    H128936   0.788   5.785   3.585 -3.6023 -1.3310  0.4215
 9665TIP3    H228937   0.791   5.634   3.601  1.1376 -1.3964  0.3750
 9666TIP3   OH228938   2.623   0.450   5.238  0.4892  0.6164 -0.3528
 9666TIP3    H128939   2.591   0.409   5.319 -0.1517 -2.9040 -2.1849
 9666TIP3    H228940   2.685   0.517   5.268 -0.0212 -0.2328  3.0340
 9667TIP3   OH228941   1.249   2.401   4.977 -0.6305 -0.2986 -0.4584
 9667TIP3    H128942   1.284   2.429   5.062  0.9172  1.9570 -1.7366
 9667TIP3    H228943   1.326   2.370   4.929 -1.3445 -0.7691 -1.3077
 9668TIP3   OH228944   0.290   4.107   4.795 -0.1488  0.0233  0.1676
 9668TIP3    H128945   0.290   4.177   4.731  1.3151  0.8478  0.9969
 9668TIP3    H228946   0.374   4.062   4.782 -0.3498 -0.5382  0.7207
 9669TIP3   OH228947   0.334   3.768   5.274  0.2591 -0.4062 -0.1820
 9669TIP3    H128948   0.295   3.681   5.262  1.7335 -0.9714 -1.0516
 9669TIP3    H228949   0.380   3.762   5.357 -0.1509 -0.2423  0.0625
 9670TIP3   OH228950   6.478   4.519   2.080  0.2128 -0.4508  0.3144
 9670TIP3    H128951   6.562   4.523   2.126  0.3780 -0.5249  0.0185
 9670TIP3    H228952   6.500   4.530   1.988 -0.2812  1.5509  0.3709
 9671TIP3   OH228953   7.283   2.572   1.211  0.2031 -0.2581  0.1699
 9671TIP3    H128954   7.309   2.529   1.292  1.7928 -0.3186 -0.3395
 9671TIP3    H228955   7.285   2.666   1.232  0.2606 -0.2864  0.2896
 9672TIP3   OH228956   4.058   7.007   1.487  0.1612 -0.2045 -0.2515
 9672TIP3    H128957   3.967   6.978   1.497  0.4107 -0.7105  0.7172
 9672TIP3    H228958   4.091   6.957   1.412 -0.0182 -0.9109  0.1311
 9673TIP3   OH228959   1.330   6.882   5.454 -0.1892  1.0426 -0.2541
 9673TIP3    H128960   1.278   6.836   5.519 -2.7536  2.5636 -1.0315
 9673TIP3    H228961   1.339   6.820   5.382  3.0894 -0.8220  1.5747
 9674TIP3   OH228962   5.084   1.660   3.327 -0.3604  0.1385  0.5027
 9674TIP3    H128963   5.095   1.713   3.249 -0.6202  0.0755  0.4216
 9674TIP3    H228964   4.995   1.626   3.320  0.5386 -2.2155 -0.6463
 9675TIP3   OH228965   7.723   5.647   2.190 -0.5933  0.0375  0.2091
 9675TIP3    H128966   7.742   5.617   2.280 -1.1372 -0.2176  0.2448
 9675TIP3    H228967   7.630   5.630   2.179 -0.9143  1.6467  0.1881
 9676TIP3   OH228968   6.839   6.292   4.553  0.0935 -0.3172  0.2357
 9676TIP3    H128969   6.823   6.378   4.516 -1.8508 -0.1548  1.3004
 9676TIP3    H228970   6.913   6.304   4.613 -1.3564  1.1334  1.8474
 9677TIP3   OH228971   1.979   7.597   0.024 -0.0111  0.1681 -0.0591
 9677TIP3    H128972   1.912   7.665   0.020  0.7492  1.0160  0.9791
 9677TIP3    H228973   1.961   7.550   0.106  1.1668  1.0111  0.7385
 9678TIP3   OH228974   5.852   0.687   5.096 -0.2538  0.5623 -0.3404
 9678TIP3    H128975   5.846   0.769   5.144 -0.0324  0.5366 -0.2670
 9678TIP3    H228976   5.861   0.713   5.004 -0.0247  0.6246 -0.3012
 9679TIP3   OH228977   3.424   1.826   5.434  0.2401 -0.4026 -0.0631
 9679TIP3    H128978   3.469   1.886   5.494  0.7358 -0.6176 -0.2179
 9679TIP3    H228979   3.477   1.746   5.435 -0.5059 -0.9062  0.2681
 9680TIP3   OH228980   1.893   5.748   3.190  0.8002 -0.2161  0.7349
 9680TIP3    H128981   1.901   5.655   3.212  1.6056 -0.8445 -1.7901
 9680TIP3    H228982   1.981   5.774   3.164  0.9378  1.7647  2.8974
 9681TIP3   OH228983   5.651   4.502   2.452 -0.2199  0.2217  0.3242
 9681TIP3    H128984   5.674   4.411   2.432 -1.2031 -0.0664  0.4672
 9681TIP3    H228985   5.719   4.531   2.512 -0.1019 -0.5436  0.5789
 9682TIP3   OH228986   2.038   4.006   6.747 -0.2409  0.0066 -0.2407
 9682TIP3    H128987   1.974   3.988   6.815 -0.9738  0.1580 -0.8802
 9682TIP3    H228988   2.104   4.061   6.790  0.2834 -1.4099  0.8291
 9683TIP3   OH228989   7.090   4.548   0.884  0.4020 -0.1702 -0.7206
 9683TIP3    H128990   7.112   4.578   0.973 -2.0199  0.4982 -0.2970
 9683TIP3    H228991   7.114   4.455   0.885  1.8679  0.1771  0.0939
 9684TIP3   OH228992   2.886   0.213   3.264 -0.3535 -0.4075  0.2745
 9684TIP3    H128993   2.825   0.176   3.328 -0.8083 -0.3886 -0.1479
 9684TIP3    H228994   2.867   0.167   3.182 -0.4231  0.2446 -0.0830
 9685TIP3   OH228995   2.630   0.040   0.239 -0.3818 -0.0001  0.0559
 9685TIP3    H128996   2.673   0.088   0.169  0.0981  1.2948  1.1844
 9685TIP3    H228997   2.681  -0.040   0.249 -1.8944 -1.4649 -2.6661
 9686TIP3   OH228998   0.539   6.088   0.310  0.3512 -0.2152  0.6385
 9686TIP3    H128999   0.586   6.008   0.334  0.1426 -0.4141  0.3803
 9686TIP3    H229000   0.513   6.074   0.219  1.3750  0.6475  0.1889
 9687TIP3   OH229001   0.696   6.301   0.028 -0.7781  0.8900  0.1171
 9687TIP3    H129002   0.619   6.354   0.049 -0.6362  1.3035 -0.3748
 9687TIP3    H229003   0.663   6.211   0.024 -1.2578  1.0757 -0.1893
 9688TIP3   OH229004   2.482   1.957   3.178 -0.0006 -0.5996  0.1009
 9688TIP3    H129005   2.456   1.872   3.142  0.9083 -1.2659  0.9622
 9688TIP3    H229006   2.445   2.021   3.118  0.4757 -1.6385 -1.3364
 9689TIP3   OH229007   3.126   2.625   5.800  0.1024  0.1439  0.2667
 9689TIP3    H129008   3.185   2.591   5.867 -1.8351  0.7029  2.3873
 9689TIP3    H229009   3.044   2.580   5.816 -1.2873  2.5093  0.3302
 9690TIP3   OH229010   7.821   2.550   5.851  0.7271  0.3793 -0.4101
 9690TIP3    H129011   7.827   2.483   5.782  1.6157 -0.9058  0.8417
 9690TIP3    H229012   7.912   2.575   5.867  0.6595 -0.2400  1.0932
 9691TIP3   OH229013   7.983   5.572   3.342  0.0498  0.8375 -0.2322
 9691TIP3    H129014   7.894   5.584   3.376 -0.4151 -0.3939 -0.9129
 9691TIP3    H229015   8.000   5.478   3.356  1.8120  1.3179  1.1765
 9692TIP3   OH229016   6.836   3.135   1.212  0.3057  0.4215  0.0850
 9692TIP3    H129017   6.917   3.183   1.196  0.0527  0.7778 -0.1397
 9692TIP3    H229018   6.822   3.143   1.307 -1.5066  3.7409 -0.3110
 9693TIP3   OH229019   4.032   1.919   1.061  0.6518  0.4987 -0.4107
 9693TIP3    H129020   4.065   1.987   1.120 -0.5550  3.1411 -2.5186
 9693TIP3    H229021   4.111   1.877   1.027  1.3914 -0.6717  2.4377
 9694TIP3   OH229022   2.774   3.961   2.919 -0.0423  0.2250  0.5181
 9694TIP3    H129023   2.785   4.016   2.996 -0.8723  3.2582 -1.3332
 9694TIP3    H229024   2.685   3.926   2.927  0.3328 -0.5361  1.5077
 9695TIP3   OH229025   2.797   1.303   2.340  0.5666  0.2386 -0.2503
 9695TIP3    H129026   2.857   1.359   2.391  1.6891 -0.9167 -0.2441
 9695TIP3    H229027   2.807   1.216   2.379 -0.0591 -0.2652 -1.1798
 9696TIP3   OH229028   3.433   1.696   2.873  0.2104 -0.2582 -0.3072
 9696TIP3    H129029   3.455   1.603   2.865  1.4322 -0.0213  0.1446
 9696TIP3    H229030   3.369   1.712   2.803  0.7770 -1.1929 -1.0523
 9697TIP3   OH229031   6.064   5.099   2.259 -0.2309  0.5078  0.1505
 9697TIP3    H129032   6.065   5.149   2.341  1.7635  0.9692 -0.0995
 9697TIP3    H229033   6.053   5.166   2.191  1.2144  0.5182 -0.1094
 9698TIP3   OH229034   0.485   7.510   0.563 -0.0075  0.0247  0.8204
 9698TIP3    H129035   0.507   7.601   0.544  1.3972 -0.4930 -0.2025
 9698TIP3    H229036   0.525   7.492   0.648  1.5174 -0.1886  0.0946
 9699TIP3   OH229037   0.744   5.847   2.564  0.5625  0.0494  0.0580
 9699TIP3    H129038   0.829   5.885   2.546  1.2104 -0.7181  1.3707
 9699TIP3    H229039   0.748   5.759   2.525 -0.2314  0.5779 -1.2848
 9700TIP3   OH229040   6.484   0.279   6.536  0.0544  0.0180 -0.8276
 9700TIP3    H129041   6.560   0.225   6.515 -0.9588 -1.3081 -1.1878
 9700TIP3    H229042   6.416   0.217   6.559 -0.8929  1.1938 -0.3520
 9701TIP3   OH229043   1.745   0.619   4.143  0.3518  0.2819  0.1510
 9701TIP3    H129044   1.742   0.696   4.200  1.6976  0.0065  0.6339
 9701TIP3    H229045   1.675   0.634   4.079 -0.6098  1.0310  1.3167
 9702TIP3   OH229046   4.027   5.113   6.371 -0.6028 -0.0763 -0.0953
 9702TIP3    H129047   3.995   5.193   6.329 -1.7064  0.1150  1.0385
 9702TIP3    H229048   3.969   5.044   6.339  1.6166 -0.8989 -2.7238
 9703TIP3   OH229049   3.209   1.319   3.243  0.1582  0.0927  0.0579
 9703TIP3    H129050   3.188   1.353   3.157 -0.0655 -0.5509 -0.1468
 9703TIP3    H229051   3.304   1.307   3.242 -0.0862 -2.4899 -1.1007
 9704TIP3   OH229052   3.159   4.039   0.585 -0.1265  0.1578  0.1971
 9704TIP3    H129053   3.189   4.128   0.564  1.1099 -0.2152  0.3168
 9704TIP3    H229054   3.111   4.011   0.507  2.3735 -0.3169 -1.2607
 9705TIP3   OH229055   7.109   1.548   3.549  0.0656  0.2463  0.5670
 9705TIP3    H129056   7.086   1.492   3.475 -0.9127  1.5829 -0.1898
 9705TIP3    H229057   7.093   1.493   3.626  0.8615 -1.0867 -0.1684
 9706TIP3   OH229058   7.694   7.006   6.579  0.3579  0.6656  0.4674
 9706TIP3    H129059   7.750   6.985   6.654  1.1360 -0.4286 -0.3754
 9706TIP3    H229060   7.664   6.920   6.548  2.6493  0.7124 -2.3931
 9707TIP3   OH229061   2.228   4.206   0.793  0.2168 -0.0052 -0.3464
 9707TIP3    H129062   2.288   4.279   0.779  1.6325 -1.0699  0.0029
 9707TIP3    H229063   2.214   4.203   0.887 -0.0023 -0.0589 -0.3785
 9708TIP3   OH229064   7.019   0.272   2.618  0.3415  0.5765 -0.6979
 9708TIP3    H129065   7.075   0.267   2.541  0.7662  1.5972 -0.4690
 9708TIP3    H229066   7.080   0.286   2.691 -0.2233  2.3724 -0.5240
 9709TIP3   OH229067   4.480   3.521   1.236 -0.0325 -0.4067 -0.3017
 9709TIP3    H129068   4.504   3.438   1.194  1.4595 -0.1097 -0.0807
 9709TIP3    H229069   4.548   3.583   1.208 -1.2499  0.8215 -0.6471
 9710TIP3   OH229070   0.522   2.999   4.058 -0.5717  0.2158 -0.2667
 9710TIP3    H129071   0.507   3.045   4.141 -2.2660  0.5730 -0.7328
 9710TIP3    H229072   0.437   2.998   4.016 -0.0527 -1.3128 -1.3428
 9711TIP3   OH229073   0.955   4.318   5.747 -0.3191 -0.6443 -0.0299
 9711TIP3    H129074   0.956   4.249   5.813  0.4543 -0.2513  0.3840
 9711TIP3    H229075   1.022   4.380   5.777  1.0219 -1.1066 -1.8634
 9712TIP3   OH229076   2.997   0.920   5.160 -0.0960  0.2941 -0.1306
 9712TIP3    H129077   3.045   0.928   5.078 -1.4809 -0.3074 -1.0322
 9712TIP3    H229078   2.909   0.951   5.139 -0.5550 -0.1594  1.0470
 9713TIP3   OH229079   2.965   2.154   4.889  0.4528  0.1948 -0.0481
 9713TIP3    H129080   2.997   2.180   4.975  1.8467  0.8814 -0.7455
 9713TIP3    H229081   2.977   2.059   4.887  1.2119  0.2752  0.2216
 9714TIP3   OH229082   8.106   4.689   1.130  0.1662  0.9917  0.4240
 9714TIP3    H129083   8.091   4.610   1.182  0.8499 -0.4278 -1.4007
 9714TIP3    H229084   8.049   4.678   1.054 -1.2664  3.2902  1.0737
 9715TIP3   OH229085   4.510   1.532   4.559  0.0422  0.6876 -0.2765
 9715TIP3    H129086   4.534   1.479   4.483 -2.5292 -4.1904  1.9308
 9715TIP3    H229087   4.436   1.585   4.529  0.0839  0.0461 -1.5685
 9716TIP3   OH229088   6.658   0.618   2.435  0.0668 -0.4559  0.4387
 9716TIP3    H129089   6.707   0.596   2.514  0.3153 -0.8794  0.1709
 9716TIP3    H229090   6.715   0.590   2.363 -0.7925 -1.4529  0.1288
 9717TIP3   OH229091   0.344   6.452   5.944 -0.1292  0.5649 -0.0360
 9717TIP3    H129092   0.263   6.417   5.982  0.4668  0.9469  1.6702
 9717TIP3    H229093   0.413   6.423   6.003  0.5941  3.0208  0.4399
 9718TIP3   OH229094   5.184   0.650   5.011  0.1569 -0.1062  0.0939
 9718TIP3    H129095   5.174   0.738   5.048 -0.1035  0.3790 -1.0768
 9718TIP3    H229096   5.275   0.627   5.030  0.6378  0.9905 -0.7487
 9719TIP3   OH229097   7.139   1.041   0.927  0.2080 -0.2454  0.3517
 9719TIP3    H129098   7.083   1.040   0.849  1.8133  1.6346 -0.9478
 9719TIP3    H229099   7.079   1.029   1.000 -1.6566  0.0352 -1.0520
 9720TIP3   OH229100   3.821   0.300   6.690  0.1243  0.1084  0.7295
 9720TIP3    H129101   3.902   0.257   6.664 -0.5324 -1.0251  0.4677
 9720TIP3    H229102   3.847   0.363   6.757  1.3417  0.4990 -0.0842
 9721TIP3   OH229103   3.388   4.040   3.446 -0.1185  0.3708  0.7443
 9721TIP3    H129104   3.353   4.050   3.358  1.7058  1.4195  0.0768
 9721TIP3    H229105   3.336   4.098   3.500  0.1061  1.3691 -0.0815
 9722TIP3   OH229106   7.296   2.818   1.310 -0.1035  0.5743 -0.1287
 9722TIP3    H129107   7.363   2.831   1.376 -0.1497 -2.7498  0.7345
 9722TIP3    H229108   7.214   2.839   1.354 -0.0591 -0.8418  0.6873
 9723TIP3   OH229109   1.135   1.883   0.074 -0.1580  0.1935  0.0467
 9723TIP3    H129110   1.054   1.835   0.090  0.4757 -1.5882 -1.7203
 9723TIP3    H229111   1.171   1.899   0.161 -1.6500 -0.2923  0.7874
 9724TIP3   OH229112   2.977   5.860   5.795  0.2757  0.0714 -0.2069
 9724TIP3    H129113   2.892   5.887   5.831  0.0588  1.7848 -1.8558
 9724TIP3    H229114   3.027   5.830   5.872 -0.5070  2.5662  1.3930
 9725TIP3   OH229115   2.103   3.477   2.086  0.1105 -0.0716 -0.2401
 9725TIP3    H129116   2.154   3.527   2.150 -1.0495  0.0625  0.6277
 9725TIP3    H229117   2.055   3.413   2.139  1.4133 -2.0315 -1.3013
 9726TIP3   OH229118   7.479   1.009   2.136 -0.0612  0.0108  0.1979
 9726TIP3    H129119   7.483   1.104   2.144  0.6469 -0.1014  1.7116
 9726TIP3    H229120   7.548   0.986   2.074 -1.2367  0.5481 -1.3823
 9727TIP3   OH229121   4.253   5.373   2.329 -0.2803 -0.0654  0.1443
 9727TIP3    H129122   4.285   5.459   2.302 -3.2168  0.9574 -0.4666
 9727TIP3    H229123   4.327   5.333   2.376  2.3727  1.3153 -2.4985
 9728TIP3   OH229124   6.778   1.694   2.659 -0.2741 -0.3322 -0.1346
 9728TIP3    H129125   6.855   1.673   2.712  0.0867  0.5512 -0.2899
 9728TIP3    H229126   6.797   1.660   2.572 -0.0357 -0.0638 -0.1865
 9729TIP3   OH229127   7.227   2.217   1.093 -0.8345  0.0971 -0.2393
 9729TIP3    H129128   7.177   2.140   1.068 -0.3047 -0.2735 -0.1540
 9729TIP3    H229129   7.184   2.289   1.045 -0.5233 -0.4312 -1.3545
 9730TIP3   OH229130   5.121   5.525   4.254  0.0307 -0.1434  0.2825
 9730TIP3    H129131   5.138   5.597   4.315 -2.3913  1.3220 -0.6437
 9730TIP3    H229132   5.208   5.487   4.237  0.9702  0.2153  3.5335
 9731TIP3   OH229133   3.193   3.658   1.793 -0.1459 -0.4510  0.0799
 9731TIP3    H129134   3.116   3.621   1.836 -0.9464 -1.1194 -1.8525
 9731TIP3    H229135   3.216   3.595   1.725  1.9913 -0.1437  0.4482
 9732TIP3   OH229136   3.412   6.916   2.005  0.0169  0.0636 -0.2342
 9732TIP3    H129137   3.488   6.880   2.051  0.4176  1.3099  0.1194
 9732TIP3    H229138   3.396   7.001   2.047 -1.0040  0.2291 -0.9165
 9733TIP3   OH229139   2.984   7.895   5.732 -0.2457  0.2012  0.2845
 9733TIP3    H129140   2.950   7.833   5.668 -0.5595  1.4731 -0.8049
 9733TIP3    H229141   3.069   7.923   5.697 -0.3391  0.7765  0.4997
 9734TIP3   OH229142   5.257   3.065   6.209 -0.7612  0.2306 -0.4923
 9734TIP3    H129143   5.185   3.065   6.146 -1.0150 -1.0913 -0.2182
 9734TIP3    H229144   5.238   3.140   6.266 -0.7226  1.2195 -1.7365
 9735TIP3   OH229145   1.704   3.777   4.299  0.5293  0.1567 -0.3502
 9735TIP3    H129146   1.683   3.710   4.234  0.4891  0.3718 -0.5606
 9735TIP3    H229147   1.738   3.851   4.247 -0.6925  0.8166 -0.2415
 9736TIP3   OH229148   5.373   0.836   2.147 -0.2089 -0.0962  0.3019
 9736TIP3    H129149   5.323   0.803   2.222 -0.3955 -0.0747  0.1856
 9736TIP3    H229150   5.436   0.766   2.128 -1.1026 -0.7179 -0.4263
 9737TIP3   OH229151   2.308   3.910   1.930  0.2137  0.2103 -0.2179
 9737TIP3    H129152   2.213   3.902   1.940 -0.1203  2.0681 -1.4669
 9737TIP3    H229153   2.321   3.926   1.837  1.7521  0.1546 -0.0305
 9738TIP3   OH229154   1.316   5.810   6.635  0.1422 -0.1414 -0.0000
 9738TIP3    H129155   1.315   5.838   6.726  0.5592  2.2486 -0.6786
 9738TIP3    H229156   1.235   5.843   6.598  1.1342  1.1788 -1.0891
 9739TIP3   OH229157   1.214   4.432   5.491  0.2251 -0.8130 -0.1872
 9739TIP3    H129158   1.223   4.364   5.424  1.4754 -0.1017 -0.7903
 9739TIP3    H229159   1.298   4.429   5.538  0.7380  0.9868 -0.9207
 9740TIP3   OH229160   1.973   5.957   4.910 -0.2477  0.9414 -0.3605
 9740TIP3    H129161   2.016   5.872   4.912 -0.0507  1.0174 -1.2756
 9740TIP3    H229162   2.033   6.015   4.959 -1.3686  0.1409  2.1195
 9741TIP3   OH229163   7.009   4.449   5.645 -0.0875 -0.4291 -0.1468
 9741TIP3    H129164   7.021   4.357   5.665 -0.2171 -0.4256 -0.0561
 9741TIP3    H229165   6.989   4.451   5.551 -0.1514 -0.4973 -0.1340
 9742TIP3   OH229166   5.305   0.188   1.080 -0.2291  0.2754 -0.2382
 9742TIP3    H129167   5.276   0.098   1.066  0.6111  0.1983 -1.6431
 9742TIP3    H229168   5.225   0.240   1.081 -0.5847 -0.1001 -2.6615
 9743TIP3   OH229169   4.572   5.700   5.172  0.7193  0.0860  0.0687
 9743TIP3    H129170   4.550   5.607   5.182  3.2710 -0.4354  1.6572
 9743TIP3    H229171   4.652   5.701   5.119  0.0374  1.5039 -1.0071
 9744TIP3   OH229172   5.216   1.519   2.559  0.8841 -0.2565  0.7432
 9744TIP3    H129173   5.175   1.449   2.609 -0.4276  1.3418  2.0224
 9744TIP3    H229174   5.175   1.515   2.473  0.3349 -0.6304  1.0211
 9745TIP3   OH229175   2.669   0.924   6.841 -0.0603  0.5172  0.1537
 9745TIP3    H129176   2.707   0.935   6.754  0.6172 -0.8204  0.2677
 9745TIP3    H229177   2.743   0.921   6.901 -0.5245  1.5255  0.8165
 9746TIP3   OH229178   3.928   5.405   3.152  0.7907 -0.1931  0.1533
 9746TIP3    H129179   3.950   5.480   3.206  0.4095 -1.4726  2.1923
 9746TIP3    H229180   3.887   5.343   3.212 -1.7211 -0.8359 -2.0089
 9747TIP3   OH229181   5.612   7.148   0.929  0.1323 -0.5298  0.5442
 9747TIP3    H129182   5.525   7.172   0.896  1.7313  1.7806 -2.4522
 9747TIP3    H229183   5.634   7.066   0.885  0.7554  0.6418 -1.4324
 9748TIP3   OH229184   4.788   5.290   3.447 -0.0180 -0.0743  0.7832
 9748TIP3    H129185   4.855   5.355   3.469  0.4496 -0.1277 -0.4076
 9748TIP3    H229186   4.733   5.334   3.382  0.5843 -0.9983 -0.3963
 9749TIP3   OH229187   2.992   2.678   3.418  0.0963  0.2110  0.0057
 9749TIP3    H129188   2.916   2.725   3.453 -0.1617  0.4325 -0.8171
 9749TIP3    H229189   3.062   2.743   3.417  0.1600  0.1483  0.2897
 9750TIP3   OH229190   3.739   5.083   3.121  0.0218  0.5018 -0.5111
 9750TIP3    H129191   3.762   5.124   3.204  2.0226 -0.4707 -0.5171
 9750TIP3    H229192   3.676   5.015   3.144 -1.5216  1.9712 -0.1983
 9751TIP3   OH229193   5.748   0.202   4.065  0.3050  0.4944  0.0530
 9751TIP3    H129194   5.755   0.127   4.124  1.1156  1.2206  0.9114
 9751TIP3    H229195   5.658   0.232   4.074  0.6845  1.2121  1.7176
 9752TIP3   OH229196   1.200   7.395   2.560  0.1805 -0.1229 -0.0940
 9752TIP3    H129197   1.124   7.399   2.503  1.2977  1.2029 -1.6031
 9752TIP3    H229198   1.263   7.341   2.512  1.0466  0.8113 -0.0536
 9753TIP3   OH229199   4.606   7.079   0.450 -0.2049 -0.1062  0.2869
 9753TIP3    H129200   4.674   7.022   0.485 -0.1228  0.7829  1.6570
 9753TIP3    H229201   4.649   7.126   0.378  0.1471 -0.7003  0.1031
 9754TIP3   OH229202   1.020   0.650   1.435  0.2787  0.2629  0.2680
 9754TIP3    H129203   1.066   0.731   1.412  0.8644  0.2210  1.2586
 9754TIP3    H229204   1.019   0.649   1.531  1.5042 -1.5760  0.3156
 9755TIP3   OH229205   0.659   0.572   1.604 -0.1117  0.1597  0.2126
 9755TIP3    H129206   0.735   0.553   1.659  0.0992 -0.5487 -0.3112
 9755TIP3    H229207   0.673   0.662   1.574  0.3359  0.1584  0.4073
 9756TIP3   OH229208   0.150   4.691   1.088  0.2989 -0.2533 -0.5337
 9756TIP3    H129209   0.149   4.657   0.998  1.8826 -2.0089  0.0418
 9756TIP3    H229210   0.239   4.726   1.098 -0.7921  2.8501 -0.5832
 9757TIP3   OH229211   5.020   3.443   1.834  0.4285 -0.2568 -0.7204
 9757TIP3    H129212   4.967   3.508   1.788  1.1913  0.7637 -0.1981
 9757TIP3    H229213   5.052   3.490   1.912  0.1027 -1.5810  0.2487
 9758TIP3   OH229214   1.984   0.690   1.410  0.3742  0.1300  0.1220
 9758TIP3    H129215   1.927   0.752   1.456 -0.3812  0.7952 -1.6209
 9758TIP3    H229216   1.944   0.681   1.323  0.9119 -2.2185  0.0647
 9759TIP3   OH229217   5.020   3.663   2.007 -0.3938 -0.3412  0.2031
 9759TIP3    H129218   4.963   3.626   2.074 -0.5214 -0.0180  0.2780
 9759TIP3    H229219   4.961   3.703   1.944 -0.2906 -1.1467 -0.4095
 9760TIP3   OH229220   5.398   3.123   2.327 -0.6544 -0.1633 -0.0904
 9760TIP3    H129221   5.446   3.180   2.268  0.3257 -1.2815 -0.4046
 9760TIP3    H229222   5.367   3.181   2.397 -0.8549  0.9697 -1.0871
 9761TIP3   OH229223   4.604   1.779   5.868 -0.7611  0.2992  0.4164
 9761TIP3    H129224   4.654   1.830   5.804 -0.0100  0.0389  0.7827
 9761TIP3    H229225   4.514   1.811   5.860 -0.5443  0.7507 -0.2805
 9762TIP3   OH229226   1.926   0.859   5.163 -0.7869 -0.1768  0.4154
 9762TIP3    H129227   1.848   0.907   5.192 -0.3555  0.0358  1.2661
 9762TIP3    H229228   1.944   0.892   5.075 -2.1609 -0.8674 -0.1548
 9763TIP3   OH229229   4.858   0.385   6.244  0.3478  0.1368  0.5175
 9763TIP3    H129230   4.838   0.382   6.338  1.7023  1.1636  0.8726
 9763TIP3    H229231   4.793   0.445   6.208  0.3148  0.3646  0.9457
 9764TIP3   OH229232   7.438   6.210   3.917  0.1283 -0.4536 -0.6085
 9764TIP3    H129233   7.348   6.242   3.927 -0.6113 -2.6147  0.3143
 9764TIP3    H229234   7.486   6.284   3.881 -1.9918  0.8108 -1.0147
 9765TIP3   OH229235   2.395   3.959   4.610 -0.0912 -0.8078 -0.1720
 9765TIP3    H129236   2.466   3.913   4.655 -1.6380 -0.3549  3.0549
 9765TIP3    H229237   2.364   4.023   4.674 -1.5385  1.0219 -2.5292
 9766TIP3   OH229238   6.079   3.013   2.374 -0.0039  0.0374 -0.6074
 9766TIP3    H129239   6.019   3.076   2.333 -2.5494 -2.4311 -0.9561
 9766TIP3    H229240   6.053   3.011   2.466  0.5812 -0.0032 -0.4365
 9767TIP3   OH229241   1.455   7.652   0.248 -0.0636 -0.8127 -0.1431
 9767TIP3    H129242   1.386   7.705   0.207  1.1790  1.3939  0.4444
 9767TIP3    H229243   1.440   7.662   0.342 -0.1504 -2.0425 -0.0105
 9768TIP3   OH229244   1.442   4.633   6.551  0.4392  0.0417  0.1573
 9768TIP3    H129245   1.520   4.577   6.555  0.6558  0.3055 -0.2735
 9768TIP3    H229246   1.471   4.710   6.502 -0.3441 -0.2763 -0.8363
 9769TIP3   OH229247   3.438   7.394   3.121 -0.3712 -0.3642 -0.4046
 9769TIP3    H129248   3.434   7.304   3.155 -0.1886  0.5999  2.4011
 9769TIP3    H229249   3.531   7.412   3.113 -0.4032 -0.6488 -1.8319
 9770TIP3   OH229250   3.310   3.965   1.193 -0.2286 -0.0838 -0.1567
 9770TIP3    H129251   3.392   3.985   1.238 -0.4575  1.9927 -0.5241
 9770TIP3    H229252   3.337   3.933   1.107  0.2191  0.0882 -0.0856
 9771TIP3   OH229253   4.274   5.832   5.151  0.0305 -0.1892  0.1805
 9771TIP3    H129254   4.319   5.850   5.233  2.1591  0.6502 -1.0595
 9771TIP3    H229255   4.341   5.848   5.084 -1.6547 -0.6946 -1.7211
 9772TIP3   OH229256   3.572   1.590   5.388  0.1211  0.0910  0.7258
 9772TIP3    H129257   3.555   1.497   5.374 -1.3572  0.4815 -0.3212
 9772TIP3    H229258   3.662   1.594   5.420  1.4895 -1.4360 -2.5686
 9773TIP3   OH229259   3.798   0.292   5.663 -0.5819 -0.0693 -0.4243
 9773TIP3    H129260   3.764   0.372   5.622 -0.3359  0.4048  0.2869
 9773TIP3    H229261   3.764   0.221   5.608 -1.6625  0.4605 -0.4666
 9774TIP3   OH229262   7.381   0.607   4.960  0.0165  0.4077  0.1400
 9774TIP3    H129263   7.377   0.514   4.981 -0.9837  0.5879  0.8369
 9774TIP3    H229264   7.345   0.650   5.038 -0.3712  1.3174 -0.5303
 9775TIP3   OH229265   5.203   3.867   2.009  0.1726  0.3101  0.3371
 9775TIP3    H129266   5.161   3.782   2.018  1.5899 -0.4633 -0.1179
 9775TIP3    H229267   5.136   3.930   2.037 -1.0952 -0.8989  0.1026
 9776TIP3   OH229268   6.811   3.435   1.134 -0.3600  0.3417 -0.1388
 9776TIP3    H129269   6.754   3.382   1.190 -1.0681  3.0972  1.9803
 9776TIP3    H229270   6.892   3.442   1.183  0.8495 -1.1403 -1.8027
 9777TIP3   OH229271   0.708   7.438   6.082  0.2232 -0.3140  0.3084
 9777TIP3    H129272   0.786   7.425   6.136 -0.8959 -2.5842  1.4941
 9777TIP3    H229273   0.649   7.491   6.136 -0.1109 -0.8945  0.5193
 9778TIP3   OH229274   2.879   5.733   2.407  0.3820 -0.1934 -0.1002
 9778TIP3    H129275   2.880   5.661   2.471 -0.6078 -0.9637 -0.9136
 9778TIP3    H229276   2.915   5.693   2.327 -1.4183 -0.1995 -0.9491
 9779TIP3   OH229277   8.361   6.491   5.424 -0.3711  0.4488 -0.0514
 9779TIP3    H129278   8.297   6.483   5.494  0.1759  0.9768  0.5183
 9779TIP3    H229279   8.313   6.532   5.352 -0.3698  2.0124  0.7964
 9780TIP3   OH229280   3.372   7.885   3.146  0.4482 -0.4827 -0.0059
 9780TIP3    H129281   3.297   7.944   3.139 -0.1480 -1.0795  1.1726
 9780TIP3    H229282   3.336   7.798   3.129  1.3310 -0.5485 -1.7950
 9781TIP3   OH229283   7.380   4.819   1.176 -0.7436  0.7270 -0.0119
 9781TIP3    H129284   7.404   4.812   1.084  0.2229  0.8114  0.2156
 9781TIP3    H229285   7.438   4.887   1.211 -0.4928  0.0995  0.8377
 9782TIP3   OH229286   2.769   3.609   4.420  0.6286  0.0051 -0.0906
 9782TIP3    H129287   2.792   3.562   4.340  0.3021  0.2069 -0.3040
 9782TIP3    H229288   2.681   3.579   4.441  0.0799  1.1455 -0.6994
 9783TIP3   OH229289   2.485   7.225   1.109  0.2938 -0.1547  0.2113
 9783TIP3    H129290   2.414   7.206   1.170  2.0637 -2.4934  1.7047
 9783TIP3    H229291   2.547   7.277   1.160  0.8860 -0.4409 -0.2059
 9784TIP3   OH229292   5.348   6.602   0.712 -0.1004 -0.5090 -0.2046
 9784TIP3    H129293   5.271   6.585   0.766  0.0626 -1.6295 -0.2887
 9784TIP3    H229294   5.422   6.570   0.764  0.4509  1.4298  0.2902
 9785TIP3   OH229295   5.246   3.175   3.162  0.5050  0.5046  0.0549
 9785TIP3    H129296   5.224   3.169   3.255 -1.2663  1.4303 -0.2506
 9785TIP3    H229297   5.276   3.265   3.149  2.5794 -0.1461  0.0403
 9786TIP3   OH229298   5.137   0.506   2.283  0.4329  0.3359  0.0199
 9786TIP3    H129299   5.185   0.585   2.306  0.4848  0.7307 -1.3200
 9786TIP3    H229300   5.065   0.537   2.227 -0.5343 -0.3975  0.8226
 9787TIP3   OH229301   1.187   4.304   0.091 -0.0818  0.1149 -0.6642
 9787TIP3    H129302   1.170   4.309   0.185 -0.4842 -0.9722 -0.6645
 9787TIP3    H229303   1.150   4.385   0.055 -2.9253 -0.9025 -0.2885
 9788TIP3   OH229304   7.722   4.859   1.464 -0.0473 -0.3498 -0.1818
 9788TIP3    H129305   7.789   4.815   1.516 -0.2285 -0.6699 -0.2134
 9788TIP3    H229306   7.738   4.829   1.374  0.8696  0.9411 -0.4858
 9789TIP3   OH229307   2.994   1.731   6.857 -0.7187  0.7742 -0.0247
 9789TIP3    H129308   2.905   1.735   6.822 -0.9610  1.2485  0.6253
 9789TIP3    H229309   3.041   1.799   6.809 -0.4763 -0.0479 -0.9765
 9790TIP3   OH229310   2.139   6.959   1.348 -0.3616 -0.0925 -0.0182
 9790TIP3    H129311   2.111   6.870   1.326 -1.0526  0.3821 -1.1570
 9790TIP3    H229312   2.058   7.004   1.373 -0.3692  0.7644 -1.4736
 9791TIP3   OH229313   3.087   5.992   4.976 -0.4238 -0.5143 -0.3323
 9791TIP3    H129314   3.030   6.063   5.008 -1.1313 -0.0285 -2.5186
 9791TIP3    H229315   3.051   5.913   5.017 -1.6744 -0.0099 -0.3842
 9792TIP3   OH229316   3.063   6.628   4.809  0.0620 -0.4358  0.4089
 9792TIP3    H129317   3.064   6.648   4.903  0.9842  0.0718  0.3033
 9792TIP3    H229318   3.154   6.607   4.788 -0.5193 -2.9785  0.1021
 9793TIP3   OH229319   0.997   0.737   1.700  0.1350 -0.2386  0.2794
 9793TIP3    H129320   1.038   0.703   1.779 -0.9421 -0.0546  0.9434
 9793TIP3    H229321   0.908   0.701   1.702 -0.0944  0.2667 -0.5234
 9794TIP3   OH229322   7.457   6.063   1.911  0.2660  1.0784  0.2614
 9794TIP3    H129323   7.408   6.083   1.832  2.7196  1.0775 -1.3927
 9794TIP3    H229324   7.530   6.125   1.911  1.8505 -0.6557  1.0127
 9795TIP3   OH229325   4.249   7.431   5.571  0.2771  0.2330  0.1064
 9795TIP3    H129326   4.244   7.365   5.641  2.3950 -0.6581 -0.4890
 9795TIP3    H229327   4.323   7.402   5.517  0.0023  2.0406 -1.3194
 9796TIP3   OH229328   2.080   4.325   1.376 -0.3585  0.1831 -0.0434
 9796TIP3    H129329   2.103   4.264   1.306  0.2068  0.8682 -0.4707
 9796TIP3    H229330   1.985   4.332   1.371 -0.4804 -1.0158  0.3267
 9797TIP3   OH229331   3.960   5.827   0.544  0.0214 -0.9239  0.2134
 9797TIP3    H129332   4.030   5.853   0.485 -0.3446 -1.4859 -0.4877
 9797TIP3    H229333   3.882   5.823   0.489 -0.3497 -1.3556  0.7554
 9798TIP3   OH229334   3.666   2.914   3.944 -0.1254 -0.0454  0.6288
 9798TIP3    H129335   3.667   2.901   4.039  1.0421  1.4154  0.8521
 9798TIP3    H229336   3.605   2.987   3.931  2.3705  2.2347  0.7152
 9799TIP3   OH229337   0.911   4.112   0.561 -0.1757 -0.0011  0.1590
 9799TIP3    H129338   0.902   4.020   0.586  1.7838 -0.1126  0.5989
 9799TIP3    H229339   0.940   4.156   0.641 -0.0097  0.8008 -0.3299
 9800TIP3   OH229340   3.673   2.151   6.813 -0.3276  0.3479 -0.5363
 9800TIP3    H129341   3.752   2.145   6.867 -0.0127  2.4130 -0.6863
 9800TIP3    H229342   3.648   2.060   6.797  0.9147 -0.3339  1.1083
 9801TIP3   OH229343   0.301   0.684   1.961 -0.2802  0.1749  0.0856
 9801TIP3    H129344   0.236   0.693   2.030 -0.6921  0.5886 -0.3463
 9801TIP3    H229345   0.279   0.601   1.918  0.2679 -0.3231  0.7354
 9802TIP3   OH229346   2.093   3.990   4.014  0.0406 -0.3540  0.2327
 9802TIP3    H129347   2.110   3.897   3.995  1.6077  0.0603 -0.6166
 9802TIP3    H229348   2.181   4.028   4.022 -0.5734  0.7801  2.0950
 9803TIP3   OH229349   7.730   7.349   5.635 -0.1835 -0.2008  0.0623
 9803TIP3    H129350   7.696   7.397   5.560  0.0148  0.5639  0.4422
 9803TIP3    H229351   7.760   7.266   5.599 -0.0511  0.1717 -0.7123
 9804TIP3   OH229352   1.673   4.726   2.986 -0.0590 -0.5072  0.0241
 9804TIP3    H129353   1.694   4.808   2.942  0.0265 -0.6117 -0.1320
 9804TIP3    H229354   1.594   4.745   3.036 -0.1036 -0.3612 -0.1007
 9805TIP3   OH229355   3.141   4.663   5.092  0.0913 -0.2848 -0.0017
 9805TIP3    H129356   3.069   4.717   5.061  0.3822  0.6116  0.8216
 9805TIP3    H229357   3.219   4.702   5.053  0.2899 -0.2096  0.4630
 9806TIP3   OH229358   5.228   2.707   4.671 -0.2799  0.1733  0.0191
 9806TIP3    H129359   5.269   2.740   4.591 -1.3728 -0.4965 -0.8464
 9806TIP3    H229360   5.224   2.783   4.729  1.2830  0.4726 -0.2248
 9807TIP3   OH229361   4.801   5.064   3.028  0.3675 -0.6569 -1.0573
 9807TIP3    H129362   4.826   4.972   3.036  0.8623 -0.4768 -0.4054
 9807TIP3    H229363   4.729   5.075   3.090  0.7917 -0.4435 -0.5940
 9808TIP3   OH229364   5.773   7.131   5.672 -0.2235 -0.2425  0.0126
 9808TIP3    H129365   5.842   7.080   5.714  1.6644  0.6848 -1.8158
 9808TIP3    H229366   5.797   7.222   5.686 -0.0880  0.0950 -2.1131
 9809TIP3   OH229367   2.824   6.748   4.786 -0.4915  0.1136  0.0755
 9809TIP3    H129368   2.908   6.703   4.781 -0.8961 -0.7450  0.5524
 9809TIP3    H229369   2.833   6.808   4.860 -0.4295 -0.2937  0.4043
 9810TIP3   OH229370   2.040   6.967   2.786 -0.1375 -0.4345  0.0283
 9810TIP3    H129371   1.957   6.929   2.757 -0.1386  0.7291 -1.6288
 9810TIP3    H229372   2.105   6.934   2.723  0.3985 -0.1555  0.4281
 9811TIP3   OH229373   1.703   4.820   2.065 -0.3287 -0.5677  0.0962
 9811TIP3    H129374   1.797   4.835   2.063  0.0648 -2.7057  0.5108
 9811TIP3    H229375   1.666   4.887   2.007  1.7345 -1.8250 -2.8706
 9812TIP3   OH229376   4.983   0.816   1.298 -0.2129 -0.6333 -0.0086
 9812TIP3    H129377   4.934   0.781   1.224 -2.4433  0.1004  1.0239
 9812TIP3    H229378   5.045   0.878   1.260 -1.6565  0.1024 -1.2617
 9813TIP3   OH229379   5.986   5.109   0.833  0.1323 -0.3697 -0.3342
 9813TIP3    H129380   5.969   5.203   0.821  2.9849  0.1213 -1.0674
 9813TIP3    H229381   6.069   5.093   0.789  1.1106 -2.7017  2.0836
 9814TIP3   OH229382   2.393   1.106   5.438 -0.4219  0.4839  0.1134
 9814TIP3    H129383   2.341   1.146   5.508  0.0942  2.0970 -0.3775
 9814TIP3    H229384   2.390   1.170   5.366  1.6506  0.3216 -0.1855
 9815TIP3   OH229385   0.693   2.518   0.940  0.5887 -0.1225  0.0753
 9815TIP3    H129386   0.749   2.569   0.999  1.3866  2.2357 -2.4621
 9815TIP3    H229387   0.653   2.584   0.883  0.9028 -2.2376 -2.8193
 9816TIP3   OH229388   3.016   1.167   0.276  0.6547  0.0956  0.3077
 9816TIP3    H129389   3.050   1.226   0.343 -1.7893  1.4352  0.4758
 9816TIP3    H229390   2.980   1.225   0.209 -2.7596 -1.0654  0.9482
 9817TIP3   OH229391   7.166   6.966   1.772  0.5820 -0.4162 -0.2451
 9817TIP3    H129392   7.119   6.884   1.759  1.0304 -0.4616 -1.7273
 9817TIP3    H229393   7.254   6.949   1.740  0.2965  1.0394 -1.9765
 9818TIP3   OH229394   0.150   0.377   0.030  0.1308  0.0849  0.7503
 9818TIP3    H129395   0.211   0.304   0.032 -1.6722 -1.5587 -0.8310
 9818TIP3    H229396   0.156   0.415   0.118  1.4777 -1.6347  1.4658
 9819TIP3   OH229397   1.073   7.357   2.003  0.6064  0.3351  0.0196
 9819TIP3    H129398   1.043   7.434   1.955 -2.1769 -1.6110 -1.6142
 9819TIP3    H229399   1.008   7.344   2.072  0.0670 -1.3771 -0.7346
 9820TIP3   OH229400   4.461   1.049   5.868 -0.3895  0.4358  0.1889
 9820TIP3    H129401   4.417   1.127   5.902  0.2638  1.1444 -0.5642
 9820TIP3    H229402   4.441   0.981   5.933 -1.2573  1.1288  0.6802
 9821TIP3   OH229403   7.095   0.399   5.170  0.2974 -0.5399  0.1239
 9821TIP3    H129404   7.190   0.395   5.186  0.6308  0.8672 -1.2605
 9821TIP3    H229405   7.061   0.454   5.240  0.5979 -0.5831  0.3066
 9822TIP3   OH229406   5.703   6.708   5.127  0.4767  0.2967  0.0684
 9822TIP3    H129407   5.774   6.646   5.145  1.2583  0.9344 -0.6999
 9822TIP3    H229408   5.696   6.708   5.031  0.3902  1.2743  0.0635
 9823TIP3   OH229409   3.818   7.842   6.323 -0.2421 -0.4143  0.2160
 9823TIP3    H129410   3.875   7.797   6.386  0.1647  1.0658  0.9358
 9823TIP3    H229411   3.732   7.844   6.364 -0.6497 -1.8470 -0.4849
 9824TIP3   OH229412   7.395   6.151   2.714  0.6802  0.1547  0.7109
 9824TIP3    H129413   7.464   6.102   2.670 -1.0969  0.4385 -2.7321
 9824TIP3    H229414   7.315   6.101   2.698 -0.6576  2.3383  0.0100
 9825TIP3   OH229415   1.295   2.239   6.274  0.2207 -0.3318 -0.1693
 9825TIP3    H129416   1.326   2.151   6.252 -0.4188 -0.3229 -1.1829
 9825TIP3    H229417   1.339   2.297   6.212 -0.9535 -0.2005 -0.9228
 9826TIP3   OH229418   8.160   4.096   2.933  0.1404 -0.7209  0.1390
 9826TIP3    H129419   8.205   4.152   2.870 -0.9400  0.2531  0.1917
 9826TIP3    H229420   8.224   4.030   2.958  2.2686  1.7407  1.7313
 9827TIP3   OH229421   5.382   7.025   5.232  0.4112 -0.5093  0.2846
 9827TIP3    H129422   5.338   7.011   5.316  2.7143 -0.9494  1.4954
 9827TIP3    H229423   5.473   7.000   5.248  1.1751  0.5077 -2.0461
 9828TIP3   OH229424   0.159   1.135   2.036  0.3162 -0.0954 -0.0954
 9828TIP3    H129425   0.133   1.130   1.944 -0.4576 -0.1421  0.1228
 9828TIP3    H229426   0.204   1.219   2.044  0.4752 -0.1340 -0.5324
 9829TIP3   OH229427   1.044   3.263   6.717 -0.5167 -0.5942  0.4622
 9829TIP3    H129428   1.072   3.332   6.778 -2.5689  0.0867  0.7040
 9829TIP3    H229429   1.047   3.305   6.631  1.7449 -1.3595  0.1041
 9830TIP3   OH229430   1.694   1.258   0.309 -0.6241 -0.6016 -0.6267
 9830TIP3    H129431   1.714   1.192   0.243  0.0512 -0.1817 -0.8484
 9830TIP3    H229432   1.660   1.208   0.384 -1.9764 -1.0339 -1.4965
 9831TIP3   OH229433   0.095  -0.020   3.241 -0.0150 -0.0402  0.0876
 9831TIP3    H129434   0.081   0.075   3.248 -1.4262 -0.2275  0.1130
 9831TIP3    H229435   0.123  -0.046   3.329 -1.8270  0.0551  0.7512
 9832TIP3   OH229436   2.792   2.769   0.028  0.3838 -0.2765  0.0808
 9832TIP3    H129437   2.713   2.814  -0.002 -0.5424  0.1592  2.9176
 9832TIP3    H229438   2.768   2.677   0.033  0.0184 -0.1338  1.0173
 9833TIP3   OH229439   3.957   0.750   3.907 -0.4102 -0.0985 -0.2646
 9833TIP3    H129440   4.016   0.712   3.841 -1.2235 -1.1195 -0.4351
 9833TIP3    H229441   3.879   0.694   3.905 -1.2294  0.9821  0.2411
 9834TIP3   OH229442   1.766   6.100   2.313 -0.3737  0.0001  0.0059
 9834TIP3    H129443   1.694   6.160   2.331  0.0092  0.8273 -1.1646
 9834TIP3    H229444   1.739   6.018   2.355 -1.3204  0.7004  0.8322
 9835TIP3   OH229445   5.356   2.771   0.628 -0.0598  0.1641  0.0743
 9835TIP3    H129446   5.436   2.801   0.584  0.0115  1.4455  1.0160
 9835TIP3    H229447   5.289   2.775   0.560  0.3436  0.6949 -0.3079
 9836TIP3   OH229448   3.690   7.808   0.067  0.9349  0.3903  0.6100
 9836TIP3    H129449   3.778   7.770   0.074  1.2370  0.6877 -1.2304
 9836TIP3    H229450   3.679   7.857   0.149  1.8291 -0.9273  1.5737
 9837TIP3   OH229451   6.622   5.993   5.150 -0.2801 -0.5480 -0.2114
 9837TIP3    H129452   6.544   5.967   5.199 -0.7401  1.0267 -0.0206
 9837TIP3    H229453   6.678   6.035   5.215  0.4962 -1.1932 -0.4530
 9838TIP3   OH229454   0.742   4.250   4.401  0.7243  0.3838 -0.2449
 9838TIP3    H129455   0.768   4.192   4.473  0.1276  1.4185  0.8366
 9838TIP3    H229456   0.740   4.193   4.324  3.0322 -0.4116  0.1920
 9839TIP3   OH229457   3.414   3.413   4.456 -0.5204  0.2866 -0.3717
 9839TIP3    H129458   3.376   3.376   4.535  1.4047 -0.1502  0.4108
 9839TIP3    H229459   3.343   3.462   4.415 -1.6662  0.1725  1.3990
 9840TIP3   OH229460   8.305   7.588   0.822 -0.4467  0.1025 -0.1655
 9840TIP3    H129461   8.266   7.674   0.803 -1.4486 -0.5128 -0.9955
 9840TIP3    H229462   8.330   7.554   0.736  0.3625 -0.2544  0.2011
 9841TIP3   OH229463   6.554   4.786   4.865  0.0785  0.1380  0.4790
 9841TIP3    H129464   6.629   4.836   4.897 -0.1904 -0.2038  1.6749
 9841TIP3    H229465   6.564   4.700   4.905 -0.2106 -0.3496 -0.4641
 9842TIP3   OH229466   5.754   5.299   1.494 -0.7587  0.1124  0.7069
 9842TIP3    H129467   5.774   5.389   1.520 -0.3846  0.3685 -0.3896
 9842TIP3    H229468   5.666   5.283   1.527 -1.1349  1.1580  0.2583
 9843TIP3   OH229469   5.065   5.161   3.229 -0.1462  0.1626 -0.4058
 9843TIP3    H129470   4.981   5.157   3.274  0.0597 -2.0032 -0.0951
 9843TIP3    H229471   5.096   5.251   3.243 -1.3535  0.3445  1.4247
 9844TIP3   OH229472   5.611   6.017   0.371  0.4018  0.1532 -0.3136
 9844TIP3    H129473   5.609   6.009   0.466 -0.4897  0.0088 -0.3342
 9844TIP3    H229474   5.646   5.933   0.340  3.6240  1.2298 -0.0369
 9845TIP3   OH229475   7.834   6.892   5.680 -0.7201  0.1817  0.2061
 9845TIP3    H129476   7.822   6.832   5.606  1.0815 -0.2291  0.1829
 9845TIP3    H229477   7.914   6.861   5.723  0.3148  2.5662  0.1694
 9846TIP3   OH229478   6.620   1.084   5.499  0.5165  0.5232 -0.1208
 9846TIP3    H129479   6.544   1.047   5.542 -2.0652  2.7898 -2.3547
 9846TIP3    H229480   6.663   1.010   5.456 -0.2307 -0.8383  1.3968
 9847TIP3   OH229481   6.909   6.384   0.136  0.0699  0.6590  0.3229
 9847TIP3    H129482   6.818   6.391   0.104 -0.1456 -1.1676  0.4393
 9847TIP3    H229483   6.916   6.453   0.202 -1.4997  0.3134  0.8976
 9848TIP3   OH229484   6.010   3.601   4.945 -0.0511 -0.3775  0.1961
 9848TIP3    H129485   6.015   3.507   4.928  0.7195 -0.3884  0.4722
 9848TIP3    H229486   6.023   3.642   4.860  2.0805 -0.4747  0.4195
 9849TIP3   OH229487   2.290   4.569   2.892  0.2346 -0.3516 -0.5007
 9849TIP3    H129488   2.345   4.491   2.897  0.8872  0.0225 -1.5326
 9849TIP3    H229489   2.201   4.536   2.909  0.6318 -1.1347  0.1231
 9850TIP3   OH229490   1.998   0.686   5.416  1.0853 -0.0657  0.5539
 9850TIP3    H129491   1.971   0.749   5.350  1.2406 -0.2066  0.3533
 9850TIP3    H229492   1.923   0.628   5.426  1.1271 -0.1509  0.3705
 9851TIP3   OH229493   7.385   6.155   1.657  0.3705  0.0196  0.2050
 9851TIP3    H129494   7.321   6.218   1.624 -0.9904 -2.2967 -1.9485
 9851TIP3    H229495   7.442   6.138   1.582 -0.5490 -2.7246  0.0183
 9852TIP3   OH229496   5.719   3.021   1.555 -0.4531  0.0112 -0.3424
 9852TIP3    H129497   5.791   3.056   1.607 -0.8909  0.4249 -0.0073
 9852TIP3    H229498   5.658   3.094   1.546 -0.4602 -0.1031 -1.3014
 9853TIP3   OH229499   6.401   7.899   5.142 -0.2361 -0.0037 -0.2507
 9853TIP3    H129500   6.469   7.928   5.081 -0.6465  1.9224  0.1702
 9853TIP3    H229501   6.387   7.807   5.118  0.1706  0.4522 -2.5408
 9854TIP3   OH229502   2.618   7.824   3.550  0.7945  0.0298  0.2876
 9854TIP3    H129503   2.617   7.901   3.494 -1.2399  0.4043  0.7626
 9854TIP3    H229504   2.551   7.766   3.514 -0.3884  0.1698  2.1134
 9855TIP3   OH229505   5.070   6.581   3.589  0.2250 -0.2157  0.1257
 9855TIP3    H129506   5.060   6.608   3.680  2.4391  0.4341  0.2387
 9855TIP3    H229507   5.030   6.651   3.538 -0.2048 -0.1320  0.5714
 9856TIP3   OH229508   7.057   7.827   0.357  0.0918 -0.6340 -0.0018
 9856TIP3    H129509   7.081   7.741   0.324 -0.0993 -0.2917 -1.0832
 9856TIP3    H229510   7.138   7.863   0.393  0.1225 -1.3420  0.6469
 9857TIP3   OH229511   4.806   1.042   2.499  0.1079 -0.7951  0.0669
 9857TIP3    H129512   4.897   1.070   2.507  0.0227 -0.6859  0.7016
 9857TIP3    H229513   4.810   0.965   2.443  0.4376 -0.0170 -1.0272
 9858TIP3   OH229514   7.525   6.057   5.458 -0.4453 -1.0004 -0.3698
 9858TIP3    H129515   7.575   5.984   5.494 -0.4852 -0.4923  0.7310
 9858TIP3    H229516   7.455   6.015   5.408  0.6309 -1.7086 -1.3313
 9859TIP3   OH229517   1.135   2.221   6.514 -0.2977  0.8553 -0.1038
 9859TIP3    H129518   1.186   2.216   6.433 -1.5977  1.7041 -1.0092
 9859TIP3    H229519   1.189   2.275   6.573  0.3408  0.8185 -0.6392
 9860TIP3   OH229520   1.876   0.677   1.132 -0.0458  0.1940 -0.0125
 9860TIP3    H129521   1.893   0.769   1.115 -0.0390  0.1278 -0.3806
 9860TIP3    H229522   1.802   0.655   1.074 -0.2225  0.0361  0.2691
 9861TIP3   OH229523   5.499   6.701   5.855  0.1046  0.1201  0.0347
 9861TIP3    H129524   5.456   6.640   5.914  1.4336 -0.5905  0.2976
 9861TIP3    H229525   5.456   6.785   5.873 -0.2485 -0.2925  1.2390
 9862TIP3   OH229526   1.122   2.384   4.717  0.9230 -0.0253 -0.5131
 9862TIP3    H129527   1.178   2.383   4.795 -1.3372 -0.7045  1.2101
 9862TIP3    H229528   1.086   2.295   4.712 -0.7731  0.6398 -0.9195
 9863TIP3   OH229529   0.211   6.862   1.055 -0.0414  0.2721  0.6867
 9863TIP3    H129530   0.273   6.868   0.982 -1.1759 -1.5220 -0.5206
 9863TIP3    H229531   0.136   6.914   1.027  0.7391  2.2558  2.0486
 9864TIP3   OH229532   2.829   2.554   5.181 -0.5155  0.4232 -0.1170
 9864TIP3    H129533   2.835   2.588   5.270 -1.2623  0.9440 -0.2483
 9864TIP3    H229534   2.878   2.472   5.182  1.4941  1.5631  0.1728
 9865TIP3   OH229535   5.423   7.684   4.494 -0.4012  0.2519  0.0921
 9865TIP3    H129536   5.346   7.673   4.549 -0.6632  0.2728 -0.2621
 9865TIP3    H229537   5.427   7.603   4.443  0.1014  0.0391  0.4605
 9866TIP3   OH229538   0.686   5.284   2.886 -0.2920  0.2705 -0.2751
 9866TIP3    H129539   0.744   5.228   2.937 -0.9665 -1.5956 -1.4665
 9866TIP3    H229540   0.737   5.363   2.870  0.3371  0.4521  2.2881
 9867TIP3   OH229541   8.238   2.618   2.042 -0.1355 -0.0711 -0.2590
 9867TIP3    H129542   8.152   2.619   2.083 -0.2137 -0.8084 -0.3863
 9867TIP3    H229543   8.276   2.534   2.068  0.8001  0.5166  0.3165
 9868TIP3   OH229544   5.405   4.562   2.365 -0.7992  0.0133  0.2934
 9868TIP3    H129545   5.483   4.545   2.417 -1.3421 -0.9860  0.8077
 9868TIP3    H229546   5.381   4.652   2.386  2.7669  2.1583 -3.2839
 9869TIP3   OH229547   7.966   7.182   1.065  0.5984 -0.0117 -0.2401
 9869TIP3    H129548   7.978   7.088   1.079  1.2408  0.0639 -0.2266
 9869TIP3    H229549   7.957   7.191   0.970  2.0230  0.0424 -0.4039
 9870TIP3   OH229550   1.736   1.734   3.996  0.8281 -0.2815  0.2405
 9870TIP3    H129551   1.699   1.805   3.942 -0.8828 -0.9248  0.5015
 9870TIP3    H229552   1.819   1.714   3.954 -0.1842 -0.3794 -1.8726
 9871TIP3   OH229553   7.561   7.531   2.565  0.2704  0.4856  0.4364
 9871TIP3    H129554   7.498   7.528   2.637 -0.0184  1.9212  0.2781
 9871TIP3    H229555   7.543   7.452   2.514 -0.2027 -0.0241  1.3712
 9872TIP3   OH229556   0.222   2.236   4.038  0.4903 -0.0911 -0.1914
 9872TIP3    H129557   0.261   2.277   3.961 -0.3471 -1.0503 -1.1676
 9872TIP3    H229558   0.145   2.190   4.003 -0.4702  0.2705  1.3738
 9873TIP3   OH229559  -0.001   7.404   6.343 -0.0466  0.4233 -0.1311
 9873TIP3    H129560  -0.055   7.452   6.281 -0.8809  1.6040  1.4526
 9873TIP3    H229561   0.076   7.459   6.355  0.4875 -0.1810 -0.6682
 9874TIP3   OH229562   5.531   6.398   5.717  0.2354 -0.5946  0.0972
 9874TIP3    H129563   5.481   6.461   5.769 -0.1775 -1.1118  0.3383
 9874TIP3    H229564   5.515   6.314   5.760 -1.4707 -1.3156 -1.8085
 9875TIP3   OH229565   8.175   3.578   0.434  0.2963  0.1830 -0.3730
 9875TIP3    H129566   8.148   3.575   0.342  1.2912 -0.7158 -0.6552
 9875TIP3    H229567   8.262   3.538   0.435 -0.2191 -0.9910  1.1444
 9876TIP3   OH229568   3.672   5.461   2.689 -0.1057  0.0668  0.3061
 9876TIP3    H129569   3.617   5.412   2.750 -1.3318  0.6746 -0.2690
 9876TIP3    H229570   3.616   5.533   2.659  1.7712  2.0934  1.4418
 9877TIP3   OH229571   1.520   5.132   3.208  0.6227 -0.4979  0.0599
 9877TIP3    H129572   1.524   5.227   3.195  1.2344 -0.0970  2.5861
 9877TIP3    H229573   1.484   5.121   3.296 -0.3505 -2.6773 -0.5371
 9878TIP3   OH229574   7.798   1.322   0.200 -0.0171 -0.1412  0.5712
 9878TIP3    H129575   7.707   1.312   0.174  0.7694 -0.7753 -2.4078
 9878TIP3    H229576   7.819   1.413   0.178 -0.0373  0.1539  1.7277
 9879TIP3   OH229577   0.449   4.245   2.961 -0.2366  0.4409  0.2594
 9879TIP3    H129578   0.526   4.298   2.941 -1.1466  1.2358 -1.3469
 9879TIP3    H229579   0.381   4.279   2.903 -0.8428 -2.5985 -0.9624
 9880TIP3   OH229580   7.262   5.873   1.122  0.3508 -0.5971  0.1380
 9880TIP3    H129581   7.324   5.800   1.116 -1.5389 -2.3010  0.2902
 9880TIP3    H229582   7.221   5.877   1.036 -0.1024 -0.1980  0.3654
 9881TIP3   OH229583   3.224   4.518   4.233 -0.2000  0.0237  0.5627
 9881TIP3    H129584   3.131   4.497   4.234 -0.2137  0.0776  0.2912
 9881TIP3    H229585   3.264   4.453   4.292 -0.3038 -0.4771  0.0888
 9882TIP3   OH229586   0.361   6.721   6.531 -0.2485  0.7212  0.1858
 9882TIP3    H129587   0.368   6.670   6.612 -1.6513 -1.4997 -0.9637
 9882TIP3    H229588   0.451   6.746   6.511  0.2121  0.7042  2.0430
 9883TIP3   OH229589   3.411   1.827   1.188  0.5262  0.3573 -0.7102
 9883TIP3    H129590   3.381   1.914   1.213 -4.4455 -1.1453 -0.2446
 9883TIP3    H229591   3.352   1.802   1.116  0.5700 -3.1490  0.2901
 9884TIP3   OH229592   8.362   4.506   2.490 -0.5713  0.5545  0.3026
 9884TIP3    H129593   8.403   4.443   2.548 -0.0806  0.9757  0.4232
 9884TIP3    H229594   8.319   4.453   2.423 -1.0186  0.0716  0.9647
 9885TIP3   OH229595   7.656   2.402   6.848 -0.2477 -0.5713 -0.1920
 9885TIP3    H129596   7.588   2.342   6.818 -0.2128 -0.1643 -1.0956
 9885TIP3    H229597   7.712   2.348   6.904 -1.0927 -1.0015  0.2590
 9886TIP3   OH229598   0.338   7.371   0.082  0.4996  0.4818 -0.3220
 9886TIP3    H129599   0.390   7.389   0.160 -0.5669  0.3935  0.4331
 9886TIP3    H229600   0.325   7.456   0.041  0.3026  0.6540  0.0957
 9887TIP3   OH229601   4.955   4.978   4.752  0.1214  0.7305  0.2077
 9887TIP3    H129602   4.886   5.018   4.805 -0.2154  1.1708 -0.5404
 9887TIP3    H229603   5.024   5.044   4.749 -0.1053  0.9425 -0.3808
 9888TIP3   OH229604   0.792   6.902   2.548 -0.3426 -0.4910  0.3762
 9888TIP3    H129605   0.795   6.995   2.571 -0.5231 -0.0129 -1.4193
 9888TIP3    H229606   0.720   6.867   2.601  1.5247 -0.3117  3.2783
 9889TIP3   OH229607   4.441   5.389   0.646 -0.1811 -0.0874 -0.0476
 9889TIP3    H129608   4.482   5.379   0.732 -2.7100  0.5525  1.3358
 9889TIP3    H229609   4.479   5.470   0.611 -0.7093  0.8732  1.4864
 9890TIP3   OH229610   8.032   0.059   2.556  0.7580  0.0763  0.1944
 9890TIP3    H129611   8.072   0.146   2.552  0.9772 -0.0632 -0.9958
 9890TIP3    H229612   8.064   0.022   2.638  2.5547  0.2245 -0.4019
 9891TIP3   OH229613   4.766   2.128   4.694 -0.0046  0.6873  0.0035
 9891TIP3    H129614   4.825   2.182   4.747 -0.0181 -0.1996  0.9682
 9891TIP3    H229615   4.811   2.118   4.610  1.9208 -1.0460  1.1357
 9892TIP3   OH229616   2.919   7.089   1.100 -1.1404 -0.1452  0.2038
 9892TIP3    H129617   2.876   7.026   1.158  1.3199 -1.3602  0.8210
 9892TIP3    H229618   2.917   7.171   1.148 -1.8673 -0.4008  0.6346
 9893TIP3   OH229619   7.549   5.868   6.760 -0.4403 -0.0028 -0.4776
 9893TIP3    H129620   7.560   5.957   6.725  1.4090 -0.2629 -0.6470
 9893TIP3    H229621   7.598   5.813   6.700  3.3168 -0.4243  2.6254
 9894TIP3   OH229622   0.289   3.152   4.454 -0.4235  0.2350  0.2707
 9894TIP3    H129623   0.217   3.094   4.431 -1.7167  1.9546 -0.2154
 9894TIP3    H229624   0.315   3.124   4.542  0.5488 -2.5049 -0.7867
 9895TIP3   OH229625   5.835   5.017   2.716  0.5208  0.1227  0.1255
 9895TIP3    H129626   5.866   5.021   2.625 -1.5955 -0.1853 -0.6638
 9895TIP3    H229627   5.875   4.938   2.751  0.4045 -0.4359 -0.9503
 9896TIP3   OH229628   7.259   7.845   4.371 -0.3761 -0.2447 -0.3518
 9896TIP3    H129629   7.309   7.803   4.442  2.4239  1.4716 -1.1281
 9896TIP3    H229630   7.204   7.909   4.416 -2.3164 -2.3915  0.5570
 9897TIP3   OH229631   2.332   4.122   5.524  0.2672 -0.1735 -0.1563
 9897TIP3    H129632   2.336   4.027   5.511 -0.6118 -0.2802  0.2712
 9897TIP3    H229633   2.240   4.144   5.509  0.6824  0.7970 -1.4127
 9898TIP3   OH229634   4.252   4.361   3.622  0.0107 -0.0978  0.2979
 9898TIP3    H129635   4.300   4.369   3.705  0.5494 -0.3864  0.0168
 9898TIP3    H229636   4.285   4.280   3.583 -0.3953 -0.0724 -0.1051
 9899TIP3   OH229637   1.446   5.082   3.480  0.2085  0.4293 -0.6624
 9899TIP3    H129638   1.402   5.164   3.500  0.1582  0.6724 -1.7496
 9899TIP3    H229639   1.497   5.063   3.559 -1.0633  0.6395  0.2338
 9900TIP3   OH229640   7.343   3.237   0.224 -0.5467 -0.2154  0.1448
 9900TIP3    H129641   7.423   3.288   0.237 -1.1426  0.4599  1.3552
 9900TIP3    H229642   7.279   3.276   0.284 -2.4517  0.6472 -2.2537
 9901TIP3   OH229643   5.981   5.470   0.558 -0.3435 -0.9304  0.7472
 9901TIP3    H129644   6.021   5.384   0.574  0.9054 -0.6373 -0.6280
 9901TIP3    H229645   5.995   5.518   0.639  0.0860 -1.6080  1.0854
 9902TIP3   OH229646   5.230   5.723   1.260 -0.0173  0.0175  0.0250
 9902TIP3    H129647   5.149   5.712   1.210 -0.2787  2.1793 -0.1089
 9902TIP3    H229648   5.200   5.732   1.351 -0.1134  2.2998 -0.1859
 9903TIP3   OH229649   2.462   1.370   1.550 -0.4371 -0.0725  0.3348
 9903TIP3    H129650   2.436   1.442   1.492 -1.8077 -0.5738  0.2845
 9903TIP3    H229651   2.383   1.352   1.601  0.8226  0.6054  2.6616
 9904TIP3   OH229652   0.185   7.951   6.260 -0.0539 -0.4004 -0.6052
 9904TIP3    H129653   0.100   7.908   6.270  0.2239 -1.0654 -1.0493
 9904TIP3    H229654   0.249   7.884   6.285  0.2992  0.5594  1.1987
 9905TIP3   OH229655   0.439   0.013   3.405 -0.1275  0.1956 -0.1143
 9905TIP3    H129656   0.428  -0.024   3.317 -1.4116 -0.1838  0.1890
 9905TIP3    H229657   0.374   0.083   3.410  1.6985  2.0144 -0.3751
 9906TIP3   OH229658   1.185   3.073   4.872  0.4385 -0.2796  0.6346
 9906TIP3    H129659   1.273   3.086   4.907 -0.2435  1.4981  1.8615
 9906TIP3    H229660   1.164   2.983   4.893  1.7089 -0.5230  0.9358
 9907TIP3   OH229661   4.878   4.810   3.142 -0.1616  0.2846 -0.1912
 9907TIP3    H129662   4.940   4.858   3.197 -0.3264 -0.3148  0.5285
 9907TIP3    H229663   4.909   4.720   3.144 -2.0247 -0.3696  1.6229
 9908TIP3   OH229664   6.236   1.995   6.014  0.5906  0.2424  0.1590
 9908TIP3    H129665   6.147   1.960   6.007  1.2087 -1.2383 -0.9243
 9908TIP3    H229666   6.231   2.080   5.971 -0.3926  0.3993  0.5403
 9909TIP3   OH229667   3.717   4.715   2.477 -0.1178 -0.0039 -0.3724
 9909TIP3    H129668   3.783   4.668   2.528 -0.4820 -0.7425 -0.5694
 9909TIP3    H229669   3.673   4.771   2.541  0.6416  0.4387 -0.2283
 9910TIP3   OH229670   8.328   7.633   2.644 -0.3629 -0.4891 -0.7414
 9910TIP3    H129671   8.248   7.626   2.592  0.0461  1.4486 -1.7619
 9910TIP3    H229672   8.387   7.567   2.607 -1.5547 -2.1826  0.2600
 9911TIP3   OH229673   1.493   3.430   3.163 -0.0224  0.4170 -0.4281
 9911TIP3    H129674   1.501   3.524   3.177  1.7580  0.1217  0.8764
 9911TIP3    H229675   1.574   3.405   3.119 -0.3158 -0.5524 -0.4376
 9912TIP3   OH229676   1.908   4.125   3.053 -0.0014  0.2425  0.0693
 9912TIP3    H129677   1.945   4.208   3.085  1.8135  0.3041 -2.0059
 9912TIP3    H229678   1.907   4.133   2.958  0.8345 -2.3585 -0.2361
 9913TIP3   OH229679   0.145   7.435   6.627  0.6240  0.6939 -0.1009
 9913TIP3    H129680   0.185   7.358   6.586  1.6827  0.1554  1.8268
 9913TIP3    H229681   0.153   7.504   6.560  0.3613 -0.6433 -1.5658
 9914TIP3   OH229682   7.668   3.099   2.035  0.2503 -0.5054 -0.7851
 9914TIP3    H129683   7.585   3.135   2.003  0.1186 -1.2784 -1.3622
 9914TIP3    H229684   7.721   3.088   1.956  1.2865  0.8848 -0.3224
 9915TIP3   OH229685   6.063   0.588   5.229 -0.3425  0.1876 -0.1836
 9915TIP3    H129686   6.045   0.511   5.283 -0.2273  0.8931  0.8823
 9915TIP3    H229687   5.977   0.615   5.196 -0.5841  0.4743  0.6580
 9916TIP3   OH229688   6.539   1.156   0.705  0.6021  0.0090  0.1813
 9916TIP3    H129689   6.536   1.175   0.611  1.7673 -1.0380 -0.0987
 9916TIP3    H229690   6.467   1.094   0.719  1.4130 -1.0974 -0.3687
 9917TIP3   OH229691   5.743   0.997   2.265 -0.4893  0.1708  0.4615
 9917TIP3    H129692   5.783   1.020   2.348  0.4637 -0.6585  0.2436
 9917TIP3    H229693   5.793   1.045   2.199 -0.9998  0.5308  0.3282
 9918TIP3   OH229694   3.921   7.306   5.533 -0.0669 -0.1176  0.3242
 9918TIP3    H129695   3.965   7.248   5.595 -1.0100  0.1286  1.2492
 9918TIP3    H229696   3.905   7.386   5.582 -1.0233  0.0042 -0.1666
 9919TIP3   OH229697   3.606   7.554   3.400  0.3692 -0.8971 -0.3045
 9919TIP3    H129698   3.700   7.538   3.403  0.5664  0.1785 -0.1682
 9919TIP3    H229699   3.593   7.605   3.320 -0.1317 -1.2602 -0.4534
 9920TIP3   OH229700   7.977   5.910   0.580 -0.0887 -0.2667  0.0873
 9920TIP3    H129701   8.001   5.919   0.488  0.8253  0.6308  0.3924
 9920TIP3    H229702   7.915   5.837   0.582  0.2475 -0.6101 -1.1671
 9921TIP3   OH229703   2.250   3.996   0.638  0.1939 -0.4085  0.2368
 9921TIP3    H129704   2.228   4.078   0.682  1.1214  0.8209 -1.4584
 9921TIP3    H229705   2.306   3.950   0.700 -1.1749 -0.2616  1.6350
 9922TIP3   OH229706   2.805   2.680   1.953 -0.9009  0.2821 -0.2132
 9922TIP3    H129707   2.781   2.773   1.943  2.9464  1.3266 -1.4238
 9922TIP3    H229708   2.843   2.675   2.041  0.3133  0.2636 -0.7275
 9923TIP3   OH229709   4.802   1.970   5.715 -0.3389 -0.2499 -0.2578
 9923TIP3    H129710   4.883   1.932   5.748  1.5224  2.0216 -1.8819
 9923TIP3    H229711   4.788   1.928   5.630  0.3978  0.8773 -0.9647
 9924TIP3   OH229712   0.824   4.715   4.669  0.6658  0.3737 -0.6260
 9924TIP3    H129713   0.742   4.690   4.627 -0.0527  0.3586  0.7405
 9924TIP3    H229714   0.833   4.808   4.651 -1.4626  1.2260  2.0339
 9925TIP3   OH229715   6.267   1.739   4.568  0.4111  0.3817 -0.3569
 9925TIP3    H129716   6.214   1.659   4.574  1.4049 -0.2627  0.1239
 9925TIP3    H229717   6.218   1.796   4.508 -2.0355  0.7839  1.8593
 9926TIP3   OH229718   7.966   4.360   0.833 -0.0923 -0.8451  0.3617
 9926TIP3    H129719   7.886   4.343   0.783  0.6205 -0.5230 -0.9607
 9926TIP3    H229720   7.950   4.444   0.876 -0.8415 -1.2779  0.9486
 9927TIP3   OH229721   4.497   6.552   6.031  0.5438 -0.7410 -0.2013
 9927TIP3    H129722   4.549   6.480   6.069  0.7771 -0.1507  0.6261
 9927TIP3    H229723   4.536   6.631   6.067 -1.1814 -0.2854  0.8172
 9928TIP3   OH229724   0.341   5.253   1.511  0.2387  0.3496  0.1858
 9928TIP3    H129725   0.274   5.254   1.579  0.2086 -1.2948  0.2254
 9928TIP3    H229726   0.317   5.324   1.452 -1.2099  0.1773  0.5261
 9929TIP3   OH229727   3.417   6.856   0.694 -0.7967 -0.4586  0.1103
 9929TIP3    H129728   3.430   6.935   0.746 -0.9085 -0.4039  0.0550
 9929TIP3    H229729   3.479   6.793   0.731 -2.5403 -1.1961  1.8937
 9930TIP3   OH229730   1.717   3.147   0.651 -0.5703  0.0236  0.0034
 9930TIP3    H129731   1.799   3.128   0.696  0.3697 -0.6251 -1.8779
 9930TIP3    H229732   1.650   3.104   0.705  0.3426  0.2867  1.3964
 9931TIP3   OH229733   0.800   0.775   2.968  0.0883 -0.1870 -0.3554
 9931TIP3    H129734   0.877   0.812   2.924  0.3189  0.6422  0.6759
 9931TIP3    H229735   0.837   0.723   3.040 -0.2371 -2.3847 -1.6778
 9932TIP3   OH229736   7.440   5.873   2.105 -0.2600 -0.2375 -0.0656
 9932TIP3    H129737   7.458   5.797   2.050  2.2157 -0.2731  0.6943
 9932TIP3    H229738   7.457   5.949   2.049 -0.0054 -0.2647 -0.0260
 9933TIP3   OH229739   4.829   6.538   5.542  0.3988  0.4647  0.4302
 9933TIP3    H129740   4.828   6.626   5.504  4.2242  0.1056 -1.0059
 9933TIP3    H229741   4.919   6.528   5.575 -0.2343 -2.5024  1.5757
 9934TIP3   OH229742   0.593   0.152   0.501  0.0853 -0.0848 -0.2587
 9934TIP3    H129743   0.681   0.174   0.529 -0.5306 -1.7238  3.5261
 9934TIP3    H229744   0.537   0.215   0.545 -0.7377  1.1811 -2.9081
 9935TIP3   OH229745   0.275   5.703   4.455  0.1435  0.4453  0.0371
 9935TIP3    H129746   0.363   5.739   4.467  0.3282 -0.2154  0.7401
 9935TIP3    H229747   0.242   5.690   4.544 -1.2067  1.9489 -0.2002
 9936TIP3   OH229748   3.115   2.625   1.726  0.0003  0.1139 -0.2897
 9936TIP3    H129749   3.112   2.685   1.651 -2.4648  1.9940  1.1404
 9936TIP3    H229750   3.148   2.680   1.798 -3.2374  0.1880  1.2903
 9937TIP3   OH229751   5.330   5.011   4.794 -0.1265 -0.0115 -0.1500
 9937TIP3    H129752   5.287   5.082   4.748  0.4376 -0.6217 -1.6896
 9937TIP3    H229753   5.359   4.951   4.725  1.1284 -0.7648  0.9682
 9938TIP3   OH229754   1.605   3.819   0.321  0.0342  0.4644 -0.0613
 9938TIP3    H129755   1.578   3.889   0.379 -2.0901 -0.4989  0.2044
 9938TIP3    H229756   1.531   3.758   0.320  1.5895 -1.5518 -0.6359
 9939TIP3   OH229757   8.320   1.798   6.238 -0.0237  0.0400 -0.1615
 9939TIP3    H129758   8.313   1.704   6.226  0.3642  0.1778 -1.5763
 9939TIP3    H229759   8.255   1.835   6.178  1.8880  0.7575 -1.9021
 9940TIP3   OH229760   0.994   3.611   5.895  0.0525  0.2575  0.4765
 9940TIP3    H129761   0.949   3.528   5.913  0.3936  0.0788  0.5127
 9940TIP3    H229762   0.928   3.678   5.910 -0.2535 -0.0144  0.3569
 9941TIP3   OH229763   0.908   2.135   0.543 -0.4760 -0.2090  0.1857
 9941TIP3    H129764   0.859   2.058   0.572 -0.8839 -0.5412 -1.2599
 9941TIP3    H229765   0.966   2.156   0.616 -1.9069 -0.5508  1.4768
 9942TIP3   OH229766   1.435   1.011   0.268 -0.5630  0.0756  0.3485
 9942TIP3    H129767   1.501   1.013   0.337 -0.4433 -0.1540  0.2414
 9942TIP3    H229768   1.473   1.062   0.197 -0.0337 -0.9418 -0.1252
 9943TIP3   OH229769   1.165   0.181   6.046 -0.1660  0.1403  0.0628
 9943TIP3    H129770   1.238   0.230   6.083  0.0595 -0.3553  0.2859
 9943TIP3    H229771   1.098   0.247   6.029  0.7315  0.7885 -1.1988
 9944TIP3   OH229772   5.980   4.746   6.386  0.0371 -0.1901 -0.2586
 9944TIP3    H129773   6.051   4.690   6.354 -0.3997 -0.9055 -0.0057
 9944TIP3    H229774   5.904   4.721   6.333  0.0979  0.9616 -0.9083
 9945TIP3   OH229775   8.192   1.149   1.729 -0.1088  0.1217  0.2855
 9945TIP3    H129776   8.123   1.086   1.706  0.0064 -0.0692  0.4588
 9945TIP3    H229777   8.185   1.159   1.824 -0.8027  1.1713  0.1406
 9946TIP3   OH229778   4.791   2.951   0.441  0.4118  0.0282 -0.0635
 9946TIP3    H129779   4.834   3.032   0.412 -2.7425  0.9909 -2.5801
 9946TIP3    H229780   4.805   2.889   0.370 -2.3583  0.4586 -1.1015
 9947TIP3   OH229781   5.778   1.871   4.225 -0.1501 -0.2237 -0.2888
 9947TIP3    H129782   5.715   1.863   4.296  0.4939 -0.3061  0.2880
 9947TIP3    H229783   5.859   1.897   4.269  0.0727  0.4342 -1.0799
 9948TIP3   OH229784   6.541   3.322   4.664 -0.1298 -0.1278  0.2154
 9948TIP3    H129785   6.520   3.366   4.747 -1.9935  0.3622 -0.4810
 9948TIP3    H229786   6.581   3.239   4.690  0.2066  0.4396  1.5903
 9949TIP3   OH229787   7.223   4.510   3.408 -0.1119 -0.2007 -0.4788
 9949TIP3    H129788   7.257   4.513   3.498  0.1855  0.8009 -0.6188
 9949TIP3    H229789   7.181   4.424   3.402 -1.0917  0.1300  0.9719
 9950TIP3   OH229790   5.421   1.707   1.046  0.0794  0.4135 -0.5777
 9950TIP3    H129791   5.405   1.612   1.044 -0.3192  0.4966 -1.2805
 9950TIP3    H229792   5.459   1.722   1.133  0.2562 -0.4087 -0.5011
 9951TIP3   OH229793   0.606   2.781   3.394  0.5601  0.3207  0.8187
 9951TIP3    H129794   0.559   2.717   3.447 -0.1273  1.5856  1.8000
 9951TIP3    H229795   0.539   2.845   3.369  0.3154 -1.3138 -3.5265
 9952TIP3   OH229796   1.368   0.002   6.838  0.3866  0.3007  0.1383
 9952TIP3    H129797   1.387   0.015   6.745  1.2760 -0.8988  0.1396
 9952TIP3    H229798   1.323   0.083   6.864  0.2395  0.7141 -1.2896
 9953TIP3   OH229799   6.648   2.059   3.054  0.1068 -0.6507 -0.5409
 9953TIP3    H129800   6.724   2.021   3.011  0.9558 -0.8672  1.1159
 9953TIP3    H229801   6.586   1.986   3.063 -0.1290 -0.5795 -1.4506
 9954TIP3   OH229802   6.407   6.449   5.134  0.5165  0.6785  0.0865
 9954TIP3    H129803   6.480   6.465   5.074 -0.3587 -0.2759 -1.3060
 9954TIP3    H229804   6.425   6.505   5.210  1.0450  2.8829 -1.5775
 9955TIP3   OH229805   8.363   2.382   3.389  0.2113 -0.1081 -0.3995
 9955TIP3    H129806   8.295   2.345   3.332 -0.5327  0.5079  0.0633
 9955TIP3    H229807   8.340   2.474   3.396 -1.0051 -0.5323  2.6248
 9956TIP3   OH229808   0.041   4.757   2.549  0.0074 -0.3011  0.2510
 9956TIP3    H129809   0.031   4.668   2.516 -0.0555 -0.1034 -0.2635
 9956TIP3    H229810   0.135   4.768   2.560  0.0390 -0.3223  0.0096
 9957TIP3   OH229811   2.786   4.560   5.901  0.0158 -0.4849  0.0810
 9957TIP3    H129812   2.735   4.640   5.883  2.5437  0.7807 -2.2271
 9957TIP3    H229813   2.744   4.493   5.848 -1.0608 -0.2753  0.6377
 9958TIP3   OH229814   3.748   5.349   0.264 -0.3457  0.4643 -0.2810
 9958TIP3    H129815   3.769   5.405   0.338  1.0384  0.9712 -1.0257
 9958TIP3    H229816   3.800   5.384   0.192  1.6711 -2.5835 -0.4798
 9959TIP3   OH229817   1.916   4.988   2.308 -0.1075 -0.2261  0.5394
 9959TIP3    H129818   1.890   4.897   2.298 -0.8213  0.0776 -0.6050
 9959TIP3    H229819   1.875   5.033   2.234 -0.5006  1.1886  1.5698
 9960TIP3   OH229820   6.776   0.795   0.888  0.4247  0.0407  0.0742
 9960TIP3    H129821   6.831   0.760   0.959  0.2407 -0.1992  0.0991
 9960TIP3    H229822   6.827   0.781   0.809  0.1180 -0.7777  0.0217
 9961TIP3   OH229823   4.081   4.059   1.224 -0.3310  0.0585  0.9824
 9961TIP3    H129824   4.147   4.129   1.230 -0.9019  0.6978  0.0743
 9961TIP3    H229825   4.117   3.996   1.162 -0.3380  0.1483  0.8864
 9962TIP3   OH229826   1.372   2.655   1.302 -0.4432 -0.4222  0.1141
 9962TIP3    H129827   1.390   2.736   1.350  0.7615 -0.4039 -0.3236
 9962TIP3    H229828   1.339   2.684   1.217 -1.7642 -0.4416  0.5967
 9963TIP3   OH229829   0.387   6.540   1.437  0.6642 -0.3598  0.4393
 9963TIP3    H129830   0.367   6.595   1.361 -0.2856 -2.3664 -0.8386
 9963TIP3    H229831   0.375   6.598   1.512  0.1035  1.2765 -0.8519
 9964TIP3   OH229832   4.929   1.992   6.795 -0.3336 -0.1465 -0.1878
 9964TIP3    H129833   4.948   1.972   6.703  0.7362 -0.4414  0.0857
 9964TIP3    H229834   5.009   2.033   6.827 -0.9400  0.5777  0.4472
 9965TIP3   OH229835   4.014   4.087   6.663 -0.5891 -0.1533  0.3113
 9965TIP3    H129836   3.939   4.067   6.606  0.3509  0.4944 -1.2197
 9965TIP3    H229837   4.039   4.002   6.699 -2.0810 -0.3737  0.9051
 9966TIP3   OH229838   7.662   7.258   0.803 -0.0796  0.1475  0.2233
 9966TIP3    H129839   7.739   7.207   0.826  0.2303  1.1284  1.4347
 9966TIP3    H229840   7.662   7.331   0.865 -1.5292  0.6062 -0.2850
 9967TIP3   OH229841   5.053   5.713   6.450  0.6809 -0.2911 -0.1984
 9967TIP3    H129842   4.970   5.747   6.415  0.6217  1.5282  1.5432
 9967TIP3    H229843   5.117   5.781   6.429  1.1116 -0.2937  1.0504
 9968TIP3   OH229844   4.915   5.373   2.624  0.0712 -0.2603 -0.3930
 9968TIP3    H129845   4.832   5.378   2.577 -0.2371  0.5206  0.1988
 9968TIP3    H229846   4.898   5.313   2.697  0.7876 -2.1272 -1.6968
 9969TIP3   OH229847   3.530   4.050   1.348  0.4034 -0.1336  0.2656
 9969TIP3    H129848   3.576   3.996   1.283 -2.4771 -1.2014 -1.0838
 9969TIP3    H229849   3.526   3.995   1.426  0.1872 -0.6318 -0.0872
 9970TIP3   OH229850   8.062   5.308   5.683 -0.1057 -0.2124 -0.5222
 9970TIP3    H129851   7.982   5.326   5.733  0.7351  0.6973  0.5314
 9970TIP3    H229852   8.078   5.389   5.635  0.8980  0.0785  0.2882
 9971TIP3   OH229853   7.801   1.306   4.000 -0.5415  0.0344 -0.3155
 9971TIP3    H129854   7.734   1.302   3.931 -0.6892 -1.1652 -0.1181
 9971TIP3    H229855   7.756   1.276   4.079  0.2742 -1.0186 -0.2280
 9972TIP3   OH229856   7.737   3.532   0.816 -0.8734 -0.2244  0.1736
 9972TIP3    H129857   7.655   3.523   0.767 -0.6426  1.8799 -0.7127
 9972TIP3    H229858   7.769   3.620   0.794  1.8121 -1.0880  0.2148
 9973TIP3   OH229859   1.878   1.374   3.693  0.1369 -0.0136  0.3333
 9973TIP3    H129860   1.963   1.414   3.673  0.0907 -1.2649 -3.0452
 9973TIP3    H229861   1.814   1.444   3.674  0.3106  0.2328  0.6500
 9974TIP3   OH229862   5.902   2.693   6.454 -0.0334 -0.5793 -0.3396
 9974TIP3    H129863   5.843   2.619   6.439 -0.9869  0.3529 -1.4377
 9974TIP3    H229864   5.961   2.692   6.379 -1.1026  0.6898 -1.2587
 9975TIP3   OH229865   7.650   3.698   5.880 -0.0404  0.3856  0.2890
 9975TIP3    H129866   7.641   3.707   5.975  1.4180  0.6163  0.4297
 9975TIP3    H229867   7.611   3.778   5.844  0.5570  0.9183  0.7856
 9976TIP3   OH229868   2.041   2.162   4.194  0.3861 -0.4752 -0.6037
 9976TIP3    H129869   1.993   2.245   4.194 -0.8906 -1.1607  1.3293
 9976TIP3    H229870   2.005   2.114   4.119 -1.5900 -0.7235  0.4343
 9977TIP3   OH229871   4.562   0.076   2.431 -0.1250 -0.2569  0.5002
 9977TIP3    H129872   4.651   0.108   2.447  0.4167 -1.1510 -0.6264
 9977TIP3    H229873   4.507   0.127   2.491  1.0945  0.5705  0.9424
 9978TIP3   OH229874   0.142   2.680   0.980 -0.0046  0.7302 -0.0645
 9978TIP3    H129875   0.180   2.768   0.990 -1.2420  1.0909  2.0955
 9978TIP3    H229876   0.217   2.621   0.983  0.6554  1.5708  1.7003
 9979TIP3   OH229877   3.519   3.110   3.113  0.3486 -1.0181  0.0353
 9979TIP3    H129878   3.515   3.203   3.137  0.4727 -1.3729  1.5704
 9979TIP3    H229879   3.519   3.110   3.017 -3.1580  0.4180 -0.1213
 9980TIP3   OH229880   3.567   1.059   1.180  0.1631  0.1268  0.3262
 9980TIP3    H129881   3.483   1.072   1.224  0.0231  0.4444 -0.0319
 9980TIP3    H229882   3.576   1.136   1.123  0.7796  0.1886  0.5011
 9981TIP3   OH229883   2.646   4.175   4.147 -0.1983  0.0006 -0.5056
 9981TIP3    H129884   2.581   4.105   4.140  0.6021 -0.8719  0.3943
 9981TIP3    H229885   2.630   4.213   4.234 -0.5818  0.9046 -0.9601
 9982TIP3   OH229886   4.783   5.122   4.489  0.5079  0.4570  0.5211
 9982TIP3    H129887   4.816   5.195   4.542 -0.1147  0.3501  1.0717
 9982TIP3    H229888   4.861   5.088   4.445  0.4963  2.9568 -1.6682
 9983TIP3   OH229889   2.838   6.927   4.987  0.0145 -0.3971 -0.0748
 9983TIP3    H129890   2.766   6.986   4.964  0.8625  0.5370 -0.3763
 9983TIP3    H229891   2.812   6.891   5.072 -1.0662 -0.5125 -0.4322
 9984TIP3   OH229892   1.271   3.621   4.182  0.1229  0.0519  0.1255
 9984TIP3    H129893   1.286   3.527   4.171  1.0557  0.1257  0.6161
 9984TIP3    H229894   1.190   3.626   4.232 -0.0228 -0.4911 -0.0441
 9985TIP3   OH229895   7.705   0.387   4.917  0.2155  0.0998 -0.2759
 9985TIP3    H129896   7.698   0.350   5.005 -0.5088 -0.6666 -0.6440
 9985TIP3    H229897   7.781   0.444   4.921  2.3875 -2.6107 -0.0940
 9986TIP3   OH229898   7.053   6.151   0.075  0.0006 -0.8681 -0.0845
 9986TIP3    H129899   7.030   6.115   0.160  0.1115 -0.0884  0.2887
 9986TIP3    H229900   6.993   6.225   0.063  0.5581 -0.4385 -0.2825
 9987TIP3   OH229901   3.604   5.246   6.385  0.3892  0.0733  0.3808
 9987TIP3    H129902   3.618   5.315   6.320 -0.0515  0.1576  0.3707
 9987TIP3    H229903   3.566   5.173   6.335 -2.1177  0.9328  0.8774
 9988TIP3   OH229904   1.899   7.428   3.508  0.4516 -0.6554 -0.4307
 9988TIP3    H129905   1.845   7.473   3.572  0.9485  1.9772 -1.7094
 9988TIP3    H229906   1.847   7.353   3.480 -1.1567  0.0275  0.6132
 9989TIP3   OH229907   8.182   1.553   5.450  0.1335  0.3072  0.3713
 9989TIP3    H129908   8.129   1.479   5.481  0.4998 -0.2583 -0.3130
 9989TIP3    H229909   8.194   1.608   5.528 -1.4351  0.4470  0.5460
 9990TIP3   OH229910   2.786   2.013   1.650  0.2023 -0.2595 -0.5003
 9990TIP3    H129911   2.742   1.942   1.698  0.9592 -1.3829 -1.4052
 9990TIP3    H229912   2.721   2.044   1.588 -0.1148 -0.2045 -0.1434
 9991TIP3   OH229913   0.562   1.985   5.634  0.7613  0.3129  0.1740
 9991TIP3    H129914   0.571   1.992   5.538  1.4455  1.5265  0.3047
 9991TIP3    H229915   0.608   1.904   5.656  0.7957  0.1388 -0.4918
 9992TIP3   OH229916   2.682   1.667   2.206 -0.0771  0.5152  0.0294
 9992TIP3    H129917   2.610   1.680   2.268 -0.7563 -1.1118 -0.3712
 9992TIP3    H229918   2.688   1.750   2.159  1.5578  2.4578  3.2849
 9993TIP3   OH229919   7.853   0.705   6.098  0.6542  0.3068  0.4308
 9993TIP3    H129920   7.804   0.686   6.178 -0.3174  0.1191 -0.1835
 9993TIP3    H229921   7.786   0.706   6.029  1.1646  2.4819 -0.1031
 9994TIP3   OH229922   1.692   6.172   6.835  0.3187 -0.6846  0.1196
 9994TIP3    H129923   1.610   6.215   6.811  1.4818  0.7640 -1.4574
 9994TIP3    H229924   1.685   6.084   6.797  0.1619 -0.0015 -1.4866
 9995TIP3   OH229925   2.448   2.617   6.284 -0.0416 -0.0144  0.6833
 9995TIP3    H129926   2.361   2.625   6.244  0.7211  0.6485 -0.9584
 9995TIP3    H229927   2.458   2.698   6.335 -0.5315 -0.2810  1.2143
 9996TIP3   OH229928   5.715   5.577   1.003  0.4244 -0.3329  0.0808
 9996TIP3    H129929   5.715   5.559   1.097  0.1069 -1.9005 -0.1812
 9996TIP3    H229930   5.623   5.579   0.978  0.5038 -2.4347 -0.5823
 9997TIP3   OH229931   0.247   1.430   2.958 -0.1565 -0.3673 -0.2047
 9997TIP3    H129932   0.238   1.434   3.053  0.3623 -2.2257 -0.0523
 9997TIP3    H229933   0.277   1.518   2.933  1.1293 -0.2724  1.5126
 9998TIP3   OH229934   6.581   5.294   0.682  0.1199  0.1837  0.2042
 9998TIP3    H129935   6.600   5.362   0.748  1.3241 -2.3468  2.6984
 9998TIP3    H229936   6.519   5.235   0.726 -0.8695 -0.4246 -1.8661
 9999TIP3   OH229937   6.205   0.853   1.126 -0.4149 -0.5467 -0.7530
 9999TIP3    H129938   6.296   0.830   1.140 -0.2253  0.0872 -0.9152
 9999TIP3    H229939   6.186   0.918   1.194 -0.3887  0.2203 -1.4639
10000TIP3   OH229940   2.955   1.184   3.950 -0.3585  0.2865  0.1515
10000TIP3    H129941   2.893   1.148   4.013  0.5265 -1.3683  0.1359
10000TIP3    H229942   3.028   1.215   4.004 -0.1953  0.1187  0.0268
10001TIP3   OH229943   3.917   6.576   5.698  0.3091  0.3864  0.4474
10001TIP3    H129944   3.923   6.617   5.611 -1.0809 -0.9951 -0.3385
10001TIP3    H229945   3.851   6.627   5.744  0.0254  0.2601  0.1840
10002TIP3   OH229946   3.529   3.241   2.234 -0.7052  0.4499 -0.0381
10002TIP3    H129947   3.455   3.180   2.232  0.3801 -0.9834  1.0089
10002TIP3    H229948   3.491   3.324   2.261 -2.1574  0.1407 -1.0176
10003TIP3   OH229949   0.919   6.466   0.571  0.3565  0.4245 -0.0064
10003TIP3    H129950   0.857   6.439   0.503  0.8975 -1.0540  0.0299
10003TIP3    H229951   0.896   6.556   0.591  0.7414  1.2244 -2.8005
10004TIP3   OH229952   6.530   3.375   3.261 -0.1499 -0.3197  0.0935
10004TIP3    H129953   6.619   3.394   3.230 -0.2314 -0.8993 -0.5169
10004TIP3    H229954   6.478   3.450   3.232  0.3129  0.4876  1.2890
10005TIP3   OH229955   4.083   4.499   2.763  0.0794  0.0803 -0.1245
10005TIP3    H129956   4.141   4.560   2.810  1.3106  0.2171 -1.7482
10005TIP3    H229957   4.035   4.555   2.701 -1.8992 -0.0210  1.1941
10006TIP3   OH229958   5.606   7.812   5.344  0.0485 -0.2340  0.0409
10006TIP3    H129959   5.514   7.790   5.332 -0.0033  0.3218 -0.6142
10006TIP3    H229960   5.613   7.904   5.318  0.7118 -0.1567  0.4595
10007TIP3   OH229961   3.267   7.716   2.831 -0.3802 -0.1543 -0.0858
10007TIP3    H129962   3.194   7.775   2.811  0.3783  0.6749 -0.4993
10007TIP3    H229963   3.253   7.690   2.922 -1.3666 -0.2784 -0.2623
10008TIP3   OH229964   2.339   1.639   1.994 -0.3848 -0.4210 -0.2531
10008TIP3    H129965   2.289   1.711   1.956 -0.6200 -1.2892 -1.6649
10008TIP3    H229966   2.430   1.659   1.974 -0.3026  0.2558  0.7414
10009TIP3   OH229967   1.634   1.446   4.600 -0.4988 -0.5236 -0.3108
10009TIP3    H129968   1.643   1.522   4.657 -1.1194  0.2537 -1.2193
10009TIP3    H229969   1.539   1.436   4.588 -0.4346 -1.5670 -0.0465
10010TIP3   OH229970   4.953   4.294   2.151 -0.4983  0.3183  0.0914
10010TIP3    H129971   4.911   4.337   2.077 -0.4937  2.0649  1.0323
10010TIP3    H229972   5.002   4.364   2.194 -0.7337 -0.5594  1.8990
10011TIP3   OH229973   4.751   4.602   4.099  0.6041 -0.5421  0.1521
10011TIP3    H129974   4.701   4.632   4.175  0.9484  0.7350 -0.0977
10011TIP3    H229975   4.769   4.510   4.117  0.1234 -0.4286  1.3121
10012TIP3   OH229976   0.746   7.736   4.532 -0.0831 -0.8760  0.1466
10012TIP3    H129977   0.768   7.829   4.542 -1.0441 -0.8116  1.9426
10012TIP3    H229978   0.674   7.735   4.468  0.7854 -0.5301 -0.8652
10013TIP3   OH229979   0.638   1.902   6.088 -0.0087 -0.0411 -0.0650
10013TIP3    H129980   0.734   1.901   6.080 -0.0248  0.6948 -0.4530
10013TIP3    H229981   0.607   1.851   6.013  0.0600  0.7151 -0.6312
10014TIP3   OH229982   3.589   2.121   0.074 -0.4189 -0.5092  0.3389
10014TIP3    H129983   3.628   2.208   0.079 -1.7919  0.0917  1.2327
10014TIP3    H229984   3.664   2.061   0.068  0.5517  0.7059 -0.0370
10015TIP3   OH229985   7.075   1.032   0.027 -0.3996 -0.4605  0.6812
10015TIP3    H129986   6.980   1.042   0.020 -0.2243  2.4353  1.2164
10015TIP3    H229987   7.096   1.060   0.116  0.9858 -0.8454  0.4976
10016TIP3   OH229988   6.972   3.321   6.786 -0.1559  0.3224  0.1785
10016TIP3    H129989   7.061   3.286   6.797  0.3796  1.6057  0.1032
10016TIP3    H229990   6.967   3.394   6.848 -1.8405 -0.8921  1.5691
10017TIP3   OH229991   7.203   3.854   3.015 -0.2518 -0.4621 -0.4830
10017TIP3    H129992   7.283   3.878   3.062 -0.3211 -1.3119  0.0880
10017TIP3    H229993   7.204   3.909   2.937 -0.4469  1.4433  0.7826
10018TIP3   OH229994   7.754   3.890   3.464 -0.4645 -0.1520 -0.4410
10018TIP3    H129995   7.801   3.913   3.384  1.8967  2.1440  1.4197
10018TIP3    H229996   7.684   3.956   3.469  1.4595  1.9507  0.9229
10019TIP3   OH229997   2.007   7.313   5.462  0.3447  0.1694 -0.1645
10019TIP3    H129998   1.947   7.382   5.432 -0.9260 -0.8548 -0.0489
10019TIP3    H229999   2.022   7.259   5.385  0.4815 -0.0544  0.0177
10020TIP3   OH230000   7.106   4.747   4.114 -0.0360 -0.2517 -0.2110
10020TIP3    H130001   7.180   4.757   4.173  0.1079 -0.3269 -0.3783
10020TIP3    H230002   7.038   4.803   4.151  0.6570  1.1443 -0.9820
10021TIP3   OH230003   8.132   1.093   3.416  0.5205  0.0947  0.3866
10021TIP3    H130004   8.177   1.069   3.497  0.8349 -1.0380 -0.0943
10021TIP3    H230005   8.200   1.132   3.361  0.7352 -0.7888  0.0030
10022TIP3   OH230006   3.239   3.893   2.709 -0.5156  0.0400  0.5545
10022TIP3    H130007   3.250   3.893   2.804  0.9391  1.4533  0.4300
10022TIP3    H230008   3.145   3.885   2.696 -0.7196 -0.4336  2.0958
10023TIP3   OH230009   1.555   0.982   6.285  0.5048 -0.0872 -0.0982
10023TIP3    H130010   1.508   0.966   6.367 -0.0081 -0.6205 -0.4861
10023TIP3    H230011   1.611   1.057   6.303 -0.8317  0.8703  0.2515
10024TIP3   OH230012   4.874   0.591   3.018 -0.2569  0.0756 -0.6279
10024TIP3    H130013   4.917   0.548   2.944 -2.2273  0.4400 -2.0757
10024TIP3    H230014   4.831   0.520   3.065  1.9374 -0.3120  0.9225
10025TIP3   OH230015   4.128   4.673   1.354 -0.3766 -0.4572 -0.1583
10025TIP3    H130016   4.094   4.619   1.426  0.0926 -0.8519 -0.2282
10025TIP3    H230017   4.168   4.610   1.294  0.5391  0.0047 -0.0432
10026TIP3   OH230018   3.603   5.258   2.524 -0.4706  0.8081  0.4293
10026TIP3    H130019   3.666   5.272   2.454 -0.2388  1.3040  0.7277
10026TIP3    H230020   3.637   5.310   2.597  0.1722 -0.9769  1.4662
10027TIP3   OH230021   1.918   0.169   1.717  0.1972  0.3335  0.2912
10027TIP3    H130022   1.970   0.139   1.642  1.3940  0.4014  1.0698
10027TIP3    H230023   1.828   0.149   1.693  0.7169 -1.3524 -0.3879
10028TIP3   OH230024   5.389   1.322   0.150  0.2849 -0.0248  0.8298
10028TIP3    H130025   5.452   1.383   0.187 -0.0333 -0.2814  1.8189
10028TIP3    H230026   5.324   1.309   0.219  0.0926 -1.1103  0.4708
10029TIP3   OH230027   0.672   4.174   6.591 -0.4875 -0.6904 -0.0934
10029TIP3    H130028   0.657   4.080   6.605  0.7143 -0.9478 -0.4241
10029TIP3    H230029   0.610   4.197   6.521  0.1952 -1.5738 -1.0208
10030TIP3   OH230030   2.649   3.741   2.187  0.4392  0.1287 -0.0869
10030TIP3    H130031   2.681   3.703   2.105  2.3014 -0.9428  1.0553
10030TIP3    H230032   2.629   3.832   2.165  0.5635 -0.2183 -1.7867
10031TIP3   OH230033   1.298   4.263   0.964 -0.5951 -0.0528 -0.4389
10031TIP3    H130034   1.333   4.250   1.052  1.2702  0.2304 -1.0939
10031TIP3    H230035   1.270   4.354   0.962 -1.2953 -0.2507  0.0598
10032TIP3   OH230036   4.433   0.339   4.086 -0.0659 -0.3347 -0.3986
10032TIP3    H130037   4.411   0.368   3.997 -0.0677 -2.7478 -1.2744
10032TIP3    H230038   4.367   0.272   4.106 -0.0560  0.1588  1.4453
10033TIP3   OH230039   4.606   1.504   5.196  0.0530  0.0180 -0.0156
10033TIP3    H130040   4.653   1.494   5.113 -1.5215 -2.2602 -0.7218
10033TIP3    H230041   4.520   1.466   5.179 -1.7042  2.9865  1.5731
10034TIP3   OH230042   6.270   3.810   2.063 -0.3305 -0.7754 -0.0553
10034TIP3    H130043   6.278   3.719   2.034 -2.1700 -0.4939 -1.6527
10034TIP3    H230044   6.228   3.804   2.149 -0.2346 -1.4425 -0.0539
10035TIP3   OH230045   0.380   2.780   6.375  0.1270 -0.2653  0.1565
10035TIP3    H130046   0.352   2.690   6.359 -1.6486 -0.1664  2.3060
10035TIP3    H230047   0.301   2.824   6.408  0.9688  2.0782 -0.7256
10036TIP3   OH230048   4.103   4.830   5.283 -0.0614  0.0643 -0.2828
10036TIP3    H130049   4.049   4.908   5.289 -1.7362 -1.1399  0.9349
10036TIP3    H230050   4.064   4.768   5.344  0.3507 -2.2441 -2.2181
10037TIP3   OH230051   1.881   3.546   5.112  0.0512 -0.1291 -0.2378
10037TIP3    H130052   1.939   3.608   5.069 -0.2471  1.2544  1.2462
10037TIP3    H230053   1.909   3.546   5.204 -0.8736 -1.1088  0.0742
10038TIP3   OH230054   1.805   4.737   0.840  1.0404 -0.0667  0.0489
10038TIP3    H130055   1.832   4.822   0.804  0.8029  0.1128  0.2930
10038TIP3    H230056   1.778   4.687   0.763  1.0436  0.1285 -0.0823
10039TIP3   OH230057   3.167   3.209   6.769  0.6291  0.1200 -0.1260
10039TIP3    H130058   3.211   3.141   6.819 -0.1661  0.0222  0.4733
10039TIP3    H230059   3.087   3.167   6.737  0.7171  0.4298 -0.7569
10040TIP3   OH230060   5.889   0.007   2.847  0.2853 -0.5758 -0.3312
10040TIP3    H130061   5.835  -0.064   2.881 -1.1720  1.1450  1.1453
10040TIP3    H230062   5.868   0.082   2.902  1.9527  0.9733 -1.6627
10041TIP3   OH230063   6.625   3.706   5.276  0.0016  0.1267 -0.0027
10041TIP3    H130064   6.637   3.752   5.193 -1.1914  1.8526  0.7161
10041TIP3    H230065   6.547   3.652   5.262  0.3490 -0.3033 -0.2892
10042TIP3   OH230066   1.709   2.910   5.461 -0.6560 -0.1098  0.3548
10042TIP3    H130067   1.760   2.911   5.542 -1.0594 -0.3406  0.6165
10042TIP3    H230068   1.637   2.972   5.477 -0.3702  0.3301 -0.0683
10043TIP3   OH230069   3.841   7.697   2.061  0.1366 -0.2730 -0.0632
10043TIP3    H130070   3.883   7.714   1.977  1.8640 -2.7081  0.2218
10043TIP3    H230071   3.856   7.777   2.111 -2.6873  2.0982 -2.5930
10044TIP3   OH230072   0.530   6.837   6.003  0.5974  0.0619  0.2620
10044TIP3    H130073   0.613   6.884   6.006  0.5053  0.2439  0.0293
10044TIP3    H230074   0.539   6.767   6.067  0.0723  1.4692  1.9233
10045TIP3   OH230075   6.677   7.727   2.692 -0.0815  0.1668  0.3448
10045TIP3    H130076   6.615   7.732   2.619  0.6714  0.2747 -0.3080
10045TIP3    H230077   6.762   7.747   2.652  0.7485 -2.2483  0.7339
10046TIP3   OH230078   6.519   7.911   2.836  0.5225  0.7002  0.3099
10046TIP3    H130079   6.559   7.827   2.860 -0.1904  0.8694  2.2404
10046TIP3    H230080   6.441   7.887   2.786 -0.3981  0.1329  1.9561
10047TIP3   OH230081   3.408   3.059   6.470  0.5133  0.0905 -0.0932
10047TIP3    H130082   3.314   3.058   6.451  0.2415 -0.3878  1.1349
10047TIP3    H230083   3.445   3.120   6.407 -0.5868  0.0867 -0.7693
10048TIP3   OH230084   1.110   7.913   3.344 -0.2020 -0.0942 -0.2505
10048TIP3    H130085   1.201   7.890   3.323  0.5386  2.7210 -0.5117
10048TIP3    H230086   1.064   7.909   3.260  0.1008  0.1981 -0.4315
10049TIP3   OH230087   5.520   5.268   3.636  0.4047 -0.0889  0.4124
10049TIP3    H130088   5.426   5.279   3.622  0.3629  1.7167  1.7888
10049TIP3    H230089   5.527   5.215   3.715  0.5928 -0.9244 -0.1396
10050TIP3   OH230090   5.577   7.782   1.501 -0.3910 -0.2830  0.2277
10050TIP3    H130091   5.632   7.752   1.428 -0.9978  2.0815 -1.2812
10050TIP3    H230092   5.502   7.723   1.500 -0.4606 -0.2032 -1.1852
10051TIP3   OH230093   5.227   6.670   6.548  0.2478  0.4790  0.3689
10051TIP3    H130094   5.218   6.577   6.527 -2.1376  0.3545  1.5982
10051TIP3    H230095   5.251   6.711   6.465 -1.0100 -0.9467 -0.7543
10052TIP3   OH230096   3.583   7.344   6.436 -0.0457  0.4388 -0.3616
10052TIP3    H130097   3.669   7.350   6.477  1.0749 -1.2177 -2.3107
10052TIP3    H230098   3.544   7.431   6.450  2.1573  1.4253  0.0742
10053TIP3   OH230099   8.347   6.082   4.727  0.0224 -0.3565  0.2871
10053TIP3    H130100   8.344   6.178   4.719 -1.2738 -0.3535  0.6011
10053TIP3    H230101   8.328   6.051   4.638 -0.8731 -0.3001  0.4403
10054TIP3   OH230102   2.316   1.912   2.563 -0.4625  0.5601  0.2264
10054TIP3    H130103   2.335   1.997   2.524  1.1762 -0.2749 -0.9070
10054TIP3    H230104   2.254   1.871   2.503  1.1859 -0.2617 -1.0268
10055TIP3   OH230105   3.463   6.522   0.488  0.3602  0.0075  0.0416
10055TIP3    H130106   3.380   6.529   0.536 -0.0466 -0.1896 -0.6239
10055TIP3    H230107   3.506   6.446   0.526 -0.5879 -1.0009 -0.8202
10056TIP3   OH230108   4.815   7.387   5.073 -0.2619  0.0647 -0.2890
10056TIP3    H130109   4.861   7.415   4.994 -0.8278 -1.9171 -1.4029
10056TIP3    H230110   4.787   7.469   5.115  0.9456  1.1901 -1.5806
10057TIP3   OH230111   0.983   4.334   3.818 -0.2366  0.3576  0.4801
10057TIP3    H130112   1.029   4.287   3.748  1.7282  1.4373  0.9559
10057TIP3    H230113   1.042   4.406   3.841 -0.9538  0.2323  3.0279
10058TIP3   OH230114   3.444   7.082   0.845  0.5698  0.0461  0.3397
10058TIP3    H130115   3.360   7.116   0.877  0.5402 -0.2152  0.5463
10058TIP3    H230116   3.508   7.116   0.908  0.5815 -0.0078  0.3563
10059TIP3   OH230117   5.144   4.545   4.344 -0.1177 -0.3218  0.4528
10059TIP3    H130118   5.050   4.527   4.354 -0.4441  0.8597 -0.3471
10059TIP3    H230119   5.180   4.529   4.431 -0.8453 -1.9685  0.4844
10060TIP3   OH230120   6.714   2.373   0.190 -0.3804  0.0451  0.0561
10060TIP3    H130121   6.674   2.371   0.277 -0.9658  0.3254 -0.1997
10060TIP3    H230122   6.648   2.413   0.134 -0.4815 -1.2016 -0.7629
10061TIP3   OH230123   3.672   0.476   0.103 -0.6185 -0.1360 -0.0986
10061TIP3    H130124   3.705   0.406   0.046 -1.3931 -0.9261  0.3893
10061TIP3    H230125   3.626   0.535   0.043 -1.0727 -0.7394 -0.3624
10062TIP3   OH230126   3.226   0.409   3.263  0.3894 -0.4990  0.1548
10062TIP3    H130127   3.300   0.469   3.253 -0.8221  0.7140 -2.2074
10062TIP3    H230128   3.262   0.323   3.241  1.3345 -0.1010  0.1065
10063TIP3   OH230129   4.296   2.320   3.541 -0.2001 -0.1300  0.2554
10063TIP3    H130130   4.259   2.268   3.613 -1.8466 -1.0066 -1.1456
10063TIP3    H230131   4.222   2.337   3.483  0.8896  1.3682 -0.7888
10064TIP3   OH230132   1.599   1.488   2.240  0.7929  0.3734  0.0557
10064TIP3    H130133   1.570   1.464   2.328  0.3901  1.4008  0.2175
10064TIP3    H230134   1.636   1.407   2.205 -1.0062 -0.6409  0.3488
10065TIP3   OH230135   3.244   5.635   0.141  0.2426 -0.1807 -0.0346
10065TIP3    H130136   3.180   5.643   0.070  0.7205  1.2426 -0.3304
10065TIP3    H230137   3.326   5.614   0.097  0.7467  1.6390 -0.0378
10066TIP3   OH230138   7.038   6.762   3.761 -0.1227  0.2566  0.6329
10066TIP3    H130139   7.045   6.834   3.823  2.1065  1.4344 -0.8402
10066TIP3    H230140   7.000   6.801   3.682 -0.6773 -0.6380  0.4399
10067TIP3   OH230141   1.550   1.984   0.187  0.2259 -0.8971 -0.1454
10067TIP3    H130142   1.471   2.031   0.158  0.2835  0.1864  1.3772
10067TIP3    H230143   1.617   2.052   0.193  0.6858 -1.4222  0.7296
10068TIP3   OH230144   4.861   6.536   3.252  0.6728  0.0789  0.5326
10068TIP3    H130145   4.912   6.613   3.275 -0.0375  0.6021  0.4138
10068TIP3    H230146   4.826   6.556   3.165 -2.1158  1.0555  1.7488
10069TIP3   OH230147   0.785   2.123   6.372 -0.4709 -0.2047  0.3786
10069TIP3    H130148   0.786   2.056   6.303 -1.5591  1.2264 -1.1160
10069TIP3    H230149   0.873   2.122   6.409 -0.0264 -1.3986 -0.6700
10070TIP3   OH230150   6.021   2.928   5.892  0.1372 -0.6977 -0.2427
10070TIP3    H130151   5.944   2.880   5.862 -0.9739  0.6796  0.2474
10070TIP3    H230152   6.088   2.862   5.906 -2.1258 -2.5365  3.1208
10071TIP3   OH230153   0.359   1.217   4.460 -0.0364  0.2676  0.0615
10071TIP3    H130154   0.369   1.167   4.540  1.3056 -0.6404 -0.6305
10071TIP3    H230155   0.316   1.158   4.399  0.7525  0.2301 -0.4861
10072TIP3   OH230156   1.439   6.438   0.653  0.2816 -0.2629 -0.0279
10072TIP3    H130157   1.406   6.388   0.727  1.4662  0.2379  0.8751
10072TIP3    H230158   1.364   6.490   0.624 -0.5653 -1.4748 -0.0688
10073TIP3   OH230159   5.476   0.191   3.964 -0.0408 -0.3108  0.1387
10073TIP3    H130160   5.406   0.149   3.913 -0.8287 -0.8728  1.6428
10073TIP3    H230161   5.483   0.279   3.926 -3.1882  0.6203  1.3712
10074TIP3   OH230162   6.510   5.582   5.430  0.6359  0.3255 -0.1413
10074TIP3    H130163   6.536   5.540   5.348  2.6496  1.5319 -0.1884
10074TIP3    H230164   6.583   5.640   5.452  0.6033 -0.5919  2.9796
10075TIP3   OH230165   5.500   0.740   5.006  0.0048  1.0175 -0.2444
10075TIP3    H130166   5.493   0.681   5.081 -1.4358  1.8864  0.3353
10075TIP3    H230167   5.594   0.756   4.997  0.2220  0.7740  1.2913
10076TIP3   OH230168   3.692   4.020   4.235 -0.1145  0.0625 -0.4371
10076TIP3    H130169   3.712   4.017   4.141 -0.5100  0.4038 -0.5361
10076TIP3    H230170   3.600   3.994   4.240  0.2948 -1.3866 -0.0007
10077TIP3   OH230171   5.956   7.204   2.658  0.0930  0.8055 -0.0040
10077TIP3    H130172   5.947   7.111   2.638 -1.3554  0.6030  1.4442
10077TIP3    H230173   5.933   7.212   2.751  0.6140  2.5499  0.0242
10078TIP3   OH230174   4.931   6.325   4.940  0.2519  0.2853  0.1396
10078TIP3    H130175   4.925   6.243   4.891 -1.7351  0.0651  0.6405
10078TIP3    H230176   4.850   6.327   4.992  0.7363  2.0868  0.8968
10079TIP3   OH230177   0.403   6.185   6.132 -0.2408  0.3070 -0.0474
10079TIP3    H130178   0.312   6.197   6.105 -0.3882 -1.5879 -0.5196
10079TIP3    H230179   0.404   6.100   6.176  1.2733  0.3744  0.1094
10080TIP3   OH230180   4.050   0.800   6.690 -0.0107  0.1695 -0.1803
10080TIP3    H130181   3.981   0.822   6.754 -0.1796  0.0151 -0.3071
10080TIP3    H230182   4.109   0.875   6.692  0.6795 -0.3778  1.0883
10081TIP3   OH230183   2.774   4.018   5.774  0.0783  0.0241 -0.6511
10081TIP3    H130184   2.721   3.998   5.852 -0.9310  0.7829 -1.1235
10081TIP3    H230185   2.853   4.058   5.809 -0.1408 -0.1155  0.0222
10082TIP3   OH230186   3.983   2.016   3.549  0.3148 -0.2883  0.4081
10082TIP3    H130187   3.988   2.005   3.454  0.9331  0.1758  0.3809
10082TIP3    H230188   3.930   1.941   3.579  0.5209 -0.7056 -0.2424
10083TIP3   OH230189   0.298   7.802   0.360  0.2846 -0.4488 -0.1416
10083TIP3    H130190   0.277   7.852   0.439 -1.3240 -2.5592  0.8783
10083TIP3    H230191   0.379   7.755   0.382 -1.6706 -3.3732  1.6115
10084TIP3   OH230192   7.498   3.797   1.260  0.1090  0.7600  0.1911
10084TIP3    H130193   7.511   3.785   1.354  2.2833  2.8842  0.2596
10084TIP3    H230194   7.458   3.884   1.252  0.1194  0.6876 -0.8728
10085TIP3   OH230195   5.421   3.504   6.325  0.1280 -0.2442  0.3454
10085TIP3    H130196   5.411   3.595   6.295 -2.0268  0.3037  2.4021
10085TIP3    H230197   5.403   3.451   6.247  1.6390  1.0291 -0.9488
10086TIP3   OH230198   6.638   1.513   0.829 -0.7349 -0.5812  0.3636
10086TIP3    H130199   6.697   1.583   0.802  0.6750 -1.9928 -0.4316
10086TIP3    H230200   6.697   1.441   0.852 -2.1505 -1.9435 -0.1471
10087TIP3   OH230201   0.412   7.628   2.623  0.2434 -0.0621  0.1854
10087TIP3    H130202   0.459   7.564   2.570 -1.4640 -0.1773 -1.2520
10087TIP3    H230203   0.376   7.578   2.696  1.1519 -0.2104  0.5547
10088TIP3   OH230204   0.340   3.891   1.161  0.3902  0.5251  0.3137
10088TIP3    H130205   0.312   3.972   1.202 -0.6232  0.1837  0.3167
10088TIP3    H230206   0.262   3.835   1.160  0.3785  0.4829 -1.9601
10089TIP3   OH230207   7.137   3.066   1.768  0.4709 -0.2849  0.3361
10089TIP3    H130208   7.191   3.002   1.722  0.0363  0.8774 -1.9053
10089TIP3    H230209   7.057   3.017   1.791 -0.9878 -0.0921 -3.6078
10090TIP3   OH230210   0.812   0.340   5.709  0.0292 -0.2733  0.6643
10090TIP3    H130211   0.811   0.261   5.656 -0.2193 -0.3363  0.7600
10090TIP3    H230212   0.773   0.314   5.792 -0.3709  0.0299  0.5778
10091TIP3   OH230213   4.994   2.097   2.167 -0.0001  0.1540  0.2001
10091TIP3    H130214   4.929   2.164   2.149  1.2848  1.3807 -0.0979
10091TIP3    H230215   4.958   2.017   2.129 -0.9823  0.9634 -0.6169
10092TIP3   OH230216   1.152   4.497   3.059 -0.7047  0.3960  0.0523
10092TIP3    H130217   1.103   4.540   2.989 -0.2280  0.1999 -0.4159
10092TIP3    H230218   1.244   4.504   3.031 -0.6035 -0.8077  0.0212
10093TIP3   OH230219   7.534   1.851   5.311  0.8908  0.0494  0.1225
10093TIP3    H130220   7.516   1.820   5.400  2.2153 -1.0862  0.0307
10093TIP3    H230221   7.595   1.924   5.323  0.3832  0.4624  0.1870
10094TIP3   OH230222   0.510   7.433   0.298 -0.3978 -0.5171 -0.2350
10094TIP3    H130223   0.482   7.416   0.388 -0.1614 -1.9988 -0.4161
10094TIP3    H230224   0.589   7.380   0.288  0.1025  0.3654 -1.0296
10095TIP3   OH230225   0.116   4.203   5.612  0.1034  0.2634  0.6491
10095TIP3    H130226   0.196   4.222   5.661  0.0916  1.8094  0.1345
10095TIP3    H230227   0.047   4.201   5.678  0.4401 -0.2370  0.9926
10096TIP3   OH230228   7.203   5.920   2.673  0.2752 -0.2131  0.4964
10096TIP3    H130229   7.140   5.915   2.745 -0.4411 -0.4803 -0.1362
10096TIP3    H230230   7.266   5.851   2.692 -0.2668 -0.7038  0.5365
10097TIP3   OH230231   6.906   4.972   3.563 -0.6180 -0.3108  0.6240
10097TIP3    H130232   6.965   4.896   3.566 -0.4271 -0.2315 -0.4451
10097TIP3    H230233   6.964   5.048   3.560 -0.7142 -0.2632 -1.2104
10098TIP3   OH230234   1.671   4.932   1.342 -0.0668  0.4793  0.0206
10098TIP3    H130235   1.661   5.023   1.369  0.5178  0.2069  1.2144
10098TIP3    H230236   1.746   4.900   1.391 -0.4816 -0.7580 -0.1006
10099TIP3   OH230237   6.418   3.345   4.948  0.4584 -0.1084 -0.1794
10099TIP3    H130238   6.470   3.344   5.029 -0.7373 -0.5034  0.6083
10099TIP3    H230239   6.426   3.434   4.915  2.0014 -0.2801 -0.3349
10100TIP3   OH230240   0.586   5.540   6.289 -0.5372  0.1769  0.2262
10100TIP3    H130241   0.648   5.468   6.293  0.2419  0.7330 -1.2612
10100TIP3    H230242   0.519   5.511   6.226 -1.1867  0.0512  0.9542
10101TIP3   OH230243   4.361   2.267   4.516  0.2109  0.2831  0.3503
10101TIP3    H130244   4.304   2.314   4.577  1.1346 -0.2441  1.6600
10101TIP3    H230245   4.392   2.192   4.566 -0.7630 -1.4500 -1.4876
10102TIP3   OH230246   6.179   1.423   0.463 -0.4618  0.1919  0.2753
10102TIP3    H130247   6.248   1.448   0.525 -0.5115  0.8702  0.0661
10102TIP3    H230248   6.180   1.327   0.464  1.3291  0.1592 -0.6544
10103TIP3   OH230249   5.984   5.163   1.146 -0.0260 -0.2304 -0.5072
10103TIP3    H130250   5.924   5.092   1.168 -0.7975  0.1217 -1.3984
10103TIP3    H230251   5.997   5.155   1.052  1.0648 -0.0804 -0.3822
10104TIP3   OH230252   1.247   4.559   6.770 -1.6711  0.0499  0.1654
10104TIP3    H130253   1.186   4.625   6.804 -0.9120  0.4824  0.7543
10104TIP3    H230254   1.303   4.608   6.709 -1.0580 -0.0234  0.6582
10105TIP3   OH230255   3.701   3.299   0.074  0.5811 -0.1039 -0.2884
10105TIP3    H130256   3.724   3.318  -0.017 -0.9441 -1.4912 -1.0148
10105TIP3    H230257   3.701   3.203   0.080 -3.8238 -0.2949 -0.1725
10106TIP3   OH230258   2.034   5.150   0.649 -0.3852 -0.2848 -0.3493
10106TIP3    H130259   1.952   5.187   0.681 -0.9376 -0.7758 -1.1679
10106TIP3    H230260   2.078   5.224   0.605 -1.6522 -0.6038 -2.2998
10107TIP3   OH230261   7.453   3.484   4.991 -0.6825  0.1020  0.3082
10107TIP3    H130262   7.424   3.507   5.080 -1.2844  1.1870 -0.1474
10107TIP3    H230263   7.423   3.557   4.937  1.6845  0.6118 -0.4308
10108TIP3   OH230264   0.038   5.233   4.231 -0.6018 -0.6347 -0.3006
10108TIP3    H130265   0.004   5.150   4.263  0.2267 -0.9199 -0.1129
10108TIP3    H230266  -0.039   5.286   4.212 -1.1297 -1.2660  0.0590
10109TIP3   OH230267   6.246   0.467   0.437  0.5138  0.5292 -0.2585
10109TIP3    H130268   6.219   0.406   0.368  0.3220 -1.5059  1.4737
10109TIP3    H230269   6.175   0.530   0.443 -0.9009 -1.0170  0.0086
10110TIP3   OH230270   5.658   3.178   6.819  0.3006 -0.5670 -0.0098
10110TIP3    H130271   5.620   3.135   6.743  0.9295 -1.2627  0.0519
10110TIP3    H230272   5.583   3.209   6.869 -0.2065 -1.8997  0.1136
10111TIP3   OH230273   3.682   0.566   6.763  0.0139 -0.1780  0.2341
10111TIP3    H130274   3.701   0.526   6.847 -1.7346 -0.1146  0.6964
10111TIP3    H230275   3.715   0.656   6.771 -0.7090  0.0249  1.1099
10112TIP3   OH230276   2.176   6.502   5.305  0.2290 -0.3712 -0.6315
10112TIP3    H130277   2.210   6.422   5.265 -0.7439  0.0098 -2.3015
10112TIP3    H230278   2.140   6.473   5.389  1.4863 -1.3641 -0.4038
10113TIP3   OH230279   1.534   6.178   0.556 -0.6116 -1.0387  0.6077
10113TIP3    H130280   1.537   6.200   0.649 -0.7161 -1.7835  0.7925
10113TIP3    H230281   1.603   6.231   0.517 -1.5596  0.4551  0.8455
10114TIP3   OH230282   7.367   4.145   3.650  0.2118  0.0978 -0.3028
10114TIP3    H130283   7.274   4.138   3.630  0.5516 -1.4521 -1.5528
10114TIP3    H230284   7.392   4.058   3.679  0.9267  0.9542  1.8138
10115TIP3   OH230285   6.909   0.787   1.492 -0.4626 -0.2049 -0.2450
10115TIP3    H130286   6.996   0.751   1.512 -0.7222 -0.1291  1.1282
10115TIP3    H230287   6.924   0.881   1.479 -0.7268  0.4992  3.4499
10116TIP3   OH230288   1.939   3.630   3.147 -0.4543 -0.3189 -0.5768
10116TIP3    H130289   1.948   3.535   3.138 -0.7401 -0.4998  0.8317
10116TIP3    H230290   2.015   3.656   3.199  0.3974  0.4606 -2.1067
10117TIP3   OH230291   7.867   5.275   2.701  0.1741  0.2432  0.2572
10117TIP3    H130292   7.796   5.330   2.733 -0.9721 -0.5732 -0.7587
10117TIP3    H230293   7.832   5.186   2.706  1.9535 -0.4156  1.8032
10118TIP3   OH230294   3.513   1.690   0.539 -0.1584  0.0649  0.1148
10118TIP3    H130295   3.556   1.690   0.454 -1.2294 -1.5993 -0.4662
10118TIP3    H230296   3.441   1.753   0.530 -0.0826  0.1190 -0.1048
10119TIP3   OH230297   7.115   1.311   4.298  0.2025 -0.2044 -0.8092
10119TIP3    H130298   7.059   1.373   4.250  0.3821  2.2081  1.8255
10119TIP3    H230299   7.055   1.241   4.324 -0.6421  0.2142 -1.5474
10120TIP3   OH230300   7.825   5.051   6.389  0.0567  0.3600 -0.1939
10120TIP3    H130301   7.748   5.050   6.446  0.7959 -0.7179  0.8431
10120TIP3    H230302   7.853   5.142   6.388 -0.3208  0.4966  0.7010
10121TIP3   OH230303   3.961   6.696   1.296  0.1975  0.4532 -0.2114
10121TIP3    H130304   3.917   6.730   1.374 -0.7167  1.1299 -1.0109
10121TIP3    H230305   4.044   6.745   1.292 -0.2688  1.2476 -0.2968
10122TIP3   OH230306   3.927   2.348   4.839  0.4040 -0.0744  0.2970
10122TIP3    H130307   3.919   2.294   4.918 -2.2454  0.6451  0.6164
10122TIP3    H230308   3.945   2.436   4.871  0.6618 -0.0149  0.0027
10123TIP3   OH230309   1.256   1.488   5.912 -0.1171  0.1712  0.0080
10123TIP3    H130310   1.241   1.496   5.818  0.1722  2.1162  0.0941
10123TIP3    H230311   1.334   1.432   5.919  0.0628  0.2985 -0.9184
10124TIP3   OH230312   6.855   2.809   1.589 -0.5863 -0.5255  0.6126
10124TIP3    H130313   6.873   2.864   1.665 -0.6396  1.1870 -0.5777
10124TIP3    H230314   6.759   2.800   1.587 -0.6739  0.4411  0.0767
10125TIP3   OH230315   3.665   3.505   6.540 -0.1689  0.6395 -0.1528
10125TIP3    H130316   3.747   3.460   6.560 -1.5632 -1.2752  1.5948
10125TIP3    H230317   3.684   3.553   6.459  2.1416 -1.1273 -0.7680
10126TIP3   OH230318   1.702   1.574   3.685  0.0684  0.0346  0.2355
10126TIP3    H130319   1.644   1.522   3.741  0.3457 -1.5535 -0.8772
10126TIP3    H230320   1.650   1.651   3.661 -1.6821 -1.4215 -0.8764
10127TIP3   OH230321   1.461   6.111   3.660  0.6204  0.7898 -0.2740
10127TIP3    H130322   1.429   6.125   3.571 -1.2096 -0.5532  0.1078
10127TIP3    H230323   1.547   6.071   3.649 -0.1533 -0.6135 -1.4848
10128TIP3   OH230324   3.153   4.939   4.970 -0.1785 -0.4885  0.5375
10128TIP3    H130325   3.240   4.917   5.002  0.5933 -0.0676 -1.1739
10128TIP3    H230326   3.162   4.942   4.875 -1.5175  1.8085  0.4021
10129TIP3   OH230327   2.552   5.159   5.547 -0.6086  0.2259 -0.2799
10129TIP3    H130328   2.478   5.206   5.585 -0.7790 -0.4050  0.1976
10129TIP3    H230329   2.613   5.149   5.620  0.3476  1.4956 -0.8764
10130TIP3   OH230330   4.724   0.399   3.780  0.1023 -0.1313  0.3429
10130TIP3    H130331   4.713   0.468   3.715  1.2456  2.4289  2.6422
10130TIP3    H230332   4.790   0.340   3.743 -0.7971  0.0576 -1.6398
10131TIP3   OH230333   5.884   2.605   6.128  0.1499  0.4855  0.9713
10131TIP3    H130334   5.910   2.642   6.043 -0.5888 -0.5386  0.2673
10131TIP3    H230335   5.902   2.511   6.120  1.7548  0.6046  2.6278
10132TIP3   OH230336   4.741   1.065   1.392 -0.7485  0.0048  0.2440
10132TIP3    H130337   4.784   0.995   1.441 -1.3018 -0.9900 -0.6270
10132TIP3    H230338   4.738   1.139   1.452  1.3267 -0.1733  0.6270
10133TIP3   OH230339   8.166   0.027   2.292  0.0124  0.4090  0.4742
10133TIP3    H130340   8.126   0.031   2.379  1.9104 -0.7105  1.4822
10133TIP3    H230341   8.217   0.108   2.285  0.3316  0.2268  0.6669
10134TIP3   OH230342   7.821   7.585   1.925 -0.5595 -0.3165  0.0558
10134TIP3    H130343   7.844   7.526   1.853  4.4570  1.9024 -0.6017
10134TIP3    H230344   7.799   7.667   1.882 -0.1248  0.2968  0.9839
10135TIP3   OH230345   4.586   6.090   1.842 -0.4220 -0.1839  0.5381
10135TIP3    H130346   4.606   6.039   1.921 -0.6977  0.5232  1.0737
10135TIP3    H230347   4.500   6.058   1.815 -0.9635  0.5585  1.3461
10136TIP3   OH230348   6.701   1.876   4.994  0.8926 -0.6922 -0.1978
10136TIP3    H130349   6.738   1.878   4.906 -0.8975  1.0653 -0.9831
10136TIP3    H230350   6.732   1.794   5.031  2.2788 -1.1489 -2.1913
10137TIP3   OH230351   7.778   7.280   4.353  0.1501 -0.0151 -0.5555
10137TIP3    H130352   7.708   7.268   4.288 -0.6787  0.7598  0.1587
10137TIP3    H230353   7.740   7.247   4.435  0.5795  0.4862 -0.1462
10138TIP3   OH230354   3.729   4.854   4.980 -0.1843  0.3862  0.1984
10138TIP3    H130355   3.810   4.902   4.962  0.6507 -0.4633  1.5426
10138TIP3    H230356   3.701   4.822   4.894  1.3383  0.0283 -0.1900
10139TIP3   OH230357   4.440   0.744   4.745 -0.9084  0.3478  0.2726
10139TIP3    H130358   4.399   0.830   4.753  0.1530  0.7314  2.2617
10139TIP3    H230359   4.397   0.691   4.813  0.1689  0.0483  0.7366
10140TIP3   OH230360   3.001   7.556   3.870 -0.2183 -0.5282  0.4966
10140TIP3    H130361   3.034   7.489   3.930 -0.7071 -1.1639  0.0721
10140TIP3    H230362   2.906   7.547   3.875 -0.3103 -2.4222 -2.3202
10141TIP3   OH230363   2.925   7.502   5.678  0.3232 -0.1796 -0.0106
10141TIP3    H130364   2.859   7.437   5.705  1.3936 -0.8533  1.1308
10141TIP3    H230365   2.950   7.475   5.590 -1.5125  0.6031 -0.8168
10142TIP3   OH230366   3.728   3.060   1.782  0.4342  0.3852 -0.3966
10142TIP3    H130367   3.785   3.112   1.726  1.0106  0.7637  0.5211
10142TIP3    H230368   3.768   2.973   1.783  0.5464  0.4377 -0.3775
10143TIP3   OH230369   6.656   5.954   3.161  0.1891 -0.7949  0.0062
10143TIP3    H130370   6.730   6.004   3.196 -1.4343  1.3534  0.5766
10143TIP3    H230371   6.604   5.932   3.238  0.1732 -2.2406 -0.3966
10144TIP3   OH230372   0.218   1.528   1.714 -0.2266  0.3219  0.6065
10144TIP3    H130373   0.159   1.576   1.772  1.3041  2.7987  0.2736
10144TIP3    H230374   0.203   1.567   1.627 -0.4061 -1.3069 -0.1360
10145TIP3   OH230375   1.852   2.773   1.781 -0.7532  0.3442  0.3661
10145TIP3    H130376   1.796   2.695   1.785 -0.2196 -0.1007 -0.5112
10145TIP3    H230377   1.823   2.818   1.701  1.4087 -0.9125 -1.2148
10146TIP3   OH230378   5.350   4.804   3.360  0.2622 -0.0985 -0.3638
10146TIP3    H130379   5.364   4.731   3.421  2.0104 -0.6519 -1.3604
10146TIP3    H230380   5.257   4.825   3.369  0.2776 -0.7522  1.8089
10147TIP3   OH230381   0.273   2.996   1.282  0.2094 -0.0556  0.4654
10147TIP3    H130382   0.202   2.996   1.218 -0.1016  0.1352  0.8065
10147TIP3    H230383   0.353   3.003   1.230 -0.0888  1.3362  0.1578
10148TIP3   OH230384   6.213   1.376   2.646 -0.6882  0.0987  0.2871
10148TIP3    H130385   6.254   1.373   2.732  1.7500  1.1731 -0.7504
10148TIP3    H230386   6.251   1.453   2.604 -1.1883 -0.8548 -2.0619
10149TIP3   OH230387   8.346   2.972   1.403  0.4902  0.3853  0.9716
10149TIP3    H130388   8.267   3.010   1.442 -0.5806 -0.4458 -0.2953
10149TIP3    H230389   8.391   3.047   1.363 -1.0323  0.5385 -0.5485
10150TIP3   OH230390   3.107   5.144   5.550 -0.6891 -0.2870  0.7278
10150TIP3    H130391   3.018   5.179   5.545 -0.6767  0.2068  2.8517
10150TIP3    H230392   3.162   5.221   5.566  0.3547 -0.4025 -1.7646
10151TIP3   OH230393   3.553   2.877   1.952  0.0825 -0.2684 -0.3750
10151TIP3    H130394   3.599   2.958   1.928  1.1355 -0.2519  1.4631
10151TIP3    H230395   3.616   2.829   2.006 -0.6799 -2.1501 -1.0734
10152TIP3   OH230396   8.251   3.796   6.164  0.4911 -0.6286  0.0129
10152TIP3    H130397   8.269   3.767   6.254  0.0088 -0.7877  0.0567
10152TIP3    H230398   8.208   3.722   6.122 -0.1730 -0.2117 -0.0596
10153TIP3   OH230399   5.335   6.268   0.643  0.3494 -0.0813  0.2857
10153TIP3    H130400   5.268   6.261   0.575 -1.0368 -1.4163  1.7062
10153TIP3    H230401   5.334   6.183   0.687  0.3420  1.0677  2.6902
10154TIP3   OH230402   4.100   2.353   6.606 -0.0811  0.7885 -0.0351
10154TIP3    H130403   4.137   2.439   6.586 -0.7035  1.0979  0.1277
10154TIP3    H230404   4.009   2.359   6.577 -0.3690  0.4820  0.7944
10155TIP3   OH230405   5.798   2.569   3.952  0.6947 -0.5234  0.2989
10155TIP3    H130406   5.733   2.543   4.016 -0.1683 -0.5350 -0.5559
10155TIP3    H230407   5.747   2.591   3.874  1.6198  0.6585 -0.0053
10156TIP3   OH230408   3.659   1.781   6.243  0.3723 -0.5931  0.1955
10156TIP3    H130409   3.595   1.814   6.305 -0.6363 -1.3700 -0.4103
10156TIP3    H230410   3.609   1.762   6.164  1.5675  0.0236 -0.7427
10157TIP3   OH230411   3.647   1.855   2.943  0.3094  0.3214 -0.4263
10157TIP3    H130412   3.572   1.810   2.904 -0.1570  0.7445 -0.0348
10157TIP3    H230413   3.635   1.843   3.037  1.2514 -0.4235 -0.3915
10158TIP3   OH230414   5.836   4.672   0.646  0.2343  0.1675 -0.0854
10158TIP3    H130415   5.805   4.742   0.589 -3.2852 -1.2595 -0.1849
10158TIP3    H230416   5.870   4.606   0.586 -0.8920 -0.1615 -0.3892
10159TIP3   OH230417   2.869   1.703   1.275  0.7420  0.3879 -0.0582
10159TIP3    H130418   2.779   1.676   1.293  1.6360 -3.0417  0.0177
10159TIP3    H230419   2.921   1.660   1.343  2.7151 -0.4105 -1.9520
10160TIP3   OH230420   1.318   5.384   6.407  0.1147  0.0319 -0.6725
10160TIP3    H130421   1.257   5.387   6.334 -0.1116 -3.3054 -0.7924
10160TIP3    H230422   1.403   5.406   6.369 -0.2462 -0.1438 -1.5988
10161TIP3   OH230423   2.417   2.181   1.752  0.1312 -1.0468 -0.5871
10161TIP3    H130424   2.480   2.253   1.759 -1.8283  0.5806  1.8686
10161TIP3    H230425   2.337   2.222   1.720 -0.3749 -2.6316 -1.4292
10162TIP3   OH230426   1.277   2.567   5.844 -0.1169 -0.1421 -0.0875
10162TIP3    H130427   1.194   2.595   5.882 -0.5126 -1.5345  0.1201
10162TIP3    H230428   1.323   2.649   5.823 -1.2508  0.6389  0.4053
10163TIP3   OH230429   3.647   4.352   5.571  0.2101  0.2394  0.6329
10163TIP3    H130430   3.627   4.324   5.481  2.3317 -1.6833  0.6709
10163TIP3    H230431   3.563   4.383   5.605 -1.2773 -1.5469 -1.1308
10164TIP3   OH230432   0.247   5.706   6.189  0.4623 -0.2046  0.2109
10164TIP3    H130433   0.332   5.729   6.151  0.0912  0.9904  0.0327
10164TIP3    H230434   0.186   5.708   6.114  0.3350 -1.4430  0.2651
10165TIP3   OH230435   3.224   5.359   4.160 -0.3796 -0.0773  0.2788
10165TIP3    H130436   3.284   5.290   4.188  0.5723  0.1529 -1.0776
10165TIP3    H230437   3.259   5.439   4.200  0.0322  0.0001 -0.2211
10166TIP3   OH230438   2.895   3.192   0.349 -0.2229 -0.1140  0.1181
10166TIP3    H130439   2.916   3.240   0.269 -2.4058 -0.0809 -0.4876
10166TIP3    H230440   2.962   3.124   0.355  0.2921  0.2326 -1.4241
10167TIP3   OH230441   7.723   5.791   6.574  0.0828  0.2783  0.1331
10167TIP3    H130442   7.773   5.870   6.555  1.0909 -0.3727  0.0267
10167TIP3    H230443   7.752   5.727   6.509 -0.4660 -0.2926  0.4335
10168TIP3   OH230444   5.665   7.389   0.011  0.5772 -0.4985  0.9755
10168TIP3    H130445   5.631   7.447  -0.057  2.1845 -1.4036 -0.6815
10168TIP3    H230446   5.607   7.404   0.086 -0.3563  1.6360 -0.0721
10169TIP3   OH230447   3.365   0.838   3.120  0.0347  0.5545  0.1176
10169TIP3    H130448   3.442   0.841   3.062 -0.3744 -0.4530 -0.5029
10169TIP3    H230449   3.296   0.883   3.070 -0.1844  0.1172  0.0232
10170TIP3   OH230450   4.097   0.119   6.410 -0.3558  0.1960  0.0396
10170TIP3    H130451   4.083   0.127   6.504 -0.6842 -2.5279  0.3267
10170TIP3    H230452   4.053   0.037   6.387  1.3496 -0.1979 -2.1312
10171TIP3   OH230453   4.251   6.695   1.543 -0.5435 -0.0469  0.3137
10171TIP3    H130454   4.214   6.710   1.630 -1.1366 -0.8477  0.2095
10171TIP3    H230455   4.318   6.628   1.557  0.3433  0.8204  0.3673
10172TIP3   OH230456   5.209   3.397   6.825 -0.3309 -0.1832 -0.2495
10172TIP3    H130457   5.192   3.412   6.732 -2.1184  0.2869  0.1015
10172TIP3    H230458   5.151   3.324   6.848 -0.4270  0.1635  0.6427
10173TIP3   OH230459   7.695   1.625   5.314  0.0442 -0.0070  0.6142
10173TIP3    H130460   7.662   1.706   5.275 -0.3055 -0.2499  0.3996
10173TIP3    H230461   7.735   1.653   5.396 -0.5584  0.3207  0.8058
10174TIP3   OH230462   7.598   5.081   6.565  0.7296  0.2553  0.0949
10174TIP3    H130463   7.614   4.997   6.609  0.1053  0.4768  0.7564
10174TIP3    H230464   7.508   5.075   6.534  0.6915  0.6785  0.1239
10175TIP3   OH230465   6.079   0.587   0.816 -0.1720 -0.1886 -0.1092
10175TIP3    H130466   6.130   0.655   0.772 -1.2046  0.7816  0.1443
10175TIP3    H230467   6.036   0.632   0.888  0.1012 -1.3883  0.8456
10176TIP3   OH230468   6.800   2.326   1.347 -0.6009 -0.1115 -0.2213
10176TIP3    H130469   6.715   2.355   1.315 -1.1254 -0.9794  0.3526
10176TIP3    H230470   6.843   2.406   1.379 -0.1067  0.7869 -2.8557
10177TIP3   OH230471   4.151   1.763   6.259 -0.8302 -0.2053 -0.8766
10177TIP3    H130472   4.137   1.858   6.253  1.3543  0.2830  0.2967
10177TIP3    H230473   4.106   1.737   6.339  1.3384  0.5901  0.7201
10178TIP3   OH230474   6.632   4.484   0.425 -0.0975  0.4126  0.1532
10178TIP3    H130475   6.552   4.492   0.476 -0.7334  0.5637 -0.8325
10178TIP3    H230476   6.698   4.534   0.474 -0.3707 -0.4388  1.4161
10179TIP3   OH230477   3.929   5.953   1.303 -0.3095 -0.2940 -0.4285
10179TIP3    H130478   3.873   5.935   1.378  0.3824 -2.2273 -0.3206
10179TIP3    H230479   3.922   5.874   1.249  1.6497 -0.2453 -0.8164
10180TIP3   OH230480   0.974   7.596   6.725 -0.2957 -0.0159  0.0637
10180TIP3    H130481   0.977   7.536   6.799 -0.1607  0.7626  0.7002
10180TIP3    H230482   0.980   7.684   6.764 -3.5591  0.6063 -0.5756
10181TIP3   OH230483   3.520   3.800   0.035 -0.5693  0.2387  0.0295
10181TIP3    H130484   3.558   3.755  -0.040 -0.0563 -4.4652  2.7370
10181TIP3    H230485   3.595   3.818   0.092 -1.1029  2.5168  0.1048
10182TIP3   OH230486   3.677   4.272   1.354  0.4464 -0.3432  0.1976
10182TIP3    H130487   3.723   4.259   1.271 -0.5057  0.8440 -0.5532
10182TIP3    H230488   3.599   4.217   1.348 -0.4602  0.9580 -0.4161
10183TIP3   OH230489   7.457   5.078   1.271  0.0644 -0.0488 -0.3215
10183TIP3    H130490   7.377   5.094   1.221 -0.1536 -0.8489 -0.2422
10183TIP3    H230491   7.430   5.082   1.362  0.0758 -0.5209 -0.2975
10184TIP3   OH230492   3.456   3.655   6.640 -0.2248  0.0166 -0.0990
10184TIP3    H130493   3.542   3.625   6.609 -0.1391  0.6597 -0.5134
10184TIP3    H230494   3.393   3.606   6.588 -0.2505 -2.9332  2.4157
10185TIP3   OH230495   5.829   3.544   3.707  0.1803 -0.4282 -0.5729
10185TIP3    H130496   5.737   3.556   3.729  0.3182  1.2423 -0.7532
10185TIP3    H230497   5.867   3.499   3.782 -0.5983 -0.2805 -0.0889
10186TIP3   OH230498   1.035   1.161   2.611  0.4130 -0.0443  0.3727
10186TIP3    H130499   1.067   1.071   2.616 -0.8963 -0.4773  3.0672
10186TIP3    H230500   0.978   1.162   2.534  0.0899 -1.6594  0.5566
10187TIP3   OH230501   7.291   7.214   2.836  0.1099 -0.2055  0.2200
10187TIP3    H130502   7.350   7.195   2.764  0.1018  0.7745 -0.0604
10187TIP3    H230503   7.204   7.193   2.803  0.2544 -1.3375  0.5223
10188TIP3   OH230504   5.176   3.130   3.446  0.2587  0.3724 -0.3568
10188TIP3    H130505   5.241   3.199   3.456 -0.0690  0.6564 -0.1978
10188TIP3    H230506   5.101   3.159   3.497 -0.4381  0.5894 -1.4571
10189TIP3   OH230507   6.168   0.854   2.900 -0.3461 -0.3432 -0.2174
10189TIP3    H130508   6.144   0.786   2.963  0.0223 -0.1182  0.1697
10189TIP3    H230509   6.243   0.818   2.853  0.5559  0.2301  0.7451
10190TIP3   OH230510   0.441   4.643   2.975 -0.1919 -0.0771  0.2971
10190TIP3    H130511   0.496   4.721   2.986  1.1831 -0.8318 -0.9121
10190TIP3    H230512   0.502   4.574   2.951 -1.4564 -1.4236  0.7812
10191TIP3   OH230513   8.047   4.949   4.258 -0.3040 -0.0163  0.4085
10191TIP3    H130514   7.980   5.016   4.274 -1.3260 -0.7376 -0.6716
10191TIP3    H230515   8.012   4.897   4.185  1.5500 -0.2768 -0.3610
10192TIP3   OH230516   5.420   0.615   5.911  0.1608 -0.3902 -0.0483
10192TIP3    H130517   5.352   0.670   5.871  0.0283 -0.4831  0.0485
10192TIP3    H230518   5.387   0.526   5.901  0.6446 -0.5018 -0.7211
10193TIP3   OH230519   7.831   5.693   0.597 -0.0561  0.4183  0.2624
10193TIP3    H130520   7.915   5.651   0.612  0.9517  1.2704 -2.5069
10193TIP3    H230521   7.769   5.640   0.647  1.9052 -1.0223  1.3126
10194TIP3   OH230522   5.502   1.856   4.925 -0.2087  0.2232  0.8994
10194TIP3    H130523   5.485   1.882   5.015 -0.8702  1.3404  0.4753
10194TIP3    H230524   5.429   1.893   4.875  0.3494 -0.0365 -0.1479
10195TIP3   OH230525   3.575   7.167   0.380  0.2166  0.4610  0.2921
10195TIP3    H130526   3.556   7.074   0.396 -0.7816  0.4777 -0.7069
10195TIP3    H230527   3.656   7.165   0.328  0.5064  0.1906  0.7372
10196TIP3   OH230528   6.350   7.118   3.734  0.0788  0.8138 -0.1203
10196TIP3    H130529   6.391   7.121   3.821  0.4617 -0.2014 -0.2524
10196TIP3    H230530   6.260   7.145   3.749 -0.4049 -1.1672  0.9435
10197TIP3   OH230531   7.109   2.704   5.499 -0.7653  0.3523 -0.4757
10197TIP3    H130532   7.099   2.734   5.589  0.2779 -1.9129  0.4750
10197TIP3    H230533   7.164   2.771   5.457  0.2424  0.5585  1.1009
10198TIP3   OH230534   4.278   7.583   2.070  0.6026 -0.2591  0.1220
10198TIP3    H130535   4.273   7.673   2.039 -0.6133 -0.1876  0.4724
10198TIP3    H230536   4.259   7.589   2.164  3.3662 -0.5646  0.7750
10199TIP3   OH230537   2.945   5.577   0.710  0.3192  0.8580  0.1797
10199TIP3    H130538   2.940   5.519   0.634 -1.4183 -0.4294  1.2057
10199TIP3    H230539   2.993   5.526   0.776 -1.0251  0.6454  1.0144
10200TIP3   OH230540   6.863   0.832   5.679 -0.1483  0.6877 -0.4775
10200TIP3    H130541   6.878   0.902   5.615  0.5801 -0.1137 -1.2159
10200TIP3    H230542   6.780   0.855   5.721 -0.3714  1.5198 -1.3322
10201TIP3   OH230543   5.538   1.532   0.270 -0.0002 -0.1662 -0.5114
10201TIP3    H130544   5.519   1.625   0.260  0.5813  0.1797  1.1823
10201TIP3    H230545   5.634   1.527   0.267  0.0446 -0.4752  0.9085
10202TIP3   OH230546   6.715   5.830   2.335  0.4953  0.1477 -0.1155
10202TIP3    H130547   6.709   5.766   2.405 -2.0792 -1.8056 -1.9334
10202TIP3    H230548   6.655   5.900   2.360  1.1559  0.5006  0.5313
10203TIP3   OH230549   4.181   1.973   4.416 -0.0935 -0.2708  0.6757
10203TIP3    H130550   4.091   1.996   4.441 -1.5954 -0.8769 -3.3819
10203TIP3    H230551   4.193   1.884   4.449 -0.4414  0.2652  2.3381
10204TIP3   OH230552   1.519   7.034   5.602  0.1935 -0.0432 -0.1927
10204TIP3    H130553   1.467   6.977   5.546  0.5004 -0.8404  0.3289
10204TIP3    H230554   1.583   7.075   5.542  0.6641 -1.0553 -0.3938
10205TIP3   OH230555   4.020   5.354   5.317 -0.1616  0.1342 -0.0385
10205TIP3    H130556   3.988   5.437   5.351 -1.0087 -0.2144  0.0396
10205TIP3    H230557   4.036   5.300   5.394 -0.3458 -0.0351 -0.1169
10206TIP3   OH230558   5.069   0.796   0.414  0.6375  0.2834  0.0094
10206TIP3    H130559   5.061   0.866   0.349 -0.0596  1.0402  0.8657
10206TIP3    H230560   5.049   0.840   0.497  0.1755 -0.9458  0.5674
10207TIP3   OH230561   4.944   7.815   0.247  0.5058 -0.0251 -0.3159
10207TIP3    H130562   4.910   7.904   0.255  2.3130  0.7264 -0.3649
10207TIP3    H230563   4.869   7.762   0.219 -0.7394  1.3629  0.2794
10208TIP3   OH230564   8.043   4.904   6.338 -0.6353  0.0197 -0.2054
10208TIP3    H130565   7.961   4.949   6.360  0.9367  3.2916 -0.4858
10208TIP3    H230566   8.088   4.894   6.422 -0.4519  0.0947 -0.2940
10209TIP3   OH230567   6.775   2.206   4.619  0.1590 -0.5418 -0.4824
10209TIP3    H130568   6.813   2.183   4.534 -0.4034 -0.1874 -0.8352
10209TIP3    H230569   6.681   2.191   4.609 -0.0266  0.3650 -0.2154
10210TIP3   OH230570   1.507   4.857   3.180 -0.2967  0.1346 -0.1181
10210TIP3    H130571   1.472   4.826   3.263 -0.6829  1.3585  0.1933
10210TIP3    H230572   1.549   4.940   3.201  1.4037 -0.5248 -0.7839
10211TIP3   OH230573   7.507   6.617   3.323  0.4017  0.1189 -0.3193
10211TIP3    H130574   7.438   6.622   3.390  1.2348  0.4072  0.5409
10211TIP3    H230575   7.578   6.570   3.367  1.0926  0.6308 -0.8916
10212TIP3   OH230576   5.685   5.990   3.562 -0.0114 -0.6343 -0.0963
10212TIP3    H130577   5.610   5.995   3.503 -0.4237  1.3238  0.5194
10212TIP3    H230578   5.655   6.032   3.642  1.6782  0.0402  0.2280
10213TIP3   OH230579   1.120   5.830   4.158 -0.4807 -0.3805  0.2692
10213TIP3    H130580   1.166   5.806   4.077 -1.1991 -0.5717 -0.0896
10213TIP3    H230581   1.039   5.871   4.129  0.2311  1.5497  0.8871
10214TIP3   OH230582   6.190   2.715   0.178  0.7398 -0.5113 -0.1497
10214TIP3    H130583   6.126   2.764   0.126  0.0233 -0.9351  0.3271
10214TIP3    H230584   6.274   2.751   0.151  0.2283  1.0845  0.2640
10215TIP3   OH230585   6.565   7.370   4.392  0.0549  0.6853  0.9618
10215TIP3    H130586   6.641   7.410   4.432  0.5880  2.5609 -1.6552
10215TIP3    H230587   6.595   7.283   4.363  1.4468  1.6008 -0.5150
10216TIP3   OH230588   3.287   0.991   3.884  0.4945  0.0994 -0.4400
10216TIP3    H130589   3.199   0.991   3.847  0.4456  1.2673 -0.3429
10216TIP3    H230590   3.321   1.079   3.868  1.5564 -0.2514 -0.2477
10217TIP3   OH230591   1.417   1.220   3.246 -0.3789  0.0555 -0.0754
10217TIP3    H130592   1.417   1.315   3.252  0.0334 -0.0085  1.0122
10217TIP3    H230593   1.509   1.194   3.254 -0.3874 -0.4072 -1.1646
10218TIP3   OH230594   0.653   6.610   5.387 -0.0785  0.0652 -0.0405
10218TIP3    H130595   0.591   6.680   5.366  2.3112  1.6967 -2.3348
10218TIP3    H230596   0.696   6.591   5.304  1.3410 -2.1756  1.1109
10219TIP3   OH230597   7.842   0.494   3.505 -0.5410  0.3740 -1.3518
10219TIP3    H130598   7.926   0.493   3.550 -1.7177 -1.0383  1.0063
10219TIP3    H230599   7.828   0.586   3.483  0.5986  0.9921  0.2772
10220TIP3   OH230600   4.767   3.982   3.942 -0.4353  0.4476 -0.3362
10220TIP3    H130601   4.726   3.896   3.932  0.8381 -0.0606 -1.5926
10220TIP3    H230602   4.699   4.044   3.914 -1.4644 -0.0910  0.8633
10221TIP3   OH230603   7.603   6.214   5.857  0.0027 -0.4202  0.0288
10221TIP3    H130604   7.564   6.221   5.770  1.9007 -0.7076 -0.8795
10221TIP3    H230605   7.585   6.123   5.883  0.1712 -0.5850 -0.4258
10222TIP3   OH230606   7.267   1.681   0.502  0.1090  0.0484 -0.0748
10222TIP3    H130607   7.238   1.730   0.579  1.0242  1.0807 -0.3563
10222TIP3    H230608   7.213   1.715   0.430 -3.4960 -3.5392  0.5695
10223TIP3   OH230609   7.569   2.753   3.494 -0.0457  0.2552  0.2778
10223TIP3    H130610   7.483   2.715   3.512  0.2154 -0.5628 -0.1413
10223TIP3    H230611   7.556   2.807   3.417  0.2133 -1.4913 -1.0653
10224TIP3   OH230612   5.405   0.961   4.866 -0.0947  0.1739 -0.8690
10224TIP3    H130613   5.390   0.884   4.921  0.2657  1.1684  0.6849
10224TIP3    H230614   5.496   0.953   4.837  0.4975  0.8407  0.7052
10225TIP3   OH230615   5.875   0.555   5.736 -0.1457  0.2747 -0.1831
10225TIP3    H130616   5.806   0.498   5.704  0.9726 -0.9070 -0.5483
10225TIP3    H230617   5.828   0.631   5.771 -1.6867 -0.9145  0.4646
10226TIP3   OH230618   7.843   7.305   1.256 -0.1036 -0.0921 -0.6645
10226TIP3    H130619   7.869   7.238   1.193  1.2032  0.7211 -1.0253
10226TIP3    H230620   7.925   7.348   1.281 -0.6886  0.1295  0.9989
10227TIP3   OH230621   4.583   4.927   6.139  0.0444 -0.0578  0.2827
10227TIP3    H130622   4.646   4.867   6.179  1.5491  0.8818 -0.5719
10227TIP3    H230623   4.543   4.876   6.069  1.4070 -0.0544 -0.5272
10228TIP3   OH230624   2.726   0.081   3.450  0.2664 -0.4804 -0.3942
10228TIP3    H130625   2.636   0.054   3.463  0.0524  1.0163  2.0348
10228TIP3    H230626   2.776  -0.000   3.442 -0.9894 -1.4237  0.9645
10229TIP3   OH230627   2.043   0.930   2.378  0.4328  0.2787  0.0195
10229TIP3    H130628   2.125   0.887   2.399  0.7537  0.7094 -0.3192
10229TIP3    H230629   2.004   0.876   2.309  1.4484  1.1987 -1.3236
10230TIP3   OH230630   0.366   0.324   2.021 -0.2366 -0.0209  0.1236
10230TIP3    H130631   0.438   0.261   2.015  1.9474  2.2458  0.5283
10230TIP3    H230632   0.296   0.285   1.969  0.8903 -2.8043  0.4802
10231TIP3   OH230633   7.971   5.369   4.981  0.6118  0.0369  0.0613
10231TIP3    H130634   7.907   5.401   5.044  0.5932  2.4207 -1.0826
10231TIP3    H230635   8.017   5.299   5.028 -0.9894  0.0865  1.8416
10232TIP3   OH230636   1.375   5.817   6.246  0.2595  0.2350 -0.2887
10232TIP3    H130637   1.304   5.876   6.268 -0.4458 -0.4393 -0.7066
10232TIP3    H230638   1.400   5.842   6.156  0.2012  0.1275 -0.3347
10233TIP3   OH230639   4.050   1.620   3.222 -0.8085  0.5448  1.1306
10233TIP3    H130640   4.074   1.699   3.269  0.4296  0.2929  0.9668
10233TIP3    H230641   4.008   1.651   3.142  1.3624  1.1572  0.1281
10234TIP3   OH230642   4.564   1.086   4.137 -0.0906  0.5653 -0.5254
10234TIP3    H130643   4.567   1.047   4.225  2.4681 -0.4679 -0.9748
10234TIP3    H230644   4.587   1.014   4.078  0.5882  1.7707 -1.7926
10235TIP3   OH230645   4.699   2.111   2.721  0.5809 -0.3437 -0.1613
10235TIP3    H130646   4.674   2.019   2.713  1.3934 -0.6289  0.4981
10235TIP3    H230647   4.794   2.110   2.724  0.7679  0.7284 -2.8239
10236TIP3   OH230648   7.940   6.323   5.565  0.0103 -0.0656  0.4183
10236TIP3    H130649   8.016   6.360   5.519 -0.1750  1.4385  1.2512
10236TIP3    H230650   7.919   6.243   5.517  1.3704  0.1382 -0.5623
10237TIP3   OH230651   7.102   5.129   4.623 -0.0010 -0.0473  1.1535
10237TIP3    H130652   7.135   5.168   4.704 -0.5551 -0.6279  1.6748
10237TIP3    H230653   7.106   5.200   4.558  0.5520  0.3922  1.6558
10238TIP3   OH230654   5.665   1.868   6.636  0.0513  0.8590 -0.0781
10238TIP3    H130655   5.595   1.851   6.698 -0.3256  2.1042 -0.1406
10238TIP3    H230656   5.648   1.957   6.604 -1.1208 -0.4788 -3.6967
10239TIP3   OH230657   3.426   2.307   6.595 -0.1187  0.5271  0.3128
10239TIP3    H130658   3.466   2.354   6.522  1.8104 -1.4419 -0.0314
10239TIP3    H230659   3.464   2.346   6.673  0.1846  0.6614  0.1014
10240TIP3   OH230660   2.632   3.239   6.245 -0.5316  0.1208  0.2930
10240TIP3    H130661   2.611   3.152   6.210  1.4514 -1.0150  1.6942
10240TIP3    H230662   2.606   3.235   6.337 -3.6139  2.2966 -0.3312
10241TIP3   OH230663   5.673   2.500   6.436  0.5718 -0.4564  0.0999
10241TIP3    H130664   5.647   2.478   6.526 -1.2786 -1.3316 -0.6052
10241TIP3    H230665   5.693   2.416   6.395 -2.8876 -0.6719 -1.5162
10242TIP3   OH230666   4.446   6.250   0.035 -0.2540 -0.4485 -0.2886
10242TIP3    H130667   4.437   6.187  -0.037  0.6249 -0.8254 -0.0697
10242TIP3    H230668   4.536   6.282   0.029 -1.3902  2.8787 -2.1008
10243TIP3   OH230669   0.058   5.703   3.552  0.2383 -0.3840 -0.0234
10243TIP3    H130670   0.112   5.730   3.627 -0.9613  1.4405  0.2300
10243TIP3    H230671   0.083   5.764   3.482 -1.6080  0.6443  0.1692
10244TIP3   OH230672   8.182   2.307   3.213  0.2065  0.8538  0.2303
10244TIP3    H130673   8.101   2.357   3.225  0.9964  1.9527  1.1335
10244TIP3    H230674   8.169   2.260   3.131 -1.2183  1.2647  0.1939
10245TIP3   OH230675   6.315   3.169   0.467 -0.6045 -0.0879  0.5361
10245TIP3    H130676   6.282   3.123   0.390 -0.7428 -0.8702  1.0540
10245TIP3    H230677   6.348   3.100   0.524  3.5955  0.6880 -0.6359
10246TIP3   OH230678   1.478   3.276   3.394  0.0600 -0.2953  0.6961
10246TIP3    H130679   1.482   3.293   3.299 -1.4366  1.6583  0.9335
10246TIP3    H230680   1.517   3.189   3.403 -0.6177 -0.9663 -1.8248
10247TIP3   OH230681   5.337   0.166   2.549  0.3845 -0.2844 -0.3453
10247TIP3    H130682   5.343   0.221   2.627 -0.2117 -0.4528 -0.1794
10247TIP3    H230683   5.405   0.100   2.562  1.4004  0.6564 -0.7509
10248TIP3   OH230684   1.677   2.037   5.308 -0.5428  0.2868  0.2745
10248TIP3    H130685   1.636   1.959   5.271  0.1378  0.6870 -1.4154
10248TIP3    H230686   1.688   2.096   5.234 -0.6868  1.8493  1.4484
10249TIP3   OH230687   0.967   7.612   5.491  0.1442  0.1117  0.4070
10249TIP3    H130688   1.037   7.573   5.545  0.1361 -1.2423 -0.4940
10249TIP3    H230689   0.893   7.553   5.503 -0.3095  0.6044  0.0312
10250TIP3   OH230690   4.288   4.415   2.323 -0.2832 -0.6563  0.1082
10250TIP3    H130691   4.357   4.350   2.339  0.1300 -0.4544 -0.7718
10250TIP3    H230692   4.332   4.484   2.273 -0.8183  0.1021  0.6570
10251TIP3   OH230693   7.869   1.183   3.355 -0.1602  0.4631  0.6764
10251TIP3    H130694   7.846   1.130   3.279  2.2358  1.5940 -0.9375
10251TIP3    H230695   7.949   1.143   3.389  0.1679  1.4380  1.0891
10252TIP3   OH230696   1.413   1.246   0.073  0.2930 -0.5740  0.0787
10252TIP3    H130697   1.326   1.268   0.041  1.4422  0.4339 -2.7358
10252TIP3    H230698   1.447   1.328   0.110  1.2927  0.1355 -2.2076
10253TIP3   OH230699   6.171   7.469   4.518 -0.2062  0.1072 -0.1778
10253TIP3    H130700   6.144   7.487   4.428 -0.0288  0.9082 -0.0823
10253TIP3    H230701   6.131   7.539   4.570  1.8606  1.2377 -0.0160
10254TIP3   OH230702   3.058   0.670   4.478  0.3767 -0.5238 -0.2814
10254TIP3    H130703   2.972   0.632   4.459 -0.5332  0.4608  1.5808
10254TIP3    H230704   3.083   0.633   4.563  0.2076  1.6687  0.8025
10255TIP3   OH230705   4.648   3.226   3.994  0.3392  0.0898  0.5111
10255TIP3    H130706   4.559   3.194   4.011  0.9813 -0.2377  4.0678
10255TIP3    H230707   4.640   3.321   3.995 -0.2871  0.1388 -1.9096
10256TIP3   OH230708   4.716   6.603   2.999  0.5305  0.4363 -0.0044
10256TIP3    H130709   4.633   6.575   2.960  1.0681 -0.8908 -0.2620
10256TIP3    H230710   4.723   6.696   2.977 -1.4845  0.9181  1.1240
10257TIP3   OH230711   5.623   0.194   5.807  0.4416 -0.2203 -0.5645
10257TIP3    H130712   5.536   0.176   5.774  0.2566 -0.9156  0.2842
10257TIP3    H230713   5.677   0.122   5.775  0.6136 -0.0198 -0.7290
10258TIP3   OH230714   6.752   0.438   1.303  0.1910 -0.5618 -0.0580
10258TIP3    H130715   6.825   0.492   1.275  0.8134 -1.6887 -0.6733
10258TIP3    H230716   6.778   0.348   1.281 -2.2229 -0.8323 -2.2491
10259TIP3   OH230717   4.161   4.168   2.191  0.2251 -0.4491  0.1453
10259TIP3    H130718   4.151   4.112   2.268  1.7341  0.2423  0.8877
10259TIP3    H230719   4.205   4.246   2.224 -0.7520  0.6837 -1.0947
10260TIP3   OH230720   4.291   1.139   4.952 -0.6422 -0.1061 -0.4382
10260TIP3    H130721   4.204   1.105   4.933 -2.1520  2.1535  1.7707
10260TIP3    H230722   4.306   1.205   4.884 -1.4001  0.6076  0.0625
10261TIP3   OH230723   6.037   3.748   3.813  0.7119  0.0715 -0.1890
10261TIP3    H130724   6.034   3.675   3.875 -1.1720  0.5351  0.3202
10261TIP3    H230725   6.037   3.707   3.727 -2.8146 -0.6082  0.0095
10262TIP3   OH230726   3.030   2.535   0.331  0.1690  0.4656 -0.0238
10262TIP3    H130727   3.052   2.614   0.282  2.6948 -0.0405  0.1565
10262TIP3    H230728   3.002   2.567   0.417  0.3844  1.1908 -0.2188
10263TIP3   OH230729   5.613   1.193   0.052 -0.3022  0.4121 -0.2908
10263TIP3    H130730   5.643   1.157   0.135 -1.5209  0.6784  0.2837
10263TIP3    H230731   5.520   1.214   0.066 -1.2082 -1.6421 -2.3683
10264TIP3   OH230732   5.125   6.625   1.252 -0.3136  0.2154 -0.2745
10264TIP3    H130733   5.106   6.534   1.229 -0.0826  0.3269 -0.9384
10264TIP3    H230734   5.165   6.621   1.339  1.7165 -0.5412 -1.1853
10265TIP3   OH230735   0.024   0.152   4.401  0.0359  0.3583 -0.1839
10265TIP3    H130736   0.108   0.195   4.418 -0.7921  2.3816 -0.8609
10265TIP3    H230737  -0.035   0.224   4.379 -2.4182 -0.7550  2.1832
10266TIP3   OH230738   0.244   4.109   3.381 -0.2369 -0.0130  0.6337
10266TIP3    H130739   0.184   4.039   3.407  0.4608 -1.6403 -1.7321
10266TIP3    H230740   0.329   4.066   3.374  0.3438  1.2220 -0.1891
10267TIP3   OH230741   3.663   5.743   4.682  0.0255 -0.3809  0.4449
10267TIP3    H130742   3.691   5.668   4.734  0.0829 -0.6104  0.0849
10267TIP3    H230743   3.738   5.801   4.681  0.7881 -1.3420 -1.1698
10268TIP3   OH230744   6.696   7.213   1.434  0.3544 -0.7491  0.2744
10268TIP3    H130745   6.682   7.151   1.362 -1.0205 -0.0663 -0.0775
10268TIP3    H230746   6.755   7.167   1.494  1.3821 -1.4193 -1.1685
10269TIP3   OH230747   4.514   1.302   0.204 -0.3223 -0.2080  0.0133
10269TIP3    H130748   4.531   1.330   0.114  2.5734 -5.2648 -1.3771
10269TIP3    H230749   4.594   1.324   0.252 -1.0787  0.6629  0.9433
10270TIP3   OH230750   3.691   1.430   2.965 -0.3177 -0.0543 -0.2106
10270TIP3    H130751   3.691   1.416   3.060 -0.2274 -0.0447 -0.2096
10270TIP3    H230752   3.754   1.501   2.952 -0.3568 -0.0315 -0.2745
10271TIP3   OH230753   8.147   4.027   0.009 -0.4007  0.5096  1.3126
10271TIP3    H130754   8.087   3.979   0.066 -0.0288 -0.3561  1.0019
10271TIP3    H230755   8.099   4.034  -0.074 -0.8331  1.5279  1.6355
10272TIP3   OH230756   0.924   6.015   1.886  0.3873  0.0492  0.8161
10272TIP3    H130757   0.864   5.946   1.915  0.0718 -0.9076 -1.8266
10272TIP3    H230758   0.992   5.969   1.836  1.6459  1.4199  1.1907
10273TIP3   OH230759   7.136   3.269   5.575 -0.0865  0.4729 -0.0400
10273TIP3    H130760   7.230   3.249   5.581  0.3270  1.7637 -1.4188
10273TIP3    H230761   7.119   3.326   5.650 -0.2856 -1.4027  1.4069
10274TIP3   OH230762   7.353   4.212   5.619 -0.9122  0.2824 -0.1647
10274TIP3    H130763   7.431   4.238   5.669  0.6535 -1.8395 -1.3766
10274TIP3    H230764   7.323   4.294   5.579  0.6646  1.1785  0.3812
10275TIP3   OH230765   2.123   5.975   6.508 -0.3887 -0.0449 -0.0833
10275TIP3    H130766   2.061   6.034   6.550 -2.0218  0.2725 -2.6860
10275TIP3    H230767   2.070   5.922   6.448  1.1902 -3.3901  1.2218
10276TIP3   OH230768   3.034   0.149   2.233  0.0846 -0.4392  0.2604
10276TIP3    H130769   3.071   0.186   2.153 -2.3714  0.4806 -0.5444
10276TIP3    H230770   2.944   0.183   2.236 -0.4643 -1.8630  2.4970
10277TIP3   OH230771   1.884   2.135   2.050  0.4019 -0.1642  0.2593
10277TIP3    H130772   1.804   2.082   2.050  0.1999  0.1304  0.7407
10277TIP3    H230773   1.853   2.225   2.043  0.2613  0.4643  5.1756
10278TIP3   OH230774   2.767   1.799   6.710 -0.2257  0.3606 -0.7832
10278TIP3    H130775   2.672   1.808   6.701 -0.1903 -0.2188 -1.8937
10278TIP3    H230776   2.804   1.869   6.656 -0.0257  0.1688 -0.8979
10279TIP3   OH230777   1.141   4.303   2.792  0.5560  0.2806 -0.9982
10279TIP3    H130778   1.236   4.308   2.794  0.4928  1.3855 -0.1544
10279TIP3    H230779   1.122   4.218   2.753  1.8968 -1.6361  2.1733
10280TIP3   OH230780   1.282   0.817   2.876  0.0465 -0.0110 -0.0827
10280TIP3    H130781   1.275   0.801   2.970 -1.1766 -1.9335 -0.4456
10280TIP3    H230782   1.376   0.822   2.858  0.3036 -0.3528  1.1186
10281TIP3   OH230783   2.671   4.283   0.865 -0.3537 -0.5534  0.1545
10281TIP3    H130784   2.754   4.330   0.876 -0.0128 -0.5590 -2.0200
10281TIP3    H230785   2.689   4.218   0.797 -2.3688  0.0095 -0.9832
10282TIP3   OH230786   7.089   0.625   2.086 -0.0949 -0.4180  0.0169
10282TIP3    H130787   7.155   0.681   2.127 -0.4118 -0.1905  0.2217
10282TIP3    H230788   7.016   0.684   2.068  0.4020 -0.2773 -1.7987
10283TIP3   OH230789   2.235   4.541   6.101 -0.2922 -0.1528 -0.4701
10283TIP3    H130790   2.235   4.528   6.006 -0.6631 -1.2296 -0.3306
10283TIP3    H230791   2.328   4.553   6.123 -0.1655 -0.2598 -0.9246
10284TIP3   OH230792   4.164   2.160   4.156 -0.3815 -0.0805  0.6007
10284TIP3    H130793   4.165   2.086   4.217  0.0521  0.0534  0.7593
10284TIP3    H230794   4.095   2.137   4.093 -0.3982 -0.5184  0.7691
10285TIP3   OH230795   5.470   3.922   2.099  0.1509  0.3232 -0.0631
10285TIP3    H130796   5.514   3.838   2.088  0.9347  0.9697 -2.5678
10285TIP3    H230797   5.379   3.905   2.072  0.6918  0.5687 -2.2259
10286TIP3   OH230798   8.363   0.193   0.418  0.0436  0.3657 -0.2887
10286TIP3    H130799   8.326   0.179   0.505  0.7137  0.3663  0.0010
10286TIP3    H230800   8.457   0.206   0.433  0.3560 -0.7375 -1.1026
10287TIP3   OH230801   6.402   2.604   3.730 -0.1647 -0.2534  0.0812
10287TIP3    H130802   6.352   2.527   3.704  0.1151 -0.2716 -0.4181
10287TIP3    H230803   6.430   2.585   3.820  0.5716 -1.0980 -0.3004
10288TIP3   OH230804   6.023   1.996   5.551  0.5579 -0.2572 -0.0556
10288TIP3    H130805   6.014   1.902   5.565  0.8584 -0.2059  0.5022
10288TIP3    H230806   5.976   2.013   5.470  0.4641 -0.8822 -0.1338
10289TIP3   OH230807   2.070   6.107   4.179 -0.2044  0.3043 -0.1284
10289TIP3    H130808   2.105   6.061   4.255  3.0824  0.8992 -1.1131
10289TIP3    H230809   2.077   6.043   4.108 -0.1405  0.7680 -0.5461
10290TIP3   OH230810   0.723   5.452   3.646 -0.5440  0.5097  0.3510
10290TIP3    H130811   0.738   5.416   3.734  0.2631 -1.5649 -0.5654
10290TIP3    H230812   0.666   5.388   3.604 -0.1530  0.9943 -0.9474
10291TIP3   OH230813   7.288   6.732   5.754 -0.5114 -0.9387 -0.3291
10291TIP3    H130814   7.243   6.772   5.680 -1.3748 -0.1860  0.5634
10291TIP3    H230815   7.343   6.802   5.789  0.3430 -1.4650 -0.6093
10292TIP3   OH230816   4.086   3.628   1.257 -0.3966  0.1547  0.0887
10292TIP3    H130817   3.994   3.637   1.231 -0.5122  1.0999  0.7508
10292TIP3    H230818   4.118   3.552   1.208 -2.3846 -2.1833  2.1509
10293TIP3   OH230819   3.897   3.377   6.566 -0.0557 -0.0903  0.3973
10293TIP3    H130820   3.909   3.393   6.660 -0.8816  1.3356  0.2738
10293TIP3    H230821   3.981   3.402   6.527  0.5564 -1.3883  0.7971
10294TIP3   OH230822   2.634   1.573   5.673 -0.2136 -0.2058  0.6304
10294TIP3    H130823   2.625   1.624   5.593 -0.9377  1.1702  1.5565
10294TIP3    H230824   2.665   1.487   5.643  1.3165  0.8231 -0.9469
10295TIP3   OH230825   8.296   0.422   4.301  0.3077  0.0908  0.3097
10295TIP3    H130826   8.248   0.459   4.375 -2.8031 -1.0703 -0.9716
10295TIP3    H230827   8.375   0.476   4.294 -1.7453  3.5506  1.3283
10296TIP3   OH230828   3.560   5.610   0.392  0.5589 -0.0433  0.2097
10296TIP3    H130829   3.567   5.521   0.427 -0.9304 -0.1942  0.1925
10296TIP3    H230830   3.534   5.663   0.467  1.3038  0.3565  0.1871
10297TIP3   OH230831   0.048   7.938   5.697 -0.3840 -0.0727 -0.1752
10297TIP3    H130832  -0.024   7.892   5.653  0.6811 -0.6373 -1.4221
10297TIP3    H230833   0.074   7.879   5.768 -0.6946 -0.1961 -0.1631
10298TIP3   OH230834   2.683   7.380   0.355 -0.5912 -0.5789 -0.3014
10298TIP3    H130835   2.620   7.422   0.296 -1.8761 -0.5887  0.9965
10298TIP3    H230836   2.762   7.432   0.346 -1.2548  0.3781 -0.8590
10299TIP3   OH230837   7.370   4.443   4.567  0.4258 -1.1838  0.1595
10299TIP3    H130838   7.317   4.459   4.489  0.4868 -1.2600  0.1031
10299TIP3    H230839   7.342   4.357   4.598 -0.8959 -0.4010  1.2494
10300TIP3   OH230840   0.197   0.141   2.895 -0.0217  0.0317  0.4181
10300TIP3    H130841   0.248   0.212   2.857  2.2262  0.1737  3.3916
10300TIP3    H230842   0.121   0.184   2.935 -0.3117  0.3416 -0.4586
10301TIP3   OH230843   1.464   5.268   3.786 -0.1930  0.2366 -0.5060
10301TIP3    H130844   1.421   5.324   3.851 -0.0283  0.6310 -0.7371
10301TIP3    H230845   1.469   5.183   3.828  1.3965  0.8621  0.6483
10302TIP3   OH230846   1.834   0.309   3.235  0.3496  0.5392  0.0246
10302TIP3    H130847   1.838   0.251   3.310  0.2094 -1.4605 -1.4442
10302TIP3    H230848   1.796   0.390   3.270 -1.4568 -0.9468  1.7264
10303TIP3   OH230849   0.734   5.739   6.202  0.5021 -0.2880  0.2963
10303TIP3    H130850   0.697   5.659   6.239 -1.1959 -0.2265 -1.1017
10303TIP3    H230851   0.675   5.808   6.231  0.5556  0.0852 -0.4487
10304TIP3   OH230852   0.736   3.488   0.949  0.2190  0.0269 -0.6151
10304TIP3    H130853   0.780   3.418   0.997  1.9774  1.0846 -0.6361
10304TIP3    H230854   0.770   3.481   0.860 -0.1816  0.4330 -0.8017
10305TIP3   OH230855   0.930   2.424   0.086  0.2074  0.1011  0.7246
10305TIP3    H130856   0.958   2.375   0.009  0.3418  1.3398 -0.0390
10305TIP3    H230857   0.984   2.388   0.157  0.6206 -0.5421  0.1105
10306TIP3   OH230858   7.524   5.292   3.589  0.3688  0.4465 -0.5136
10306TIP3    H130859   7.602   5.283   3.645  0.6712 -2.4686 -1.2102
10306TIP3    H230860   7.457   5.328   3.647  1.2989 -0.2867  1.1074
10307TIP3   OH230861   6.120   7.328   6.251 -0.1232 -0.0822 -0.1489
10307TIP3    H130862   6.054   7.385   6.212 -0.3184  0.2459  0.6453
10307TIP3    H230863   6.203   7.375   6.237 -0.2426  0.2365  0.1995
10308TIP3   OH230864   8.128   5.131   0.977 -0.0590 -0.7061  0.1577
10308TIP3    H130865   8.186   5.167   0.910 -0.5442 -1.0082 -0.4317
10308TIP3    H230866   8.185   5.075   1.030  0.7366  1.0014  1.1740
10309TIP3   OH230867   1.617   5.069   5.286 -0.5560  0.3786 -0.1321
10309TIP3    H130868   1.585   5.051   5.375 -1.0347  0.1670 -0.3405
10309TIP3    H230869   1.700   5.022   5.280 -1.4733 -1.2925 -0.4492
10310TIP3   OH230870   0.621   0.222   2.232  0.0475 -0.4708 -0.2581
10310TIP3    H130871   0.564   0.275   2.287 -0.7364 -0.7248 -0.8012
10310TIP3    H230872   0.686   0.283   2.196 -0.5823  0.0392 -0.5350
10311TIP3   OH230873   5.147   7.029   6.832  0.0099  0.4637 -0.0674
10311TIP3    H130874   5.170   7.035   6.739 -0.9790 -0.1782 -0.3601
10311TIP3    H230875   5.228   6.999   6.874  0.8114  1.8322 -0.5355
10312TIP3   OH230876   3.091   1.954   2.886 -0.2558 -0.3586 -0.3326
10312TIP3    H130877   3.148   1.894   2.932  1.4034  1.6410  0.3865
10312TIP3    H230878   3.004   1.915   2.893  0.2643 -1.2377  2.6287
10313TIP3   OH230879   6.300   5.248   4.245  0.2688 -0.1078  0.0845
10313TIP3    H130880   6.357   5.312   4.203  0.1953  0.5055  0.9018
10313TIP3    H230881   6.360   5.176   4.269  0.3471 -0.3676 -0.8334
10314TIP3   OH230882   4.069   3.624   2.655  0.6056  0.2075  0.4707
10314TIP3    H130883   3.976   3.639   2.669  0.6559 -0.1098  1.2043
10314TIP3    H230884   4.103   3.598   2.741  1.3969  0.4402  0.2437
10315TIP3   OH230885   7.338   1.536   3.828  0.1300  0.1270  0.0492
10315TIP3    H130886   7.380   1.569   3.748 -0.0113 -0.0749 -0.1092
10315TIP3    H230887   7.407   1.539   3.894  0.2296  0.3561 -0.0641
10316TIP3   OH230888   5.084   6.113   3.603 -0.3644 -0.4004  0.2295
10316TIP3    H130889   5.091   6.131   3.696 -1.4996 -0.2971  0.3089
10316TIP3    H230890   5.022   6.178   3.570  0.2872 -0.2160 -0.6647
10317TIP3   OH230891   6.565   7.178   0.113  0.2228 -0.4447 -0.3047
10317TIP3    H130892   6.612   7.214   0.188 -0.8363  0.2221  0.0624
10317TIP3    H230893   6.489   7.134   0.152 -1.3927  1.5243 -1.0553
10318TIP3   OH230894   0.084   4.211   0.782 -0.0515 -0.2175  0.0431
10318TIP3    H130895   0.060   4.180   0.870 -0.1923 -0.1435  0.0315
10318TIP3    H230896   0.024   4.165   0.723  1.4846 -1.9972 -0.2493
10319TIP3   OH230897   0.039   3.589   5.522  0.3661 -0.4465 -0.5238
10319TIP3    H130898  -0.040   3.558   5.477 -0.8273  1.1367  0.3692
10319TIP3    H230899   0.111   3.566   5.463 -0.5934 -2.9862 -0.8364
10320TIP3   OH230900   6.561   4.803   6.707  0.1242  0.6093  0.1692
10320TIP3    H130901   6.482   4.799   6.761  0.0020 -1.3894 -0.1108
10320TIP3    H230902   6.634   4.796   6.769  0.1204  2.1645  0.3969
10321TIP3   OH230903   7.256   5.579   5.895 -0.2321  0.5623 -0.6674
10321TIP3    H130904   7.291   5.649   5.951  1.3785  0.6425 -1.6924
10321TIP3    H230905   7.320   5.509   5.903 -0.2680  0.3675 -1.9568
10322TIP3   OH230906   1.373   1.924   5.598 -0.2099 -0.1263  0.1407
10322TIP3    H130907   1.342   1.875   5.674 -0.5993  1.6820  1.2117
10322TIP3    H230908   1.317   2.002   5.595 -0.0772 -0.0557 -1.9043
10323TIP3   OH230909   2.419   3.067   1.300 -0.9658  0.0153  0.3819
10323TIP3    H130910   2.418   3.142   1.241  1.5445  0.5587  0.8902
10323TIP3    H230911   2.464   2.998   1.250 -0.0720  0.0370  1.1223
10324TIP3   OH230912   3.159   7.468   1.238 -0.2533  0.1206  0.3721
10324TIP3    H130913   3.245   7.427   1.228 -0.7781 -1.0020  0.3115
10324TIP3    H230914   3.175   7.560   1.218  0.6794 -0.3040 -1.0825
10325TIP3   OH230915   5.173   5.749   0.923 -0.0018  0.2948  0.1399
10325TIP3    H130916   5.120   5.669   0.929  1.1798 -0.4648  0.8609
10325TIP3    H230917   5.142   5.803   0.996 -0.4198  0.2541 -0.0058
10326TIP3   OH230918   7.803   5.204   5.466 -0.2480  0.3199 -0.0933
10326TIP3    H130919   7.802   5.183   5.372 -2.3007 -1.0214  0.1487
10326TIP3    H230920   7.886   5.169   5.497 -0.0322 -0.2416 -1.2276
10327TIP3   OH230921   2.131   5.896   3.993 -0.2246 -0.3070 -0.0510
10327TIP3    H130922   2.101   5.806   4.005  2.2818 -1.2937 -0.5196
10327TIP3    H230923   2.136   5.908   3.898  1.5377 -0.5164 -0.0327
10328TIP3   OH230924   6.783   3.918   5.949 -0.3339 -0.1170  0.1991
10328TIP3    H130925   6.731   3.922   6.029  1.3636 -0.9766  1.4059
10328TIP3    H230926   6.790   3.824   5.929  0.1366  0.0247 -0.3590
10329TIP3   OH230927   6.475   7.773   2.514  0.0019  0.4455  0.7293
10329TIP3    H130928   6.419   7.825   2.457  0.6866 -0.7140 -1.1043
10329TIP3    H230929   6.415   7.713   2.559 -0.4555  0.6576  0.4053
10330TIP3   OH230930   6.755   7.284   4.141  0.2932  0.4181  0.3447
10330TIP3    H130931   6.845   7.265   4.112 -0.0622  0.0832 -0.5880
10330TIP3    H230932   6.748   7.243   4.227  0.3478 -1.5439 -0.5367
10331TIP3   OH230933   3.100   2.591   3.069 -0.0786  0.0450 -0.0132
10331TIP3    H130934   3.058   2.625   2.990 -0.2399  1.9230  0.8259
10331TIP3    H230935   3.028   2.564   3.125 -0.1919  2.0867  0.9106
10332TIP3   OH230936   2.554   7.459   2.834  0.5649 -0.5218 -0.0886
10332TIP3    H130937   2.570   7.533   2.893 -0.1487  0.2600 -0.8428
10332TIP3    H230938   2.611   7.477   2.758 -0.2121 -0.2992 -0.6341
10333TIP3   OH230939   0.994   2.840   2.927  0.0256 -0.1142 -0.0694
10333TIP3    H130940   0.913   2.792   2.910  0.7125 -0.8589 -1.3557
10333TIP3    H230941   0.973   2.931   2.907 -1.1321  0.1157  1.8585
10334TIP3   OH230942   1.740   6.828   2.756  0.0083 -0.0977 -0.0308
10334TIP3    H130943   1.687   6.847   2.834  0.6013  0.1079  0.3276
10334TIP3    H230944   1.725   6.902   2.698  1.1020  0.7515  0.7190
10335TIP3   OH230945   6.578   5.136   1.953  0.1006 -0.2579  0.5319
10335TIP3    H130946   6.495   5.112   1.910  1.3710 -2.3834 -0.9105
10335TIP3    H230947   6.569   5.100   2.042 -0.4113 -0.7549  0.2921
10336TIP3   OH230948   6.009   6.629   3.118  0.1773 -0.0942 -0.3180
10336TIP3    H130949   6.102   6.652   3.113  0.0661  0.8119  1.1719
10336TIP3    H230950   5.984   6.650   3.208 -1.8047  0.9428 -1.0524
10337TIP3   OH230951   7.482   1.981   5.960  0.2939  0.2188 -0.0282
10337TIP3    H130952   7.572   2.004   5.939  0.4651  0.7921  1.2525
10337TIP3    H230953   7.473   2.000   6.054 -1.0146 -0.2820 -0.0268
10338TIP3   OH230954   2.613   2.877   6.799 -0.0738 -0.5990 -0.0594
10338TIP3    H130955   2.589   2.915   6.715  0.3522 -0.7023 -0.2273
10338TIP3    H230956   2.686   2.818   6.780  0.5416 -0.0485  0.4807
10339TIP3   OH230957   7.721   2.682   0.114  0.0477 -0.7185  0.6445
10339TIP3    H130958   7.808   2.672   0.077 -0.5305 -1.1921 -0.6581
10339TIP3    H230959   7.702   2.775   0.106 -0.5400 -0.9628 -1.4837
10340TIP3   OH230960   4.492   6.835   3.756 -0.1546 -0.3046  0.1640
10340TIP3    H130961   4.455   6.748   3.744 -0.8445  0.1106 -0.8874
10340TIP3    H230962   4.455   6.865   3.839 -0.5405 -0.7055  0.1432
10341TIP3   OH230963   0.854   2.097   3.216  0.3061  0.2598 -0.1649
10341TIP3    H130964   0.789   2.166   3.228  0.4997  0.5657 -0.8502
10341TIP3    H230965   0.829   2.030   3.280  0.6074  1.3021  1.0901
10342TIP3   OH230966   1.370   0.475   5.446 -0.1943 -0.3992 -0.1481
10342TIP3    H130967   1.329   0.533   5.509  1.1184  0.1076  0.2767
10342TIP3    H230968   1.395   0.398   5.497  2.0490  0.5569  0.2978
10343TIP3   OH230969   8.211   5.639   2.187  0.1648  0.0335  0.1889
10343TIP3    H130970   8.205   5.606   2.276 -1.1698  1.0570  0.5042
10343TIP3    H230971   8.251   5.726   2.196  2.1229 -0.7377 -0.4666
10344TIP3   OH230972   6.696   6.206   4.153 -0.0677 -0.1518 -0.2920
10344TIP3    H130973   6.719   6.297   4.137 -0.6067 -0.2147 -1.5851
10344TIP3    H230974   6.772   6.169   4.197  0.4852  0.7223 -0.4922
10345TIP3   OH230975   7.545   3.670   0.406 -0.2600  0.3697 -0.1867
10345TIP3    H130976   7.462   3.700   0.368  0.1600  1.3292 -0.3852
10345TIP3    H230977   7.522   3.640   0.494 -0.9899 -0.4063 -0.6302
10346TIP3   OH230978   4.986   7.584   6.433 -0.6887 -0.2954 -0.3939
10346TIP3    H130979   4.914   7.644   6.412 -0.5884 -0.3701 -0.9558
10346TIP3    H230980   4.970   7.507   6.379 -0.7588 -0.7467  0.2491
10347TIP3   OH230981   3.770   1.039   2.896 -0.4752  0.0364 -0.1615
10347TIP3    H130982   3.794   1.029   2.804 -1.1292 -0.5408 -0.2811
10347TIP3    H230983   3.851   1.062   2.941  0.3088 -1.8975 -0.5233
10348TIP3   OH230984   7.588   2.929   6.782 -0.2150  0.1932 -0.0535
10348TIP3    H130985   7.660   2.992   6.788  1.2772 -1.2877 -1.3931
10348TIP3    H230986   7.578   2.913   6.688 -3.9042  2.0301 -0.1565
10349TIP3   OH230987   7.517   5.544   6.766  0.1703 -0.3531 -0.5880
10349TIP3    H130988   7.432   5.557   6.724  0.7869  1.1435 -1.4502
10349TIP3    H230989   7.546   5.632   6.789  0.8913 -0.9548  0.9399
10350TIP3   OH230990   6.279   6.720   4.888  0.5010  0.0775 -0.1638
10350TIP3    H130991   6.338   6.681   4.953  0.9146  1.1318  0.1244
10350TIP3    H230992   6.329   6.716   4.806  0.8446  0.6550  0.0111
10351TIP3   OH230993   5.843   4.637   4.196  0.3750 -0.4970  0.4233
10351TIP3    H130994   5.792   4.662   4.274 -0.0986  0.2484 -0.1173
10351TIP3    H230995   5.880   4.719   4.164  0.3842 -0.7682 -0.2773
10352TIP3   OH230996   5.968   7.722   4.000  0.1486  0.2883 -0.2135
10352TIP3    H130997   6.042   7.715   3.940 -0.7947 -0.4653 -1.3419
10352TIP3    H230998   5.966   7.814   4.025  0.7047  0.5714 -1.1773
10353TIP3   OH230999   5.861   5.381   0.859 -0.2734  0.2874  0.0247
10353TIP3    H131000   5.911   5.431   0.794 -1.8171  0.7267 -0.8761
10353TIP3    H231001   5.847   5.443   0.931  0.9779 -0.0353  0.5760
10354TIP3   OH231002   6.965   7.113   0.001  0.1975  0.7042  0.0788
10354TIP3    H131003   7.030   7.063   0.050 -0.1153  0.2702  0.0617
10354TIP3    H231004   6.990   7.205   0.014  0.5196  0.5642  0.4797
10355TIP3   OH231005   5.903   4.025   5.740 -0.3872 -0.3389 -0.1177
10355TIP3    H131006   5.968   3.990   5.679  0.2634  0.7267 -0.0672
10355TIP3    H231007   5.838   4.069   5.684 -0.0917  0.1476 -0.0900
10356TIP3   OH231008  -0.018   7.185   3.523 -0.8362  0.6142 -0.0505
10356TIP3    H131009  -0.050   7.135   3.598 -0.8020 -2.4484 -1.8953
10356TIP3    H231010   0.073   7.159   3.514 -0.6983  1.3293 -0.8681
10357TIP3   OH231011   7.044   4.096   1.905  0.1922 -0.2918  0.3198
10357TIP3    H131012   7.033   4.188   1.931  0.3814  0.5073 -2.1666
10357TIP3    H231013   6.963   4.075   1.857  0.6209 -1.0811 -0.0720
10358TIP3   OH231014   4.132   7.097   1.783  0.8958  0.8113  0.0173
10358TIP3    H131015   4.126   7.022   1.842  1.5541  1.0470  0.3826
10358TIP3    H231016   4.094   7.170   1.833 -0.0109  0.6706 -0.4428
10359TIP3   OH231017   6.693   2.933   5.053  0.0331  0.3368  0.2096
10359TIP3    H131018   6.653   2.989   5.120  0.2590 -0.6978  1.2359
10359TIP3    H231019   6.777   2.974   5.036  0.4764 -0.0203  1.4296
10360TIP3   OH231020   4.736   4.613   1.383 -0.1315 -0.1985 -0.0457
10360TIP3    H131021   4.764   4.608   1.292  2.3356 -0.0907  0.6424
10360TIP3    H231022   4.645   4.584   1.381 -0.2246  0.0014 -2.5519
10361TIP3   OH231023   5.293   5.073   1.880  0.3622  0.5686 -0.1088
10361TIP3    H131024   5.295   5.085   1.785  0.1873 -0.3513 -0.2351
10361TIP3    H231025   5.201   5.057   1.901  0.4338  0.5313  0.1834
10362TIP3   OH231026   5.794   2.353   3.378  0.2045 -0.2812 -0.0652
10362TIP3    H131027   5.786   2.292   3.305 -1.9335 -1.1825  0.8297
10362TIP3    H231028   5.870   2.322   3.427  1.0242 -0.2930 -1.2943
10363TIP3   OH231029   8.118   7.851   2.682  0.4467  0.4030 -0.1442
10363TIP3    H131030   8.143   7.781   2.743  1.1834  1.2820  0.5876
10363TIP3    H231031   8.134   7.932   2.731 -1.3978  1.0813 -0.5776
10364TIP3   OH231032   3.234   6.838   6.131 -0.1122 -0.3581 -0.4023
10364TIP3    H131033   3.263   6.905   6.069 -1.3507  1.9335  1.3195
10364TIP3    H231034   3.269   6.867   6.215 -2.1980 -0.8264  0.6945
10365TIP3   OH231035   3.699   4.434   6.466  0.7111 -0.5009  0.0379
10365TIP3    H131036   3.626   4.372   6.465  1.0745 -0.9319  0.1174
10365TIP3    H231037   3.731   4.434   6.376 -0.1457  0.5985 -0.2820
10366TIP3   OH231038   0.710   2.508   2.912  0.9887  0.3516 -0.1415
10366TIP3    H131039   0.735   2.553   2.993 -0.4187  0.7908  0.0894
10366TIP3    H231040   0.629   2.463   2.935  2.4053 -2.4872 -0.3429
10367TIP3   OH231041   4.217   2.540   6.038 -0.0637  0.0139  0.2831
10367TIP3    H131042   4.177   2.492   5.966  0.0815 -0.1546  0.3132
10367TIP3    H231043   4.257   2.616   5.997 -0.2685  0.0922  0.2302
10368TIP3   OH231044   6.757   2.699   5.125  0.5620  0.0500  0.1156
10368TIP3    H131045   6.742   2.791   5.102 -0.1354 -0.1368 -0.1888
10368TIP3    H231046   6.750   2.652   5.042  0.4915 -0.3336  0.3386
10369TIP3   OH231047   5.741   6.589   4.289 -0.1283 -0.5897 -0.1608
10369TIP3    H131048   5.784   6.668   4.321 -1.9252  0.5567 -0.4638
10369TIP3    H231049   5.703   6.549   4.367  0.8394 -1.2428  0.0037
10370TIP3   OH231050   0.182   7.080   6.229 -0.5843 -0.3567 -0.8454
10370TIP3    H131051   0.117   7.147   6.209  1.7411  2.0364 -0.9636
10370TIP3    H231052   0.246   7.087   6.158  1.8690  0.2835  1.2582
10371TIP3   OH231053   3.251   6.766   6.729  0.5398  0.2742  0.0733
10371TIP3    H131054   3.156   6.754   6.728  0.7089 -1.8137 -2.3574
10371TIP3    H231055   3.285   6.686   6.769  1.3116 -0.8883 -2.6835
10372TIP3   OH231056   8.205   6.877   4.541  0.8379 -0.3677  0.0438
10372TIP3    H131057   8.260   6.929   4.482  0.9827 -1.9250 -1.2669
10372TIP3    H231058   8.133   6.846   4.485 -0.8864  0.8329  1.4898
10373TIP3   OH231059   2.818   1.016   0.667  0.0259  0.4904  0.2037
10373TIP3    H131060   2.858   0.948   0.720 -1.7269 -0.7150  0.0583
10373TIP3    H231061   2.868   1.095   0.687  3.7555 -1.2342 -1.4505
10374TIP3   OH231062   2.763   0.230   0.510 -0.5550  0.7581 -0.3619
10374TIP3    H131063   2.850   0.221   0.550 -1.1637 -0.2330  0.7661
10374TIP3    H231064   2.777   0.292   0.438  0.5711  2.6831  1.4015
10375TIP3   OH231065   0.835   3.867   5.950 -0.3791  0.1393 -0.1995
10375TIP3    H131066   0.755   3.920   5.955 -0.1581  0.4543  0.0270
10375TIP3    H231067   0.875   3.893   5.867 -0.0352  0.6729  0.1262
10376TIP3   OH231068   2.728   2.497   3.539 -0.0346 -0.0275 -0.3287
10376TIP3    H131069   2.677   2.516   3.618 -0.4337  0.6148 -0.7329
10376TIP3    H231070   2.743   2.403   3.542 -0.1199 -0.0195  0.4725
10377TIP3   OH231071   0.840   2.285   4.228 -0.0593  0.6538  0.2728
10377TIP3    H131072   0.927   2.286   4.268  0.2479  0.4044 -0.3752
10377TIP3    H231073   0.850   2.229   4.151 -0.7645  0.7327  0.1192
10378TIP3   OH231074   7.677   4.315   4.601  0.2996 -0.2513 -0.3179
10378TIP3    H131075   7.755   4.260   4.595 -0.5749 -1.5802  0.1607
10378TIP3    H231076   7.619   4.282   4.533 -1.3951 -1.8945  1.7949
10379TIP3   OH231077   2.907   0.711   3.021 -0.0727 -0.3599  0.4510
10379TIP3    H131078   2.963   0.672   3.087  1.1370 -0.9152 -0.8713
10379TIP3    H231079   2.871   0.637   2.973 -1.4797  0.0131  0.8766
10380TIP3   OH231080   6.454   1.744   5.054  0.3889  0.1054 -0.6598
10380TIP3    H131081   6.416   1.721   4.970 -0.3734 -1.7157  0.1196
10380TIP3    H231082   6.541   1.777   5.033 -0.5868  1.8321 -2.2930
10381TIP3   OH231083   4.027   7.230   6.172 -0.4818 -0.0569 -0.2851
10381TIP3    H131084   3.953   7.281   6.140  0.2711  0.9217 -0.5316
10381TIP3    H231085   4.001   7.202   6.260 -0.7667  1.1042  0.0214
10382TIP3   OH231086   6.600   0.528   5.769  0.3126 -0.2215  0.2247
10382TIP3    H131087   6.544   0.573   5.832 -0.0489 -1.0564  0.5240
10382TIP3    H231088   6.664   0.481   5.822 -0.0636 -1.0204 -0.0052
10383TIP3   OH231089   2.722   7.938   2.958 -0.1396  0.0110 -0.1064
10383TIP3    H131090   2.772   7.865   2.922 -0.2839 -0.7277  1.1179
10383TIP3    H231091   2.653   7.896   3.010  0.1114  0.9982  1.0662
10384TIP3   OH231092   0.523   1.909   1.776 -0.3536  0.0245 -0.0459
10384TIP3    H131093   0.525   1.820   1.811 -1.6565 -0.0620 -0.1242
10384TIP3    H231094   0.449   1.909   1.715  0.5160  0.7833 -1.1282
10385TIP3   OH231095   5.797   3.958   1.686  0.2246 -0.2990  0.0765
10385TIP3    H131096   5.796   4.047   1.652 -1.5093 -0.3679 -0.1461
10385TIP3    H231097   5.775   3.966   1.779  0.0547 -0.4727  0.0546
10386TIP3   OH231098   2.206   3.766   1.643 -0.4581  0.0566 -0.1999
10386TIP3    H131099   2.279   3.777   1.582 -0.8261  0.4400 -0.5774
10386TIP3    H231100   2.235   3.698   1.704  0.5572  0.8042  0.1771
10387TIP3   OH231101   5.427   6.508   6.062 -0.1746  0.1843 -0.5974
10387TIP3    H131102   5.464   6.575   6.120  1.6519 -0.5631 -0.8238
10387TIP3    H231103   5.494   6.440   6.059 -1.4558 -1.0952 -1.3599
10388TIP3   OH231104   4.837   1.553   5.322  0.0032 -0.0534  0.5909
10388TIP3    H131105   4.887   1.578   5.244  0.5676  1.3683  1.3777
10388TIP3    H231106   4.752   1.525   5.288  0.6730 -0.7023 -0.6253
10389TIP3   OH231107   5.263   5.151   0.515 -0.1236 -0.6705 -0.2011
10389TIP3    H131108   5.174   5.175   0.491 -0.0047  0.1063  0.1181
10389TIP3    H231109   5.307   5.234   0.532  0.4853 -1.0758  0.2586
10390TIP3   OH231110   0.382   1.199   2.903 -0.2082 -0.5670  0.0208
10390TIP3    H131111   0.338   1.283   2.918  0.7952 -0.0848  0.3736
10390TIP3    H231112   0.431   1.184   2.984  2.3166  0.2004 -1.2441
10391TIP3   OH231113   5.959   6.678   1.589 -0.4925  0.2700  0.0638
10391TIP3    H131114   5.986   6.586   1.591 -0.3716  0.3154  0.8489
10391TIP3    H231115   6.041   6.727   1.595 -0.6289  0.4149  0.9041
10392TIP3   OH231116   6.256   1.980   2.907  0.3185 -0.1590 -0.9297
10392TIP3    H131117   6.260   2.072   2.884 -0.4182 -0.5931 -2.9845
10392TIP3    H231118   6.225   1.936   2.828  1.3414 -2.2674 -0.2502
10393TIP3   OH231119   4.797   7.757   6.314  0.2643 -0.3329  0.4004
10393TIP3    H131120   4.743   7.677   6.312  0.1425 -0.2619  0.7811
10393TIP3    H231121   4.787   7.794   6.227  0.1447 -0.6187  0.2892
10394TIP3   OH231122   6.184   1.581   2.042  0.1379 -0.2701 -0.0946
10394TIP3    H131123   6.177   1.609   2.134 -1.4640 -0.7593 -0.0342
10394TIP3    H231124   6.161   1.659   1.992 -0.1011 -0.3049 -0.0415
10395TIP3   OH231125   8.258   7.875   4.642 -0.7241 -0.0870  0.4452
10395TIP3    H131126   8.308   7.859   4.722 -0.5597  1.5104  0.7117
10395TIP3    H231127   8.228   7.789   4.614 -0.4466 -0.7275  2.0051
10396TIP3   OH231128   1.629   4.254   0.893  0.1681 -0.2809 -0.7225
10396TIP3    H131129   1.590   4.167   0.899 -1.4217  0.3212 -1.8833
10396TIP3    H231130   1.601   4.288   0.808  0.6132  1.4433 -0.2201
10397TIP3   OH231131   6.877   6.966   0.852  0.2725 -0.2477 -0.2912
10397TIP3    H131132   6.928   6.916   0.789  2.5772 -0.8926  1.9321
10397TIP3    H231133   6.922   7.049   0.860 -1.4257  0.8201 -1.2319
10398TIP3   OH231134   0.558   7.768   1.717  0.0894  0.5498  0.1450
10398TIP3    H131135   0.507   7.807   1.787  0.8309  0.5974  0.6678
10398TIP3    H231136   0.646   7.757   1.754  0.3813  0.1832 -0.6308
10399TIP3   OH231137   5.773   5.030   2.449  0.0925  0.5928  0.4907
10399TIP3    H131138   5.681   5.005   2.441  0.2734 -0.0501  0.2910
10399TIP3    H231139   5.814   4.993   2.370  1.0275 -1.5842  1.8797
10400TIP3   OH231140   6.967   4.550   2.328  0.1300  0.1969  0.0036
10400TIP3    H131141   7.061   4.565   2.333  0.0118  0.9651  0.0298
10400TIP3    H231142   6.932   4.592   2.407 -0.1349 -0.9784  0.5429
10401TIP3   OH231143   1.013   7.824   2.388 -0.0695 -0.0237 -0.0262
10401TIP3    H131144   0.957   7.840   2.312 -0.1367 -2.5189 -0.5952
10401TIP3    H231145   1.102   7.834   2.355 -0.1186  0.4071 -0.0330
10402TIP3   OH231146   4.955   0.667   3.621 -0.5237  0.2521 -0.1636
10402TIP3    H131147   5.004   0.638   3.698 -2.2906 -1.8026  0.2868
10402TIP3    H231148   4.982   0.758   3.608  0.9926  0.1733  1.9213
10403TIP3   OH231149   6.706   7.769   6.452 -0.9401  0.2730  0.5171
10403TIP3    H131150   6.761   7.838   6.416 -0.9021 -0.6604 -1.3435
10403TIP3    H231151   6.768   7.704   6.485 -0.9512  0.3635  0.7140
10404TIP3   OH231152   0.063   4.803   6.134  0.1986 -0.6405 -0.1575
10404TIP3    H131153   0.023   4.717   6.149 -0.3881 -0.2321  0.7725
10404TIP3    H231154   0.142   4.803   6.189  1.2854 -1.2911 -1.6695
10405TIP3   OH231155   0.010   0.182   1.042  0.2929 -0.5616 -0.0344
10405TIP3    H131156   0.079   0.226   1.092  0.0085 -0.5324  0.3351
10405TIP3    H231157  -0.061   0.169   1.105  0.0034 -0.6916 -0.3833
10406TIP3   OH231158   3.441   7.565   1.263  0.2179 -0.7088 -0.5143
10406TIP3    H131159   3.496   7.591   1.337 -0.7875 -0.6904  0.2458
10406TIP3    H231160   3.412   7.648   1.224 -1.7616 -0.6002  0.9947
10407TIP3   OH231161   0.748   7.176   2.654  0.0403 -0.3292  0.0066
10407TIP3    H131162   0.778   7.180   2.745  0.3001  3.6790 -0.0463
10407TIP3    H231163   0.654   7.159   2.660  0.1990 -0.9472  0.9497
10408TIP3   OH231164   1.257   7.560   2.768 -0.1909 -0.3202  0.2777
10408TIP3    H131165   1.225   7.549   2.678  1.4541  2.0426 -0.6938
10408TIP3    H231166   1.260   7.655   2.781  2.9048 -0.4808  1.5403
10409TIP3   OH231167   0.412   6.593   3.225 -0.1282 -0.1647 -0.4301
10409TIP3    H131168   0.457   6.664   3.271 -0.7404 -2.1270  3.6704
10409TIP3    H231169   0.321   6.621   3.221 -0.1633 -0.2064  0.0683
10410TIP3   OH231170   5.081   1.232   6.645  0.4023 -0.0223  0.2305
10410TIP3    H131171   5.106   1.320   6.618  0.2876  0.1368  0.6343
10410TIP3    H231172   5.161   1.181   6.638  0.4256  0.0657 -0.1894
10411TIP3   OH231173   3.661   4.057   4.768 -0.1848 -0.0590 -0.2498
10411TIP3    H131174   3.682   4.130   4.826  0.1517 -0.6973  0.4458
10411TIP3    H231175   3.698   4.082   4.684  0.4956  0.2862  0.1456
10412TIP3   OH231176   3.899   2.871   5.051  0.3106 -0.2291 -0.1731
10412TIP3    H131177   3.833   2.941   5.049 -0.8830 -1.3129 -1.5266
10412TIP3    H231178   3.975   2.910   5.094 -0.3748  1.8213 -0.7239
10413TIP3   OH231179   3.677   2.581   3.797  0.4492 -0.1115 -0.0680
10413TIP3    H131180   3.674   2.551   3.706  2.4545 -1.9752  0.4062
10413TIP3    H231181   3.752   2.641   3.800  1.9534 -1.9365  0.7868
10414TIP3   OH231182   2.508   3.511   6.567  0.0260  0.0106  0.0002
10414TIP3    H131183   2.480   3.462   6.490 -1.2538  2.5554 -1.2699
10414TIP3    H231184   2.426   3.537   6.610  0.6996 -1.6718  2.5358
10415TIP3   OH231185   1.944   5.056   1.558  0.1457  0.2434  0.4782
10415TIP3    H131186   2.038   5.071   1.571  0.5646 -0.3393 -1.5100
10415TIP3    H231187   1.920   5.114   1.487 -0.4931 -1.1297 -0.4705
10416TIP3   OH231188   6.401   0.430   0.915  0.5092  0.1772  0.6080
10416TIP3    H131189   6.413   0.407   0.822  0.0782  2.1993  0.0081
10416TIP3    H231190   6.465   0.500   0.930  0.1093  0.3229  1.6683
10417TIP3   OH231191   7.670   0.721   0.736  0.3959 -0.3340 -0.0446
10417TIP3    H131192   7.663   0.684   0.648 -2.4422 -1.1485  0.4309
10417TIP3    H231193   7.646   0.649   0.794  0.8519  0.5872  1.3357
10418TIP3   OH231194   5.538   1.005   5.898 -0.0206 -0.3598 -1.0132
10418TIP3    H131195   5.591   1.078   5.930 -0.5519 -0.5714  0.4056
10418TIP3    H231196   5.450   1.021   5.934  0.2237 -2.5407  0.7399
10419TIP3   OH231197   6.814   1.073   0.502 -0.3983  0.6283 -1.3189
10419TIP3    H131198   6.720   1.084   0.516 -0.3439  0.5447 -0.8926
10419TIP3    H231199   6.822   0.983   0.470 -0.1500 -0.5135  1.7094
10420TIP3   OH231200   0.132   1.123   0.364 -1.4569 -0.1482  0.0028
10420TIP3    H131201   0.144   1.041   0.411  0.2076  0.0387 -0.0131
10420TIP3    H231202   0.221   1.156   0.351 -2.0217  1.0441 -1.0856
10421TIP3   OH231203   4.759   7.791   2.844 -0.1984 -0.4279  0.4231
10421TIP3    H131204   4.686   7.784   2.906 -1.2178  0.6684 -0.5991
10421TIP3    H231205   4.757   7.708   2.796  0.0030 -0.8943  1.1964
10422TIP3   OH231206   5.914   2.318   1.133  0.1925 -0.2857 -0.4695
10422TIP3    H131207   5.965   2.338   1.055  1.1258  0.9316  0.4125
10422TIP3    H231208   5.894   2.403   1.171 -1.3896 -0.7968 -0.0737
10423TIP3   OH231209   4.116   5.864   4.916  0.3950  0.2591 -0.4042
10423TIP3    H131210   4.151   5.785   4.875  0.9545  0.8017 -1.0071
10423TIP3    H231211   4.164   5.873   4.998 -0.6488 -0.7726  0.3479
10424TIP3   OH231212   1.942   0.719   2.265 -0.1465  0.3176  0.0396
10424TIP3    H131213   1.965   0.667   2.342  1.7439 -0.0934 -0.7533
10424TIP3    H231214   1.958   0.660   2.191  0.5442  1.5148 -0.7939
10425TIP3   OH231215   5.437   2.018   3.762 -0.0255 -0.1843  1.0022
10425TIP3    H131216   5.372   2.037   3.695  0.3964 -0.4897  0.4988
10425TIP3    H231217   5.396   1.953   3.818  0.2394 -1.2016  0.0503
10426TIP3   OH231218   7.031   5.742   6.113  0.2178 -0.0958  0.0047
10426TIP3    H131219   6.944   5.721   6.080 -0.2121  1.1513  0.2800
10426TIP3    H231220   7.067   5.803   6.049  0.1893  0.7495  0.7806
10427TIP3   OH231221   7.781   3.344   2.142 -0.0869 -0.3521  0.2557
10427TIP3    H131222   7.740   3.390   2.068  0.4382  0.6723  0.5781
10427TIP3    H231223   7.784   3.252   2.114  0.4092  0.0561 -1.1554
10428TIP3   OH231224  -0.001   0.275   5.480 -0.6479 -0.0441  0.1600
10428TIP3    H131225   0.048   0.275   5.398 -1.0211  1.9542 -0.1191
10428TIP3    H231226   0.027   0.195   5.525  0.8454 -0.3134 -1.1541
10429TIP3   OH231227   2.384   5.487   0.613 -0.0216  0.1774 -0.6301
10429TIP3    H131228   2.413   5.450   0.530 -0.3607 -1.9621  0.1368
10429TIP3    H231229   2.289   5.477   0.612 -0.1345  1.0867 -0.3955
10430TIP3   OH231230   2.551   3.666   0.235  0.0116 -0.1994  0.2110
10430TIP3    H131231   2.479   3.715   0.275  1.1251  1.5878  0.0920
10430TIP3    H231232   2.585   3.724   0.167  0.2465 -1.8758 -1.1677
10431TIP3   OH231233   8.244   6.897   5.296  0.1515 -0.0882  0.0394
10431TIP3    H131234   8.263   6.969   5.236  2.0713  0.1418  0.8525
10431TIP3    H231235   8.180   6.933   5.357 -1.3161 -0.1149 -1.4059
10432TIP3   OH231236   7.626   2.178   2.650 -0.1749  0.9170  0.3725
10432TIP3    H131237   7.666   2.257   2.687 -0.7180  0.3677  2.2492
10432TIP3    H231238   7.552   2.160   2.708 -2.1266  0.8873 -1.9314
10433TIP3   OH231239   3.406   3.605   2.891  0.4070 -0.0854 -0.5472
10433TIP3    H131240   3.349   3.612   2.968  1.0150 -1.4327  0.0506
10433TIP3    H231241   3.345   3.592   2.818 -0.0934 -0.9137  0.0008
10434TIP3   OH231242   7.567   7.477   4.325 -0.1044 -0.5815 -0.4655
10434TIP3    H131243   7.509   7.451   4.395  1.1148  0.7763  1.1481
10434TIP3    H231244   7.509   7.511   4.257 -1.2775 -1.0838  0.2517
10435TIP3   OH231245   3.043   7.106   6.741 -0.2651 -0.8440 -0.0529
10435TIP3    H131246   2.996   7.061   6.811  0.2803 -2.1123 -0.4613
10435TIP3    H231247   2.984   7.099   6.665 -0.7934  0.4023  0.2168
10436TIP3   OH231248   4.521   1.923   1.513 -0.2309  0.0730 -0.6526
10436TIP3    H131249   4.457   1.989   1.537  0.9174  0.9282  0.1871
10436TIP3    H231250   4.583   1.969   1.456 -0.3730 -0.7345 -1.4643
10437TIP3   OH231251   1.960   0.409   1.482  0.3059  0.6013  0.1450
10437TIP3    H131252   1.983   0.497   1.452  2.2567 -0.1994 -0.9465
10437TIP3    H231253   2.031   0.385   1.541  0.8472 -0.9070 -1.0475
10438TIP3   OH231254   2.886   6.587   5.501 -0.0343 -0.2210  0.0273
10438TIP3    H131255   2.811   6.530   5.518  0.1614 -0.4399  0.1630
10438TIP3    H231256   2.963   6.531   5.517  0.1724 -0.5528 -1.8861
10439TIP3   OH231257   4.175   1.626   1.429 -0.5802  0.3421  0.6816
10439TIP3    H131258   4.177   1.540   1.388 -0.4710  1.4505 -1.8679
10439TIP3    H231259   4.264   1.639   1.461 -0.8688 -0.8825  2.0659
10440TIP3   OH231260   4.157   3.082   4.603 -0.1029  0.2912 -0.1160
10440TIP3    H131261   4.082   3.049   4.553 -0.1949  1.5516 -0.8563
10440TIP3    H231262   4.155   3.032   4.685  0.2516 -2.0729 -1.4533
10441TIP3   OH231263   3.028   2.211   0.627  0.3343  0.6230 -0.4302
10441TIP3    H131264   3.078   2.156   0.688 -0.8509  1.7177  1.6395
10441TIP3    H231265   3.062   2.299   0.641 -2.0873  1.4191  1.1012
10442TIP3   OH231266   2.418   5.151   6.766 -0.6369  0.0901  0.5007
10442TIP3    H131267   2.413   5.160   6.861  0.1180 -0.6073  0.6221
10442TIP3    H231268   2.499   5.102   6.751 -1.0378 -0.2961 -0.4713
10443TIP3   OH231269   7.754   3.846   1.188  0.0630  0.1133  0.1858
10443TIP3    H131270   7.734   3.850   1.282  1.9834  2.2414  0.5935
10443TIP3    H231271   7.668   3.852   1.145 -0.6956  1.6286  1.7937
10444TIP3   OH231272   7.795   5.594   4.644  0.2203  0.4798  0.3772
10444TIP3    H131273   7.756   5.516   4.682  0.6502 -0.3503 -0.8343
10444TIP3    H231274   7.738   5.617   4.571  0.8866  0.4156 -0.1792
10445TIP3   OH231275   0.377   2.682   3.943  0.0691  0.5271  0.1030
10445TIP3    H131276   0.425   2.606   3.976 -1.3286 -0.1728  0.5844
10445TIP3    H231277   0.294   2.646   3.911 -0.6000  1.8399  0.2929
10446TIP3   OH231278   2.598   4.605   0.144  0.2285 -0.0638 -0.2356
10446TIP3    H131279   2.512   4.648   0.149  0.1728 -0.2152  0.0963
10446TIP3    H231280   2.596   4.557   0.061 -0.8583 -1.8840  0.7728
10447TIP3   OH231281   2.239   7.351   6.852 -0.4007  0.0416 -0.0382
10447TIP3    H131282   2.287   7.376   6.773 -1.1817 -0.6695 -0.7746
10447TIP3    H231283   2.305   7.311   6.909 -0.1782 -1.4755 -1.2754
10448TIP3   OH231284   4.771   2.897   3.946  0.5356  0.1722  0.5539
10448TIP3    H131285   4.676   2.904   3.942  0.5881  0.3900 -0.7248
10448TIP3    H231286   4.795   2.855   3.863  1.5451  0.0087  0.9165
10449TIP3   OH231287   0.795   2.110   2.090 -0.3089  0.0029  0.1767
10449TIP3    H131288   0.880   2.142   2.061  0.5178 -2.1974  0.0322
10449TIP3    H231289   0.788   2.140   2.180 -0.4006  2.0692 -0.4636
10450TIP3   OH231290   4.011   6.778   6.597 -0.1723 -0.1977 -0.0864
10450TIP3    H131291   3.934   6.745   6.550  0.2729  0.6693 -1.5127
10450TIP3    H231292   4.040   6.704   6.650 -1.1439 -1.0025 -0.6275
10451TIP3   OH231293   0.621   7.838   1.361  0.1063  0.4035  0.5246
10451TIP3    H131294   0.576   7.912   1.402  1.7011  1.0600  1.1856
10451TIP3    H231295   0.565   7.762   1.380 -0.2625  1.0293  2.1283
10452TIP3   OH231296   8.401   4.877   5.567 -0.5366  0.4145  0.0758
10452TIP3    H131297   8.402   4.832   5.652 -0.5158 -0.8775 -0.5954
10452TIP3    H231298   8.381   4.968   5.589  0.0799  0.2318  1.5254
10453TIP3   OH231299   5.725   0.936   6.264 -0.6512  0.4676  0.5198
10453TIP3    H131300   5.794   0.870   6.249 -1.2214  0.1795 -0.9789
10453TIP3    H231301   5.765   1.018   6.236 -1.3039  0.1076 -1.6798
10454TIP3   OH231302   7.053   7.758   4.217  0.0148  0.3975  0.2855
10454TIP3    H131303   7.135   7.800   4.245  0.2701  0.1230 -0.0489
10454TIP3    H231304   7.079   7.698   4.148 -0.5951  0.9713 -0.4595
10455TIP3   OH231305   4.023   0.168   1.383  1.2015 -0.2865  0.6068
10455TIP3    H131306   3.954   0.161   1.317 -0.0571  0.4868  1.7728
10455TIP3    H231307   4.081   0.236   1.350  0.1137  0.7074  0.6618
10456TIP3   OH231308   5.138   1.121   3.576 -0.1775 -0.4076  0.0126
10456TIP3    H131309   5.080   1.045   3.570  0.5899 -1.0001  0.0836
10456TIP3    H231310   5.078   1.195   3.592 -0.9696 -0.9152 -0.5092
10457TIP3   OH231311   3.797   1.503   0.954 -0.4010 -0.1824 -0.0854
10457TIP3    H131312   3.880   1.459   0.934 -0.8095 -0.9200 -0.2053
10457TIP3    H231313   3.806   1.531   1.045  0.9083  1.8997 -0.7773
10458TIP3   OH231314   0.234   6.433   2.694 -0.2222  0.8134 -0.2893
10458TIP3    H131315   0.294   6.377   2.645 -0.5902  0.4321 -0.3047
10458TIP3    H231316   0.291   6.482   2.753  0.2674  1.5179 -1.3102
10459TIP3   OH231317   2.996   4.991   2.247  0.1229  0.2154 -0.0836
10459TIP3    H131318   3.000   5.083   2.220 -1.2606 -0.0745 -1.3959
10459TIP3    H231319   3.083   4.956   2.228  0.3238  0.9764 -0.6131
10460TIP3   OH231320   5.681   4.342   0.994  0.1514 -0.0140 -0.7727
10460TIP3    H131321   5.754   4.282   0.979 -1.1112 -1.6657 -0.5201
10460TIP3    H231322   5.676   4.351   1.089  0.2664  0.4340 -0.8042
10461TIP3   OH231323   5.782   2.659   4.890  0.4318 -0.0283 -0.3331
10461TIP3    H131324   5.731   2.690   4.966  0.6366 -0.1337 -0.1500
10461TIP3    H231325   5.817   2.738   4.851 -0.6917  0.1334 -1.0576
10462TIP3   OH231326   8.214   5.006   6.153 -0.2446 -0.0780  0.1848
10462TIP3    H131327   8.175   4.962   6.228  0.8976 -2.9607 -0.7706
10462TIP3    H231328   8.190   4.952   6.078  1.4289  0.8063 -1.0702
10463TIP3   OH231329   5.244   4.619   3.743  1.0591  0.5825  0.0948
10463TIP3    H131330   5.241   4.713   3.757  0.3827  0.4437  0.9592
10463TIP3    H231331   5.327   4.591   3.781  1.8981  0.9861 -1.3427
10464TIP3   OH231332   0.856   0.328   3.745  0.3660 -0.0109  0.0867
10464TIP3    H131333   0.911   0.251   3.760  1.4083  0.2839 -1.8782
10464TIP3    H231334   0.918   0.397   3.722 -0.6187  1.2318  1.0553
10465TIP3   OH231335   6.444   0.340   3.279  0.1497 -0.4069 -0.1886
10465TIP3    H131336   6.506   0.354   3.350 -0.2380  0.8831 -0.0672
10465TIP3    H231337   6.383   0.274   3.312  0.1469 -0.0308  0.5736
10466TIP3   OH231338   0.681   1.227   3.407  0.1104  0.1274 -0.6077
10466TIP3    H131339   0.694   1.135   3.387 -0.3853 -0.2538  0.7404
10466TIP3    H231340   0.659   1.229   3.500  0.5492  1.6442 -0.5068
10467TIP3   OH231341   0.608   6.389   1.412 -0.1155 -0.4175  0.0792
10467TIP3    H131342   0.635   6.435   1.333 -0.9859 -2.4169 -1.4718
10467TIP3    H231343   0.529   6.435   1.442  0.5351  0.6843  0.1480
10468TIP3   OH231344   1.691   1.955   2.079 -0.1375 -0.9823  0.2868
10468TIP3    H131345   1.688   1.869   2.119 -0.7918 -1.0656  0.0593
10468TIP3    H231346   1.644   1.946   1.997 -0.5487 -0.3153  0.4385
10469TIP3   OH231347   3.584   5.010   1.778 -0.2294  0.3507  0.0991
10469TIP3    H131348   3.504   4.966   1.750  0.4129 -0.2438 -0.8807
10469TIP3    H231349   3.587   4.998   1.873 -1.8197  1.2988  0.2881
10470TIP3   OH231350   4.230   6.984   2.150  0.0153 -0.2291 -0.4446
10470TIP3    H131351   4.262   7.044   2.218 -2.0328 -0.3006  0.6602
10470TIP3    H231352   4.226   6.899   2.193 -1.7694 -0.1816 -0.4663
10471TIP3   OH231353   2.710   5.483   4.541 -0.1322  0.3620  1.4018
10471TIP3    H131354   2.636   5.435   4.576  0.2707 -0.0434  1.7018
10471TIP3    H231355   2.671   5.560   4.498 -0.8783 -0.7715 -0.0466
10472TIP3   OH231356   1.062   6.974   2.492 -0.0237 -0.1430 -0.7638
10472TIP3    H131357   1.113   6.893   2.501 -0.4514 -0.2860  0.7731
10472TIP3    H231358   0.972   6.947   2.511  0.0090  0.8889  1.0982
10473TIP3   OH231359   3.855   3.328   5.682 -0.4005  0.5550  0.1668
10473TIP3    H131360   3.874   3.291   5.596 -0.9653 -0.6015  0.5146
10473TIP3    H231361   3.939   3.327   5.728 -0.0484  1.3913 -0.4304
10474TIP3   OH231362   0.038   3.717   4.883  0.1358  0.7862  0.1417
10474TIP3    H131363   0.127   3.682   4.880  0.1384  0.5873  1.7086
10474TIP3    H231364   0.037   3.783   4.814  1.2392  0.2167 -0.4589
10475TIP3   OH231365   2.699   6.899   1.849  0.5430 -0.0976  0.1031
10475TIP3    H131366   2.733   6.977   1.893  1.5894  0.1151 -1.0360
10475TIP3    H231367   2.723   6.911   1.757 -0.1084 -1.3225 -0.2438
10476TIP3   OH231368   7.186   2.090   2.644 -0.3332 -0.0839  0.2546
10476TIP3    H131369   7.091   2.083   2.635 -0.4923  2.7739 -1.6828
10476TIP3    H231370   7.220   2.032   2.576 -0.8598  1.1891 -1.1606
10477TIP3   OH231371   7.213   7.507   5.643 -0.0657  0.1464 -0.2602
10477TIP3    H131372   7.127   7.501   5.686  0.2380  1.7681  0.6554
10477TIP3    H231373   7.254   7.422   5.661 -0.3869  0.3748  1.7627
10478TIP3   OH231374   6.672   7.571   3.572  0.0276  0.1932 -0.3430
10478TIP3    H131375   6.675   7.657   3.612  1.1936  1.2258 -2.4774
10478TIP3    H231376   6.597   7.575   3.512  1.4276  0.6102 -2.1535
10479TIP3   OH231377   5.617   1.882   6.050  0.1321 -0.1054 -0.3464
10479TIP3    H131378   5.580   1.901   6.136 -0.9537 -0.6863 -0.6604
10479TIP3    H231379   5.682   1.814   6.067  0.5939  0.4491  0.1353
10480TIP3   OH231380   4.455   7.051   6.625  0.3036  0.5405  0.0639
10480TIP3    H131381   4.381   6.994   6.604  0.3387  0.3921  0.3328
10480TIP3    H231382   4.417   7.122   6.677  0.2946  0.6474 -0.0887
10481TIP3   OH231383   2.615   0.017   3.869  0.4026 -0.7318 -0.2205
10481TIP3    H131384   2.557  -0.039   3.817  1.3833 -1.5811 -0.4541
10481TIP3    H231385   2.604   0.104   3.832  1.1349 -1.3287 -1.9733
10482TIP3   OH231386   0.233   1.592   1.443  0.0226  0.2696  0.4882
10482TIP3    H131387   0.261   1.521   1.386  1.6017 -1.0536  2.7586
10482TIP3    H231388   0.303   1.657   1.438  1.2726 -0.8295  2.4428
10483TIP3   OH231389   7.689   0.844   1.206  0.2241  0.1964  0.4341
10483TIP3    H131390   7.735   0.916   1.249  1.0806 -0.2309  0.2696
10483TIP3    H231391   7.597   0.857   1.228  0.6753 -0.4105  3.0672
10484TIP3   OH231392   4.487   4.348   3.382 -0.1463  0.4067 -0.2485
10484TIP3    H131393   4.541   4.401   3.441 -2.7723  0.6230  2.1820
10484TIP3    H231394   4.483   4.262   3.424 -0.3348 -0.1108 -1.2858
10485TIP3   OH231395   7.775   3.923   0.075  0.1774 -0.0560 -0.1466
10485TIP3    H131396   7.703   3.939   0.136  0.8079 -0.1956  0.6528
10485TIP3    H231397   7.854   3.928   0.129  0.8640  1.2238 -1.1985
10486TIP3   OH231398   5.058   3.294   2.120  0.8061  0.0823  0.8210
10486TIP3    H131399   4.997   3.367   2.130  0.1664 -0.1781 -0.9259
10486TIP3    H231400   5.030   3.231   2.186 -0.0132  0.5000  0.8912
10487TIP3   OH231401   8.365   6.562   1.526  0.3750  0.4497  0.2904
10487TIP3    H131402   8.408   6.558   1.612 -3.5611  1.6128  2.6330
10487TIP3    H231403   8.371   6.654   1.501 -2.5038  1.2097  1.9049
10488TIP3   OH231404   0.455   3.833   4.771 -0.2995 -0.2003  0.1680
10488TIP3    H131405   0.542   3.863   4.743 -0.4275 -0.7486 -0.8495
10488TIP3    H231406   0.458   3.838   4.866  1.5456 -2.1156  0.2735
10489TIP3   OH231407   3.247   3.507   5.377 -0.0861  0.1368 -0.0291
10489TIP3    H131408   3.236   3.425   5.425 -0.0560  1.0564  1.6447
10489TIP3    H231409   3.215   3.489   5.289  0.3279 -1.7801  0.1766
10490TIP3   OH231410   4.581   0.910   3.504  0.0929 -0.6608 -0.2206
10490TIP3    H131411   4.633   0.952   3.573  2.8678  0.6026 -2.8598
10490TIP3    H231412   4.578   0.974   3.433 -1.6476 -2.3274 -1.7727
10491TIP3   OH231413   2.230   5.949   5.032  0.5452 -0.3734  0.1849
10491TIP3    H131414   2.207   6.041   5.048  3.5450  0.5840 -0.2932
10491TIP3    H231415   2.251   5.914   5.119  0.1544 -0.3703  0.2811
10492TIP3   OH231416   0.010   3.245   1.344  0.0116  0.0021  0.1092
10492TIP3    H131417   0.049   3.333   1.346  0.9632 -0.4068  0.1894
10492TIP3    H231418  -0.039   3.242   1.262  2.0346 -0.2277 -1.1605
10493TIP3   OH231419   7.441   5.580   2.167  0.2273  0.1737 -0.5839
10493TIP3    H131420   7.400   5.552   2.248  0.3343  1.1522 -0.1783
10493TIP3    H231421   7.410   5.518   2.101 -0.8134  0.0950 -0.0289
10494TIP3   OH231422   3.118   7.161   0.564  0.1932  0.0591 -0.0727
10494TIP3    H131423   3.158   7.091   0.616  3.1342  1.5557 -0.0906
10494TIP3    H231424   3.167   7.160   0.482 -1.6092  0.3973 -1.2127
10495TIP3   OH231425   6.910   3.218   1.737  0.3418 -0.5567 -0.2253
10495TIP3    H131426   6.923   3.307   1.770 -0.3436 -0.8698  0.9409
10495TIP3    H231427   6.998   3.181   1.733  0.5530 -0.0960  0.0757
10496TIP3   OH231428   3.505   3.120   0.392  0.0974 -0.0343 -0.1550
10496TIP3    H131429   3.434   3.170   0.351 -0.7645 -0.0512  1.2302
10496TIP3    H231430   3.466   3.035   0.412  0.4211  0.0395  0.8491
10497TIP3   OH231431   5.554   0.636   2.043  0.4474  0.0809  0.4377
10497TIP3    H131432   5.526   0.545   2.035  1.3094 -0.2266  0.8180
10497TIP3    H231433   5.622   0.646   1.977 -0.1691  0.6744 -0.1247
10498TIP3   OH231434   2.784   0.783   1.578  0.0199  0.3960  0.0639
10498TIP3    H131435   2.706   0.790   1.633 -0.7084 -1.6068 -0.6488
10498TIP3    H231436   2.856   0.803   1.638 -0.7855 -1.2703  1.6969
10499TIP3   OH231437   6.377   0.109   3.781  0.2819  0.2781  0.2303
10499TIP3    H131438   6.343   0.198   3.774  0.7728  0.4557  0.1003
10499TIP3    H231439   6.329   0.070   3.854  0.4140  0.8009  0.5914
10500TIP3   OH231440   0.198   2.459   0.116  0.6597  1.6120  0.4546
10500TIP3    H131441   0.279   2.411   0.130 -0.7427 -0.9890  0.2919
10500TIP3    H231442   0.199   2.481   0.023  1.1825  1.6008  0.4572
10501TIP3   OH231443   1.202   6.635   2.308 -0.5255 -0.9110 -0.4713
10501TIP3    H131444   1.296   6.620   2.295 -0.3335  0.4225 -0.8160
10501TIP3    H231445   1.194   6.663   2.399 -0.8369 -2.6267  0.0680
10502TIP3   OH231446   1.895   2.843   2.044 -0.3611 -0.0458  0.3084
10502TIP3    H131447   1.936   2.760   2.066  0.1724  0.4179  1.1134
10502TIP3    H231448   1.864   2.831   1.954  2.8008  0.0306 -0.9231
10503TIP3   OH231449   7.730   1.835   3.636  0.7480 -0.2348 -0.7064
10503TIP3    H131450   7.764   1.923   3.619  1.3525 -0.4482 -0.6158
10503TIP3    H231451   7.710   1.799   3.550 -0.2927  0.2931 -0.7046
10504TIP3   OH231452   4.525   2.746   3.643 -0.3617  0.1018  0.2674
10504TIP3    H131453   4.465   2.686   3.600  0.0887 -1.8037  2.1631
10504TIP3    H231454   4.605   2.696   3.655  0.9777  1.9565 -0.4179
10505TIP3   OH231455   8.346   6.083   2.495  0.2835  0.2517  0.4524
10505TIP3    H131456   8.326   6.170   2.529  0.8165  1.1557 -1.3762
10505TIP3    H231457   8.437   6.067   2.520  0.3769  0.4992  0.2735
10506TIP3   OH231458   6.216   6.280   6.555  0.1885 -0.3421 -0.3234
10506TIP3    H131459   6.258   6.197   6.579 -2.4522 -1.2548  1.5875
10506TIP3    H231460   6.286   6.345   6.563  1.7518 -2.0416  0.5697
10507TIP3   OH231461   2.051   4.787   1.409  0.4389 -0.3625 -0.0276
10507TIP3    H131462   2.113   4.831   1.350  2.5753 -1.5533  1.2111
10507TIP3    H231463   2.013   4.857   1.462 -0.4880  0.5603 -1.8181
10508TIP3   OH231464   7.063   7.280   6.306  0.2787 -0.0500  0.2838
10508TIP3    H131465   7.131   7.277   6.238  0.2086 -2.4476  0.2407
10508TIP3    H231466   6.998   7.215   6.278 -2.1950  2.2919  0.2301
10509TIP3   OH231467   1.197   0.483   0.029 -0.1753  0.4829  0.4307
10509TIP3    H131468   1.134   0.546   0.064 -1.5805 -1.6238  1.8931
10509TIP3    H231469   1.148   0.434  -0.036  0.9515  0.9281 -0.8052
10510TIP3   OH231470   6.658   0.330   4.132 -0.2206  0.2821  0.2385
10510TIP3    H131471   6.589   0.269   4.156 -0.9090  0.8631 -0.1822
10510TIP3    H231472   6.646   0.343   4.038 -0.2039  1.1777  0.3473
10511TIP3   OH231473   4.453   2.280   3.251  0.1120 -0.0526 -0.1384
10511TIP3    H131474   4.531   2.311   3.297 -0.5124  1.5324 -0.1051
10511TIP3    H231475   4.486   2.253   3.165  0.7691  0.2356  0.0175
10512TIP3   OH231476   5.695   2.316   5.852 -0.1917 -0.0187 -0.1039
10512TIP3    H131477   5.661   2.405   5.843  0.6485  0.1732 -1.7914
10512TIP3    H231478   5.655   2.283   5.932 -2.7947  0.8593 -0.9592
10513TIP3   OH231479   1.646   6.119   4.758  0.1395 -0.1436  0.1345
10513TIP3    H131480   1.693   6.110   4.675 -1.3352 -0.7513 -0.6776
10513TIP3    H231481   1.675   6.203   4.794  0.9484  0.0327 -0.8903
10514TIP3   OH231482   2.943   5.929   5.441  0.1781  0.4712 -0.0915
10514TIP3    H131483   2.914   5.855   5.388  0.5986  0.5593 -0.4524
10514TIP3    H231484   3.013   5.892   5.495 -0.6604  0.2320  0.8520
10515TIP3   OH231485   3.554   6.176   1.824 -0.1583 -0.1408  0.2491
10515TIP3    H131486   3.485   6.111   1.813 -0.4768  0.4820 -1.9348
10515TIP3    H231487   3.578   6.170   1.916 -1.8008 -1.6919  0.6372
10516TIP3   OH231488   2.616   1.182   0.969  0.2788  0.3412  0.3977
10516TIP3    H131489   2.592   1.259   0.916  0.8087  0.6490  0.5979
10516TIP3    H231490   2.667   1.218   1.041 -1.8233  0.1407  2.0798
10517TIP3   OH231491   2.134   5.496   6.285  0.0496  0.1785  0.4928
10517TIP3    H131492   2.189   5.510   6.362 -0.3572 -0.2220  0.8680
10517TIP3    H231493   2.150   5.405   6.261  0.4467  0.4053 -0.1214
10518TIP3   OH231494   1.445   7.099   0.384 -0.1528 -0.5346 -0.0724
10518TIP3    H131495   1.432   7.083   0.477  0.5028  2.0066  0.5360
10518TIP3    H231496   1.378   7.164   0.361  1.2327  0.7314 -0.7182
10519TIP3   OH231497   3.192   4.615   2.764  0.3860 -0.1803  0.2252
10519TIP3    H131498   3.235   4.667   2.832  2.1497 -1.6935  0.3620
10519TIP3    H231499   3.202   4.524   2.793 -0.3926 -0.7480 -1.1805
10520TIP3   OH231500   0.980   4.169   5.969 -0.3888 -0.6760  0.1998
10520TIP3    H131501   0.961   4.205   6.056  1.3524  1.1981 -0.1239
10520TIP3    H231502   1.047   4.103   5.985  1.1978  0.8509  0.1862
10521TIP3   OH231503   2.041   1.333   5.661 -0.2076 -0.1397 -0.5119
10521TIP3    H131504   2.066   1.338   5.569  1.6866 -2.6425 -0.2442
10521TIP3    H231505   1.972   1.268   5.664  1.3032 -1.8021  0.0110
10522TIP3   OH231506   5.625   4.765   1.079 -0.8725  0.4588  0.2923
10522TIP3    H131507   5.650   4.706   1.008  0.8208 -0.8205  1.8183
10522TIP3    H231508   5.572   4.710   1.137 -2.2759  1.4921  0.0110
10523TIP3   OH231509   1.036   2.551   6.630  0.5736 -0.1014  0.5490
10523TIP3    H131510   1.090   2.515   6.700  1.6315 -1.1601 -0.7745
10523TIP3    H231511   1.098   2.592   6.570 -0.4426  2.1892  0.9647
10524TIP3   OH231512   1.238   2.427   0.050  0.0809 -0.4781  0.1105
10524TIP3    H131513   1.213   2.395   0.137 -0.7280 -0.1149  0.0183
10524TIP3    H231514   1.243   2.348  -0.003 -1.1552 -0.5488  0.0713
10525TIP3   OH231515   4.653   2.855   3.272 -0.5874  0.2924  0.2220
10525TIP3    H131516   4.676   2.819   3.187 -0.1465 -0.0810  0.4900
10525TIP3    H231517   4.563   2.885   3.262 -0.9801 -0.8963 -0.0224
10526TIP3   OH231518   6.762   4.330   0.872  0.7877 -0.0009 -0.3556
10526TIP3    H131519   6.700   4.280   0.926 -0.3007  0.2870 -1.2997
10526TIP3    H231520   6.825   4.265   0.842  0.2152 -0.5434 -0.3983
10527TIP3   OH231521   0.467   5.695   5.567  0.6462 -0.0298 -0.0284
10527TIP3    H131522   0.503   5.608   5.580  1.5289  0.4229  0.7031
10527TIP3    H231523   0.469   5.735   5.654  1.1094  1.0269 -0.5033
10528TIP3   OH231524   1.964   7.925   0.564  0.7200  0.4146 -0.0977
10528TIP3    H131525   1.874   7.892   0.573  0.8645  0.3708  1.5387
10528TIP3    H231526   2.004   7.869   0.498  0.0882 -0.8028  0.5194
10529TIP3   OH231527   6.360   0.898   3.796  0.2630  0.2554 -0.2680
10529TIP3    H131528   6.343   0.909   3.890 -1.4423 -0.3700 -0.4542
10529TIP3    H231529   6.429   0.832   3.792  1.1253  1.0795  0.5483
10530TIP3   OH231530   6.725   6.096   1.609 -0.0006 -0.4849 -0.1302
10530TIP3    H131531   6.794   6.139   1.558  0.8460  0.7877  1.9330
10530TIP3    H231532   6.654   6.159   1.610  0.2193 -0.2384  0.7162
10531TIP3   OH231533   3.935   7.067   4.146  0.1253 -0.0105  0.1198
10531TIP3    H131534   3.933   6.978   4.111  1.6577 -0.4921  1.1591
10531TIP3    H231535   3.965   7.121   4.074  1.4706 -0.7011  0.1419
10532TIP3   OH231536   1.090   3.266   4.338  0.2023 -0.3874  0.2356
10532TIP3    H131537   1.006   3.275   4.293  0.0445  0.1841  0.6295
10532TIP3    H231538   1.156   3.275   4.269 -0.0418  0.1693  0.0729
10533TIP3   OH231539   8.196   3.469   3.055 -0.5919  0.7733  0.2271
10533TIP3    H131540   8.196   3.377   3.030 -1.0015  1.0457 -0.8429
10533TIP3    H231541   8.106   3.498   3.042 -0.9106  0.9000  2.3028
10534TIP3   OH231542   0.603   7.013   0.443 -0.2563  0.0873 -0.2879
10534TIP3    H131543   0.509   6.993   0.443 -0.4634  1.0240  0.0488
10534TIP3    H231544   0.626   7.019   0.535  0.2799 -0.7312 -0.3578
10535TIP3   OH231545   5.577   2.829   2.185  0.2755 -0.0039  0.2375
10535TIP3    H131546   5.645   2.761   2.189 -0.5952 -0.8249  2.2159
10535TIP3    H231547   5.600   2.890   2.256  0.5307  1.3031 -0.9310
10536TIP3   OH231548   5.912   7.123   0.914 -0.3529  0.2828 -0.0077
10536TIP3    H131549   5.863   7.148   0.836 -0.9437 -0.0035  0.2617
10536TIP3    H231550   5.978   7.191   0.924 -0.6617  0.6505 -0.4115
10537TIP3   OH231551   7.591   6.825   1.543  0.2893 -0.2854 -0.2099
10537TIP3    H131552   7.633   6.750   1.585  0.5305  0.0634  0.1887
10537TIP3    H231553   7.665   6.878   1.512  0.1147 -0.4545 -0.9270
10538TIP3   OH231554   3.874   4.294   2.830 -0.1584  0.4802  0.4352
10538TIP3    H131555   3.938   4.365   2.824 -1.0072  1.2057 -0.4206
10538TIP3    H231556   3.825   4.299   2.748 -1.4541  0.0825  1.1569
10539TIP3   OH231557   5.058   1.085   1.741  0.1319 -0.2768  0.4930
10539TIP3    H131558   5.053   1.079   1.836 -0.1315 -0.8542  0.4450
10539TIP3    H231559   5.144   1.125   1.724  1.2146 -2.2918  0.9055
10540TIP3   OH231560   0.785   6.414   2.186  0.0194  0.3816  0.0108
10540TIP3    H131561   0.880   6.423   2.198  0.0079  0.1466  0.3098
10540TIP3    H231562   0.776   6.352   2.114  0.1022 -0.6218  0.8359
10541TIP3   OH231563   5.289   7.284   3.319 -0.2469 -0.1567  0.1015
10541TIP3    H131564   5.369   7.238   3.345  1.3368  1.7318 -1.1460
10541TIP3    H231565   5.252   7.316   3.401  1.0139  0.0434  0.6164
10542TIP3   OH231566   3.138   5.774   1.403  0.1683  0.2059 -0.2633
10542TIP3    H131567   3.211   5.770   1.341 -0.3468 -0.0423 -0.8614
10542TIP3    H231568   3.160   5.847   1.462  0.0303  1.2925 -1.5251
10543TIP3   OH231569   1.835   1.346   0.577  0.5775 -0.0710 -0.1558
10543TIP3    H131570   1.798   1.342   0.666 -1.3699 -1.6085 -0.9555
10543TIP3    H231571   1.770   1.393   0.526  0.5821 -1.1491 -1.2036
10544TIP3   OH231572   4.414   0.056   6.868 -0.0805 -0.1818 -0.8251
10544TIP3    H131573   4.375  -0.029   6.849  0.8409 -0.5653 -1.0529
10544TIP3    H231574   4.381   0.113   6.798  2.0981 -1.2323 -2.8865
10545TIP3   OH231575   3.830   4.322   3.283 -0.3099  0.1700 -0.1059
10545TIP3    H131576   3.764   4.332   3.351 -0.3443 -2.0080  0.2628
10545TIP3    H231577   3.910   4.358   3.321 -0.3803 -0.8347  1.0214
10546TIP3   OH231578   6.177   2.418   3.251 -0.0499  0.0045  0.4882
10546TIP3    H131579   6.120   2.443   3.323 -0.4575  0.2515  0.0824
10546TIP3    H231580   6.217   2.500   3.222  0.4259 -0.1496  0.6922
10547TIP3   OH231581   2.528   0.568   0.169 -0.1419 -0.2470 -0.0190
10547TIP3    H131582   2.615   0.565   0.131  0.1355  0.8278  0.4953
10547TIP3    H231583   2.540   0.539   0.260 -0.2767  0.0858  0.1083
10548TIP3   OH231584   4.577   5.928   5.375 -0.3208  0.2618  0.2787
10548TIP3    H131585   4.598   5.875   5.452 -0.3989 -0.2132 -0.0233
10548TIP3    H231586   4.556   5.864   5.307  0.6668  0.6498 -0.4120
10549TIP3   OH231587   2.611   5.555   3.230  0.0409 -0.5412 -0.2904
10549TIP3    H131588   2.602   5.461   3.242  1.3548 -0.3718  3.3192
10549TIP3    H231589   2.702   5.574   3.255 -0.3240  1.7237 -0.4394
10550TIP3   OH231590   7.403   3.581   6.060  0.6651 -0.1926 -0.1540
10550TIP3    H131591   7.376   3.556   5.972  0.3958  1.6047 -0.6253
10550TIP3    H231592   7.496   3.557   6.064  0.6872 -0.2764 -0.9495
10551TIP3   OH231593   7.425   6.882   0.848 -0.1975 -0.1618  0.2310
10551TIP3    H131594   7.518   6.889   0.825 -0.1690 -2.0236 -0.4042
10551TIP3    H231595   7.380   6.883   0.763 -0.7399  0.4112  0.5234
10552TIP3   OH231596   7.744   5.517   0.990 -0.2294 -0.7432 -0.0327
10552TIP3    H131597   7.711   5.555   0.908 -1.1210  0.1600  0.7217
10552TIP3    H231598   7.804   5.448   0.962  3.2585  2.5627 -1.5653
10553TIP3   OH231599   4.634   2.156   1.734  0.3336  0.2357 -0.3389
10553TIP3    H131600   4.628   2.080   1.791 -1.6817 -0.5224 -1.4510
10553TIP3    H231601   4.545   2.190   1.730  0.6947  1.1234 -1.8669
10554TIP3   OH231602   5.607   1.564   5.809  0.0088 -0.2285 -0.4596
10554TIP3    H131603   5.689   1.611   5.794  0.3669 -0.7383 -0.1228
10554TIP3    H231604   5.618   1.482   5.760  0.3337 -0.9777  0.8187
10555TIP3   OH231605   0.417   0.034   6.413  0.3782 -0.7955  0.2004
10555TIP3    H131606   0.398   0.010   6.504  3.1604 -1.3841  0.7270
10555TIP3    H231607   0.337   0.076   6.382 -0.8541 -1.0692  2.7414
10556TIP3   OH231608   7.419   4.739   0.081 -0.2976 -0.3891  0.7958
10556TIP3    H131609   7.405   4.833   0.075 -1.6477 -0.5075  1.5838
10556TIP3    H231610   7.514   4.728   0.084 -0.0933  0.8680 -0.2328
10557TIP3   OH231611   2.014   4.975   6.675 -0.3632  0.5531 -0.8596
10557TIP3    H131612   1.953   4.938   6.611 -0.6203  1.5858 -1.2309
10557TIP3    H231613   1.960   5.034   6.728  0.3143  1.5064 -1.2146
10558TIP3   OH231614   7.248   4.807   5.386  0.1741  0.2583 -0.0180
10558TIP3    H131615   7.237   4.750   5.310  0.7986 -0.8642  0.7201
10558TIP3    H231616   7.166   4.798   5.435 -0.2026  0.9330 -0.5005
10559TIP3   OH231617   5.030   0.264   5.094 -0.4383 -0.0635  0.4531
10559TIP3    H131618   5.022   0.308   5.010  0.3752  0.0701  0.4433
10559TIP3    H231619   4.939   0.247   5.121 -0.7773 -3.2019 -2.0475
10560TIP3   OH231620   0.438   0.611   2.734 -0.2054  0.3531 -0.2112
10560TIP3    H131621   0.343   0.605   2.729 -0.2098 -1.0183  1.0083
10560TIP3    H231622   0.464   0.647   2.649 -1.7705  0.2263 -0.7730
10561TIP3   OH231623   2.367   4.342   5.688 -0.1754 -0.0143 -0.3398
10561TIP3    H131624   2.418   4.402   5.634  1.2154 -0.1980  0.6991
10561TIP3    H231625   2.331   4.278   5.626  0.3869  0.4542 -1.1716
10562TIP3   OH231626   3.224   0.585   3.941  0.0135  0.3097  0.1735
10562TIP3    H131627   3.212   0.559   4.032 -1.3264 -0.8175 -0.2783
10562TIP3    H231628   3.191   0.674   3.936  1.0007  0.7332  0.9744
10563TIP3   OH231629   1.265   4.030   3.185  0.0327 -0.2200  0.1842
10563TIP3    H131630   1.321   4.003   3.112 -0.8614  0.9404 -0.9948
10563TIP3    H231631   1.267   3.956   3.246  2.9431 -0.1572  0.2928
10564TIP3   OH231632   6.859   7.584   3.036  0.6235  1.0024 -0.3603
10564TIP3    H131633   6.940   7.547   3.001  0.4914 -0.9623  1.1963
10564TIP3    H231634   6.789   7.539   2.989  0.4534  0.3098  0.5376
10565TIP3   OH231635   3.280   2.154   4.971 -0.3904 -0.0919  0.1559
10565TIP3    H131636   3.258   2.198   4.889  0.9172 -0.4789 -0.4407
10565TIP3    H231637   3.312   2.224   5.028 -0.7538  0.0974  0.1247
10566TIP3   OH231638   4.333   4.678   4.098 -0.1897  0.7878  0.0783
10566TIP3    H131639   4.260   4.620   4.118  0.9126 -0.9331 -0.6242
10566TIP3    H231640   4.376   4.636   4.023  0.9892  2.2299 -0.0885
10567TIP3   OH231641   2.308   3.768   3.974 -0.4760  0.0326  0.2320
10567TIP3    H131642   2.230   3.717   3.951  0.6838 -1.2149 -1.1631
10567TIP3    H231643   2.380   3.706   3.968  0.9759  1.7416 -1.2721
10568TIP3   OH231644   2.747   3.470   4.689  0.3001 -0.3007  0.8826
10568TIP3    H131645   2.807   3.407   4.728  1.3143  0.6079  0.8246
10568TIP3    H231646   2.790   3.499   4.609 -1.0289 -0.9420 -0.1032
10569TIP3   OH231647   0.390   2.457   2.769 -0.2352  0.2859 -0.2243
10569TIP3    H131648   0.347   2.539   2.791 -0.8623 -0.5033  1.7568
10569TIP3    H231649   0.419   2.422   2.854  3.6197  0.3577 -1.3069
10570TIP3   OH231650   6.445   6.542   2.620 -0.1106  0.7375 -0.3960
10570TIP3    H131651   6.473   6.452   2.639 -1.8341 -0.2278 -2.1086
10570TIP3    H231652   6.425   6.579   2.706 -0.5990 -0.9616  0.2632
10571TIP3   OH231653   1.543   0.487   5.232  0.0289  0.1731 -0.2894
10571TIP3    H131654   1.555   0.392   5.231 -3.5288 -0.4385 -1.7695
10571TIP3    H231655   1.475   0.502   5.298 -0.5573  1.4884 -1.1473
10572TIP3   OH231656   2.924   0.683   0.870 -0.1903 -0.2654 -0.1924
10572TIP3    H131657   2.870   0.716   0.942  0.5528 -0.9316  0.6922
10572TIP3    H231658   2.919   0.588   0.877  0.5249 -0.3380 -0.5337
10573TIP3   OH231659   6.394   0.841   2.031  0.5162 -0.0642 -0.4440
10573TIP3    H131660   6.426   0.783   1.961  1.1476  0.7690 -0.8499
10573TIP3    H231661   6.306   0.807   2.050  0.4331 -0.4658 -1.4616
10574TIP3   OH231662   3.080   1.218   1.253 -0.2241  0.3708  0.6073
10574TIP3    H131663   3.086   1.291   1.192 -0.1600  0.6759  0.9805
10574TIP3    H231664   2.996   1.177   1.232  0.6687 -0.7445 -1.0500
10575TIP3   OH231665   0.968   0.466   5.323  0.9454  0.0979  0.2858
10575TIP3    H131666   0.913   0.503   5.392  1.3007  2.1609 -0.4439
10575TIP3    H231667   0.961   0.372   5.334 -0.8379  0.3389  1.6820
10576TIP3   OH231668   0.526   6.109   1.005 -0.2589 -0.0833  0.3395
10576TIP3    H131669   0.553   6.091   1.095  1.0914 -1.8696 -0.3773
10576TIP3    H231670   0.430   6.110   1.009 -0.2771 -2.0328  1.4705
10577TIP3   OH231671   0.771   2.662   6.629 -0.1084  0.5924 -0.4949
10577TIP3    H131672   0.772   2.754   6.654  1.5666  0.1449  1.3797
10577TIP3    H231673   0.860   2.645   6.598 -0.5363 -0.2869 -1.2742
10578TIP3   OH231674   3.572   4.605   1.063 -0.3444 -0.3014 -0.5452
10578TIP3    H131675   3.625   4.593   1.141 -0.6979  0.8629 -0.1050
10578TIP3    H231676   3.634   4.600   0.990  0.1137 -0.5585 -0.1369
10579TIP3   OH231677   0.566   6.520   3.570  0.0831 -0.1966 -0.1778
10579TIP3    H131678   0.480   6.557   3.589 -0.7950 -0.5706 -2.9776
10579TIP3    H231679   0.561   6.430   3.604 -0.4944 -0.0955  0.0104
10580TIP3   OH231680   4.007   1.355   0.312  0.3569  0.1350 -0.7972
10580TIP3    H131681   4.098   1.327   0.298  0.1222 -1.1508  0.0965
10580TIP3    H231682   3.958   1.315   0.240  0.2019 -0.8209 -0.1699
10581TIP3   OH231683   3.842   6.890   1.667 -0.1147 -0.4023  0.0493
10581TIP3    H131684   3.835   6.976   1.708 -0.5071 -0.1979 -0.4440
10581TIP3    H231685   3.789   6.833   1.723  1.7647 -0.7748  1.5507
10582TIP3   OH231686   5.909   3.698   1.705 -0.0820 -0.2250 -0.2347
10582TIP3    H131687   5.869   3.782   1.680  0.0765 -0.0545  0.0878
10582TIP3    H231688   5.951   3.715   1.789  0.6196 -0.4194 -0.5425
10583TIP3   OH231689   2.113   6.394   1.490  0.4755 -0.4477 -0.1647
10583TIP3    H131690   2.057   6.465   1.461  0.5224 -0.0113  0.7910
10583TIP3    H231691   2.064   6.314   1.468  0.8590 -0.1882 -2.1532
10584TIP3   OH231692   4.180   2.535   1.525 -0.1078 -0.2642 -0.2617
10584TIP3    H131693   4.122   2.481   1.472 -2.3587  1.2041  0.5677
10584TIP3    H231694   4.177   2.495   1.612 -0.9408  0.5187  0.0916
10585TIP3   OH231695   2.356   1.946   0.778  0.4704  0.4166 -0.3047
10585TIP3    H131696   2.333   2.016   0.716  0.5280  0.4483 -0.2913
10585TIP3    H231697   2.378   1.993   0.859 -0.1753  0.3443 -0.0774
10586TIP3   OH231698   5.075   6.891   5.305  0.1142  0.2589  0.1464
10586TIP3    H131699   5.158   6.900   5.353  0.7049 -0.3904 -0.7103
10586TIP3    H231700   5.085   6.808   5.258 -0.4497  0.8740 -1.0854
10587TIP3   OH231701   4.391   2.914   0.360  0.0779 -0.2008  0.4163
10587TIP3    H131702   4.356   2.999   0.335  1.1015 -0.3953 -1.9001
10587TIP3    H231703   4.350   2.852   0.300  1.4272 -0.9473  0.2189
10588TIP3   OH231704   1.017   2.963   4.179  0.1445  0.3085  0.2675
10588TIP3    H131705   1.081   2.957   4.108 -1.6783 -0.1034 -1.4103
10588TIP3    H231706   1.002   2.872   4.206  1.6701  0.5209  2.0532
10589TIP3   OH231707   1.312   3.384   1.415  0.0557  0.0079  0.2677
10589TIP3    H131708   1.358   3.301   1.426 -1.4501 -0.5672  3.0818
10589TIP3    H231709   1.234   3.362   1.365 -0.5298 -0.3854  1.3306
10590TIP3   OH231710   6.810   4.904   6.842 -0.3151  0.1773  0.4766
10590TIP3    H131711   6.816   4.828   6.901  0.7424 -0.0631  0.0727
10590TIP3    H231712   6.896   4.910   6.802 -0.3132  1.7379  0.6614
10591TIP3   OH231713   5.051   7.316   3.472  0.0189  0.4487 -0.4868
10591TIP3    H131714   5.047   7.225   3.502 -1.1836  0.8114  0.5279
10591TIP3    H231715   5.068   7.309   3.378  2.3640 -0.7492 -0.0454
10592TIP3   OH231716   2.876   0.969   6.321 -0.0733  0.4143  0.3683
10592TIP3    H131717   2.823   0.925   6.387  1.0299  0.2720  1.1951
10592TIP3    H231718   2.818   1.034   6.282 -0.7836  0.4215  1.4021
10593TIP3   OH231719   0.995   1.123   1.853 -0.6740  0.3907 -0.3687
10593TIP3    H131720   1.078   1.163   1.880 -0.8454 -0.5962  1.8929
10593TIP3    H231721   0.948   1.194   1.809  1.0511  1.1770 -1.0315
10594TIP3   OH231722   0.971   3.302   3.169 -0.5522 -0.1266 -0.0499
10594TIP3    H131723   0.958   3.238   3.238 -1.6676  0.4485  0.2959
10594TIP3    H231724   1.064   3.297   3.149  0.0990  0.6777  2.4843
10595TIP3   OH231725   1.818   3.147   6.219  0.2197 -0.4866 -0.0422
10595TIP3    H131726   1.861   3.176   6.299  0.6958  0.1396 -0.5161
10595TIP3    H231727   1.875   3.178   6.148 -0.8081  0.0185 -0.6696
10596TIP3   OH231728   6.062   7.719   1.343 -0.5085  0.1897 -0.5932
10596TIP3    H131729   5.969   7.696   1.346 -0.8566  1.5645  1.5714
10596TIP3    H231730   6.108   7.634   1.344 -1.7435 -0.5086  0.4010
10597TIP3   OH231731   2.037   5.898   0.992  0.2941 -0.5580 -0.1553
10597TIP3    H131732   2.038   5.832   1.061  2.0403 -1.4199 -0.9447
10597TIP3    H231733   2.124   5.894   0.953 -0.1076  1.0533 -1.3468
10598TIP3   OH231734   7.522   7.465   5.471  0.1988 -0.0753  0.0962
10598TIP3    H131735   7.584   7.537   5.482 -1.2461  1.0569  1.3939
10598TIP3    H231736   7.459   7.496   5.406 -0.5825 -0.0006  0.8526
10599TIP3   OH231737   6.890   1.539   5.242 -0.0582  0.4330 -0.0012
10599TIP3    H131738   6.946   1.606   5.281  0.2701  0.4811 -0.5354
10599TIP3    H231739   6.861   1.578   5.159  0.7152 -0.3475 -0.6636
10600TIP3   OH231740   5.567   3.735   2.451  0.1215 -0.3214 -0.0156
10600TIP3    H131741   5.623   3.722   2.527  0.3641 -0.3120 -0.1912
10600TIP3    H231742   5.531   3.648   2.433  1.7145 -0.7977 -1.1687
10601TIP3   OH231743   7.432   2.318   5.738 -0.3655 -0.0698  0.7002
10601TIP3    H131744   7.461   2.409   5.743 -0.0774 -0.1491  0.5111
10601TIP3    H231745   7.512   2.267   5.745 -0.3719 -0.2723 -0.5015
10602TIP3   OH231746   4.477   5.918   4.993  0.3260  0.4571  0.3155
10602TIP3    H131747   4.549   5.855   4.998 -0.4099 -0.6088 -1.6151
10602TIP3    H231748   4.521   6.002   4.978  1.2000 -0.1194 -0.4806
10603TIP3   OH231749   1.371   5.798   4.904  0.1624  0.4081 -0.1785
10603TIP3    H131750   1.440   5.848   4.947  0.2114  1.4216 -1.3532
10603TIP3    H231751   1.307   5.780   4.972  0.1124  2.1712  0.2820
10604TIP3   OH231752   0.169   4.688   4.300 -0.2915  0.0790  0.6018
10604TIP3    H131753   0.168   4.721   4.390  0.2792  0.9035  0.3238
10604TIP3    H231754   0.262   4.691   4.275 -0.1666 -1.9625  0.6181
10605TIP3   OH231755   4.746   4.357   5.050  0.0724  0.2849  0.2546
10605TIP3    H131756   4.771   4.446   5.027  0.1117  0.0996 -0.4567
10605TIP3    H231757   4.688   4.329   4.979  0.4881 -0.4427  0.1901
10606TIP3   OH231758   0.172   1.853   2.169 -0.3721  0.9618  0.3199
10606TIP3    H131759   0.146   1.795   2.097  0.6761 -1.4208  1.7158
10606TIP3    H231760   0.201   1.933   2.126  0.3464 -0.4138 -1.9429
10607TIP3   OH231761   5.157   1.820   6.013  0.1150  0.8649 -0.2013
10607TIP3    H131762   5.182   1.818   5.921  2.1735 -0.1672  0.3108
10607TIP3    H231763   5.095   1.893   6.020 -0.0061  1.0204 -2.3569
10608TIP3   OH231764   2.955   4.765   4.664  0.2676  0.1306  0.3499
10608TIP3    H131765   3.021   4.696   4.656 -0.3219 -0.4320  0.3315
10608TIP3    H231766   3.006   4.845   4.677  0.9365 -0.4572  1.5149
10609TIP3   OH231767   5.560   6.660   3.894  0.2044  1.1546 -0.6255
10609TIP3    H131768   5.505   6.729   3.930 -0.9527 -0.0862  0.1029
10609TIP3    H231769   5.533   6.652   3.803 -4.4605 -2.5061  0.6494
10610TIP3   OH231770   3.556   3.692   0.394 -0.3250  0.6775  0.4567
10610TIP3    H131771   3.467   3.664   0.416 -0.5762  1.1620  0.0681
10610TIP3    H231772   3.578   3.642   0.315  0.0358  0.0084  0.9652
10611TIP3   OH231773   7.843   6.086   3.384 -0.4849  0.1908 -0.2241
10611TIP3    H131774   7.928   6.048   3.409 -0.8838 -1.1413 -0.7984
10611TIP3    H231775   7.866   6.170   3.344  0.3961  0.7947  1.4342
10612TIP3   OH231776   7.059   1.536   3.147 -0.1958  0.0101 -0.0373
10612TIP3    H131777   6.988   1.583   3.190  1.4746  0.8357  1.9634
10612TIP3    H231778   7.074   1.585   3.066 -0.2474  1.3386  0.7366
10613TIP3   OH231779   2.714   0.337   1.309 -0.7218 -0.6362 -0.3454
10613TIP3    H131780   2.677   0.344   1.221 -1.0878  0.9335 -0.0849
10613TIP3    H231781   2.683   0.414   1.355  0.0438 -1.0731  0.9589
10614TIP3   OH231782   2.409   1.127   3.230 -0.2575 -0.4411 -0.6355
10614TIP3    H131783   2.470   1.189   3.191 -0.5658 -0.0938 -0.5690
10614TIP3    H231784   2.413   1.050   3.174  0.8754 -0.7497 -0.1513
10615TIP3   OH231785   6.297   0.308   2.783  0.2248 -0.0602  0.7463
10615TIP3    H131786   6.355   0.266   2.720 -1.6424  0.8936 -1.7784
10615TIP3    H231787   6.209   0.301   2.745 -1.2297 -0.3777  3.7983
10616TIP3   OH231788   1.199   1.048   4.827  0.1729  0.2427  0.4078
10616TIP3    H131789   1.160   1.019   4.744 -0.5703  1.9072  0.1428
10616TIP3    H231790   1.243   1.130   4.806 -0.1720  0.7846  1.6811
10617TIP3   OH231791   6.117   3.985   4.100  0.2796  0.0004 -0.1582
10617TIP3    H131792   6.112   3.890   4.106  0.7912  0.0500  1.3976
10617TIP3    H231793   6.209   4.005   4.121  0.2321  0.8256 -0.7002
10618TIP3   OH231794   4.135   3.907   4.004  0.5382 -0.2014  0.0058
10618TIP3    H131795   4.158   3.990   3.961 -0.1518 -1.1423 -2.3220
10618TIP3    H231796   4.220   3.866   4.022  0.8487  0.0059 -0.9224
10619TIP3   OH231797   5.430   1.958   1.940 -0.0580  0.0859  0.9257
10619TIP3    H131798   5.445   1.873   1.983 -0.0908 -0.6484 -0.4626
10619TIP3    H231799   5.488   1.956   1.863  0.5845  1.6905  1.3209
10620TIP3   OH231800   0.119   3.235   0.414 -0.3865  0.0072  0.0672
10620TIP3    H131801   0.094   3.322   0.383  0.1475  0.3206  0.4894
10620TIP3    H231802   0.138   3.247   0.507  1.7252 -0.0904 -0.2933
10621TIP3   OH231803   7.354   7.262   3.147  0.2635 -0.1845  0.7332
10621TIP3    H131804   7.295   7.222   3.083  0.6324 -0.5925  0.6439
10621TIP3    H231805   7.314   7.347   3.166  0.7256  0.4268 -0.8778
10622TIP3   OH231806   2.514   7.875   5.491  0.1312 -0.4653  0.2465
10622TIP3    H131807   2.440   7.929   5.461  0.1795 -0.6176 -0.1459
10622TIP3    H231808   2.545   7.920   5.570 -0.2054 -0.2470  0.2599
10623TIP3   OH231809   8.398   0.919   3.191 -0.2119 -0.0970  0.0377
10623TIP3    H131810   8.463   0.968   3.140  1.1459 -0.3488  1.4520
10623TIP3    H231811   8.334   0.985   3.218  1.1987  0.8173  1.3028
10624TIP3   OH231812   2.366   4.169   5.085 -0.2876 -0.4376  0.7410
10624TIP3    H131813   2.411   4.097   5.131 -0.3953 -0.9553  0.0398
10624TIP3    H231814   2.275   4.163   5.115 -0.4207 -0.9564  0.2599
10625TIP3   OH231815   6.887   6.526   4.445 -1.0169  0.3550 -0.1572
10625TIP3    H131816   6.844   6.607   4.471  0.6194  0.5536  2.2732
10625TIP3    H231817   6.951   6.553   4.378 -0.1181  1.2289  1.0064
10626TIP3   OH231818   6.504   7.190   2.444  0.1076 -0.6527 -0.5765
10626TIP3    H131819   6.482   7.201   2.352 -1.3854  0.7622 -0.0991
10626TIP3    H231820   6.435   7.133   2.479 -1.4298  1.6486  0.3624
10627TIP3   OH231821   7.976   0.849   5.693 -0.1261 -0.7280 -0.3084
10627TIP3    H131822   8.068   0.862   5.670  0.1616 -2.2547 -0.1404
10627TIP3    H231823   7.930   0.923   5.654  1.2303  0.3228  0.0232
10628TIP3   OH231824   2.894   4.090   1.451  0.5086 -0.2808  0.6834
10628TIP3    H131825   2.849   4.038   1.518  0.9480  1.3802  2.3451
10628TIP3    H231826   2.953   4.028   1.409  1.1189 -1.1346  2.6939
10629TIP3   OH231827   0.495   2.119   4.048  0.0813 -0.2516 -0.0467
10629TIP3    H131828   0.580   2.128   4.091 -0.5036 -1.0391  1.3438
10629TIP3    H231829   0.484   2.025   4.036 -0.4941 -0.1405 -0.4289
10630TIP3   OH231830   4.016   4.733   0.940 -0.1029 -0.8350  0.5128
10630TIP3    H131831   4.096   4.766   0.898 -1.3530  1.2714 -0.4182
10630TIP3    H231832   3.980   4.809   0.986 -1.8521 -1.5490  0.4134
10631TIP3   OH231833   5.679   3.835   3.719  0.0748 -0.3624  0.2181
10631TIP3    H131834   5.739   3.774   3.764  1.0058  0.9771  0.8598
10631TIP3    H231835   5.622   3.868   3.788 -1.2415 -1.3902 -0.3412
10632TIP3   OH231836   7.339   3.254   1.175 -0.1441  0.0662  0.1730
10632TIP3    H131837   7.378   3.323   1.122 -1.3005  0.0885 -0.6944
10632TIP3    H231838   7.355   3.173   1.125 -1.5437  0.1305 -0.4491
10633TIP3   OH231839   3.031   0.920   4.884 -0.0433  0.1690  0.7079
10633TIP3    H131840   3.007   0.828   4.892 -0.1909  0.1137 -0.2995
10633TIP3    H231841   3.099   0.921   4.817  2.5798  0.3631  3.1544
10634TIP3   OH231842   4.835   6.772   1.481  0.3173  0.1441 -0.3445
10634TIP3    H131843   4.858   6.768   1.388 -0.7565 -2.6309 -0.5903
10634TIP3    H231844   4.910   6.734   1.526 -0.7077 -2.2445 -0.5114
10635TIP3   OH231845   2.329   2.958   5.437 -0.4674  0.1628 -0.2339
10635TIP3    H131846   2.287   2.990   5.357 -0.9111  2.0521  0.7091
10635TIP3    H231847   2.257   2.926   5.491 -0.1336 -1.5012 -0.6845
10636TIP3   OH231848   5.367   3.644   6.780  0.1662  0.0585 -0.3427
10636TIP3    H131849   5.326   3.677   6.699  0.2475 -0.7315 -0.7095
10636TIP3    H231850   5.300   3.657   6.847 -0.3992 -0.4812 -0.7863
10637TIP3   OH231851   2.782   2.159   4.501 -0.0518  0.4471 -0.7310
10637TIP3    H131852   2.764   2.173   4.594 -1.3670 -3.7048 -0.1448
10637TIP3    H231853   2.878   2.157   4.495  0.0990 -1.7264  1.1323
10638TIP3   OH231854   2.526   7.757   3.825 -0.2803  0.0333 -0.4313
10638TIP3    H131855   2.519   7.747   3.730  0.6230  2.2916 -0.8038
10638TIP3    H231856   2.496   7.847   3.842  0.1403 -0.1213  1.3363
10639TIP3   OH231857   3.149   1.929   6.723  0.4591  0.5851 -0.2286
10639TIP3    H131858   3.205   1.986   6.776 -0.6577  0.4783  1.1178
10639TIP3    H231859   3.084   1.988   6.685  0.2031  0.4248 -0.0427
10640TIP3   OH231860   0.160   5.313   3.153  0.2016 -0.3189 -0.1875
10640TIP3    H131861   0.072   5.319   3.115  0.1799 -2.7759 -0.7038
10640TIP3    H231862   0.157   5.371   3.230 -1.7303 -0.0328 -0.4245
10641TIP3   OH231863   4.295   1.877   0.957 -0.1894  0.3583 -0.9382
10641TIP3    H131864   4.309   1.881   1.052 -0.5762  0.0781 -0.8635
10641TIP3    H231865   4.361   1.935   0.920  0.6682 -0.3470 -0.5683
10642TIP3   OH231866   5.427   1.270   6.242 -0.1633  0.5773  0.2478
10642TIP3    H131867   5.494   1.339   6.240 -0.2869  0.8626  2.6338
10642TIP3    H231868   5.377   1.281   6.161  0.8429  2.2228 -0.1852
10643TIP3   OH231869   0.957   2.304   1.149  0.1031 -0.0265 -0.1453
10643TIP3    H131870   0.935   2.347   1.066 -0.3722 -1.2330 -0.6557
10643TIP3    H231871   0.877   2.310   1.201  0.4615  0.9076  0.3253
10644TIP3   OH231872   6.296   4.855   1.625 -0.2138  0.5532 -0.1860
10644TIP3    H131873   6.340   4.822   1.546 -0.3029  1.3377 -0.5723
10644TIP3    H231874   6.253   4.779   1.663  2.9561 -0.7094  1.2208
10645TIP3   OH231875   4.143   0.132   6.117 -0.3078 -0.6445 -0.2115
10645TIP3    H131876   4.080   0.141   6.189 -0.0942  1.0652 -0.1786
10645TIP3    H231877   4.204   0.065   6.147  1.2384  1.6831  2.4246
10646TIP3   OH231878   4.871   0.929   1.621 -0.7009  0.3377  0.0387
10646TIP3    H131879   4.917   0.845   1.619  0.5034  0.9135  1.4572
10646TIP3    H231880   4.932   0.988   1.664 -0.7806  2.4420 -2.5163
10647TIP3   OH231881   5.309   1.633   2.148  0.4637 -0.7381 -0.3171
10647TIP3    H131882   5.395   1.602   2.120  1.4123  1.2237  0.2594
10647TIP3    H231883   5.328   1.701   2.213 -1.5748 -2.1176  1.8964
10648TIP3   OH231884   3.989   2.838   2.969  0.4493 -0.6204 -0.2621
10648TIP3    H131885   3.962   2.908   2.909  0.7031 -0.6769 -0.4419
10648TIP3    H231886   3.910   2.784   2.980 -0.0934  0.3571  0.8156
10649TIP3   OH231887   6.849   5.439   0.591 -0.7917  0.4551 -0.2129
10649TIP3    H131888   6.754   5.441   0.589 -0.7942  0.7505  0.0656
10649TIP3    H231889   6.875   5.458   0.501 -0.9993 -1.1431 -0.6362
10650TIP3   OH231890   1.137   1.163   1.237 -0.1838 -0.1999  0.5363
10650TIP3    H131891   1.055   1.179   1.284  0.1618  1.0799  0.7550
10650TIP3    H231892   1.137   1.230   1.168  1.0579  0.3783  1.0694
10651TIP3   OH231893   8.360   7.812   4.348 -0.5060 -0.0704  0.7536
10651TIP3    H131894   8.383   7.817   4.255  0.3564  0.4488  0.9746
10651TIP3    H231895   8.366   7.902   4.379 -0.9422 -0.2159  1.2767
10652TIP3   OH231896   4.836   6.397   4.287 -0.4212  0.0050  0.2732
10652TIP3    H131897   4.772   6.443   4.341 -0.6330 -2.1586  1.9962
10652TIP3    H231898   4.872   6.329   4.345  4.1033  1.5913 -0.2610
10653TIP3   OH231899   7.007   2.701   2.378  0.1111  0.7825  0.3956
10653TIP3    H131900   6.944   2.699   2.450 -1.2986  2.8933 -0.6651
10653TIP3    H231901   6.971   2.765   2.317  1.9008 -0.0095 -1.6036
10654TIP3   OH231902   8.221   4.428   1.402 -0.1805  0.1763 -0.1717
10654TIP3    H131903   8.270   4.487   1.345 -0.4302  0.2844 -0.2747
10654TIP3    H231904   8.132   4.464   1.404 -0.3089 -0.1400 -0.1554
10655TIP3   OH231905   4.056   6.643   2.895  0.0338  0.4449 -0.4368
10655TIP3    H131906   3.960   6.646   2.895  0.0500  2.5010  0.4491
10655TIP3    H231907   4.082   6.718   2.948  2.1411 -1.0024  0.7000
10656TIP3   OH231908   0.503   7.433   5.481  0.3898 -0.3010  0.5363
10656TIP3    H131909   0.565   7.485   5.532  1.0069 -0.8627  0.3725
10656TIP3    H231910   0.506   7.346   5.521 -0.2890 -0.3374  0.5203
10657TIP3   OH231911   6.567   7.583   4.175  0.2219  0.0071  0.2705
10657TIP3    H131912   6.601   7.508   4.127  0.2014  0.2902 -0.1891
10657TIP3    H231913   6.644   7.625   4.213  0.3835  0.5672 -0.6528
10658TIP3   OH231914   7.999   6.543   5.262 -0.0018 -0.1911 -0.0902
10658TIP3    H131915   8.032   6.454   5.277  1.8853  0.3413 -0.7506
10658TIP3    H231916   8.065   6.583   5.204  0.8549  2.6307  2.5787
10659TIP3   OH231917   5.233   7.294   4.109 -0.3089 -0.2654  0.2314
10659TIP3    H131918   5.178   7.216   4.100  0.0652 -0.6104  0.7953
10659TIP3    H231919   5.260   7.315   4.020  1.7671 -2.4142  0.2406
10660TIP3   OH231920   5.043   7.399   4.347  0.1631 -0.2570  0.1705
10660TIP3    H131921   5.054   7.305   4.359 -0.6649 -0.6345 -1.6917
10660TIP3    H231922   5.027   7.433   4.435  2.0869 -1.5842  1.1143
10661TIP3   OH231923   2.126   4.838   2.854 -0.5259 -0.0004  0.3429
10661TIP3    H131924   2.090   4.842   2.943 -0.4474 -0.3136  0.3917
10661TIP3    H231925   2.183   4.761   2.855 -1.7627 -0.9688 -0.4265
10662TIP3   OH231926   7.326   5.119   4.429  0.0714  0.3307 -0.4489
10662TIP3    H131927   7.391   5.073   4.482  1.6286  2.5429 -0.3187
10662TIP3    H231928   7.328   5.209   4.461 -1.2225  1.0357 -2.1864
10663TIP3   OH231929   2.704   0.729   5.616  0.0769 -0.1208 -0.1933
10663TIP3    H131930   2.663   0.810   5.583  1.2105  0.9334  0.8629
10663TIP3    H231931   2.744   0.689   5.539  1.8936  1.8078 -0.3314
10664TIP3   OH231932   1.274   1.266   4.637  0.1391 -0.6126 -0.7661
10664TIP3    H131933   1.344   1.200   4.643  0.9153  0.2459 -0.0450
10664TIP3    H231934   1.320   1.350   4.639 -0.8946 -0.0325 -0.7281
10665TIP3   OH231935   4.257   4.611   5.902  0.1396  0.2342 -0.1054
10665TIP3    H131936   4.268   4.526   5.860 -2.0469 -0.0764 -0.1581
10665TIP3    H231937   4.163   4.616   5.922  0.0985  2.8561 -0.6094
10666TIP3   OH231938   1.168   1.451   1.811 -0.0088  0.6160  0.4898
10666TIP3    H131939   1.115   1.432   1.733  0.0216 -0.9266  0.8020
10666TIP3    H231940   1.105   1.451   1.883  0.2043  0.1368  0.6848
10667TIP3   OH231941   5.053   5.301   1.270  0.1699  0.0176 -0.1962
10667TIP3    H131942   4.981   5.255   1.227 -0.2277 -0.2115  0.6779
10667TIP3    H231943   5.118   5.233   1.286  0.3748  0.1291 -0.5546
10668TIP3   OH231944   1.174   3.337   1.062 -0.2312  0.4524 -0.1744
10668TIP3    H131945   1.144   3.428   1.057 -2.8224 -0.2099  1.5989
10668TIP3    H231946   1.181   3.319   1.156 -0.2051 -1.3279 -0.4868
10669TIP3   OH231947   8.285   0.865   5.172 -0.4551 -0.4508  0.0088
10669TIP3    H131948   8.235   0.797   5.129 -1.0758  0.9184 -1.5557
10669TIP3    H231949   8.244   0.947   5.144  3.0638  0.8385 -2.0850
10670TIP3   OH231950   2.153   4.124   3.350 -0.1731 -0.6427 -0.1247
10670TIP3    H131951   2.111   4.183   3.413 -2.2725 -2.0570 -0.1048
10670TIP3    H231952   2.168   4.179   3.273 -0.3710  0.3470  0.5162
10671TIP3   OH231953   6.393   2.481   0.586 -0.1638 -0.2015  0.0472
10671TIP3    H131954   6.337   2.553   0.554  0.6615  0.0210 -0.9505
10671TIP3    H231955   6.465   2.525   0.631 -0.3072 -0.4564  0.5316
10672TIP3   OH231956   6.947   6.736   5.071 -0.1571 -0.5509  0.0873
10672TIP3    H131957   6.917   6.646   5.058 -1.6640 -0.0788  0.0815
10672TIP3    H231958   6.923   6.781   4.990  2.2141 -0.4993 -0.6761
10673TIP3   OH231959   6.658   2.553   2.693 -0.0622  0.1709  0.4366
10673TIP3    H131960   6.724   2.574   2.759  1.2636 -2.5318  0.1137
10673TIP3    H231961   6.643   2.459   2.703 -2.1594  0.2753 -1.0757
10674TIP3   OH231962   2.363   4.380   3.368 -0.0334 -0.4469  0.2367
10674TIP3    H131963   2.355   4.336   3.453 -0.5256 -0.6487  0.0910
10674TIP3    H231964   2.457   4.394   3.357  0.0001  0.0216  1.0348
10675TIP3   OH231965   7.645   3.244   5.207  0.7517 -0.2470  0.1089
10675TIP3    H131966   7.684   3.159   5.187  0.0038 -0.5608 -0.0444
10675TIP3    H231967   7.616   3.278   5.122 -0.2462 -0.4963  0.3298
10676TIP3   OH231968   6.152   1.888   3.575  0.1141 -0.1170 -0.0134
10676TIP3    H131969   6.237   1.873   3.616 -0.9037 -1.1681  1.8181
10676TIP3    H231970   6.156   1.838   3.493  0.7995 -1.2536  0.6889
10677TIP3   OH231971   6.900   3.416   6.083 -0.3714 -0.5396  0.3157
10677TIP3    H131972   6.847   3.441   6.159  0.5501 -0.1887  0.8604
10677TIP3    H231973   6.989   3.446   6.105  0.0557 -1.1224 -0.5710
10678TIP3   OH231974   6.276   5.013   3.675  0.2965  0.1250 -0.4898
10678TIP3    H131975   6.342   5.049   3.735  1.8253 -1.5447 -1.0626
10678TIP3    H231976   6.252   5.087   3.619  2.4688  0.5889 -0.9116
10679TIP3   OH231977   7.726   1.595   4.767 -0.4505  0.3193  0.4665
10679TIP3    H131978   7.662   1.538   4.724 -0.2691  0.4281  0.0443
10679TIP3    H231979   7.734   1.559   4.855  0.8019 -1.2663 -0.2426
10680TIP3   OH231980   5.649   0.824   1.663  0.2457  0.4729 -0.2403
10680TIP3    H131981   5.602   0.772   1.598  0.2260  1.2985 -0.9156
10680TIP3    H231982   5.582   0.878   1.704  0.3710  0.5198 -0.0944
10681TIP3   OH231983   3.409   3.072   1.737 -0.5649  0.0452  0.1458
10681TIP3    H131984   3.466   3.123   1.794  1.0228 -1.2135 -0.2531
10681TIP3    H231985   3.410   3.119   1.653 -0.0131 -0.0098  0.1156
10682TIP3   OH231986   3.683   4.310   5.271 -0.5104  0.6349  0.6950
10682TIP3    H131987   3.741   4.233   5.266 -0.2932  0.8157  0.3784
10682TIP3    H231988   3.742   4.383   5.290 -0.5545  0.9095 -0.1934
10683TIP3   OH231989   5.569   0.345   4.446  0.2117  0.2391  0.7423
10683TIP3    H131990   5.534   0.284   4.381 -0.1444  0.4401  0.7427
10683TIP3    H231991   5.504   0.344   4.517  0.1785  0.6569  0.7201
10684TIP3   OH231992   0.691   3.961   4.689  0.5750  0.0831  0.4227
10684TIP3    H131993   0.747   3.928   4.759  1.0095 -0.2436 -0.0647
10684TIP3    H231994   0.753   3.991   4.622  0.1742 -0.5874 -0.2713
10685TIP3   OH231995   2.823   0.328   0.251  0.0630 -0.2477  0.0425
10685TIP3    H131996   2.787   0.383   0.182  1.8749  1.1160  0.1053
10685TIP3    H231997   2.848   0.247   0.208 -1.7361 -0.6821 -0.2475
10686TIP3   OH231998   0.948   4.131   0.281 -0.1426  0.2188 -0.2281
10686TIP3    H131999   0.974   4.221   0.298 -1.3544  0.3280  1.2980
10686TIP3    H232000   0.964   4.085   0.363 -0.8199 -0.6290 -0.5485
10687TIP3   OH232001   6.707   7.847   5.277 -0.2735 -0.0050 -0.0920
10687TIP3    H132002   6.767   7.868   5.206 -1.9384  1.3502 -1.1828
10687TIP3    H232003   6.673   7.760   5.254 -2.1216  1.1235 -2.0412
10688TIP3   OH232004   5.601   6.559   1.996  0.4876 -0.2313  0.3906
10688TIP3    H132005   5.669   6.607   1.949  0.8644 -0.6033  0.5444
10688TIP3    H232006   5.570   6.619   2.064 -1.0577  0.8559 -1.1780
10689TIP3   OH232007   1.000   6.373   0.030  0.3311  0.2276  0.4689
10689TIP3    H132008   1.049   6.301  -0.009 -0.5784 -0.0825 -0.1367
10689TIP3    H232009   0.917   6.375  -0.018  0.6258  2.1646 -0.0566
10690TIP3   OH232010   6.190   1.302   0.203  0.1313  0.4771  0.1191
10690TIP3    H132011   6.186   1.286   0.109  0.6003 -2.5507  0.5268
10690TIP3    H232012   6.110   1.263   0.237  0.4413  0.6685  1.0918
10691TIP3   OH232013   8.259   5.116   5.626 -0.1762  0.9935 -0.7415
10691TIP3    H132014   8.186   5.173   5.652 -1.1593 -0.9506  1.0608
10691TIP3    H232015   8.321   5.123   5.699 -0.0455  0.2254 -0.7764
10692TIP3   OH232016   7.586   1.314   3.819 -0.0243 -0.0699 -0.1871
10692TIP3    H132017   7.497   1.296   3.788  0.1059 -2.9066  0.8277
10692TIP3    H232018   7.638   1.320   3.739 -0.7829 -0.4582 -0.7193
10693TIP3   OH232019   1.573   4.064   3.185 -0.1627  0.4091 -0.1742
10693TIP3    H132020   1.546   4.118   3.259 -0.3641  0.4563 -0.2820
10693TIP3    H232021   1.667   4.050   3.199 -0.1354  0.6840 -0.0821
10694TIP3   OH232022   4.942   6.222   4.477  0.0634 -0.0425 -0.4962
10694TIP3    H132023   4.873   6.239   4.542 -0.4235 -0.9412 -0.7644
10694TIP3    H232024   5.022   6.256   4.518  0.0356 -1.8392  1.2419
10695TIP3   OH232025   7.753   2.234   4.660  0.4304  0.9423  0.8730
10695TIP3    H132026   7.753   2.317   4.709  3.1966  2.0936 -0.8509
10695TIP3    H232027   7.790   2.170   4.721  0.2369  1.4465  1.5316
10696TIP3   OH232028   4.067   4.478   0.990 -0.0873 -0.0124 -0.0689
10696TIP3    H132029   4.068   4.429   0.908  2.0699  0.0376 -0.1250
10696TIP3    H232030   4.039   4.566   0.965  1.6015  0.2966 -0.9748
10697TIP3   OH232031   3.352   6.394   1.939  0.6706  0.2343  0.1083
10697TIP3    H132032   3.316   6.329   1.879 -2.3554  0.5664  1.3547
10697TIP3    H232033   3.354   6.349   2.024  0.6852  1.0798  0.5623
10698TIP3   OH232034   6.739   1.738   6.592 -0.5856  0.1706  0.2762
10698TIP3    H132035   6.670   1.802   6.575 -1.1148 -0.3700  0.3819
10698TIP3    H232036   6.773   1.762   6.678 -1.1397 -0.0040  0.5496
10699TIP3   OH232037   6.989   4.936   3.910 -0.4016 -0.1932 -0.1869
10699TIP3    H132038   6.927   5.008   3.898 -0.1830 -0.3752 -3.3423
10699TIP3    H232039   6.973   4.905   4.000 -2.4472  1.9486  0.2894
10700TIP3   OH232040   1.104   4.677   0.571  0.0039  0.3856  0.2900
10700TIP3    H132041   1.041   4.605   0.579 -0.9291  1.2072  0.5193
10700TIP3    H232042   1.082   4.737   0.642  1.1773  0.5994  0.4825
10701TIP3   OH232043   3.890   7.788   0.446 -0.0993  0.5930 -0.4284
10701TIP3    H132044   3.807   7.741   0.458  0.2626  0.0714  0.0400
10701TIP3    H232045   3.882   7.865   0.502 -0.3685  0.6794 -0.5831
10702TIP3   OH232046   0.250   0.135   0.412  0.1571  0.0147  0.5321
10702TIP3    H132047   0.246   0.117   0.318 -1.3460  1.6282  0.2387
10702TIP3    H232048   0.341   0.161   0.428  0.8594 -1.8339 -0.1145
10703TIP3   OH232049   0.499   6.833   1.584 -0.1079  0.0964 -0.6179
10703TIP3    H132050   0.525   6.741   1.589 -0.2701 -0.0143 -1.6527
10703TIP3    H232051   0.423   6.840   1.643  1.1120  0.0308  1.0293
10704TIP3   OH232052   5.503   2.828   1.530 -0.1071 -0.0409 -0.0085
10704TIP3    H132053   5.447   2.897   1.567 -0.2742  1.0555 -2.1778
10704TIP3    H232054   5.577   2.875   1.492  1.1182 -1.2986  0.7272
10705TIP3   OH232055   6.823   3.638   5.896 -0.3359  0.0095  0.0626
10705TIP3    H132056   6.740   3.609   5.858  1.6569 -2.7794 -2.5577
10705TIP3    H232057   6.835   3.583   5.973 -0.9929  0.6106  0.6099
10706TIP3   OH232058   4.073   4.924   1.248 -0.1896 -0.3598  0.2544
10706TIP3    H132059   3.996   4.932   1.192  0.2299 -0.1861 -0.3116
10706TIP3    H232060   4.081   4.831   1.266 -0.0377 -0.4803 -0.4049
10707TIP3   OH232061   1.337   2.868   5.341 -0.2175  0.5012 -0.2267
10707TIP3    H132062   1.379   2.936   5.394  1.2742  0.7393 -1.6163
10707TIP3    H232063   1.382   2.873   5.257 -0.3005 -1.9928 -0.4788
10708TIP3   OH232064   3.125   2.118   0.909 -0.2695 -0.3211  0.2781
10708TIP3    H132065   3.208   2.074   0.927 -1.0543 -1.3155  1.6474
10708TIP3    H232066   3.059   2.061   0.948 -1.5798  0.6025 -0.5237
10709TIP3   OH232067   0.422   6.133   0.051  0.2198  0.2221  0.2988
10709TIP3    H132068   0.365   6.209   0.040 -0.3950 -0.2230  0.3657
10709TIP3    H232069   0.402   6.077  -0.023  1.2062  0.4539 -0.1477
10710TIP3   OH232070   4.203   4.515   5.286  0.0043  0.2345  0.0111
10710TIP3    H132071   4.159   4.509   5.370 -0.5491  1.0752 -0.2169
10710TIP3    H232072   4.134   4.501   5.221  0.3649 -0.0647 -0.3200
10711TIP3   OH232073   6.543   6.945   4.252 -0.2674 -0.0242 -0.2358
10711TIP3    H132074   6.582   6.857   4.248 -1.3077 -0.4389 -2.1678
10711TIP3    H232075   6.613   7.000   4.287  0.5389 -1.5254  0.6546
10712TIP3   OH232076   4.757   0.466   1.193  0.2353 -0.2409  0.0737
10712TIP3    H132077   4.744   0.466   1.098 -0.2536  0.2182  0.1348
10712TIP3    H232078   4.748   0.558   1.218 -0.9628 -0.5106  0.7314
10713TIP3   OH232079   5.353   7.713   5.355  0.0316  0.3335  0.4749
10713TIP3    H132080   5.333   7.756   5.438 -0.4166 -1.0795  1.1292
10713TIP3    H232081   5.297   7.635   5.354  1.7154 -0.9393 -0.0558
10714TIP3   OH232082   5.116   3.191   0.940 -0.2463 -0.0526  0.2044
10714TIP3    H132083   5.117   3.106   0.897 -1.1352 -1.0584  2.0089
10714TIP3    H232084   5.208   3.213   0.953  0.0471  0.2781 -2.0629
10715TIP3   OH232085   0.244   7.519   1.497 -0.2950 -0.3773  0.5057
10715TIP3    H132086   0.188   7.591   1.526 -0.6313 -0.1735 -0.6139
10715TIP3    H232087   0.331   7.558   1.488 -0.2790 -0.3422  0.7790
10716TIP3   OH232088   4.845   7.546   0.199 -0.4780 -0.1761  0.5003
10716TIP3    H132089   4.797   7.468   0.227 -0.2838 -1.5971 -2.6842
10716TIP3    H232090   4.936   7.519   0.195 -0.2465  0.5766  0.4271
10717TIP3   OH232091   1.330   4.537   4.930  0.0618 -0.3157  0.3167
10717TIP3    H132092   1.391   4.598   4.972  2.0298 -0.8249 -1.6222
10717TIP3    H232093   1.246   4.583   4.931  0.4532  0.5086  2.8771
10718TIP3   OH232094   6.431   1.864   3.588  0.2933  0.4674  0.1543
10718TIP3    H132095   6.412   1.771   3.596 -0.7541  0.6538 -0.0321
10718TIP3    H232096   6.521   1.873   3.620  0.6220 -0.6918 -0.3975
10719TIP3   OH232097   6.374   4.063   2.209 -0.1131  0.2213 -0.2442
10719TIP3    H132098   6.349   4.145   2.167  1.6644  0.7846 -0.2611
10719TIP3    H232099   6.341   3.995   2.151 -0.6781  0.9303 -0.7707
10720TIP3   OH232100   5.843   7.534   1.380  0.9736 -0.3583 -0.2253
10720TIP3    H132101   5.852   7.542   1.475  1.8499  0.2856 -0.3434
10720TIP3    H232102   5.844   7.440   1.363 -1.2916 -0.5866  0.5604
10721TIP3   OH232103   4.740   4.682   5.438 -0.0793  0.0946 -0.5946
10721TIP3    H132104   4.809   4.731   5.483 -0.8035  1.0738 -0.5055
10721TIP3    H232105   4.783   4.642   5.363  0.7700 -0.0591 -0.0299
10722TIP3   OH232106   7.806   7.706   6.184 -0.0879  0.1148  0.3659
10722TIP3    H132107   7.896   7.714   6.216  1.0575 -2.1059 -1.9232
10722TIP3    H232108   7.765   7.789   6.207  2.5688  1.2541  1.4046
10723TIP3   OH232109   7.797   1.144   1.333 -0.0605 -0.3746  0.9259
10723TIP3    H132110   7.850   1.100   1.399  1.0171  0.8908  0.9347
10723TIP3    H232111   7.735   1.197   1.382 -0.3663 -0.7062  0.9070
10724TIP3   OH232112   3.007   6.820   3.747  0.3124  0.9319  0.0834
10724TIP3    H132113   2.957   6.740   3.730 -0.2684  1.2156  0.4418
10724TIP3    H232114   2.968   6.886   3.690  1.9800  0.5525 -1.6230
10725TIP3   OH232115   0.669   0.724   1.874 -0.0859  0.0270 -0.6293
10725TIP3    H132116   0.678   0.796   1.936  1.4817  0.2071 -1.0076
10725TIP3    H232117   0.621   0.656   1.921 -1.8980  1.4298 -0.3836
10726TIP3   OH232118   1.708   6.259   3.460 -0.1045 -0.3631 -0.7537
10726TIP3    H132119   1.623   6.292   3.431  0.3508  1.1378 -0.4250
10726TIP3    H232120   1.688   6.174   3.500 -1.4622  0.0446 -0.5327
10727TIP3   OH232121   8.293   0.536   4.602  0.0953 -0.2121  0.3531
10727TIP3    H132122   8.240   0.595   4.547  2.0954  0.5444 -0.8609
10727TIP3    H232123   8.366   0.510   4.546  2.4156  0.8095  2.6953
10728TIP3   OH232124   3.805   2.478   6.620  0.3211  1.1236 -0.1200
10728TIP3    H132125   3.800   2.559   6.569 -1.0129  1.3780  0.3940
10728TIP3    H232126   3.716   2.462   6.649  0.6535 -0.2943  0.1830
10729TIP3   OH232127   4.073   5.463   1.222  0.2002  0.6291 -0.1768
10729TIP3    H132128   4.029   5.411   1.154 -0.5495 -3.4080  3.0247
10729TIP3    H232129   4.003   5.486   1.283  1.5265 -0.3733  1.8090
10730TIP3   OH232130   5.773   1.688   1.929 -0.0577 -0.2453 -0.4094
10730TIP3    H132131   5.679   1.705   1.922 -0.3610 -2.0855 -1.5166
10730TIP3    H232132   5.797   1.720   2.016 -1.4444  1.3039 -0.5388
10731TIP3   OH232133   5.693   4.026   2.236 -0.3927  0.1958 -0.3559
10731TIP3    H132134   5.764   3.967   2.212 -1.0753 -0.7171 -0.1822
10731TIP3    H232135   5.613   3.976   2.217 -0.9693  0.4783  1.2361
10732TIP3   OH232136   2.799   2.400   1.261  0.4019  0.5857  0.4298
10732TIP3    H132137   2.784   2.355   1.178  0.8530 -1.2296  1.2701
10732TIP3    H232138   2.725   2.460   1.270 -0.9552 -0.9115 -0.1838
10733TIP3   OH232139   7.578   5.351   3.311  0.0341 -0.2539 -0.0171
10733TIP3    H132140   7.567   5.437   3.353  0.6025 -0.9213  1.5973
10733TIP3    H232141   7.537   5.290   3.372 -1.8780 -1.0038 -1.9468
10734TIP3   OH232142   4.512   4.939   2.794  0.5504 -0.2061 -0.3934
10734TIP3    H132143   4.517   5.020   2.844  0.3165  0.1906 -1.0030
10734TIP3    H232144   4.569   4.878   2.841 -0.6398 -0.2400  1.0746
10735TIP3   OH232145   4.885   2.407   2.518 -0.5132 -0.3729 -0.2432
10735TIP3    H132146   4.858   2.403   2.427  0.5833 -0.3317 -0.5843
10735TIP3    H232147   4.906   2.316   2.541 -1.7295 -0.5358  0.2749
10736TIP3   OH232148   6.551   2.873   1.884  0.2261 -0.0066  0.0948
10736TIP3    H132149   6.480   2.883   1.820  1.2586  0.8936 -0.9326
10736TIP3    H232150   6.558   2.778   1.896 -1.4446 -0.1181  0.5892
10737TIP3   OH232151   3.468   5.404   4.374 -0.6482  0.0871  0.6623
10737TIP3    H132152   3.452   5.338   4.306 -0.3070  0.6314  0.0481
10737TIP3    H232153   3.435   5.486   4.337  2.0185  0.9333  0.0008
10738TIP3   OH232154   7.850   7.428   5.005 -0.0691  1.3714 -0.3038
10738TIP3    H132155   7.761   7.404   4.978 -0.3341  0.5946  1.1647
10738TIP3    H232156   7.897   7.345   5.012  0.1959  1.5945  0.8109
10739TIP3   OH232157   0.109   5.481   0.835 -0.6583 -1.3189  0.0717
10739TIP3    H132158   0.151   5.441   0.759  1.2097 -0.0270  0.3559
10739TIP3    H232159   0.035   5.530   0.798  0.3028 -0.5908 -0.9532
10740TIP3   OH232160   2.564   5.797   5.185 -0.5915  0.2055 -0.6130
10740TIP3    H132161   2.535   5.717   5.229 -0.0803 -1.1179 -2.4997
10740TIP3    H232162   2.562   5.774   5.092 -1.3571  2.7380 -1.3040
10741TIP3   OH232163   2.994   6.869   4.266  0.1540 -0.2685 -0.1971
10741TIP3    H132164   3.036   6.871   4.180  2.0743 -0.5807  0.6711
10741TIP3    H232165   3.052   6.921   4.322 -2.1810  1.7776  0.4847
10742TIP3   OH232166   3.226   1.058   1.599 -0.0996 -0.7176 -0.1553
10742TIP3    H132167   3.182   0.984   1.557  0.1479 -0.9348 -0.0279
10742TIP3    H232168   3.154   1.108   1.639 -0.1574 -1.5607  0.8328
10743TIP3   OH232169   3.841   0.227   2.362  0.1650 -0.0727  0.4444
10743TIP3    H132170   3.746   0.217   2.354  0.3835 -1.7158 -0.4832
10743TIP3    H232171   3.857   0.321   2.352 -1.1416 -0.0550 -2.0143
10744TIP3   OH232172   0.464   6.135   3.414 -0.2252 -0.5837 -0.0810
10744TIP3    H132173   0.404   6.202   3.381  0.6370  0.3103  0.1235
10744TIP3    H232174   0.542   6.143   3.359  0.0626 -1.1289  0.2343
10745TIP3   OH232175   1.312   5.586   0.064  0.1431 -0.0453  0.0241
10745TIP3    H132176   1.223   5.561   0.087  0.0422  0.6428  0.3928
10745TIP3    H232177   1.344   5.635   0.139 -0.3152  2.5521 -1.3591
10746TIP3   OH232178   4.445   2.796   1.730  0.4688  0.2528 -0.1236
10746TIP3    H132179   4.479   2.707   1.732 -1.1089 -0.3582  1.1879
10746TIP3    H232180   4.511   2.845   1.681  1.6681 -1.4900 -0.3537
10747TIP3   OH232181   2.920   2.246   3.095 -0.1925  0.0435 -0.1762
10747TIP3    H132182   2.912   2.315   3.162 -0.8293  1.6616 -1.8443
10747TIP3    H232183   3.014   2.229   3.091  0.3046  2.6098 -1.3852
10748TIP3   OH232184   6.474   6.497   0.790 -0.9752 -0.2820 -0.0510
10748TIP3    H132185   6.427   6.516   0.871  2.5916  1.4069  1.8106
10748TIP3    H232186   6.504   6.582   0.758  0.7978 -1.2438 -1.1127
10749TIP3   OH232187   1.502   2.290   4.853  0.3952 -0.1069  0.3024
10749TIP3    H132188   1.504   2.256   4.763 -1.3115  0.4618  0.0225
10749TIP3    H232189   1.588   2.332   4.864  1.0333 -1.0937 -0.6811
10750TIP3   OH232190   0.672   0.464   3.327 -0.2542 -0.0123 -0.2954
10750TIP3    H132191   0.729   0.402   3.372 -0.6265  0.5096  0.9785
10750TIP3    H232192   0.604   0.410   3.286  1.1886 -0.6413 -1.9360
10751TIP3   OH232193   1.065   4.114   3.999  0.2670  0.1164  0.1010
10751TIP3    H132194   1.068   4.051   3.927 -1.5279  0.9648 -0.7755
10751TIP3    H232195   1.112   4.071   4.070  1.8066 -0.8925 -1.4450
10752TIP3   OH232196   6.345   1.439   6.404 -0.1374  0.7892 -0.4010
10752TIP3    H132197   6.394   1.520   6.392  1.2633 -0.1086 -1.0030
10752TIP3    H232198   6.363   1.413   6.494  0.4732  0.4815 -0.6088
10753TIP3   OH232199   4.786   6.346   0.951 -0.0810 -0.0091  0.3015
10753TIP3    H132200   4.748   6.259   0.966 -1.0183  0.5548  1.3439
10753TIP3    H232201   4.875   6.339   0.985  0.8807 -1.3854 -2.2814
10754TIP3   OH232202   2.834   6.722   0.094 -0.0415  0.2655 -0.5618
10754TIP3    H132203   2.860   6.814   0.090  1.8710 -0.1622  0.9467
10754TIP3    H232204   2.906   6.675   0.052 -0.7706 -0.6066 -0.8669
10755TIP3   OH232205   6.830   1.438   1.516 -0.8682  0.1763 -0.8475
10755TIP3    H132206   6.756   1.398   1.563 -1.2477  1.1235 -0.6240
10755TIP3    H232207   6.883   1.478   1.585 -1.0651  0.9871 -1.1609
10756TIP3   OH232208   5.842   6.312   1.819 -0.1634  0.0019  0.4240
10756TIP3    H132209   5.789   6.294   1.741 -0.6414 -1.6711  1.0814
10756TIP3    H232210   5.844   6.407   1.825 -1.4511  0.1426 -0.7362
10757TIP3   OH232211   0.064   6.256   3.779 -0.1246 -0.4724 -0.2043
10757TIP3    H132212   0.061   6.266   3.684  1.2647  1.9871 -0.0881
10757TIP3    H232213  -0.020   6.291   3.809  0.6760  1.8183 -0.4324
10758TIP3   OH232214   3.959   5.812   1.709  0.2697  0.2992 -0.0965
10758TIP3    H132215   3.917   5.730   1.735 -1.8055  1.0392 -0.9399
10758TIP3    H232216   3.919   5.879   1.764  0.6651  0.9939 -0.6355
10759TIP3   OH232217   0.598   5.304   4.540 -0.0677  0.4206  0.1225
10759TIP3    H132218   0.522   5.245   4.534  0.2688  0.1199 -1.4084
10759TIP3    H232219   0.654   5.263   4.606 -0.6356 -0.0416  0.3305
10760TIP3   OH232220   5.626   1.903   5.727 -0.5650  0.0534  0.5773
10760TIP3    H132221   5.680   1.832   5.760  1.4385  0.8385 -0.8398
10760TIP3    H232222   5.683   1.980   5.730 -1.9285  1.1304 -0.0398
10761TIP3   OH232223   3.604   7.739   5.449 -0.0149  0.0971 -0.3642
10761TIP3    H132224   3.640   7.771   5.532  1.1477 -0.4639 -0.6426
10761TIP3    H232225   3.573   7.651   5.469 -2.4619  1.0026  0.1921
10762TIP3   OH232226   2.828   3.966   4.084 -0.3931 -0.1511  0.4484
10762TIP3    H132227   2.762   4.035   4.081 -0.1319  0.0700 -0.6180
10762TIP3    H232228   2.899   4.003   4.137  0.1702  0.8244 -0.9129
10763TIP3   OH232229   4.862   4.531   5.787 -0.5213  0.3816  0.3140
10763TIP3    H132230   4.890   4.440   5.789 -2.6908 -0.4349 -1.8789
10763TIP3    H232231   4.927   4.576   5.734 -0.2365 -0.2047  0.1687
10764TIP3   OH232232   5.886   5.660   1.763  0.0595 -0.0267  0.4989
10764TIP3    H132233   5.854   5.750   1.758  1.0102  0.2541 -1.0345
10764TIP3    H232234   5.859   5.630   1.850 -2.8093  0.7575 -0.0046
10765TIP3   OH232235   1.693   0.646   0.916  0.2301  0.3043 -0.4322
10765TIP3    H132236   1.620   0.594   0.882  1.9730 -1.3086 -1.9369
10765TIP3    H232237   1.681   0.732   0.877 -0.8032  0.0433 -0.7341
10766TIP3   OH232238   2.362   2.210   4.323  0.1781 -0.8792 -0.0602
10766TIP3    H132239   2.386   2.303   4.328  0.9201 -1.0525 -0.2248
10766TIP3    H232240   2.280   2.204   4.372 -0.1528 -0.0471 -0.4893
10767TIP3   OH232241   6.844   4.135   4.999 -0.1747 -0.6493 -0.0734
10767TIP3    H132242   6.826   4.220   4.960 -0.6820 -0.3610  0.7743
10767TIP3    H232243   6.826   4.072   4.928 -3.1060 -0.2778  0.2215
10768TIP3   OH232244   5.962   6.702   3.872 -0.0999 -0.0298  0.0503
10768TIP3    H132245   5.961   6.679   3.965  0.7931 -1.0733 -0.1834
10768TIP3    H232246   6.043   6.751   3.861  0.4777 -1.0844 -0.4427
10769TIP3   OH232247   2.668   5.552   2.792  0.3445  1.0172 -0.1916
10769TIP3    H132248   2.722   5.569   2.869  2.5674  1.8094 -1.8279
10769TIP3    H232249   2.652   5.458   2.795 -1.5229  1.3072  2.3492
10770TIP3   OH232250   0.252   5.342   4.365 -0.3247 -0.5745 -0.9162
10770TIP3    H132251   0.170   5.309   4.326 -0.8902 -1.2219  0.7403
10770TIP3    H232252   0.268   5.424   4.319  0.0971 -2.1487 -3.8517
10771TIP3   OH232253   8.122   6.190   2.379  0.6044 -0.3419  0.2773
10771TIP3    H132254   8.185   6.118   2.379  0.0339 -0.8620  1.4193
10771TIP3    H232255   8.037   6.148   2.392  0.0265  0.3741 -0.9478
10772TIP3   OH232256   1.166   7.804   6.455 -0.2020 -0.2466  0.0784
10772TIP3    H132257   1.108   7.824   6.529  1.6654 -0.3441  1.6355
10772TIP3    H232258   1.139   7.716   6.428  0.3953 -1.0812  2.0047
10773TIP3   OH232259   6.292   0.643   1.323  0.0789 -0.1964 -0.2119
10773TIP3    H132260   6.238   0.722   1.322  0.3988  0.0465 -2.0987
10773TIP3    H232261   6.382   0.675   1.315  0.4226 -0.6764  1.3738
10774TIP3   OH232262   8.240   6.232   3.513  0.2632 -0.2616  0.0705
10774TIP3    H132263   8.166   6.227   3.573 -1.3917 -0.1366 -1.8404
10774TIP3    H232264   8.288   6.151   3.526 -0.9683 -0.9480  0.4322
10775TIP3   OH232265   4.865   4.538   4.464 -0.3422 -0.0893 -0.3788
10775TIP3    H132266   4.857   4.631   4.486  0.6767  0.0746 -0.6248
10775TIP3    H232267   4.777   4.512   4.437 -1.3270  0.0448  2.4412
10776TIP3   OH232268   0.395   6.930   3.563 -0.3817 -0.0341 -0.1640
10776TIP3    H132269   0.302   6.917   3.581 -0.3630  1.6654  1.4693
10776TIP3    H232270   0.437   6.853   3.602 -1.0909 -1.0035 -1.2423
10777TIP3   OH232271   6.666   5.533   1.676 -0.0014 -0.2807  0.2490
10777TIP3    H132272   6.754   5.554   1.707  0.6361  1.3092 -2.3245
10777TIP3    H232273   6.611   5.604   1.709  0.3346  0.4457 -0.7010
10778TIP3   OH232274   0.877   6.734   0.609 -0.2471 -0.1316  0.5150
10778TIP3    H132275   0.946   6.798   0.625 -1.3546  1.4713 -0.7527
10778TIP3    H232276   0.838   6.761   0.526 -1.0794 -2.2017  0.1669
10779TIP3   OH232277   0.504   4.248   4.073 -0.3376 -0.5982  0.2689
10779TIP3    H132278   0.499   4.273   4.165  0.7771  0.1259  0.1463
10779TIP3    H232279   0.417   4.213   4.053 -0.9081  0.1627  1.3250
10780TIP3   OH232280   1.705   2.106   3.272 -0.6262  0.4817 -0.3335
10780TIP3    H132281   1.742   2.054   3.343 -1.7360 -1.1230 -0.8870
10780TIP3    H232282   1.636   2.157   3.314 -1.8443 -1.0804 -0.3475
10781TIP3   OH232283   4.142   0.518   1.457  0.1990  0.0920  0.0901
10781TIP3    H132284   4.122   0.595   1.511 -1.6195 -1.8985  2.5508
10781TIP3    H232285   4.194   0.462   1.514  0.0170 -1.2291 -0.9864
10782TIP3   OH232286   6.962   4.931   5.407 -0.3436 -0.0164 -0.1172
10782TIP3    H132287   6.898   4.994   5.439 -1.4738 -1.1160 -0.1131
10782TIP3    H232288   6.930   4.846   5.440  0.4898 -0.7274 -1.0814
10783TIP3   OH232289   7.670   3.658   4.832 -0.9094  0.0268 -0.0705
10783TIP3    H132290   7.741   3.636   4.891 -0.2591  0.1437 -0.7937
10783TIP3    H232291   7.605   3.702   4.887 -0.4313 -0.0954  0.5938
10784TIP3   OH232292   6.907   0.618   5.479 -0.4136  0.0744  0.3617
10784TIP3    H132293   6.874   0.672   5.550 -1.6171 -0.4680  0.2492
10784TIP3    H232294   6.960   0.677   5.426 -1.5112  1.0962  0.3600
10785TIP3   OH232295   3.575   4.544   3.867 -0.1004 -0.0677  0.1618
10785TIP3    H132296   3.616   4.573   3.786 -0.1453 -0.5711 -0.0453
10785TIP3    H232297   3.638   4.568   3.935 -0.0104  0.2504 -0.0318
10786TIP3   OH232298   7.359   6.465   2.355 -0.4422  0.6699  0.1282
10786TIP3    H132299   7.337   6.389   2.302 -3.5329  2.1331 -0.9367
10786TIP3    H232300   7.317   6.449   2.439  0.2493  0.5391  0.4566
10787TIP3   OH232301   2.638   0.119   2.861  0.1688 -0.3600  0.7186
10787TIP3    H132302   2.713   0.093   2.914  0.1557 -0.3939  0.7201
10787TIP3    H232303   2.570   0.142   2.925  0.1488 -0.4127  0.7163
10788TIP3   OH232304   2.042   3.327   0.276  0.1346  0.2160  0.3622
10788TIP3    H132305   1.971   3.387   0.297  0.3889  0.5338  0.3372
10788TIP3    H232306   2.004   3.263   0.216 -0.6959 -0.9177  2.0354
10789TIP3   OH232307   0.700   0.381   0.833 -0.1846 -0.4105 -0.2372
10789TIP3    H132308   0.711   0.297   0.878 -2.4952  0.3911  2.0958
10789TIP3    H232309   0.780   0.392   0.782  0.9750 -3.1730  0.7908
10790TIP3   OH232310   7.291   6.426   3.015  0.4769  0.1922  0.2055
10790TIP3    H132311   7.316   6.414   2.923 -0.1309  0.0936  0.0458
10790TIP3    H232312   7.264   6.339   3.045 -1.0670  0.5327 -0.0741
10791TIP3   OH232313   3.479   2.356   6.156 -0.1551 -0.4307  0.3069
10791TIP3    H132314   3.423   2.294   6.202 -2.2011  0.4226 -0.8953
10791TIP3    H232315   3.506   2.309   6.077 -0.3314 -0.3525  0.2011
10792TIP3   OH232316   5.632   4.672   6.711  0.2290  0.4759 -0.2181
10792TIP3    H132317   5.582   4.607   6.661  0.4545  0.5835 -0.5883
10792TIP3    H232318   5.585   4.754   6.697 -0.3640  0.3051  0.6882
10793TIP3   OH232319   1.150   2.266   5.240 -0.3164  0.2507  0.6286
10793TIP3    H132320   1.226   2.259   5.297 -0.1484  0.2468  0.4036
10793TIP3    H232321   1.089   2.322   5.289  0.1864  0.9957  0.4342
10794TIP3   OH232322   0.492   2.856   6.143 -0.3994  0.1448  0.9201
10794TIP3    H132323   0.447   2.819   6.219  0.0693  0.3105  1.2777
10794TIP3    H232324   0.433   2.925   6.113 -1.9011 -1.6490 -0.5128
10795TIP3   OH232325   7.589   1.655   3.763 -0.1254 -0.6260 -0.5980
10795TIP3    H132326   7.638   1.576   3.742  1.2057  0.2585 -0.9773
10795TIP3    H232327   7.632   1.724   3.712 -1.4315  0.2898 -0.5071
10796TIP3   OH232328   4.643   0.647   6.427 -0.5029 -0.0645  0.2063
10796TIP3    H132329   4.560   0.694   6.424 -0.4570 -0.0031 -0.2557
10796TIP3    H232330   4.694   0.691   6.494 -0.1827  1.0210 -0.7178
10797TIP3   OH232331   7.331   4.062   0.267 -0.1387  0.1479 -0.0766
10797TIP3    H132332   7.292   4.060   0.179 -0.4821 -1.3940  0.0995
10797TIP3    H232333   7.261   4.097   0.323 -0.6851 -0.9637 -0.0536
10798TIP3   OH232334   1.254   7.396   0.602 -0.0006 -0.8800 -0.1732
10798TIP3    H132335   1.171   7.445   0.602  0.0686 -0.7593  0.1943
10798TIP3    H232336   1.231   7.311   0.639  0.0456 -0.8363 -0.0441
10799TIP3   OH232337   4.686   1.025   6.680 -0.0482  1.1915  0.1354
10799TIP3    H132338   4.775   1.011   6.713 -0.4124  1.4606  1.2645
10799TIP3    H232339   4.682   1.119   6.660  0.3219  0.9532 -1.2018
10800TIP3   OH232340   3.181   1.649   2.402  0.3017  0.5345  0.6149
10800TIP3    H132341   3.196   1.720   2.465 -0.6317  0.7181  0.6537
10800TIP3    H232342   3.235   1.673   2.326  1.5436  0.2340  1.3883
10801TIP3   OH232343   3.464   2.780   0.014  0.2783  0.2982 -0.0816
10801TIP3    H132344   3.486   2.688  -0.001  0.9623 -0.1354  3.0372
10801TIP3    H232345   3.506   2.802   0.097 -0.9268  3.0840 -0.1031
10802TIP3   OH232346   3.143   0.501   4.688 -0.5083 -0.3192 -0.0577
10802TIP3    H132347   3.234   0.526   4.705 -0.1048 -0.8301 -1.3344
10802TIP3    H232348   3.097   0.520   4.770  0.2467  2.1510 -0.1442
10803TIP3   OH232349   6.526   5.079   4.098 -0.7230 -0.5702  0.5418
10803TIP3    H132350   6.597   5.128   4.139  0.3366 -0.3222 -1.4930
10803TIP3    H232351   6.537   4.989   4.130 -0.0242 -0.3616  0.8996
10804TIP3   OH232352   5.864   2.399   4.236 -0.3674  0.0936  0.0243
10804TIP3    H132353   5.793   2.341   4.263 -0.9630 -0.1535 -1.8907
10804TIP3    H232354   5.820   2.471   4.190  0.5575  0.3704 -0.4550
10805TIP3   OH232355   7.372   5.284   4.203  0.0325 -0.4260  0.1561
10805TIP3    H132356   7.383   5.220   4.273  1.2471  0.9636  1.3232
10805TIP3    H232357   7.458   5.327   4.197  0.6066 -1.6718 -3.4628
10806TIP3   OH232358   3.172   4.722   6.325  0.2891 -0.1954 -0.3486
10806TIP3    H132359   3.089   4.682   6.353  0.9451 -0.4369  1.3638
10806TIP3    H232360   3.220   4.738   6.407  1.1886  1.6165 -1.1755
10807TIP3   OH232361   3.124   3.164   2.973 -0.1215 -0.0906  0.0749
10807TIP3    H132362   3.129   3.072   3.001 -2.4161 -0.1411  0.5612
10807TIP3    H232363   3.030   3.183   2.970  0.2167  1.7000 -1.9063
10808TIP3   OH232364   1.113   5.720   5.360  0.2484  0.3448  0.4103
10808TIP3    H132365   1.193   5.699   5.409  0.2286 -0.3302  0.1574
10808TIP3    H232366   1.048   5.740   5.427  0.2244 -0.5697  0.6739
10809TIP3   OH232367   2.258   0.741   2.430 -0.7877 -0.3997  0.6552
10809TIP3    H132368   2.284   0.715   2.342 -0.9622 -0.0947  0.5133
10809TIP3    H232369   2.180   0.690   2.449 -1.2526  0.1606  0.2950
10810TIP3   OH232370   1.962   2.095   0.212 -0.1272  0.2360 -0.1464
10810TIP3    H132371   1.928   2.146   0.139 -0.8372 -0.5188 -0.3625
10810TIP3    H232372   1.900   2.111   0.283 -0.8774 -1.0207 -0.4927
10811TIP3   OH232373   5.598   2.536   4.132 -0.5699 -0.4399 -0.0888
10811TIP3    H132374   5.583   2.628   4.154 -0.6977 -0.8213  1.5529
10811TIP3    H232375   5.513   2.504   4.102 -1.0546 -0.5222  1.3142
10812TIP3   OH232376   6.701   2.922   5.634  0.4622 -0.0624 -0.1654
10812TIP3    H132377   6.708   2.834   5.672 -0.2302 -0.3086 -0.5909
10812TIP3    H232378   6.783   2.933   5.585 -0.0228 -1.0277 -1.2440
10813TIP3   OH232379   2.819   2.831   0.495  0.0331 -0.3714 -0.5222
10813TIP3    H132380   2.763   2.907   0.509  0.8265  0.5310 -1.9196
10813TIP3    H232381   2.908   2.865   0.508  0.3403 -1.6258  1.0627
10814TIP3   OH232382   2.600   6.020   3.935  0.4436 -0.4109 -0.0228
10814TIP3    H132383   2.565   5.994   4.020 -0.3592  2.4044  0.6029
10814TIP3    H232384   2.523   6.036   3.880  0.8105  1.4962 -0.0388
10815TIP3   OH232385   2.096   7.832   1.652  0.3022 -0.4798 -0.4028
10815TIP3    H132386   2.192   7.841   1.653  0.2640  0.1900  1.0988
10815TIP3    H232387   2.065   7.916   1.620  0.2178 -0.2826  0.1715
10816TIP3   OH232388   5.021   5.437   5.235  0.6137 -0.7045  0.5196
10816TIP3    H132389   5.101   5.488   5.245  0.9403 -1.4404  2.1244
10816TIP3    H232390   5.050   5.355   5.193  0.6476 -0.8122  0.7487
10817TIP3   OH232391   5.699   6.241   3.240  0.2167  0.4473 -0.7369
10817TIP3    H132392   5.684   6.331   3.209  0.1130  0.7290  0.0871
10817TIP3    H232393   5.615   6.216   3.280 -0.2048 -0.5347 -2.1556
10818TIP3   OH232394   1.310   1.572   3.648  0.0692 -0.1695 -0.0400
10818TIP3    H132395   1.292   1.520   3.570  1.0612 -0.3608 -0.1595
10818TIP3    H232396   1.391   1.619   3.627  0.0107  0.2512  0.6426
10819TIP3   OH232397   3.924   3.531   5.072  1.2320 -0.1461  0.0399
10819TIP3    H132398   3.941   3.616   5.115  2.6595 -0.1605 -0.4496
10819TIP3    H232399   3.993   3.523   5.006  0.0263 -0.8710 -1.1803
10820TIP3   OH232400   0.170   6.177   0.773  0.0289 -0.0290 -0.4674
10820TIP3    H132401   0.188   6.142   0.860  0.8495  2.0247  0.2572
10820TIP3    H232402   0.219   6.120   0.714 -0.9249 -1.7461  0.3200
10821TIP3   OH232403   6.643   1.947   2.064  0.2141 -1.0352  0.0623
10821TIP3    H132404   6.613   1.961   2.154  0.3711 -1.4973  0.1871
10821TIP3    H232405   6.590   1.873   2.032 -0.4181 -0.3650 -0.5017
10822TIP3   OH232406   6.817   4.789   2.783  0.1201  0.4751 -0.4934
10822TIP3    H132407   6.771   4.715   2.823 -0.2419  0.7389 -0.4070
10822TIP3    H232408   6.746   4.849   2.757  0.3625  0.3988 -1.3476
10823TIP3   OH232409   4.253   5.182   4.966 -0.2004 -0.1420  0.2480
10823TIP3    H132410   4.322   5.166   4.902  0.0337 -0.1325  0.4934
10823TIP3    H232411   4.300   5.212   5.044 -0.5661  1.0524  0.0297
10824TIP3   OH232412   6.782   2.450   4.413 -0.6043 -0.5716 -0.1216
10824TIP3    H132413   6.779   2.546   4.417 -0.7310 -0.6039  0.8079
10824TIP3    H232414   6.697   2.425   4.377  0.1867 -0.2739 -2.3604
10825TIP3   OH232415   5.449   7.509   4.842 -0.6462  0.3430  0.0026
10825TIP3    H132416   5.410   7.590   4.808  2.2717  1.8078 -0.2192
10825TIP3    H232417   5.432   7.513   4.936  0.9982  2.2661  0.2922
10826TIP3   OH232418   3.588   4.495   0.524  0.0595  0.5063  0.3032
10826TIP3    H132419   3.674   4.534   0.510 -1.5256  4.8586  1.2744
10826TIP3    H232420   3.599   4.440   0.602  1.9711  0.8119  0.2929
10827TIP3   OH232421   5.733   5.792   1.370 -0.1209  0.4943  0.0328
10827TIP3    H132422   5.654   5.759   1.326  0.1755  0.7468 -0.7128
10827TIP3    H232423   5.777   5.845   1.303 -0.3253  2.0002  1.0315
10828TIP3   OH232424   2.142   5.007   3.684  0.1524  0.1713  0.7546
10828TIP3    H132425   2.078   5.063   3.638  1.2587  0.4865 -0.4456
10828TIP3    H232426   2.123   5.021   3.777 -0.9969  0.8826  0.4320
10829TIP3   OH232427   6.454   5.379   1.460  0.1498  0.0078  0.4901
10829TIP3    H132428   6.431   5.286   1.459  1.7618 -0.4303  0.8791
10829TIP3    H232429   6.496   5.392   1.545  2.8862  0.2893 -0.8004
10830TIP3   OH232430   0.886   6.728   1.016  0.8109  0.3733 -0.2447
10830TIP3    H132431   0.923   6.664   0.955  0.5156  0.5120 -0.5743
10830TIP3    H232432   0.791   6.717   1.007  0.7609  0.7643 -0.1989
10831TIP3   OH232433   0.789   3.716   6.174  0.0963 -0.1491 -0.4566
10831TIP3    H132434   0.830   3.776   6.112 -1.1743  0.7303 -0.4806
10831TIP3    H232435   0.742   3.773   6.235 -1.0475 -1.1108 -0.4047
10832TIP3   OH232436   0.745   3.150   3.744 -0.2745 -0.1962 -0.4926
10832TIP3    H132437   0.834   3.175   3.769 -0.7499  1.5203 -0.4012
10832TIP3    H232438   0.727   3.204   3.666 -0.4627 -2.1348 -1.8578
10833TIP3   OH232439   5.328   3.164   5.911 -0.3152 -0.8932  0.3388
10833TIP3    H132440   5.233   3.167   5.926 -0.6547 -0.3752 -1.6497
10833TIP3    H232441   5.348   3.071   5.906 -0.6020 -1.0239  1.2962
10834TIP3   OH232442   2.146   7.517   0.293  0.3470 -0.0604  0.0057
10834TIP3    H132443   2.214   7.543   0.231  2.2134  1.8884  2.6306
10834TIP3    H232444   2.189   7.456   0.353 -1.4680 -2.0967 -0.6494
10835TIP3   OH232445   6.211   0.118   6.397  0.2626 -0.1389 -0.2315
10835TIP3    H132446   6.167   0.178   6.458  2.0437  1.7627 -0.6953
10835TIP3    H232447   6.144   0.096   6.333 -0.8278  0.2291  0.7481
10836TIP3   OH232448   4.883   3.584   1.333  0.2570  0.0233 -0.1006
10836TIP3    H132449   4.812   3.520   1.342 -1.3014  1.6474 -0.1566
10836TIP3    H232450   4.932   3.577   1.414  0.7210 -1.8951 -0.5132
10837TIP3   OH232451   5.353   5.695   4.686 -0.0527 -0.5843 -0.5645
10837TIP3    H132452   5.323   5.767   4.631 -0.0994  1.6419  2.1743
10837TIP3    H232453   5.290   5.690   4.757  1.5282 -1.3980  0.8678
10838TIP3   OH232454   8.088   5.312   6.116  0.3546 -0.1474 -0.6570
10838TIP3    H132455   8.088   5.358   6.200  1.9896 -0.0380 -0.6801
10838TIP3    H232456   8.126   5.226   6.136 -0.4681 -0.6172 -1.0574
10839TIP3   OH232457   7.858   4.273   5.454  0.0403  0.6012  0.0594
10839TIP3    H132458   7.855   4.235   5.366 -2.9598 -0.2542  0.4075
10839TIP3    H232459   7.804   4.215   5.507 -0.5202  2.5718  1.8023
10840TIP3   OH232460   6.442   0.987   6.533 -0.3900  0.0574 -0.2067
10840TIP3    H132461   6.407   0.905   6.497  1.6768 -0.6040 -0.8827
10840TIP3    H232462   6.454   1.043   6.457 -1.1477  0.7487  0.1740
10841TIP3   OH232463   4.675   2.998   5.359 -0.3401  0.1254 -0.5380
10841TIP3    H132464   4.639   2.937   5.295 -1.2119  1.5072 -1.4273
10841TIP3    H232465   4.608   3.005   5.427  0.5166 -1.2179  0.4943
10842TIP3   OH232466   2.117   4.543   1.545  0.3289  0.0602  0.2536
10842TIP3    H132467   2.093   4.622   1.496  2.0433 -0.8812 -2.2875
10842TIP3    H232468   2.082   4.471   1.493 -0.0120 -0.9658  1.8277
10843TIP3   OH232469   7.866   2.709   6.437 -0.5323  0.2644  0.4824
10843TIP3    H132470   7.892   2.648   6.507  2.5806  1.4856  0.5574
10843TIP3    H232471   7.849   2.652   6.362  2.7226 -0.8334  0.4200
10844TIP3   OH232472   0.874   0.486   1.775 -0.0703 -0.0686 -0.1113
10844TIP3    H132473   0.912   0.443   1.851  0.1470  1.3679  0.6240
10844TIP3    H232474   0.819   0.419   1.734 -0.9453 -0.6156  1.8469
10845TIP3   OH232475   5.626   2.862   0.580 -0.1623 -0.0372 -0.5231
10845TIP3    H132476   5.707   2.830   0.540  0.9786  1.5022  0.4706
10845TIP3    H232477   5.654   2.902   0.662 -1.9878  0.2328 -0.0018
10846TIP3   OH232478   6.786   6.035   5.630 -0.6257 -0.8063 -0.3450
10846TIP3    H132479   6.700   6.059   5.664 -1.2786 -2.1371 -0.9881
10846TIP3    H232480   6.821   6.116   5.592 -0.8556  0.1569  1.3969
10847TIP3   OH232481   2.706   1.972   0.553 -0.5165 -0.1577 -0.1114
10847TIP3    H132482   2.658   1.893   0.530 -0.3630 -0.6310  1.1309
10847TIP3    H232483   2.797   1.945   0.562 -0.3584  0.2920 -0.2880
10848TIP3   OH232484   1.052   7.045   6.079  0.1127  0.3237  0.0987
10848TIP3    H132485   1.110   7.010   6.011  1.1457  0.9999  0.6219
10848TIP3    H232486   1.087   7.011   6.161 -2.0514 -1.7945  0.2544
10849TIP3   OH232487   5.484   4.517   4.709  0.1406 -0.2615 -0.5789
10849TIP3    H132488   5.529   4.598   4.732  0.8660 -0.9740  0.6480
10849TIP3    H232489   5.508   4.456   4.779 -1.3624 -1.1785 -0.8280
10850TIP3   OH232490   7.698   3.658   2.453 -0.3425  0.3760 -0.4489
10850TIP3    H132491   7.776   3.617   2.416 -0.1986  0.7626 -0.5785
10850TIP3    H232492   7.652   3.587   2.498 -0.0431  0.0969 -0.5832
10851TIP3   OH232493   7.872   2.215   6.197  0.7605  0.0447  0.1949
10851TIP3    H132494   7.824   2.263   6.130  0.9873 -0.5255 -0.3862
10851TIP3    H232495   7.960   2.203   6.160  0.0003 -3.2293 -0.9590
10852TIP3   OH232496   0.493   7.074   1.458 -0.7806  0.4164 -0.7884
10852TIP3    H132497   0.489   6.995   1.510  2.7318  0.6081 -0.0011
10852TIP3    H232498   0.487   7.146   1.521  1.2044  0.6700 -0.8390
10853TIP3   OH232499   1.166   2.721   6.285  0.3332  0.1502  0.1518
10853TIP3    H132500   1.116   2.715   6.203  1.2764 -1.7902 -0.3462
10853TIP3    H232501   1.102   2.752   6.350 -1.0927 -0.6383 -0.8211
10854TIP3   OH232502   1.463   6.607   2.250  0.0469 -0.1696 -0.1795
10854TIP3    H132503   1.476   6.562   2.166  1.2284  0.7955 -0.5329
10854TIP3    H232504   1.503   6.549   2.314  0.4750 -0.2034 -0.4744
10855TIP3   OH232505   2.808   7.887   4.561 -0.4019  0.8025  0.1747
10855TIP3    H132506   2.762   7.823   4.615  1.5846  0.2879  1.3555
10855TIP3    H232507   2.773   7.874   4.473 -1.1220 -0.8660  0.6746
10856TIP3   OH232508   6.695   6.133   0.136  0.2361 -0.0435  0.1112
10856TIP3    H132509   6.724   6.151   0.225  0.8355  0.7762 -0.2435
10856TIP3    H232510   6.668   6.218   0.101 -1.3166 -0.5626 -0.0408
10857TIP3   OH232511   2.155   7.761   2.519 -0.3545 -0.0853 -0.2474
10857TIP3    H132512   2.130   7.823   2.588  0.0140  1.3737 -1.3761
10857TIP3    H232513   2.233   7.800   2.479 -1.0499 -0.4712 -2.0515
10858TIP3   OH232514   4.359   6.994   1.614 -0.2765 -0.4528 -0.1412
10858TIP3    H132515   4.432   6.971   1.556 -0.7697 -0.6647 -0.6885
10858TIP3    H232516   4.388   6.966   1.701  0.0545 -1.0836 -0.4443
10859TIP3   OH232517   6.195   4.287   1.430  0.3968  0.1122  0.1859
10859TIP3    H132518   6.276   4.257   1.388  0.9390 -1.2784  2.1174
10859TIP3    H232519   6.135   4.212   1.422 -0.2002  0.5897  0.1080
10860TIP3   OH232520   0.787   4.303   1.494  0.7082 -0.6132 -0.5460
10860TIP3    H132521   0.772   4.371   1.560  0.5815 -1.3891  0.2360
10860TIP3    H232522   0.723   4.323   1.425  0.7528  0.1267 -0.3886
10861TIP3   OH232523   7.926   3.883   5.992  0.2682 -0.1976 -0.3781
10861TIP3    H132524   7.995   3.946   6.014 -0.2768  0.1134  0.4809
10861TIP3    H232525   7.943   3.861   5.900  1.2159  0.2451 -0.3308
10862TIP3   OH232526   6.896   2.550   1.483  0.3382  0.1880 -0.4554
10862TIP3    H132527   6.950   2.510   1.552  0.5570  1.0113 -0.1355
10862TIP3    H232528   6.883   2.640   1.512 -2.4277 -0.3307  0.1919
10863TIP3   OH232529   0.748   2.905   3.171  0.4890  0.4273  0.0910
10863TIP3    H132530   0.725   2.976   3.110 -1.4873 -0.7006 -0.5495
10863TIP3    H232531   0.671   2.895   3.227  1.1599 -0.5016  0.8872
10864TIP3   OH232532   6.471   0.035   0.317 -0.4919 -0.0667 -0.0654
10864TIP3    H132533   6.469  -0.054   0.352  1.2261  0.6727  2.1153
10864TIP3    H232534   6.431   0.089   0.385  0.9681  1.1544 -0.1242
10865TIP3   OH232535   0.709   5.287   6.283  0.3623  0.0782 -0.2208
10865TIP3    H132536   0.695   5.215   6.222 -0.8162  1.5889 -1.8541
10865TIP3    H232537   0.658   5.265   6.360 -0.3127 -0.6343 -0.8605
10866TIP3   OH232538   0.222   1.513   3.361 -0.0336  0.0836  0.1934
10866TIP3    H132539   0.227   1.445   3.428  0.9507  1.4115  1.5145
10866TIP3    H232540   0.308   1.514   3.320  0.1816  0.9828  0.6488
10867TIP3   OH232541   6.717   2.860   6.824  0.4385 -0.1071  0.0391
10867TIP3    H132542   6.703   2.954   6.831 -1.9727 -0.4673  0.8142
10867TIP3    H232543   6.785   2.842   6.889  0.9918  1.0885 -0.1746
10868TIP3   OH232544   6.455   7.622   4.576 -0.7803  0.4825  0.1163
10868TIP3    H132545   6.481   7.612   4.485  1.1774  0.6108  0.6161
10868TIP3    H232546   6.390   7.554   4.591 -1.6027  0.8547 -1.5148
10869TIP3   OH232547   7.325   4.455   1.117 -0.3970  0.2472 -0.3953
10869TIP3    H132548   7.262   4.526   1.130 -2.1129 -0.4362 -3.8357
10869TIP3    H232549   7.283   4.377   1.153  0.2805  0.4432  0.8748
10870TIP3   OH232550   5.623   4.874   5.704  0.2715 -0.0875 -0.1918
10870TIP3    H132551   5.715   4.873   5.677  0.3439 -0.6602  0.0702
10870TIP3    H232552   5.620   4.819   5.783 -0.3301 -0.2526 -0.3247
10871TIP3   OH232553   3.218   1.346   1.434  0.0478 -0.3118 -0.3104
10871TIP3    H132554   3.175   1.277   1.384 -0.8361  1.2713 -1.8313
10871TIP3    H232555   3.310   1.340   1.409  0.2080 -1.7245  0.5573
10872TIP3   OH232556   7.342   3.468   4.508 -0.1276  0.1475  0.6414
10872TIP3    H132557   7.412   3.520   4.549 -0.6857  0.7512  0.8430
10872TIP3    H232558   7.388   3.409   4.448  0.4429  2.3361 -1.2435
10873TIP3   OH232559   5.067   7.706   6.061  0.3160  0.4562  0.0705
10873TIP3    H132560   5.003   7.769   6.029  1.0376  0.1209 -2.2120
10873TIP3    H232561   5.148   7.757   6.070  0.1413  0.5367  1.4581
10874TIP3   OH232562   5.165   6.541   3.077  0.2974 -0.0506  0.2581
10874TIP3    H132563   5.099   6.610   3.087 -1.3816 -1.6657  0.8132
10874TIP3    H232564   5.114   6.462   3.060  2.0558 -1.5201  1.5058
10875TIP3   OH232565   0.749   1.355   0.855 -0.7909  0.4445 -0.4642
10875TIP3    H132566   0.755   1.264   0.828 -0.0732  0.0560  0.9075
10875TIP3    H232567   0.666   1.361   0.902 -1.4726  0.8338 -1.6882
10876TIP3   OH232568   1.829   7.052   2.581  0.0504  0.0177 -0.3773
10876TIP3    H132569   1.838   7.117   2.511  1.9347 -1.3817 -1.5180
10876TIP3    H232570   1.834   7.104   2.661 -0.2244  1.4670 -1.2546
10877TIP3   OH232571   1.924   0.372   5.111  0.4288 -0.0531  0.1762
10877TIP3    H132572   1.911   0.416   5.027 -4.4224 -1.1645  0.0068
10877TIP3    H232573   1.964   0.288   5.089 -0.6215 -0.2552 -1.1002
10878TIP3   OH232574   3.244   5.482   3.079  0.1273  0.2042 -0.2676
10878TIP3    H132575   3.238   5.577   3.068 -0.0824  0.2947  0.6130
10878TIP3    H232576   3.311   5.455   3.016  0.4387  0.9738 -0.2767
10879TIP3   OH232577   6.683   7.026   1.224  0.1880 -0.2430  0.2705
10879TIP3    H132578   6.685   7.070   1.139 -0.5393 -0.4771  0.1306
10879TIP3    H232579   6.776   7.016   1.247  0.3720  0.8568  0.0536
10880TIP3   OH232580   1.641   7.203   5.318  0.1043  0.0054 -0.0785
10880TIP3    H132581   1.559   7.155   5.308  1.1624 -1.7745 -0.6431
10880TIP3    H232582   1.683   7.196   5.232  2.0538 -1.4980  0.9289
10881TIP3   OH232583   6.608   5.419   0.212  0.3024  0.2405  0.1304
10881TIP3    H132584   6.571   5.392   0.296 -0.0306  0.9749  0.2204
10881TIP3    H232585   6.683   5.361   0.200 -0.3944 -0.7247  0.3261
10882TIP3   OH232586   7.358   4.647   5.644 -0.2270  0.5307 -0.7335
10882TIP3    H132587   7.274   4.688   5.667  0.4843  0.9005  1.3850
10882TIP3    H232588   7.421   4.719   5.643  0.8648 -0.2424  2.1315
10883TIP3   OH232589   1.450   5.630   2.969 -0.5743  0.6382  0.7817
10883TIP3    H132590   1.523   5.681   3.003 -0.3777  0.9532 -0.0954
10883TIP3    H232591   1.403   5.691   2.912 -0.5755 -0.0294  0.0527
10884TIP3   OH232592   4.021   5.717   2.621 -0.4551 -0.6040 -0.3112
10884TIP3    H132593   3.930   5.744   2.605 -0.1823  0.1169 -0.6683
10884TIP3    H232594   4.013   5.630   2.660 -1.3569 -0.0706  0.7789
10885TIP3   OH232595   1.765   6.405   3.108 -0.6706  0.1156  0.2687
10885TIP3    H132596   1.815   6.443   3.181  1.1030 -0.4019 -0.6054
10885TIP3    H232597   1.772   6.470   3.038 -0.3675 -0.3905 -0.1792
10886TIP3   OH232598   0.061   2.620   4.108 -0.7462  0.3881  0.0289
10886TIP3    H132599   0.059   2.711   4.078 -0.9198 -0.0261 -1.2855
10886TIP3    H232600   0.072   2.569   4.028  0.2799 -0.7059  0.8301
10887TIP3   OH232601   0.465   7.078   3.854  0.2615 -0.0058  0.4815
10887TIP3    H132602   0.508   7.057   3.937 -0.9624 -0.9266  0.9022
10887TIP3    H232603   0.536   7.075   3.790  1.1721  0.4226  1.4346
10888TIP3   OH232604   7.571   5.955   4.338 -0.4074  0.6462  0.5576
10888TIP3    H132605   7.568   5.941   4.244 -1.2518  2.7444  0.2342
10888TIP3    H232606   7.509   5.891   4.373 -1.8654  1.3784 -0.5594
10889TIP3   OH232607   1.538   3.964   0.912  0.2171 -0.4652 -0.1294
10889TIP3    H132608   1.485   3.936   0.838 -3.2480  1.8015  1.2501
10889TIP3    H232609   1.494   3.926   0.989  1.2018  0.6675  1.0458
10890TIP3   OH232610   8.115   3.712   2.191  0.3603 -0.3845 -0.4793
10890TIP3    H132611   8.207   3.707   2.216  0.2874 -0.0513 -0.1328
10890TIP3    H232612   8.103   3.642   2.127  0.6677 -0.9463  0.0727
10891TIP3   OH232613   6.563   0.404   0.260  0.4069 -0.3935  0.1069
10891TIP3    H132614   6.560   0.334   0.195  2.1293 -2.0256  1.6681
10891TIP3    H232615   6.595   0.362   0.340 -1.2456  1.6083  1.9451
10892TIP3   OH232616   4.767   5.263   2.824 -0.1481 -0.5083 -0.1743
10892TIP3    H132617   4.712   5.206   2.770  1.2687 -1.0567 -1.0873
10892TIP3    H232618   4.797   5.206   2.895  1.2622 -0.9420 -1.0826
10893TIP3   OH232619   1.003   5.983   2.527 -0.4798 -0.2030  0.5288
10893TIP3    H132620   1.090   5.999   2.565  0.2280 -1.2148 -0.5772
10893TIP3    H232621   0.952   6.060   2.551  1.1991  1.1685 -0.1188
10894TIP3   OH232622   4.311   6.145   4.560  0.9053 -0.1367  0.3614
10894TIP3    H132623   4.365   6.224   4.554 -1.0651  1.2522 -0.0058
10894TIP3    H232624   4.288   6.137   4.652 -1.4606  1.6280  0.0211
10895TIP3   OH232625   0.785   3.408   5.379  0.2942 -0.2179 -0.0192
10895TIP3    H132626   0.801   3.496   5.345 -1.7852 -0.1993 -1.1027
10895TIP3    H232627   0.799   3.415   5.473 -0.2304  1.3726 -0.0419
10896TIP3   OH232628   4.098   7.388   2.019  0.7649 -0.3941  0.2046
10896TIP3    H132629   4.064   7.383   1.930  0.9115  0.2731  0.1070
10896TIP3    H232630   4.165   7.456   2.016  0.2002  0.2198  1.0004
10897TIP3   OH232631   7.660   6.840   0.314 -0.3081 -0.0838 -0.3933
10897TIP3    H132632   7.715   6.785   0.258 -1.7505  0.3300 -2.3728
10897TIP3    H232633   7.721   6.894   0.364  1.1708 -3.0825  1.3268
10898TIP3   OH232634   2.419   6.945   1.882  0.0626 -0.9159  0.3205
10898TIP3    H132635   2.372   6.881   1.935  0.5034 -0.8417  0.8081
10898TIP3    H232636   2.511   6.919   1.888  0.6429  1.2823  2.7837
10899TIP3   OH232637   3.581   0.269   3.374  0.6100  0.3406 -0.1122
10899TIP3    H132638   3.570   0.354   3.332  1.6379  0.3228 -0.4484
10899TIP3    H232639   3.675   0.250   3.366  0.5228 -0.4837  0.6139
10900TIP3   OH232640   5.994   2.845   4.511 -0.1659  0.3815 -0.3636
10900TIP3    H132641   6.073   2.803   4.478  0.3692  0.0605  1.2495
10900TIP3    H232642   6.021   2.887   4.593 -1.3176  1.5686 -0.5524
10901TIP3   OH232643   7.737   7.708   4.513  0.0298 -0.6096  0.4460
10901TIP3    H132644   7.682   7.783   4.491  1.5426  0.7041  0.9373
10901TIP3    H232645   7.677   7.634   4.514 -0.9250 -0.1794 -3.8687
10902TIP3   OH232646   2.410   3.345  -0.014 -0.0816 -0.2056 -0.4502
10902TIP3    H132647   2.475   3.356   0.055 -1.4699 -0.2519  0.9226
10902TIP3    H232648   2.376   3.256  -0.001 -0.1077 -0.3564 -1.4518
10903TIP3   OH232649   2.612   3.370   3.885  0.5481 -0.4101  0.3876
10903TIP3    H132650   2.566   3.290   3.862 -1.2413  1.0207 -1.4088
10903TIP3    H232651   2.640   3.407   3.802  0.9931  0.9985  1.1183
10904TIP3   OH232652   7.666   6.556   4.149 -0.3411  0.1551  0.3856
10904TIP3    H132653   7.713   6.619   4.203  2.6773  0.0128 -1.8402
10904TIP3    H232654   7.675   6.473   4.197 -0.9754  0.6522  1.4141
10905TIP3   OH232655   3.159   5.215   3.810 -0.2381  0.5048  0.1083
10905TIP3    H132656   3.139   5.145   3.872  0.7500 -0.6819 -0.8557
10905TIP3    H232657   3.077   5.231   3.765 -0.8014  0.9171  1.2601
10906TIP3   OH232658   2.305   2.156   2.305 -0.0665 -0.0382 -0.4185
10906TIP3    H132659   2.237   2.097   2.272  0.9205 -2.0953  0.9521
10906TIP3    H232660   2.383   2.133   2.255  0.1485  0.7153 -0.4382
10907TIP3   OH232661   3.482   1.898   3.451  0.2261 -0.3803 -0.1192
10907TIP3    H132662   3.521   1.973   3.495  0.1804 -0.9735  0.9940
10907TIP3    H232663   3.389   1.903   3.474 -0.3768  0.8818 -2.5349
10908TIP3   OH232664   4.194   6.842   1.305 -0.6360  0.0073 -0.2233
10908TIP3    H132665   4.210   6.780   1.375 -1.2567 -0.2784 -0.3312
10908TIP3    H232666   4.277   6.888   1.294 -0.7801  0.6727  1.2942
10909TIP3   OH232667   2.407   2.615   1.343 -0.1754 -0.1665  0.2457
10909TIP3    H132668   2.412   2.710   1.330 -2.0380  0.0763  1.0055
10909TIP3    H232669   2.438   2.601   1.433  4.0161 -0.8194 -1.1117
10910TIP3   OH232670   7.444   0.924   2.816  0.1234  0.3371  0.2990
10910TIP3    H132671   7.460   1.016   2.796 -0.9744  0.4287 -0.2099
10910TIP3    H232672   7.362   0.903   2.772  1.2631 -1.3944 -1.1645
10911TIP3   OH232673   0.960   5.868   2.816 -0.3937  0.6549  0.0843
10911TIP3    H132674   0.891   5.932   2.834  1.6963  2.7884  1.1833
10911TIP3    H232675   1.040   5.910   2.848  1.5735 -1.2869 -1.8962
10912TIP3   OH232676   0.006   7.367   4.036  0.1593 -0.2753 -0.0842
10912TIP3    H132677  -0.074   7.314   4.031  0.1109 -0.1187 -1.5260
10912TIP3    H232678   0.076   7.308   4.008  0.5080 -0.2983  0.7998
10913TIP3   OH232679   2.691   0.939   2.249 -0.3273  0.1356 -0.0035
10913TIP3    H132680   2.715   0.856   2.289  0.3798  0.5494  0.4505
10913TIP3    H232681   2.770   0.992   2.255 -0.6678  0.7262 -0.5990
10914TIP3   OH232682   0.870   6.208   0.662  0.2124  0.2530 -0.0778
10914TIP3    H132683   0.903   6.297   0.656 -0.1615  0.5424  1.7041
10914TIP3    H232684   0.947   6.153   0.646  0.2457  0.8343 -2.2272
10915TIP3   OH232685   0.769   0.905   4.923  0.3432  0.1732 -0.5691
10915TIP3    H132686   0.778   0.847   4.848 -0.9024 -0.2456 -0.4085
10915TIP3    H232687   0.712   0.976   4.893 -0.6695 -0.3170  0.1447
10916TIP3   OH232688   6.642   5.934   1.409  0.1379 -0.5774 -0.1847
10916TIP3    H132689   6.733   5.909   1.395  0.4050 -0.0511  0.5633
10916TIP3    H232690   6.643   5.988   1.487 -0.4889  1.3642 -1.4381
10917TIP3   OH232691   2.277   7.654   2.253 -0.0225 -0.2456  0.2038
10917TIP3    H132692   2.199   7.601   2.270  1.1196 -1.1440  3.2696
10917TIP3    H232693   2.275   7.722   2.320  0.0852  1.9101 -1.8626
10918TIP3   OH232694   0.906   1.858   6.076 -0.0128 -0.0616  0.3023
10918TIP3    H132695   0.956   1.933   6.045  0.4231 -0.4846 -0.0198
10918TIP3    H232696   0.902   1.799   6.001 -2.3202  0.6299 -0.2047
10919TIP3   OH232697   3.077   4.899   0.924  0.2183  0.9913 -0.1672
10919TIP3    H132698   3.127   4.945   0.857 -0.2445 -0.5283 -1.6144
10919TIP3    H232699   3.054   4.815   0.884 -0.0240 -0.0110  1.9124
10920TIP3   OH232700   4.350   5.469   5.397  0.6481 -0.0590  0.7418
10920TIP3    H132701   4.290   5.526   5.445 -0.2515 -0.3803  0.0396
10920TIP3    H232702   4.420   5.450   5.459  2.2268  3.5943  0.3669
10921TIP3   OH232703   5.873   1.051   6.848  0.1186 -0.1870  0.1663
10921TIP3    H132704   5.821   0.973   6.868 -1.7299  0.1798 -2.6571
10921TIP3    H232705   5.881   1.051   6.752 -0.6394  3.4440 -0.0493
10922TIP3   OH232706   8.095   4.284   3.800 -0.2888  0.0057  0.6439
10922TIP3    H132707   8.175   4.263   3.847 -0.9194 -0.9206  1.3447
10922TIP3    H232708   8.068   4.201   3.761 -0.0555  0.6420 -0.9587
10923TIP3   OH232709   6.184   0.447   4.496 -0.0514 -0.3945 -0.3913
10923TIP3    H132710   6.273   0.474   4.470 -0.2818  0.0368 -0.7503
10923TIP3    H232711   6.198   0.376   4.559  0.6411  1.5349  1.7727
10924TIP3   OH232712   6.301   5.452   2.567  0.0888  0.2536 -0.1555
10924TIP3    H132713   6.349   5.398   2.504 -0.5327 -0.5664  0.0670
10924TIP3    H232714   6.366   5.474   2.634  0.8178  1.3176 -1.1583
10925TIP3   OH232715   4.307   6.090   0.846 -0.3144 -0.2214 -0.1280
10925TIP3    H132716   4.340   6.021   0.903  0.9768 -0.2499 -0.8645
10925TIP3    H232717   4.281   6.160   0.906  2.9698  0.6177  0.5258
10926TIP3   OH232718   5.808   7.115   0.412 -0.4090 -0.1639  0.2505
10926TIP3    H132719   5.728   7.062   0.415  0.3868 -1.4187  0.0921
10926TIP3    H232720   5.822   7.132   0.319  0.0020 -0.7509  0.1976
10927TIP3   OH232721   3.082   7.284   2.064  0.4458 -0.0075 -0.7793
10927TIP3    H132722   3.019   7.269   2.134  1.9253  0.2640  0.6654
10927TIP3    H232723   3.039   7.251   1.985 -1.8824  1.0234 -0.0413
10928TIP3   OH232724   0.869   7.169   1.476  0.4946 -0.0214 -0.0557
10928TIP3    H132725   0.890   7.082   1.508 -2.9604 -1.1348 -0.4106
10928TIP3    H232726   0.888   7.227   1.550  1.0705 -1.3251  0.8541
10929TIP3   OH232727   6.097   4.829   2.304  0.1415  0.5078 -0.0527
10929TIP3    H132728   6.065   4.917   2.283 -0.1993  0.1192 -1.1932
10929TIP3    H232729   6.124   4.792   2.220 -0.5687 -0.8292  0.2829
10930TIP3   OH232730   2.623   0.758   0.924 -0.0548 -0.6114  0.2709
10930TIP3    H132731   2.585   0.834   0.969  0.4638 -0.9168  1.2615
10930TIP3    H232732   2.619   0.781   0.831 -1.9625 -0.3273  0.3884
10931TIP3   OH232733   1.522   5.422   1.058 -0.3423  0.7748  0.7423
10931TIP3    H132734   1.457   5.394   0.994 -0.3149 -0.1711  1.1056
10931TIP3    H232735   1.528   5.517   1.047 -0.7213  0.6940 -0.2859
10932TIP3   OH232736   3.108   2.916   5.876  0.6772  0.6706 -0.2202
10932TIP3    H132737   3.087   2.882   5.963 -0.5766 -0.4964 -0.9378
10932TIP3    H232738   3.076   2.849   5.816 -1.4913  2.8735 -1.7101
10933TIP3   OH232739   0.076   0.417   5.205  0.3057 -0.0357  0.3374
10933TIP3    H132740   0.162   0.421   5.246  1.7865  0.9707 -2.5284
10933TIP3    H232741   0.094   0.385   5.116 -2.3728 -0.3238 -0.1797
10934TIP3   OH232742   4.009   7.083   5.002 -0.0294 -0.0936  0.3625
10934TIP3    H132743   4.093   7.128   5.000 -0.4391  0.7459  1.1605
10934TIP3    H232744   3.973   7.102   5.089 -0.8395 -0.8215  0.2060
10935TIP3   OH232745   1.879   5.899   5.641  0.1019  0.1502 -0.1532
10935TIP3    H132746   1.842   5.934   5.722 -0.2507  0.6757 -0.5374
10935TIP3    H232747   1.895   5.807   5.660  0.2250  0.3176  0.5865
10936TIP3   OH232748   0.642   7.881   2.760  0.5018  0.9994  0.0394
10936TIP3    H132749   0.669   7.935   2.834 -0.8787 -0.3390  1.5934
10936TIP3    H232750   0.684   7.797   2.776  1.5114  1.1404 -1.6238
10937TIP3   OH232751   7.995   1.303   4.855  0.2259  0.4982  0.4384
10937TIP3    H132752   8.014   1.359   4.780 -0.1771  0.5259  0.3571
10937TIP3    H232753   8.031   1.351   4.930 -1.6021  1.7049  0.6113
10938TIP3   OH232754   4.771   4.735   6.210  0.3946 -0.3679 -0.1232
10938TIP3    H132755   4.821   4.733   6.291  0.0790 -0.8274  0.0647
10938TIP3    H232756   4.747   4.643   6.194 -0.2100 -0.1827 -0.3209
10939TIP3   OH232757   3.050   4.611   2.071  0.4960  0.2812 -0.3275
10939TIP3    H132758   3.091   4.531   2.103 -1.1500 -0.0988  0.9351
10939TIP3    H232759   3.058   4.673   2.144 -0.1603  0.5686 -0.4981
10940TIP3   OH232760   6.088   7.165   6.455 -0.0920  0.7620 -0.1761
10940TIP3    H132761   6.117   7.215   6.379 -0.1539 -0.3262 -0.9327
10940TIP3    H232762   6.007   7.208   6.483 -0.3436  0.8598 -1.0451
10941TIP3   OH232763   6.234   1.439   5.881 -0.2244 -0.0636 -0.4913
10941TIP3    H132764   6.269   1.361   5.839 -2.0580 -0.0371 -2.2765
10941TIP3    H232765   6.276   1.512   5.835  1.5464  0.0669  1.2263
10942TIP3   OH232766   7.645   0.554   5.943 -0.2484 -0.6701 -0.0518
10942TIP3    H132767   7.644   0.461   5.962  1.4990 -0.4908  1.2017
10942TIP3    H232768   7.698   0.563   5.864  0.7209 -0.6487  0.5907
10943TIP3   OH232769   8.068   0.707   5.414 -0.4967  0.0838 -0.0941
10943TIP3    H132770   8.051   0.613   5.419  0.0346 -0.0177 -0.1824
10943TIP3    H232771   8.161   0.714   5.392  0.1255  0.6519  2.3701
10944TIP3   OH232772   0.073   5.092   6.256  0.9263  0.2285 -0.3878
10944TIP3    H132773   0.138   5.037   6.214  0.1573 -1.0533  0.0614
10944TIP3    H232774  -0.009   5.071   6.212  0.2306 -0.6171  1.2419
10945TIP3   OH232775   2.779   4.951   0.924  0.4287 -0.0615  0.2441
10945TIP3    H132776   2.854   4.938   0.981  0.2222  0.9014  0.7568
10945TIP3    H232777   2.814   4.999   0.849  1.1243 -3.0334 -1.4901
10946TIP3   OH232778   4.413   3.528   2.972  0.2006 -0.1355  0.5721
10946TIP3    H132779   4.399   3.621   2.952  0.7555 -0.4296 -1.3276
10946TIP3    H232780   4.342   3.483   2.926 -0.5535 -0.6563  2.1319
10947TIP3   OH232781   6.746   0.148   1.311  0.2407  0.0156 -0.6877
10947TIP3    H132782   6.689   0.106   1.375  1.3745 -0.3130  0.1447
10947TIP3    H232783   6.834   0.116   1.333  0.7028  0.2234 -2.1601
10948TIP3   OH232784   6.597   0.914   6.787 -0.0642  0.1130 -0.1236
10948TIP3    H132785   6.539   0.988   6.807 -0.1764  0.1924 -0.7351
10948TIP3    H232786   6.558   0.873   6.710  0.8995  0.3937 -0.7776
10949TIP3   OH232787   2.042   7.309   0.045 -0.2744  0.0371  0.0946
10949TIP3    H132788   2.052   7.234   0.103  0.4759 -0.0895 -0.1915
10949TIP3    H232789   2.003   7.377   0.100 -0.5258 -0.4051  0.4741
10950TIP3   OH232790   5.049   3.691   6.726  0.6087  0.0445  0.4087
10950TIP3    H132791   4.954   3.680   6.727  0.4024  1.6654  0.9557
10950TIP3    H232792   5.070   3.718   6.816  1.2230  2.3191 -0.3712
10951TIP3   OH232793   3.469   7.432   0.414 -0.5844  0.0742 -0.4912
10951TIP3    H132794   3.510   7.351   0.384 -1.4769 -0.5302 -0.1278
10951TIP3    H232795   3.449   7.415   0.507 -1.0513  0.5880 -0.4944
10952TIP3   OH232796   4.880   4.200   3.058 -0.3090 -0.5583 -0.3931
10952TIP3    H132797   4.832   4.222   2.978 -0.1021  0.0783 -0.3466
10952TIP3    H232798   4.901   4.107   3.049 -0.2301 -0.4715 -1.1078
10953TIP3   OH232799   2.885   7.374   6.102  0.3476 -0.2350 -0.3603
10953TIP3    H132800   2.956   7.311   6.116  0.9574  0.5898  0.3522
10953TIP3    H232801   2.879   7.421   6.184 -1.0516 -0.2980 -0.4140
10954TIP3   OH232802   6.839   1.606   2.397  0.5419 -0.0175 -0.2284
10954TIP3    H132803   6.814   1.518   2.370 -0.3655  0.0181  0.4500
10954TIP3    H232804   6.878   1.645   2.319  1.4371 -1.1818 -0.4030
10955TIP3   OH232805   7.957   2.332   0.887  0.3346  0.2302 -0.2347
10955TIP3    H132806   7.913   2.247   0.878  0.9988 -0.2565  0.8533
10955TIP3    H232807   7.891   2.389   0.926  0.0028  0.1066 -0.6053
10956TIP3   OH232808   0.963   1.343   0.215  0.4328 -0.3848  0.2392
10956TIP3    H132809   1.028   1.338   0.285  0.8775 -3.6090 -0.2340
10956TIP3    H232810   0.879   1.338   0.259  0.6369 -0.0823  0.6692
10957TIP3   OH232811   5.910   1.163   1.343  0.1485 -0.7463 -0.0656
10957TIP3    H132812   5.877   1.252   1.357 -0.3721 -1.0775  0.8765
10957TIP3    H232813   6.004   1.174   1.330  0.0495 -0.0318 -0.2078
10958TIP3   OH232814   7.701   1.264   4.446  0.1470 -0.5357  0.3201
10958TIP3    H132815   7.793   1.287   4.433  0.3344  0.2047  2.5882
10958TIP3    H232816   7.702   1.170   4.464 -0.0294 -1.3994 -3.3514
10959TIP3   OH232817   4.553   5.659   4.136  0.0010  0.3215 -0.3381
10959TIP3    H132818   4.559   5.597   4.208  0.8383 -0.5062 -1.0762
10959TIP3    H232819   4.602   5.617   4.065  0.5750  1.8307 -0.8683
10960TIP3   OH232820   4.392   4.691   0.048 -0.1122  0.1986 -0.3044
10960TIP3    H132821   4.375   4.689  -0.046 -1.1674  0.8544 -0.1415
10960TIP3    H232822   4.338   4.621   0.084  1.2251 -0.8832 -0.2973
10961TIP3   OH232823   0.423   4.709   5.213 -0.3475 -0.0977  0.1917
10961TIP3    H132824   0.447   4.800   5.230  0.4964 -0.2104 -0.3158
10961TIP3    H232825   0.494   4.676   5.157 -1.5189 -0.5633 -1.0664
10962TIP3   OH232826   0.180   7.614   6.415  0.0026  0.8495 -0.0531
10962TIP3    H132827   0.222   7.699   6.432 -0.4837  1.0156  0.3747
10962TIP3    H232828   0.148   7.621   6.325 -1.0584  1.5777  0.3605
10963TIP3   OH232829   0.967   5.319   6.410  0.0029  0.2853  0.1789
10963TIP3    H132830   0.902   5.293   6.345 -1.8354  0.5533  1.7966
10963TIP3    H232831   0.995   5.406   6.383  0.5816 -0.3132 -1.1881
10964TIP3   OH232832   0.735   0.062   3.441  0.4256  0.1592 -0.3848
10964TIP3    H132833   0.642   0.079   3.429  0.2910 -0.7559 -0.7196
10964TIP3    H232834   0.754  -0.011   3.381  1.4153  0.5268 -0.5389
10965TIP3   OH232835   6.211   0.772   6.557  0.4300  0.4948 -0.5088
10965TIP3    H132836   6.123   0.736   6.564  0.8009 -0.1504  1.2358
10965TIP3    H232837   6.250   0.728   6.481 -1.2333  1.9566 -2.3211
10966TIP3   OH232838   2.120   1.830   2.396  0.1601 -0.2855  0.0278
10966TIP3    H132839   2.111   1.875   2.312 -0.3551  1.3115  0.8947
10966TIP3    H232840   2.041   1.776   2.403  0.8449 -1.4827 -1.0819
10967TIP3   OH232841   2.631   1.216   0.273  0.2458 -0.1341 -0.1897
10967TIP3    H132842   2.673   1.149   0.219  0.4375 -0.5814  0.5025
10967TIP3    H232843   2.585   1.167   0.342  1.4166  0.4607  1.0666
10968TIP3   OH232844   5.327   4.147   5.394 -0.3223  0.0299  0.8985
10968TIP3    H132845   5.341   4.197   5.314  0.9389 -1.5284  0.0850
10968TIP3    H232846   5.295   4.212   5.457  0.0615  1.5964 -0.4321
10969TIP3   OH232847   5.570   1.012   4.131 -0.0586 -0.1006  0.0995
10969TIP3    H132848   5.632   0.940   4.140 -2.3280 -1.9254  3.3899
10969TIP3    H232849   5.497   0.974   4.083 -0.7930  0.3154  0.8613
10970TIP3   OH232850   6.849   7.554   6.227  0.0617  1.0109 -0.3513
10970TIP3    H132851   6.925   7.569   6.283 -0.4676  0.9214  0.3997
10970TIP3    H232852   6.886   7.541   6.139  1.1845 -1.9732  0.4326
10971TIP3   OH232853   7.054   2.449   1.074  0.0619 -0.4211  0.7745
10971TIP3    H132854   7.012   2.523   1.032 -1.5634 -1.2523  0.8466
10971TIP3    H232855   7.124   2.487   1.127 -1.0468  1.1089  1.2008
10972TIP3   OH232856   1.266   6.320   0.900 -0.2890  0.5176 -0.2181
10972TIP3    H132857   1.172   6.305   0.907 -0.6409  1.5898 -1.9818
10972TIP3    H232858   1.303   6.276   0.977 -2.1112 -0.7736 -0.0052
10973TIP3   OH232859   1.190   1.371   3.834  0.3102 -0.3067  0.3543
10973TIP3    H132860   1.205   1.295   3.778 -1.2430 -0.6587  0.3740
10973TIP3    H232861   1.198   1.446   3.775  1.0249 -0.5276  0.1616
10974TIP3   OH232862   5.959   0.057   1.342  0.0800 -0.4125  0.2990
10974TIP3    H132863   5.888   0.100   1.390  0.7557  0.0885  0.8709
10974TIP3    H232864   6.021   0.127   1.323 -0.4871 -0.4591 -1.9498
10975TIP3   OH232865   5.246   2.927   4.181 -0.3801 -0.1940  0.0826
10975TIP3    H132866   5.270   3.020   4.187  0.1844 -0.3612  0.5335
10975TIP3    H232867   5.200   2.919   4.097 -0.3051  0.4625 -0.0258
10976TIP3   OH232868   7.930   1.458   6.503  0.5200  0.1014  0.0715
10976TIP3    H132869   7.942   1.553   6.504  1.7194 -0.0277  1.1505
10976TIP3    H232870   8.008   1.424   6.549 -0.0748 -1.3714  0.0329
10977TIP3   OH232871   7.275   0.452   5.550  0.2454  0.3561  0.0589
10977TIP3    H132872   7.218   0.376   5.541 -1.0303  1.2408  0.3743
10977TIP3    H232873   7.311   0.445   5.639 -0.1500  0.3042  0.2167
10978TIP3   OH232874   1.438   4.001   6.349  0.6795  0.3613  0.5108
10978TIP3    H132875   1.427   4.062   6.421  0.3444 -1.0135  1.6642
10978TIP3    H232876   1.350   3.966   6.333  0.3323  2.0716 -1.9414
10979TIP3   OH232877   7.857   3.415   2.915 -0.0714  0.5969 -0.1941
10979TIP3    H132878   7.872   3.506   2.887  0.6227  0.6708  0.3728
10979TIP3    H232879   7.762   3.404   2.910 -0.0947  1.0831 -1.0831
10980TIP3   OH232880   5.537   0.563   0.148 -0.2556  0.1998  0.8033
10980TIP3    H132881   5.541   0.592   0.057  2.4323  1.1514  1.1524
10980TIP3    H232882   5.524   0.468   0.142 -1.2886  0.3909 -0.5097
10981TIP3   OH232883   5.164   0.522   6.168 -0.2364  0.2215  0.9276
10981TIP3    H132884   5.221   0.445   6.172 -0.4412  0.0389  0.4413
10981TIP3    H232885   5.082   0.489   6.132 -0.1186  0.7760  0.0999
10982TIP3   OH232886   6.704   1.027   3.220 -0.2509  0.1802  0.1275
10982TIP3    H132887   6.651   0.978   3.156  1.2794 -0.5317 -0.6378
10982TIP3    H232888   6.696   1.118   3.192 -0.5152 -0.0003 -0.4045
10983TIP3   OH232889   7.408   6.287   6.336 -0.4488  0.3451  0.1715
10983TIP3    H132890   7.371   6.283   6.424 -0.7644  0.4918  0.0481
10983TIP3    H232891   7.362   6.359   6.294 -0.1086  0.4465 -0.0281
10984TIP3   OH232892   1.651   0.494   0.587 -0.2160 -0.5508  0.2492
10984TIP3    H132893   1.605   0.430   0.532 -2.1495  0.6038  0.4315
10984TIP3    H232894   1.583   0.532   0.642  0.9445  1.3510  0.4520
10985TIP3   OH232895   7.079   2.071   0.784  0.3467 -0.7815  0.2529
10985TIP3    H132896   7.014   2.128   0.742  0.4208 -0.1143  1.0330
10985TIP3    H232897   7.158   2.124   0.789  1.2118 -1.8322 -1.3631
10986TIP3   OH232898   2.505   7.547   4.904 -0.7486  0.3887 -0.5709
10986TIP3    H132899   2.479   7.583   4.989 -2.0487  0.4028 -0.9489
10986TIP3    H232900   2.462   7.462   4.901  1.0467 -0.5671 -0.3317
10987TIP3   OH232901   7.957   4.699   1.492 -0.1895 -0.2446  0.2393
10987TIP3    H132902   8.025   4.727   1.552 -0.2345 -1.0447  0.6849
10987TIP3    H232903   7.945   4.606   1.512 -0.1483 -0.5459 -1.0701
10988TIP3   OH232904   4.587   2.603   6.709  0.2089 -0.8399 -0.5823
10988TIP3    H132905   4.521   2.584   6.775  0.3049 -0.3531 -0.3394
10988TIP3    H232906   4.649   2.530   6.715  0.2490 -0.7665 -0.0967
10989TIP3   OH232907   3.281   2.385   2.178  0.3529 -0.0980 -0.1704
10989TIP3    H132908   3.374   2.378   2.155  1.4104  0.1367  3.4122
10989TIP3    H232909   3.242   2.307   2.140  1.1238  1.4292 -4.7328
10990TIP3   OH232910   2.670   6.557   0.508 -0.2376  0.6026  0.0632
10990TIP3    H132911   2.732   6.513   0.565  0.8261 -0.7639 -2.0291
10990TIP3    H232912   2.699   6.535   0.419 -2.7055  1.3639 -1.0119
10991TIP3   OH232913   5.045   3.680   0.708 -0.3941 -0.0022  0.3517
10991TIP3    H132914   5.042   3.588   0.733 -0.5583  0.2244  1.2073
10991TIP3    H232915   5.107   3.719   0.769  0.4500  0.2708 -0.6541
10992TIP3   OH232916   1.258   4.863   3.393 -0.1188  0.6830  0.4009
10992TIP3    H132917   1.261   4.793   3.457 -0.5476  0.5923  0.3285
10992TIP3    H232918   1.316   4.931   3.427 -0.6276  0.7876  1.0700
10993TIP3   OH232919   1.577   3.891   6.124 -0.4350  0.4326 -0.0157
10993TIP3    H132920   1.509   3.939   6.170  0.0576 -0.2384  1.4731
10993TIP3    H232921   1.536   3.809   6.098 -1.0154  1.2239 -1.7687
10994TIP3   OH232922   6.432   5.703   5.114 -0.1975 -0.6038  0.1017
10994TIP3    H132923   6.428   5.780   5.172 -1.0435 -0.6421  0.0973
10994TIP3    H232924   6.488   5.731   5.042 -0.9333  0.1995 -0.1715
10995TIP3   OH232925   2.403   6.326   5.936  0.4555 -0.0358  0.3468
10995TIP3    H132926   2.385   6.289   5.850 -1.0470  1.9905 -0.2843
10995TIP3    H232927   2.451   6.257   5.982 -0.7792 -2.1080 -1.2687
10996TIP3   OH232928   1.837   5.759   2.185 -0.4740  0.6661  0.1762
10996TIP3    H132929   1.856   5.833   2.128  0.6969 -0.0819 -0.4682
10996TIP3    H232930   1.922   5.716   2.198 -0.9631 -0.0283  1.2909
10997TIP3   OH232931   3.686   5.566   3.228  0.0299  0.0392 -0.3146
10997TIP3    H132932   3.686   5.566   3.132  1.1816 -0.9579 -0.3397
10997TIP3    H232933   3.778   5.575   3.252 -0.1412 -0.7319  0.6822
10998TIP3   OH232934   6.151   1.630   2.850 -0.5433  0.1572 -0.4785
10998TIP3    H132935   6.189   1.678   2.923  2.3093 -2.7160  0.1732
10998TIP3    H232936   6.077   1.583   2.888  0.7578 -1.1021  0.6149
10999TIP3   OH232937   5.783   2.737   3.488 -0.2017  0.2429 -0.5859
10999TIP3    H132938   5.801   2.704   3.400  2.4611 -0.1015 -0.0196
10999TIP3    H232939   5.800   2.831   3.483  0.0351  0.2099 -0.4330
11000TIP3   OH232940   2.158   3.648   5.927  0.5072 -0.1892 -0.0259
11000TIP3    H132941   2.074   3.616   5.958  0.5231 -1.0089 -0.7759
11000TIP3    H232942   2.205   3.569   5.900 -0.1746  0.4760 -3.7147
11001TIP3   OH232943   5.009   4.726   5.626  0.2947  0.4474 -0.3089
11001TIP3    H132944   4.944   4.791   5.651  1.6799  2.0201 -0.5994
11001TIP3    H232945   5.093   4.766   5.650  1.1699 -1.6143  0.3189
11002TIP3   OH232946   8.434   5.888   6.736  0.3152 -0.3193  0.1368
11002TIP3    H132947   8.348   5.880   6.694  0.5130 -1.6095 -0.0634
11002TIP3    H232948   8.416   5.871   6.829  0.1383  0.9152  0.3518
11003TIP3   OH232949   6.542   2.971   0.815  0.5336 -0.5825  0.4703
11003TIP3    H132950   6.550   3.034   0.887  1.5339 -0.4376  0.2489
11003TIP3    H232951   6.629   2.970   0.774 -0.0166 -0.6553 -0.7469
11004TIP3   OH232952   7.321   7.377   4.401  0.4633  0.0045  0.4285
11004TIP3    H132953   7.281   7.435   4.337  0.4060  0.4117  0.8279
11004TIP3    H232954   7.340   7.297   4.353  1.8047  0.8253 -0.4915
11005TIP3   OH232955   6.417   5.493   2.821 -0.1216 -0.1272  0.0582
11005TIP3    H132956   6.499   5.536   2.846 -0.5912 -0.2817  2.0344
11005TIP3    H232957   6.433   5.400   2.838  0.3653 -0.6372 -2.7200
11006TIP3   OH232958   0.167   7.420   5.454 -0.5283 -0.1579 -0.3182
11006TIP3    H132959   0.149   7.423   5.360  1.8076  1.0247 -0.8045
11006TIP3    H232960   0.247   7.471   5.464 -0.3425 -0.8528  2.2439
11007TIP3   OH232961   8.281   7.029   4.259  0.4992 -0.4635 -0.1653
11007TIP3    H132962   8.221   7.075   4.200  0.6446  0.1794  0.1830
11007TIP3    H232963   8.295   6.944   4.217  0.7133  0.0334 -1.1328
11008TIP3   OH232964   7.763   4.809   5.371  0.3571 -0.0726  0.3382
11008TIP3    H132965   7.685   4.860   5.352  0.9895  0.5393 -0.7411
11008TIP3    H232966   7.734   4.718   5.365 -0.5234  0.1367  1.1530
11009TIP3   OH232967   5.196   0.194   4.835 -1.0759  0.0488  0.2233
11009TIP3    H132968   5.273   0.216   4.886  0.3091 -0.3171 -1.6051
11009TIP3    H232969   5.146   0.275   4.830 -0.6262  0.3892  1.1004
11010TIP3   OH232970   1.668   6.544   4.763 -0.4295 -0.3049 -0.4051
11010TIP3    H132971   1.586   6.568   4.807 -0.4077 -0.3071 -0.3635
11010TIP3    H232972   1.677   6.450   4.778 -0.0585 -0.1786  0.1906
11011TIP3   OH232973   7.984   4.394   2.239 -0.1688 -0.0519  0.3594
11011TIP3    H132974   7.962   4.388   2.332 -0.1229 -1.3784  0.3108
11011TIP3    H232975   7.939   4.320   2.199  1.9033 -1.0660 -0.2311
11012TIP3   OH232976   5.708   1.088   2.994  0.4069 -0.2179 -0.1387
11012TIP3    H132977   5.670   1.170   2.961  1.3687 -0.5950 -2.3470
11012TIP3    H232978   5.645   1.058   3.060 -1.6918  0.6274 -1.6244
11013TIP3   OH232979   5.809   4.104   0.409  0.0185  0.4121 -0.2908
11013TIP3    H132980   5.724   4.062   0.393 -1.2560  3.1470 -1.2583
11013TIP3    H232981   5.799   4.148   0.493  0.9356 -0.1801  0.1523
11014TIP3   OH232982   6.821   3.702   1.410  0.2078 -0.6931  0.1328
11014TIP3    H132983   6.890   3.639   1.389  1.0099  0.4870 -0.9394
11014TIP3    H232984   6.864   3.764   1.470 -0.8424 -1.6345  1.9523
11015TIP3   OH232985   4.838   4.582   0.545 -0.3094 -0.4704 -0.1595
11015TIP3    H132986   4.920   4.627   0.566 -1.1659  1.4827 -0.6728
11015TIP3    H232987   4.789   4.647   0.494 -1.6203 -2.0774 -1.0207
11016TIP3   OH232988   4.415   6.943   5.157 -0.3298  0.3985 -0.2919
11016TIP3    H132989   4.453   6.875   5.103 -1.4269  0.4532 -1.1770
11016TIP3    H232990   4.327   6.910   5.179  0.7379 -0.5477  3.1905
11017TIP3   OH232991   3.171   4.228   2.100  0.1645 -0.0476 -0.1484
11017TIP3    H132992   3.249   4.223   2.156 -0.0357  0.2082  0.1570
11017TIP3    H232993   3.200   4.281   2.025 -0.1665  1.4803  0.7534
11018TIP3   OH232994   1.356   5.859   5.961 -0.4953  0.0975  0.2838
11018TIP3    H132995   1.385   5.853   5.870  2.2527 -1.8075  1.1280
11018TIP3    H232996   1.261   5.851   5.957 -0.5826  1.5090 -2.4727
11019TIP3   OH232997   7.436   6.514   0.719  0.4419  0.1078 -0.2166
11019TIP3    H132998   7.396   6.551   0.798 -1.6468 -0.2706 -1.0300
11019TIP3    H232999   7.383   6.547   0.647  1.0466 -1.1738 -1.3084
11020TIP3   OH233000   0.839   1.717   4.234 -0.3568 -0.0088 -0.0716
11020TIP3    H133001   0.871   1.756   4.316 -1.1699  1.6932 -0.5189
11020TIP3    H233002   0.799   1.634   4.261 -1.1468  0.7984  1.3472
11021TIP3   OH233003   3.964   3.164   3.803 -0.1109 -0.1763  0.1843
11021TIP3    H133004   4.016   3.103   3.752  0.5440 -0.2587  0.9284
11021TIP3    H233005   3.963   3.127   3.892 -0.5946  0.3445  0.4056
11022TIP3   OH233006   7.418   7.454   2.800  0.9474  0.0990  0.0780
11022TIP3    H133007   7.394   7.507   2.876  1.0156  0.2218  0.0136
11022TIP3    H233008   7.360   7.378   2.805 -1.4670  1.7259 -1.6524
11023TIP3   OH233009   7.151   6.340   4.605  0.3756 -0.0199  0.1802
11023TIP3    H133010   7.235   6.350   4.560  1.7659 -2.3858  2.0226
11023TIP3    H233011   7.122   6.252   4.583 -1.9370  0.8815 -0.7698
11024TIP3   OH233012   7.329   1.863   5.139 -0.3552  0.1621  0.3460
11024TIP3    H133013   7.341   1.773   5.109 -2.5423 -0.2145  0.4888
11024TIP3    H233014   7.397   1.875   5.205 -0.1875 -1.4716  0.5095
11025TIP3   OH233015   0.388   7.664   6.635 -0.4123 -0.0267  0.1421
11025TIP3    H133016   0.443   7.588   6.655 -0.6591 -0.2475 -0.0056
11025TIP3    H233017   0.450   7.732   6.610 -0.2398 -0.6046 -1.1008
11026TIP3   OH233018   3.773   0.393   6.415 -0.2627  0.5969  0.0261
11026TIP3    H133019   3.779   0.365   6.507  2.5396  0.2133 -0.1616
11026TIP3    H233020   3.748   0.485   6.419  1.5279  1.1036  1.3601
11027TIP3   OH233021   7.202   3.621   3.180  0.1409 -0.1453  0.1122
11027TIP3    H133022   7.184   3.697   3.124  1.1249  0.2164  0.2524
11027TIP3    H233023   7.285   3.643   3.223  0.6121 -1.4374 -0.0915
11028TIP3   OH233024   0.323   7.425   4.747 -0.5572 -0.0333 -0.6812
11028TIP3    H133025   0.253   7.465   4.696  0.3081  0.4341 -1.5446
11028TIP3    H233026   0.391   7.493   4.753 -0.2907 -0.3677  0.3876
11029TIP3   OH233027   5.067   5.186   2.815 -0.4167  0.3478 -0.0227
11029TIP3    H133028   5.038   5.134   2.740 -0.5377  0.3150  0.0459
11029TIP3    H233029   5.013   5.155   2.888 -2.2514  2.2620 -0.4900
11030TIP3   OH233030   0.002   0.989   4.073  0.3230  0.4999  0.0058
11030TIP3    H133031  -0.015   1.078   4.104 -2.1827  0.5246 -1.1351
11030TIP3    H233032   0.093   0.990   4.044  0.3182  2.7189 -0.0900
11031TIP3   OH233033   0.894   0.617   3.178  0.1291 -0.1015 -0.2316
11031TIP3    H133034   0.968   0.557   3.178 -0.4314 -0.8688  1.5328
11031TIP3    H233035   0.821   0.564   3.210 -0.5223  1.3622  0.7967
11032TIP3   OH233036   2.120   0.523   1.137 -0.1630  0.0050 -0.0381
11032TIP3    H133037   2.025   0.531   1.131 -0.3163 -0.6369  1.2444
11032TIP3    H233038   2.135   0.429   1.145  0.6959 -0.0250 -1.5528
11033TIP3   OH233039   7.353   5.850   5.666  0.1932 -0.2157  0.0768
11033TIP3    H133040   7.260   5.826   5.676  0.1497 -0.4717 -0.8069
11033TIP3    H233041   7.392   5.774   5.623 -0.1916  1.6148 -3.9874
11034TIP3   OH233042   4.111   4.752   4.971  0.3913  0.4495  0.3192
11034TIP3    H133043   4.077   4.836   4.942 -0.0663  0.9028  2.0218
11034TIP3    H233044   4.142   4.768   5.061 -0.0301 -1.2619  0.8133
11035TIP3   OH233045   3.655   6.093   1.162  0.5415  0.5372  0.6680
11035TIP3    H133046   3.748   6.108   1.142  0.4366  1.5161  0.8679
11035TIP3    H233047   3.611   6.099   1.077  0.5913  0.6393  0.6493
11036TIP3   OH233048   2.797   0.424   2.341 -0.1405  0.2220 -0.5148
11036TIP3    H133049   2.777   0.356   2.277  1.3501 -0.1522 -0.6227
11036TIP3    H233050   2.889   0.409   2.364  0.5140  2.7053 -1.1799
11037TIP3   OH233051   4.537   6.955   2.582  0.2304 -0.3944  0.4207
11037TIP3    H133052   4.521   6.880   2.525  1.0725 -0.4470  0.2395
11037TIP3    H233053   4.478   6.942   2.656  0.5208 -1.3470  0.4952
11038TIP3   OH233054   8.138   2.528   1.454 -0.0446  0.3765 -0.2456
11038TIP3    H133055   8.196   2.590   1.410 -0.1921  1.1408  0.6064
11038TIP3    H233056   8.083   2.582   1.511 -0.3167 -0.5113  0.3617
11039TIP3   OH233057   6.971   5.255   1.724  0.3569 -0.6006  0.2254
11039TIP3    H133058   7.003   5.250   1.634 -0.1124 -0.5295  0.0513
11039TIP3    H233059   6.973   5.349   1.744 -0.8705 -0.4688 -0.2070
11040TIP3   OH233060   1.914   7.328   6.599 -0.0484  0.1269  0.2190
11040TIP3    H133061   1.974   7.266   6.557 -0.5387  0.7709 -1.5387
11040TIP3    H233062   1.972   7.385   6.651  0.7447  0.0089 -0.5058
11041TIP3   OH233063   3.760   0.547   5.161  0.1340  0.1799 -0.0162
11041TIP3    H133064   3.826   0.552   5.092  0.5804  1.6393  0.4967
11041TIP3    H233065   3.768   0.629   5.209 -1.4628  0.0146  0.6059
11042TIP3   OH233066   0.422   4.418   1.086 -0.4682 -0.0503  0.2254
11042TIP3    H133067   0.454   4.344   1.034 -0.1754  0.1046  0.1820
11042TIP3    H233068   0.356   4.459   1.030  0.5054  0.6776 -0.4446
11043TIP3   OH233069   4.995   3.375   4.947 -0.4698 -0.2477 -0.1203
11043TIP3    H133070   5.080   3.360   4.987  0.0620  0.0815 -1.0992
11043TIP3    H233071   4.953   3.440   5.003  1.2083  2.0237 -1.3178
11044TIP3   OH233072   1.076   0.028   1.084 -0.0028  0.3852  0.1276
11044TIP3    H133073   1.072  -0.058   1.044 -0.6632  1.0553 -1.3528
11044TIP3    H233074   0.984   0.057   1.087  0.0574  0.5241  1.8325
11045TIP3   OH233075   7.703   7.884   4.918 -0.2053 -0.6130 -0.1832
11045TIP3    H133076   7.796   7.883   4.897 -0.0051  0.1327  0.5875
11045TIP3    H233077   7.665   7.949   4.858 -0.6606 -2.4613 -2.0232
11046TIP3   OH233078   4.175   6.099   3.247  0.4733 -0.0802 -0.2650
11046TIP3    H133079   4.163   6.118   3.154 -0.5521  0.5287 -0.0251
11046TIP3    H233080   4.086   6.092   3.281  0.8375 -0.8070  0.5821
11047TIP3   OH233081   7.216   1.963   1.398 -0.6178  0.0871 -0.6768
11047TIP3    H133082   7.282   1.925   1.456  0.2358  1.7865 -0.4974
11047TIP3    H233083   7.220   1.908   1.320 -1.3819 -1.8820  0.5959
11048TIP3   OH233084   0.756   3.855   2.899 -0.0067  0.4903 -0.5721
11048TIP3    H133085   0.831   3.798   2.917  0.6463  1.5672  0.1935
11048TIP3    H233086   0.780   3.902   2.820 -0.0781  0.5111 -0.5815
11049TIP3   OH233087   2.533   7.457   5.790  0.0114  0.4305 -0.4727
11049TIP3    H133088   2.577   7.460   5.705 -0.1446  1.2077 -0.5360
11049TIP3    H233089   2.594   7.501   5.850 -0.4733  1.1131 -0.4706
11050TIP3   OH233090   5.832   3.798   4.020  0.2563 -0.1294 -0.2304
11050TIP3    H133091   5.875   3.780   3.936 -1.4946 -0.0323 -1.2035
11050TIP3    H233092   5.866   3.883   4.047  1.8623 -0.7729 -0.1308
11051TIP3   OH233093   1.561   1.309   2.739 -0.4648 -0.2501 -0.8028
11051TIP3    H133094   1.491   1.248   2.714  0.1252 -1.2086 -0.1988
11051TIP3    H233095   1.600   1.336   2.656 -1.6207  0.4067 -1.1591
11052TIP3   OH233096   6.071   7.933   0.789  0.2626  0.0432  0.7987
11052TIP3    H133097   6.132   7.860   0.777 -0.0552 -0.0835 -0.1506
11052TIP3    H233098   5.991   7.905   0.742 -0.7566 -0.0566  2.5129
11053TIP3   OH233099   0.053   1.965   4.322 -0.1286  0.1158 -0.2880
11053TIP3    H133100   0.086   1.948   4.410 -0.6709 -0.4453 -0.1851
11053TIP3    H233101  -0.020   2.026   4.334 -1.6214 -1.5869 -0.0785
11054TIP3   OH233102   4.699   4.611   4.855 -0.3924 -0.2322 -0.4363
11054TIP3    H133103   4.625   4.588   4.912 -0.0263  2.0621  1.1087
11054TIP3    H233104   4.660   4.661   4.784 -0.3474  1.7083  0.8175
11055TIP3   OH233105   1.491   2.074   6.539 -0.1445 -0.1025  0.5571
11055TIP3    H133106   1.575   2.038   6.511  0.5075  0.7518  1.3580
11055TIP3    H233107   1.505   2.168   6.541 -1.1656  0.0586  0.5928
11056TIP3   OH233108   5.667   0.861   6.537 -0.2234  0.2668  0.4396
11056TIP3    H133109   5.652   0.887   6.446 -2.2360 -1.8723  0.0522
11056TIP3    H233110   5.730   0.924   6.570  3.9346 -1.1329 -3.6330
11057TIP3   OH233111   0.212   2.348   3.275  0.0060 -0.3207  0.0271
11057TIP3    H133112   0.129   2.364   3.320 -0.2126 -2.2227  0.3510
11057TIP3    H233113   0.201   2.263   3.233  1.3025  0.0411 -1.1063
11058TIP3   OH233114   1.120   5.506   6.246 -0.1429 -0.4502 -0.0181
11058TIP3    H133115   1.128   5.600   6.261 -1.7867 -0.4972  1.5149
11058TIP3    H233116   1.035   5.496   6.202  0.0981 -1.2057 -0.3181
11059TIP3   OH233117   2.996   5.107   1.519 -0.5618  0.7529  0.3581
11059TIP3    H133118   3.001   5.174   1.451  1.1972  0.0693 -0.2292
11059TIP3    H233119   2.934   5.042   1.485 -1.6102  1.6260  0.5493
11060TIP3   OH233120   6.288   5.008   5.384 -0.6225 -0.1220  0.6288
11060TIP3    H133121   6.353   5.055   5.331  0.3578 -1.7134  0.3277
11060TIP3    H233122   6.236   5.077   5.426  1.1441  1.2281  0.7375
11061TIP3   OH233123   7.939   4.466   6.260  0.3355  0.0503  0.3235
11061TIP3    H133124   7.845   4.473   6.246  0.5042  0.4183 -0.7005
11061TIP3    H233125   7.957   4.524   6.333 -0.0332  1.1309 -0.4190
11062TIP3   OH233126   7.221   4.199   3.082  0.2196  0.2669 -0.4098
11062TIP3    H133127   7.212   4.147   3.162  0.3480 -0.5897 -0.9342
11062TIP3    H233128   7.250   4.136   3.016  1.8501  1.2860 -0.7295
11063TIP3   OH233129   0.321   2.945   1.711 -0.2950  0.7021  0.3985
11063TIP3    H133130   0.374   3.017   1.676 -0.7491  0.8265 -0.0318
11063TIP3    H233131   0.252   2.932   1.646 -0.5360  0.2417  0.7447
11064TIP3   OH233132   1.061   2.510   4.477  0.2305  0.0823  0.4408
11064TIP3    H133133   0.993   2.557   4.525  0.6050  0.6453  0.4405
11064TIP3    H233134   1.099   2.450   4.541  0.7622  0.8660  0.8760
11065TIP3   OH233135   8.132   4.689   3.483  0.0996 -0.4869  0.1218
11065TIP3    H133136   8.113   4.751   3.553  0.0781  0.5699 -0.7970
11065TIP3    H233137   8.225   4.667   3.495  1.0157  2.1413 -1.3318
11066TIP3   OH233138   8.151   2.828   4.620  0.1463 -0.0449  0.1210
11066TIP3    H133139   8.202   2.825   4.539 -0.4082 -0.4940 -0.2112
11066TIP3    H233140   8.082   2.763   4.608 -0.9038  1.0215  0.3137
11067TIP3   OH233141   2.153   3.916   6.523  0.2829 -0.2026 -0.2029
11067TIP3    H133142   2.187   4.005   6.514 -1.0316  0.4024  0.5229
11067TIP3    H233143   2.105   3.917   6.605 -0.0991 -1.4845 -0.3882
11068TIP3   OH233144   5.856   0.741   4.835 -0.3240  0.3322  0.5983
11068TIP3    H133145   5.933   0.774   4.788 -0.4193  2.1571  1.6105
11068TIP3    H233146   5.798   0.817   4.841 -1.5461 -0.6117  1.1875
11069TIP3   OH233147   1.496   3.065   5.235  0.0819 -0.3558  0.1812
11069TIP3    H133148   1.560   3.107   5.293 -0.1466  0.8246 -0.3949
11069TIP3    H233149   1.465   3.135   5.179 -0.4467 -1.2774 -0.7123
11070TIP3   OH233150   1.961   0.279   2.345  0.8221  0.0526 -0.3936
11070TIP3    H133151   1.876   0.309   2.314  1.2807  0.1075 -1.6611
11070TIP3    H233152   1.942   0.198   2.393 -0.0672  0.7103  0.4070
11071TIP3   OH233153   7.602   3.426   3.285 -0.5949  0.6407 -0.3055
11071TIP3    H133154   7.529   3.480   3.313 -0.2600  1.6966 -1.3916
11071TIP3    H233155   7.677   3.458   3.336 -0.5961  0.5243 -0.2298
11072TIP3   OH233156   7.487   2.430   2.139  0.3941 -0.0845  0.0008
11072TIP3    H133157   7.556   2.368   2.162  0.7831 -0.1500 -1.2555
11072TIP3    H233158   7.524   2.516   2.158  1.0044 -0.0960 -1.0541
11073TIP3   OH233159   0.828   6.265   2.849 -0.2153  0.0449  0.3080
11073TIP3    H133160   0.911   6.296   2.885 -1.0796  0.8510  1.7125
11073TIP3    H233161   0.764   6.329   2.879 -1.3989 -0.7120 -0.5225
11074TIP3   OH233162   3.919   3.652   6.329 -0.0273 -0.0478 -0.3878
11074TIP3    H133163   3.831   3.668   6.294 -0.1495 -0.0059 -0.0721
11074TIP3    H233164   3.942   3.565   6.298 -0.8544 -0.7450  0.8494
11075TIP3   OH233165   1.380   0.756   4.694 -0.8426 -0.0605  0.1999
11075TIP3    H133166   1.438   0.761   4.770 -0.4771 -2.0454  0.1195
11075TIP3    H233167   1.292   0.764   4.730 -0.6362 -0.0444  0.7115
11076TIP3   OH233168   3.141   7.527   1.848  0.5262 -0.4601 -0.3096
11076TIP3    H133169   3.151   7.445   1.798  0.5117 -1.5246  1.3671
11076TIP3    H233170   3.049   7.529   1.873  0.2466  0.7015 -1.3226
11077TIP3   OH233171   7.554   6.508   0.064  0.3308 -0.0604  0.0116
11077TIP3    H133172   7.616   6.435   0.056  0.5808  0.1595 -0.0300
11077TIP3    H233173   7.472   6.466   0.092  1.2510  0.0084  3.0612
11078TIP3   OH233174   5.676   5.627   5.286 -0.1474 -0.0649 -0.0335
11078TIP3    H133175   5.695   5.702   5.342  0.0082 -0.6538  0.7067
11078TIP3    H233176   5.723   5.554   5.326 -1.2578 -0.8233 -0.0624
11079TIP3   OH233177   0.357   0.327   2.810  0.3777  0.0771  0.2774
11079TIP3    H133178   0.428   0.360   2.756  0.6999  0.2998  0.8295
11079TIP3    H233179   0.380   0.354   2.899 -0.0197 -0.4870  0.5600
11080TIP3   OH233180   0.093   5.234   4.884 -0.7451 -0.2807 -0.1378
11080TIP3    H133181   0.069   5.142   4.882 -0.9747 -0.2126 -1.2874
11080TIP3    H233182   0.116   5.255   4.794 -1.7359  1.0543 -0.1153
11081TIP3   OH233183   1.883   7.254   6.315  0.2690 -0.4527  0.3263
11081TIP3    H133184   1.914   7.245   6.406 -1.4898 -1.4002  0.8838
11081TIP3    H233185   1.879   7.348   6.300 -1.5477 -0.1846  2.0651
11082TIP3   OH233186   2.085   4.313   5.674 -0.2013  0.4988  0.1754
11082TIP3    H133187   2.061   4.224   5.646 -0.5730  0.4187  0.7408
11082TIP3    H233188   2.118   4.302   5.763 -1.0318  1.0347  0.5583
11083TIP3   OH233189   1.087   1.000   4.566  0.0930  0.8203  0.3472
11083TIP3    H133190   1.130   0.973   4.485  0.5219  1.5036  0.3397
11083TIP3    H233191   1.018   1.061   4.537 -0.9578 -0.3307  0.3501
11084TIP3   OH233192   6.430   5.085   0.062  0.3310  0.1847  0.2805
11084TIP3    H133193   6.355   5.133   0.027  0.4670  0.8486  0.8659
11084TIP3    H233194   6.491   5.078  -0.011 -0.5690 -0.9576 -0.3975
11085TIP3   OH233195   3.140   3.132   4.745 -0.0302 -0.2587 -0.2594
11085TIP3    H133196   3.179   3.125   4.832 -1.8657  1.1351  0.7782
11085TIP3    H233197   3.069   3.067   4.745 -1.3569  1.1168  0.1381
11086TIP3   OH233198   4.844   3.399   5.402 -0.2559 -0.4614 -0.5831
11086TIP3    H133199   4.763   3.392   5.351 -0.4380 -0.1831 -0.3380
11086TIP3    H233200   4.834   3.480   5.453 -0.5045 -1.2213  0.6250
11087TIP3   OH233201   8.110   5.297   6.737 -0.2975  0.3525 -0.4144
11087TIP3    H133202   8.086   5.389   6.724  0.5041  0.6185 -0.0882
11087TIP3    H233203   8.131   5.291   6.830 -1.4424 -0.4379 -0.1822
11088TIP3   OH233204   2.650   6.379   3.767  0.3634  0.3824  0.1903
11088TIP3    H133205   2.659   6.352   3.859 -0.2898 -0.8841 -0.1049
11088TIP3    H233206   2.583   6.447   3.769 -0.4753 -0.4436  0.5150
11089TIP3   OH233207   1.227   3.523   6.232 -0.0692  0.7388  0.6311
11089TIP3    H133208   1.210   3.609   6.195  2.3466  1.6069  1.3697
11089TIP3    H233209   1.270   3.540   6.315 -1.7787 -1.2077  2.0187
11090TIP3   OH233210   2.832   3.638   1.536 -0.4557  0.3724 -0.2870
11090TIP3    H133211   2.863   3.568   1.595  0.1626 -1.9994 -3.1629
11090TIP3    H233212   2.899   3.642   1.467 -1.9933  1.7178 -1.7801
11091TIP3   OH233213   1.624   2.775   3.562 -0.5214  0.7127 -0.0040
11091TIP3    H133214   1.662   2.833   3.495 -0.9367  1.3828  0.3305
11091TIP3    H233215   1.545   2.740   3.521 -1.1431  1.6487  0.3602
11092TIP3   OH233216   6.757   0.173   6.526  0.3517 -0.4008  0.7457
11092TIP3    H133217   6.730   0.103   6.585  0.0744  0.2929  1.4612
11092TIP3    H233218   6.813   0.230   6.579  1.0728 -0.4060  0.0042
11093TIP3   OH233219   6.797   1.090   1.427 -0.3752 -0.4703 -0.0024
11093TIP3    H133220   6.709   1.062   1.451 -0.4153 -1.5484 -1.3512
11093TIP3    H233221   6.787   1.134   1.343  0.5273 -1.7179 -0.7929
11094TIP3   OH233222   3.400   0.848   3.691  0.3093  0.0420  0.1360
11094TIP3    H133223   3.330   0.830   3.628  0.1428 -0.7167  0.5409
11094TIP3    H233224   3.356   0.893   3.764  0.4234  0.4851 -0.0615
11095TIP3   OH233225   8.134   6.600   2.016  0.3648  0.0565 -0.4141
11095TIP3    H133226   8.152   6.646   2.098  0.3537 -0.3966 -0.1580
11095TIP3    H233227   8.167   6.511   2.030  0.2600 -0.0557 -0.8587
11096TIP3   OH233228   3.436   6.317   2.468 -0.5679  0.3707 -0.6167
11096TIP3    H133229   3.524   6.328   2.431 -0.5571  0.8728 -0.4537
11096TIP3    H233230   3.386   6.390   2.431 -1.1660 -0.4408 -1.4303
11097TIP3   OH233231   7.882   5.870   3.902  0.3902  0.1032 -0.5310
11097TIP3    H133232   7.881   5.844   3.994  0.8399  0.2719 -0.4778
11097TIP3    H233233   7.887   5.787   3.854  1.8183  0.0677 -0.3615
11098TIP3   OH233234   4.615   7.227   4.255  0.0637 -0.4124 -0.2602
11098TIP3    H133235   4.532   7.188   4.282 -0.0253 -0.3109 -0.3884
11098TIP3    H233236   4.664   7.236   4.336  0.2103 -1.0813 -0.2648
11099TIP3   OH233237   7.678   5.836   5.552  0.2431 -0.2198 -0.0209
11099TIP3    H133238   7.617   5.764   5.563 -2.1878  1.7972  0.7550
11099TIP3    H233239   7.749   5.817   5.613  0.0783 -2.2961 -0.4165
11100TIP3   OH233240   5.697   3.703   4.944 -0.5283  0.3447 -0.5560
11100TIP3    H133241   5.790   3.717   4.928 -0.3735 -0.7159 -0.6163
11100TIP3    H233242   5.658   3.790   4.933  0.5731  0.9838  0.3664
11101TIP3   OH233243   2.103   5.145   1.996  0.2819  0.3121  0.6999
11101TIP3    H133244   2.037   5.163   1.929 -0.4650 -1.5015  0.8885
11101TIP3    H233245   2.182   5.190   1.966 -0.1301 -0.2027 -1.2437
11102TIP3   OH233246   4.486   3.924   2.349 -0.0025  0.0443 -0.5581
11102TIP3    H133247   4.440   3.938   2.432  1.5852  1.7923  0.1124
11102TIP3    H233248   4.435   3.857   2.304 -0.4176 -1.6121  2.1876
11103TIP3   OH233249   0.294   3.761   3.933  0.8144  0.0944 -0.1417
11103TIP3    H133250   0.339   3.788   3.853  0.0873  0.3595 -0.4712
11103TIP3    H233251   0.201   3.766   3.912  0.5696  1.2461  1.0538
11104TIP3   OH233252   8.023   3.323   5.799  0.2076  0.2642  0.0610
11104TIP3    H133253   7.957   3.389   5.820  1.7680  1.9023  0.0184
11104TIP3    H233254   8.078   3.319   5.878 -0.2870 -1.5504  0.3464
11105TIP3   OH233255   1.435   4.444   2.225  0.4289 -0.2339 -0.0447
11105TIP3    H133256   1.376   4.431   2.299  0.2180  2.3617  0.3209
11105TIP3    H233257   1.454   4.355   2.194 -3.3816 -1.2558 -0.0028
11106TIP3   OH233258   5.415   1.918   3.159  0.1583 -0.0809 -0.0186
11106TIP3    H133259   5.477   1.961   3.218 -0.6556  0.2025  0.6436
11106TIP3    H233260   5.427   1.962   3.075  0.5179  0.2906  0.2235
11107TIP3   OH233261   6.499   0.773   4.664  0.0594 -0.4833 -0.5466
11107TIP3    H133262   6.589   0.747   4.686 -0.4966 -0.9656  1.3692
11107TIP3    H233263   6.485   0.854   4.715 -0.0220  0.6395 -2.2649
11108TIP3   OH233264   7.215   3.802   4.475 -0.6168 -0.1209 -0.2789
11108TIP3    H133265   7.132   3.841   4.503 -1.2971 -1.1291 -0.8389
11108TIP3    H233266   7.191   3.718   4.437  0.9145 -1.7692  2.0938
11109TIP3   OH233267   1.758   3.335   4.999  0.5824 -0.1713 -0.0699
11109TIP3    H133268   1.775   3.424   5.032  0.2341  0.1792 -0.7968
11109TIP3    H233269   1.668   3.340   4.966  1.0297 -0.4015 -1.3816
11110TIP3   OH233270   5.531   3.785   4.691  0.2401 -0.6508 -0.8387
11110TIP3    H133271   5.550   3.782   4.785 -1.7995 -3.8459 -0.3783
11110TIP3    H233272   5.450   3.836   4.684  0.3377 -0.4979 -0.8716
11111TIP3   OH233273   2.569   6.536   4.122  0.1873 -0.3413 -0.2685
11111TIP3    H133274   2.576   6.465   4.059 -1.3394 -0.5983 -0.1720
11111TIP3    H233275   2.484   6.576   4.104  0.8979  1.3064 -0.1480
11112TIP3   OH233276   5.608   2.390   0.156  0.1233 -0.0433 -0.2332
11112TIP3    H133277   5.523   2.352   0.133  0.3849 -0.1197 -1.1306
11112TIP3    H233278   5.626   2.358   0.244 -1.1771  0.6762  0.3313
11113TIP3   OH233279   5.030   3.834   4.296  0.6345  0.2714  0.1771
11113TIP3    H133280   5.049   3.817   4.388 -2.0653 -1.8230  0.4759
11113TIP3    H233281   4.934   3.831   4.290  0.6851  1.1369 -2.5735
11114TIP3   OH233282   1.977   0.995   1.258 -0.0593 -0.2600  0.4350
11114TIP3    H133283   1.971   1.060   1.328 -0.8088 -2.2286  2.3174
11114TIP3    H233284   1.985   1.046   1.177  0.6351  2.1087  1.9232
11115TIP3   OH233285   5.625   5.895   6.830 -0.4253 -0.2161  1.2523
11115TIP3    H133286   5.642   5.809   6.793  0.2451 -0.2239  1.5613
11115TIP3    H233287   5.621   5.880   6.925 -0.0176  0.1285  1.3299
11116TIP3   OH233288   0.433   6.353   3.007  0.1407  0.1702  0.1472
11116TIP3    H133289   0.368   6.424   3.011  0.2867  0.5826 -2.8904
11116TIP3    H233290   0.508   6.391   2.962  0.0824 -1.9534 -1.9148
11117TIP3   OH233291   3.726   6.502   4.711 -0.0974 -0.2728 -0.3338
11117TIP3    H133292   3.739   6.596   4.704 -1.9670 -0.0787 -2.3510
11117TIP3    H233293   3.811   6.464   4.690  0.1095  0.9540 -1.9003
11118TIP3   OH233294   5.058   6.908   1.702 -0.5139 -0.0605  0.0567
11118TIP3    H133295   5.037   6.994   1.737 -1.5454 -0.9854  1.8756
11118TIP3    H233296   5.152   6.910   1.684 -0.5548  1.4510 -0.0483
11119TIP3   OH233297   2.150   7.734   4.277  0.2393 -0.5959 -0.2190
11119TIP3    H133298   2.163   7.828   4.284 -1.5098 -0.4092  0.9481
11119TIP3    H233299   2.070   7.724   4.226 -0.3043 -1.4057  0.7601
11120TIP3   OH233300   7.976   1.630   1.528  0.5023  0.7180  0.2997
11120TIP3    H133301   7.946   1.593   1.610 -0.3789 -0.6176 -0.5843
11120TIP3    H233302   8.072   1.630   1.535  0.4657 -0.4076  0.8965
11121TIP3   OH233303   4.657   2.539   1.724 -0.4122  0.4256  0.1424
11121TIP3    H133304   4.691   2.510   1.639 -1.1565  2.0928 -0.7948
11121TIP3    H233305   4.578   2.486   1.737 -0.9086  0.9034 -0.7776
11122TIP3   OH233306   3.274   6.045   6.521 -0.0178  0.4184 -0.4911
11122TIP3    H133307   3.208   6.115   6.521 -0.2474  0.2785  2.0481
11122TIP3    H233308   3.244   5.984   6.588  1.7877 -0.5618 -0.5170
11123TIP3   OH233309   6.716   4.564   6.823 -0.6435 -0.4260  0.4772
11123TIP3    H133310   6.792   4.622   6.814  0.5518 -1.9628  0.4192
11123TIP3    H233311   6.671   4.597   6.900 -0.6747  1.3112 -0.2188
11124TIP3   OH233312   6.071   3.868   5.607  0.0865  0.3973  0.1365
11124TIP3    H133313   6.148   3.847   5.660 -1.1063  0.4496  1.9677
11124TIP3    H233314   6.019   3.788   5.607 -0.0447  0.4727 -0.7835
11125TIP3   OH233315   6.442   5.268   5.789  0.4339 -0.1491  1.5046
11125TIP3    H133316   6.496   5.347   5.794  1.3226 -0.6353  0.2295
11125TIP3    H233317   6.416   5.251   5.880  0.7502  1.2342  1.8803
11126TIP3   OH233318   7.548   3.889   0.945 -0.5351 -0.1366 -0.3745
11126TIP3    H133319   7.618   3.954   0.958 -0.5545 -0.1933  0.0332
11126TIP3    H233320   7.505   3.916   0.864  1.4634 -1.4611 -1.9757
11127TIP3   OH233321   4.675   4.164   5.251 -0.7537  0.1559  0.7654
11127TIP3    H133322   4.592   4.151   5.204 -0.8491 -0.4424  1.0922
11127TIP3    H233323   4.718   4.236   5.204 -1.0533 -0.1259  0.0451
11128TIP3   OH233324   1.953   6.905   5.367  0.1561  0.0157  0.0598
11128TIP3    H133325   1.921   6.819   5.337  2.4656 -0.5095 -1.1676
11128TIP3    H233326   1.999   6.886   5.449 -1.1707  0.4813  0.9354
11129TIP3   OH233327   0.671   3.760   1.015 -0.5678 -0.1493 -0.0376
11129TIP3    H133328   0.704   3.687   0.964  2.1752  1.3814 -0.6902
11129TIP3    H233329   0.618   3.811   0.954  1.0404  0.5974 -0.8787
11130TIP3   OH233330   4.767   2.971   4.358 -0.0990  0.1514 -0.5917
11130TIP3    H133331   4.777   2.978   4.453  0.2997 -0.7341 -0.5642
11130TIP3    H233332   4.708   2.898   4.345 -0.8593  0.8226 -1.0105
11131TIP3   OH233333   0.028   7.683   5.126  0.3044 -0.0143  0.0178
11131TIP3    H133334  -0.028   7.605   5.127  0.3646 -0.0772  1.8396
11131TIP3    H233335   0.115   7.649   5.107  0.2992 -0.3803  0.6182
11132TIP3   OH233336   3.034   6.034   3.837 -0.1445 -0.1321  0.0998
11132TIP3    H133337   3.094   6.008   3.767 -0.0773 -0.6101  0.3302
11132TIP3    H233338   2.958   5.976   3.825  0.1627 -0.7022  0.8468
11133TIP3   OH233339   5.489   7.389   1.582  0.0614 -0.8418 -0.5995
11133TIP3    H133340   5.542   7.371   1.504  0.7147 -1.9174  0.0742
11133TIP3    H233341   5.435   7.464   1.557  1.7397  0.1839 -1.3954
11134TIP3   OH233342   4.126   3.571   2.080  0.1368 -0.0845 -0.2867
11134TIP3    H133343   4.052   3.627   2.055 -0.4260 -0.5535  0.3122
11134TIP3    H233344   4.106   3.542   2.169  1.0063 -0.2894 -0.1425
11135TIP3   OH233345   3.160   3.745   2.221  0.1841  0.2696 -0.3151
11135TIP3    H133346   3.089   3.808   2.207 -1.1340 -0.3808  2.6147
11135TIP3    H233347   3.239   3.798   2.224 -0.0218  1.0206 -3.7233
11136TIP3   OH233348   1.261   6.027   6.367  0.1106  0.0121  0.8664
11136TIP3    H133349   1.292   6.067   6.448  0.1732 -0.8666  1.2854
11136TIP3    H233350   1.294   6.085   6.298  1.7805 -0.2822  1.3593
11137TIP3   OH233351   8.271   5.386   1.258  0.2103  0.3295  0.3117
11137TIP3    H133352   8.262   5.459   1.319  0.8591  1.1287 -0.5129
11137TIP3    H233353   8.319   5.423   1.184 -0.5487 -0.6244 -0.6778
11138TIP3   OH233354   1.135   0.764   6.613 -0.6842  0.3413  0.2951
11138TIP3    H133355   1.142   0.859   6.603 -0.2525  0.6280  2.7147
11138TIP3    H233356   1.164   0.747   6.702 -0.7019 -2.0958 -0.0874
11139TIP3   OH233357   5.983   5.273   5.720  0.4042 -0.3984 -0.2892
11139TIP3    H133358   5.935   5.226   5.788  0.1293 -0.2337 -0.3646
11139TIP3    H233359   5.994   5.361   5.755  0.5607 -0.4061 -0.3177
11140TIP3   OH233360   0.173   6.988   2.658 -0.8647  0.4382 -0.0160
11140TIP3    H133361   0.216   6.987   2.743  0.2811  0.8137 -0.5667
11140TIP3    H233362   0.222   7.052   2.606 -2.0146  0.7854 -0.7302
11141TIP3   OH233363   3.741   7.211   4.586 -0.3707  0.1169 -0.6681
11141TIP3    H133364   3.806   7.161   4.537 -0.2963  0.4581 -0.9262
11141TIP3    H233365   3.793   7.269   4.642 -0.4352  0.8145 -1.3075
11142TIP3   OH233366   4.950   4.350   1.694  0.0543 -0.0518 -0.3289
11142TIP3    H133367   4.859   4.321   1.688 -0.2214  0.3951  1.1804
11142TIP3    H233368   4.973   4.338   1.787  1.1499  0.9456 -0.4414
11143TIP3   OH233369   6.054   1.363   2.424 -0.3533  0.0947  0.0335
11143TIP3    H133370   6.108   1.341   2.500 -0.4578 -1.8768 -0.3946
11143TIP3    H233371   5.980   1.303   2.428  0.1081 -0.7313 -2.0853
11144TIP3   OH233372   0.680   1.265   3.723 -0.2058  0.1532 -0.2569
11144TIP3    H133373   0.773   1.271   3.749 -0.6056  1.0918  1.0794
11144TIP3    H233374   0.633   1.307   3.795 -1.6935 -0.4529 -0.8468
11145TIP3   OH233375   0.843   7.705   1.454 -0.0456 -0.1982  0.2085
11145TIP3    H133376   0.777   7.753   1.403  0.8670 -0.5220 -1.3654
11145TIP3    H233377   0.798   7.624   1.481 -0.0985 -0.8299 -1.5973
11146TIP3   OH233378   3.237   6.798   2.848  0.0297 -0.9548 -0.3808
11146TIP3    H133379   3.149   6.761   2.858 -0.0371 -0.3648  1.6269
11146TIP3    H233380   3.291   6.746   2.907  1.0319 -1.1785 -1.4545
11147TIP3   OH233381   0.816   0.745   1.277 -0.0418  0.1987  0.0805
11147TIP3    H133382   0.786   0.668   1.229 -1.6328  0.8205 -0.0118
11147TIP3    H233383   0.874   0.711   1.345  0.2885 -0.9383 -0.7440
11148TIP3   OH233384   7.488   5.082   1.800 -0.2754  0.4277  0.3531
11148TIP3    H133385   7.497   5.054   1.709  1.1112 -0.3533  0.7067
11148TIP3    H233386   7.412   5.141   1.800 -0.9592 -0.4154 -1.0922
11149TIP3   OH233387   3.685   5.922   0.788 -0.6263 -0.1854 -0.3135
11149TIP3    H133388   3.748   5.853   0.766 -1.0362 -0.2326 -1.4004
11149TIP3    H233389   3.603   5.892   0.748 -1.6318 -0.6328  1.9304
11150TIP3   OH233390   2.267   2.243   1.202  0.4791  0.0812  0.7198
11150TIP3    H133391   2.225   2.181   1.262 -0.2665 -1.1250 -0.9682
11150TIP3    H233392   2.195   2.280   1.151  1.3184 -1.9147 -2.1316
11151TIP3   OH233393   1.651   7.152   3.202  0.0707 -0.7159  0.3882
11151TIP3    H133394   1.692   7.066   3.187 -0.4264 -0.7343 -1.0600
11151TIP3    H233395   1.568   7.147   3.155 -0.6680  0.0350  1.5889
11152TIP3   OH233396   0.993   6.992   5.642  0.1590 -0.4674 -0.3663
11152TIP3    H133397   1.034   7.037   5.568 -0.0760 -1.3309 -1.0302
11152TIP3    H233398   1.063   6.937   5.678  0.7266  1.0895  1.0409
11153TIP3   OH233399   7.561   2.271   2.398  0.0674 -0.2731  0.4156
11153TIP3    H133400   7.555   2.248   2.491  0.5841 -0.6085  0.3691
11153TIP3    H233401   7.559   2.187   2.352 -0.7161 -0.0869  0.0818
11154TIP3   OH233402   6.552   6.312   1.664 -0.4784  0.3529 -0.1760
11154TIP3    H133403   6.478   6.356   1.623 -0.7457 -0.2802 -0.3833
11154TIP3    H233404   6.516   6.231   1.699  0.2819 -0.3967 -1.0811
11155TIP3   OH233405   8.320   6.877   1.183 -0.0068  0.0537 -0.0032
11155TIP3    H133406   8.298   6.784   1.174  0.0209  0.0774 -0.3181
11155TIP3    H233407   8.309   6.913   1.095 -2.8750  0.9979  0.6495
11156TIP3   OH233408   4.679   5.096   2.572  0.2425  0.1996  0.4893
11156TIP3    H133409   4.704   5.054   2.490 -1.5503  2.0606 -1.1247
11156TIP3    H233410   4.639   5.025   2.624  0.1906 -0.7426 -0.7844
11157TIP3   OH233411   2.222   0.327   4.649  0.1803 -0.2922 -0.0390
11157TIP3    H133412   2.170   0.393   4.603 -0.3720 -1.1036 -0.6009
11157TIP3    H233413   2.161   0.255   4.664  0.3999 -0.1184  1.8304
11158TIP3   OH233414   8.157   3.598   5.294  0.3266 -0.5777  0.0105
11158TIP3    H133415   8.136   3.535   5.226  0.3259  1.1720 -1.7185
11158TIP3    H233416   8.239   3.638   5.265  0.0253  0.6160  0.7332
11159TIP3   OH233417   8.185   6.940   6.155  0.0815  0.5786 -0.0816
11159TIP3    H133418   8.196   6.894   6.072  1.3805  0.1007  0.3306
11159TIP3    H233419   8.232   7.023   6.143  1.9008 -0.2594  0.7346
11160TIP3   OH233420   7.143   5.408   6.485 -0.5762 -0.1699  0.4444
11160TIP3    H133421   7.133   5.474   6.417 -0.1731  0.3510  0.8816
11160TIP3    H233422   7.123   5.325   6.442 -0.8431  0.2123 -0.1692
11161TIP3   OH233423   5.004   4.099   4.582  0.1365 -0.2627  0.2464
11161TIP3    H133424   5.060   4.104   4.505 -0.3395 -0.7546 -0.1421
11161TIP3    H233425   4.998   4.190   4.613  2.2068 -0.3612  1.1018
11162TIP3   OH233426   0.426   4.396   2.659 -0.1557  0.5699 -0.3975
11162TIP3    H133427   0.408   4.432   2.746  2.2851 -0.2837  0.5387
11162TIP3    H233428   0.374   4.449   2.599 -0.0908  2.7142  1.3574
11163TIP3   OH233429   0.320   3.220   3.735  0.4716  0.0664 -0.1178
11163TIP3    H133430   0.388   3.240   3.800  1.6626 -4.0423  0.2311
11163TIP3    H233431   0.361   3.238   3.651  1.5109 -0.9587  0.1433
11164TIP3   OH233432   7.391   3.631   1.568  0.4283  0.4708 -0.0360
11164TIP3    H133433   7.441   3.706   1.600  1.9454 -0.7850  0.6703
11164TIP3    H233434   7.374   3.578   1.646 -0.0317 -0.2551 -0.6148
11165TIP3   OH233435   4.910   1.122   6.819 -0.1798 -0.2451  0.4144
11165TIP3    H133436   4.956   1.174   6.753 -0.7719  1.2407  1.1303
11165TIP3    H233437   4.954   1.144   6.901  0.2583 -1.7339  0.5997
11166TIP3   OH233438   8.116   7.420   5.769  0.1149  0.1892  0.2935
11166TIP3    H133439   8.027   7.453   5.779  0.4548  1.7128 -1.1138
11166TIP3    H233440   8.107   7.325   5.761 -1.3049  0.2585  0.8849
11167TIP3   OH233441   3.567   7.410   5.916  0.9994 -0.3578 -0.6751
11167TIP3    H133442   3.577   7.442   6.005  0.3203 -0.2688 -0.6227
11167TIP3    H233443   3.501   7.342   5.922  1.3078 -0.6914 -1.0341
11168TIP3   OH233444   8.073   4.987   0.525 -0.1895 -0.4629 -0.0724
11168TIP3    H133445   8.069   4.939   0.607 -0.9689 -0.9276 -0.3667
11168TIP3    H233446   7.985   5.024   0.514  1.0942  3.5623  1.5869
11169TIP3   OH233447   7.051   7.210   5.970  0.6234 -0.2941  0.0313
11169TIP3    H133448   7.097   7.139   6.014 -0.2358 -0.7064  0.3040
11169TIP3    H233449   6.977   7.166   5.926  1.1144  0.1759 -1.3312
11170TIP3   OH233450   7.758   5.856   3.263  0.3499 -0.2170  0.1258
11170TIP3    H133451   7.800   5.922   3.318  0.5741  0.8228 -1.2603
11170TIP3    H233452   7.801   5.864   3.178 -0.6830 -1.0914 -0.5068
11171TIP3   OH233453   0.148   7.084   4.351  0.5261  0.1071 -0.3890
11171TIP3    H133454   0.183   7.023   4.286  1.2569  1.0928 -0.9600
11171TIP3    H233455   0.053   7.076   4.343  0.6025 -1.2226 -0.1717
11172TIP3   OH233456   3.825   2.544   6.257  0.0801  0.1681  0.5956
11172TIP3    H133457   3.879   2.481   6.209 -0.4412 -0.0939  0.3417
11172TIP3    H233458   3.865   2.550   6.343  0.3572 -0.2268  0.4975
11173TIP3   OH233459   5.539   1.071   1.463  0.5032 -0.7082  0.3797
11173TIP3    H133460   5.446   1.064   1.445  0.4227 -2.2450  1.2188
11173TIP3    H233461   5.546   1.060   1.558  1.1532  4.1952  1.2113
11174TIP3   OH233462   1.672   3.663   4.035  0.2280 -0.1269 -0.5831
11174TIP3    H133463   1.717   3.724   3.977  2.9198 -1.7440 -0.3666
11174TIP3    H233464   1.702   3.576   4.008  0.7237 -1.0206  2.4495
11175TIP3   OH233465   3.975   1.191   3.007  0.4294  0.0200  0.4589
11175TIP3    H133466   3.977   1.252   2.934  0.2742  0.9890  1.2460
11175TIP3    H233467   3.991   1.245   3.084  1.3054 -1.0886  1.0822
11176TIP3   OH233468   6.538   3.756   2.167 -0.4838  0.5569  0.3001
11176TIP3    H133469   6.460   3.803   2.141 -0.2308 -0.4219 -2.5337
11176TIP3    H233470   6.530   3.670   2.125  0.9035 -0.5155  2.0745
11177TIP3   OH233471   0.237   5.763   3.759  0.3185  0.5625 -0.2247
11177TIP3    H133472   0.253   5.857   3.758  0.7558  0.5581  1.8195
11177TIP3    H233473   0.215   5.743   3.850 -1.0078 -1.1317 -0.8492
11178TIP3   OH233474   5.446   0.233   0.782  0.3097 -0.0787  0.3431
11178TIP3    H133475   5.504   0.230   0.858  1.6621 -1.9031 -0.6778
11178TIP3    H233476   5.408   0.145   0.778  0.9322 -0.3152 -1.5361
11179TIP3   OH233477   7.450   5.469   4.755 -0.9939  0.8308 -0.5127
11179TIP3    H133478   7.484   5.538   4.699  1.8761  0.5473  0.6789
11179TIP3    H233479   7.486   5.388   4.718 -1.0371  0.4121  0.3188
11180TIP3   OH233480   1.518   4.801   0.802  0.0608  0.4018 -0.3331
11180TIP3    H133481   1.552   4.867   0.862  0.4803 -0.2750  0.1987
11180TIP3    H233482   1.569   4.722   0.822 -0.7377 -0.2087 -0.6282
11181TIP3   OH233483   6.170   2.383   6.201 -0.5243 -0.2214  0.1498
11181TIP3    H133484   6.200   2.306   6.248  0.1797 -0.0902 -0.0745
11181TIP3    H233485   6.085   2.358   6.166  0.5625 -1.6184 -1.6445
11182TIP3   OH233486   3.099   6.869   1.933  0.0806 -0.0607  0.2380
11182TIP3    H133487   3.064   6.826   2.010 -1.9919  0.0906 -0.5596
11182TIP3    H233488   3.118   6.797   1.872 -0.6429 -0.0378 -0.0211
11183TIP3   OH233489   8.125   2.308   6.823 -0.1467  0.0241  0.4681
11183TIP3    H133490   8.063   2.353   6.881  0.4565  0.6116  0.6737
11183TIP3    H233491   8.209   2.314   6.869  0.3019  0.3295 -0.3700
11184TIP3   OH233492   8.272   3.778   6.438 -0.0142  0.2301 -0.2406
11184TIP3    H133493   8.326   3.830   6.498  0.9349  1.3248 -1.9856
11184TIP3    H233494   8.254   3.697   6.487  4.0572 -0.6701  0.1477
11185TIP3   OH233495   8.005   4.883   0.071  0.3723 -0.1777  0.4336
11185TIP3    H133496   7.946   4.957   0.053 -0.0335  0.0452  2.4746
11185TIP3    H233497   7.974   4.814   0.012 -0.8928  0.4726  0.2837
11186TIP3   OH233498   6.513   5.621   0.655  0.0150  0.1651  0.5432
11186TIP3    H133499   6.539   5.644   0.744 -0.1590  0.2055  0.5851
11186TIP3    H233500   6.462   5.540   0.666 -0.4278  0.4391  0.5379
11187TIP3   OH233501   8.170   7.002   4.780  0.2158 -0.0009  0.1709
11187TIP3    H133502   8.171   6.940   4.708 -1.5079  0.4050 -0.2282
11187TIP3    H233503   8.181   7.088   4.738  1.3876  0.0983  0.6165
11188TIP3   OH233504   1.841   1.913   2.531 -0.3189  0.0877  0.2957
11188TIP3    H133505   1.833   1.975   2.459  0.5959 -0.7759 -0.5981
11188TIP3    H233506   1.790   1.951   2.603 -1.2633  0.9654 -0.8084
11189TIP3   OH233507   2.047   2.824   4.968  0.8883 -0.6840  0.0043
11189TIP3    H133508   1.960   2.784   4.962  1.0728 -1.1014  0.1534
11189TIP3    H233509   2.088   2.804   4.884 -0.0020  1.4965 -1.0440
11190TIP3   OH233510   5.969   3.001   0.668 -0.3732  0.5855 -0.0271
11190TIP3    H133511   5.985   2.908   0.684 -0.7847  0.4924 -0.1436
11190TIP3    H233512   5.983   3.011   0.574  1.7326  1.0673  0.2988
11191TIP3   OH233513   3.321   3.522   0.341 -0.1264 -0.4166  0.5086
11191TIP3    H133514   3.254   3.585   0.315  1.0101  0.3637 -0.6054
11191TIP3    H233515   3.363   3.496   0.260 -0.2949 -2.3616  0.9710
11192TIP3   OH233516   1.499   6.167   0.843 -0.1602 -0.2451 -0.3635
11192TIP3    H133517   1.527   6.155   0.934 -0.5236 -1.1897 -0.3645
11192TIP3    H233518   1.421   6.222   0.848 -0.0694 -0.1394 -0.1215
11193TIP3   OH233519   4.169   3.263   2.557  0.7139 -0.1792  0.2492
11193TIP3    H133520   4.238   3.226   2.613 -1.7127 -2.4139  2.0215
11193TIP3    H233521   4.132   3.187   2.511 -1.4236  0.6988  0.3952
11194TIP3   OH233522   0.583   3.448   4.148  0.8061  0.4069 -0.1220
11194TIP3    H133523   0.610   3.371   4.097  1.3231  0.8131 -0.4825
11194TIP3    H233524   0.491   3.460   4.127  0.8828  0.2556 -0.5650
11195TIP3   OH233525   3.795   6.431   5.379  0.0835 -0.2402 -0.7282
11195TIP3    H133526   3.823   6.372   5.308  1.1649  0.3357 -0.8012
11195TIP3    H233527   3.810   6.381   5.459 -1.8655 -1.1906 -0.8948
11196TIP3   OH233528   2.279   6.060   1.932 -0.0628 -0.0952 -0.2984
11196TIP3    H133529   2.240   6.097   1.853 -0.1819 -1.0243 -0.6919
11196TIP3    H233530   2.373   6.075   1.921  0.0260 -1.0890 -1.1123
11197TIP3   OH233531   7.185   5.042   0.293 -0.2792  0.5314  0.3413
11197TIP3    H133532   7.264   5.034   0.238  0.7932  0.2332  1.8712
11197TIP3    H233533   7.217   5.078   0.375 -1.5892 -0.4900  1.3319
11198TIP3   OH233534   8.341   4.746   0.198  0.0790 -0.1503 -0.2562
11198TIP3    H133535   8.402   4.769   0.268 -0.5806  0.2794  0.1981
11198TIP3    H233536   8.256   4.738   0.243 -0.4291  0.5237 -1.0767
11199TIP3   OH233537   1.519   2.725   4.908  0.6364 -0.0089  0.2873
11199TIP3    H133538   1.434   2.757   4.938  0.6868 -1.2696  1.9047
11199TIP3    H233539   1.514   2.731   4.813 -0.5298  1.7054  0.3952
11200TIP3   OH233540   7.138   5.497   0.100  0.2906 -0.0662 -0.0854
11200TIP3    H133541   7.164   5.576   0.148  1.0615  0.2162 -0.9334
11200TIP3    H233542   7.160   5.425   0.159  0.6104  0.3079  0.2618
11201TIP3   OH233543   4.806   7.168   3.292 -0.0324  0.3761  0.1235
11201TIP3    H133544   4.772   7.137   3.376 -1.3719  0.3788 -0.3828
11201TIP3    H233545   4.821   7.262   3.305 -0.5585  0.4436  0.2687
11202TIP3   OH233546   3.002   5.736   4.517 -0.3558  0.0743  0.0691
11202TIP3    H133547   3.025   5.646   4.537  2.4261  0.4957 -0.7767
11202TIP3    H233548   2.952   5.766   4.593  0.4657 -1.5640  1.3046
11203TIP3   OH233549   3.399   2.543   3.221 -0.6458 -0.5019 -0.4492
11203TIP3    H133550   3.323   2.541   3.279 -1.6296  1.0212 -1.6102
11203TIP3    H233551   3.374   2.486   3.148  0.6921 -2.6328  0.6530
11204TIP3   OH233552   1.533   1.253   6.158 -0.2414 -0.0378 -0.1257
11204TIP3    H133553   1.551   1.164   6.187  1.2272  0.2293 -0.1439
11204TIP3    H233554   1.615   1.300   6.171 -1.3689  1.7129  1.2712
11205TIP3   OH233555   6.289   0.891   4.907 -0.1389  0.5722  1.0447
11205TIP3    H133556   6.276   0.798   4.893 -0.7175  1.0536 -2.3512
11205TIP3    H233557   6.383   0.900   4.925 -0.0396 -0.5954  1.1549
11206TIP3   OH233558   5.275   1.552   5.421 -0.1209  0.6026  0.4782
11206TIP3    H133559   5.200   1.610   5.416 -0.3930  0.3753  1.6194
11206TIP3    H233560   5.345   1.605   5.459  0.1946  0.7163 -0.2554
11207TIP3   OH233561   0.369   2.454   4.434  0.2371 -0.0151  0.1915
11207TIP3    H133562   0.452   2.407   4.420  0.3631 -0.0138  0.8993
11207TIP3    H233563   0.381   2.499   4.517 -0.2188  0.5616 -0.0543
11208TIP3   OH233564   5.804   5.422   5.450 -0.3651  0.3027  0.0357
11208TIP3    H133565   5.807   5.328   5.434 -2.0855  0.2264 -0.0174
11208TIP3    H233566   5.855   5.434   5.531 -2.6842 -1.1542  1.8425
11209TIP3   OH233567   4.324   4.940   6.801  0.7948  0.4452 -0.0486
11209TIP3    H133568   4.370   4.989   6.733 -0.0350 -0.4700 -1.3282
11209TIP3    H233569   4.235   4.976   6.800  0.1252 -1.1096 -1.1302
11210TIP3   OH233570   4.188   3.334   0.112  0.9725  0.2027  0.1208
11210TIP3    H133571   4.108   3.351   0.161  0.9515 -0.4577  0.3286
11210TIP3    H233572   4.234   3.418   0.112  1.3294  0.0551  1.9243
11211TIP3   OH233573   5.671   5.889   1.072  0.0649 -0.1890  0.2695
11211TIP3    H133574   5.604   5.848   1.017  0.3732  1.9829 -1.9008
11211TIP3    H233575   5.621   5.943   1.134 -0.2417 -1.7402  1.4485
11212TIP3   OH233576   1.129   6.836   0.707 -0.3164 -0.4534  0.1078
11212TIP3    H133577   1.210   6.808   0.750 -0.6529  0.6659  1.5344
11212TIP3    H233578   1.145   6.819   0.614  1.5375 -0.3495  0.3610
11213TIP3   OH233579   2.979   6.347   1.707  0.3557 -0.5693  0.2273
11213TIP3    H133580   2.953   6.433   1.740 -0.0192 -0.7452  0.4012
11213TIP3    H233581   3.048   6.366   1.644 -0.2676 -0.0725 -0.3255
11214TIP3   OH233582   6.662   0.363   5.066  0.0801 -0.6958 -0.1775
11214TIP3    H133583   6.644   0.418   5.142 -2.0366 -1.3087 -0.1751
11214TIP3    H233584   6.726   0.300   5.096  1.4690  0.8327  0.2300
11215TIP3   OH233585   0.347   3.436   1.483 -0.1326  0.3566 -0.1593
11215TIP3    H133586   0.360   3.409   1.392 -0.0183 -0.5156  0.0981
11215TIP3    H233587   0.266   3.486   1.483 -0.6797 -0.5134 -0.5778
11216TIP3   OH233588   2.542   3.301   0.744  0.6771  0.1621 -0.1015
11216TIP3    H133589   2.523   3.395   0.738  1.0866  0.2669  0.1717
11216TIP3    H233590   2.568   3.288   0.836 -1.0410 -0.5332  0.3164
11217TIP3   OH233591   1.813   3.379   5.867 -0.5086  0.2391 -0.3393
11217TIP3    H133592   1.869   3.436   5.920  0.1830 -1.1883  0.5224
11217TIP3    H233593   1.765   3.439   5.810  1.5238  1.5588 -0.7654
11218TIP3   OH233594   4.078   3.368   0.588 -0.3557  0.0797  0.2741
11218TIP3    H133595   4.148   3.368   0.522 -0.4909 -0.0442  0.1292
11218TIP3    H233596   4.058   3.460   0.603  0.7071  0.1840  1.2443
11219TIP3   OH233597   1.507   0.904   1.521  0.1607 -0.3672 -0.1614
11219TIP3    H133598   1.473   0.976   1.468 -0.7734 -0.0440  0.8319
11219TIP3    H233599   1.459   0.910   1.604  2.6240  0.1032  1.3596
11220TIP3   OH233600   2.253   6.164   6.319  0.1038 -0.7877 -0.5876
11220TIP3    H133601   2.225   6.100   6.384  0.3724 -0.6506 -0.3392
11220TIP3    H233602   2.290   6.112   6.248 -0.0247 -0.9248 -0.5552
11221TIP3   OH233603   5.156   3.296   6.344  0.2034 -0.3070 -0.7666
11221TIP3    H133604   5.123   3.366   6.288 -0.8906 -0.3708 -0.2194
11221TIP3    H233605   5.188   3.341   6.423  0.4623 -0.3402 -0.8500
11222TIP3   OH233606   6.882   0.298   1.670 -0.4075 -0.6618 -0.1039
11222TIP3    H133607   6.907   0.205   1.667  1.0986 -0.2786 -0.4733
11222TIP3    H233608   6.928   0.337   1.595 -0.4278  0.5166  0.4831
11223TIP3   OH233609   3.063   2.321   1.527  0.1298  0.3577  0.0512
11223TIP3    H133610   3.073   2.251   1.463  1.5366 -0.1425  0.7616
11223TIP3    H233611   3.128   2.301   1.594 -1.4478  0.7356  1.7634
11224TIP3   OH233612   3.058   6.416   0.370 -0.4505 -0.1391  0.3672
11224TIP3    H133613   3.123   6.479   0.398 -0.1396 -0.5974  0.6831
11224TIP3    H233614   3.000   6.405   0.445  0.3725 -1.3518  0.8543
11225TIP3   OH233615   1.409   5.894   4.307  0.1095 -0.2319 -0.2138
11225TIP3    H133616   1.435   5.879   4.397  1.7794  0.0758 -0.6177
11225TIP3    H233617   1.370   5.811   4.279 -1.6166  0.0596  1.1300
11226TIP3   OH233618   6.568   2.360   4.262 -0.2168 -0.3675 -0.9036
11226TIP3    H133619   6.529   2.428   4.208  0.3027  0.3023 -0.4591
11226TIP3    H233620   6.497   2.298   4.279 -0.6301 -0.0633 -1.5175
11227TIP3   OH233621   4.692   1.842   5.500  0.7643 -0.0131 -0.3858
11227TIP3    H133622   4.604   1.822   5.532 -0.1118  0.7257 -2.1623
11227TIP3    H233623   4.702   1.788   5.421  1.8923 -0.0620 -0.2192
11228TIP3   OH233624   0.268   4.596   5.402  0.0159 -0.2458  0.1557
11228TIP3    H133625   0.260   4.670   5.462 -0.8338  0.1833 -0.4665
11228TIP3    H233626   0.301   4.634   5.321  2.0859 -0.9665  0.6126
11229TIP3   OH233627   3.077   2.733   0.165 -0.0431 -0.2796  0.1233
11229TIP3    H133628   2.989   2.747   0.130 -0.1870 -0.9693  0.1971
11229TIP3    H233629   3.135   2.761   0.095 -0.3233 -2.1595 -0.9358
11230TIP3   OH233630   0.443   0.668   0.314 -0.0364  0.4027 -0.0876
11230TIP3    H133631   0.492   0.693   0.236  0.1720  0.7233  0.1419
11230TIP3    H233632   0.479   0.582   0.338 -1.1098 -0.3641 -1.1681
11231TIP3   OH233633   3.804   5.422   4.314  0.1948  0.2780  0.0826
11231TIP3    H133634   3.774   5.361   4.246  0.4341  0.5374 -0.2609
11231TIP3    H233635   3.731   5.484   4.324  0.7699  1.1791 -1.0779
11232TIP3   OH233636   3.591   0.308   3.648  0.2220  0.2987  0.2122
11232TIP3    H133637   3.626   0.281   3.564  0.1891 -2.2071  0.9069
11232TIP3    H233638   3.517   0.365   3.627 -0.2638 -0.8856 -1.4984
11233TIP3   OH233639   2.882   2.999   2.835  0.3727  0.0255 -0.3390
11233TIP3    H133640   2.901   2.984   2.743 -0.0105 -0.9477 -0.2665
11233TIP3    H233641   2.871   3.094   2.842  0.5737  0.1221 -1.2562
11234TIP3   OH233642   2.632   0.874   3.682 -0.4080  0.0311  0.1649
11234TIP3    H133643   2.629   0.914   3.595 -1.1672  0.8193  0.5387
11234TIP3    H233644   2.540   0.872   3.711 -0.1123  0.2115  1.1426
11235TIP3   OH233645   0.023   2.915   5.079  0.4305 -0.0447  0.7058
11235TIP3    H133646   0.001   2.995   5.031 -0.3853 -0.1351  0.9056
11235TIP3    H233647   0.005   2.937   5.171 -2.1182 -1.1590  0.5608
11236TIP3   OH233648   0.094   5.606   2.787 -0.5081  0.4460 -0.3476
11236TIP3    H133649   0.084   5.672   2.718  1.4456  2.5651  1.2011
11236TIP3    H233650   0.059   5.648   2.866  0.2128 -0.5890  0.5622
11237TIP3   OH233651   5.328   4.331   5.164  0.4601  0.3666 -0.1754
11237TIP3    H133652   5.256   4.316   5.103 -0.0355 -2.4171  0.9800
11237TIP3    H233653   5.388   4.389   5.116 -1.4120  0.8831 -2.0284
11238TIP3   OH233654   7.294  -0.019   4.535 -0.3159  0.4668 -0.2024
11238TIP3    H133655   7.326   0.024   4.614 -0.1489 -1.7504  1.0275
11238TIP3    H233656   7.203   0.010   4.526 -0.4052  0.5687  0.9543
11239TIP3   OH233657   6.763   0.727   5.067  0.3514 -0.1902  0.3814
11239TIP3    H133658   6.767   0.651   5.008 -0.4578  0.3072 -0.3392
11239TIP3    H233659   6.719   0.694   5.145 -1.5898 -0.0926 -0.5979
11240TIP3   OH233660   2.087   4.355   6.605 -0.1765 -0.1798  0.0433
11240TIP3    H133661   2.044   4.330   6.523 -1.3685 -0.3893  0.7195
11240TIP3    H233662   2.137   4.433   6.582  0.3893 -0.8613 -1.1404
11241TIP3   OH233663   3.809   7.782   1.229  0.0340  0.1440  0.2568
11241TIP3    H133664   3.730   7.749   1.271  0.0003 -1.4592 -0.9665
11241TIP3    H233665   3.778   7.827   1.150  0.2321  1.4042  0.8661
11242TIP3   OH233666   7.742   7.891   3.645 -0.7949  0.1502  0.5871
11242TIP3    H133667   7.714   7.934   3.565 -0.2619 -1.0323 -0.2585
11242TIP3    H233668   7.708   7.802   3.639 -0.1604 -0.1605  1.3473
11243TIP3   OH233669   0.831   5.147   3.071  0.6908  0.2450 -0.5457
11243TIP3    H133670   0.814   5.074   3.129 -1.1893  0.8140 -0.3096
11243TIP3    H233671   0.916   5.127   3.031  1.7535 -0.4471  1.9049
11244TIP3   OH233672   6.633   4.299   1.586  0.8164  0.2343  0.1100
11244TIP3    H133673   6.624   4.379   1.534  0.4835  0.7452  0.9312
11244TIP3    H233674   6.543   4.275   1.608  0.8779 -0.6653 -0.5528
11245TIP3   OH233675   4.285   0.970   4.730  0.6552 -0.2073  0.0935
11245TIP3    H133676   4.217   0.985   4.665  1.5142 -0.8329 -0.9851
11245TIP3    H233677   4.238   0.963   4.813 -0.4399  0.8954 -0.3921
11246TIP3   OH233678   7.678   1.555   1.612  0.5779 -0.1229 -0.4212
11246TIP3    H133679   7.677   1.627   1.548 -0.6798  0.0250 -0.2570
11246TIP3    H233680   7.674   1.598   1.697  2.8750 -0.2973 -0.1741
11247TIP3   OH233681   0.714   2.590   3.178 -0.5035 -0.6620 -0.0123
11247TIP3    H133682   0.673   2.673   3.201 -0.0888  0.0151 -1.6014
11247TIP3    H233683   0.799   2.593   3.222  0.0722  0.3865 -1.1416
11248TIP3   OH233684   1.696   6.547   6.413  0.5675 -0.3871  0.0765
11248TIP3    H133685   1.626   6.486   6.436  0.3842 -0.3029 -0.2488
11248TIP3    H233686   1.746   6.502   6.345 -0.1555  0.2152 -0.8721
11249TIP3   OH233687   7.477   1.905   3.469  0.1224 -0.3132 -0.6370
11249TIP3    H133688   7.502   1.813   3.479  0.3801 -0.1368  0.4417
11249TIP3    H233689   7.541   1.940   3.407 -0.0698 -0.8917 -1.1702
11250TIP3   OH233690   6.315   7.346   3.277 -0.4571  0.2774 -0.2344
11250TIP3    H133691   6.403   7.381   3.293 -0.2653 -0.1300 -0.3956
11250TIP3    H233692   6.323   7.297   3.195 -0.9613  0.6762 -0.5225
11251TIP3   OH233693   4.849   5.177   6.607 -0.5084 -0.3096 -0.5071
11251TIP3    H133694   4.886   5.231   6.676 -1.3058 -1.4640  0.8783
11251TIP3    H233695   4.819   5.240   6.541  1.3988  0.7611 -0.4228
11252TIP3   OH233696   5.311   1.705   6.198  0.0719  0.0708  0.1429
11252TIP3    H133697   5.378   1.659   6.148  1.4285  0.8605  1.1700
11252TIP3    H233698   5.266   1.760   6.134  0.0727 -0.8415 -0.6478
11253TIP3   OH233699   3.835   1.266   6.214 -0.2267 -0.2568 -0.1298
11253TIP3    H133700   3.842   1.228   6.126  1.6983  1.3676 -0.7650
11253TIP3    H233701   3.801   1.196   6.268 -0.7102 -1.5589 -2.0214
11254TIP3   OH233702   7.358   0.399   5.213  0.1493 -0.2639 -0.0356
11254TIP3    H133703   7.436   0.441   5.250  0.5221 -0.1702 -0.9171
11254TIP3    H233704   7.370   0.306   5.232  0.1689 -0.1785  0.3816
11255TIP3   OH233705   7.885   3.656   4.170 -0.1247 -1.0673  0.2256
11255TIP3    H133706   7.803   3.621   4.205 -1.6979  1.7551 -0.3993
11255TIP3    H233707   7.863   3.691   4.084  1.9911 -1.1393 -0.4104
11256TIP3   OH233708   4.683   3.187   6.383  0.1908 -0.0635 -0.2864
11256TIP3    H133709   4.685   3.106   6.434 -0.7364  0.6224  0.8991
11256TIP3    H233710   4.645   3.162   6.299  0.3987 -0.9466 -0.1240
11257TIP3   OH233711   2.389   0.323   0.769 -0.0325 -0.1642 -0.0150
11257TIP3    H133712   2.326   0.283   0.708 -0.4479 -0.2282  0.4495
11257TIP3    H233713   2.340   0.394   0.810  0.1042 -0.4046  0.5691
11258TIP3   OH233714   1.415   3.037   3.138 -0.0690 -0.0258 -0.3266
11258TIP3    H133715   1.398   2.943   3.134  1.3056 -0.3705  0.9286
11258TIP3    H233716   1.425   3.064   3.047 -0.2006 -1.1523 -0.6796
11259TIP3   OH233717   5.898   6.084   1.182 -0.0551 -0.0184  0.0830
11259TIP3    H133718   5.864   6.172   1.162 -1.3537 -0.2347  1.2029
11259TIP3    H233719   5.832   6.025   1.146  1.1183 -0.5935 -1.2258
11260TIP3   OH233720   2.477   0.162   5.524  0.2452 -0.3774  0.6543
11260TIP3    H133721   2.532   0.091   5.490 -0.2574 -0.4216 -0.0920
11260TIP3    H233722   2.530   0.241   5.514 -0.9238  0.1253 -3.1413
11261TIP3   OH233723   4.317   4.391   5.753 -0.1902 -0.2214 -0.4799
11261TIP3    H133724   4.300   4.303   5.786 -2.7717 -0.1228 -1.3387
11261TIP3    H233725   4.374   4.378   5.678  0.8730 -0.9770  0.4334
11262TIP3   OH233726   3.213   6.221   1.797  0.4404 -1.0238  0.7663
11262TIP3    H133727   3.249   6.134   1.813  0.9919 -0.9763 -0.0853
11262TIP3    H233728   3.175   6.214   1.709 -1.7336 -1.0837  1.6666
11263TIP3   OH233729   5.510   4.560   3.873  0.2908 -0.2737  0.0701
11263TIP3    H133730   5.553   4.620   3.813  0.5228 -0.2309  0.2794
11263TIP3    H233731   5.579   4.500   3.902  0.7394  1.0963  2.0765
11264TIP3   OH233732   5.836   2.083   5.753  0.1508 -0.2520 -0.3992
11264TIP3    H133733   5.816   2.174   5.774  1.0082  0.0868 -0.9884
11264TIP3    H233734   5.873   2.086   5.664  0.8516 -1.0747 -0.1562
11265TIP3   OH233735   2.755   0.679   3.456 -0.1747  0.3880  0.0669
11265TIP3    H133736   2.663   0.681   3.484 -0.6773 -0.1559 -1.4214
11265TIP3    H233737   2.756   0.616   3.384  1.6551 -0.7248  0.9861
11266TIP3   OH233738   1.828   0.988   2.567  0.2683  0.1064  0.3772
11266TIP3    H133739   1.910   0.969   2.520  0.2147  0.3717  0.1758
11266TIP3    H233740   1.854   1.043   2.640  0.1775  0.7617 -0.0815
11267TIP3   OH233741   4.836   5.310   4.728 -0.1734 -0.4641 -0.1712
11267TIP3    H133742   4.822   5.337   4.819  0.4581 -0.3838 -0.0941
11267TIP3    H233743   4.905   5.368   4.696 -1.8689  0.9699 -1.3970
11268TIP3   OH233744   4.787   5.385   6.420 -0.1429 -0.2367  0.1111
11268TIP3    H133745   4.720   5.387   6.352  0.7987  1.3156 -0.8432
11268TIP3    H233746   4.750   5.437   6.492 -0.3603 -0.2109 -0.0174
11269TIP3   OH233747   7.631   7.676   0.324  0.0622 -0.7568 -0.3425
11269TIP3    H133748   7.643   7.636   0.238 -0.6159  0.7165 -1.1736
11269TIP3    H233749   7.536   7.688   0.331  0.1131 -0.8375  0.6123
11270TIP3   OH233750   1.297   1.164   4.250 -0.1386  0.5094 -0.3014
11270TIP3    H133751   1.365   1.142   4.312 -0.4917  1.5622  0.4952
11270TIP3    H233752   1.342   1.211   4.180  0.5700 -2.3196 -1.8751
11271TIP3   OH233753   7.445   5.602   3.125 -0.0216 -0.0122  0.0680
11271TIP3    H133754   7.424   5.541   3.055  0.7621 -1.8915  1.3864
11271TIP3    H233755   7.524   5.647   3.095  1.0748 -1.7378  0.2252
11272TIP3   OH233756   5.572   3.335   1.186  0.0226  0.1696 -0.6919
11272TIP3    H133757   5.512   3.404   1.215  0.4869  0.0741  0.5547
11272TIP3    H233758   5.653   3.353   1.233  1.2447  0.7011 -2.8457
11273TIP3   OH233759   1.278   4.883   5.975 -0.3020 -0.1381 -0.5562
11273TIP3    H133760   1.318   4.969   5.989 -1.9626  0.8437 -1.4890
11273TIP3    H233761   1.266   4.847   6.063  1.7294 -0.0745 -0.2262
11274TIP3   OH233762   8.075   6.646   4.195 -0.3764 -0.7670 -0.6083
11274TIP3    H133763   8.063   6.551   4.191  0.0927 -0.8037 -1.1877
11274TIP3    H233764   8.050   6.669   4.285 -2.6068 -1.1417 -1.0539
11275TIP3   OH233765   0.715   6.921   0.019  0.4246 -0.0552 -0.0160
11275TIP3    H133766   0.774   6.942   0.091  0.4694 -2.4096  0.7015
11275TIP3    H233767   0.768   6.932  -0.060  0.8062  1.1124  0.3851
11276TIP3   OH233768   4.833   0.615   4.796 -0.0979 -0.5737  0.2078
11276TIP3    H133769   4.787   0.680   4.743  0.2877 -0.0624  0.4866
11276TIP3    H233770   4.795   0.623   4.883  1.1802  0.5878  0.7091
11277TIP3   OH233771   5.838   5.951   1.812  0.4452 -0.0437  0.5727
11277TIP3    H133772   5.792   5.995   1.741  1.8849  0.5791  0.0053
11277TIP3    H233773   5.775   5.951   1.884 -0.2046  1.3867  0.0392
11278TIP3   OH233774   2.815   0.905   5.806 -0.1957  0.2419 -0.0711
11278TIP3    H133775   2.735   0.911   5.858 -0.8460  1.5024 -1.1676
11278TIP3    H233776   2.802   0.828   5.751 -0.7885  0.5770 -0.4173
11279TIP3   OH233777   0.843   6.939   6.498  0.0947 -0.0522  0.0688
11279TIP3    H133778   0.882   7.025   6.482  0.4667  0.0576  1.4166
11279TIP3    H233779   0.872   6.886   6.423  0.4022  0.8140 -0.4466
11280TIP3   OH233780   0.566   7.411   2.533  0.1535  0.3698 -0.3247
11280TIP3    H133781   0.565   7.418   2.437 -1.1271  0.8187 -0.2968
11280TIP3    H233782   0.657   7.423   2.556  0.2199  2.4206 -1.3596
11281TIP3   OH233783   6.806   7.492   5.459  0.3414 -0.1182 -0.0927
11281TIP3    H133784   6.747   7.419   5.438 -0.2391 -0.2996  1.9840
11281TIP3    H233785   6.761   7.540   5.528  1.9837  0.5920  0.5309
11282TIP3   OH233786   1.745   3.930   4.620  0.3845  0.1171 -0.2074
11282TIP3    H133787   1.838   3.911   4.630  1.4195  3.4200 -2.0823
11282TIP3    H233788   1.724   3.902   4.531 -0.1128  0.4030 -0.1843
11283TIP3   OH233789   1.738   4.452   2.339 -0.0300 -0.4184  0.4115
11283TIP3    H133790   1.722   4.449   2.245 -3.3784  0.2534  0.8601
11283TIP3    H233791   1.749   4.545   2.359 -1.9273 -0.2874  0.9920
11284TIP3   OH233792   7.174   7.380   2.429 -0.1986  0.1366 -0.0583
11284TIP3    H133793   7.099   7.419   2.474 -0.9969  1.4351 -2.3525
11284TIP3    H233794   7.136   7.305   2.382  0.5814 -1.0908  1.2110
11285TIP3   OH233795   4.614   5.626   3.361  0.0038 -0.3764  0.2555
11285TIP3    H133796   4.601   5.703   3.415 -0.4631  0.1611 -0.6034
11285TIP3    H233797   4.565   5.557   3.404 -1.5709  0.3976 -0.2416
11286TIP3   OH233798   4.157   1.845   3.374  0.6474 -0.1182 -0.1624
11286TIP3    H133799   4.185   1.937   3.369  2.0442 -0.4180  1.3652
11286TIP3    H233800   4.199   1.811   3.453 -0.7287 -1.8024 -0.0970
11287TIP3   OH233801   6.375   3.318   5.808 -0.1877  0.1050  0.1522
11287TIP3    H133802   6.436   3.245   5.810  0.1665  0.3454 -1.2839
11287TIP3    H233803   6.395   3.364   5.727 -0.6195  1.6149  0.8689
11288TIP3   OH233804   2.311   2.958   6.028 -0.1364 -0.0132 -0.3845
11288TIP3    H133805   2.354   2.989   5.948 -0.0523  0.5764 -0.1183
11288TIP3    H233806   2.382   2.943   6.090 -0.3199  1.9619  0.4051
11289TIP3   OH233807   6.573   0.461   2.767  0.3103 -0.2751  0.1072
11289TIP3    H133808   6.483   0.479   2.738  0.4538 -0.2480 -0.3282
11289TIP3    H233809   6.563   0.426   2.855 -0.0901  0.2798  0.2851
11290TIP3   OH233810   2.476   4.233   2.227  0.0738  0.0650 -0.5969
11290TIP3    H133811   2.395   4.190   2.200 -1.4059  0.7507  2.4241
11290TIP3    H233812   2.515   4.172   2.290  1.6810  0.0045 -1.5961
11291TIP3   OH233813   5.843   0.749   0.074  0.4096 -0.2761  0.1267
11291TIP3    H133814   5.918   0.726   0.129 -0.1880 -1.3613  0.5307
11291TIP3    H233815   5.766   0.725   0.127 -0.2144  0.4139 -0.4427
11292TIP3   OH233816   0.925   2.711   3.866 -0.0929 -0.1140  0.3068
11292TIP3    H133817   0.859   2.780   3.863 -0.2982 -0.2457  1.2957
11292TIP3    H233818   0.904   2.663   3.946  0.8461 -0.5237  0.3099
11293TIP3   OH233819   4.091   3.826   1.712 -0.2836  0.4339  0.2997
11293TIP3    H133820   4.141   3.852   1.790 -0.0106 -1.5724  0.8447
11293TIP3    H233821   4.062   3.909   1.674  2.0972  1.6325  0.8569
11294TIP3   OH233822   0.351   6.521   0.327  0.1369 -0.2156 -0.3914
11294TIP3    H133823   0.429   6.478   0.363  0.6334 -0.0475 -1.2230
11294TIP3    H233824   0.304   6.451   0.283  0.0648 -0.2330 -0.2847
11295TIP3   OH233825   1.967   3.558   5.365 -0.3762 -0.8778 -0.4544
11295TIP3    H133826   1.981   3.465   5.386 -1.0376 -0.7573  0.5691
11295TIP3    H233827   2.041   3.603   5.407 -0.2446 -0.8963 -0.6609
11296TIP3   OH233828   3.932   3.073   4.070 -0.2300 -0.3999 -0.1977
11296TIP3    H133829   3.869   3.014   4.111 -1.8572  1.2601 -0.1313
11296TIP3    H233830   4.009   3.069   4.126 -1.6159  0.2045  1.8941
11297TIP3   OH233831   0.953   2.769   4.558 -0.1240 -0.4245  0.2100
11297TIP3    H133832   0.879   2.709   4.563 -0.7061  0.1883 -0.7048
11297TIP3    H233833   0.928   2.832   4.490  1.2413 -0.2197 -0.1326
11298TIP3   OH233834   1.278   2.476   4.135 -0.3455  0.0901 -0.5202
11298TIP3    H133835   1.247   2.557   4.177  0.7061  0.0299  0.3992
11298TIP3    H233836   1.371   2.492   4.119 -0.3386 -0.5922 -1.1848
11299TIP3   OH233837   6.314   5.835   1.060  0.0789  0.1410  0.1254
11299TIP3    H133838   6.371   5.862   1.132  1.3417  1.1755 -1.1940
11299TIP3    H233839   6.264   5.913   1.038  0.9136  0.3417 -1.1764
11300TIP3   OH233840   2.371   3.531   4.833  0.4947 -0.5154 -0.6685
11300TIP3    H133841   2.347   3.464   4.897  0.7433  0.5409  0.5797
11300TIP3    H233842   2.435   3.586   4.878  1.1048 -0.0452 -2.0315
11301TIP3   OH233843   3.497   1.118   2.235 -0.2065  0.2645  0.0836
11301TIP3    H133844   3.549   1.144   2.160  0.1597  0.7493  0.4957
11301TIP3    H233845   3.558   1.122   2.309 -0.8569  0.9851  0.5953
11302TIP3   OH233846   2.995   6.427   2.354 -0.1417 -0.0812  0.3855
11302TIP3    H133847   2.981   6.408   2.261  0.1444  1.0204  0.0994
11302TIP3    H233848   3.011   6.341   2.394 -0.1509 -0.5596 -0.6045
11303TIP3   OH233849   0.175   6.686   3.331  0.0996  0.0872 -0.0197
11303TIP3    H133850   0.229   6.705   3.408 -1.7141 -2.5292  2.1216
11303TIP3    H233851   0.089   6.722   3.352  0.1721  1.6137 -2.0593
11304TIP3   OH233852   1.689   5.654   5.068 -0.2023 -0.0708 -0.4425
11304TIP3    H133853   1.718   5.638   4.979  0.5936 -1.8887  0.0873
11304TIP3    H233854   1.595   5.631   5.067 -0.0954 -0.5039 -0.7260
11305TIP3   OH233855   3.592   3.006   6.649 -0.3838  0.3067  0.2697
11305TIP3    H133856   3.513   3.016   6.596 -0.6068  0.7851  0.6777
11305TIP3    H233857   3.663   3.040   6.594 -0.3751 -0.5884 -0.2918
11306TIP3   OH233858   6.176   3.877   3.264 -0.1183  0.1012  0.3850
11306TIP3    H133859   6.252   3.924   3.229  0.7077 -1.5288 -0.1286
11306TIP3    H233860   6.102   3.935   3.246  0.7637  0.9167 -0.7959
11307TIP3   OH233861   5.916   1.241   5.611 -0.1113  0.1954 -0.3057
11307TIP3    H133862   5.964   1.238   5.528  0.3171  3.6661 -0.3083
11307TIP3    H233863   5.978   1.278   5.673 -1.6956  1.5763  0.5262
11308TIP3   OH233864   1.377   7.309   4.884 -0.1977  0.1128 -0.2833
11308TIP3    H133865   1.349   7.237   4.940  1.9377 -0.6816 -0.1280
11308TIP3    H233866   1.387   7.270   4.798  0.4128  0.3560 -0.3263
11309TIP3   OH233867   4.934   2.919   5.457  0.3364  0.2721  0.2114
11309TIP3    H133868   4.967   3.005   5.482  0.5301  0.1973  0.2106
11309TIP3    H233869   4.838   2.927   5.463  0.3196  0.7362 -0.6187
11310TIP3   OH233870   6.261   0.140   0.474  0.3909  0.2015 -0.4540
11310TIP3    H133871   6.205   0.153   0.550 -0.2064  2.0087 -1.1608
11310TIP3    H233872   6.201   0.124   0.402  0.8234  1.0902 -1.0251
11311TIP3   OH233873   1.421   6.370   3.834 -0.6684  0.2201 -0.3501
11311TIP3    H133874   1.461   6.285   3.821 -1.5587 -0.0263 -1.6799
11311TIP3    H233875   1.332   6.360   3.800 -0.4763  1.9483 -1.4812
11312TIP3   OH233876   4.219   0.691   4.049  0.2587  0.2792  0.2852
11312TIP3    H133877   4.280   0.758   4.018 -0.7251  1.1850  0.3002
11312TIP3    H233878   4.156   0.682   3.978  0.6304 -0.9728  0.0841
11313TIP3   OH233879   4.077   1.450   0.932 -0.1572  0.5029  0.1904
11313TIP3    H133880   4.151   1.390   0.922  0.1249  0.6601  1.1989
11313TIP3    H233881   4.101   1.527   0.881  0.2550  0.4393  0.2850
11314TIP3   OH233882   5.278   4.461   0.878  0.0106  0.4818  0.2954
11314TIP3    H133883   5.270   4.414   0.961  0.0788 -0.3546 -0.1654
11314TIP3    H233884   5.272   4.554   0.902  0.9794  0.2925  1.3496
11315TIP3   OH233885   3.090   0.112   6.553  0.1460 -0.0157 -0.4305
11315TIP3    H133886   3.100   0.174   6.480  0.7925  0.1550 -0.2004
11315TIP3    H233887   3.154   0.141   6.618 -1.8737  1.1929  1.1529
11316TIP3   OH233888   0.153   0.635   2.951  0.4661  0.7967 -0.0071
11316TIP3    H133889   0.121   0.678   3.030 -0.6866  0.1150 -0.0750
11316TIP3    H233890   0.218   0.573   2.983 -1.6680 -1.1967  0.7634
11317TIP3   OH233891   8.172   7.025   5.043  0.4372 -0.0187 -0.3738
11317TIP3    H133892   8.159   6.970   4.965 -1.4276  2.4782 -1.9760
11317TIP3    H233893   8.263   7.052   5.038  1.2684 -2.4402  0.1820
11318TIP3   OH233894   3.701   0.047   0.130  0.0230  0.3153 -0.3204
11318TIP3    H133895   3.657   0.057   0.214  0.5487  0.5609 -0.0708
11318TIP3    H233896   3.676  -0.040   0.099  0.8040 -0.2701  0.6580
11319TIP3   OH233897   8.231   2.291   6.478  0.5936 -0.1865  0.0485
11319TIP3    H133898   8.320   2.325   6.466  0.8091 -0.7873 -0.0831
11319TIP3    H233899   8.178   2.369   6.490  1.1394  0.1835  0.1278
11320TIP3   OH233900   4.911   6.334   0.254  0.2915  0.3564  0.8855
11320TIP3    H133901   4.869   6.353   0.338 -1.1174 -2.6384  0.9979
11320TIP3    H233902   4.876   6.248   0.229  1.2187  0.8156 -2.4284
11321TIP3   OH233903   2.079   3.886   4.626  0.0348  0.1484 -0.1747
11321TIP3    H133904   2.084   3.798   4.664  0.3598  0.7300  1.1986
11321TIP3    H233905   2.150   3.888   4.562  0.8074 -0.2260  0.6365
11322TIP3   OH233906   5.097   4.379   4.118  0.0089  0.4130  0.0161
11322TIP3    H133907   5.074   4.288   4.136  0.8272  0.3710  0.9479
11322TIP3    H233908   5.104   4.420   4.204  0.5023  1.1376 -0.3548
11323TIP3   OH233909   0.249   7.855   4.572  0.4166  0.0417 -0.1696
11323TIP3    H133910   0.293   7.889   4.493 -0.0307  0.1230 -0.3830
11323TIP3    H233911   0.247   7.760   4.559 -1.2521  0.1724 -1.1011
11324TIP3   OH233912   6.804   3.603   2.981  0.0230 -0.3428 -0.5568
11324TIP3    H133913   6.881   3.627   2.931  0.6210 -1.6345 -0.2991
11324TIP3    H233914   6.731   3.643   2.934  0.7867  0.4277 -1.1112
11325TIP3   OH233915   7.122   6.087   3.403  0.3160 -0.5510  0.3024
11325TIP3    H133916   7.188   6.084   3.473  0.2054  0.2321  0.4595
11325TIP3    H233917   7.157   6.031   3.335  0.0131 -2.0326  1.3219
11326TIP3   OH233918   3.327   3.269   2.788  0.1373  0.0174 -0.1136
11326TIP3    H133919   3.276   3.188   2.787  1.6382 -0.9568 -0.3549
11326TIP3    H233920   3.297   3.315   2.866 -1.4824 -0.2458 -0.5348
11327TIP3   OH233921   5.515   3.101   1.343 -0.2252  0.0935 -0.1803
11327TIP3    H133922   5.486   3.192   1.349 -2.1762 -0.4264 -0.8443
11327TIP3    H233923   5.433   3.050   1.342  0.7602 -1.5611 -1.6107
11328TIP3   OH233924   2.804   1.062   4.130  0.0840 -0.3925 -0.3052
11328TIP3    H133925   2.832   1.076   4.220 -0.2217  0.8528 -0.3766
11328TIP3    H233926   2.767   0.974   4.129  0.5399 -0.6079  0.6615
11329TIP3   OH233927   1.485   5.683   6.450  0.0563  0.4087 -0.1858
11329TIP3    H133928   1.454   5.711   6.363 -0.7253  1.3156  0.3703
11329TIP3    H233929   1.427   5.727   6.511  0.8399  0.0689  0.8208
11330TIP3   OH233930   6.614   5.815   3.909 -0.8018 -0.3135  0.0640
11330TIP3    H133931   6.527   5.787   3.938 -0.4629 -1.3636  0.1235
11330TIP3    H233932   6.598   5.892   3.855 -1.6008  0.6422  1.5924
11331TIP3   OH233933   4.687   1.981   0.163  0.6561 -0.0139 -0.3081
11331TIP3    H133934   4.615   1.919   0.178 -0.2698  0.6902 -1.6641
11331TIP3    H233935   4.723   1.956   0.078  0.3984  1.1755 -0.7777
11332TIP3   OH233936   1.424   1.510   4.946  0.4288  0.7189  0.5319
11332TIP3    H133937   1.499   1.550   4.901  1.2464 -0.5411  0.7116
11332TIP3    H233938   1.432   1.540   5.037 -0.1907  1.8154  0.2466
11333TIP3   OH233939   3.856   5.597   3.639  0.0845 -0.3487  0.3037
11333TIP3    H133940   3.766   5.578   3.613 -0.0405  1.3600 -0.6380
11333TIP3    H233941   3.878   5.529   3.702 -1.9909 -0.5691  0.8322
11334TIP3   OH233942   6.723   7.698   0.918 -0.0333 -0.3086  0.2186
11334TIP3    H133943   6.725   7.604   0.903 -0.7012 -0.1404 -1.0588
11334TIP3    H233944   6.644   7.728   0.873 -0.5642  0.6854  1.7340
11335TIP3   OH233945   0.815   3.744   5.075 -0.2067  0.3753 -0.3193
11335TIP3    H133946   0.828   3.658   5.036 -0.9994 -0.1213  0.4634
11335TIP3    H233947   0.860   3.804   5.016 -0.4593 -0.4581 -1.3962
11336TIP3   OH233948   4.370   0.885   5.664 -0.8844  0.1049  0.5190
11336TIP3    H133949   4.389   0.954   5.727 -0.9687 -0.3774  1.0884
11336TIP3    H233950   4.411   0.807   5.701  1.1928  0.2790 -1.2172
11337TIP3   OH233951   8.199   0.481   3.007 -0.3555  0.2774  0.3246
11337TIP3    H133952   8.193   0.511   3.098 -1.2603  1.0498  0.0359
11337TIP3    H233953   8.141   0.541   2.959  2.4098  1.8882 -1.2742
11338TIP3   OH233954   0.647   4.371   1.253  0.0226  0.2146  0.0036
11338TIP3    H133955   0.579   4.384   1.188  0.3296  1.0563 -0.1627
11338TIP3    H233956   0.703   4.303   1.216 -1.4515 -1.4629  0.7476
11339TIP3   OH233957   7.084   3.654   1.311 -0.7171 -0.2617 -0.4135
11339TIP3    H133958   7.150   3.585   1.321 -0.3233 -0.1966 -2.1603
11339TIP3    H233959   7.128   3.734   1.342 -0.3242 -0.4013 -0.6047
11340TIP3   OH233960   5.359   0.612   0.989 -0.2182  0.1768  0.2747
11340TIP3    H133961   5.319   0.552   0.925 -2.3094  1.7203  0.0289
11340TIP3    H233962   5.453   0.601   0.976 -0.5557 -0.5242 -2.1863
11341TIP3   OH233963   0.195   3.070   2.747  0.4338 -0.5446 -0.0007
11341TIP3    H133964   0.170   3.162   2.760  0.5472 -0.3241 -1.2232
11341TIP3    H233965   0.137   3.039   2.677  0.7569 -1.2534  0.0403
11342TIP3   OH233966   4.135   6.318   4.365 -0.9158 -0.1464 -0.0183
11342TIP3    H133967   4.217   6.296   4.409 -0.1479 -1.9533 -2.1424
11342TIP3    H233968   4.155   6.397   4.316 -1.2485  0.8524  1.3937
11343TIP3   OH233969   7.522   3.936   5.866  0.4382 -0.1911 -0.0303
11343TIP3    H133970   7.519   3.918   5.960 -0.8105  2.5958  0.5531
11343TIP3    H233971   7.583   4.009   5.858 -0.3496  0.3615 -1.2296
11344TIP3   OH233972   4.018   4.931   3.245  0.0195 -0.3289 -0.4674
11344TIP3    H133973   4.082   4.864   3.220  0.1688 -0.0039 -0.9865
11344TIP3    H233974   3.934   4.897   3.214  0.0348 -0.4583 -0.3683
11345TIP3   OH233975   2.833   7.269   2.868 -0.1556  0.0288 -0.4326
11345TIP3    H133976   2.878   7.252   2.785 -1.1093 -1.6156 -0.6504
11345TIP3    H233977   2.749   7.224   2.860 -1.9760  3.1022 -0.0753
11346TIP3   OH233978   4.872   4.888   6.567  0.3008  0.1487 -0.0595
11346TIP3    H133979   4.854   4.979   6.589 -1.3333 -0.0566 -0.4616
11346TIP3    H233980   4.834   4.837   6.639  0.5594 -0.2492 -0.1985
11347TIP3   OH233981   3.687   6.970   6.592  0.2982 -0.2903 -0.0582
11347TIP3    H133982   3.685   6.877   6.615 -3.3252 -0.5487 -0.8061
11347TIP3    H233983   3.669   7.015   6.675  1.3780 -0.2638  0.1742
11348TIP3   OH233984   7.680   7.902   0.478  0.0295 -0.2891 -0.3267
11348TIP3    H133985   7.652   7.832   0.419  0.1438  1.4528 -2.5605
11348TIP3    H233986   7.774   7.886   0.491  0.1584 -0.2881 -1.2118
11349TIP3   OH233987   6.313   3.614   1.115 -0.4112 -0.2011  0.1009
11349TIP3    H133988   6.336   3.525   1.090 -0.9631 -0.0143 -1.1241
11349TIP3    H233989   6.396   3.655   1.137  0.0096 -0.6272 -0.6527
11350TIP3   OH233990   5.110   5.482   0.985  0.6283  0.4257 -0.3751
11350TIP3    H133991   5.093   5.393   0.955  1.7406 -0.7236  2.1526
11350TIP3    H233992   5.064   5.488   1.069  2.0895  1.5899  0.3811
11351TIP3   OH233993   1.024   0.110   3.810  0.0515  0.3833 -0.1572
11351TIP3    H133994   1.100   0.098   3.753  0.0113  1.0509 -0.3478
11351TIP3    H233995   1.045   0.059   3.889 -1.0049 -2.7649 -1.7489
11352TIP3   OH233996   2.808   4.528   1.137 -0.3121  0.2475  0.2347
11352TIP3    H133997   2.842   4.478   1.063  0.6219 -0.0089  0.8283
11352TIP3    H233998   2.805   4.466   1.209 -2.5795  0.1072  0.1008
11353TIP3   OH233999   2.650   3.666   5.220  0.1771 -0.9539  0.1946
11353TIP3    H134000   2.725   3.636   5.167  0.0248 -2.1952  0.6376
11353TIP3    H234001   2.671   3.756   5.242  0.2153 -0.3521 -2.0346
11354TIP3   OH234002   3.444   1.512   5.094  0.2204 -0.1552 -0.0707
11354TIP3    H134003   3.490   1.432   5.068 -0.2490 -0.3907 -0.1762
11354TIP3    H234004   3.463   1.522   5.187  0.8253 -0.0237 -0.2002
11355TIP3   OH234005   6.572   5.516   5.840  0.6607  0.1653  0.2876
11355TIP3    H134006   6.667   5.509   5.832  0.7364  2.1479 -1.2546
11355TIP3    H234007   6.555   5.610   5.841 -1.2919 -0.1478  0.6731
11356TIP3   OH234008   0.770   7.139   4.979  0.0879 -0.0290  0.2291
11356TIP3    H134009   0.725   7.222   4.965 -0.7384 -0.2463  1.5023
11356TIP3    H234010   0.780   7.103   4.891  0.2743  1.3041 -0.3303
11357TIP3   OH234011   3.973  -0.011   4.936 -0.1681  0.4213  0.2945
11357TIP3    H134012   3.955   0.034   4.853 -1.0085 -0.1726  0.1336
11357TIP3    H234013   3.986   0.059   5.000 -2.4404  0.9381  0.2747
11358TIP3   OH234014   7.242   2.460   4.508 -0.1681 -0.1033 -0.7116
11358TIP3    H134015   7.191   2.521   4.456  0.6490  0.3111 -1.0550
11358TIP3    H234016   7.285   2.404   4.443  2.1482  1.4403 -0.6520
11359TIP3   OH234017   7.662   6.441   3.885  0.5081 -0.1338  0.3152
11359TIP3    H134018   7.585   6.457   3.832 -0.6231 -1.6208  1.4375
11359TIP3    H234019   7.656   6.506   3.956  0.6511  0.1816  0.0407
11360TIP3   OH234020   3.642   7.298   5.246  0.3515  0.0929 -0.1237
11360TIP3    H134021   3.731   7.269   5.223  0.2983  0.2270 -0.5122
11360TIP3    H234022   3.648   7.394   5.246  0.4220  0.0951  0.7287
11361TIP3   OH234023   5.512   6.799   4.653  0.1680  0.5618 -0.2017
11361TIP3    H134024   5.528   6.706   4.668  0.8158  0.5430 -0.9285
11361TIP3    H234025   5.450   6.825   4.721  0.9345 -0.1162  0.7665
11362TIP3   OH234026   2.627   5.960   3.424 -0.4428  0.0080 -0.2302
11362TIP3    H134027   2.539   5.995   3.439 -0.7059 -1.6236  2.7830
11362TIP3    H234028   2.682   6.006   3.488 -0.2389 -2.7256  1.7183
11363TIP3   OH234029   4.153   2.880   2.721  0.7095  0.4865  0.4605
11363TIP3    H134030   4.088   2.886   2.651  1.4927 -0.5909 -0.3776
11363TIP3    H234031   4.236   2.869   2.676  1.0704 -1.8118  1.5424
11364TIP3   OH234032   0.163   1.024   2.969  0.4107 -0.3538  0.0240
11364TIP3    H134033   0.192   0.935   2.951  0.6085 -0.5829  1.3717
11364TIP3    H234034   0.244   1.074   2.976  0.2923  0.3907 -2.6329
11365TIP3   OH234035   1.226   1.570   2.986  0.4215 -0.2764 -0.5154
11365TIP3    H134036   1.137   1.548   3.015  0.2504  0.9687 -0.0276
11365TIP3    H234037   1.236   1.526   2.902  0.3886 -2.8023  0.7107
11366TIP3   OH234038   2.949   4.710   5.325 -0.0257 -0.1884 -1.5347
11366TIP3    H134039   2.906   4.781   5.374 -0.9372 -0.4794 -1.8867
11366TIP3    H234040   3.038   4.741   5.312  0.3833 -0.2889  0.6746
11367TIP3   OH234041   7.676   7.135   2.343  0.7899 -0.0596  0.1190
11367TIP3    H134042   7.600   7.163   2.393  2.8955  3.4720  1.7269
11367TIP3    H234043   7.726   7.080   2.403 -0.0076 -1.7024 -0.6590
11368TIP3   OH234044   7.684   1.808   2.748 -0.3255  0.2454 -0.2263
11368TIP3    H134045   7.715   1.738   2.690 -1.1854 -0.7306  0.4533
11368TIP3    H234046   7.602   1.774   2.784  0.5903  0.4442  2.2185
11369TIP3   OH234047   5.506   3.421   6.589 -0.2465  0.6757  0.3003
11369TIP3    H134048   5.459   3.414   6.506 -0.4275  0.0051  0.4610
11369TIP3    H234049   5.458   3.488   6.638 -0.8393  0.2346  0.3306
11370TIP3   OH234050   7.536   1.051   6.428 -0.2233  0.1624 -0.5033
11370TIP3    H134051   7.592   1.023   6.355 -2.1329 -0.4775 -1.8239
11370TIP3    H234052   7.475   0.978   6.439  0.9745 -0.4909  2.8937
11371TIP3   OH234053   5.050   7.648   0.434 -0.4329  0.3299  0.6478
11371TIP3    H134054   5.020   7.710   0.368 -0.2046  0.6932  0.8750
11371TIP3    H234055   5.128   7.690   0.471 -1.3526  0.8113  2.1340
11372TIP3   OH234056   7.860   7.801   4.234  0.0319  0.4156  0.0455
11372TIP3    H134057   7.795   7.860   4.197 -1.0181 -0.5224  0.3477
11372TIP3    H234058   7.944   7.841   4.211 -0.6167  1.0381 -1.3762
11373TIP3   OH234059   4.699   6.504   4.817 -0.2013 -0.2928 -0.2908
11373TIP3    H134060   4.678   6.594   4.842  1.2987  0.4179 -1.4447
11373TIP3    H234061   4.790   6.508   4.787  0.2317 -2.3907  0.5562
11374TIP3   OH234062   6.574   7.284   0.369  0.1466 -0.5245  0.0898
11374TIP3    H134063   6.592   7.284   0.463  2.4739 -0.5037 -0.2918
11374TIP3    H234064   6.624   7.359   0.335  1.7215 -2.1920 -1.4906
11375TIP3   OH234065   2.825   2.711   1.282 -0.3394  0.6436 -0.4804
11375TIP3    H134066   2.863   2.675   1.202 -1.0274 -0.9468 -0.1367
11375TIP3    H234067   2.891   2.695   1.350 -0.3589  0.6488 -0.4600
11376TIP3   OH234068   2.143   3.049   2.683  0.4839 -0.1619 -0.4516
11376TIP3    H134069   2.120   2.959   2.661  0.5399  0.0319 -1.3346
11376TIP3    H234070   2.232   3.060   2.650  1.1214 -0.2728  1.1154
11377TIP3   OH234071   5.226   5.495   6.396 -0.2388 -0.3661 -0.2600
11377TIP3    H134072   5.154   5.552   6.422  0.9145  0.4970  1.2045
11377TIP3    H234073   5.291   5.554   6.357  0.3755 -0.8699 -0.0193
11378TIP3   OH234074   5.161   7.719   4.703  0.1214  0.1970 -0.5299
11378TIP3    H134075   5.140   7.759   4.787  0.0606 -0.5913 -0.1528
11378TIP3    H234076   5.138   7.784   4.638 -0.5823  0.5144  0.0296
11379TIP3   OH234077   0.312   3.205   5.057  0.1701 -0.0121 -0.0833
11379TIP3    H134078   0.234   3.255   5.033  0.4491  0.1816 -0.6085
11379TIP3    H234079   0.292   3.115   5.029 -0.3571 -0.2178  0.9208
11380TIP3   OH234080   8.180   1.415   0.413  0.3219 -0.5504  0.1374
11380TIP3    H134081   8.131   1.378   0.339  4.3885 -1.5043 -2.4328
11380TIP3    H234082   8.240   1.345   0.439  1.3050  0.9307  2.1025
11381TIP3   OH234083   6.881   5.334   5.213 -0.8419 -0.4300  0.4916
11381TIP3    H134084   6.930   5.394   5.269 -0.7456  1.5567 -1.5547
11381TIP3    H234085   6.797   5.377   5.199 -0.4256 -0.1847 -1.7858
11382TIP3   OH234086   3.960   6.671   5.420  0.4078 -0.0233  0.5894
11382TIP3    H134087   3.880   6.626   5.393  0.4501 -0.6709  1.5031
11382TIP3    H234088   4.028   6.604   5.416  0.8554  0.4442  0.1328
11383TIP3   OH234089   7.874   7.563   6.446 -0.6198 -0.1717 -0.1568
11383TIP3    H134090   7.924   7.639   6.415 -0.5027  0.0368  0.5045
11383TIP3    H234091   7.936   7.490   6.442 -0.2670  0.0729  0.6024
11384TIP3   OH234092   5.035   4.082   3.804 -0.4367 -0.2832 -0.6250
11384TIP3    H134093   5.046   3.993   3.770 -0.3397 -1.0229  1.2314
11384TIP3    H234094   4.954   4.079   3.855  0.3932  0.2288  0.7743
11385TIP3   OH234095   8.262   3.018   2.796 -0.4693 -0.2416  0.4444
11385TIP3    H134096   8.286   2.999   2.705 -1.3461  1.4496 -0.2004
11385TIP3    H234097   8.280   2.937   2.843  2.0964 -0.5038 -0.8006
11386TIP3   OH234098   6.942   0.548   4.485  0.8068 -0.3266  0.6127
11386TIP3    H134099   7.008   0.487   4.451 -0.2462 -1.0776 -0.1390
11386TIP3    H234100   6.864   0.530   4.433  0.5051  1.8187  0.2542
11387TIP3   OH234101   3.792   3.936   5.651 -0.3885 -0.0741 -0.0119
11387TIP3    H134102   3.761   3.932   5.560  1.1527  2.8116 -0.7876
11387TIP3    H234103   3.712   3.938   5.703 -1.3637 -0.0699 -1.4391
11388TIP3   OH234104   8.268   4.603   3.134 -0.5047 -0.3010  0.8975
11388TIP3    H134105   8.274   4.698   3.142 -0.4230 -0.0470 -1.4780
11388TIP3    H234106   8.183   4.581   3.171 -0.4632  0.6689  1.6211
11389TIP3   OH234107   0.966   7.430   0.296 -0.3484  0.2324  0.5031
11389TIP3    H134108   0.973   7.476   0.380 -1.0891 -0.7960  1.1542
11389TIP3    H234109   0.884   7.381   0.303  1.2024 -2.5780  0.5727
11390TIP3   OH234110   8.082   5.848   0.329  0.5030  0.9004 -0.3621
11390TIP3    H134111   8.048   5.845   0.240 -1.0740 -0.8025  0.2365
11390TIP3    H234112   8.164   5.797   0.325  0.9894  1.7157 -1.0191
11391TIP3   OH234113   0.763   2.832   0.326 -0.0038 -0.5264  0.4556
11391TIP3    H134114   0.823   2.906   0.333 -0.6402 -0.1253  2.0235
11391TIP3    H234115   0.685   2.868   0.283 -1.0278  0.2406  2.7896
11392TIP3   OH234116   7.409   7.896   2.514  0.0071 -0.1645 -0.0350
11392TIP3    H134117   7.356   7.976   2.513 -0.0550 -0.1354  1.8357
11392TIP3    H234118   7.408   7.865   2.424  1.0594  2.6002 -1.0960
11393TIP3   OH234119   5.458   1.992   0.089  0.4923 -0.1703 -0.0792
11393TIP3    H134120   5.373   1.966   0.053  0.5458 -0.3135 -0.0988
11393TIP3    H234121   5.452   1.968   0.182  0.8575 -1.0187 -0.2696
11394TIP3   OH234122   4.166   2.859   1.034 -0.3267 -0.3960 -0.0839
11394TIP3    H134123   4.178   2.789   0.970 -0.4033 -0.4089 -0.0847
11394TIP3    H234124   4.172   2.815   1.119  0.1505 -0.3166 -0.0773
11395TIP3   OH234125   5.769   7.644   2.159  0.0007  0.2440  0.5587
11395TIP3    H134126   5.716   7.694   2.221  0.7960 -0.7150  2.0831
11395TIP3    H234127   5.829   7.594   2.214  0.0193 -1.5017 -0.9465
11396TIP3   OH234128   3.844   0.242   4.418  0.0930  0.5311 -0.3092
11396TIP3    H134129   3.875   0.158   4.452 -0.0355  1.3490  2.0370
11396TIP3    H234130   3.918   0.277   4.369  0.6394 -0.3303 -0.1179
11397TIP3   OH234131   5.134   0.556   6.444  0.3833  0.0765 -0.7112
11397TIP3    H134132   5.149   0.561   6.350  1.4215  0.6081 -0.5234
11397TIP3    H234133   5.214   0.517   6.479  0.8344  1.7058  0.1651
11398TIP3   OH234134   0.659   1.408   2.079 -0.2776  0.0460 -0.1287
11398TIP3    H134135   0.676   1.502   2.085  1.1150 -0.1455 -0.6024
11398TIP3    H234136   0.605   1.388   2.155 -3.2357  1.7514 -1.6240
11399TIP3   OH234137   5.485   0.493   6.668 -0.7799 -0.2392 -0.3017
11399TIP3    H134138   5.474   0.578   6.712  0.0108 -0.3310  0.0893
11399TIP3    H234139   5.566   0.503   6.619 -2.6892  0.6213 -3.5566
11400TIP3   OH234140   3.300   2.882   5.482 -0.2928 -0.2524  0.1538
11400TIP3    H134141   3.223   2.836   5.448  0.5019 -1.2793 -0.3142
11400TIP3    H234142   3.366   2.813   5.491  1.2716  0.9436 -1.5363
11401TIP3   OH234143   6.447   1.820   0.737  0.2130 -0.4599  0.4034
11401TIP3    H134144   6.413   1.742   0.692  1.4509 -0.8962  0.1745
11401TIP3    H234145   6.398   1.824   0.819 -1.3634 -0.2451 -0.5197
11402TIP3   OH234146   2.997   1.335   3.422  0.1265 -0.5391  0.1980
11402TIP3    H134147   2.956   1.256   3.457  0.0463 -1.5164 -1.9578
11402TIP3    H234148   3.049   1.305   3.348 -1.0340  1.5587 -1.6055
11403TIP3   OH234149   0.557   1.696   0.062  0.2097  0.3289  0.1902
11403TIP3    H134150   0.535   1.779   0.019 -1.5505 -0.8996 -1.4687
11403TIP3    H234151   0.556   1.716   0.155 -0.7298  2.0603 -0.1395
11404TIP3   OH234152   0.222   7.144   0.181  0.4435 -0.1163 -0.0880
11404TIP3    H134153   0.273   7.218   0.150  1.1161 -1.1607 -1.6288
11404TIP3    H234154   0.151   7.135   0.118 -1.5985  1.1656  1.8953
11405TIP3   OH234155   2.072   0.091   1.522  0.0005  0.0332  0.2019
11405TIP3    H134156   2.133   0.022   1.496 -1.4844 -0.3031 -2.7134
11405TIP3    H234157   2.069   0.150   1.447 -0.7001  1.9311  1.6404
11406TIP3   OH234158   1.610   4.629   5.189 -0.2487  0.0434 -0.1396
11406TIP3    H134159   1.682   4.654   5.246 -1.0110 -1.8938  1.8087
11406TIP3    H234160   1.547   4.701   5.197 -0.2143 -0.0622  1.2672
11407TIP3   OH234161   0.376   2.237   0.886  0.0274  1.0369  0.1687
11407TIP3    H134162   0.343   2.208   0.801  0.6843  0.5784  0.0605
11407TIP3    H234163   0.307   2.213   0.949  0.0912  0.2074 -0.0648
11408TIP3   OH234164   4.946   7.115   5.322 -0.0703 -0.7997 -0.3698
11408TIP3    H134165   5.022   7.171   5.309 -0.0418 -1.0625 -1.4126
11408TIP3    H234166   4.983   7.027   5.331 -0.1999 -0.8187  0.0053
11409TIP3   OH234167   3.945   0.852   2.713  0.3094 -0.3369 -0.0974
11409TIP3    H134168   3.972   0.890   2.629 -0.7004  0.4151 -0.1035
11409TIP3    H234169   3.873   0.793   2.690  0.4495 -0.6181  0.1758
11410TIP3   OH234170   4.227   2.764   1.286  0.1853 -0.0064 -0.1454
11410TIP3    H134171   4.213   2.682   1.239 -0.2276 -1.6170  2.5514
11410TIP3    H234172   4.210   2.742   1.378 -0.1600  3.1737  0.6796
11411TIP3   OH234173   3.469   5.910   4.622  0.0453  0.1845  0.1638
11411TIP3    H134174   3.397   5.900   4.685 -1.1294 -0.9096 -1.2661
11411TIP3    H234175   3.529   5.838   4.643 -0.0114  0.2120  0.4321
11412TIP3   OH234176   6.719   5.226   1.376 -0.6139 -0.2168 -0.1870
11412TIP3    H134177   6.753   5.299   1.428 -2.6187  0.4306  0.3181
11412TIP3    H234178   6.640   5.198   1.424 -1.0105 -1.3709 -1.4618
11413TIP3   OH234179   6.276   7.087   6.147 -0.0661  0.7353 -0.2448
11413TIP3    H134180   6.226   7.038   6.081 -0.3479 -0.4414  0.8157
11413TIP3    H234181   6.216   7.153   6.178 -0.8928 -0.4521  0.7705
11414TIP3   OH234182   6.792   6.377   3.449  0.0855  0.3077 -0.2553
11414TIP3    H134183   6.853   6.332   3.509 -0.1632  0.7703  0.3546
11414TIP3    H234184   6.823   6.468   3.449  0.5672  0.1595 -1.4584
11415TIP3   OH234185   1.382   4.364   5.742 -0.6601  0.2136  0.5289
11415TIP3    H134186   1.407   4.275   5.719  1.0498  0.8240 -0.0853
11415TIP3    H234187   1.464   4.407   5.768 -1.7385  0.9940  3.0343
11416TIP3   OH234188   7.710   3.358   1.239  0.4377 -0.2236  0.1913
11416TIP3    H134189   7.756   3.419   1.182  0.6328 -0.3559  0.2076
11416TIP3    H234190   7.664   3.299   1.179  0.4873 -0.2434  0.1726
11417TIP3   OH234191   4.409   2.574   6.252 -0.1295  0.3050  0.5700
11417TIP3    H134192   4.457   2.491   6.246  0.6458  0.8554 -2.3143
11417TIP3    H234193   4.320   2.552   6.224 -0.1832  0.2856  0.7523
11418TIP3   OH234194   7.163   6.018   2.055  0.4972 -0.1893 -0.0375
11418TIP3    H134195   7.077   5.981   2.074 -0.0512 -0.1392 -2.1486
11418TIP3    H234196   7.224   5.948   2.078 -0.2574 -1.0061 -0.4229
11419TIP3   OH234197   6.214   2.141   2.115  0.3505 -0.4089  0.0840
11419TIP3    H134198   6.167   2.101   2.188  0.2773  1.4701  1.1337
11419TIP3    H234199   6.292   2.179   2.156  0.2867  0.7083 -0.8103
11420TIP3   OH234200   3.814   0.176   4.744 -0.5859  0.0079  0.0987
11420TIP3    H134201   3.818   0.194   4.838 -0.3729 -0.6878  0.2308
11420TIP3    H234202   3.904   0.187   4.713 -0.5650 -0.2187  0.0717
11421TIP3   OH234203   1.739   2.241   5.140 -0.3729  0.3536 -0.5987
11421TIP3    H134204   1.714   2.294   5.065  1.7403  2.7359  0.2322
11421TIP3    H234205   1.832   2.260   5.152 -0.0399 -1.9304  1.1064
11422TIP3   OH234206   1.803   5.811   0.373 -0.1410 -0.3471 -0.0835
11422TIP3    H134207   1.731   5.874   0.383  0.0022 -0.0468 -0.8879
11422TIP3    H234208   1.868   5.858   0.320 -0.4400 -1.5140 -1.5242
11423TIP3   OH234209   3.304   7.305   6.003  0.1398  0.1009  0.1564
11423TIP3    H134210   3.292   7.400   5.998 -0.9080 -0.0641 -1.0131
11423TIP3    H234211   3.246   7.278   6.075 -1.3687  0.1140 -1.0061
11424TIP3   OH234212   5.177   4.367   4.922  0.2863 -0.8681 -0.2328
11424TIP3    H134213   5.171   4.300   4.855  0.7374 -0.8149 -0.3340
11424TIP3    H234214   5.088   4.378   4.954  0.5443 -3.3051  1.5507
11425TIP3   OH234215   0.555   7.636   4.339  0.0617 -0.4026  0.0663
11425TIP3    H134216   0.563   7.552   4.383  1.1104  0.1310  0.9443
11425TIP3    H234217   0.627   7.637   4.276  0.2833 -0.0245  0.3198
11426TIP3   OH234218   1.303   2.280   3.595  0.4282  0.6948  0.2194
11426TIP3    H134219   1.326   2.327   3.675  2.0803 -0.5411  0.5159
11426TIP3    H234220   1.247   2.341   3.547  1.3294  2.3916  1.2260
11427TIP3   OH234221   2.937   6.260   0.957  0.1985  0.1922  1.0467
11427TIP3    H134222   2.999   6.331   0.940 -0.1378  1.1074  3.2775
11427TIP3    H234223   2.988   6.195   1.005  0.2892 -0.7450 -0.2578
11428TIP3   OH234224   0.380   2.455   5.724 -0.4489  0.1239  0.0278
11428TIP3    H134225   0.475   2.463   5.737 -0.6453 -0.8228  2.7518
11428TIP3    H234226   0.363   2.362   5.733 -2.1136  0.6157  5.0527
11429TIP3   OH234227   2.095   3.301   0.908 -0.5146 -0.7767 -0.0246
11429TIP3    H134228   2.052   3.344   0.834  0.4632  0.9243  0.3407
11429TIP3    H234229   2.172   3.355   0.926  1.4921 -3.3660 -0.2688
11430TIP3   OH234230   3.696   5.518   1.053 -0.4030  0.7307  0.2050
11430TIP3    H134231   3.729   5.446   1.106 -0.5982  1.1916  0.9646
11430TIP3    H234232   3.601   5.517   1.067 -0.3740  1.3322  0.4748
11431TIP3   OH234233   2.525   5.601   5.379  0.7850  0.2617  0.2549
11431TIP3    H134234   2.450   5.551   5.348 -1.0283  1.6544  2.1192
11431TIP3    H234235   2.591   5.535   5.401 -0.1141 -1.0347 -0.7586
11432TIP3   OH234236   1.867   0.798   6.232 -0.4995  0.2768 -0.4408
11432TIP3    H134237   1.785   0.797   6.283  0.1085 -0.9570  0.5761
11432TIP3    H234238   1.905   0.884   6.249 -0.8401  0.2848  0.3300
11433TIP3   OH234239   2.971   2.325   5.192 -0.2892 -0.9341 -0.3184
11433TIP3    H134240   2.952   2.237   5.160 -0.9885 -1.2639  0.9455
11433TIP3    H234241   3.034   2.312   5.262  0.7168 -0.2802 -1.0771
11434TIP3   OH234242   3.441   7.343   3.498  0.2334  0.4651  0.2400
11434TIP3    H134243   3.510   7.410   3.490  0.4317  0.1941 -0.4059
11434TIP3    H234244   3.383   7.361   3.425 -0.9544  1.3094  1.3410
11435TIP3   OH234245   5.185   5.019   5.028 -0.0654 -0.0602 -0.0634
11435TIP3    H134246   5.122   5.087   5.004  0.5362  0.7820  0.6544
11435TIP3    H234247   5.246   5.016   4.955  0.0629  0.3803  0.0215
11436TIP3   OH234248   3.588   1.003   4.451 -0.5734  0.6313 -0.2673
11436TIP3    H134249   3.620   1.047   4.530 -1.2134  0.0989  0.3014
11436TIP3    H234250   3.625   0.915   4.456  1.4530  1.3035 -1.8600
11437TIP3   OH234251   0.038   3.511   2.452  0.0385 -1.1609 -0.2093
11437TIP3    H134252  -0.049   3.510   2.493 -0.0706  1.9831 -0.1330
11437TIP3    H234253   0.091   3.567   2.509  1.5270 -1.3174 -1.3797
11438TIP3   OH234254   6.552   0.982   1.516 -0.1051 -0.3430  0.1718
11438TIP3    H134255   6.591   0.895   1.509 -0.1642 -0.3869  0.3809
11438TIP3    H234256   6.480   0.971   1.578 -1.8021 -0.7391 -1.7468
11439TIP3   OH234257   3.442   6.348   6.748  0.2586  0.1063  0.6095
11439TIP3    H134258   3.369   6.379   6.694  0.6734 -0.0882 -0.0727
11439TIP3    H234259   3.519   6.391   6.711  0.6255 -0.4889  0.6598
11440TIP3   OH234260   7.234   0.700   1.807  0.1307 -0.3944  0.6587
11440TIP3    H134261   7.142   0.674   1.804  0.5019 -1.7005 -0.5913
11440TIP3    H234262   7.239   0.782   1.759 -0.0408 -1.5718 -1.4651
11441TIP3   OH234263   5.600   1.887   2.487 -0.5599 -0.8387  0.0301
11441TIP3    H134264   5.567   1.964   2.534  0.3524 -1.2221  1.3841
11441TIP3    H234265   5.695   1.896   2.490 -0.4237 -2.0901  0.3789
11442TIP3   OH234266   3.116   5.474   2.777  0.0016 -0.4612  0.2971
11442TIP3    H134267   3.052   5.489   2.847 -1.2878 -0.3770 -0.8548
11442TIP3    H234268   3.131   5.379   2.778  1.2635 -0.2829  1.7287
11443TIP3   OH234269   3.862   6.382   0.183  0.4819 -0.4627 -0.3881
11443TIP3    H134270   3.808   6.315   0.141 -1.0360  0.9590 -0.8181
11443TIP3    H234271   3.891   6.342   0.265  1.2886 -2.3272 -1.5211
11444TIP3   OH234272   7.761   1.513   5.049  0.1399 -0.4949 -0.4991
11444TIP3    H134273   7.788   1.578   5.114  0.6508  0.6549 -1.8165
11444TIP3    H234274   7.815   1.436   5.069 -0.1285 -0.3731  0.7872
11445TIP3   OH234275   4.989   5.068   2.561 -0.3788  0.0718  0.2244
11445TIP3    H134276   5.070   5.094   2.516 -1.0883  0.8628 -0.6432
11445TIP3    H234277   4.929   5.046   2.490  0.1149 -4.0283  0.8542
11446TIP3   OH234278   4.525   1.709   1.957 -0.0145  0.0770  0.3417
11446TIP3    H134279   4.603   1.678   2.003  1.1015  0.5491 -1.1540
11446TIP3    H234280   4.452   1.665   2.001  1.2782 -2.8093 -0.1365
11447TIP3   OH234281   6.760   5.102   5.482  0.5576  0.0576 -0.1396
11447TIP3    H134282   6.677   5.084   5.439  1.2802 -0.3360 -1.4304
11447TIP3    H234283   6.768   5.198   5.480  0.4201  0.0607 -0.5823
11448TIP3   OH234284   6.571   3.846   6.133  0.1119  0.0914 -0.2578
11448TIP3    H134285   6.501   3.781   6.139  0.4332 -0.3207 -0.8706
11448TIP3    H234286   6.636   3.817   6.196  0.3600 -0.3203 -0.6964
11449TIP3   OH234287   2.262   5.495   4.418  0.1840 -0.2462 -0.1217
11449TIP3    H134288   2.196   5.552   4.458 -0.3110 -1.0936  0.3029
11449TIP3    H234289   2.245   5.501   4.324  0.5284  0.7635 -0.1360
11450TIP3   OH234290   7.447   7.548   1.898 -0.3522  0.4035 -0.4292
11450TIP3    H134291   7.354   7.569   1.892  0.2914  3.6242 -0.7862
11450TIP3    H234292   7.466   7.547   1.992 -0.5473  0.7973 -0.3852
11451TIP3   OH234293   2.207   3.587   6.223 -0.0010  0.0285 -0.2447
11451TIP3    H134294   2.202   3.640   6.143 -0.4502  0.5725  0.1371
11451TIP3    H234295   2.145   3.627   6.283  0.1543 -0.5219  0.3023
11452TIP3   OH234296   8.338   4.374   4.951 -0.0264 -0.5836  0.0308
11452TIP3    H134297   8.428   4.396   4.930 -0.1394  1.8307  1.6387
11452TIP3    H234298   8.286   4.438   4.902 -0.7185 -0.5005  0.8589
11453TIP3   OH234299   2.825   0.192   6.558  0.2398  0.6376 -0.3470
11453TIP3    H134300   2.812   0.211   6.651 -1.3933 -0.1753 -0.3728
11453TIP3    H234301   2.912   0.151   6.554 -0.0471 -0.1712  0.9650
11454TIP3   OH234302   7.636   6.304   5.581 -0.2984  0.0743 -0.0109
11454TIP3    H134303   7.621   6.237   5.515  0.2304  0.9922 -1.0987
11454TIP3    H234304   7.731   6.316   5.583 -0.3591  0.5521  0.4005
11455TIP3   OH234305   6.729   4.614   3.003 -0.4193  0.2269 -0.0281
11455TIP3    H134306   6.793   4.599   3.072 -0.1048  1.2128 -0.0912
11455TIP3    H234307   6.657   4.660   3.047 -0.7419 -0.1752 -0.1234
11456TIP3   OH234308   3.614   2.205   3.427  0.2922 -0.0568  0.6238
11456TIP3    H134309   3.537   2.261   3.434  0.0698 -0.1427 -0.8214
11456TIP3    H234310   3.651   2.225   3.341  1.7376 -0.2124  1.1710
11457TIP3   OH234311   1.876   2.765   0.777 -0.0756  0.5342  0.5662
11457TIP3    H134312   1.915   2.848   0.804  0.4862  0.2398  0.6807
11457TIP3    H234313   1.949   2.715   0.740 -0.0200 -0.5805  2.0678
11458TIP3   OH234314   4.739   7.084   1.700  0.3365 -0.4028 -0.0875
11458TIP3    H134315   4.761   7.090   1.607 -1.9305  0.1375 -0.6630
11458TIP3    H234316   4.706   6.995   1.711 -1.6383  0.2357 -0.4163
11459TIP3   OH234317   1.111   5.461   5.935 -0.3822  0.0522  0.0271
11459TIP3    H134318   1.068   5.545   5.917 -0.6253  0.2177  1.2855
11459TIP3    H234319   1.190   5.484   5.984  0.3659 -0.3628 -0.9466
11460TIP3   OH234320   3.213   4.905   3.384  0.1045 -0.2417  0.2053
11460TIP3    H134321   3.279   4.895   3.454 -2.0913 -0.2173  2.4248
11460TIP3    H234322   3.263   4.898   3.303  2.6729 -1.3763  1.7488
11461TIP3   OH234323   7.299   4.412   2.915  0.1245 -0.0734  0.1637
11461TIP3    H134324   7.286   4.334   2.969 -0.0925  0.8005  1.4156
11461TIP3    H234325   7.378   4.453   2.951 -1.4621  1.9145  1.6173
11462TIP3   OH234326   7.778   5.422   0.450 -0.3486 -0.0782  0.4352
11462TIP3    H134327   7.771   5.329   0.472  1.5433  0.0643  1.8219
11462TIP3    H234328   7.870   5.444   0.466 -0.2341  1.5316 -1.9675
11463TIP3   OH234329   3.829   5.991   1.972  0.5130 -0.2820 -0.0097
11463TIP3    H134330   3.903   5.950   2.017  0.7819 -0.2689 -0.4375
11463TIP3    H234331   3.823   6.078   2.011  0.0451 -0.6604  0.7825
11464TIP3   OH234332   6.488   4.201   4.541  0.1242  0.1954  0.3242
11464TIP3    H134333   6.495   4.163   4.629  1.3515  0.2411  0.2629
11464TIP3    H234334   6.406   4.166   4.506 -0.5226  0.3999  1.5830
11465TIP3   OH234335   6.951   2.217   0.143 -0.6830  0.1410  0.2195
11465TIP3    H134336   6.980   2.294   0.094 -0.7033 -1.4373 -2.4967
11465TIP3    H234337   6.858   2.230   0.157 -0.2291  1.7434  2.1542
11466TIP3   OH234338   0.521   4.154   1.562 -0.4262  0.5060  0.4009
11466TIP3    H134339   0.482   4.231   1.521  1.4128  0.8831 -0.7279
11466TIP3    H234340   0.507   4.167   1.656  0.5525  2.6623  0.3050
11467TIP3   OH234341   6.869   5.695   1.126  0.3472 -0.0065 -0.0459
11467TIP3    H134342   6.916   5.618   1.158 -2.0305 -0.3293  3.2193
11467TIP3    H234343   6.915   5.770   1.164  0.7891 -0.0043 -0.5745
11468TIP3   OH234344   3.406   3.265   3.902  0.3196 -0.5458 -0.3000
11468TIP3    H134345   3.405   3.341   3.843 -1.1186 -0.5434 -0.2935
11468TIP3    H234346   3.499   3.242   3.908  0.6507  0.3696 -1.3829
11469TIP3   OH234347   2.481   0.856   2.529  0.1624  0.1714  0.4867
11469TIP3    H134348   2.553   0.813   2.484  0.2675 -0.2584  1.0577
11469TIP3    H234349   2.407   0.796   2.519 -0.1055  0.5854 -0.0503
11470TIP3   OH234350   7.362   2.873   0.854  0.2392 -0.4915 -0.1307
11470TIP3    H134351   7.386   2.896   0.944 -0.8459 -1.5437  0.4442
11470TIP3    H234352   7.269   2.851   0.858  0.4606 -1.7560 -1.2808
11471TIP3   OH234353   1.278  -0.009   6.276 -0.0550  0.1516 -0.3933
11471TIP3    H134354   1.342  -0.066   6.233  0.7695 -1.6571  2.8972
11471TIP3    H234355   1.323   0.075   6.284  2.7854 -1.4533  3.1751
11472TIP3   OH234356   4.448   5.899   0.603  0.4222  0.2916  0.2903
11472TIP3    H134357   4.470   5.976   0.552 -0.6139 -1.2207 -2.6926
11472TIP3    H234358   4.394   5.932   0.675  0.8176  2.4318 -0.3360
11473TIP3   OH234359   3.530   4.811   0.567 -0.2482 -0.8079 -0.4666
11473TIP3    H134360   3.479   4.830   0.645 -2.6301  0.9983 -2.3044
11473TIP3    H234361   3.526   4.716   0.558 -0.6430 -0.9592  1.1413
11474TIP3   OH234362   3.477   5.672   2.956 -0.0733  0.0577 -0.0007
11474TIP3    H134363   3.426   5.606   2.910  0.0791  0.3885 -0.6640
11474TIP3    H234364   3.567   5.641   2.951 -0.3533 -1.5681  2.9305
11475TIP3   OH234365   5.387   4.525   1.151  0.2309  0.0055  0.1646
11475TIP3    H134366   5.434   4.471   1.088  1.0814  2.3060 -1.3336
11475TIP3    H234367   5.307   4.476   1.171  0.4219 -1.2782 -1.9381
11476TIP3   OH234368   2.987   1.429   2.496 -0.3303  0.0727 -1.2723
11476TIP3    H134369   3.029   1.515   2.486 -1.5465  0.7618 -0.6321
11476TIP3    H234370   3.060   1.367   2.490  0.8584  1.2430  0.0920
11477TIP3   OH234371   4.357   3.521   1.947 -0.5772 -0.6988  0.4193
11477TIP3    H134372   4.346   3.528   1.852 -0.8444  2.2049  0.5514
11477TIP3    H234373   4.268   3.522   1.982 -0.4748  0.9876  0.7320
11478TIP3   OH234374   1.659   1.301   3.886 -0.0634  0.3510 -0.6076
11478TIP3    H134375   1.732   1.362   3.877 -1.4965  2.3486  0.4903
11478TIP3    H234376   1.683   1.226   3.833  2.1757  1.5154 -1.3352
11479TIP3   OH234377   2.818   1.816   5.080  0.3579 -0.0753 -0.1617
11479TIP3    H134378   2.790   1.802   4.990  0.6222 -0.8381 -0.1370
11479TIP3    H234379   2.913   1.802   5.078  0.5761  1.2343 -0.0101
11480TIP3   OH234380   6.837   2.559   2.923 -0.3241  0.1817  0.1167
11480TIP3    H134381   6.885   2.485   2.887 -0.8359  0.7395 -1.8060
11480TIP3    H234382   6.768   2.519   2.977 -1.1289 -0.7977 -1.5697
11481TIP3   OH234383   7.719   2.071   5.286  0.3344 -0.0388 -0.6627
11481TIP3    H134384   7.721   2.166   5.295 -0.8678 -0.1558  1.3620
11481TIP3    H234385   7.798   2.040   5.329 -0.5000 -0.0459  0.9395
11482TIP3   OH234386   2.781   5.979   3.071 -0.2222 -0.2105 -0.7721
11482TIP3    H134387   2.710   5.943   3.125  0.1096 -0.3884 -0.4524
11482TIP3    H234388   2.738   6.003   2.989 -0.8816  0.7379 -0.1775
11483TIP3   OH234389   4.331   3.530   3.860  0.0220  0.1196 -0.0202
11483TIP3    H134390   4.327   3.527   3.765 -1.3611 -0.5548  0.0292
11483TIP3    H234391   4.331   3.437   3.886 -0.0303  0.3024  0.6408
11484TIP3   OH234392   1.310   5.088   5.268 -0.2672 -0.1395  0.3278
11484TIP3    H134393   1.350   5.007   5.235  1.3026  0.8845 -0.3989
11484TIP3    H234394   1.377   5.126   5.326 -0.2667  1.4772 -0.6780
11485TIP3   OH234395   7.478   7.147   0.961  0.3083  0.2193 -0.0490
11485TIP3    H134396   7.533   7.181   0.890  1.8501 -1.2937  0.3568
11485TIP3    H234397   7.459   7.057   0.934 -0.9188  0.3188  0.4503
11486TIP3   OH234398   0.797   0.563   0.199  0.0619 -0.4157  0.3951
11486TIP3    H134399   0.714   0.590   0.160  0.1243 -1.4631 -0.5067
11486TIP3    H234400   0.860   0.628   0.169 -0.3726  0.2545  0.9000
11487TIP3   OH234401   0.810   3.313   2.539  0.0784 -0.0149 -0.2889
11487TIP3    H134402   0.867   3.293   2.465 -0.5247  0.2435 -0.8309
11487TIP3    H234403   0.755   3.235   2.549  0.2832 -0.1234  0.0074
11488TIP3   OH234404   5.092   1.665   4.142  0.5255 -0.0911 -0.2471
11488TIP3    H134405   5.007   1.679   4.183  0.6873 -0.1657  0.1262
11488TIP3    H234406   5.089   1.575   4.109  0.5889 -0.2240  0.0979
11489TIP3   OH234407   6.925   3.275   5.101  0.2256 -0.0165  0.2401
11489TIP3    H134408   6.964   3.361   5.087 -0.0947  0.1067  0.0928
11489TIP3    H234409   6.980   3.235   5.169 -0.0378  0.5817  0.8261
11490TIP3   OH234410   2.252   7.193   3.479  0.5347  0.1899 -0.1167
11490TIP3    H134411   2.331   7.165   3.433 -1.4182 -1.8640 -2.5577
11490TIP3    H234412   2.200   7.238   3.412 -0.8583  0.4586  1.0963
11491TIP3   OH234413   5.025   3.972   0.773 -0.2870  0.4038 -0.0325
11491TIP3    H134414   5.086   4.018   0.716 -1.0614  0.4338 -0.8495
11491TIP3    H234415   5.080   3.915   0.827  0.4649  0.5462 -0.6477
11492TIP3   OH234416   1.726   7.424   1.356 -0.2584  0.4711  1.1034
11492TIP3    H134417   1.805   7.382   1.322 -1.4869 -1.1148  0.1185
11492TIP3    H234418   1.680   7.355   1.403 -0.9883  1.4195  1.8209
11493TIP3   OH234419   5.178   5.950   6.435 -0.4881  0.1695  0.1405
11493TIP3    H134420   5.116   6.018   6.410  1.1682  1.2534 -1.3071
11493TIP3    H234421   5.264   5.986   6.412  0.6269 -1.6267  1.1858
11494TIP3   OH234422   2.996   0.957   5.997 -0.2708 -0.1026 -0.0581
11494TIP3    H134423   2.939   0.958   5.920  0.1101  0.1558 -0.3367
11494TIP3    H234424   2.939   0.987   6.068 -1.1928 -2.2228  0.1804
11495TIP3   OH234425   2.260   3.948   3.033 -0.1178 -0.7526  0.3937
11495TIP3    H134426   2.277   4.039   3.055 -0.7300 -0.4788 -0.2261
11495TIP3    H234427   2.249   3.905   3.118  2.5228 -0.7697  0.8066
11496TIP3   OH234428   1.351   0.036   1.179  0.4250  0.3287  0.5569
11496TIP3    H134429   1.378   0.017   1.269  1.1640 -0.5646  0.1644
11496TIP3    H234430   1.257   0.015   1.178  0.1034  1.6315  1.4468
11497TIP3   OH234431   5.810   0.370   6.694  0.1273 -0.2798 -0.0001
11497TIP3    H134432   5.800   0.457   6.655  0.8269 -0.9334 -1.7695
11497TIP3    H234433   5.720   0.336   6.700 -0.0390  0.0145 -0.6894
11498TIP3   OH234434   2.469   1.544   4.818 -0.9958 -0.5302  0.9953
11498TIP3    H134435   2.395   1.545   4.758 -0.4084 -0.5788  0.2501
11498TIP3    H234436   2.437   1.497   4.895 -1.4962 -1.2791  0.3511
11499TIP3   OH234437   5.116   3.703   0.085 -0.3131  0.3378  0.5395
11499TIP3    H134438   5.089   3.748   0.005 -1.2494  2.0867  1.7591
11499TIP3    H234439   5.045   3.641   0.103 -1.4052  1.7330  1.3074
11500TIP3   OH234440   4.507   2.568   0.417  1.0546 -0.1249 -0.0139
11500TIP3    H134441   4.561   2.493   0.393  1.6240  0.3085 -0.1068
11500TIP3    H234442   4.515   2.628   0.344  0.9747  0.2251  0.2616
11501TIP3   OH234443   1.794   5.194   2.154 -0.6057  0.3754  0.1433
11501TIP3    H134444   1.741   5.224   2.080 -1.2334 -1.8342 -0.3666
11501TIP3    H234445   1.732   5.148   2.210  0.2859  0.1375  0.9556
11502TIP3   OH234446   2.561   3.558   1.561 -0.2165 -0.0372  0.0584
11502TIP3    H134447   2.640   3.604   1.533  0.2330 -0.0842  1.1812
11502TIP3    H234448   2.569   3.553   1.656 -0.4930 -2.0085  0.0091
11503TIP3   OH234449   3.846   6.078   2.521 -0.1229 -0.0268 -0.6132
11503TIP3    H134450   3.819   5.987   2.521  1.4352 -0.5367  1.1264
11503TIP3    H234451   3.791   6.121   2.586  1.2884 -0.4747  0.9351
11504TIP3   OH234452   3.195   0.217   4.923 -0.3623 -0.1108  0.1712
11504TIP3    H134453   3.235   0.293   4.880 -0.4614  0.2767  0.7496
11504TIP3    H234454   3.127   0.188   4.861 -1.2272  1.0914  0.5115
11505TIP3   OH234455   7.519   7.643   3.327 -0.6305  0.0145 -0.1305
11505TIP3    H134456   7.554   7.694   3.401 -0.2819  1.2868 -1.1377
11505TIP3    H234457   7.573   7.668   3.253 -1.4664 -0.6597 -0.9864
11506TIP3   OH234458   7.086   1.835   6.492  0.3725 -0.3715 -0.2149
11506TIP3    H134459   7.103   1.810   6.583  0.6642 -1.5251 -0.5645
11506TIP3    H234460   7.118   1.761   6.441 -1.8462 -0.7562 -1.1572
11507TIP3   OH234461   5.733   5.510   0.423  0.2904  0.1618  0.4293
11507TIP3    H134462   5.717   5.592   0.469  0.4457 -0.4998  1.7184
11507TIP3    H234463   5.825   5.490   0.439  0.5832  0.3142 -0.8895
11508TIP3   OH234464   1.765   0.933   4.055  0.0571  0.2596  0.6004
11508TIP3    H134465   1.684   0.963   4.013 -1.1070 -2.4136  0.7131
11508TIP3    H234466   1.823   0.912   3.983  0.5849  1.8708  0.5142
11509TIP3   OH234467   2.183   4.931   5.916 -0.2498  0.3097 -0.3963
11509TIP3    H134468   2.205   4.936   5.822 -0.5451 -1.5976 -0.5951
11509TIP3    H234469   2.139   4.847   5.926  0.4566  0.1339  1.6113
11510TIP3   OH234470   7.947   4.794   4.045  0.0781  0.5684 -0.4850
11510TIP3    H134471   7.923   4.775   3.954 -1.6522  0.9758 -0.1409
11510TIP3    H234472   7.904   4.726   4.096  1.0380  0.3475  0.0622
11511TIP3   OH234473   0.213   5.645   1.349 -0.7554 -0.2764 -0.1862
11511TIP3    H134474   0.271   5.585   1.396  0.1583  1.0778  0.4701
11511TIP3    H234475   0.272   5.698   1.296 -1.6439 -0.6372 -1.5694
11512TIP3   OH234476   1.419   2.235   1.773  0.0332 -0.7185  0.4616
11512TIP3    H134477   1.361   2.212   1.845 -0.7683  0.1035  0.0873
11512TIP3    H234478   1.472   2.156   1.759 -0.5240 -1.2426  1.2477
11513TIP3   OH234479   6.600   0.640   5.531 -0.0450 -0.5238 -0.0154
11513TIP3    H134480   6.513   0.664   5.563 -0.9433 -1.6822 -1.4006
11513TIP3    H234481   6.641   0.595   5.604 -0.4976  0.3037  0.7604
11514TIP3   OH234482   5.711   4.769   0.188 -0.1749 -0.1781  0.3241
11514TIP3    H134483   5.776   4.820   0.139  1.0024 -0.9327  1.0608
11514TIP3    H234484   5.711   4.684   0.144  0.4387 -0.6584  1.2302
11515TIP3   OH234485   1.787   4.134   4.956  0.1352  0.2610 -0.1903
11515TIP3    H134486   1.725   4.068   4.985 -1.0429  0.9154 -1.1303
11515TIP3    H234487   1.849   4.086   4.901 -0.6819 -0.0918 -0.8275
11516TIP3   OH234488   3.718   0.609   0.766 -0.3040 -0.2634  0.3413
11516TIP3    H134489   3.803   0.565   0.777 -0.0738  0.4882  1.7346
11516TIP3    H234490   3.741   0.697   0.737 -0.7187 -0.6592 -1.2915
11517TIP3   OH234491   5.488   6.623   2.307 -0.0843 -0.3633 -0.3055
11517TIP3    H134492   5.429   6.574   2.364 -1.4464  0.5977 -0.8541
11517TIP3    H234493   5.462   6.714   2.317  0.6278 -0.0257 -1.3479
11518TIP3   OH234494   7.051   4.163   3.578  0.0708 -0.4239 -0.2117
11518TIP3    H134495   7.048   4.077   3.535 -3.5485 -1.0083  0.8528
11518TIP3    H234496   7.007   4.222   3.517  2.0851  0.6718 -0.7062
11519TIP3   OH234497   3.766   3.502   5.969 -0.0169 -0.0252 -0.2208
11519TIP3    H134498   3.811   3.531   5.889 -1.1758 -1.1481 -1.3325
11519TIP3    H234499   3.700   3.569   5.985 -0.0421  0.0043 -0.4391
11520TIP3   OH234500   4.188   2.993   5.571  0.2330  0.3268 -0.3450
11520TIP3    H134501   4.243   3.011   5.648  0.3006  0.9760 -0.5400
11520TIP3    H234502   4.116   2.940   5.605  0.9514 -0.5068 -0.0753
11521TIP3   OH234503   6.823   5.153   3.916 -0.3851  0.0215 -0.6748
11521TIP3    H134504   6.842   5.216   3.846 -0.6743  1.6707  0.6565
11521TIP3    H234505   6.760   5.198   3.972  3.2808  0.9042  3.3416
11522TIP3   OH234506   6.813   4.275   0.527  0.1321  0.1908 -0.1007
11522TIP3    H134507   6.879   4.243   0.588  0.5293  0.0960 -0.5740
11522TIP3    H234508   6.735   4.288   0.581  0.0539 -1.2459  0.1733
11523TIP3   OH234509   8.192   1.459   0.992  0.2296  0.5937 -0.1479
11523TIP3    H134510   8.142   1.378   0.980  0.7162  0.2580  0.0781
11523TIP3    H234511   8.264   1.435   1.050  0.7842  1.0205 -0.6458
11524TIP3   OH234512   3.902   3.869   4.376  0.1794 -0.5951  0.3101
11524TIP3    H134513   3.821   3.906   4.342  0.5255  0.9026  1.0019
11524TIP3    H234514   3.970   3.928   4.343  0.9614 -1.6339  0.0211
11525TIP3   OH234515   4.400   0.501   4.323 -0.0131 -0.3296  0.0349
11525TIP3    H134516   4.432   0.482   4.235 -0.1834 -0.3751 -0.0187
11525TIP3    H234517   4.344   0.578   4.312  0.9577  0.4274  0.3107
11526TIP3   OH234518   4.352   3.745   4.030 -0.9543 -0.3246 -0.7087
11526TIP3    H134519   4.435   3.739   4.077 -0.9307  0.2291 -0.6746
11526TIP3    H234520   4.340   3.658   3.992 -1.8187 -1.3310  1.7212
11527TIP3   OH234521   5.220   7.728   1.167 -0.3550  0.2760 -0.1718
11527TIP3    H134522   5.262   7.811   1.142  0.4685 -0.6590 -2.0208
11527TIP3    H234523   5.250   7.714   1.257  0.6578  1.2908 -0.3117
11528TIP3   OH234524   5.388   0.259   5.463 -0.6051 -0.1049  0.0687
11528TIP3    H134525   5.351   0.290   5.546  1.0634  0.9047  0.4870
11528TIP3    H234526   5.417   0.339   5.418  1.0865 -0.8150 -0.1897
11529TIP3   OH234527   6.555   1.019   4.796 -0.0258 -0.1810  0.0509
11529TIP3    H134528   6.532   1.112   4.793 -0.4023 -0.2631  0.2990
11529TIP3    H234529   6.590   1.005   4.884  0.5543 -0.1581 -0.1707
11530TIP3   OH234530   3.390   1.227   3.832 -0.4878 -0.0992  0.9616
11530TIP3    H134531   3.395   1.227   3.736  1.1556 -1.2513  0.9953
11530TIP3    H234532   3.395   1.319   3.857  1.6107  0.0881 -0.0023
11531TIP3   OH234533   7.928   0.049   6.413 -0.4106  0.0030 -0.4894
11531TIP3    H134534   7.851   0.043   6.469  0.0666  0.6774  0.2702
11531TIP3    H234535   7.985  -0.022   6.442  0.3382  1.0493  0.7151
11532TIP3   OH234536   1.291   6.545   3.235 -0.3172 -0.3550  0.4285
11532TIP3    H134537   1.315   6.632   3.202  0.4022 -0.7045  0.0107
11532TIP3    H234538   1.201   6.531   3.204 -0.2596  0.0336  0.0805
11533TIP3   OH234539   7.709   6.625   0.559  0.1683  0.2675  0.5917
11533TIP3    H134540   7.626   6.615   0.607  0.4108  1.6925  1.3537
11533TIP3    H234541   7.685   6.669   0.478  0.0738 -0.0635  0.4379
11534TIP3   OH234542   5.348   0.086   5.186 -0.3022 -0.8974  0.1337
11534TIP3    H134543   5.374   0.097   5.277 -1.6287  2.1671  0.2633
11534TIP3    H234544   5.430   0.091   5.137  0.2515 -0.9131  1.0386
11535TIP3   OH234545   5.012   5.007   1.906 -0.1198 -0.3601  0.5269
11535TIP3    H134546   4.997   4.930   1.961  1.7891 -1.0187  0.1896
11535TIP3    H234547   4.958   5.075   1.945 -0.7610 -1.4977  1.6829
11536TIP3   OH234548   5.918   5.204   4.572 -0.5130  0.2159  0.5121
11536TIP3    H134549   5.980   5.177   4.640 -1.0552  0.8084  1.2491
11536TIP3    H234550   5.833   5.204   4.615 -0.7018  1.8460  0.1876
11537TIP3   OH234551   6.573   4.839   3.004 -0.4698 -0.4115 -0.0459
11537TIP3    H134552   6.648   4.898   2.997  0.9297 -1.9474  1.2703
11537TIP3    H234553   6.523   4.873   3.078 -0.6371  0.1118 -0.3870
11538TIP3   OH234554   3.662   1.365   3.763  0.2153  0.2639 -0.4903
11538TIP3    H134555   3.618   1.447   3.741  1.1201  0.6321 -0.9754
11538TIP3    H234556   3.627   1.302   3.700 -0.4392  0.2855 -0.1555
11539TIP3   OH234557   0.435   2.737   6.669  0.2159 -0.5998 -0.0780
11539TIP3    H134558   0.527   2.754   6.649  1.4319 -3.8942  1.9245
11539TIP3    H234559   0.397   2.713   6.585  0.8078  1.8809 -1.1429
11540TIP3   OH234560   0.096   5.410   1.495  0.2754  0.2839 -0.3319
11540TIP3    H134561   0.056   5.323   1.500  0.0712  0.3477 -0.7690
11540TIP3    H234562   0.033   5.462   1.445 -0.2354  1.0407  1.0410
11541TIP3   OH234563   5.331   6.205   3.129 -0.0978  0.0211 -0.3529
11541TIP3    H134564   5.288   6.268   3.187 -0.4585 -3.9725  4.3491
11541TIP3    H234565   5.260   6.171   3.073 -0.9530  0.3272  0.5274
11542TIP3   OH234566   0.298   3.266   6.432 -0.2274 -0.1099 -0.4034
11542TIP3    H134567   0.360   3.194   6.422  0.1951  0.1761  0.1076
11542TIP3    H234568   0.236   3.255   6.360  0.6634 -0.1443 -1.1725
11543TIP3   OH234569   3.033   4.284   6.297  0.5683 -0.2084 -0.1854
11543TIP3    H134570   2.962   4.319   6.351  0.5001 -0.2930 -0.2188
11543TIP3    H234571   3.003   4.296   6.207  0.8191  0.2142 -0.2116
11544TIP3   OH234572   0.793   1.057   4.057  0.5519 -0.2151 -0.8558
11544TIP3    H134573   0.878   1.101   4.063  0.7306 -0.7516  1.5942
11544TIP3    H234574   0.731   1.128   4.043  1.0101  0.7836  1.5146
11545TIP3   OH234575   8.166   1.135   5.794 -0.2056  0.0789  0.3095
11545TIP3    H134576   8.100   1.106   5.857  1.2203  0.1848  1.9251
11545TIP3    H234577   8.205   1.054   5.762 -1.2633  0.0021 -0.8755
11546TIP3   OH234578   2.631   2.044   0.822  0.1669 -0.4049  0.4238
11546TIP3    H134579   2.664   2.020   0.736  0.2686 -0.5939  0.5157
11546TIP3    H234580   2.551   2.094   0.804  1.9785  2.6578  0.0418
11547TIP3   OH234581   4.625   1.622   0.239 -0.2751 -0.3657 -0.3370
11547TIP3    H134582   4.684   1.558   0.200 -0.8269 -1.1689  0.1263
11547TIP3    H234583   4.539   1.580   0.238 -0.4541 -0.0565  0.9456
11548TIP3   OH234584   0.807   0.108   1.075 -0.1227 -0.0279 -0.3886
11548TIP3    H134585   0.726   0.061   1.097 -1.0834  1.6361 -0.1969
11548TIP3    H234586   0.806   0.112   0.979 -0.4268  0.2144 -0.3800
11549TIP3   OH234587   5.435   0.850   0.370  0.1432 -0.1005  0.2967
11549TIP3    H134588   5.447   0.792   0.445 -0.6775 -0.9371 -0.1878
11549TIP3    H234589   5.411   0.934   0.409 -1.5091 -0.8327  0.9821
11550TIP3   OH234590   0.121   2.633   1.826  0.0317  0.3625  0.7505
11550TIP3    H134591   0.198   2.624   1.770  0.4886 -1.0558  1.5602
11550TIP3    H234592   0.074   2.550   1.817 -1.4918  1.2295  0.1951
11551TIP3   OH234593   0.318   1.481   2.532 -0.3329 -0.2782  0.0843
11551TIP3    H134594   0.241   1.538   2.522  0.1492  0.4175  0.2988
11551TIP3    H234595   0.283   1.401   2.571 -1.3643 -0.9326 -2.0334
11552TIP3   OH234596   7.956   2.141   6.625 -0.2167 -0.1522  0.3441
11552TIP3    H134597   7.989   2.060   6.586 -0.1976  0.4266 -0.9014
11552TIP3    H234598   8.027   2.172   6.681  0.0880 -0.5897  0.2037
11553TIP3   OH234599   4.493   6.239   1.208  0.0944  0.1563 -0.2545
11553TIP3    H134600   4.468   6.204   1.294  1.7817  0.7475  0.5249
11553TIP3    H234601   4.534   6.164   1.163  0.8046  0.2912  0.1578
11554TIP3   OH234602   1.004   6.899   4.695 -0.1417  0.0393 -0.6032
11554TIP3    H134603   1.012   6.811   4.732 -1.2166 -0.8900 -2.4422
11554TIP3    H234604   0.923   6.933   4.733  0.5844  0.5274  0.5835
11555TIP3   OH234605   0.670   3.341   4.409  0.2645 -0.0206 -0.4681
11555TIP3    H134606   0.624   3.351   4.492  0.2114 -1.7735 -0.2583
11555TIP3    H234607   0.708   3.427   4.392  1.0304  0.1394  1.8043
11556TIP3   OH234608   7.738   5.783   0.155 -0.0467  0.5709  0.2251
11556TIP3    H134609   7.786   5.717   0.104  0.9099  0.7828  0.8404
11556TIP3    H234610   7.703   5.842   0.089 -3.0109 -1.8136 -0.5822
11557TIP3   OH234611   6.152   5.547   2.063  0.2798  0.4555  0.0489
11557TIP3    H134612   6.112   5.462   2.047 -0.1320  0.7006 -0.2315
11557TIP3    H234613   6.109   5.579   2.143 -0.7279  1.1074 -0.7419
11558TIP3   OH234614   8.250   2.466   3.913  0.0061  0.1358  0.0740
11558TIP3    H134615   8.292   2.434   3.833 -2.6663 -3.0552 -0.3117
11558TIP3    H234616   8.260   2.394   3.975 -1.5160  0.8168  1.1814
11559TIP3   OH234617   8.422   2.378   1.782 -0.0132 -0.2128 -0.2183
11559TIP3    H134618   8.375   2.332   1.851 -1.6812 -0.2060 -1.3007
11559TIP3    H234619   8.366   2.371   1.705  1.7597 -0.1822 -1.5947
11560TIP3   OH234620   3.236   7.584   6.620  0.1792  0.5321  0.0741
11560TIP3    H134621   3.171   7.535   6.671  1.4983 -0.3099  1.0103
11560TIP3    H234622   3.294   7.623   6.685  0.2652  1.7951 -0.7249
11561TIP3   OH234623   8.413   0.563   6.441  0.6398  0.2481 -0.3877
11561TIP3    H134624   8.437   0.503   6.371  2.8480  0.8083 -0.1848
11561TIP3    H234625   8.317   0.564   6.439  0.5907 -1.1742 -2.1489
11562TIP3   OH234626   4.301   7.152   0.805  0.0435  0.4261 -0.3347
11562TIP3    H134627   4.298   7.211   0.730 -0.5889  1.5322  0.5318
11562TIP3    H234628   4.343   7.072   0.771  0.5430  1.2094 -1.6275
11563TIP3   OH234629   6.835   6.078   3.326  0.3601 -0.0000 -0.1188
11563TIP3    H134630   6.880   6.019   3.387 -0.3388 -0.8852 -0.4299
11563TIP3    H234631   6.861   6.166   3.354  0.5535 -0.4120  1.0535
11564TIP3   OH234632   6.640   4.767   3.802 -0.1435 -0.6249  0.4172
11564TIP3    H134633   6.672   4.717   3.877  0.4219 -0.3788  0.3445
11564TIP3    H234634   6.657   4.859   3.826  1.6859 -0.6081 -0.7459
11565TIP3   OH234635   6.275   2.462   0.128  0.4670 -0.0930  0.0838
11565TIP3    H134636   6.214   2.532   0.153  1.4791  1.5178 -1.6945
11565TIP3    H234637   6.243   2.432   0.043  2.6564  1.5288 -1.4019
11566TIP3   OH234638   0.083   5.283   0.352 -0.7404  0.4983 -0.5807
11566TIP3    H134639   0.040   5.217   0.298  0.2390  1.1136 -2.1610
11566TIP3    H234640   0.172   5.289   0.318 -0.4276  1.7358  0.3603
11567TIP3   OH234641   8.123   7.648   4.337  0.0178 -0.1438 -0.1223
11567TIP3    H134642   8.197   7.707   4.346 -0.6731  0.6312  0.6956
11567TIP3    H234643   8.046   7.705   4.346 -0.6804 -0.9242 -0.9158
11568TIP3   OH234644   8.196   3.065   1.870 -0.0241  0.6876 -0.0024
11568TIP3    H134645   8.251   3.106   1.803  0.8651  0.2847  0.4486
11568TIP3    H234646   8.203   2.971   1.852  2.3768  0.3305  2.1412
11569TIP3   OH234647   7.913   5.777   1.026 -0.1788  0.0245  0.2377
11569TIP3    H134648   7.982   5.724   1.066 -0.4465  0.1331  0.8542
11569TIP3    H234649   7.959   5.829   0.961  0.5167  0.8515  1.3404
11570TIP3   OH234650   0.270   3.700   0.608  0.3411 -0.2007 -0.8284
11570TIP3    H134651   0.313   3.786   0.612 -0.3598  0.1507 -0.6296
11570TIP3    H234652   0.190   3.712   0.658  0.9800 -1.4235  0.5698
11571TIP3   OH234653   6.786   1.154   5.749 -0.0106  0.6502 -0.8735
11571TIP3    H134654   6.862   1.131   5.696 -0.2511 -0.1781 -0.8618
11571TIP3    H234655   6.711   1.142   5.691 -0.3227 -0.8239 -0.1887
11572TIP3   OH234656   5.005   0.694   1.541 -0.0632  0.2652  1.1688
11572TIP3    H134657   4.996   0.600   1.525 -1.9961  0.2298  2.1418
11572TIP3    H234658   5.000   0.733   1.454  0.7217 -0.5134  0.7551
11573TIP3   OH234659   4.956   0.599   2.089 -0.3234 -0.1943  0.0153
11573TIP3    H134660   4.864   0.585   2.114 -0.3168 -0.2972 -0.0153
11573TIP3    H234661   4.963   0.693   2.074 -0.2109 -0.0600  0.8698
11574TIP3   OH234662   3.793   0.369   5.375  0.7912 -0.4717 -0.1590
11574TIP3    H134663   3.778   0.426   5.300 -0.2659 -0.6741 -0.1049
11574TIP3    H234664   3.887   0.379   5.394  0.9166  0.1217 -1.0537
11575TIP3   OH234665   0.371   3.381   6.711 -0.1465 -0.1396  0.2512
11575TIP3    H134666   0.332   3.348   6.630  0.6291 -0.6141  0.0622
11575TIP3    H234667   0.450   3.328   6.723  0.4317  0.7880  0.6359
11576TIP3   OH234668   6.038   2.673   2.304  0.0220 -0.4727  0.0805
11576TIP3    H134669   6.106   2.733   2.272  0.5833 -0.6068  0.9749
11576TIP3    H234670   6.083   2.589   2.311 -0.5744 -0.8435 -0.4866
11577TIP3   OH234671   7.842   1.818   6.071  0.1011  0.1087 -0.0233
11577TIP3    H134672   7.823   1.725   6.077  1.1888 -0.0817  0.9358
11577TIP3    H234673   7.799   1.856   6.147 -2.0498  0.7527 -1.4676
11578TIP3   OH234674   6.186   0.762   0.378  0.1594 -0.0434 -0.2185
11578TIP3    H134675   6.161   0.826   0.312 -0.9154 -0.6302 -0.4166
11578TIP3    H234676   6.167   0.677   0.337 -0.2341 -0.4275  0.7148
11579TIP3   OH234677   2.911   3.932   3.617 -0.9048 -0.1461 -0.2579
11579TIP3    H134678   2.850   3.978   3.675 -1.4384 -0.8161 -0.2705
11579TIP3    H234679   2.926   3.993   3.544 -0.5698  0.5236  0.3613
11580TIP3   OH234680   5.752   6.654   5.784 -0.2329  0.4042 -0.0776
11580TIP3    H134681   5.658   6.640   5.774 -0.3179  0.3018  0.8022
11580TIP3    H234682   5.788   6.637   5.697 -1.1330  1.3791 -0.6653
11581TIP3   OH234683   2.947   5.830   4.268 -0.0172 -0.1112  0.7426
11581TIP3    H134684   2.950   5.798   4.359 -1.3077 -0.4035  0.7012
11581TIP3    H234685   2.867   5.882   4.264  0.1182  0.0285 -0.1985
11582TIP3   OH234686   0.152   2.489   3.852 -0.3281  0.4766  0.3437
11582TIP3    H134687   0.218   2.425   3.826 -1.2332 -0.7525  0.9554
11582TIP3    H234688   0.085   2.485   3.784 -0.7189  0.2605  0.7351
11583TIP3   OH234689   1.686   7.368   4.740  0.2640 -0.1391  0.6040
11583TIP3    H134690   1.644   7.379   4.826 -1.3186  0.2168 -0.1868
11583TIP3    H234691   1.706   7.458   4.713 -1.0130 -0.0796 -0.2269
11584TIP3   OH234692   0.887   4.794   1.311 -0.2067  0.0313 -0.2062
11584TIP3    H134693   0.818   4.739   1.276 -1.2934  0.1886  1.5391
11584TIP3    H234694   0.948   4.806   1.239 -1.0519 -1.6442 -1.2558
11585TIP3   OH234695   6.319   2.630   3.179  0.1598  0.1282  0.2092
11585TIP3    H134696   6.380   2.645   3.251 -1.2728 -0.3338  1.5600
11585TIP3    H234697   6.272   2.712   3.170  1.0472  0.5373 -0.9432
11586TIP3   OH234698   1.829   4.115   1.495  0.1356  0.2836 -0.3762
11586TIP3    H134699   1.817   4.207   1.518  0.9856  0.5089 -0.7785
11586TIP3    H234700   1.923   4.101   1.505  0.3319  0.0068 -2.2619
11587TIP3   OH234701   3.518   5.113   1.474 -0.2605 -0.1543  0.1734
11587TIP3    H134702   3.535   5.106   1.568 -0.6097  0.0050  0.2493
11587TIP3    H234703   3.514   5.207   1.458 -1.1114 -0.1839  0.1656
11588TIP3   OH234704   7.984   5.608   1.473  0.4032  0.0349 -0.1844
11588TIP3    H134705   7.948   5.574   1.391 -3.2268  0.0477  1.2028
11588TIP3    H234706   7.998   5.530   1.527 -0.8193  0.2232  0.4321
11589TIP3   OH234707   6.164   0.842   4.395  0.0828 -0.2332  0.2346
11589TIP3    H134708   6.149   0.935   4.412  0.0843 -0.2991  0.5961
11589TIP3    H234709   6.143   0.831   4.302  2.0560  0.5279 -0.3388
11590TIP3   OH234710   1.876   5.643   1.670  0.1515  0.1355 -0.1652
11590TIP3    H134711   1.932   5.567   1.654 -1.4955 -0.9672 -1.0399
11590TIP3    H234712   1.873   5.689   1.586 -1.1511 -0.4978 -0.5022
11591TIP3   OH234713   0.311   0.904   0.433 -0.4226  0.8249 -0.4887
11591TIP3    H134714   0.228   0.857   0.441  1.1230 -1.8403  2.0129
11591TIP3    H234715   0.373   0.838   0.402  1.2550  2.0036  0.1824
11592TIP3   OH234716   5.715   6.442   2.665 -0.2557 -0.1363 -0.4027
11592TIP3    H134717   5.803   6.457   2.702 -0.5079  2.5155 -0.6823
11592TIP3    H234718   5.731   6.422   2.573  0.1170 -1.9615  0.0119
11593TIP3   OH234719   0.392   7.909   3.606 -0.0402  0.4040  0.0444
11593TIP3    H134720   0.432   7.895   3.520 -0.4870 -0.3996 -0.0466
11593TIP3    H234721   0.466   7.911   3.667  0.2871  1.0859 -0.3651
11594TIP3   OH234722   3.322   3.537   6.437 -0.2848 -0.6267  0.5205
11594TIP3    H134723   3.247   3.590   6.411 -0.1967  0.3610  2.1284
11594TIP3    H234724   3.283   3.458   6.475 -0.5805  0.1093  1.8253
11595TIP3   OH234725   4.666   3.869   5.201  1.0639  0.0984 -0.0154
11595TIP3    H134726   4.602   3.865   5.272  0.8863 -0.9231 -0.2188
11595TIP3    H234727   4.698   3.959   5.203 -0.9763  0.8855 -0.4327
11596TIP3   OH234728   5.577   4.296   5.433 -0.2181 -0.4854  0.4817
11596TIP3    H134729   5.486   4.281   5.408  0.6138 -1.6895 -2.1736
11596TIP3    H234730   5.621   4.213   5.414  1.4439  0.0403  1.8130
11597TIP3   OH234731   8.235   1.831   3.182 -0.4996  0.5308  0.7741
11597TIP3    H134732   8.228   1.763   3.116 -0.7321  3.2499 -2.2500
11597TIP3    H234733   8.329   1.851   3.187 -0.6938  2.0341 -0.7410
11598TIP3   OH234734   7.691   2.797   4.172 -0.3870  0.4793 -0.0060
11598TIP3    H134735   7.654   2.812   4.085 -1.2064 -0.5532  0.1351
11598TIP3    H234736   7.639   2.725   4.207  0.4105  0.4008  1.0547
11599TIP3   OH234737   6.630   1.786   1.826 -0.1326 -0.3273 -0.4365
11599TIP3    H134738   6.542   1.751   1.816 -1.6416  2.7255  0.7866
11599TIP3    H234739   6.623   1.877   1.795  2.0956  0.5738  1.4186
11600TIP3   OH234740   7.900   2.686   2.996  0.3807 -0.7776  0.5649
11600TIP3    H134741   7.822   2.706   3.048  0.4442 -1.2292  0.8318
11600TIP3    H234742   7.969   2.739   3.036 -0.0658  0.7029 -0.5192
11601TIP3   OH234743   2.113   4.061   5.127  0.0915 -0.2106 -0.1499
11601TIP3    H134744   2.170   4.013   5.067 -0.2230 -0.7810 -0.0010
11601TIP3    H234745   2.025   4.047   5.093  0.0634  1.1050 -0.6837
11602TIP3   OH234746   4.859   2.278   1.846  0.1995 -0.3863  0.2419
11602TIP3    H134747   4.777   2.239   1.818  0.2599 -0.4274  0.1211
11602TIP3    H234748   4.833   2.360   1.888  0.1548  0.0582 -0.6164
11603TIP3   OH234749   2.236   5.107   6.558 -0.0757 -0.0755  0.4986
11603TIP3    H134750   2.166   5.058   6.600 -0.3938  1.7137  2.1746
11603TIP3    H234751   2.291   5.137   6.630  1.6142 -0.2149 -0.6807
11604TIP3   OH234752   5.788   5.522   2.010  0.5353  0.2331 -0.9739
11604TIP3    H134753   5.737   5.452   2.050 -0.0867  0.0027 -2.1204
11604TIP3    H234754   5.819   5.574   2.084 -1.8477  0.7055 -0.2037
11605TIP3   OH234755   4.602   4.396   1.038 -0.3753  0.5494 -0.3901
11605TIP3    H134756   4.647   4.388   0.954  0.2989  1.9405 -0.2095
11605TIP3    H234757   4.667   4.438   1.095 -0.4071 -1.3616  1.1773
11606TIP3   OH234758   1.895   1.452   5.255  0.3898  0.1933 -0.2055
11606TIP3    H134759   1.813   1.431   5.300  0.7644  1.4836  1.1462
11606TIP3    H234760   1.925   1.368   5.219 -1.0936 -0.4456 -0.0046
11607TIP3   OH234761   5.084   6.104   4.268  0.6452  0.2459  0.4221
11607TIP3    H134762   5.033   6.125   4.346  0.4140 -1.6343  0.8398
11607TIP3    H234763   5.022   6.060   4.209  1.2711 -0.1637  0.0469
11608TIP3   OH234764   5.831   6.829   6.258 -0.5354  0.0179 -0.0220
11608TIP3    H134765   5.920   6.863   6.265 -1.4846  2.8625 -0.4427
11608TIP3    H234766   5.836   6.761   6.191  1.1479  0.7341 -0.6758
11609TIP3   OH234767   2.481   2.471   0.641  0.6987  1.0366 -0.6393
11609TIP3    H134768   2.499   2.417   0.718 -1.4256 -0.1904 -0.9223
11609TIP3    H234769   2.450   2.554   0.677 -1.4699  0.0548 -0.0665
11610TIP3   OH234770   2.319   6.906   0.774 -0.2808 -0.5102  0.2022
11610TIP3    H134771   2.389   6.938   0.831  0.5196 -0.3558 -0.8334
11610TIP3    H234772   2.276   6.986   0.744  0.9800 -0.3951 -1.4611
11611TIP3   OH234773   2.021   1.069   0.490 -0.7336 -0.1847  0.4050
11611TIP3    H134774   1.954   1.028   0.435 -2.5490 -0.0722  2.4069
11611TIP3    H234775   2.068   0.995   0.530 -2.9139 -0.4346  2.7205
11612TIP3   OH234776   4.628   7.744   0.510 -0.1908 -0.0496 -0.2306
11612TIP3    H134777   4.695   7.806   0.540  2.0201 -2.1121 -0.6155
11612TIP3    H234778   4.583   7.791   0.439  1.3484  1.1471 -0.4773
11613TIP3   OH234779   2.574   1.376   4.632  0.1112 -0.3921  0.1128
11613TIP3    H134780   2.540   1.449   4.683 -2.5717 -2.4796  1.5922
11613TIP3    H234781   2.643   1.339   4.686  2.8106  1.9745 -1.4682
11614TIP3   OH234782   4.430   1.305   4.345  0.1617  0.1866  0.0372
11614TIP3    H134783   4.373   1.228   4.347 -0.4324  0.6347  0.8722
11614TIP3    H234784   4.398   1.357   4.271 -0.7219  0.5811  0.6858
11615TIP3   OH234785   8.307   0.511   0.438  0.2536 -0.4519  0.0532
11615TIP3    H134786   8.290   0.515   0.532 -1.4883  0.0383 -0.2305
11615TIP3    H234787   8.382   0.454   0.429  2.2739  1.6840  1.9361
11616TIP3   OH234788   1.090   2.349   0.329  0.1257 -0.2002  0.0015
11616TIP3    H134789   1.119   2.282   0.391 -1.2886 -0.9415 -0.0964
11616TIP3    H234790   1.107   2.432   0.373  0.8044 -0.6525  0.6177
11617TIP3   OH234791   7.041   3.017   6.200 -0.3136  0.2275 -0.7030
11617TIP3    H134792   7.091   3.026   6.281 -0.6321 -0.9646 -0.3608
11617TIP3    H234793   6.959   3.062   6.217 -0.3618  0.0172 -0.3716
11618TIP3   OH234794   2.228   5.627   0.909 -0.4099 -0.0898 -0.4636
11618TIP3    H134795   2.165   5.574   0.860 -0.6271  1.7485 -2.3062
11618TIP3    H234796   2.288   5.660   0.841  1.0726  0.1993  0.9265
11619TIP3   OH234797   4.738   2.493   4.301 -0.1585 -0.3270  0.2408
11619TIP3    H134798   4.665   2.431   4.293 -0.9293  0.5700  0.1470
11619TIP3    H234799   4.765   2.510   4.211 -1.0077  0.6780  0.1550
11620TIP3   OH234800   1.087   6.237   1.676 -0.2094  0.0861 -0.2839
11620TIP3    H134801   1.131   6.192   1.748 -2.0878 -2.6818 -0.6838
11620TIP3    H234802   1.012   6.281   1.717  1.5746  2.9993  0.0912
11621TIP3   OH234803   5.646   4.563   3.552 -0.0208  0.3253  0.0802
11621TIP3    H134804   5.626   4.527   3.465  0.6514 -0.0364  0.0707
11621TIP3    H234805   5.686   4.490   3.599 -0.2446  0.5664  0.6438
11622TIP3   OH234806   6.086   6.767   6.007  0.1410 -0.1554  0.7776
11622TIP3    H134807   6.006   6.723   6.035 -0.6560  1.1201  0.5875
11622TIP3    H234808   6.056   6.845   5.960  1.3693 -1.7514 -3.0411
11623TIP3   OH234809   7.738   7.620   1.451 -0.2585 -0.0903  0.4706
11623TIP3    H134810   7.808   7.679   1.480 -0.7912 -0.4841  2.7644
11623TIP3    H234811   7.667   7.634   1.515 -1.5740 -1.0229 -0.7302
11624TIP3   OH234812   8.149   5.260   0.587 -0.2668  0.3026 -0.6939
11624TIP3    H134813   8.087   5.197   0.622  0.4411 -0.0679 -0.0748
11624TIP3    H234814   8.218   5.265   0.653  0.8110  0.0295 -1.7717
11625TIP3   OH234815   0.562   2.315   3.603  0.4282 -0.0720 -0.0647
11625TIP3    H134816   0.545   2.408   3.617  1.5909  0.0763  0.5212
11625TIP3    H234817   0.597   2.285   3.687 -0.0446 -1.0723 -0.2130
11626TIP3   OH234818   7.739   2.546   4.006 -0.3463 -0.4551  0.3328
11626TIP3    H134819   7.677   2.525   3.936 -0.3120 -3.8432  1.1306
11626TIP3    H234820   7.704   2.626   4.046 -2.3109 -0.3917 -1.3406
11627TIP3   OH234821   1.121   1.477   4.097 -0.7587 -0.1846 -0.4920
11627TIP3    H134822   1.175   1.409   4.056 -1.0878 -0.2945 -0.7458
11627TIP3    H234823   1.120   1.549   4.033  1.1897  0.8770  0.5646
11628TIP3   OH234824   0.195   6.226   2.913 -0.1522  0.5934 -0.0141
11628TIP3    H134825   0.281   6.266   2.909 -0.1061  0.3828 -2.6617
11628TIP3    H234826   0.210   6.133   2.897 -0.9382  0.7873 -2.2602
11629TIP3   OH234827   2.871   7.259   4.836 -0.2455  0.2965  0.0244
11629TIP3    H134828   2.884   7.229   4.926 -1.1477  0.8206  0.3424
11629TIP3    H234829   2.947   7.313   4.817 -0.8252  1.5332  1.0716
11630TIP3   OH234830   6.846   0.801   4.406  0.4574  0.4102 -0.3132
11630TIP3    H134831   6.921   0.742   4.414  0.5063  0.5601  0.4786
11630TIP3    H234832   6.772   0.743   4.386  0.4364  0.0164  0.8321
11631TIP3   OH234833   6.865   0.290   3.294 -0.4972  0.1081  0.8973
11631TIP3    H134834   6.942   0.249   3.254 -0.5855  1.1582 -0.4703
11631TIP3    H234835   6.803   0.298   3.222 -0.6143  2.2397  1.1480
11632TIP3   OH234836   4.229   4.252   1.356 -0.0852 -0.4449 -0.4189
11632TIP3    H134837   4.247   4.340   1.323 -1.5440  0.8897  2.0427
11632TIP3    H234838   4.296   4.236   1.423 -1.8581  0.3818  1.6748
11633TIP3   OH234839   6.906   5.246   2.084  0.3578 -0.0835 -0.0889
11633TIP3    H134840   6.841   5.311   2.058  0.2474 -0.0262  0.3115
11633TIP3    H234841   6.986   5.295   2.097  0.1386  0.0765  0.7628
11634TIP3   OH234842   8.359   7.814   2.024 -0.1659  0.1679 -0.3002
11634TIP3    H134843   8.305   7.795   1.946  1.5350 -2.8683 -0.9067
11634TIP3    H234844   8.306   7.781   2.097 -0.1876 -0.5444 -0.6234
11635TIP3   OH234845   4.224   5.242   0.569  0.6393 -0.2470 -0.0056
11635TIP3    H134846   4.182   5.251   0.655 -0.5722 -1.6927 -0.4154
11635TIP3    H234847   4.300   5.300   0.574 -0.8490  1.7452  1.1069
11636TIP3   OH234848   7.594   4.290   4.337  0.2791 -0.6191  0.4706
11636TIP3    H134849   7.563   4.262   4.251 -2.7645 -1.7841  1.8174
11636TIP3    H234850   7.577   4.385   4.339  0.5239 -0.5535 -0.2335
11637TIP3   OH234851   1.114   7.754   5.306  0.0079 -0.2300  0.2302
11637TIP3    H134852   1.071   7.838   5.292  0.6329  0.0214 -0.2304
11637TIP3    H234853   1.061   7.710   5.372 -1.1967 -0.1012 -0.6162
11638TIP3   OH234854   7.410   2.217   2.839  0.0310 -0.0447  0.0327
11638TIP3    H134855   7.421   2.306   2.871 -1.0973 -0.3923  1.4935
11638TIP3    H234856   7.337   2.223   2.777  0.8592  0.2632 -0.9409
11639TIP3   OH234857   7.643   4.748   3.723  0.6514  0.0306 -0.2195
11639TIP3    H134858   7.649   4.720   3.632 -0.5767 -0.7313 -0.0989
11639TIP3    H234859   7.631   4.667   3.772  0.8406  0.4695  0.5666
11640TIP3   OH234860   4.407   5.127   3.669 -0.4799 -0.3055  0.2556
11640TIP3    H134861   4.388   5.176   3.749 -0.4618  0.6140 -0.2970
11640TIP3    H234862   4.360   5.173   3.600  1.4075  0.3409 -0.6582
11641TIP3   OH234863   1.794   7.877   5.714  0.1797  0.1171  0.3134
11641TIP3    H134864   1.881   7.896   5.678 -0.1305  2.7835  0.7728
11641TIP3    H234865   1.734   7.893   5.642  0.0082 -1.9318 -0.0674
11642TIP3   OH234866   6.728   2.709   5.394 -0.3693 -0.0489 -0.4448
11642TIP3    H134867   6.789   2.783   5.392  2.3873 -2.1268  0.3670
11642TIP3    H234868   6.714   2.687   5.302  0.6988  0.0791 -0.6576
11643TIP3   OH234869   6.750   6.683   6.038 -0.3604 -0.5020 -0.2871
11643TIP3    H134870   6.693   6.668   5.962 -1.7231 -1.1653  0.8210
11643TIP3    H234871   6.823   6.621   6.025  0.1874  0.3935 -1.7487
11644TIP3   OH234872   2.547   5.837   3.172  0.0244 -0.2210 -0.1957
11644TIP3    H134873   2.574   5.859   3.261 -0.5400 -0.4259  0.0357
11644TIP3    H234874   2.558   5.742   3.166  1.7061 -0.0116 -0.9291
11645TIP3   OH234875   5.988   4.504   6.828 -0.3250 -0.3083 -0.2257
11645TIP3    H134876   6.018   4.505   6.737 -2.6922  0.7542 -1.0800
11645TIP3    H234877   5.998   4.595   6.857 -1.5214 -0.1790 -0.1642
11646TIP3   OH234878   1.823   7.751   3.861  0.0471  0.0345 -0.3165
11646TIP3    H134879   1.857   7.833   3.825  1.0971 -0.4938 -0.5509
11646TIP3    H234880   1.864   7.743   3.947 -0.7645  0.1979  0.0958
11647TIP3   OH234881   2.840   1.762   2.456  0.2256  0.1304 -0.1462
11647TIP3    H134882   2.901   1.721   2.394  0.8355  2.5388 -1.2544
11647TIP3    H234883   2.755   1.758   2.412  0.3140  0.2104 -0.3259
11648TIP3   OH234884   2.474   1.806   6.763 -0.6226  0.1980  0.3037
11648TIP3    H134885   2.412   1.837   6.697 -0.7520  1.5817  1.0234
11648TIP3    H234886   2.460   1.865   6.838  0.8245 -0.1414  0.8706
11649TIP3   OH234887   2.049   6.336   1.780  0.4269 -0.2889  0.1159
11649TIP3    H134888   1.973   6.375   1.821 -0.5893 -0.5266 -1.4546
11649TIP3    H234889   2.050   6.371   1.691 -1.0997 -4.3285 -1.7554
11650TIP3   OH234890   8.030   3.955   6.389  0.2597  0.0092  0.1507
11650TIP3    H134891   7.993   3.867   6.386  0.5655 -0.3502  3.5552
11650TIP3    H234892   8.115   3.947   6.346 -0.0929 -1.1127 -0.3715
11651TIP3   OH234893   7.823   2.070   3.639 -0.0077 -0.2865 -0.1237
11651TIP3    H134894   7.895   2.118   3.600 -0.3516  0.0370 -0.3691
11651TIP3    H234895   7.756   2.137   3.655  0.2995 -0.3201  1.4410
11652TIP3   OH234896   0.860   1.187   2.394 -0.2052 -0.6162 -0.0441
11652TIP3    H134897   0.824   1.274   2.410 -0.0551 -0.3486 -1.0788
11652TIP3    H234898   0.827   1.163   2.308 -2.1537 -2.6036  1.1886
11653TIP3   OH234899   5.685   3.232   4.616 -0.0876  0.0379  0.5269
11653TIP3    H134900   5.724   3.280   4.543  1.2446 -1.1501  0.4151
11653TIP3    H234901   5.698   3.288   4.692 -1.4396  1.2659 -0.0937
11654TIP3   OH234902   8.053   7.517   4.080  0.1971 -0.4491  0.0529
11654TIP3    H134903   8.108   7.544   4.154 -0.7624  0.9931  0.2985
11654TIP3    H234904   7.963   7.533   4.111 -0.2457 -0.4799 -1.1804
11655TIP3   OH234905   1.104   3.732   0.143  0.5299 -0.4480 -0.7588
11655TIP3    H134906   1.127   3.794   0.213  3.3501 -0.8861 -1.1680
11655TIP3    H234907   1.068   3.656   0.188  1.2186 -0.2547  0.1444
11656TIP3   OH234908   0.071   6.003   6.070  0.5490 -0.5018 -0.1478
11656TIP3    H134909  -0.021   5.988   6.094  0.2344  1.5529  0.1426
11656TIP3    H234910   0.082   5.956   5.987 -0.8319 -0.6141 -0.2943
11657TIP3   OH234911   6.487   6.792   3.189  0.1821  0.8029 -0.2767
11657TIP3    H134912   6.506   6.724   3.253  1.7570  0.0508 -1.4817
11657TIP3    H234913   6.573   6.816   3.153 -0.5050  2.2735 -1.0489
11658TIP3   OH234914   6.218   2.901   0.986 -0.1392  0.2255  0.0289
11658TIP3    H134915   6.224   2.838   0.914  0.0607  0.3118 -0.0320
11658TIP3    H234916   6.309   2.922   1.007 -0.1718 -0.3440  0.7900
11659TIP3   OH234917   6.113   3.323   4.312  0.1037  0.1248  0.1029
11659TIP3    H134918   6.164   3.247   4.284 -0.1059 -0.5703  1.5368
11659TIP3    H234919   6.022   3.299   4.296 -0.1232 -0.7941  2.3930
11660TIP3   OH234920   1.329   4.706   2.527 -0.0628  0.3731 -0.5212
11660TIP3    H134921   1.348   4.626   2.477 -2.0664  1.1822 -2.7763
11660TIP3    H234922   1.255   4.683   2.582  0.3314  0.2890 -0.0131
11661TIP3   OH234923   2.110   5.410   0.577  0.5490  0.7765  0.5673
11661TIP3    H134924   2.086   5.451   0.494  0.7217  1.1430  0.6951
11661TIP3    H234925   2.063   5.461   0.643  0.9163  0.8871  0.7428
11662TIP3   OH234926   5.971   6.398   4.206  0.6688 -0.3112  1.0926
11662TIP3    H134927   6.002   6.311   4.179  1.4343  0.0958  0.6056
11662TIP3    H234928   5.879   6.400   4.181  0.8436 -0.7055  0.3860
11663TIP3   OH234929   4.586   6.382   6.246 -0.3831 -0.5459 -0.2430
11663TIP3    H134930   4.681   6.387   6.257 -0.3451 -0.8018 -0.4560
11663TIP3    H234931   4.551   6.416   6.328 -0.1342  1.7310 -1.0215
11664TIP3   OH234932   1.479   6.936   6.177 -0.2990  0.2984  0.3502
11664TIP3    H134933   1.562   6.967   6.213  0.3010 -0.5988 -0.2430
11664TIP3    H234934   1.486   6.952   6.083 -1.5049  1.8062  0.4781
11665TIP3   OH234935   7.358   3.224   6.263  0.2899 -0.2068 -0.2178
11665TIP3    H134936   7.423   3.277   6.311  0.6527 -0.2756 -0.6300
11665TIP3    H234937   7.275   3.270   6.278  0.3428 -0.3853  0.7227
11666TIP3   OH234938   7.816   6.353   3.671  0.0223 -0.1138 -0.1020
11666TIP3    H134939   7.764   6.412   3.616  0.1228  0.2674  0.2002
11666TIP3    H234940   7.781   6.366   3.759  0.0417 -0.5171 -0.0316
11667TIP3   OH234941   3.775   7.113   0.751  0.3990 -0.4679 -0.3164
11667TIP3    H134942   3.741   7.140   0.836  0.2599  0.0423 -0.5281
11667TIP3    H234943   3.857   7.162   0.740  0.7216 -0.9800 -0.2201
11668TIP3   OH234944   3.598   2.485   0.924  0.2876  0.1641  0.2782
11668TIP3    H134945   3.565   2.427   0.855  0.6197 -0.8525  0.9559
11668TIP3    H234946   3.523   2.542   0.945 -0.8079 -1.5216  1.1804
11669TIP3   OH234947   5.644   0.498   2.885  0.1495 -0.0634 -0.6442
11669TIP3    H134948   5.564   0.536   2.923  0.6304 -0.0842  0.4216
11669TIP3    H234949   5.689   0.573   2.845  1.3046  0.6742  1.8139
11670TIP3   OH234950   1.029   6.374   2.980 -0.4385  0.3351  0.1330
11670TIP3    H134951   0.981   6.451   3.009  0.2296  0.4059  1.1119
11670TIP3    H234952   1.024   6.313   3.054 -1.9353 -1.0518 -1.0474
11671TIP3   OH234953   7.177   3.730   3.830 -0.6890 -0.0629  0.1199
11671TIP3    H134954   7.108   3.794   3.811  0.0640  0.6977 -0.1277
11671TIP3    H234955   7.130   3.649   3.849 -1.6310  0.2057 -0.9180
11672TIP3   OH234956   8.334   3.762   4.439 -0.2709 -0.8813 -0.1479
11672TIP3    H134957   8.255   3.770   4.387  0.0885 -0.3041 -0.6222
11672TIP3    H234958   8.330   3.835   4.502 -1.0999 -2.0416  1.2098
11673TIP3   OH234959   2.131   7.652   5.066  0.2580 -0.0542  0.1199
11673TIP3    H134960   2.036   7.666   5.059  0.6079  2.3696 -0.6462
11673TIP3    H234961   2.164   7.665   4.977  1.4137  0.1573  0.5580
11674TIP3   OH234962   5.912   7.846   5.609 -0.0906  0.1229  0.2871
11674TIP3    H134963   5.859   7.767   5.616 -0.2279  0.1086 -0.7629
11674TIP3    H234964   5.849   7.918   5.612 -0.3549  0.0734 -2.2129
11675TIP3   OH234965   7.711   4.199   2.542 -0.5547 -0.0917 -0.5117
11675TIP3    H134966   7.716   4.265   2.473  1.9185  0.1408 -0.2068
11675TIP3    H234967   7.719   4.249   2.623 -2.1508 -0.4930 -0.0683
11676TIP3   OH234968   6.005   0.762   1.612 -0.3970 -0.0189  0.2136
11676TIP3    H134969   5.952   0.836   1.583  1.6419  0.3212 -3.1210
11676TIP3    H234970   5.958   0.685   1.581 -0.2219  0.1367 -0.4379
11677TIP3   OH234971   4.197   4.132   0.503  0.3597  0.0290 -0.2395
11677TIP3    H134972   4.161   4.056   0.549  1.1847  0.3706  1.0155
11677TIP3    H234973   4.136   4.203   0.521  1.1199  0.3781  1.1086
11678TIP3   OH234974   0.619   3.493   2.562 -0.8506  0.5534 -0.0032
11678TIP3    H134975   0.699   3.445   2.539 -2.0631 -1.6934  0.1976
11678TIP3    H234976   0.644   3.544   2.639  0.1104 -1.0948  0.8525
11679TIP3   OH234977   2.128   2.401   3.329 -0.0870 -0.2446  0.0698
11679TIP3    H134978   2.173   2.371   3.408 -1.1303  0.3699  0.9279
11679TIP3    H234979   2.035   2.389   3.349 -0.3409 -0.9626 -1.4421
11680TIP3   OH234980   5.964   7.379   3.598 -0.0045  0.4487  0.4215
11680TIP3    H134981   5.869   7.371   3.604  0.0747 -0.4220  0.6971
11680TIP3    H234982   5.983   7.368   3.505  0.0777 -3.0050  0.7162
11681TIP3   OH234983   5.488   2.312   2.598 -0.6592  0.0425  0.2910
11681TIP3    H134984   5.514   2.399   2.630  0.7718  0.4978 -1.8909
11681TIP3    H234985   5.459   2.327   2.508  1.3520 -1.9195 -0.7845
11682TIP3   OH234986   3.269   3.044   4.384  0.1488 -0.1890  0.5236
11682TIP3    H134987   3.353   3.003   4.401 -0.0572 -1.3710 -1.0595
11682TIP3    H234988   3.245   3.014   4.296 -1.4393  0.9465  0.5228
11683TIP3   OH234989   1.514   1.404   0.522 -0.0228  0.4004  0.7090
11683TIP3    H134990   1.524   1.309   0.516 -1.9344  0.2084 -0.2595
11683TIP3    H234991   1.514   1.423   0.616  4.0618 -0.0188  0.9537
11684TIP3   OH234992   2.516   6.205   1.887 -0.4346  0.2336 -0.0449
11684TIP3    H134993   2.462   6.283   1.897 -0.5225  0.0720  0.8685
11684TIP3    H234994   2.536   6.201   1.794  1.8098  2.8601  0.1834
11685TIP3   OH234995   6.683   3.550   0.646 -0.1773 -0.4313  0.2499
11685TIP3    H134996   6.677   3.541   0.551 -0.6718 -0.3137  0.2645
11685TIP3    H234997   6.777   3.554   0.664  0.0822 -3.2965  0.0325
11686TIP3   OH234998   5.674   7.790   4.472  0.0421 -0.3112  0.3078
11686TIP3    H134999   5.587   7.767   4.506 -0.7676  0.9879 -0.7395
11686TIP3    H235000   5.664   7.880   4.440  2.0214  0.1663  0.8932
11687TIP3   OH235001   6.980   7.154   1.968  0.2508  0.4293 -0.0890
11687TIP3    H135002   7.043   7.135   1.898  1.4120  2.4459  0.3306
11687TIP3    H235003   6.900   7.181   1.923  0.7520  1.0096 -0.6476
11688TIP3   OH235004   3.890   1.957   2.810  0.1288  0.3846 -0.3294
11688TIP3    H135005   3.871   1.987   2.721  2.2461  2.9595 -0.0308
11688TIP3    H235006   3.805   1.956   2.854 -0.8248 -0.0481 -2.0968
11689TIP3   OH235007   3.210   2.644   2.287  0.4441  0.5395  0.0051
11689TIP3    H135008   3.213   2.562   2.238 -0.2435  1.3700 -1.5047
11689TIP3    H235009   3.126   2.643   2.332  0.1715  0.6813 -0.5003
11690TIP3   OH235010   5.314   6.471   1.468  0.6584  0.3906  0.0957
11690TIP3    H135011   5.235   6.525   1.480  1.5736  2.2136 -1.5183
11690TIP3    H235012   5.363   6.483   1.549 -0.2712 -0.0496  0.7550
11691TIP3   OH235013   0.621   6.102   0.629  0.4838  0.4039  0.0742
11691TIP3    H135014   0.707   6.140   0.647  0.7247  0.6729 -1.5004
11691TIP3    H235015   0.610   6.111   0.534 -0.8837 -0.4719  0.1187
11692TIP3   OH235016   3.447   2.086   1.541  0.0884 -0.2491 -0.4734
11692TIP3    H135017   3.515   2.032   1.500  0.6698 -0.0118  0.1412
11692TIP3    H235018   3.466   2.175   1.512 -1.4143 -0.4575 -2.2093
11693TIP3   OH235019   6.318   5.058   6.665  0.3591 -0.5953 -0.0579
11693TIP3    H135020   6.262   5.027   6.594 -1.0105  0.8098  0.3480
11693TIP3    H235021   6.396   5.092   6.622 -0.2000 -0.2898 -0.8606
11694TIP3   OH235022   5.521   7.320   6.401  0.1342 -0.3179 -0.2141
11694TIP3    H135023   5.585   7.389   6.385 -0.4994  0.1370 -0.8787
11694TIP3    H235024   5.461   7.356   6.466  1.8741 -1.6309  2.2393
11695TIP3   OH235025   0.224   2.190   4.576 -0.2654 -0.0836 -0.1306
11695TIP3    H135026   0.141   2.178   4.622 -0.3001 -1.5493 -0.5356
11695TIP3    H235027   0.291   2.163   4.639 -0.2399 -0.9358 -0.5100
11696TIP3   OH235028   5.539   3.910   4.970  0.6220 -0.2287  0.2207
11696TIP3    H135029   5.519   3.882   5.059 -1.1156 -1.8528 -0.5920
11696TIP3    H235030   5.526   4.004   4.970 -1.7630 -0.4903  1.1588
11697TIP3   OH235031   5.207   2.399   2.001  0.4334 -0.9650 -0.0234
11697TIP3    H135032   5.205   2.423   1.908  0.2780 -2.1120 -0.3380
11697TIP3    H235033   5.176   2.477   2.047 -1.1923 -0.9384 -1.0660
11698TIP3   OH235034   2.834   3.220   0.774 -0.0883  0.5994  0.2605
11698TIP3    H135035   2.745   3.226   0.740 -0.3882 -0.4899  0.7963
11698TIP3    H235036   2.826   3.165   0.852  0.9032  1.3278  0.8948
11699TIP3   OH235037   6.211   5.994   3.577  0.1207 -0.1917 -0.0796
11699TIP3    H135038   6.218   6.084   3.546  0.2501 -0.2665 -0.2741
11699TIP3    H235039   6.232   5.999   3.670 -2.6318  0.3967  0.5842
11700TIP3   OH235040   1.664   3.020   4.713 -0.3821  0.4107  0.2885
11700TIP3    H135041   1.615   2.939   4.707 -2.2589  1.4834  0.3341
11700TIP3    H235042   1.602   3.084   4.748  1.8431  1.2322  3.1636
11701TIP3   OH235043   2.041   3.099   2.127  0.3880 -0.7332  0.0946
11701TIP3    H135044   2.060   3.053   2.209  1.6629 -0.6077 -0.1178
11701TIP3    H235045   1.992   3.036   2.075  1.6734 -1.6948  0.0051
11702TIP3   OH235046   5.884   4.817   6.636  0.6648  0.3719 -0.1266
11702TIP3    H135047   5.821   4.745   6.638  0.3354  0.6788  0.8822
11702TIP3    H235048   5.930   4.806   6.552 -0.4352 -0.1002 -0.6921
11703TIP3   OH235049   1.517   4.513   0.761  0.2177  0.2292  0.1081
11703TIP3    H135050   1.432   4.494   0.721 -0.4639 -1.6472  2.1796
11703TIP3    H235051   1.579   4.459   0.712 -0.2075 -0.2233  0.0551
11704TIP3   OH235052   5.816   2.133   3.193  0.3947  0.3310 -0.0329
11704TIP3    H135053   5.904   2.098   3.208  0.6937  1.1594  0.1796
11704TIP3    H235054   5.825   2.186   3.114 -0.5566 -1.7998 -1.6994
11705TIP3   OH235055   7.716   3.877   4.550  0.2594 -0.8468 -0.3791
11705TIP3    H135056   7.781   3.831   4.603 -0.8029 -0.2599  1.5162
11705TIP3    H235057   7.768   3.935   4.494  1.4526 -2.0479 -0.5485
11706TIP3   OH235058   4.705   1.051   1.794  0.1972 -0.1470 -0.1766
11706TIP3    H135059   4.730   1.117   1.729  0.9644 -0.5857 -0.3331
11706TIP3    H235060   4.724   0.968   1.752 -2.7210 -0.5946 -0.8170
11707TIP3   OH235061   6.514   6.758   1.219  0.2169 -0.0628  0.2082
11707TIP3    H135062   6.486   6.842   1.183 -0.0286 -0.0649  0.3944
11707TIP3    H235063   6.604   6.774   1.248  0.7404 -0.3037 -1.2006
11708TIP3   OH235064   7.918   0.482   0.746 -0.3849 -0.2743  0.2360
11708TIP3    H135065   7.952   0.397   0.773  1.8553  0.3227 -0.4102
11708TIP3    H235066   7.876   0.466   0.662 -1.2418 -0.9508  0.7762
11709TIP3   OH235067   2.938   1.712   2.706 -0.5817  0.1819  0.0114
11709TIP3    H135068   2.872   1.707   2.775 -0.1735 -2.0929  0.3155
11709TIP3    H235069   2.889   1.734   2.627 -1.7228 -1.2912  0.2615
11710TIP3   OH235070   3.472   5.587   5.842 -0.1822  0.3607 -0.4382
11710TIP3    H135071   3.409   5.641   5.794 -0.1404  1.8255  1.0667
11710TIP3    H235072   3.443   5.592   5.933 -0.6685 -2.8818 -0.2873
11711TIP3   OH235073   0.865   3.234   4.176  0.6942 -0.4326  0.1070
11711TIP3    H135074   0.900   3.149   4.151  0.8850 -0.4071  0.2808
11711TIP3    H235075   0.792   3.214   4.235  0.2530 -0.4918 -0.4580
11712TIP3   OH235076   3.280   4.381   1.697  0.0595  0.6448 -0.4636
11712TIP3    H135077   3.200   4.386   1.645 -0.6362 -0.7641  0.3937
11712TIP3    H235078   3.252   4.404   1.786  0.3855 -0.6994  0.0156
11713TIP3   OH235079   8.259   6.081   1.203 -0.0349  0.2029 -0.0969
11713TIP3    H135080   8.334   6.113   1.253  0.1889  0.0025 -0.3018
11713TIP3    H235081   8.239   6.150   1.140 -0.3083  0.4512  0.2589
11714TIP3   OH235082   3.195   6.590   4.372 -0.1171 -0.2623 -0.2530
11714TIP3    H135083   3.253   6.660   4.343  0.2536 -0.5251 -0.1555
11714TIP3    H235084   3.249   6.511   4.367  0.4714 -0.1702  2.4955
11715TIP3   OH235085   1.100   3.708   5.598  0.1114 -0.6140  0.0110
11715TIP3    H135086   1.028   3.728   5.658  1.7764 -0.2799  2.0281
11715TIP3    H235087   1.122   3.617   5.618 -1.3391 -1.6174 -2.4539
11716TIP3   OH235088   5.891   7.533   5.356 -0.4078  0.0958 -0.3262
11716TIP3    H135089   5.856   7.545   5.268  0.2136 -0.4042 -0.6545
11716TIP3    H235090   5.976   7.577   5.355 -0.4413  0.1748  0.0565
11717TIP3   OH235091   7.242   7.495   4.883 -0.1850 -0.2609 -0.1285
11717TIP3    H135092   7.157   7.463   4.913 -0.5556  0.1833 -0.6695
11717TIP3    H235093   7.220   7.565   4.821  0.5714 -0.4158 -0.5806
11718TIP3   OH235094   2.494   4.016   3.335 -0.2956 -0.3308 -0.4741
11718TIP3    H135095   2.520   4.034   3.245 -0.1895 -0.4441 -0.4658
11718TIP3    H235096   2.403   4.045   3.340 -0.2976 -0.3125 -0.6139
11719TIP3   OH235097   1.739   6.329   4.923 -0.0029  0.3534 -0.0448
11719TIP3    H135098   1.739   6.290   5.010 -0.1165 -1.2894 -0.7466
11719TIP3    H235099   1.830   6.355   4.908  0.8295 -2.7225 -0.8385
11720TIP3   OH235100   7.605   3.360   6.304  0.3795 -0.9061  0.1746
11720TIP3    H135101   7.664   3.289   6.281  1.6456  1.1707 -3.8368
11720TIP3    H235102   7.646   3.402   6.380  0.7842 -3.0017  1.1753
11721TIP3   OH235103   7.831   0.935   4.143 -0.1702  0.3363  0.7154
11721TIP3    H135104   7.753   0.985   4.166 -0.3034  0.1853  0.5992
11721TIP3    H235105   7.802   0.877   4.072  0.0069  0.1717  0.7760
11722TIP3   OH235106   7.497   1.328   6.078 -0.5077 -0.4641 -0.1663
11722TIP3    H135107   7.431   1.396   6.072  1.3595  1.3695 -1.0163
11722TIP3    H235108   7.576   1.373   6.109  1.1394 -1.9354 -1.9285
11723TIP3   OH235109   5.887   5.303   6.329 -0.8735 -0.2678 -0.0103
11723TIP3    H135110   5.833   5.244   6.381  0.2838 -1.4967 -0.1702
11723TIP3    H235111   5.975   5.293   6.364 -0.4520  0.5440 -0.7750
11724TIP3   OH235112   3.877   1.420   1.888 -0.3445 -0.3247  0.7437
11724TIP3    H135113   3.922   1.387   1.810 -1.0488 -1.3910  0.7579
11724TIP3    H235114   3.877   1.515   1.878  1.5419 -0.3152  0.5528
11725TIP3   OH235115   1.419   3.963   2.978  0.2340  0.4816  0.0171
11725TIP3    H135116   1.500   3.973   3.028  0.7997 -1.1832 -0.4851
11725TIP3    H235117   1.441   3.993   2.890  0.0191  0.9507  0.1252
11726TIP3   OH235118   6.737   3.098   3.028 -0.4807 -0.1028 -0.6640
11726TIP3    H135119   6.830   3.085   3.051 -0.1212  1.6659 -0.9800
11726TIP3    H235120   6.736   3.178   2.976 -2.4570  1.3140  1.3405
11727TIP3   OH235121   3.626   3.875   3.472  0.2402  0.4151  0.3990
11727TIP3    H135122   3.547   3.927   3.469  1.2200  2.1782  2.3926
11727TIP3    H235123   3.596   3.784   3.463 -1.7455  1.1377 -0.8433
11728TIP3   OH235124   4.208   6.171   0.560 -0.2061 -0.1273 -0.5584
11728TIP3    H135125   4.303   6.161   0.557 -0.3264 -1.4976 -0.2274
11728TIP3    H235126   4.185   6.153   0.651 -0.7822  0.2411 -0.6271
11729TIP3   OH235127   8.317   5.674   3.795  0.2022 -0.6475  0.3124
11729TIP3    H135128   8.327   5.685   3.701  0.2079 -0.5109  0.3280
11729TIP3    H235129   8.329   5.762   3.831 -1.8877 -0.2996  0.2545
11730TIP3   OH235130   4.410   1.224   2.548  0.1318  0.1856  0.0059
11730TIP3    H135131   4.360   1.255   2.623 -0.4347 -1.5788  0.4105
11730TIP3    H235132   4.460   1.300   2.519 -1.7200  1.6600  0.4582
11731TIP3   OH235133   1.970   1.948   6.751  0.2640 -0.0852 -0.4768
11731TIP3    H135134   1.996   1.907   6.834  1.3256 -2.3184 -1.8527
11731TIP3    H235135   2.004   2.038   6.758  0.3984 -0.2457  1.4610
11732TIP3   OH235136   2.721   3.098   5.893 -0.0935  0.0174 -0.0290
11732TIP3    H135137   2.793   3.097   5.830 -0.4623  1.3200 -0.4951
11732TIP3    H235138   2.737   3.176   5.947 -1.5805  0.8084 -0.6755
11733TIP3   OH235139   6.884   7.160   6.755 -0.2346 -0.2464 -0.0570
11733TIP3    H135140   6.922   7.209   6.682 -0.2781 -0.6768 -0.3701
11733TIP3    H235141   6.888   7.221   6.829 -2.2185  1.0490 -0.9181
11734TIP3   OH235142   4.846   2.367   2.256  0.3117  0.6376 -0.0298
11734TIP3    H135143   4.802   2.421   2.191  0.8619 -1.1243 -1.9786
11734TIP3    H235144   4.776   2.319   2.300  0.0026  1.0551 -0.0702
11735TIP3   OH235145   3.168   4.697   5.645  0.1549 -0.2748 -0.1932
11735TIP3    H135146   3.074   4.684   5.641  0.2547 -0.7625 -1.0731
11735TIP3    H235147   3.186   4.710   5.739 -1.0203  1.7451 -0.1795
11736TIP3   OH235148   8.259   7.028   5.755  0.4092  0.0901 -0.2193
11736TIP3    H135149   8.335   7.073   5.718  0.1057  0.0316 -0.9335
11736TIP3    H235150   8.296   6.962   5.813  1.1006 -2.4766 -3.3560
11737TIP3   OH235151   2.583   6.350   5.312 -0.3551  0.2919  0.3783
11737TIP3    H135152   2.656   6.378   5.257 -0.3333 -0.3602  0.0623
11737TIP3    H235153   2.619   6.349   5.400 -0.1589  0.5628  0.3055
11738TIP3   OH235154   6.421   2.858   0.139 -0.0036  0.1897  0.2234
11738TIP3    H135155   6.377   2.939   0.167  0.5160 -0.2842  2.6409
11738TIP3    H235156   6.509   2.885   0.116  0.0797  0.3838  0.7470
11739TIP3   OH235157   0.268   7.767   2.059  0.2393 -0.0744  0.1704
11739TIP3    H135158   0.260   7.690   2.115  0.5108 -0.7436 -0.6784
11739TIP3    H235159   0.181   7.806   2.059  0.5733  0.7556  2.1740
11740TIP3   OH235160   7.208   7.429   2.132 -0.1580  0.6096  0.2425
11740TIP3    H135161   7.141   7.372   2.170 -1.9260  1.7688 -1.0093
11740TIP3    H235162   7.287   7.374   2.130 -0.6136 -0.3436  3.0501
11741TIP3   OH235163   0.100   1.038   5.015 -0.4544 -0.2692 -0.2467
11741TIP3    H135164   0.089   0.964   5.075 -0.9655  0.4208  0.5302
11741TIP3    H235165   0.119   1.113   5.072 -0.0940  0.2338 -1.0108
11742TIP3   OH235166   2.574   2.795   5.059 -0.4184  0.2649 -0.1226
11742TIP3    H135167   2.508   2.829   4.999 -2.0133  0.8065  1.8162
11742TIP3    H235168   2.524   2.740   5.120  0.9771  0.4251  1.2186
11743TIP3   OH235169   1.151   4.796   6.637  0.0596  0.0154  0.4481
11743TIP3    H135170   1.164   4.881   6.681  2.0162 -0.7335  1.4184
11743TIP3    H235171   1.221   4.792   6.571  0.1439 -0.9558  0.5861
11744TIP3   OH235172   1.618   2.833   5.153  0.3313  0.4617 -0.1021
11744TIP3    H135173   1.599   2.822   5.060  1.6707  2.2253 -0.6151
11744TIP3    H235174   1.579   2.917   5.176  0.3705  0.2347  0.8511
11745TIP3   OH235175   2.147   1.091   6.626  0.3282 -0.1713 -0.2147
11745TIP3    H135176   2.139   0.996   6.632 -0.2897 -0.1646 -0.8388
11745TIP3    H235177   2.067   1.124   6.668  1.0341  0.1051  0.9490
11746TIP3   OH235178   2.520   3.394   6.021  0.7738 -0.3199  0.4710
11746TIP3    H135179   2.584   3.359   6.083  1.0708  0.2085  0.4719
11746TIP3    H235180   2.520   3.488   6.038  0.1543 -0.2898  0.3200
11747TIP3   OH235181   0.537   1.120   6.086 -0.4403  0.0415 -0.4794
11747TIP3    H135182   0.546   1.056   6.156 -0.0994  0.3402 -0.2454
11747TIP3    H235183   0.500   1.071   6.013 -3.0248  0.2049  0.6230
11748TIP3   OH235184   6.232   5.339   6.790 -0.7358 -0.3774  0.2063
11748TIP3    H135185   6.288   5.356   6.714  1.4404 -2.6147  1.1884
11748TIP3    H235186   6.166   5.408   6.786  1.1950  1.5412 -1.8724
11749TIP3   OH235187   1.937   3.946   6.310  0.3608 -0.0088 -0.0842
11749TIP3    H135188   1.991   3.963   6.387  2.0902  1.0843 -1.4675
11749TIP3    H235189   1.880   4.022   6.302  1.1647  0.5660 -0.6219
11750TIP3   OH235190   2.968   5.685   1.085  0.2852 -0.3792  0.4576
11750TIP3    H135191   2.903   5.707   1.018  0.4942 -0.3284  0.2698
11750TIP3    H235192   2.918   5.680   1.166  0.0407 -0.3726  0.3093
11751TIP3   OH235193   8.302   1.160  -0.011  0.7696 -0.4471 -0.1771
11751TIP3    H135194   8.359   1.196   0.056 -0.1868  0.3339  0.2290
11751TIP3    H235195   8.252   1.091   0.034 -0.1035  0.2944  0.0128
11752TIP3   OH235196   7.850   0.735   1.525  0.2823 -0.1769 -0.1902
11752TIP3    H135197   7.896   0.738   1.609 -0.5520 -0.1636  0.2701
11752TIP3    H235198   7.803   0.818   1.520 -1.6760 -1.1823  0.5032
11753TIP3   OH235199   3.409   2.906   3.704  0.2981 -0.5695  0.1683
11753TIP3    H135200   3.336   2.950   3.749  0.5384  0.3592 -0.3307
11753TIP3    H235201   3.367   2.840   3.649 -0.2494  0.5001 -0.7331
11754TIP3   OH235202   2.571   2.018   3.811  0.1893 -0.1324 -0.4510
11754TIP3    H135203   2.593   2.090   3.871  0.0025 -1.0095  0.6976
11754TIP3    H235204   2.650   1.964   3.809  0.0671 -0.3050 -0.7268
11755TIP3   OH235205   6.473   3.126   3.118 -0.2403  0.1300 -0.2382
11755TIP3    H135206   6.562   3.094   3.100 -1.0572 -2.7019  0.2970
11755TIP3    H235207   6.486   3.201   3.177  1.7901  0.4029 -0.9373
11756TIP3   OH235208   4.718   2.851   2.543 -0.2099 -0.0387 -0.6662
11756TIP3    H135209   4.760   2.843   2.629  0.5044 -0.2460 -1.0310
11756TIP3    H235210   4.714   2.945   2.527 -0.8917  0.0336 -0.1510
11757TIP3   OH235211   2.191   7.581   3.077  0.2781  0.4085 -0.3888
11757TIP3    H135212   2.103   7.547   3.061  0.6695 -0.2020 -1.3499
11757TIP3    H235213   2.249   7.513   3.041  1.1389  0.7384  0.3572
11758TIP3   OH235214   5.476   0.632   0.522 -0.4893 -0.0495  0.0586
11758TIP3    H135215   5.497   0.639   0.615 -1.7160  0.1915  0.3337
11758TIP3    H235216   5.469   0.537   0.506 -0.2786 -0.0913  0.2119
11759TIP3   OH235217   5.699   6.364   1.549  0.4043  0.3569  0.2664
11759TIP3    H135218   5.688   6.395   1.460 -1.0824 -2.3900 -0.6177
11759TIP3    H235219   5.631   6.409   1.599  0.8958  1.4998 -0.0678
11760TIP3   OH235220   1.119   6.259   0.349  0.3305  0.1841  0.6293
11760TIP3    H135221   1.059   6.295   0.283  0.9521 -0.7339 -0.4884
11760TIP3    H235222   1.206   6.289   0.321  0.8936 -2.1192 -0.4089
11761TIP3   OH235223   7.795   7.012   0.490  0.2747 -0.4124 -0.4819
11761TIP3    H135224   7.768   7.103   0.500  0.7100 -0.3166 -0.1473
11761TIP3    H235225   7.890   7.016   0.474  0.1728 -0.7628 -1.2336
11762TIP3   OH235226   7.000   4.323   2.970  0.2536  0.5083 -0.5744
11762TIP3    H135227   6.973   4.388   3.034  1.2076 -0.1127  0.4825
11762TIP3    H235228   7.089   4.300   2.994  0.8523  0.6651 -2.4715
11763TIP3   OH235229   8.238   2.260   4.168 -0.1528  0.1922 -0.2714
11763TIP3    H135230   8.166   2.323   4.166  0.1999  0.6013 -0.3004
11763TIP3    H235231   8.247   2.238   4.261 -0.0778  0.4269 -0.2200
11764TIP3   OH235232   2.779   7.637   4.095 -0.4042  0.2130  0.2139
11764TIP3    H135233   2.735   7.620   4.012 -0.1747  0.0581  0.1268
11764TIP3    H235234   2.781   7.553   4.140 -0.1952  0.2210  0.2196
11765TIP3   OH235235   2.148   5.130   4.832 -0.1276  0.1691  0.5047
11765TIP3    H135236   2.153   5.062   4.765 -0.5726 -2.0425  2.6091
11765TIP3    H235237   2.198   5.203   4.795  2.2932 -2.0545 -0.9730
11766TIP3   OH235238   0.940   3.456   4.537 -0.1458 -0.4957  0.1870
11766TIP3    H135239   0.973   3.422   4.454  0.7112 -1.5993  0.9500
11766TIP3    H235240   1.010   3.440   4.599 -1.4160 -1.2553  1.4795
11767TIP3   OH235241   6.515   3.906   0.968  0.0807  0.6563  0.3269
11767TIP3    H135242   6.561   3.827   0.995  2.2611  1.9388  0.6279
11767TIP3    H235243   6.574   3.977   0.993 -0.7030  2.2480 -2.0159
11768TIP3   OH235244   6.799   1.868   5.757  0.1262  0.6484  0.1696
11768TIP3    H135245   6.892   1.866   5.780 -0.0080  0.2283  0.7061
11768TIP3    H235246   6.758   1.807   5.818 -0.6170  1.4074  0.4514
11769TIP3   OH235247   4.187   6.705   4.907 -0.0697 -0.1759  0.0501
11769TIP3    H135248   4.265   6.673   4.954 -0.6781 -2.2216 -0.2333
11769TIP3    H235249   4.155   6.629   4.860 -1.6075  0.9300 -0.7674
11770TIP3   OH235250   3.815   4.090   6.478 -0.0780 -0.4567 -0.1733
11770TIP3    H135251   3.743   4.143   6.443 -1.5371 -3.7985 -2.8448
11770TIP3    H235252   3.892   4.117   6.427  0.2811  1.9392  1.5050
11771TIP3   OH235253   6.316   2.810   4.192 -0.2723  0.5557  0.0848
11771TIP3    H135254   6.409   2.826   4.173  0.2911 -1.1959  1.1216
11771TIP3    H235255   6.279   2.897   4.207  1.4289  1.2357  0.5706
11772TIP3   OH235256   5.597   0.098   5.492  0.1523  0.0047  0.1409
11772TIP3    H135257   5.571   0.006   5.483 -0.4857 -0.1291  2.6303
11772TIP3    H235258   5.514   0.144   5.509  0.5042  1.0062 -0.8010
11773TIP3   OH235259   7.713   1.421   0.701 -0.2224 -0.4926  0.3889
11773TIP3    H135260   7.754   1.494   0.655 -1.7915 -0.0398 -0.3466
11773TIP3    H235261   7.619   1.429   0.682 -0.7886 -1.0179  2.6565
11774TIP3   OH235262   1.038   5.836   3.427 -0.4978 -0.4767 -0.3538
11774TIP3    H135263   0.967   5.787   3.467 -0.4904 -0.4103 -0.2601
11774TIP3    H235264   1.081   5.773   3.368 -1.9386  0.0335 -2.0529
11775TIP3   OH235265   4.672   2.296   6.601 -0.5379 -0.6258  0.3047
11775TIP3    H135266   4.593   2.339   6.569 -0.5215  0.0545  1.1375
11775TIP3    H235267   4.640   2.221   6.651 -0.6200 -0.7927  0.0050
11776TIP3   OH235268   7.849   6.305   3.178  0.6058  0.2706 -0.2186
11776TIP3    H135269   7.826   6.373   3.114 -0.6860  0.1470  0.1055
11776TIP3    H235270   7.924   6.261   3.138 -0.1840  0.1752 -1.6840
11777TIP3   OH235271   6.216   4.986   1.033 -0.2956 -0.4459 -0.1322
11777TIP3    H135272   6.124   4.984   1.006 -0.1534 -3.3282 -0.7359
11777TIP3    H235273   6.261   5.030   0.962 -1.1813  1.1205  0.2273
11778TIP3   OH235274   5.636   2.374   3.711  0.6013  0.2495  0.0503
11778TIP3    H135275   5.670   2.457   3.679  0.3656 -0.1751 -1.3658
11778TIP3    H235276   5.542   2.389   3.724  0.5172  0.1425 -0.4276
11779TIP3   OH235277   3.121   1.305   0.484 -0.2329  0.2172  0.8555
11779TIP3    H135278   3.153   1.262   0.563 -0.3719  1.2477  1.4914
11779TIP3    H235279   3.160   1.393   0.487  2.8499 -0.8450 -2.1359
11780TIP3   OH235280   8.166   1.955   3.902 -0.0010  0.0027 -0.4163
11780TIP3    H135281   8.148   2.047   3.885 -1.5531 -0.3035 -0.5405
11780TIP3    H235282   8.135   1.940   3.991 -2.1396 -0.9537 -1.2553
11781TIP3   OH235283   1.125   7.906   4.495  0.0702 -0.1406  0.3368
11781TIP3    H135284   1.143   7.876   4.406  2.8442  0.5753  0.5401
11781TIP3    H235285   1.111   7.825   4.545 -0.0221 -0.6342 -0.4695
11782TIP3   OH235286   6.029   5.131   4.283 -0.4632  0.0990 -0.2034
11782TIP3    H135287   6.083   5.191   4.231  2.6194 -0.4956  2.0143
11782TIP3    H235288   5.973   5.189   4.334 -2.4858  0.7266 -2.9499
11783TIP3   OH235289   8.043   0.189   4.839 -0.1141 -0.1075 -0.0242
11783TIP3    H135290   8.061   0.222   4.751 -1.6372  0.7788 -0.0232
11783TIP3    H235291   8.115   0.225   4.892  0.9016 -0.7708 -0.8969
11784TIP3   OH235292   0.069   6.674   0.341 -0.2159 -0.2993 -0.3855
11784TIP3    H135293   0.016   6.713   0.410 -1.4553 -1.7418 -0.4593
11784TIP3    H235294   0.091   6.747   0.283  0.1762  0.7915  1.0721
11785TIP3   OH235295   2.682   6.023   1.137 -0.0069 -0.2576 -0.4084
11785TIP3    H135296   2.768   5.983   1.153  0.6925  1.2051 -0.3541
11785TIP3    H235297   2.696   6.116   1.154 -1.7785 -0.0821  0.2156
11786TIP3   OH235298   4.727   7.707   5.974 -0.1242  0.6262 -0.2699
11786TIP3    H135299   4.762   7.781   5.925 -0.9307  1.8692  0.9444
11786TIP3    H235300   4.652   7.743   6.020 -0.4149 -0.9192  0.5154
11787TIP3   OH235301   5.671   5.410   3.414 -0.4899  0.0554 -0.0409
11787TIP3    H135302   5.593   5.428   3.362  0.4828  0.6764 -1.3470
11787TIP3    H235303   5.646   5.337   3.471 -2.2808  0.8275  0.2039
11788TIP3   OH235304   3.501   1.963   5.731  0.0620 -0.6313  0.0534
11788TIP3    H135305   3.416   1.962   5.687 -0.3890  2.5380  0.6115
11788TIP3    H235306   3.565   1.967   5.660 -0.3948 -0.4407 -0.3537
11789TIP3   OH235307   0.685   7.461   3.765  0.3155  0.5141 -0.0221
11789TIP3    H135308   0.689   7.450   3.860 -0.1280 -0.2514 -0.0809
11789TIP3    H235309   0.698   7.373   3.731  0.5997  0.8082 -0.6811
11790TIP3   OH235310   3.516   0.503   6.543  0.5636 -0.5244  0.3198
11790TIP3    H135311   3.569   0.503   6.623 -0.7346  2.8645  1.3799
11790TIP3    H235312   3.575   0.539   6.476  1.0907 -1.5741  0.2121
11791TIP3   OH235313   4.231   1.663   0.801 -0.2739  0.2271  0.0972
11791TIP3    H135314   4.206   1.709   0.721  1.7890 -0.2731 -0.9057
11791TIP3    H235315   4.262   1.732   0.859 -1.7579  0.5914  0.5011
11792TIP3   OH235316   6.391   4.132   5.755 -0.8326 -0.9353  0.1619
11792TIP3    H135317   6.308   4.179   5.768 -0.7758 -0.7383 -0.1622
11792TIP3    H235318   6.425   4.167   5.673  0.9024  0.9582  1.6019
11793TIP3   OH235319   3.124   6.186   2.472  0.2264  0.0320 -0.6048
11793TIP3    H135320   3.110   6.096   2.503 -0.3315 -0.1211 -1.2649
11793TIP3    H235321   3.219   6.193   2.460  0.3911 -0.0957  0.5385
11794TIP3   OH235322   6.653   0.020   6.753  0.3212  0.5954  0.5075
11794TIP3    H135323   6.630  -0.072   6.770  1.0609  0.4656  0.8355
11794TIP3    H235324   6.580   0.070   6.790 -0.0230  0.1486  0.4477
11795TIP3   OH235325   4.944   6.629   3.855  0.0556 -0.5522  1.1872
11795TIP3    H135326   4.906   6.709   3.819 -0.5745 -1.9663 -1.5596
11795TIP3    H235327   4.882   6.600   3.922 -1.0203 -0.0729  0.4160
11796TIP3   OH235328   1.187   1.320   6.769  0.1789  0.4122 -0.3612
11796TIP3    H135329   1.165   1.372   6.691  0.5907  0.6027 -0.3527
11796TIP3    H235330   1.149   1.370   6.842 -1.8481 -0.7090 -0.5825
11797TIP3   OH235331   7.954   6.906   5.148  0.5126 -0.4028 -0.6303
11797TIP3    H135332   8.021   6.975   5.149 -0.6031  0.7480 -1.3585
11797TIP3    H235333   7.964   6.864   5.062  0.0630  0.0435 -0.9097
11798TIP3   OH235334   6.040   0.476   2.517  0.2651  0.0871 -0.0753
11798TIP3    H135335   6.092   0.545   2.558  0.6972 -0.3627  0.1546
11798TIP3    H235336   5.953   0.513   2.507  0.2905  0.3985  0.7627
11799TIP3   OH235337   1.496   0.746   0.245  0.1576  0.2977 -0.1932
11799TIP3    H135338   1.461   0.835   0.237 -0.8975 -0.0091  0.7982
11799TIP3    H235339   1.508   0.717   0.154  2.2331  2.0590 -0.5671
11800TIP3   OH235340   4.167   7.887   1.662 -0.2884  0.4589 -0.1220
11800TIP3    H135341   4.179   7.930   1.578 -1.3031 -1.5763 -1.3859
11800TIP3    H235342   4.224   7.811   1.659  0.3192  0.8119  1.4180
11801TIP3   OH235343   5.196   7.510   5.782  0.1607 -0.3372  0.2584
11801TIP3    H135344   5.104   7.503   5.807  0.1534  0.6617  0.5553
11801TIP3    H235345   5.243   7.521   5.864  0.3017  1.3248  0.0014
11802TIP3   OH235346   8.144   5.264   6.464 -0.0414  0.7065 -0.1109
11802TIP3    H135347   8.141   5.234   6.555 -1.5400 -0.8378 -0.6149
11802TIP3    H235348   8.235   5.293   6.452  0.8383 -1.2722  1.1977
11803TIP3   OH235349   4.500   2.034   5.265  0.2174  0.1499  0.1622
11803TIP3    H135350   4.505   1.949   5.221  1.0195 -0.0442  0.6168
11803TIP3    H235351   4.537   2.095   5.202  0.5056  0.0155  0.1991
11804TIP3   OH235352   2.919   4.220   0.362 -0.1193 -0.5322  0.5436
11804TIP3    H135353   2.850   4.286   0.368  1.6782  1.3126  3.6893
11804TIP3    H235354   2.997   4.269   0.337  0.5737 -2.1858 -0.7264
11805TIP3   OH235355   4.098   7.551   0.693 -0.0846  0.1741  0.6539
11805TIP3    H135356   4.134   7.622   0.640  3.1689 -0.5353  1.6778
11805TIP3    H235357   4.041   7.596   0.756 -2.2321  1.2394 -1.8745
11806TIP3   OH235358   3.680   2.590   4.765 -0.5463  0.1346  0.5817
11806TIP3    H135359   3.650   2.599   4.856 -2.6204  0.2703 -0.0708
11806TIP3    H235360   3.760   2.538   4.772 -1.7776 -1.7041  2.3382
11807TIP3   OH235361   1.928   4.543   5.657  0.1872  0.1980  0.4421
11807TIP3    H135362   1.978   4.467   5.627  1.1007  1.0125 -0.1678
11807TIP3    H235363   1.937   4.541   5.752 -0.6761 -1.0280  0.5242
11808TIP3   OH235364   6.974   1.946   2.495 -0.4675 -0.5229 -0.2629
11808TIP3    H135365   6.993   1.858   2.529  0.9059  0.3725  1.4339
11808TIP3    H235366   7.022   1.950   2.412  0.6193 -0.9125  0.3253
11809TIP3   OH235367   4.401   4.624   2.186 -0.2917 -0.5663 -0.3437
11809TIP3    H135368   4.348   4.700   2.162 -1.1325 -0.5086  1.5667
11809TIP3    H235369   4.459   4.654   2.255 -1.1505 -1.8067  0.9708
11810TIP3   OH235370   2.165   2.270   5.892  0.8435 -0.2726  0.1616
11810TIP3    H135371   2.172   2.351   5.943 -1.8648  0.0265  0.1619
11810TIP3    H235372   2.167   2.200   5.957  0.6881 -0.0830  0.3692
11811TIP3   OH235373   0.891   4.126   3.383  0.3598 -0.1438  0.8414
11811TIP3    H135374   0.846   4.189   3.326 -0.1975 -1.2808 -0.0290
11811TIP3    H235375   0.983   4.152   3.379  0.5354 -0.8786 -1.5852
11812TIP3   OH235376   3.616   0.171   2.631  0.3229  0.1710 -0.0128
11812TIP3    H135377   3.533   0.158   2.585 -1.0704  0.3901  2.2854
11812TIP3    H235378   3.655   0.084   2.635 -0.2364 -0.1005 -0.3142
11813TIP3   OH235379   4.170   2.916   6.463  0.4401  0.3308 -0.4755
11813TIP3    H135380   4.145   2.969   6.538  0.0833  0.7981 -0.9141
11813TIP3    H235381   4.093   2.917   6.406  0.2181 -1.1458 -0.2404
11814TIP3   OH235382   0.558   1.503   3.861  0.1111 -0.0584  0.8246
11814TIP3    H135383   0.481   1.550   3.891  0.1265  1.7546 -1.6606
11814TIP3    H235384   0.624   1.571   3.847  0.8725 -1.0459 -0.7684
11815TIP3   OH235385   2.861   1.572   0.298 -0.1722  0.2160  0.1505
11815TIP3    H135386   2.789   1.630   0.272  0.6972  1.8385  1.1494
11815TIP3    H235387   2.859   1.501   0.234 -1.2964  1.3498 -1.1573
11816TIP3   OH235388   5.548   4.706   4.389  0.1769 -0.2499 -0.5457
11816TIP3    H135389   5.524   4.708   4.296  2.4764 -0.9613 -1.2105
11816TIP3    H235390   5.548   4.798   4.415 -1.7509 -0.1135 -0.8448
11817TIP3   OH235391   0.600   5.397   1.832 -0.2197  0.4591  0.3916
11817TIP3    H135392   0.647   5.343   1.769  0.6347  1.2385  0.3329
11817TIP3    H235393   0.540   5.337   1.876 -0.4512 -0.1969 -0.7971
11818TIP3   OH235394   2.313   1.529   0.443  0.3384 -0.6389  0.0164
11818TIP3    H135395   2.328   1.585   0.520  1.9639 -2.9863  1.5401
11818TIP3    H235396   2.255   1.581   0.387  0.4877  1.8972  2.0050
11819TIP3   OH235397   2.489   3.561   0.733 -0.1229  0.0812  0.1403
11819TIP3    H135398   2.585   3.562   0.730 -0.1231 -0.2410 -2.4901
11819TIP3    H235399   2.464   3.653   0.741  0.4076  0.2975 -0.6048
11820TIP3   OH235400   4.220   2.456   0.268 -0.5529 -0.3824  0.2760
11820TIP3    H135401   4.299   2.434   0.218 -0.0076 -1.3897  1.5367
11820TIP3    H235402   4.154   2.394   0.237 -0.9253  0.5552 -0.8845
11821TIP3   OH235403   3.060   0.652   3.229  0.4508 -0.0685 -0.0230
11821TIP3    H135404   3.084   0.560   3.239 -2.5870 -0.7424  3.0968
11821TIP3    H235405   3.104   0.696   3.302 -0.3698  0.3277  0.2523
11822TIP3   OH235406   2.357   2.244   5.656  0.0133 -0.2716  0.1143
11822TIP3    H135407   2.323   2.250   5.566  0.8219 -0.2783 -0.1941
11822TIP3    H235408   2.280   2.259   5.711 -0.6345 -0.9860 -0.5720
11823TIP3   OH235409   7.242   5.455   3.551  0.7580 -0.0279 -1.1485
11823TIP3    H135410   7.316   5.488   3.500  1.0734  0.1197 -0.6026
11823TIP3    H235411   7.193   5.534   3.576  0.9495 -0.0525 -0.6965
11824TIP3   OH235412   3.114   6.138   3.394  0.3052 -0.0046  0.3786
11824TIP3    H135413   3.095   6.231   3.378  3.0576  0.5908  0.1227
11824TIP3    H235414   3.155   6.137   3.480 -1.1032 -1.2622  1.0958
11825TIP3   OH235415   5.382   0.543   1.690  0.1901  0.1918 -0.4714
11825TIP3    H135416   5.338   0.518   1.771  0.0626  0.4095 -0.4744
11825TIP3    H235417   5.382   0.638   1.690  0.4498  0.1932 -0.5865
11826TIP3   OH235418   1.911   5.092   3.323 -0.0917  0.6110 -0.1194
11826TIP3    H135419   1.929   5.128   3.409 -0.8482  1.5643 -0.3368
11826TIP3    H235420   1.920   5.166   3.263 -1.2885  0.3702 -0.6294
11827TIP3   OH235421   5.088   2.822   5.771  0.8847 -0.7346  0.0518
11827TIP3    H135422   5.075   2.801   5.678  0.5150  0.4987 -0.1916
11827TIP3    H235423   5.081   2.738   5.816 -0.6350 -1.1379 -0.8587
11828TIP3   OH235424   0.045   2.081   5.065  0.2000  0.2786 -0.2453
11828TIP3    H135425   0.035   2.033   5.147  0.4067 -1.0538 -0.9675
11828TIP3    H235426   0.135   2.112   5.065  1.1257 -2.1577 -1.1730
11829TIP3   OH235427   6.283   5.745   2.979  0.3218 -0.0070  0.3126
11829TIP3    H135428   6.303   5.678   2.914  1.0471 -1.0630  1.5877
11829TIP3    H235429   6.344   5.816   2.959  0.1959 -0.1082 -0.4597
11830TIP3   OH235430   6.005   6.897   1.002  0.1580  0.3032 -0.2746
11830TIP3    H135431   5.955   6.975   0.979 -0.3600  0.3011  0.7952
11830TIP3    H235432   6.056   6.923   1.078  1.9616  0.3614 -1.4367
11831TIP3   OH235433   2.409   0.408   1.302 -0.3106 -0.7575 -0.1813
11831TIP3    H135434   2.338   0.461   1.336  0.0094 -0.1874 -0.3840
11831TIP3    H235435   2.423   0.441   1.213 -0.0385 -1.1120 -0.2742
11832TIP3   OH235436   2.939   5.044   5.097 -0.0804  0.3466  0.3434
11832TIP3    H135437   2.883   4.985   5.047 -0.8744  2.0951 -0.9357
11832TIP3    H235438   3.028   5.013   5.081 -0.5595 -2.5397  2.4768
11833TIP3   OH235439   5.751   6.664   4.787  0.1983 -0.0700 -0.3545
11833TIP3    H135440   5.730   6.750   4.749 -0.9967  1.0853  2.6035
11833TIP3    H235441   5.837   6.676   4.827 -0.4053  0.1207  0.9350
11834TIP3   OH235442   5.505   5.478   4.615  0.1559 -0.0886  0.3346
11834TIP3    H135443   5.459   5.560   4.633 -0.3550 -0.3832  0.3717
11834TIP3    H235444   5.480   5.456   4.525  0.6148  0.0029  0.1816
11835TIP3   OH235445   1.448   7.288   6.642  0.0986 -0.0766 -0.3693
11835TIP3    H135446   1.531   7.298   6.596  0.4457 -2.0481 -0.2673
11835TIP3    H235447   1.472   7.281   6.735 -0.2629  0.2130 -0.2504
11836TIP3   OH235448   0.229   6.114   1.037  0.4611 -0.1892 -0.2013
11836TIP3    H135449   0.246   6.173   1.111 -0.4507  0.4364 -0.4766
11836TIP3    H235450   0.192   6.035   1.078  1.5914 -0.5527  0.1579
11837TIP3   OH235451   5.088   6.014   1.333 -0.2678  0.0498 -0.0022
11837TIP3    H135452   5.031   6.002   1.409 -0.4531 -0.4322 -0.2137
11837TIP3    H235453   5.142   6.091   1.355  0.5776 -0.8397  1.1671
11838TIP3   OH235454   2.808   7.546   6.300  0.2128  0.0256  0.3137
11838TIP3    H135455   2.805   7.640   6.279  0.1851  0.1814  0.9656
11838TIP3    H235456   2.882   7.538   6.360  0.0746 -0.3322  0.4393
11839TIP3   OH235457   0.398   3.655   6.692  0.1310 -0.3855 -0.7669
11839TIP3    H135458   0.372   3.563   6.703 -1.0069  0.0864  0.9168
11839TIP3    H235459   0.492   3.655   6.710  0.7835 -1.6047 -3.5975
11840TIP3   OH235460   5.556   2.853   4.863 -0.4244 -0.8545  0.3055
11840TIP3    H135461   5.551   2.919   4.795  0.1686 -0.8274  0.2829
11840TIP3    H235462   5.570   2.770   4.816  1.7345 -0.6284  0.4268
11841TIP3   OH235463   2.448   5.084   2.003 -0.7236 -0.2831 -0.1758
11841TIP3    H135464   2.403   5.167   2.011  1.6443  1.3810 -2.3988
11841TIP3    H235465   2.540   5.104   2.023 -0.3926 -2.9044  1.4798
11842TIP3   OH235466   7.536   5.936   4.066 -0.4338  0.3693 -0.1211
11842TIP3    H135467   7.531   6.031   4.054  0.4371  0.4216 -0.1083
11842TIP3    H235468   7.470   5.901   4.006  0.6308  0.8728 -1.6298
11843TIP3   OH235469   7.782   0.095   1.946  0.2804  0.9175 -0.2074
11843TIP3    H135470   7.700   0.069   1.987 -0.5774 -0.0758 -2.4180
11843TIP3    H235471   7.840   0.020   1.961 -0.3195  0.1594 -1.4907
11844TIP3   OH235472   3.047   0.505   5.865 -0.4929  0.2529 -0.2405
11844TIP3    H135473   2.971   0.451   5.848  0.6031 -1.1148 -0.9904
11844TIP3    H235474   3.016   0.571   5.927 -2.3486 -0.0519 -0.7877
11845TIP3   OH235475   0.982   5.569   4.100 -0.3884 -0.0986  0.2982
11845TIP3    H135476   0.889   5.584   4.114 -0.1957  0.6798  0.7629
11845TIP3    H235477   1.024   5.653   4.118  0.0977  0.5415 -3.0491
11846TIP3   OH235478   1.788   7.094   4.465 -0.4449  0.2135 -0.0551
11846TIP3    H135479   1.774   7.053   4.380 -0.4657  0.1362 -0.0151
11846TIP3    H235480   1.764   7.186   4.452 -2.2648 -0.1555  0.3356
11847TIP3   OH235481   6.558   0.233   2.301  0.1228  0.0373 -0.4529
11847TIP3    H135482   6.476   0.281   2.302  0.5098  0.7511 -1.3538
11847TIP3    H235483   6.602   0.258   2.382  1.0983  2.6571 -1.6750
11848TIP3   OH235484   4.988   6.404   1.316 -0.8927 -0.6432  0.0016
11848TIP3    H135485   5.030   6.390   1.401  1.1977  3.5661 -0.0967
11848TIP3    H235486   4.895   6.417   1.337 -0.1707  2.0828  2.0220
11849TIP3   OH235487   4.756   0.104   0.072  0.1001  0.3310  0.1278
11849TIP3    H135488   4.812   0.181   0.072 -2.1477  2.1252 -1.7202
11849TIP3    H235489   4.712   0.106   0.157  1.0788  0.1934  0.6605
11850TIP3   OH235490   3.218   4.084   4.658  0.3655  0.8065  0.3013
11850TIP3    H135491   3.271   4.032   4.718 -1.3099  0.7708  1.8455
11850TIP3    H235492   3.188   4.158   4.710 -1.1844  0.7496 -0.4555
11851TIP3   OH235493   1.621   5.079   4.484  0.1531  0.3746  1.0410
11851TIP3    H135494   1.703   5.113   4.520  0.4431 -0.8323  1.5757
11851TIP3    H235495   1.600   5.004   4.539 -1.5281  0.8792  1.1354
11852TIP3   OH235496   2.011   3.357   6.428  0.1920 -0.3307 -0.3320
11852TIP3    H135497   2.038   3.337   6.338  0.1667 -2.2722  0.0485
11852TIP3    H235498   1.980   3.448   6.424 -0.4504 -0.5801 -2.4344
11853TIP3   OH235499   0.650   6.708   4.954 -0.7264  0.0110  0.5223
11853TIP3    H135500   0.562   6.671   4.947 -0.1229 -1.2768 -0.8316
11853TIP3    H235501   0.692   6.659   5.025  0.1249 -2.1816 -1.3713
11854TIP3   OH235502   7.392   5.788   6.468 -0.3866 -0.0822  0.1254
11854TIP3    H135503   7.446   5.728   6.416  0.1112 -0.1589  0.7202
11854TIP3    H235504   7.391   5.869   6.418  1.5957  0.4388  0.8356
11855TIP3   OH235505   2.083   0.759   6.058 -0.0207 -0.7054  0.8467
11855TIP3    H135506   2.128   0.843   6.064 -0.1367 -0.6304  0.6831
11855TIP3    H235507   2.007   0.768   6.116 -2.9097  1.1411 -2.7536
11856TIP3   OH235508   4.396   4.814   3.483  0.2357  0.2957  0.0729
11856TIP3    H135509   4.424   4.893   3.528 -0.0796 -1.0887  2.9335
11856TIP3    H235510   4.352   4.762   3.550 -1.1865 -1.5429 -2.1143
11857TIP3   OH235511   5.472   5.690   6.644  0.3721  0.2716  0.2870
11857TIP3    H135512   5.450   5.698   6.552 -0.5684  0.7183  0.5442
11857TIP3    H235513   5.507   5.601   6.653  1.0124  0.4223 -0.5942
11858TIP3   OH235514   2.060   6.870   2.495  0.6434 -0.1404  0.8688
11858TIP3    H135515   2.135   6.901   2.444  1.0837  0.4104  1.8329
11858TIP3    H235516   1.996   6.942   2.490  1.1006  0.3656  1.9251
11859TIP3   OH235517   4.787   0.344   5.218 -0.3204 -0.0490  0.1155
11859TIP3    H135518   4.724   0.293   5.270  1.4232 -0.5296  1.8495
11859TIP3    H235519   4.847   0.381   5.282  1.2155  0.3489 -1.4866
11860TIP3   OH235520   4.130   6.873   2.618 -0.4211 -0.0055  0.3400
11860TIP3    H135521   4.071   6.877   2.693  1.0347  0.2816  1.5070
11860TIP3    H235522   4.181   6.954   2.622  2.4664 -1.7126  1.4790
11861TIP3   OH235523   3.200   3.711   5.537 -0.3319  0.6672 -0.4383
11861TIP3    H135524   3.215   3.625   5.496  1.3480  0.0350  1.3224
11861TIP3    H235525   3.112   3.705   5.572 -0.5700  0.0020 -1.1121
11862TIP3   OH235526   1.058   1.537   6.643  0.3268 -0.2288  0.2646
11862TIP3    H135527   1.052   1.616   6.589  1.5276 -0.4418 -0.2186
11862TIP3    H235528   0.967   1.516   6.665  0.0159  1.6179  0.9155
11863TIP3   OH235529   5.139   4.567   2.567 -0.1035 -0.4817  0.0238
11863TIP3    H135530   5.224   4.585   2.607  0.4559  1.6320 -1.9459
11863TIP3    H235531   5.157   4.563   2.473 -2.3688  1.6431 -0.6028
11864TIP3   OH235532   1.078   4.116   5.156 -0.3273  0.3924  0.6868
11864TIP3    H135533   1.018   4.065   5.212 -1.6425  0.8691 -0.2319
11864TIP3    H235534   1.134   4.050   5.115 -2.1455 -0.4043 -0.6511
11865TIP3   OH235535   8.268   6.621   1.052  0.5842 -0.0426  0.1003
11865TIP3    H135536   8.259   6.570   0.972  2.1372 -1.5649  0.8342
11865TIP3    H235537   8.234   6.564   1.121 -1.0294  1.3709  0.5426
11866TIP3   OH235538   4.009   7.673   1.389  0.1007  0.2516  0.0587
11866TIP3    H135539   4.014   7.579   1.372  0.3973  0.0123  1.3340
11866TIP3    H235540   3.967   7.709   1.311 -2.6127 -1.2891  0.6662
11867TIP3   OH235541   3.384   3.472   2.363 -0.0875  0.0607  0.0329
11867TIP3    H135542   3.418   3.427   2.441 -0.1614  0.2321  0.1633
11867TIP3    H235543   3.388   3.565   2.385  1.3216  0.2010 -0.7387
11868TIP3   OH235544   4.623   2.456   5.703 -0.1461  0.3100  0.6677
11868TIP3    H135545   4.643   2.381   5.760  0.9063 -0.6333 -0.8577
11868TIP3    H235546   4.559   2.422   5.641 -0.0905  0.8430  0.3156
11869TIP3   OH235547   2.493   7.414   4.131 -0.1619 -0.2772 -0.2800
11869TIP3    H135548   2.580   7.447   4.154 -0.5380 -0.5048  1.6522
11869TIP3    H235549   2.436   7.449   4.199 -1.7857  0.6733 -2.0468
11870TIP3   OH235550   6.787   7.497   3.935  0.2188  0.0945 -0.0080
11870TIP3    H135551   6.880   7.513   3.947  0.4615 -0.6153 -0.7836
11870TIP3    H235552   6.768   7.420   3.989  0.1387  0.0961 -0.0320
11871TIP3   OH235553   7.767   4.900   4.397  0.2475  0.2562 -0.5598
11871TIP3    H135554   7.792   4.933   4.484  1.2668 -1.5842 -0.1060
11871TIP3    H235555   7.774   4.805   4.404 -0.9267 -0.0051 -2.3013
11872TIP3   OH235556   7.652   3.711   4.027 -0.3846 -0.0402  1.0684
11872TIP3    H135557   7.599   3.695   4.105 -2.3370 -2.5485 -0.6319
11872TIP3    H235558   7.636   3.636   3.970  1.5499  1.2920 -1.4694
11873TIP3   OH235559   0.310   4.638   1.960 -0.0191 -0.2552  0.5352
11873TIP3    H135560   0.373   4.707   1.982 -0.3981 -0.0856  1.1226
11873TIP3    H235561   0.240   4.649   2.024 -0.5133 -0.6198  0.0598
11874TIP3   OH235562   5.095   3.436   0.851  0.5859  0.0529 -0.3203
11874TIP3    H135563   5.046   3.465   0.928 -0.9309  0.7452 -1.4982
11874TIP3    H235564   5.080   3.341   0.848  1.5243 -0.1570  0.7932
11875TIP3   OH235565   6.660   6.885   1.733  0.8254 -0.4504 -0.5172
11875TIP3    H135566   6.623   6.905   1.648 -0.5588 -0.3444  0.0852
11875TIP3    H235567   6.755   6.896   1.722  0.6455 -0.2741 -1.9732
11876TIP3   OH235568   7.186   1.466   5.444 -0.4235  0.5768 -0.6645
11876TIP3    H135569   7.101   1.429   5.469 -0.5919  0.4390 -1.4074
11876TIP3    H235570   7.204   1.533   5.509  0.7651 -2.0196  1.9127
11877TIP3   OH235571   4.502   5.108   0.865  0.1484 -0.1123 -0.5819
11877TIP3    H135572   4.449   5.175   0.908 -0.6804 -1.2240  0.1881
11877TIP3    H235573   4.445   5.072   0.797  0.2205 -0.7060 -0.3346
11878TIP3   OH235574   3.475   1.911   6.418  0.4155  0.1106  0.7508
11878TIP3    H135575   3.499   1.990   6.370  1.7516 -0.4485  0.4426
11878TIP3    H235576   3.436   1.943   6.499  0.1248  1.0684  0.2496
11879TIP3   OH235577   4.227   4.231   1.018  0.3183  0.2610  0.5262
11879TIP3    H135578   4.224   4.175   0.940  0.8444 -1.1933  1.5057
11879TIP3    H235579   4.139   4.224   1.056 -0.0948  1.3748 -0.1833
11880TIP3   OH235580   6.876   5.314   3.179 -0.4102  0.5518 -0.2598
11880TIP3    H135581   6.882   5.257   3.256  0.6357 -1.7743 -1.9169
11880TIP3    H235582   6.782   5.320   3.162 -0.6641  1.1185  1.1610
11881TIP3   OH235583   6.998   0.803   5.275  0.4436  0.1938 -0.0127
11881TIP3    H135584   7.018   0.821   5.183  2.1928  0.7398  0.4365
11881TIP3    H235585   7.081   0.770   5.311 -0.4982 -1.0362  1.1264
11882TIP3   OH235586   6.667   6.439   0.060 -0.1617  0.4744  0.2996
11882TIP3    H135587   6.654   6.456  -0.034 -0.3564  0.8052  0.3836
11882TIP3    H235588   6.634   6.517   0.103 -0.6799  0.0592  0.6788
11883TIP3   OH235589   2.941   0.200   4.261  0.0289 -0.1773 -0.3451
11883TIP3    H135590   3.031   0.169   4.266 -0.6928 -2.3035  0.3485
11883TIP3    H235591   2.912   0.206   4.352 -0.7688 -0.2624 -0.5864
11884TIP3   OH235592   2.607   3.880   1.269 -0.0502 -0.1173 -0.4718
11884TIP3    H135593   2.604   3.965   1.312  0.1182 -0.7633  0.8830
11884TIP3    H235594   2.661   3.894   1.191 -0.1297  1.0314 -0.3385
11885TIP3   OH235595   2.689   6.747   6.157 -0.1918 -0.2622 -0.6653
11885TIP3    H135596   2.709   6.764   6.249 -0.4786 -1.8504 -0.2828
11885TIP3    H235597   2.641   6.825   6.128  0.3490  0.4788  0.3724
11886TIP3   OH235598   5.055   1.325   5.137 -0.2923 -0.0712 -0.0830
11886TIP3    H135599   5.018   1.331   5.049  1.3925 -1.9552 -1.0116
11886TIP3    H235600   5.149   1.337   5.124 -0.1708  1.5064  1.7658
11887TIP3   OH235601   4.957   1.938   6.509 -0.0426 -0.4700  0.2278
11887TIP3    H135602   4.984   1.868   6.450 -2.2949  0.3274 -1.9507
11887TIP3    H235603   4.886   1.900   6.561 -0.6761 -0.0908 -0.3414
11888TIP3   OH235604   5.835   2.615   1.117 -1.0624 -0.0865  0.2634
11888TIP3    H135605   5.748   2.634   1.083 -1.1655  0.4974  0.8278
11888TIP3    H235606   5.824   2.612   1.212 -0.3403  0.7423  0.3885
11889TIP3   OH235607   0.996   3.525   0.269  0.8059 -0.1091  0.2506
11889TIP3    H135608   0.901   3.516   0.275  0.7324  0.8665  0.6593
11889TIP3    H235609   1.029   3.435   0.276 -0.0727 -0.4365  0.2903
11890TIP3   OH235610   0.512   5.769   5.855 -0.1601 -0.1256  0.4652
11890TIP3    H135611   0.588   5.716   5.878  1.0006  0.1617 -2.2374
11890TIP3    H235612   0.536   5.858   5.881  1.6775  0.4211 -2.4966
11891TIP3   OH235613   4.974   4.429   0.922  0.1375  0.2090 -0.0905
11891TIP3    H135614   5.036   4.419   0.995  0.0925  0.2119 -0.0519
11891TIP3    H235615   5.012   4.375   0.852 -0.4337 -0.7642  0.3295
11892TIP3   OH235616   3.499   3.316   2.556 -0.4697  0.4290 -1.0921
11892TIP3    H135617   3.455   3.285   2.635 -1.1630  0.6197 -1.3999
11892TIP3    H235618   3.518   3.237   2.506  2.1925  0.0235  0.3497
11893TIP3   OH235619   1.313   2.847   5.828 -0.2905 -0.0502  0.3989
11893TIP3    H135620   1.282   2.890   5.748 -0.2580 -1.8728 -0.6572
11893TIP3    H235621   1.404   2.876   5.838  0.1580 -0.8274 -1.0477
11894TIP3   OH235622   5.365   5.405   1.574 -0.2779 -0.6409  0.3978
11894TIP3    H135623   5.429   5.388   1.643  0.3175  0.2829  0.1112
11894TIP3    H235624   5.412   5.386   1.493  0.1887  1.4555  0.1020
11895TIP3   OH235625   3.735   2.181   4.315 -0.1004  0.7371  0.3699
11895TIP3    H135626   3.662   2.243   4.305 -0.4645 -0.0660 -4.2085
11895TIP3    H235627   3.698   2.096   4.291  2.3938  0.5132 -3.5397
11896TIP3   OH235628   8.387   2.522   2.775  0.1345  0.6524  0.1131
11896TIP3    H135629   8.301   2.506   2.736  0.7460 -2.0254 -0.3257
11896TIP3    H235630   8.444   2.539   2.700  0.7475 -1.7186 -0.0397
11897TIP3   OH235631   4.751   1.523   3.624 -0.3346 -0.0842  0.3722
11897TIP3    H135632   4.696   1.479   3.559 -1.9684  0.5764  1.2406
11897TIP3    H235633   4.767   1.610   3.587  2.5961 -1.1765 -1.1805
11898TIP3   OH235634   7.724   5.464   5.331  0.3232  0.2026 -0.4854
11898TIP3    H135635   7.763   5.535   5.382 -2.7081  1.2370  0.6255
11898TIP3    H235636   7.743   5.385   5.382 -0.4871  0.9003  0.9508
11899TIP3   OH235637   2.907   6.324   0.133 -0.2787  0.1017 -0.7547
11899TIP3    H135638   2.959   6.245   0.116  0.2660  0.5653 -1.3381
11899TIP3    H235639   2.961   6.376   0.193 -1.2369 -0.5533  0.7224
11900TIP3   OH235640   3.875   2.472   1.884  0.0334 -0.8548 -0.4783
11900TIP3    H135641   3.969   2.468   1.901 -0.1781  1.1641  1.5912
11900TIP3    H235642   3.867   2.522   1.803  0.7095 -0.2293 -0.1632
11901TIP3   OH235643   4.550   5.259   6.740 -0.2181 -0.0536  0.1711
11901TIP3    H135644   4.500   5.338   6.764 -0.3647  0.2407 -1.0205
11901TIP3    H235645   4.493   5.214   6.677 -1.2550 -2.4411  2.6474
11902TIP3   OH235646   2.437   5.832   4.892 -0.6318 -0.6557 -0.2515
11902TIP3    H135647   2.353   5.860   4.928 -0.9862 -0.0596 -1.4688
11902TIP3    H235648   2.437   5.866   4.802  0.3082 -1.8657 -0.7429
11903TIP3   OH235649   7.245   7.252   1.007 -0.1819 -0.2621  0.1847
11903TIP3    H135650   7.327   7.214   0.975 -1.3430 -0.6846 -2.6071
11903TIP3    H235651   7.260   7.346   1.008  0.8156 -0.4122  1.3033
11904TIP3   OH235652   5.352   1.744   2.422 -0.1550 -0.3335 -0.5449
11904TIP3    H135653   5.441   1.761   2.453 -0.9094  0.3312  1.3775
11904TIP3    H235654   5.313   1.687   2.488 -1.4841  0.2426 -0.7994
11905TIP3   OH235655   7.091   1.738   4.059  0.1204 -0.6251  0.5056
11905TIP3    H135656   7.141   1.762   4.137  1.2621  0.4884 -0.5297
11905TIP3    H235657   7.073   1.644   4.071  1.4008 -0.7848  1.4966
11906TIP3   OH235658   5.157   6.697   0.107 -0.0163 -0.0713 -0.2573
11906TIP3    H135659   5.244   6.724   0.079  0.1249 -0.9384 -0.6956
11906TIP3    H235660   5.100   6.717   0.032  0.3412 -2.2809 -1.1890
11907TIP3   OH235661   3.499   4.411   3.115  0.0056 -0.1325 -0.1772
11907TIP3    H135662   3.561   4.464   3.065  1.4350 -0.5949  1.0393
11907TIP3    H235663   3.553   4.346   3.160 -1.3815 -0.6695  0.7995
11908TIP3   OH235664   7.082   4.802   4.875  0.0727  0.0626 -0.3769
11908TIP3    H135665   7.008   4.821   4.818 -0.6453 -2.2566 -0.3219
11908TIP3    H235666   7.152   4.775   4.816  0.6741  1.4971 -0.3712
11909TIP3   OH235667   3.825   6.221   0.720  0.8398 -0.2254 -0.2741
11909TIP3    H135668   3.847   6.282   0.790 -0.3992  0.0677 -0.1216
11909TIP3    H235669   3.876   6.143   0.740  1.9225  0.4997 -0.0909
11910TIP3   OH235670   6.221   2.176   5.504  0.1854  0.4743  0.3940
11910TIP3    H135671   6.184   2.256   5.466  0.7084 -0.0536 -1.3211
11910TIP3    H235672   6.145   2.123   5.526 -0.1777  1.4817  1.7168
11911TIP3   OH235673   1.630   7.619   4.315 -0.1813 -0.3604 -0.1332
11911TIP3    H135674   1.548   7.571   4.310 -2.0859  2.5635  0.0690
11911TIP3    H235675   1.633   7.670   4.234  2.2546 -1.5122 -0.8329
11912TIP3   OH235676   3.628   4.289   3.451 -0.0119  0.2765  0.1991
11912TIP3    H135677   3.583   4.374   3.448  0.2134  0.4290  0.9218
11912TIP3    H235678   3.606   4.253   3.536  1.0543  0.2583  0.4798
11913TIP3   OH235679   6.836   6.383   6.758 -0.5209  0.4769 -0.2451
11913TIP3    H135680   6.791   6.404   6.676 -0.5914  0.1870 -0.2828
11913TIP3    H235681   6.877   6.465   6.785 -0.6903  0.6303 -0.4509
11914TIP3   OH235682   7.594   2.787   4.602 -0.4108 -0.4417  0.0894
11914TIP3    H135683   7.633   2.715   4.552 -0.1909  0.8351 -1.6912
11914TIP3    H235684   7.553   2.745   4.678  3.0349 -2.0482  1.2669
11915TIP3   OH235685   3.459   5.484   5.443 -0.7673  0.1855 -0.6430
11915TIP3    H135686   3.512   5.527   5.377 -0.2952 -0.5386 -0.7527
11915TIP3    H235687   3.445   5.395   5.409 -0.2347 -0.3021  0.3730
11916TIP3   OH235688   1.458   3.057   0.539 -0.6543  0.0420  0.3019
11916TIP3    H135689   1.453   3.023   0.629  0.7058  0.5859  0.6034
11916TIP3    H235690   1.499   2.987   0.490 -1.2270 -0.1803  0.1281
11917TIP3   OH235691   4.224   4.605   6.837 -0.2388  0.7946  0.5281
11917TIP3    H135692   4.184   4.669   6.778  0.5873  0.2010 -0.7076
11917TIP3    H235693   4.161   4.533   6.842  0.5433 -0.0487 -1.2497
11918TIP3   OH235694   4.994   4.823   2.128 -0.2236  0.0425  0.0993
11918TIP3    H135695   4.956   4.752   2.179 -1.0900 -0.2848 -0.9598
11918TIP3    H235696   5.087   4.824   2.152 -0.4064 -0.8029  0.8487
11919TIP3   OH235697   0.757   1.030   5.881 -0.3342  0.4074  0.0423
11919TIP3    H135698   0.781   1.065   5.966  0.9838  2.6024 -1.1491
11919TIP3    H235699   0.775   0.936   5.888 -0.1152  0.5558  2.0989
11920TIP3   OH235700   4.887   1.972   6.041 -0.2312  0.7455 -0.2607
11920TIP3    H135701   4.813   1.985   6.100  0.7580  2.2371  0.7055
11920TIP3    H235702   4.917   2.061   6.020  1.8483  0.1814  0.1142
11921TIP3   OH235703   1.432   6.472   6.453  0.3350 -0.1372  0.2404
11921TIP3    H135704   1.453   6.537   6.521  0.5659 -0.0335  0.0699
11921TIP3    H235705   1.424   6.523   6.373  0.1971 -0.2789  0.1652
11922TIP3   OH235706   1.201   7.720   0.759  0.6195 -0.1609  0.1237
11922TIP3    H135707   1.140   7.732   0.832 -0.0028 -1.8160 -0.0858
11922TIP3    H235708   1.274   7.672   0.797  1.2131  0.6747  0.0715
11923TIP3   OH235709   5.060   4.485   5.516  0.4659 -0.3002  0.2431
11923TIP3    H135710   5.029   4.508   5.429 -1.3106 -1.9021  0.3895
11923TIP3    H235711   5.043   4.563   5.569  2.2640  0.9738 -0.9213
11924TIP3   OH235712   6.604   6.644   6.712  0.0066  0.0114 -0.0307
11924TIP3    H135713   6.659   6.623   6.787 -0.9036 -0.2249  0.5952
11924TIP3    H235714   6.654   6.615   6.636  1.0720  0.5209  0.4545
11925TIP3   OH235715   6.087   5.898   1.277 -0.0694 -0.4983 -0.1761
11925TIP3    H135716   6.054   5.879   1.189  1.3289 -0.6094 -0.6887
11925TIP3    H235717   6.115   5.813   1.311 -1.6520 -0.6572  0.8580
11926TIP3   OH235718   6.444   3.154   2.847  0.2171  0.3381 -0.0407
11926TIP3    H135719   6.448   3.142   2.942  1.0384  0.1019 -0.0942
11926TIP3    H235720   6.366   3.107   2.819  0.7517 -0.8114  0.3448
11927TIP3   OH235721   5.284   2.229   1.642  0.8842 -0.4657  0.0013
11927TIP3    H135722   5.308   2.167   1.574 -0.5218 -1.1198  0.0618
11927TIP3    H235723   5.288   2.179   1.723 -0.0497 -0.4336  0.0776
11928TIP3   OH235724   4.236   4.463   1.824  0.0134 -0.2266  0.1469
11928TIP3    H135725   4.168   4.496   1.765  1.7154  1.9428 -0.7360
11928TIP3    H235726   4.191   4.453   1.908 -1.2840  1.7693 -0.2325
11929TIP3   OH235727   6.414   7.663   6.647 -0.6107  0.2904 -0.2099
11929TIP3    H135728   6.500   7.656   6.607  0.0766  0.3930  1.2064
11929TIP3    H235729   6.357   7.612   6.590  0.5505 -0.5189 -0.6799
11930TIP3   OH235730   6.109   1.731   4.085  0.1415  0.4538 -0.3536
11930TIP3    H135731   6.055   1.742   4.164 -0.0538 -0.7636 -0.3105
11930TIP3    H235732   6.064   1.784   4.019 -1.3546 -0.8411 -0.4215
11931TIP3   OH235733   7.318   0.701   4.698  0.4137  0.4315  0.6325
11931TIP3    H135734   7.332   0.795   4.698  0.4340  0.4313  0.0758
11931TIP3    H235735   7.343   0.672   4.786 -0.8009  1.1210  1.2289
11932TIP3   OH235736   0.651   4.852   4.146  0.4430 -0.1952  0.2936
11932TIP3    H135737   0.723   4.911   4.121 -0.7948  1.5306  0.6314
11932TIP3    H235738   0.648   4.787   4.076 -0.8493  2.6218 -2.5350
11933TIP3   OH235739   2.951   2.058   5.199 -0.0119 -0.1718 -0.5274
11933TIP3    H135740   2.888   1.997   5.161 -0.8315  0.4583 -0.1999
11933TIP3    H235741   2.987   2.010   5.275 -1.8857  0.3365  0.7482
11934TIP3   OH235742   2.126   1.705   3.223  0.4437  0.0008  0.7683
11934TIP3    H135743   2.151   1.703   3.130  1.1222  0.7473  0.9287
11934TIP3    H235744   2.190   1.648   3.266 -0.3794 -1.0266  0.6784
11935TIP3   OH235745   5.737   0.594   6.534  0.1183 -0.4195  0.1781
11935TIP3    H135746   5.770   0.579   6.445 -1.6370 -0.1655 -0.5696
11935TIP3    H235747   5.703   0.683   6.532  0.5073 -0.2334  1.2763
11936TIP3   OH235748   7.246   1.802   1.201 -0.5059 -0.6283  0.9970
11936TIP3    H135749   7.250   1.835   1.111 -1.9385 -0.5511  0.9320
11936TIP3    H235750   7.262   1.708   1.192  2.2602 -0.2261  1.0313
11937TIP3   OH235751   2.675   7.411   3.605 -0.0466 -0.1174 -0.0581
11937TIP3    H135752   2.764   7.440   3.585  0.0707 -0.6770 -0.3720
11937TIP3    H235753   2.662   7.334   3.549 -0.2742 -0.7864  0.8869
11938TIP3   OH235754   5.416   0.234   1.904 -0.1472 -0.3392 -0.4871
11938TIP3    H135755   5.356   0.159   1.903 -0.5804  0.0072 -1.2089
11938TIP3    H235756   5.395   0.281   1.984 -0.4141 -0.5567 -0.4271
11939TIP3   OH235757   5.891   6.530   5.265  0.1549 -0.2962  0.4764
11939TIP3    H135758   5.921   6.441   5.282 -0.2521 -0.2764  1.3287
11939TIP3    H235759   5.966   6.586   5.285 -0.1783 -0.3063  1.8859
11940TIP3   OH235760   7.528   1.903   3.878  0.3735  0.5383 -0.3542
11940TIP3    H135761   7.516   1.812   3.851  0.9431  0.4771 -0.4122
11940TIP3    H235762   7.614   1.905   3.919  0.6565  1.1900 -0.9532
11941TIP3   OH235763   6.430   6.322   1.135 -0.0990 -0.1416 -0.1093
11941TIP3    H135764   6.489   6.344   1.207 -2.5152  1.7654  1.4271
11941TIP3    H235765   6.432   6.227   1.131  0.1876 -0.3163  2.4602
11942TIP3   OH235766   6.507   4.085   4.799 -0.2493 -0.2903  0.2625
11942TIP3    H135767   6.542   4.085   4.889 -1.2162 -2.9562  0.7411
11942TIP3    H235768   6.412   4.089   4.810 -0.4689 -2.2070 -0.4948
11943TIP3   OH235769   2.269   0.907   0.559 -0.2372  0.1691  0.5236
11943TIP3    H135770   2.300   0.908   0.650  0.3781 -1.4815  0.3643
11943TIP3    H235771   2.232   0.820   0.547  0.1170  0.1910 -0.9392
11944TIP3   OH235772   6.274   3.597   4.630 -0.1422  0.3419 -0.2868
11944TIP3    H135773   6.273   3.504   4.654 -1.4609 -0.0572 -1.6519
11944TIP3    H235774   6.356   3.631   4.665 -0.5285 -0.8619  1.9287
11945TIP3   OH235775   8.321   0.316   2.228  0.0312  0.5770  0.5465
11945TIP3    H135776   8.309   0.283   2.139 -1.6552  1.7081  0.3039
11945TIP3    H235777   8.409   0.353   2.229  0.4476 -0.3574 -0.3407
11946TIP3   OH235778   1.097   0.031   5.822 -0.5630 -0.0942 -0.2274
11946TIP3    H135779   1.127   0.072   5.741 -1.9145  0.1122 -0.6395
11946TIP3    H235780   1.121   0.093   5.891 -0.1958  0.1354 -0.5583
11947TIP3   OH235781   6.217   1.116   6.656 -0.0757 -0.1134 -0.2535
11947TIP3    H135782   6.216   1.095   6.750  0.7622  0.0184 -0.2080
11947TIP3    H235783   6.304   1.089   6.626 -0.0555  0.5621 -0.8256
11948TIP3   OH235784   1.845   4.386   1.526 -0.0290 -0.3535  0.0220
11948TIP3    H135785   1.801   4.423   1.448  1.9170 -0.3882 -1.1537
11948TIP3    H235786   1.888   4.462   1.566  2.2542 -0.8788 -1.2348
11949TIP3   OH235787   5.900   3.201   2.242 -0.5510  0.7445 -0.3026
11949TIP3    H135788   5.972   3.251   2.205  0.8689  1.3914  2.9267
11949TIP3    H235789   5.903   3.116   2.198  0.8280  1.4753 -1.6865
11950TIP3   OH235790   2.157   2.445   6.233 -0.1676 -0.4561  0.2250
11950TIP3    H135791   2.122   2.478   6.150 -0.2866 -0.3182  0.3291
11950TIP3    H235792   2.094   2.474   6.299 -0.5031 -1.2571  0.2711
11951TIP3   OH235793   8.098   4.915   3.663 -0.1165  0.1787  0.0355
11951TIP3    H135794   8.010   4.926   3.701  0.3512 -0.0091  1.2340
11951TIP3    H235795   8.152   4.885   3.737  1.0438  0.6762 -0.5843
11952TIP3   OH235796   4.202   2.142   1.208 -0.4646 -0.6382 -0.1000
11952TIP3    H135797   4.269   2.085   1.244  0.5692  1.0161  0.7234
11952TIP3    H235798   4.248   2.195   1.143 -1.2198 -0.2440 -0.3232
11953TIP3   OH235799   4.433   7.604   5.772  0.0064 -0.7741 -0.3133
11953TIP3    H135800   4.408   7.589   5.863  0.2413  0.2673 -0.0596
11953TIP3    H235801   4.371   7.552   5.721 -1.6732  0.4822  0.3570
11954TIP3   OH235802   1.641   6.636   5.419  0.4534 -0.0180 -0.0261
11954TIP3    H135803   1.614   6.723   5.391 -1.0294 -0.0684  1.0770
11954TIP3    H235804   1.721   6.651   5.470 -0.3795  0.8588  1.0726
11955TIP3   OH235805   5.993   6.683   2.078  0.2196 -0.3066  0.4838
11955TIP3    H135806   6.032   6.766   2.106 -1.9925  0.5062  1.3480
11955TIP3    H235807   6.056   6.617   2.108  1.8787  1.0008  0.0595
11956TIP3   OH235808   3.627   0.092   4.550  0.4843 -0.0727  0.2656
11956TIP3    H135809   3.690   0.105   4.621  1.4705 -0.0415 -0.6058
11956TIP3    H235810   3.679   0.091   4.470 -0.7869  1.8191 -0.6735
11957TIP3   OH235811   0.404   5.629   2.552  0.1342  0.2185  0.2276
11957TIP3    H135812   0.405   5.652   2.645 -2.0664  0.8387  0.1550
11957TIP3    H235813   0.455   5.548   2.547  1.3430  0.8221  1.7567
11958TIP3   OH235814   7.851   2.778   2.034 -0.1331  0.3623 -0.1807
11958TIP3    H135815   7.845   2.865   1.995 -1.6586  1.1146  1.5941
11958TIP3    H235816   7.761   2.756   2.060  0.6672 -0.3571  2.2511
11959TIP3   OH235817   7.809   4.372   1.512  0.4015 -0.2319  0.0772
11959TIP3    H135818   7.874   4.332   1.569 -0.8949 -0.7214  1.2639
11959TIP3    H235819   7.772   4.298   1.463  0.0823 -0.0909  0.1037
11960TIP3   OH235820   2.039   3.809   1.441  0.1551 -0.0630  0.3380
11960TIP3    H135821   1.958   3.849   1.471 -0.6039 -1.2131 -0.1169
11960TIP3    H235822   2.088   3.791   1.522 -0.8392 -0.9997  0.7580
11961TIP3   OH235823   6.005   3.637   1.958 -0.1874  0.1897  0.2219
11961TIP3    H135824   6.039   3.549   1.942  1.2694  0.6793  0.4979
11961TIP3    H235825   5.991   3.641   2.052  0.6123  0.5394  0.3331
11962TIP3   OH235826   5.144   4.495   2.291  0.1513  0.0343  0.3746
11962TIP3    H135827   5.204   4.427   2.321  0.3566  0.7437  1.6430
11962TIP3    H235828   5.183   4.528   2.210  0.4871 -0.7715  0.2032
11963TIP3   OH235829   7.453   0.805   5.228  0.2894 -0.3750 -0.4258
11963TIP3    H135830   7.383   0.864   5.201 -0.6143 -1.6254 -0.9161
11963TIP3    H235831   7.493   0.775   5.146  0.1276 -1.1601 -0.2215
11964TIP3   OH235832   0.013   0.950   1.823 -0.3565 -0.0412  0.1229
11964TIP3    H135833  -0.038   1.011   1.769  0.1738  1.4298  1.2066
11964TIP3    H235834   0.100   0.952   1.784 -0.5958 -0.9829 -0.4960
11965TIP3   OH235835   5.244   6.018   5.157  0.5540 -0.6209  0.0355
11965TIP3    H135836   5.326   6.048   5.196 -0.3868  0.1549  1.5040
11965TIP3    H235837   5.176   6.067   5.203 -0.6670  0.2689 -2.4910
11966TIP3   OH235838   5.561   0.220   1.025 -0.2089 -0.8844 -0.1599
11966TIP3    H135839   5.470   0.224   1.054 -0.0071 -0.2695  0.4188
11966TIP3    H235840   5.593   0.135   1.056 -0.3881 -0.8067  0.2443
11967TIP3   OH235841   1.797   2.883   0.412 -0.2419  0.1630  0.2024
11967TIP3    H135842   1.722   2.932   0.379 -0.9542 -2.6864 -2.9998
11967TIP3    H235843   1.772   2.859   0.502  0.1152  5.0993  1.9300
11968TIP3   OH235844   1.233   2.682   1.617  0.5023  0.4124 -0.0636
11968TIP3    H135845   1.244   2.587   1.627  0.8881  0.3518 -0.9440
11968TIP3    H235846   1.138   2.695   1.621  0.2526 -0.3146 -2.0578
11969TIP3   OH235847   2.352   5.178   0.216 -0.0459 -0.0978 -0.5413
11969TIP3    H135848   2.382   5.234   0.288  0.6542 -1.5517  0.3504
11969TIP3    H235849   2.326   5.096   0.258 -0.6727 -0.6109 -1.8482
11970TIP3   OH235850   6.107   4.263   3.281  0.4367  0.9754 -0.4088
11970TIP3    H135851   6.033   4.208   3.254  2.6898 -1.3535 -2.3196
11970TIP3    H235852   6.128   4.233   3.369 -0.9981  1.8970  0.3002
11971TIP3   OH235853   3.823   7.649   4.746  0.5143  0.3389  0.5447
11971TIP3    H135854   3.900   7.607   4.708  1.7626  4.5453 -2.3210
11971TIP3    H235855   3.853   7.685   4.829  1.4254  1.1150 -0.1010
11972TIP3   OH235856   5.314   6.870   5.446 -0.3188 -0.0099 -0.0078
11972TIP3    H135857   5.340   6.941   5.504 -0.2783 -0.1578  0.1562
11972TIP3    H235858   5.392   6.815   5.438  0.6000  1.4792 -2.4442
11973TIP3   OH235859   7.371   1.833   5.763 -0.7245  0.4932 -0.4604
11973TIP3    H135860   7.405   1.892   5.831  0.1102 -1.5357  0.9740
11973TIP3    H235861   7.440   1.830   5.698  0.0429 -0.2973  0.3652
11974TIP3   OH235862   2.664   6.831   3.883  0.2070 -0.2495  0.1689
11974TIP3    H135863   2.672   6.737   3.892 -2.3255 -0.4721  0.8823
11974TIP3    H235864   2.574   6.845   3.852 -0.6683  2.0098  3.2131
11975TIP3   OH235865   5.233   0.415   0.851 -0.3468  0.2825 -0.0641
11975TIP3    H135866   5.148   0.381   0.824  0.1881 -1.2587  0.0618
11975TIP3    H235867   5.293   0.341   0.838  1.0001  1.3717 -0.2933
11976TIP3   OH235868   6.545   1.992   6.603  0.0296 -0.4537  0.0801
11976TIP3    H135869   6.451   1.987   6.586 -0.2194  0.9559  0.8342
11976TIP3    H235870   6.582   2.030   6.523 -0.2808  0.4636  0.3606
11977TIP3   OH235871   3.982   7.735   3.952  0.0926 -0.0377 -0.4231
11977TIP3    H135872   3.977   7.830   3.945  0.3963 -0.0313 -0.5597
11977TIP3    H235873   4.071   7.717   3.982 -0.2517 -0.2335  0.5202
11978TIP3   OH235874   6.065   6.665   1.197 -0.4299  0.0846  0.4550
11978TIP3    H135875   6.105   6.589   1.240  0.5291  0.1434 -0.2925
11978TIP3    H235876   6.118   6.677   1.118 -1.9561  0.1655 -0.5774
11979TIP3   OH235877   3.242   1.290   2.429 -0.3145  0.5197 -0.0916
11979TIP3    H135878   3.281   1.317   2.345  0.1691 -0.7274 -0.2880
11979TIP3    H235879   3.282   1.349   2.493 -1.0159  1.7742 -0.7772
11980TIP3   OH235880   7.934   7.179   0.800  0.6785 -0.0210 -0.2514
11980TIP3    H135881   7.965   7.157   0.712 -0.7913  0.4445 -0.9160
11980TIP3    H235882   7.977   7.262   0.821  0.9775 -0.0967 -0.5590
11981TIP3   OH235883   5.868   4.434   1.764  0.1568  0.6547  0.4665
11981TIP3    H135884   5.892   4.507   1.821 -0.2127  2.1911 -1.2566
11981TIP3    H235885   5.783   4.405   1.797 -0.1790  1.7020  0.5803
11982TIP3   OH235886   4.610   7.769   3.067  0.3555  0.3606  0.0648
11982TIP3    H135887   4.623   7.754   3.161  1.8950 -0.4999 -0.2508
11982TIP3    H235888   4.582   7.860   3.060 -0.7644  0.1542  1.4240
11983TIP3   OH235889   6.973   3.630   4.607 -0.6885 -0.0658 -0.2450
11983TIP3    H135890   6.913   3.622   4.681 -1.2531  0.1739 -0.6734
11983TIP3    H235891   6.954   3.717   4.571 -0.5133 -0.2415 -0.7542
11984TIP3   OH235892   6.160   5.241   3.866  0.3714 -0.9097 -0.6266
11984TIP3    H135893   6.157   5.219   3.773  0.8103  0.6350 -1.0488
11984TIP3    H235894   6.236   5.193   3.900 -0.3429 -2.2241 -0.8282
11985TIP3   OH235895   4.549   0.888   5.442 -0.0030 -0.3822 -0.1567
11985TIP3    H135896   4.488   0.895   5.516 -0.0462 -0.8736 -0.1471
11985TIP3    H235897   4.520   0.956   5.381 -0.3852 -0.4243 -0.0238
11986TIP3   OH235898   1.762   0.823   5.553  0.4097 -0.0433  0.2065
11986TIP3    H135899   1.767   0.918   5.562 -1.0317  0.1957 -1.0575
11986TIP3    H235900   1.853   0.795   5.543  0.7186  1.5581 -2.2351
11987TIP3   OH235901   7.920   7.843   3.093 -0.2115 -0.4294  0.5872
11987TIP3    H135902   7.976   7.920   3.096 -1.1232  0.2332  0.7586
11987TIP3    H235903   7.967   7.782   3.036  0.1935  0.5141 -0.1185
11988TIP3   OH235904   6.923   4.516   3.196  0.3449 -0.3424  0.8166
11988TIP3    H135905   6.978   4.594   3.198  2.4311 -1.7018  0.1046
11988TIP3    H235906   6.947   4.468   3.275  0.6471 -1.2384  0.1921
11989TIP3   OH235907   1.348   1.196   5.078 -0.0665 -0.0571 -0.3424
11989TIP3    H135908   1.279   1.262   5.065 -1.5384 -0.6040  3.4683
11989TIP3    H235909   1.302   1.113   5.081  0.9998 -0.6409  0.5070
11990TIP3   OH235910   2.680   0.618   3.747 -0.3592  0.3815  0.4918
11990TIP3    H135911   2.660   0.703   3.709 -1.2935 -0.2595 -0.5124
11990TIP3    H235912   2.600   0.592   3.793 -0.7988 -0.7953 -0.8589
11991TIP3   OH235913   7.668   7.272   6.469 -0.4330  0.0380  0.0979
11991TIP3    H135914   7.672   7.327   6.546  0.5882 -0.2841  0.2903
11991TIP3    H235915   7.693   7.185   6.500  1.2300  0.1559 -0.7966
11992TIP3   OH235916   0.742   4.527   2.690  0.2318  0.5519 -0.1829
11992TIP3    H135917   0.683   4.592   2.653 -0.5048  1.7205  2.7128
11992TIP3    H235918   0.785   4.487   2.615 -0.9244  2.8339 -2.1954
11993TIP3   OH235919   4.195   3.833   0.214 -0.4906  0.3591  0.4346
11993TIP3    H135920   4.241   3.879   0.284  3.1204  0.4714 -1.7725
11993TIP3    H235921   4.193   3.896   0.141 -2.1430 -0.5063 -0.3296
11994TIP3   OH235922   0.268   2.944   4.955 -0.1396  0.1717  0.7058
11994TIP3    H135923   0.193   2.899   4.995 -0.7825  0.9629  0.4300
11994TIP3    H235924   0.334   2.876   4.943 -0.8422 -0.5545  0.9030
11995TIP3   OH235925   7.286   1.524   6.044  0.0705  0.2255  0.8054
11995TIP3    H135926   7.235   1.455   6.002  0.4331 -0.2747  1.1887
11995TIP3    H235927   7.219   1.586   6.075 -0.3331 -0.5834  1.5898
11996TIP3   OH235928   6.145   5.704   4.570 -0.2757  0.2487  0.0030
11996TIP3    H135929   6.237   5.720   4.589 -0.2963 -1.2066  1.6115
11996TIP3    H235930   6.143   5.617   4.531 -1.0554 -0.4070  1.4046
11997TIP3   OH235931   4.310   0.041   0.587 -0.5606  0.7525  0.1465
11997TIP3    H135932   4.267   0.068   0.506  1.7537  3.0870 -0.4288
11997TIP3    H235933   4.280   0.104   0.652 -0.5123  0.3902  0.5212
11998TIP3   OH235934   7.080   3.757   6.460 -0.0303 -0.4075  0.3985
11998TIP3    H135935   7.072   3.757   6.365  0.2708  1.7056  0.3231
11998TIP3    H235936   7.153   3.698   6.478 -0.4754 -1.2939 -0.6173
11999TIP3   OH235937   7.494   7.145   5.015 -0.3487 -0.1797 -0.3744
11999TIP3    H135938   7.482   7.231   4.975  0.3121 -0.4492 -1.1786
11999TIP3    H235939   7.455   7.154   5.102 -0.0712  1.0144 -0.3483
12000TIP3   OH235940   6.779   3.986   5.231  0.1503  0.4474 -0.2260
12000TIP3    H135941   6.848   3.926   5.259 -0.6839  0.3378  1.8060
12000TIP3    H235942   6.810   4.021   5.148  2.2661 -0.1849  0.2289
12001TIP3   OH235943   1.918   5.608   4.036 -0.2436  0.2080 -0.0929
12001TIP3    H135944   1.928   5.514   4.021 -0.9287  0.0525  0.3544
12001TIP3    H235945   1.823   5.621   4.045 -0.0752  0.7330  1.1561
12002TIP3   OH235946   3.223   6.363   0.757 -0.0682  0.0506  0.5271
12002TIP3    H135947   3.208   6.446   0.711  0.2127 -0.9929 -1.5609
12002TIP3    H235948   3.226   6.387   0.850 -2.7001  1.9694  0.2163
12003TIP3   OH235949   4.849   5.288   1.607 -0.4201  0.2628  0.6937
12003TIP3    H135950   4.915   5.235   1.563 -2.1333 -0.9318 -0.6089
12003TIP3    H235951   4.777   5.227   1.624 -1.4185  1.6149  1.5307
12004TIP3   OH235952   2.732   7.767   5.867 -0.4962 -0.2979 -0.4030
12004TIP3    H135953   2.707   7.696   5.926  0.0248 -0.2781 -0.1580
12004TIP3    H235954   2.815   7.800   5.902 -0.5124  0.1425 -0.7680
12005TIP3   OH235955   4.144   3.659   6.104  0.5605  0.8426  0.6719
12005TIP3    H135956   4.072   3.721   6.094 -0.2329 -0.1027  0.3363
12005TIP3    H235957   4.141   3.605   6.025  1.8700  1.0108  0.4839
12006TIP3   OH235958   1.356   0.266   0.078 -0.1905  0.9634  0.0509
12006TIP3    H135959   1.352   0.225  -0.009 -0.7247  0.7857  0.1518
12006TIP3    H235960   1.308   0.348   0.067 -1.0665  0.5135  0.3966
12007TIP3   OH235961   6.853   1.349   3.618 -0.0145  0.0558 -0.0566
12007TIP3    H135962   6.881   1.373   3.530 -0.0665  3.2006  0.6659
12007TIP3    H235963   6.907   1.273   3.640  0.4029 -0.4711 -2.5321
12008TIP3   OH235964   0.499   5.103   6.385  0.0943 -0.7918 -0.4336
12008TIP3    H135965   0.557   5.031   6.408  1.0996  0.2677  0.5034
12008TIP3    H235966   0.442   5.067   6.317 -0.3299 -2.8522  0.9311
12009TIP3   OH235967   7.466   4.724   2.287  1.0420 -0.3456 -0.0075
12009TIP3    H135968   7.482   4.764   2.201  1.1425 -2.4458 -1.0189
12009TIP3    H235969   7.496   4.790   2.350 -1.3400  2.3300 -1.4334
12010TIP3   OH235970   3.580   3.627   1.203 -0.1362 -0.5252 -0.0539
12010TIP3    H135971   3.574   3.715   1.166  0.2633 -0.1396  0.7791
12010TIP3    H235972   3.491   3.608   1.233 -0.2585 -0.4790 -0.3736
12011TIP3   OH235973   5.745   4.980   2.099 -0.0389  0.3518 -0.4283
12011TIP3    H135974   5.821   4.974   2.041  1.8936 -0.2595  1.9754
12011TIP3    H235975   5.747   4.899   2.149 -1.5349  0.9091  0.6082
12012TIP3   OH235976   8.063   1.017   2.440 -0.3461  0.0235 -0.2804
12012TIP3    H135977   8.151   1.023   2.476 -0.1557 -0.7730 -0.6093
12012TIP3    H235978   8.056   1.093   2.382 -0.2660  0.6936  0.5712
12013TIP3   OH235979   7.852   3.669   5.037 -0.4509 -0.4694  0.0142
12013TIP3    H135980   7.930   3.622   5.008 -0.8513 -1.1504  0.0031
12013TIP3    H235981   7.856   3.667   5.133  0.8938  1.8167  0.0738
12014TIP3   OH235982   6.003   2.786   2.730  0.4200 -0.2744 -0.4433
12014TIP3    H135983   6.077   2.740   2.690  0.1823  1.7545 -3.5750
12014TIP3    H235984   5.931   2.775   2.668 -0.2343  2.4324 -0.3172
12015TIP3   OH235985   6.712   4.631   4.365  0.3545  0.4893  0.1633
12015TIP3    H135986   6.734   4.554   4.312 -2.0155 -1.8136  2.2411
12015TIP3    H235987   6.786   4.639   4.426  0.5287 -0.2975  0.0704
12016TIP3   OH235988   7.657   4.527   6.200  0.0054 -0.1718  0.5088
12016TIP3    H135989   7.593   4.494   6.137  0.1697  2.0302 -0.9268
12016TIP3    H235990   7.604   4.556   6.275 -0.8511  2.0770 -0.8574
12017TIP3   OH235991   4.683   4.783   2.961  0.2049 -0.1546  0.6384
12017TIP3    H135992   4.768   4.792   3.004 -0.0740  1.3585  0.9636
12017TIP3    H235993   4.675   4.690   2.941  1.3330 -0.5380  1.8331
12018TIP3   OH235994   5.459   5.777   0.976 -0.0944 -0.3720 -0.0046
12018TIP3    H135995   5.425   5.695   1.010 -0.8459 -0.2096 -0.3521
12018TIP3    H235996   5.389   5.812   0.921  0.5503  0.0682 -0.5701
12019TIP3   OH235997   4.576   2.702   6.463 -0.3104 -0.1990 -0.3674
12019TIP3    H135998   4.571   2.668   6.552  0.0488 -1.6364 -0.8826
12019TIP3    H235999   4.512   2.651   6.414 -0.2420  0.3290 -1.0243
12020TIP3   OH236000   1.694   5.765   5.931  0.2817  0.4458  0.2909
12020TIP3    H136001   1.672   5.738   5.842  2.4947 -1.8630  0.3118
12020TIP3    H236002   1.642   5.708   5.987 -0.5597  1.3953  0.4980
12021TIP3   OH236003   7.638   3.497   4.263 -0.1484  0.0073  0.5473
12021TIP3    H136004   7.662   3.530   4.349  0.4443  0.5713  0.1753
12021TIP3    H236005   7.602   3.410   4.279 -0.4721  0.2981  1.4055
12022TIP3   OH236006   4.690   5.391   0.251  0.5802  0.2151 -0.1454
12022TIP3    H136007   4.753   5.388   0.178 -0.2505  2.1401 -1.0305
12022TIP3    H236008   4.608   5.420   0.210 -1.2488 -3.1407  0.7812
12023TIP3   OH236009   1.516   3.189   5.808  0.3027 -0.4046  0.6767
12023TIP3    H136010   1.531   3.153   5.895 -0.5624 -2.5943  0.0089
12023TIP3    H236011   1.421   3.201   5.803  0.5368  1.8051  0.7594
12024TIP3   OH236012   0.929   0.283   6.208 -0.0227  0.1957  0.0231
12024TIP3    H136013   0.918   0.241   6.294 -3.7593 -1.3349 -1.0278
12024TIP3    H236014   0.959   0.372   6.229  1.8308 -0.9248  2.6970
12025TIP3   OH236015   1.434   1.534   5.225 -0.3049 -0.2427  0.5475
12025TIP3    H136016   1.456   1.607   5.283 -3.9252  1.0599  0.5138
12025TIP3    H236017   1.345   1.510   5.250 -0.7190 -1.9391 -2.1821
12026TIP3   OH236018   2.285   6.933   4.531 -0.0756 -0.0401 -0.3660
12026TIP3    H136019   2.265   6.850   4.576  2.3950  0.0445  1.0656
12026TIP3    H236020   2.233   6.998   4.577  1.8806 -0.0652  2.1526
12027TIP3   OH236021   7.177   7.199   5.307 -0.2794 -0.2094  0.3930
12027TIP3    H136022   7.146   7.198   5.397 -1.5008  1.1798  0.0362
12027TIP3    H236023   7.111   7.150   5.258  0.7237 -1.5394  0.3165
12028TIP3   OH236024   2.405   3.341   1.223  0.3448  0.3318 -0.3951
12028TIP3    H136025   2.366   3.371   1.141 -1.4079  0.6566  0.5117
12028TIP3    H236026   2.366   3.397   1.291  1.3282 -0.2888  0.7315
12029TIP3   OH236027   1.209   2.285   3.251 -0.4040  0.3983 -0.2078
12029TIP3    H136028   1.252   2.370   3.261  0.4860  0.0634 -1.0194
12029TIP3    H236029   1.227   2.259   3.160  0.0698 -1.0449  0.2641
12030TIP3   OH236030   3.837   0.856   1.097  0.4415  0.2316 -0.0767
12030TIP3    H136031   3.854   0.862   1.191  1.4193 -1.3439 -0.1246
12030TIP3    H236032   3.744   0.876   1.089  0.3043  0.2523  1.2273
12031TIP3   OH236033   1.935   1.322   4.217 -0.6508  0.4174  0.2683
12031TIP3    H136034   1.949   1.348   4.126  2.1628  1.9009  1.0064
12031TIP3    H236035   2.006   1.365   4.265 -1.7030 -0.7892  3.0940
12032TIP3   OH236036   5.181   3.389   1.178 -0.1782  0.3787 -0.3170
12032TIP3    H136037   5.101   3.418   1.136  0.9549  1.5316 -1.7822
12032TIP3    H236038   5.172   3.294   1.184 -2.3364  0.6071  1.0951
12033TIP3   OH236039   4.468   4.593   5.296 -0.6251 -0.2690 -0.0338
12033TIP3    H136040   4.438   4.684   5.286 -0.5750 -0.4401 -2.1768
12033TIP3    H236041   4.389   4.541   5.281 -0.2144 -0.6103 -1.0890
12034TIP3   OH236042   4.293   2.162   0.021  0.1499 -0.5218  0.0873
12034TIP3    H136043   4.374   2.191   0.063  0.1767 -0.1562 -0.2073
12034TIP3    H236044   4.321   2.114  -0.057  0.0873  1.3947 -1.1876
12035TIP3   OH236045   6.681   5.513   5.155  0.4998 -0.4191  0.3668
12035TIP3    H136046   6.722   5.598   5.138  0.3604  0.1778  2.5664
12035TIP3    H236047   6.601   5.513   5.102  0.9786  0.4364 -0.3650
12036TIP3   OH236048   0.200   6.403   5.523  0.2545 -0.2017 -0.1333
12036TIP3    H136049   0.216   6.371   5.434 -0.2449  2.1336 -1.1354
12036TIP3    H236050   0.110   6.436   5.520  0.0333 -0.5915  1.4350
12037TIP3   OH236051   2.643   4.027   5.033  0.0009 -0.6221  0.0324
12037TIP3    H136052   2.623   4.119   5.053 -3.0102 -1.1827  0.0153
12037TIP3    H236053   2.640   3.982   5.117 -0.2128 -0.9577 -0.1512
12038TIP3   OH236054   5.545   1.184   4.342 -0.1528 -0.2657 -0.3977
12038TIP3    H136055   5.565   1.108   4.287 -0.6415 -0.1493 -0.7488
12038TIP3    H236056   5.558   1.259   4.283 -0.7400 -0.1423 -0.3705
12039TIP3   OH236057   7.496   5.661   2.486  0.2038 -0.4670  0.1439
12039TIP3    H136058   7.467   5.683   2.575  0.7698 -0.1478  0.2522
12039TIP3    H236059   7.499   5.745   2.441 -1.5831 -0.7864 -0.6446
12040TIP3   OH236060   3.195   1.383   5.026  0.3385  0.2247  0.0137
12040TIP3    H136061   3.241   1.328   5.089  2.8719  0.0550 -1.8066
12040TIP3    H236062   3.258   1.451   5.003 -1.7802  2.4295  0.2548
12041TIP3   OH236063   2.740   2.937   2.169 -0.4410  0.0861  0.1389
12041TIP3    H136064   2.752   2.875   2.241 -2.4018 -1.7403 -0.9777
12041TIP3    H236065   2.648   2.926   2.144 -0.2956  2.0071 -1.4625
12042TIP3   OH236066   2.833   0.594   5.362  0.4428 -0.3946 -0.3451
12042TIP3    H136067   2.852   0.532   5.432 -0.4301  1.4000  1.5638
12042TIP3    H236068   2.891   0.668   5.379 -0.0510  0.2412 -1.3232
12043TIP3   OH236069   4.783   0.866   2.985 -0.1004 -0.5782 -0.3624
12043TIP3    H136070   4.820   0.894   3.069 -3.1539  0.2190  0.8332
12043TIP3    H236071   4.787   0.770   2.989 -1.0489 -0.5845  1.1487
12044TIP3   OH236072   1.035   0.498   1.212 -0.1568  0.4013 -0.7558
12044TIP3    H136073   1.019   0.560   1.284  0.8198  2.2410 -2.0498
12044TIP3    H236074   0.958   0.506   1.156  0.1093  0.6967 -1.0841
12045TIP3   OH236075   6.009   5.138   3.373  0.3098  0.3551 -0.7917
12045TIP3    H136076   5.982   5.193   3.299  0.5719  1.2615 -0.2325
12045TIP3    H236077   5.931   5.131   3.427 -0.3123 -1.5466 -1.8668
12046TIP3   OH236078   3.132   3.934   5.805 -0.3230  0.0560 -0.5055
12046TIP3    H136079   3.111   4.023   5.835 -0.0909 -0.3830  1.0714
12046TIP3    H236080   3.198   3.946   5.737 -1.6591  1.1695 -1.6597
12047TIP3   OH236081   6.932   1.884   4.772 -0.0696  0.1558  0.0215
12047TIP3    H136082   6.847   1.844   4.753 -0.0424 -0.4485  1.0516
12047TIP3    H236083   6.949   1.941   4.698 -1.6439  0.7320  0.0642
12048TIP3   OH236084   5.452   1.585   5.065  0.9140 -0.2277  0.0785
12048TIP3    H136085   5.528   1.630   5.103  0.5344  0.2985  0.2314
12048TIP3    H236086   5.481   1.560   4.977  1.3209 -0.1818  0.1990
12049TIP3   OH236087   3.165   4.950   4.671  0.1364  0.1048  0.5351
12049TIP3    H136088   3.238   4.965   4.611 -0.5215  1.6287  0.0601
12049TIP3    H236089   3.113   5.030   4.665 -1.6319 -0.9773  0.7853
12050TIP3   OH236090   8.351   4.011   6.022  0.4688 -0.3262 -0.1948
12050TIP3    H136091   8.299   4.013   5.941  0.4446  0.0279 -0.1733
12050TIP3    H236092   8.305   3.948   6.078 -0.6812  0.8886  0.2997
12051TIP3   OH236093   7.274   4.021   4.975  0.2038 -0.2212  0.0899
12051TIP3    H136094   7.207   4.065   5.026  0.6694 -0.9505  1.3837
12051TIP3    H236095   7.356   4.064   4.999  0.4375 -0.6127  0.0121
12052TIP3   OH236096   1.822   1.538   4.388 -0.0401  0.0899 -0.2456
12052TIP3    H136097   1.768   1.492   4.452 -1.3101  1.8964  0.0805
12052TIP3    H236098   1.855   1.470   4.330  0.2792 -1.4729  1.6859
12053TIP3   OH236099   6.984   3.748   1.087  0.2221  0.8411 -0.3397
12053TIP3    H136100   6.998   3.728   1.180  0.4682  0.9598 -0.3508
12053TIP3    H236101   7.050   3.697   1.041 -1.0370 -0.6327 -0.5953
12054TIP3   OH236102   7.884   2.548   1.033  0.2398 -0.3010 -0.2850
12054TIP3    H136103   7.955   2.495   1.070 -1.5123 -2.4938  0.1641
12054TIP3    H236104   7.822   2.558   1.106  0.7329  2.9875 -0.1784
12055TIP3   OH236105   2.096   2.269   2.643  0.4254 -0.0730  0.1758
12055TIP3    H136106   2.189   2.281   2.661  1.0812  0.4862 -3.0356
12055TIP3    H236107   2.062   2.228   2.722  3.5165 -1.0007  1.1785
12056TIP3   OH236108   3.671   4.197   1.614 -0.5182 -0.0601  0.5067
12056TIP3    H136109   3.681   4.235   1.526 -0.5542 -0.0456  0.5086
12056TIP3    H236110   3.753   4.217   1.658 -0.1980 -0.7357  0.2266
12057TIP3   OH236111   4.743   1.199   0.808  0.0358  0.3754  0.1858
12057TIP3    H136112   4.761   1.186   0.715  0.3871  0.8963  0.1717
12057TIP3    H236113   4.675   1.136   0.829 -1.5265  1.6234 -0.9014
12058TIP3   OH236114   2.068   3.217   5.825  0.1503  0.1217 -0.2766
12058TIP3    H136115   2.135   3.266   5.873 -0.1254 -0.2522  0.5156
12058TIP3    H236116   1.987   3.264   5.842 -0.4704 -1.6102  2.1208
12059TIP3   OH236117   2.316   7.014   6.778 -0.0224 -0.1298  0.4789
12059TIP3    H136118   2.347   7.092   6.825  2.2609 -0.0456 -1.0477
12059TIP3    H236119   2.334   6.942   6.838 -1.6606  0.4010  1.6831
12060TIP3   OH236120   5.303   1.394   5.195 -0.5585 -0.1031  0.5838
12060TIP3    H136121   5.268   1.434   5.275  1.2808  1.4542  0.6965
12060TIP3    H236122   5.348   1.466   5.150  0.0416 -1.3627 -0.9254
12061TIP3   OH236123   6.886   6.778   6.470  0.1012 -0.1902  0.1604
12061TIP3    H136124   6.878   6.871   6.489 -0.5688 -0.2248  0.1004
12061TIP3    H236125   6.898   6.737   6.556 -3.0950 -0.3660  0.6660
12062TIP3   OH236126   0.357   0.306   6.541 -0.4219  0.5778 -0.1442
12062TIP3    H136127   0.448   0.292   6.516 -0.4369  1.4365 -0.7206
12062TIP3    H236128   0.357   0.391   6.585 -0.6030 -0.3400  1.7733
12063TIP3   OH236129   2.090   4.767   3.541 -0.3606  0.6893 -0.0505
12063TIP3    H136130   2.112   4.845   3.592  0.9085  0.4277 -0.1617
12063TIP3    H236131   2.172   4.719   3.535 -0.8432 -0.0384 -1.0584
12064TIP3   OH236132   4.449   5.533   6.765 -0.2203 -0.3914 -0.1140
12064TIP3    H136133   4.368   5.524   6.715  0.1959 -0.9871 -0.6851
12064TIP3    H236134   4.426   5.504   6.853 -0.8454  0.2550 -0.0527
12065TIP3   OH236135   7.193   1.358   4.998 -0.1065 -0.2757  0.4507
12065TIP3    H136136   7.233   1.438   5.033  3.4198 -0.5258 -2.4576
12065TIP3    H236137   7.194   1.296   5.071 -0.1172  1.3785  1.9188
12066TIP3   OH236138   2.635   4.815   6.101  0.4668 -0.4058  0.6451
12066TIP3    H136139   2.661   4.823   6.193  0.4963 -1.7709  0.7851
12066TIP3    H236140   2.551   4.860   6.096 -0.0431 -1.1914  1.6081
12067TIP3   OH236141   5.209   4.798   2.392  0.2110 -0.2478  0.5931
12067TIP3    H136142   5.172   4.755   2.469  0.5855 -1.0863  0.3172
12067TIP3    H236143   5.238   4.884   2.424 -2.3050  0.6214  0.7176
12068TIP3   OH236144   2.043   4.058   5.589 -0.1452 -0.1195  0.5864
12068TIP3    H136145   2.045   3.993   5.519  1.4392  1.3379 -0.8411
12068TIP3    H236146   2.090   4.017   5.662 -2.5053 -1.9632  1.1898
12069TIP3   OH236147   1.886   5.015   1.014 -0.1338 -0.0747 -0.2674
12069TIP3    H136148   1.872   5.073   0.939 -1.7898  1.6841  1.3070
12069TIP3    H236149   1.979   5.026   1.035  0.3626 -0.5926 -1.9877
12070TIP3   OH236150   3.132   6.101   1.106  0.0901  0.2635 -0.5825
12070TIP3    H136151   3.142   6.156   1.184  0.6000  0.0315 -0.4774
12070TIP3    H236152   3.214   6.051   1.101 -1.4867 -2.7147  1.0267
12071TIP3   OH236153   8.073   3.020   4.828 -0.4024 -0.1107  0.1923
12071TIP3    H136154   8.100   3.012   4.920 -0.6222  1.0886  0.3861
12071TIP3    H236155   8.087   2.934   4.791  0.1081 -0.5005  1.2509
12072TIP3   OH236156   0.095   1.262   6.562 -0.6389  0.0784  0.1556
12072TIP3    H136157   0.134   1.349   6.570 -2.7957  1.2489 -0.9007
12072TIP3    H236158   0.165   1.206   6.531  0.6514  1.5937  0.2348
12073TIP3   OH236159   8.320   4.916   5.029 -0.2856 -0.3263 -0.1469
12073TIP3    H136160   8.246   4.956   5.074 -1.0354 -0.9131 -0.8307
12073TIP3    H236161   8.382   4.894   5.099 -0.6614  0.3602  0.4066
12074TIP3   OH236162   8.049   4.496   3.228 -0.0797  0.1891  0.1588
12074TIP3    H136163   8.012   4.423   3.277 -0.3572  0.2627  0.0575
12074TIP3    H236164   7.974   4.545   3.196  0.0997  1.2814  1.3439
12075TIP3   OH236165   4.316   4.137   6.592  0.5122 -0.2836 -0.7954
12075TIP3    H136166   4.341   4.223   6.559 -0.5235 -0.0454 -0.9936
12075TIP3    H236167   4.221   4.143   6.604  0.7411 -0.5832  1.5748
12076TIP3   OH236168   7.720   0.663   4.670 -0.4281  0.1178  0.1504
12076TIP3    H136169   7.627   0.647   4.688 -0.6012  0.8263 -0.0518
12076TIP3    H236170   7.766   0.619   4.741 -0.7506 -2.5528 -1.1683
12077TIP3   OH236171   5.026   4.911   6.165  0.8715 -0.1904  0.2092
12077TIP3    H136172   4.945   4.861   6.155  0.3057  0.3134  1.8721
12077TIP3    H236173   5.085   4.875   6.099 -0.4128 -1.1685 -0.4508
12078TIP3   OH236174   4.799   6.356   5.875  0.1672  0.6613 -0.4190
12078TIP3    H136175   4.878   6.350   5.821 -0.7051 -0.7543 -1.6192
12078TIP3    H236176   4.771   6.447   5.867  2.9654  1.8968  2.0413
12079TIP3   OH236177   0.485   3.044   6.464 -0.0095  0.4584 -0.3915
12079TIP3    H136178   0.478   2.950   6.449  0.9682 -0.0245  1.8603
12079TIP3    H236179   0.579   3.062   6.466 -0.1209  1.0668  1.2745
12080TIP3   OH236180   1.548   3.251   3.920 -0.1397  0.0944 -0.6325
12080TIP3    H136181   1.495   3.289   3.991 -0.6550 -1.3765 -0.1978
12080TIP3    H236182   1.541   3.157   3.933  1.5339 -0.1596 -1.3768
12081TIP3   OH236183   8.157   4.254   6.439  0.0077 -0.5717 -0.0606
12081TIP3    H136184   8.240   4.207   6.440  0.4812  0.2026  1.7104
12081TIP3    H236185   8.092   4.190   6.466  0.5033 -0.4803  1.4172
12082TIP3   OH236186   2.033   1.405   3.972  0.1852  0.2977  0.1453
12082TIP3    H136187   2.110   1.458   3.949  1.0692 -1.1864 -0.4909
12082TIP3    H236188   1.968   1.428   3.906  0.2875  1.1213  0.3194
12083TIP3   OH236189   1.171   5.543   4.757  0.2030  0.3164  0.2748
12083TIP3    H136190   1.159   5.636   4.776  1.0161  0.3345  0.7428
12083TIP3    H236191   1.099   5.521   4.698 -0.3821  1.0818  0.6823
12084TIP3   OH236192   6.090   5.497   3.945  0.2832 -0.0933  0.3834
12084TIP3    H136193   6.076   5.435   4.016 -3.6461  0.0095 -0.0783
12084TIP3    H236194   6.105   5.443   3.868 -0.7570 -0.4338  0.4031
12085TIP3   OH236195   1.804   4.894   6.529 -0.0885 -0.3977 -0.2453
12085TIP3    H136196   1.826   4.801   6.538 -1.0649 -0.4771  2.0087
12085TIP3    H236197   1.723   4.904   6.579  0.7310  1.8982  0.7354
12086TIP3   OH236198   5.821   2.352   2.002  0.4214 -0.2110 -0.3842
12086TIP3    H136199   5.784   2.434   2.034  0.0995 -0.7747  0.7278
12086TIP3    H236200   5.916   2.365   2.008  0.3765 -0.4190  1.1822
12087TIP3   OH236201   0.545   0.286   1.113  0.0689  0.2606 -0.6024
12087TIP3    H136202   0.575   0.197   1.135  0.2089  0.2583 -0.8034
12087TIP3    H236203   0.553   0.334   1.195  0.1527  0.1303 -0.5321
12088TIP3   OH236204   5.980   2.462   2.657 -0.1174 -0.9806 -0.4187
12088TIP3    H136205   5.982   2.547   2.612  0.1506 -1.0045 -0.4509
12088TIP3    H236206   5.929   2.478   2.736  0.0570 -0.7541 -0.3524
12089TIP3   OH236207   1.310   5.122   0.571  0.5402  0.1675  0.1062
12089TIP3    H136208   1.271   5.065   0.504 -0.4153 -1.9119  2.2714
12089TIP3    H236209   1.281   5.083   0.654  1.1559  2.9788  1.7400
12090TIP3   OH236210   5.339   7.259   1.168  0.4104 -0.3317 -0.4670
12090TIP3    H136211   5.246   7.234   1.169  0.0559  0.8871  1.1367
12090TIP3    H236212   5.358   7.283   1.258  2.0785  0.2602 -0.9449
12091TIP3   OH236213   7.010   4.597   6.803  0.2110  0.0459 -0.5140
12091TIP3    H136214   7.024   4.562   6.892 -0.6788  2.0120  0.4560
12091TIP3    H236215   7.072   4.669   6.796 -1.0979  1.2047 -0.6763
12092TIP3   OH236216   3.488   0.942   2.486  0.4373  0.7151 -0.0153
12092TIP3    H136217   3.566   0.994   2.468  0.0183  0.7966 -1.7439
12092TIP3    H236218   3.420   1.007   2.504  0.8221  0.6388  1.9898
12093TIP3   OH236219   2.506   2.270   3.669 -0.7776 -0.8676 -0.1213
12093TIP3    H136220   2.486   2.187   3.712 -0.9051 -1.6081 -1.5458
12093TIP3    H236221   2.599   2.265   3.650 -0.6961 -0.4922  0.1801
12094TIP3   OH236222   0.972   0.118   0.046 -0.0129  0.3470  0.1443
12094TIP3    H136223   1.060   0.151   0.027  0.0441 -0.2137 -0.5742
12094TIP3    H236224   0.934   0.185   0.104  1.6988 -0.5028  2.4247
12095TIP3   OH236225   6.874   1.891   6.072  0.6714 -0.2916  0.0955
12095TIP3    H136226   6.816   1.861   6.142  1.3751  0.4890  1.0368
12095TIP3    H236227   6.816   1.932   6.009  0.0993 -0.3317  0.5892
12096TIP3   OH236228   1.112   7.773   1.000  0.1287 -0.8978  0.3949
12096TIP3    H136229   1.053   7.698   1.000  1.9675 -2.4105  0.0769
12096TIP3    H236230   1.080   7.828   1.072 -2.1192 -1.2161 -0.2787
12097TIP3   OH236231   0.264   5.375   4.655  0.3051  0.1117  0.4036
12097TIP3    H136232   0.285   5.343   4.567 -0.2453  1.8371 -0.4137
12097TIP3    H236233   0.186   5.429   4.643  0.2228  0.3953  1.9596
12098TIP3   OH236234   8.195   1.801   5.604  0.0594 -0.2340 -0.5444
12098TIP3    H136235   8.114   1.852   5.606 -0.8190 -1.5475 -1.5397
12098TIP3    H236236   8.204   1.767   5.693 -0.5827 -0.2303 -0.4763
12099TIP3   OH236237   5.435   5.786   4.193 -0.2431 -0.2355 -0.5634
12099TIP3    H136238   5.463   5.766   4.104  0.6638 -0.9177 -0.1432
12099TIP3    H236239   5.515   5.782   4.245 -1.0091 -1.7207  0.5954
12100TIP3   OH236240   6.355   3.584   0.836  0.3963  0.4874 -0.2632
12100TIP3    H136241   6.411   3.515   0.873  1.8676  1.6212 -0.2670
12100TIP3    H236242   6.324   3.632   0.913 -1.2310 -0.5653 -0.2103
12101TIP3   OH236243   3.782   2.229   5.387 -0.2028  0.4122 -0.4684
12101TIP3    H136244   3.716   2.278   5.436 -0.3630  1.2644 -1.4926
12101TIP3    H236245   3.822   2.295   5.330  0.6820 -0.3507 -0.7426
12102TIP3   OH236246   8.124   2.417   5.801 -0.4381 -0.4155  0.1176
12102TIP3    H136247   8.059   2.440   5.734 -0.3284 -0.2969  0.0505
12102TIP3    H236248   8.184   2.357   5.757 -1.0010 -1.2345  0.4305
12103TIP3   OH236249   7.098   0.328   0.208  0.5123 -0.4656 -0.1986
12103TIP3    H136250   7.056   0.360   0.287  0.5515 -1.0673  0.0701
12103TIP3    H236251   7.027   0.294   0.154  0.2799  1.3822 -1.1427
12104TIP3   OH236252   6.466   4.466   1.266 -0.0303  0.2208  0.0021
12104TIP3    H136253   6.415   4.505   1.195 -0.0802 -2.1005 -1.3332
12104TIP3    H236254   6.492   4.380   1.232  1.0830 -0.4172  2.3067
12105TIP3   OH236255   1.750   3.483   0.224 -0.0148 -0.2857  0.3479
12105TIP3    H136256   1.788   3.534   0.152  0.9762  0.5083  1.3920
12105TIP3    H236257   1.701   3.414   0.181 -3.8733  3.0724 -1.2956
12106TIP3   OH236258   1.621   5.968   1.665  1.0289 -0.0665 -0.0661
12106TIP3    H136259   1.559   5.916   1.716  0.2180  0.5440 -0.3986
12106TIP3    H236260   1.568   6.040   1.630  2.0656  0.8379  0.1746
12107TIP3   OH236261   0.200   5.780   2.353 -0.3186 -0.2858 -0.1485
12107TIP3    H136262   0.155   5.717   2.410 -0.0011  0.4237  0.9280
12107TIP3    H236263   0.291   5.776   2.382 -0.0597 -0.2443 -0.9429
12108TIP3   OH236264   3.599   6.883   4.920 -0.0116 -0.4365 -0.1120
12108TIP3    H136265   3.695   6.884   4.921  0.0032  1.4877  0.9513
12108TIP3    H236266   3.574   6.960   4.870 -1.0796 -1.7991 -1.8130
12109TIP3   OH236267   7.875   5.756   5.710 -0.6633 -0.1233 -0.1372
12109TIP3    H136268   7.832   5.681   5.751 -1.8090 -0.0208 -1.1212
12109TIP3    H236269   7.966   5.729   5.701 -0.9906 -1.2661 -0.1577
12110TIP3   OH236270   7.499   0.398   3.664 -0.8429 -0.6222 -0.1568
12110TIP3    H136271   7.542   0.462   3.721 -0.2268  0.8518 -2.1803
12110TIP3    H236272   7.571   0.356   3.617 -1.3318 -1.9156  0.2174
12111TIP3   OH236273   5.297   0.964   3.746  0.3036 -0.6458 -0.1260
12111TIP3    H136274   5.242   1.020   3.692  0.4327 -1.7035 -1.4115
12111TIP3    H236275   5.376   0.949   3.693 -0.5015 -3.5051 -0.6694
12112TIP3   OH236276   6.263   1.825   6.255  0.0067  0.2085 -0.0574
12112TIP3    H136277   6.262   1.887   6.183 -2.0785 -0.7898 -0.9844
12112TIP3    H236278   6.206   1.865   6.321 -1.2010 -0.5790 -0.5870
12113TIP3   OH236279   7.139   5.526   1.965 -0.1148 -0.4958 -0.1542
12113TIP3    H136280   7.137   5.461   2.036 -0.2448 -1.0061 -0.6168
12113TIP3    H236281   7.232   5.536   1.944  0.0135  0.4317  0.7773
12114TIP3   OH236282   7.942   7.382   3.606  0.0685 -0.3587  0.5040
12114TIP3    H136283   7.976   7.439   3.675 -0.8570  1.1406 -0.2253
12114TIP3    H236284   7.977   7.419   3.525 -1.2228 -0.3157 -0.0578
12115TIP3   OH236285   1.039   4.589   4.427  0.6129 -0.3287 -0.0020
12115TIP3    H136286   0.964   4.630   4.384  0.5138 -0.5929 -0.0781
12115TIP3    H236287   1.114   4.618   4.376  0.6750  0.7372  0.6464
12116TIP3   OH236288   0.781   0.683   2.271  0.2714  0.1806 -0.4571
12116TIP3    H136289   0.837   0.720   2.339 -0.6364  0.4566  0.1544
12116TIP3    H236290   0.782   0.748   2.201 -1.0229  1.2415  0.4579
12117TIP3   OH236291   6.589   5.504   6.638 -0.4848  0.2544  0.0448
12117TIP3    H136292   6.663   5.474   6.692  0.4570  0.8020 -0.8961
12117TIP3    H236293   6.630   5.536   6.558 -1.6790  1.5369 -0.0781
12118TIP3   OH236294   7.965   4.648   0.900  0.0916 -0.3160 -0.1447
12118TIP3    H136295   7.972   4.689   0.815  1.0498 -0.6031 -0.2086
12118TIP3    H236296   7.874   4.664   0.927 -0.2413 -0.2877 -1.2410
12119TIP3   OH236297   6.150   5.235   6.423  0.0158 -0.8289 -0.0450
12119TIP3    H136298   6.221   5.283   6.466  0.1562 -0.6264 -0.5034
12119TIP3    H236299   6.167   5.143   6.444 -0.6206 -0.6603  1.3961
12120TIP3   OH236300   4.831   5.518   2.972  0.8661  0.1891 -0.3885
12120TIP3    H136301   4.781   5.591   2.934 -0.2728  0.9136  2.2810
12120TIP3    H236302   4.826   5.449   2.906 -2.5844  0.6804 -0.8390
12121TIP3   OH236303   3.765   0.532   3.878 -0.0722  0.3892  0.4062
12121TIP3    H136304   3.705   0.459   3.889  2.1266 -1.6093 -0.1770
12121TIP3    H236305   3.748   0.564   3.789 -0.6767  0.2528  0.4702
12122TIP3   OH236306   6.443   7.724   1.690 -0.1615  0.0229  0.0418
12122TIP3    H136307   6.489   7.802   1.720 -2.2284  1.2628  0.1943
12122TIP3    H236308   6.480   7.653   1.743  1.8541  0.8319 -0.1869
12123TIP3   OH236309   3.892   6.479   6.155 -0.3813  0.0348  0.2485
12123TIP3    H136310   3.828   6.550   6.157 -1.6534 -1.0728  1.1645
12123TIP3    H236311   3.859   6.419   6.088 -0.7648 -0.9214  1.2583
12124TIP3   OH236312   6.916   7.591   6.536 -0.5180 -0.3985  0.4467
12124TIP3    H136313   6.935   7.611   6.627 -1.9976 -0.0005  0.7024
12124TIP3    H236314   6.963   7.509   6.518  0.3597 -0.0992  1.3403
12125TIP3   OH236315   6.890   7.056   1.606 -0.3419  0.1753  0.5325
12125TIP3    H136316   6.923   6.994   1.672  0.4319 -0.0298 -0.0266
12125TIP3    H236317   6.912   7.015   1.523 -0.0006  1.1195  0.1509
12126TIP3   OH236318   8.045   6.965   2.193  0.2639  0.3936 -0.0558
12126TIP3    H136319   7.978   7.013   2.143  1.0441  2.0231  0.3721
12126TIP3    H236320   8.117   7.028   2.203 -0.0164  0.3753  3.5033
12127TIP3   OH236321   2.005   1.110   5.925 -0.0848  0.1522  0.1584
12127TIP3    H136322   1.993   1.203   5.905 -1.7848 -0.0969 -0.1150
12127TIP3    H236323   2.048   1.074   5.847 -0.4073  0.4933 -0.1805
12128TIP3   OH236324   3.582   4.557   4.411  0.2982  0.1367  0.0192
12128TIP3    H136325   3.491   4.583   4.404  0.1726  0.8732  3.0961
12128TIP3    H236326   3.590   4.519   4.498  3.1923  1.2814  0.3599
12129TIP3   OH236327   1.162   4.441   5.879 -0.8873  0.1737  0.7010
12129TIP3    H136328   1.225   4.436   5.951 -0.4041 -0.7749  0.2240
12129TIP3    H236329   1.212   4.414   5.802 -1.5389  0.6793  0.0891
12130TIP3   OH236330   8.047   1.283   2.837  0.2486 -0.1558  0.1465
12130TIP3    H136331   8.115   1.318   2.895 -0.7858  0.5883  0.9620
12130TIP3    H236332   8.094   1.250   2.761  1.4271  1.7405 -0.0182
12131TIP3   OH236333   0.849   3.725   0.770  0.3847  0.4267  0.3695
12131TIP3    H136334   0.892   3.720   0.685 -0.4141  1.2254 -0.0924
12131TIP3    H236335   0.856   3.637   0.806  2.0532  0.4311  0.1490
12132TIP3   OH236336   4.568   4.654   0.344 -0.1324  0.4695  0.2949
12132TIP3    H136337   4.634   4.722   0.359 -0.0734  0.4160  0.2789
12132TIP3    H236338   4.550   4.617   0.430 -0.4093  0.7319  0.3500
12133TIP3   OH236339   1.781   3.679   0.909  0.1374 -0.7105 -0.0941
12133TIP3    H136340   1.771   3.600   0.857 -1.1240 -1.7824  1.7070
12133TIP3    H236341   1.729   3.664   0.987  2.2353  0.6907  1.6842
12134TIP3   OH236342   4.114   0.700   6.112  0.3120  0.2908  0.0470
12134TIP3    H136343   4.064   0.618   6.112 -2.2833  1.7458  0.7069
12134TIP3    H236344   4.123   0.722   6.205  0.8595  0.8208 -0.1311
12135TIP3   OH236345   7.437   2.709   6.817  0.2115 -0.1337 -0.1636
12135TIP3    H136346   7.462   2.801   6.810 -0.4044 -0.0022 -0.7660
12135TIP3    H236347   7.438   2.676   6.727  0.3059 -0.6808  0.0332
12136TIP3   OH236348   5.168   7.234   5.900  0.4271 -0.6930  0.7013
12136TIP3    H136349   5.099   7.201   5.842 -0.7501  1.9641  0.4373
12136TIP3    H236350   5.123   7.253   5.982  1.2880 -0.7658  1.1962
12137TIP3   OH236351   2.427   0.735   5.866  0.8462 -0.2428 -1.2475
12137TIP3    H136352   2.352   0.732   5.925  1.8375  1.5997  0.2126
12137TIP3    H236353   2.419   0.819   5.820  2.2329  0.2096 -0.7149
12138TIP3   OH236354   0.548   6.520   2.615  0.1327  0.0824 -0.1397
12138TIP3    H136355   0.506   6.604   2.593 -0.2941  0.4636  1.9575
12138TIP3    H236356   0.594   6.495   2.535 -0.3545  1.9429 -1.0574
12139TIP3   OH236357   6.720   5.112   1.738  0.0058  0.0167  0.1934
12139TIP3    H136358   6.681   5.157   1.812  0.2449  1.3413 -0.4357
12139TIP3    H236359   6.793   5.169   1.712 -0.3885 -0.1288 -1.3586
12140TIP3   OH236360   6.200   7.259   1.699  0.0877  0.1249 -0.6510
12140TIP3    H136361   6.288   7.234   1.727  0.2154 -0.2341 -1.3569
12140TIP3    H236362   6.184   7.343   1.742 -0.2691 -1.0193  1.5837
12141TIP3   OH236363   8.116   5.549   6.624  0.3381 -0.1994  0.3493
12141TIP3    H136364   8.159   5.606   6.560 -1.3221  1.7074  0.8168
12141TIP3    H236365   8.025   5.544   6.595 -0.1237 -0.4831  1.7546
12142TIP3   OH236366   0.120   5.770   0.531  0.1919  0.8328 -0.2586
12142TIP3    H136367   0.039   5.772   0.582  0.8576 -1.0166  0.9656
12142TIP3    H236368   0.112   5.691   0.477  1.8858 -0.3564  1.1552
12143TIP3   OH236369   0.811   2.773   5.295  0.4062 -0.4269  0.6400
12143TIP3    H136370   0.767   2.858   5.298  0.6845 -0.1754 -1.1480
12143TIP3    H236371   0.777   2.725   5.371  0.6183  1.4384  1.9594
12144TIP3   OH236372   8.268   0.038   5.644 -0.2417 -0.3729 -0.0386
12144TIP3    H136373   8.244   0.078   5.728 -1.1030 -0.1931 -0.3625
12144TIP3    H236374   8.195   0.058   5.586  0.1757 -0.8209 -0.7340
12145TIP3   OH236375   2.141   2.436   5.060 -0.1541  0.0847  0.5717
12145TIP3    H136376   2.138   2.413   4.967 -2.7921  1.2024  0.3032
12145TIP3    H236377   2.131   2.352   5.105  1.5164 -0.5180 -0.0881
12146TIP3   OH236378   8.198   4.699   5.447 -0.6580 -0.0698 -0.1347
12146TIP3    H136379   8.270   4.745   5.491 -0.5255 -1.5755  1.3501
12146TIP3    H236380   8.239   4.659   5.370  0.3840 -1.6192  1.1453
12147TIP3   OH236381   7.569   3.932   0.252  0.1583  0.1610  0.0452
12147TIP3    H136382   7.481   3.968   0.262 -0.2852 -0.4255 -1.5326
12147TIP3    H236383   7.562   3.843   0.285  0.4915  0.4998  1.0716
12148TIP3   OH236384   6.677   2.261   2.503  0.2416  0.5632 -0.5077
12148TIP3    H136385   6.734   2.196   2.543  2.1234  1.4137 -1.6195
12148TIP3    H236386   6.737   2.331   2.475 -0.8917  0.2502 -4.3357
12149TIP3   OH236387   6.869   0.295   2.058  0.0627 -0.2018  0.2851
12149TIP3    H136388   6.808   0.261   1.993 -2.7386  3.0605  0.9011
12149TIP3    H236389   6.936   0.340   2.006 -0.2975 -0.4273 -0.3901
12150TIP3   OH236390   4.070   1.442   2.267  0.5217 -0.3283  0.1683
12150TIP3    H136391   4.085   1.533   2.240 -1.6313 -0.1345 -0.5612
12150TIP3    H236392   3.980   1.424   2.242  0.5651 -2.3549  1.2548
12151TIP3   OH236393   6.485   1.198   5.282  0.2687  0.4577  0.8537
12151TIP3    H136394   6.449   1.111   5.264  0.6239 -0.1982  3.0740
12151TIP3    H236395   6.551   1.184   5.349 -0.4662  2.5727  2.1296
12152TIP3   OH236396   7.741   6.301   0.124  0.3329 -0.1100 -0.2468
12152TIP3    H136397   7.707   6.250   0.199 -0.4729  0.8034  0.0319
12152TIP3    H236398   7.836   6.299   0.135  0.2692 -0.7709  0.2807
12153TIP3   OH236399   4.779   1.780   6.627 -0.7659  0.1453 -0.5943
12153TIP3    H136400   4.749   1.692   6.604  0.8032 -1.2351  2.0848
12153TIP3    H236401   4.707   1.818   6.677 -0.2572 -0.9971  1.0928
12154TIP3   OH236402   4.289   3.156   0.333  0.0749 -0.0196 -0.0424
12154TIP3    H136403   4.309   3.221   0.401  0.3613  0.9864 -1.0425
12154TIP3    H236404   4.273   3.209   0.255  0.3103 -1.1777 -0.8887
12155TIP3   OH236405   5.708   7.427   4.116 -0.7650  0.2824  0.7619
12155TIP3    H136406   5.760   7.421   4.035  1.9833 -2.0884  2.4979
12155TIP3    H236407   5.692   7.521   4.127  1.7783  1.0109 -0.7863
12156TIP3   OH236408   3.105   6.427   5.212 -0.1845  0.0739  0.0286
12156TIP3    H136409   3.174   6.435   5.146 -0.4127  2.1047 -0.0082
12156TIP3    H236410   3.144   6.462   5.292 -0.6652 -0.2370  0.4030
12157TIP3   OH236411   0.324   4.250   6.590 -0.9237 -0.0657  0.1155
12157TIP3    H136412   0.322   4.337   6.630  0.7337 -0.4465  1.1226
12157TIP3    H236413   0.356   4.265   6.501 -1.4194  0.4298  0.0144
12158TIP3   OH236414   8.221   5.752   6.426  0.1037 -0.1544  0.4619
12158TIP3    H136415   8.305   5.790   6.401  1.7754 -2.3969  2.1909
12158TIP3    H236416   8.193   5.804   6.502 -0.2255  0.7227 -0.2376
12159TIP3   OH236417   4.903   7.514   4.579 -0.4193  0.6082 -0.0741
12159TIP3    H136418   4.845   7.588   4.599  1.9398  2.4895  0.2363
12159TIP3    H236419   4.949   7.498   4.661  0.9115  0.5192 -0.8175
12160TIP3   OH236420   2.709   3.714   3.684  0.0091  0.9045 -0.3092
12160TIP3    H136421   2.778   3.777   3.661  1.6021 -0.6888 -0.1360
12160TIP3    H236422   2.715   3.706   3.779 -1.3802  1.7493 -0.1162
12161TIP3   OH236423   1.082   4.811   2.298  0.1779 -0.0251 -0.2109
12161TIP3    H136424   1.067   4.817   2.392 -1.0161 -1.0271 -0.3013
12161TIP3    H236425   1.108   4.720   2.284  0.0921  0.0477 -0.8737
12162TIP3   OH236426   4.028   7.130   0.628  0.4521 -0.1778 -0.4684
12162TIP3    H136427   4.079   7.208   0.605 -1.4292  2.0425  2.1760
12162TIP3    H236428   4.079   7.087   0.697 -0.4383  1.2906  1.2079
12163TIP3   OH236429   2.762   4.101   3.809  0.3896 -0.6822  0.1586
12163TIP3    H136430   2.681   4.049   3.810 -1.5721  2.1391  0.2223
12163TIP3    H236431   2.783   4.115   3.901 -0.2637  0.2340  0.1878
12164TIP3   OH236432   2.788   2.682   3.931 -0.1766  0.3378  0.7414
12164TIP3    H136433   2.735   2.758   3.955 -1.7104 -0.5073  0.1526
12164TIP3    H236434   2.768   2.666   3.839 -1.6961 -2.1291  1.3978
12165TIP3   OH236435   4.751   3.281   0.732  0.1793  0.0975 -0.0094
12165TIP3    H136436   4.700   3.223   0.676  2.3823 -0.8194 -1.1830
12165TIP3    H236437   4.785   3.348   0.672 -1.1451  1.8452  1.0812
12166TIP3   OH236438   6.392   1.549   5.639  0.0179 -0.2217  0.1115
12166TIP3    H136439   6.315   1.494   5.620 -0.1362  0.6708 -2.1530
12166TIP3    H236440   6.463   1.486   5.652 -0.7520 -1.0258  0.5414
12167TIP3   OH236441   2.412   0.163   6.328  0.0133 -0.0420 -0.3588
12167TIP3    H136442   2.490   0.131   6.373  0.4748 -0.0475 -1.1382
12167TIP3    H236443   2.445   0.229   6.266 -0.3965 -1.0575 -1.7138
12168TIP3   OH236444   2.105   7.401   1.616  0.2915 -0.5184 -0.3880
12168TIP3    H136445   2.143   7.398   1.528 -0.7528  0.6968 -0.8912
12168TIP3    H236446   2.047   7.476   1.615 -1.2074 -1.6136  0.7572
12169TIP3   OH236447   4.629   6.208   3.325  0.1889  0.0762  0.2695
12169TIP3    H136448   4.569   6.262   3.376 -0.1171  0.0275 -0.0416
12169TIP3    H236449   4.649   6.261   3.248 -0.5611 -0.4862 -0.3188
12170TIP3   OH236450   4.523   7.863   1.670 -0.2165 -0.6972  0.6997
12170TIP3    H136451   4.605   7.842   1.715 -0.3959 -1.7737  0.5518
12170TIP3    H236452   4.469   7.905   1.737  0.4778  0.1089  0.7755
12171TIP3   OH236453   0.667   1.550   3.096  0.1194 -0.1881  0.7682
12171TIP3    H136454   0.676   1.480   3.031  0.8395 -1.0994  1.8182
12171TIP3    H236455   0.702   1.513   3.177 -1.7385  0.5446  1.9793
12172TIP3   OH236456   7.490   4.881   5.315  0.1277  0.1004 -0.2102
12172TIP3    H136457   7.467   4.973   5.302  1.6531  0.3861 -1.2080
12172TIP3    H236458   7.407   4.838   5.337 -0.2369  2.0918  2.8549
12173TIP3   OH236459   8.348   7.502   0.571  0.4142  0.4867 -0.7216
12173TIP3    H136460   8.294   7.495   0.492 -1.2911 -2.5382  0.5553
12173TIP3    H236461   8.438   7.492   0.539 -0.1218  0.6579 -2.4036
12174TIP3   OH236462   3.651   1.948   4.231 -0.4388  0.1241  0.3902
12174TIP3    H136463   3.570   1.902   4.253 -1.6750  2.0789  0.1584
12174TIP3    H236464   3.647   1.960   4.137  0.6101 -0.5850  0.2396
12175TIP3   OH236465   6.065   5.791   3.159  0.0564 -0.1379  0.6131
12175TIP3    H136466   6.067   5.867   3.216  0.2715  1.0392 -0.8880
12175TIP3    H236467   6.153   5.788   3.120 -0.0990 -0.8694  0.2928
12176TIP3   OH236468   7.040   0.714   2.698 -0.0974 -0.6147 -0.0301
12176TIP3    H136469   7.068   0.692   2.786 -0.6071 -1.5707 -0.1034
12176TIP3    H236470   6.976   0.647   2.674  0.1822 -0.4932 -1.2046
12177TIP3   OH236471   6.751   1.719   3.589 -0.2395  0.6304 -1.0003
12177TIP3    H136472   6.827   1.698   3.642 -1.1644 -0.9784 -0.2489
12177TIP3    H236473   6.696   1.641   3.592 -1.8257  1.6481 -1.6949
12178TIP3   OH236474   7.219   0.993   4.234 -0.0621  0.1203  0.0491
12178TIP3    H136475   7.124   0.995   4.241  0.0468  0.8924  2.2614
12178TIP3    H236476   7.237   1.006   4.141 -2.1035 -0.6078 -0.5031
12179TIP3   OH236477   1.610   6.834   3.593  0.3761 -0.4537 -0.6184
12179TIP3    H136478   1.690   6.787   3.614  0.9938  1.1647  0.8926
12179TIP3    H236479   1.548   6.808   3.661  0.6520  0.6540  0.0945
12180TIP3   OH236480   8.330   5.780   0.253  0.4962  0.1724  0.1310
12180TIP3    H136481   8.413   5.825   0.236  0.2093  1.4562  1.9196
12180TIP3    H236482   8.355   5.699   0.297  0.8325  0.1835 -0.0374
12181TIP3   OH236483   2.087   6.615   5.006  0.1323  0.1429 -0.0221
12181TIP3    H136484   2.049   6.696   4.972 -0.0664 -0.6986 -1.8868
12181TIP3    H236485   2.130   6.642   5.088  0.4553  2.2168 -0.8185
12182TIP3   OH236486   6.268   4.271   2.024  0.4473  0.0870 -0.2865
12182TIP3    H136487   6.182   4.265   1.984  0.7615 -1.1202 -0.8399
12182TIP3    H236488   6.284   4.365   2.033 -0.0470  0.3864 -2.1009
12183TIP3   OH236489   0.725   0.059   0.267 -0.0744  0.1791  0.0091
12183TIP3    H136490   0.790   0.127   0.247  1.4229 -1.5290 -1.2905
12183TIP3    H236491   0.653   0.106   0.309  1.1255  2.4713 -0.3423
12184TIP3   OH236492   4.769   1.544   3.192 -0.6853  0.2457  0.2562
12184TIP3    H136493   4.820   1.592   3.127 -1.2289 -1.4808 -1.5534
12184TIP3    H236494   4.693   1.598   3.209 -0.7261  0.5568 -0.8606
12185TIP3   OH236495   0.254   4.190   1.215  0.1906 -0.1808  0.3325
12185TIP3    H136496   0.185   4.226   1.271 -1.7792 -0.2454 -1.8814
12185TIP3    H236497   0.310   4.265   1.195 -0.2316  0.2648  0.8057
12186TIP3   OH236498   4.276   7.772   3.270  0.6768 -0.3416 -0.0775
12186TIP3    H136499   4.206   7.750   3.331  0.7596  0.1355  0.1904
12186TIP3    H236500   4.235   7.827   3.204  1.1188  1.3823  0.9968
12187TIP3   OH236501   2.408   4.487   3.824 -0.1416 -0.1451 -0.1899
12187TIP3    H136502   2.440   4.399   3.805 -1.0958 -0.5935  0.1818
12187TIP3    H236503   2.431   4.502   3.915  1.6490  0.7467 -0.7529
12188TIP3   OH236504   0.981   5.135   0.623  0.0630 -0.1319 -0.4024
12188TIP3    H136505   0.999   5.204   0.687  0.0744  2.7323 -3.1923
12188TIP3    H236506   0.902   5.092   0.655 -0.1646  1.4588  1.3283
12189TIP3   OH236507   4.903   7.323   6.321 -0.0502 -0.3747 -0.6132
12189TIP3    H136508   4.924   7.254   6.385 -0.8011 -0.1269 -0.0844
12189TIP3    H236509   4.921   7.283   6.236  1.6135 -0.4897 -0.2391
12190TIP3   OH236510   3.467   7.039   4.412 -0.6887  0.0340  0.3822
12190TIP3    H136511   3.414   7.119   4.413 -0.5276  0.1595  1.8643
12190TIP3    H236512   3.474   7.016   4.320 -3.1365  0.1333  0.1087
12191TIP3   OH236513   2.537   5.241   3.909 -1.0928 -0.7909 -0.3880
12191TIP3    H136514   2.565   5.227   3.818 -1.3877 -1.8414 -0.3268
12191TIP3    H236515   2.467   5.306   3.903  1.4294  2.1608 -0.5246
12192TIP3   OH236516   1.320   3.078   2.493  0.2729  0.1456 -0.1894
12192TIP3    H136517   1.354   3.154   2.445 -1.1137  2.0001  1.5664
12192TIP3    H236518   1.228   3.099   2.508  0.9169  0.6500  4.7216
12193TIP3   OH236519   5.754   2.213   2.915  0.5756 -0.1467 -0.2628
12193TIP3    H136520   5.726   2.304   2.918  2.1271  0.4332 -1.5407
12193TIP3    H236521   5.841   2.216   2.875 -0.0459 -2.3399 -1.9838
12194TIP3   OH236522   1.155   1.426   5.163 -0.1254  0.4738  0.3095
12194TIP3    H136523   1.085   1.375   5.123 -0.3102  0.7101  0.3331
12194TIP3    H236524   1.170   1.384   5.248 -0.0409  0.2495  0.1855
12195TIP3   OH236525   6.130   3.313   2.040  0.0411 -0.1122 -0.0976
12195TIP3    H136526   6.077   3.247   1.995  1.7789 -2.2991  0.8426
12195TIP3    H236527   6.203   3.329   1.980 -0.7811  1.6274 -0.6734
12196TIP3   OH236528   4.507   6.531   2.241 -0.1567  0.2678  0.4984
12196TIP3    H136529   4.466   6.450   2.272 -1.0233 -0.6014 -2.6007
12196TIP3    H236530   4.434   6.587   2.216  0.4857  0.8714 -0.0467
12197TIP3   OH236531   1.610   2.370   2.259  0.2874 -0.1577 -0.2228
12197TIP3    H136532   1.520   2.363   2.227  0.3461 -1.2404 -0.2054
12197TIP3    H236533   1.615   2.306   2.330  1.4713 -1.2554 -1.2242
12198TIP3   OH236534   5.108   7.670   4.287 -0.0516  0.1211  0.3375
12198TIP3    H136535   5.013   7.659   4.283  0.0630 -1.0497  0.4667
12198TIP3    H236536   5.143   7.581   4.277  1.1315  0.7882 -2.4559
12199TIP3   OH236537   1.888   7.864   4.659 -0.1906  0.3038 -0.1574
12199TIP3    H136538   1.799   7.895   4.672 -0.2508  0.4827 -0.9362
12199TIP3    H236539   1.941   7.918   4.719 -0.6590 -0.1721  0.6962
12200TIP3   OH236540   0.342   5.014   1.247  0.0163 -0.3042 -0.1180
12200TIP3    H136541   0.261   5.061   1.265 -0.1377 -0.4589 -0.4054
12200TIP3    H236542   0.314   4.926   1.221  0.3214 -0.7068  0.8901
12201TIP3   OH236543   7.551   4.019   2.192  0.4191 -0.3349 -0.6442
12201TIP3    H136544   7.629   3.977   2.155  0.5124 -0.8258  0.0889
12201TIP3    H236545   7.524   3.961   2.263  0.4297  0.7393  0.2651
12202TIP3   OH236546   4.974   2.430   1.563  0.6309 -0.3074 -0.1821
12202TIP3    H136547   4.983   2.373   1.487  3.4052 -0.1902 -0.0247
12202TIP3    H236548   4.964   2.369   1.637  0.5354 -0.4883 -0.3419
12203TIP3   OH236549   1.120   6.125   4.032 -0.0108 -0.1188 -0.4654
12203TIP3    H136550   1.038   6.155   3.991  0.2431  0.4643 -0.5504
12203TIP3    H236551   1.171   6.088   3.959 -0.6628 -1.5613 -0.2351
12204TIP3   OH236552   2.783   5.378   2.413 -0.1750  0.2832 -0.3474
12204TIP3    H136553   2.843   5.330   2.356 -0.0280  0.8663 -0.6961
12204TIP3    H236554   2.837   5.402   2.489 -0.4375 -0.7114  0.1647
12205TIP3   OH236555   3.039   4.927   6.153  0.0032 -0.4191  0.1781
12205TIP3    H136556   3.088   4.855   6.194  0.6381  0.6255  1.2929
12205TIP3    H236557   2.953   4.925   6.195 -0.3321 -1.1078 -0.4930
12206TIP3   OH236558   4.118   3.251   4.342 -0.1701  0.2991 -0.0712
12206TIP3    H136559   4.124   3.250   4.438 -0.8301 -0.6426 -0.0182
12206TIP3    H236560   4.063   3.326   4.322  0.5832  0.9461  0.2321
12207TIP3   OH236561   0.509   1.434   2.342  0.0538  0.4520 -0.3234
12207TIP3    H136562   0.449   1.480   2.401 -3.1170  0.4747 -3.2458
12207TIP3    H236563   0.473   1.346   2.335  0.4011  0.4109 -2.0591
12208TIP3   OH236564   6.235   1.898   3.857  0.0689 -0.1065 -0.1185
12208TIP3    H136565   6.269   1.809   3.864  1.1118  0.3700  1.3944
12208TIP3    H236566   6.141   1.887   3.846  0.0731 -1.3963  0.9142
12209TIP3   OH236567   2.896   6.353   0.601  0.2435 -0.7740  0.6120
12209TIP3    H136568   2.903   6.421   0.668  1.4971 -1.2202  0.9603
12209TIP3    H236569   2.861   6.277   0.648  0.9669 -1.0361  0.7486
12210TIP3   OH236570   0.884   3.449   0.667  0.3459 -0.1243 -0.5836
12210TIP3    H136571   0.974   3.448   0.633  0.3283 -0.6237 -0.6203
12210TIP3    H236572   0.837   3.385   0.613  0.5225 -1.5778  0.8846
12211TIP3   OH236573   3.975   5.002   4.959 -0.4158  0.3467 -0.3125
12211TIP3    H136574   3.973   5.047   5.043  0.8951  0.9361 -0.5785
12211TIP3    H236575   4.019   5.063   4.900 -2.0963  0.3146 -1.6684
12212TIP3   OH236576   6.848   4.900   1.619 -0.2573  0.8851 -0.1314
12212TIP3    H136577   6.938   4.912   1.648 -0.8029  0.7572  1.7713
12212TIP3    H236578   6.799   4.969   1.663 -0.9231  1.8111 -2.2085
12213TIP3   OH236579   4.842   7.054   1.400 -0.2542  0.4804 -0.0650
12213TIP3    H136580   4.791   7.076   1.323  1.7078  1.3617 -1.1757
12213TIP3    H236581   4.836   6.958   1.406 -0.4915  0.4045 -1.2737
12214TIP3   OH236582   7.596   5.655   0.430  0.5631  0.1278  0.1493
12214TIP3    H136583   7.653   5.578   0.433  0.1367 -0.2517 -1.0244
12214TIP3    H236584   7.541   5.647   0.508 -0.8709 -1.8773 -0.9695
12215TIP3   OH236585   8.260   4.921   1.093  0.1166 -0.1198  0.1047
12215TIP3    H136586   8.219   4.846   1.137  1.7714 -0.9121  0.3955
12215TIP3    H236587   8.313   4.881   1.024  1.2957  0.7420  0.4877
12216TIP3   OH236588   6.023   4.224   4.438 -0.2156  0.4412  0.2410
12216TIP3    H136589   5.986   4.284   4.373  1.1534 -0.4075 -1.4041
12216TIP3    H236590   5.968   4.146   4.432  1.3158 -0.5856 -1.7669
12217TIP3   OH236591   4.283   3.319   4.648 -0.0490  0.3449  0.0724
12217TIP3    H136592   4.255   3.232   4.619  1.6068  0.3226 -1.6991
12217TIP3    H236593   4.256   3.324   4.740 -2.7935 -0.8594 -0.5882
12218TIP3   OH236594   4.876   7.129   0.632  1.1194  0.1035 -0.3752
12218TIP3    H136595   4.851   7.179   0.709  1.8336  1.2639 -0.8689
12218TIP3    H236596   4.828   7.046   0.640  1.2649  0.1524  1.3595
12219TIP3   OH236597   2.295   5.337   4.738  0.0894  0.2173  0.2575
12219TIP3    H136598   2.291   5.421   4.783  0.1930  0.7965 -0.7684
12219TIP3    H236599   2.387   5.327   4.714  0.2383 -0.6169  1.1405
12220TIP3   OH236600   1.193   5.033   6.775  0.2419  0.5873 -0.2532
12220TIP3    H136601   1.195   5.058   6.867  1.3249  1.4965 -0.4872
12220TIP3    H236602   1.217   5.114   6.728  1.0144 -0.1757 -1.2281
12221TIP3   OH236603   7.225   5.364   5.399  0.2398  0.3314 -0.0781
12221TIP3    H136604   7.307   5.400   5.366 -0.9097  2.2661 -0.9724
12221TIP3    H236605   7.220   5.276   5.362  1.9795  0.1105  0.1519
12222TIP3   OH236606   4.250   1.119   3.435 -0.1620 -0.2761 -0.2315
12222TIP3    H136607   4.223   1.093   3.348 -0.5250  0.9075 -0.4953
12222TIP3    H236608   4.343   1.142   3.426  0.2228 -1.6633  0.0554
12223TIP3   OH236609   6.080   2.927   4.062 -0.2115  0.6163 -0.2264
12223TIP3    H136610   6.133   2.907   3.985  0.1191 -0.3880  0.2420
12223TIP3    H236611   5.993   2.892   4.041 -0.0803  0.2017 -0.0870
12224TIP3   OH236612   2.033   5.630   0.710  0.2162 -0.0447  0.0673
12224TIP3    H136613   1.940   5.646   0.726 -0.4723 -2.5223 -0.8778
12224TIP3    H236614   2.064   5.708   0.664 -1.7379  0.2983 -0.7594
12225TIP3   OH236615   1.392   1.549   4.017  0.1807 -0.2155  0.3612
12225TIP3    H136616   1.448   1.621   3.990 -0.4340  0.0059 -0.3394
12225TIP3    H236617   1.398   1.486   3.945 -1.0442  0.1416 -0.0734
12226TIP3   OH236618   2.197   0.662   1.575 -0.0904  0.0094 -0.2419
12226TIP3    H136619   2.134   0.678   1.505  0.7443 -0.0039 -1.0123
12226TIP3    H236620   2.221   0.749   1.607  0.3904  0.0827 -0.7721
12227TIP3   OH236621   5.501   2.433   2.072  0.0445 -0.4092 -0.1346
12227TIP3    H136622   5.407   2.448   2.070  0.2178  0.8502  0.3587
12227TIP3    H236623   5.530   2.446   1.982  0.2790  3.1982  0.3186
12228TIP3   OH236624   2.568   7.019   2.433 -0.3021  0.1099  0.4559
12228TIP3    H136625   2.561   7.040   2.339 -1.5646 -0.8104  0.3213
12228TIP3    H236626   2.661   7.025   2.452  0.5174 -3.2183 -1.7295
12229TIP3   OH236627   1.067   4.249   2.278 -0.1272  0.2581  0.0499
12229TIP3    H136628   1.132   4.216   2.217 -0.4757 -0.2118 -0.0725
12229TIP3    H236629   0.996   4.185   2.275 -0.4371  0.5739  0.4518
12230TIP3   OH236630   3.677   1.872   1.542 -0.1451 -0.9089  0.7643
12230TIP3    H136631   3.614   1.803   1.522 -0.2703 -0.4623 -0.4906
12230TIP3    H236632   3.757   1.826   1.564 -0.4588 -1.4657  0.7553
12231TIP3   OH236633   8.394   7.843   4.873  0.1098  0.4707 -0.1892
12231TIP3    H136634   8.402   7.756   4.834 -1.8422  0.7279 -1.3150
12231TIP3    H236635   8.406   7.828   4.967 -1.9066 -1.3586 -0.1461
12232TIP3   OH236636   3.457   2.220   3.175  0.2577  0.5845 -0.3511
12232TIP3    H136637   3.413   2.204   3.259  0.3681 -0.5195 -0.4912
12232TIP3    H236638   3.397   2.278   3.128 -0.6788 -0.2340 -0.2189
12233TIP3   OH236639   3.371   6.924   6.347  0.1086 -0.1880  0.2925
12233TIP3    H136640   3.445   6.984   6.340  1.3563 -1.6692  0.3178
12233TIP3    H236641   3.343   6.930   6.438  1.2801 -0.8342  0.7127
12234TIP3   OH236642   7.055   5.306   5.694  0.3783  0.3661  0.1459
12234TIP3    H136643   7.043   5.321   5.601  0.5172 -1.3308 -0.1738
12234TIP3    H236644   7.120   5.236   5.699  0.4852  0.5342  1.5235
12235TIP3   OH236645   0.280   4.081   5.066  0.3637  0.0820 -0.1129
12235TIP3    H136646   0.262   4.085   4.972  0.1599  0.6701 -0.0526
12235TIP3    H236647   0.375   4.070   5.072  0.4932  0.9435 -0.3838
12236TIP3   OH236648   7.029   1.676   0.995  0.5395 -0.2196 -0.3271
12236TIP3    H136649   7.098   1.623   1.035  0.6411 -0.1182 -0.3664
12236TIP3    H236650   7.020   1.641   0.906  0.3314 -0.4281 -0.2261
12237TIP3   OH236651   8.368   5.972   2.884  0.2206 -0.3285 -0.2969
12237TIP3    H136652   8.362   5.951   2.977 -1.7231 -0.5168 -0.4090
12237TIP3    H236653   8.335   6.061   2.877 -0.3475 -0.5716 -0.8748
12238TIP3   OH236654   4.563   7.001   5.706 -0.3947  0.3772 -0.4278
12238TIP3    H136655   4.615   6.922   5.724  0.1548  0.4913 -1.4570
12238TIP3    H236656   4.475   6.978   5.734  0.2324  0.2934  1.7058
12239TIP3   OH236657   7.308   2.619   3.535  0.7389 -0.2463  0.1777
12239TIP3    H136658   7.320   2.572   3.452 -0.0618  0.7516 -0.5291
12239TIP3    H236659   7.343   2.559   3.602  1.1693 -1.1734 -0.8438
12240TIP3   OH236660   0.086   7.150   4.702 -1.0071 -0.0161 -0.1689
12240TIP3    H136661   0.091   7.100   4.621 -0.4036  0.3150 -0.3414
12240TIP3    H236662   0.038   7.229   4.679 -0.6188  0.1955 -0.2729
12241TIP3   OH236663   0.662   3.558   3.824 -0.2367  0.5115  0.2751
12241TIP3    H136664   0.715   3.635   3.802  0.1341  0.7158  1.7230
12241TIP3    H236665   0.705   3.521   3.902 -1.3021 -0.2571  0.5260
12242TIP3   OH236666   7.610   5.946   0.387  0.7295  0.9438  0.4292
12242TIP3    H136667   7.605   5.969   0.479 -1.1611 -0.8063  0.8334
12242TIP3    H236668   7.562   6.015   0.342 -1.2257  0.1083  1.1534
12243TIP3   OH236669   8.346   3.022   5.723  0.0613 -0.1520  0.6891
12243TIP3    H136670   8.430   2.983   5.699  1.1951  0.8858  2.7710
12243TIP3    H236671   8.297   2.950   5.765 -0.0294 -0.6812 -0.2816
12244TIP3   OH236672   1.750   2.393   4.879 -0.3125 -0.5013 -0.0116
12244TIP3    H136673   1.773   2.470   4.827 -1.2636 -0.6981 -0.7609
12244TIP3    H236674   1.799   2.321   4.839 -1.4833 -0.7587 -1.0374
12245TIP3   OH236675   4.355   0.390   0.392  1.0838 -0.2959 -0.0152
12245TIP3    H136676   4.312   0.396   0.477 -0.3322  1.4424 -0.7915
12245TIP3    H236677   4.448   0.389   0.412  0.7743 -0.4050  1.5606
12246TIP3   OH236678   3.799   6.523   0.607  0.4318 -0.0290 -0.8544
12246TIP3    H136679   3.871   6.561   0.658 -0.1070  1.1602 -0.9479
12246TIP3    H236680   3.770   6.448   0.660  1.0588  0.1034 -0.3039
12247TIP3   OH236681   4.300   7.843   5.948 -0.5824  0.1562  0.0171
12247TIP3    H136682   4.270   7.838   6.039 -1.0166  1.4341 -0.0465
12247TIP3    H236683   4.240   7.904   5.906 -0.3515 -0.3714 -1.1286
12248TIP3   OH236684   8.189   2.796   4.977 -0.1723  0.3048 -0.6654
12248TIP3    H136685   8.272   2.830   4.944  0.0329 -0.7129 -1.2570
12248TIP3    H236686   8.183   2.830   5.066  1.1581 -0.0663 -0.4067
12249TIP3   OH236687   7.216   1.994   3.559 -0.4443 -0.3304 -0.3273
12249TIP3    H136688   7.303   1.971   3.528  0.1069  1.3245 -0.1474
12249TIP3    H236689   7.161   1.990   3.480  0.1899  0.3660 -0.8260
12250TIP3   OH236690   5.083   1.111   5.292 -0.0981 -0.0209 -0.2878
12250TIP3    H136691   5.058   1.175   5.225  1.4089  0.6328 -0.2757
12250TIP3    H236692   5.041   1.142   5.372 -0.7294  0.0162 -0.6299
12251TIP3   OH236693   3.806   2.428   2.218 -0.3390  0.3440  0.2006
12251TIP3    H136694   3.782   2.381   2.138 -0.3146  1.8372 -0.7248
12251TIP3    H236695   3.864   2.498   2.187  0.1238  0.6063  1.6139
12252TIP3   OH236696   2.895   7.347   4.053  0.1945  0.1003 -0.2462
12252TIP3    H136697   2.833   7.334   4.125  1.2899 -0.5807  0.5871
12252TIP3    H236698   2.935   7.262   4.040  2.9087  1.0772  1.0561
12253TIP3   OH236699   6.760   2.130   5.132  0.2057 -0.4289  0.1494
12253TIP3    H136700   6.797   2.164   5.050 -1.2415 -0.4848 -0.5656
12253TIP3    H236701   6.736   2.039   5.111  0.0108 -0.5110  0.7045
12254TIP3   OH236702   3.619   0.432   1.017  0.0623 -0.2969 -0.6795
12254TIP3    H136703   3.648   0.481   1.094 -1.2384 -3.0179  1.7192
12254TIP3    H236704   3.689   0.444   0.953  0.6439  3.0498  0.3765
12255TIP3   OH236705   2.012   7.827   6.052 -0.4476 -1.0249  0.1861
12255TIP3    H136706   2.076   7.813   6.122 -0.4706 -2.7202 -0.1042
12255TIP3    H236707   2.045   7.904   6.005 -1.2053  1.1024  2.8598
12256TIP3   OH236708   6.041   7.421   0.917 -0.1942 -0.0605 -0.6092
12256TIP3    H136709   5.952   7.445   0.944 -0.6257 -1.0503 -1.0972
12256TIP3    H236710   6.057   7.471   0.837  0.7192  2.1376  0.8429
12257TIP3   OH236711   1.264   6.121   3.428 -0.1576  0.2380 -0.0863
12257TIP3    H136712   1.191   6.104   3.487  0.1496  0.4364  0.3620
12257TIP3    H236713   1.325   6.048   3.444  0.8131  1.2931  1.2766
12258TIP3   OH236714   3.411   5.122   3.713  0.5834 -0.4524  0.7385
12258TIP3    H136715   3.389   5.052   3.651 -0.1191 -0.0737  0.5506
12258TIP3    H236716   3.330   5.138   3.761  0.3763  1.0519 -0.0432
12259TIP3   OH236717   1.384   1.376   6.572 -0.1696  0.2420 -0.0602
12259TIP3    H136718   1.339   1.342   6.495  0.2404  1.3634 -0.8006
12259TIP3    H236719   1.362   1.313   6.641 -1.6887 -0.0177 -0.7381
12260TIP3   OH236720   2.154   7.826   6.299 -0.1578  0.2549  0.1617
12260TIP3    H136721   2.124   7.739   6.325  1.9569 -0.1208  1.6141
12260TIP3    H236722   2.139   7.881   6.376 -1.1260  1.1202 -0.6177
12261TIP3   OH236723   0.278   1.938   1.654 -0.9052 -0.4772  0.3130
12261TIP3    H136724   0.271   2.032   1.670 -0.2300 -0.3916  0.1330
12261TIP3    H236725   0.188   1.908   1.647 -1.1256  0.1585  0.3622
12262TIP3   OH236726   6.466   4.908   3.236 -0.3514 -0.6381  0.5454
12262TIP3    H136727   6.393   4.963   3.263 -0.4207  0.2722 -1.3351
12262TIP3    H236728   6.511   4.886   3.317 -0.2706  2.2953  1.4177
12263TIP3   OH236729   2.385   6.345   5.581 -0.8778  0.5936 -0.3772
12263TIP3    H136730   2.294   6.375   5.592 -1.2279  0.2473 -2.0617
12263TIP3    H236731   2.376   6.260   5.536  0.2839  0.5854 -0.6067
12264TIP3   OH236732   7.433   4.431   6.036 -0.0607 -0.4073 -0.6343
12264TIP3    H136733   7.377   4.458   5.964 -0.7801  0.4819  0.2258
12264TIP3    H236734   7.390   4.354   6.073 -0.9558  0.4924  0.2569
12265TIP3   OH236735   7.404   3.229   3.765 -0.1060 -0.4701  0.2872
12265TIP3    H136736   7.361   3.254   3.846  0.1061 -0.9760  0.5574
12265TIP3    H236737   7.494   3.208   3.791  0.0403 -0.3664 -0.1220
12266TIP3   OH236738   0.432   0.143   3.741 -0.2706  0.4635  0.0255
12266TIP3    H136739   0.457   0.234   3.753 -0.0559  0.5295 -0.8742
12266TIP3    H236740   0.433   0.129   3.646  0.6329 -0.7359  0.1801
12267TIP3   OH236741   8.111   2.643   4.056  0.2850 -0.2435 -0.0694
12267TIP3    H136742   8.171   2.581   4.014 -0.8174 -1.0978 -0.4152
12267TIP3    H236743   8.049   2.666   3.987 -1.0456 -1.0186  0.8322
12268TIP3   OH236744   0.715   3.180   3.078  0.3178 -0.0500 -0.4796
12268TIP3    H136745   0.723   3.220   3.164  0.1941 -0.0096 -0.4873
12268TIP3    H236746   0.667   3.244   3.026 -1.5808 -1.0012  0.0354
12269TIP3   OH236747   3.792   7.127   1.330 -0.2043 -0.0735  0.4263
12269TIP3    H136748   3.748   7.143   1.246  1.7388 -4.8906 -1.8947
12269TIP3    H236749   3.741   7.058   1.371  0.6843 -0.0377  1.6349
12270TIP3   OH236750   2.152   4.754   6.261 -0.5961 -0.1235 -0.2994
12270TIP3    H136751   2.183   4.689   6.197 -0.7455 -1.2915  0.7704
12270TIP3    H236752   2.178   4.718   6.346 -1.7997  0.5931  0.3985
12271TIP3   OH236753   5.024   6.988   3.321  0.4920  0.1316 -0.0671
12271TIP3    H136754   4.968   6.916   3.351  1.2184 -0.9382 -1.2165
12271TIP3    H236755   4.962   7.056   3.295 -0.2199  1.0044  3.3529
12272TIP3   OH236756   5.690   6.325   3.805  0.0311 -0.2191 -0.1217
12272TIP3    H136757   5.607   6.278   3.795 -1.1184  1.5245  0.6670
12272TIP3    H236758   5.694   6.346   3.898  0.5907  1.0594 -0.4193
12273TIP3   OH236759   8.375   7.802   6.249 -0.2698 -0.1220 -0.5204
12273TIP3    H136760   8.356   7.842   6.164  0.3940 -0.6691 -0.9292
12273TIP3    H236761   8.326   7.719   6.247  0.6301 -0.6611 -0.8311
12274TIP3   OH236762   2.006   1.704   4.497 -0.5098 -0.2545 -0.6179
12274TIP3    H136763   1.971   1.618   4.474  0.6969 -1.0740  0.4821
12274TIP3    H236764   2.012   1.750   4.413 -0.0390 -1.6969 -1.4151
12275TIP3   OH236765   3.920   5.095   5.800  0.5516  0.4748 -0.2099
12275TIP3    H136766   4.003   5.141   5.813  0.5139  0.6198 -0.4765
12275TIP3    H236767   3.854   5.151   5.839  0.4609  0.8237 -0.8597
12276TIP3   OH236768   0.097   6.254   0.216  0.3499 -0.4178  0.2040
12276TIP3    H136769   0.031   6.189   0.193  0.9752 -1.5529  1.4599
12276TIP3    H236770   0.161   6.206   0.269  2.2595  0.6056 -1.0616
12277TIP3   OH236771   0.199   4.400   5.994 -0.4411 -0.9558 -0.1782
12277TIP3    H136772   0.142   4.408   6.071 -0.0822  0.7497 -0.0522
12277TIP3    H236773   0.262   4.471   6.004 -0.8443 -0.2111 -2.4444
12278TIP3   OH236774   7.233   6.468   4.850  0.1646 -0.3495  0.4386
12278TIP3    H136775   7.312   6.420   4.826  0.1290 -0.1793 -0.0446
12278TIP3    H236776   7.198   6.500   4.766  1.4776  2.5326  0.8590
12279TIP3   OH236777   2.757   0.424   1.626  0.0260 -1.0649 -0.0287
12279TIP3    H136778   2.841   0.429   1.580 -0.0687 -0.6844 -0.1557
12279TIP3    H236779   2.699   0.482   1.578  0.4853  0.9732  1.7492
12280TIP3   OH236780   1.675   7.653   0.965  0.1948  0.0520 -0.6563
12280TIP3    H136781   1.674   7.683   1.055 -1.0641 -1.2437 -0.1917
12280TIP3    H236782   1.628   7.720   0.916  1.3790  1.0389 -0.4801
12281TIP3   OH236783   2.766   3.308   4.109 -0.8679  0.5298  0.3877
12281TIP3    H136784   2.712   3.324   4.031 -1.1542  1.1273  0.7004
12281TIP3    H236785   2.776   3.213   4.112  1.1087  0.5825 -1.6862
12282TIP3   OH236786   4.686   7.506   6.340 -0.0181  0.0871 -0.5175
12282TIP3    H136787   4.763   7.450   6.326  0.1268  0.0155  0.4833
12282TIP3    H236788   4.621   7.447   6.378 -0.0319  0.4794  0.0831
12283TIP3   OH236789   0.290   5.201   4.074 -0.1822 -0.3996 -0.4545
12283TIP3    H136790   0.211   5.152   4.098 -2.2751  3.0801  0.4664
12283TIP3    H236791   0.349   5.188   4.149 -0.3545 -1.9649 -0.5444
12284TIP3   OH236792   6.139   7.558   5.184 -0.2723  0.0149 -0.2450
12284TIP3    H136793   6.183   7.477   5.208  0.4452  0.3486 -0.4161
12284TIP3    H236794   6.116   7.547   5.092 -4.7035 -2.0442  0.8178
12285TIP3   OH236795   3.284   5.659   6.560  0.1093  0.2561  0.1727
12285TIP3    H136796   3.222   5.586   6.561  0.8248 -0.3607  1.6835
12285TIP3    H236797   3.236   5.731   6.601  0.0068  0.1091  0.3116
12286TIP3   OH236798   3.566   3.477   6.860 -0.0600  0.1007 -1.0446
12286TIP3    H136799   3.564   3.386   6.830 -2.2294  0.3296 -1.7472
12286TIP3    H236800   3.600   3.526   6.784 -0.3122  0.0384 -1.1997
12287TIP3   OH236801   8.326   7.489   5.916  0.2667  0.7934 -0.0409
12287TIP3    H136802   8.244   7.482   5.867 -0.2723  2.2337  0.5769
12287TIP3    H236803   8.394   7.490   5.849 -0.2907  0.4027 -0.6175
12288TIP3   OH236804   5.690   7.104   1.188 -0.8679 -0.3557 -0.0058
12288TIP3    H136805   5.659   7.014   1.184 -1.4747 -0.1727  0.4360
12288TIP3    H236806   5.693   7.132   1.097  0.5327 -1.2146 -0.2428
12289TIP3   OH236807   7.305   7.631   2.295 -0.0952 -0.2962  0.3520
12289TIP3    H136808   7.259   7.581   2.227 -0.3723 -0.7648  0.8734
12289TIP3    H236809   7.247   7.626   2.371  0.2878  0.0860  0.6722
12290TIP3   OH236810   3.043   4.941   6.512 -0.4545 -0.5662 -0.0766
12290TIP3    H136811   2.966   4.887   6.530 -1.4271  0.8641  0.2475
12290TIP3    H236812   3.083   4.955   6.598 -0.3030 -0.6228 -0.1373
12291TIP3   OH236813   3.471   7.264   6.719  0.0562  0.3824 -0.1130
12291TIP3    H136814   3.425   7.306   6.646  1.1976  1.7908 -0.0752
12291TIP3    H236815   3.449   7.171   6.711 -2.1030  0.8769 -0.5630
12292TIP3   OH236816   2.244   4.653   4.689 -0.1605  0.0721  0.1435
12292TIP3    H136817   2.157   4.674   4.655 -0.0095 -1.2108 -1.1049
12292TIP3    H236818   2.228   4.581   4.751  0.1085 -0.8247 -0.8146
12293TIP3   OH236819   8.299   7.168   6.502 -0.4122  0.3090  0.1194
12293TIP3    H136820   8.294   7.251   6.455  0.7156  1.6768  2.2157
12293TIP3    H236821   8.379   7.126   6.470 -0.9407  0.0433 -0.8851
12294TIP3   OH236822   5.219   6.832   4.828 -0.1923 -0.0426  0.0603
12294TIP3    H136823   5.261   6.901   4.879 -0.8450  0.7045 -0.3800
12294TIP3    H236824   5.188   6.877   4.749  0.5664 -1.1208 -0.8686
12295TIP3   OH236825   5.907   7.080   2.079 -0.2299 -0.6279  0.3918
12295TIP3    H136826   5.858   7.103   2.158 -0.0780  0.4541  0.1779
12295TIP3    H236827   5.964   7.008   2.107 -0.4806 -0.5447  1.1520
12296TIP3   OH236828   3.274   7.452   0.935  0.0167 -1.2657  0.2366
12296TIP3    H136829   3.250   7.373   0.982  0.9691 -1.4014  0.5319
12296TIP3    H236830   3.271   7.427   0.843 -0.5835 -1.3753  0.2844
12297TIP3   OH236831   2.394   5.237   3.561 -0.1000 -0.0808  0.4154
12297TIP3    H136832   2.355   5.221   3.475 -0.4979 -0.6825  0.6976
12297TIP3    H236833   2.322   5.272   3.613 -0.5150 -1.9291  1.1647
12298TIP3   OH236834   3.506   1.160   2.879 -0.7858 -0.4490  0.4183
12298TIP3    H136835   3.579   1.141   2.937 -0.2419  0.6223  0.1130
12298TIP3    H236836   3.510   1.255   2.865 -1.8076 -0.4734 -0.1674
12299TIP3   OH236837   8.011   0.458   2.293 -0.2699 -0.1018 -0.3326
12299TIP3    H136838   7.971   0.397   2.231  0.8141 -2.1630  0.8758
12299TIP3    H236839   8.105   0.451   2.276 -0.0904  0.7417  0.2669
12300TIP3   OH236840   3.064   6.406   3.397 -0.2701 -0.5861  0.1949
12300TIP3    H136841   3.107   6.489   3.372 -1.6775 -0.1238 -0.8294
12300TIP3    H236842   3.039   6.418   3.488  0.4685 -0.2963  0.3667
12301TIP3   OH236843   4.081   0.678   2.883 -0.7396 -0.6454  0.2185
12301TIP3    H136844   4.042   0.756   2.843 -1.6639 -0.2651  1.7636
12301TIP3    H236845   4.175   0.694   2.880 -0.8836  0.1678 -0.2184
12302TIP3   OH236846   8.296   5.136   1.343  0.1643 -0.0941 -0.3963
12302TIP3    H136847   8.273   5.221   1.306  0.5817  0.1368 -0.1383
12302TIP3    H236848   8.212   5.093   1.358 -0.0308  0.0155 -1.1197
12303TIP3   OH236849   4.229   0.692   1.237  0.2728  0.8155 -0.4188
12303TIP3    H136850   4.208   0.637   1.313  1.1674  0.9846 -0.0408
12303TIP3    H236851   4.263   0.773   1.275  0.6907  0.9165 -0.9962
12304TIP3   OH236852   3.864   5.980   5.853  0.0773  0.3393 -0.5772
12304TIP3    H136853   3.875   5.909   5.917 -0.5703  0.3799 -0.4147
12304TIP3    H236854   3.952   5.992   5.815  0.7004  0.9874  0.9987
12305TIP3   OH236855   3.111   4.533   1.379 -0.5900  0.0800  0.3392
12305TIP3    H136856   3.101   4.608   1.439  0.4470  0.0390  0.5667
12305TIP3    H236857   3.110   4.456   1.436  0.8683  0.0650  0.3660
12306TIP3   OH236858   0.102   1.290   0.135  0.2406 -0.5673 -0.0393
12306TIP3    H136859   0.190   1.293   0.096  0.0794  0.0836 -0.3558
12306TIP3    H236860   0.118   1.268   0.227  0.7296 -0.5310 -0.1117
12307TIP3   OH236861   3.254   3.170   1.946  0.0479 -0.1086  0.1466
12307TIP3    H136862   3.313   3.214   2.007 -0.3948 -1.7592  1.8284
12307TIP3    H236863   3.312   3.126   1.884  0.4935  1.5281 -0.6807
12308TIP3   OH236864   4.620   3.911   5.555 -0.2183  0.2664 -0.0346
12308TIP3    H136865   4.543   3.875   5.511 -0.0607  0.8002 -0.7766
12308TIP3    H236866   4.620   4.004   5.531  0.8993  0.1858 -0.4045
12309TIP3   OH236867   1.755   4.559   2.724 -0.2857 -0.5843  0.1667
12309TIP3    H136868   1.693   4.629   2.704 -0.9012 -0.4948  2.1781
12309TIP3    H236869   1.773   4.518   2.639  0.8449  2.5484 -1.2583
12310TIP3   OH236870   4.238   1.223   1.638  0.0660  0.1070  0.2537
12310TIP3    H136871   4.271   1.138   1.666 -1.3721 -0.5577  0.0310
12310TIP3    H236872   4.224   1.215   1.544  0.7318  0.8889  0.0735
12311TIP3   OH236873   8.033   7.221   4.272 -0.0041 -0.4131 -0.0653
12311TIP3    H136874   7.945   7.259   4.272 -0.3843 -1.2819 -0.1332
12311TIP3    H236875   8.087   7.288   4.315 -0.8776 -0.2822  0.8698
12312TIP3   OH236876   6.830   5.130   1.127  0.3176 -0.1018  0.0313
12312TIP3    H136877   6.776   5.123   1.048  0.5298 -2.0842  0.0036
12312TIP3    H236878   6.769   5.157   1.195 -0.3829 -0.7340 -0.3287
12313TIP3   OH236879   1.915   6.587   5.571  0.0569 -0.0199  0.2255
12313TIP3    H136880   1.836   6.534   5.580  0.6806 -1.0799 -0.4630
12313TIP3    H236881   1.932   6.589   5.477 -0.8249  2.7367  0.0303
12314TIP3   OH236882   3.981   6.182   1.167  0.4511 -0.0638 -0.2823
12314TIP3    H136883   3.958   6.096   1.202 -3.1693  0.9695  0.2860
12314TIP3    H236884   4.022   6.228   1.240  0.3850 -0.5895  0.0879
12315TIP3   OH236885   6.753   2.644   5.716 -0.6607  0.0833  0.2638
12315TIP3    H136886   6.757   2.708   5.787  1.3205  0.8008 -0.4557
12315TIP3    H236887   6.763   2.559   5.761 -0.2946  0.4695  0.9304
12316TIP3   OH236888   1.443   1.742   5.885  0.0576  0.0453  0.1660
12316TIP3    H136889   1.358   1.702   5.869 -0.1542  0.4442  0.2686
12316TIP3    H236890   1.474   1.703   5.967  1.1301 -1.9804 -1.1416
12317TIP3   OH236891   2.496   5.884   6.384  0.3602  0.3175 -0.0856
12317TIP3    H136892   2.491   5.878   6.480  1.1396 -0.3419 -0.0815
12317TIP3    H236893   2.589   5.876   6.364  0.4427  2.3627 -0.7821
12318TIP3   OH236894   2.648   1.715   0.509 -0.0985 -0.2001  0.1657
12318TIP3    H136895   2.672   1.625   0.530  2.0454  0.2032 -0.3319
12318TIP3    H236896   2.596   1.709   0.429  0.3419 -0.9806 -0.0678
12319TIP3   OH236897   3.077   3.414   5.198 -0.1015  0.0847 -0.5975
12319TIP3    H136898   3.043   3.326   5.208 -0.1722  0.0673 -0.9659
12319TIP3    H236899   3.026   3.452   5.127  0.8547 -0.0569 -1.3911
12320TIP3   OH236900   4.707   0.968   6.248  0.2783  0.4938  0.2582
12320TIP3    H136901   4.772   1.006   6.308  0.2974 -0.1936  0.6874
12320TIP3    H236902   4.691   1.037   6.183  1.1450  0.8216  0.3714
12321TIP3   OH236903   6.223   0.040   0.017  0.1915 -0.7141 -0.5933
12321TIP3    H136904   6.307  -0.005   0.004 -0.8369 -3.0908  0.4299
12321TIP3    H236905   6.203   0.026   0.110 -1.7262 -0.9416 -1.0073
12322TIP3   OH236906   1.396   4.374   1.211 -0.2265 -0.1933  0.3452
12322TIP3    H136907   1.415   4.442   1.147  0.3934 -0.6935 -0.0194
12322TIP3    H236908   1.331   4.413   1.269  0.9385  1.1121  0.8269
12323TIP3   OH236909   6.125   4.057   0.673  0.4657  0.0108  0.0613
12323TIP3    H136910   6.118   3.969   0.638  0.4177 -0.1408  0.4461
12323TIP3    H236911   6.175   4.048   0.754  2.9025  0.7243 -1.2684
12324TIP3   OH236912   2.480   7.138   3.312  0.3565 -0.2473  0.2466
12324TIP3    H136913   2.503   7.229   3.291  1.3862 -0.5073  0.2037
12324TIP3    H236914   2.476   7.095   3.226  1.5863 -0.6199  0.3495
12325TIP3   OH236915   5.228   3.822   0.886 -0.1104  0.4984  0.1200
12325TIP3    H136916   5.305   3.858   0.841 -1.1185 -0.1435 -2.3159
12325TIP3    H236917   5.264   3.757   0.946  1.2765  0.5472 -0.6071
12326TIP3   OH236918   3.653   6.385   3.946  0.6883  0.0584 -0.3992
12326TIP3    H136919   3.713   6.452   3.978  2.5418 -1.3903 -0.7041
12326TIP3    H236920   3.620   6.343   4.025  0.6023  0.4047 -0.2492
12327TIP3   OH236921   6.256   7.529   3.736  0.2233 -0.3747  0.6605
12327TIP3    H136922   6.249   7.456   3.675  0.3676 -1.6133  2.0681
12327TIP3    H236923   6.208   7.600   3.695 -0.4113 -1.4402 -0.4826
12328TIP3   OH236924   0.818   3.550   4.890  0.2754  0.1872  0.2679
12328TIP3    H136925   0.785   3.602   4.817 -0.0064  0.2405  0.4330
12328TIP3    H236926   0.890   3.499   4.853  0.4878  0.6186  0.0782
12329TIP3   OH236927   2.162   0.017   5.953  0.7569  0.4031 -0.2422
12329TIP3    H136928   2.189   0.056   6.036 -0.0890  1.3235 -0.3835
12329TIP3    H236929   2.192   0.078   5.886  0.4138  0.2471 -0.5426
12330TIP3   OH236930   2.891   1.110   6.775  0.8752  0.4807  0.2023
12330TIP3    H136931   2.908   1.146   6.688 -0.0646  0.8894  0.1763
12330TIP3    H236932   2.955   1.039   6.784 -0.2008 -0.8387 -1.6109
12331TIP3   OH236933   2.430   2.535   3.513  0.1091 -0.5490 -0.2387
12331TIP3    H136934   2.492   2.506   3.446 -0.4041 -1.4849 -0.3228
12331TIP3    H236935   2.422   2.460   3.572 -0.6574 -0.3065 -0.0214
12332TIP3   OH236936   5.959   4.794   0.906 -0.0615  0.3122 -0.3494
12332TIP3    H136937   6.027   4.829   0.849 -0.8753  0.5875 -1.1791
12332TIP3    H236938   5.878   4.807   0.857 -0.6429 -0.5916  0.3405
12333TIP3   OH236939   0.840   4.188   1.176  0.3146  0.1949 -0.0224
12333TIP3    H136940   0.843   4.098   1.144  2.2079  0.1041  0.2614
12333TIP3    H236941   0.915   4.194   1.235 -0.2378  1.7458  0.5587
12334TIP3   OH236942   7.728   3.503   1.519  0.3171 -0.5793  0.1210
12334TIP3    H136943   7.729   3.452   1.438 -0.3451  1.6797 -1.3913
12334TIP3    H236944   7.672   3.452   1.578 -0.6957 -1.3906 -1.4645
12335TIP3   OH236945   1.634   2.687   1.133 -0.6189  0.1117 -0.0694
12335TIP3    H136946   1.612   2.642   1.215 -2.5356  0.8957 -0.1193
12335TIP3    H236947   1.728   2.670   1.122 -0.6455 -1.3419  1.4537
12336TIP3   OH236948   4.511   3.378   3.462 -0.2078  0.2246  0.0772
12336TIP3    H136949   4.479   3.406   3.376 -0.1000  0.7581  0.2065
12336TIP3    H236950   4.598   3.342   3.446 -0.9788 -1.5551 -0.3322
12337TIP3   OH236951   5.292   1.220   2.429  0.2943  0.2506  0.2960
12337TIP3    H136952   5.342   1.152   2.383  0.3014 -0.4130  1.2473
12337TIP3    H236953   5.335   1.302   2.405  0.2759 -0.0765 -0.8878
12338TIP3   OH236954   3.950   4.221   1.692  0.0427 -0.4853  0.4097
12338TIP3    H136955   3.984   4.216   1.782  0.9395 -1.7939  0.0123
12338TIP3    H236956   3.982   4.143   1.649 -4.3186 -2.5129  0.2804
12339TIP3   OH236957   4.750   4.299   2.842 -0.7045 -0.6326 -0.5651
12339TIP3    H136958   4.827   4.344   2.808 -1.7440  1.2864 -0.5336
12339TIP3    H236959   4.691   4.293   2.766 -0.9658 -1.0754 -0.3302
12340TIP3   OH236960   6.240   5.103   3.213  0.5083  0.6890  0.0615
12340TIP3    H136961   6.235   5.191   3.175  1.0870  1.3183  1.3584
12340TIP3    H236962   6.166   5.100   3.274  0.1033  0.0267 -0.4614
12341TIP3   OH236963   1.305   3.979   3.837  0.2000  0.2859  0.2589
12341TIP3    H136964   1.324   3.911   3.902 -0.1881 -0.9054 -0.8241
12341TIP3    H236965   1.251   3.935   3.772 -0.4115  1.7627 -0.2721
12342TIP3   OH236966   2.193   6.346   1.086  0.5562 -0.1157 -0.3314
12342TIP3    H136967   2.272   6.316   1.040  1.1819 -0.0209  0.6492
12342TIP3    H236968   2.134   6.270   1.084  0.9956 -0.4601 -0.3649
12343TIP3   OH236969   7.840   5.526   5.894  0.3759 -0.5360 -0.2738
12343TIP3    H136970   7.843   5.431   5.898  0.2609 -0.5409 -0.3002
12343TIP3    H236971   7.929   5.554   5.917  0.7897 -0.6957 -1.5590
12344TIP3   OH236972   3.112   0.383   4.437 -0.0756  0.1786 -0.3899
12344TIP3    H136973   3.076   0.422   4.517 -1.1575  1.5555 -1.4849
12344TIP3    H236974   3.180   0.324   4.468 -2.7083 -1.9786  1.7898
12345TIP3   OH236975   0.557   1.319   6.665  0.1602  0.0219  0.1555
12345TIP3    H136976   0.610   1.261   6.721  0.8998  0.6988  0.1795
12345TIP3    H236977   0.488   1.351   6.723 -1.2385 -2.0280 -0.2483
12346TIP3   OH236978   0.395   2.280   0.482  0.1149  0.0489 -0.6002
12346TIP3    H136979   0.345   2.248   0.557 -1.1076  1.8892 -0.5643
12346TIP3    H236980   0.484   2.291   0.516 -0.1408 -0.3267  0.2172
12347TIP3   OH236981   3.743   4.638   4.046 -0.6879 -0.0660 -0.1639
12347TIP3    H136982   3.675   4.694   4.085 -0.3180  0.0825  0.2854
12347TIP3    H236983   3.821   4.695   4.042 -0.3041 -0.5472  0.3089
12348TIP3   OH236984   3.720   2.360   0.000 -0.3233  0.2627  0.1629
12348TIP3    H136985   3.728   2.441   0.051  0.0769 -0.2079  0.8631
12348TIP3    H236986   3.809   2.341  -0.030 -0.4465  0.1779 -0.1556
12349TIP3   OH236987   4.132   6.174   6.719 -0.2827  0.1244 -0.4998
12349TIP3    H136988   4.202   6.221   6.674  3.7780 -4.3379  0.2516
12349TIP3    H236989   4.074   6.144   6.649  1.3977 -0.0349 -1.9203
12350TIP3   OH236990   4.617   5.917   5.772  0.1496  0.4330  0.2150
12350TIP3    H136991   4.709   5.921   5.746 -0.4283 -0.7594 -2.2689
12350TIP3    H236992   4.592   6.009   5.785  1.5576  0.7933  0.5266
12351TIP3   OH236993   2.103   5.969   4.399  0.0495 -0.7983 -0.1051
12351TIP3    H136994   2.041   5.935   4.464  1.6093 -1.0287  1.3288
12351TIP3    H236995   2.185   5.923   4.418 -0.0449 -3.1495 -4.1130
12352TIP3   OH236996   0.111   2.381   4.315 -0.5383  0.0687  0.4726
12352TIP3    H136997   0.078   2.359   4.228  0.1329  1.2180 -0.0923
12352TIP3    H236998   0.063   2.460   4.340 -1.1729 -0.5851  1.4353
12353TIP3   OH236999   7.081   6.955   3.950  0.5627  0.3726 -0.5541
12353TIP3    H137000   7.166   6.996   3.965  0.4126  0.7725 -0.7747
12353TIP3    H237001   7.061   6.909   4.031  0.7859  0.6466 -0.3441
12354TIP3   OH237002   4.003   6.812   4.057 -0.3268  0.5542 -0.3718
12354TIP3    H137003   4.098   6.813   4.045 -0.2044  0.0943  0.4944
12354TIP3    H237004   3.968   6.787   3.971  0.4433 -1.2765 -0.1911
12355TIP3   OH237005   8.160   3.339   3.342 -0.3401 -0.1955  0.9276
12355TIP3    H137006   8.210   3.277   3.289  2.0641  2.6690 -0.4479
12355TIP3    H237007   8.225   3.399   3.377 -2.4598  1.2038  2.7491
12356TIP3   OH237008   6.934   4.043   3.075 -0.0717  0.1820 -0.2059
12356TIP3    H137009   7.018   4.043   3.120  0.2949  0.3437 -0.8766
12356TIP3    H237010   6.926   4.131   3.040 -0.3259  0.0380 -0.5113
12357TIP3   OH237011   0.306   5.118   3.246 -0.2088 -0.3786 -0.1108
12357TIP3    H137012   0.237   5.182   3.229  1.2307  1.2362 -0.1576
12357TIP3    H237013   0.338   5.140   3.334 -0.6578 -2.0099  0.5041
12358TIP3   OH237014   3.504   1.688   1.422  0.2814 -0.1157 -0.0785
12358TIP3    H137015   3.488   1.603   1.380  0.1368  0.0516 -0.3603
12358TIP3    H237016   3.485   1.752   1.355 -0.8502  0.1921  0.5027
12359TIP3   OH237017   0.949   2.813   6.428 -0.0862  0.3882 -0.0372
12359TIP3    H137018   0.971   2.895   6.473  1.3886  1.1494 -1.9941
12359TIP3    H237019   0.853   2.811   6.429 -0.1296  1.2084  1.5932
12360TIP3   OH237020   6.331   5.433   6.535  0.4958  0.4672  0.7114
12360TIP3    H137021   6.266   5.503   6.526  0.9999  0.7355 -1.2813
12360TIP3    H237022   6.405   5.462   6.482  1.9081 -0.2601  2.2192
12361TIP3   OH237023   1.418   4.231   3.030 -0.1173  0.3841 -0.5524
12361TIP3    H137024   1.493   4.189   3.071 -0.9359  0.2837  0.9126
12361TIP3    H237025   1.347   4.221   3.093 -0.7197  2.7440 -0.7532
12362TIP3   OH237026   8.381   0.261   3.019  0.3202 -0.2463  0.2800
12362TIP3    H137027   8.344   0.349   3.032  1.7129  0.1034  2.2500
12362TIP3    H237028   8.325   0.204   3.071 -1.5775 -0.8914 -2.2551
12363TIP3   OH237029   7.645   5.397   4.325 -0.0821 -0.4119 -0.4925
12363TIP3    H137030   7.709   5.397   4.395  1.1850 -1.0274 -1.6053
12363TIP3    H237031   7.661   5.479   4.278  1.0782 -1.3104 -1.7605
12364TIP3   OH237032   1.204   2.935   0.764 -0.0802  0.4023  0.0187
12364TIP3    H137033   1.242   2.992   0.830  0.8787  0.1364 -0.2784
12364TIP3    H237034   1.220   2.846   0.797 -2.8474  0.2510  1.1996
12365TIP3   OH237035   1.520   0.398   1.961 -0.1510 -0.1645 -0.0766
12365TIP3    H137036   1.502   0.439   1.876  1.4084 -0.1926 -0.4513
12365TIP3    H237037   1.433   0.382   1.999 -0.8830  2.3151 -0.4712
12366TIP3   OH237038   6.356   6.606   2.357  0.2360  0.5281 -0.3078
12366TIP3    H137039   6.441   6.633   2.321  0.4798  1.3702  0.8215
12366TIP3    H237040   6.377   6.569   2.443 -0.5995  1.5942  0.3884
12367TIP3   OH237041   0.823   5.124   5.297 -0.5100 -0.7927  0.0155
12367TIP3    H137042   0.893   5.147   5.357  0.4808  0.3312 -1.4897
12367TIP3    H237043   0.754   5.188   5.315  0.3279  0.4224 -0.9059
12368TIP3   OH237044   5.892   7.460   3.878 -0.2389 -0.4961  0.1210
12368TIP3    H137045   5.948   7.515   3.823 -0.8625 -0.5604 -0.5877
12368TIP3    H237046   5.954   7.405   3.927  0.5546  2.3854  2.6578
12369TIP3   OH237047   7.910   2.552   3.613  0.3280  0.0163 -0.3258
12369TIP3    H137048   7.993   2.567   3.657 -0.6289  2.8953  0.7680
12369TIP3    H237049   7.866   2.486   3.666 -0.6323  3.1125  3.1170
12370TIP3   OH237050   6.805   6.546   0.752 -0.0301  0.2561  0.0587
12370TIP3    H137051   6.752   6.473   0.718  0.2038 -0.2971  0.8459
12370TIP3    H237052   6.871   6.504   0.807  1.0773  0.9610 -0.7031
12371TIP3   OH237053   8.085   0.578   0.194 -0.2905 -0.1359 -0.4141
12371TIP3    H137054   8.063   0.566   0.102 -0.7597  1.6703 -0.5721
12371TIP3    H237055   8.159   0.518   0.209 -0.4677 -0.7429 -1.8485
12372TIP3   OH237056   6.698   2.737   0.151 -0.2798  0.3333  0.1359
12372TIP3    H137057   6.711   2.655   0.199 -1.5674 -1.1649 -1.9028
12372TIP3    H237058   6.772   2.740   0.089 -1.1636 -0.2336 -0.9803
12373TIP3   OH237059   4.343   1.831   5.929 -0.1103 -0.0791  0.0133
12373TIP3    H137060   4.281   1.864   5.863 -0.0877  1.1461  0.5814
12373TIP3    H237061   4.319   1.877   6.009 -0.3035 -1.7464  0.9504
12374TIP3   OH237062   5.878   4.210   0.676  0.0673  0.0992 -0.1434
12374TIP3    H137063   5.815   4.146   0.707 -0.4197  0.5520 -0.1736
12374TIP3    H237064   5.963   4.174   0.699 -0.2422 -0.0059  0.9054
12375TIP3   OH237065   3.655   2.516   5.942  0.0659  0.2799  0.6976
12375TIP3    H137066   3.623   2.499   6.030 -1.1229  2.0489  0.6544
12375TIP3    H237067   3.578   2.508   5.886  0.5022  0.6600  0.0275
12376TIP3   OH237068   4.159   5.821   3.553  0.5854  0.2968  0.3507
12376TIP3    H137069   4.066   5.826   3.574  0.7215  0.6657  0.8979
12376TIP3    H237070   4.162   5.799   3.460 -0.0441 -1.8114  0.7827
12377TIP3   OH237071   4.221   5.505   4.171  0.1757 -0.0290 -0.1946
12377TIP3    H137072   4.274   5.548   4.238 -0.2902  0.1970  0.0315
12377TIP3    H237073   4.161   5.449   4.220 -0.8797  0.9281 -0.3602
12378TIP3   OH237074   4.463   4.719   3.774 -0.9603 -0.2521  0.0702
12378TIP3    H137075   4.452   4.624   3.779 -1.2479 -0.1808  1.1283
12378TIP3    H237076   4.556   4.734   3.790 -0.5128 -0.4495 -2.0624
12379TIP3   OH237077   6.913   6.809   0.468 -0.4453  0.4739  0.3193
12379TIP3    H137078   6.958   6.783   0.549 -0.4637 -0.6590 -0.0071
12379TIP3    H237079   6.918   6.904   0.467  2.3028  0.4143  0.1195
12380TIP3   OH237080   2.822   2.986   3.095 -0.2268 -0.3964 -0.6785
12380TIP3    H137081   2.793   2.995   3.004  0.7693  2.7989 -0.8309
12380TIP3    H237082   2.918   2.991   3.090 -0.1829  0.6782  0.5481
12381TIP3   OH237083   3.809   1.950   0.413  0.4275  0.6831 -0.1441
12381TIP3    H137084   3.817   1.902   0.331  0.4201  0.3283  0.0589
12381TIP3    H237085   3.864   2.027   0.402  1.7158 -0.1773  0.1068
12382TIP3   OH237086   1.939   7.148   1.273  0.1584  0.0622  0.1305
12382TIP3    H137087   1.976   7.236   1.278 -0.2004  0.2006  0.3579
12382TIP3    H237088   1.939   7.127   1.180 -0.6186  0.6700 -0.0135
12383TIP3   OH237089   6.567   7.459   0.633  0.4868  0.8594 -0.2447
12383TIP3    H137090   6.510   7.456   0.710 -1.4080 -0.8652 -1.6199
12383TIP3    H237091   6.629   7.387   0.647  0.4655  0.8657 -0.1152
12384TIP3   OH237092   0.464   6.188   1.295  0.3655  0.1469  0.5223
12384TIP3    H137093   0.501   6.264   1.341 -0.0973  0.1578  0.8777
12384TIP3    H237094   0.383   6.221   1.256  0.2293 -0.1329  0.5702
12385TIP3   OH237095   6.999   5.682   1.432  0.0203 -0.3104 -0.4547
12385TIP3    H137096   6.957   5.758   1.472  0.7558 -0.2300  0.1895
12385TIP3    H237097   7.087   5.680   1.470 -0.8059 -3.0111  1.6863
12386TIP3   OH237098   0.552   4.260   4.703 -0.5320  0.0453 -0.1926
12386TIP3    H137099   0.596   4.325   4.757  0.6346  1.2744 -2.4502
12386TIP3    H237100   0.589   4.176   4.731  2.4811  0.9350 -1.1916
12387TIP3   OH237101   3.613   1.386   4.035 -0.5828 -0.4329 -0.2981
12387TIP3    H137102   3.573   1.306   4.071 -1.6157 -0.3128 -1.1192
12387TIP3    H237103   3.644   1.360   3.948  0.3679 -0.2872 -0.0163
12388TIP3   OH237104   4.758   5.348   1.984 -0.2676 -0.3054 -0.1159
12388TIP3    H137105   4.673   5.303   1.974 -0.3174 -0.2261 -0.0523
12388TIP3    H237106   4.735   5.441   1.985 -0.1587 -0.2756 -0.3052
12389TIP3   OH237107   0.463   5.858   5.290  0.3055  0.4526  0.3691
12389TIP3    H137108   0.548   5.827   5.257 -0.2460 -0.1212 -0.5662
12389TIP3    H237109   0.448   5.941   5.246  0.9285  1.1724  1.4688
12390TIP3   OH237110   7.652   6.077   1.139  0.0461 -0.3126  0.0213
12390TIP3    H137111   7.713   6.147   1.116 -0.8451  0.7066  0.6142
12390TIP3    H237112   7.570   6.123   1.158 -0.9426 -1.6439 -0.8739
12391TIP3   OH237113   4.599   6.841   1.755  0.4019 -0.6658 -0.5318
12391TIP3    H137114   4.530   6.819   1.818  2.0430 -1.9321  0.9259
12391TIP3    H237115   4.560   6.822   1.669 -1.2303 -0.7895  0.1986
12392TIP3   OH237116   0.083   5.559   2.484 -0.7696 -0.2259  0.1121
12392TIP3    H137117   0.133   5.548   2.565  1.5292  1.4505 -0.9683
12392TIP3    H237118   0.090   5.475   2.440 -0.6163 -0.6313  0.8928
12393TIP3   OH237119   4.842   5.123   1.209  0.3628 -0.3201 -0.3321
12393TIP3    H137120   4.765   5.117   1.153  1.0296 -1.3190 -1.1670
12393TIP3    H237121   4.844   5.041   1.258  0.0205  0.3681  0.8837
12394TIP3   OH237122   2.101   1.695   4.164 -0.0440 -0.0395  0.0509
12394TIP3    H137123   2.031   1.694   4.098  0.3262  0.4824 -0.3550
12394TIP3    H237124   2.101   1.784   4.197  0.7641  0.1039 -0.3135
12395TIP3   OH237125   6.828   0.568   3.028  0.5440 -0.5212  0.4438
12395TIP3    H137126   6.775   0.612   3.095 -0.5222 -0.1542 -0.6020
12395TIP3    H237127   6.802   0.476   3.032 -0.7674 -0.2371 -0.5301
12396TIP3   OH237128   4.127   0.208   1.864 -0.3405  0.3491  0.1314
12396TIP3    H137129   4.152   0.116   1.870 -0.0685  0.4882  1.3817
12396TIP3    H237130   4.049   0.208   1.808  0.2546 -0.5087 -0.7255
12397TIP3   OH237131   3.805   6.583   4.372 -0.0788  0.0696  0.3185
12397TIP3    H137132   3.792   6.655   4.309 -1.0931  0.0839  0.5398
12397TIP3    H237133   3.717   6.557   4.398  0.3130 -0.4691  1.1474
12398TIP3   OH237134   6.781   4.627   3.601 -0.0052 -0.2862 -0.7117
12398TIP3    H137135   6.870   4.646   3.632  0.0571 -0.9520 -0.4564
12398TIP3    H237136   6.724   4.673   3.662  0.1622  0.0791 -0.8284
12399TIP3   OH237137   2.151   1.120   4.844  0.0816  0.3560 -0.2255
12399TIP3    H137138   2.113   1.182   4.781  0.2060 -0.1270 -0.7819
12399TIP3    H237139   2.087   1.049   4.849  0.7903 -0.3629 -1.0123
12400TIP3   OH237140   0.897   2.587   2.444 -0.3119  0.5358  0.6789
12400TIP3    H137141   0.988   2.613   2.429  0.5412 -0.5602  3.2051
12400TIP3    H237142   0.902   2.492   2.459 -1.7084  0.6013  1.7721
12401TIP3   OH237143   8.138   0.526   5.656  0.8511 -0.6048  0.1488
12401TIP3    H137144   8.096   0.598   5.609  0.5040 -1.1435 -0.3864
12401TIP3    H237145   8.098   0.528   5.744  0.7766 -0.2076  0.1071
12402TIP3   OH237146   5.506   2.572   3.393 -0.1160 -0.3858  0.2737
12402TIP3    H137147   5.595   2.597   3.367 -0.7525  1.8908  0.0126
12402TIP3    H237148   5.515   2.540   3.483  0.7185  2.4667  1.3402
12403TIP3   OH237149   2.762   6.549   6.607  0.2327  0.1022 -0.1478
12403TIP3    H137150   2.780   6.463   6.570  1.8144  0.2936  0.1067
12403TIP3    H237151   2.698   6.533   6.676  0.6712 -0.9030  0.0436
12404TIP3   OH237152   4.082   4.384   6.050 -0.2078 -0.6829 -0.2601
12404TIP3    H137153   4.065   4.445   5.978  1.4167  0.3894  0.1941
12404TIP3    H237154   4.023   4.311   6.034 -1.0209  0.2440 -1.7849
12405TIP3   OH237155   1.319   6.505   6.073 -0.1347 -0.2124 -0.1883
12405TIP3    H137156   1.251   6.536   6.013 -1.8020 -2.1830  0.5560
12405TIP3    H237157   1.393   6.485   6.016 -0.4707  1.1149 -1.1466
12406TIP3   OH237158   6.565   4.868   0.907 -0.4208 -0.3726 -0.1710
12406TIP3    H137159   6.559   4.937   0.841 -1.2841  0.2218  0.5106
12406TIP3    H237160   6.648   4.825   0.889 -0.2510  0.3214 -1.1142
12407TIP3   OH237161   3.145   4.587   4.789 -0.6941 -0.2875  0.2619
12407TIP3    H137162   3.169   4.593   4.696 -1.2590 -0.6902  0.0834
12407TIP3    H237163   3.224   4.552   4.831 -0.1293  0.7302  0.0868
12408TIP3   OH237164   7.190   0.640   0.758  0.1897  0.1333 -0.1447
12408TIP3    H137165   7.237   0.574   0.708  2.7429  0.2818  1.8690
12408TIP3    H237166   7.258   0.694   0.798 -1.6657  0.8335  2.3615
12409TIP3   OH237167   1.354   4.921   6.458 -0.7620 -0.5567 -0.3065
12409TIP3    H137168   1.423   4.966   6.506 -0.2275 -1.9709  0.3317
12409TIP3    H237169   1.292   4.989   6.434  0.4707  0.6299 -0.2162
12410TIP3   OH237170   5.209   7.550   3.579 -0.3588  0.0908 -0.0128
12410TIP3    H137171   5.278   7.491   3.610 -0.7843 -1.5926 -2.0498
12410TIP3    H237172   5.130   7.495   3.576 -1.2890  1.3749  0.0868
12411TIP3   OH237173   0.827   5.758   4.425  0.1770  0.1437  0.0996
12411TIP3    H137174   0.801   5.739   4.335 -2.2704  2.6065  0.1487
12411TIP3    H237175   0.847   5.852   4.424 -1.9741  0.7244  2.4862
12412TIP3   OH237176   3.252   7.038   5.677  0.1713  0.1870 -0.4276
12412TIP3    H137177   3.178   7.096   5.696 -0.9192 -1.4805  0.6560
12412TIP3    H237178   3.256   7.034   5.582 -0.0352  1.6332 -0.5134
12413TIP3   OH237179   6.018   7.629   2.949  0.5296 -0.6449 -0.0876
12413TIP3    H137180   5.939   7.575   2.953 -0.0389  0.1908  0.3285
12413TIP3    H237181   6.016   7.669   2.862  0.9001 -1.2085 -0.3599
12414TIP3   OH237182   7.971   4.546   0.137  0.9778  0.2525 -0.1320
12414TIP3    H137183   7.960   4.576   0.046 -1.2540 -2.4790 -0.9067
12414TIP3    H237184   7.959   4.626   0.189 -1.8499  1.3019 -2.1158
12415TIP3   OH237185   7.892   6.647   6.436  0.0366 -0.1553  0.1126
12415TIP3    H137186   7.974   6.685   6.405  0.0234  0.2513  0.5630
12415TIP3    H237187   7.849   6.615   6.357 -0.0653  1.0076 -0.3202
12416TIP3   OH237188   7.461   3.884   1.586  0.2745  0.2486  0.2947
12416TIP3    H137189   7.458   3.977   1.565  0.2320  0.9642  3.0242
12416TIP3    H237190   7.470   3.881   1.681 -2.1603 -2.5370  0.6107
12417TIP3   OH237191   1.490   2.053   2.333 -0.4857 -0.2648  0.8085
12417TIP3    H137192   1.447   1.982   2.285  0.1452  0.9382 -1.6889
12417TIP3    H237193   1.448   2.052   2.419 -4.0185 -0.5385 -0.7438
12418TIP3   OH237194   4.270   6.277   3.897  0.3953 -0.3154  0.3488
12418TIP3    H137195   4.201   6.296   3.961  1.1822  0.0507  1.1089
12418TIP3    H237196   4.234   6.207   3.843 -1.4025  1.2293 -0.5998
12419TIP3   OH237197   5.047   3.466   6.181  0.0090 -0.7498 -0.1272
12419TIP3    H137198   5.059   3.549   6.226  0.6761  0.9580 -3.1543
12419TIP3    H237199   4.978   3.484   6.117  1.7638 -1.7297 -2.4312
12420TIP3   OH237200   4.403   4.626   1.616 -0.1574 -0.6208  0.0749
12420TIP3    H137201   4.365   4.714   1.621  1.3047  0.0201  0.3709
12420TIP3    H237202   4.377   4.585   1.698  0.3296  0.0378  0.5673
12421TIP3   OH237203   1.035   2.282   1.581  0.5031  0.2710  0.3547
12421TIP3    H137204   1.058   2.209   1.522 -1.9727  0.0465 -0.4653
12421TIP3    H237205   1.005   2.351   1.522 -0.1701  0.7737  1.2744
12422TIP3   OH237206   1.502   1.586   1.583  0.0180  0.5561  0.6563
12422TIP3    H137207   1.470   1.608   1.670  1.5397 -1.2867  1.7611
12422TIP3    H237208   1.462   1.502   1.562  0.0768  0.7287 -0.1896
12423TIP3   OH237209   3.964   3.688   0.293  0.6366 -0.0464  0.3859
12423TIP3    H137210   3.904   3.717   0.224 -0.3893  1.1260  1.7019
12423TIP3    H237211   4.043   3.740   0.278  0.1144  0.8282  0.5680
12424TIP3   OH237212   5.757   6.802   0.707  0.6149 -0.4996 -0.3892
12424TIP3    H137213   5.711   6.829   0.787 -0.0749 -0.8865 -0.6507
12424TIP3    H237214   5.719   6.855   0.638 -0.5245 -1.8641 -0.8560
12425TIP3   OH237215   2.167   6.533   5.897  0.0249  0.1568  0.3792
12425TIP3    H137216   2.236   6.541   5.963 -2.1287  1.8946  2.6126
12425TIP3    H237217   2.159   6.620   5.859 -0.9247 -0.0138  0.1525
12426TIP3   OH237218   0.223   2.428   2.106  0.1064 -0.0603  0.1113
12426TIP3    H137219   0.249   2.503   2.159  0.5303 -0.3619  0.3355
12426TIP3    H237220   0.303   2.376   2.096 -0.3492 -0.8916  0.6186
12427TIP3   OH237221   6.584   2.305   0.455  0.2169  0.0381  0.4792
12427TIP3    H137222   6.608   2.292   0.546 -0.8051 -1.1468  0.5987
12427TIP3    H237223   6.518   2.374   0.456 -0.3594 -0.5144  0.7207
12428TIP3   OH237224   0.034   6.510   0.135 -0.2244 -0.4312  0.6541
12428TIP3    H137225   0.052   6.572   0.206  1.3325  0.6150 -0.5920
12428TIP3    H237226   0.048   6.424   0.176 -1.4619  0.0259  2.1493
12429TIP3   OH237227   0.120   3.227   6.217 -0.3415 -0.0728 -0.2956
12429TIP3    H137228   0.147   3.138   6.194  0.4954 -0.3368  1.5274
12429TIP3    H237229   0.026   3.220   6.233 -1.1174  0.2474 -3.9103
12430TIP3   OH237230   1.892   5.315   3.989 -0.5577  0.4670 -0.2997
12430TIP3    H137231   1.832   5.279   4.055 -1.0186  0.9574 -0.4479
12430TIP3    H237232   1.847   5.301   3.906  0.6141 -1.4157 -0.6936
12431TIP3   OH237233   4.790   4.875   1.780  0.0327 -0.5825  0.0794
12431TIP3    H137234   4.874   4.912   1.806  0.2757 -0.2766 -1.1240
12431TIP3    H237235   4.811   4.809   1.714 -0.7043 -0.0559 -0.7100
12432TIP3   OH237236   3.041   7.585   3.233  0.1665  0.2613  0.6817
12432TIP3    H137237   2.983   7.511   3.217  1.3111 -0.4096 -0.7036
12432TIP3    H237238   2.993   7.643   3.291 -2.0309 -0.0821 -0.6936
12433TIP3   OH237239   7.999   3.488   4.385  0.3037 -0.0232 -0.1224
12433TIP3    H137240   7.976   3.521   4.472  0.7765  1.2121 -0.4446
12433TIP3    H237241   7.957   3.550   4.325  0.7899 -0.3013 -0.7546
12434TIP3   OH237242   3.955   7.702   0.127  0.0472 -0.1041 -0.3113
12434TIP3    H137243   4.048   7.679   0.129  0.7262  2.3235  1.1580
12434TIP3    H237244   3.921   7.669   0.210  0.7104  2.6041  1.1670
12435TIP3   OH237245   0.770   2.595   4.478  0.5787  0.0563  0.5360
12435TIP3    H137246   0.733   2.654   4.413  1.6493  0.3099  0.1238
12435TIP3    H237247   0.754   2.507   4.443  0.3528  0.1635  0.3712
12436TIP3   OH237248   4.477   4.697   1.117  0.5045 -0.3390  0.3743
12436TIP3    H137249   4.555   4.668   1.070  0.1413 -0.3338 -0.2534
12436TIP3    H237250   4.481   4.653   1.201  1.1051 -0.4590  0.2856
12437TIP3   OH237251   5.632   1.005   0.742  0.2170  0.3498  0.4307
12437TIP3    H137252   5.677   0.945   0.681 -1.1657  0.2333 -0.5221
12437TIP3    H237253   5.699   1.068   0.766  0.5549  1.1104 -2.1931
12438TIP3   OH237254   7.544   5.893   4.731 -0.0256 -0.8607  0.3232
12438TIP3    H137255   7.526   5.849   4.814 -0.0377  1.5572  1.7094
12438TIP3    H237256   7.502   5.979   4.739  1.6299  0.2197 -1.3681
12439TIP3   OH237257   7.152   4.865   1.716 -0.9207 -0.6089  0.0237
12439TIP3    H137258   7.160   4.929   1.787  1.3103 -2.5837  1.7041
12439TIP3    H237259   7.190   4.910   1.640 -0.5702  0.5124  0.8200
12440TIP3   OH237260   7.039   3.244   2.485  0.5012 -0.2892  0.0616
12440TIP3    H137261   6.992   3.317   2.526  1.4553  1.0678 -1.1362
12440TIP3    H237262   6.982   3.169   2.496 -0.6570  0.7026  1.1025
12441TIP3   OH237263   6.395   0.368   3.705  0.3644  0.0696  0.0214
12441TIP3    H137264   6.426   0.410   3.786 -0.4743 -0.1519  0.4762
12441TIP3    H237265   6.466   0.379   3.643  0.9070  0.5104  0.7081
12442TIP3   OH237266   3.520   4.949   2.064 -0.0801 -0.2076  0.0273
12442TIP3    H137267   3.582   4.952   2.136  0.9484  0.1348 -0.8493
12442TIP3    H237268   3.441   4.991   2.098  0.4967  0.2223  0.8495
12443TIP3   OH237269   4.945   4.812   4.079 -0.1897  0.3320 -0.2068
12443TIP3    H137270   4.890   4.734   4.078 -0.1119  0.2681  0.3136
12443TIP3    H237271   5.027   4.784   4.039  0.2734 -0.1878  1.0539
12444TIP3   OH237272   6.461   2.751   2.494  0.3894  0.1412  0.0561
12444TIP3    H137273   6.484   2.795   2.412  1.2019  1.9285  1.1678
12444TIP3    H237274   6.499   2.807   2.562 -1.9426 -0.1821  1.7467
12445TIP3   OH237275   4.597   5.555   2.256 -0.0451  0.3049  0.1813
12445TIP3    H137276   4.512   5.569   2.215  0.6184  0.7063 -1.1396
12445TIP3    H237277   4.596   5.464   2.285 -0.2191 -0.3134 -1.6160
12446TIP3   OH237278   6.196   4.542   5.762 -0.6537  0.0148  0.0937
12446TIP3    H137279   6.240   4.579   5.838  0.4024 -1.6729  0.3711
12446TIP3    H237280   6.116   4.593   5.753  0.1206  1.5115  1.1506
12447TIP3   OH237281   6.830   2.271   4.111 -0.1081  0.3017 -0.1050
12447TIP3    H137282   6.762   2.337   4.128 -0.9549 -0.5864  0.0505
12447TIP3    H237283   6.782   2.188   4.110  0.6883 -0.1744 -1.8375
12448TIP3   OH237284   2.176   3.430   1.570 -0.0820 -0.0214  0.4013
12448TIP3    H137285   2.253   3.375   1.555  1.3394  1.9487  0.1489
12448TIP3    H237286   2.188   3.463   1.659 -0.0883  1.0845  0.0028
12449TIP3   OH237287   7.136   7.532   1.206 -0.4700  0.1674 -0.3025
12449TIP3    H137288   7.166   7.606   1.153 -1.0681  0.0725 -0.7845
12449TIP3    H237289   7.041   7.541   1.207 -0.4798  0.0413  0.5752
12450TIP3   OH237290   1.196   2.839   3.778  0.8482 -0.2382 -0.2659
12450TIP3    H137291   1.203   2.746   3.758 -0.3371 -0.3830 -0.0844
12450TIP3    H237292   1.138   2.843   3.855  4.0232  0.3933  2.3188
12451TIP3   OH237293   7.629   4.496   0.252  0.2278  0.2644  0.2652
12451TIP3    H137294   7.618   4.542   0.334  0.2667  1.7791 -0.5451
12451TIP3    H237295   7.719   4.515   0.225 -0.4174  1.5677 -1.1280
12452TIP3   OH237296   6.034   6.866   6.855  0.5476  0.1342  0.4914
12452TIP3    H137297   6.020   6.906   6.769  1.0552  0.1116  0.3912
12452TIP3    H237298   6.111   6.809   6.843 -0.7033 -1.6149  0.3929
12453TIP3   OH237299   7.224   3.532   5.510 -0.6149  0.1817  0.7193
12453TIP3    H137300   7.202   3.440   5.497  2.4237 -0.6721  1.0025
12453TIP3    H237301   7.229   3.568   5.421  2.2109 -1.0434  0.2878
12454TIP3   OH237302   7.225   2.404   2.714  0.1010 -0.4169 -0.1030
12454TIP3    H137303   7.298   2.436   2.767 -1.7913  0.6608  2.0373
12454TIP3    H237304   7.196   2.481   2.665  0.1737 -0.7503 -0.6713
12455TIP3   OH237305   2.039   3.463   4.397  0.0515  0.7287 -0.0911
12455TIP3    H137306   2.021   3.441   4.489  0.3822 -0.9172 -0.3927
12455TIP3    H237307   1.958   3.443   4.351  1.3351 -3.5468 -0.9259
12456TIP3   OH237308   1.922   6.635   5.298 -0.0846  0.0392  0.0608
12456TIP3    H137309   2.008   6.594   5.295  0.6359  1.5354 -1.6426
12456TIP3    H237310   1.896   6.645   5.207 -2.0989 -0.3911  0.5400
12457TIP3   OH237311   7.745   6.573   1.607  0.6841  0.0013  0.0675
12457TIP3    H137312   7.765   6.503   1.545 -0.4876 -0.0211 -0.2972
12457TIP3    H237313   7.831   6.611   1.629  1.1127  0.0823 -1.6346
12458TIP3   OH237314   3.757   7.717   6.028 -0.4456  0.2777 -0.5888
12458TIP3    H137315   3.777   7.802   6.067 -0.6539  0.6348 -1.2537
12458TIP3    H237316   3.693   7.678   6.088  0.4954  0.0907  0.3290
12459TIP3   OH237317   5.114   6.030   0.373  0.4430  0.0108 -0.2249
12459TIP3    H137318   5.203   6.033   0.338  0.4014 -0.8712 -0.4501
12459TIP3    H237319   5.107   5.942   0.411 -0.1244  0.3022  0.3493
12460TIP3   OH237320   2.011   3.647   6.469 -0.2314 -0.5498  0.2879
12460TIP3    H137321   1.941   3.642   6.534  0.1371  0.6104  0.8065
12460TIP3    H237322   1.992   3.727   6.420  1.8598  1.0577  1.8614
12461TIP3   OH237323   6.437   4.621   0.727  0.0591 -0.2053  0.1002
12461TIP3    H137324   6.474   4.669   0.801  1.0915  1.2707 -1.2919
12461TIP3    H237325   6.453   4.678   0.652 -2.6901 -0.7577 -0.9936
12462TIP3   OH237326   4.330   6.309   6.351 -0.5049 -0.4643  0.3985
12462TIP3    H137327   4.399   6.270   6.298 -0.6677  0.0206 -0.1803
12462TIP3    H237328   4.299   6.384   6.300 -1.7023 -0.8866  0.4798
12463TIP3   OH237329   0.385   3.057   2.361  0.2165  0.3665  0.1383
12463TIP3    H137330   0.414   3.129   2.305  0.4483 -1.3146 -2.0187
12463TIP3    H237331   0.291   3.070   2.370  0.1446  0.5856 -0.8114
12464TIP3   OH237332   4.844   0.827   2.345  0.1924  0.0035  0.1566
12464TIP3    H137333   4.894   0.851   2.268 -0.2851  0.7958  0.0829
12464TIP3    H237334   4.814   0.738   2.328  1.0007 -0.2265 -0.0897
12465TIP3   OH237335   2.657   3.202   3.188  0.3051  1.0888  0.3505
12465TIP3    H137336   2.700   3.119   3.167  0.1488  1.3661 -1.2490
12465TIP3    H237337   2.710   3.240   3.258  1.6361  0.5965 -0.3474
12466TIP3   OH237338   1.660   2.555   1.795 -0.3887  0.0979  0.3550
12466TIP3    H137339   1.608   2.580   1.871 -0.0441  0.3486  0.5150
12466TIP3    H237340   1.596   2.533   1.727 -0.7012  0.4736  0.5256
12467TIP3   OH237341   6.348   4.154   3.852  0.8821  0.0004 -0.4130
12467TIP3    H137342   6.330   4.186   3.941  1.1188  1.5512 -0.8866
12467TIP3    H237343   6.281   4.087   3.837 -0.5344  1.2254  0.1546
12468TIP3   OH237344   0.022   7.170   1.184 -0.4849 -0.3433  0.1128
12468TIP3    H137345   0.042   7.125   1.101  0.7144 -0.9577  0.7078
12468TIP3    H237346   0.106   7.173   1.230 -0.6448  2.0594  0.3500
12469TIP3   OH237347   0.064   6.025   4.380  0.0278  0.4444  0.3860
12469TIP3    H137348   0.112   6.106   4.399  0.3304  0.3058  0.2261
12469TIP3    H237349  -0.021   6.036   4.424 -0.7294  1.7070 -1.3143
12470TIP3   OH237350   7.841   1.043   3.125  0.7288 -0.0662  0.1868
12470TIP3    H137351   7.816   0.964   3.077  0.5797  0.2038 -0.1892
12470TIP3    H237352   7.834   1.113   3.060  3.3858 -0.0997 -0.2405
12471TIP3   OH237353   3.594   6.768   5.312 -0.0571 -0.3519 -0.1770
12471TIP3    H137354   3.520   6.800   5.261  0.6924  0.6179 -0.6879
12471TIP3    H237355   3.642   6.711   5.252 -0.8744 -1.7484  0.4429
12472TIP3   OH237356   5.779   6.796   1.421  0.0916  0.5349  0.5802
12472TIP3    H137357   5.820   6.882   1.432  0.2720  0.4706  0.4200
12472TIP3    H237358   5.844   6.734   1.454  1.2066  0.2261 -1.9546
12473TIP3   OH237359   0.281   1.555   1.088 -0.6730 -0.1019  0.3070
12473TIP3    H137360   0.223   1.626   1.060  1.6934  1.5114 -0.7358
12473TIP3    H237361   0.329   1.530   1.009 -0.8419 -2.3668  0.8308
12474TIP3   OH237362   1.685   0.521   1.309 -0.7170  0.2971 -0.2154
12474TIP3    H137363   1.737   0.601   1.323  2.2999 -1.8910  3.0427
12474TIP3    H237364   1.723   0.482   1.230  2.8656 -1.1240  1.9421
12475TIP3   OH237365   5.174   1.111   4.873 -0.1473  0.2181 -0.2349
12475TIP3    H137366   5.215   1.191   4.839 -0.3602  0.2894 -0.3217
12475TIP3    H237367   5.248   1.051   4.888 -0.0726  0.0869 -1.0772
12476TIP3   OH237368   7.235   0.576   4.165 -0.3981 -0.8975  0.0438
12476TIP3    H137369   7.273   0.568   4.252 -0.1954  1.5541  0.2563
12476TIP3    H237370   7.208   0.488   4.142 -0.6000 -1.5803  2.6458
12477TIP3   OH237371   6.636   6.029   6.263  0.4006 -0.9745  0.4754
12477TIP3    H137372   6.717   6.028   6.313  1.4627 -0.0863 -1.1287
12477TIP3    H237373   6.636   6.113   6.218 -0.1278 -1.9894 -1.5469
12478TIP3   OH237374   7.061   4.453   1.804 -0.3238  0.0510  0.2263
12478TIP3    H137375   7.094   4.452   1.894 -0.2229  1.2819  0.2237
12478TIP3    H237376   6.975   4.412   1.811  0.2271 -1.0713  0.6384
12479TIP3   OH237377  -0.003   0.636   1.010  0.1841  0.1292 -0.3309
12479TIP3    H137378   0.080   0.666   1.047  0.1058  0.3906 -0.3604
12479TIP3    H237379  -0.045   0.586   1.080  0.3582  0.0115 -0.3100
12480TIP3   OH237380   5.921   6.050   4.297  0.2347 -0.0760 -0.3806
12480TIP3    H137381   6.003   6.007   4.322  0.4578  0.2869 -0.4757
12480TIP3    H237382   5.918   6.128   4.352  1.4007  1.4561 -2.3660
12481TIP3   OH237383   3.523   0.690   5.494 -0.0086 -0.2773 -0.3984
12481TIP3    H137384   3.527   0.761   5.558  0.0764 -1.7277  1.3036
12481TIP3    H237385   3.434   0.692   5.460 -0.8273 -0.9177  1.5796
12482TIP3   OH237386   1.829   3.883   5.133  0.4630 -0.1883  1.1037
12482TIP3    H137387   1.735   3.879   5.112  0.4524  2.0252  0.4422
12482TIP3    H237388   1.872   3.845   5.057  0.1740  1.9479 -0.2168
12483TIP3   OH237389   6.272   6.503   0.980  0.0392  0.3365 -0.1807
12483TIP3    H137390   6.306   6.415   0.991  0.2499  0.0453 -2.5206
12483TIP3    H237391   6.177   6.493   0.982  0.0645  0.0559 -0.3676
12484TIP3   OH237392   1.085   1.059   3.680 -0.2884 -0.6310 -0.7923
12484TIP3    H137393   1.156   1.091   3.623  0.7323  0.6504  1.0983
12484TIP3    H237394   1.072   0.968   3.653  1.8058 -0.7904 -1.4703
12485TIP3   OH237395   7.875   5.497   1.234 -0.0178  0.6121 -0.3587
12485TIP3    H137396   7.820   5.511   1.157  1.1589  1.2023 -1.1245
12485TIP3    H237397   7.899   5.404   1.231 -1.5728  0.1574  0.4235
12486TIP3   OH237398   3.468   5.541   0.023  0.0865  0.1787 -0.0979
12486TIP3    H137399   3.489   5.504  -0.063 -1.0604 -4.3927  1.3158
12486TIP3    H237400   3.496   5.475   0.086 -0.6616  2.5628  3.0096
12487TIP3   OH237401   0.639   6.580   0.937 -0.6113 -0.5101  0.1608
12487TIP3    H137402   0.591   6.593   0.855 -0.9834  0.4713  0.5144
12487TIP3    H237403   0.671   6.490   0.932  1.0919  0.1135 -1.9653
12488TIP3   OH237404   2.254   0.158   5.310 -0.4238 -0.3997  0.1215
12488TIP3    H137405   2.227   0.067   5.301  0.4603 -0.6523 -0.1009
12488TIP3    H237406   2.311   0.159   5.388 -1.3314  0.1880  0.8043
12489TIP3   OH237407   0.876   4.479   5.248 -0.3001 -0.3843  0.1296
12489TIP3    H137408   0.787   4.445   5.245 -0.8673  1.0054  0.6123
12489TIP3    H237409   0.923   4.428   5.182 -1.5949 -0.7129 -0.5667
12490TIP3   OH237410   5.304   3.447   3.115  0.5038  0.5108 -0.0119
12490TIP3    H137411   5.390   3.472   3.149  0.4691  0.9549 -0.2471
12490TIP3    H237412   5.242   3.498   3.167  0.4713  1.6042 -1.0710
12491TIP3   OH237413   5.323   1.258   5.978  0.1055  0.2260  0.0072
12491TIP3    H137414   5.261   1.188   5.959  0.2331  0.0744  0.1471
12491TIP3    H237415   5.322   1.313   5.900 -0.2557  0.2623  0.0359
12492TIP3   OH237416   4.642   0.325   1.404 -0.2028  0.5585  0.3713
12492TIP3    H137417   4.551   0.324   1.374 -0.1034  2.1052 -0.0514
12492TIP3    H237418   4.693   0.349   1.326  0.5935 -0.3083  0.5943
12493TIP3   OH237419   8.064   5.241   3.779  0.4556 -0.2369 -0.0078
12493TIP3    H137420   8.119   5.319   3.780 -1.6870  1.3547  0.0372
12493TIP3    H237421   8.080   5.201   3.694  1.1299  0.5756 -0.2703
12494TIP3   OH237422   1.752   3.422   3.952 -0.6180 -0.2159  0.2550
12494TIP3    H137423   1.831   3.387   3.911 -0.2918  0.6085  0.1635
12494TIP3    H237424   1.680   3.375   3.909 -0.3695  1.4789 -2.2153
12495TIP3   OH237425   1.971   1.135   3.317  0.8687  0.1777  0.6591
12495TIP3    H137426   1.975   1.186   3.236  1.4062 -0.1695  0.4547
12495TIP3    H237427   1.964   1.044   3.287 -1.0052  0.1774  1.0216
12496TIP3   OH237428   6.009   1.261   5.356  0.0902 -0.2134  0.2376
12496TIP3    H137429   5.924   1.260   5.312  0.1830  1.8020 -0.0559
12496TIP3    H237430   6.062   1.320   5.304  1.0705  0.0862  1.5299
12497TIP3   OH237431   2.766   6.148   3.596 -0.4668 -0.4049  0.2498
12497TIP3    H137432   2.763   6.149   3.691 -2.2161  1.4676  0.2257
12497TIP3    H237433   2.836   6.208   3.573 -0.1619 -0.7211  0.3512
12498TIP3   OH237434   3.593   3.276   6.400  0.0314  0.4437  0.3673
12498TIP3    H137435   3.554   3.314   6.321 -0.6888 -0.3430  0.3265
12498TIP3    H237436   3.567   3.336   6.470 -0.5774  0.3544  0.2206
12499TIP3   OH237437   0.994   6.001   6.330 -0.5456  0.6301  0.5044
12499TIP3    H137438   0.991   5.928   6.269 -1.0188  0.4497  0.7417
12499TIP3    H237439   1.088   6.022   6.337 -0.0742 -1.6992  2.4662
12500TIP3   OH237440   4.339   4.959   4.177  0.7034 -0.4520 -0.3678
12500TIP3    H137441   4.323   4.874   4.136 -1.1999 -0.3433  0.0281
12500TIP3    H237442   4.337   4.941   4.271  0.8140 -0.0635 -0.2909
12501TIP3   OH237443   3.379   6.278   5.125 -0.0957 -0.2197  0.1639
12501TIP3    H137444   3.434   6.236   5.191 -1.0537 -0.3226  0.9124
12501TIP3    H237445   3.370   6.368   5.156  3.3596  1.1894 -2.2901
12502TIP3   OH237446   1.764   7.698   0.254 -0.0196  0.2719 -0.1261
12502TIP3    H137447   1.723   7.765   0.200 -1.7230 -1.2193 -0.8018
12502TIP3    H237448   1.735   7.615   0.215  1.8586 -0.8703  0.7693
12503TIP3   OH237449   0.875   7.051   2.121 -0.2896 -0.4774  0.7665
12503TIP3    H137450   0.812   7.118   2.094 -1.4850 -2.0338 -0.4893
12503TIP3    H237451   0.830   7.004   2.191  0.9363  0.5687  2.3382
12504TIP3   OH237452   7.283   3.568   6.569  0.2195 -0.0755  0.4040
12504TIP3    H137453   7.222   3.505   6.529  2.7466 -2.2268 -0.3632
12504TIP3    H237454   7.334   3.515   6.630  0.0914  2.0710  2.5359
12505TIP3   OH237455   6.850   2.498   0.631  0.8614  0.4738 -0.2481
12505TIP3    H137456   6.763   2.532   0.611  0.5634  0.8648  1.5323
12505TIP3    H237457   6.903   2.577   0.646  1.0830  0.2271  0.3062
12506TIP3   OH237458   3.884   0.916   4.474  0.6915  0.3227  0.7145
12506TIP3    H137459   3.906   0.830   4.510  1.4289 -0.3105 -1.1391
12506TIP3    H237460   3.960   0.971   4.495 -0.1547  0.8320  2.6878
12507TIP3   OH237461   4.381   5.865   4.051  0.1144  0.0633 -0.2487
12507TIP3    H137462   4.339   5.884   4.134  0.3676  1.4639 -0.4091
12507TIP3    H237463   4.444   5.796   4.071 -0.5766 -0.3667  0.4845
12508TIP3   OH237464   6.035   0.282   2.706  0.0160  0.5992 -1.2490
12508TIP3    H137465   6.048   0.358   2.649 -2.1950  1.5249 -0.6283
12508TIP3    H237466   5.946   0.293   2.740  0.5212 -1.0109  0.7657
12509TIP3   OH237467   4.832   7.436   1.976 -0.0408 -0.1386  0.4196
12509TIP3    H137468   4.741   7.464   1.988 -0.6025 -0.3302 -2.5527
12509TIP3    H237469   4.831   7.342   1.990 -0.9276 -0.5643 -1.9729
12510TIP3   OH237470   1.548   2.256   3.437 -0.0698 -0.1487 -0.6389
12510TIP3    H137471   1.525   2.179   3.489 -1.9687 -0.9867 -2.5530
12510TIP3    H237472   1.472   2.313   3.444  1.1164  1.3915  0.3424
12511TIP3   OH237473   5.100   6.267   0.501 -0.4833  0.2340  0.3116
12511TIP3    H137474   5.083   6.193   0.443 -0.9217  0.5834 -0.0172
12511TIP3    H237475   5.079   6.344   0.448  1.2211  0.6614  0.2119
12512TIP3   OH237476   5.956   7.471   0.404 -0.1368 -0.0214 -0.5962
12512TIP3    H137477   6.022   7.411   0.370 -0.1164  0.3837 -1.2896
12512TIP3    H237478   5.957   7.545   0.343  0.7947  1.3365  0.9686
12513TIP3   OH237479   5.277   5.980   4.528  0.0361  0.1808 -0.0783
12513TIP3    H137480   5.260   5.971   4.621  0.6030  0.3378  0.0441
12513TIP3    H237481   5.352   6.039   4.523  0.7339 -0.7350 -0.5861
12514TIP3   OH237482   0.451   3.757   5.550  0.0508 -0.2091  0.2018
12514TIP3    H137483   0.435   3.668   5.581 -1.3627 -0.1393 -0.2627
12514TIP3    H237484   0.430   3.812   5.626 -2.1737 -0.1124 -0.4349
12515TIP3   OH237485   8.287   2.883   4.388 -0.0232  0.4374 -0.2016
12515TIP3    H137486   8.247   2.876   4.301  0.9360  1.3344 -0.7350
12515TIP3    H237487   8.379   2.903   4.370  0.2706  0.2515  1.0242
12516TIP3   OH237488   5.572   7.359   0.630 -0.6174  0.1821 -0.1837
12516TIP3    H137489   5.523   7.401   0.559 -0.6103  0.9135  0.2332
12516TIP3    H237490   5.505   7.323   0.687 -0.6927  1.1851  0.3883
12517TIP3   OH237491   2.977   7.571   5.948  0.2755  0.2926 -0.4339
12517TIP3    H137492   2.948   7.489   5.989  0.3522  0.3088 -0.3457
12517TIP3    H237493   2.975   7.553   5.854  1.4114 -0.2009 -0.3843
12518TIP3   OH237494   4.701   3.346   5.866  0.7181  0.1550  0.2700
12518TIP3    H137495   4.658   3.409   5.807  2.0182  0.1309 -0.7573
12518TIP3    H237496   4.631   3.316   5.923 -0.4641  0.7016 -0.8172
12519TIP3   OH237497   0.874   1.574   6.103  0.1312 -0.7470  0.2929
12519TIP3    H137498   0.827   1.498   6.069 -1.3028  0.2221  0.0535
12519TIP3    H237499   0.810   1.622   6.155  0.8797  0.5320  0.0989
12520TIP3   OH237500   4.756   0.085   4.861  0.2653 -0.0852 -0.7869
12520TIP3    H137501   4.701   0.070   4.938 -1.4798 -0.3189 -2.0203
12520TIP3    H237502   4.745   0.179   4.842  0.5878 -0.0538 -0.8179
12521TIP3   OH237503   5.067   3.951   6.090  0.1784  0.2026 -0.2548
12521TIP3    H137504   5.089   3.945   5.998  1.0531  0.1384 -0.0443
12521TIP3    H237505   4.976   3.981   6.091 -0.2617 -1.0275 -1.1460
12522TIP3   OH237506   7.814   1.563   3.182  0.1528  0.0081 -0.3918
12522TIP3    H137507   7.856   1.640   3.146 -1.2749  0.0948 -2.0147
12522TIP3    H237508   7.763   1.527   3.109 -3.1846  0.3573  1.5575
12523TIP3   OH237509   4.293   0.963   2.236 -0.4331 -0.4493 -0.3739
12523TIP3    H137510   4.243   1.045   2.242 -0.5863 -0.5163 -0.7073
12523TIP3    H237511   4.341   0.958   2.319  2.5503  1.8765 -1.7600
12524TIP3   OH237512   1.901   7.907   6.435 -0.0512  0.4916  0.4190
12524TIP3    H137513   1.847   7.852   6.492  0.6701 -1.2734 -0.5336
12524TIP3    H237514   1.841   7.973   6.402 -1.2470 -0.4222  0.6997
12525TIP3   OH237515   1.676   3.530   5.670  0.2364 -0.0328 -0.1472
12525TIP3    H137516   1.732   3.605   5.652 -2.6481  2.6138  1.0421
12525TIP3    H237517   1.617   3.524   5.595  1.1800 -2.0240 -0.8208
12526TIP3   OH237518   2.137   0.665   0.611 -0.1984 -0.4094  0.2520
12526TIP3    H137519   2.060   0.657   0.668 -0.7973  1.2062 -0.2774
12526TIP3    H237520   2.136   0.585   0.558 -1.5773 -0.3805  0.1904
12527TIP3   OH237521   1.664   5.950   3.597 -0.1595  0.0737  0.3219
12527TIP3    H137522   1.687   5.921   3.508 -2.7654 -1.1743 -0.0533
12527TIP3    H237523   1.673   5.871   3.650  1.2971  0.7955  1.2247
12528TIP3   OH237524   0.220   2.950   3.758  0.7882  0.0695  0.5778
12528TIP3    H137525   0.302   2.901   3.760  1.1949  0.7299  2.5257
12528TIP3    H237526   0.245   3.038   3.731  0.6902  0.2050  0.9200
12529TIP3   OH237527   4.338   6.548   0.629 -0.1645 -0.3025  0.1084
12529TIP3    H137528   4.311   6.640   0.627 -3.1824 -1.0955 -0.5019
12529TIP3    H237529   4.287   6.509   0.700  0.9040 -1.5892  0.2228
12530TIP3   OH237530   7.324   2.498   6.095 -0.3264 -0.4306 -0.1342
12530TIP3    H137531   7.280   2.486   6.011 -1.7186  0.2157  0.4812
12530TIP3    H237532   7.312   2.590   6.116  0.3956 -0.4874  0.5807
12531TIP3   OH237533   2.584   7.611   0.945  0.6435 -0.1461  0.0678
12531TIP3    H137534   2.668   7.608   0.898  0.0960 -0.5953 -0.9115
12531TIP3    H237535   2.532   7.541   0.906 -0.6498  0.9362 -0.2380
12532TIP3   OH237536   3.366   5.936   6.853  0.3384 -0.5920 -0.7224
12532TIP3    H137537   3.375   6.015   6.907 -1.8550  0.3839 -1.6673
12532TIP3    H237538   3.452   5.924   6.813  0.8987  0.9395 -0.0392
12533TIP3   OH237539   6.177   1.457   4.023 -0.2849 -0.2646  0.2926
12533TIP3    H137540   6.091   1.424   3.998 -0.0592 -0.7384  0.1322
12533TIP3    H237541   6.161   1.547   4.051 -0.6895 -0.0478 -0.6076
12534TIP3   OH237542   1.362   2.880   6.680 -0.0438 -0.4981  0.5432
12534TIP3    H137543   1.422   2.905   6.609  0.9519 -3.1049  0.3763
12534TIP3    H237544   1.357   2.785   6.675 -2.6375 -0.5230  1.8862
12535TIP3   OH237545   4.565   4.631   2.743 -0.2170  0.1122  0.5942
12535TIP3    H137546   4.538   4.540   2.730  0.5029 -0.2872  1.7820
12535TIP3    H237547   4.644   4.641   2.689 -1.0283  0.4268 -0.5604
12536TIP3   OH237548   8.051   2.431   2.440 -0.1410  0.1421 -0.4025
12536TIP3    H137549   8.065   2.520   2.410 -1.8498  0.6234  0.1106
12536TIP3    H237550   8.049   2.378   2.360  2.5905  0.2518 -0.6123
12537TIP3   OH237551   0.228   7.714   1.769  0.1409 -0.4038 -0.1692
12537TIP3    H137552   0.244   7.742   1.859  1.9072 -1.5325 -0.0993
12537TIP3    H237553   0.156   7.652   1.775 -0.7736  0.6658  0.2435
12538TIP3   OH237554   3.263   2.618   6.467 -0.4874 -0.6466  0.0974
12538TIP3    H137555   3.233   2.538   6.510  1.0619 -0.8398  0.8937
12538TIP3    H237556   3.276   2.680   6.539  0.6040 -0.4582 -0.2512
12539TIP3   OH237557   2.367   6.464   1.264 -0.8798 -0.8295 -0.6602
12539TIP3    H137558   2.353   6.459   1.358  2.7076  0.6927  0.1070
12539TIP3    H237559   2.288   6.425   1.226 -3.4627  0.5148  2.8493
12540TIP3   OH237560   7.314   3.489   5.777  0.0097 -0.1488  0.0135
12540TIP3    H137561   7.248   3.447   5.832 -0.0866  0.1201  0.1029
12540TIP3    H237562   7.265   3.526   5.704 -0.0847  1.0069  0.6414
12541TIP3   OH237563   0.864   1.384   4.413  0.1612  1.0267  0.0137
12541TIP3    H137564   0.855   1.385   4.318 -0.2212  4.1576 -0.0229
12541TIP3    H237565   0.954   1.356   4.429  0.7118  1.9172 -1.3759
12542TIP3   OH237566   3.208   1.723   5.851 -0.4626  0.5561 -0.3910
12542TIP3    H137567   3.248   1.770   5.778 -0.7313 -0.4067 -1.1839
12542TIP3    H237568   3.277   1.718   5.917 -0.3262  1.7487 -0.4149
12543TIP3   OH237569   4.336   6.817   3.387  0.6687 -0.2382 -0.0923
12543TIP3    H137570   4.397   6.755   3.348  0.2121 -0.2822 -0.7482
12543TIP3    H237571   4.288   6.766   3.452  0.9815 -0.3234  0.0746
12544TIP3   OH237572   3.496   3.983   2.650  0.4129 -0.1457  0.2284
12544TIP3    H137573   3.409   3.949   2.671  0.2335  0.4852  0.5175
12544TIP3    H237574   3.507   4.059   2.707 -0.9848  3.0065 -3.3379
12545TIP3   OH237575   6.536   3.965   5.351 -0.1795 -0.5566  0.3371
12545TIP3    H137576   6.464   3.958   5.288  0.9445 -0.5492 -1.0057
12545TIP3    H237577   6.614   3.941   5.301  0.9560  0.8461  1.3432
12546TIP3   OH237578   0.759   3.183   1.461  0.1549  0.1438  0.0815
12546TIP3    H137579   0.822   3.148   1.397 -1.5380 -0.1264 -1.5075
12546TIP3    H237580   0.764   3.278   1.448  0.1108  0.1143 -0.1649
12547TIP3   OH237581   6.949   2.535   5.933  0.2778 -0.0609 -0.2109
12547TIP3    H137582   6.955   2.440   5.920 -0.1584 -0.1283  0.0690
12547TIP3    H237583   6.953   2.547   6.028 -0.9588  0.0959 -0.1559
12548TIP3   OH237584   3.775   2.451   4.021  0.9338  0.0442 -0.3986
12548TIP3    H137585   3.700   2.416   4.069 -0.6487  3.9538  0.3712
12548TIP3    H237586   3.739   2.477   3.937  1.7932  0.6574 -0.5871
12549TIP3   OH237587   0.608   1.102   0.257 -0.4404  0.3572 -0.3987
12549TIP3    H137588   0.646   1.179   0.298  2.2674 -1.8296  1.5708
12549TIP3    H237589   0.666   1.083   0.183 -0.1518 -0.6524  0.0768
12550TIP3   OH237590   1.955   6.317   4.317  0.3776 -0.2588 -0.6977
12550TIP3    H137591   1.948   6.231   4.276 -0.0253 -0.5649 -0.0017
12550TIP3    H237592   1.905   6.376   4.260  0.3671 -0.5537 -0.9914
12551TIP3   OH237593   3.534   3.151   5.495 -0.2080  0.0544 -0.2419
12551TIP3    H137594   3.439   3.138   5.493 -0.6667  2.7229 -0.4756
12551TIP3    H237595   3.548   3.213   5.567  1.8210 -2.7035  1.9782
12552TIP3   OH237596   0.759   5.166   4.713  0.9283  0.2551 -0.0555
12552TIP3    H137597   0.840   5.175   4.765  3.1512 -1.0326 -3.0018
12552TIP3    H237598   0.722   5.083   4.742  0.3285  1.0584  1.6338
12553TIP3   OH237599   7.812   4.667   3.141 -0.1921  0.6323 -0.3004
12553TIP3    H137600   7.840   4.709   3.060 -2.0505  0.8309 -0.8812
12553TIP3    H237601   7.731   4.621   3.118 -0.7865  0.7176  1.4486
12554TIP3   OH237602   1.869   6.891   6.579 -0.5911 -0.3542 -0.2359
12554TIP3    H137603   1.834   6.977   6.554  0.4072  0.2653  0.4188
12554TIP3    H237604   1.962   6.907   6.596 -0.6977 -1.2488  1.3922
12555TIP3   OH237605   2.527   6.791   0.611 -0.3227 -0.4694 -0.0111
12555TIP3    H137606   2.440   6.810   0.647  0.2204  1.2556  0.4876
12555TIP3    H237607   2.585   6.795   0.687  0.3004 -0.9360 -0.4544
12556TIP3   OH237608   2.050   2.806   3.091  0.2415  0.0588  0.7189
12556TIP3    H137609   1.967   2.772   3.059  0.7193  0.5470 -1.1571
12556TIP3    H237610   2.065   2.885   3.039  2.2744 -0.4929  0.3902
12557TIP3   OH237611   5.329   1.078   6.569 -0.0285  0.0731  0.1808
12557TIP3    H137612   5.401   1.046   6.515 -0.4881  0.3792 -0.6381
12557TIP3    H237613   5.250   1.053   6.521 -0.4387  0.6041  0.5607
12558TIP3   OH237614   6.483   5.366   0.443 -0.1898  0.3852 -0.1591
12558TIP3    H137615   6.476   5.348   0.537 -0.7806 -0.7855 -0.4098
12558TIP3    H237616   6.447   5.454   0.432  0.4893  0.7934  0.7907
12559TIP3   OH237617   3.755   5.611   2.960 -0.2574 -0.2987 -0.0122
12559TIP3    H137618   3.843   5.649   2.971  0.7975 -3.1622  3.1677
12559TIP3    H237619   3.769   5.538   2.898 -0.7068  0.0349 -0.5110
12560TIP3   OH237620   6.640   3.361   1.816  0.2247 -0.0329 -0.2843
12560TIP3    H137621   6.717   3.321   1.854 -0.0828 -0.5470 -0.1964
12560TIP3    H237622   6.673   3.433   1.763  0.6763  0.6586  0.8910
12561TIP3   OH237623   1.639   1.776   0.768  0.1733 -0.3911  0.0911
12561TIP3    H137624   1.648   1.681   0.776  0.4317 -0.6373 -2.3504
12561TIP3    H237625   1.584   1.789   0.691  1.6244  1.4369 -0.7218
12562TIP3   OH237626   1.125   0.208   5.594  0.1410 -0.3475  0.4515
12562TIP3    H137627   1.215   0.239   5.582  0.3915 -1.0535  0.4141
12562TIP3    H237628   1.081   0.232   5.513  0.2286  0.2174  0.5659
12563TIP3   OH237629   3.246   1.777   2.672  0.4410  0.8064 -0.0779
12563TIP3    H137630   3.162   1.759   2.714  0.8884  0.0446  0.5068
12563TIP3    H237631   3.254   1.873   2.675 -0.5007  0.8979 -0.3366
12564TIP3   OH237632   5.697   4.761   2.273 -0.3289 -0.1521 -0.2709
12564TIP3    H137633   5.760   4.711   2.324 -0.5851  0.0326  0.2414
12564TIP3    H237634   5.631   4.788   2.337 -0.6521  0.0957 -0.7014
12565TIP3   OH237635   7.499   7.424   4.951 -0.2973  0.0532  0.1812
12565TIP3    H137636   7.406   7.422   4.930 -0.8385 -0.0497  2.3585
12565TIP3    H237637   7.516   7.514   4.980 -0.0053 -0.2384  0.9370
12566TIP3   OH237638   5.173   2.152   1.920 -0.3226 -0.1315  0.4223
12566TIP3    H137639   5.110   2.108   1.977 -1.7368  0.7307 -0.4003
12566TIP3    H237640   5.173   2.243   1.951 -1.5837  0.4964 -1.2695
12567TIP3   OH237641   4.144   2.830   6.141 -0.4251  0.0106  0.6234
12567TIP3    H137642   4.139   2.847   6.047 -1.2490  0.6857  0.7757
12567TIP3    H237643   4.061   2.863   6.175  0.0204  0.1034  1.6371
12568TIP3   OH237644   0.796   3.234   4.745 -0.1900  0.2094  0.2985
12568TIP3    H137645   0.884   3.197   4.737 -0.0620  0.1341  1.8169
12568TIP3    H237646   0.806   3.326   4.721 -0.4894 -0.5946 -3.4404
12569TIP3   OH237647   8.309   1.201   3.225 -0.4368 -0.1288  0.4127
12569TIP3    H137648   8.250   1.220   3.152  1.4427 -0.5445 -1.3016
12569TIP3    H237649   8.325   1.286   3.266 -1.6564  0.0761  0.5121
12570TIP3   OH237650   3.614   4.257   2.768 -0.1254 -0.0469  0.2631
12570TIP3    H137651   3.669   4.267   2.846  0.6837  1.3138 -0.4503
12570TIP3    H237652   3.659   4.308   2.701 -1.4575 -0.2039 -0.7719
12571TIP3   OH237653   6.124   6.585   0.610  0.5172 -0.0848  0.2037
12571TIP3    H137654   6.080   6.610   0.691  0.3046 -0.1926  0.1227
12571TIP3    H237655   6.169   6.503   0.631 -0.0872 -0.4744  0.0342
12572TIP3   OH237656   7.718   4.236   0.381  0.3972  0.0269  0.4652
12572TIP3    H137657   7.782   4.176   0.418  0.3686 -0.2745  0.0373
12572TIP3    H237658   7.757   4.264   0.298  1.2767  2.0555  1.4830
12573TIP3   OH237659   5.322   4.498   1.498  0.3782  0.0429 -0.3850
12573TIP3    H137660   5.246   4.459   1.455 -1.4158  2.2861  0.4971
12573TIP3    H237661   5.289   4.524   1.585  2.4582  0.2204  0.4089
12574TIP3   OH237662   0.633   0.698   4.435 -0.0273  0.3848  0.7044
12574TIP3    H137663   0.641   0.763   4.365  0.9486  0.7539  1.1372
12574TIP3    H237664   0.690   0.626   4.407 -1.6666 -0.6342 -0.1254
12575TIP3   OH237665   1.994   7.411   1.221  0.0407  0.3550  0.5103
12575TIP3    H137666   1.966   7.503   1.218  0.0471  0.3185 -1.3152
12575TIP3    H237667   2.061   7.410   1.290  1.8106  2.2527 -1.0408
12576TIP3   OH237668   5.522   3.454   4.090  0.1505  0.0624  0.3291
12576TIP3    H137669   5.586   3.421   4.026  1.1668  0.6261  1.0278
12576TIP3    H237670   5.456   3.498   4.037 -1.1339 -2.7822 -0.6308
12577TIP3   OH237671   2.398   7.610   3.593 -0.5320  0.0847  0.0461
12577TIP3    H137672   2.400   7.572   3.681  0.4517  1.9806  0.9114
12577TIP3    H237673   2.406   7.536   3.534 -0.9947 -1.2241  1.5534
12578TIP3   OH237674   0.459   2.194   3.398 -0.3956  0.2164 -0.4080
12578TIP3    H137675   0.514   2.226   3.470  0.4176  0.2199 -1.0099
12578TIP3    H237676   0.417   2.116   3.433  0.9177 -0.4788 -0.2869
12579TIP3   OH237677   7.177   5.065   1.900  0.0170 -0.2471 -0.1298
12579TIP3    H137678   7.121   5.140   1.877  1.5629  0.9934  0.0317
12579TIP3    H237679   7.192   5.075   1.994  2.0196  0.5267 -0.4964
12580TIP3   OH237680   7.162   6.159   1.257 -0.7457  0.5085 -0.1656
12580TIP3    H137681   7.255   6.181   1.257 -0.6294  0.2403  2.1669
12580TIP3    H237682   7.139   6.153   1.164  0.8907  3.2823 -0.8764
12581TIP3   OH237683   1.332   3.548   2.866  0.2410 -0.8203  0.0934
12581TIP3    H137684   1.405   3.486   2.863  0.8918 -0.0401 -0.3649
12581TIP3    H237685   1.337   3.595   2.783  0.6738  0.8997  1.0593
12582TIP3   OH237686   5.551   5.430   5.565  0.3869  0.3567 -0.6390
12582TIP3    H137687   5.566   5.347   5.611  1.1322  0.0335 -1.4293
12582TIP3    H237688   5.638   5.470   5.560  0.0607  1.0987 -0.4337
12583TIP3   OH237689   1.219   4.295   6.724  0.0034  0.0639  0.1407
12583TIP3    H137690   1.210   4.386   6.750 -2.6207 -0.3918  1.0676
12583TIP3    H237691   1.289   4.296   6.658 -0.6045  2.8710 -0.6029
12584TIP3   OH237692   1.505   2.498   6.728 -0.3146 -0.6915  0.2428
12584TIP3    H137693   1.586   2.546   6.743 -1.1927  0.2498  2.4549
12584TIP3    H237694   1.477   2.470   6.815 -1.8914 -1.8192 -0.5664
12585TIP3   OH237695   7.542   1.433   0.169 -0.0838 -0.3025 -0.0658
12585TIP3    H137696   7.536   1.484   0.088  0.3792  0.5875  0.4415
12585TIP3    H237697   7.487   1.480   0.232 -0.9281 -1.3224 -0.0101
12586TIP3   OH237698   7.478   0.247   6.277 -0.5647 -0.0446  0.2811
12586TIP3    H137699   7.388   0.217   6.268 -0.6968  0.7193 -1.3746
12586TIP3    H237700   7.529   0.186   6.224 -0.5127  1.0970 -1.0519
12587TIP3   OH237701   3.684   7.419   6.174 -0.5105 -0.0492  0.1022
12587TIP3    H137702   3.652   7.356   6.239  0.8375 -1.2556 -0.3273
12587TIP3    H237703   3.746   7.473   6.221 -1.5199  0.8521  0.4235
12588TIP3   OH237704   3.526   0.626   0.397 -0.5018 -0.5079 -0.4142
12588TIP3    H137705   3.469   0.578   0.337 -1.3701 -2.0865  1.5492
12588TIP3    H237706   3.542   0.710   0.354 -1.4222 -1.3941 -2.6194
12589TIP3   OH237707   2.712   4.360   6.455  0.2913  0.5083  0.1317
12589TIP3    H137708   2.624   4.394   6.470  0.5995  2.0993 -1.3539
12589TIP3    H237709   2.699   4.275   6.414 -0.6080  1.3791 -1.4675
12590TIP3   OH237710   4.882   6.794   3.499  0.3016 -0.2978 -0.0774
12590TIP3    H137711   4.792   6.769   3.481  0.5372 -1.4732  0.3259
12590TIP3    H237712   4.881   6.829   3.588  0.1805  0.0151 -0.2027
12591TIP3   OH237713   4.383   3.606   4.842  0.6022  0.1918 -0.5175
12591TIP3    H137714   4.442   3.563   4.904  1.8584  0.9066 -1.1779
12591TIP3    H237715   4.297   3.570   4.863  1.6463 -3.4393 -1.6834
12592TIP3   OH237716   2.732   0.158   2.170  0.2844  0.6695 -0.4403
12592TIP3    H137717   2.783   0.083   2.142 -0.1217  0.1663  0.1425
12592TIP3    H237718   2.659   0.121   2.220  0.7646  1.4958  0.9339
12593TIP3   OH237719   8.106   7.169   0.576 -0.0595  0.6535  0.1140
12593TIP3    H137720   8.049   7.240   0.549 -0.7181 -0.3222 -1.1376
12593TIP3    H237721   8.170   7.159   0.505  0.3470  0.3346  0.5113
12594TIP3   OH237722   6.699   3.685   0.978  0.1623 -0.0379 -0.3585
12594TIP3    H137723   6.681   3.613   0.918 -0.2878 -0.3370  0.1337
12594TIP3    H237724   6.794   3.696   0.973  0.0659  0.4467 -1.6944
12595TIP3   OH237725   1.283   4.056   0.030  0.1587 -0.4710 -0.4456
12595TIP3    H137726   1.211   4.021  -0.023  0.5383  0.0310 -1.3093
12595TIP3    H237727   1.254   4.144   0.053 -0.0791 -0.7489  0.3373
12596TIP3   OH237728   4.158   2.995   4.863  0.6110 -0.2434  0.2109
12596TIP3    H137729   4.166   2.996   4.959  2.5218  2.0399  0.0943
12596TIP3    H237730   4.227   2.935   4.834  0.1892 -0.7442  0.2146
12597TIP3   OH237731   7.350   0.440   0.982 -0.8495 -0.2104 -0.2702
12597TIP3    H137732   7.344   0.469   1.074 -2.2747 -1.6525  0.1471
12597TIP3    H237733   7.392   0.354   0.987  0.5931  0.4095 -1.1752
12598TIP3   OH237734   6.715   1.643   1.060 -0.5316 -0.3422 -0.3674
12598TIP3    H137735   6.631   1.658   1.104 -0.2421  0.1426  0.0256
12598TIP3    H237736   6.694   1.648   0.967 -0.8859  0.0851 -0.2704
12599TIP3   OH237737   6.472   2.146   5.948  0.4752 -0.3972  0.1757
12599TIP3    H137738   6.393   2.162   5.895 -0.3297  1.2849  1.7947
12599TIP3    H237739   6.446   2.077   6.009 -0.4292  1.4243  1.9456
12600TIP3   OH237740   2.114   5.899   5.899 -0.0566 -0.6066 -0.3150
12600TIP3    H137741   2.184   5.961   5.881  0.2750 -0.8986 -0.0583
12600TIP3    H237742   2.114   5.840   5.823  0.5519 -1.1238  0.0782
12601TIP3   OH237743   5.450   1.481   3.342 -0.3921  0.7897 -0.4422
12601TIP3    H137744   5.460   1.576   3.349  0.9492  0.7064 -0.9735
12601TIP3    H237745   5.487   1.446   3.423 -0.0103  0.6792 -0.6610
12602TIP3   OH237746   4.915   4.631   2.333  0.5341  0.4184 -0.6500
12602TIP3    H137747   5.002   4.592   2.325  1.4989  2.7289 -3.3321
12602TIP3    H237748   4.857   4.568   2.289  1.7271  0.9135 -3.1557
12603TIP3   OH237749   6.906   3.057   4.958 -0.1744 -0.0585 -0.7100
12603TIP3    H137750   6.981   3.108   4.928 -0.0795  0.6742  0.6966
12603TIP3    H237751   6.865   3.111   5.025 -2.3051 -0.1926 -1.8139
12604TIP3   OH237752   1.455   6.068   2.029 -0.1610 -0.1870 -0.2221
12604TIP3    H137753   1.517   6.100   2.094  0.9034  0.3440 -1.4596
12604TIP3    H237754   1.429   6.145   1.979 -0.1357 -0.7200 -1.0979
12605TIP3   OH237755   1.339   1.809   5.078 -0.1221  0.2671 -0.1551
12605TIP3    H137756   1.304   1.846   5.159  0.9368  0.5927  0.1643
12605TIP3    H237757   1.263   1.767   5.037 -0.5101 -0.5847  1.3659
12606TIP3   OH237758   5.140   5.911   6.123 -0.1886 -0.3470 -0.2563
12606TIP3    H137759   5.190   5.988   6.150 -0.5168 -1.0899  2.7724
12606TIP3    H237760   5.052   5.944   6.106  0.4148  0.4002 -2.2768
12607TIP3   OH237761   6.576   7.582   6.212 -0.3924  0.1989 -0.0153
12607TIP3    H137762   6.565   7.677   6.210 -0.2381  0.2129 -0.2130
12607TIP3    H237763   6.670   7.569   6.216 -0.4470  0.0755  1.4705
12608TIP3   OH237764   0.224   6.883   4.191  0.2232 -0.2298 -0.1816
12608TIP3    H137765   0.245   6.908   4.101  0.7146 -0.4526 -0.1299
12608TIP3    H237766   0.166   6.807   4.182 -1.3152  0.9070 -0.3428
12609TIP3   OH237767   6.479   6.078   4.274 -0.5226  0.4014 -0.3152
12609TIP3    H137768   6.418   6.072   4.201  0.9192 -0.6470 -1.4863
12609TIP3    H237769   6.552   6.129   4.240 -0.1544  0.5400  0.6453
12610TIP3   OH237770   8.121   4.371   1.792 -0.0397  0.2817 -0.0642
12610TIP3    H137771   8.047   4.432   1.790 -1.1611 -1.0469  0.0071
12610TIP3    H237772   8.194   4.421   1.755 -0.9373  1.6449 -0.0514
12611TIP3   OH237773   8.196   6.008   6.228 -0.8866 -0.0002  0.2034
12611TIP3    H137774   8.181   5.937   6.290  1.0147 -0.2319  0.4839
12611TIP3    H237775   8.162   5.975   6.145 -0.5767 -1.0174  0.4622
12612TIP3   OH237776   8.078   5.907   3.299  0.0955 -0.7533 -0.3413
12612TIP3    H137777   8.051   5.878   3.212 -1.9942  1.2443 -0.4527
12612TIP3    H237778   8.162   5.950   3.285  0.7909 -2.2350 -0.9683
12613TIP3   OH237779   0.117   4.863   3.691  0.2392 -0.6926 -0.5253
12613TIP3    H137780   0.146   4.901   3.774 -1.2938  1.0390 -0.7003
12613TIP3    H237781   0.080   4.778   3.714 -0.5225 -0.0739  0.6630
12614TIP3   OH237782   0.195   7.098   3.209 -0.1006  0.1224  0.1758
12614TIP3    H137783   0.225   7.137   3.290  1.8572  2.9792 -1.7439
12614TIP3    H237784   0.107   7.134   3.195  0.5575  1.6690 -0.1555
12615TIP3   OH237785   5.804   0.834   4.199 -0.4764  0.5261 -0.5645
12615TIP3    H137786   5.874   0.897   4.217 -0.4273  0.2284  0.3696
12615TIP3    H237787   5.850   0.750   4.194 -0.6780  0.4238 -0.6809
12616TIP3   OH237788   3.867   0.179   2.058  0.3366 -0.0346  0.1542
12616TIP3    H137789   3.887   0.165   2.151 -0.6283  1.0316  0.5335
12616TIP3    H237790   3.949   0.158   2.014  0.7758 -0.7029  1.2245
12617TIP3   OH237791   6.490   4.071   0.054  0.4640 -0.3281 -0.1907
12617TIP3    H137792   6.557   4.104   0.115  0.0625  2.0707 -0.9289
12617TIP3    H237793   6.407   4.088   0.099  0.1983  0.8401 -1.0662
12618TIP3   OH237794   4.439   1.813   5.055 -0.5664  0.7023 -0.5739
12618TIP3    H137795   4.412   1.881   4.995 -2.7639 -0.5144 -1.0782
12618TIP3    H237796   4.477   1.745   4.999  0.5593  1.0025 -0.1969
12619TIP3   OH237797   6.096   5.967   4.713  0.0993 -0.1826 -0.1343
12619TIP3    H137798   6.105   5.952   4.808 -1.6101 -0.5020  0.0013
12619TIP3    H237799   6.162   5.911   4.674  0.4683 -0.4537  0.8443
12620TIP3   OH237800   7.214   2.302   2.405 -0.3054  0.6000 -0.0736
12620TIP3    H137801   7.257   2.385   2.426 -0.2436  0.6434 -0.3666
12620TIP3    H237802   7.197   2.262   2.491  4.9546 -1.8504  0.1970
12621TIP3   OH237803   4.014   6.643   0.769  0.0146  0.1706  0.6588
12621TIP3    H137804   4.084   6.702   0.742 -0.1668  0.0213 -0.1498
12621TIP3    H237805   4.059   6.573   0.818  0.6363 -0.7051 -1.0860
12622TIP3   OH237806   7.261   6.609   2.122  0.2264  0.2883 -0.6584
12622TIP3    H137807   7.286   6.567   2.205  0.7779  0.4993 -0.7129
12622TIP3    H237808   7.336   6.664   2.100 -0.5947  1.5161 -0.4460
12623TIP3   OH237809   2.320   3.448   2.467  0.2842 -0.1729  0.4741
12623TIP3    H137810   2.343   3.427   2.376 -1.6076  1.0043 -0.3426
12623TIP3    H237811   2.318   3.544   2.470 -0.3949 -0.2061  1.5681
12624TIP3   OH237812   0.667   7.205   3.678  0.6205  0.1362 -0.2268
12624TIP3    H137813   0.642   7.132   3.621  0.3710 -2.0846  2.4802
12624TIP3    H237814   0.753   7.181   3.712  0.3594  0.8811  1.0421
12625TIP3   OH237815   4.108   1.867   0.312  0.1288  0.1852 -0.2291
12625TIP3    H137816   4.125   1.938   0.374 -0.7788 -1.6649  2.3017
12625TIP3    H237817   4.013   1.858   0.311  0.1062  0.2108 -2.0432
12626TIP3   OH237818   2.692   4.051   6.617  0.3488  0.4339  0.8644
12626TIP3    H137819   2.697   4.079   6.526  0.4031 -0.6492  0.5227
12626TIP3    H237820   2.750   3.976   6.622 -1.4353 -0.9886  1.2259
12627TIP3   OH237821   7.016   6.264   4.864 -0.4591 -0.2836  0.2945
12627TIP3    H137822   7.076   6.207   4.816  0.9253  0.6897  0.8258
12627TIP3    H237823   7.071   6.335   4.898 -1.9910  0.9296  0.3640
12628TIP3   OH237824   0.294   5.904   1.868  0.1483 -0.1746 -0.0737
12628TIP3    H137825   0.250   5.962   1.807 -0.2672 -0.5424 -0.1302
12628TIP3    H237826   0.229   5.836   1.888  0.0779  0.2397  1.1965
12629TIP3   OH237827   1.546   4.488   6.057 -0.0686 -0.5921 -0.4608
12629TIP3    H137828   1.530   4.558   5.993  0.6191 -1.3086 -1.4433
12629TIP3    H237829   1.458   4.466   6.089 -0.1627  2.3977  1.8028
12630TIP3   OH237830   6.931   1.724   2.162 -0.0564  0.2427 -0.4095
12630TIP3    H137831   6.976   1.691   2.084  0.2167 -0.0206 -0.1448
12630TIP3    H237832   6.965   1.813   2.174  0.4067  0.0425 -0.2064
12631TIP3   OH237833   1.175   1.899   5.265  0.3967 -0.3532  0.2509
12631TIP3    H137834   1.137   1.961   5.327  0.9075  1.2904 -1.0008
12631TIP3    H237835   1.101   1.867   5.213  0.3305  0.5623 -0.2312
12632TIP3   OH237836   0.951   7.036   4.088 -0.2975  0.4723 -0.2821
12632TIP3    H137837   0.968   6.944   4.111  2.1109  0.3326 -2.1933
12632TIP3    H237838   1.019   7.085   4.135  0.2152  0.9437 -1.4978
12633TIP3   OH237839   4.709   4.024   1.512 -0.1706  0.0208  0.0144
12633TIP3    H137840   4.792   4.000   1.553 -0.8870 -2.1908  0.2871
12633TIP3    H237841   4.643   4.008   1.580 -0.8942  1.4270 -0.3023
12634TIP3   OH237842   2.201   2.750   6.165 -0.2491  0.4346  0.5368
12634TIP3    H137843   2.228   2.841   6.173 -0.0650  0.5906 -1.5237
12634TIP3    H237844   2.126   2.742   6.223  0.1557  1.7033  1.2713
12635TIP3   OH237845   6.310   3.842   5.750  0.1105  0.6728  0.0755
12635TIP3    H137846   6.252   3.872   5.820 -1.4220  0.3515 -0.9855
12635TIP3    H237847   6.373   3.912   5.738  0.3158  0.7808  1.6787
12636TIP3   OH237848   6.444   2.710   6.303  0.2301  0.2218 -0.4953
12636TIP3    H137849   6.357   2.681   6.277  0.4869 -0.7087 -0.3631
12636TIP3    H237850   6.428   2.773   6.374 -0.3771  1.1783 -1.4436
12637TIP3   OH237851   4.495   0.998   1.971  0.2008 -0.0365  0.4812
12637TIP3    H137852   4.558   1.028   1.905 -0.0037 -0.0413  0.2832
12637TIP3    H237853   4.501   1.064   2.040 -0.0328  0.3059  0.1780
12638TIP3   OH237854   4.768   1.218   3.593 -0.1042 -0.3947  0.3852
12638TIP3    H137855   4.848   1.268   3.572 -0.9589  0.9053  0.1011
12638TIP3    H237856   4.697   1.278   3.571 -1.1846 -1.7662  0.0648
12639TIP3   OH237857   6.967   5.869   1.618 -0.8503 -0.4192 -0.1945
12639TIP3    H137858   7.040   5.925   1.645 -0.7291  0.6493 -2.5050
12639TIP3    H237859   6.900   5.882   1.684  0.8833 -1.1945  1.8341
12640TIP3   OH237860   3.712   4.397   4.208 -0.0807  0.2279  1.1476
12640TIP3    H137861   3.734   4.484   4.175  1.1094 -0.0992  1.0072
12640TIP3    H237862   3.668   4.412   4.291 -1.2477  0.9996  0.4212
12641TIP3   OH237863   3.504   3.614   5.950  0.2975 -0.3844  0.4371
12641TIP3    H137864   3.512   3.642   5.859  1.0037 -1.5951  0.1035
12641TIP3    H237865   3.455   3.684   5.993  1.6314  1.1364 -0.4310
12642TIP3   OH237866   0.456   4.357   4.951 -0.3656  0.7089  0.2336
12642TIP3    H137867   0.433   4.381   5.040 -1.1406 -1.2405  0.6174
12642TIP3    H237868   0.551   4.346   4.953  0.0391  3.4815  0.0230
12643TIP3   OH237869   5.434   3.112   0.054  0.4286 -0.1834 -0.0087
12643TIP3    H137870   5.454   3.025   0.019 -0.1334 -0.0039 -0.8022
12643TIP3    H237871   5.495   3.171   0.008  0.3085 -0.0610 -0.0109
12644TIP3   OH237872   7.902   4.786   6.127  0.2916 -0.0886 -0.1543
12644TIP3    H137873   7.959   4.764   6.053  0.8938 -3.1348  1.0395
12644TIP3    H237874   7.962   4.824   6.192  0.0075  1.3233 -0.6934
12645TIP3   OH237875   8.211   7.331   1.125 -0.1039  0.3979 -0.1294
12645TIP3    H137876   8.140   7.282   1.083 -0.8341  2.5222 -1.5576
12645TIP3    H237877   8.289   7.277   1.110 -0.7442 -0.0470 -2.2253
12646TIP3   OH237878   7.814   4.048   4.355 -0.1004 -0.2750 -0.3467
12646TIP3    H137879   7.794   4.029   4.263 -0.1859  0.4631 -0.4884
12646TIP3    H237880   7.829   4.142   4.357  1.6256 -0.5238  0.0692
12647TIP3   OH237881   5.767   6.687   6.688  0.3709  0.7857  0.2367
12647TIP3    H137882   5.712   6.715   6.761 -1.1131 -0.9141 -0.1636
12647TIP3    H237883   5.835   6.754   6.682 -0.1868  1.6168  2.3676
12648TIP3   OH237884   7.372   7.056   2.626 -0.3904  0.5090  0.2566
12648TIP3    H137885   7.411   6.972   2.647  0.5956  0.1428 -2.6005
12648TIP3    H237886   7.280   7.046   2.651 -0.1189 -1.0869  0.7548
12649TIP3   OH237887   6.198   1.826   5.118 -0.0265  0.3391 -0.5515
12649TIP3    H137888   6.272   1.775   5.087  0.9400  1.7848 -0.6986
12649TIP3    H237889   6.180   1.889   5.048 -2.3405 -0.8781 -1.1520
12650TIP3   OH237890   7.805   0.547   2.095 -0.0939  0.2822 -0.1996
12650TIP3    H137891   7.743   0.522   2.026 -1.4842  1.1077  0.6990
12650TIP3    H237892   7.832   0.464   2.134  1.1398 -0.2340 -2.0521
12651TIP3   OH237893   7.529   0.364   4.717  0.1047 -0.0774  0.2421
12651TIP3    H137894   7.588   0.311   4.664  0.2517  1.1771 -0.8910
12651TIP3    H237895   7.576   0.378   4.799  0.2192 -1.3407  0.4183
12652TIP3   OH237896   8.129   7.090   4.062  0.1455  0.2659  0.1606
12652TIP3    H137897   8.071   7.127   4.128  1.0568  0.1849  1.0384
12652TIP3    H237898   8.116   7.144   3.985 -0.1074  1.0894  0.7649
12653TIP3   OH237899   7.448   0.921   4.431 -0.1112 -1.0498 -0.6260
12653TIP3    H137900   7.440   1.004   4.477 -3.1985 -2.3961  1.6006
12653TIP3    H237901   7.377   0.922   4.367 -0.3376 -2.0473 -0.4017
12654TIP3   OH237902   1.591   4.282   4.754  0.0759 -0.2788  0.1683
12654TIP3    H137903   1.550   4.283   4.840 -0.1269  0.6229  0.0648
12654TIP3    H237904   1.673   4.235   4.767 -0.8097 -1.8267  0.4454
12655TIP3   OH237905   4.327   1.617   2.410 -0.7836  0.4038 -0.0094
12655TIP3    H137906   4.366   1.624   2.323  0.2325 -1.7046  0.2036
12655TIP3    H237907   4.395   1.647   2.469  0.2655 -2.2213  0.2809
12656TIP3   OH237908   0.876   4.200   6.226 -0.2098  0.0489  0.0642
12656TIP3    H137909   0.800   4.146   6.204 -0.8960  0.5279  1.1550
12656TIP3    H237910   0.928   4.145   6.284 -0.1815  0.0367  0.0272
12657TIP3   OH237911   3.484   0.527   0.637 -0.1471 -0.4204 -1.0639
12657TIP3    H137912   3.506   0.577   0.558 -0.9778  0.5975 -0.6806
12657TIP3    H237913   3.562   0.532   0.692 -0.1698  0.3362 -1.0952
12658TIP3   OH237914   2.503   0.248   4.636 -0.0677 -0.8324 -0.3840
12658TIP3    H137915   2.417   0.286   4.653  0.5049  1.9315 -2.8783
12658TIP3    H237916   2.487   0.175   4.578 -0.7935 -1.0652  0.0999
12659TIP3   OH237917   1.186   7.700   3.829  0.1492 -0.4205 -0.0677
12659TIP3    H137918   1.173   7.705   3.734  3.4822 -0.6313 -0.6299
12659TIP3    H237919   1.228   7.615   3.843 -0.0283 -0.2628  1.5914
12660TIP3   OH237920   1.014   0.690   3.864  0.5955  0.0661  0.1890
12660TIP3    H137921   0.930   0.734   3.877 -1.4624 -3.3942 -0.2624
12660TIP3    H237922   1.032   0.701   3.771  1.6564  2.2411  0.5674
12661TIP3   OH237923   1.164   5.733   5.063 -0.6069  0.5308  0.0421
12661TIP3    H137924   1.079   5.740   5.020 -1.8729 -0.2212  2.2760
12661TIP3    H237925   1.144   5.715   5.155  1.9688 -0.0080  0.5942
12662TIP3   OH237926   0.028   2.399   5.206 -0.1277 -0.0825  0.3192
12662TIP3    H137927   0.120   2.379   5.225  0.0737 -1.5555 -1.8997
12662TIP3    H237928   0.031   2.483   5.161 -0.0069  0.4501  1.2988
12663TIP3   OH237929   7.816   1.855   4.881 -0.1103 -0.3373  0.2560
12663TIP3    H137930   7.752   1.795   4.841 -0.7927  0.7479 -0.3172
12663TIP3    H237931   7.763   1.919   4.928  0.5648  0.4441 -0.0280
12664TIP3   OH237932   0.620   4.622   5.056 -0.1383  0.3013 -0.4270
12664TIP3    H137933   0.706   4.664   5.061  0.2770 -0.6597  1.0036
12664TIP3    H237934   0.630   4.556   4.987  0.1400  0.4944 -0.5754
12665TIP3   OH237935   5.996   1.999   1.469  0.1922 -0.2912  0.1760
12665TIP3    H137936   6.001   2.029   1.560  0.2230  1.6499 -0.4211
12665TIP3    H237937   6.025   2.075   1.417  0.5061 -1.4695 -1.4400
12666TIP3   OH237938   5.552   4.931   6.677 -0.0735  0.3832  0.3385
12666TIP3    H137939   5.486   4.958   6.612 -1.5002 -0.2313  1.4683
12666TIP3    H237940   5.633   4.971   6.647 -0.7234  0.2640 -1.7224
12667TIP3   OH237941   2.156   3.628   3.436 -0.4784 -0.3437 -0.1556
12667TIP3    H137942   2.151   3.546   3.388 -1.0955 -0.7461  0.5687
12667TIP3    H237943   2.247   3.635   3.464 -0.2483 -0.3927 -0.8528
12668TIP3   OH237944   4.021   6.827   6.024 -0.5430 -0.0699 -0.6541
12668TIP3    H137945   3.928   6.845   6.023 -0.3300  1.2688  0.5478
12668TIP3    H237946   4.063   6.911   6.007  0.4649 -0.9293 -2.7361
12669TIP3   OH237947   1.537   2.530   0.353 -0.2410  0.3671  0.9457
12669TIP3    H137948   1.534   2.529   0.448 -2.0888  0.7342  0.9301
12669TIP3    H237949   1.500   2.446   0.327  3.6841 -1.4401  0.4850
12670TIP3   OH237950   5.071   1.020   6.166 -0.0523  0.0099 -0.6287
12670TIP3    H137951   5.012   1.092   6.191  2.7240  1.9307  0.8353
12670TIP3    H237952   5.105   1.046   6.080 -0.3109 -0.4402 -0.8722
12671TIP3   OH237953   2.601   2.572   2.150 -0.0628  0.1009 -0.3324
12671TIP3    H137954   2.655   2.628   2.095  1.8220 -1.8811 -0.6325
12671TIP3    H237955   2.593   2.490   2.101  0.3937 -1.1982  1.6333
12672TIP3   OH237956   6.924   7.038   6.283 -0.3751  0.2685 -0.8417
12672TIP3    H137957   6.844   7.060   6.331 -0.0398 -1.0263  0.3615
12672TIP3    H237958   6.894   6.987   6.208 -0.6464 -0.8196 -0.0116
12673TIP3   OH237959   3.689   7.454   3.036  0.6516 -0.3675 -0.3263
12673TIP3    H137960   3.711   7.519   3.102  2.0097 -0.4851 -0.6245
12673TIP3    H237961   3.633   7.500   2.974  0.0411 -0.0297  0.4674
12674TIP3   OH237962   0.252   7.333   0.944 -0.5514 -0.0044  0.6357
12674TIP3    H137963   0.334   7.333   0.896 -0.6424  0.9789  0.4624
12674TIP3    H237964   0.185   7.315   0.877 -0.5668  0.2070  0.5924
12675TIP3   OH237965   7.177   6.309   0.321  0.2324  0.1352  0.4079
12675TIP3    H137966   7.126   6.230   0.305  0.5926  0.0191 -0.2164
12675TIP3    H237967   7.116   6.369   0.365 -0.0816 -0.4301  0.7514
12676TIP3   OH237968   7.088   5.248   1.474  0.8637  0.7303  0.1496
12676TIP3    H137969   7.049   5.297   1.402  2.4911  1.5526 -0.2017
12676TIP3    H237970   7.098   5.159   1.440 -1.0854  0.3574  0.4192
12677TIP3   OH237971   2.797   4.608   2.667 -0.0991 -0.4472 -0.6813
12677TIP3    H137972   2.782   4.563   2.750 -1.3065  0.7394 -0.2245
12677TIP3    H237973   2.760   4.549   2.601  1.0121 -1.4693 -0.4241
12678TIP3   OH237974   0.696   1.339   2.933  0.1522  0.2867 -0.3616
12678TIP3    H137975   0.634   1.315   2.864 -2.3094  0.1259  1.7616
12678TIP3    H237976   0.710   1.258   2.983 -0.3158  0.9912  0.9516
12679TIP3   OH237977   5.469   5.849   3.453  0.5346 -0.3327  0.4198
12679TIP3    H137978   5.452   5.857   3.547 -0.9792  2.2780 -0.0013
12679TIP3    H237979   5.401   5.789   3.422 -0.9895  1.2433  0.5596
12680TIP3   OH237980   0.637   5.974   1.234 -0.1205 -0.0312  0.3716
12680TIP3    H137981   0.726   6.003   1.210 -0.3714  0.8694  0.4807
12680TIP3    H237982   0.591   6.055   1.256 -1.1741 -0.4162 -0.3214
12681TIP3   OH237983   7.175   3.359   0.859 -0.1848  0.1281 -0.2499
12681TIP3    H137984   7.146   3.268   0.863 -0.2517  0.1452 -0.3416
12681TIP3    H237985   7.224   3.365   0.778 -0.7593  0.3420 -0.5872
12682TIP3   OH237986   6.180   4.337   0.594 -0.0930 -0.1959 -0.2580
12682TIP3    H137987   6.158   4.254   0.636 -1.1081  0.6109  0.8816
12682TIP3    H237988   6.169   4.402   0.663 -1.9319  1.2165 -1.7727
12683TIP3   OH237989   7.908   4.107   0.519 -0.2128 -0.4376  0.2450
12683TIP3    H137990   7.901   4.030   0.576  1.9284 -0.4759  0.5238
12683TIP3    H237991   8.002   4.121   0.510 -0.5514  0.9460 -1.4619
12684TIP3   OH237992   4.700   2.483   3.864 -0.1087  0.2959  0.2070
12684TIP3    H137993   4.739   2.562   3.826  0.4740 -1.3248 -2.9334
12684TIP3    H237994   4.649   2.444   3.793 -0.1687 -2.2883  1.5286
12685TIP3   OH237995   1.726   5.227   5.625  0.2429  0.2855 -0.7274
12685TIP3    H137996   1.756   5.138   5.643 -0.0128  0.1610 -0.9106
12685TIP3    H237997   1.796   5.283   5.657  0.4906  0.0104 -0.7890
12686TIP3   OH237998   2.461   3.499   3.443  0.1246  0.2149 -0.2545
12686TIP3    H137999   2.499   3.586   3.438 -0.3981  0.5093  0.6734
12686TIP3    H238000   2.409   3.491   3.363 -0.1038  0.8941 -0.1825
12687TIP3   OH238001   2.657   4.468   1.816 -0.5350  0.4245 -0.1325
12687TIP3    H138002   2.722   4.508   1.875  0.9967  0.6840 -1.8965
12687TIP3    H238003   2.599   4.540   1.793 -0.3767  0.6179  0.0605
12688TIP3   OH238004   6.130   6.036   0.035 -0.0507  0.0543  0.4582
12688TIP3    H138005   6.164   5.972   0.098  1.0454  1.8017  1.7257
12688TIP3    H238006   6.199   6.044  -0.031  0.8364  1.5379  1.5194
12689TIP3   OH238007   6.170   7.282   0.196  0.4732 -0.7913  0.8627
12689TIP3    H138008   6.143   7.212   0.136 -1.8744  1.3933 -0.8401
12689TIP3    H238009   6.214   7.346   0.139 -0.9531  0.8966  1.5587
12690TIP3   OH238010   2.831   2.399   0.224  0.3468 -0.0127  0.2979
12690TIP3    H138011   2.775   2.401   0.302 -0.3856 -2.2174 -0.1043
12690TIP3    H238012   2.909   2.447   0.250 -0.5480  0.7013  1.8334
12691TIP3   OH238013   7.894   5.659   3.678  0.1587  0.1364  0.5564
12691TIP3    H138014   7.929   5.607   3.750 -0.7100 -0.8780  0.2841
12691TIP3    H238015   7.969   5.707   3.643  1.6905 -3.0839 -0.9811
12692TIP3   OH238016   0.998   1.787   3.767  0.0261 -0.4323  0.4929
12692TIP3    H138017   1.032   1.753   3.849  2.0252 -1.1135 -0.5611
12692TIP3    H238018   0.927   1.846   3.793  0.3115 -0.9757  2.6582
12693TIP3   OH238019   3.360   3.293   0.669  0.4183 -0.2458 -0.1319
12693TIP3    H138020   3.384   3.302   0.577  1.1272 -0.1317  0.0566
12693TIP3    H238021   3.393   3.207   0.695  1.2367  0.1732  0.2969
12694TIP3   OH238022   3.407   3.086   6.039  0.7947  0.1400  0.1732
12694TIP3    H138023   3.326   3.133   6.059 -0.5021 -2.2476  0.9967
12694TIP3    H238024   3.476   3.152   6.045 -0.8635  1.8538  1.5334
12695TIP3   OH238025   4.326   3.605   1.426 -0.0725 -0.1444  0.4526
12695TIP3    H138026   4.249   3.628   1.375  1.1998  2.0356 -0.5960
12695TIP3    H238027   4.386   3.565   1.363  0.2527 -0.4493  0.9473
12696TIP3   OH238028   3.747   3.294   2.790 -0.2612  0.1599 -0.3421
12696TIP3    H138029   3.737   3.372   2.844  1.6324  0.0752  0.1912
12696TIP3    H238030   3.777   3.326   2.705  1.1441 -0.0100  0.0757
12697TIP3   OH238031   5.190   7.473   5.361 -0.1196  0.3460 -0.2967
12697TIP3    H138032   5.136   7.451   5.437 -0.0942  1.3488  0.0202
12697TIP3    H238033   5.221   7.388   5.329 -1.4393 -0.2098 -0.1749
12698TIP3   OH238034   5.209   2.198   4.010  0.0488  0.5259  0.5636
12698TIP3    H138035   5.271   2.130   4.036  0.7159  0.5721 -0.7830
12698TIP3    H238036   5.126   2.151   3.999  0.4015 -0.0065  0.0772
12699TIP3   OH238037   5.536   1.964   5.173  0.4736 -0.2016 -0.3880
12699TIP3    H138038   5.535   2.031   5.242 -1.1783 -0.5248 -0.0585
12699TIP3    H238039   5.576   1.888   5.214  0.2094 -0.1492 -0.0317
12700TIP3   OH238040   2.771   1.095   1.873 -0.2110 -0.3498 -0.1154
12700TIP3    H138041   2.713   1.143   1.815 -0.0555  0.2838  0.2415
12700TIP3    H238042   2.854   1.141   1.869  0.2153 -1.1266 -0.4603
12701TIP3   OH238043   6.477   0.246   3.021 -0.0503 -0.1141  0.5359
12701TIP3    H138044   6.407   0.275   2.962 -0.1730 -0.2520  0.6147
12701TIP3    H238045   6.453   0.284   3.106  2.1602  3.5592 -0.2223
12702TIP3   OH238046   5.764   5.373   1.219 -0.5810 -0.0813 -0.2270
12702TIP3    H138047   5.857   5.396   1.210 -0.7705  0.4741 -0.9171
12702TIP3    H238048   5.758   5.327   1.302  0.1673  0.6606  0.2551
12703TIP3   OH238049   4.797   6.063   5.294 -0.3374  0.2293 -0.4489
12703TIP3    H138050   4.785   6.157   5.311 -0.7322  0.4571 -1.8578
12703TIP3    H238051   4.729   6.021   5.346  0.2888  0.6522  0.7555
12704TIP3   OH238052   3.770   3.423   4.461 -0.0582  0.0995 -0.6175
12704TIP3    H138053   3.840   3.401   4.523 -0.1414  0.9440 -0.2073
12704TIP3    H238054   3.698   3.366   4.484  1.1706 -2.3787 -2.4425
12705TIP3   OH238055   4.257   6.877   4.302  0.8909  0.0642 -0.4764
12705TIP3    H138056   4.337   6.837   4.335  0.7263 -1.0230 -1.3009
12705TIP3    H238057   4.188   6.816   4.329 -0.1671  2.5041  2.9721
12706TIP3   OH238058   0.031   4.177   4.195  0.5452 -0.0348  0.2665
12706TIP3    H138059  -0.020   4.203   4.271  1.3891 -0.1471  0.8819
12706TIP3    H238060   0.106   4.235   4.195 -0.3765  1.2606 -1.5989
12707TIP3   OH238061   1.575   2.750   2.241  0.0010 -0.0884 -0.0453
12707TIP3    H138062   1.498   2.806   2.252  1.9486  3.0345 -0.8525
12707TIP3    H238063   1.554   2.695   2.166 -1.3805  0.8573 -0.3973
12708TIP3   OH238064   0.551   0.293   6.819 -0.2634 -0.4317  0.7737
12708TIP3    H138065   0.511   0.206   6.811 -0.5416 -0.5268  2.7301
12708TIP3    H238066   0.489   0.343   6.873  0.0023  0.9358 -0.1317
12709TIP3   OH238067   5.778   5.571   1.517 -0.2409 -0.3518  0.3885
12709TIP3    H138068   5.763   5.655   1.475  0.2563 -0.5192 -0.1311
12709TIP3    H238069   5.829   5.592   1.595  0.7513 -0.2715 -0.2709
12710TIP3   OH238070   6.997   3.552   0.079 -0.4205 -0.0854  0.0821
12710TIP3    H138071   6.919   3.497   0.076 -0.9147  0.5045  1.3047
12710TIP3    H238072   7.069   3.495   0.052 -1.3762 -0.4035 -1.9240
12711TIP3   OH238073   2.547   2.629   3.760  0.8194  0.0131  0.0696
12711TIP3    H138074   2.523   2.652   3.671  2.5069  2.5621  0.1647
12711TIP3    H238075   2.464   2.614   3.805 -0.0588 -1.1644 -1.8356
12712TIP3   OH238076   5.984   0.316   5.325 -0.5785  0.4841  0.2560
12712TIP3    H138077   5.945   0.349   5.244 -0.3403 -2.2433 -1.0770
12712TIP3    H238078   5.910   0.297   5.382 -1.0226 -1.0604 -0.7886
12713TIP3   OH238079   0.512   3.441   3.021  0.6288 -0.4839 -0.4336
12713TIP3    H138080   0.429   3.486   3.006  1.0804 -0.3805 -3.1764
12713TIP3    H238081   0.548   3.483   3.099 -1.9610 -0.7349  1.0071
12714TIP3   OH238082   0.352   7.665   0.106 -0.5295  0.1985  0.3131
12714TIP3    H138083   0.290   7.701   0.042  0.2161  0.6035 -0.1881
12714TIP3    H238084   0.338   7.717   0.185  0.8422  1.9422 -0.5290
12715TIP3   OH238085   5.111   2.856   2.586 -0.6880 -0.3330 -0.0122
12715TIP3    H138086   5.088   2.935   2.634 -0.8105  0.2707 -1.0439
12715TIP3    H238087   5.144   2.796   2.653 -1.3743  0.2819  0.8963
12716TIP3   OH238088   0.994   7.471   4.203 -0.1973  0.2581  0.1765
12716TIP3    H138089   1.089   7.460   4.195 -0.1583  0.7371 -0.0426
12716TIP3    H238090   0.972   7.423   4.283  0.2252  0.1166  0.2133
12717TIP3   OH238091   1.717   2.337   0.637  0.0047  0.4119  0.2473
12717TIP3    H138092   1.781   2.405   0.613  0.7369 -0.6224 -0.8522
12717TIP3    H238093   1.632   2.378   0.622  0.4274  1.3534  0.3616
12718TIP3   OH238094   8.204   0.873   3.610 -0.3052  0.0304 -0.1951
12718TIP3    H138095   8.261   0.907   3.679  0.6540  0.2187 -1.0434
12718TIP3    H238096   8.217   0.779   3.613  0.0984  0.0760 -0.4135
12719TIP3   OH238097   6.966   7.011   3.282 -0.3276  0.3382  0.0878
12719TIP3    H138098   6.980   7.060   3.201  0.3176  1.9057  1.1136
12719TIP3    H238099   6.975   7.076   3.351  1.7702 -1.4275  1.5877
12720TIP3   OH238100   3.574   3.091   2.852 -0.2056 -0.3868  0.1174
12720TIP3    H138101   3.638   3.162   2.845 -0.1639 -0.3397  0.8530
12720TIP3    H238102   3.585   3.040   2.772  0.9163 -0.5134  0.3351
12721TIP3   OH238103   3.525   7.014   5.817 -0.0628 -0.1259  0.0549
12721TIP3    H138104   3.447   7.040   5.866  0.1757  2.3371 -0.7140
12721TIP3    H238105   3.499   7.021   5.725  0.8314 -0.1053 -0.2034
12722TIP3   OH238106   7.994   2.573   2.162 -0.1557 -0.0339  0.1430
12722TIP3    H138107   7.931   2.521   2.211  0.4842 -2.8465 -1.7875
12722TIP3    H238108   7.943   2.645   2.125 -1.2581  0.3116  2.1892
12723TIP3   OH238109   3.987   7.883   2.738 -0.0776 -0.1957 -0.2621
12723TIP3    H138110   3.978   7.838   2.654 -2.7534 -0.5247  0.1348
12723TIP3    H238111   3.999   7.813   2.802 -0.1282 -0.0633 -0.1086
12724TIP3   OH238112   7.331   0.316   1.479  0.9660  0.7864  0.4794
12724TIP3    H138113   7.425   0.301   1.472  0.7056 -1.4417  0.9600
12724TIP3    H238114   7.293   0.228   1.479 -1.0444  1.6045  1.2913
12725TIP3   OH238115   2.308   4.905   1.859  0.1461  0.2870 -0.3146
12725TIP3    H138116   2.351   4.973   1.910  0.0453  0.1757 -0.0782
12725TIP3    H238117   2.364   4.893   1.783  0.0735  0.7532 -0.4441
12726TIP3   OH238118   4.591   7.833   1.262 -0.1305 -0.2329 -0.2086
12726TIP3    H138119   4.586   7.766   1.194  0.3080  0.2272 -0.7001
12726TIP3    H238120   4.676   7.818   1.304  0.4847  0.7136 -1.0694
12727TIP3   OH238121   7.242   5.001   3.709 -0.3030  0.0787 -0.1055
12727TIP3    H138122   7.313   4.949   3.749  0.3681  0.4564 -0.7875
12727TIP3    H238123   7.164   4.976   3.758 -0.0984 -1.9765 -0.7536
12728TIP3   OH238124   3.922   7.320   3.341  0.4385  0.2614  0.1981
12728TIP3    H138125   3.845   7.269   3.317  0.3652  0.8739 -0.9119
12728TIP3    H238126   3.933   7.304   3.435  0.1734 -1.4537 -0.0313
12729TIP3   OH238127   2.359   0.350   0.150  0.5978 -0.7531 -0.7412
12729TIP3    H138128   2.407   0.316   0.225 -0.0971 -1.2812 -0.5203
12729TIP3    H238129   2.404   0.431   0.128  1.1399 -0.8616 -0.0890
12730TIP3   OH238130   5.605   0.486   3.379 -0.1022 -0.3456  0.1345
12730TIP3    H138131   5.630   0.531   3.459 -1.9649 -0.4691  0.8318
12730TIP3    H238132   5.625   0.548   3.309  0.0481  0.4007  0.8315
12731TIP3   OH238133   3.711   3.724   0.612 -0.2591  0.6835 -0.2232
12731TIP3    H138134   3.784   3.781   0.586  0.4844 -0.0802  0.1695
12731TIP3    H238135   3.676   3.692   0.529  1.1226 -0.5083 -0.3833
12732TIP3   OH238136   5.560   5.283   2.815 -0.2102  0.0574  0.3726
12732TIP3    H138137   5.592   5.350   2.876  1.4786 -0.8409  0.5352
12732TIP3    H238138   5.475   5.316   2.785  0.1110  1.7631  1.2273
12733TIP3   OH238139   6.574   6.929   0.443 -0.0165 -0.0373  0.4557
12733TIP3    H138140   6.667   6.952   0.432  0.0849  0.5720  2.2746
12733TIP3    H238141   6.576   6.843   0.485 -0.3351 -0.9458 -1.3094
12734TIP3   OH238142   8.401   3.235   5.007 -0.4482 -0.8461 -0.1109
12734TIP3    H138143   8.394   3.226   4.912 -1.0146 -0.1925 -0.1413
12734TIP3    H238144   8.320   3.280   5.032  0.6526  0.9834  0.4058
12735TIP3   OH238145   1.576   4.877   6.051  0.8015 -0.3939  0.5116
12735TIP3    H138146   1.576   4.959   6.102 -1.7379  0.4045 -0.6117
12735TIP3    H238147   1.495   4.833   6.078 -0.6366  0.0339 -2.6381
12736TIP3   OH238148   8.375   3.131   0.014  0.0622 -0.0268 -0.4225
12736TIP3    H138149   8.352   3.146   0.106 -0.3038 -1.2283 -0.2970
12736TIP3    H238150   8.389   3.218  -0.022 -1.2472  0.5562  0.4078
12737TIP3   OH238151   2.851   2.387   2.098  0.3710  0.1044  0.0198
12737TIP3    H138152   2.898   2.439   2.034  0.0351 -0.1024 -0.4041
12737TIP3    H238153   2.763   2.378   2.061  0.2211 -0.1511  0.4314
12738TIP3   OH238154   6.871   6.863   3.553  0.2632 -0.3935  0.4400
12738TIP3    H138155   6.791   6.879   3.603 -0.3066 -1.8907  0.0645
12738TIP3    H238156   6.881   6.942   3.499 -0.5634  0.1166  1.0067
12739TIP3   OH238157   4.432   5.061   6.581 -0.7727  0.2449 -0.2638
12739TIP3    H138158   4.504   5.037   6.523 -0.8129 -0.4819 -0.0294
12739TIP3    H238159   4.392   5.138   6.541  0.5163  1.0317 -0.0675
12740TIP3   OH238160   0.285   2.791   2.789  0.0626 -0.2869 -0.1316
12740TIP3    H138161   0.251   2.880   2.784  0.4369 -0.0795  0.7638
12740TIP3    H238162   0.214   2.736   2.758 -0.8384  0.1961  1.0090
12741TIP3   OH238163   0.251   5.093   2.703 -0.4999  0.0621 -0.6504
12741TIP3    H138164   0.183   5.156   2.680  0.3714  0.4516 -2.2592
12741TIP3    H238165   0.333   5.142   2.698  0.0094 -0.6476  0.2920
12742TIP3   OH238166   2.108   6.145   0.700  0.1737  0.0585  0.6501
12742TIP3    H138167   2.159   6.226   0.702  1.0628 -0.4927  0.8519
12742TIP3    H238168   2.122   6.105   0.785 -0.3040 -0.2914  0.5695
12743TIP3   OH238169   2.081   0.609   3.220 -0.2922  0.0057  0.0024
12743TIP3    H138170   2.063   0.585   3.129  1.2886  0.6208 -0.5039
12743TIP3    H238171   2.053   0.700   3.226  0.3171  0.2042 -0.0986
12744TIP3   OH238172   4.307   0.727   6.346 -0.7663  0.7124  0.0044
12744TIP3    H138173   4.287   0.681   6.428 -2.3888  0.1392 -0.6764
12744TIP3    H238174   4.385   0.779   6.366 -0.1338 -0.7152  1.4129
12745TIP3   OH238175   8.045   3.844   3.459 -0.1752 -0.1809 -0.2475
12745TIP3    H138176   8.129   3.890   3.457  0.0225 -0.4997 -2.9999
12745TIP3    H238177   7.992   3.893   3.521  1.6528  0.7452  0.6482
12746TIP3   OH238178   7.992   3.535   6.668 -0.3735 -0.0019 -0.3593
12746TIP3    H138179   7.948   3.579   6.596  1.3969  1.6349 -0.5140
12746TIP3    H238180   8.083   3.563   6.662 -0.1383  0.1531  2.4534
12747TIP3   OH238181   6.344   7.437   0.827 -0.1092 -0.2753 -0.3531
12747TIP3    H138182   6.258   7.396   0.819 -0.3728 -0.1587  1.3642
12747TIP3    H238183   6.389   7.385   0.893  0.4637  0.7125  0.0620
12748TIP3   OH238184   5.429   0.377   4.674  0.0909 -0.2161 -0.3209
12748TIP3    H138185   5.400   0.329   4.751 -0.9548  1.7969  0.6278
12748TIP3    H238186   5.490   0.443   4.709 -0.0996  0.4746 -1.2586
12749TIP3   OH238187   2.023   7.617   6.469  0.3354  0.0811 -0.4996
12749TIP3    H138188   1.961   7.685   6.494  0.7306 -0.0357  0.9105
12749TIP3    H238189   2.030   7.562   6.547  4.0016  1.4631  0.3836
12750TIP3   OH238190   5.921   7.537   1.659 -0.7043 -0.1649 -0.1278
12750TIP3    H138191   6.012   7.567   1.655 -0.5204 -0.0022  3.0689
12750TIP3    H238192   5.873   7.612   1.696 -1.3453 -1.6038  2.1193
12751TIP3   OH238193   4.108   7.443   5.903  0.5448 -0.4564 -0.1830
12751TIP3    H138194   4.057   7.385   5.846  0.2465 -0.4111  0.0350
12751TIP3    H238195   4.048   7.514   5.925  0.3186 -0.9927  1.0070
12752TIP3   OH238196   4.788   4.310   3.293 -0.3066  0.1875 -0.2294
12752TIP3    H138197   4.827   4.298   3.207 -0.1597 -0.2985 -0.0987
12752TIP3    H238198   4.702   4.349   3.276 -0.4496 -0.2960 -0.6220
12753TIP3   OH238199   3.648   2.704   5.036 -0.6727 -0.0485 -0.2793
12753TIP3    H138200   3.587   2.733   5.104  0.4607  2.1019 -0.1046
12753TIP3    H238201   3.711   2.775   5.028  0.8693 -1.4822 -1.6287
12754TIP3   OH238202   7.356   2.854   0.322 -0.0242 -0.3693 -0.3864
12754TIP3    H138203   7.272   2.899   0.335  0.2872 -0.1515  1.0621
12754TIP3    H238204   7.399   2.859   0.407  0.9141 -1.6112 -0.7533
12755TIP3   OH238205   5.217   4.890   3.720 -0.3525 -0.5603 -0.2694
12755TIP3    H138206   5.146   4.862   3.663  0.8714 -1.4632 -1.4204
12755TIP3    H238207   5.199   4.982   3.738 -3.2687 -1.4025  1.7638
12756TIP3   OH238208   0.676   2.113   2.619 -0.9784  0.4398  0.0106
12756TIP3    H138209   0.703   2.123   2.711 -0.4694 -0.0836 -0.0730
12756TIP3    H238210   0.631   2.028   2.617  0.1567 -0.1768 -0.4671
12757TIP3   OH238211   4.846   3.491   4.371  0.2840  0.0845 -0.3322
12757TIP3    H138212   4.811   3.577   4.350 -1.0612  0.0275  1.4644
12757TIP3    H238213   4.861   3.450   4.286 -0.4762  1.5167 -1.2029
12758TIP3   OH238214   0.378   6.822   0.332  0.0285 -0.4559  0.3247
12758TIP3    H138215   0.399   6.839   0.240  0.2137 -1.0002  0.2675
12758TIP3    H238216   0.368   6.727   0.338 -0.2835 -0.3976  0.8045
12759TIP3   OH238217   5.715   1.753   4.783  0.0074  0.1719  0.4127
12759TIP3    H138218   5.631   1.781   4.820  0.1272 -0.3343  1.0930
12759TIP3    H238219   5.780   1.806   4.829  0.1363 -0.2547  0.7284
12760TIP3   OH238220   4.004   7.438   2.273 -0.0261 -0.0855 -0.1106
12760TIP3    H138221   3.910   7.453   2.282  0.0603  1.1217 -1.0049
12760TIP3    H238222   4.017   7.419   2.180  0.5380 -1.0023  0.1369
12761TIP3   OH238223   5.871   3.090   5.100 -0.2149 -0.1954  0.2265
12761TIP3    H138224   5.876   3.173   5.146  1.3006 -0.8697  1.3927
12761TIP3    H238225   5.936   3.034   5.144 -1.7550 -2.2660  0.0471
12762TIP3   OH238226   3.014   7.938   6.573  0.1349 -0.4950 -0.9815
12762TIP3    H138227   2.993   7.928   6.666  0.8933  0.3544 -0.7061
12762TIP3    H238228   3.092   7.882   6.560  1.3172  0.9923 -0.5947
12763TIP3   OH238229   0.884   4.966   4.512  0.6256 -0.5270 -0.2215
12763TIP3    H138230   0.870   5.039   4.452  0.1533 -0.1241  0.3779
12763TIP3    H238231   0.932   5.004   4.585 -1.0565 -0.4304  0.8782
12764TIP3   OH238232   6.554   2.589   1.866  0.2669 -0.4690 -0.0448
12764TIP3    H138233   6.482   2.562   1.923 -0.0107 -1.9498 -1.0311
12764TIP3    H238234   6.526   2.561   1.778  1.7869 -0.5672 -0.5197
12765TIP3   OH238235   1.649   3.834   6.546  0.1509 -0.9642  0.2590
12765TIP3    H138236   1.660   3.905   6.483  2.4815 -1.6370 -0.1972
12765TIP3    H238237   1.574   3.860   6.599  0.9640  1.8789  0.1746
12766TIP3   OH238238   2.604   7.387   3.239  0.0560 -0.1306  0.0441
12766TIP3    H138239   2.649   7.471   3.246  0.3044 -0.1283 -1.4068
12766TIP3    H238240   2.514   7.405   3.268 -0.1188  0.8433 -1.0394
12767TIP3   OH238241   5.570   4.960   2.757  0.3423  0.4083 -0.3142
12767TIP3    H138242   5.637   5.018   2.721 -0.6827  1.1580 -1.0571
12767TIP3    H238243   5.617   4.904   2.818  1.5086  1.4563 -0.2246
12768TIP3   OH238244   0.068   5.862   1.455  0.2581  0.3929 -0.1589
12768TIP3    H138245   0.123   5.907   1.518  0.9564  1.1300 -1.2522
12768TIP3    H238246   0.126   5.798   1.413  0.0663  0.5739 -0.7120
12769TIP3   OH238247   2.742   0.021   1.181  0.3210  0.1912 -0.8122
12769TIP3    H138248   2.769   0.101   1.226  0.6553 -0.8183  0.9113
12769TIP3    H238249   2.799   0.016   1.104  0.2183  1.6486 -1.0039
12770TIP3   OH238250   4.232   7.286   1.528 -0.4623 -0.1089 -0.3382
12770TIP3    H138251   4.298   7.341   1.571 -0.6475  0.5099 -0.8270
12770TIP3    H238252   4.174   7.348   1.484 -0.9926 -0.6773 -0.4568
12771TIP3   OH238253   5.155   6.322   6.849  0.0273  0.4510  0.0763
12771TIP3    H138254   5.248   6.311   6.871  0.1625  2.1500  0.5073
12771TIP3    H238255   5.155   6.328   6.753  0.2541 -0.3423  0.0190
12772TIP3   OH238256   4.306   1.498   5.461 -0.2405 -0.2864  0.0910
12772TIP3    H138257   4.255   1.458   5.531  0.3539 -1.2103  0.0121
12772TIP3    H238258   4.375   1.434   5.441  0.2670  0.4426 -0.5749
12773TIP3   OH238259   7.049   7.607   5.435  0.4537 -0.4187  0.1043
12773TIP3    H138260   7.112   7.563   5.492 -1.1936 -0.9092  1.6000
12773TIP3    H238261   6.969   7.555   5.441 -0.5022  0.8730 -0.7878
12774TIP3   OH238262   1.176   5.125   6.378  0.3402 -0.0832  0.9569
12774TIP3    H138263   1.114   5.057   6.351 -0.6871  0.8695  0.8235
12774TIP3    H238264   1.121   5.197   6.408  1.2722  1.8127 -1.5464
12775TIP3   OH238265   1.475   1.445   4.300  0.1066 -0.2219  0.1958
12775TIP3    H138266   1.516   1.532   4.311  0.2777 -0.3699  0.7433
12775TIP3    H238267   1.477   1.431   4.206  1.9009 -0.4819  0.2287
12776TIP3   OH238268   5.454   7.514   2.060  0.2969 -0.0542  0.6903
12776TIP3    H138269   5.457   7.609   2.058 -2.3297  0.1032  0.6993
12776TIP3    H238270   5.544   7.487   2.077  1.2172  2.3816  0.0666
12777TIP3   OH238271   0.690   3.888   3.498  0.3028 -0.6207  0.1578
12777TIP3    H138272   0.748   3.964   3.493 -0.9268  0.2865 -1.0722
12777TIP3    H238273   0.742   3.815   3.466  0.4488  0.4054 -2.1635
12778TIP3   OH238274   3.126   4.117   1.748 -0.1613  0.1898  0.0528
12778TIP3    H138275   3.098   4.193   1.697 -0.1738 -0.5742 -1.0969
12778TIP3    H238276   3.070   4.118   1.826 -2.0566 -0.1928 -1.2502
12779TIP3   OH238277   8.103   3.472   5.054 -0.8790 -0.0171  1.1444
12779TIP3    H138278   8.151   3.450   4.974 -0.9688  0.3186  0.9979
12779TIP3    H238279   8.063   3.389   5.082 -0.8423 -0.1353  0.8435
12780TIP3   OH238280   6.440  -0.005   2.380  0.1155  0.3525 -0.2015
12780TIP3    H138281   6.468   0.077   2.339  2.2212 -0.2508 -0.0956
12780TIP3    H238282   6.372  -0.039   2.321  1.4281  0.6356 -1.9717
12781TIP3   OH238283   6.569   3.942   0.513  0.0897  0.2388 -0.1196
12781TIP3    H138284   6.516   4.004   0.563 -1.8862 -0.0878 -1.6584
12781TIP3    H238285   6.535   3.856   0.538  0.4135 -0.0254 -0.5718
12782TIP3   OH238286   1.570   6.525   1.028 -0.0862  0.3783 -0.7304
12782TIP3    H138287   1.507   6.485   1.088 -0.4084  1.0252 -0.6334
12782TIP3    H238288   1.655   6.493   1.058 -0.3464 -0.3603 -0.7516
12783TIP3   OH238289   7.186   3.427   6.148  0.0414 -0.1895 -0.2513
12783TIP3    H138290   7.195   3.342   6.106  0.4258  0.3931 -1.4141
12783TIP3    H238291   7.271   3.469   6.135  0.7969 -0.6151  2.6885
12784TIP3   OH238292   2.550   5.651   4.137  0.1233 -0.0789  0.1852
12784TIP3    H138293   2.565   5.654   4.231 -1.3026 -1.1601  0.4700
12784TIP3    H238294   2.515   5.564   4.120  0.8075 -0.0834 -1.4277
12785TIP3   OH238295   0.430   1.312   5.565  0.1440  0.0786  0.1961
12785TIP3    H138296   0.464   1.227   5.538  0.3734 -0.4083  1.9543
12785TIP3    H238297   0.493   1.375   5.529 -0.3299 -0.4098 -1.6099
12786TIP3   OH238298   3.220   6.274   5.778  0.3082  0.0917  0.1152
12786TIP3    H138299   3.170   6.305   5.854  1.3910 -1.9114  1.7543
12786TIP3    H238300   3.310   6.270   5.809  1.1269  1.1788 -1.9764
12787TIP3   OH238301   2.156   6.340   4.042  0.8692  0.1024  0.3771
12787TIP3    H138302   2.165   6.268   4.104 -0.5422 -0.5891 -0.1567
12787TIP3    H238303   2.067   6.330   4.007  1.4985  0.6406 -1.5194
12788TIP3   OH238304   2.941   1.286   5.061  0.7487 -0.2760  0.0153
12788TIP3    H138305   2.971   1.222   5.126 -1.1648 -0.3328  0.9033
12788TIP3    H238306   3.020   1.335   5.037  1.8843 -1.6620  0.7869
12789TIP3   OH238307   0.941   4.891   5.545 -0.2211  0.0684  0.4514
12789TIP3    H138308   1.002   4.855   5.610  0.0165  0.8634  0.6734
12789TIP3    H238309   0.989   4.962   5.503 -0.3449 -0.4954 -0.6672
12790TIP3   OH238310   0.245   5.677   3.178 -0.1757 -0.0262  0.4766
12790TIP3    H138311   0.295   5.752   3.210  0.1604 -0.9144  2.1376
12790TIP3    H238312   0.310   5.608   3.166 -0.1239  0.4412 -3.0710
12791TIP3   OH238313   0.277   6.847   3.924  0.5459 -0.0274  0.1644
12791TIP3    H138314   0.226   6.836   3.844 -0.2286 -1.1818  0.7938
12791TIP3    H238315   0.367   6.860   3.894  0.5404 -2.0098 -0.8850
12792TIP3   OH238316   5.181   2.789   4.413  0.3370 -0.0510  0.1604
12792TIP3    H138317   5.104   2.748   4.374  0.7240 -0.5421 -0.1044
12792TIP3    H238318   5.220   2.839   4.342  0.0642  0.5016  0.3908
12793TIP3   OH238319   6.266   2.384   4.101  0.0993  0.0586  0.4806
12793TIP3    H138320   6.240   2.386   4.193  2.2889  2.5092  1.1390
12793TIP3    H238321   6.250   2.473   4.069 -0.4570 -0.6937 -1.5244
12794TIP3   OH238322   2.757   6.772   5.771 -0.4233 -0.1725  0.6485
12794TIP3    H138323   2.715   6.687   5.780  0.1844 -0.8726 -2.0381
12794TIP3    H238324   2.835   6.755   5.717  0.8358  1.7895  1.7121
12795TIP3   OH238325   3.172   7.008   4.425  0.1513  0.2355 -0.2309
12795TIP3    H138326   3.195   7.097   4.401 -1.1073  0.0687 -2.2828
12795TIP3    H238327   3.255   6.968   4.451  1.3391  1.0676 -2.4816
12796TIP3   OH238328   1.668   3.191   5.383  0.3030  0.1261 -0.4669
12796TIP3    H138329   1.751   3.211   5.340 -0.8234  1.7806 -2.0114
12796TIP3    H238330   1.690   3.189   5.477  2.3594 -1.1513 -0.9134
12797TIP3   OH238331   2.534   3.024   1.710 -0.4996  0.2923 -0.1553
12797TIP3    H138332   2.476   3.097   1.689 -1.0723 -0.8795 -3.1670
12797TIP3    H238333   2.484   2.970   1.771 -1.5266  0.6402 -0.6652
12798TIP3   OH238334   2.346   6.846   3.844 -0.3688 -0.3130 -0.0073
12798TIP3    H138335   2.262   6.822   3.805 -1.2501  0.5483  1.2790
12798TIP3    H238336   2.359   6.937   3.818  0.3691 -0.5564 -0.5146
12799TIP3   OH238337   0.781   4.600   6.595  0.4508  0.2215 -0.3896
12799TIP3    H138338   0.728   4.554   6.660  0.3750  0.6713 -0.1296
12799TIP3    H238339   0.806   4.532   6.532 -2.1835  0.3716 -1.7238
12800TIP3   OH238340   1.163   5.586   5.625  0.1319  0.3147 -0.3152
12800TIP3    H138341   1.121   5.645   5.688  0.6706  0.2904  0.0810
12800TIP3    H238342   1.093   5.527   5.596  0.2792 -1.0442  1.8563
12801TIP3   OH238343   4.494   2.048   0.841 -0.4456  0.1594 -0.4508
12801TIP3    H138344   4.531   2.012   0.921 -0.8839 -1.3391 -0.8963
12801TIP3    H238345   4.527   1.991   0.771 -0.3050  1.2606 -1.3267
12802TIP3   OH238346   0.459   5.512   3.082 -0.2899 -0.1296  0.4221
12802TIP3    H138347   0.526   5.495   3.149 -0.6637  0.1728  0.8773
12802TIP3    H238348   0.453   5.430   3.033  0.4470 -0.1467  0.3470
12803TIP3   OH238349   4.333   7.439   6.322  0.2314 -0.4073  0.2519
12803TIP3    H138350   4.274   7.413   6.393  0.2552  0.7810  0.7355
12803TIP3    H238351   4.421   7.426   6.358  0.2614  1.8232  1.1302
12804TIP3   OH238352   3.691   3.099   5.047  0.0567 -0.2050 -0.2064
12804TIP3    H138353   3.607   3.078   5.005  1.1343 -0.2796 -2.4634
12804TIP3    H238354   3.698   3.194   5.042 -0.5342 -0.0372  1.3982
12805TIP3   OH238355   1.879   7.822   6.823  0.6094 -0.0993 -0.4315
12805TIP3    H138356   1.820   7.897   6.828  1.5807  0.7378 -1.0663
12805TIP3    H238357   1.960   7.852   6.866  1.8111  0.0661 -2.6566
12806TIP3   OH238358   8.413   0.215   3.678 -0.2287 -0.0170 -0.1868
12806TIP3    H138359   8.318   0.204   3.674 -0.3578  1.1152 -0.6005
12806TIP3    H238360   8.448   0.127   3.660 -1.1831 -0.4989  0.2036
12807TIP3   OH238361   7.592   3.448   3.977  0.4425  0.4858  0.0838
12807TIP3    H138362   7.627   3.361   3.958  0.9437  0.9515 -1.2373
12807TIP3    H238363   7.616   3.464   4.068  0.3403 -0.7511  0.3487
12808TIP3   OH238364   5.275   7.087   6.584 -0.5480  0.4365 -0.1121
12808TIP3    H138365   5.339   7.057   6.518 -2.0320 -0.3194 -1.2760
12808TIP3    H238366   5.320   7.156   6.631  1.0633  0.0631 -1.0229
12809TIP3   OH238367   0.969   6.009   4.405  0.0359  0.7799 -0.0682
12809TIP3    H138368   1.045   6.034   4.352  0.0574  4.2173  1.3505
12809TIP3    H238369   0.938   6.091   4.443 -3.0843 -0.8161  1.1825
12810TIP3   OH238370   7.264   5.589   1.477  0.1534  0.0675 -0.1738
12810TIP3    H138371   7.240   5.496   1.478 -0.5668  0.2465 -0.4523
12810TIP3    H238372   7.343   5.592   1.422 -0.9347 -0.1282 -1.7997
12811TIP3   OH238373   2.479   2.783   4.324 -0.6792 -0.4213 -0.5725
12811TIP3    H138374   2.418   2.779   4.251 -2.1670  0.4784  0.5465
12811TIP3    H238375   2.433   2.835   4.390  0.6211 -1.1576  0.9790
12812TIP3   OH238376   4.996   7.456   4.828  0.2686  0.5589 -0.1212
12812TIP3    H138377   5.056   7.492   4.894  0.4770 -0.1934  0.1084
12812TIP3    H238378   4.994   7.363   4.847  0.2991  0.3419 -1.1655
12813TIP3   OH238379   2.372   7.497   1.198 -0.0095  0.4324 -0.2266
12813TIP3    H138380   2.467   7.506   1.202  0.1321 -1.1490  0.6422
12813TIP3    H238381   2.354   7.482   1.105  0.9583 -2.1461 -0.0954
12814TIP3   OH238382   5.110   1.073   1.228  0.0705 -0.2468 -0.2788
12814TIP3    H138383   5.039   1.137   1.225  0.2813 -0.0262 -0.6329
12814TIP3    H238384   5.177   1.110   1.171  0.9235  0.0984  0.9063
12815TIP3   OH238385   3.228   4.373   6.591 -0.0720  0.0269 -0.0644
12815TIP3    H138386   3.140   4.406   6.609 -0.1769 -0.1891 -0.1694
12815TIP3    H238387   3.214   4.294   6.539  0.1731 -0.1605  0.1453
12816TIP3   OH238388   4.442   5.883   6.764 -0.2988 -0.6467 -0.2880
12816TIP3    H138389   4.524   5.877   6.814 -0.8859 -0.5876  0.7067
12816TIP3    H238390   4.378   5.837   6.817 -1.3369  0.9214 -0.1140
12817TIP3   OH238391   5.678   7.167   6.620 -0.2250  0.2427  0.0270
12817TIP3    H138392   5.740   7.226   6.576  1.1838 -1.3919 -0.3204
12817TIP3    H238393   5.690   7.083   6.575 -1.2852 -0.6154  1.2772
12818TIP3   OH238394   4.803   4.910   2.377  0.0726 -0.1359 -0.5004
12818TIP3    H138395   4.820   4.816   2.384 -0.8548 -0.3558 -1.0373
12818TIP3    H238396   4.820   4.931   2.285 -0.1062  0.1414 -0.4700
12819TIP3   OH238397   5.890   1.657   2.700  0.1084  0.0865 -0.7737
12819TIP3    H138398   5.865   1.748   2.689  1.2299  0.3580 -1.1939
12819TIP3    H238399   5.969   1.659   2.754  0.1703 -0.6344 -0.8179
12820TIP3   OH238400   2.091   2.207   5.204 -0.4917 -0.4391 -0.0503
12820TIP3    H138401   2.117   2.149   5.132  2.5759  0.4879  0.1415
12820TIP3    H238402   2.058   2.147   5.272 -1.1465 -1.5509 -1.3041
12821TIP3   OH238403   4.011   1.675   1.800 -0.4565 -0.2785 -0.4033
12821TIP3    H138404   4.107   1.685   1.805 -0.6828  2.2559  0.8756
12821TIP3    H238405   3.993   1.667   1.707  0.8562  3.1353 -1.1213
12822TIP3   OH238406   1.013   0.810   5.768  0.1329  0.3866 -0.3579
12822TIP3    H138407   0.942   0.746   5.764  1.0403 -0.5901 -1.1509
12822TIP3    H238408   1.018   0.833   5.861 -0.5152 -0.3391 -0.1294
12823TIP3   OH238409   4.131   6.228   2.645  0.9186  0.4317 -0.0134
12823TIP3    H138410   4.168   6.310   2.677  0.5558  0.8024 -0.5160
12823TIP3    H238411   4.084   6.191   2.719  0.8486  0.8177  0.1339
12824TIP3   OH238412   2.177   5.242   4.176 -0.0602 -0.6871  0.6465
12824TIP3    H138413   2.222   5.198   4.104  0.7221 -0.6924  1.1280
12824TIP3    H238414   2.163   5.332   4.145  0.3044 -0.6809  0.4969
12825TIP3   OH238415   8.252   7.817   5.452  0.4528 -0.1554 -0.0172
12825TIP3    H138416   8.347   7.824   5.439  0.9860 -0.2464  2.9427
12825TIP3    H238417   8.216   7.802   5.365  3.2118 -0.6850 -1.1661
12826TIP3   OH238418   2.157   2.897   1.009  0.3813  0.8365  0.1165
12826TIP3    H138419   2.138   2.827   0.948  0.8778  0.8589 -0.0724
12826TIP3    H238420   2.220   2.953   0.963  0.0760  1.3419  0.3060
12827TIP3   OH238421   4.815   0.784   0.639  0.2530  0.8867 -0.4696
12827TIP3    H138422   4.766   0.744   0.711 -2.1875  2.7675 -0.9605
12827TIP3    H238423   4.840   0.710   0.583 -1.4100 -0.2279  0.1951
12828TIP3   OH238424   1.438   6.279   1.884 -0.4810  0.0057 -0.3324
12828TIP3    H138425   1.498   6.251   1.815 -0.9678  1.3102 -1.3195
12828TIP3    H238426   1.401   6.362   1.853 -2.2468 -0.3799  0.5730
12829TIP3   OH238427   6.914   0.820   2.152  0.3265  0.9490 -0.1768
12829TIP3    H138428   6.830   0.822   2.200  0.3346  0.9271 -0.1619
12829TIP3    H238429   6.980   0.821   2.221  0.3556 -1.9196 -0.0607
12830TIP3   OH238430   8.327   4.054   4.546  0.1863  0.1821  0.1526
12830TIP3    H138431   8.233   4.058   4.532  0.1038  0.7287  0.7887
12830TIP3    H238432   8.356   4.145   4.537  0.7838 -0.0854 -0.8293
12831TIP3   OH238433   4.189   5.725   5.628 -0.1673  0.3462  0.0084
12831TIP3    H138434   4.237   5.644   5.642 -0.5753  0.3959  1.9638
12831TIP3    H238435   4.242   5.792   5.671 -0.2443  1.0053 -0.8864
12832TIP3   OH238436   3.871   1.023   0.897 -0.1454 -0.9702  0.4198
12832TIP3    H138437   3.865   0.949   0.958 -0.6360 -0.5967  0.8358
12832TIP3    H238438   3.833   1.096   0.944 -1.8806 -0.9940 -0.8375
12833TIP3   OH238439   2.150   3.520   2.927  0.0376 -0.1357 -0.0603
12833TIP3    H138440   2.064   3.496   2.893 -0.6442  0.2014  1.3408
12833TIP3    H238441   2.150   3.489   3.018  0.8511  1.0983  0.3982
12834TIP3   OH238442   0.064   0.434   6.212  0.5681 -0.2455 -0.1283
12834TIP3    H138443   0.021   0.457   6.130  1.0189 -0.8036 -0.5256
12834TIP3    H238444   0.158   0.438   6.192  0.7466  1.2130  0.7869
12835TIP3   OH238445   5.417   2.259   4.347 -0.5331  0.1713 -0.3956
12835TIP3    H138446   5.398   2.352   4.362  0.8330  0.4790 -0.4185
12835TIP3    H238447   5.420   2.221   4.435  1.0399  0.6175 -0.2322
12836TIP3   OH238448   7.828   0.835   5.275 -0.2535  0.8123 -0.3317
12836TIP3    H138449   7.827   0.744   5.245 -1.7307  0.8655 -0.5034
12836TIP3    H238450   7.915   0.845   5.315 -0.0093 -0.6262 -0.4211
12837TIP3   OH238451   7.513   4.249   0.144  0.0236 -0.8022 -0.3095
12837TIP3    H138452   7.553   4.313   0.203 -1.2107 -0.5298  0.2478
12837TIP3    H238453   7.478   4.181   0.202 -0.5713 -0.8920 -0.7697
12838TIP3   OH238454   1.193   2.517   0.889  0.3883  0.3009 -0.1084
12838TIP3    H138455   1.114   2.464   0.874 -0.4120  1.7950 -1.3970
12838TIP3    H238456   1.246   2.463   0.948 -1.5362 -0.7894  0.7312
12839TIP3   OH238457   3.955   7.243   5.273 -0.2921 -0.1788  0.7529
12839TIP3    H138458   3.932   7.312   5.211 -2.1785 -0.7713  0.6956
12839TIP3    H238459   3.945   7.283   5.359 -0.2077 -0.0561  0.7060
12840TIP3   OH238460   4.280   5.163   2.117  0.3388 -0.0470 -0.7911
12840TIP3    H138461   4.207   5.143   2.058 -0.9051 -1.4578  1.0932
12840TIP3    H238462   4.249   5.240   2.166  0.5563 -0.0483 -0.6544
12841TIP3   OH238463   6.446   5.299   3.296  0.0392  0.0702 -0.2870
12841TIP3    H138464   6.478   5.272   3.210  1.0307  0.8655 -0.1746
12841TIP3    H238465   6.408   5.386   3.281 -0.2580 -0.0099 -0.0168
12842TIP3   OH238466   5.237   4.903   5.952 -0.8091  0.4378 -0.0612
12842TIP3    H138467   5.219   4.944   5.868 -3.1498 -0.3788 -0.0274
12842TIP3    H238468   5.247   4.810   5.932  0.5316  0.4765  0.3491
12843TIP3   OH238469   5.937   5.769   1.055  0.0309 -0.6468 -0.4668
12843TIP3    H138470   5.942   5.681   1.092  1.3693 -1.0858 -1.6073
12843TIP3    H238471   5.843   5.789   1.052 -0.3794 -2.5385 -1.3166
12844TIP3   OH238472   6.689   1.059   1.188  0.0464  0.2912 -0.2032
12844TIP3    H138473   6.673   1.087   1.097 -0.3243  2.2284  0.4101
12844TIP3    H238474   6.761   0.996   1.181  0.2980  0.6949 -1.8007
12845TIP3   OH238475   4.319   4.718   0.423  0.2385 -0.9592 -0.4047
12845TIP3    H138476   4.390   4.694   0.364  0.8309  0.7755 -0.4725
12845TIP3    H238477   4.258   4.767   0.367  1.2365  1.4715  0.5190
12846TIP3   OH238478   2.230   1.889   6.616  0.9687  0.4074  0.7300
12846TIP3    H138479   2.190   1.971   6.589  2.8976  1.5316  1.0773
12846TIP3    H238480   2.158   1.837   6.652 -0.5570  1.2977 -0.9282
12847TIP3   OH238481   1.523   5.875   4.043 -0.2395 -0.5019  0.0176
12847TIP3    H138482   1.576   5.943   4.000 -1.0114 -0.9096 -1.6604
12847TIP3    H238483   1.487   5.918   4.120  2.1587 -0.0906  1.0149
12848TIP3   OH238484   4.746   7.096   3.558 -0.7111 -0.0994  0.1069
12848TIP3    H138485   4.760   7.111   3.652 -2.4775  1.9303  0.1202
12848TIP3    H238486   4.652   7.080   3.550 -0.4313 -1.2221 -1.2316
12849TIP3   OH238487   0.536   2.598   0.050 -0.2767 -0.3955 -0.9680
12849TIP3    H138488   0.579   2.535  -0.009 -0.0941 -0.9407 -0.2662
12849TIP3    H238489   0.487   2.543   0.112 -1.4634  0.2012 -1.3437
12850TIP3   OH238490   2.635   0.891   1.981  0.7001  0.8582  0.0656
12850TIP3    H138491   2.662   0.971   1.937  0.7749  1.0847  0.5189
12850TIP3    H238492   2.664   0.901   2.072  1.3071  0.0269 -0.0180
12851TIP3   OH238493   4.961   7.224   2.204 -0.0635 -0.0026  0.1259
12851TIP3    H138494   5.049   7.262   2.197 -0.1544  0.1976  0.0389
12851TIP3    H238495   4.935   7.205   2.114 -0.8320  1.6331 -0.0395
12852TIP3   OH238496   7.227   6.366   1.552 -0.3001  0.1713 -0.4977
12852TIP3    H138497   7.299   6.417   1.589  0.9421 -0.8775 -1.3717
12852TIP3    H238498   7.231   6.384   1.458 -1.7587  0.7720 -0.4731
12853TIP3   OH238499   7.975   0.842   6.426 -0.3426  0.2414  0.0514
12853TIP3    H138500   7.896   0.798   6.395 -0.6799  0.1134  1.0670
12853TIP3    H238501   7.949   0.883   6.508  0.9910 -0.9539  1.1276
12854TIP3   OH238502   4.027   7.568   3.510 -0.0156  0.6308  0.1145
12854TIP3    H138503   3.960   7.579   3.578 -1.3442  3.8424 -1.4937
12854TIP3    H238504   4.105   7.610   3.546 -0.3888  1.3595  0.0877
12855TIP3   OH238505   1.459   0.331   1.284 -0.1549  0.1399  0.4738
12855TIP3    H138506   1.485   0.337   1.192 -0.3841 -0.3968  0.3676
12855TIP3    H238507   1.536   0.359   1.333 -0.5878  2.1234  0.0925
12856TIP3   OH238508   2.713   3.438   3.643 -0.3962 -0.4542  0.1702
12856TIP3    H138509   2.665   3.429   3.561  0.2960 -1.0845 -0.1688
12856TIP3    H238510   2.744   3.528   3.642 -0.4537 -0.4360 -0.2219
12857TIP3   OH238511   1.098   5.382   3.931  0.0144 -1.0148 -0.1779
12857TIP3    H138512   1.068   5.456   3.984  1.1676 -0.7148  0.0719
12857TIP3    H238513   1.067   5.402   3.842 -1.9534 -1.5343  0.3238
12858TIP3   OH238514   2.859   3.706   0.337  0.0746  0.1116 -0.2267
12858TIP3    H138515   2.897   3.622   0.363  0.4633  0.1864 -0.5398
12858TIP3    H238516   2.786   3.719   0.398 -0.7597 -1.0369 -0.9420
12859TIP3   OH238517   5.330   7.620   2.423  0.2207  0.2125  0.0150
12859TIP3    H138518   5.295   7.694   2.473  0.6701  0.5053 -0.0984
12859TIP3    H238519   5.309   7.640   2.332 -1.4410 -0.7819  0.1460
12860TIP3   OH238520   3.426   4.144   1.727 -0.2863 -0.0539 -0.0406
12860TIP3    H138521   3.377   4.224   1.706 -1.9187 -1.1941 -0.7828
12860TIP3    H238522   3.514   4.160   1.694  0.3813  2.6292  2.6033
12861TIP3   OH238523   8.097   2.218   5.495  0.0147  0.1861 -0.1325
12861TIP3    H138524   8.174   2.187   5.542  0.3354  2.1781  0.7871
12861TIP3    H238525   8.117   2.204   5.403  0.7117 -0.9202  0.1670
12862TIP3   OH238526   7.626   2.647   1.187  0.1811  0.6969  0.0768
12862TIP3    H138527   7.573   2.632   1.265 -0.4674 -1.2075 -0.6628
12862TIP3    H238528   7.565   2.633   1.114  0.9493  1.6947 -0.7942
12863TIP3   OH238529   7.707   6.796   4.784 -0.6385  0.3196  0.0813
12863TIP3    H138530   7.785   6.850   4.793 -0.0365 -0.7275  1.6643
12863TIP3    H238531   7.636   6.849   4.819 -0.2567  0.4987  0.5921
12864TIP3   OH238532   0.547   4.631   4.602  0.1152 -0.3580 -0.1309
12864TIP3    H138533   0.550   4.550   4.551  1.3885  0.7503 -1.9247
12864TIP3    H238534   0.455   4.656   4.602  0.2422  0.6462 -3.7395
12865TIP3   OH238535   4.752   3.653   3.289 -0.5819 -0.2581  0.2633
12865TIP3    H138536   4.753   3.710   3.212 -1.0954 -2.0678 -1.1543
12865TIP3    H238537   4.659   3.639   3.308 -0.4834  0.9778  1.8971
12866TIP3   OH238538   6.629   4.830   4.183 -0.0732 -0.1824  0.0330
12866TIP3    H138539   6.678   4.772   4.241 -0.2856 -0.5718 -0.1742
12866TIP3    H238540   6.573   4.772   4.132  0.9761  0.0118 -1.4131
12867TIP3   OH238541   0.450   3.543   0.898 -0.1368 -0.1297 -0.1926
12867TIP3    H138542   0.447   3.592   0.815  0.4623 -0.9412 -0.7078
12867TIP3    H238543   0.527   3.577   0.943 -1.2585  1.3324  0.7060
12868TIP3   OH238544   0.498   2.029   2.320 -0.1187  0.4740 -0.2895
12868TIP3    H138545   0.524   2.111   2.279  0.4190  0.1190 -0.6726
12868TIP3    H238546   0.512   1.963   2.252  0.3238 -0.0559  0.3057
12869TIP3   OH238547   6.742   3.478   6.282  0.2059 -0.6344  0.2655
12869TIP3    H138548   6.739   3.572   6.301  1.9289 -0.4348 -0.2967
12869TIP3    H238549   6.658   3.445   6.313 -0.2952  1.0313  0.7940
12870TIP3   OH238550   3.491   6.571   3.236 -0.0186 -0.2708  0.6429
12870TIP3    H138551   3.431   6.641   3.263  1.0714  0.7856  0.4042
12870TIP3    H238552   3.500   6.515   3.313 -2.8548 -1.6446  0.1235
12871TIP3   OH238553   2.803   2.555   0.813 -0.2818  0.5632  0.7366
12871TIP3    H138554   2.838   2.472   0.847 -1.4441  0.0498  0.7271
12871TIP3    H238555   2.710   2.552   0.834 -0.6066  1.2512 -0.5265
12872TIP3   OH238556   2.797   5.835   0.607  0.2689 -0.5367  0.4467
12872TIP3    H138557   2.850   5.766   0.647 -1.5624 -1.6116  1.1421
12872TIP3    H238558   2.745   5.871   0.679  0.8674  1.3154  0.0127
12873TIP3   OH238559   3.309   0.530   1.864 -0.5480  0.0036 -0.1497
12873TIP3    H138560   3.342   0.615   1.835  0.7071 -0.0088  1.1898
12873TIP3    H238561   3.362   0.466   1.817  1.2848 -0.0143  1.7997
12874TIP3   OH238562   1.665   7.460   2.313 -0.0683 -0.3046  0.0300
12874TIP3    H138563   1.723   7.535   2.308  0.9317 -1.0289  0.3319
12874TIP3    H238564   1.577   7.496   2.299  0.5521  0.6242 -1.7956
12875TIP3   OH238565   0.937   3.898   1.330 -0.1565  0.2880 -0.3550
12875TIP3    H138566   0.897   3.924   1.413 -0.5603  1.2461 -0.8329
12875TIP3    H238567   1.019   3.947   1.326  0.5965 -0.8914  0.1486
12876TIP3   OH238568   4.172   4.063   6.129 -0.5988 -0.4530 -0.0492
12876TIP3    H138569   4.102   3.998   6.125 -0.7531 -0.2739 -0.3248
12876TIP3    H238570   4.234   4.029   6.194 -0.0804 -1.4628 -1.0413
12877TIP3   OH238571   5.146   2.806   0.434  0.4662  0.1906 -0.0616
12877TIP3    H138572   5.080   2.873   0.416 -1.3087 -1.0161  1.5449
12877TIP3    H238573   5.127   2.736   0.372 -0.5255 -0.6180  1.1132
12878TIP3   OH238574   0.562   4.629   0.138 -0.1039 -0.3242 -0.0788
12878TIP3    H138575   0.575   4.561   0.204 -0.5559  0.4473  0.8403
12878TIP3    H238576   0.649   4.668   0.126 -0.3876  1.0804  1.8480
12879TIP3   OH238577   4.270   0.848   5.959  0.1226  0.6541  0.2482
12879TIP3    H138578   4.228   0.819   6.040 -0.6169  1.4891  0.1763
12879TIP3    H238579   4.279   0.768   5.907  0.6427  0.1006  1.1609
12880TIP3   OH238580   2.450   1.246   6.180  0.0319 -0.6788  0.3289
12880TIP3    H138581   2.543   1.249   6.203 -0.0366  0.9096  0.5066
12880TIP3    H238582   2.408   1.303   6.244 -0.5517  1.5802 -1.9235
12881TIP3   OH238583   3.457   4.725   2.712 -0.3048 -0.0352 -0.0975
12881TIP3    H138584   3.461   4.703   2.805  1.8126  2.2607  0.4569
12881TIP3    H238585   3.377   4.682   2.680 -1.7445  0.1124  3.0178
12882TIP3   OH238586   2.840   4.643   1.908  0.4540 -0.6529  0.5654
12882TIP3    H138587   2.771   4.685   1.960  1.0176 -1.1096  1.7286
12882TIP3    H238588   2.911   4.629   1.971  2.7964  2.3505 -1.1232
12883TIP3   OH238589   5.657   4.037   5.398 -0.3547  0.3778  0.2010
12883TIP3    H138590   5.742   4.019   5.438 -0.2008  0.6842  0.0189
12883TIP3    H238591   5.669   4.017   5.305 -0.4418  0.5417  0.1529
12884TIP3   OH238592   5.080   5.574   2.551  0.1773 -0.0576 -0.3176
12884TIP3    H138593   5.098   5.638   2.619  2.8757 -0.6853 -0.3388
12884TIP3    H238594   5.012   5.517   2.589  0.7991  0.2864  1.4059
12885TIP3   OH238595   7.349   2.547   5.420 -0.2078 -0.5339  0.2392
12885TIP3    H138596   7.416   2.555   5.489  0.1211  0.6384 -0.2043
12885TIP3    H238597   7.270   2.584   5.459  0.0492  0.3880 -0.0932
12886TIP3   OH238598   1.172   0.918   3.968 -0.1815 -0.1752 -0.0944
12886TIP3    H138599   1.221   0.891   3.891 -0.3707 -2.5197  0.5241
12886TIP3    H238600   1.115   0.843   3.988 -1.3064  1.0075  1.3686
12887TIP3   OH238601   6.516   0.799   4.358  0.1537  0.2715  0.1842
12887TIP3    H138602   6.463   0.719   4.364  0.4678 -0.0605 -1.1610
12887TIP3    H238603   6.490   0.850   4.434 -0.9819 -0.5609  0.3861
12888TIP3   OH238604   7.400   2.969   6.329 -0.0589 -0.1064 -0.3752
12888TIP3    H138605   7.318   2.932   6.363 -0.6711 -1.0319 -2.6398
12888TIP3    H238606   7.375   3.056   6.297  0.2734  0.3166  0.4656
12889TIP3   OH238607   4.714   3.811   6.098  0.1730  0.2785 -0.2899
12889TIP3    H138608   4.747   3.877   6.037 -0.6590  0.9965  0.0334
12889TIP3    H238609   4.635   3.777   6.057 -0.5240  0.9317  0.4906
12890TIP3   OH238610   2.961   2.639   6.695 -0.3652  0.0146  0.0835
12890TIP3    H138611   2.897   2.634   6.624  0.3521  1.9191 -0.7638
12890TIP3    H238612   2.911   2.672   6.769 -0.2690  2.4960 -0.8510
12891TIP3   OH238613   0.591   0.785   3.778 -0.5388  0.7332  0.5791
12891TIP3    H138614   0.648   0.753   3.709  0.0842  1.9991  0.4645
12891TIP3    H238615   0.541   0.709   3.807 -0.4046  0.0737 -0.8711
12892TIP3   OH238616   3.338   4.246   5.579  0.1078 -0.0134  0.0178
12892TIP3    H138617   3.291   4.329   5.566 -1.1047 -0.9760 -2.0988
12892TIP3    H238618   3.373   4.224   5.493  1.2100 -1.2782  0.7485
12893TIP3   OH238619   4.021   7.215   1.135  0.3593  0.0972 -0.4595
12893TIP3    H138620   3.957   7.145   1.121  0.2692  0.1533 -0.3280
12893TIP3    H238621   4.007   7.275   1.062  1.6761 -0.9419 -1.6151
12894TIP3   OH238622   7.725   2.832   1.478  0.2086  0.1455 -0.1293
12894TIP3    H138623   7.785   2.810   1.408  0.2779 -1.1436  0.3067
12894TIP3    H238624   7.781   2.854   1.553  0.1366  1.5581 -0.4575
12895TIP3   OH238625   7.652   4.849   0.315  0.4457  0.0754 -0.5928
12895TIP3    H138626   7.722   4.862   0.251  0.1933 -1.3268 -1.1971
12895TIP3    H238627   7.670   4.912   0.384  1.9816  0.1102 -0.9996
12896TIP3   OH238628   0.448   2.356   0.204  0.4212  0.0323  0.3423
12896TIP3    H138629   0.435   2.323   0.293  1.2851 -0.2428  0.3742
12896TIP3    H238630   0.519   2.302   0.168  0.2059  0.2577 -0.4529
12897TIP3   OH238631   1.838   4.631   1.696  0.1000 -0.0668  0.2349
12897TIP3    H138632   1.899   4.704   1.700 -0.4269  0.3197  2.3192
12897TIP3    H238633   1.860   4.577   1.773 -1.0986 -0.8012  0.0873
12898TIP3   OH238634   5.614   4.947   4.034  0.0747 -0.4210 -0.3479
12898TIP3    H138635   5.702   4.913   4.048  0.4328 -0.4528 -2.4003
12898TIP3    H238636   5.597   4.932   3.941 -2.3296 -0.9648  0.1107
12899TIP3   OH238637   4.186   3.863   6.367 -0.1610 -0.0966 -0.0123
12899TIP3    H138638   4.140   3.796   6.317 -0.2433  0.9458 -1.3943
12899TIP3    H238639   4.201   3.824   6.453 -1.2827 -1.4129 -0.3974
12900TIP3   OH238640   1.352   6.916   6.860 -0.3131  0.6413 -0.1521
12900TIP3    H138641   1.435   6.916   6.814 -0.1700  0.5352  0.1006
12900TIP3    H238642   1.324   6.825   6.860 -0.6617  0.7490 -0.6486
12901TIP3   OH238643   7.358   4.206   2.134 -0.3570 -0.0276 -0.2085
12901TIP3    H138644   7.421   4.134   2.129  0.2761  0.5354 -0.5038
12901TIP3    H238645   7.279   4.166   2.169  0.5554 -0.4809  1.4302
12902TIP3   OH238646   5.092   0.261   6.441  0.7396 -0.8943 -0.1501
12902TIP3    H138647   5.058   0.350   6.450 -0.4766 -1.4723  1.9528
12902TIP3    H238648   5.018   0.205   6.467  1.2900 -2.5586 -1.9752
12903TIP3   OH238649   6.100   1.573   0.182  0.4314  0.3195 -0.3422
12903TIP3    H138650   6.124   1.501   0.241 -1.2511  1.5367  1.9880
12903TIP3    H238651   6.173   1.634   0.188  0.1468  0.5754  0.7870
12904TIP3   OH238652   8.393   5.458   4.606  0.8223  0.0809  0.5417
12904TIP3    H138653   8.382   5.378   4.554  1.7526  0.4035 -0.1713
12904TIP3    H238654   8.358   5.434   4.692  0.5058 -0.8945  0.1649
12905TIP3   OH238655   3.677   5.138   4.475  0.4594  0.6566 -0.2514
12905TIP3    H138656   3.650   5.105   4.561  0.5586  1.5658  0.1472
12905TIP3    H238657   3.704   5.229   4.492  0.1189  0.9749 -1.3130
12906TIP3   OH238658   3.811   5.114   4.251  0.4603  0.2497  0.9468
12906TIP3    H138659   3.768   5.103   4.336 -0.1859 -2.1442  0.3961
12906TIP3    H238660   3.902   5.089   4.266  0.3771 -0.0399  0.9677
12907TIP3   OH238661   3.817   3.142   2.126 -0.7792  0.3895 -0.3825
12907TIP3    H138662   3.855   3.221   2.088 -0.2900  0.1107 -0.4865
12907TIP3    H238663   3.726   3.165   2.145 -0.6974  0.9068 -0.6121
12908TIP3   OH238664   4.891   0.100   1.246  0.1519 -0.2236  0.6404
12908TIP3    H138665   4.817   0.092   1.185  0.8254 -0.3433 -0.1803
12908TIP3    H238666   4.933   0.015   1.244  1.5125  0.4399 -0.4839
12909TIP3   OH238667   1.851   4.068   4.123 -0.8146  0.5087 -0.7501
12909TIP3    H138668   1.938   4.051   4.087 -1.6276 -2.7480 -1.5051
12909TIP3    H238669   1.793   4.066   4.047 -1.8039  0.3327 -0.0069
12910TIP3   OH238670   0.358   1.941   3.393  0.3570  0.2072 -0.1336
12910TIP3    H138671   0.415   1.894   3.333  0.5751 -0.3119  0.4610
12910TIP3    H238672   0.271   1.904   3.378  0.5892 -0.7081  0.6036
12911TIP3   OH238673   7.331   5.384   1.120  0.2000  0.1170 -0.3320
12911TIP3    H138674   7.420   5.355   1.142 -0.4930 -1.3475  0.6507
12911TIP3    H238675   7.343   5.476   1.094  2.0532 -0.1616 -0.6382
12912TIP3   OH238676   5.358   3.306   4.539 -0.2099 -0.0656  0.2915
12912TIP3    H138677   5.292   3.340   4.599 -0.2131  1.6131 -0.6282
12912TIP3    H238678   5.437   3.356   4.560  0.7222 -1.7604  1.0938
12913TIP3   OH238679   7.951   0.074   4.186  0.1621 -0.4212  0.3748
12913TIP3    H138680   8.033   0.121   4.179  0.5674 -1.0190  1.0319
12913TIP3    H238681   7.956   0.028   4.270 -0.4248 -1.2346 -0.0205
12914TIP3   OH238682   6.520   0.488   4.850  0.3561  0.2149  0.2831
12914TIP3    H138683   6.547   0.443   4.770  1.0566 -1.2250  1.3013
12914TIP3    H238684   6.599   0.493   4.903 -0.3599  0.0815  1.3893
12915TIP3   OH238685   7.063   5.387   5.950  0.7351 -0.1866  0.3732
12915TIP3    H138686   7.119   5.465   5.951 -0.1844  0.4720  1.0091
12915TIP3    H238687   7.074   5.352   5.862 -0.2585  1.7018 -0.5460
12916TIP3   OH238688   7.785   4.617   2.346 -0.0431  0.2670  0.4000
12916TIP3    H138689   7.880   4.623   2.354 -0.0372 -0.9237  1.5133
12916TIP3    H238690   7.764   4.670   2.269  1.5621  0.1580 -0.1445
12917TIP3   OH238691   3.405   3.207   1.495  0.0743  0.4379  0.0401
12917TIP3    H138692   3.361   3.193   1.411 -0.6480 -0.4961  0.5601
12917TIP3    H238693   3.495   3.232   1.471  0.0845 -0.5445 -1.0095
12918TIP3   OH238694   3.826   4.313   6.721  0.0525  0.0434 -0.5139
12918TIP3    H138695   3.858   4.238   6.671 -1.8336 -1.3392  0.2621
12918TIP3    H238696   3.799   4.376   6.654  1.2682 -0.1115 -1.1737
12919TIP3   OH238697   7.007   4.552   0.224  0.6153  0.3822  0.0842
12919TIP3    H138698   6.993   4.639   0.261 -0.5335  0.5000 -0.5657
12919TIP3    H238699   7.080   4.564   0.163 -0.0851  1.1227 -0.6546
12920TIP3   OH238700   5.043   7.650   3.947 -0.3698 -0.2846  0.4144
12920TIP3    H138701   4.996   7.600   3.880  0.2356 -1.7406  1.0174
12920TIP3    H238702   5.125   7.675   3.905 -1.0492  1.0474 -0.1853
12921TIP3   OH238703   0.755   6.354   1.683  0.0003  0.2096 -0.7907
12921TIP3    H138704   0.704   6.370   1.763 -0.6613  4.2816 -1.8026
12921TIP3    H238705   0.700   6.294   1.632 -1.6135  0.8543  0.1047
12922TIP3   OH238706   3.772   7.126   5.890 -0.3511 -0.2491 -0.2531
12922TIP3    H138707   3.749   7.219   5.893  0.8082  0.0653  2.4455
12922TIP3    H238708   3.694   7.082   5.858 -2.2418  1.3545  1.8552
12923TIP3   OH238709   5.789   3.905   1.960  0.0196 -0.4822 -0.0457
12923TIP3    H138710   5.747   3.845   2.021  2.5519 -1.5623  0.7978
12923TIP3    H238711   5.860   3.944   2.011  1.8471 -0.9615 -2.0726
12924TIP3   OH238712   5.129   0.119   0.572 -0.0315  0.9241 -0.0578
12924TIP3    H138713   5.089   0.180   0.633  1.8126  2.3117 -0.1559
12924TIP3    H238714   5.110   0.156   0.485 -0.8399  0.1133 -0.2339
12925TIP3   OH238715   2.639   0.838   6.005  0.7453 -0.0123 -0.3798
12925TIP3    H138716   2.631   0.805   6.095  0.6317  2.0083  0.4111
12925TIP3    H238717   2.586   0.778   5.953  1.6745 -1.8677  0.6991
12926TIP3   OH238718   4.423   3.270   1.432 -0.0763  0.2973  0.0310
12926TIP3    H138719   4.392   3.183   1.407 -0.8185  0.2083  1.1864
12926TIP3    H238720   4.367   3.330   1.382  0.8498  0.1293 -1.2417
12927TIP3   OH238721   5.814   4.282   6.822 -0.4218 -0.3150  0.0439
12927TIP3    H138722   5.820   4.268   6.727 -0.3561 -1.3353  0.1965
12927TIP3    H238723   5.856   4.367   6.835 -0.3597 -0.1940 -0.8328
12928TIP3   OH238724   3.925   4.540   6.569  0.5285  0.3657 -0.4564
12928TIP3    H138725   3.932   4.633   6.549 -0.7673  0.3406 -1.2043
12928TIP3    H238726   3.847   4.511   6.521  0.4061 -0.9172  0.4402
12929TIP3   OH238727   6.056   1.517   3.510  0.0717 -0.0600 -0.4428
12929TIP3    H138728   5.973   1.542   3.552  0.0023 -0.0249 -0.5989
12929TIP3    H238729   6.033   1.508   3.417  0.5753  1.4882 -0.7390
12930TIP3   OH238730   4.678   7.532   4.335  0.3617  0.3358  0.6131
12930TIP3    H138731   4.743   7.579   4.388  1.0935  1.9762 -1.5837
12930TIP3    H238732   4.726   7.503   4.258 -0.6264 -2.1285  0.8471
12931TIP3   OH238733   5.011   3.419   3.827  0.5742 -0.5450 -0.2010
12931TIP3    H138734   5.041   3.336   3.864  1.7288  0.6230  1.6448
12931TIP3    H238735   5.024   3.483   3.897  3.5083  1.9753 -2.7393
12932TIP3   OH238736   4.428   0.731   1.953 -0.2574  0.2529  0.5889
12932TIP3    H138737   4.519   0.723   1.926 -0.3965  0.3690  0.0856
12932TIP3    H238738   4.415   0.825   1.965 -1.0746  0.5608 -2.0655
12933TIP3   OH238739   2.594   6.525   2.919  0.3292 -0.1451  0.1046
12933TIP3    H138740   2.519   6.581   2.897 -0.7335 -1.0260  1.3450
12933TIP3    H238741   2.600   6.463   2.846  0.9917  1.0122 -0.8686
12934TIP3   OH238742   4.678   0.591   5.065 -0.0620 -0.1083 -0.0852
12934TIP3    H138743   4.750   0.538   5.100 -0.3376 -0.0566  0.5879
12934TIP3    H238744   4.614   0.594   5.137 -1.1384 -0.8911 -0.9747
12935TIP3   OH238745   5.071   7.061   4.696  0.1760 -0.4502 -0.2480
12935TIP3    H138746   5.013   7.004   4.747  0.1037 -0.8855 -0.8108
12935TIP3    H238747   5.093   7.132   4.756  0.5287 -1.2369  0.5771
12936TIP3   OH238748   2.661   6.325   2.716 -0.4562  0.0449 -0.6089
12936TIP3    H138749   2.756   6.325   2.724 -0.5213 -0.2100  0.2783
12936TIP3    H238750   2.634   6.239   2.750 -1.0579  0.4375 -0.0806
12937TIP3   OH238751   7.847   6.054   5.452 -0.1724  0.4319 -0.1363
12937TIP3    H138752   7.776   5.989   5.459 -0.9994  1.2137 -0.9254
12937TIP3    H238753   7.893   6.030   5.371  0.2254  0.1703  0.1622
12938TIP3   OH238754   5.255   7.036   1.447 -0.3349 -0.3522 -0.4236
12938TIP3    H138755   5.320   7.008   1.383  0.4585  0.0323  0.1949
12938TIP3    H238756   5.270   6.980   1.523  0.0906  0.5312  0.1679
12939TIP3   OH238757   7.186   5.228   6.130 -0.1880  0.2189 -0.7505
12939TIP3    H138758   7.147   5.278   6.058  0.6952  0.8970 -0.7766
12939TIP3    H238759   7.248   5.169   6.086 -1.6397 -1.3633 -0.7776
12940TIP3   OH238760   3.049   6.675   6.004  0.0296  0.1669 -0.2347
12940TIP3    H138761   3.080   6.686   5.914 -0.7940  0.2416 -0.5137
12940TIP3    H238762   3.107   6.731   6.056  1.3609 -0.8753 -0.5295
12941TIP3   OH238763   3.689   6.165   0.066  0.2948  0.5927 -0.2196
12941TIP3    H138764   3.666   6.210  -0.015 -1.2223 -0.7442 -0.5705
12941TIP3    H238765   3.730   6.083   0.038  0.2562  0.3661  0.3661
12942TIP3   OH238766   0.570   1.626   4.387  0.0739  0.1399 -0.0997
12942TIP3    H138767   0.591   1.590   4.302 -1.1299 -2.3238  0.5651
12942TIP3    H238768   0.475   1.617   4.395  0.1928 -0.0385  1.6245
12943TIP3   OH238769   1.615   6.051   2.936 -0.1512 -0.2014 -0.0106
12943TIP3    H138770   1.679   6.033   3.005 -0.2771 -1.6092 -0.2309
12943TIP3    H238771   1.551   6.108   2.977  0.4318 -0.0168  0.6662
12944TIP3   OH238772   4.602   4.120   0.481 -0.7110  0.2703  0.2230
12944TIP3    H138773   4.554   4.127   0.563  1.9543 -1.4354  2.0932
12944TIP3    H238774   4.638   4.207   0.467 -0.3201  0.3302  1.4731
12945TIP3   OH238775   7.050   0.828   6.524  0.0148  0.4512 -0.0342
12945TIP3    H138776   7.081   0.744   6.557 -0.6739 -0.6725 -2.0486
12945TIP3    H238777   6.957   0.831   6.547  0.3116  1.2966  1.1649
12946TIP3   OH238778   4.638   5.100   1.639 -0.0635  0.2505  0.1199
12946TIP3    H138779   4.609   5.035   1.574  0.1803  0.0350  0.2228
12946TIP3    H238780   4.663   5.047   1.715  1.2975  0.3743 -0.2281
12947TIP3   OH238781   6.251   0.271   4.722 -0.3671 -0.1227  0.0956
12947TIP3    H138782   6.244   0.309   4.810 -0.6789  1.2254 -0.4799
12947TIP3    H238783   6.189   0.198   4.722 -1.4019  0.7259  0.5845
12948TIP3   OH238784   3.719   2.615   5.534  0.1521 -0.1181 -0.7294
12948TIP3    H138785   3.738   2.701   5.497 -1.1668 -0.1754 -1.6196
12948TIP3    H238786   3.675   2.568   5.462 -1.8098 -0.5058  0.6499
12949TIP3   OH238787   5.895   7.879   6.648 -0.4161  0.3157  0.1480
12949TIP3    H138788   5.970   7.892   6.706  0.4135  0.1009 -0.8448
12949TIP3    H238789   5.847   7.805   6.687 -2.1891  2.6900  2.8179
12950TIP3   OH238790   0.475   0.814   1.177 -0.0676 -0.1115  1.0192
12950TIP3    H138791   0.520   0.867   1.243  1.8368 -0.7380  0.2947
12950TIP3    H238792   0.516   0.840   1.094 -0.3846 -1.4046  0.4357
12951TIP3   OH238793   8.121   1.617   6.778  0.2929  0.4388  0.1646
12951TIP3    H138794   8.155   1.541   6.825 -0.4770 -0.4447 -0.6525
12951TIP3    H238795   8.195   1.648   6.726  0.4605 -0.1285  0.0523
12952TIP3   OH238796   0.056   6.750   5.349  0.1023  0.0243  0.0234
12952TIP3    H138797   0.033   6.717   5.436  0.0487 -2.0635 -0.7134
12952TIP3    H238798  -0.007   6.819   5.332  1.3774  1.9221  2.4288
12953TIP3   OH238799   7.727   4.523   5.480  0.7272  0.0112  0.6882
12953TIP3    H138800   7.751   4.431   5.475  0.3560 -0.1316  1.3807
12953TIP3    H238801   7.807   4.568   5.507  0.7476 -0.1909  0.9646
12954TIP3   OH238802   3.869   1.070   1.811  0.1229  0.1926  0.0920
12954TIP3    H138803   3.832   1.032   1.890  0.4601  0.1897  0.2525
12954TIP3    H238804   3.806   1.136   1.783  0.4727  0.9026  0.9294
12955TIP3   OH238805   2.008   5.370   2.116 -0.3808 -0.3863 -0.1153
12955TIP3    H138806   1.926   5.331   2.147  0.8646 -1.0542  2.5639
12955TIP3    H238807   2.062   5.295   2.091 -0.0664 -0.0158 -0.5603
12956TIP3   OH238808   7.489   6.485   0.387 -0.2295  0.0868 -0.3063
12956TIP3    H138809   7.462   6.537   0.311 -3.8225 -0.7222  0.2408
12956TIP3    H238810   7.409   6.474   0.438  1.7777 -0.5104  2.9816
12957TIP3   OH238811   6.088   7.028   5.371 -0.2851  0.1549 -0.5761
12957TIP3    H138812   6.056   7.118   5.362 -0.9212 -0.0031  0.0692
12957TIP3    H238813   6.012   6.978   5.400  0.0164 -0.6351 -1.1167
12958TIP3   OH238814   2.531   5.283   3.245 -0.3782 -0.2926  0.2966
12958TIP3    H138815   2.436   5.273   3.251 -0.8019  1.4820 -1.8530
12958TIP3    H238816   2.551   5.266   3.153  1.4271 -0.7101  0.7285
12959TIP3   OH238817   3.187   1.816   1.473  0.0062 -0.5632  0.0221
12959TIP3    H138818   3.280   1.809   1.495 -0.2603 -0.0662  1.3728
12959TIP3    H238819   3.185   1.880   1.401  0.6315  0.2114  0.6730
12960TIP3   OH238820   8.188   4.814   3.896  0.2556  0.9108 -0.1809
12960TIP3    H138821   8.188   4.723   3.925  0.7393  0.6992 -0.8179
12960TIP3    H238822   8.118   4.856   3.946 -0.9703 -0.1578 -0.9374
12961TIP3   OH238823   5.828   6.728   1.851 -0.2504 -0.1800 -0.3302
12961TIP3    H138824   5.893   6.708   1.918  0.2035  0.1602 -0.6616
12961TIP3    H238825   5.874   6.716   1.768 -0.2590  1.1376 -0.5610
12962TIP3   OH238826   0.997   4.931   6.421  0.3494  0.0561  0.4634
12962TIP3    H138827   0.943   4.942   6.500 -2.7541  1.3764 -1.6220
12962TIP3    H238828   0.971   4.845   6.387  2.4506 -0.9771  1.3380
12963TIP3   OH238829   3.325   5.984   0.140 -0.4073  0.3726 -0.0127
12963TIP3    H138830   3.287   5.910   0.188 -0.1149  0.2326  0.0061
12963TIP3    H238831   3.285   5.980   0.053  2.0919 -1.8810 -1.2045
12964TIP3   OH238832   1.979   2.134   2.841  0.2435  0.4856 -0.4945
12964TIP3    H138833   1.930   2.100   2.916  0.7875 -0.4152 -0.5312
12964TIP3    H238834   2.071   2.125   2.866  0.4679 -0.7356 -1.6293
12965TIP3   OH238835   7.885   1.293   5.778  0.2789  0.5059  0.1618
12965TIP3    H138836   7.896   1.386   5.796 -1.1363  0.7121  0.0955
12965TIP3    H238837   7.914   1.250   5.859  1.4909  0.9553 -0.0210
12966TIP3   OH238838   0.227   1.440   5.384 -0.2814 -0.0555 -0.3337
12966TIP3    H138839   0.275   1.391   5.451 -2.6895 -2.1085  0.0428
12966TIP3    H238840   0.289   1.506   5.353  2.0995 -1.3580  1.3649
12967TIP3   OH238841   1.465   0.954   6.550  0.0327  0.2302 -0.0105
12967TIP3    H138842   1.495   0.868   6.578 -0.8965 -0.3808 -0.8563
12967TIP3    H238843   1.370   0.950   6.556 -0.0445  1.0500 -0.4778
12968TIP3   OH238844   7.882   4.814   2.940  0.3803 -0.2863 -0.4690
12968TIP3    H138845   7.814   4.807   2.873  0.7029 -2.0075 -0.6427
12968TIP3    H238846   7.908   4.907   2.937 -3.7696  1.1947  1.4521
12969TIP3   OH238847   2.298   3.270   0.352 -0.1089  0.1146  0.3463
12969TIP3    H138848   2.304   3.354   0.398 -0.2375  2.0424 -2.8148
12969TIP3    H238849   2.215   3.274   0.305 -0.8832 -2.5540  1.3503
12970TIP3   OH238850   2.636   0.052   6.438  0.4061  0.8063 -0.5910
12970TIP3    H138851   2.695   0.055   6.363  1.3912  1.6515  0.1770
12970TIP3    H238852   2.684   0.097   6.508 -1.0720  1.3688  0.1186
12971TIP3   OH238853   1.442   3.532   1.009  0.2358  0.1941  0.3998
12971TIP3    H138854   1.489   3.463   1.056  0.3110 -0.4350 -0.5910
12971TIP3    H238855   1.461   3.516   0.917  1.6189  2.5180  0.2015
12972TIP3   OH238856   2.083   5.938   2.740  0.1704  0.3545  0.2653
12972TIP3    H138857   2.031   5.983   2.807 -0.7815 -1.2170  0.6257
12972TIP3    H238858   2.018   5.909   2.676  1.0343  1.5055 -1.1935
12973TIP3   OH238859   3.537   3.457   1.840 -0.2265  0.2369 -0.0652
12973TIP3    H138860   3.465   3.449   1.778  0.0177 -0.2831 -0.2905
12973TIP3    H238861   3.611   3.488   1.788 -0.6941  2.4334  0.4706
12974TIP3   OH238862   6.248   5.971   0.425  0.2143  0.6273  0.0503
12974TIP3    H138863   6.163   5.939   0.457  0.3215  0.4185  0.1321
12974TIP3    H238864   6.249   5.946   0.332 -0.1554  1.3590 -0.1514
12975TIP3   OH238865   6.341   1.604   3.521  0.2946 -0.1273  0.2045
12975TIP3    H138866   6.256   1.576   3.556  1.3856 -1.2634  2.1436
12975TIP3    H238867   6.396   1.526   3.527  1.6685  0.7568 -0.3829
12976TIP3   OH238868   0.829   1.874   2.758  0.1461  0.1583 -0.2077
12976TIP3    H138869   0.842   1.823   2.838 -3.4314  0.3114  0.6569
12976TIP3    H238870   0.822   1.965   2.789  0.2489  0.3996 -0.8862
12977TIP3   OH238871   5.586   0.882   2.792  0.3337  0.0901 -0.0270
12977TIP3    H138872   5.669   0.909   2.832  0.5320  1.2992 -1.1723
12977TIP3    H238873   5.519   0.927   2.844  0.5845  1.5768 -0.9404
12978TIP3   OH238874   2.225   0.430   3.668  0.0831  0.4752 -0.0801
12978TIP3    H138875   2.166   0.404   3.597  0.6264  0.1693 -0.4395
12978TIP3    H238876   2.244   0.348   3.714  1.3042  0.3131 -0.8240
12979TIP3   OH238877   6.826   7.080   4.863  0.0906  0.3413  0.5231
12979TIP3    H138878   6.745   7.053   4.906 -0.0184 -0.1806  0.0062
12979TIP3    H238879   6.826   7.032   4.779  0.9048  0.3679  0.4962
12980TIP3   OH238880   7.014   6.455   0.490 -0.3752 -0.7221 -0.2224
12980TIP3    H138881   6.962   6.528   0.458  0.4138 -0.1818 -0.2802
12980TIP3    H238882   6.952   6.401   0.539 -0.9390  0.0187 -0.1178
12981TIP3   OH238883   7.760   3.091   0.269 -0.1982 -0.1478 -0.4186
12981TIP3    H138884   7.716   3.116   0.350  1.8725 -0.8920  1.0315
12981TIP3    H238885   7.698   3.113   0.200 -1.6972  1.3206  1.2966
12982TIP3   OH238886   3.884   6.347   5.057  0.4838  0.4025 -0.2188
12982TIP3    H138887   3.947   6.334   4.986  2.4736  0.7731  1.3809
12982TIP3    H238888   3.870   6.260   5.094  1.5991  0.5568  0.6226
12983TIP3   OH238889   4.276   2.591   3.590 -0.3551 -0.1592  0.0219
12983TIP3    H138890   4.289   2.497   3.584  0.3544 -0.0142 -0.8722
12983TIP3    H238891   4.222   2.613   3.514 -1.3482  0.0297  0.7583
12984TIP3   OH238892   0.232   6.826   1.320 -0.4438  0.7737 -0.1201
12984TIP3    H138893   0.142   6.805   1.346  0.4479 -1.8422  1.0968
12984TIP3    H238894   0.236   6.801   1.227 -0.5626 -0.6098  0.2333
12985TIP3   OH238895   4.803   6.087   0.519  0.2768 -0.0701 -0.2329
12985TIP3    H138896   4.828   6.175   0.546  0.1011 -0.5745  1.6605
12985TIP3    H238897   4.802   6.035   0.599 -4.2974 -0.6977 -0.3886
12986TIP3   OH238898   8.079   1.298   6.242  0.0965  0.4842 -0.2309
12986TIP3    H138899   8.102   1.216   6.286  0.2205 -0.6401 -2.2871
12986TIP3    H238900   8.100   1.366   6.306 -1.2803 -1.1140  2.0522
12987TIP3   OH238901   6.808   4.069   1.788  0.3554 -0.2086  0.4593
12987TIP3    H138902   6.741   4.038   1.726  0.1443 -3.3558  2.0255
12987TIP3    H238903   6.779   4.156   1.813 -1.6305 -0.3808 -0.9776
12988TIP3   OH238904   3.182   0.377   5.195  0.3207  0.6929  0.4536
12988TIP3    H138905   3.214   0.321   5.265 -1.2022 -0.9627 -0.0811
12988TIP3    H238906   3.211   0.334   5.115  0.2826  1.4329  0.0315
12989TIP3   OH238907   0.839   7.436   2.570 -0.3294  0.3927  0.4585
12989TIP3    H138908   0.880   7.357   2.605 -0.0843  0.5552  0.5446
12989TIP3    H238909   0.893   7.461   2.495 -0.2678  0.6061  0.5705
12990TIP3   OH238910   1.772   6.264   2.811 -0.1592  0.1628  0.2377
12990TIP3    H138911   1.764   6.185   2.865 -0.1347 -0.1761 -0.2407
12990TIP3    H238912   1.843   6.313   2.851  0.6760 -0.6668 -0.1904
12991TIP3   OH238913   5.019   5.972   0.097  0.1249  0.2411  0.4507
12991TIP3    H138914   5.019   6.033   0.171  2.0759 -0.0083  0.7218
12991TIP3    H238915   5.088   6.005   0.039  1.5311 -1.8451  0.7872
12992TIP3   OH238916   3.777   6.592   2.204  0.0580 -0.0084 -0.3498
12992TIP3    H138917   3.818   6.571   2.120  2.2558 -1.4563  0.9666
12992TIP3    H238918   3.805   6.681   2.223  1.6792 -0.5442 -0.0517
12993TIP3   OH238919   8.407   2.631   5.079 -0.1058 -0.0949 -0.0526
12993TIP3    H138920   8.436   2.722   5.074  1.0048 -0.4765 -1.7815
12993TIP3    H238921   8.355   2.619   5.000 -0.7597 -0.8030  0.4763
12994TIP3   OH238922   2.623   1.322   2.971  0.0680  0.0686  0.0149
12994TIP3    H138923   2.688   1.323   2.902  1.2015  1.4831  1.0344
12994TIP3    H238924   2.554   1.265   2.939  1.5865 -1.0994 -1.3037
12995TIP3   OH238925   4.542   5.858   2.793  0.3297  0.4734 -0.0447
12995TIP3    H138926   4.564   5.866   2.886 -0.7975  2.0609  0.1354
12995TIP3    H238927   4.446   5.861   2.791  0.3482  0.7348 -1.2703
12996TIP3   OH238928   3.795   3.542   0.812  0.1413  0.0688  0.4515
12996TIP3    H138929   3.767   3.601   0.743  0.3844  0.7499  0.9220
12996TIP3    H238930   3.796   3.455   0.771  2.3445  0.7059 -1.0321
12997TIP3   OH238931   3.891   4.823   0.228 -0.2518 -0.0478 -0.7004
12997TIP3    H138932   3.942   4.745   0.252 -0.5823  0.3450  1.4829
12997TIP3    H238933   3.905   4.832   0.134  1.4402 -1.5666 -0.6631
12998TIP3   OH238934   8.094   6.495   4.715  0.7461  0.1545  0.3178
12998TIP3    H138935   8.176   6.449   4.733  1.4420  0.5960 -1.5145
12998TIP3    H238936   8.026   6.434   4.743  1.6584 -0.0387  2.3007
12999TIP3   OH238937   1.051   2.136   1.364 -0.2028 -0.0605  0.1973
12999TIP3    H138938   1.025   2.196   1.294  0.5102 -0.3617 -0.3314
12999TIP3    H238939   1.008   2.053   1.342 -1.5996  0.3529  1.1955
13000TIP3   OH238940   7.598   2.700   2.213 -0.3985  0.0018  0.1088
13000TIP3    H138941   7.589   2.787   2.252  2.2725 -0.0629  1.0099
13000TIP3    H238942   7.642   2.647   2.280 -1.6171 -1.9980 -0.5550
13001TIP3   OH238943   7.115   1.679   2.863  0.1808  0.1917  0.5020
13001TIP3    H138944   7.088   1.607   2.805  1.7944 -0.1009  0.0515
13001TIP3    H238945   7.133   1.752   2.804  0.2987  0.3873  0.7775
13002TIP3   OH238946   5.077   2.089   5.562 -0.2155 -0.0284  0.1836
13002TIP3    H138947   5.073   2.017   5.625 -0.9517 -0.7000 -0.6187
13002TIP3    H238948   5.117   2.051   5.484 -0.6708  0.4052 -0.2712
13003TIP3   OH238949   3.509   5.053   0.405  0.9266 -0.2250  0.3186
13003TIP3    H138950   3.490   4.968   0.444 -1.5144  1.0725  2.2505
13003TIP3    H238951   3.457   5.055   0.324  1.5000 -0.7672 -0.0757
13004TIP3   OH238952   1.266   4.258   4.531  0.1717 -0.0999 -0.0379
13004TIP3    H138953   1.253   4.342   4.575 -1.4370 -1.1854  1.7840
13004TIP3    H238954   1.239   4.193   4.597  1.4909 -2.0522 -1.3240
13005TIP3   OH238955   1.564   7.697   6.862 -0.2149 -0.5820 -0.1075
13005TIP3    H138956   1.536   7.711   6.772 -1.6142  2.6720  0.6953
13005TIP3    H238957   1.491   7.651   6.904 -0.7942  0.3731 -0.0317
13006TIP3   OH238958   5.488   7.571   1.229  0.1303  0.3024  0.0547
13006TIP3    H138959   5.489   7.655   1.182 -0.6367  0.8111  0.9157
13006TIP3    H238960   5.416   7.579   1.290  0.9875 -0.4163  1.1955
13007TIP3   OH238961   5.393   6.323   3.973  0.0086 -0.8371 -0.1095
13007TIP3    H138962   5.467   6.316   4.034  0.3261 -1.2011 -0.5197
13007TIP3    H238963   5.388   6.416   3.952  0.1706 -0.7690  0.1435
13008TIP3   OH238964   5.055   3.789   4.572  0.2505 -0.0936 -0.7177
13008TIP3    H138965   5.087   3.735   4.645  1.2786  1.3481 -0.0687
13008TIP3    H238966   4.966   3.812   4.598  0.2395 -0.4510 -0.4179
13009TIP3   OH238967   0.090   4.820   0.405  0.2026  0.1928 -0.5908
13009TIP3    H138968   0.060   4.904   0.439 -0.4009  0.1699 -1.0405
13009TIP3    H238969   0.184   4.830   0.395 -0.0374  1.3221 -1.9927
13010TIP3   OH238970   4.174   4.382   6.581  0.0465 -0.4048  0.0147
13010TIP3    H138971   4.097   4.437   6.600  0.2702 -0.3821  0.8921
13010TIP3    H238972   4.205   4.414   6.497 -0.4885  0.0720 -0.0137
13011TIP3   OH238973   4.014   5.330   2.487  0.4279  0.2037  0.5757
13011TIP3    H138974   4.000   5.331   2.582  1.6966 -0.2407  0.7836
13011TIP3    H238975   4.095   5.379   2.474  0.9012 -0.7653 -0.1686
13012TIP3   OH238976   3.420   7.681   0.618  0.2831 -0.8238 -0.3162
13012TIP3    H138977   3.367   7.755   0.589 -0.4616 -0.6353  1.3902
13012TIP3    H238978   3.356   7.611   0.635  0.8838 -1.5689 -1.0049
13013TIP3   OH238979   0.012   7.944   3.039  0.2325  0.1929  0.0797
13013TIP3    H138980   0.070   7.920   2.967  0.2195  0.3202  0.0262
13013TIP3    H238981  -0.029   7.861   3.065 -0.8874  0.3713 -1.0474
13014TIP3   OH238982   1.788   5.955   5.110  0.0291  0.6207 -0.0844
13014TIP3    H138983   1.772   5.894   5.182 -0.6671  0.4086 -0.4134
13014TIP3    H238984   1.862   5.917   5.062 -0.8379 -0.3570 -0.6973
13015TIP3   OH238985   5.151   4.695   4.762  0.0355 -0.1242  0.2470
13015TIP3    H138986   5.088   4.766   4.772  1.5750  1.4557 -0.7233
13015TIP3    H238987   5.186   4.681   4.850  0.4254  1.0161  0.2799
13016TIP3   OH238988   4.480   5.885   4.406 -0.1460  0.2755 -0.1448
13016TIP3    H138989   4.513   5.796   4.416  0.2199  0.3924 -0.2947
13016TIP3    H238990   4.401   5.876   4.353 -0.6229 -0.0561  0.6037
13017TIP3   OH238991   4.375   6.127   3.622 -0.6200  0.7808  0.2348
13017TIP3    H138992   4.420   6.087   3.697 -0.4773  0.5665  0.0386
13017TIP3    H238993   4.392   6.066   3.550 -1.4588  0.5591  0.2193
13018TIP3   OH238994   5.628   0.748   3.906  0.4243  0.0865 -0.7060
13018TIP3    H138995   5.679   0.827   3.888  0.9715 -0.0113  0.3448
13018TIP3    H238996   5.537   0.779   3.913  0.7354  0.7849  0.5762
13019TIP3   OH238997   5.987   4.772   4.496 -0.1655  0.1465  0.4994
13019TIP3    H138998   6.038   4.761   4.416  0.6265 -0.4248  1.0537
13019TIP3    H238999   5.965   4.682   4.523  0.4106  0.2631  1.4195
13020TIP3   OH239000   7.218   6.958   2.070 -0.2382 -0.4551  0.0684
13020TIP3    H139001   7.148   6.932   2.131 -1.2121 -3.4712 -2.0580
13020TIP3    H239002   7.171   6.981   1.990  1.0929  1.5897 -0.1791
13021TIP3   OH239003   5.626   6.758   1.662  0.8178 -0.0565 -0.0814
13021TIP3    H139004   5.690   6.727   1.725  0.0050 -2.6392 -0.4211
13021TIP3    H239005   5.670   6.753   1.577  0.5669 -0.7084 -0.1802
13022TIP3   OH239006   7.629   0.666   0.132  0.1974 -0.2386  0.3008
13022TIP3    H139007   7.558   0.623   0.083 -0.8397 -1.2932  2.5225
13022TIP3    H239008   7.675   0.719   0.068 -2.0891 -0.2043 -1.4292
13023TIP3   OH239009   8.354   3.676   3.153  0.1486 -0.1747 -0.3292
13023TIP3    H139010   8.298   3.605   3.123 -0.9293  0.2808  0.5589
13023TIP3    H239011   8.359   3.736   3.078 -0.8412 -0.0524 -0.3107
13024TIP3   OH239012   1.602   7.513   1.998  0.2671  0.1933 -0.3862
13024TIP3    H139013   1.538   7.544   2.061  0.2357 -0.6501  0.0086
13024TIP3    H239014   1.589   7.418   1.995  2.5953 -0.2433  0.9541
13025TIP3   OH239015   4.867   2.577   1.247  0.1010  0.0863  0.0774
13025TIP3    H139016   4.905   2.490   1.250  1.3238  0.6270  2.0618
13025TIP3    H239017   4.779   2.566   1.285 -1.5243 -0.9751 -3.5899
13026TIP3   OH239018   6.572   0.654   6.577 -0.8327 -0.5230  0.5020
13026TIP3    H139019   6.537   0.578   6.531  0.4896 -1.5708  1.1613
13026TIP3    H239020   6.551   0.638   6.669 -3.8355  1.7512  0.3874
13027TIP3   OH239021   8.398   7.619   0.063 -0.4805 -0.4851 -0.5985
13027TIP3    H139022   8.470   7.607  -0.000 -0.8159  1.0314 -1.3332
13027TIP3    H239023   8.319   7.599   0.014 -0.6769 -0.2821 -0.3685
13028TIP3   OH239024   8.311   6.766   4.213 -0.4726 -0.3269 -0.4631
13028TIP3    H139025   8.373   6.706   4.171 -1.0953 -1.2484 -0.0739
13028TIP3    H239026   8.226   6.724   4.203 -0.9632  0.6246 -0.4207
13029TIP3   OH239027   5.165   6.405   5.063  0.0082  0.2791 -0.5360
13029TIP3    H139028   5.194   6.465   4.994 -2.0670  0.5767 -1.2253
13029TIP3    H239029   5.099   6.351   5.021  0.9575 -1.7172  0.4244
13030TIP3   OH239030   6.110   2.502   4.607  0.0328  0.1367  0.4451
13030TIP3    H139031   6.187   2.448   4.619  0.0574  0.0070 -0.2172
13030TIP3    H239032   6.144   2.586   4.574 -0.1676 -0.3042 -0.9654
13031TIP3   OH239033   0.406   7.290   1.181  0.1819  0.4122  0.1407
13031TIP3    H139034   0.380   7.299   1.089 -0.9773  0.6797  0.4817
13031TIP3    H239035   0.343   7.227   1.217  1.8154 -1.2271  0.3021
13032TIP3   OH239036   4.314   0.803   3.137 -0.2551  0.5838 -0.3469
13032TIP3    H139037   4.293   0.776   3.047 -2.6081  0.3376  0.2107
13032TIP3    H239038   4.294   0.896   3.139 -2.6357  0.1055  0.5146
13033TIP3   OH239039   5.152   2.097   4.299  0.6363 -0.2397  0.1434
13033TIP3    H139040   5.235   2.142   4.281 -0.2917  1.1689 -0.7726
13033TIP3    H239041   5.150   2.026   4.235  1.0926 -0.2469  0.1287
13034TIP3   OH239042   0.051   2.101   3.576 -0.0889 -0.1510 -0.1338
13034TIP3    H139043   0.009   2.015   3.567  1.2642 -0.8009 -0.5262
13034TIP3    H239044   0.054   2.136   3.486  0.8079 -0.4242 -0.2226
13035TIP3   OH239045   4.926   6.123   6.792  0.2680  0.3524 -0.3066
13035TIP3    H139046   4.883   6.088   6.714  0.7034 -1.1331  0.0889
13035TIP3    H239047   4.908   6.217   6.789  0.2443  0.3224 -2.1628
13036TIP3   OH239048   2.124   0.985   5.698 -0.5021 -0.3359  0.0913
13036TIP3    H139049   2.179   1.064   5.703 -0.1837 -0.4884 -0.8996
13036TIP3    H239050   2.161   0.934   5.626 -1.3521 -0.9036  0.0443
13037TIP3   OH239051   4.418   0.099   1.509 -0.5858 -0.7024 -0.0467
13037TIP3    H139052   4.358   0.163   1.547  0.1325  0.4917 -0.8419
13037TIP3    H239053   4.418   0.026   1.571 -1.4321  0.0657  0.8935
13038TIP3   OH239054   6.724   0.596   3.829  0.2147 -0.0064 -0.6316
13038TIP3    H139055   6.703   0.508   3.859 -2.9931  0.4310 -1.2486
13038TIP3    H239056   6.759   0.640   3.907 -0.3839 -1.1462  0.3152
13039TIP3   OH239057   1.210   0.809   3.169  0.0923  0.4496  0.1716
13039TIP3    H139058   1.260   0.847   3.241  0.0061 -1.1700  1.1385
13039TIP3    H239059   1.245   0.720   3.160 -2.3608 -0.6218  0.6533
13040TIP3   OH239060   6.791   1.380   4.238 -0.7833 -0.3195 -0.1077
13040TIP3    H139061   6.695   1.386   4.236 -0.8207 -0.5113  0.8053
13040TIP3    H239062   6.810   1.335   4.320 -0.0136 -2.3631 -1.3169
13041TIP3   OH239063   5.827   2.635   4.490  0.3630 -0.2548 -0.6171
13041TIP3    H139064   5.832   2.629   4.395  1.3155  1.0747 -0.6770
13041TIP3    H239065   5.899   2.694   4.514 -0.1336 -0.2277  0.8826
13042TIP3   OH239066   4.941   0.270   3.639  0.1800 -0.4373  0.7486
13042TIP3    H139067   5.035   0.253   3.647  0.5958  0.1495 -2.0115
13042TIP3    H239068   4.926   0.278   3.545 -2.7333 -0.9325  1.0817
13043TIP3   OH239069   1.380   7.646   1.146  0.5838 -0.1807 -0.8591
13043TIP3    H139070   1.364   7.558   1.179  0.0589  1.0705  2.6108
13043TIP3    H239071   1.299   7.669   1.099 -0.1013 -0.8405 -0.0296
13044TIP3   OH239072   3.970   4.637   2.550 -0.0356 -0.3096 -0.0095
13044TIP3    H139073   4.001   4.554   2.513  1.8239 -0.2283  1.2250
13044TIP3    H239074   3.979   4.699   2.478  3.3556 -0.1870  0.3669
13045TIP3   OH239075   0.447   4.350   0.107  0.4097  0.0886  0.2099
13045TIP3    H139076   0.499   4.273   0.130  1.5718  1.0934  1.0619
13045TIP3    H239077   0.488   4.384   0.027 -0.8683 -0.8505 -0.8829
13046TIP3   OH239078   8.231   0.737   1.711  0.0296  0.0397 -0.5031
13046TIP3    H139079   8.292   0.798   1.753 -1.1931  1.0781 -0.1538
13046TIP3    H239080   8.270   0.651   1.724  1.5558  0.6854 -0.5604
13047TIP3   OH239081   0.333   6.399   2.229  0.0382  0.0728  0.2924
13047TIP3    H139082   0.297   6.361   2.149  1.7416  0.1549 -0.5578
13047TIP3    H239083   0.385   6.328   2.268  2.3661  1.0819 -0.7425
13048TIP3   OH239084   8.269   4.141   5.428  0.6393 -0.3326 -0.2209
13048TIP3    H139085   8.204   4.190   5.479  0.3268  1.3931 -2.1707
13048TIP3    H239086   8.223   4.062   5.400 -0.6699  0.8712 -1.5830
13049TIP3   OH239087   2.735   4.021   0.711 -0.7027 -0.1713  0.0881
13049TIP3    H139088   2.716   3.972   0.631 -1.6245 -0.4115  0.4450
13049TIP3    H239089   2.821   3.989   0.739  0.5698  1.3305 -1.8642
13050TIP3   OH239090   0.407   0.287   5.638 -0.4156  0.0530  0.0058
13050TIP3    H139091   0.420   0.323   5.725  1.6658 -0.1298 -0.1815
13050TIP3    H239092   0.322   0.242   5.643 -0.8085  0.8932  1.6056
13051TIP3   OH239093   3.655   2.096   1.172  0.2653 -0.8082 -0.2138
13051TIP3    H139094   3.681   2.008   1.146  0.4472 -0.2110 -2.2373
13051TIP3    H239095   3.711   2.154   1.120 -1.0589  0.4988 -0.2577
13052TIP3   OH239096   1.749   7.718   6.083 -0.3340 -0.3883 -0.0073
13052TIP3    H139097   1.838   7.750   6.070  0.2760 -1.3487  1.4496
13052TIP3    H239098   1.725   7.677   6.000  0.7045 -0.3650 -0.3266
13053TIP3   OH239099   5.979   2.331   2.410  0.3416  0.3335  0.5819
13053TIP3    H139100   5.962   2.379   2.491 -0.0997  1.3341 -0.0835
13053TIP3    H239101   5.897   2.286   2.390  0.0482  1.0931  0.0416
13054TIP3   OH239102   5.539   2.599   0.768  0.2184  0.1573 -0.1215
13054TIP3    H139103   5.468   2.630   0.712  0.8580  1.3591 -0.3155
13054TIP3    H239104   5.567   2.678   0.816  1.5954 -0.2264 -0.2579
13055TIP3   OH239105   6.638   0.289   2.555  0.2859 -0.6960 -0.2769
13055TIP3    H139106   6.730   0.264   2.556  0.9604  1.1998 -2.8308
13055TIP3    H239107   6.626   0.341   2.635  1.7653 -0.0717 -0.4279
13056TIP3   OH239108   2.514   1.758   3.624 -0.2276  0.1539  0.8466
13056TIP3    H139109   2.514   1.852   3.641 -1.2298  0.1397  0.9853
13056TIP3    H239110   2.449   1.745   3.555 -0.5417 -0.4983  1.2470
13057TIP3   OH239111   4.390   6.102   1.416  0.3393  0.0413 -0.4524
13057TIP3    H139112   4.317   6.043   1.436  0.9113 -0.7810 -0.7664
13057TIP3    H239113   4.380   6.173   1.480 -0.8692  0.0674 -0.6423
13058TIP3   OH239114   4.103   4.512   3.070 -0.5436  0.3698  0.3389
13058TIP3    H139115   4.184   4.512   3.018 -0.7235 -0.2351  0.0456
13058TIP3    H239116   4.132   4.533   3.159 -0.3541  2.4624 -0.1602
13059TIP3   OH239117   4.334   5.598   2.202  0.1744 -0.0097 -0.0716
13059TIP3    H139118   4.287   5.574   2.122 -1.7002 -1.9924  1.5233
13059TIP3    H239119   4.283   5.670   2.239  0.3582  0.1085 -0.0473
13060TIP3   OH239120   6.865   7.150   5.408 -0.5471 -0.4285 -0.2777
13060TIP3    H139121   6.888   7.094   5.334 -0.0227  1.5245 -1.6628
13060TIP3    H239122   6.925   7.123   5.478 -2.6287 -3.9937  0.4152
13061TIP3   OH239123   4.544   7.243   0.946  0.0796  0.5885 -0.2470
13061TIP3    H139124   4.494   7.217   0.869  0.4285  0.6715 -0.5068
13061TIP3    H239125   4.480   7.284   1.004  0.0904  1.9927 -1.1847
13062TIP3   OH239126   4.864   3.437   6.414  0.1030 -0.1717 -0.5215
13062TIP3    H139127   4.935   3.388   6.456  0.3042  0.0561 -0.5970
13062TIP3    H239128   4.908   3.503   6.361 -0.0858 -1.5310 -2.4807
13063TIP3   OH239129   4.248   1.785   0.072  0.8541  0.1485  0.0501
13063TIP3    H139130   4.200   1.826   0.145  2.1895  1.8111  0.0536
13063TIP3    H239131   4.288   1.707   0.111  0.3528  0.2174  0.7256
13064TIP3   OH239132   7.733   4.806   2.139 -0.4083  0.0554 -0.2186
13064TIP3    H139133   7.796   4.855   2.086  1.6909 -1.3549  0.8305
13064TIP3    H239134   7.696   4.742   2.079  1.2512 -0.9049 -0.2990
13065TIP3   OH239135   5.986   1.587   0.626  0.0368 -0.5521 -0.1421
13065TIP3    H139136   5.894   1.562   0.637 -0.0216 -0.3038 -0.0656
13065TIP3    H239137   6.024   1.515   0.575 -0.9128  0.7764 -2.9326
13066TIP3   OH239138   4.108   4.071   4.305  0.8607  0.0395 -0.2478
13066TIP3    H139139   4.062   4.097   4.385  3.1249  0.5526  0.9790
13066TIP3    H239140   4.070   4.126   4.237  0.8034  1.6491  1.0235
13067TIP3   OH239141   2.428   2.184   0.439  0.8583  0.0632 -0.3176
13067TIP3    H139142   2.379   2.199   0.358 -1.4943 -0.4278  0.9255
13067TIP3    H239143   2.461   2.095   0.431 -0.7182 -0.5710 -0.1381
13068TIP3   OH239144   2.724   2.483  -0.001  0.0852  0.2016 -0.1721
13068TIP3    H139145   2.628   2.487  -0.005  0.0667  1.2045  0.8183
13068TIP3    H239146   2.742   2.427   0.074  0.2767  0.6451  0.1107
13069TIP3   OH239147   4.756   0.978   3.710  0.1696 -0.3095  0.3016
13069TIP3    H139148   4.754   1.074   3.706  2.3065 -0.2283 -0.3609
13069TIP3    H239149   4.808   0.959   3.788  0.1798 -0.9312  0.1451
13070TIP3   OH239150   3.647   2.318   5.636  0.2668 -0.1456 -0.6714
13070TIP3    H139151   3.600   2.331   5.718  1.7424 -1.6530  0.4916
13070TIP3    H239152   3.578   2.298   5.572 -0.7284 -2.3629  0.9653
13071TIP3   OH239153   3.541   2.210   2.887 -0.1294  0.2249 -0.3593
13071TIP3    H139154   3.566   2.149   2.818  0.0975  1.7973 -1.7395
13071TIP3    H239155   3.451   2.185   2.910  0.2153 -1.0737 -0.3480
13072TIP3   OH239156   2.229   5.666   6.514  0.4478 -0.2943  0.4336
13072TIP3    H139157   2.279   5.732   6.467  0.1299  0.7263  1.4847
13072TIP3    H239158   2.137   5.689   6.497  0.2997  0.8465  2.4923
13073TIP3   OH239159   6.302   2.900   3.113 -0.2767 -0.1640  0.1129
13073TIP3    H139160   6.343   2.986   3.111  0.3817 -0.4791 -1.4492
13073TIP3    H239161   6.320   2.863   3.027  1.3127 -2.7406  1.4441
13074TIP3   OH239162   5.933   5.970   0.225  0.2424  0.0046  0.2804
13074TIP3    H139163   5.979   6.005   0.149  0.5168 -0.8383  0.0440
13074TIP3    H239164   5.862   5.918   0.188 -0.2951  0.4816  0.6281
13075TIP3   OH239165   4.772   2.955   6.536  0.0331 -0.1678 -0.1848
13075TIP3    H139166   4.807   2.898   6.467 -1.1705  0.6599 -1.5440
13075TIP3    H239167   4.838   3.024   6.545  1.4235 -1.6171  1.3606
13076TIP3   OH239168   6.204   2.648   0.456  0.3471  0.3676 -0.9637
13076TIP3    H139169   6.175   2.666   0.367  1.0475 -3.7883 -2.2502
13076TIP3    H239170   6.128   2.609   0.499  0.2201  1.7188  0.1117
13077TIP3   OH239171   0.858   6.213   2.567  0.1525 -0.5939  0.2151
13077TIP3    H139172   0.858   6.228   2.662 -0.1007 -1.7704  0.4087
13077TIP3    H239173   0.781   6.261   2.536  1.0202  0.9882  0.3822
13078TIP3   OH239174   0.915   0.567   5.594  0.0462 -0.3220 -0.3530
13078TIP3    H139175   0.902   0.476   5.623  0.3682  0.0334  1.0095
13078TIP3    H239176   0.850   0.617   5.644  0.1073  0.2407 -0.8306
13079TIP3   OH239177   3.743   3.246   0.410  0.7043  0.2572  0.1466
13079TIP3    H139178   3.782   3.232   0.323  0.4295  0.7365 -0.0562
13079TIP3    H239179   3.654   3.212   0.402  0.0915  1.9058 -0.2943
13080TIP3   OH239180   2.422   2.114   1.006 -0.0380  0.3461 -0.3986
13080TIP3    H139181   2.367   2.183   1.043  1.4435  2.5804 -2.1020
13080TIP3    H239182   2.486   2.095   1.075  0.6617  2.0633 -0.5215
13081TIP3   OH239183   3.254   5.840   5.351 -0.5619  0.0212 -0.1043
13081TIP3    H139184   3.221   5.773   5.292 -0.0011 -0.9754  0.6681
13081TIP3    H239185   3.304   5.791   5.417 -0.5519  1.1533  0.7641
13082TIP3   OH239186   4.094   6.169   2.966 -0.3207  0.0112  0.0561
13082TIP3    H139187   4.103   6.088   2.915  0.6186  0.2279 -0.1548
13082TIP3    H239188   4.000   6.186   2.968 -0.5375 -1.1050  0.1317
13083TIP3   OH239189   2.964   6.525   4.202  0.0783 -0.5869  0.1923
13083TIP3    H139190   2.987   6.592   4.138 -1.3907 -0.8319 -0.6359
13083TIP3    H239191   3.010   6.552   4.282 -0.1095  1.1646 -0.2393
13084TIP3   OH239192   0.296   7.753   1.105  0.6154 -0.1327  0.6169
13084TIP3    H139193   0.233   7.683   1.086  2.0589 -1.4609  0.5346
13084TIP3    H239194   0.380   7.708   1.115  1.4077  1.4690  1.6928
13085TIP3   OH239195   0.490   6.848   3.308  0.2169  0.2289 -0.5101
13085TIP3    H139196   0.461   6.894   3.387 -3.1739 -0.6764 -1.0580
13085TIP3    H239197   0.489   6.915   3.240 -2.4883 -0.0328 -0.8435
13086TIP3   OH239198   5.136   1.850   5.681  0.1242  0.8841 -0.3425
13086TIP3    H139199   5.215   1.825   5.729 -2.3243 -1.9950  2.7469
13086TIP3    H239200   5.112   1.771   5.632 -0.6093  1.8392 -1.5632
13087TIP3   OH239201   7.688   4.315   3.494  0.1986  0.1502  0.0179
13087TIP3    H139202   7.707   4.271   3.576 -0.6753 -1.4111 -0.5577
13087TIP3    H239203   7.618   4.377   3.515  0.5687  0.3686  0.6075
13088TIP3   OH239204   5.026   4.295   0.573 -0.3104 -0.3115  0.1032
13088TIP3    H139205   5.092   4.227   0.558 -0.4527 -0.3749 -0.2551
13088TIP3    H239206   5.076   4.376   0.576 -0.0164 -0.5360  1.6339
13089TIP3   OH239207   4.257   1.072   4.082  0.0491 -0.0114 -0.3207
13089TIP3    H139208   4.182   1.023   4.049  0.5114 -2.4174  1.9053
13089TIP3    H239209   4.333   1.032   4.040  0.3711 -0.5673  0.7727
13090TIP3   OH239210   8.312   2.881   5.383 -0.0720  0.4466 -0.2250
13090TIP3    H139211   8.371   2.867   5.457 -1.9718  0.4945  1.3984
13090TIP3    H239212   8.272   2.795   5.368 -0.2323  0.6045 -0.7282
13091TIP3   OH239213   0.718   1.142   6.772  0.4591  0.1280 -0.0903
13091TIP3    H139214   0.795   1.166   6.823  0.1996 -0.5375  0.6252
13091TIP3    H239215   0.730   1.049   6.753  0.8543  0.4886 -1.7796
13092TIP3   OH239216   1.646   7.762   2.309 -0.0109 -0.1124  0.1207
13092TIP3    H139217   1.693   7.834   2.352  0.1238  0.1646 -0.4786
13092TIP3    H239218   1.683   7.759   2.221  0.0041 -0.9373  0.1501
13093TIP3   OH239219   3.768   6.503   3.147 -0.5631 -0.2234 -0.5438
13093TIP3    H139220   3.771   6.539   3.058 -0.4430 -0.8017 -0.7822
13093TIP3    H239221   3.676   6.479   3.160 -0.4745 -0.7078 -0.7567
13094TIP3   OH239222   8.202   3.366   0.157  0.0557 -0.1703  0.0108
13094TIP3    H139223   8.186   3.286   0.206  0.2408 -1.1354 -1.4384
13094TIP3    H239224   8.126   3.421   0.177 -1.3900 -1.7276 -0.9207
13095TIP3   OH239225   0.747   5.898   6.493  0.5849  0.6735  0.1983
13095TIP3    H139226   0.767   5.810   6.461  0.1557  0.5959  0.1408
13095TIP3    H239227   0.703   5.884   6.576 -0.2785  0.7991 -0.2272
13096TIP3   OH239228   5.721   6.792   2.792 -0.4699  0.3653 -0.2872
13096TIP3    H139229   5.798   6.760   2.839 -1.2932 -1.0242  0.1805
13096TIP3    H239230   5.717   6.885   2.813 -0.7150 -0.1710  2.2985
13097TIP3   OH239231   5.707   6.951   6.454 -0.8355  0.2731 -0.6876
13097TIP3    H139232   5.738   6.877   6.401  1.4350  0.8922 -0.3608
13097TIP3    H239233   5.639   6.992   6.401 -0.7484 -0.9011 -1.7570
13098TIP3   OH239234   0.684   3.286   2.811 -0.6062  0.1748 -0.4523
13098TIP3    H139235   0.667   3.371   2.771 -2.0750  0.7137  1.1973
13098TIP3    H239236   0.609   3.232   2.785 -1.0448  0.2195  0.6718
13099TIP3   OH239237   5.446   1.333   6.596 -0.1498 -0.4438 -0.0773
13099TIP3    H139238   5.452   1.339   6.692  0.0240 -0.8412 -0.0622
13099TIP3    H239239   5.392   1.256   6.581  0.6402 -0.9603 -0.3124
13100TIP3   OH239240   4.046   2.787   5.703  0.2262  0.0415  0.1520
13100TIP3    H139241   4.125   2.784   5.757  0.0637  0.1032  0.3957
13100TIP3    H239242   4.001   2.704   5.722 -0.5662  0.6943  1.2387
13101TIP3   OH239243   4.796   7.122   5.114 -0.0053  0.2139 -0.3980
13101TIP3    H139244   4.818   7.213   5.093  0.5876  0.1555 -0.0436
13101TIP3    H239245   4.837   7.106   5.200  0.4066 -0.5683 -0.7264
13102TIP3   OH239246   0.881   3.363   5.983  0.6419 -0.3886  0.8509
13102TIP3    H139247   0.940   3.368   6.058 -0.5778 -0.1900  1.8371
13102TIP3    H239248   0.862   3.270   5.973  1.3056 -0.4762  0.3746
13103TIP3   OH239249   6.747   2.853   5.941 -0.1820  0.2517  0.4760
13103TIP3    H139250   6.671   2.905   5.966 -1.3022 -0.7073 -0.7463
13103TIP3    H239251   6.732   2.768   5.981  1.0614  0.4943  1.5179
13104TIP3   OH239252   5.319   3.041   5.450  0.2415  0.5686  0.3399
13104TIP3    H139253   5.412   3.050   5.427  1.1003 -0.7028  2.8851
13104TIP3    H239254   5.312   2.951   5.483 -2.3057  0.0824 -1.2918
13105TIP3   OH239255   5.780   2.054   4.518  0.3060  0.1843  0.1378
13105TIP3    H139256   5.742   2.139   4.538  0.7492  0.2389  0.7750
13105TIP3    H239257   5.705   1.996   4.502  0.0074  0.8876 -1.1703
13106TIP3   OH239258   6.222   5.207   1.742 -0.5131  0.4455 -0.1762
13106TIP3    H139259   6.142   5.188   1.694 -0.5416  0.1624 -0.0168
13106TIP3    H239260   6.224   5.302   1.748 -1.2791  0.4278  0.5633
13107TIP3   OH239261   8.284   6.077   5.722  0.2652 -0.6415  0.3698
13107TIP3    H139262   8.193   6.059   5.746  0.5198 -1.8814  0.4459
13107TIP3    H239263   8.304   6.160   5.766 -1.0788  0.1134 -0.3426
13108TIP3   OH239264   4.047   4.703   0.028  0.3491 -0.0510  0.6202
13108TIP3    H139265   4.070   4.610   0.031  0.6932  0.0503  2.4948
13108TIP3    H239266   4.127   4.747   0.057  0.6136  0.9590 -1.4770
13109TIP3   OH239267   3.939   0.233   1.654 -0.1474  0.1555 -0.0049
13109TIP3    H139268   3.961   0.207   1.564 -1.7110  0.8548 -0.6327
13109TIP3    H239269   3.852   0.195   1.670  0.3062 -0.3509  1.4014
13110TIP3   OH239270   3.885   0.271   3.501 -0.3344  0.4245  0.4658
13110TIP3    H139271   3.892   0.348   3.444 -0.5304 -0.0629 -0.2304
13110TIP3    H239272   3.943   0.206   3.461  0.6215  0.5486  1.6274
13111TIP3   OH239273   3.115   1.441   2.120  0.2472 -0.6952  0.3898
13111TIP3    H139274   3.133   1.531   2.147  0.2655 -1.0365  1.5600
13111TIP3    H239275   3.021   1.430   2.136  0.3314 -1.0164  0.6758
13112TIP3   OH239276   3.016   1.932   6.083 -0.0693  0.1777  0.1057
13112TIP3    H139277   3.003   1.848   6.039 -0.8712  0.5684 -0.4187
13112TIP3    H239278   2.938   1.943   6.138 -1.7760  2.1954 -2.5032
13113TIP3   OH239279   2.814   4.485   1.540  0.1034 -0.3943 -0.6158
13113TIP3    H139280   2.785   4.500   1.630  0.7236  4.3238 -0.9293
13113TIP3    H239281   2.740   4.442   1.498 -0.6177 -1.7657  1.8420
13114TIP3   OH239282   7.359   5.269   3.136 -0.4732 -0.1893 -0.3788
13114TIP3    H139283   7.430   5.306   3.189 -1.8688  2.0515  0.0506
13114TIP3    H239284   7.307   5.217   3.197 -1.3178  1.2919  0.2037
13115TIP3   OH239285   1.208   6.110   4.316 -0.2886 -0.4117 -0.0974
13115TIP3    H139286   1.253   6.027   4.303  0.8266 -0.1925  1.9563
13115TIP3    H239287   1.182   6.138   4.228 -0.1584 -2.6128 -0.8818
13116TIP3   OH239288   4.608   2.733   4.329 -0.3912 -0.3100  0.7411
13116TIP3    H139289   4.667   2.658   4.317 -0.6893 -0.4708  0.2846
13116TIP3    H239290   4.532   2.697   4.374 -0.2465 -0.1422  1.1356
13117TIP3   OH239291   1.002   4.885   4.172 -0.2538  0.0070 -0.2911
13117TIP3    H139292   1.084   4.891   4.122 -0.3968 -1.5710 -0.7672
13117TIP3    H239293   1.025   4.913   4.260  1.0430 -1.3042 -0.1766
13118TIP3   OH239294   8.397   2.368   3.666  0.0616 -0.1604  0.1714
13118TIP3    H139295   8.392   2.277   3.638 -0.5611 -0.4590  1.2074
13118TIP3    H239296   8.381   2.419   3.586 -0.3065 -0.9568 -0.2693
13119TIP3   OH239297   2.046   6.787   6.098 -0.3317  0.7615 -0.2938
13119TIP3    H139298   1.960   6.767   6.060 -1.6246  2.8110  1.3812
13119TIP3    H239299   2.029   6.806   6.190  2.1034  0.2332  0.3547
13120TIP3   OH239300   1.795   1.245   5.655  0.1087  0.3352 -0.5660
13120TIP3    H139301   1.730   1.176   5.667 -0.2119  0.6417 -0.4934
13120TIP3    H239302   1.766   1.315   5.714  1.6268 -0.2913  0.9789
13121TIP3   OH239303   7.831   3.580   1.090  0.8601  0.3565  0.3684
13121TIP3    H139304   7.815   3.674   1.092  1.0185  0.4276 -0.7752
13121TIP3    H239305   7.801   3.553   1.003  1.0906 -0.5954  0.5754
13122TIP3   OH239306   5.335   6.563   4.145  0.7881 -0.8020 -0.5670
13122TIP3    H139307   5.307   6.474   4.166  1.0538 -1.1290 -1.5737
13122TIP3    H239308   5.283   6.587   4.068 -0.3963  0.4967  0.5832
13123TIP3   OH239309   4.045   7.351   6.827 -0.1371  0.0548  0.3020
13123TIP3    H139310   4.050   7.446   6.840 -0.0031  0.3214 -1.5545
13123TIP3    H239311   4.127   7.318   6.864 -0.8736  0.4406  2.4220
13124TIP3   OH239312   1.769   1.361   2.537 -0.7617  0.2816  0.4953
13124TIP3    H139313   1.797   1.452   2.524 -1.1672  0.4938  1.0793
13124TIP3    H239314   1.848   1.309   2.521  0.0462  0.8718  2.2854
13125TIP3   OH239315   2.286   4.972   5.086  0.2540 -0.1518 -0.1243
13125TIP3    H139316   2.210   4.925   5.052 -0.8517  1.4373  0.0462
13125TIP3    H239317   2.290   5.052   5.033 -0.3663  1.4680  2.1326
13126TIP3   OH239318   4.817   1.044   3.322 -0.3215 -0.4839  0.6147
13126TIP3    H139319   4.865   1.121   3.292  0.2838  0.8318  4.3652
13126TIP3    H239320   4.725   1.070   3.317 -0.4798 -1.2705 -2.2026
13127TIP3   OH239321   8.366   6.362   4.712  0.5836 -0.6648 -0.4612
13127TIP3    H139322   8.373   6.412   4.631  0.1487 -0.6667 -0.5035
13127TIP3    H239323   8.433   6.399   4.769  0.1302  0.1183 -0.4186
13128TIP3   OH239324   3.313   2.151   3.390  0.1273 -0.2115 -0.3486
13128TIP3    H139325   3.292   2.078   3.449  0.9393  0.5200  0.8651
13128TIP3    H239326   3.238   2.210   3.397  0.5850  0.2719  0.6046
13129TIP3   OH239327   1.299   2.300   2.241  0.5732  0.1446 -0.1021
13129TIP3    H139328   1.273   2.251   2.319 -0.2019  2.7581  1.4298
13129TIP3    H239329   1.304   2.235   2.171 -0.5418 -2.0174  1.7147
13130TIP3   OH239330   3.731   4.627   5.117  0.3061  0.9477  0.3797
13130TIP3    H139331   3.720   4.620   5.211  0.2434  1.3586  0.4069
13130TIP3    H239332   3.722   4.721   5.099  1.3658  1.0146  0.1038
13131TIP3   OH239333   4.990   5.465   3.494  0.1733 -0.1694  0.6250
13131TIP3    H139334   5.052   5.487   3.424 -1.2451  0.9941 -0.3188
13131TIP3    H239335   4.979   5.547   3.543 -2.2872  0.3190 -0.6000
13132TIP3   OH239336   4.049   0.548   6.599 -0.1311  0.0092  0.5936
13132TIP3    H139337   4.057   0.640   6.623  0.7207 -0.3869  1.9339
13132TIP3    H239338   4.138   0.514   6.601 -0.6620 -1.6006  3.5018
13133TIP3   OH239339   0.615   2.791   1.969 -0.5075  0.1471 -0.1484
13133TIP3    H139340   0.699   2.835   1.951 -1.0880  1.1790 -0.4117
13133TIP3    H239341   0.617   2.712   1.915  1.6706 -1.6271  2.2605
13134TIP3   OH239342   2.534   7.446   0.621  0.5415  0.0915 -0.3417
13134TIP3    H139343   2.600   7.411   0.562 -0.3621 -1.3096 -0.5618
13134TIP3    H239344   2.526   7.381   0.690 -0.8771  0.0312 -0.5250
13135TIP3   OH239345   2.195   0.344   2.561  0.1171  0.2188  0.1743
13135TIP3    H139346   2.164   0.257   2.537  2.3336 -0.7043  0.4229
13135TIP3    H239347   2.237   0.332   2.646 -1.0247  1.9286  1.0525
13136TIP3   OH239348   0.417   1.026   6.823 -0.4534  0.2308  0.2527
13136TIP3    H139349   0.354   0.989   6.762 -1.8011  1.0446  1.1042
13136TIP3    H239350   0.501   1.024   6.776 -1.3067  0.1083 -1.3068
13137TIP3   OH239351   6.894   2.438   2.403 -0.4601  0.0771  0.3004
13137TIP3    H139352   6.953   2.513   2.404 -0.6444  0.2236  1.5187
13137TIP3    H239353   6.943   2.368   2.445  0.0906 -0.8271 -1.7219
13138TIP3   OH239354   7.845   3.848   2.578  0.0343 -0.1616 -0.4849
13138TIP3    H139355   7.890   3.893   2.507 -1.9555  2.0462 -0.4544
13138TIP3    H239356   7.803   3.772   2.537 -0.0038  0.3562 -1.4040
13139TIP3   OH239357   7.501   7.507   4.662  0.1573  0.3348 -0.0246
13139TIP3    H139358   7.543   7.482   4.745 -1.1600  1.5895  1.0641
13139TIP3    H239359   7.425   7.449   4.655  0.1597  0.3596 -0.2651
13140TIP3   OH239360   8.001   4.137   3.560  0.1777 -0.4453  0.5581
13140TIP3    H139361   8.002   4.167   3.470  0.6241  0.2793  0.7970
13140TIP3    H239362   7.915   4.161   3.593  0.0574 -0.6063  0.3639
13141TIP3   OH239363   7.290   4.696   4.714 -0.5378  0.0902 -0.2766
13141TIP3    H139364   7.259   4.610   4.687 -2.1011  0.2150  0.9739
13141TIP3    H239365   7.283   4.750   4.635  1.0582 -1.0193 -1.2408
13142TIP3   OH239366   1.246   6.704   6.534 -0.0318 -0.1112 -0.3380
13142TIP3    H139367   1.313   6.700   6.602  0.7078 -1.5305 -1.1031
13142TIP3    H239368   1.294   6.690   6.452 -1.2892 -1.4906 -0.8749
13143TIP3   OH239369   1.504   5.813   4.581 -0.6305 -0.1235 -0.0004
13143TIP3    H139370   1.455   5.734   4.603 -1.1611 -0.1270 -1.1410
13143TIP3    H239371   1.557   5.831   4.659 -0.9205 -1.2775  0.4774
13144TIP3   OH239372   1.481   4.643   4.379  0.6099  0.4485  0.0021
13144TIP3    H139373   1.499   4.690   4.460 -0.8518  0.9123  0.0821
13144TIP3    H239374   1.536   4.565   4.384  1.3291  0.9980  0.9412
13145TIP3   OH239375   0.230   1.885   0.825 -0.1953 -0.2416 -0.4297
13145TIP3    H139376   0.290   1.917   0.893  1.2337 -1.2285 -1.1898
13145TIP3    H239377   0.177   1.818   0.869 -0.5755  0.4373  0.1707
13146TIP3   OH239378   0.205   4.625   6.359 -0.2115  0.0132  0.2159
13146TIP3    H139379   0.191   4.531   6.371 -1.0021  0.0212 -0.5224
13146TIP3    H239380   0.136   4.667   6.411  0.5288  0.2024  1.0505
13147TIP3   OH239381   3.934   4.274   3.639  0.2612 -0.0900 -0.0704
13147TIP3    H139382   3.952   4.331   3.564 -0.9710  0.6505  0.1554
13147TIP3    H239383   3.933   4.334   3.714 -2.0085 -0.1982  0.0483
13148TIP3   OH239384   6.439   0.089   4.678  0.1690 -0.4449 -0.4271
13148TIP3    H139385   6.363   0.145   4.694 -0.2140 -1.1291  0.2014
13148TIP3    H239386   6.494   0.100   4.755 -1.4411 -3.3602  1.3037
13149TIP3   OH239387   1.248   0.456   2.167 -0.4623  0.5029  0.5663
13149TIP3    H139388   1.187   0.420   2.230 -0.9719  1.5545  0.6872
13149TIP3    H239389   1.319   0.493   2.220 -0.3151  0.3635  0.4698
13150TIP3   OH239390   2.607   7.718   1.654  0.2426 -0.0062  0.1707
13150TIP3    H139391   2.672   7.781   1.685 -0.1688  0.5465 -0.0622
13150TIP3    H239392   2.544   7.771   1.605 -0.0118 -0.6301 -0.1916
13151TIP3   OH239393   5.170   3.500   4.288 -0.3393  0.4698 -0.3381
13151TIP3    H139394   5.114   3.567   4.249  0.9234  0.5987 -2.0545
13151TIP3    H239395   5.232   3.549   4.342  0.0461  0.6145 -0.9076
13152TIP3   OH239396   2.912   4.040   4.868 -0.1791 -0.1319 -0.0284
13152TIP3    H139397   2.944   4.094   4.796 -1.7247 -0.6337 -1.1512
13152TIP3    H239398   2.823   4.072   4.884  0.1400 -0.0136  1.7145
13153TIP3   OH239399   0.391   3.022   5.655  0.5061 -0.4444 -0.0574
13153TIP3    H139400   0.348   2.941   5.683  2.3262 -1.4872 -0.1316
13153TIP3    H239401   0.455   3.040   5.724 -0.1994  1.2430  0.2083
13154TIP3   OH239402   8.167   5.903   5.937 -1.0555 -1.0121 -0.6277
13154TIP3    H139403   8.161   5.808   5.924 -0.2699 -1.0387 -0.8961
13154TIP3    H239404   8.124   5.941   5.860  1.0717 -1.1711 -1.9857
13155TIP3   OH239405   2.250   5.919   3.707  0.1560 -0.6565 -0.3493
13155TIP3    H139406   2.282   5.829   3.695  0.0904 -0.6742 -0.3915
13155TIP3    H239407   2.156   5.913   3.689  0.6644  0.0901 -3.8449
13156TIP3   OH239408   5.229   3.724   5.937 -0.4116 -0.3012 -0.2261
13156TIP3    H139409   5.178   3.645   5.915  0.9589 -0.7241 -2.1750
13156TIP3    H239410   5.197   3.791   5.876 -0.2184  0.0824  0.0918
13157TIP3   OH239411   4.551   7.336   4.686 -0.6456  0.7616  0.2409
13157TIP3    H139412   4.544   7.431   4.676 -0.9814  0.7167  0.0363
13157TIP3    H239413   4.482   7.301   4.629 -2.0782  0.4703  2.0373
13158TIP3   OH239414   1.921   5.874   4.559  0.2002 -0.4771  0.3017
13158TIP3    H139415   1.872   5.932   4.500  0.4676 -0.4264  0.1281
13158TIP3    H239416   1.864   5.863   4.635  0.8001  1.3336  1.0703
13159TIP3   OH239417   0.918   5.452   5.071  0.0388 -0.4168  0.7497
13159TIP3    H139418   0.949   5.445   5.162 -3.0266 -3.3942  1.7742
13159TIP3    H239419   0.823   5.459   5.078 -0.3562 -1.2981 -2.2522
13160TIP3   OH239420   1.853   2.358   1.658 -0.0239 -0.2751  0.6381
13160TIP3    H139421   1.801   2.419   1.711  1.9370  1.0680  1.1079
13160TIP3    H239422   1.796   2.336   1.584 -0.8261  2.0932  0.4731
13161TIP3   OH239423   6.649   2.483   3.681 -0.1250 -0.4305 -0.2999
13161TIP3    H139424   6.613   2.407   3.727 -1.5006  0.4093  0.0817
13161TIP3    H239425   6.572   2.531   3.650  0.7393 -0.2540 -2.3483
13162TIP3   OH239426   7.988   6.064   4.624  0.7338  0.0001  0.5068
13162TIP3    H139427   7.991   6.039   4.716  0.4383  0.3349  0.6101
13162TIP3    H239428   7.898   6.045   4.597  1.4457 -2.4975 -0.4104
13163TIP3   OH239429   3.967   3.356   4.668 -0.1528 -0.3844 -0.1448
13163TIP3    H139430   3.882   3.367   4.711 -1.0271  0.3801 -1.9759
13163TIP3    H239431   3.979   3.261   4.664  0.2144 -0.4960  2.1555
13164TIP3   OH239432   1.741   2.127   1.057 -0.2695 -0.4647  0.3200
13164TIP3    H139433   1.685   2.053   1.031 -0.3521 -0.6607  1.0337
13164TIP3    H239434   1.754   2.177   0.976 -1.0484 -0.7042  0.0394
13165TIP3   OH239435   3.047   2.194   4.499  0.2008  0.2362  0.0862
13165TIP3    H139436   3.133   2.211   4.538  0.8384 -0.2086 -1.1019
13165TIP3    H239437   3.053   2.105   4.464 -1.3895 -0.5627  1.6321
13166TIP3   OH239438   3.774   5.765   6.086  0.2642  0.5060 -0.0575
13166TIP3    H139439   3.713   5.806   6.148  1.1691  0.4391  0.9059
13166TIP3    H239440   3.836   5.717   6.141 -0.5408 -1.9299 -1.1255
13167TIP3   OH239441   2.987   4.589   6.086 -0.2213  0.7879  0.2507
13167TIP3    H139442   2.944   4.616   6.167 -1.2320 -1.1934  0.4360
13167TIP3    H239443   2.921   4.602   6.018  0.0373  0.8597  0.0100
13168TIP3   OH239444   3.041   0.346   3.447  0.2877 -0.8939 -0.2445
13168TIP3    H139445   3.006   0.276   3.393 -2.4556  2.2859 -3.0238
13168TIP3    H239446   3.121   0.373   3.402  0.6164 -1.2723  0.0895
13169TIP3   OH239447   7.745   2.336   5.989 -0.0300 -0.5738 -0.3558
13169TIP3    H139448   7.757   2.408   5.927 -0.8020 -0.6393 -0.5896
13169TIP3    H239449   7.713   2.263   5.935 -3.9335  0.2891  0.4771
13170TIP3   OH239450   7.261   5.184   2.169 -0.0332  0.3904 -0.4022
13170TIP3    H139451   7.298   5.135   2.243 -0.8669 -0.4018 -0.4998
13170TIP3    H239452   7.178   5.217   2.202 -2.1642 -2.8989 -1.9629
13171TIP3   OH239453   0.644   7.076   6.281 -0.2737  0.4947 -0.5125
13171TIP3    H139454   0.670   7.028   6.202  1.0379  1.6736 -0.8210
13171TIP3    H239455   0.566   7.125   6.255  0.5568  1.4274 -1.3091
13172TIP3   OH239456   4.119   0.197   2.259  0.1134  0.5829 -0.0059
13172TIP3    H139457   4.067   0.228   2.333  0.7836  0.9661  0.3128
13172TIP3    H239458   4.117   0.102   2.265 -0.7394  0.5918 -0.1305
13173TIP3   OH239459   7.823   3.185   0.639  0.0198  0.4193  0.3935
13173TIP3    H139460   7.850   3.240   0.712  2.6512 -0.5300  0.2324
13173TIP3    H239461   7.788   3.106   0.679 -1.7792  1.2818  0.6015
13174TIP3   OH239462   1.510   0.307   4.781  0.7462 -0.3574  0.0529
13174TIP3    H139463   1.541   0.377   4.839 -0.6449  0.7722 -0.5080
13174TIP3    H239464   1.506   0.347   4.695 -1.0503 -0.7894 -0.1080
13175TIP3   OH239465   3.056   3.914   3.914 -0.5224  0.9940 -0.4484
13175TIP3    H139466   3.084   4.006   3.912  1.3075  0.6102  2.3171
13175TIP3    H239467   2.970   3.916   3.957 -0.9669  1.4616 -1.3279
13176TIP3   OH239468   1.666   1.598   0.423 -0.0122  0.0481  0.5552
13176TIP3    H139469   1.600   1.663   0.397  0.0026  0.8731  2.4705
13176TIP3    H239470   1.615   1.522   0.450 -0.0316 -1.6049 -3.3654
13177TIP3   OH239471   0.633   1.502   5.577 -0.5138 -0.1623 -0.0100
13177TIP3    H139472   0.698   1.570   5.557  0.4084 -0.8780  0.4365
13177TIP3    H239473   0.671   1.456   5.652 -1.0850 -1.2140 -0.3603
13178TIP3   OH239474   4.997   3.837   1.294  0.2258 -0.1563  0.4215
13178TIP3    H139475   4.976   3.756   1.341 -2.3753  0.5082  0.5789
13178TIP3    H239476   4.911   3.876   1.275  1.3111  1.2560 -1.9923
13179TIP3   OH239477   4.589   0.229   4.555 -0.3509  0.0046  0.4985
13179TIP3    H139478   4.602   0.324   4.563 -0.4976  0.4930 -3.2704
13179TIP3    H239479   4.678   0.194   4.552 -0.2648  0.2387  0.2481
13180TIP3   OH239480   2.750   0.326   6.334 -0.1468  0.1471 -0.3638
13180TIP3    H139481   2.740   0.411   6.376 -1.5425  0.3298 -0.9897
13180TIP3    H239482   2.774   0.267   6.404 -1.5704  0.6066  0.5579
13181TIP3   OH239483   8.131   3.175   5.557  0.7849  0.7593  0.5342
13181TIP3    H139484   8.181   3.108   5.604 -0.4970 -0.3739  0.3370
13181TIP3    H239485   8.094   3.230   5.626  2.0883  1.4662  0.6875
13182TIP3   OH239486   2.324   2.588   0.402 -0.2866 -0.1347  0.2475
13182TIP3    H139487   2.372   2.516   0.444  1.2207 -0.2635 -1.5813
13182TIP3    H239488   2.286   2.549   0.324  1.6938  1.2572 -1.5169
13183TIP3   OH239489   5.374   6.057   0.852  0.3867 -0.0446 -0.3018
13183TIP3    H139490   5.321   5.998   0.798 -1.1192  1.6394 -0.7618
13183TIP3    H239491   5.338   6.047   0.940  0.6088 -0.3348 -0.2436
13184TIP3   OH239492   3.037   5.145   4.278  0.0681  0.0933  0.1337
13184TIP3    H139493   2.961   5.101   4.316 -0.3518  1.5106  1.0299
13184TIP3    H239494   3.027   5.237   4.304  1.2887  0.5973 -1.0316
13185TIP3   OH239495   1.676   2.224   0.215 -0.7444 -0.5051  0.1177
13185TIP3    H139496   1.586   2.251   0.233  0.0370  1.4260  1.5063
13185TIP3    H239497   1.716   2.299   0.171  0.7315 -0.4181  1.4797
13186TIP3   OH239498   5.940   6.957   4.171  0.4744  0.8618 -0.7318
13186TIP3    H139499   6.011   6.910   4.214 -0.2914  1.3105  1.1408
13186TIP3    H239500   5.983   7.028   4.124  1.3123  0.9858  0.1786
13187TIP3   OH239501   8.203   2.960   4.122 -0.1464 -0.0782 -0.3470
13187TIP3    H139502   8.129   3.006   4.084 -0.6276 -0.7711 -0.2677
13187TIP3    H239503   8.247   2.918   4.048 -1.8684 -2.5690 -0.0855
13188TIP3   OH239504   0.221   7.339   5.974  0.1541 -0.1693 -0.0245
13188TIP3    H139505   0.225   7.340   5.878 -3.0514  1.2513 -0.2531
13188TIP3    H239506   0.136   7.299   5.994 -0.9434  2.8763  2.0308
13189TIP3   OH239507   1.746   7.517   5.106 -0.1477 -0.2661 -0.3422
13189TIP3    H139508   1.659   7.479   5.122 -0.6095  0.4425 -1.0500
13189TIP3    H239509   1.741   7.548   5.016  1.7506 -2.5598 -1.3343
13190TIP3   OH239510   6.825   2.195   3.473  0.5854 -0.5428  0.0946
13190TIP3    H139511   6.816   2.100   3.476  1.2758 -0.6337 -0.4177
13190TIP3    H239512   6.884   2.217   3.545  2.1375 -0.7442 -1.0684
13191TIP3   OH239513   2.855   1.575   4.522 -0.2381  0.1819  0.0995
13191TIP3    H139514   2.804   1.517   4.465 -0.8559  1.0987 -0.3094
13191TIP3    H239515   2.799   1.587   4.599 -0.6468  1.1616 -0.3346
13192TIP3   OH239516   6.178   5.481   1.702  0.0583 -0.0811 -0.4422
13192TIP3    H139517   6.150   5.539   1.772  0.3035 -0.2092 -0.2377
13192TIP3    H239518   6.106   5.483   1.639 -0.6878 -0.8617  0.3466
13193TIP3   OH239519   7.096   3.201   4.238 -0.0794 -0.2106 -0.4692
13193TIP3    H139520   7.111   3.295   4.224  1.3067 -0.3863 -0.2647
13193TIP3    H239521   7.034   3.176   4.169 -1.8821  1.1963  0.5357
13194TIP3   OH239522   4.004   6.135   6.488  0.9271 -0.0687 -0.6543
13194TIP3    H139523   4.049   6.163   6.408 -0.9870  0.5271 -1.5782
13194TIP3    H239524   3.918   6.107   6.458 -0.1718  1.0342  1.2996
13195TIP3   OH239525   5.583   7.226   5.053 -0.8051 -0.1515 -0.6048
13195TIP3    H139526   5.615   7.170   5.124 -0.6392 -1.2549 -1.5210
13195TIP3    H239527   5.654   7.288   5.037 -0.2970 -0.7468 -0.6847
13196TIP3   OH239528   6.894   3.653   0.772  0.0367  0.3638  0.0662
13196TIP3    H139529   6.983   3.665   0.806 -0.1668 -0.6642  1.0072
13196TIP3    H239530   6.872   3.737   0.731  0.2964  1.6903  2.5163
13197TIP3   OH239531   1.098   1.965   2.322 -0.1361 -0.3525 -0.6041
13197TIP3    H139532   1.137   1.950   2.408  0.8994 -0.2315 -1.0455
13197TIP3    H239533   1.042   2.042   2.334 -0.3838 -0.6288  0.0733
13198TIP3   OH239534   1.210   1.646   5.385  0.2141 -0.1331 -0.2654
13198TIP3    H139535   1.150   1.590   5.335  0.4602  0.8261 -1.7054
13198TIP3    H239536   1.225   1.722   5.328  1.3914  0.4945  0.8267
13199TIP3   OH239537   3.259   1.948   3.581 -0.4662 -0.1275 -0.4569
13199TIP3    H139538   3.194   2.013   3.608  0.6995  0.6962  0.4943
13199TIP3    H239539   3.305   1.925   3.662  1.4058  0.4393 -1.2964
13200TIP3   OH239540   5.237   4.031   2.585  0.1121 -0.1461  0.2002
13200TIP3    H139541   5.282   4.002   2.664  0.6598 -0.4529 -0.2208
13200TIP3    H239542   5.149   4.053   2.615 -0.0924 -1.5146  0.6656
13201TIP3   OH239543   0.480   7.559   1.214  0.2805 -0.0451  0.1287
13201TIP3    H139544   0.461   7.466   1.205  1.4894 -0.2717 -0.2740
13201TIP3    H239545   0.478   7.575   1.309  2.1561 -0.9814  0.3788
13202TIP3   OH239546   2.073   7.885   2.746 -0.0295 -0.0044 -0.5399
13202TIP3    H139547   2.070   7.845   2.833  0.0388 -0.2577 -0.6547
13202TIP3    H239548   2.097   7.977   2.764 -1.0236  0.2010 -0.2165
13203TIP3   OH239549   2.583   3.408   0.479 -0.0358  0.4276 -0.5098
13203TIP3    H139550   2.497   3.446   0.464 -0.5680 -0.6534 -0.2725
13203TIP3    H239551   2.568   3.340   0.544  1.3033  1.3965  0.8810
13204TIP3   OH239552   7.875   3.391   5.304  0.1213  0.1625  0.2362
13204TIP3    H139553   7.798   3.343   5.277  2.4971 -4.0941  0.1623
13204TIP3    H239554   7.853   3.426   5.391 -1.7851 -1.1720  0.3490
13205TIP3   OH239555   2.237   3.040   1.797 -0.0188 -0.0244  0.1746
13205TIP3    H139556   2.204   2.957   1.761  0.5773 -0.2860  0.2291
13205TIP3    H239557   2.227   3.103   1.725 -0.3396 -0.1731  0.0866
13206TIP3   OH239558   2.294   2.342   6.592 -0.0900  0.0531  0.4981
13206TIP3    H139559   2.311   2.434   6.608 -0.2161 -0.0239  1.0863
13206TIP3    H239560   2.338   2.324   6.509 -1.8056  1.1301 -0.7112
13207TIP3   OH239561   3.835   4.766   6.270  0.3551 -0.6542 -0.3089
13207TIP3    H139562   3.826   4.775   6.365  0.4319  1.0971 -0.4308
13207TIP3    H239563   3.929   4.763   6.255  0.5054  2.3163 -0.5029
13208TIP3   OH239564   2.624   5.276   2.870 -0.0679  0.0928  0.3155
13208TIP3    H139565   2.604   5.259   2.778  1.4316 -3.8123  0.5140
13208TIP3    H239566   2.538   5.281   2.912 -0.7678  1.2962 -1.1595
13209TIP3   OH239567   0.510   3.365   5.324 -0.5726 -0.6454 -0.5182
13209TIP3    H139568   0.468   3.432   5.270 -0.6975  0.3251  0.7681
13209TIP3    H239569   0.604   3.375   5.307 -0.6024 -0.2623 -0.4477
13210TIP3   OH239570   5.762   5.511   5.039 -0.3075  0.8130 -0.0536
13210TIP3    H139571   5.738   5.561   4.961  0.0693 -0.1483 -0.8053
13210TIP3    H239572   5.703   5.543   5.107 -1.7396  0.5393 -1.1262
13211TIP3   OH239573   6.763   5.423   2.659  0.1250  0.1702  0.1659
13211TIP3    H139574   6.695   5.356   2.656  0.9398 -0.6752  0.1479
13211TIP3    H239575   6.836   5.381   2.705  0.5323  1.1486  0.4272
13212TIP3   OH239576   4.370   0.636   4.996 -0.4280 -0.3240  0.2345
13212TIP3    H139577   4.309   0.632   5.070 -0.9925  1.0982 -0.1241
13212TIP3    H239578   4.452   0.665   5.034 -0.1525 -1.4936  0.5926
13213TIP3   OH239579   4.927   0.074   6.556  0.1641  0.8059 -0.1702
13213TIP3    H139580   4.850   0.062   6.501  0.0065  2.5884 -0.4065
13213TIP3    H239581   4.892   0.100   6.641  0.4766  0.7532 -0.0232
13214TIP3   OH239582   6.296   5.056   2.698  0.3938  0.0660  0.3684
13214TIP3    H139583   6.266   5.038   2.787  2.2340 -0.7164  0.8825
13214TIP3    H239584   6.272   4.977   2.648 -0.0420  0.2249  0.3247
13215TIP3   OH239585   3.909   6.775   2.450 -0.3267  0.3865  0.3066
13215TIP3    H139586   3.986   6.796   2.504 -0.6703  0.9412  0.5888
13215TIP3    H239587   3.834   6.791   2.507 -0.6884  0.8373 -0.2821
13216TIP3   OH239588   2.541   4.024   2.399 -0.1507  0.0162  0.0300
13216TIP3    H139589   2.626   3.987   2.422 -0.2939  0.0037  0.5456
13216TIP3    H239590   2.478   3.972   2.448 -0.3467  1.0387  0.9046
13217TIP3   OH239591   3.811   4.818   6.532 -0.1112  0.0874 -0.6086
13217TIP3    H139592   3.738   4.880   6.531 -1.2099 -1.0892  1.0568
13217TIP3    H239593   3.815   4.786   6.622  1.0629 -1.5203 -1.1670
13218TIP3   OH239594   6.197   0.082   0.999  0.6830  0.5634  0.1306
13218TIP3    H139595   6.122   0.031   0.969  2.3781 -1.7253 -0.5097
13218TIP3    H239596   6.185   0.168   0.959 -1.9090  0.4861  0.6176
13219TIP3   OH239597   6.844   2.418   6.502  0.8952 -0.0725 -0.2017
13219TIP3    H139598   6.781   2.450   6.439 -1.7830 -3.2652  0.5791
13219TIP3    H239599   6.861   2.493   6.560 -2.8090  0.8141 -0.0329
13220TIP3   OH239600   4.521   5.150   5.698 -0.5210 -0.1994  0.0320
13220TIP3    H139601   4.605   5.122   5.733  0.6396  0.2461 -2.2079
13220TIP3    H239602   4.473   5.068   5.682  0.1118 -0.5410 -0.1325
13221TIP3   OH239603   1.719   5.410   1.308 -0.1701  0.1703  0.0868
13221TIP3    H139604   1.684   5.496   1.331  1.3384  0.6101  0.9474
13221TIP3    H239605   1.648   5.366   1.262 -1.0510  1.7985 -0.1953
13222TIP3   OH239606   0.684   5.618   3.285  0.4481 -1.0597  0.1431
13222TIP3    H139607   0.669   5.690   3.223 -0.9024 -0.9379  0.5626
13222TIP3    H239608   0.778   5.601   3.280  0.8495  0.8732  0.1648
13223TIP3   OH239609   2.331   5.031   2.787  0.1336 -0.1086 -0.1925
13223TIP3    H139610   2.318   5.120   2.820  0.1146 -0.0442 -0.3750
13223TIP3    H239611   2.256   4.982   2.819 -0.9646  0.4159 -1.8245
13224TIP3   OH239612   6.439   6.102   1.778  0.0127  0.2785  0.3187
13224TIP3    H139613   6.428   6.056   1.862  0.9803 -0.6940 -0.0704
13224TIP3    H239614   6.353   6.096   1.736  0.0027 -0.8113  0.4678
13225TIP3   OH239615   2.228   3.871   3.294  0.4179 -0.6451 -0.5722
13225TIP3    H139616   2.167   3.936   3.328 -0.3886 -0.5972 -2.0143
13225TIP3    H239617   2.210   3.792   3.345  0.7497 -0.0236  0.5465
13226TIP3   OH239618   2.514   0.159   1.422 -0.1206 -0.0057  0.6333
13226TIP3    H139619   2.577   0.222   1.385  0.3722  0.0222  1.5029
13226TIP3    H239620   2.444   0.154   1.356 -0.4838  1.9329  0.7953
13227TIP3   OH239621   0.041   1.352   2.471  0.7697 -1.3136 -0.1075
13227TIP3    H139622   0.130   1.321   2.457  1.3537  0.7398 -1.3716
13227TIP3    H239623   0.003   1.360   2.384  0.0376 -0.3352  0.2698
13228TIP3   OH239624   6.783   6.793   4.846  0.1202  0.2463  0.4721
13228TIP3    H139625   6.699   6.837   4.859  0.2296  0.3990  0.6751
13228TIP3    H239626   6.771   6.740   4.767  0.9163  3.0356 -1.7293
13229TIP3   OH239627   1.987   0.469   3.486 -0.0959 -0.0092 -0.2037
13229TIP3    H139628   1.944   0.494   3.404 -1.2045  1.1213  0.6809
13229TIP3    H239629   1.919   0.477   3.552  0.8461 -0.6709  0.8814
13230TIP3   OH239630   5.438   6.018   6.411 -0.4305  0.5805 -0.3555
13230TIP3    H139631   5.470   6.019   6.501 -0.9697  0.0640 -0.1463
13230TIP3    H239632   5.483   5.945   6.370  1.3024  1.9911 -1.0981
13231TIP3   OH239633   5.986   7.061   1.772 -0.0684  0.2568 -0.2033
13231TIP3    H139634   6.026   6.974   1.765  0.4018  0.5535 -1.4386
13231TIP3    H239635   6.050   7.120   1.732 -0.6310  1.1001  0.1171
13232TIP3   OH239636   1.475   0.360   3.671  0.2617 -0.1872  0.3489
13232TIP3    H139637   1.495   0.287   3.612  1.1836  0.0557  0.3396
13232TIP3    H239638   1.561   0.394   3.697 -0.1494  0.6490  0.6580
13233TIP3   OH239639   4.803   4.379   0.195 -0.2353  0.5075 -0.3493
13233TIP3    H139640   4.811   4.331   0.278 -0.4707  0.6389 -0.2496
13233TIP3    H239641   4.748   4.322   0.140  0.7911 -0.0795 -0.7974
13234TIP3   OH239642   3.367   1.878   2.400 -0.5061 -0.4083  0.0889
13234TIP3    H139643   3.304   1.946   2.424 -1.1558 -0.9732  0.0173
13234TIP3    H239644   3.449   1.905   2.441 -1.3612 -0.9043  2.2697
13235TIP3   OH239645   4.449   1.094   1.457  0.6024 -0.4270  0.3351
13235TIP3    H139646   4.383   1.163   1.448  0.7544 -0.5067 -2.5414
13235TIP3    H239647   4.533   1.141   1.462  0.5593 -0.3621  0.4324
13236TIP3   OH239648   5.086   6.402   3.333  0.3883  0.4411 -0.7232
13236TIP3    H139649   5.099   6.307   3.336  1.6422  0.5616 -1.3508
13236TIP3    H239650   4.995   6.414   3.307  0.5106 -0.6031 -1.6822
13237TIP3   OH239651   7.189   3.899   2.009 -0.1881  0.0930  0.0643
13237TIP3    H139652   7.132   3.961   1.964 -0.8245 -1.1473 -0.9002
13237TIP3    H239653   7.216   3.944   2.089 -2.7164  0.6441  0.6742
13238TIP3   OH239654   7.891   2.020   5.878  0.2695 -0.4000  0.0623
13238TIP3    H139655   7.966   2.064   5.917  0.0990 -0.9253  1.0252
13238TIP3    H239656   7.882   1.940   5.930  0.1370 -1.2147 -1.1822
13239TIP3   OH239657   4.343   4.083   3.970  0.8827 -0.2575 -0.0823
13239TIP3    H139658   4.304   4.121   3.891  2.8863 -1.1879 -1.6325
13239TIP3    H239659   4.432   4.117   3.971  1.3000 -1.2931  1.0574
13240TIP3   OH239660   5.587   7.179   3.942  0.5635  0.2052  0.3132
13240TIP3    H139661   5.586   7.256   3.998 -0.5016 -0.9778  2.0275
13240TIP3    H239662   5.632   7.112   3.995  0.8725 -0.5348 -0.8563
13241TIP3   OH239663   0.879   1.491   2.817  0.1453  0.4269  0.0635
13241TIP3    H139664   0.823   1.416   2.838 -1.1564  0.4577 -2.8322
13241TIP3    H239665   0.863   1.554   2.887 -2.8016  0.0558 -0.1631
13242TIP3   OH239666   2.612   1.676   0.169 -0.1180 -0.2955 -0.0764
13242TIP3    H139667   2.528   1.685   0.123 -0.2435  0.1973  0.2484
13242TIP3    H239668   2.652   1.763   0.163 -0.1355 -0.2274  0.7472
13243TIP3   OH239669   2.138   2.782   0.343  0.0029  0.3117  0.2755
13243TIP3    H139670   2.205   2.713   0.344 -0.6052 -0.2860  0.8302
13243TIP3    H239671   2.124   2.801   0.250  0.2396 -0.2472  0.1229
13244TIP3   OH239672   1.811   2.406   0.893 -0.3382  0.1897 -0.4040
13244TIP3    H139673   1.893   2.436   0.933  0.1516  0.0147 -1.2434
13244TIP3    H239674   1.835   2.386   0.802 -0.5934 -2.8383  0.0850
13245TIP3   OH239675   0.253   3.543   2.695 -0.5982 -0.4211 -0.5988
13245TIP3    H139676   0.249   3.550   2.790 -0.5675 -0.0655 -0.6243
13245TIP3    H239677   0.245   3.633   2.663 -0.4475 -0.5209 -0.9279
13246TIP3   OH239678   0.248   6.540   2.991  0.3797 -0.6516 -0.8418
13246TIP3    H139679   0.218   6.630   3.001 -1.7382 -0.8853 -3.8931
13246TIP3    H239680   0.178   6.487   3.031  1.7476 -1.0383  1.2051
13247TIP3   OH239681   5.750   6.034   6.039 -0.1531  0.6784 -0.2857
13247TIP3    H139682   5.836   6.014   6.003 -1.0321 -1.2746 -1.4205
13247TIP3    H239683   5.766   6.048   6.133  1.1778 -1.3374 -0.1567
13248TIP3   OH239684   0.960   4.687   1.822  0.3209  0.1238 -0.2448
13248TIP3    H139685   0.990   4.704   1.732  1.5930  3.1634  0.6092
13248TIP3    H239686   1.013   4.613   1.851  0.2255 -0.6026 -1.8263
13249TIP3   OH239687   8.390   7.212   6.003  0.5453 -0.0351  0.4490
13249TIP3    H139688   8.384   7.186   5.911  0.4221 -0.9424  0.6998
13249TIP3    H239689   8.329   7.285   6.012  0.2663 -0.1967 -0.0986
13250TIP3   OH239690   1.205   5.726   3.205  0.5069  0.2766  0.2019
13250TIP3    H139691   1.248   5.811   3.193  0.5415  0.3441  0.7709
13250TIP3    H239692   1.228   5.676   3.127  1.9981  0.1455  0.7069
13251TIP3   OH239693   6.228   1.157   1.002  0.4582 -0.4110 -0.0066
13251TIP3    H139694   6.239   1.076   0.952 -1.2215  0.7647 -2.4547
13251TIP3    H239695   6.305   1.210   0.978  0.6365 -0.5692  0.2037
13252TIP3   OH239696   8.224   6.290   1.845 -0.4414 -0.2069 -0.9831
13252TIP3    H139697   8.177   6.215   1.808 -0.0929 -0.7772 -0.2847
13252TIP3    H239698   8.230   6.272   1.938 -0.4347  0.7452 -0.7816
13253TIP3   OH239699   2.084   0.347   6.288 -0.5829  0.0714  0.3809
13253TIP3    H139700   2.099   0.435   6.324 -0.7498  0.7974 -1.2580
13253TIP3    H239701   1.991   0.330   6.306 -1.0825  1.1029 -1.0552
13254TIP3   OH239702   7.782   7.159   4.980  0.0510  0.2624 -0.6675
13254TIP3    H139703   7.809   7.170   5.071  1.0538  2.1630 -1.1406
13254TIP3    H239704   7.688   7.141   4.985  0.3766 -1.2450  0.7840
13255TIP3   OH239705   5.938   4.355   1.236  0.1661  0.1351 -0.4186
13255TIP3    H139706   5.991   4.350   1.316  2.8596 -0.1756 -2.0791
13255TIP3    H239707   5.996   4.323   1.167 -2.5320 -1.0180 -2.3272
13256TIP3   OH239708   5.660   6.106   4.512  0.6452  0.4398  0.3813
13256TIP3    H139709   5.709   6.043   4.564 -0.2774 -0.2428  0.4612
13256TIP3    H239710   5.667   6.075   4.422 -1.4505 -0.9798  0.6333
13257TIP3   OH239711   0.598   6.683   4.599  0.3526 -0.0233  0.7249
13257TIP3    H139712   0.647   6.726   4.669  1.0668  0.9640 -0.3480
13257TIP3    H239713   0.573   6.754   4.540 -0.8732 -0.7426  0.3415
13258TIP3   OH239714   5.554   6.229   4.173 -0.0376  0.2567 -0.0580
13258TIP3    H139715   5.482   6.170   4.195 -0.8475  0.7251 -1.3577
13258TIP3    H239716   5.553   6.294   4.243 -0.5657 -0.0129  0.1956
13259TIP3   OH239717   4.993   5.426   3.916 -0.3160 -0.1967  0.3525
13259TIP3    H139718   4.948   5.347   3.887  3.3431 -2.0502 -0.7588
13259TIP3    H239719   5.083   5.399   3.935  1.5958  3.9039 -1.5432
13260TIP3   OH239720   1.614   1.899   5.082 -0.2785 -0.5464 -0.2308
13260TIP3    H139721   1.602   1.992   5.063  1.1653 -0.4332 -0.7422
13260TIP3    H239722   1.526   1.867   5.102 -0.6447  1.1994  1.2145
13261TIP3   OH239723   7.668   0.587   6.651  0.0348  0.2674  0.1296
13261TIP3    H139724   7.575   0.585   6.675  0.1913  0.5567  0.7683
13261TIP3    H239725   7.695   0.678   6.664  0.2330  0.3420 -0.7459
13262TIP3   OH239726   8.021   1.121   0.792 -0.3018 -0.1977  0.0589
13262TIP3    H139727   7.960   1.052   0.818 -1.6885  1.1877  0.6485
13262TIP3    H239728   7.986   1.200   0.833  1.2046  0.8698 -0.6401
13263TIP3   OH239729   6.541   5.240   6.776  0.0011 -0.3078  0.2541
13263TIP3    H139730   6.561   5.189   6.698 -0.8002 -0.9721  0.4651
13263TIP3    H239731   6.482   5.309   6.745  1.0097  0.4510 -0.0139
13264TIP3   OH239732   7.051   2.066   4.983 -0.5543 -0.2812 -0.2500
13264TIP3    H139733   7.061   2.011   4.905  2.5297  1.0074 -0.9234
13264TIP3    H239734   6.986   2.132   4.958  1.2408  0.8464 -2.3081
13265TIP3   OH239735   0.534   5.383   2.525 -0.3645 -0.3502 -0.1754
13265TIP3    H139736   0.566   5.315   2.464 -0.8724 -0.4121 -0.3759
13265TIP3    H239737   0.511   5.335   2.604  1.1975 -0.1539  0.4264
13266TIP3   OH239738   3.297   6.528   0.964  0.4586  0.3043  0.1013
13266TIP3    H139739   3.366   6.478   1.007  0.0547 -0.4302 -0.0957
13266TIP3    H239740   3.344   6.584   0.901  0.8688 -0.2493 -0.0948
13267TIP3   OH239741   6.711   6.677   6.312 -0.1885 -0.3099 -0.0504
13267TIP3    H139742   6.741   6.678   6.221 -0.1747  1.3748 -0.0561
13267TIP3    H239743   6.779   6.723   6.360  0.1022 -1.7047  0.9510
13268TIP3   OH239744   6.490   6.909   5.253  0.2136 -0.3460  0.7001
13268TIP3    H139745   6.465   7.000   5.264  1.2230 -0.0404  0.5447
13268TIP3    H239746   6.467   6.868   5.336  0.0996  0.1351  0.9079
13269TIP3   OH239747   7.683   6.000   3.794 -0.5072  0.4953  0.2005
13269TIP3    H139748   7.751   5.955   3.844  0.1265  1.1733 -0.0374
13269TIP3    H239749   7.624   5.930   3.766 -0.0071 -0.0805  0.5540
13270TIP3   OH239750   7.095   5.955   2.932 -0.6225 -0.0543 -0.3114
13270TIP3    H139751   7.074   5.885   2.995  1.2819  0.6439  1.1978
13270TIP3    H239752   7.012   6.002   2.921 -0.7685  0.6845  2.8875
13271TIP3   OH239753   0.910   6.921   1.690  0.1407 -0.0147  0.2179
13271TIP3    H139754   0.970   6.904   1.762 -2.2116 -1.2018  2.0384
13271TIP3    H239755   0.901   6.837   1.645  0.7628  0.4661 -0.8554
13272TIP3   OH239756   4.589   0.977   0.847 -0.3824 -0.4531 -0.0128
13272TIP3    H139757   4.614   0.885   0.855 -1.1457 -0.6789 -0.0649
13272TIP3    H239758   4.501   0.980   0.885 -0.2570  0.3079  0.2260
13273TIP3   OH239759   7.244   4.932   5.074 -0.2936  0.4289 -0.7324
13273TIP3    H139760   7.296   4.863   5.114  1.0620  1.0447 -1.3741
13273TIP3    H239761   7.190   4.887   5.009 -2.3835 -0.5615  1.4790
13274TIP3   OH239762   0.656   1.978   5.364  0.3989  0.0617 -0.3156
13274TIP3    H139763   0.715   2.053   5.356 -0.3483  0.6695 -0.3509
13274TIP3    H239764   0.637   1.952   5.274 -2.0500  2.0709 -0.5083
13275TIP3   OH239765   4.367   6.943   0.479 -0.4441 -0.5526 -0.2166
13275TIP3    H139766   4.443   6.995   0.504 -1.2055  0.2441  0.5003
13275TIP3    H239767   4.403   6.873   0.424  1.0066 -1.0921  1.3311
13276TIP3   OH239768   8.148   5.058   1.797 -0.1260 -0.1053  0.6136
13276TIP3    H139769   8.221   5.118   1.813  1.1123 -1.6448  1.0312
13276TIP3    H239770   8.184   4.971   1.816 -2.2022 -0.8954  1.2087
13277TIP3   OH239771   2.944   6.286   3.908  0.1811  0.0976 -0.5611
13277TIP3    H139772   2.903   6.246   3.984  1.8513  1.1546  1.0068
13277TIP3    H239773   3.007   6.220   3.877 -0.1336 -0.1392 -0.6925
13278TIP3   OH239774   0.749   1.683   2.081 -0.6769 -0.2375  0.0604
13278TIP3    H139775   0.821   1.680   2.144 -0.7755 -1.5561  0.1282
13278TIP3    H239776   0.719   1.774   2.084  2.3045  0.9251 -1.5053
13279TIP3   OH239777   4.784   1.442   0.906  0.1644  0.5457  0.3638
13279TIP3    H139778   4.748   1.506   0.845  1.8459  1.0906 -0.1201
13279TIP3    H239779   4.758   1.357   0.869 -0.1473  0.8997 -0.2530
13280TIP3   OH239780   1.165   0.909   0.329  0.5886 -0.0948 -0.0425
13280TIP3    H139781   1.180   0.827   0.376 -0.4894  0.6216  1.6378
13280TIP3    H239782   1.243   0.961   0.345  1.2577 -0.7453 -1.0777
13281TIP3   OH239783   0.128   0.765   0.761  0.2069  0.3749 -0.3699
13281TIP3    H139784   0.211   0.727   0.793  1.0821  2.1577 -0.3944
13281TIP3    H239785   0.060   0.712   0.802  1.3422  0.4882  1.7764
13282TIP3   OH239786   8.023   1.765   5.029  0.0188  0.3637  0.2416
13282TIP3    H139787   7.960   1.787   4.960 -0.7918 -4.4562 -0.9699
13282TIP3    H239788   8.105   1.751   4.982  0.4783  0.8137  0.9001
13283TIP3   OH239789   2.336   5.377   2.674 -0.4046 -0.2434 -0.2723
13283TIP3    H139790   2.407   5.319   2.647  0.3469  0.6983 -0.3354
13283TIP3    H239791   2.372   5.428   2.747 -1.6887 -1.1907  1.1162
13284TIP3   OH239792   2.186   4.422   1.030  0.2132  0.0284 -0.2679
13284TIP3    H139793   2.146   4.507   1.013  1.0496  0.0552 -2.3845
13284TIP3    H239794   2.112   4.360   1.031 -0.2634  0.5931 -0.0539
13285TIP3   OH239795   1.271   6.696   4.011  0.0423 -0.4129 -0.0481
13285TIP3    H139796   1.259   6.607   4.045  0.2545 -0.3418  0.2213
13285TIP3    H239797   1.191   6.742   4.035 -0.9425 -1.0617 -1.9426
13286TIP3   OH239798   5.970   2.008   1.089  0.4111 -0.0103 -0.2710
13286TIP3    H139799   5.989   1.990   0.996  2.3737  1.7717 -0.2788
13286TIP3    H239800   5.918   1.932   1.117  2.0528 -1.9762 -2.1147
13287TIP3   OH239801   2.104   4.353   5.417 -0.6614 -0.1283 -0.3352
13287TIP3    H139802   2.026   4.302   5.395  0.3195 -1.5861 -0.5405
13287TIP3    H239803   2.115   4.341   5.511 -1.6165  1.4765  0.0224
13288TIP3   OH239804   8.377   3.124   2.081 -0.3804  0.7073 -0.1683
13288TIP3    H139805   8.310   3.100   2.017 -0.7821 -0.2160  0.5716
13288TIP3    H239806   8.460   3.108   2.036 -0.6543  0.8338 -0.7261
13289TIP3   OH239807   4.633   2.553   1.414 -0.1808 -0.3525  0.0270
13289TIP3    H139808   4.582   2.611   1.358  0.3722  1.7553  1.5476
13289TIP3    H239809   4.573   2.482   1.437 -0.6662 -0.8218 -2.4530
13290TIP3   OH239810   4.348   2.103   3.921  0.5078 -0.7680  0.6637
13290TIP3    H139811   4.363   2.195   3.939 -0.6753 -0.4887  0.3244
13290TIP3    H239812   4.253   2.096   3.907  0.8548 -1.5970 -1.6923
13291TIP3   OH239813   5.673   6.949   4.078 -0.1372 -0.1512 -0.9696
13291TIP3    H139814   5.613   6.898   4.132  0.2162  0.0558 -0.3798
13291TIP3    H239815   5.753   6.956   4.130 -0.2774  1.2688 -0.9008
13292TIP3   OH239816   6.133   7.024   0.072  0.2362 -0.7371 -0.2061
13292TIP3    H139817   6.067   6.975   0.121 -0.5621 -0.1847 -0.7080
13292TIP3    H239818   6.214   6.975   0.086 -0.1338 -1.0320  1.0013
13293TIP3   OH239819   0.006   5.920   1.767  0.2798  0.6470  0.2766
13293TIP3    H139820   0.015   5.844   1.710  0.0119  1.2764 -0.6374
13293TIP3    H239821   0.069   5.983   1.734 -0.3265  1.2649  0.2590
13294TIP3   OH239822   7.850   7.486   5.845  0.4290 -0.4248  0.0081
13294TIP3    H139823   7.801   7.426   5.901 -1.1189 -0.3964 -1.2571
13294TIP3    H239824   7.831   7.458   5.756  2.3104 -0.0532 -0.5709
13295TIP3   OH239825   1.578   6.157   2.648  0.1232  0.0039 -0.1872
13295TIP3    H139826   1.624   6.199   2.721  2.0569 -0.8699 -0.8607
13295TIP3    H239827   1.486   6.182   2.661  0.6613  1.2771  1.5621
13296TIP3   OH239828   3.878   1.686   6.834 -0.6664 -0.0887  0.2471
13296TIP3    H139829   3.862   1.709   6.742  1.1979  0.8486  0.1040
13296TIP3    H239830   3.913   1.766   6.873 -1.3271 -0.5030  1.7776
13297TIP3   OH239831   6.823   1.599   1.926 -0.5077 -0.5267 -0.0143
13297TIP3    H139832   6.821   1.619   2.019 -3.3231  0.3895 -0.1737
13297TIP3    H239833   6.752   1.652   1.889  0.5631 -0.8174 -2.6928
13298TIP3   OH239834   0.167   3.262   2.325  0.0226 -0.3165 -0.1108
13298TIP3    H139835   0.112   3.337   2.347  0.1706 -0.9829  2.9630
13298TIP3    H239836   0.246   3.274   2.377  1.0368 -1.4791 -1.3222
13299TIP3   OH239837   5.471   2.411   0.978  0.1887  0.2614  0.0808
13299TIP3    H139838   5.445   2.337   0.923  0.1134 -1.5179  2.3395
13299TIP3    H239839   5.467   2.487   0.920  2.5721 -1.7262 -3.0412
13300TIP3   OH239840   6.968   5.652   0.699 -0.2594  0.0644  0.2348
13300TIP3    H139841   6.907   5.584   0.671 -0.4734  0.7417 -0.9797
13300TIP3    H239842   6.913   5.716   0.743  0.0716 -0.9829  2.2945
13301TIP3   OH239843   5.868   1.038   1.107  0.3417 -0.3166  0.5748
13301TIP3    H139844   5.777   1.031   1.135  0.3066  1.2718  0.9144
13301TIP3    H239845   5.919   1.030   1.188  0.4711 -0.4035  0.4858
13302TIP3   OH239846   7.548   1.972   2.285  0.7702  0.1143  0.3500
13302TIP3    H139847   7.499   1.950   2.206 -0.0600  0.6274  0.7025
13302TIP3    H239848   7.620   1.909   2.287  0.7119 -0.0065 -0.7227
13303TIP3   OH239849   0.459   1.166   5.006 -0.6079 -0.2987  0.1303
13303TIP3    H139850   0.482   1.099   5.070  0.0494  0.3834  0.6342
13303TIP3    H239851   0.517   1.150   4.932  0.1421  0.2171  0.5956
13304TIP3   OH239852   7.061   4.908   6.700 -0.0120 -0.2213  0.4258
13304TIP3    H139853   7.139   4.854   6.706  1.2701  1.5060  0.1046
13304TIP3    H239854   7.045   4.916   6.605 -0.8652 -0.9199  0.4958
13305TIP3   OH239855   6.639   1.019   4.279 -0.3319  0.2120 -0.5358
13305TIP3    H139856   6.601   0.933   4.297  2.3795 -0.8895  0.4411
13305TIP3    H239857   6.634   1.065   4.363  2.0414 -0.6702  0.1741
13306TIP3   OH239858   7.192   2.550   3.128  0.4234 -0.3223  0.9478
13306TIP3    H139859   7.218   2.479   3.070  0.4191 -0.0682  0.6281
13306TIP3    H239860   7.181   2.625   3.070  0.9319  0.0713  1.3396
13307TIP3   OH239861   7.423   2.880   0.592  0.1098 -0.3623 -0.1836
13307TIP3    H139862   7.485   2.808   0.607 -0.0628 -0.4910 -0.0851
13307TIP3    H239863   7.381   2.893   0.676  0.7648  0.4473  0.0346
13308TIP3   OH239864   6.706   5.797   5.476  0.0068 -0.2648 -0.1918
13308TIP3    H139865   6.743   5.879   5.441 -0.5164  0.2878  0.5344
13308TIP3    H239866   6.668   5.822   5.560  0.7887 -1.4708  0.5530
13309TIP3   OH239867   2.530   2.119   2.906  0.2286  0.2587  0.2776
13309TIP3    H139868   2.578   2.133   2.824  0.6386  0.9750  0.6284
13309TIP3    H239869   2.597   2.093   2.968  0.0108  0.3183  0.5369
13310TIP3   OH239870   2.557   7.549   6.413 -0.3621  0.5968 -0.0791
13310TIP3    H139871   2.647   7.525   6.389 -1.2201 -3.1870 -0.1366
13310TIP3    H239872   2.512   7.556   6.329 -0.6324  0.0575  0.0201
13311TIP3   OH239873   4.106   0.378   1.166 -0.0376  0.5359 -0.1181
13311TIP3    H139874   4.030   0.405   1.115 -1.3443 -0.3645  1.2502
13311TIP3    H239875   4.125   0.452   1.223  1.2324  1.4231 -1.6063
13312TIP3   OH239876   5.307   1.943   6.380 -0.5267  0.5591 -0.0717
13312TIP3    H139877   5.260   1.862   6.361  1.2230 -1.2673  2.6438
13312TIP3    H239878   5.262   1.980   6.456 -0.2854  1.2240 -0.2413
13313TIP3   OH239879   6.241   6.388   4.566  0.2116  0.3772  0.4432
13313TIP3    H139880   6.211   6.350   4.649 -0.8363  1.6935  0.7118
13313TIP3    H239881   6.172   6.450   4.543  1.1365  0.9906 -0.7477
13314TIP3   OH239882   2.927   2.722   2.890  0.1648 -0.5504  0.0509
13314TIP3    H139883   2.864   2.655   2.913 -0.6146 -0.1706 -0.9002
13314TIP3    H239884   2.880   2.805   2.902 -0.2878 -0.3143 -2.6549
13315TIP3   OH239885   1.377   3.837   5.177  0.0516 -0.4777  0.2982
13315TIP3    H139886   1.334   3.887   5.246  1.3697 -0.0405  0.8292
13315TIP3    H239887   1.368   3.746   5.205  0.2154 -0.3306  0.8368
13316TIP3   OH239888   6.950   5.460   0.343  0.3369  0.9668  0.8060
13316TIP3    H139889   6.913   5.401   0.277  0.5550  0.1616  1.3835
13316TIP3    H239890   6.954   5.545   0.299 -0.1867  0.6058  0.0221
13317TIP3   OH239891   0.442   6.843   0.050  0.1167  0.7849  0.1270
13317TIP3    H139892   0.526   6.889   0.043 -0.0494  1.4117  1.9143
13317TIP3    H239893   0.423   6.815  -0.040  1.7205  1.5393 -0.4840
13318TIP3   OH239894   7.785   3.856   2.105  0.5566  0.7891 -0.4077
13318TIP3    H139895   7.842   3.832   2.032  0.8531 -0.5689  0.2344
13318TIP3    H239896   7.730   3.779   2.119  0.2691  1.1598  0.5758
13319TIP3   OH239897   2.004   3.327   3.132  0.0998 -0.4666 -0.0304
13319TIP3    H139898   2.057   3.267   3.080 -0.0659 -0.3287 -0.3597
13319TIP3    H239899   2.058   3.347   3.208  0.3687 -0.6181 -0.1820
13320TIP3   OH239900   1.952   5.284   1.344  0.4851 -0.1283  0.1726
13320TIP3    H139901   1.976   5.265   1.253 -2.2904 -1.5688 -0.3885
13320TIP3    H239902   1.867   5.328   1.337 -0.0390 -0.7361  2.0804
13321TIP3   OH239903   4.049   1.418   1.656  0.2182  1.2963 -0.7658
13321TIP3    H139904   4.120   1.355   1.672 -1.4222 -0.5468 -0.2393
13321TIP3    H239905   4.015   1.394   1.570 -0.0444  1.8965 -0.8302
13322TIP3   OH239906   1.646   4.131   5.356  0.0715  0.2146 -0.0963
13322TIP3    H139907   1.601   4.208   5.320 -0.9970 -0.8564 -1.1394
13322TIP3    H239908   1.674   4.082   5.278  3.7233  1.1333  0.4440
13323TIP3   OH239909   6.517   7.871   1.359  0.1377 -0.2883  0.3516
13323TIP3    H139910   6.537   7.964   1.351  0.5503 -0.4984 -1.3298
13323TIP3    H239911   6.602   7.828   1.365 -0.0389 -0.5949  0.7103
13324TIP3   OH239912   1.525   7.085   2.320 -0.0371 -0.1282 -0.2187
13324TIP3    H139913   1.451   7.058   2.266  0.4069  0.5163 -1.1779
13324TIP3    H239914   1.594   7.021   2.300 -0.4628 -1.0327  1.0530
13325TIP3   OH239915   0.055   1.839   0.086  0.0953  0.0994 -0.2343
13325TIP3    H139916   0.018   1.880   0.008  0.7054  0.4087 -0.3662
13325TIP3    H239917   0.045   1.745   0.071  2.8974 -0.0026 -2.0840
13326TIP3   OH239918   1.617   3.069   6.027  0.1928 -0.0192  0.4636
13326TIP3    H139919   1.690   3.092   6.085  0.5014 -1.6794  0.7990
13326TIP3    H239920   1.609   2.974   6.037 -0.6684 -0.1410 -1.1678
13327TIP3   OH239921   5.608   2.748   5.980 -0.1963  0.1946  0.4383
13327TIP3    H139922   5.574   2.795   6.056  0.6448 -2.0086  2.2694
13327TIP3    H239923   5.691   2.792   5.960 -0.6510  1.0910  0.4431
13328TIP3   OH239924   1.069   7.322   5.550 -0.0122  0.2195  0.7504
13328TIP3    H139925   1.141   7.371   5.511 -1.1207  1.7359  0.5155
13328TIP3    H239926   1.049   7.254   5.485  0.8357  0.1280  0.5733
13329TIP3   OH239927   8.297   4.533   5.237  0.0966 -0.4652  0.4119
13329TIP3    H139928   8.237   4.492   5.174  0.6827 -1.0578  0.2229
13329TIP3    H239929   8.350   4.592   5.184 -1.8550  1.9190  0.9207
13330TIP3   OH239930   6.872   4.177   1.221 -0.1205 -0.0561 -0.1413
13330TIP3    H139931   6.826   4.257   1.194 -1.1353 -0.4831  0.2898
13330TIP3    H239932   6.890   4.191   1.314 -1.3243 -0.7906  0.2227
13331TIP3   OH239933   7.563   7.655   3.613 -0.1298 -0.0446 -0.6837
13331TIP3    H139934   7.468   7.664   3.606 -0.3256  1.5887  2.1778
13331TIP3    H239935   7.578   7.561   3.622 -1.5151 -0.3042 -0.8406
13332TIP3   OH239936   5.751   6.642   1.042 -0.0494  0.2054 -0.0340
13332TIP3    H139937   5.841   6.674   1.050 -0.4028  1.3225 -0.3740
13332TIP3    H239938   5.697   6.712   1.078 -0.8258 -0.1849 -0.4102
13333TIP3   OH239939   2.254   5.274   3.255  0.0460  0.7294 -0.0613
13333TIP3    H139940   2.226   5.192   3.214  1.3993  0.7498 -1.0851
13333TIP3    H239941   2.177   5.330   3.248 -0.8477 -0.3832  0.5021
13334TIP3   OH239942   5.200   2.539   1.301 -0.4827 -0.3381  0.3625
13334TIP3    H139943   5.148   2.606   1.345  0.7732  1.1327 -0.2919
13334TIP3    H239944   5.146   2.461   1.304 -1.0088  0.0370  3.2845
13335TIP3   OH239945   7.029   6.079   4.024  0.2440 -0.2318 -0.2835
13335TIP3    H139946   7.045   6.004   4.082 -0.0094 -0.7346 -0.8615
13335TIP3    H239947   7.052   6.155   4.078 -1.5898 -0.5680  1.0866
13336TIP3   OH239948   4.991   3.174   5.232  0.0472 -0.1061  0.1981
13336TIP3    H139949   5.052   3.146   5.164 -0.6331 -0.9825 -0.0701
13336TIP3    H239950   4.920   3.110   5.229  0.8832 -1.3331  3.0318
13337TIP3   OH239951   7.668   4.995   1.110 -0.2693 -0.2175  0.3818
13337TIP3    H139952   7.743   4.996   1.169 -0.0530 -1.2545  0.1387
13337TIP3    H239953   7.599   5.041   1.158  0.4306  0.5096  0.7145
13338TIP3   OH239954   5.586   0.117   0.372 -0.3307  0.5177 -0.5659
13338TIP3    H139955   5.599   0.028   0.403 -0.9761  0.3835 -0.6560
13338TIP3    H239956   5.673   0.155   0.368 -0.0758 -0.0397 -0.3139
13339TIP3   OH239957   3.806   7.453   5.729 -0.1499  0.1908  0.0106
13339TIP3    H139958   3.862   7.507   5.785 -0.0668 -1.0868  1.2070
13339TIP3    H239959   3.723   7.447   5.777 -0.5658  0.2552 -0.6928
13340TIP3   OH239960   7.209   7.726   2.638  0.1491 -0.3846  0.0965
13340TIP3    H139961   7.182   7.752   2.726 -1.9450  1.3559 -0.9532
13340TIP3    H239962   7.292   7.772   2.623 -0.4732  0.8973  0.4832
13341TIP3   OH239963   5.486   4.510   6.546  0.2267  0.5325 -0.2437
13341TIP3    H139964   5.485   4.415   6.536  2.3381  0.0715  2.6295
13341TIP3    H239965   5.458   4.544   6.461 -2.6028 -2.6078 -0.7804
13342TIP3   OH239966   3.879   7.353   6.488 -0.1578 -0.3592 -0.7466
13342TIP3    H139967   3.908   7.264   6.468  0.4763  0.0397 -1.6604
13342TIP3    H239968   3.899   7.364   6.581  0.3810 -0.9460 -0.7875
13343TIP3   OH239969   6.388   1.791   5.802  0.6393  0.8268  0.4721
13343TIP3    H139970   6.379   1.733   5.726 -0.8024  1.0132  0.4779
13343TIP3    H239971   6.423   1.872   5.766  2.1824  0.1669  0.3881
13344TIP3   OH239972   8.097   0.437   6.779 -0.3276  0.8475  0.0032
13344TIP3    H139973   8.017   0.489   6.775 -0.2167  0.9538 -1.1909
13344TIP3    H239974   8.069   0.349   6.754 -0.1989  0.7168  0.3140
13345TIP3   OH239975   4.578   5.258   6.259  0.2184 -0.3403  0.3247
13345TIP3    H139976   4.620   5.179   6.226  0.3708 -1.6939  3.4277
13345TIP3    H239977   4.491   5.230   6.289 -1.0645  1.4092 -1.4899
13346TIP3   OH239978   5.288   2.081   1.308  0.0129 -0.5438 -0.1720
13346TIP3    H139979   5.331   2.164   1.287 -1.3754  0.6265  1.3664
13346TIP3    H239980   5.234   2.062   1.231 -0.4099  0.5069 -0.1496
13347TIP3   OH239981   4.670   6.512   4.496 -0.2076 -0.3337  0.3277
13347TIP3    H139982   4.706   6.465   4.571 -1.3987 -0.5213  0.8072
13347TIP3    H239983   4.649   6.599   4.529 -2.7987 -1.0754  0.8892
13348TIP3   OH239984   4.615   4.442   5.522 -0.1722 -0.1421  0.3816
13348TIP3    H139985   4.564   4.463   5.444  0.7516 -1.3858 -0.6133
13348TIP3    H239986   4.675   4.515   5.533 -0.6450  0.2724  0.2352
13349TIP3   OH239987   6.233   7.523   5.513  0.1060  0.2913  0.6383
13349TIP3    H139988   6.193   7.603   5.481 -1.5959 -1.1525 -1.1040
13349TIP3    H239989   6.327   7.539   5.507 -0.1896  2.2037  0.5466
13350TIP3   OH239990   3.702   1.749   6.561  0.2867  0.4846  0.1690
13350TIP3    H139991   3.720   1.826   6.508 -0.8063  1.2220  0.8322
13350TIP3    H239992   3.640   1.698   6.508  0.2240  0.5613  0.1688
13351TIP3   OH239993   0.780   3.814   6.635 -0.0864 -0.1289 -0.7182
13351TIP3    H139994   0.841   3.828   6.707 -2.4989  1.3360  1.2074
13351TIP3    H239995   0.729   3.737   6.661 -1.6619  1.0105 -0.2361
13352TIP3   OH239996   1.059   7.547   0.057  0.0239 -0.4448  0.1846
13352TIP3    H139997   1.154   7.552   0.048 -0.1253  1.6153 -1.0139
13352TIP3    H239998   1.045   7.521   0.148  1.7334 -0.9507  0.3421
13353TIP3   OH239999   1.567   7.402   5.809  0.4719  0.1972 -0.5027
13353TIP3    H140000   1.599   7.492   5.814  1.0720  0.0738 -1.6694
13353TIP3    H240001   1.590   7.374   5.720 -2.2697 -0.1668 -1.1726
13354TIP3   OH240002   1.187   0.504   0.981  0.2782 -0.0131  0.2232
13354TIP3    H140003   1.139   0.474   1.059  2.7408 -1.6849  1.2127
13354TIP3    H240004   1.262   0.552   1.016  0.5737  0.6134 -1.1898
13355TIP3   OH240005   4.682   0.638   3.557 -0.3725 -0.3493  0.3656
13355TIP3    H140006   4.676   0.724   3.514 -0.7627 -0.3515  0.4129
13355TIP3    H240007   4.776   0.625   3.571 -0.1624 -0.6893 -1.1751
13356TIP3   OH240008   1.476   2.149   5.092  0.6424 -0.7020 -0.0288
13356TIP3    H140009   1.495   2.197   5.012  0.1697 -0.3353  0.0763
13356TIP3    H240010   1.488   2.214   5.162 -1.4480 -0.3112  0.0185
13357TIP3   OH240011   0.042   2.689   3.179 -0.6569  0.4130  0.6493
13357TIP3    H140012  -0.051   2.702   3.195 -0.4540 -0.0135  2.2891
13357TIP3    H240013   0.053   2.594   3.175 -0.0038  0.3837  2.4755
13358TIP3   OH240014   4.239   7.837   4.234  0.7066 -0.0715  0.0417
13358TIP3    H140015   4.214   7.789   4.155 -1.3911 -0.8168  1.0727
13358TIP3    H240016   4.179   7.912   4.237  1.4068  0.4871  0.4367
13359TIP3   OH240017   3.220   3.025   2.628  0.0115 -0.1769 -0.5747
13359TIP3    H140018   3.230   2.930   2.634  1.4454 -0.0834 -1.0581
13359TIP3    H240019   3.300   3.055   2.584  0.0931  1.3595  0.5238
13360TIP3   OH240020   6.451   3.803   4.388  0.2063  0.5758  0.1866
13360TIP3    H140021   6.472   3.824   4.479  0.2415  2.0986 -0.1365
13360TIP3    H240022   6.364   3.765   4.392  0.6203 -0.3354  0.9514
13361TIP3   OH240023   0.704   3.154   0.851  0.0400 -0.1161  0.3324
13361TIP3    H140024   0.772   3.182   0.912  0.0458  1.0253 -0.1728
13361TIP3    H240025   0.647   3.097   0.903 -1.1513  2.4337  2.0722
13362TIP3   OH240026   2.808   0.573   0.096 -0.4736 -0.0796 -0.1759
13362TIP3    H140027   2.812   0.610   0.007  2.0316  0.6789  0.1594
13362TIP3    H240028   2.879   0.618   0.143  0.6436 -3.0536  1.1922
13363TIP3   OH240029   2.572   2.121   2.215  0.0547  0.1021 -0.2770
13363TIP3    H140030   2.589   2.039   2.168  1.5951  0.5057 -0.4781
13363TIP3    H240031   2.569   2.188   2.147 -1.0702  0.2380 -0.1005
13364TIP3   OH240032   4.384   5.588   1.591  0.3083  0.1856 -0.0414
13364TIP3    H140033   4.306   5.551   1.634 -0.9839  1.3008 -1.3385
13364TIP3    H240034   4.422   5.514   1.543  1.2503 -0.8586  2.1427
13365TIP3   OH240035   1.998   7.487   4.101  0.2551 -0.3249 -0.2953
13365TIP3    H140036   2.042   7.493   4.017 -0.6167  1.2384 -0.6843
13365TIP3    H240037   1.910   7.456   4.080  0.1453 -0.2688  0.0740
13366TIP3   OH240038   0.678   7.720   2.511  0.2194 -0.4480  0.0162
13366TIP3    H140039   0.610   7.708   2.578  1.3733  2.7415  1.9762
13366TIP3    H240040   0.759   7.731   2.560  1.0972  2.3035 -1.7999
13367TIP3   OH240041   1.610   7.899   0.137 -0.1590  0.1442  0.1859
13367TIP3    H140042   1.557   7.859   0.206 -0.4973 -0.2119 -0.2763
13367TIP3    H240043   1.549   7.912   0.065  0.2530  0.2905 -0.1363
13368TIP3   OH240044   0.357   4.081   6.800  1.1081  0.0363  0.4526
13368TIP3    H140045   0.354   4.134   6.721 -0.8578 -0.2647  0.2660
13368TIP3    H240046   0.443   4.039   6.798  1.4104  0.6745 -1.0815
13369TIP3   OH240047   5.017   6.320   5.726  0.5902  0.1281 -0.0678
13369TIP3    H140048   4.991   6.238   5.685  0.4463 -0.5859  1.3778
13369TIP3    H240049   5.081   6.358   5.666 -0.2139 -0.4500 -1.3247
13370TIP3   OH240050   8.387   1.803   3.557  0.4045  0.6786  0.7814
13370TIP3    H140051   8.399   1.820   3.650  0.5488  2.0540  0.5319
13370TIP3    H240052   8.324   1.730   3.553  0.0410  0.9181  1.9310
13371TIP3   OH240053   0.976   4.230   0.838  0.0541  0.3198 -0.5357
13371TIP3    H140054   0.951   4.150   0.884 -1.1906 -0.4442 -2.3833
13371TIP3    H240055   0.937   4.301   0.889  1.5991 -0.1411  1.4124
13372TIP3   OH240056   6.199   2.432   2.273  0.1914 -0.0795 -0.4501
13372TIP3    H140057   6.138   2.381   2.326  0.2891 -0.0005 -0.2591
13372TIP3    H240058   6.280   2.432   2.323 -0.3218  1.8153  0.4668
13373TIP3   OH240059   5.481   4.003   0.803  0.0590 -0.1264 -0.2793
13373TIP3    H140060   5.510   3.998   0.894  0.0198  0.7106 -0.2147
13373TIP3    H240061   5.466   4.096   0.788 -0.5139 -0.3215 -0.9616
13374TIP3   OH240062   4.943   3.582   2.539  0.0714 -0.2585 -0.0851
13374TIP3    H140063   5.019   3.595   2.483 -1.0383 -1.1314 -1.8890
13374TIP3    H240064   4.966   3.506   2.593  0.0056 -1.3836 -1.5744
13375TIP3   OH240065   8.101   3.254   5.294  0.2530  0.4489  0.3925
13375TIP3    H140066   8.035   3.324   5.289  1.1040  1.3677  1.3459
13375TIP3    H240067   8.120   3.246   5.387  0.3188 -0.9567  0.2796
13376TIP3   OH240068   1.859   2.168   4.781  0.3176 -0.2297 -0.1295
13376TIP3    H140069   1.900   2.084   4.799  2.5438  0.0451 -3.0947
13376TIP3    H240070   1.782   2.147   4.727 -0.3346 -0.4355  0.8592
13377TIP3   OH240071   1.400   3.274   2.321 -0.0475  0.1100  0.4984
13377TIP3    H140072   1.494   3.289   2.314  0.2278 -1.7062 -0.3473
13377TIP3    H240073   1.373   3.248   2.233 -1.0902 -0.5741  0.9969
13378TIP3   OH240074   1.883   0.121   2.929  0.4228  0.3908 -0.4102
13378TIP3    H140075   1.918   0.033   2.946 -2.3437 -0.3400  2.4696
13378TIP3    H240076   1.811   0.107   2.868 -2.3147 -0.0957  2.6568
13379TIP3   OH240077   0.238   7.415   3.163  0.1998 -0.5163  0.0968
13379TIP3    H140078   0.250   7.460   3.079 -1.8567 -0.5257 -0.2505
13379TIP3    H240079   0.146   7.387   3.163  0.5764 -1.9404  1.6746
13380TIP3   OH240080   6.496   6.060   1.196  0.2857 -0.1659  0.4917
13380TIP3    H140081   6.550   6.004   1.252 -1.5811 -2.3431  0.2890
13380TIP3    H240082   6.549   6.073   1.118  1.2599 -0.6349  1.0519
13381TIP3   OH240083   0.637   2.606   5.441 -0.4206  0.0378 -0.0257
13381TIP3    H140084   0.545   2.631   5.434 -0.9140 -1.5755  0.4043
13381TIP3    H240085   0.636   2.523   5.487  1.3380  0.4646  0.8599
13382TIP3   OH240086   4.572   3.940   0.085 -0.0806 -0.2869  0.2077
13382TIP3    H140087   4.503   3.885   0.050 -0.4086  0.4118 -0.2769
13382TIP3    H240088   4.529   3.990   0.155 -0.3740  0.9375 -0.8092
13383TIP3   OH240089   2.899   2.655   6.306  0.2584 -0.2141 -0.1718
13383TIP3    H140090   2.819   2.608   6.331 -0.2277 -0.3875 -1.9403
13383TIP3    H240091   2.958   2.587   6.275  0.9471 -0.0311  0.7023
13384TIP3   OH240092   2.129   0.381   2.171 -0.2010 -0.6691 -0.4329
13384TIP3    H140093   2.053   0.343   2.216  0.1351 -2.8119 -1.5456
13384TIP3    H240094   2.203   0.360   2.227 -0.1336 -0.6770 -0.5258
13385TIP3   OH240095   2.540   6.448   2.462 -0.4125  0.1484 -0.4036
13385TIP3    H140096   2.564   6.411   2.547  1.6101 -0.4159 -1.1676
13385TIP3    H240097   2.572   6.385   2.398 -1.6076  0.7223 -1.6150
13386TIP3   OH240098   1.789   4.117   2.101  0.0097 -0.2453  0.0948
13386TIP3    H140099   1.732   4.040   2.112 -1.0015  0.2378 -1.4043
13386TIP3    H240100   1.834   4.101   2.018  0.3325  0.4569  0.1345
13387TIP3   OH240101   2.295   1.699   0.083  0.2115 -0.5341 -0.2295
13387TIP3    H140102   2.254   1.642   0.018  1.7472 -0.4835 -1.3019
13387TIP3    H240103   2.351   1.757   0.031 -0.0267  0.8366  0.9817
13388TIP3   OH240104   6.998   0.718   3.238  0.1433 -0.3607  0.3265
13388TIP3    H140105   6.988   0.730   3.333  0.8693  0.3477  0.3265
13388TIP3    H240106   6.908   0.717   3.205 -0.1366  2.6095  0.6735
13389TIP3   OH240107   2.228   6.704   4.658  0.3003 -0.3547 -0.1805
13389TIP3    H140108   2.286   6.682   4.731  0.0527  0.7447  0.3563
13389TIP3    H240109   2.140   6.698   4.695  0.2187  1.8031  0.1019
13390TIP3   OH240110   3.572   6.355   3.426 -0.0536 -0.1497 -0.3955
13390TIP3    H140111   3.667   6.356   3.424 -0.0486 -0.4260 -0.3407
13390TIP3    H240112   3.550   6.328   3.515 -0.1991  1.5646  0.1159
13391TIP3   OH240113   4.689   7.799   3.879  0.0676  0.1420 -0.9811
13391TIP3    H140114   4.727   7.860   3.816  1.8362  0.6723  0.5061
13391TIP3    H240115   4.694   7.845   3.963 -1.4508 -0.8553 -0.3080
13392TIP3   OH240116   0.552   7.450   4.550 -0.2306 -0.0566  0.2686
13392TIP3    H140117   0.478   7.390   4.543 -0.4962  0.4842 -2.5119
13392TIP3    H240118   0.519   7.521   4.606 -1.7642  0.0611 -0.7258
13393TIP3   OH240119   2.162   4.684   5.065  0.5441  0.2401 -0.7982
13393TIP3    H140120   2.226   4.710   4.999  2.6196 -2.1052  0.1381
13393TIP3    H240121   2.156   4.588   5.055 -0.2467  0.0180  1.3766
13394TIP3   OH240122   5.684   3.239   1.753  0.0447  0.0333  0.1684
13394TIP3    H140123   5.610   3.286   1.713  0.6075  1.4377  0.7099
13394TIP3    H240124   5.643   3.179   1.815 -0.7086 -0.2316 -0.5679
13395TIP3   OH240125   3.935   3.078   2.744 -0.6589 -0.1856  0.4021
13395TIP3    H140126   3.995   3.132   2.795  0.2690  0.2523 -1.0674
13395TIP3    H240127   3.850   3.120   2.754  0.1385  1.9604 -1.1424
13396TIP3   OH240128   1.594   3.597   4.544  0.0744 -0.0615  0.1101
13396TIP3    H140129   1.668   3.625   4.490 -0.7991  0.3552 -0.9041
13396TIP3    H240130   1.528   3.665   4.531 -0.0762  0.1962  1.9309
13397TIP3   OH240131   5.533   6.278   6.301  0.2563  0.3467  0.6039
13397TIP3    H140132   5.578   6.322   6.229  0.9964  0.4007  1.0917
13397TIP3    H240133   5.587   6.202   6.320 -1.1044 -0.9239 -0.3527
13398TIP3   OH240134   0.014   3.466   0.322 -0.6410 -0.3614 -0.7521
13398TIP3    H140135   0.095   3.469   0.270 -0.6703 -1.4609 -0.8935
13398TIP3    H240136  -0.047   3.415   0.268 -0.7450 -1.3399  0.2518
13399TIP3   OH240137   7.869   5.161   6.748 -0.1611  0.0509  0.5362
13399TIP3    H140138   7.940   5.210   6.705 -0.2094 -0.8118 -0.5630
13399TIP3    H240139   7.791   5.213   6.732 -0.0053  0.2875  0.5292
13400TIP3   OH240140   1.472   3.876   3.416 -0.4513 -0.0040  0.2548
13400TIP3    H140141   1.543   3.858   3.478 -1.7449 -1.3125  1.4381
13400TIP3    H240142   1.471   3.971   3.408 -0.1077  0.2032  2.1390
13401TIP3   OH240143   7.593   7.866   6.774  0.0015 -0.3956 -0.1250
13401TIP3    H140144   7.591   7.958   6.749 -0.2880  0.2381  2.0187
13401TIP3    H240145   7.539   7.861   6.853 -1.0074 -2.6429 -0.8667
13402TIP3   OH240146   2.427   7.367   0.884 -0.0093 -0.1829  0.1560
13402TIP3    H140147   2.421   7.309   0.960  0.9495 -2.1991 -1.2143
13402TIP3    H240148   2.337   7.390   0.864 -0.6135 -2.4969 -0.1351
13403TIP3   OH240149   1.151   6.275   3.220 -0.3444 -0.4092 -0.1599
13403TIP3    H140150   1.084   6.333   3.256 -1.4992 -1.2892 -0.8387
13403TIP3    H240151   1.180   6.223   3.294 -0.4466 -0.0657  0.1243
13404TIP3   OH240152   8.270   6.291   6.109 -0.8220  0.1237  0.1026
13404TIP3    H140153   8.241   6.205   6.138 -2.6406  0.1383 -1.4430
13404TIP3    H240154   8.258   6.348   6.185 -1.4181 -0.6287  0.5831
13405TIP3   OH240155   1.695   0.385   2.298 -0.1754  0.2735 -0.1549
13405TIP3    H140156   1.647   0.347   2.224 -1.1543  0.2486  0.4715
13405TIP3    H240157   1.648   0.466   2.317  0.8776  0.9573 -0.3952
13406TIP3   OH240158   6.166   4.682   4.005  0.5853 -0.8828 -0.1797
13406TIP3    H140159   6.142   4.770   3.976 -1.4957 -1.9660 -1.9871
13406TIP3    H240160   6.239   4.657   3.948 -0.4303 -1.2285 -1.3548
13407TIP3   OH240161   4.361   3.882   5.154 -0.2195  0.2794  0.4861
13407TIP3    H140162   4.348   3.788   5.171 -0.9250  0.4014  0.6241
13407TIP3    H240163   4.399   3.885   5.067 -0.2123 -0.1351  0.4703
13408TIP3   OH240164   2.317   5.594   4.856 -0.0530  0.2721 -0.5042
13408TIP3    H140165   2.355   5.680   4.872  0.3280 -0.3822  2.8485
13408TIP3    H240166   2.225   5.603   4.882 -0.5246  0.1279 -2.0462
13409TIP3   OH240167   2.872   6.764   3.289 -0.3888 -0.2663  0.3658
13409TIP3    H140168   2.854   6.753   3.196  1.4910 -1.2649  0.0709
13409TIP3    H240169   2.788   6.788   3.327 -1.2108  0.1023 -1.5699
13410TIP3   OH240170   2.545   1.983   0.206  0.2180 -0.1860  0.3020
13410TIP3    H140171   2.513   1.943   0.126 -0.3607  2.1455 -0.7365
13410TIP3    H240172   2.489   1.946   0.275 -0.5097 -0.8715 -0.6301
13411TIP3   OH240173   0.619   7.538   0.059  0.2531  0.0260  0.2320
13411TIP3    H140174   0.539   7.558   0.107  1.0177  2.0571  0.7448
13411TIP3    H240175   0.616   7.443   0.048 -2.5882  0.0933 -0.4693
13412TIP3   OH240176   4.791   1.437   0.112  0.0409 -0.2352 -0.7412
13412TIP3    H140177   4.886   1.433   0.118  0.0680  0.8561 -0.1496
13412TIP3    H240178   4.773   1.442   0.018  0.5667 -0.3950 -0.8539
13413TIP3   OH240179   2.126   3.353   3.387 -0.4893 -0.0048 -0.3458
13413TIP3    H140180   2.188   3.285   3.414 -0.7921 -0.7186 -1.3839
13413TIP3    H240181   2.089   3.385   3.469 -0.4280 -1.1795  0.1614
13414TIP3   OH240182   7.997   1.244   6.812 -0.5728 -0.1011 -0.2797
13414TIP3    H140183   7.928   1.311   6.814  1.2692  1.8927  0.3438
13414TIP3    H240184   8.010   1.221   6.904  0.8377  0.9662 -0.1751
13415TIP3   OH240185   0.030   0.062   0.778  0.7152 -0.0452  0.4420
13415TIP3    H140186   0.080  -0.019   0.789  1.3699  0.3840  0.6476
13415TIP3    H240187   0.023   0.098   0.866 -1.4194 -0.9470  0.6997
13416TIP3   OH240188   6.083   3.705   4.187 -0.4186  0.2655  0.0922
13416TIP3    H140189   6.069   3.646   4.113 -1.8570  0.8098 -0.1099
13416TIP3    H240190   6.148   3.661   4.241  1.0018  0.0577 -1.7088
13417TIP3   OH240191   4.506   6.623   6.830 -0.3901  0.5168 -0.2687
13417TIP3    H140192   4.565   6.697   6.816 -1.4823  1.3470 -0.5921
13417TIP3    H240193   4.439   6.656   6.890 -0.5171 -0.4247  0.1294
13418TIP3   OH240194   4.500   7.325   3.651  0.0600  0.1060  0.3797
13418TIP3    H140195   4.467   7.235   3.647 -0.2470  0.2106  0.5014
13418TIP3    H240196   4.535   7.342   3.564 -1.0198  0.2932 -0.0316
13419TIP3   OH240197   5.183   4.525   5.916  0.0963 -0.4712  0.4611
13419TIP3    H140198   5.130   4.457   5.873 -0.2844  0.7609 -1.1452
13419TIP3    H240199   5.268   4.522   5.872 -0.4485  1.1251 -0.8241
13420TIP3   OH240200   8.236   6.078   0.175  0.2916  0.0423 -0.4671
13420TIP3    H140201   8.240   5.996   0.224  1.5925 -0.1123 -0.7845
13420TIP3    H240202   8.234   6.051   0.083  0.5649  0.3618 -0.5679
13421TIP3   OH240203   4.258   4.495   1.188  0.4145 -0.6170 -0.0155
13421TIP3    H140204   4.187   4.473   1.128  0.6664 -1.8679  0.0970
13421TIP3    H240205   4.329   4.526   1.132  0.5839 -1.6068 -0.3660
13422TIP3   OH240206   5.694   1.544   0.563 -0.0044  0.1068  0.1829
13422TIP3    H140207   5.614   1.597   0.566 -0.7140 -0.9638  1.1498
13422TIP3    H240208   5.721   1.548   0.471 -1.0670  0.6421 -0.1349
13423TIP3   OH240209   3.572   0.942   6.214  0.0866  0.1122  0.1483
13423TIP3    H140210   3.654   0.906   6.179  0.1175 -0.4019  0.7356
13423TIP3    H240211   3.555   0.891   6.293 -0.6260  0.4457  0.2179
13424TIP3   OH240212   7.184   6.068   4.773  0.0139  0.4138  0.2172
13424TIP3    H140213   7.259   6.126   4.783 -0.5217  1.1307  0.1229
13424TIP3    H240214   7.199   5.998   4.837  0.6976  0.6138  0.2809
13425TIP3   OH240215   4.095   6.788   1.756  0.5586  0.0973 -0.3209
13425TIP3    H140216   4.072   6.759   1.844 -2.6013  0.3224 -0.9508
13425TIP3    H240217   4.013   6.822   1.720  1.7809  0.2090 -3.2900
13426TIP3   OH240218   7.296   7.264   4.649  0.1206 -0.0700  0.7037
13426TIP3    H140219   7.206   7.284   4.673  0.3132  0.7954  0.7479
13426TIP3    H240220   7.304   7.296   4.559  0.0475 -1.2485  0.2507
13427TIP3   OH240221   3.638   6.429  -0.016  0.4021  0.3787 -0.4860
13427TIP3    H140222   3.622   6.519  -0.045 -0.1596  0.7592  0.9503
13427TIP3    H240223   3.640   6.434   0.079  0.4873 -1.1200 -0.3878
13428TIP3   OH240224   6.558   3.486   2.081  0.5717  0.4453 -0.4629
13428TIP3    H140225   6.543   3.464   1.989  1.6997 -1.5113 -0.2359
13428TIP3    H240226   6.472   3.480   2.122  0.2731  0.0100 -1.1474
13429TIP3   OH240227   2.888   1.981   0.930 -0.5777  0.2829  0.0218
13429TIP3    H140228   2.794   1.998   0.921 -0.7366 -0.4289  0.2559
13429TIP3    H240229   2.906   1.914   0.864  0.0364  1.3228 -0.9065
13430TIP3   OH240230   4.657   7.441   5.969 -0.0943  0.3141  0.6983
13430TIP3    H140231   4.569   7.422   6.002 -0.6851  1.2777 -0.2621
13430TIP3    H240232   4.665   7.536   5.976  0.3194  0.3851 -0.5641
13431TIP3   OH240233   5.052   4.635   1.342  0.2995  0.0316  0.1604
13431TIP3    H140234   5.052   4.540   1.352  1.3752 -0.1563 -1.2819
13431TIP3    H240235   5.031   4.669   1.429  2.5367 -1.4645  1.3624
13432TIP3   OH240236   2.411   2.606   6.642 -0.3655 -0.5890  0.0607
13432TIP3    H140237   2.459   2.668   6.587 -0.3620 -0.2946  0.3932
13432TIP3    H240238   2.465   2.598   6.721 -0.6323 -0.6114  0.2388
13433TIP3   OH240239   5.834   0.299   6.112  0.1449 -0.2907  0.0594
13433TIP3    H140240   5.741   0.306   6.090  0.0862  0.3126  0.4724
13433TIP3    H240241   5.879   0.312   6.029 -0.0484  2.7243  0.3097
13434TIP3   OH240242   3.337   6.372   4.686 -0.4080 -0.1940 -0.3367
13434TIP3    H140243   3.326   6.460   4.721 -0.2329  0.4222 -1.7691
13434TIP3    H240244   3.274   6.319   4.735 -2.0472  1.1420 -0.8839
13435TIP3   OH240245   8.110   2.499   2.716 -0.1845 -0.0145 -0.4062
13435TIP3    H140246   8.082   2.463   2.633 -0.4130  0.4410 -0.5302
13435TIP3    H240247   8.039   2.557   2.743  0.9336  1.7868 -1.1194
13436TIP3   OH240248   6.607   2.363   6.031 -0.0031  0.8490 -0.5566
13436TIP3    H140249   6.550   2.288   6.015 -0.1820  0.9977 -0.6274
13436TIP3    H240250   6.685   2.326   6.072 -0.9954  0.8742  1.4931
13437TIP3   OH240251   6.804   7.448   1.742 -0.3615  0.3947 -0.1370
13437TIP3    H140252   6.886   7.398   1.735 -1.6147 -2.0038  1.1204
13437TIP3    H240253   6.768   7.447   1.653  0.4012  0.4647 -0.4560
13438TIP3   OH240254   3.918   1.666   1.542  0.2529  0.1988  0.2136
13438TIP3    H140255   3.848   1.604   1.523  0.0136  0.6090 -0.2985
13438TIP3    H240256   3.999   1.619   1.520  0.1887 -0.4722  1.3426
13439TIP3   OH240257   6.884   3.142   0.193 -0.0286 -0.1995 -0.3595
13439TIP3    H140258   6.898   3.072   0.130 -0.7531  0.4705 -1.2829
13439TIP3    H240259   6.792   3.166   0.183  0.0881  0.5713  0.2806
13440TIP3   OH240260   0.408   6.056   6.465  0.0153 -0.4009  0.1828
13440TIP3    H140261   0.316   6.066   6.488  0.2563  2.1351  0.3176
13440TIP3    H240262   0.456   6.077   6.545  0.7668 -2.5855  0.3809
13441TIP3   OH240263   5.164   2.022   0.797  0.0308 -0.4276  0.5029
13441TIP3    H140264   5.089   2.065   0.757  0.2469 -1.0018 -0.5437
13441TIP3    H240265   5.125   1.960   0.859 -0.6184 -3.2648 -2.4892
13442TIP3   OH240266   0.489   6.345   4.291  0.1853 -0.2377  0.2387
13442TIP3    H140267   0.512   6.337   4.383 -0.8520 -0.6452  0.4770
13442TIP3    H240268   0.425   6.416   4.289  0.4939  0.0332 -0.2274
13443TIP3   OH240269   6.808   5.434   6.797  0.1173  0.0095  0.2265
13443TIP3    H140270   6.812   5.339   6.802 -1.0931 -0.1929 -1.5397
13443TIP3    H240271   6.899   5.462   6.788  0.5804 -0.8572  1.8243
13444TIP3   OH240272   0.268   3.052   0.242  0.3949 -0.5732 -0.0929
13444TIP3    H140273   0.225   3.128   0.281 -0.1171  0.1393 -1.9150
13444TIP3    H240274   0.273   2.987   0.312 -3.6685 -0.7116  0.2630
13445TIP3   OH240275   4.552   2.200   0.087  0.3461 -0.2698 -0.0433
13445TIP3    H140276   4.584   2.116   0.119 -0.7296 -0.6745  0.0214
13445TIP3    H240277   4.629   2.256   0.085  0.9260 -1.0191  0.6843
13446TIP3   OH240278   2.460   6.354   6.623 -0.6909  0.1357  0.2132
13446TIP3    H140279   2.375   6.330   6.585 -0.0849 -0.4815 -0.7922
13446TIP3    H240280   2.496   6.272   6.655  0.0736  0.1798 -0.5042
13447TIP3   OH240281   4.490   2.095   4.323 -0.1373  0.4721  0.4147
13447TIP3    H140282   4.501   2.128   4.234 -0.9323 -0.5983 -0.0970
13447TIP3    H240283   4.455   2.169   4.372 -1.9660  0.4333 -0.7276
13448TIP3   OH240284   4.349   0.677   2.223  0.0947 -0.8875  0.5262
13448TIP3    H140285   4.360   0.673   2.128 -0.7648 -0.7476  0.4144
13448TIP3    H240286   4.356   0.770   2.245 -0.4897 -0.8354  0.4982
13449TIP3   OH240287   3.231   2.779   6.241 -0.0644  0.1980 -0.2850
13449TIP3    H140288   3.304   2.773   6.179  0.5729  0.4193  0.4331
13449TIP3    H240289   3.265   2.742   6.323 -0.9228 -0.1689 -0.0771
13450TIP3   OH240290   8.219   6.275   2.117  0.5650 -0.2906  0.0051
13450TIP3    H140291   8.140   6.267   2.170 -0.0624  1.3916 -0.6171
13450TIP3    H240292   8.262   6.189   2.126 -0.5514 -0.7502  1.5350
13451TIP3   OH240293   6.583   3.314   5.154  0.1436  0.2237 -0.4242
13451TIP3    H140294   6.562   3.374   5.225 -0.5677  1.6449 -1.7643
13451TIP3    H240295   6.618   3.236   5.197 -0.3905  0.9798  1.4601
13452TIP3   OH240296   4.498   1.289   5.461  0.2835 -0.5231  0.9344
13452TIP3    H140297   4.543   1.270   5.378  0.4543 -2.2067  1.3688
13452TIP3    H240298   4.528   1.220   5.521 -2.1922 -1.2462  1.4780
13453TIP3   OH240299   6.259   3.275   0.733  0.3610  0.1927 -0.7990
13453TIP3    H140300   6.350   3.305   0.724  0.5406 -0.7184 -2.2564
13453TIP3    H240301   6.231   3.256   0.644 -1.3797  0.7350 -0.4105
13454TIP3   OH240302   6.335   7.473   6.170  0.0752 -0.0397 -0.1210
13454TIP3    H140303   6.313   7.522   6.091  1.6510  0.0394 -0.5588
13454TIP3    H240304   6.426   7.497   6.188 -0.1394 -0.3446  1.5177
13455TIP3   OH240305   4.622   3.053   5.839 -0.4836  0.4560  0.4167
13455TIP3    H140306   4.530   3.040   5.819  0.0388 -0.8729 -1.3064
13455TIP3    H240307   4.646   3.134   5.793 -0.3345 -0.2410 -0.7401
13456TIP3   OH240308   1.309   0.157   0.331  0.1619 -0.2257  0.4732
13456TIP3    H140309   1.336   0.065   0.330  0.0613 -0.2514 -0.0166
13456TIP3    H240310   1.325   0.188   0.242 -2.6364 -0.6065 -0.2540
13457TIP3   OH240311   5.873   1.950   2.474  0.6608  0.3443  0.3202
13457TIP3    H140312   5.963   1.976   2.496  0.7256  1.9481 -1.5442
13457TIP3    H240313   5.824   2.032   2.477  0.1999  0.2823 -2.8841
13458TIP3   OH240314   4.931   0.886   2.105 -0.3785  0.3435  0.2325
13458TIP3    H140315   4.884   0.969   2.100 -1.6522 -0.3490  0.3748
13458TIP3    H240316   5.014   0.903   2.060 -1.0966  1.3681 -0.7497
13459TIP3   OH240317   6.706   6.517   3.793 -0.7437  0.1108  0.5914
13459TIP3    H140318   6.692   6.574   3.868  0.5890  0.0813  0.8837
13459TIP3    H240319   6.782   6.465   3.816 -0.8259 -0.4900 -0.4383
13460TIP3   OH240320   6.354   2.735   2.898  0.5968  0.2728 -0.3730
13460TIP3    H140321   6.410   2.755   2.824  1.0101 -0.2118 -0.2007
13460TIP3    H240322   6.369   2.641   2.915 -0.4276  0.0841 -0.4640
13461TIP3   OH240323   6.685   3.859   3.154  0.5031 -0.6191  0.2127
13461TIP3    H140324   6.657   3.855   3.063 -2.3201 -0.0204  0.9697
13461TIP3    H240325   6.762   3.915   3.153 -0.8344  1.3096 -1.5504
13462TIP3   OH240326   5.415   2.326   2.328  0.1853  0.3062  0.6627
13462TIP3    H140327   5.329   2.287   2.345 -0.2323  0.2204 -1.4692
13462TIP3    H240328   5.424   2.325   2.233  2.5624  0.3135  0.8340
13463TIP3   OH240329   0.552   3.493   5.025  0.3440  0.4816  0.0551
13463TIP3    H140330   0.545   3.399   5.011 -0.5990  0.7377 -1.4881
13463TIP3    H240331   0.632   3.518   4.978 -0.4816  0.7117 -1.2788
13464TIP3   OH240332   7.063   4.051   4.096  0.0515 -0.0469  0.1048
13464TIP3    H140333   7.156   4.057   4.071  0.0087 -0.6537 -0.2196
13464TIP3    H240334   7.061   3.984   4.164  0.0255  0.9095  1.0766
13465TIP3   OH240335   0.018   4.067   1.565 -0.2076  0.2527  0.3809
13465TIP3    H140336   0.061   4.132   1.620 -0.9500 -0.4169  1.8062
13465TIP3    H240337  -0.004   3.995   1.625 -3.3384  0.5689 -0.1849
13466TIP3   OH240338   4.455   0.801   1.627 -0.4404 -0.5426 -0.6993
13466TIP3    H140339   4.541   0.804   1.671 -1.7099 -0.2437  1.9543
13466TIP3    H240340   4.471   0.750   1.548  2.6070  1.2123 -1.3743
13467TIP3   OH240341   2.318   7.817   6.681 -0.3399 -0.3725  0.4706
13467TIP3    H140342   2.264   7.802   6.759  0.1229  0.7169  1.0382
13467TIP3    H240343   2.262   7.868   6.623 -0.1493  0.2355  0.8046
13468TIP3   OH240344   5.370   4.778   4.613 -0.5339  0.2026  0.2542
13468TIP3    H140345   5.421   4.713   4.564 -0.2254  0.5958  0.0522
13468TIP3    H240346   5.294   4.729   4.645 -0.9664  0.0327 -0.9702
13469TIP3   OH240347   2.237   0.449   0.417  0.1123  0.5868  0.7724
13469TIP3    H140348   2.324   0.489   0.406 -0.6725  1.9053 -1.3032
13469TIP3    H240349   2.241   0.371   0.362 -0.2893  1.2058 -0.1769
13470TIP3   OH240350   5.250   5.438   0.713 -0.1136  0.2650 -0.0637
13470TIP3    H140351   5.191   5.467   0.643 -1.9309  0.7123  1.5722
13470TIP3    H240352   5.284   5.519   0.751  4.4536  0.1478 -3.0623
13471TIP3   OH240353   4.320   5.351   0.026 -0.1633 -0.1554 -0.2592
13471TIP3    H140354   4.233   5.377  -0.003 -0.1337  0.1013 -0.1292
13471TIP3    H240355   4.307   5.320   0.116 -0.1567 -0.3395 -0.3215
13472TIP3   OH240356   0.355   0.519   3.122 -0.2855  0.3940  0.8132
13472TIP3    H140357   0.383   0.491   3.209 -0.6514 -0.8149  0.5580
13472TIP3    H240358   0.431   0.564   3.085  0.2957 -0.1896  1.2849
13473TIP3   OH240359   0.713   3.466   1.336 -0.1951 -0.6208  0.2123
13473TIP3    H140360   0.620   3.490   1.338  0.2725  1.4639 -0.4374
13473TIP3    H240361   0.750   3.518   1.265  1.7716 -0.2432  1.4293
13474TIP3   OH240362   0.750   3.217   0.187  0.0451  0.3877  0.7094
13474TIP3    H140363   0.684   3.149   0.177  2.8940 -2.5804  0.2460
13474TIP3    H240364   0.813   3.180   0.250  1.6913  2.6675  0.5298
13475TIP3   OH240365   5.469   4.713   4.117 -0.4286  1.2432  0.3489
13475TIP3    H140366   5.464   4.642   4.054 -0.6948  0.7235  0.9469
13475TIP3    H240367   5.492   4.790   4.065 -2.7723  1.2877 -0.7385
13476TIP3   OH240368   0.550   3.059   0.282 -0.0530  0.4305  0.3216
13476TIP3    H140369   0.557   3.115   0.360 -0.9278  0.7324  0.1930
13476TIP3    H240370   0.456   3.046   0.270 -0.0292  1.4887 -1.4406
13477TIP3   OH240371   3.146   3.110   0.166 -0.2478  0.1163  0.1290
13477TIP3    H140372   3.071   3.148   0.120 -0.0331 -0.5807 -0.8379
13477TIP3    H240373   3.189   3.055   0.100  1.2295  0.6493  0.6103
13478TIP3   OH240374   1.554   7.899   6.212 -0.0588 -0.0189  0.5567
13478TIP3    H140375   1.545   7.865   6.300  0.0363 -0.4577  0.3994
13478TIP3    H240376   1.608   7.835   6.166 -0.9694 -0.3313 -0.1041
13479TIP3   OH240377   0.081   2.870   3.420  0.7750 -0.4721  0.4005
13479TIP3    H140378   0.152   2.818   3.383  0.2203  0.7035 -2.6191
13479TIP3    H240379   0.101   2.960   3.395 -1.0993  0.0457  0.6103
13480TIP3   OH240380   7.940   0.185   6.748 -0.1979  0.6200 -0.0444
13480TIP3    H140381   7.908   0.096   6.767 -1.2376  1.3270  1.8017
13480TIP3    H240382   7.889   0.212   6.672 -0.1574 -0.2171 -0.3841
13481TIP3   OH240383   1.089   5.501   3.369 -0.4068 -0.5988  0.3109
13481TIP3    H140384   1.127   5.567   3.311 -0.4467 -1.0918 -0.2854
13481TIP3    H240385   1.013   5.469   3.321 -0.1262 -1.4046  0.3917
13482TIP3   OH240386   6.126   7.829   0.406 -0.2551 -0.0638 -0.4056
13482TIP3    H140387   6.129   7.913   0.452  2.2177 -0.0735 -0.4389
13482TIP3    H240388   6.207   7.826   0.357 -1.0149 -1.8378 -1.6229
13483TIP3   OH240389   4.114   4.749   6.292 -0.2757 -0.6255 -0.6657
13483TIP3    H140390   4.132   4.783   6.380  2.4421 -2.1396 -0.5428
13483TIP3    H240391   4.119   4.825   6.235 -0.7355  0.1611  0.3022
13484TIP3   OH240392   8.378   7.729   3.476 -0.0411 -0.5368 -0.3104
13484TIP3    H140393   8.371   7.743   3.570 -0.4008  0.0920 -0.4239
13484TIP3    H240394   8.369   7.634   3.465  2.4128 -0.9408  0.4776
13485TIP3   OH240395   2.242   5.039   3.067  0.4979 -0.4943  0.3603
13485TIP3    H140396   2.265   4.956   3.107 -2.2145 -0.7562  1.5511
13485TIP3    H240397   2.166   5.020   3.012 -0.2270  1.1728  0.7137
13486TIP3   OH240398   3.410   5.749   2.133  0.2766 -0.1340 -0.4277
13486TIP3    H140399   3.373   5.788   2.212 -0.6059 -1.5965 -0.0864
13486TIP3    H240400   3.474   5.813   2.102  1.1109  0.1988  1.8200
13487TIP3   OH240401   1.072   4.125   5.584 -0.1708  0.5116  0.1400
13487TIP3    H140402   1.012   4.195   5.611 -0.0861  0.9509 -0.7739
13487TIP3    H240403   1.130   4.166   5.520 -0.6183 -0.5810 -1.0187
13488TIP3   OH240404   6.080   2.726   1.147  0.3120  0.3251 -0.4111
13488TIP3    H140405   6.004   2.709   1.092  1.1002  1.0392 -1.7695
13488TIP3    H240406   6.130   2.792   1.099  0.9766  1.0694  1.2277
13489TIP3   OH240407   6.575   6.034   3.753 -0.5811  0.0338 -0.4372
13489TIP3    H140408   6.570   6.093   3.678 -0.0839  0.5846 -0.0544
13489TIP3    H240409   6.652   6.065   3.801  0.1079 -1.3688 -0.5998
13490TIP3   OH240410   1.279   3.641   4.642  0.6815 -0.8488 -0.2739
13490TIP3    H140411   1.312   3.693   4.569  0.7053 -1.8692 -1.0095
13490TIP3    H240412   1.280   3.702   4.716 -1.5015  0.9083 -1.5503
13491TIP3   OH240413   1.709   1.202   2.990  0.1950 -0.4647 -0.5371
13491TIP3    H140414   1.673   1.125   3.034  1.2269 -1.1354 -0.8159
13491TIP3    H240415   1.639   1.232   2.932 -1.0683  0.2445  1.2963
13492TIP3   OH240416   1.266   5.267   3.154  0.0565  0.5871  0.7040
13492TIP3    H140417   1.187   5.314   3.125 -1.8508 -0.5864  3.5142
13492TIP3    H240418   1.232   5.191   3.202  2.9640 -2.3679 -1.4415
13493TIP3   OH240419   6.269   2.515   4.975 -0.2573  0.4580 -0.2916
13493TIP3    H140420   6.230   2.600   4.955 -0.9717  0.3095  0.4250
13493TIP3    H240421   6.300   2.523   5.065 -1.1258 -0.3190  0.0921
13494TIP3   OH240422   4.959   7.429   6.665  0.0323  0.3972  0.1506
13494TIP3    H140423   4.965   7.498   6.599  1.3190 -0.0263 -0.2175
13494TIP3    H240424   4.934   7.351   6.617 -1.4089  0.5780  0.5652
13495TIP3   OH240425   4.224   0.460   0.611 -0.3872  0.0883 -0.0102
13495TIP3    H140426   4.222   0.396   0.683  2.2546 -0.4851 -0.3483
13495TIP3    H240427   4.134   0.491   0.605 -1.5701 -2.7677  0.9135
13496TIP3   OH240428   4.294   1.647   6.629 -0.2190 -0.2371 -0.6353
13496TIP3    H140429   4.251   1.692   6.556  1.5380  2.3137 -0.2407
13496TIP3    H240430   4.288   1.709   6.702 -0.2047 -1.9044  0.8541
13497TIP3   OH240431   1.139   5.999   1.321  0.7660  0.3028 -0.5440
13497TIP3    H140432   1.192   6.077   1.304  0.7905  0.5120  0.4441
13497TIP3    H240433   1.094   6.018   1.403 -1.2049  0.3021 -1.5649
13498TIP3   OH240434   7.383   7.714   4.562  0.4960 -0.5128 -0.4484
13498TIP3    H140435   7.440   7.637   4.561 -1.5135 -2.0652 -1.4630
13498TIP3    H240436   7.307   7.688   4.614  1.7688  2.4866  3.4208
13499TIP3   OH240437   0.408   5.929   2.155 -0.1982  0.2116  0.1070
13499TIP3    H140438   0.431   5.838   2.176 -2.2498 -0.0621  1.4825
13499TIP3    H240439   0.342   5.922   2.086 -1.4008  0.5353  1.1846
13500TIP3   OH240440   5.715   3.412   4.839 -0.5564  0.6407 -0.4422
13500TIP3    H140441   5.776   3.373   4.902  1.9641  1.6453 -2.0765
13500TIP3    H240442   5.707   3.503   4.867  0.9803  1.2294 -1.7229
13501TIP3   OH240443   3.133   7.456   4.823  0.4277 -0.6176 -0.0012
13501TIP3    H140444   3.059   7.515   4.838  0.6955 -0.4156  0.5452
13501TIP3    H240445   3.197   7.480   4.890  0.2996 -1.9417  0.6390
13502TIP3   OH240446   3.935   0.803   3.585  0.2866 -0.0494 -0.6070
13502TIP3    H140447   3.944   0.872   3.651 -1.0324 -1.6036  1.2961
13502TIP3    H240448   3.911   0.850   3.505 -0.8702  1.7020  0.6792
13503TIP3   OH240449   3.149   5.805   4.060  0.5318  0.1187  0.3084
13503TIP3    H140450   3.109   5.797   3.973  1.8690  0.4406 -0.3731
13503TIP3    H240451   3.081   5.778   4.121 -0.7294  0.7118 -0.7829
13504TIP3   OH240452   2.783   4.283   3.575  0.1865  0.3705  0.5553
13504TIP3    H140453   2.787   4.231   3.656  0.5060  1.7322  1.4387
13504TIP3    H240454   2.874   4.309   3.560  0.0160  0.7501  0.1795
13505TIP3   OH240455   4.455   7.606   2.408 -0.0862 -0.1638  0.4557
13505TIP3    H140456   4.455   7.702   2.408  1.4939 -0.1222 -1.6639
13505TIP3    H240457   4.378   7.582   2.357  0.0012 -0.0146  0.2545
13506TIP3   OH240458   7.486   2.598   4.251 -0.7616  0.2288 -0.2164
13506TIP3    H140459   7.418   2.651   4.292  0.4308  2.4362 -0.9255
13506TIP3    H240460   7.503   2.528   4.313 -1.6128  1.3339  1.3186
13507TIP3   OH240461   8.181   1.812   4.654  0.1836 -0.0331  0.5557
13507TIP3    H140462   8.270   1.843   4.670  0.7722 -0.6025 -1.3642
13507TIP3    H240463   8.183   1.719   4.676  0.6271 -0.4967 -1.2728
13508TIP3   OH240464   7.467   1.463   1.832  0.2658 -0.0633  0.3226
13508TIP3    H140465   7.436   1.542   1.788  0.6349  0.2228  0.5702
13508TIP3    H240466   7.424   1.464   1.917 -1.0202 -1.0011 -0.2986
13509TIP3   OH240467   4.537   0.692   5.773 -0.3584  0.0454 -0.0499
13509TIP3    H140468   4.508   0.614   5.821  0.8858 -0.6732 -0.4065
13509TIP3    H240469   4.621   0.714   5.814 -0.8020  1.3430  0.1877
13510TIP3   OH240470   1.717   0.714   4.844  0.3093  0.2535 -0.4681
13510TIP3    H140471   1.666   0.641   4.879  1.6297  0.1890  1.4654
13510TIP3    H240472   1.665   0.791   4.864 -1.1391 -0.0811 -2.6029
13511TIP3   OH240473   3.386   6.740   5.585 -0.4841  0.6108 -0.0387
13511TIP3    H140474   3.457   6.801   5.601  1.7254 -1.5580 -0.9829
13511TIP3    H240475   3.368   6.746   5.491  0.2229 -0.6108 -0.2731
13512TIP3   OH240476   0.044   3.066   1.127 -0.2644  0.1084 -0.0380
13512TIP3    H140477  -0.001   3.121   1.063 -0.6529  0.7023  0.7313
13512TIP3    H240478   0.014   2.977   1.107 -0.6820  0.3313 -0.4280
13513TIP3   OH240479   5.968   3.388   5.238 -0.1272 -0.9400  0.0549
13513TIP3    H140480   5.937   3.362   5.325  2.0197 -0.4600  1.0181
13513TIP3    H240481   5.974   3.483   5.242 -0.2631 -0.8927 -0.7235
13514TIP3   OH240482   6.855   1.316   2.567  0.0380  0.0569  0.0591
13514TIP3    H140483   6.867   1.331   2.473  0.0558  0.7294  0.1644
13514TIP3    H240484   6.807   1.234   2.572 -1.4775  0.8577 -0.6109
13515TIP3   OH240485   4.238   6.227   1.087 -0.4776 -0.3930 -0.0016
13515TIP3    H140486   4.280   6.190   1.164  0.6459 -0.6838 -0.7403
13515TIP3    H240487   4.144   6.226   1.107 -0.1467  0.3846  1.7257
13516TIP3   OH240488   6.918   6.745   5.492 -0.4327  0.2064 -0.3017
13516TIP3    H140489   6.975   6.818   5.516 -1.2819  0.6167  0.5436
13516TIP3    H240490   6.976   6.682   5.450  1.3811 -0.8563  3.3411
13517TIP3   OH240491   4.762   3.172   0.008 -0.5042  0.1850  0.0676
13517TIP3    H140492   4.742   3.092   0.058 -0.8657 -0.4776 -1.1024
13517TIP3    H240493   4.857   3.173   0.001 -0.4846 -0.0168  0.2728
13518TIP3   OH240494   5.282   6.978   3.029  0.3480 -0.4786  0.0497
13518TIP3    H140495   5.262   7.071   3.028  1.3408 -0.2200  1.6696
13518TIP3    H240496   5.360   6.970   3.084 -0.9818 -2.4665  1.8260
13519TIP3   OH240497   4.796   1.525   4.995 -0.3548  0.1378  0.0565
13519TIP3    H140498   4.817   1.447   4.943 -2.8260  0.8221 -2.1427
13519TIP3    H240499   4.880   1.551   5.033  1.2012 -1.5980 -1.9398
13520TIP3   OH240500   4.338   7.886   0.845 -0.5421  0.3392 -0.4333
13520TIP3    H140501   4.434   7.892   0.843 -0.5759  0.9314 -0.5901
13520TIP3    H240502   4.308   7.975   0.825 -1.1229  0.4445  0.7826
13521TIP3   OH240503   5.585   6.096   6.638 -0.1537 -0.6843  0.1855
13521TIP3    H140504   5.519   6.136   6.695  1.2584 -0.1164  1.5121
13521TIP3    H240505   5.589   6.005   6.668 -1.9877 -1.4118 -1.5337
13522TIP3   OH240506   4.762   6.136   2.665 -0.3515 -0.6030 -0.5422
13522TIP3    H140507   4.733   6.222   2.635 -2.4679 -1.2405 -0.4623
13522TIP3    H240508   4.688   6.078   2.648 -0.1238 -1.8275  2.1428
13523TIP3   OH240509   8.298   2.529   0.664 -0.1171 -0.0137  0.0905
13523TIP3    H140510   8.332   2.511   0.577 -0.2986  0.2217 -0.0326
13523TIP3    H240511   8.277   2.623   0.662  0.7318  0.1986  0.6810
13524TIP3   OH240512   8.152   4.835   5.904  0.3799  0.6458 -0.0757
13524TIP3    H140513   8.125   4.749   5.873  0.0459  0.1749  1.4353
13524TIP3    H240514   8.247   4.828   5.917  0.0159 -0.5095  2.8207
13525TIP3   OH240515   0.473   1.569   0.880  0.6980 -0.4742 -0.3910
13525TIP3    H140516   0.487   1.501   0.946 -0.7068 -0.5065 -0.1014
13525TIP3    H240517   0.414   1.529   0.816 -1.3467  0.8726  0.5313
13526TIP3   OH240518   7.838   5.522   6.592 -0.1375  0.0572  0.1137
13526TIP3    H140519   7.755   5.569   6.605 -0.1992  0.6770 -2.0383
13526TIP3    H240520   7.823   5.436   6.631 -1.5950  0.3508  0.2766
13527TIP3   OH240521   2.641   2.776   1.684  0.2510  0.3992 -0.5029
13527TIP3    H140522   2.628   2.859   1.639  1.7031 -0.0877 -1.9285
13527TIP3    H240523   2.613   2.710   1.620  0.6223 -0.2508 -0.0098
13528TIP3   OH240524   4.096   1.448   1.197  0.2010  0.1992 -0.0142
13528TIP3    H140525   4.019   1.497   1.226  1.3547  1.7269  0.6055
13528TIP3    H240526   4.085   1.440   1.102 -1.4998 -1.0737  0.2384
13529TIP3   OH240527   2.672   4.814   5.812  0.4969  0.2759 -0.3580
13529TIP3    H140528   2.669   4.903   5.777  0.2299 -0.2385 -1.6956
13529TIP3    H240529   2.669   4.825   5.907 -2.1732  1.5858 -0.5274
13530TIP3   OH240530   7.090   4.397   2.093  0.2661  0.2854  0.1615
13530TIP3    H140531   7.185   4.400   2.104  0.4440  1.9202 -1.3774
13530TIP3    H240532   7.056   4.458   2.159  0.6173  2.5938 -1.6720
13531TIP3   OH240533   1.482   2.530   2.785 -0.3180  0.0583  0.2890
13531TIP3    H140534   1.521   2.615   2.766 -0.5947  0.1762  0.2453
13531TIP3    H240535   1.547   2.485   2.839 -0.9244  0.9877  1.8624
13532TIP3   OH240536   5.763   3.098   5.538  0.5220  0.2180  0.4980
13532TIP3    H140537   5.712   3.047   5.601 -1.5754  0.1621 -1.1406
13532TIP3    H240538   5.757   3.188   5.571 -0.3814  0.1657  0.4900
13533TIP3   OH240539   6.661   2.378   5.753  0.0237 -0.1391 -0.4702
13533TIP3    H140540   6.736   2.324   5.728  0.7585  0.8418 -0.4280
13533TIP3    H240541   6.643   2.354   5.844  0.7677  0.1706 -0.2413
13534TIP3   OH240542   4.347   7.021   3.187  0.4270 -0.0705 -0.4392
13534TIP3    H140543   4.339   6.952   3.253  2.6446  0.6466  0.6973
13534TIP3    H240544   4.289   7.091   3.216  0.2908 -0.3432 -0.0580
13535TIP3   OH240545   8.304   1.382   2.973 -0.1734 -0.0906 -0.0527
13535TIP3    H140546   8.342   1.430   3.046  2.8155 -2.0590 -0.1600
13535TIP3    H240547   8.320   1.438   2.897 -2.2258  1.4005  0.4949
13536TIP3   OH240548   2.257   0.799   4.896  0.4431 -0.2716 -0.0418
13536TIP3    H140549   2.250   0.704   4.888  1.0255 -0.4994  1.5790
13536TIP3    H240550   2.239   0.816   4.989 -0.4152  1.2968 -0.4602
13537TIP3   OH240551   3.880   3.476   3.919 -0.1155 -0.1723 -0.2408
13537TIP3    H140552   3.948   3.540   3.942  0.5875 -0.5296 -1.2735
13537TIP3    H240553   3.814   3.486   3.988  0.6148  0.7228  0.3562
13538TIP3   OH240554   7.846   0.575   5.204  0.4232  0.0153  0.6619
13538TIP3    H140555   7.890   0.588   5.120  1.5669  0.5099  1.3150
13538TIP3    H240556   7.877   0.489   5.234 -0.4874 -0.4504  0.2884
13539TIP3   OH240557   3.714   1.284   5.771  0.1846  0.0313 -0.0515
13539TIP3    H140558   3.711   1.188   5.765 -1.0539  0.0437  0.1281
13539TIP3    H240559   3.749   1.300   5.859 -0.7863 -0.2809  0.4079
13540TIP3   OH240560   2.308   1.334   4.979 -0.0740  0.7585 -0.0527
13540TIP3    H140561   2.246   1.274   4.938 -1.4051  1.1124  1.3422
13540TIP3    H240562   2.254   1.390   5.035  1.3758  1.8981  0.2725
13541TIP3   OH240563   1.101   2.054   4.511  0.1833 -0.1903 -0.2513
13541TIP3    H140564   1.185   2.096   4.492  0.0833  0.4777  0.7284
13541TIP3    H240565   1.038   2.099   4.455 -0.0716  1.6144  1.4003
13542TIP3   OH240566   4.860   0.177   1.508 -0.2999 -0.1656  0.2067
13542TIP3    H140567   4.886   0.127   1.431 -0.5194 -2.1782  1.3914
13542TIP3    H240568   4.792   0.236   1.476 -0.5703 -1.1390 -1.0818
13543TIP3   OH240569   6.142   6.030   1.013 -0.1808  0.0436 -0.1241
13543TIP3    H140570   6.069   5.998   0.961  0.2997 -0.1961 -0.6660
13543TIP3    H240571   6.205   6.063   0.949  0.6694 -0.7835  0.2670
13544TIP3   OH240572   3.051   2.199   5.581  0.4023 -0.0053  0.0301
13544TIP3    H140573   3.108   2.198   5.504  1.2462 -1.7809  0.6099
13544TIP3    H240574   3.002   2.117   5.575  0.5739 -0.2387  1.4341
13545TIP3   OH240575   4.054   7.065   3.368  0.8226  0.1850 -0.5086
13545TIP3    H140576   3.971   7.020   3.352 -0.1034  1.4823  0.3889
13545TIP3    H240577   4.046   7.148   3.320  0.7764  1.1331  1.0308
13546TIP3   OH240578   7.606   0.383   1.654 -0.3826 -0.0985 -0.1202
13546TIP3    H140579   7.598   0.288   1.650  0.2536 -0.1321 -0.7187
13546TIP3    H240580   7.665   0.406   1.582 -1.3808  0.8459 -0.6778
13547TIP3   OH240581   3.127   2.449   4.749  0.8701  0.1416  0.3736
13547TIP3    H140582   3.035   2.473   4.739  0.8011 -0.3669 -0.2972
13547TIP3    H240583   3.129   2.354   4.736  1.7737  0.3987 -1.9070
13548TIP3   OH240584   8.269   4.163   2.667 -0.4608 -0.1813  0.8531
13548TIP3    H140585   8.265   4.114   2.585 -1.0013 -0.2472  0.9202
13548TIP3    H240586   8.225   4.246   2.647 -0.2801 -0.0530  0.9790
13549TIP3   OH240587   8.321   6.230   6.734  0.1200 -0.0908 -0.0951
13549TIP3    H140588   8.335   6.136   6.736  0.6692  0.0072  1.4178
13549TIP3    H240589   8.242   6.244   6.785 -0.0354  0.2598 -0.4288
13550TIP3   OH240590   2.505   3.308   2.284 -0.4215  0.2168 -0.3657
13550TIP3    H140591   2.564   3.382   2.302 -1.0086  0.7091 -0.4071
13550TIP3    H240592   2.517   3.290   2.191  0.4462 -0.3963 -0.1506
13551TIP3   OH240593   4.783   1.338   5.632 -0.2173  0.0784  0.2059
13551TIP3    H140594   4.850   1.322   5.566 -0.8957  0.8022 -0.6768
13551TIP3    H240595   4.725   1.262   5.627  0.5853 -0.6232  1.0761
13552TIP3   OH240596   3.495   7.682   1.996 -0.4198  0.1780  0.1360
13552TIP3    H140597   3.585   7.666   2.024 -0.6611 -0.0529  0.8281
13552TIP3    H240598   3.499   7.690   1.901  0.4619  1.0653  0.2363
13553TIP3   OH240599   5.231   6.688   3.367 -0.3462  0.2105  0.2962
13553TIP3    H140600   5.231   6.784   3.375 -2.3487  0.3086 -0.4051
13553TIP3    H240601   5.232   6.672   3.273  2.4727 -0.5714  0.3630
13554TIP3   OH240602   7.041   3.183   1.474 -0.2898  0.4211 -0.0258
13554TIP3    H140603   6.983   3.253   1.446  0.5751  1.9097  1.7169
13554TIP3    H240604   7.109   3.226   1.525  1.4110 -1.4560 -0.5302
13555TIP3   OH240605   3.305   5.980   5.806 -0.0163 -0.1472  0.0141
13555TIP3    H140606   3.270   6.061   5.769 -1.2293 -1.1032 -1.0236
13555TIP3    H240607   3.399   5.984   5.791 -0.1811  0.6669 -0.8195
13556TIP3   OH240608   0.588   1.229   4.306  0.0788  0.4418  0.5461
13556TIP3    H140609   0.512   1.256   4.358 -1.3585  1.5479 -1.9631
13556TIP3    H240610   0.650   1.301   4.315 -0.4195  0.9146  0.2393
13557TIP3   OH240611   2.306   4.819   3.239  0.6875 -0.6674  0.6047
13557TIP3    H140612   2.282   4.778   3.322  4.6550 -1.2769  1.6637
13557TIP3    H240613   2.401   4.810   3.234  0.6193 -2.6646 -5.0843
13558TIP3   OH240614   1.170   0.563   5.752  0.1958  0.3047  0.4295
13558TIP3    H140615   1.091   0.594   5.707  0.2135 -2.3641 -1.7082
13558TIP3    H240616   1.136   0.512   5.826  0.0687  1.5098  1.2407
13559TIP3   OH240617   6.622   0.076   6.107  0.0411 -0.2697 -0.3082
13559TIP3    H140618   6.630   0.022   6.185  0.5000  0.5654  0.2486
13559TIP3    H240619   6.618   0.166   6.140  0.4054  0.1134 -1.2459
13560TIP3   OH240620   3.751   0.342   5.937  0.6376 -0.2612 -0.1060
13560TIP3    H140621   3.801   0.275   5.984 -0.0227 -2.1005 -1.8915
13560TIP3    H240622   3.759   0.317   5.844 -2.4717  0.1120 -0.5688
13561TIP3   OH240623   2.681   1.622   2.847 -0.1803  0.2214  0.1942
13561TIP3    H140624   2.654   1.688   2.783  1.7714  1.3652  0.4823
13561TIP3    H240625   2.689   1.541   2.795 -0.6307  0.6640 -0.5854
13562TIP3   OH240626   3.577   6.670   0.853  0.0845  0.0702  0.2294
13562TIP3    H140627   3.665   6.701   0.831 -0.6290  2.0411 -0.0970
13562TIP3    H240628   3.569   6.585   0.810  0.9460  0.9934 -1.9000
13563TIP3   OH240629   5.196   1.590   0.654  0.5050  0.2977 -0.0302
13563TIP3    H140630   5.175   1.502   0.685  0.9660  0.4330  0.6873
13563TIP3    H240631   5.201   1.643   0.734  2.5414  0.4853 -0.2333
13564TIP3   OH240632   3.474   1.194   6.134 -1.0698  0.5210 -0.3770
13564TIP3    H140633   3.492   1.100   6.127 -0.2072  0.5804  0.6657
13564TIP3    H240634   3.437   1.204   6.221 -0.2406  1.2602 -0.0948
13565TIP3   OH240635   3.773   2.775   5.293 -0.2710 -0.3759 -0.2219
13565TIP3    H140636   3.747   2.852   5.344 -0.8020 -0.5403 -0.2368
13565TIP3    H240637   3.833   2.809   5.227 -0.6425  0.0568 -0.3415
13566TIP3   OH240638   1.984   1.311   6.446 -0.2163  1.1499  0.5887
13566TIP3    H140639   1.980   1.318   6.541  0.1251  2.0106  0.5463
13566TIP3    H240640   2.053   1.248   6.429 -1.1560 -0.0103  0.9256
13567TIP3   OH240641   5.478   1.216   2.661  0.2891 -0.1444  0.2073
13567TIP3    H140642   5.537   1.155   2.616  1.4490  1.8685 -1.1447
13567TIP3    H240643   5.456   1.281   2.595 -0.1091  1.4640  1.8457
13568TIP3   OH240644   1.503   4.170   0.626 -0.2928  0.0989 -0.3048
13568TIP3    H140645   1.494   4.108   0.554 -2.4523 -1.7818  1.4669
13568TIP3    H240646   1.426   4.156   0.680  1.4286  1.1517  2.6157
13569TIP3   OH240647   1.482   4.075   0.371 -0.6831 -0.5303 -0.5848
13569TIP3    H140648   1.545   4.143   0.348  0.1660 -1.4450 -1.0792
13569TIP3    H240649   1.430   4.064   0.291  1.3917 -2.7693 -1.7620
13570TIP3   OH240650   4.623   1.515   0.581 -0.2350  0.2132 -0.0311
13570TIP3    H140651   4.547   1.475   0.624 -0.1853  0.8371  0.6543
13570TIP3    H240652   4.625   1.474   0.494 -0.3756 -1.0267  0.5241
13571TIP3   OH240653   6.082   2.939   4.756  0.8222  0.8956  0.3527
13571TIP3    H140654   5.987   2.951   4.767  0.4298 -0.1554 -1.4095
13571TIP3    H240655   6.121   3.015   4.799 -0.6972  0.3904  2.8641
13572TIP3   OH240656   0.979   7.398   2.929  0.1778 -0.6327  0.0468
13572TIP3    H140657   1.047   7.390   2.995  0.1991  0.5525  0.1751
13572TIP3    H240658   0.967   7.492   2.917 -1.3808 -0.8229 -0.0349
13573TIP3   OH240659   0.339   5.248   5.896 -0.2363 -0.3352 -0.1835
13573TIP3    H140660   0.420   5.216   5.855 -0.4461 -0.5258 -0.4511
13573TIP3    H240661   0.300   5.171   5.937 -0.5864 -0.3606 -0.5648
13574TIP3   OH240662   3.378   4.424   4.890  0.3475  0.1200 -0.0975
13574TIP3    H140663   3.399   4.331   4.881 -2.0189 -0.5569  0.5798
13574TIP3    H240664   3.366   4.436   4.984 -1.9271  0.4443 -0.3847
13575TIP3   OH240665   1.626   5.008   4.006 -1.2689 -0.2865 -0.5693
13575TIP3    H140666   1.607   4.949   4.079 -1.0443  0.0555 -0.2321
13575TIP3    H240667   1.647   5.091   4.048 -3.2138  0.5115 -1.0722
13576TIP3   OH240668   1.632   1.649   4.779  0.3529 -0.1896 -0.0006
13576TIP3    H140669   1.544   1.685   4.780 -0.4067 -1.9528  0.5288
13576TIP3    H240670   1.665   1.664   4.868  0.2252 -0.3598  0.0755
13577TIP3   OH240671   6.426   6.944   5.676 -0.0670  0.0705 -0.3274
13577TIP3    H140672   6.444   6.918   5.586 -3.1017 -0.0796 -0.9775
13577TIP3    H240673   6.354   6.887   5.704  1.9162 -1.1900  2.9120
13578TIP3   OH240674   5.233   3.307   2.892 -0.2829  0.0842 -0.0863
13578TIP3    H140675   5.292   3.239   2.924  0.9979  0.8725 -0.6541
13578TIP3    H240676   5.236   3.375   2.960 -2.1769 -0.6932  0.8679
13579TIP3   OH240677   5.842   2.000   5.327 -0.7186  0.0148  0.3906
13579TIP3    H140678   5.862   2.056   5.252 -1.6480 -1.8269 -1.3532
13579TIP3    H240679   5.772   2.045   5.373 -0.8515  0.6983 -0.4572
13580TIP3   OH240680   1.013   7.462   2.353  0.0250  0.2728  0.2839
13580TIP3    H140681   0.971   7.413   2.283 -0.4836  1.5869 -0.3597
13580TIP3    H240682   1.030   7.548   2.315  1.2839  0.4817  1.2460
13581TIP3   OH240683   0.064   3.102   4.739 -0.1489 -0.1807 -0.3388
13581TIP3    H140684   0.125   3.169   4.708 -1.6647  1.1436 -0.5572
13581TIP3    H240685  -0.000   3.094   4.668 -1.4157  0.0039  0.7607
13582TIP3   OH240686   2.523   7.451   4.454 -0.2278 -0.6683 -0.0710
13582TIP3    H140687   2.464   7.379   4.433  1.1226 -2.1811  1.0580
13582TIP3    H240688   2.553   7.433   4.543 -1.0667  2.1929  0.8983
13583TIP3   OH240689   4.101   6.443   1.262  0.2030 -0.9618 -0.0079
13583TIP3    H140690   4.079   6.400   1.345  0.5313 -1.9228 -0.3960
13583TIP3    H240691   4.033   6.509   1.249  0.7517 -0.0473  1.5490
13584TIP3   OH240692   6.273   6.124   1.344 -0.0575  0.0219  0.2484
13584TIP3    H140693   6.349   6.112   1.287 -1.0415  0.3812 -1.1853
13584TIP3    H240694   6.301   6.190   1.407  0.6689  0.4948 -0.5446
13585TIP3   OH240695   3.289   6.183   3.842 -0.2256  0.0501 -0.3089
13585TIP3    H140696   3.248   6.110   3.889  2.1967 -0.9057  0.5150
13585TIP3    H240697   3.311   6.146   3.757  2.2397 -0.7508  0.5770
13586TIP3   OH240698   4.689   0.087   2.173 -0.3790 -0.3244 -0.0036
13586TIP3    H140699   4.645   0.028   2.112 -2.8478  1.3566  0.0123
13586TIP3    H240700   4.624   0.105   2.241  0.6139  1.6481  0.5124
13587TIP3   OH240701   4.330   6.568   1.916  0.5602 -0.0165 -0.8234
13587TIP3    H140702   4.351   6.660   1.933  1.6227  0.2357 -3.1908
13587TIP3    H240703   4.234   6.563   1.926  0.3083  1.6750 -2.0058
13588TIP3   OH240704   1.375   7.667   0.500 -0.1066  0.7330  0.3061
13588TIP3    H140705   1.330   7.614   0.566  2.3911 -0.0467  1.5076
13588TIP3    H240706   1.371   7.757   0.533 -0.2174  0.5693  0.7332
13589TIP3   OH240707   1.077   2.491   3.542  0.0512 -0.2646  0.1708
13589TIP3    H140708   1.062   2.401   3.513  1.3618 -0.5209  0.2178
13589TIP3    H240709   0.990   2.527   3.556 -0.4881 -1.5634  0.2494
13590TIP3   OH240710   3.551   6.515   4.947  0.0867  0.1363 -0.0583
13590TIP3    H140711   3.615   6.465   4.896 -0.6295 -2.7850  1.6681
13590TIP3    H240712   3.599   6.539   5.027 -0.2713  0.0500  0.1833
13591TIP3   OH240713   1.812   2.424   2.783  0.0659 -0.1458  0.3639
13591TIP3    H140714   1.869   2.353   2.813  1.3824  1.0991  0.9397
13591TIP3    H240715   1.752   2.439   2.857  0.3399 -0.0972  0.5786
13592TIP3   OH240716   2.160   1.420   4.292  0.2629 -0.0916 -0.0877
13592TIP3    H140717   2.179   1.510   4.265 -0.3214  0.3874  1.0180
13592TIP3    H240718   2.216   1.365   4.237 -0.7388  0.8186 -2.1371
13593TIP3   OH240719   6.117   1.619   6.760  0.2128 -0.4440 -0.0081
13593TIP3    H140720   6.089   1.529   6.778 -1.1861 -0.0771 -0.2418
13593TIP3    H240721   6.202   1.609   6.716 -0.2030 -1.6938 -0.5893
13594TIP3   OH240722   1.608   1.222   1.285  0.1924 -0.2794  0.1303
13594TIP3    H140723   1.572   1.290   1.227  1.3911  0.1167 -0.1898
13594TIP3    H240724   1.539   1.157   1.291 -0.5076  0.3675 -0.5930
13595TIP3   OH240725   6.925   6.215   3.625  0.0519  0.1792 -0.0347
13595TIP3    H140726   6.991   6.145   3.621 -0.5300 -0.3599 -0.4229
13595TIP3    H240727   6.881   6.201   3.709 -1.1999 -0.9962 -0.8466
13596TIP3   OH240728   1.232   1.724   1.531  0.1946  0.2304  0.7173
13596TIP3    H140729   1.166   1.656   1.519  1.1444 -0.7538  0.8247
13596TIP3    H240730   1.254   1.753   1.443  0.7027 -0.5396  0.5787
13597TIP3   OH240731   7.485   1.383   2.652 -0.3851 -0.2256 -0.0126
13597TIP3    H140732   7.461   1.296   2.621  1.2512 -0.6848 -0.0427
13597TIP3    H240733   7.456   1.442   2.581  2.3961 -1.1619 -2.0999
13598TIP3   OH240734   2.164   0.634   5.637  0.3614 -0.4208  0.5444
13598TIP3    H140735   2.211   0.717   5.643 -1.5233  0.6911  0.4520
13598TIP3    H240736   2.111   0.641   5.557  1.3898 -2.4054 -0.3997
13599TIP3   OH240737   7.365   1.332   5.657 -0.2026 -0.4957 -0.0954
13599TIP3    H140738   7.294   1.284   5.701 -0.2914 -1.0012 -0.7873
13599TIP3    H240739   7.323   1.374   5.582 -0.1365  0.7127  0.5143
13600TIP3   OH240740   0.257   1.220   1.066  0.7389  0.0998  0.4842
13600TIP3    H140741   0.230   1.130   1.048 -1.7422  0.7651  0.5558
13600TIP3    H240742   0.315   1.213   1.142  0.6883 -1.4532  0.4062
13601TIP3   OH240743   0.024   5.359   6.727 -0.0371 -0.8968  0.3150
13601TIP3    H140744  -0.067   5.328   6.727  0.0292 -1.0936  0.2608
13601TIP3    H240745   0.056   5.339   6.815  0.3390 -1.9729 -0.0607
13602TIP3   OH240746   6.422   3.837   3.828 -0.1886  0.4883 -0.2594
13602TIP3    H140747   6.349   3.790   3.869 -0.9513  1.3620 -0.5841
13602TIP3    H240748   6.421   3.809   3.737  0.0265  0.3356 -0.2165
13603TIP3   OH240749   2.913   5.270   4.973 -0.1043  0.1916 -0.4806
13603TIP3    H140750   2.842   5.329   4.999 -0.9981  0.1181 -2.5830
13603TIP3    H240751   2.898   5.191   5.026 -0.7765  0.6685  0.0627
13604TIP3   OH240752   2.468   7.846   6.436  0.0813  0.4836  0.5104
13604TIP3    H140753   2.499   7.761   6.405  0.6587  0.8251  0.1153
13604TIP3    H240754   2.427   7.828   6.520  0.9007 -0.0825  0.8057
13605TIP3   OH240755   4.271   2.162   5.308  0.1694  0.0779  0.3911
13605TIP3    H140756   4.228   2.153   5.224  0.2585  1.3589  0.1766
13605TIP3    H240757   4.334   2.090   5.311  1.2509  0.8791 -1.3306
13606TIP3   OH240758   1.133   4.887   5.733 -0.1771 -0.4033 -0.0952
13606TIP3    H140759   1.164   4.857   5.819  1.2382  0.0763 -0.4182
13606TIP3    H240760   1.085   4.968   5.752  1.3443  0.4908  0.1380
13607TIP3   OH240761   7.103   5.684   3.616  0.3456 -0.0491 -0.3184
13607TIP3    H140762   7.049   5.700   3.693  1.0833 -0.0605  0.2160
13607TIP3    H240763   7.186   5.728   3.636  0.0237  1.3199 -1.7695
13608TIP3   OH240764   0.125   2.968   0.755  0.1889  0.1084  0.4118
13608TIP3    H140765   0.122   2.885   0.708  1.9814 -1.5376  2.8981
13608TIP3    H240766   0.205   3.010   0.723  1.8882 -1.4093  2.3899
13609TIP3   OH240767   1.037   5.362   3.025 -0.1935 -0.2593  0.7251
13609TIP3    H140768   1.015   5.425   2.956  0.3416 -0.9693 -0.1211
13609TIP3    H240769   0.958   5.358   3.079 -1.0241 -0.4415 -0.4476
13610TIP3   OH240770   3.740   0.624   2.914  0.0735  0.1474 -0.0435
13610TIP3    H140771   3.755   0.535   2.945 -0.0930 -0.0238 -0.4375
13610TIP3    H240772   3.776   0.624   2.825  2.0392  1.0790  0.6818
13611TIP3   OH240773   5.403   1.118   0.478  0.3638 -0.4219  0.1630
13611TIP3    H140774   5.391   1.117   0.573 -1.7129 -0.9487 -0.0594
13611TIP3    H240775   5.389   1.210   0.453  0.2234 -0.4062  0.2979
13612TIP3   OH240776   1.055   4.289   1.377 -0.6822 -0.2409  0.0184
13612TIP3    H140777   0.983   4.282   1.439 -1.0762 -2.4830 -0.6017
13612TIP3    H240778   1.034   4.367   1.324 -1.5865  0.2742  1.1009
13613TIP3   OH240779   6.295   0.283   2.084  0.1802 -0.5857  0.5677
13613TIP3    H140780   6.306   0.316   2.173  0.9028  1.0046 -0.0885
13613TIP3    H240781   6.220   0.331   2.049  2.0839  1.5689 -0.8694
13614TIP3   OH240782   7.387   1.194   1.089  0.3394  1.0230 -0.4001
13614TIP3    H140783   7.411   1.144   1.167  1.4492  2.0934 -0.0186
13614TIP3    H240784   7.317   1.143   1.048  0.3450 -0.0092  0.8139
13615TIP3   OH240785   5.693   1.591   1.366 -0.1222 -0.9449  0.3882
13615TIP3    H140786   5.736   1.630   1.442 -1.2051  0.4511  0.3234
13615TIP3    H240787   5.658   1.666   1.318 -0.6501 -1.8995 -0.7575
13616TIP3   OH240788   6.071   0.942   4.117  0.6364  0.0713 -0.0275
13616TIP3    H140789   6.046   0.880   4.048 -0.2911  1.4849 -1.0378
13616TIP3    H240790   6.159   0.970   4.093  1.4399 -1.5122  0.9591
13617TIP3   OH240791   7.659   0.120   1.637  0.3112  0.2697  0.6268
13617TIP3    H140792   7.629   0.037   1.674  0.4117 -0.7436 -1.4280
13617TIP3    H240793   7.754   0.118   1.650  0.1176  1.1346  2.5506
13618TIP3   OH240794   3.490   5.869   2.674  0.5428 -0.3147 -0.1034
13618TIP3    H140795   3.458   5.905   2.757  1.0268  0.4723 -0.2461
13618TIP3    H240796   3.460   5.778   2.674  0.7805 -0.4070  1.0585
13619TIP3   OH240797   2.983   0.786   3.606  0.3554  0.4487 -0.5154
13619TIP3    H140798   2.920   0.721   3.576  1.4333 -1.6437  1.4359
13619TIP3    H240799   2.945   0.820   3.687  0.7222  0.7798 -0.4804
13620TIP3   OH240800   2.937   6.252   2.695  0.5430  0.5833  0.3710
13620TIP3    H140801   2.987   6.334   2.693 -0.1825  1.0462  0.6472
13620TIP3    H240802   2.987   6.192   2.641  2.2237  0.5512  1.8433
13621TIP3   OH240803   5.686   0.766   5.926 -1.1701 -0.4204 -0.6112
13621TIP3    H140804   5.629   0.722   5.988 -2.0838 -1.2943 -2.0164
13621TIP3    H240805   5.646   0.851   5.912 -0.2203  0.3349  0.9700
13622TIP3   OH240806   2.884   2.029   2.513 -0.6491 -0.4327 -0.0683
13622TIP3    H140807   2.880   1.933   2.518  0.4040 -0.4470  0.8799
13622TIP3    H240808   2.888   2.048   2.419  2.0334 -1.5009 -0.2580
13623TIP3   OH240809   5.865   3.785   4.359 -0.0514 -0.2283  0.1121
13623TIP3    H140810   5.928   3.763   4.290  0.0409  0.8568 -0.1618
13623TIP3    H240811   5.795   3.720   4.349 -0.1937  0.1052 -1.2132
13624TIP3   OH240812   3.573   0.262   1.303  0.4485  0.2865  0.1125
13624TIP3    H140813   3.574   0.352   1.335 -2.3397 -0.3620  2.4631
13624TIP3    H240814   3.480   0.241   1.297  1.0320 -2.4866 -0.2502
13625TIP3   OH240815   1.535   1.748   3.584  0.3248  0.1562 -0.0908
13625TIP3    H140816   1.528   1.842   3.566 -1.9427 -0.2553 -1.7055
13625TIP3    H240817   1.564   1.709   3.502 -1.1031 -0.7918 -0.1761
13626TIP3   OH240818   4.978   2.513   0.782  0.2538 -0.1124  0.1242
13626TIP3    H140819   4.971   2.478   0.693  0.5870  0.0555  0.0314
13626TIP3    H240820   4.939   2.600   0.776  1.7411  0.5666 -0.2464
13627TIP3   OH240821   7.185   6.790   4.473  0.0002 -0.1192  0.5023
13627TIP3    H140822   7.107   6.830   4.512 -0.1564  0.1022 -0.0391
13627TIP3    H240823   7.153   6.739   4.399  0.2247 -1.1214  1.0738
13628TIP3   OH240824   8.055   4.914   4.840 -0.0110  0.2024 -0.3748
13628TIP3    H140825   8.118   4.863   4.892 -0.2561  0.2647 -0.0116
13628TIP3    H240826   8.005   4.964   4.905 -0.1134  0.5192 -0.6949
13629TIP3   OH240827   5.185   5.204   4.238 -0.1185 -0.1626 -0.1880
13629TIP3    H140828   5.239   5.138   4.281 -1.5955 -1.1417  0.2256
13629TIP3    H240829   5.102   5.204   4.286 -0.5365  1.2479 -0.8387
13630TIP3   OH240830   3.010   6.696   2.169  0.1995  0.0308 -0.7037
13630TIP3    H140831   3.105   6.693   2.179 -0.0282  0.0376  2.4892
13630TIP3    H240832   2.989   6.623   2.110  2.2113  0.7800 -2.4535
13631TIP3   OH240833   8.246   5.348   5.883 -0.3147 -0.0781 -0.4489
13631TIP3    H140834   8.207   5.338   5.970  0.7200 -1.2064 -0.0692
13631TIP3    H240835   8.187   5.302   5.825 -0.1347 -0.8368 -0.0503
13632TIP3   OH240836   4.080   4.459   4.551  0.0126 -0.2284  0.0829
13632TIP3    H140837   4.049   4.538   4.507  1.5585 -0.6155 -1.8135
13632TIP3    H240838   4.122   4.491   4.631  0.9256  0.9047 -0.8379
13633TIP3   OH240839   4.942   7.749   1.106 -0.1893 -0.3094  0.2658
13633TIP3    H140840   4.996   7.705   1.171  0.2321 -1.0772 -0.5784
13633TIP3    H240841   4.943   7.841   1.132  1.8975 -0.2127  0.0249
13634TIP3   OH240842   5.205   6.346   4.607 -0.2076  0.0084  0.1076
13634TIP3    H140843   5.229   6.423   4.659  0.8278 -0.8512  0.9463
13634TIP3    H240844   5.273   6.282   4.626 -1.1935 -1.2196 -0.3812
13635TIP3   OH240845   6.962   7.791   3.895 -0.2619 -0.0220  0.7876
13635TIP3    H140846   6.875   7.781   3.859 -1.2885  1.3043  2.7046
13635TIP3    H240847   6.982   7.706   3.934 -1.1606 -0.0317  1.2488
13636TIP3   OH240848   2.955   3.141   5.798  0.2336 -0.3085 -0.3540
13636TIP3    H140849   2.997   3.224   5.775  0.0527 -0.2932 -0.6320
13636TIP3    H240850   3.027   3.087   5.830 -0.0459  0.9078  2.6310
13637TIP3   OH240851   5.030   2.597   0.278  0.0171  0.0609 -0.3083
13637TIP3    H140852   5.028   2.512   0.232  0.4609 -1.2072  1.8667
13637TIP3    H240853   4.982   2.581   0.359 -1.8841  2.5857 -0.7972
13638TIP3   OH240854   7.908   6.194   6.550 -0.1280  0.4043  0.9443
13638TIP3    H140855   7.823   6.219   6.515  0.5065  0.4483 -0.6216
13638TIP3    H240856   7.969   6.260   6.517  1.0518 -1.4104 -0.7073
13639TIP3   OH240857   5.416   0.322   4.944 -0.5155 -0.4437  0.4519
13639TIP3    H140858   5.465   0.247   4.978  0.7293 -0.4080 -1.1511
13639TIP3    H240859   5.415   0.385   5.016  2.5640 -0.0968  0.3225
13640TIP3   OH240860   4.187   3.437   2.844 -0.0654  0.0737 -0.4191
13640TIP3    H140861   4.160   3.371   2.907 -2.1498  1.3497  0.1174
13640TIP3    H240862   4.185   3.393   2.760 -2.5868 -0.3194 -0.2312
13641TIP3   OH240863   1.483   1.326   2.436  0.6306  0.3754  0.4024
13641TIP3    H140864   1.549   1.257   2.440 -0.0944 -0.3868 -0.2592
13641TIP3    H240865   1.399   1.279   2.442  0.0917  1.0656 -1.2117
13642TIP3   OH240866   0.349   1.933   6.791 -0.3626  0.2429 -0.2729
13642TIP3    H140867   0.412   1.932   6.720 -0.6024 -0.0806 -0.4855
13642TIP3    H240868   0.301   1.850   6.781  0.7095 -0.6143  1.2574
13643TIP3   OH240869   5.118   6.511   5.498  0.6989  0.3730  0.1306
13643TIP3    H140870   5.111   6.546   5.409 -0.9515 -0.0948  0.0337
13643TIP3    H240871   5.135   6.587   5.553 -0.3399  0.9802 -0.3661
13644TIP3   OH240872   8.313   2.659   0.157 -0.5171  0.2851  0.2285
13644TIP3    H140873   8.376   2.719   0.117  1.8773 -1.0179  1.7946
13644TIP3    H240874   8.268   2.713   0.223  0.7826  0.6813  0.8289
13645TIP3   OH240875   7.309   4.780   6.718  0.7373  0.2624 -0.1717
13645TIP3    H140876   7.386   4.742   6.676  0.0151 -0.9459 -0.4682
13645TIP3    H240877   7.324   4.768   6.812  1.3114  0.8610 -0.1824
13646TIP3   OH240878   1.214   0.088   3.326  0.2772  0.6684 -0.4649
13646TIP3    H140879   1.284   0.032   3.359  1.2119  1.0201 -1.7680
13646TIP3    H240880   1.174   0.037   3.255 -0.0350  0.9290 -0.4796
13647TIP3   OH240881   3.156   0.729   6.628 -0.2112  0.1860  0.2200
13647TIP3    H140882   3.241   0.687   6.641 -1.0625 -2.0141 -0.8818
13647TIP3    H240883   3.165   0.776   6.545  0.0789  0.4202  0.3805
13648TIP3   OH240884   5.068   4.379   5.225  0.1392 -0.1040  0.5429
13648TIP3    H140885   5.024   4.327   5.158  0.0699 -0.8823  1.1761
13648TIP3    H240886   5.149   4.332   5.243  1.3896  1.4270 -0.7574
13649TIP3   OH240887   0.508   5.089   4.239 -0.2121 -0.1397 -0.0036
13649TIP3    H140888   0.590   5.139   4.236  0.3736 -0.9271  1.6785
13649TIP3    H240889   0.530   5.005   4.199 -0.1052 -0.4660  0.7373
13650TIP3   OH240890   0.158   4.686   1.706 -0.6331 -0.2486 -0.2421
13650TIP3    H140891   0.235   4.689   1.763 -1.0008  2.1360  0.2320
13650TIP3    H240892   0.194   4.679   1.617 -0.0418 -3.3688  0.1392
13651TIP3   OH240893   1.719   2.078   6.746  0.4198 -0.0434 -0.2611
13651TIP3    H140894   1.669   1.996   6.753  0.8077 -0.1840  1.3073
13651TIP3    H240895   1.795   2.055   6.692 -1.0180  0.1261 -2.5120
13652TIP3   OH240896   1.764   6.942   4.198 -0.1865  0.2085  0.3632
13652TIP3    H140897   1.716   6.869   4.237  0.3902 -0.3592  0.0206
13652TIP3    H240898   1.802   6.907   4.118  2.9705 -0.1663  1.8660
13653TIP3   OH240899   4.034   1.821   0.688 -0.0662 -0.5930 -0.1086
13653TIP3    H140900   3.957   1.836   0.741  0.5346 -0.2223  0.6821
13653TIP3    H240901   4.007   1.756   0.623 -1.3411  0.3262 -0.5421
13654TIP3   OH240902   3.349   1.063   4.331 -0.1837  0.5668 -0.2590
13654TIP3    H140903   3.302   0.985   4.301 -1.0178  0.6541  0.7602
13654TIP3    H240904   3.417   1.030   4.389  0.0668  0.5357 -0.5708
13655TIP3   OH240905   5.282   6.138   6.195  0.6063  0.4083 -0.9622
13655TIP3    H140906   5.355   6.160   6.252  0.5334 -0.3204 -0.5829
13655TIP3    H240907   5.318   6.145   6.106  1.1440  0.0531 -0.7773
13656TIP3   OH240908   0.849   1.097   4.451 -0.0870 -0.0942  0.6313
13656TIP3    H140909   0.761   1.078   4.483 -1.7785  1.0744 -2.7805
13656TIP3    H240910   0.851   1.192   4.442  1.9192 -0.0105  1.4960
13657TIP3   OH240911   6.429   2.864   1.383 -0.3836  0.2925 -0.7802
13657TIP3    H140912   6.395   2.782   1.346 -0.4452  0.7970 -1.8776
13657TIP3    H240913   6.422   2.927   1.312  0.1421  1.1336 -0.1047
13658TIP3   OH240914   2.907   5.139   0.766  1.0477 -0.1169  0.2693
13658TIP3    H140915   2.990   5.108   0.730  0.7220 -0.2179 -0.3928
13658TIP3    H240916   2.887   5.218   0.716  0.6349 -0.2142  0.2752
13659TIP3   OH240917   6.496   4.287   2.655  0.3157 -0.2646  0.1675
13659TIP3    H140918   6.555   4.336   2.712 -0.1444  0.2279  0.2289
13659TIP3    H240919   6.410   4.296   2.696  0.0814 -0.3913 -0.2878
13660TIP3   OH240920   5.621   7.223   3.288  0.1434 -0.1509  0.3222
13660TIP3    H140921   5.587   7.141   3.251  0.5707 -0.5656  0.8186
13660TIP3    H240922   5.576   7.231   3.372 -0.1616  0.3149  0.1163
13661TIP3   OH240923   0.203   0.417   2.234  0.5637  0.7180 -0.6604
13661TIP3    H140924   0.259   0.367   2.174  0.6745  1.6613 -1.3624
13661TIP3    H240925   0.262   0.480   2.274 -0.0212  1.9505 -1.6551
13662TIP3   OH240926   1.337   0.070   2.203 -0.2270  0.1353 -0.5759
13662TIP3    H140927   1.419   0.023   2.187 -0.2868 -0.4889  0.8023
13662TIP3    H240928   1.317   0.113   2.120  1.9449  1.0062 -0.7054
13663TIP3   OH240929   1.985   3.784   0.618  0.3441  0.9491 -0.0813
13663TIP3    H140930   2.010   3.875   0.602 -0.8941  1.2620 -0.3124
13663TIP3    H240931   1.931   3.787   0.697 -0.5663  0.5695 -0.6799
13664TIP3   OH240932   8.341   2.516   2.444 -0.4083  0.3093 -0.6072
13664TIP3    H140933   8.347   2.435   2.394  1.8881  0.7978 -1.2766
13664TIP3    H240934   8.431   2.532   2.474 -0.9869  2.0891  0.3372
13665TIP3   OH240935   7.007   1.319   5.593  0.4749 -0.2834  0.2655
13665TIP3    H140936   7.026   1.229   5.622  1.3949  0.1048  0.9334
13665TIP3    H240937   6.925   1.312   5.544  0.8722 -1.5895 -0.2537
13666TIP3   OH240938   2.260   3.837   5.428  0.2876  0.8001  0.2673
13666TIP3    H140939   2.261   3.756   5.376 -1.9931  1.5874 -1.1753
13666TIP3    H240940   2.194   3.821   5.495  0.1552  1.2937  0.2545
13667TIP3   OH240941   6.667   2.552   3.303  0.4009 -0.5364 -0.4665
13667TIP3    H140942   6.679   2.460   3.327 -1.8595 -0.8305 -0.2589
13667TIP3    H240943   6.605   2.586   3.367 -0.0698  0.6792 -1.5163
13668TIP3   OH240944   6.438   3.058   5.967  0.2928  0.3486 -0.3428
13668TIP3    H140945   6.492   3.120   6.016 -1.0011  1.3798 -0.1777
13668TIP3    H240946   6.371   3.030   6.029  0.1769 -0.3255 -0.7636
13669TIP3   OH240947   7.250   0.855   2.209  0.2390 -0.1868  0.4287
13669TIP3    H140948   7.308   0.907   2.153 -2.6523  2.1593 -0.6486
13669TIP3    H240949   7.200   0.919   2.259 -1.8961 -2.0124  0.8254
13670TIP3   OH240950   0.783   3.368   5.653 -0.2924  0.6972 -0.1827
13670TIP3    H140951   0.690   3.347   5.643 -0.1909  0.5174 -0.7621
13670TIP3    H240952   0.788   3.416   5.736 -0.5573 -1.3457  1.0852
13671TIP3   OH240953   7.125   1.834   0.350  0.1390 -0.3054 -0.6076
13671TIP3    H140954   7.136   1.889   0.273 -2.1761 -0.4859 -1.1421
13671TIP3    H240955   7.068   1.885   0.408  0.5010 -0.8687  0.2664
13672TIP3   OH240956   0.818   5.521   2.875  0.1910  0.4494 -0.3942
13672TIP3    H140957   0.785   5.596   2.924  2.5842  1.1429  0.3131
13672TIP3    H240958   0.794   5.539   2.784 -1.1010  1.0035  0.0355
13673TIP3   OH240959   0.673   7.926   4.203  0.0344 -0.3914 -0.7296
13673TIP3    H140960   0.620   7.878   4.139 -0.8654 -0.2850 -0.0869
13673TIP3    H240961   0.727   7.859   4.244 -1.9233 -1.0925  0.8725
13674TIP3   OH240962   1.795   7.780   3.489  0.1315 -0.2095 -0.8756
13674TIP3    H140963   1.761   7.702   3.532 -2.3434  0.2252 -1.8915
13674TIP3    H240964   1.798   7.846   3.559  1.7809 -0.9996 -0.1287
13675TIP3   OH240965   8.329   0.251   4.704 -0.1589  0.2109  0.1501
13675TIP3    H140966   8.253   0.220   4.654  0.7678  0.1833 -1.2948
13675TIP3    H240967   8.337   0.343   4.681 -0.1816  0.4106  0.8962
13676TIP3   OH240968   1.609   7.088   3.735  0.1211 -0.2109  0.0793
13676TIP3    H140969   1.670   7.122   3.670  0.4109  1.2279  1.0772
13676TIP3    H240970   1.612   6.993   3.722  1.6529 -0.0877 -0.6876
13677TIP3   OH240971   4.609   6.860  -0.001  0.6185 -0.4094  0.0462
13677TIP3    H140972   4.692   6.872  -0.048  0.1153  1.3169 -0.4554
13677TIP3    H240973   4.633   6.862   0.091  1.3391 -1.6934 -0.0855
13678TIP3   OH240974   1.335   5.714   2.734  0.0144  0.0927 -0.1601
13678TIP3    H140975   1.299   5.669   2.658  1.0954 -1.0795 -0.0084
13678TIP3    H240976   1.406   5.768   2.699  0.9579 -0.9643  0.0746
13679TIP3   OH240977   6.409   1.347   0.871 -0.7344  0.1011 -0.1710
13679TIP3    H140978   6.468   1.293   0.818  0.6825 -1.0334  2.4248
13679TIP3    H240979   6.459   1.426   0.890 -2.2406  1.8347 -2.6278
13680TIP3   OH240980   1.496   7.319   2.467  0.5251  0.6202  0.2869
13680TIP3    H140981   1.560   7.361   2.409 -0.6095  1.2794 -0.5395
13680TIP3    H240982   1.497   7.227   2.441  3.0624  0.0094  2.1311
13681TIP3   OH240983   7.049   5.149   4.933  0.2578 -0.3244 -0.1775
13681TIP3    H140984   7.025   5.092   5.005 -2.9651 -0.6248 -1.3302
13681TIP3    H240985   6.966   5.173   4.892  1.5979  3.3945 -1.1583
13682TIP3   OH240986   6.398   4.210   5.399  0.0488 -0.2589 -0.7705
13682TIP3    H140987   6.446   4.127   5.404 -1.3490 -1.0709 -0.2775
13682TIP3    H240988   6.467   4.277   5.395  1.2111 -1.4027 -0.6882
13683TIP3   OH240989   7.638   4.582   0.567 -0.3843  0.4116  0.2379
13683TIP3    H140990   7.732   4.582   0.550 -0.5368  0.6107 -0.6714
13683TIP3    H240991   7.620   4.670   0.601 -0.2189  0.3294  0.5362
13684TIP3   OH240992   2.122   7.480   2.066 -0.4065  0.1113  0.1604
13684TIP3    H140993   2.060   7.531   2.013 -1.0795  0.5581  1.3537
13684TIP3    H240994   2.208   7.506   2.033 -0.8049  0.4040 -0.6903
13685TIP3   OH240995   3.849   5.013   6.156  0.2865  0.2885  0.3634
13685TIP3    H140996   3.758   5.042   6.156  0.9212  2.5532  0.0955
13685TIP3    H240997   3.847   4.924   6.122 -1.8606  0.1106  0.8365
13686TIP3   OH240998   4.935   7.322   5.684 -0.3077 -0.2053 -0.0660
13686TIP3    H140999   4.918   7.386   5.753  0.1463  0.6728 -0.7611
13686TIP3    H241000   4.950   7.240   5.731  1.1532  0.6146  0.9492
13687TIP3   OH241001   0.757   5.054   2.109  0.3852 -0.1540  0.3359
13687TIP3    H141002   0.852   5.056   2.122  0.3919  0.2615  0.2340
13687TIP3    H241003   0.745   5.025   2.019  0.4398  0.5200  0.1046
13688TIP3   OH241004   3.191   1.710   2.065 -0.1693  0.2793 -0.6240
13688TIP3    H141005   3.202   1.740   1.975 -1.4898 -0.5023 -1.0583
13688TIP3    H241006   3.116   1.759   2.098 -1.0726 -1.0128 -0.6832
13689TIP3   OH241007   1.111   7.405   3.719  0.4764  0.0180  0.8505
13689TIP3    H141008   1.041   7.470   3.726  0.4858 -0.0732  2.0677
13689TIP3    H241009   1.143   7.414   3.629 -0.2476  0.9388  0.6635
13690TIP3   OH241010   1.277   4.892   4.106  0.4580 -0.0443  0.4807
13690TIP3    H141011   1.351   4.839   4.076 -1.1389 -1.8880 -0.4500
13690TIP3    H241012   1.286   4.975   4.060 -0.1788 -1.6628 -2.8912
13691TIP3   OH241013   0.227   3.692   1.495  0.5898 -0.2617  0.1655
13691TIP3    H141014   0.156   3.735   1.448 -0.4269 -1.0705  0.9063
13691TIP3    H241015   0.255   3.756   1.561 -0.6043 -0.5098  0.9637
13692TIP3   OH241016   6.130   3.435   2.506  0.5831 -0.5998  0.6992
13692TIP3    H141017   6.087   3.517   2.531  1.3821 -0.0829  0.4650
13692TIP3    H241018   6.103   3.372   2.571 -2.5593 -1.0077 -0.8339
13693TIP3   OH241019   7.702   3.923   6.355 -0.0691 -0.1168 -0.1169
13693TIP3    H141020   7.628   3.946   6.412  0.3043  0.1648  0.2606
13693TIP3    H241021   7.728   3.836   6.384 -0.4113 -0.3210 -0.4188
13694TIP3   OH241022   4.892   6.488   0.729  0.0194 -0.5491  0.6220
13694TIP3    H141023   4.855   6.436   0.800  0.0069  1.2292  1.9863
13694TIP3    H241024   4.986   6.487   0.744 -0.0239  0.2436  0.9701
13695TIP3   OH241025   6.189   1.249   3.778  0.1312  0.7498  0.1729
13695TIP3    H141026   6.103   1.243   3.819  0.1186  0.1980  0.0697
13695TIP3    H241027   6.251   1.238   3.851  0.1252 -2.0836 -0.1434
13696TIP3   OH241028   6.305   3.874   1.207 -0.3769  0.3999  0.0223
13696TIP3    H141029   6.367   3.881   1.135 -2.0348 -0.9194 -1.6167
13696TIP3    H241030   6.274   3.784   1.203  0.6632 -0.2737  3.4735
13697TIP3   OH241031   7.328   1.009   4.760  0.4401  0.1387  0.0668
13697TIP3    H141032   7.292   1.042   4.678 -2.4195  2.5344  2.0478
13697TIP3    H241033   7.412   1.053   4.770  1.5713 -1.3320 -2.1362
13698TIP3   OH241034   2.963   0.140   4.756  0.6398  0.3074  0.8032
13698TIP3    H141035   2.914   0.074   4.805 -2.1520  0.8490 -1.0156
13698TIP3    H241036   3.001   0.092   4.682  0.5363  0.3513  0.7212
13699TIP3   OH241037   4.798   6.593   4.078 -0.2857 -0.1940  0.5066
13699TIP3    H141038   4.754   6.677   4.094  0.5018  0.1925  0.6561
13699TIP3    H241039   4.800   6.550   4.163  1.2127  0.5660  0.8840
13700TIP3   OH241040   5.615   0.443   5.309  0.0047 -0.1785  0.1180
13700TIP3    H141041   5.648   0.515   5.363  0.7344 -0.4415  0.0371
13700TIP3    H241042   5.688   0.422   5.251 -0.3609 -0.6896 -0.1600
13701TIP3   OH241043   2.890   5.632   2.959  0.3898 -0.2708 -0.5216
13701TIP3    H141044   2.863   5.637   3.051 -0.3839 -0.1196 -0.7528
13701TIP3    H241045   2.943   5.711   2.946  0.3126 -0.1750 -0.2620
13702TIP3   OH241046   2.385   7.515   3.871  0.6562  0.4944  0.2347
13702TIP3    H141047   2.396   7.606   3.898 -0.9767  0.0576  2.6117
13702TIP3    H241048   2.446   7.465   3.926 -1.7517 -0.2733  2.3595
13703TIP3   OH241049   3.737   2.705   2.907 -0.3049 -0.3077  0.1501
13703TIP3    H141050   3.679   2.714   2.832  0.2092  1.0156 -0.1180
13703TIP3    H241051   3.682   2.722   2.983 -0.8650 -1.8157  0.1164
13704TIP3   OH241052   2.312   5.793   2.367  0.3375  0.7206 -0.2056
13704TIP3    H141053   2.408   5.797   2.371  0.2635  2.2858  1.2229
13704TIP3    H241054   2.287   5.746   2.446 -0.0796 -0.6835 -1.1324
13705TIP3   OH241055   3.159   3.210   6.027  0.0063  0.1658 -0.2951
13705TIP3    H141056   3.151   3.265   5.949 -0.5101  2.2067  1.1015
13705TIP3    H241057   3.200   3.267   6.092 -1.8851 -0.5747  1.6871
13706TIP3   OH241058   6.602   4.274   2.372 -0.4535  0.1432  0.4334
13706TIP3    H141059   6.695   4.284   2.388 -0.3161 -0.7397  0.2463
13706TIP3    H241060   6.560   4.328   2.439  0.1935  1.4438 -0.1794
13707TIP3   OH241061   5.188   1.291   4.322  0.4945 -0.5205 -0.0826
13707TIP3    H141062   5.098   1.322   4.319  0.4773 -0.4084  1.0047
13707TIP3    H241063   5.198   1.236   4.245 -0.1272  0.4676 -0.8952
13708TIP3   OH241064   6.148   0.930   0.156 -0.1801  0.2841  0.7683
13708TIP3    H141065   6.119   0.943   0.066  0.5452 -0.7385  0.3654
13708TIP3    H241066   6.097   0.993   0.208 -2.8751 -1.2308  0.0836
13709TIP3   OH241067   6.209   1.066   2.331 -0.7696  0.1155  0.3298
13709TIP3    H141068   6.257   0.984   2.339 -1.2806 -0.1454  0.8229
13709TIP3    H241069   6.275   1.135   2.342 -0.1054 -0.2025 -1.4486
13710TIP3   OH241070   5.394   1.167   0.745  0.7484  0.3730 -0.7090
13710TIP3    H141071   5.434   1.253   0.755  0.8673  0.2495 -0.0426
13710TIP3    H241072   5.462   1.105   0.771  0.0448  0.1745  0.7930
13711TIP3   OH241073   3.850   1.103   6.771 -0.3308  0.1125  0.0721
13711TIP3    H141074   3.937   1.139   6.783 -0.1514 -0.2666 -0.0564
13711TIP3    H241075   3.854   1.017   6.813 -0.2725 -0.4201 -0.9885
13712TIP3   OH241076   6.434   2.400   2.453 -0.1690  0.4062 -0.6368
13712TIP3    H141077   6.507   2.343   2.475  0.8659  0.7013 -3.0599
13712TIP3    H241078   6.456   2.484   2.492 -0.7584 -0.2513  1.2508
13713TIP3   OH241079   4.372   5.436   3.225  0.4458 -0.2008  0.2411
13713TIP3    H141080   4.441   5.404   3.283 -0.0912 -0.1470  0.9228
13713TIP3    H241081   4.292   5.425   3.275 -0.1121 -0.7931 -0.7606
13714TIP3   OH241082   0.893   4.520   0.667  0.3253 -0.0976 -0.3183
13714TIP3    H141083   0.816   4.555   0.623 -0.8108  0.4746  2.0188
13714TIP3    H241084   0.863   4.440   0.710  1.7256 -1.3629 -1.5609
13715TIP3   OH241085   7.819   3.053   6.769 -0.5400  0.1321 -0.0129
13715TIP3    H141086   7.845   3.021   6.683 -1.8512  1.5675 -1.0060
13715TIP3    H241087   7.842   3.146   6.768  1.3732 -0.2251  2.0310
13716TIP3   OH241088   0.175   7.808   6.673 -0.0552  0.1575  0.3553
13716TIP3    H141089   0.248   7.749   6.656  0.3045  0.8678 -0.6609
13716TIP3    H241090   0.187   7.880   6.612 -1.2444  0.6225  0.6289
13717TIP3   OH241091   7.006   4.755   3.713  0.2670 -0.3124  0.0771
13717TIP3    H141092   6.991   4.822   3.780  0.2225  1.2752 -1.4629
13717TIP3    H241093   7.070   4.696   3.753 -0.1677  0.2702  1.7147
13718TIP3   OH241094   1.840   0.062   5.911 -0.1512 -0.3142 -0.2884
13718TIP3    H141095   1.822   0.156   5.912  2.2791  0.2389 -1.1644
13718TIP3    H241096   1.772   0.025   5.856 -2.5060  0.5376  1.8354
13719TIP3   OH241097   1.416   0.810   4.417  0.3147  0.2005 -0.7268
13719TIP3    H141098   1.328   0.808   4.378 -0.8026  2.5432  1.4084
13719TIP3    H241099   1.404   0.775   4.505  0.9421  2.5850  0.4063
13720TIP3   OH241100   4.287   5.622   4.408 -0.1254  0.4678 -0.2048
13720TIP3    H141101   4.241   5.597   4.489 -0.5347 -0.4525 -0.7008
13720TIP3    H241102   4.380   5.616   4.431 -0.2198 -0.7457 -0.0585
13721TIP3   OH241103   2.881   0.662   6.631 -0.2150 -0.0900  0.0061
13721TIP3    H141104   2.879   0.643   6.725  0.7456 -1.1024 -0.1596
13721TIP3    H241105   2.974   0.673   6.611 -0.1857 -2.2551 -1.2662
13722TIP3   OH241106   1.816   2.882   3.362 -0.0098  0.3389  0.7226
13722TIP3    H141107   1.911   2.879   3.359 -0.0095  0.7947 -0.0136
13722TIP3    H241108   1.794   2.973   3.382 -0.2887  0.2043  1.0459
13723TIP3   OH241109   1.765   6.460   6.176  0.2034 -0.2852  0.5334
13723TIP3    H141110   1.730   6.535   6.128 -0.7720 -0.4674  0.9499
13723TIP3    H241111   1.854   6.450   6.142  0.2694  0.9126  0.3073
13724TIP3   OH241112   7.937   0.183   0.715 -0.1471 -0.6680 -0.4184
13724TIP3    H141113   7.918   0.111   0.776  1.4500 -0.7263  0.0477
13724TIP3    H241114   7.908   0.150   0.630 -1.5851 -0.9317  0.1439
13725TIP3   OH241115   2.430   6.107   3.743  0.1699  0.2904  0.1663
13725TIP3    H141116   2.435   6.152   3.659 -3.7974  1.8500  0.5256
13725TIP3    H241117   2.363   6.040   3.730  1.5990 -1.4732  1.3817
13726TIP3   OH241118   7.274   7.844   3.554 -0.4022  0.0559  0.1691
13726TIP3    H141119   7.225   7.874   3.630  1.1074  0.3740  1.0637
13726TIP3    H241120   7.291   7.751   3.572 -1.9886 -0.4738 -0.8915
13727TIP3   OH241121   4.683   5.272   4.082 -0.0740  0.6121  0.4306
13727TIP3    H141122   4.732   5.206   4.033  0.6635  1.4609  0.0116
13727TIP3    H241123   4.596   5.232   4.095 -0.0933  0.1339 -1.0360
13728TIP3   OH241124   0.524   2.811   2.674  0.5377 -0.4942 -0.1742
13728TIP3    H141125   0.449   2.770   2.716  0.4485  1.2922  1.5320
13728TIP3    H241126   0.497   2.821   2.583 -1.2594 -0.0351  0.3591
13729TIP3   OH241127   7.025   3.654   2.847  0.1186  0.1347  0.1764
13729TIP3    H141128   7.090   3.670   2.916 -1.1432  0.0574  1.4387
13729TIP3    H241129   7.064   3.587   2.791  1.2704  0.3619  0.6969
13730TIP3   OH241130   7.584   1.027   5.727  0.2156 -0.2829 -0.1393
13730TIP3    H141131   7.651   0.959   5.731  1.4589  0.9932  1.9501
13730TIP3    H241132   7.545   1.016   5.640  2.1137 -1.9842 -0.8568
13731TIP3   OH241133   6.467   7.779   0.819 -0.2845 -0.1358 -0.0815
13731TIP3    H141134   6.428   7.719   0.755 -0.6358  0.5401 -0.5118
13731TIP3    H241135   6.444   7.866   0.788  2.9267  0.4255 -1.2843
13732TIP3   OH241136   5.241   6.038   2.898  0.5991 -0.0683 -0.0362
13732TIP3    H141137   5.146   6.038   2.883  0.5065 -2.6409  0.0997
13732TIP3    H241138   5.277   6.080   2.819 -0.6071  0.5204 -0.3068
13733TIP3   OH241139   4.529   5.376   0.905  0.0387  1.0651 -0.0258
13733TIP3    H141140   4.613   5.330   0.908  0.1804  1.3054 -0.2909
13733TIP3    H241141   4.524   5.423   0.988  0.1824  1.0832 -0.0288
13734TIP3   OH241142   7.885   0.848   2.617 -0.1634 -0.5013  0.3737
13734TIP3    H141143   7.946   0.807   2.555  0.4935 -0.5436  1.0325
13734TIP3    H241144   7.833   0.908   2.564  1.4474  0.6458  0.0213
13735TIP3   OH241145   7.961   3.910   2.298  0.2833 -0.0431  0.2844
13735TIP3    H141146   8.019   3.840   2.268  0.9693  0.3097  0.7720
13735TIP3    H241147   7.885   3.904   2.240  0.4176 -1.0655  0.1962
13736TIP3   OH241148   0.390   5.167   0.658 -1.0267 -0.3595 -0.3555
13736TIP3    H141149   0.470   5.207   0.691 -0.6657 -0.8405 -0.6265
13736TIP3    H241150   0.331   5.240   0.640 -1.7016 -0.1024  2.4695
13737TIP3   OH241151   0.811   0.226   1.562 -0.2962 -0.3917  0.2949
13737TIP3    H141152   0.734   0.183   1.525 -0.1992 -0.6456  0.3876
13737TIP3    H241153   0.873   0.232   1.490 -0.6395  0.3808  0.0574
13738TIP3   OH241154   8.320   3.920   1.757  0.5410 -0.1168  0.0051
13738TIP3    H141155   8.387   3.952   1.818 -0.3774  2.9739 -0.4132
13738TIP3    H241156   8.240   3.966   1.784 -0.3009 -0.0491 -2.3779
13739TIP3   OH241157   5.802   3.711   3.018 -0.3141 -0.4684 -0.1006
13739TIP3    H141158   5.796   3.710   3.114 -0.0807  0.1237 -0.0736
13739TIP3    H241159   5.723   3.758   2.990 -0.3112 -0.5179 -0.1935
13740TIP3   OH241160   6.218   4.987   2.947  0.7244 -0.4713  1.1762
13740TIP3    H141161   6.296   4.995   3.003 -0.4895 -2.1527  3.2863
13740TIP3    H241162   6.145   4.981   3.008 -1.0156  0.2670 -0.7201
13741TIP3   OH241163   4.085   3.429   0.892  0.2415 -0.0173 -0.0843
13741TIP3    H141164   4.164   3.468   0.929 -1.6077  3.4909  0.6175
13741TIP3    H241165   4.053   3.494   0.830 -2.2823 -1.1414 -0.0697
13742TIP3   OH241166   5.774   4.323   4.533  0.2922  0.4069  0.0965
13742TIP3    H141167   5.743   4.369   4.455 -1.1525  0.1964  0.5225
13742TIP3    H241168   5.765   4.230   4.512 -2.2368  0.3006  1.2368
13743TIP3   OH241169   5.315   2.456   4.021  0.6322 -0.9601  0.2580
13743TIP3    H141170   5.279   2.401   3.952 -0.5734 -0.1007  0.1670
13743TIP3    H241171   5.325   2.397   4.096 -0.4153 -1.3578  0.0981
13744TIP3   OH241172   4.409   2.137   5.701  0.3602 -0.0886  0.0961
13744TIP3    H141173   4.377   2.208   5.646 -0.2514 -1.8156 -1.9077
13744TIP3    H241174   4.482   2.099   5.653  0.6828 -0.8275  1.1159
13745TIP3   OH241175   2.640   3.946   0.465  0.1663 -0.3572 -0.1548
13745TIP3    H141176   2.558   3.897   0.460 -1.0913  1.7040 -1.5841
13745TIP3    H241177   2.674   3.946   0.376 -0.1090  1.6242 -0.3081
13746TIP3   OH241178   3.819   6.130   5.248  0.8380 -0.0315  0.1931
13746TIP3    H141179   3.869   6.077   5.186  1.5470 -0.5909  1.2063
13746TIP3    H241180   3.758   6.067   5.288  0.4913  0.2927  0.1785
13747TIP3   OH241181   7.858   3.659   2.816 -0.3042  0.0971 -0.4668
13747TIP3    H141182   7.895   3.721   2.879 -0.8220  0.6482 -0.6899
13747TIP3    H241183   7.830   3.714   2.742  0.3081 -0.5397 -1.1850
13748TIP3   OH241184   1.822   6.460   2.437 -0.0760 -0.0657  0.4079
13748TIP3    H141185   1.851   6.451   2.528 -0.5142  1.0202  0.6831
13748TIP3    H241186   1.860   6.543   2.408  0.4353 -0.6268 -0.5640
13749TIP3   OH241187   6.103   5.846   2.122 -0.0520  0.6270 -0.2712
13749TIP3    H141188   6.119   5.911   2.191  0.3253  2.2042 -1.7715
13749TIP3    H241189   6.187   5.839   2.077 -0.8813  1.4789 -2.0590
13750TIP3   OH241190   0.714   4.638   1.157  0.2430 -0.5562  0.7740
13750TIP3    H141191   0.721   4.637   1.061  0.1606  1.5363  0.6896
13750TIP3    H241192   0.729   4.548   1.183 -1.9695 -1.6385 -1.3562
13751TIP3   OH241193   0.259   4.048   2.572  0.3615 -0.3256  0.5682
13751TIP3    H141194   0.343   4.075   2.607  0.4462  1.0325 -0.5818
13751TIP3    H241195   0.249   4.099   2.491 -1.9354  0.1817  1.0983
13752TIP3   OH241196   7.866   7.812   5.640 -0.0409 -0.0753  0.1829
13752TIP3    H141197   7.907   7.777   5.720 -1.1982 -0.7543  0.5132
13752TIP3    H241198   7.881   7.906   5.645  0.2862 -0.1546  0.9871
13753TIP3   OH241199   8.395   2.129   3.919 -0.3314  0.5422 -0.3142
13753TIP3    H141200   8.328   2.112   3.853  0.7416 -1.9244 -0.8685
13753TIP3    H241201   8.346   2.141   4.000 -1.4914 -0.5368 -0.8211
13754TIP3   OH241202   5.788   7.589   3.495 -0.2623 -0.2597  0.3480
13754TIP3    H141203   5.812   7.567   3.405 -0.1472  1.8024 -0.1845
13754TIP3    H241204   5.693   7.601   3.493 -0.4067 -1.2448  0.7682
13755TIP3   OH241205   0.872   0.478   4.714 -0.0872  0.2860 -0.1690
13755TIP3    H141206   0.870   0.447   4.804  0.3245  0.7079 -0.0096
13755TIP3    H241207   0.871   0.398   4.661  3.5710 -0.1896  0.2519
13756TIP3   OH241208   6.496   7.554   5.444 -0.1706  0.2435  0.1535
13756TIP3    H141209   6.551   7.605   5.504 -0.6810  0.7406  0.2163
13756TIP3    H241210   6.542   7.471   5.433  0.0595  0.2357  1.0461
13757TIP3   OH241211   0.602   5.365   3.397  0.2350 -0.0650 -0.4406
13757TIP3    H141212   0.507   5.357   3.405  0.2388 -0.8447 -1.0126
13757TIP3    H241213   0.617   5.454   3.367 -0.2494  0.3598  0.5406
13758TIP3   OH241214   5.483   3.860   5.240  0.1932 -0.0049 -0.0243
13758TIP3    H141215   5.457   3.917   5.312 -0.7150 -1.0503  0.5021
13758TIP3    H241216   5.537   3.793   5.281  1.9032  0.8749 -0.7616
13759TIP3   OH241217   3.614   2.818   0.697 -0.4446  0.2522 -0.5090
13759TIP3    H141218   3.678   2.835   0.628 -0.2981  0.6074 -0.2915
13759TIP3    H241219   3.668   2.800   0.775 -0.6057  0.5306 -0.3308
13760TIP3   OH241220   6.527   5.785   5.805  0.0241  0.0095  0.2939
13760TIP3    H141221   6.485   5.826   5.881  0.8366  0.5697  0.4584
13760TIP3    H241222   6.459   5.786   5.738 -0.4477  0.2644  0.7597
13761TIP3   OH241223   4.347   3.395   0.478 -0.2417  0.3288  0.2066
13761TIP3    H141224   4.373   3.470   0.424  2.1938 -1.0470 -0.6413
13761TIP3    H241225   4.388   3.411   0.563 -0.3568  0.2956  0.2698
13762TIP3   OH241226   5.088   4.372   0.121 -0.1849 -0.2209 -0.6822
13762TIP3    H141227   5.140   4.422   0.183  2.1444  0.7746 -3.2577
13762TIP3    H241228   4.997   4.393   0.145  0.5528  0.0769  2.3100
13763TIP3   OH241229   7.919   2.942   1.675  0.1639  0.0794  0.3464
13763TIP3    H141230   7.950   2.994   1.749  2.1680 -0.9171  0.2750
13763TIP3    H241231   7.968   2.975   1.600  0.1986 -0.7496 -0.0050
13764TIP3   OH241232   0.619   1.319   6.406  0.2121 -0.3087 -0.0192
13764TIP3    H141233   0.656   1.231   6.404  0.1845 -0.3093 -0.5703
13764TIP3    H241234   0.586   1.329   6.496  0.8254 -0.6019  0.2455
13765TIP3   OH241235   3.787   4.368   2.582  0.4510  0.3095  0.3142
13765TIP3    H141236   3.864   4.403   2.539 -1.0462  0.5134 -2.4686
13765TIP3    H241237   3.714   4.391   2.524 -2.0910  2.0403  3.8080
13766TIP3   OH241238   3.988   6.936   2.016 -0.7051 -0.5609  0.5334
13766TIP3    H141239   4.046   6.975   2.082 -1.9831  1.6288  0.4496
13766TIP3    H241240   3.994   6.842   2.032  2.1787 -0.3809  1.0764
13767TIP3   OH241241   3.126   1.512   3.037 -0.6231 -0.0023 -0.3472
13767TIP3    H141242   3.032   1.525   3.036 -0.6130  0.0844 -1.5838
13767TIP3    H241243   3.158   1.570   3.106 -1.3399  0.9316 -0.7904
13768TIP3   OH241244   0.291   5.030   5.264 -0.0147  0.0277  0.0984
13768TIP3    H141245   0.384   5.007   5.265 -0.2705 -1.0725  0.3742
13768TIP3    H241246   0.287   5.112   5.215  1.1498  0.3400  0.4870
13769TIP3   OH241247   4.362   2.922   4.433  0.4610 -0.4858 -0.2624
13769TIP3    H141248   4.269   2.935   4.454  0.4803 -0.5779 -0.1264
13769TIP3    H241249   4.387   3.004   4.391 -0.0779 -1.0299 -1.6986
13770TIP3   OH241250   1.005   4.568   0.051 -0.3412 -0.1772  0.3143
13770TIP3    H141251   1.093   4.605   0.063 -0.2098 -0.7818  1.3968
13770TIP3    H241252   0.947   4.631   0.093 -0.2457 -0.5213  0.9960
13771TIP3   OH241253   4.505   1.790   3.506 -0.0378 -0.0453  0.3155
13771TIP3    H141254   4.484   1.861   3.566  0.6895 -0.4607  1.0786
13771TIP3    H241255   4.457   1.714   3.540 -1.8325  0.3226 -1.2049
13772TIP3   OH241256   3.722   5.689   5.832 -0.5663  0.0910 -0.4707
13772TIP3    H141257   3.629   5.667   5.843 -0.9390  1.8286  0.3055
13772TIP3    H241258   3.754   5.701   5.922 -0.2411  1.8516 -0.7809
13773TIP3   OH241259   7.838   2.999   2.473 -0.2115 -0.4991 -0.0613
13773TIP3    H141260   7.911   2.945   2.502  0.2378 -0.5884 -1.3039
13773TIP3    H241261   7.859   3.087   2.503  0.1164 -0.6256  0.0812
13774TIP3   OH241262   1.348   3.667   6.432 -0.3505 -0.1442  0.1082
13774TIP3    H141263   1.305   3.748   6.405  0.5196  0.1203 -0.5082
13774TIP3    H241264   1.318   3.653   6.522 -0.4507  0.9080  0.2461
13775TIP3   OH241265   5.913   5.247   3.695  0.1770 -0.2737  0.2388
13775TIP3    H141266   5.854   5.201   3.636 -0.9225  0.9052  0.3669
13775TIP3    H241267   5.900   5.206   3.780 -2.8115  1.8567  0.9647
13776TIP3   OH241268   4.714   6.975   6.565 -0.0702 -0.1312  0.1375
13776TIP3    H141269   4.706   6.980   6.470 -1.1327 -1.1123  0.1433
13776TIP3    H241270   4.629   7.005   6.598 -0.0414 -0.6652  0.7322
13777TIP3   OH241271   7.443   0.744   6.495  0.0182 -0.0846 -0.6523
13777TIP3    H141272   7.497   0.757   6.573 -0.5960  1.0373 -0.3876
13777TIP3    H241273   7.445   0.650   6.479  1.5183 -0.1414 -0.2698
13778TIP3   OH241274   3.035   4.081   2.445 -0.4885  0.3648  0.1568
13778TIP3    H141275   3.011   4.173   2.452 -0.5738  0.3559 -0.0173
13778TIP3    H241276   3.020   4.045   2.533  0.0821  0.6437  0.3753
13779TIP3   OH241277   4.054   4.865   5.806 -0.3442  0.2830 -0.1527
13779TIP3    H141278   3.972   4.914   5.796 -0.0346  0.9990  0.7180
13779TIP3    H241279   4.091   4.897   5.888  0.9098  0.1226 -0.6424
13780TIP3   OH241280   3.073   0.665   1.717 -0.2825 -0.2814  0.0182
13780TIP3    H141281   2.993   0.713   1.738 -0.0530  0.1082  0.0259
13780TIP3    H241282   3.104   0.631   1.801  0.4292  0.9508  0.2852
13781TIP3   OH241283   6.721   7.193   1.948  0.6765 -0.3858  0.3494
13781TIP3    H141284   6.677   7.226   2.026  1.0664  0.0393  0.3974
13781TIP3    H241285   6.653   7.150   1.897 -0.0330  1.2176 -0.1135
13782TIP3   OH241286   4.340   7.271   4.527 -0.1443 -0.0873  0.3140
13782TIP3    H141287   4.362   7.213   4.454 -1.7645 -0.6164  0.1910
13782TIP3    H241288   4.269   7.325   4.493  0.8066  1.4477  0.6998
13783TIP3   OH241289   1.782   1.712   5.858  0.4340 -0.1713  0.0884
13783TIP3    H141290   1.796   1.796   5.814 -0.9887  0.2478  0.4012
13783TIP3    H241291   1.742   1.735   5.942 -0.2351 -1.1804  0.0561
13784TIP3   OH241292   7.401   6.996   1.180 -0.4721  0.1716  0.1342
13784TIP3    H141293   7.376   7.085   1.204 -0.7509 -0.2185  1.3232
13784TIP3    H241294   7.489   7.006   1.144 -0.3448  0.8842  0.6146
13785TIP3   OH241295   5.632   2.102   2.688 -0.1523  0.0338  0.0353
13785TIP3    H141296   5.583   2.176   2.652 -0.1778 -1.4280 -3.3256
13785TIP3    H241297   5.694   2.142   2.749 -1.6134  2.5414  0.0300
13786TIP3   OH241298   7.133   0.215   5.928 -0.1786 -0.4587  0.8206
13786TIP3    H141299   7.152   0.309   5.919  0.5008 -0.6789 -0.3089
13786TIP3    H241300   7.038   0.210   5.926 -0.2328  0.2390  1.2366
13787TIP3   OH241301   4.407   6.510   3.774  0.1763  0.3885  0.3903
13787TIP3    H141302   4.369   6.426   3.800 -1.0480  0.7317 -0.2500
13787TIP3    H241303   4.382   6.520   3.682  0.5865  1.3063  0.3747
13788TIP3   OH241304   4.483   3.121   4.272 -0.1830  0.3771  0.0254
13788TIP3    H141305   4.515   3.066   4.201  0.0107  1.3366 -0.6465
13788TIP3    H241306   4.559   3.174   4.297 -0.7130  1.3095 -0.2808
13789TIP3   OH241307   8.200   6.922   0.734  0.0417  0.1940 -0.0081
13789TIP3    H141308   8.163   7.009   0.722  1.5996  0.7692 -0.9924
13789TIP3    H241309   8.125   6.863   0.728 -1.2670  1.5153  2.2062
13790TIP3   OH241310   1.205   1.435   3.411 -0.1021  0.6148 -0.7616
13790TIP3    H141311   1.251   1.450   3.329 -1.3020 -1.9109 -2.0097
13790TIP3    H241312   1.230   1.346   3.437 -1.3522  0.5937  0.5004
13791TIP3   OH241313   4.929   4.555   3.219  0.0888  0.0577  0.3085
13791TIP3    H141314   4.887   4.593   3.296  0.7815 -0.1996  0.8202
13791TIP3    H241315   4.973   4.476   3.251  0.0703 -0.2642 -0.4207
13792TIP3   OH241316   0.613   7.436   6.678 -0.0313  0.6139  0.2556
13792TIP3    H141317   0.613   7.352   6.633  1.5152  1.1713 -0.8973
13792TIP3    H241318   0.628   7.414   6.770 -0.5382 -0.4027  0.1138
13793TIP3   OH241319   4.909   1.956   3.416 -0.2395 -0.2496 -0.1692
13793TIP3    H141320   4.843   2.020   3.388  0.1573  0.3538  0.2402
13793TIP3    H241321   4.975   1.959   3.347 -0.1416 -0.0912 -0.0700
13794TIP3   OH241322   3.806   6.238   5.924  0.1425 -0.5851  0.5516
13794TIP3    H141323   3.832   6.146   5.917 -1.6839 -1.0676 -0.7011
13794TIP3    H241324   3.742   6.250   5.854  0.7931  1.8270  0.2804
13795TIP3   OH241325   5.211   7.843   2.071  0.0967 -0.4487  0.0908
13795TIP3    H141326   5.163   7.774   2.117 -0.4130  0.9738  1.8440
13795TIP3    H241327   5.244   7.899   2.141  1.9460  0.1657 -1.2103
13796TIP3   OH241328   1.810   0.327   1.139  0.7020 -0.5205 -0.0742
13796TIP3    H141329   1.773   0.270   1.206 -0.0081 -0.1511 -0.1517
13796TIP3    H241330   1.902   0.299   1.132  0.4735 -1.3609  0.1986
13797TIP3   OH241331   1.341   0.515   3.117  0.3714  0.2460 -0.1455
13797TIP3    H141332   1.415   0.572   3.100  0.2465 -0.2326 -2.6507
13797TIP3    H241333   1.380   0.433   3.148  0.7078  0.6859  0.6488
13798TIP3   OH241334   5.569   1.911   6.349  0.1319 -0.1290 -0.6868
13798TIP3    H141335   5.601   1.883   6.434  0.6611  1.3462 -0.3677
13798TIP3    H241336   5.474   1.919   6.360  0.2848  0.8792  0.0399
13799TIP3   OH241337   0.928   2.663   0.490 -0.7445 -0.3744  0.0418
13799TIP3    H141338   0.886   2.727   0.432 -1.5937  0.6297  1.7130
13799TIP3    H241339   0.899   2.578   0.456 -0.1352  0.1023 -1.8032
13800TIP3   OH241340   6.692   4.659   1.551  0.3360 -0.1123 -0.2970
13800TIP3    H141341   6.770   4.622   1.509  0.3533  0.5736 -0.8843
13800TIP3    H241342   6.716   4.750   1.569  0.0239 -0.1707  0.4484
13801TIP3   OH241343   6.749   7.418   0.924  0.3063 -0.0650 -0.4746
13801TIP3    H141344   6.733   7.324   0.932  0.7065 -0.1433 -0.5609
13801TIP3    H241345   6.828   7.424   0.870 -0.7962  0.3543 -2.1329
13802TIP3   OH241346   2.268   0.636   2.166 -0.0831 -0.2249 -0.6764
13802TIP3    H141347   2.241   0.682   2.087 -0.0770 -0.0470 -0.5732
13802TIP3    H241348   2.228   0.549   2.158 -1.0220  0.1568 -0.3350
13803TIP3   OH241349   0.194   7.163   3.923 -0.8217 -0.3331 -0.3647
13803TIP3    H141350   0.132   7.092   3.905 -2.5936  1.2135 -0.7210
13803TIP3    H241351   0.276   7.135   3.882 -2.0451 -1.2674 -2.3263
13804TIP3   OH241352   3.818   4.884   1.107  0.3700 -0.1017  0.1285
13804TIP3    H141353   3.754   4.944   1.068  1.6775  1.6532  0.5729
13804TIP3    H241354   3.781   4.862   1.192 -0.1202  0.0894 -0.0291
13805TIP3   OH241355   0.872   5.894   3.780  0.2263  0.1455 -0.0223
13805TIP3    H141356   0.916   5.976   3.755  0.0651 -0.2013 -1.5318
13805TIP3    H241357   0.943   5.835   3.803  0.3232  0.8544  1.6584
13806TIP3   OH241358   0.414   3.725   3.093  0.5120  0.1500  0.3501
13806TIP3    H141359   0.499   3.700   3.129  0.3209 -0.6938  0.2551
13806TIP3    H241360   0.411   3.820   3.099  0.7015  0.0715  2.0944
13807TIP3   OH241361   7.721   2.591   4.470  0.2537  0.8275  0.4461
13807TIP3    H141362   7.809   2.595   4.507  0.7826  0.3639 -0.7115
13807TIP3    H241363   7.724   2.516   4.410  0.0279  2.6043 -1.9228
13808TIP3   OH241364   7.666   2.286   0.657 -0.3387  0.1427 -0.2836
13808TIP3    H141365   7.663   2.378   0.682  1.7111  0.5467 -1.2471
13808TIP3    H241366   7.712   2.243   0.729 -2.2056 -0.3920  0.6657
13809TIP3   OH241367   3.393   3.689   5.252  0.2841 -0.1553 -0.1163
13809TIP3    H141368   3.339   3.631   5.307 -1.3464  0.9647 -0.4763
13809TIP3    H241369   3.363   3.672   5.163  0.8145  0.2010 -0.3658
13810TIP3   OH241370   4.281   5.279   1.076 -0.5816 -0.1988  0.4457
13810TIP3    H141371   4.273   5.352   1.137  1.5280 -0.0038  0.5583
13810TIP3    H241372   4.258   5.317   0.991 -1.1348  0.1488  0.7412
13811TIP3   OH241373   6.572   4.415   0.134  0.0964 -0.5459 -0.2312
13811TIP3    H141374   6.601   4.498   0.171 -0.8935 -0.2264 -0.1383
13811TIP3    H241375   6.567   4.355   0.209  2.3004 -1.1688 -0.5092
13812TIP3   OH241376   4.788   7.171   1.951  0.3262 -0.3152 -0.3332
13812TIP3    H141377   4.713   7.169   2.011  0.4209 -0.6482 -0.2232
13812TIP3    H241378   4.753   7.138   1.868  0.1115  0.4664 -0.5630
13813TIP3   OH241379   2.998   4.614   3.815  0.0711  0.1580  0.2945
13813TIP3    H141380   2.952   4.680   3.764  2.2050  1.2622 -0.3337
13813TIP3    H241381   2.970   4.629   3.905 -0.8297  0.7188 -0.0694
13814TIP3   OH241382   3.415   4.561   6.247 -0.3208  0.2371  0.4823
13814TIP3    H141383   3.501   4.561   6.206  0.5023 -2.2672  1.9755
13814TIP3    H241384   3.411   4.646   6.292  1.1003  0.6696 -0.1362
13815TIP3   OH241385   0.033   7.583   4.481  0.3188 -0.4309 -0.0804
13815TIP3    H141386   0.032   7.669   4.440 -0.1723 -1.0235 -1.3528
13815TIP3    H241387   0.126   7.558   4.482  0.3246 -0.4907 -1.0460
13816TIP3   OH241388   5.984   0.084   5.573 -0.3367 -0.8234 -0.0959
13816TIP3    H141389   5.980   0.176   5.547 -0.9976 -0.8562 -0.1223
13816TIP3    H241390   6.056   0.048   5.521 -0.7786 -0.5720 -0.8951
13817TIP3   OH241391   8.407   7.553   1.822 -0.5470  0.4301  0.5125
13817TIP3    H141392   8.365   7.516   1.900 -1.9088 -0.7585 -0.7485
13817TIP3    H241393   8.344   7.541   1.752  1.0797  0.4820 -1.0274
13818TIP3   OH241394   2.746   4.159   3.109  0.1592  0.0377  0.4137
13818TIP3    H141395   2.815   4.202   3.059  0.8001  1.4661  2.3790
13818TIP3    H241396   2.725   4.221   3.179 -0.2144 -2.0724  2.2879
13819TIP3   OH241397   6.444   0.956   5.676 -0.2438  0.1906  0.7441
13819TIP3    H141398   6.392   0.875   5.672  1.0199 -0.5946 -0.7347
13819TIP3    H241399   6.526   0.929   5.717  0.0601  0.7969  0.5313
13820TIP3   OH241400   1.456   3.874   1.666  0.0853  0.0286  0.3591
13820TIP3    H141401   1.416   3.872   1.753  2.4431 -1.6588  1.5150
13820TIP3    H241402   1.502   3.957   1.663 -1.9406  1.1837 -0.2901
13821TIP3   OH241403   0.846   3.666   1.195  0.3219  0.0584 -0.5324
13821TIP3    H141404   0.784   3.706   1.134 -0.5805  0.5049  0.6163
13821TIP3    H241405   0.868   3.736   1.257  0.5113 -0.5991  0.1729
13822TIP3   OH241406   4.725   4.094   4.577 -0.1923  0.4261 -0.2942
13822TIP3    H141407   4.636   4.092   4.540 -0.5020 -1.8882  0.3961
13822TIP3    H241408   4.783   4.095   4.501 -0.8182  1.0121 -0.7713
13823TIP3   OH241409   1.438   6.983   4.711  0.0587 -0.4728  0.5127
13823TIP3    H141410   1.517   7.037   4.714  0.6829 -1.2298 -1.1891
13823TIP3    H241411   1.468   6.899   4.677 -1.2098 -1.3390  1.4311
13824TIP3   OH241412   1.526   3.352   2.821  0.0652 -0.3222 -0.1333
13824TIP3    H141413   1.506   3.259   2.817 -1.0498 -0.2145  1.8343
13824TIP3    H241414   1.558   3.373   2.733 -1.4752 -2.1397 -1.2104
13825TIP3   OH241415   0.301   1.771   0.569 -0.2276  0.0162 -0.2252
13825TIP3    H141416   0.264   1.774   0.657  0.0660 -1.9402  0.0168
13825TIP3    H241417   0.226   1.750   0.512 -0.1529 -0.2670 -0.2227
13826TIP3   OH241418   5.654   6.691   0.080 -0.2807  0.5461 -0.0896
13826TIP3    H141419   5.560   6.673   0.081  0.0492 -1.3738  0.0339
13826TIP3    H241420   5.692   6.623   0.135  1.5659 -1.3630 -3.4619
13827TIP3   OH241421   0.666   0.661   6.222 -0.5438 -0.4131  0.5926
13827TIP3    H141422   0.735   0.635   6.282  0.7785  0.4560 -0.5031
13827TIP3    H241423   0.622   0.579   6.199 -0.7869 -0.8100  2.3466
13828TIP3   OH241424   8.015   7.112   6.531 -0.1575 -0.4522 -0.1537
13828TIP3    H141425   7.977   7.048   6.472  0.4337 -1.4098  0.4794
13828TIP3    H241426   8.109   7.108   6.515 -0.0678 -0.0858  0.2292
13829TIP3   OH241427   4.224   6.795   0.676 -0.0234  0.4298 -0.5235
13829TIP3    H141428   4.271   6.811   0.758  0.2697 -0.0404 -0.5972
13829TIP3    H241429   4.256   6.863   0.616  0.1961  0.4124 -0.4266
13830TIP3   OH241430   1.822   5.652   2.602  0.6193 -0.5930 -0.5140
13830TIP3    H141431   1.742   5.701   2.621  1.8292  0.8304  1.3566
13830TIP3    H241432   1.876   5.713   2.551  1.1351 -0.9063 -0.3561
13831TIP3   OH241433   1.821   2.807   3.754  0.7797 -0.1963 -0.0579
13831TIP3    H141434   1.894   2.751   3.730  0.6284 -0.3595 -0.1391
13831TIP3    H241435   1.759   2.799   3.682  1.0545  0.6163 -0.4034
13832TIP3   OH241436   6.555   6.919   1.490 -0.0497 -0.4912  0.2857
13832TIP3    H141437   6.614   6.846   1.472 -0.1887 -0.7176  0.7324
13832TIP3    H241438   6.556   6.971   1.410  1.0006 -0.3253  0.4009
13833TIP3   OH241439   0.463   3.026   2.063 -0.1540  0.0252 -0.0777
13833TIP3    H141440   0.518   2.957   2.026  0.7625  1.7696 -2.1978
13833TIP3    H241441   0.512   3.059   2.138  0.6530  0.0750 -0.6166
13834TIP3   OH241442   4.975   5.855   3.259 -0.0059  0.5406  0.3093
13834TIP3    H141443   4.938   5.871   3.346 -0.0450 -0.7179  0.5411
13834TIP3    H241444   4.900   5.859   3.200 -0.1256  0.4661  0.4552
13835TIP3   OH241445   5.660   0.559   4.767  0.0161 -0.3588  0.0136
13835TIP3    H141446   5.738   0.612   4.786  1.2475 -1.6347 -1.2409
13835TIP3    H241447   5.600   0.620   4.724  0.7420  0.4069  0.0600
13836TIP3   OH241448   7.023   7.095   2.463  0.2753 -0.0124 -0.2471
13836TIP3    H141449   6.928   7.087   2.464  0.1900  0.8598  1.0085
13836TIP3    H241450   7.044   7.124   2.374 -0.7623  1.0036 -0.1836
13837TIP3   OH241451   1.631   1.962   1.398  0.0125 -0.0008  0.3658
13837TIP3    H141452   1.590   2.046   1.376  0.1537  0.2894  1.1522
13837TIP3    H241453   1.710   1.959   1.344  0.1295  0.4847  0.5001
13838TIP3   OH241454   6.628   0.124   4.892  0.0376 -0.4244 -0.0995
13838TIP3    H141455   6.649   0.213   4.921  0.2620 -0.2603 -0.7456
13838TIP3    H241456   6.713   0.080   4.888 -0.1040 -0.7607  0.5044
13839TIP3   OH241457   2.080   7.132   6.522 -0.6783 -0.1506 -0.2667
13839TIP3    H141458   2.089   7.051   6.472  0.7025  0.8993 -1.8091
13839TIP3    H241459   2.145   7.123   6.592  1.9722  0.9688 -2.4344
13840TIP3   OH241460   6.313   0.770   3.543 -0.0171  0.0207 -0.0447
13840TIP3    H141461   6.386   0.773   3.605 -0.7363  0.6133  0.7977
13840TIP3    H241462   6.243   0.820   3.586 -1.0262 -0.8019 -0.6895
13841TIP3   OH241463   3.957   2.403   6.064 -0.2602  0.1534  0.0892
13841TIP3    H141464   3.911   2.320   6.052 -1.2845  0.4718  1.5333
13841TIP3    H241465   3.934   2.456   5.988  0.1670 -0.7733 -0.6947
13842TIP3   OH241466   1.815   1.968   5.782 -0.3186 -0.6666  0.0896
13842TIP3    H141467   1.866   2.047   5.800  0.6207 -1.2562  0.0867
13842TIP3    H241468   1.751   1.995   5.715 -1.4465  0.6218  1.6213
13843TIP3   OH241469   7.912   0.606   2.986  0.1831 -0.0383  0.1982
13843TIP3    H141470   7.945   0.571   3.069  1.1838 -1.4339 -0.7446
13843TIP3    H241471   7.851   0.539   2.955 -1.6217  1.3100  0.6351
13844TIP3   OH241472   0.456   0.935   4.009  0.6033 -0.0305  0.1747
13844TIP3    H141473   0.472   1.029   4.017 -0.0349  0.3503 -2.2117
13844TIP3    H241474   0.486   0.913   3.921 -2.9519 -1.1880 -0.9218
13845TIP3   OH241475   7.213   1.018   6.134  0.3096 -0.6479 -0.1693
13845TIP3    H141476   7.254   1.019   6.220  0.0917  0.0381 -0.0610
13845TIP3    H241477   7.283   1.045   6.074  0.4797 -1.1923 -0.2226
13846TIP3   OH241478   8.272   1.748   2.209  0.1824  0.6323  0.1002
13846TIP3    H141479   8.323   1.758   2.128 -0.3985  4.2906 -0.0097
13846TIP3    H241480   8.292   1.827   2.259 -2.7113  0.5649  1.5906
13847TIP3   OH241481   4.015   4.207   6.328 -0.0598  0.5328 -0.2530
13847TIP3    H141482   4.060   4.180   6.248  1.4559  2.0064  0.0658
13847TIP3    H241483   4.085   4.222   6.391 -1.2193 -0.4374  1.3458
13848TIP3   OH241484   0.852   2.323   6.584  0.2935  0.2025 -0.5134
13848TIP3    H141485   0.939   2.308   6.546 -0.2221  0.3252 -1.7943
13848TIP3    H241486   0.859   2.407   6.628  0.6026  0.6095 -1.3232
13849TIP3   OH241487   0.623   1.634   4.651  0.0767 -0.3464 -0.3828
13849TIP3    H141488   0.718   1.644   4.658 -0.1427  2.5420 -0.2231
13849TIP3    H241489   0.609   1.600   4.562  1.2631 -2.2075  0.0900
13850TIP3   OH241490   5.185   2.021   3.272  0.1825 -0.3951 -0.0433
13850TIP3    H141491   5.254   1.966   3.235 -1.1063 -2.0881 -0.0779
13850TIP3    H241492   5.192   2.104   3.225  2.2375 -0.4719  0.0379
13851TIP3   OH241493   6.143   5.206   2.523 -0.4311 -0.1277 -0.3464
13851TIP3    H141494   6.203   5.153   2.576  1.6143  0.6275 -1.7892
13851TIP3    H241495   6.175   5.296   2.533 -1.0079  0.2286 -1.5257
13852TIP3   OH241496   4.541   1.123   3.330  0.4603 -0.3608 -0.4167
13852TIP3    H141497   4.520   1.161   3.244  0.1248  1.1003  0.2728
13852TIP3    H241498   4.564   1.199   3.384  0.4448 -1.2368  0.8571
13853TIP3   OH241499   6.167   1.953   4.859 -0.2980  0.8052 -0.4503
13853TIP3    H141500   6.120   2.036   4.854 -1.5758  0.1939  0.7009
13853TIP3    H241501   6.256   1.977   4.884 -0.6915  1.8092  0.0214
13854TIP3   OH241502   6.533   2.925   2.695  0.2446  0.2989  0.4954
13854TIP3    H141503   6.538   3.020   2.693  1.8113  0.2636  0.8709
13854TIP3    H241504   6.582   2.900   2.773  1.0171 -0.8490 -0.3064
13855TIP3   OH241505   3.532   3.802   4.986  0.0960 -0.2467  0.0098
13855TIP3    H141506   3.488   3.717   4.988 -0.2723 -0.1983 -2.6188
13855TIP3    H241507   3.622   3.781   4.962  0.3805  0.0314  0.7922
13856TIP3   OH241508   6.592   3.725   1.224 -0.3924  0.3420  0.2967
13856TIP3    H141509   6.622   3.680   1.145  0.3983  0.4298  0.5400
13856TIP3    H241510   6.656   3.701   1.291  0.8657  2.9046  0.1139
13857TIP3   OH241511   2.595   4.329   5.001 -0.2681 -0.0787 -0.0999
13857TIP3    H141512   2.506   4.295   5.013  0.5415 -2.0615  0.6237
13857TIP3    H241513   2.616   4.369   5.086  0.2676 -1.4962  0.4655
13858TIP3   OH241514   4.007   0.364   0.052  0.2051 -0.0366  0.1539
13858TIP3    H141515   4.100   0.375   0.070 -0.2084  1.4093  1.6462
13858TIP3    H241516   3.982   0.444   0.006 -0.4389 -0.1276  0.3359
13859TIP3   OH241517   7.403   6.797   4.244  0.3293 -0.0936 -0.8147
13859TIP3    H141518   7.420   6.776   4.336  1.6193 -0.7142 -1.1825
13859TIP3    H241519   7.307   6.798   4.237  0.2131  0.1191  0.5613
13860TIP3   OH241520   5.079   3.962   6.554  0.6018 -0.6195 -0.1553
13860TIP3    H141521   4.991   3.925   6.555 -0.2861  1.3672  0.2975
13860TIP3    H241522   5.079   4.025   6.627  3.0538 -1.9715  1.1465
13861TIP3   OH241523   8.101   2.397   4.790 -0.1364 -0.0453  0.3298
13861TIP3    H141524   8.107   2.457   4.715 -0.3548 -1.9832 -1.3381
13861TIP3    H241525   8.030   2.337   4.766 -0.0698 -0.8505  2.0233
13862TIP3   OH241526   2.744   6.514   3.313 -0.1155  0.1101  0.2561
13862TIP3    H141527   2.817   6.576   3.301 -0.5579  0.9845  1.7750
13862TIP3    H241528   2.745   6.460   3.234  1.5242  0.7799 -0.2272
13863TIP3   OH241529   0.549   2.658   0.757  0.3793  0.5232 -0.1330
13863TIP3    H141530   0.500   2.632   0.679 -0.6967  1.1247  0.3250
13863TIP3    H241531   0.583   2.745   0.735  0.4271  0.5173 -0.0818
13864TIP3   OH241532   5.092   1.397   1.567 -0.0972 -0.1692  0.2459
13864TIP3    H141533   5.029   1.439   1.508 -0.1260 -2.7016 -1.7495
13864TIP3    H241534   5.064   1.422   1.655 -3.0322 -0.0116 -0.6200
13865TIP3   OH241535   5.343   2.695   2.246 -0.3825  0.5214 -0.1067
13865TIP3    H141536   5.415   2.745   2.209 -0.1687  1.2602  1.2318
13865TIP3    H241537   5.281   2.762   2.276 -0.0213  0.0370  1.8449
13866TIP3   OH241538   5.139   6.587   0.497  0.7613  0.1962 -0.2474
13866TIP3    H141539   5.207   6.565   0.562 -0.3898 -1.0336  0.6005
13866TIP3    H241540   5.169   6.544   0.417 -0.1431 -2.5287  0.7399
13867TIP3   OH241541   4.944   3.870   2.387 -0.2660 -0.3397 -0.2895
13867TIP3    H141542   4.973   3.928   2.316 -0.0581  1.1575  0.9675
13867TIP3    H241543   4.992   3.788   2.372  1.9642  0.8756 -0.3295
13868TIP3   OH241544   4.466   4.178   4.870  0.2935 -0.2796 -0.1035
13868TIP3    H141545   4.558   4.198   4.853  0.3282  0.1454  0.5677
13868TIP3    H241546   4.418   4.237   4.812  0.4390 -0.8930 -0.8707
13869TIP3   OH241547   4.010   2.947   2.064 -0.1546 -0.8217  0.4302
13869TIP3    H141548   3.961   2.883   2.013  0.5943 -0.5587 -0.6611
13869TIP3    H241549   3.945   3.015   2.085 -1.1001 -2.1897  2.1244
13870TIP3   OH241550   3.645   3.652   5.409 -0.1141 -0.0258 -0.0274
13870TIP3    H141551   3.575   3.611   5.358 -0.2577  0.5559 -0.3002
13870TIP3    H241552   3.646   3.743   5.380  0.0470  0.2250  0.7412
13871TIP3   OH241553   5.773   6.921   2.397  0.4247  0.5839 -0.0603
13871TIP3    H141554   5.774   6.836   2.353 -2.6970  0.2361  0.3292
13871TIP3    H241555   5.804   6.903   2.486 -0.5397 -0.2851  0.1274
13872TIP3   OH241556   3.282   5.460   0.351 -0.6995 -0.2268 -0.0697
13872TIP3    H141557   3.367   5.423   0.328 -0.3266  0.4171  0.2482
13872TIP3    H241558   3.270   5.534   0.292 -0.9766 -0.2322 -0.0231
13873TIP3   OH241559   1.589   2.797   2.793 -0.1454  0.7802  0.1512
13873TIP3    H141560   1.650   2.782   2.721  1.0613 -0.0905  1.2899
13873TIP3    H241561   1.543   2.878   2.770 -2.6214 -1.3581 -3.4351
13874TIP3   OH241562   6.282   1.349   5.092 -0.2074 -0.2627 -0.0946
13874TIP3    H141563   6.249   1.260   5.099 -0.4887 -0.2512 -1.0308
13874TIP3    H241564   6.208   1.404   5.114  0.1317 -0.2592  1.0630
13875TIP3   OH241565   6.751   4.973   4.936 -0.2308 -0.0403 -0.0937
13875TIP3    H141566   6.814   4.971   5.007  0.5481  0.5383 -0.7533
13875TIP3    H241567   6.700   5.053   4.950 -0.0639  0.0837 -0.1897
13876TIP3   OH241568   0.141   6.504   0.575 -0.4820 -0.6304 -0.0338
13876TIP3    H141569   0.228   6.542   0.586 -0.3110 -1.2584  0.8659
13876TIP3    H241570   0.128   6.502   0.480  0.8247 -1.2573 -0.2250
13877TIP3   OH241571   1.754   3.857   3.832  0.1648 -0.0694  0.2151
13877TIP3    H141572   1.791   3.941   3.803  1.9124 -1.5599 -2.3449
13877TIP3    H241573   1.702   3.827   3.757  0.0237 -1.5124  0.8601
13878TIP3   OH241574   5.017   4.634   1.942  0.2041  0.4738  0.8526
13878TIP3    H141575   5.094   4.635   1.998  0.0466  1.9048  1.0868
13878TIP3    H241576   4.961   4.703   1.977 -0.6289  0.2946 -0.0712
13879TIP3   OH241577   4.124   5.945   1.546 -0.2195 -0.2539 -0.3393
13879TIP3    H141578   4.073   5.878   1.590 -2.4901  1.1381 -0.6771
13879TIP3    H241579   4.071   5.968   1.469  1.1092  1.0072 -0.9151
13880TIP3   OH241580   5.798   7.449   3.249  0.3242 -0.6463  0.0944
13880TIP3    H141581   5.884   7.419   3.280  0.5555  0.1177  0.2171
13880TIP3    H241582   5.743   7.372   3.252  0.7873 -0.9543  0.8347
13881TIP3   OH241583   6.701   7.407  -0.020  0.5489  0.4347 -0.1910
13881TIP3    H141584   6.657   7.486   0.011 -0.5783 -0.4638  0.5697
13881TIP3    H241585   6.660   7.335   0.028  2.5347 -0.5174  0.2084
13882TIP3   OH241586   2.890   2.667   2.216  0.0862 -0.5376 -0.2794
13882TIP3    H141587   2.880   2.574   2.237  1.2108 -0.4044  0.9817
13882TIP3    H241588   2.874   2.712   2.299  2.2348  0.1781 -0.1889
13883TIP3   OH241589   0.646   1.786   0.852  1.0852 -0.0681 -0.7696
13883TIP3    H141590   0.595   1.708   0.877  2.2515 -0.9298 -0.9790
13883TIP3    H241591   0.587   1.837   0.797 -1.3715  1.5582  2.9539
13884TIP3   OH241592   5.320   0.471   3.472  0.1153  0.1335  0.4050
13884TIP3    H141593   5.259   0.501   3.405  0.3151  0.2154  0.2575
13884TIP3    H241594   5.405   0.469   3.428  0.3410  0.6813  0.7922
13885TIP3   OH241595   6.375   7.578   0.232 -0.4537  0.3817 -0.4187
13885TIP3    H141596   6.294   7.629   0.221 -0.8160  0.5325  2.1785
13885TIP3    H241597   6.373   7.514   0.162 -3.3115 -0.1776  0.0436
13886TIP3   OH241598   2.817   1.873   0.266  0.2349 -0.3348  0.2350
13886TIP3    H141599   2.896   1.893   0.317  1.8909 -0.3358 -2.1567
13886TIP3    H241600   2.748   1.926   0.307  1.6134  0.2376  1.9614
13887TIP3   OH241601   4.650   1.087   2.912  1.0476 -0.1202  0.6538
13887TIP3    H141602   4.617   1.073   2.824 -0.0372  0.0995  1.0171
13887TIP3    H241603   4.696   1.005   2.933  0.2905 -0.6399  0.3302
13888TIP3   OH241604   1.707   0.545   3.323  0.3939 -0.4901  0.2685
13888TIP3    H141605   1.635   0.580   3.375  1.6307  0.6474  1.3001
13888TIP3    H241606   1.695   0.583   3.236 -1.2950 -1.8393 -0.1452
13889TIP3   OH241607   6.815   2.796   6.287  0.2022  0.2075 -0.0082
13889TIP3    H141608   6.779   2.820   6.373  2.2833 -0.8548  1.2638
13889TIP3    H241609   6.860   2.875   6.258 -0.2389  0.4774  0.0354
13890TIP3   OH241610   5.000   1.778   2.732  0.3039 -0.2120 -0.3546
13890TIP3    H141611   5.064   1.740   2.671  1.4500 -0.7086  1.1193
13890TIP3    H241612   4.996   1.870   2.708  2.5750  0.1241  0.3402
13891TIP3   OH241613   1.827   6.412   4.085 -0.2069  0.2579 -0.0540
13891TIP3    H141614   1.829   6.384   3.993 -0.8770 -0.4262  0.1254
13891TIP3    H241615   1.836   6.507   4.082 -0.3754  0.2527 -0.8383
13892TIP3   OH241616   4.295   7.419   0.362  0.0125  0.0298 -0.1963
13892TIP3    H141617   4.253   7.497   0.325 -0.3017  0.0221  0.1460
13892TIP3    H241618   4.241   7.346   0.332 -1.5396  0.1691  2.0314
13893TIP3   OH241619   5.566   4.619   2.044 -0.1831  0.0089  0.3282
13893TIP3    H141620   5.505   4.689   2.019 -1.6878 -0.6331  1.9735
13893TIP3    H241621   5.602   4.647   2.128 -2.0292 -1.8193  1.8251
13894TIP3   OH241622   4.682   1.843   6.224 -0.4208  0.1409  0.0574
13894TIP3    H141623   4.714   1.803   6.143  2.5784  0.7079  0.8448
13894TIP3    H241624   4.674   1.770   6.286 -1.2172 -0.0690 -0.2756
13895TIP3   OH241625   5.372   4.767   2.697 -0.0264 -0.6376 -0.5061
13895TIP3    H141626   5.378   4.675   2.724  0.0038 -1.0883 -1.9503
13895TIP3    H241627   5.451   4.808   2.732 -0.5329 -0.8962  1.0288
13896TIP3   OH241628   2.790   2.486   2.942  0.0567  0.5554  0.2251
13896TIP3    H141629   2.848   2.416   2.911  0.6385  0.9761  0.3469
13896TIP3    H241630   2.707   2.442   2.960  0.7189 -0.2911  1.2852
13897TIP3   OH241631   2.713   2.607   6.611  0.2325 -0.2686  0.2564
13897TIP3    H141632   2.707   2.696   6.577  2.3709 -0.5615 -1.0838
13897TIP3    H241633   2.689   2.551   6.537  2.4139 -0.8489 -0.0926
13898TIP3   OH241634   7.434   5.893   2.374  0.5516  0.1265  0.2647
13898TIP3    H141635   7.447   5.880   2.280  0.2625 -0.3504  0.2806
13898TIP3    H241636   7.343   5.922   2.381  0.9531  1.4205  0.3033
13899TIP3   OH241637   4.958   7.667   1.882  0.2561  0.3745 -0.0115
13899TIP3    H141638   5.042   7.685   1.923  0.2748 -0.2376  0.2309
13899TIP3    H241639   4.930   7.583   1.920  0.0260  0.0581 -0.8524
13900TIP3   OH241640   1.933   7.481   5.887  0.1712  0.1525  0.8531
13900TIP3    H141641   1.977   7.416   5.833  1.6342  0.4126  1.6919
13900TIP3    H241642   1.867   7.519   5.829  1.5906  0.3305 -0.7338
13901TIP3   OH241643   7.599   0.522   2.984 -0.5547  0.6100  0.3436
13901TIP3    H141644   7.566   0.480   2.904  0.3555 -0.4505  0.5053
13901TIP3    H241645   7.614   0.449   3.044  0.0898  1.2753  0.9948
13902TIP3   OH241646   2.580   0.817   2.785  0.1148  0.4927  0.1481
13902TIP3    H141647   2.576   0.723   2.767 -1.4769  0.2559  1.4923
13902TIP3    H241648   2.553   0.858   2.703  3.0790 -0.0673 -1.2249
13903TIP3   OH241649   5.473   5.339   6.387  0.2129  0.0730 -1.0154
13903TIP3    H141650   5.505   5.370   6.471 -0.2632  1.1557 -1.2182
13903TIP3    H241651   5.393   5.389   6.371 -3.0706 -4.0956  0.5541
13904TIP3   OH241652   3.327   0.361   2.066 -0.6611  0.0674  0.1042
13904TIP3    H141653   3.331   0.447   2.025  1.1730 -0.4399 -0.9132
13904TIP3    H241654   3.330   0.300   1.992  0.2579 -0.8569  0.8653
13905TIP3   OH241655   7.521   6.561   3.048  0.2322 -0.1070 -0.3773
13905TIP3    H141656   7.534   6.571   3.142 -0.0418 -0.7268 -0.2703
13905TIP3    H241657   7.450   6.498   3.040  1.5373 -1.5733 -1.0013
13906TIP3   OH241658   3.581   5.681   4.144  0.0289  0.4006  0.1063
13906TIP3    H141659   3.620   5.651   4.226 -1.2567  0.6237  0.8252
13906TIP3    H241660   3.587   5.776   4.148  0.5558  0.3939 -0.3758
13907TIP3   OH241661   2.947   1.181   1.563 -0.0975  0.0050  0.0882
13907TIP3    H141662   2.895   1.205   1.639  0.6321  0.4968  0.4477
13907TIP3    H241663   2.904   1.104   1.527 -1.6667  0.9783 -0.2345
13908TIP3   OH241664   3.425   2.777   3.070  0.2275 -0.1340  0.5200
13908TIP3    H141665   3.409   2.694   3.114  0.0547 -0.1105  0.5001
13908TIP3    H241666   3.394   2.763   2.980 -0.9408  0.3384  0.8272
13909TIP3   OH241667   8.280   7.399   2.361  0.9350 -0.2217 -0.1500
13909TIP3    H141668   8.357   7.398   2.418  2.6680 -2.0638 -2.3221
13909TIP3    H241669   8.314   7.428   2.276 -0.9546 -0.2946 -0.9728
13910TIP3   OH241670   3.466   6.344   3.702  0.2024 -0.7486 -0.9096
13910TIP3    H141671   3.411   6.421   3.716 -0.1933 -1.4506  1.9795
13910TIP3    H241672   3.437   6.282   3.768  2.1996 -2.4567 -1.5479
13911TIP3   OH241673   2.202   4.275   6.228  0.3965 -0.1714 -0.2957
13911TIP3    H141674   2.112   4.268   6.195  0.5416 -0.2327 -0.6755
13911TIP3    H241675   2.245   4.337   6.169  0.0158  1.5835  1.1497
13912TIP3   OH241676   1.386   0.635   1.111  0.4782 -0.2276 -0.4112
13912TIP3    H141677   1.398   0.609   1.203  0.4606 -0.9160 -0.5940
13912TIP3    H241678   1.352   0.724   1.115  0.6522 -0.1850  0.2477
13913TIP3   OH241679   1.136   6.508   3.586  0.4334 -0.5216  0.3987
13913TIP3    H141680   1.161   6.422   3.620  1.0106 -0.3077  0.5375
13913TIP3    H241681   1.043   6.515   3.604  0.0158 -1.7791 -1.0499
13914TIP3   OH241682   1.388   5.924   3.157  1.1967  0.3069  0.2752
13914TIP3    H141683   1.379   5.935   3.252  1.4251  1.2235  0.1976
13914TIP3    H241684   1.482   5.914   3.143  1.0762 -0.8882  0.2412
13915TIP3   OH241685   0.844   1.763   1.548  0.4480 -0.0639 -0.9126
13915TIP3    H141686   0.786   1.806   1.485  0.6749  0.6161 -0.6629
13915TIP3    H241687   0.844   1.671   1.522  0.8242  0.2688 -2.1348
13916TIP3   OH241688   4.521   4.520   6.872  0.2586  0.2350 -0.3091
13916TIP3    H141689   4.563   4.580   6.811  0.3485 -0.7955 -1.2852
13916TIP3    H241690   4.427   4.529   6.854  0.0357  1.9513  1.3295
13917TIP3   OH241691   3.724   2.394   3.006  0.3823  0.4096 -0.1036
13917TIP3    H141692   3.651   2.338   2.979 -0.8199  0.0660  3.3235
13917TIP3    H241693   3.791   2.333   3.037 -0.3681  0.6899  2.3128
13918TIP3   OH241694   6.247   5.743   0.649  0.5117  0.1247 -0.2828
13918TIP3    H141695   6.277   5.823   0.607  0.2435 -0.3932 -1.4929
13918TIP3    H241696   6.316   5.679   0.633  0.8672  0.1757  0.9407
13919TIP3   OH241697   1.532   2.787   4.641 -0.0283 -0.0779 -0.3800
13919TIP3    H141698   1.441   2.765   4.621  0.4140 -1.8460 -0.5841
13919TIP3    H241699   1.571   2.806   4.556  0.4722 -2.1694 -0.6748
13920TIP3   OH241700   0.776   5.472   4.388 -0.3367  0.3827  0.2979
13920TIP3    H141701   0.718   5.402   4.418  0.8770 -1.0129 -0.4684
13920TIP3    H241702   0.721   5.551   4.389 -1.5933 -0.4503  1.7181
13921TIP3   OH241703   8.336   3.927   4.126 -0.2009  0.0957  0.2142
13921TIP3    H141704   8.404   3.870   4.161  0.8094  2.0427  1.5530
13921TIP3    H241705   8.359   4.014   4.157 -3.4956  0.8059  1.0150
13922TIP3   OH241706   7.166   0.241   0.839  0.8374  0.4850 -0.4699
13922TIP3    H141707   7.228   0.314   0.835  1.7535 -0.2214  0.2476
13922TIP3    H241708   7.169   0.212   0.930  0.1350 -0.1499 -0.6361
13923TIP3   OH241709   2.298   2.958   6.638  0.2071  0.1811 -0.2238
13923TIP3    H141710   2.330   3.040   6.674 -0.8491  0.8101 -0.6514
13923TIP3    H241711   2.376   2.914   6.604  0.6177  1.7362 -1.4364
13924TIP3   OH241712   0.956   1.803   4.454 -0.3437 -0.0428 -0.2640
13924TIP3    H141713   1.048   1.780   4.446 -0.6549 -0.8321 -2.0033
13924TIP3    H241714   0.954   1.873   4.519  1.1786 -1.6799  1.6785
13925TIP3   OH241715   4.213   2.139   0.810  0.2655  0.4827 -0.2217
13925TIP3    H141716   4.265   2.219   0.813  0.1681  0.5259  0.4589
13925TIP3    H241717   4.262   2.076   0.864 -1.0619  0.9506  1.6297
13926TIP3   OH241718   2.210   1.106   3.437  0.5949 -0.8912  0.5268
13926TIP3    H141719   2.278   1.105   3.369 -0.6576  0.6171 -0.8392
13926TIP3    H241720   2.128   1.101   3.388 -0.3315 -0.6431  2.0067
13927TIP3   OH241721   4.840   7.067   0.286  0.3207  0.4570  0.0533
13927TIP3    H141722   4.784   6.989   0.293 -0.9040  1.3152 -0.0113
13927TIP3    H241723   4.852   7.079   0.192  0.7417  0.1917  0.0709
13928TIP3   OH241724   7.875   1.590   2.149 -0.5771  0.0855  0.3873
13928TIP3    H141725   7.786   1.625   2.151 -0.5721  0.1648 -0.3420
13928TIP3    H241726   7.920   1.632   2.223 -1.1833 -0.0756  0.8489
13929TIP3   OH241727   7.144   4.176   2.528  0.4349 -0.0053  0.4228
13929TIP3    H141728   7.234   4.156   2.555  0.0051 -0.0403  1.9379
13929TIP3    H241729   7.125   4.260   2.569 -0.1500  0.1220 -0.0959
13930TIP3   OH241730   3.976   3.408   0.305 -0.8174 -0.2082  0.1653
13930TIP3    H141731   3.970   3.504   0.306 -0.6849 -0.1671 -0.9857
13930TIP3    H241732   3.905   3.379   0.362 -2.8136  0.5378 -1.7703
13931TIP3   OH241733   7.777   6.755   4.311  0.0571 -0.1746 -0.2752
13931TIP3    H141734   7.838   6.818   4.351 -3.8477  4.4373 -0.6743
13931TIP3    H241735   7.711   6.741   4.379 -2.3075  1.1901 -2.1407
13932TIP3   OH241736   6.248   6.101   2.216  0.6000 -0.4105  0.1001
13932TIP3    H141737   6.310   6.174   2.222  0.8995 -0.7618  3.4442
13932TIP3    H241738   6.178   6.125   2.276 -1.7760 -0.7950 -2.3450
13933TIP3   OH241739   6.459   5.660   6.370 -0.2917 -0.4425  0.1122
13933TIP3    H141740   6.448   5.625   6.282  1.6452 -0.0054 -0.3710
13933TIP3    H241741   6.449   5.755   6.359  1.4584 -0.2266  0.0081
13934TIP3   OH241742   0.969   6.870   3.842  0.0907 -0.2095 -0.0718
13934TIP3    H141743   0.977   6.931   3.915 -0.6437  1.6150 -1.4642
13934TIP3    H241744   1.041   6.892   3.783  0.2648 -1.1932 -0.2452
13935TIP3   OH241745   0.716   6.708   6.728  0.3934 -0.4427  0.4792
13935TIP3    H141746   0.809   6.713   6.704 -0.4025  0.4424 -3.0110
13935TIP3    H241747   0.705   6.773   6.797  2.2518 -0.1090  0.5021
13936TIP3   OH241748   6.310   3.020   1.624 -0.7914  0.0649 -0.1836
13936TIP3    H141749   6.335   3.109   1.598  1.1122  0.0589  1.3879
13936TIP3    H241750   6.316   2.969   1.543  1.2719  0.7549 -0.5266
13937TIP3   OH241751   3.404   2.962   4.731  0.0854 -0.1493  0.3069
13937TIP3    H141752   3.435   3.004   4.811  1.2601  0.4538 -0.4362
13937TIP3    H241753   3.309   2.976   4.731  0.1067  0.0273  1.4742
13938TIP3   OH241754   7.793   4.510   5.959  0.6559 -0.0841  0.2958
13938TIP3    H141755   7.719   4.527   5.901  1.0528  0.0509 -0.1842
13938TIP3    H241756   7.755   4.503   6.046 -0.1531 -1.7869 -0.1643
13939TIP3   OH241757   8.348   2.891   3.644 -0.3276  0.5484 -0.7555
13939TIP3    H141758   8.414   2.919   3.707  0.9115 -0.0201 -1.7261
13939TIP3    H241759   8.400   2.856   3.571 -1.7178 -1.6906 -0.7609
13940TIP3   OH241760   6.916   0.269   3.584 -0.0371  0.1635 -0.3840
13940TIP3    H141761   6.832   0.278   3.629  0.7564  2.8131  0.7150
13940TIP3    H241762   6.898   0.296   3.494 -0.9108 -2.0905 -0.9788
13941TIP3   OH241763   2.861   3.838   6.590 -0.2844 -0.1521 -0.2046
13941TIP3    H141764   2.939   3.817   6.641  0.4685  1.0055 -0.8441
13941TIP3    H241765   2.885   3.817   6.499 -0.8401 -0.1306 -0.3625
13942TIP3   OH241766   3.523   2.386   4.118  0.0729  0.5567 -0.1068
13942TIP3    H141767   3.488   2.471   4.143  0.0456  0.0768  1.6808
13942TIP3    H241768   3.457   2.323   4.149 -0.0693 -0.1142 -1.6948
13943TIP3   OH241769   2.718   5.354   1.813 -0.5587  0.2336  0.2486
13943TIP3    H141770   2.793   5.298   1.793 -0.0609  0.8273  0.4180
13943TIP3    H241771   2.741   5.396   1.895 -1.6871 -0.6147  1.0292
13944TIP3   OH241772   7.563   4.202   2.837 -0.1495  0.0521 -0.4438
13944TIP3    H141773   7.654   4.175   2.852 -0.4511 -0.4543  0.5337
13944TIP3    H241774   7.564   4.297   2.851 -0.1163 -0.1934  1.4237
13945TIP3   OH241775   6.721   3.582   4.742 -0.8493  0.3070  0.2550
13945TIP3    H141776   6.646   3.642   4.745 -2.0188 -1.1085  1.2776
13945TIP3    H241777   6.719   3.538   4.827  1.0521  0.0822  0.2244
13946TIP3   OH241778   3.931   7.313   4.794  0.3709 -0.0126 -0.2789
13946TIP3    H141779   3.936   7.274   4.881 -0.0682  1.4671  0.4289
13946TIP3    H241780   3.980   7.251   4.738  0.4396 -1.1119  0.9409
13947TIP3   OH241781   3.943   7.265   1.554  0.0344 -0.7081  0.6325
13947TIP3    H141782   3.893   7.195   1.512 -0.7572  0.5943 -0.6764
13947TIP3    H241783   3.966   7.324   1.482  0.0672  0.7440  1.7922
13948TIP3   OH241784   2.394   4.639   0.428 -0.2502  0.1068 -0.5595
13948TIP3    H141785   2.382   4.560   0.375  0.4293 -0.2581 -0.1845
13948TIP3    H241786   2.489   4.644   0.442  0.2969  3.0968 -3.8022
13949TIP3   OH241787   5.642   3.864   0.151 -0.5886 -0.2245 -0.2517
13949TIP3    H141788   5.598   3.779   0.141  1.2303 -1.1233 -1.0013
13949TIP3    H241789   5.639   3.881   0.245 -0.3483 -1.4872  0.0099
13950TIP3   OH241790   0.303   3.884   5.738 -0.1721  0.2061  0.0184
13950TIP3    H141791   0.230   3.824   5.747  0.6774 -1.1611 -1.6405
13950TIP3    H241792   0.263   3.971   5.739 -1.5808 -0.4239  0.9932
13951TIP3   OH241793   6.550   3.316   0.695 -0.1137 -0.2942 -0.2948
13951TIP3    H141794   6.599   3.364   0.761 -0.8586  1.0764 -0.7092
13951TIP3    H241795   6.604   3.321   0.616  0.6190 -1.6484  0.0884
13952TIP3   OH241796   0.255   4.994   6.532 -0.1795  0.3298 -0.7634
13952TIP3    H141797   0.297   4.961   6.452  0.8142  0.2577 -0.2197
13952TIP3    H241798   0.250   5.088   6.519 -0.3671  0.2816 -1.0651
13953TIP3   OH241799   1.465   4.744   1.284  0.4423  0.8383 -0.6781
13953TIP3    H141800   1.476   4.708   1.196  1.9359  0.4725 -0.3816
13953TIP3    H241801   1.540   4.803   1.295  0.8715  0.1007  0.6871
13954TIP3   OH241802   6.470   3.409   0.983  0.2705 -0.2770  0.4370
13954TIP3    H141803   6.541   3.345   0.992  1.0635  0.8510  3.3164
13954TIP3    H241804   6.396   3.368   1.028  0.8250  0.7632  2.4265
13955TIP3   OH241805   1.132   6.129   2.126 -0.2144  0.1986  0.5757
13955TIP3    H141806   1.078   6.067   2.174  0.1121 -0.2713  0.3350
13955TIP3    H241807   1.099   6.125   2.036 -0.2414  0.4334  0.5727
13956TIP3   OH241808   4.868   6.449   6.318 -0.1047 -0.9944 -0.1224
13956TIP3    H141809   4.887   6.511   6.248  0.5410 -0.5901  0.4079
13956TIP3    H241810   4.854   6.503   6.396  0.7842 -1.5125  0.4209
13957TIP3   OH241811   0.660   5.361   6.536 -0.1067 -0.1035  0.4394
13957TIP3    H141812   0.567   5.356   6.559 -0.4273  0.4448 -0.6427
13957TIP3    H241813   0.676   5.455   6.523  1.1157  0.0423  2.5421
13958TIP3   OH241814   5.949   1.842   4.597 -0.1972  0.1508 -0.0159
13958TIP3    H141815   5.998   1.863   4.676 -0.5443 -0.4410  0.3645
13958TIP3    H241816   5.903   1.923   4.575 -0.5106  0.1680  0.6933
13959TIP3   OH241817   4.062   4.727   3.483 -0.5693  0.3519 -0.6204
13959TIP3    H141818   4.120   4.728   3.407  0.0687  3.4557 -0.2173
13959TIP3    H241819   3.993   4.789   3.460 -0.8927  0.5924  0.9366
13960TIP3   OH241820   1.343   7.563   3.480 -0.4943  0.5271  0.2535
13960TIP3    H141821   1.434   7.579   3.455  0.4810 -1.2381  2.3098
13960TIP3    H241822   1.320   7.636   3.537 -0.1588  0.6615  0.2183
13961TIP3   OH241823   1.019   3.772   0.523 -0.1760 -0.1548  0.0954
13961TIP3    H141824   1.029   3.687   0.481 -1.4190 -1.3018  2.0016
13961TIP3    H241825   0.927   3.795   0.510 -0.2143  0.1693  0.8857
13962TIP3   OH241826   4.343   7.891   2.593  0.1263  0.1574  0.2600
13962TIP3    H141827   4.269   7.898   2.533 -0.0577 -0.4840  0.4094
13962TIP3    H241828   4.417   7.929   2.545  0.3536 -1.7721 -0.9999
13963TIP3   OH241829   7.661   2.119   5.789  0.2229 -0.7008 -0.1047
13963TIP3    H141830   7.662   2.134   5.695  0.4277  1.1539  0.1563
13963TIP3    H241831   7.747   2.083   5.809  0.6417  0.0715 -0.4747
13964TIP3   OH241832   1.657   4.250   0.249 -0.3628  0.3180  0.0491
13964TIP3    H141833   1.744   4.217   0.276  0.3501  0.1111 -2.3224
13964TIP3    H241834   1.664   4.345   0.257 -0.1316  0.2724  0.4398
13965TIP3   OH241835   4.697   5.661   6.153  0.1719 -0.1322  0.6263
13965TIP3    H141836   4.714   5.689   6.063 -1.4949  0.4646  0.4520
13965TIP3    H241837   4.765   5.597   6.172  1.9287  1.3553 -0.2690
13966TIP3   OH241838   8.203   3.902   5.048 -0.1972  0.2970  0.5464
13966TIP3    H141839   8.253   3.820   5.044  0.6276  0.7225  1.5187
13966TIP3    H241840   8.270   3.970   5.051 -0.8695  1.1294 -1.6813
13967TIP3   OH241841   1.585   4.585   4.691 -0.4631 -0.1409 -0.0990
13967TIP3    H141842   1.565   4.501   4.650 -0.5960 -0.1322 -0.0544
13967TIP3    H241843   1.629   4.562   4.772  0.2482 -0.1448 -0.4845
13968TIP3   OH241844   7.426   5.791   0.177 -0.0978 -0.3701  0.9432
13968TIP3    H141845   7.356   5.731   0.201 -0.5897  0.1484  0.8181
13968TIP3    H241846   7.382   5.863   0.132  0.7029 -0.9285 -0.8256
13969TIP3   OH241847   3.372   5.692   5.611 -0.9684 -0.6856 -0.2456
13969TIP3    H141848   3.454   5.739   5.630 -1.1238 -0.3524 -0.3797
13969TIP3    H241849   3.399   5.616   5.560 -0.5775 -1.4275  1.0370
13970TIP3   OH241850   3.280   1.047   1.139 -0.5066  0.1122  0.7312
13970TIP3    H141851   3.219   1.109   1.180 -1.1287  0.9754 -1.4055
13970TIP3    H241852   3.224   0.983   1.095  0.0820  0.9698 -1.3487
13971TIP3   OH241853   3.768   3.805   3.699  0.0833 -0.0120  0.0592
13971TIP3    H141854   3.695   3.841   3.648 -0.1203 -0.0503  0.3211
13971TIP3    H241855   3.747   3.712   3.708  0.5783 -0.1883 -0.5629
13972TIP3   OH241856   3.306   3.594   1.209  0.4220 -0.3418 -0.1793
13972TIP3    H141857   3.265   3.512   1.239 -0.1481  0.3188  0.8972
13972TIP3    H241858   3.233   3.647   1.178  0.1865  1.3048  2.8118
13973TIP3   OH241859   5.892   5.122   5.932 -0.3826 -0.3125 -0.4023
13973TIP3    H141860   5.824   5.128   5.999  0.7829 -0.8807  0.8736
13973TIP3    H241861   5.867   5.046   5.880  0.4067 -1.8833  1.4213
13974TIP3   OH241862   6.227   3.053   6.183 -0.3417 -0.0914 -0.0977
13974TIP3    H141863   6.163   2.986   6.159 -0.1608  0.0844 -1.1282
13974TIP3    H241864   6.183   3.107   6.248 -1.1766 -0.0989 -0.6430
13975TIP3   OH241865   5.885   2.438   4.726 -0.5004 -0.1462 -0.6693
13975TIP3    H141866   5.877   2.516   4.781  1.6490 -0.5745  0.3432
13975TIP3    H241867   5.960   2.457   4.669  0.0902 -1.4823 -0.3543
13976TIP3   OH241868   3.512   0.051   3.009  0.1654 -0.1888  0.8728
13976TIP3    H141869   3.546   0.138   2.990 -0.1363 -0.0579  0.9267
13976TIP3    H241870   3.423   0.066   3.041 -0.7950 -0.6589 -1.3796
13977TIP3   OH241871   0.110   2.365   6.029  0.0963  0.2893 -0.2907
13977TIP3    H141872   0.117   2.342   5.936  0.0287  2.4201 -0.8856
13977TIP3    H241873   0.025   2.329   6.056 -0.1274  0.1008 -1.2064
13978TIP3   OH241874   0.498   5.943   2.563 -0.0730  0.1273  0.3821
13978TIP3    H141875   0.476   5.861   2.518  0.9779  0.1000 -0.1124
13978TIP3    H241876   0.592   5.937   2.579  0.1661  1.5575 -0.3330
13979TIP3   OH241877   6.841   6.252   6.264  0.2436  0.3517  0.4023
13979TIP3    H141878   6.893   6.175   6.243 -1.4438 -0.7985  0.2689
13979TIP3    H241879   6.904   6.324   6.268  1.3968 -0.2684 -3.4375
13980TIP3   OH241880   4.568   1.394   6.035  0.8268  0.1358 -0.0099
13980TIP3    H141881   4.640   1.335   6.058  0.8839  0.8453  1.8128
13980TIP3    H241882   4.565   1.392   5.939  1.1438 -2.3907 -0.0131
13981TIP3   OH241883   2.044   4.789   2.511  0.5469 -0.0296  0.2299
13981TIP3    H141884   2.133   4.815   2.488 -0.2049  1.8084 -0.7882
13981TIP3    H241885   2.011   4.861   2.564  0.1695 -1.4392  2.0245
13982TIP3   OH241886   1.957   6.994   3.740 -0.0828  0.0842  0.3169
13982TIP3    H141887   1.961   7.074   3.792 -0.7580  0.6043 -0.4204
13982TIP3    H241888   1.995   7.018   3.656  1.0299 -0.7626  0.5539
13983TIP3   OH241889   0.716   0.589   3.622  0.2309 -0.3800 -0.0898
13983TIP3    H141890   0.809   0.576   3.604 -0.1882 -3.2367 -0.6369
13983TIP3    H241891   0.673   0.570   3.539 -0.8610  1.8536 -0.1097
13984TIP3   OH241892   3.203   0.050   4.330  0.3510  0.1697  0.1387
13984TIP3    H141893   3.271   0.052   4.263  0.4050 -0.6210  0.1641
13984TIP3    H241894   3.251   0.053   4.413  0.3917 -0.8483  0.1645
13985TIP3   OH241895   4.188   3.444   6.798  0.2030  0.1704 -0.8564
13985TIP3    H141896   4.101   3.475   6.825  0.0022 -0.9215 -0.1607
13985TIP3    H241897   4.194   3.466   6.705 -0.8004  0.3151 -0.8970
13986TIP3   OH241898   0.050   1.391   4.806  0.6735 -0.4778 -0.6377
13986TIP3    H141899   0.108   1.408   4.880 -0.6644  2.4022 -0.0945
13986TIP3    H241900   0.026   1.299   4.815  1.0662 -0.4066  2.1578
13987TIP3   OH241901   1.272   0.630   4.058  0.2681  0.6913 -0.3829
13987TIP3    H141902   1.267   0.604   3.966  0.4590 -0.3805 -0.1109
13987TIP3    H241903   1.345   0.691   4.062  0.1379  0.8902 -0.9730
13988TIP3   OH241904   3.832   5.535   1.725  0.4401 -0.2337  0.0916
13988TIP3    H141905   3.902   5.512   1.786  2.0402  1.5321 -0.9458
13988TIP3    H241906   3.772   5.460   1.727  2.1173 -1.6255  1.3524
13989TIP3   OH241907   4.386   2.857   2.173 -0.0983 -0.3939 -0.2558
13989TIP3    H141908   4.392   2.762   2.175 -0.8452 -0.4381  0.3756
13989TIP3    H241909   4.474   2.886   2.152  0.8661 -1.1489  2.3768
13990TIP3   OH241910   0.810   2.116   4.450 -0.1816 -0.2482  0.3578
13990TIP3    H141911   0.757   2.066   4.388  0.3172 -0.2208 -0.1094
13990TIP3    H241912   0.802   2.207   4.420  1.3396 -0.4067 -0.6873
13991TIP3   OH241913   6.817   4.274   2.743 -0.1802 -1.1845 -0.0713
13991TIP3    H141914   6.759   4.349   2.757 -1.2387 -2.0980  0.7076
13991TIP3    H241915   6.860   4.261   2.828 -0.6691 -1.9651  0.0709
13992TIP3   OH241916   6.947   3.321   4.659 -0.5219 -0.3459  0.4303
13992TIP3    H141917   6.854   3.341   4.661  0.0197  2.5815  0.4853
13992TIP3    H241918   6.984   3.384   4.597  1.3702 -1.8319 -0.0672
13993TIP3   OH241919   4.934   3.985   4.858  0.4884  0.3954 -0.0618
13993TIP3    H141920   4.862   3.923   4.866  2.1773 -2.0339 -2.2930
13993TIP3    H241921   4.927   4.020   4.769  2.4252 -0.4776 -0.6117
13994TIP3   OH241922   4.277   0.975   1.767 -0.1094 -1.0063  0.0088
13994TIP3    H141923   4.340   0.998   1.835 -0.2396 -0.3403 -0.0859
13994TIP3    H241924   4.325   0.919   1.706  0.0520 -1.4739  0.5605
13995TIP3   OH241925   1.173   0.277   3.533 -0.6225 -0.5813  0.4003
13995TIP3    H141926   1.212   0.231   3.607 -1.8915 -3.7660 -0.7412
13995TIP3    H241927   1.201   0.227   3.456 -1.0008  1.4041 -1.1244
13996TIP3   OH241928   0.119   1.235   6.886  0.0483  0.1348 -0.7337
13996TIP3    H141929   0.103   1.221   6.793  0.0622 -0.0323 -0.7108
13996TIP3    H241930   0.209   1.205   6.900  0.5493  1.4523 -0.9458
13997TIP3   OH241931   7.072   4.945   2.262 -0.4227  0.7787 -0.3588
13997TIP3    H141932   7.108   4.859   2.245 -0.6880  0.2567  1.5377
13997TIP3    H241933   6.998   4.953   2.201 -0.2425 -0.2191 -0.7157
13998TIP3   OH241934   5.407   4.709   0.453 -0.0560 -0.3370 -0.1224
13998TIP3    H141935   5.417   4.705   0.548 -0.6495  1.5513  0.0599
13998TIP3    H241936   5.424   4.801   0.431 -1.2384 -0.4473 -1.6724
13999TIP3   OH241937   2.304   5.683   3.580 -0.3161  0.4249 -0.0546
13999TIP3    H141938   2.393   5.649   3.568  0.0826  1.8145 -1.3684
13999TIP3    H241939   2.251   5.605   3.601  1.0629 -0.5302 -0.0036
14000TIP3   OH241940   4.552   6.667   1.277  0.3810 -0.1636 -0.5280
14000TIP3    H141941   4.463   6.633   1.270 -0.6809  1.9641  1.3888
14000TIP3    H241942   4.563   6.723   1.200 -0.2692  0.2013 -0.3655
14001TIP3   OH241943   8.156   7.224   1.961 -0.3232 -0.0505 -0.1575
14001TIP3    H141944   8.182   7.170   1.886 -2.1263  0.6194 -1.3286
14001TIP3    H241945   8.173   7.169   2.038 -2.3058 -2.4413 -1.2993
14002TIP3   OH241946   4.466   5.775   2.385 -0.3866 -0.1208  0.0373
14002TIP3    H141947   4.521   5.701   2.360 -1.2262 -0.3290 -1.2765
14002TIP3    H241948   4.463   5.830   2.307 -3.3603 -0.9394 -0.5356
14003TIP3   OH241949   1.121   1.570   0.101 -0.1131  0.0160 -0.2620
14003TIP3    H141950   1.213   1.597   0.099  0.1477 -0.8202 -0.0149
14003TIP3    H241951   1.106   1.541   0.191  0.2185 -2.5720 -0.9579
14004TIP3   OH241952   5.283   7.859   3.107  0.1789 -0.2459 -0.5342
14004TIP3    H141953   5.294   7.859   3.012 -1.1897 -0.7210 -0.7172
14004TIP3    H241954   5.301   7.769   3.134 -0.8135 -0.4544 -0.5392
14005TIP3   OH241955   3.511   2.293   0.375 -0.2314  0.3051 -0.4081
14005TIP3    H141956   3.473   2.271   0.291 -0.9954  1.6342 -0.4353
14005TIP3    H241957   3.528   2.387   0.371  1.7885  0.0225  0.1235
14006TIP3   OH241958   3.295   6.705   2.154 -0.3419 -0.2138 -0.3974
14006TIP3    H141959   3.318   6.743   2.069 -0.7472  1.3014  0.1469
14006TIP3    H241960   3.369   6.726   2.210  0.2260 -1.7875 -0.5095
14007TIP3   OH241961   0.544   4.458   1.849 -0.5478 -0.4035 -1.0327
14007TIP3    H141962   0.492   4.515   1.905  1.7658 -1.0103  2.0148
14007TIP3    H241963   0.492   4.378   1.842 -0.4826 -0.7172  1.2923
14008TIP3   OH241964   8.233   2.244   0.911 -0.4598  0.6989 -0.2016
14008TIP3    H141965   8.141   2.271   0.920 -0.0991  1.8663  0.2142
14008TIP3    H241966   8.281   2.327   0.906  0.3889  0.1587 -2.6737
14009TIP3   OH241967   4.145   3.308   5.739  0.3263  0.6396  0.0797
14009TIP3    H141968   4.191   3.229   5.766 -0.2992  0.5109  0.7983
14009TIP3    H241969   4.201   3.347   5.672  0.5781 -0.4690 -0.3675
14010TIP3   OH241970   1.204   1.587   4.429 -0.4082  0.2103 -0.3789
14010TIP3    H141971   1.183   1.496   4.410 -1.3998  0.8244 -2.5864
14010TIP3    H241972   1.207   1.630   4.343 -4.1009  3.1000  0.6687
14011TIP3   OH241973   5.733   3.029   5.941  0.0099  0.4988 -0.0840
14011TIP3    H141974   5.761   3.019   6.032 -0.4953 -0.2072  0.0027
14011TIP3    H241975   5.744   3.122   5.923  1.1624  0.4700  0.3464
14012TIP3   OH241976   7.313   7.587   3.022 -0.1517 -0.3259  0.1238
14012TIP3    H141977   7.250   7.657   3.001 -0.2465 -0.3374  0.3619
14012TIP3    H241978   7.314   7.585   3.117  2.2817  1.5503  0.2371
14013TIP3   OH241979   4.382   2.819   4.684  0.2833  0.0583 -0.1517
14013TIP3    H141980   4.456   2.857   4.732  0.9577 -0.6634 -0.5999
14013TIP3    H241981   4.391   2.856   4.596 -0.3841  0.6199  0.0110
14014TIP3   OH241982   7.982   5.762   6.168 -0.0805  0.7255 -0.2971
14014TIP3    H141983   8.017   5.698   6.105 -0.9714 -0.6563  0.5607
14014TIP3    H241984   7.960   5.710   6.245  0.7997  2.3615  1.1052
14015TIP3   OH241985   3.701   2.217   3.717 -0.1253 -0.6032  0.4549
14015TIP3    H141986   3.784   2.260   3.695 -0.1473 -0.9181 -0.3061
14015TIP3    H241987   3.658   2.205   3.632 -0.9147 -0.5166  0.8372
14016TIP3   OH241988   6.011   3.165   1.850  0.2220 -0.1742  0.1389
14016TIP3    H141989   5.974   3.210   1.773 -1.9769  0.0757  1.2442
14016TIP3    H241990   5.949   3.093   1.867  0.7544 -0.3250  1.5568
14017TIP3   OH241991   7.642   4.634   1.700 -0.4608  0.9684  0.8890
14017TIP3    H141992   7.550   4.610   1.713  0.2567 -2.3601  0.5393
14017TIP3    H241993   7.662   4.604   1.611  0.9580  1.7429  0.9207
14018TIP3   OH241994   0.385   7.429   6.426  0.0424 -0.8063 -0.0154
14018TIP3    H141995   0.459   7.469   6.381  0.1488  0.9053  1.5616
14018TIP3    H241996   0.324   7.502   6.441 -1.2003 -1.8577  0.1870
14019TIP3   OH241997   6.985   4.510   6.520 -0.0564  0.5095  0.6311
14019TIP3    H141998   6.925   4.436   6.515  0.7053 -0.0485 -0.6262
14019TIP3    H241999   6.982   4.537   6.612 -0.3962 -1.0336  1.1025
14020TIP3   OH242000   2.820   2.774   4.581 -0.6583  0.8072  0.1869
14020TIP3    H142001   2.775   2.757   4.664 -0.8021  2.5382  0.4907
14020TIP3    H242002   2.910   2.744   4.596 -0.4439  1.9280  1.2992
14021TIP3   OH242003   0.725   6.721   2.003 -0.2302  0.0914 -0.0882
14021TIP3    H142004   0.695   6.762   2.084 -0.1980 -0.0720  0.0076
14021TIP3    H242005   0.806   6.676   2.027  0.6209  1.3273 -0.5582
14022TIP3   OH242006   0.689   4.001   0.271 -0.0456 -0.6739 -0.1186
14022TIP3    H142007   0.777   4.033   0.252 -1.1651  2.6030 -0.4506
14022TIP3    H242008   0.678   3.924   0.216  1.6042  0.5808 -2.3407
14023TIP3   OH242009   2.893   0.567   2.725 -0.4127 -0.4146  0.2667
14023TIP3    H142010   2.914   0.485   2.770  1.1904  0.5804  1.4370
14023TIP3    H242011   2.971   0.586   2.673 -1.3645 -0.3715 -1.2062
14024TIP3   OH242012   0.967   7.785   5.039  0.3400 -0.9402 -0.0777
14024TIP3    H142013   1.010   7.745   5.114  0.5314 -1.9754 -0.7104
14024TIP3    H242014   1.034   7.838   4.997  0.0127  0.3082  0.9209
14025TIP3   OH242015   2.971   5.937   2.565  0.2311  0.4742 -0.2778
14025TIP3    H142016   2.904   5.946   2.633  1.2854 -1.7845  1.2017
14025TIP3    H242017   2.947   5.856   2.520 -0.1990  1.7208 -2.3894
14026TIP3   OH242018   0.372   0.830   4.946 -0.1838  0.0263 -0.5410
14026TIP3    H142019   0.337   0.911   4.908 -1.2231  0.1806  0.6635
14026TIP3    H242020   0.321   0.761   4.904 -1.5507  0.2137  0.7050
14027TIP3   OH242021   4.229   7.327   0.612 -1.0944  0.7456 -0.6406
14027TIP3    H142022   4.187   7.408   0.641  0.7639  1.5110  0.0899
14027TIP3    H242023   4.266   7.349   0.527  0.3727  1.0721  0.0435
14028TIP3   OH242024   3.408   2.512   3.860  0.5583 -0.6138  0.5530
14028TIP3    H142025   3.502   2.526   3.849  0.3273  2.9694  1.7450
14028TIP3    H242026   3.400   2.460   3.940  1.5614 -0.1758  0.9588
14029TIP3   OH242027   6.855   5.243   0.171 -0.0522 -0.5911  0.2634
14029TIP3    H142028   6.835   5.150   0.181 -1.1341 -0.9259 -3.4378
14029TIP3    H242029   6.891   5.251   0.083  2.1703  2.2502  1.2532
14030TIP3   OH242030   4.272   7.116   2.688 -0.6086  0.2367  0.0532
14030TIP3    H142031   4.289   7.082   2.776  0.2357 -1.6821 -0.7901
14030TIP3    H242032   4.342   7.179   2.673  0.0508 -0.4367  0.2481
14031TIP3   OH242033   7.248   1.379   2.870  0.4598  0.0612 -0.6510
14031TIP3    H142034   7.267   1.312   2.935  1.4580  0.9841  0.0485
14031TIP3    H242035   7.178   1.342   2.816 -0.7327 -0.5560  1.2170
14032TIP3   OH242036   8.313   4.177   2.267  0.3224  0.0488  0.2572
14032TIP3    H142037   8.314   4.269   2.241  0.4607 -0.1886 -0.6281
14032TIP3    H242038   8.283   4.130   2.189  0.6661 -0.6961  0.5550
14033TIP3   OH242039   5.517   7.833   3.767  0.1225  0.0262 -0.2787
14033TIP3    H142040   5.560   7.798   3.845 -1.6105  0.7428  1.0672
14033TIP3    H242041   5.447   7.770   3.749 -0.4152  0.6368 -0.3389
14034TIP3   OH242042   8.186   5.834   1.609 -0.0159  0.3480  0.8623
14034TIP3    H142043   8.096   5.844   1.641 -0.1469  1.4131  0.2380
14034TIP3    H242044   8.179   5.848   1.514  0.5294 -1.5187  0.5075
14035TIP3   OH242045   2.345   6.488   1.535  0.3815  0.0671  0.1911
14035TIP3    H142046   2.331   6.580   1.560  0.6542  0.3790 -0.7557
14035TIP3    H242047   2.257   6.456   1.513  0.3578  0.2760 -0.0281
14036TIP3   OH242048   7.211   1.526   1.082 -0.0444 -0.1572 -0.2006
14036TIP3    H142049   7.206   1.443   1.034 -1.0373 -0.1425 -0.1399
14036TIP3    H242050   7.281   1.512   1.145  0.2407 -0.7191 -0.6234
14037TIP3   OH242051   5.745   3.394   6.408 -0.0249 -0.3774 -0.3170
14037TIP3    H142052   5.663   3.413   6.452 -0.2568 -0.1485 -0.8457
14037TIP3    H242053   5.738   3.302   6.382  0.7474 -0.9954  1.4756
14038TIP3   OH242054   3.387   5.946   0.813 -0.0688 -0.1162 -0.0257
14038TIP3    H142055   3.306   5.926   0.859 -0.1096 -0.9435 -0.4412
14038TIP3    H242056   3.361   6.003   0.741  0.0609  1.6119  1.2174
14039TIP3   OH242057   1.934   6.782   3.464 -0.2184  0.0544  0.1179
14039TIP3    H142058   2.027   6.758   3.463 -0.0026  0.7697  0.8731
14039TIP3    H242059   1.935   6.878   3.471 -1.0236  0.1655 -1.0721
14040TIP3   OH242060   3.689   6.244   2.071  0.0773 -0.2685  0.3699
14040TIP3    H142061   3.711   6.310   2.005  0.1762  0.3310  0.9857
14040TIP3    H242062   3.767   6.237   2.126 -0.4956  0.3076  1.2862
14041TIP3   OH242063   0.362   5.469   1.119 -0.0216 -0.8404  0.0435
14041TIP3    H142064   0.365   5.560   1.088 -3.0783 -0.5610  0.1777
14041TIP3    H242065   0.412   5.469   1.200 -0.8116  1.0270  0.5879
14042TIP3   OH242066   0.857   4.115   0.021  0.0635  0.7261 -0.2192
14042TIP3    H142067   0.822   4.202   0.005 -1.9442 -0.0356 -0.3100
14042TIP3    H242068   0.907   4.124   0.102 -0.5546  1.8629  0.0627
14043TIP3   OH242069   1.651   6.852   2.488  0.2647  0.4401 -0.2075
14043TIP3    H142070   1.724   6.790   2.485 -0.8487 -1.0573  1.5304
14043TIP3    H242071   1.693   6.938   2.491  1.8849 -0.2386 -1.5733
14044TIP3   OH242072   1.926   5.233   1.820  0.0755  0.1337 -0.3035
14044TIP3    H142073   1.927   5.174   1.744  0.9251 -1.5018  0.9275
14044TIP3    H242074   1.833   5.247   1.837 -0.2345 -2.2824  0.3876
14045TIP3   OH242075   0.201   6.068   2.562 -0.1720  0.1229 -0.5397
14045TIP3    H142076   0.247   6.130   2.505  0.7753  0.4507  0.5305
14045TIP3    H242077   0.214   6.103   2.650  0.2499 -1.4923  0.0745
14046TIP3   OH242078   1.749   0.441   6.593  0.0210  0.3857  0.3979
14046TIP3    H142079   1.701   0.524   6.579  0.1691  0.4749  0.4185
14046TIP3    H242080   1.809   0.460   6.665 -0.1135  0.1874  0.5625
14047TIP3   OH242081   2.127   2.606   2.282 -0.5545 -0.3507  0.3020
14047TIP3    H142082   2.046   2.574   2.323  0.8241 -0.5045  3.1507
14047TIP3    H242083   2.134   2.696   2.311  0.9691 -0.7584  1.2895
14048TIP3   OH242084   1.824   3.960   3.259  0.2721  0.2959  0.2471
14048TIP3    H142085   1.862   4.034   3.212 -0.7319  0.6842  0.0386
14048TIP3    H242086   1.806   3.895   3.191  3.2875 -1.1665  0.6480
14049TIP3   OH242087   1.215   0.922   5.086  0.2180 -0.0604  0.1653
14049TIP3    H142088   1.133   0.893   5.126 -0.1166  0.4557 -0.1456
14049TIP3    H242089   1.191   0.952   4.999  0.2357  2.7630  1.0316
14050TIP3   OH242090   7.403   4.045   1.233  0.1303 -0.0395 -0.2758
14050TIP3    H142091   7.459   4.110   1.190 -1.2776  1.7147  0.3719
14050TIP3    H242092   7.319   4.054   1.189  0.2983 -2.6724 -1.2819
14051TIP3   OH242093   8.208   5.616   2.454  0.5795  0.0736  0.2989
14051TIP3    H142094   8.299   5.585   2.460  0.7834  0.7918  1.1014
14051TIP3    H242095   8.158   5.551   2.503  0.7158 -0.0808  0.2379
14052TIP3   OH242096   2.701   3.617   6.729 -0.7665  0.4107  0.1849
14052TIP3    H142097   2.752   3.671   6.668 -0.1034 -1.0516 -0.6155
14052TIP3    H242098   2.634   3.577   6.674 -0.3292 -0.7135  0.4411
14053TIP3   OH242099   1.259   2.528   2.933  1.1147  0.0674  1.0851
14053TIP3    H142100   1.228   2.440   2.912  0.0819  0.6006  0.2436
14053TIP3    H242101   1.342   2.537   2.885  0.7462 -0.1211  0.4079
14054TIP3   OH242102   5.811   2.967   4.309 -0.5655  0.3525 -0.1894
14054TIP3    H142103   5.870   2.929   4.374 -0.1041  1.2321 -0.0764
14054TIP3    H242104   5.729   2.982   4.357 -0.2267  0.9981  0.1917
14055TIP3   OH242105   6.393   0.720   2.707 -0.4432 -0.3145  0.4469
14055TIP3    H142106   6.459   0.790   2.704  0.5468 -1.2047  0.6237
14055TIP3    H242107   6.405   0.680   2.793  0.1986 -1.7930 -0.2982
14056TIP3   OH242108   5.452   0.139   3.280  0.4175  0.3272  0.6438
14056TIP3    H142109   5.536   0.168   3.316  1.1064  1.9023 -1.9962
14056TIP3    H242110   5.398   0.218   3.279 -0.7569 -0.4304  1.2629
14057TIP3   OH242111   7.029   3.006   3.689 -0.0828  0.4590  0.6032
14057TIP3    H142112   7.074   2.921   3.686 -0.9116  0.0363 -0.7753
14057TIP3    H242113   6.945   2.988   3.730  0.7750  1.1730  2.8017
14058TIP3   OH242114   5.464   7.092   4.343  0.0405 -0.2790 -0.1342
14058TIP3    H142115   5.540   7.073   4.397 -0.4122  0.1066  0.6624
14058TIP3    H242116   5.414   7.156   4.394 -0.4262  0.0525 -0.9924
14059TIP3   OH242117   0.955   0.658   5.108 -0.5112  0.1593 -0.1734
14059TIP3    H142118   0.921   0.615   5.030 -0.2323  0.7581 -0.6315
14059TIP3    H242119   0.980   0.586   5.166 -0.4867 -0.2954 -0.7394
14060TIP3   OH242120   1.435   5.304   2.612  0.0989  0.4090 -0.6562
14060TIP3    H142121   1.514   5.273   2.568 -0.0594  0.6551 -1.1270
14060TIP3    H242122   1.467   5.347   2.692  0.6464  2.2789 -1.8019
14061TIP3   OH242123   6.773   7.432   4.570  0.0792 -0.2459  0.2698
14061TIP3    H142124   6.732   7.363   4.623 -0.7010 -0.8701 -1.0901
14061TIP3    H242125   6.865   7.408   4.566  0.2168 -0.0092  1.5876
14062TIP3   OH242126   4.898   5.275   0.079  0.4229 -0.3234 -0.6820
14062TIP3    H142127   4.954   5.200   0.099 -1.0827 -1.1374  0.5986
14062TIP3    H242128   4.845   5.247   0.004  0.1956 -0.3570 -0.5081
14063TIP3   OH242129   7.739   6.833   3.436  0.1481 -0.2553  0.4110
14063TIP3    H142130   7.732   6.915   3.387 -1.0463 -1.4924 -1.6529
14063TIP3    H242131   7.649   6.812   3.460  0.0119 -2.3165 -1.5788
14064TIP3   OH242132   2.390   0.170   1.921 -0.2049  0.4027 -0.6703
14064TIP3    H142133   2.434   0.255   1.919 -0.2989  0.4599 -2.4901
14064TIP3    H242134   2.397   0.138   1.831 -3.6268  0.2745 -1.0010
14065TIP3   OH242135   5.781   6.240   5.098  0.3587 -0.0722  0.3114
14065TIP3    H142136   5.779   6.146   5.081  2.3741 -0.3142  1.0765
14065TIP3    H242137   5.766   6.281   5.013  0.7149 -1.1055 -0.2585
14066TIP3   OH242138   3.427   7.297   4.104 -0.1992 -1.0557  0.1510
14066TIP3    H142139   3.468   7.212   4.087  0.0442 -1.0469  0.6963
14066TIP3    H242140   3.497   7.350   4.141  0.4931  0.3271 -2.8420
14067TIP3   OH242141   1.417   4.640   3.870  0.4492  0.3221  0.6010
14067TIP3    H142142   1.427   4.598   3.784  0.8280  0.1886  0.7085
14067TIP3    H242143   1.441   4.572   3.932  2.2543  1.0351  0.7424
14068TIP3   OH242144   5.048  -0.022   4.891 -0.4634 -0.2169 -0.3549
14068TIP3    H142145   5.105   0.048   4.859 -1.4686 -0.1617 -2.1579
14068TIP3    H242146   4.960   0.015   4.888 -0.6987 -0.4901  1.8366
14069TIP3   OH242147   4.544   6.532   0.917 -0.4887 -0.5482  0.0493
14069TIP3    H142148   4.487   6.526   0.994 -0.4769 -3.6885 -0.0543
14069TIP3    H242149   4.625   6.490   0.945  0.4565  0.5726 -0.9309
14070TIP3   OH242150   7.730   5.904   5.240 -0.5018  0.0002  0.3470
14070TIP3    H142151   7.759   5.829   5.292 -1.6615 -2.0044 -1.7034
14070TIP3    H242152   7.811   5.940   5.202  0.1736  0.5062  2.1775
14071TIP3   OH242153   6.821   4.433   1.136  0.0224  0.6464  0.1706
14071TIP3    H142154   6.778   4.517   1.153 -0.1043  0.3804  1.1935
14071TIP3    H242155   6.825   4.427   1.040  0.8626  2.2297  0.0840
14072TIP3   OH242156   7.387   0.090   2.494  0.0171 -0.1671 -0.0118
14072TIP3    H142157   7.461   0.058   2.443  0.6809  0.4453  0.5451
14072TIP3    H242158   7.424   0.113   2.579 -0.7599  0.4126  0.1875
14073TIP3   OH242159   6.497   1.895   1.487 -0.1715  0.4604 -0.2471
14073TIP3    H142160   6.530   1.806   1.482 -0.7710  0.2270 -0.0706
14073TIP3    H242161   6.575   1.950   1.492  0.2082 -0.0203 -0.8692
14074TIP3   OH242162   3.993   0.368   3.959 -0.1516  0.1886  0.3320
14074TIP3    H142163   3.910   0.411   3.982  0.3033  1.7587 -0.8122
14074TIP3    H242164   4.023   0.413   3.881  0.7790 -1.7492 -0.5026
14075TIP3   OH242165   5.111   6.852   0.610 -0.4285 -0.1598 -0.4131
14075TIP3    H142166   5.124   6.772   0.560  1.7736 -0.9121  1.1846
14075TIP3    H242167   5.100   6.921   0.544 -0.3260 -1.4705 -1.8461
14076TIP3   OH242168   5.603   4.847   6.244 -0.1963  0.3791 -0.3930
14076TIP3    H142169   5.531   4.789   6.268  0.8591 -0.3420  1.2083
14076TIP3    H242170   5.671   4.788   6.211 -0.7540  1.1588 -3.1921
14077TIP3   OH242171   2.730   0.894   6.570  0.1322  0.1831  0.5125
14077TIP3    H142172   2.638   0.870   6.583 -0.0991 -0.4064 -1.8255
14077TIP3    H242173   2.778   0.812   6.580  0.2976  0.3115  0.7804
14078TIP3   OH242174   2.789   0.113   6.847 -0.0839  0.2599  0.8488
14078TIP3    H142175   2.701   0.085   6.819  0.7073 -0.6938 -0.8381
14078TIP3    H242176   2.826   0.036   6.891  0.2945  0.2946  0.5953
14079TIP3   OH242177   6.306   2.342   0.965 -0.1415  0.4917  0.5504
14079TIP3    H142178   6.245   2.314   1.033  1.3400 -3.7765  0.4495
14079TIP3    H242179   6.263   2.318   0.883  0.5771 -0.1715  0.3548
14080TIP3   OH242180   5.811   4.668   6.156  0.7467 -0.9370 -0.0196
14080TIP3    H142181   5.757   4.623   6.091  0.3011  0.3174 -0.5394
14080TIP3    H242182   5.878   4.713   6.106  1.7334 -1.6998  0.5645
14081TIP3   OH242183   5.014   5.328   6.807 -0.7923  0.6697  0.2536
14081TIP3    H142184   5.048   5.357   6.892  1.7376 -0.6901 -0.2118
14081TIP3    H242185   5.064   5.377   6.743 -0.1038 -0.9149 -0.4636
14082TIP3   OH242186   0.254   3.361   5.500 -0.4116  0.2248 -0.3144
14082TIP3    H142187   0.283   3.411   5.577  0.3598  0.9634 -1.0683
14082TIP3    H242188   0.335   3.336   5.455 -0.4973 -4.0285  1.3577
14083TIP3   OH242189   1.272   2.717   4.565 -0.4818  0.1655  0.1057
14083TIP3    H142190   1.203   2.672   4.517 -0.6884 -0.0819  0.6386
14083TIP3    H242191   1.244   2.716   4.656 -1.5561  3.1961 -0.0609
14084TIP3   OH242192   4.562   3.522   5.710  0.0716  0.1712  0.2010
14084TIP3    H142193   4.503   3.573   5.764 -0.0994  1.5900 -1.2196
14084TIP3    H242194   4.507   3.483   5.642  0.3779 -0.9366  0.5624
14085TIP3   OH242195   5.384   6.431   3.340  0.5595 -0.4524  0.6116
14085TIP3    H142196   5.402   6.421   3.246 -0.4179 -0.1288  0.3805
14085TIP3    H242197   5.471   6.433   3.380  0.9772 -1.6840 -0.1588
14086TIP3   OH242198   0.180   0.241   6.774 -0.0252  0.2793 -0.3050
14086TIP3    H142199   0.200   0.319   6.827  0.8704 -0.3805  0.3857
14086TIP3    H242200   0.237   0.249   6.698 -1.2880  1.2124 -1.1797
14087TIP3   OH242201   5.065   3.576   1.530  0.0485  0.0859 -0.5121
14087TIP3    H142202   5.150   3.597   1.493  0.3412  0.9609  0.6097
14087TIP3    H242203   5.075   3.487   1.564  0.1538 -0.2451 -1.3835
14088TIP3   OH242204   5.939   4.916   4.136  0.0776 -0.4219 -0.3968
14088TIP3    H142205   5.945   4.978   4.209 -2.6451  0.3600 -0.7120
14088TIP3    H242206   6.030   4.902   4.109  0.9601  1.6424  1.1700
14089TIP3   OH242207   5.548   2.869   3.817  0.3125  0.0490 -0.4013
14089TIP3    H142208   5.467   2.829   3.848  0.4292  1.4446  1.9312
14089TIP3    H242209   5.520   2.941   3.761 -0.2779  1.9625  2.1565
14090TIP3   OH242210   7.087   5.399   2.227 -0.3539  0.4526  0.0730
14090TIP3    H142211   7.165   5.434   2.271 -0.0688  0.6219 -0.5538
14090TIP3    H242212   7.014   5.447   2.265 -0.0653  0.9528  0.0095
14091TIP3   OH242213   5.382   4.672   6.344 -0.4389 -0.1836 -0.1971
14091TIP3    H142214   5.307   4.651   6.289 -0.4431  1.1551 -0.7354
14091TIP3    H242215   5.348   4.730   6.412  0.3580  1.8068 -1.4094
14092TIP3   OH242216   6.083   5.433   4.513  0.0946  0.2568 -0.1288
14092TIP3    H142217   6.135   5.420   4.593 -1.1276 -0.9465  0.5095
14092TIP3    H242218   6.001   5.387   4.530  0.1688 -0.9050 -2.4704
14093TIP3   OH242219   8.040   0.926   1.784 -0.1340 -0.4243  0.1027
14093TIP3    H142220   7.985   0.865   1.833 -0.5019 -1.1496 -1.1807
14093TIP3    H242221   8.115   0.874   1.756 -0.4889 -0.3345 -1.0767
14094TIP3   OH242222   2.926   5.778   3.592  0.1231 -0.4004  0.0592
14094TIP3    H142223   2.986   5.732   3.651  0.8292  0.6042  0.1605
14094TIP3    H242224   2.844   5.786   3.642  0.1484 -1.1118  0.2192
14095TIP3   OH242225   3.812   5.193   3.342  0.0222 -0.1457  0.2456
14095TIP3    H142226   3.887   5.165   3.393 -0.5389  1.6568  2.1883
14095TIP3    H242227   3.740   5.198   3.405 -0.8939  1.4480 -0.8589
14096TIP3   OH242228   4.740   0.319   3.034  0.0258 -0.1019 -0.0636
14096TIP3    H142229   4.670   0.255   3.049  0.8332 -0.7496  1.1118
14096TIP3    H242230   4.798   0.276   2.971 -1.2676  0.9757 -2.0963
14097TIP3   OH242231   0.998   6.539   0.851 -0.4550  0.5894  0.1094
14097TIP3    H142232   0.979   6.516   0.760 -0.5943  1.0530  0.0197
14097TIP3    H242233   0.989   6.456   0.899  0.4130  0.1824 -0.4150
14098TIP3   OH242234   6.537   1.400   4.278 -0.0590  0.2944 -0.3932
14098TIP3    H142235   6.512   1.491   4.296  0.8070  0.4517  0.0908
14098TIP3    H242236   6.492   1.348   4.344  0.2514  0.4926 -0.0173
14099TIP3   OH242237   3.690   3.389   5.022 -0.2219  0.0299 -0.5275
14099TIP3    H142238   3.777   3.429   5.016 -0.0629  0.2609  2.0796
14099TIP3    H242239   3.667   3.396   5.115 -3.4414  0.8162 -1.2641
14100TIP3   OH242240   0.316   7.666   3.750  0.0348 -0.2525  0.4607
14100TIP3    H142241   0.294   7.738   3.691  0.6037 -0.0637  0.4701
14100TIP3    H242242   0.311   7.704   3.837  0.8803 -0.0697  0.4366
14101TIP3   OH242243   1.776   6.220   5.231 -0.2116 -0.3911 -0.5259
14101TIP3    H142244   1.798   6.132   5.200  1.0152 -0.0446 -0.7105
14101TIP3    H242245   1.796   6.218   5.325 -1.3573 -0.6584 -0.2802
14102TIP3   OH242246   8.153   0.678   2.728  0.3067  0.3184 -0.1390
14102TIP3    H142247   8.227   0.718   2.683 -0.3118 -0.9465 -2.4823
14102TIP3    H242248   8.104   0.635   2.658 -0.4741 -2.2315  1.8283
14103TIP3   OH242249   2.912   5.349   4.071  0.3432  0.3077 -0.1266
14103TIP3    H142250   3.007   5.346   4.077  0.4086 -0.0503 -1.1014
14103TIP3    H242251   2.886   5.257   4.058 -0.1254  0.4181  0.0082
14104TIP3   OH242252   5.334   6.883   2.359  0.7248 -0.0398 -0.5419
14104TIP3    H142253   5.395   6.951   2.387  1.6514 -1.3108  0.7159
14104TIP3    H242254   5.303   6.844   2.441 -1.8828  0.5976 -1.1350
14105TIP3   OH242255   7.639   0.414   2.708  0.2665  0.0019 -0.0161
14105TIP3    H142256   7.671   0.482   2.648  1.9036 -2.2825 -1.9551
14105TIP3    H242257   7.719   0.377   2.746 -0.6589 -0.0582  1.9512
14106TIP3   OH242258   3.909   0.450   4.945  0.4955  0.8597  0.3212
14106TIP3    H142259   3.983   0.472   4.889  1.6720 -0.9069  1.0876
14106TIP3    H242260   3.832   0.454   4.887  1.0566  3.2259 -0.3687
14107TIP3   OH242261   3.636   1.814   1.999 -0.4495  0.3911  0.3553
14107TIP3    H142262   3.718   1.822   2.048  0.0053 -0.1340 -0.2974
14107TIP3    H242263   3.569   1.799   2.066  0.4100 -2.2751  0.7709
14108TIP3   OH242264   6.270   4.322   4.777 -0.6352 -0.0965  0.2059
14108TIP3    H142265   6.329   4.395   4.761 -0.0329 -0.3641  1.1333
14108TIP3    H242266   6.187   4.349   4.738  0.0282  0.3768 -0.9160
14109TIP3   OH242267   4.006   5.426   2.183  0.4303  0.4533 -0.1828
14109TIP3    H142268   3.963   5.503   2.221  2.9582  1.5210  0.7399
14109TIP3    H242269   4.057   5.390   2.255  1.0115 -0.7896 -1.1872
14110TIP3   OH242270   2.116   2.029   3.416  0.0433 -0.3810  0.0745
14110TIP3    H142271   2.087   2.063   3.332  1.7012 -1.5148 -1.0149
14110TIP3    H242272   2.187   2.088   3.443  1.0031 -1.2718 -0.4348
14111TIP3   OH242273   2.013   4.784   5.564  0.2716 -0.1774  0.4995
14111TIP3    H142274   2.096   4.764   5.520 -0.1533 -2.6484  0.7082
14111TIP3    H242275   1.978   4.699   5.589 -1.9057  0.8771  1.2473
14112TIP3   OH242276   1.752   0.199   1.403  0.3919  0.2503 -0.0090
14112TIP3    H142277   1.793   0.280   1.435  0.6182  0.6875 -1.3343
14112TIP3    H242278   1.671   0.191   1.454  1.7631 -0.2783  2.1864
14113TIP3   OH242279   7.242   6.460   5.459 -0.7015 -0.2130 -0.3032
14113TIP3    H142280   7.321   6.512   5.449 -0.8375  0.0252 -0.1505
14113TIP3    H242281   7.208   6.484   5.545 -2.3386  1.6203 -1.3842
14114TIP3   OH242282   0.042   7.778   0.286  0.0185 -0.2246  0.3520
14114TIP3    H142283   0.129   7.756   0.319 -0.4257 -0.5906  1.3493
14114TIP3    H242284   0.024   7.712   0.219  1.0435  0.6830 -0.8497
14115TIP3   OH242285   4.578   2.690   0.144 -0.3202  0.3468 -0.1857
14115TIP3    H142286   4.483   2.680   0.131 -0.4501  0.4434  0.6168
14115TIP3    H242287   4.614   2.606   0.117 -0.5811  0.4902 -0.9922
14116TIP3   OH242288   6.815   2.740   4.410  0.0896  0.6341 -0.8526
14116TIP3    H142289   6.804   2.779   4.497  1.6847 -0.4901 -0.1103
14116TIP3    H242290   6.882   2.794   4.368 -0.9178  1.3847 -1.5593
14117TIP3   OH242291   3.109   6.878   0.072 -0.0119  0.4450 -0.0189
14117TIP3    H142292   3.077   6.900  -0.015  0.1394  0.8466  0.0246
14117TIP3    H242293   3.200   6.852   0.059 -0.3811 -0.8260 -0.1598
14118TIP3   OH242294   6.477   4.698   4.494 -0.3497  0.3815  0.4334
14118TIP3    H142295   6.476   4.793   4.499 -1.5339  0.5515 -1.7331
14118TIP3    H242296   6.550   4.677   4.436 -0.8472  0.0705 -0.0977
14119TIP3   OH242297   7.040   7.859   1.434 -0.2251 -0.0098  0.6608
14119TIP3    H142298   7.053   7.951   1.453  0.1387 -0.0488  0.5982
14119TIP3    H242299   7.119   7.816   1.467 -0.4218 -0.3073  0.7525
14120TIP3   OH242300   2.435   0.976   5.767 -0.0070  0.0715 -0.1067
14120TIP3    H142301   2.503   0.970   5.700  0.4078 -0.0706  0.3176
14120TIP3    H242302   2.384   1.052   5.743  0.5926  0.4605 -0.1777
14121TIP3   OH242303   4.741   2.633   2.382 -0.5306 -0.6081 -0.7460
14121TIP3    H142304   4.740   2.567   2.452  0.8460  0.8700  0.7530
14121TIP3    H242305   4.725   2.716   2.427  0.6698  0.4293 -2.1365
14122TIP3   OH242306   5.211   4.608   1.717  0.6890  0.7304 -0.0020
14122TIP3    H142307   5.134   4.608   1.774 -1.1130  0.0163 -2.3037
14122TIP3    H242308   5.241   4.699   1.717 -0.7830  1.2416  0.1227
14123TIP3   OH242309   3.250   7.197   4.674  0.2268  0.2756  0.6696
14123TIP3    H142310   3.200   7.269   4.636 -0.9405 -0.6270  0.4544
14123TIP3    H242311   3.325   7.240   4.717 -1.2552  1.7702  1.8905
14124TIP3   OH242312   2.938   7.459   0.280  0.0418  1.0676  0.7479
14124TIP3    H142313   2.983   7.542   0.264  0.4078  0.4458 -2.2431
14124TIP3    H242314   2.981   7.398   0.219 -1.4612 -0.8435  1.5113
14125TIP3   OH242315   4.542   2.079   6.309  0.1497  0.0644  0.1344
14125TIP3    H142316   4.598   2.006   6.284  0.1986  0.1958 -0.1465
14125TIP3    H242317   4.520   2.063   6.401  0.5126 -0.0737  0.1964
14126TIP3   OH242318   8.242   0.504   5.350  0.0695 -0.1882  0.2919
14126TIP3    H142319   8.316   0.499   5.289 -1.3451 -0.7550 -1.4339
14126TIP3    H242320   8.274   0.461   5.429  2.2772  1.4026  0.3776
14127TIP3   OH242321   4.780   7.909   2.349  0.6233  0.4145 -0.3223
14127TIP3    H142322   4.864   7.886   2.389  0.8804  0.3175 -0.9077
14127TIP3    H242323   4.756   7.832   2.298  0.7210  0.8571 -1.0443
14128TIP3   OH242324   1.224   4.321   0.597 -0.8175 -0.1781 -0.1846
14128TIP3    H142325   1.129   4.335   0.595 -0.9759 -1.1957 -1.1375
14128TIP3    H242326   1.236   4.244   0.653 -0.4083  0.7353  1.0323
14129TIP3   OH242327   5.201   2.447   6.647  0.4684  0.7426 -0.0062
14129TIP3    H142328   5.115   2.411   6.670  0.1229  1.3310 -0.3486
14129TIP3    H242329   5.258   2.420   6.718  0.0066  0.3108  0.2087
14130TIP3   OH242330   2.177   4.969   4.622  0.3343 -0.3386  0.4366
14130TIP3    H142331   2.149   4.887   4.583 -1.8055 -0.3958  1.8893
14130TIP3    H242332   2.245   5.003   4.564  0.6001 -2.6573 -0.6807
14131TIP3   OH242333   3.371   5.640   3.512  0.3466  0.4600 -0.4075
14131TIP3    H142334   3.304   5.610   3.451 -1.3255  0.3281  1.3878
14131TIP3    H242335   3.435   5.569   3.514 -0.9698 -0.7741 -0.0279
14132TIP3   OH242336   0.244   6.207   4.972  0.3449  0.2498 -0.9623
14132TIP3    H142337   0.255   6.292   4.931  0.1406 -0.0607 -1.6794
14132TIP3    H242338   0.155   6.180   4.951  0.5914 -0.3872 -1.2282
14133TIP3   OH242339   3.343   5.593   4.249  0.2579 -0.2565  0.3234
14133TIP3    H142340   3.303   5.662   4.303  0.8464 -0.7581  1.4384
14133TIP3    H242341   3.401   5.639   4.190 -0.8364  0.3609 -0.3003
14134TIP3   OH242342   3.328   5.016   6.331  0.3403 -0.1470  0.4942
14134TIP3    H142343   3.358   4.929   6.302  1.3719 -0.1922  1.6124
14134TIP3    H242344   3.263   4.997   6.399  0.0069 -0.0380  0.2075
14135TIP3   OH242345   1.840   2.212   3.654  0.4792  0.4455 -0.5000
14135TIP3    H142346   1.749   2.197   3.680  0.3247 -0.3885 -1.4696
14135TIP3    H242347   1.881   2.250   3.732 -0.3748 -0.4039  0.3967
14136TIP3   OH242348   3.837   4.591   1.193  0.3122 -0.0597 -0.2873
14136TIP3    H142349   3.894   4.655   1.150  0.6102 -0.1854 -0.0880
14136TIP3    H242350   3.872   4.506   1.166  0.5056 -0.1395  0.2047
14137TIP3   OH242351   0.145   2.881   5.554  0.1882  0.1871  0.3359
14137TIP3    H142352   0.161   2.971   5.526 -0.2525  0.1866  0.0701
14137TIP3    H242353   0.231   2.847   5.576  0.5763  0.1572 -1.1447
14138TIP3   OH242354   3.114   2.502   6.217  0.1468 -0.4967 -0.0357
14138TIP3    H142355   3.175   2.490   6.144 -0.5215  0.2183 -0.7346
14138TIP3    H242356   3.163   2.552   6.282  0.6617 -0.9083 -0.0992
14139TIP3   OH242357   3.133   4.429   5.208  0.2628  0.2917 -0.2780
14139TIP3    H142358   3.199   4.392   5.150 -0.1442  0.6742 -0.9948
14139TIP3    H242359   3.141   4.524   5.197 -0.3413  0.3458 -0.3033
14140TIP3   OH242360   8.142   5.665   2.943 -0.5467  0.2747 -0.1671
14140TIP3    H142361   8.200   5.688   2.871 -1.5273  1.1557 -0.7173
14140TIP3    H242362   8.180   5.707   3.020  1.0944 -1.5570  0.0773
14141TIP3   OH242363   4.158   7.265   3.160  0.5189  0.1026  0.0298
14141TIP3    H142364   4.199   7.337   3.111  2.4337 -1.1045 -0.2430
14141TIP3    H242365   4.151   7.298   3.250  1.3757  0.6202 -0.0838
14142TIP3   OH242366   4.294   3.822   4.618  0.5360  0.6094 -0.5320
14142TIP3    H142367   4.350   3.806   4.694 -0.0915  0.5126 -0.0867
14142TIP3    H242368   4.297   3.739   4.569 -0.3576  0.1060  0.2409
14143TIP3   OH242369   4.284   0.788   0.236  0.5239  0.3761  1.0370
14143TIP3    H142370   4.286   0.873   0.281 -0.9933  1.0755 -0.1128
14143TIP3    H242371   4.369   0.782   0.193  1.0718  0.7981  2.0248
14144TIP3   OH242372   6.045   2.823   3.222 -0.5603  0.1717  0.0447
14144TIP3    H142373   6.105   2.896   3.207 -1.1790  0.4504 -1.1830
14144TIP3    H242374   5.958   2.863   3.225 -0.6660 -0.0852  2.8952
14145TIP3   OH242375   4.914   7.163   6.572  0.0281 -0.7375  0.0589
14145TIP3    H142376   4.842   7.101   6.584 -0.2378 -0.4294  0.0798
14145TIP3    H242377   4.993   7.111   6.585 -0.2002 -0.5434  2.6421
14146TIP3   OH242378   4.209   1.227   2.358  0.3879  0.4457 -0.3733
14146TIP3    H142379   4.293   1.227   2.404  1.6944  2.8150 -2.5090
14146TIP3    H242380   4.187   1.319   2.348 -2.4621 -0.1054 -0.0463
14147TIP3   OH242381   7.076   6.851   0.677  0.0948 -0.2177 -0.3984
14147TIP3    H142382   7.090   6.789   0.749 -0.7867  1.1434  0.9972
14147TIP3    H242383   7.164   6.878   0.651  0.4158 -0.4323  0.4437
14148TIP3   OH242384   0.859   4.424   6.432 -0.4277 -0.0341 -0.4068
14148TIP3    H142385   0.889   4.435   6.341 -2.5571  1.0816 -1.0306
14148TIP3    H242386   0.823   4.335   6.434  1.3719 -0.7994 -0.0709
14149TIP3   OH242387   8.211   1.675   0.421 -0.4640  0.1369  0.1534
14149TIP3    H142388   8.148   1.709   0.484 -1.4793 -1.9490  0.3579
14149TIP3    H242389   8.201   1.580   0.426  1.4242 -0.1965 -1.1450
14150TIP3   OH242390   2.652   1.357   0.735  0.1488 -0.6012  0.6199
14150TIP3    H142391   2.616   1.362   0.647  1.0074  2.2769  0.3120
14150TIP3    H242392   2.741   1.323   0.723  0.5874  0.6178  0.1877
14151TIP3   OH242393   6.458   2.327   2.191  0.1422 -0.2985  0.0668
14151TIP3    H142394   6.549   2.313   2.165  0.1242 -1.6041  0.6158
14151TIP3    H242395   6.463   2.356   2.282  0.0016 -1.0235  0.3166
14152TIP3   OH242396   5.479   7.119   2.186 -0.2425 -0.1818  0.1211
14152TIP3    H142397   5.545   7.182   2.157 -0.2194 -0.2794 -0.0446
14152TIP3    H242398   5.456   7.146   2.274  0.6814 -0.6843  0.5257
14153TIP3   OH242399   3.058   6.124   0.487 -0.0905  0.1682  0.0893
14153TIP3    H142400   3.067   6.202   0.432  0.2364 -0.0767 -0.2062
14153TIP3    H242401   2.969   6.093   0.471  0.4341 -0.6984 -1.3773
14154TIP3   OH242402   4.704   1.526   1.693 -0.3698  0.0473  0.0685
14154TIP3    H142403   4.678   1.570   1.774  0.4349  0.1649  0.2697
14154TIP3    H242404   4.730   1.597   1.634 -2.6852  0.1250 -0.9802
14155TIP3   OH242405   0.314   7.351   2.424  0.2145 -0.0778 -0.0139
14155TIP3    H142406   0.369   7.301   2.484  1.5021 -0.9301 -1.8242
14155TIP3    H242407   0.357   7.343   2.339 -1.2820  1.4831 -0.9900
14156TIP3   OH242408   0.265   4.907   3.924 -0.5425  0.7170  0.1121
14156TIP3    H142409   0.309   4.822   3.925 -0.1542  0.9182  0.6573
14156TIP3    H242410   0.206   4.905   3.999 -0.3246  1.0335  0.2944
14157TIP3   OH242411   7.864   6.597   0.915 -0.3788  0.0962  0.1168
14157TIP3    H142412   7.789   6.544   0.889 -1.2121  2.0543 -1.7529
14157TIP3    H242413   7.940   6.545   0.887 -1.1567 -0.3265 -1.3307
14158TIP3   OH242414   6.479   0.666   0.202  0.2608 -0.4183 -0.3721
14158TIP3    H142415   6.554   0.701   0.152 -1.1909  0.1853 -2.2566
14158TIP3    H242416   6.490   0.571   0.198  0.0723 -0.4111 -2.1426
14159TIP3   OH242417   2.312   1.165   1.799 -0.0381  0.0921  0.0229
14159TIP3    H142418   2.359   1.102   1.855 -1.6164  0.5720  2.0220
14159TIP3    H242419   2.306   1.244   1.852 -1.9036  0.4721 -0.6829
14160TIP3   OH242420   2.113   7.134   1.725 -0.0920  0.1178 -0.5828
14160TIP3    H142421   2.114   7.220   1.684  1.4397 -0.6343 -2.2770
14160TIP3    H242422   2.149   7.148   1.812  0.9727  1.0888 -1.1532
14161TIP3   OH242423   4.690   7.097   5.986 -0.1210  0.2621  0.0494
14161TIP3    H142424   4.605   7.063   6.014 -0.6965  1.1517 -0.5454
14161TIP3    H242425   4.683   7.104   5.890  0.4184  0.8721  0.0453
14162TIP3   OH242426   5.311   7.807   6.056  0.4996 -0.4794  0.2837
14162TIP3    H142427   5.302   7.889   6.007  0.7979 -0.7106 -0.1681
14162TIP3    H242428   5.382   7.823   6.118  0.3589 -0.3025  0.4014
14163TIP3   OH242429   8.157   2.070   0.150  0.6779 -0.1812  0.5682
14163TIP3    H142430   8.204   1.995   0.188  0.7201 -0.1862  0.5056
14163TIP3    H242431   8.177   2.143   0.208 -0.6861 -0.5724  1.5824
14164TIP3   OH242432   1.715   6.396   5.580 -0.1454  0.3747  0.1821
14164TIP3    H142433   1.706   6.350   5.663 -0.4587  1.0312  0.5148
14164TIP3    H242434   1.627   6.394   5.542 -0.0789  0.3801  0.0293
14165TIP3   OH242435  -0.028   5.518   4.222 -0.3912  0.0520 -0.7117
14165TIP3    H142436   0.051   5.493   4.175  0.3002 -1.4982  1.1503
14165TIP3    H242437  -0.010   5.606   4.253  0.6941 -0.3470 -0.1647
14166TIP3   OH242438   7.017   7.311   6.569 -0.4370  0.3940  0.2099
14166TIP3    H142439   7.112   7.317   6.563 -0.4043  0.2603  0.5980
14166TIP3    H242440   6.989   7.284   6.481 -0.0317 -0.7154  0.4161
14167TIP3   OH242441   7.945   2.900   0.458  0.1048 -0.0579  0.0706
14167TIP3    H142442   7.851   2.907   0.470 -0.0762 -0.1168 -1.1363
14167TIP3    H242443   7.967   2.810   0.481 -0.2841 -0.3008 -0.4945
14168TIP3   OH242444   6.418   5.496   6.086  0.5331 -0.5375  0.1170
14168TIP3    H142445   6.382   5.407   6.089 -0.0674 -0.3020  0.0162
14168TIP3    H242446   6.465   5.500   6.003  0.8366 -0.8575  0.2658
14169TIP3   OH242447   5.137   3.052   2.780 -0.7897 -0.5952  0.3841
14169TIP3    H142448   5.227   3.083   2.791 -0.6655 -0.7600 -0.1215
14169TIP3    H242449   5.097   3.061   2.866 -0.7778  1.0317  0.2499
14170TIP3   OH242450   6.537   5.717   3.329 -0.3604  0.5454 -0.2566
14170TIP3    H142451   6.496   5.675   3.253  0.0280  3.0147 -1.9540
14170TIP3    H242452   6.473   5.782   3.357 -0.3025 -0.0364  1.3201
14171TIP3   OH242453   6.135   2.743   4.942  0.0421 -0.8119  0.6659
14171TIP3    H142454   6.084   2.788   5.010 -0.6528 -0.6800  0.0789
14171TIP3    H242455   6.124   2.799   4.864 -0.3033 -1.6507  0.0958
14172TIP3   OH242456   4.845   6.759   2.208  0.3829 -0.3255  0.0477
14172TIP3    H142457   4.925   6.781   2.161 -0.3948  1.2459 -0.6160
14172TIP3    H242458   4.867   6.767   2.300  0.4296  2.4138 -0.1411
14173TIP3   OH242459   5.573   0.829   1.275  0.1847  0.2245  0.5267
14173TIP3    H142460   5.544   0.908   1.321  0.0613  0.3305  0.2682
14173TIP3    H242461   5.578   0.855   1.183  0.6229  0.0684  0.5025
14174TIP3   OH242462   8.090   4.541   5.049  0.2359  0.4196 -0.2925
14174TIP3    H142463   8.102   4.577   4.961  0.5101  0.1422 -0.3722
14174TIP3    H242464   8.061   4.615   5.102 -1.5165  0.2601 -0.9497
14175TIP3   OH242465   5.016   3.092   5.684 -0.0729  0.1473 -0.4853
14175TIP3    H142466   4.990   3.013   5.732  1.7592 -1.9291 -2.6537
14175TIP3    H242467   5.024   3.160   5.751 -1.6721 -1.4748  1.4798
14176TIP3   OH242468   6.617   4.556   5.511 -0.6865  0.0523  0.2046
14176TIP3    H142469   6.638   4.602   5.430  0.4595  2.0252  1.5241
14176TIP3    H242470   6.526   4.530   5.502 -0.5621  0.2006 -1.7094
14177TIP3   OH242471   1.523   3.821   0.604  0.0701  0.0153  0.1773
14177TIP3    H142472   1.431   3.838   0.623 -0.2003 -0.6403 -0.4760
14177TIP3    H242473   1.539   3.733   0.639  0.9654  0.8370  1.9345
14178TIP3   OH242474   3.927   1.438   5.937 -0.3515 -0.1701 -0.0215
14178TIP3    H142475   3.987   1.464   6.007 -0.8098 -0.3461  0.4367
14178TIP3    H242476   3.984   1.429   5.860  0.0512  0.7147  0.1497
14179TIP3   OH242477   4.288   6.273   1.618 -0.2352  0.4542  0.1695
14179TIP3    H142478   4.339   6.349   1.643  0.9620  0.3518 -1.7466
14179TIP3    H242479   4.198   6.305   1.609 -0.0336  1.2517  0.9565
14180TIP3   OH242480   4.317   7.809   4.912  0.5122  0.1180 -0.0532
14180TIP3    H142481   4.400   7.849   4.887  2.6696 -0.9146  4.4924
14180TIP3    H242482   4.317   7.725   4.866  1.8688  0.2466 -0.3276
14181TIP3   OH242483   6.938   0.116   5.703  0.5356 -0.1583 -0.4339
14181TIP3    H142484   6.935   0.209   5.681  0.5646 -0.0255  0.1081
14181TIP3    H242485   7.031   0.097   5.713  0.6222 -0.5469 -1.7551
14182TIP3   OH242486   0.758   1.500   3.349  0.0603  0.0805  0.5532
14182TIP3    H142487   0.798   1.541   3.426  2.4687 -0.7209 -0.1871
14182TIP3    H242488   0.719   1.419   3.382 -0.3393  0.5072  1.1582
14183TIP3   OH242489   1.110   2.755   4.786  0.2227 -0.4583 -0.0936
14183TIP3    H142490   1.055   2.775   4.710 -0.1761 -0.3016  0.2318
14183TIP3    H242491   1.055   2.701   4.842  0.5649 -0.6912  0.0222
14184TIP3   OH242492   2.477   5.093   4.670  0.1406 -0.2248 -0.2529
14184TIP3    H142493   2.475   5.142   4.752  0.3919 -0.7353  0.0653
14184TIP3    H242494   2.441   5.153   4.605  0.4219  0.3740  0.1322
14185TIP3   OH242495   1.510   6.635   0.239 -0.2755  0.1229 -0.2231
14185TIP3    H142496   1.574   6.566   0.259  0.0416  1.0638  2.3362
14185TIP3    H242497   1.515   6.644   0.144  0.3563 -2.6894 -0.5595
14186TIP3   OH242498   4.152   0.519   4.846 -0.1941 -0.6807  0.3428
14186TIP3    H142499   4.207   0.596   4.860  0.1944 -0.8562 -0.1818
14186TIP3    H242500   4.170   0.493   4.755 -2.7499  0.5468 -0.6039
14187TIP3   OH242501   8.204   4.701   2.121  0.6540 -0.0745 -0.0556
14187TIP3    H142502   8.163   4.667   2.041 -0.9868  2.0618 -0.1888
14187TIP3    H242503   8.145   4.769   2.152  1.9874  0.1518  2.2166
14188TIP3   OH242504   6.079   7.454   3.345 -0.1334 -0.2225 -0.4040
14188TIP3    H142505   6.160   7.404   3.353  0.1472  0.4645  1.7030
14188TIP3    H242506   6.107   7.540   3.313 -0.4758 -0.9465 -2.8502
14189TIP3   OH242507   8.113   3.567   1.961 -0.3627 -0.3520 -0.0455
14189TIP3    H142508   8.169   3.597   1.889 -0.2346 -1.1708 -0.2943
14189TIP3    H242509   8.166   3.501   2.006 -0.5672 -0.0734  0.6122
14190TIP3   OH242510   7.374   4.568   4.282 -0.0192  0.3870  0.0574
14190TIP3    H142511   7.338   4.533   4.201  0.6117  0.9413 -0.4726
14190TIP3    H242512   7.386   4.662   4.265 -1.5220  0.8613  1.3994
14191TIP3   OH242513   5.481   5.143   1.152 -0.0169  0.0428  0.3845
14191TIP3    H142514   5.503   5.199   1.078 -0.2907  1.5038  1.3514
14191TIP3    H242515   5.392   5.112   1.133 -1.0008  2.2360  1.0834
14192TIP3   OH242516   5.985   3.153   2.843 -0.1220  0.2322  0.4557
14192TIP3    H142517   6.039   3.098   2.786  0.5899  0.0075  1.3283
14192TIP3    H242518   6.016   3.242   2.826 -1.7149  0.4916 -1.4381
14193TIP3   OH242519   1.715   5.779   0.074 -0.0126 -0.1359 -0.1992
14193TIP3    H142520   1.803   5.801   0.043  1.1182 -2.0033  1.4731
14193TIP3    H242521   1.727   5.752   0.164 -2.4742  0.4080  0.3822
14194TIP3   OH242522   3.029   3.424   5.822 -0.0194  0.1806  0.5820
14194TIP3    H142523   3.121   3.420   5.798 -0.6647  0.6600 -2.3623
14194TIP3    H242524   3.019   3.507   5.867  0.7188  0.8754 -0.5013
14195TIP3   OH242525   6.651   0.887   5.854 -0.3390 -0.2156  0.5679
14195TIP3    H142526   6.575   0.861   5.907  1.1453  0.6198  3.2996
14195TIP3    H242527   6.696   0.952   5.907  0.7905  1.4732 -2.2371
14196TIP3   OH242528   4.499   7.649   3.323  0.8038 -0.0331 -0.4069
14196TIP3    H142529   4.425   7.695   3.283  1.5379 -0.0999 -1.9151
14196TIP3    H242530   4.517   7.698   3.403 -0.1164  0.6949 -0.6218
14197TIP3   OH242531   1.890   6.637   6.712  0.0080  0.0223 -0.1772
14197TIP3    H142532   1.982   6.641   6.736 -0.0681 -1.3398  0.4308
14197TIP3    H242533   1.872   6.722   6.671  1.2856  0.6617  0.5347
14198TIP3   OH242534   7.965   5.454   2.498  0.6808  0.1230  0.5726
14198TIP3    H142535   7.901   5.399   2.545  0.3920  1.3732  1.6841
14198TIP3    H242536   7.917   5.535   2.479  1.4253  0.4119 -0.1101
14199TIP3   OH242537   7.262   6.159   3.060  0.2542  0.2214  0.1753
14199TIP3    H142538   7.284   6.105   3.136  1.6361  2.2493  1.3116
14199TIP3    H242539   7.214   6.100   3.002 -0.0603 -1.6545  2.2030
14200TIP3   OH242540   4.549   2.326   6.216  0.2478  0.0325  0.4457
14200TIP3    H142541   4.503   2.297   6.138  2.9389 -2.0315 -0.5418
14200TIP3    H242542   4.563   2.246   6.267  0.1606  1.0486  2.1785
14201TIP3   OH242543   2.668   0.109   6.133 -0.4762 -0.3495  0.2025
14201TIP3    H142544   2.711   0.191   6.157 -0.3618 -0.2983 -0.1647
14201TIP3    H242545   2.595   0.136   6.077 -1.2651 -0.4062  1.1910
14202TIP3   OH242546   4.856   6.811   5.455 -0.3593  0.0296 -0.0615
14202TIP3    H142547   4.930   6.828   5.397 -0.1966 -2.3384 -0.6316
14202TIP3    H242548   4.781   6.851   5.411 -0.3271 -2.1053 -2.2473
14203TIP3   OH242549   2.750   6.273   2.076 -0.4813  0.2086 -0.5312
14203TIP3    H142550   2.683   6.238   2.018 -0.9241  0.5787 -0.2474
14203TIP3    H242551   2.720   6.250   2.164 -0.0994  0.1404 -0.4129
14204TIP3   OH242552   4.221   5.851   4.268  0.0154 -0.3240 -0.2999
14204TIP3    H142553   4.221   5.767   4.313  0.9135  1.0882  2.5242
14204TIP3    H242554   4.169   5.909   4.323  0.6044  1.3565 -1.4195
14205TIP3   OH242555   6.416   6.712   3.780  0.2457  0.0626 -0.0890
14205TIP3    H142556   6.420   6.618   3.766  0.7176 -0.1496  1.3481
14205TIP3    H242557   6.501   6.734   3.818 -0.0340  0.9965  0.0194
14206TIP3   OH242558   2.901   6.256   4.212 -0.1731  0.7900 -0.2647
14206TIP3    H142559   2.939   6.343   4.198  1.7072 -0.0512 -0.7437
14206TIP3    H242560   2.976   6.200   4.235 -1.0885 -0.9995 -1.3523
14207TIP3   OH242561   3.004   4.066   2.778 -0.6612  0.4150  0.0555
14207TIP3    H142562   2.983   3.986   2.825 -0.9905  0.8695  0.6846
14207TIP3    H242563   3.024   4.131   2.846 -2.1618  1.3750 -0.3710
14208TIP3   OH242564   4.201   4.941   5.590  0.6365  0.0000 -0.1757
14208TIP3    H142565   4.267   4.879   5.622  0.6398 -0.2202 -0.5927
14208TIP3    H242566   4.123   4.922   5.642  0.7183 -0.1685 -0.1134
14209TIP3   OH242567   5.915   1.482   5.969 -0.3730 -0.2674  0.0157
14209TIP3    H142568   5.934   1.475   6.062  0.4431 -1.6200 -0.2288
14209TIP3    H242569   5.944   1.399   5.932 -0.6286  0.2699 -1.4599
14210TIP3   OH242570   4.801   3.803   4.611  0.7546  0.0318  0.0397
14210TIP3    H142571   4.767   3.887   4.581  2.3392  0.2944 -1.1054
14210TIP3    H242572   4.737   3.739   4.581  0.9487  0.5661 -1.5747
14211TIP3   OH242573   0.669   7.021   1.808  0.6559  0.1659 -0.3538
14211TIP3    H142574   0.626   6.972   1.738 -0.8638 -0.8334  1.1930
14211TIP3    H242575   0.760   6.993   1.805 -0.1581 -3.0988  0.5909
14212TIP3   OH242576   3.119   3.573   2.970 -0.1367 -0.3489 -0.8627
14212TIP3    H142577   3.073   3.654   2.947  1.5088  0.9591  0.2276
14212TIP3    H242578   3.136   3.530   2.886  0.2054  1.1605 -1.6029
14213TIP3   OH242579   1.058   6.285   4.474 -0.6960  0.3813 -0.1767
14213TIP3    H142580   1.114   6.230   4.419  0.2838  0.8327  0.3548
14213TIP3    H242581   1.040   6.362   4.419 -0.5927  0.3469 -0.2595
14214TIP3   OH242582   7.883   0.125   3.174  0.5646  0.0518 -0.0181
14214TIP3    H142583   7.887   0.220   3.163 -1.0622  0.0973 -0.3982
14214TIP3    H242584   7.950   0.092   3.114  2.5599  0.9950  1.5421
14215TIP3   OH242585   0.406   1.334   1.642  0.2307 -0.2428  0.2500
14215TIP3    H142586   0.338   1.400   1.660  0.0271 -0.4782  0.3412
14215TIP3    H242587   0.482   1.364   1.693  0.9731  1.2813 -1.5991
14216TIP3   OH242588   3.822   3.898   0.146  0.5399  0.7898 -0.2546
14216TIP3    H142589   3.812   3.923   0.238 -0.5156  0.3502 -0.2391
14216TIP3    H242590   3.801   3.978   0.097 -1.1514  0.4441 -0.1552
14217TIP3   OH242591   7.752   4.439   0.995  0.0501 -0.2508 -0.3335
14217TIP3    H142592   7.755   4.526   1.035 -0.9121 -1.2366  2.0578
14217TIP3    H242593   7.683   4.446   0.929  0.4684  0.9715 -0.6762
14218TIP3   OH242594   3.892   0.147   3.823 -0.2125  0.2066 -0.6076
14218TIP3    H142595   3.893   0.206   3.747 -1.1130  1.6317  0.4450
14218TIP3    H242596   3.937   0.196   3.892 -1.0904 -0.2733  0.3275
14219TIP3   OH242597   0.497   7.607   6.208 -0.2419  0.4264  0.2466
14219TIP3    H142598   0.447   7.666   6.264 -4.4438 -2.6257  0.1506
14219TIP3    H242599   0.459   7.616   6.121 -0.3494 -1.6174  0.0190
14220TIP3   OH242600   6.071   1.581   6.428  0.4355 -0.1402 -0.2206
14220TIP3    H142601   6.035   1.541   6.507  1.1518 -2.6226 -1.0431
14220TIP3    H242602   6.160   1.546   6.422  0.6242  0.5092 -1.7818
14221TIP3   OH242603   1.154   1.123   6.125 -0.3045 -0.2067  0.2325
14221TIP3    H142604   1.181   1.135   6.034  0.0422  3.8554  0.7052
14221TIP3    H242605   1.207   1.050   6.156  1.7610  0.2044 -2.0311
14222TIP3   OH242606   2.476   4.646   1.712  0.0267 -0.3984 -0.1070
14222TIP3    H142607   2.396   4.605   1.680  0.3367 -0.8391 -0.3391
14222TIP3    H242608   2.511   4.693   1.637 -0.5831  0.7256  0.2888
14223TIP3   OH242609   2.809   3.181   4.719  0.0120 -0.7304  0.1444
14223TIP3    H142610   2.847   3.175   4.631 -0.0723  0.3098  0.0191
14223TIP3    H242611   2.715   3.187   4.703 -0.0176 -0.7516  0.3148
14224TIP3   OH242612   7.050   4.053   0.232  0.2740  0.0661  0.0041
14224TIP3    H142613   7.006   4.136   0.248 -0.2329 -0.2434  0.2280
14224TIP3    H242614   7.075   4.056   0.139 -2.0094 -0.5778 -0.6886
14225TIP3   OH242615   4.427   2.891   5.045 -0.0669 -0.3879 -0.2182
14225TIP3    H142616   4.463   2.826   5.105  0.8668 -1.2702 -1.6821
14225TIP3    H242617   4.503   2.920   4.993 -0.7281  0.8495 -0.5358
14226TIP3   OH242618   8.063   1.935   2.631 -0.3661 -0.0550  0.3831
14226TIP3    H142619   8.054   2.028   2.650  2.0993  0.4660 -0.5856
14226TIP3    H242620   7.978   1.909   2.596 -1.8657  1.2149  2.7865
14227TIP3   OH242621   1.787   3.059   2.985  0.2654  0.0021  0.0561
14227TIP3    H142622   1.753   2.972   2.963  0.0510 -0.9138  3.3970
14227TIP3    H242623   1.881   3.044   2.999  0.5349  0.6995 -0.9213
14228TIP3   OH242624   3.965   4.568   3.716 -0.0673 -0.3651 -0.2908
14228TIP3    H142625   4.022   4.612   3.653 -0.2630 -1.3713 -1.2070
14228TIP3    H242626   3.877   4.599   3.694  0.1491  2.3334  2.0606
14229TIP3   OH242627   3.439   7.505   1.675  0.3536 -0.0617  0.2643
14229TIP3    H142628   3.510   7.540   1.621 -0.8293  1.3414 -0.4598
14229TIP3    H242629   3.422   7.574   1.739 -1.3408  0.3097 -0.5280
14230TIP3   OH242630   7.333   0.374   1.812 -0.8083 -0.4655 -0.0380
14230TIP3    H142631   7.409   0.432   1.800 -1.8666  1.1329  0.6174
14230TIP3    H242632   7.299   0.361   1.724  0.8134 -2.1122 -0.4867
14231TIP3   OH242633   7.463   3.291   2.375  0.3440  0.0606 -0.7129
14231TIP3    H142634   7.464   3.326   2.286 -0.7915 -0.3386 -0.8916
14231TIP3    H242635   7.386   3.235   2.379  0.5160 -0.1317  0.4536
14232TIP3   OH242636   1.184   4.786   6.195  0.2960  0.4784 -0.0262
14232TIP3    H142637   1.164   4.776   6.288 -0.0028 -0.1076 -0.1511
14232TIP3    H242638   1.145   4.709   6.153 -1.8607  1.9852 -0.9828
14233TIP3   OH242639   1.856   2.375   3.436  0.0706  0.5129 -0.4273
14233TIP3    H142640   1.832   2.315   3.507  2.2849  1.0805  0.8995
14233TIP3    H242641   1.800   2.349   3.363 -2.2452 -0.1536  1.4767
14234TIP3   OH242642   2.088   7.635   3.446  0.1164 -1.1345 -0.0058
14234TIP3    H142643   2.022   7.685   3.397  0.4935  0.0272  0.6343
14234TIP3    H242644   2.043   7.555   3.472 -1.1118 -0.2722  0.5988
14235TIP3   OH242645   0.323   4.335   5.174  0.2210 -0.0018  0.1856
14235TIP3    H142646   0.288   4.258   5.128  1.4400 -0.0266 -0.7559
14235TIP3    H242647   0.258   4.354   5.241 -0.9990 -0.7608 -0.7236
14236TIP3   OH242648   3.248   7.676   3.423  0.1020  0.0667  0.5321
14236TIP3    H142649   3.333   7.675   3.377  0.6334 -0.0338  1.5025
14236TIP3    H242650   3.236   7.587   3.454 -0.5743 -0.0238  0.0440
14237TIP3   OH242651   2.541   5.702   4.468  0.5261 -0.7413  0.7176
14237TIP3    H142652   2.528   5.737   4.556  0.2399 -0.9940  0.7742
14237TIP3    H242653   2.616   5.751   4.434 -0.3841  0.5492  0.4792
14238TIP3   OH242654   0.185   0.706   5.507  0.0175  0.5579 -0.8601
14238TIP3    H142655   0.127   0.631   5.498  0.5437  0.3488 -3.8289
14238TIP3    H242656   0.138   0.778   5.465  0.1565  1.5134  0.5671
14239TIP3   OH242657   1.805   3.912   6.838  1.0338 -0.0964 -0.0318
14239TIP3    H142658   1.804   3.818   6.854 -1.5449 -0.3493 -1.1132
14239TIP3    H242659   1.742   3.924   6.767 -0.1275  2.6333  1.3307
14240TIP3   OH242660   6.106   6.962   3.164  0.1740  0.4885 -0.1368
14240TIP3    H142661   6.123   6.878   3.122  0.9955 -0.2173  1.5304
14240TIP3    H242662   6.136   6.951   3.255 -0.1642  2.4147  0.2630
14241TIP3   OH242663   6.112   2.405   4.336 -0.2774 -0.1447 -0.8796
14241TIP3    H142664   6.025   2.413   4.295 -0.8155 -0.9090  0.0832
14241TIP3    H242665   6.104   2.451   4.419 -0.0396 -0.9999 -0.3760
14242TIP3   OH242666   6.060   3.423   5.914  0.3024  0.4768  0.0794
14242TIP3    H142667   6.102   3.366   5.850  0.1519 -0.4321  0.7719
14242TIP3    H242668   6.090   3.511   5.891  0.8720  0.0781 -0.7470
14243TIP3   OH242669   7.196   7.648   0.196 -0.6546 -0.3387  0.0341
14243TIP3    H142670   7.176   7.655   0.103 -1.0642 -1.0874  0.0556
14243TIP3    H242671   7.169   7.559   0.220 -2.7876  0.5990  1.3930
14244TIP3   OH242672   5.274   3.736   3.764  0.1238  0.2534  0.5055
14244TIP3    H142673   5.190   3.774   3.738 -0.1271 -1.1030 -0.7631
14244TIP3    H242674   5.339   3.803   3.741 -0.4860  0.8177  0.3904
14245TIP3   OH242675   6.268   0.139   3.340 -0.3644 -0.0840  0.1378
14245TIP3    H142676   6.223   0.103   3.416 -0.8544  0.2348  0.0039
14245TIP3    H242677   6.253   0.075   3.270 -0.4716 -0.0561  0.1356
14246TIP3   OH242678   6.801   0.787   1.899  0.2194  0.0485  0.2915
14246TIP3    H142679   6.710   0.775   1.926  0.4583  0.6242  1.4063
14246TIP3    H242680   6.838   0.846   1.965  0.5807  2.3512 -1.8083
14247TIP3   OH242681   1.145   5.418   2.757 -0.6925  0.1102 -0.0070
14247TIP3    H142682   1.223   5.379   2.797 -0.4065  0.7380  0.0640
14247TIP3    H242683   1.126   5.494   2.812 -0.1215  1.1570 -1.2104
14248TIP3   OH242684   5.589   0.465   5.716 -0.4441  0.2455  0.2539
14248TIP3    H142685   5.574   0.379   5.755  1.1023  0.1304  0.6385
14248TIP3    H242686   5.577   0.526   5.789 -1.6029  0.3862 -0.0322
14249TIP3   OH242687   1.130   1.315   4.407  0.0275  0.0663  0.5324
14249TIP3    H142688   1.167   1.284   4.490  0.8555 -0.6553 -0.0851
14249TIP3    H242689   1.175   1.264   4.340 -0.8013  0.4684 -0.3590
14250TIP3   OH242690   5.288   7.515   2.927  0.5443  0.3701 -0.3122
14250TIP3    H142691   5.349   7.554   2.865  1.0381 -0.5137 -0.3935
14250TIP3    H242692   5.235   7.454   2.875  0.0263  0.6485 -0.1227
14251TIP3   OH242693   0.581   4.810   2.711  0.1520  0.0975  0.1024
14251TIP3    H142694   0.646   4.805   2.781 -0.2919  0.2080  0.5254
14251TIP3    H242695   0.633   4.822   2.631  0.8165 -2.2676  0.0846
14252TIP3   OH242696   2.362   3.380   4.346 -0.0694 -0.3090  0.1318
14252TIP3    H142697   2.375   3.418   4.259 -1.5119 -2.7577 -1.2818
14252TIP3    H242698   2.301   3.440   4.390  0.3379  0.7328 -0.7037
14253TIP3   OH242699   7.812   5.133   2.243 -0.5775 -0.2580 -0.1646
14253TIP3    H142700   7.854   5.213   2.275 -0.9148  0.2465 -0.9841
14253TIP3    H242701   7.719   5.153   2.244 -0.6640 -0.6597 -0.3395
14254TIP3   OH242702   7.230   3.393   0.004 -0.0751  0.0443  0.3367
14254TIP3    H142703   7.296   3.457   0.032 -0.3114  0.4833 -0.0958
14254TIP3    H242704   7.246   3.317   0.059  0.6551  0.2267  0.3896
14255TIP3   OH242705   7.114   2.064   3.318 -0.4439  0.0240  0.0528
14255TIP3    H142706   7.198   2.076   3.272  0.1891 -2.9980  0.2220
14255TIP3    H242707   7.048   2.092   3.255  0.6218  1.7444 -0.3644
14256TIP3   OH242708   0.851   3.101   5.793  0.2166  0.5685  0.0208
14256TIP3    H142709   0.809   3.033   5.740 -0.1967  1.2954 -0.5887
14256TIP3    H242710   0.889   3.161   5.730  1.7041  0.2449  0.5556
14257TIP3   OH242711   0.626   1.525   4.145  0.3231  0.0244  0.1768
14257TIP3    H142712   0.565   1.523   4.072  1.1939  0.5247 -0.5907
14257TIP3    H242713   0.691   1.458   4.124 -0.1646 -0.7795  1.1810
14258TIP3   OH242714   5.781   7.267   1.603 -0.4533  0.0834  0.0408
14258TIP3    H142715   5.723   7.294   1.532 -0.8923  1.2547  0.8022
14258TIP3    H242716   5.869   7.287   1.571  0.2879 -5.9377 -3.0827
14259TIP3   OH242717   3.379   3.905   5.561  0.5043 -0.0505 -0.5860
14259TIP3    H142718   3.403   3.953   5.482  0.6300  1.4513  0.3271
14259TIP3    H242719   3.301   3.856   5.536 -0.1668  1.3310 -1.3320
14260TIP3   OH242720   4.115   2.596   6.290 -0.3863  0.3548  0.0182
14260TIP3    H142721   4.111   2.532   6.219  0.0816 -0.3010  0.5735
14260TIP3    H242722   4.142   2.677   6.247  0.8498 -0.2559 -0.4312
14261TIP3   OH242723   3.088   1.732   0.297 -0.1843 -0.1207 -0.4763
14261TIP3    H142724   3.141   1.655   0.278  0.9321 -0.2064  2.4446
14261TIP3    H242725   2.998   1.699   0.302  0.2211 -1.1537  0.2004
14262TIP3   OH242726   3.436   0.728   2.653  0.4077  0.4357  0.0860
14262TIP3    H142727   3.377   0.782   2.705 -0.5059 -1.2646  0.8975
14262TIP3    H242728   3.443   0.774   2.569  1.2176  2.7836  1.3517
14263TIP3   OH242729   1.325   4.870   1.023 -0.7315 -0.5788 -0.0262
14263TIP3    H142730   1.396   4.897   1.081 -1.0862  0.8582 -0.2360
14263TIP3    H242731   1.367   4.814   0.958 -0.0533 -0.9118  0.6843
14264TIP3   OH242732   7.736   1.392   1.842  0.1257  0.6978  0.3712
14264TIP3    H142733   7.792   1.469   1.851 -0.1291  0.7074  2.0914
14264TIP3    H242734   7.657   1.425   1.799  0.8779  0.9486 -0.8573
14265TIP3   OH242735   2.049   1.391   1.153  0.7779  0.6234  0.7954
14265TIP3    H142736   2.017   1.481   1.165  0.0399  0.3449  0.9717
14265TIP3    H242737   1.998   1.340   1.215  1.8658  0.2178  1.3879
14266TIP3   OH242738   0.176   7.336   1.862  0.2158 -0.2833  0.6605
14266TIP3    H142739   0.214   7.297   1.783 -0.6454 -0.6355  0.4011
14266TIP3    H242740   0.143   7.421   1.832  0.7628  0.0104  0.8781
14267TIP3   OH242741   5.438   7.536   5.581 -0.1898 -0.3380  0.5875
14267TIP3    H142742   5.518   7.589   5.579  0.7762 -1.7595 -0.2070
14267TIP3    H242743   5.394   7.562   5.662 -0.2168  2.2765 -0.1665
14268TIP3   OH242744   2.427   0.928   6.649 -0.2666 -0.5825  0.6578
14268TIP3    H142745   2.491   0.937   6.720 -0.3002 -2.0320  0.9168
14268TIP3    H242746   2.353   0.882   6.689 -1.0994  0.2510  0.1286
14269TIP3   OH242747   2.531   6.112   2.976  0.0824 -0.2355 -0.0690
14269TIP3    H142748   2.468   6.140   2.909 -0.5034 -0.3817  0.4119
14269TIP3    H242749   2.491   6.034   3.015  0.3098 -0.0172  0.6099
14270TIP3   OH242750   4.343   6.882   0.910 -0.1867  0.1019  0.7147
14270TIP3    H142751   4.260   6.886   0.956 -0.2938  0.4576  0.4949
14270TIP3    H242752   4.390   6.809   0.951 -1.6403 -1.8508 -0.8962
14271TIP3   OH242753   4.747   6.853   4.230  0.0524 -0.3101 -0.2186
14271TIP3    H142754   4.826   6.855   4.284  0.2562 -1.8545 -0.4262
14271TIP3    H242755   4.769   6.903   4.152  1.2249 -1.6266 -0.7699
14272TIP3   OH242756   3.198   3.472   2.144  0.3686  0.2385  0.0781
14272TIP3    H142757   3.259   3.424   2.200 -0.9795  2.2060  3.5403
14272TIP3    H242758   3.215   3.564   2.164 -1.6626  0.9455 -1.1808
14273TIP3   OH242759   4.221   6.644   0.170 -0.4943  0.3949  0.1904
14273TIP3    H142760   4.129   6.616   0.167  0.0311 -1.4781  0.1740
14273TIP3    H242761   4.265   6.575   0.219  0.9346  1.2252  0.1228
14274TIP3   OH242762   5.921   2.154   4.771  0.1648  0.1346 -0.1601
14274TIP3    H142763   5.925   2.250   4.779  1.0602  0.2423 -1.5707
14274TIP3    H242764   5.883   2.140   4.684  0.2076 -0.7938 -0.0305
14275TIP3   OH242765   0.705   2.236   1.264 -0.3580 -0.1819 -0.0689
14275TIP3    H142766   0.734   2.205   1.350 -0.8580  1.5042  0.7610
14275TIP3    H242767   0.645   2.169   1.233 -2.1961  0.3434  2.1014
14276TIP3   OH242768   0.018   0.199   2.485  0.0712  0.1066  0.3390
14276TIP3    H142769  -0.030   0.251   2.420 -2.2760 -3.5902 -1.2639
14276TIP3    H242770   0.110   0.216   2.465 -0.5137  3.2730 -0.2181
14277TIP3   OH242771   1.391   6.772   0.535  0.2057 -0.1948 -0.1789
14277TIP3    H142772   1.427   6.736   0.454 -0.1974 -0.3465 -0.2959
14277TIP3    H242773   1.296   6.769   0.522  0.1536  0.8593 -0.1783
14278TIP3   OH242774   7.053   0.400   1.480 -0.0486  0.3587  0.3363
14278TIP3    H142775   7.146   0.379   1.470 -0.3339 -0.3120 -1.1867
14278TIP3    H242776   7.051   0.495   1.488  0.7912  0.3544  0.6978
14279TIP3   OH242777   0.492   6.196   1.646  0.3842 -0.3937  0.1150
14279TIP3    H142778   0.490   6.208   1.741  1.8571  0.5320  0.0709
14279TIP3    H242779   0.425   6.256   1.613 -0.1343 -0.7184  0.5673
14280TIP3   OH242780   1.427   6.430   1.255  0.0130  0.3105 -0.3387
14280TIP3    H142781   1.442   6.523   1.269 -0.7433  0.6714 -1.7555
14280TIP3    H242782   1.363   6.405   1.323 -1.7661  1.4481 -1.5159
14281TIP3   OH242783   7.793   0.011   4.586  0.2716 -0.2255 -0.4949
14281TIP3    H142784   7.749   0.012   4.501  0.3538  0.3528 -0.5321
14281TIP3    H242785   7.788   0.101   4.617  1.3584 -0.1617 -0.4586
14282TIP3   OH242786   5.397   2.767   5.102 -0.2694 -0.0694  0.0311
14282TIP3    H142787   5.429   2.857   5.104  1.7831 -0.7606  0.9857
14282TIP3    H242788   5.431   2.731   5.020  1.9966 -0.9309  1.2414
14283TIP3   OH242789   0.856   3.046   4.418 -0.1878 -0.3543  0.6037
14283TIP3    H142790   0.901   3.059   4.335  0.0965  2.1133  1.0791
14283TIP3    H242791   0.915   3.082   4.484 -1.9664  1.2420  1.4385
14284TIP3   OH242792   3.897   1.449   6.411  0.3430 -0.0301  0.1040
14284TIP3    H142793   3.868   1.401   6.333 -1.5098 -2.0573  1.8675
14284TIP3    H242794   3.944   1.384   6.463  1.2341  1.1684  0.8403
14285TIP3   OH242795   1.150   4.187   3.364 -0.2772  0.4484 -0.3737
14285TIP3    H142796   1.202   4.268   3.364  0.6288 -0.1177 -0.1426
14285TIP3    H242797   1.198   4.129   3.305 -1.3948  0.3562 -1.2315
14286TIP3   OH242798   6.988   1.118   3.668  0.5192  0.0999  0.0705
14286TIP3    H142799   7.076   1.085   3.686  0.5493 -0.5759 -1.2070
14286TIP3    H242800   6.957   1.065   3.594 -0.6463  0.8752 -0.0242
14287TIP3   OH242801   0.412   5.435   6.096  0.2903 -0.1512 -0.1936
14287TIP3    H142802   0.392   5.394   6.012 -0.3050  1.2013 -0.7262
14287TIP3    H242803   0.336   5.417   6.151  1.1955 -2.1444  0.5492
14288TIP3   OH242804   2.999   2.192   0.160 -0.4716 -0.0988 -0.0418
14288TIP3    H142805   2.924   2.249   0.179  0.6693  1.6285 -0.5073
14288TIP3    H242806   3.005   2.193   0.064  0.6198  0.4308  0.0256
14289TIP3   OH242807   7.122   6.345   0.792  0.2755  0.0951  0.1123
14289TIP3    H142808   7.188   6.312   0.732  0.0703 -2.1127  0.9922
14289TIP3    H242809   7.043   6.354   0.739  0.4380 -0.5165 -0.2368
14290TIP3   OH242810   6.279   7.910   2.346  0.5971 -0.6051 -0.5242
14290TIP3    H142811   6.220   7.835   2.337  0.3075 -0.2951 -1.2041
14290TIP3    H242812   6.231   7.984   2.310  1.6807 -0.4898 -1.7853
14291TIP3   OH242813   5.302   1.300   3.939 -0.4146 -0.1932 -0.3842
14291TIP3    H142814   5.384   1.295   3.987 -0.9943  0.6295  0.7458
14291TIP3    H242815   5.243   1.240   3.985 -1.2208  1.2161  0.5017
14292TIP3   OH242816   4.436   7.015   6.159  0.0724 -0.0532 -0.3850
14292TIP3    H142817   4.401   7.064   6.234 -0.0955  0.4702 -0.8012
14292TIP3    H242818   4.447   6.926   6.192 -1.1570 -0.1165 -0.0683
14293TIP3   OH242819   4.363   3.847   1.852 -0.3428  0.2623  0.1176
14293TIP3    H142820   4.416   3.786   1.801  0.0265  0.8749 -0.2458
14293TIP3    H242821   4.345   3.801   1.934 -0.8412 -0.6868 -0.5077
14294TIP3   OH242822   1.854   6.071   2.597  0.3544 -0.3971 -0.5598
14294TIP3    H142823   1.766   6.104   2.613 -0.3219 -2.4425  0.3061
14294TIP3    H242824   1.911   6.146   2.611 -0.9318  0.0937  2.9776
14295TIP3   OH242825   2.609   5.237   5.283 -0.5600  0.3473  0.1027
14295TIP3    H142826   2.611   5.159   5.227 -0.1743  0.5453 -0.1601
14295TIP3    H242827   2.639   5.206   5.368  1.4844  0.5990 -0.4889
14296TIP3   OH242828   5.745   3.789   6.582 -0.0392 -0.3462  0.1123
14296TIP3    H142829   5.705   3.764   6.498 -0.8008  0.1407  0.3192
14296TIP3    H242830   5.765   3.706   6.625 -2.1197 -0.6631  0.6032
14297TIP3   OH242831   8.071   7.555   2.491 -0.3530 -0.4623 -0.8123
14297TIP3    H142832   7.986   7.561   2.534 -0.2202 -0.6691 -0.5203
14297TIP3    H242833   8.069   7.470   2.446  0.0013 -0.8289 -0.1496
14298TIP3   OH242834   7.777   1.252   6.342  0.3682  0.2125  0.2593
14298TIP3    H142835   7.795   1.160   6.322  1.7541  0.6291 -0.5260
14298TIP3    H242836   7.862   1.289   6.364  0.0653  1.6096 -0.7683
14299TIP3   OH242837   2.910   1.282   0.683  0.6129  0.3273  0.1027
14299TIP3    H142838   2.937   1.345   0.616  0.8876 -0.5453 -0.6352
14299TIP3    H242839   2.926   1.327   0.766  1.3411  1.0118 -0.3890
14300TIP3   OH242840   4.962   2.600   3.489 -0.0376 -0.0288 -0.1278
14300TIP3    H142841   4.946   2.689   3.456  1.5321  0.2390 -0.2236
14300TIP3    H242842   4.967   2.546   3.410 -1.6026 -0.3516 -0.0493
14301TIP3   OH242843   8.361   7.183   0.348 -0.1437 -0.5223  0.3889
14301TIP3    H142844   8.440   7.132   0.334  0.9041  1.0709  0.2061
14301TIP3    H242845   8.359   7.245   0.275 -1.2674 -0.1746  0.6949
14302TIP3   OH242846   5.081   6.606   1.534 -0.4865 -0.1406 -0.0505
14302TIP3    H142847   5.101   6.658   1.612  0.4688 -0.2068 -0.2496
14302TIP3    H242848   5.053   6.521   1.569  0.1111 -0.2290  0.2187
14303TIP3   OH242849   5.114   1.778   2.044 -0.3174 -0.1626 -0.2288
14303TIP3    H142850   5.087   1.750   1.956 -2.6933  0.2453  0.2913
14303TIP3    H242851   5.173   1.709   2.074 -2.2523 -2.1917 -0.8112
14304TIP3   OH242852   1.081   0.956   5.547  0.0037 -0.4152 -1.2160
14304TIP3    H142853   1.064   0.933   5.638 -1.0469  0.4403 -1.1823
14304TIP3    H242854   1.064   0.876   5.498  0.0690 -0.7383 -0.7204
14305TIP3   OH242855   2.153   2.619   6.750 -0.5393  0.1914 -0.3362
14305TIP3    H142856   2.077   2.568   6.721 -0.4696 -0.6976  0.9578
14305TIP3    H242857   2.227   2.583   6.700 -0.8720  0.7162 -1.2250
14306TIP3   OH242858   7.272   5.019   5.945 -0.2058  0.1389  0.4920
14306TIP3    H142859   7.217   5.005   5.868 -1.1490 -1.6193  1.4315
14306TIP3    H242860   7.323   4.938   5.954 -1.7536 -0.6824  2.9475
14307TIP3   OH242861   6.706   2.861   6.538 -0.4047  0.3091  0.0226
14307TIP3    H142862   6.721   2.874   6.631  3.1538 -3.9629  0.3966
14307TIP3    H242863   6.624   2.811   6.533 -1.4423  1.8772  0.5896
14308TIP3   OH242864   7.141   4.022   3.268  0.7308 -0.0988 -0.2442
14308TIP3    H142865   7.091   3.961   3.321  0.2721  0.4046 -0.0859
14308TIP3    H242866   7.229   3.984   3.263  0.5711 -0.5353  0.2329
14309TIP3   OH242867   6.416   0.407   6.303 -0.0646 -0.3272 -0.2594
14309TIP3    H142868   6.402   0.349   6.229 -1.4203  0.2773 -0.5247
14309TIP3    H242869   6.439   0.350   6.376 -3.5270 -1.5199  0.0584
14310TIP3   OH242870   7.256   0.878   2.623 -0.2341  0.3504 -0.2890
14310TIP3    H142871   7.193   0.819   2.662  1.2697 -1.0241  0.1779
14310TIP3    H242872   7.293   0.830   2.549 -0.3271  1.4553 -1.0931
14311TIP3   OH242873   5.871   0.963   1.519 -0.0221 -0.4384 -0.2512
14311TIP3    H142874   5.776   0.955   1.535 -0.1008 -1.0880 -0.9994
14311TIP3    H242875   5.877   1.013   1.438  0.2466 -1.1016 -0.6495
14312TIP3   OH242876   4.975   3.812   0.477  0.3644 -0.1451  0.4643
14312TIP3    H142877   4.899   3.869   0.488  2.1306  1.8930  3.8116
14312TIP3    H242878   4.986   3.770   0.562  1.9391 -1.8107 -0.4977
14313TIP3   OH242879   7.697   4.557   2.586  0.4779 -0.0321  0.9540
14313TIP3    H142880   7.718   4.591   2.499  0.4152 -0.8145  0.6329
14313TIP3    H242881   7.605   4.534   2.581 -0.3712  2.6906  2.1378
14314TIP3   OH242882   3.067   4.450   5.795  0.9107  0.1657 -0.1361
14314TIP3    H142883   2.990   4.506   5.808  0.4982  0.1734 -2.2150
14314TIP3    H242884   3.134   4.488   5.851 -0.2660  0.8529  0.8580
14315TIP3   OH242885   6.509   1.949   2.638  0.4641 -0.1974  0.0275
14315TIP3    H142886   6.425   1.996   2.631  0.5317 -0.0680  0.0931
14315TIP3    H242887   6.493   1.882   2.703 -0.4791 -2.0581 -1.9832
14316TIP3   OH242888   0.554   7.088   5.151  0.0151 -0.1809  0.2050
14316TIP3    H142889   0.616   7.113   5.082 -0.4179 -0.3023 -0.2340
14316TIP3    H242890   0.519   7.172   5.182 -0.2363 -0.1562 -0.1423
14317TIP3   OH242891   3.808   5.101   1.667  0.2631  0.1051 -0.0526
14317TIP3    H142892   3.839   5.038   1.602 -1.6090 -0.2809 -0.6357
14317TIP3    H242893   3.726   5.064   1.699  0.5964  0.8289  1.7679
14318TIP3   OH242894   0.117   7.816   5.401  0.1982 -0.1488  0.3014
14318TIP3    H142895   0.074   7.803   5.316 -0.5812  1.1726  0.4653
14318TIP3    H242896   0.209   7.794   5.385  0.2329  0.8896 -1.1105
14319TIP3   OH242897   7.901   1.313   2.061  0.3262  0.8638 -0.6719
14319TIP3    H142898   7.921   1.402   2.090  3.0964  0.1488 -0.1228
14319TIP3    H242899   7.850   1.325   1.981  1.2036  2.9543 -0.9798
14320TIP3   OH242900   2.931   1.758   0.773 -0.1962  0.4140 -0.0860
14320TIP3    H142901   2.845   1.730   0.804  0.1111 -0.2716  0.1704
14320TIP3    H242902   2.950   1.700   0.699  0.1485  0.4011  0.0096
14321TIP3   OH242903   1.799   7.850   4.385  0.5871  0.3550 -0.5819
14321TIP3    H142904   1.840   7.847   4.471 -0.4066 -0.5753 -0.1200
14321TIP3    H242905   1.746   7.771   4.381  0.1619  0.6806 -1.8285
14322TIP3   OH242906   2.497   6.536   6.392  0.2681  0.1868  0.0839
14322TIP3    H142907   2.581   6.519   6.349  0.8194  1.9358  0.3759
14322TIP3    H242908   2.488   6.466   6.456  1.8372  0.3117  0.4839
14323TIP3   OH242909   2.816   3.917   1.100 -0.4564 -0.3884 -0.4558
14323TIP3    H142910   2.871   3.996   1.103 -0.5814 -0.2979  2.2665
14323TIP3    H242911   2.872   3.850   1.063  0.8351  0.2086  0.3301
14324TIP3   OH242912   0.115   5.850   0.831 -0.3843  0.1555 -0.1634
14324TIP3    H142913   0.063   5.809   0.901 -0.7234 -1.1721 -1.1655
14324TIP3    H242914   0.052   5.906   0.785 -0.5558 -0.2049 -0.3765
14325TIP3   OH242915   1.727   4.260   1.173 -0.5883 -0.0967  0.1117
14325TIP3    H142916   1.707   4.172   1.204 -1.4528 -0.1845 -0.6509
14325TIP3    H242917   1.660   4.278   1.107  0.3392  0.6341 -0.6631
14326TIP3   OH242918   0.997   7.687   6.268  0.4631  0.2605 -1.1744
14326TIP3    H142919   1.036   7.743   6.201 -0.1675  2.3837  0.1139
14326TIP3    H242920   0.913   7.729   6.288  0.9035  0.1013  1.3561
14327TIP3   OH242921   1.893   2.286   6.460  0.5284 -0.0842 -0.0335
14327TIP3    H142922   1.910   2.297   6.366 -0.1915 -1.5938 -0.3787
14327TIP3    H242923   1.798   2.288   6.468  0.6137  1.8304  0.9537
14328TIP3   OH242924   1.136   3.508   0.576 -0.5897  0.0602 -0.5596
14328TIP3    H142925   1.196   3.436   0.557 -0.4670  0.2541 -0.9352
14328TIP3    H242926   1.138   3.517   0.671 -1.2630 -0.9889 -0.4263
14329TIP3   OH242927   4.980   2.535   6.211 -0.4623  1.0451 -0.9300
14329TIP3    H142928   4.953   2.625   6.231  0.5144  1.7444 -2.5858
14329TIP3    H242929   4.909   2.499   6.159 -0.0939  1.4590 -1.7299
14330TIP3   OH242930   7.158   6.838   2.469 -0.1385 -0.2304 -0.2921
14330TIP3    H142931   7.087   6.855   2.532 -0.4498 -0.3062 -0.6179
14330TIP3    H242932   7.237   6.838   2.522 -0.5578 -2.0983  0.4150
14331TIP3   OH242933   4.605   6.153   2.328 -0.2446  0.5580 -0.4867
14331TIP3    H142934   4.593   6.107   2.411  0.8704  1.5699  0.2656
14331TIP3    H242935   4.668   6.099   2.280  0.0881  0.6318 -0.1376
14332TIP3   OH242936   1.477   7.846   5.717 -0.1267  0.3396 -0.1004
14332TIP3    H142937   1.437   7.933   5.726 -1.1146 -0.2130  1.1374
14332TIP3    H242938   1.418   7.788   5.764  1.4436 -0.7386  0.6127
14333TIP3   OH242939   7.954   3.192   3.482  0.4009 -0.1141 -0.3675
14333TIP3    H142940   8.022   3.133   3.450  0.0643 -0.7021 -0.0194
14333TIP3    H242941   7.992   3.279   3.473  1.1438 -0.4212 -0.3255
14334TIP3   OH242942   5.822   6.943   3.172  0.1012  0.4086  0.1546
14334TIP3    H142943   5.870   7.017   3.207 -2.9043  1.9297  1.4095
14334TIP3    H242944   5.854   6.867   3.221  0.8085  1.4337  1.3147
14335TIP3   OH242945   7.047   7.264   4.162 -0.6096 -0.6528  0.4801
14335TIP3    H142946   7.047   7.169   4.164 -0.4563 -0.6583  0.2118
14335TIP3    H242947   7.048   7.290   4.254  0.6792 -0.9032  0.5506
14336TIP3   OH242948   0.104   4.501   0.887  0.1898  0.4233 -0.4998
14336TIP3    H142949   0.073   4.534   0.802 -2.1506 -2.2842 -0.8540
14336TIP3    H242950   0.177   4.444   0.865  0.1575  0.4197 -0.5999
14337TIP3   OH242951   1.410   4.543   3.043 -0.3253 -0.5952 -0.6229
14337TIP3    H142952   1.474   4.483   3.006  0.9075 -0.6756  1.4557
14337TIP3    H242953   1.421   4.624   2.993  0.7237 -0.9207 -0.9453
14338TIP3   OH242954   2.696   0.900   3.047 -0.2141  0.2382 -0.2395
14338TIP3    H142955   2.625   0.894   2.983 -1.5334 -0.3794  1.2125
14338TIP3    H242956   2.753   0.826   3.026 -2.7393 -2.4375  1.6498
14339TIP3   OH242957   2.618   1.190   2.631 -0.0939 -0.0239 -0.1897
14339TIP3    H142958   2.692   1.149   2.587 -0.2454  0.0487 -0.5199
14339TIP3    H242959   2.555   1.208   2.561 -0.4669 -0.1748  0.0992
14340TIP3   OH242960   4.822   2.077   4.165 -0.3024  0.2505  0.5534
14340TIP3    H142961   4.794   2.164   4.136  1.3097  0.3187 -0.9175
14340TIP3    H242962   4.911   2.090   4.198  1.5536 -1.3493 -3.2185
14341TIP3   OH242963   6.633   1.439   0.467 -0.2506  0.6559 -0.2469
14341TIP3    H142964   6.646   1.367   0.405  0.7162 -1.7005  2.4743
14341TIP3    H242965   6.722   1.469   0.488 -0.5335  1.1600  0.2612
14342TIP3   OH242966   8.185   6.872   3.726 -0.7695  0.1059  0.0117
14342TIP3    H142967   8.142   6.848   3.808 -0.4754 -0.7305 -0.0598
14342TIP3    H242968   8.132   6.943   3.689 -2.4979 -1.3447 -0.4278
14343TIP3   OH242969   7.344   7.204   2.091 -0.4323  0.2177  0.0248
14343TIP3    H142970   7.285   7.131   2.107 -0.9079  0.6901  0.4905
14343TIP3    H242971   7.340   7.219   1.997  0.7091 -1.2008 -0.2851
14344TIP3   OH242972   2.659   4.405   2.531 -0.2374  0.6785 -0.0848
14344TIP3    H142973   2.585   4.366   2.484 -0.0584  0.2739 -0.0290
14344TIP3    H242974   2.641   4.387   2.623 -0.0170  0.4936 -0.0781
14345TIP3   OH242975   5.246   0.970   5.628  1.4165 -0.1248 -0.6268
14345TIP3    H142976   5.288   0.969   5.541 -0.7313  0.7156 -1.7283
14345TIP3    H242977   5.165   0.920   5.616  1.5709 -0.9107  1.2135
14346TIP3   OH242978   1.917   0.923   4.882  0.2808 -0.0779  0.1397
14346TIP3    H142979   1.841   0.977   4.860 -0.4500  0.3296  3.2583
14346TIP3    H242980   1.894   0.835   4.851 -0.5759  0.4314 -0.7288
14347TIP3   OH242981   5.043   6.050   2.229 -0.1030 -0.6112  0.6015
14347TIP3    H142982   5.026   6.074   2.320 -0.2088  1.1618  0.1566
14347TIP3    H242983   4.968   6.084   2.181 -0.3387 -2.0392 -0.1141
14348TIP3   OH242984   4.875   2.024   1.200  0.8184  0.0266 -0.2133
14348TIP3    H142985   4.789   1.995   1.169  0.7183 -1.4611  1.2400
14348TIP3    H242986   4.860   2.048   1.292  2.0134 -0.7622  0.2200
14349TIP3   OH242987   7.460   1.525   0.699  0.2596 -0.1697 -0.4890
14349TIP3    H142988   7.504   1.592   0.751  1.9528 -0.5108 -1.4071
14349TIP3    H242989   7.386   1.570   0.658  0.6734  0.8407 -0.1519
14350TIP3   OH242990   0.201   0.137   5.317  0.3668  0.0007 -0.0385
14350TIP3    H142991   0.259   0.066   5.292  0.3454 -0.6137  1.5357
14350TIP3    H242992   0.253   0.216   5.306  0.8018 -0.3612 -0.6228
14351TIP3   OH242993   7.259   3.878   5.217  0.0839  0.7756 -0.1887
14351TIP3    H142994   7.301   3.916   5.140  1.7457  0.7174  0.6397
14351TIP3    H242995   7.287   3.934   5.290 -0.7554  0.3331  0.5011
14352TIP3   OH242996   4.620   0.809   4.052  0.7470  0.0152  0.0238
14352TIP3    H142997   4.640   0.715   4.050 -1.8295 -0.6175 -0.0858
14352TIP3    H242998   4.607   0.832   3.960 -1.7983 -0.4012  0.1832
14353TIP3   OH242999   7.201   0.304   6.466 -0.3613 -0.1145 -0.0153
14353TIP3    H143000   7.260   0.368   6.507 -0.0630 -1.6322  2.0985
14353TIP3    H243001   7.231   0.298   6.376  0.6439  1.5081  0.1721
14354TIP3   OH243002   1.009   0.111   2.610 -0.3798  0.5818  0.5586
14354TIP3    H143003   1.000   0.103   2.705  3.2675  0.3153  1.0248
14354TIP3    H243004   0.977   0.028   2.576  0.4292 -0.2590  1.7892
14355TIP3   OH243005   2.054   0.548   2.440  0.7057 -0.0205  0.6669
14355TIP3    H143006   2.100   0.465   2.433 -0.8345 -0.8167 -0.5285
14355TIP3    H243007   1.980   0.530   2.498  0.2846  0.4684  0.2944
14356TIP3   OH243008   5.218   7.333   2.162 -0.1819  0.1757 -0.1644
14356TIP3    H143009   5.224   7.269   2.091  0.7085  0.3026 -0.2167
14356TIP3    H243010   5.297   7.386   2.153  1.0288 -1.0427  2.1130
14357TIP3   OH243011   3.514   7.081   4.743  0.1632  0.1203  0.7765
14357TIP3    H143012   3.575   7.081   4.670 -1.4680  0.5248 -0.6749
14357TIP3    H243013   3.465   7.163   4.733 -2.2163 -1.2279  0.3815
14358TIP3   OH243014   3.230   6.751   5.790 -0.7688  0.0911  0.4570
14358TIP3    H143015   3.290   6.717   5.723  0.9535 -0.0940  2.0127
14358TIP3    H243016   3.229   6.845   5.775 -0.0222  0.1045  0.4393
14359TIP3   OH243017   8.148   1.712   1.922  0.1294 -0.1983 -0.8974
14359TIP3    H143018   8.242   1.716   1.907  0.2498 -0.0710 -0.1606
14359TIP3    H243019   8.140   1.692   2.015 -0.5758  0.3234 -0.8395
14360TIP3   OH243020   8.150   0.375   1.318 -0.1119  0.0284  0.2933
14360TIP3    H143021   8.146   0.338   1.230 -1.7901  0.2347  0.2615
14360TIP3    H243022   8.243   0.369   1.341  0.1694 -1.1844 -0.9784
14361TIP3   OH243023   0.503   7.211   5.662 -0.2858 -0.1455  0.0032
14361TIP3    H143024   0.544   7.134   5.622  1.3126  1.1846 -1.0455
14361TIP3    H243025   0.540   7.216   5.750 -0.2900 -0.4800  0.0259
14362TIP3   OH243026   7.976   4.139   1.366  0.2553  0.1927  0.5835
14362TIP3    H143027   7.963   4.159   1.273 -2.4859 -0.3849  0.7554
14362TIP3    H243028   7.887   4.137   1.403  1.1543 -1.1291  2.9049
14363TIP3   OH243029   1.957   3.071   0.232  0.1308  0.6639 -0.3826
14363TIP3    H143030   1.981   3.054   0.323 -0.5342  0.0742 -0.3167
14363TIP3    H243031   1.863   3.085   0.234 -0.0265 -0.2097 -1.1038
14364TIP3   OH243032   6.461   4.508   4.728 -0.6185 -0.2248 -0.2554
14364TIP3    H143033   6.500   4.536   4.646 -0.1454  0.2732  0.1326
14364TIP3    H243034   6.514   4.550   4.796 -1.7671  0.4034  0.2909
14365TIP3   OH243035   5.906   1.467   6.246  0.0891 -0.0443  0.2497
14365TIP3    H143036   5.934   1.376   6.254  1.5523  0.4940  1.9356
14365TIP3    H243037   5.962   1.515   6.307 -1.6604  1.7844  0.5289
14366TIP3   OH243038   7.739   4.711   1.026  0.2233 -0.1156 -0.1120
14366TIP3    H143039   7.659   4.669   1.056 -0.4516  1.1750 -0.0054
14366TIP3    H243040   7.733   4.800   1.061  2.3866 -0.3881  1.0612
14367TIP3   OH243041   5.069   0.256   2.473 -0.3568  0.1519  0.4768
14367TIP3    H143042   5.149   0.222   2.512 -0.1771  0.5362  0.4519
14367TIP3    H243043   5.097   0.333   2.423 -0.7297  0.2489  0.4066
14368TIP3   OH243044   3.465   4.001   3.916  0.5046 -0.3631  0.5190
14368TIP3    H143045   3.550   3.974   3.951  0.9925 -0.4683 -0.6832
14368TIP3    H243046   3.441   4.079   3.967  0.3069 -1.5221  2.2757
14369TIP3   OH243047   1.778   4.608   3.239  0.3866  0.1674  0.1030
14369TIP3    H143048   1.772   4.643   3.150 -1.3344  0.1702  0.1903
14369TIP3    H243049   1.822   4.677   3.289  1.5133  0.1025 -0.7428
14370TIP3   OH243050   4.799   4.634   2.577 -0.3288  0.2515 -0.0370
14370TIP3    H143051   4.847   4.557   2.607  1.5002  1.2800 -0.1514
14370TIP3    H243052   4.827   4.646   2.486 -0.5791  1.0442 -0.0212
14371TIP3   OH243053   1.389   3.420   6.056 -0.7356  0.4675 -0.1350
14371TIP3    H143054   1.335   3.438   6.134 -1.9095  1.8689 -1.2080
14371TIP3    H243055   1.381   3.325   6.043 -0.4348  0.1877  1.4774
14372TIP3   OH243056   1.357   7.879   2.698 -0.1411 -0.1386  0.2009
14372TIP3    H143057   1.391   7.820   2.630  1.3472  1.1714 -0.2534
14372TIP3    H243058   1.294   7.934   2.652  0.7793  0.6703 -0.1047
14373TIP3   OH243059   7.525   4.028   4.438  0.3258  0.2238 -0.2201
14373TIP3    H143060   7.571   4.113   4.438 -0.2070  0.6502  2.9827
14373TIP3    H243061   7.584   3.969   4.484 -0.3726 -0.4604 -0.1832
14374TIP3   OH243062   6.391   7.899   5.458 -0.8028 -0.4073  0.1892
14374TIP3    H143063   6.310   7.850   5.444 -0.2075 -1.8318  1.5233
14374TIP3    H243064   6.449   7.870   5.387 -1.6004  1.0628 -1.1332
14375TIP3   OH243065   2.815   0.298   5.826 -0.2300  0.2513  0.2185
14375TIP3    H143066   2.776   0.231   5.770  0.5465  1.1377 -1.4697
14375TIP3    H243067   2.859   0.249   5.895  3.5801 -1.3974 -2.9759
14376TIP3   OH243068   1.199   7.663   5.618  0.0385 -0.3562 -0.0018
14376TIP3    H143069   1.166   7.747   5.585 -2.0925 -1.3044 -0.4289
14376TIP3    H243070   1.229   7.682   5.707 -1.7844  0.6059  0.4569
14377TIP3   OH243071   4.803   1.929   3.755 -0.6866  0.3224  0.5919
14377TIP3    H143072   4.741   1.997   3.726 -0.6828 -0.1419 -0.5702
14377TIP3    H243073   4.848   1.903   3.674 -0.1715 -0.5446  1.1500
14378TIP3   OH243074   8.137   5.521   6.321  0.3039  0.1666  0.0868
14378TIP3    H143075   8.157   5.613   6.339  1.8749  0.0861 -1.0044
14378TIP3    H243076   8.189   5.473   6.385  1.3243  0.0186 -0.8165
14379TIP3   OH243077   6.744   4.149   5.469 -0.7684  0.6374 -0.1273
14379TIP3    H143078   6.723   4.094   5.394  1.3477 -0.8851  0.3042
14379TIP3    H243079   6.715   4.098   5.545 -0.9348  1.2031  0.1988
14380TIP3   OH243080   7.162   0.874   5.559 -1.3995 -0.1585 -0.1523
14380TIP3    H143081   7.194   0.816   5.628 -0.2160  0.6008 -0.0291
14380TIP3    H243082   7.171   0.823   5.479  2.8916  0.8531 -0.5533
14381TIP3   OH243083   1.082   3.636   1.880  0.2884 -0.2207  0.3172
14381TIP3    H143084   1.119   3.693   1.813 -0.6027 -0.0466 -0.0346
14381TIP3    H243085   1.097   3.683   1.963 -0.5182  0.5725  0.0244
14382TIP3   OH243086   0.846   4.100   1.979  0.0771  0.4707  0.3747
14382TIP3    H143087   0.806   4.031   1.926 -1.2595  1.6739 -0.2579
14382TIP3    H243088   0.931   4.115   1.939 -0.1628  0.1063 -0.2841
14383TIP3   OH243089   5.034   3.573   5.812 -0.8600 -0.3163 -0.3905
14383TIP3    H143090   4.965   3.621   5.859 -0.2605  1.1094 -0.9067
14383TIP3    H243091   4.998   3.562   5.723  0.1892  1.9594 -1.1733
14384TIP3   OH243092   6.719   1.578   5.598  0.2172 -0.2328  0.2021
14384TIP3    H143093   6.673   1.637   5.658  2.0617  3.0444 -1.3429
14384TIP3    H243094   6.799   1.625   5.574  0.2543 -1.9029 -3.7417
14385TIP3   OH243095   4.508   5.241   1.974  0.3020 -0.0866  0.6403
14385TIP3    H143096   4.424   5.237   2.018  0.8621  0.0585  1.7549
14385TIP3    H243097   4.541   5.151   1.977 -0.0313 -0.2460 -0.2517
14386TIP3   OH243098   4.815   6.055   4.843 -0.0716  0.2664  0.6842
14386TIP3    H143099   4.877   6.031   4.773 -2.9958  0.2721 -2.1352
14386TIP3    H243100   4.755   5.980   4.848 -0.5239  0.7153  2.5449
14387TIP3   OH243101   0.761   7.495   1.155 -0.1956 -0.3824  0.0677
14387TIP3    H143102   0.758   7.425   1.221 -0.6504 -0.4944 -0.0686
14387TIP3    H243103   0.670   7.521   1.143 -0.6107 -2.7516 -3.0680
14388TIP3   OH243104   3.839   0.246   6.184 -0.1912  0.0509 -0.1562
14388TIP3    H143105   3.760   0.191   6.184  0.0517 -0.3778 -2.4693
14388TIP3    H243106   3.825   0.306   6.258 -1.7859 -1.2319  0.6706
14389TIP3   OH243107   7.137   4.401   2.688 -0.3740 -0.3060  0.2146
14389TIP3    H143108   7.066   4.452   2.726 -0.7961 -0.5502 -0.2252
14389TIP3    H243109   7.202   4.393   2.758 -0.9628 -0.4225  0.7587
14390TIP3   OH243110   1.954   5.189   4.341 -0.9313 -0.2652 -0.9701
14390TIP3    H143111   1.909   5.267   4.374 -3.6247 -0.1342 -4.3924
14390TIP3    H243112   2.038   5.221   4.309 -1.5510  1.0444 -1.3271
14391TIP3   OH243113   3.500   6.747   2.314  0.3428  0.0902 -0.4781
14391TIP3    H143114   3.501   6.741   2.410  0.5880  0.3948 -0.4614
14391TIP3    H243115   3.590   6.765   2.289 -0.1487  3.1001 -0.5392
14392TIP3   OH243116   7.058   2.872   4.205  0.0126  0.3206  0.3337
14392TIP3    H143117   7.140   2.860   4.156 -1.5412  0.9157 -2.6399
14392TIP3    H243118   7.012   2.941   4.158 -2.8756 -1.0621  0.9193
14393TIP3   OH243119   3.182   3.492   4.778  0.1154 -0.0521 -0.3672
14393TIP3    H143120   3.191   3.424   4.711  1.1951 -1.2074  0.8802
14393TIP3    H243121   3.228   3.568   4.742  1.9824 -1.1141 -0.3864
14394TIP3   OH243122   2.296   1.839   4.922  0.0676  0.5721  0.6982
14394TIP3    H143123   2.358   1.808   4.988 -1.2655 -1.3742  1.1286
14394TIP3    H243124   2.337   1.817   4.838 -0.1437 -1.0740  0.9826
14395TIP3   OH243125   4.716   1.621   6.037 -0.2956 -0.2257  1.2409
14395TIP3    H143126   4.650   1.560   6.067  0.9393 -1.1157  2.2661
14395TIP3    H243127   4.669   1.682   5.980 -1.3096 -3.1114 -1.2986
14396TIP3   OH243128   4.548   3.501   6.413  0.4209  0.2831 -0.5149
14396TIP3    H143129   4.559   3.596   6.418 -0.6338  0.3350  1.5221
14396TIP3    H243130   4.456   3.488   6.391  0.2662 -0.2679  0.4070
14397TIP3   OH243131   4.382   5.403   2.941  0.3099 -0.5046  0.2162
14397TIP3    H143132   4.401   5.466   3.010  0.4686  0.3929 -0.6237
14397TIP3    H243133   4.427   5.437   2.864 -2.6558  0.4259 -1.2520
14398TIP3   OH243134   5.968   7.338   4.864  0.2481  0.0765 -0.3653
14398TIP3    H143135   5.918   7.279   4.807  1.4398 -1.4991  0.1435
14398TIP3    H243136   6.048   7.289   4.885  1.9829  2.4471 -1.0621
14399TIP3   OH243137   3.695   1.500   1.551  0.1219 -0.0265 -0.4798
14399TIP3    H143138   3.611   1.458   1.530 -0.1477  0.2933 -0.0497
14399TIP3    H243139   3.674   1.562   1.621  0.6245  0.4181 -0.7169
14400TIP3   OH243140   5.988   5.945   0.518  0.0155 -0.5374  0.0596
14400TIP3    H143141   5.946   5.902   0.443  2.3020  1.5289 -2.6491
14400TIP3    H243142   5.952   6.034   0.519  2.4216  0.5365 -0.8767
14401TIP3   OH243143   2.891   5.628   0.191 -0.4151  0.4802 -0.2514
14401TIP3    H143144   2.933   5.589   0.268  0.2385  0.3790 -0.6523
14401TIP3    H243145   2.841   5.701   0.226 -1.3086 -0.4416  0.4611
14402TIP3   OH243146   5.793   1.879   3.063  0.6197 -0.2675  0.0282
14402TIP3    H143147   5.782   1.972   3.082  1.8098  0.5306 -2.6730
14402TIP3    H243148   5.880   1.858   3.096 -0.3885 -1.0214  2.4069
14403TIP3   OH243149   4.468   6.425   5.292  0.1176  0.2972  0.2732
14403TIP3    H143150   4.488   6.465   5.377  1.2329 -1.4390  0.8723
14403TIP3    H243151   4.453   6.333   5.312  0.2438 -0.1086 -1.4041
14404TIP3   OH243152   7.489   5.123   0.912 -0.2307  0.1123 -0.3947
14404TIP3    H143153   7.402   5.086   0.899 -1.2001  1.8249  0.7907
14404TIP3    H243154   7.531   5.066   0.977 -0.8266 -0.1783 -0.2625
14405TIP3   OH243155   2.950   5.944   1.214  0.3639 -0.5929  0.3876
14405TIP3    H143156   3.008   5.997   1.159  1.1438  2.0288  3.3927
14405TIP3    H243157   2.996   5.861   1.225  2.7924  0.7664  1.2404
14406TIP3   OH243158   3.941   2.800   1.546 -0.2449  0.1874  0.0687
14406TIP3    H143159   3.922   2.808   1.452  0.4410  1.0845 -0.0098
14406TIP3    H243160   3.913   2.711   1.569 -0.8259  0.1073 -0.8840
14407TIP3   OH243161   1.465   7.645   6.379 -0.4478  0.2907  0.6507
14407TIP3    H143162   1.407   7.597   6.438 -1.3380 -0.1857 -0.5850
14407TIP3    H243163   1.545   7.592   6.377 -1.2815 -0.9828 -0.4020
14408TIP3   OH243164   5.294   1.226   1.810  0.1656 -0.0326  0.1947
14408TIP3    H143165   5.309   1.321   1.808 -1.6736  0.3152  1.3384
14408TIP3    H243166   5.301   1.202   1.902 -2.1962 -0.4727  0.3187
14409TIP3   OH243167   2.001   4.854   1.723  0.4903  0.7664  0.4263
14409TIP3    H143168   1.996   4.903   1.641 -0.3625 -0.1000 -0.0533
14409TIP3    H243169   2.095   4.845   1.739  0.6677  1.8421  0.1042
14410TIP3   OH243170   6.671   4.722   5.307 -0.0117  0.5689 -0.0385
14410TIP3    H143171   6.684   4.781   5.233 -0.7556 -1.0321 -1.5290
14410TIP3    H243172   6.633   4.777   5.376  0.6616  2.0923 -0.8346
14411TIP3   OH243173   8.191   7.280   3.860 -0.4897 -0.0489 -0.2310
14411TIP3    H143174   8.179   7.367   3.822  0.0345  0.6949  1.2319
14411TIP3    H243175   8.115   7.230   3.830 -1.4066  1.2592 -0.1490
14412TIP3   OH243176   4.080   1.789   4.984 -0.0857 -0.1352 -0.1618
14412TIP3    H143177   4.134   1.722   4.944  0.2020  0.7366 -1.2874
14412TIP3    H243178   4.018   1.815   4.915  1.1159  2.1605 -0.4906
14413TIP3   OH243179   3.813   6.840   3.091 -1.0833  0.3688 -0.2920
14413TIP3    H143180   3.856   6.799   3.166  0.9360  1.5810 -0.7262
14413TIP3    H243181   3.866   6.917   3.072 -0.6988 -0.6034 -3.8075
14414TIP3   OH243182   7.293   7.132   3.932 -0.0787  0.1235 -0.5987
14414TIP3    H143183   7.290   7.145   4.026  0.8782 -0.7029 -0.4334
14414TIP3    H243184   7.343   7.051   3.920  1.2947  1.0978 -1.8799
14415TIP3   OH243185   2.444   4.408   0.758  0.2350  0.2513 -0.1689
14415TIP3    H143186   2.431   4.488   0.810  2.0284  0.6129 -0.2172
14415TIP3    H243187   2.514   4.361   0.804 -1.4194 -1.8041  0.3974
14416TIP3   OH243188   3.727   5.398   1.495 -0.1134 -0.0605 -0.0501
14416TIP3    H143189   3.762   5.309   1.490 -0.6527 -0.2836 -0.0086
14416TIP3    H243190   3.641   5.391   1.453  0.5410  0.8241 -1.6392
14417TIP3   OH243191   5.646   3.369   3.518  0.3452  0.2042 -0.0752
14417TIP3    H143192   5.691   3.317   3.451 -1.3783 -1.1528 -0.2266
14417TIP3    H243193   5.686   3.340   3.601  0.0624 -0.6959 -0.2392
14418TIP3   OH243194   6.289   6.607   1.815  0.0519 -0.4367 -0.0406
14418TIP3    H143195   6.236   6.529   1.834 -0.1840 -0.4380 -0.6673
14418TIP3    H243196   6.367   6.597   1.870 -0.6582 -0.3634  1.0207
14419TIP3   OH243197   7.460   0.749   6.035  0.1590 -0.2520  0.4782
14419TIP3    H143198   7.502   0.686   5.977  0.0178  0.1148 -0.0277
14419TIP3    H243199   7.420   0.695   6.103  0.9519 -0.6378  0.6513
14420TIP3   OH243200   5.265   7.788   0.505 -0.3661  0.1470 -0.1240
14420TIP3    H143201   5.351   7.779   0.465  1.5575  0.5372  3.4928
14420TIP3    H243202   5.254   7.882   0.520  0.3128 -0.1041  2.5304
14421TIP3   OH243203   7.297   6.387   0.067  0.2810  0.3950 -0.4174
14421TIP3    H143204   7.263   6.316   0.121  0.2932  0.6004 -0.1339
14421TIP3    H243205   7.242   6.462   0.088  1.8369  1.1679  1.2442
14422TIP3   OH243206   4.385   0.230   6.640  0.1371  0.2239  0.2629
14422TIP3    H143207   4.435   0.311   6.646  1.6405 -0.6509 -0.0697
14422TIP3    H243208   4.399   0.199   6.551 -1.1805  0.0508  0.0980
14423TIP3   OH243209   3.258   0.085   5.416 -0.2278 -0.2635 -0.7469
14423TIP3    H143210   3.165   0.104   5.428 -0.5837 -1.4444 -1.4080
14423TIP3    H243211   3.266   0.061   5.324  0.8948  0.5981 -0.8959
14424TIP3   OH243212   1.771   2.462   3.895 -0.1984  0.3242  0.1076
14424TIP3    H143213   1.849   2.412   3.921 -1.1319 -0.5442  1.4081
14424TIP3    H243214   1.720   2.400   3.843 -1.2444 -0.0478  1.5120
14425TIP3   OH243215   3.529   0.784   1.919  0.0244  0.1170 -0.3665
14425TIP3    H143216   3.462   0.834   1.966  0.4278  0.1647  0.1666
14425TIP3    H243217   3.506   0.794   1.827 -1.3231 -0.7304 -0.1557
14426TIP3   OH243218   4.632   0.182   5.442 -0.3781 -0.2781  0.1210
14426TIP3    H143219   4.629   0.215   5.532 -0.4654  1.0103 -0.3343
14426TIP3    H243220   4.553   0.129   5.434 -0.3092 -0.5053  0.8397
14427TIP3   OH243221   8.120   5.908   4.829  0.1460  0.2657  0.2463
14427TIP3    H143222   8.161   5.822   4.844 -0.6321 -0.2706 -0.5769
14427TIP3    H243223   8.192   5.964   4.799  0.5165 -0.3257  0.0052
14428TIP3   OH243224   1.248   3.023   4.033 -0.0828 -0.0036 -0.5472
14428TIP3    H143225   1.339   3.014   4.005  0.5321  0.1908  1.2500
14428TIP3    H243226   1.243   3.112   4.069 -0.7071 -0.3429  0.2414
14429TIP3   OH243227   4.152   3.179   0.775 -0.4126 -0.4700 -0.1860
14429TIP3    H143228   4.144   3.176   0.680 -1.3413 -0.4947 -0.1126
14429TIP3    H243229   4.124   3.268   0.798 -2.9693 -1.3337  0.2946
14430TIP3   OH243230   0.725   4.828   2.268 -0.6946  0.0727  0.1325
14430TIP3    H143231   0.782   4.760   2.230  0.8555  1.9107 -1.0405
14430TIP3    H243232   0.729   4.900   2.204 -2.1664  1.3147  1.3860
14431TIP3   OH243233   1.335   6.202   4.976 -0.2270 -0.2983  0.2128
14431TIP3    H143234   1.319   6.166   4.889 -1.2185 -1.1110  0.7053
14431TIP3    H243235   1.411   6.153   5.008  0.7938  0.7208 -0.5641
14432TIP3   OH243236   0.851   1.708   5.820  0.1601 -0.1138  0.4944
14432TIP3    H143237   0.779   1.650   5.846 -0.3586  0.9440  1.4596
14432TIP3    H243238   0.898   1.658   5.753 -0.4163 -1.5512  1.1241
14433TIP3   OH243239   6.096   7.892   6.824  0.3023 -0.0516 -0.2683
14433TIP3    H143240   6.183   7.858   6.844  0.4333  0.2691 -0.2865
14433TIP3    H243241   6.053   7.900   6.909  0.8193  1.2064 -0.0965
14434TIP3   OH243242   7.412   5.866   2.909  0.4477 -0.3210  0.2837
14434TIP3    H143243   7.425   5.898   2.998  1.1088  2.6300 -0.7609
14434TIP3    H243244   7.326   5.898   2.883  0.2268 -1.2092 -0.1379
14435TIP3   OH243245   6.441   0.541   4.502  0.4139 -0.5439 -0.0914
14435TIP3    H143246   6.460   0.628   4.537  2.2606 -0.2343 -1.6904
14435TIP3    H243247   6.500   0.483   4.549  2.1211 -0.2792 -1.7645
14436TIP3   OH243248   2.796   6.565   6.013  0.4161  0.2798  0.5238
14436TIP3    H143249   2.887   6.595   6.004  0.1895  0.7222 -0.3553
14436TIP3    H243250   2.752   6.638   6.058  0.4113  0.2188  0.6189
14437TIP3   OH243251   0.782   1.123   3.072 -0.4017 -0.1093  0.0135
14437TIP3    H143252   0.799   1.086   3.159  2.7535  2.1750  0.5395
14437TIP3    H243253   0.838   1.072   3.013  0.3358  0.7181 -0.0209
14438TIP3   OH243254   4.592   2.342   2.777  0.2703  0.0771  0.1656
14438TIP3    H143255   4.640   2.276   2.728  1.6736  0.8128  0.4882
14438TIP3    H243256   4.565   2.406   2.711  2.9506  1.5464  0.3540
14439TIP3   OH243257   2.122   4.452   4.385  0.1391  0.1742  0.3430
14439TIP3    H143258   2.139   4.358   4.373  1.5400  0.3916  0.4240
14439TIP3    H243259   2.136   4.490   4.299 -2.6717  0.0669 -0.2649
14440TIP3   OH243260   5.928   6.263   2.958  0.1490  0.1147  0.1080
14440TIP3    H143261   5.866   6.332   2.980  0.5570  0.6688 -0.4451
14440TIP3    H243262   5.877   6.183   2.961 -0.5943  0.5637 -0.3404
14441TIP3   OH243263   7.711   0.581   1.118 -0.6542 -0.3482  0.1571
14441TIP3    H143264   7.716   0.667   1.160 -1.2943 -1.2564  2.2204
14441TIP3    H243265   7.679   0.599   1.030 -1.0790  1.5059  0.6417
14442TIP3   OH243266   4.418   1.655   1.518 -0.2174 -0.2274 -0.4840
14442TIP3    H143267   4.458   1.742   1.516 -0.5123 -0.0577  0.7095
14442TIP3    H243268   4.457   1.610   1.443 -2.0296  1.7724 -2.8029
14443TIP3   OH243269   8.243   6.632   3.616 -0.3828 -0.0913 -0.0411
14443TIP3    H143270   8.223   6.723   3.640 -0.0837 -0.1211  0.3309
14443TIP3    H243271   8.157   6.589   3.610 -0.7652  0.8351 -2.8697
14444TIP3   OH243272   1.026   7.629   5.903  0.1266 -0.5050  0.5865
14444TIP3    H143273   1.067   7.692   5.962  1.2721 -0.3413 -0.3401
14444TIP3    H243274   1.100   7.584   5.862 -0.5490  0.5749 -2.0067
14445TIP3   OH243275   3.706   1.103   2.424  0.0474 -0.0867  0.0945
14445TIP3    H143276   3.733   1.148   2.504 -0.1850  1.4739 -0.6724
14445TIP3    H243277   3.782   1.109   2.366 -0.7322  1.3305 -0.8295
14446TIP3   OH243278   7.743   7.926   0.978  0.8704 -0.5689 -0.0786
14446TIP3    H143279   7.792   7.974   0.911 -0.0032 -2.7598 -2.4604
14446TIP3    H243280   7.782   7.838   0.978 -1.0530 -1.4786  0.1447
14447TIP3   OH243281   4.564   1.619   4.872  0.2506 -0.4318  0.1214
14447TIP3    H143282   4.580   1.621   4.778 -0.6626  0.3342 -0.0297
14447TIP3    H243283   4.650   1.603   4.911  1.3232  2.7487 -0.6704
14448TIP3   OH243284   4.857   0.462   4.430 -0.2530  0.2743 -0.0309
14448TIP3    H143285   4.878   0.401   4.358 -0.1181  0.5166 -0.1971
14448TIP3    H243286   4.762   0.464   4.432 -0.2667 -0.2943  0.2733
14449TIP3   OH243287   8.283   6.695   3.322 -0.1190 -0.6636 -0.2738
14449TIP3    H143288   8.298   6.601   3.324 -0.6350 -0.7606 -0.6275
14449TIP3    H243289   8.236   6.714   3.403  1.0583 -0.5081  0.3871
14450TIP3   OH243290   6.351   6.717   0.391  0.4490  0.0980 -0.2417
14450TIP3    H143291   6.340   6.753   0.479  1.2317 -2.5750  1.0604
14450TIP3    H243292   6.262   6.700   0.361  0.1885 -0.3181  0.6942
14451TIP3   OH243293   1.678   3.817   1.475 -0.4933 -0.6250  0.1093
14451TIP3    H143294   1.766   3.778   1.477 -1.0276 -1.8509  0.7216
14451TIP3    H243295   1.671   3.862   1.559  0.1285  0.8829 -0.6026
14452TIP3   OH243296   3.032   5.650   1.733  0.2319 -0.7778 -0.3014
14452TIP3    H143297   2.949   5.616   1.701  0.7484 -2.2396 -0.1325
14452TIP3    H243298   3.091   5.647   1.658  0.4099 -0.6913 -0.1673
14453TIP3   OH243299   5.732   0.224   2.944  0.3566 -0.3444  0.2699
14453TIP3    H143300   5.682   0.304   2.929 -1.7534 -1.4621  1.0593
14453TIP3    H243301   5.669   0.153   2.932  1.9170 -1.8553  0.6474
14454TIP3   OH243302   1.193   0.882   1.388  0.5016  0.4568 -0.4421
14454TIP3    H143303   1.195   0.978   1.381  1.1919  0.4763 -0.0669
14454TIP3    H243304   1.228   0.863   1.475 -2.3922 -0.0355  0.7066
14455TIP3   OH243305   1.787   1.630   2.992 -0.1120  0.0613 -0.8008
14455TIP3    H143306   1.849   1.604   2.925  0.0256  2.4988 -1.7241
14455TIP3    H243307   1.718   1.676   2.945 -0.8818  0.3612  0.5589
14456TIP3   OH243308   6.843   0.520   2.633  0.2937  0.4040 -0.0555
14456TIP3    H143309   6.776   0.507   2.701 -0.2964 -1.3725 -0.8888
14456TIP3    H243310   6.890   0.437   2.630  0.3439  0.4577 -1.7535
14457TIP3   OH243311   1.309   4.404   6.118 -0.2045 -0.1530  0.4596
14457TIP3    H143312   1.305   4.312   6.091  0.0312 -0.2081  0.6120
14457TIP3    H243313   1.282   4.404   6.210 -0.7733  0.0061  0.3012
14458TIP3   OH243314   7.262   6.325   3.598  0.6462  0.1578 -0.4548
14458TIP3    H143315   7.267   6.233   3.625 -0.4499 -0.0357 -0.8356
14458TIP3    H243316   7.320   6.330   3.522  0.4035 -0.3360 -0.6841
14459TIP3   OH243317   4.256   3.598   4.436  0.3109  0.4517 -0.1744
14459TIP3    H143318   4.177   3.601   4.381 -0.3935  3.4042  0.8169
14459TIP3    H243319   4.268   3.505   4.455 -1.3870 -0.3438 -2.4866
14460TIP3   OH243320   4.079   5.338   4.347 -0.1641 -0.1378  0.2961
14460TIP3    H143321   3.984   5.353   4.348  0.0211  1.2453  2.3035
14460TIP3    H243322   4.088   5.244   4.331 -1.8661 -0.3336  0.2631
14461TIP3   OH243323   7.913   7.449   1.724  0.0904 -0.2674 -0.0184
14461TIP3    H143324   7.876   7.429   1.638 -0.3059 -0.2244  0.1402
14461TIP3    H243325   7.964   7.529   1.710  2.3630 -1.7882 -0.8360
14462TIP3   OH243326   4.049   5.071   1.968  0.1470  0.0214  0.0318
14462TIP3    H143327   4.009   5.026   2.042  0.3652 -1.5257 -0.7586
14462TIP3    H243328   4.061   5.003   1.901 -0.5914  1.4751 -1.6751
14463TIP3   OH243329   7.045   6.279   5.953  0.1545  0.9881 -0.1235
14463TIP3    H143330   7.129   6.246   5.921  0.1015  1.0113 -0.2899
14463TIP3    H243331   7.021   6.220   6.024 -0.8174 -0.4556 -1.5832
14464TIP3   OH243332   8.246   7.545   1.592 -0.2554 -0.2411  0.1396
14464TIP3    H143333   8.226   7.479   1.526  1.2701  0.2079 -0.8033
14464TIP3    H243334   8.263   7.625   1.543 -0.9382  0.5881  1.1959
14465TIP3   OH243335   1.620   2.372   6.482  0.3222 -0.3253  0.1714
14465TIP3    H143336   1.585   2.384   6.570 -0.7970  0.5653 -0.3518
14465TIP3    H243337   1.586   2.447   6.433 -0.4608 -1.6467 -1.4160
14466TIP3   OH243338   5.369   6.052   0.270 -0.1156 -0.4113  0.2879
14466TIP3    H143339   5.366   5.985   0.201  0.4981  0.0320 -0.1858
14466TIP3    H243340   5.453   6.037   0.313 -0.3383 -0.4539  0.7076
14467TIP3   OH243341   3.381   6.858   5.083  0.1593  0.8354  0.1667
14467TIP3    H143342   3.453   6.852   5.020  0.7496 -0.6371  0.9502
14467TIP3    H243343   3.306   6.886   5.030  1.0007  1.1477 -0.8950
14468TIP3   OH243344   7.037   1.277   1.140 -0.2624 -0.6872  0.0433
14468TIP3    H143345   7.093   1.285   1.063  0.4285 -1.3459  0.4565
14468TIP3    H243346   7.087   1.222   1.200 -0.4391  0.4232  1.2715
14469TIP3   OH243347   1.745   2.644   6.794 -0.1798 -0.2598 -0.5614
14469TIP3    H143348   1.817   2.605   6.844 -1.0169 -0.7176  0.3189
14469TIP3    H243349   1.738   2.733   6.827  0.8884  0.2471 -1.6526
14470TIP3   OH243350   7.345   1.038   0.109  1.3243  0.3280 -0.2391
14470TIP3    H143351   7.409   1.091   0.061  0.3757  1.5759 -0.1812
14470TIP3    H243352   7.273   1.026   0.047  2.1173 -2.1930 -0.7763
14471TIP3   OH243353   1.820   1.532   1.630  0.2612  0.3730 -0.2891
14471TIP3    H143354   1.793   1.561   1.717 -2.3464 -0.2773 -0.8058
14471TIP3    H243355   1.778   1.447   1.619  0.0286  0.7101 -2.4126
14472TIP3   OH243356   6.772   2.556   2.020  0.1381 -0.4356 -0.3234
14472TIP3    H143357   6.707   2.576   1.952  0.9527 -0.2080 -1.0589
14472TIP3    H243358   6.834   2.629   2.016  0.2806 -0.5003  0.5710
14473TIP3   OH243359   4.486   0.359   3.279  0.8496 -0.7005 -0.3321
14473TIP3    H143360   4.517   0.391   3.194  1.8052 -0.8028 -0.0305
14473TIP3    H243361   4.493   0.264   3.272  0.0084 -0.7633 -0.4716
14474TIP3   OH243362   7.414   6.248   1.273  0.1026 -0.2483 -0.1387
14474TIP3    H143363   7.477   6.289   1.213 -0.5290 -1.6210 -1.8281
14474TIP3    H243364   7.467   6.221   1.348  0.7219  2.5623  0.5847
14475TIP3   OH243365   7.210   0.135   6.184  0.4482  0.1063  0.4847
14475TIP3    H143366   7.129   0.134   6.236 -0.5730 -2.5209 -0.9348
14475TIP3    H243367   7.183   0.169   6.098  1.4804  1.6726  0.7379
14476TIP3   OH243368   4.043   6.298   6.270  0.3674  0.3505  0.4917
14476TIP3    H143369   3.981   6.364   6.240  0.2571 -0.4577 -1.1858
14476TIP3    H243370   4.110   6.347   6.318 -0.8501  1.3931  1.1670
14477TIP3   OH243371   7.443   0.690   6.791  0.7277 -0.0401 -0.1590
14477TIP3    H143372   7.399   0.760   6.839  0.8323  0.3188 -0.5784
14477TIP3    H243373   7.404   0.609   6.825  1.7486  0.1182  1.4945
14478TIP3   OH243374   2.950   1.583   0.548  0.0415 -0.2290 -0.3485
14478TIP3    H143375   3.044   1.585   0.563 -0.1120 -0.9968  0.8801
14478TIP3    H243376   2.940   1.572   0.454  1.1315  2.3874 -0.8655
14479TIP3   OH243377   4.424   6.352   3.472  0.0396 -0.5004 -0.0929
14479TIP3    H143378   4.339   6.374   3.435 -0.0819  0.0264  0.4842
14479TIP3    H243379   4.403   6.295   3.546  0.3876 -3.5685 -2.1810
14480TIP3   OH243380   2.898   0.449   5.578  0.1913  0.0057  0.1318
14480TIP3    H143381   2.993   0.443   5.564  0.2133  0.1148  0.2392
14480TIP3    H243382   2.882   0.393   5.654  0.2355  0.3681  0.4099
14481TIP3   OH243383   0.333   3.573   4.121 -0.0229 -0.2137 -0.0984
14481TIP3    H143384   0.275   3.621   4.180  0.0979  1.2218 -1.1021
14481TIP3    H243385   0.328   3.621   4.038 -0.2044 -2.1666 -1.2927
14482TIP3   OH243386   6.879   4.070   3.898 -1.0401 -0.5081  0.0563
14482TIP3    H143387   6.887   4.161   3.869  0.4825 -0.6710 -0.1528
14482TIP3    H243388   6.943   4.062   3.969  1.2191 -2.1416 -1.9583
14483TIP3   OH243389   7.612   7.815   2.669  0.2957 -0.1504 -0.3210
14483TIP3    H143390   7.543   7.823   2.604  1.2447  0.7909 -1.2442
14483TIP3    H243391   7.571   7.767   2.741 -1.4685  0.7849 -0.6307
14484TIP3   OH243392   6.370   2.229   4.373 -0.4549 -0.2634  0.3952
14484TIP3    H143393   6.344   2.160   4.433 -2.5783  1.4212  1.5261
14484TIP3    H243394   6.297   2.290   4.372  0.3253  0.8232 -2.3927
14485TIP3   OH243395   4.645   6.756   6.230 -0.0355  0.1380  0.4541
14485TIP3    H143396   4.599   6.738   6.312 -0.7174  0.2314  0.0987
14485TIP3    H243397   4.680   6.844   6.241  1.0209 -0.3616  1.1598
14486TIP3   OH243398   5.102   5.520   4.766 -0.2776 -0.3899  0.1988
14486TIP3    H143399   5.096   5.599   4.712  0.5152  0.0409  0.7279
14486TIP3    H243400   5.028   5.526   4.826  0.7151  0.8289  1.3659
14487TIP3   OH243401   4.276   1.270   0.947  0.2079 -0.8754 -0.0653
14487TIP3    H143402   4.196   1.217   0.953  0.0680 -0.6101  0.4904
14487TIP3    H243403   4.335   1.233   1.012  0.6387 -1.2165 -0.6333
14488TIP3   OH243404   1.902   4.389   4.899  0.4192 -0.0284 -0.0784
14488TIP3    H143405   1.878   4.296   4.891 -0.5496  0.1813  0.2259
14488TIP3    H243406   1.932   4.414   4.812  0.8016 -0.6614 -0.1336
14489TIP3   OH243407   1.689   1.060   4.774 -0.1802  0.0071 -0.3115
14489TIP3    H143408   1.645   1.077   4.857  0.5003 -2.7133  0.7031
14489TIP3    H243409   1.619   1.067   4.709 -1.4004 -0.8638  0.8643
14490TIP3   OH243410   5.888   0.949   5.584 -0.8428  0.6687  0.4133
14490TIP3    H143411   5.870   1.037   5.618 -1.4816  1.0288 -0.8087
14490TIP3    H243412   5.847   0.948   5.498  0.0710 -0.4780 -0.0287
14491TIP3   OH243413   4.467   5.533   4.750 -0.2017  0.0617  0.0682
14491TIP3    H143414   4.479   5.438   4.759  1.5664  0.2934  0.6305
14491TIP3    H243415   4.543   5.571   4.796 -0.7145  1.7438 -0.4035
14492TIP3   OH243416   1.940   5.638   3.698 -0.3530 -0.5278  0.0902
14492TIP3    H143417   1.999   5.575   3.655 -0.1241  0.0332 -0.4281
14492TIP3    H243418   1.974   5.644   3.788  1.4464  1.0335 -0.6305
14493TIP3   OH243419   4.057   2.974   3.565  0.0870 -0.3871 -0.6299
14493TIP3    H143420   4.137   2.961   3.616  0.3450 -1.4756 -1.2884
14493TIP3    H243421   4.086   2.966   3.474 -0.9467 -1.8816 -0.8528
14494TIP3   OH243422   8.399   2.854   4.805  0.1900  0.0398 -0.7545
14494TIP3    H143423   8.440   2.940   4.792  0.4787  0.1004  0.4757
14494TIP3    H243424   8.340   2.844   4.730  2.1945  0.0918 -2.4450
14495TIP3   OH243425   3.240   7.038   0.280 -0.9692 -0.1297  0.4814
14495TIP3    H143426   3.172   6.995   0.227 -0.9204  0.2675  0.0894
14495TIP3    H243427   3.313   6.976   0.280 -1.7808 -1.1432  1.9843
14496TIP3   OH243428   7.577   1.737   1.812  0.3256 -0.0935 -0.6277
14496TIP3    H143429   7.636   1.806   1.782  0.7573 -0.3284 -0.3277
14496TIP3    H243430   7.490   1.767   1.785  0.4258  0.8855  0.0669
14497TIP3   OH243431   1.383   6.202   6.526 -0.5170 -0.6481  0.4481
14497TIP3    H143432   1.389   6.294   6.500  0.0134 -0.5897  0.7706
14497TIP3    H243433   1.432   6.197   6.608 -1.0008 -1.1131  0.7098
14498TIP3   OH243434   6.006   0.880   1.883 -0.4172  0.5099 -0.0429
14498TIP3    H143435   5.979   0.968   1.860  3.3621  2.0838  0.7552
14498TIP3    H243436   6.018   0.836   1.799  0.0947  1.6333 -0.5758
14499TIP3   OH243437   4.715   3.438   0.955 -0.6303  0.9303 -0.0467
14499TIP3    H143438   4.741   3.387   0.878 -1.4438  2.3284 -1.2882
14499TIP3    H243439   4.664   3.376   1.008  1.0671 -0.4483  0.0833
14500TIP3   OH243440   7.348   2.249   0.843 -0.1871  0.2320 -0.1360
14500TIP3    H143441   7.360   2.232   0.936 -0.7714  0.0832 -0.0874
14500TIP3    H243442   7.423   2.303   0.819  0.5602 -0.6420  0.1748
14501TIP3   OH243443   5.432   5.583   2.018 -0.1478 -0.1702 -0.2606
14501TIP3    H143444   5.468   5.612   1.934  0.1238 -0.9663 -0.4299
14501TIP3    H243445   5.349   5.540   1.995  0.1627 -0.8213 -0.1842
14502TIP3   OH243446   0.046   5.495   1.088 -0.3327  0.1257  0.3170
14502TIP3    H143447   0.103   5.560   1.129 -0.9908  0.8563  0.0869
14502TIP3    H243448   0.093   5.468   1.009  0.1490 -0.0204  0.6472
14503TIP3   OH243449   3.495   2.282   0.774  0.1542  0.2707  0.1656
14503TIP3    H143450   3.428   2.310   0.712 -2.9356 -1.3464  2.5241
14503TIP3    H243451   3.547   2.218   0.726 -0.3551  1.1049 -1.5722
14504TIP3   OH243452   3.051   0.734   0.241  0.1651 -0.3196 -0.4099
14504TIP3    H143453   3.133   0.774   0.213  0.2404 -1.3562 -1.7869
14504TIP3    H243454   3.007   0.801   0.292  1.0185  0.9147 -1.2538
14505TIP3   OH243455   1.262   2.985   0.052 -1.0354  0.7944  0.1006
14505TIP3    H143456   1.205   2.908   0.050  0.9655 -0.8008  0.4437
14505TIP3    H243457   1.286   2.996   0.144  2.0532 -0.9501 -0.3339
14506TIP3   OH243458   8.117   5.863   1.316 -0.1048 -0.0245 -0.2209
14506TIP3    H143459   8.028   5.894   1.336 -0.4184 -0.9562 -0.1218
14506TIP3    H243460   8.156   5.934   1.266 -1.1932  0.0793 -0.9676
14507TIP3   OH243461   1.773   4.041   2.476 -0.4837  0.1846  0.1238
14507TIP3    H143462   1.718   3.964   2.462 -0.5231  0.5049 -1.7220
14507TIP3    H243463   1.855   4.020   2.431 -0.4046  1.1164 -0.1764
14508TIP3   OH243464   1.152   4.509   2.352 -0.1347 -0.0320 -0.2713
14508TIP3    H143465   1.129   4.437   2.293  1.5364 -0.0405 -0.9755
14508TIP3    H243466   1.212   4.470   2.416 -0.9113  0.2744  0.6635
14509TIP3   OH243467   1.727   5.263   2.835 -0.1966 -0.0653  0.3078
14509TIP3    H143468   1.666   5.204   2.880 -0.0367  0.6730  1.5457
14509TIP3    H243469   1.672   5.336   2.808 -0.0810  0.0341  0.3447
14510TIP3   OH243470   0.660   6.059   4.230  0.4472 -0.1234 -0.3710
14510TIP3    H143471   0.752   6.034   4.221 -0.0649 -2.0955 -0.4355
14510TIP3    H243472   0.649   6.075   4.324  1.2255  1.8112 -0.5663
14511TIP3   OH243473   5.736   4.839   0.450 -0.7021  0.7556 -0.0865
14511TIP3    H143474   5.643   4.862   0.460 -1.1199 -0.5396 -0.6755
14511TIP3    H243475   5.745   4.815   0.357  0.4058  1.5692 -0.2106
14512TIP3   OH243476   4.245   2.986   2.407  0.4606  0.3181  0.0811
14512TIP3    H143477   4.303   3.006   2.481  1.5464  0.2202 -0.7171
14512TIP3    H243478   4.288   2.912   2.363 -1.3510 -1.1401  0.6341
14513TIP3   OH243479   4.935   4.900   3.625  0.2301  0.4278 -0.0292
14513TIP3    H143480   4.866   4.950   3.582  1.4526  1.0185 -1.4142
14513TIP3    H243481   4.895   4.867   3.705 -1.3905  1.4426 -0.3749
14514TIP3   OH243482   1.439   4.673   5.896 -0.4044  0.3291 -0.0539
14514TIP3    H143483   1.390   4.754   5.910  1.1513  1.5086 -1.0041
14514TIP3    H243484   1.393   4.628   5.826 -0.0151  1.5797 -1.1729
14515TIP3   OH243485   0.697   4.851   1.906 -0.9246  0.1961 -0.0130
14515TIP3    H143486   0.641   4.849   1.828 -1.6724 -0.5527  0.5138
14515TIP3    H243487   0.783   4.822   1.875 -1.3221 -0.5177 -0.4941
14516TIP3   OH243488   5.380   4.861   1.737  0.2083  0.3059  0.0985
14516TIP3    H143489   5.386   4.939   1.792  2.7369  0.9132 -0.9027
14516TIP3    H243490   5.471   4.835   1.722 -0.5146 -1.8411 -1.0172
14517TIP3   OH243491   1.234   4.608   0.236  0.0523  0.4582  0.0792
14517TIP3    H143492   1.277   4.594   0.320 -1.2167  0.2916  0.7346
14517TIP3    H243493   1.228   4.703   0.227  3.1863  0.6164 -1.4618
14518TIP3   OH243494   7.034   6.905   2.242 -0.1851  0.3416  0.3753
14518TIP3    H143495   7.077   6.910   2.328 -1.5075  1.2207  1.0202
14518TIP3    H243496   6.998   6.817   2.238  2.5101 -0.8491 -0.6565
14519TIP3   OH243497   2.386   4.233   3.612 -0.4076 -0.0399 -0.2941
14519TIP3    H143498   2.336   4.153   3.596 -0.4463 -0.3773  1.3087
14519TIP3    H243499   2.391   4.240   3.708  2.0670  0.3156 -0.3708
14520TIP3   OH243500   3.003   3.937   0.388 -0.2403  0.2683 -0.1432
14520TIP3    H143501   2.953   3.856   0.376 -0.0239  0.0240  0.5516
14520TIP3    H243502   2.939   4.006   0.375 -0.9484 -0.0441  1.3964
14521TIP3   OH243503   1.062   3.125   4.637 -0.0308 -0.2973 -0.7377
14521TIP3    H143504   1.106   3.204   4.608 -0.0401  0.0925  0.2606
14521TIP3    H243505   1.112   3.097   4.714 -1.1558 -0.1691  0.0718
14522TIP3   OH243506   3.755   2.953   3.441  0.0276  0.0779 -0.0234
14522TIP3    H143507   3.712   3.011   3.503 -1.3377  0.4929 -1.2955
14522TIP3    H243508   3.829   3.003   3.408  0.4026  0.0819  0.7874
14523TIP3   OH243509   5.871   2.407   6.827  0.2185  0.1608 -0.1060
14523TIP3    H143510   5.830   2.463   6.761 -0.1857 -0.5560 -0.4803
14523TIP3    H243511   5.801   2.391   6.891  0.9018  1.7249  1.1026
14524TIP3   OH243512   0.313   7.823   4.890 -0.1356 -0.4653 -0.0952
14524TIP3    H143513   0.319   7.910   4.851  0.3930 -0.4568 -0.0055
14524TIP3    H243514   0.385   7.820   4.954 -0.6653 -0.6632  0.5082
14525TIP3   OH243515   4.647   3.141   2.204  0.0437  0.1097  0.1778
14525TIP3    H143516   4.653   3.076   2.135  1.7762  1.4647 -1.0337
14525TIP3    H243517   4.565   3.187   2.187  0.1392  0.0019 -0.6069
14526TIP3   OH243518   7.549   4.659   4.014 -0.4943  0.5871  0.3156
14526TIP3    H143519   7.458   4.684   4.022 -0.7358 -0.3401  0.6262
14526TIP3    H243520   7.549   4.587   3.950  0.2813  1.8994 -1.2196
14527TIP3   OH243521   0.608   5.909   1.579 -0.0512 -0.5436  0.4409
14527TIP3    H143522   0.583   5.878   1.492 -1.3091 -0.4865  0.7679
14527TIP3    H243523   0.559   5.990   1.591  1.8743  0.7222  0.3027
14528TIP3   OH243524   1.333   1.372   1.568  0.1155 -0.2515  0.6228
14528TIP3    H143525   1.263   1.413   1.519  2.0051  2.1007 -0.3220
14528TIP3    H243526   1.303   1.375   1.659 -0.1769  2.8525  0.5600
14529TIP3   OH243527   5.451   6.424   2.858 -0.5735  0.0074 -0.3337
14529TIP3    H143528   5.520   6.426   2.792 -0.2950  0.0973 -0.0403
14529TIP3    H243529   5.403   6.506   2.845  0.3032  0.6654  0.4429
14530TIP3   OH243530   5.022   1.487   5.740  0.3193  0.1518 -0.7541
14530TIP3    H143531   4.953   1.421   5.736 -0.0909  0.6314 -2.9673
14530TIP3    H243532   5.016   1.523   5.828 -0.6175 -1.4986 -0.0864
14531TIP3   OH243533   6.998   4.008   0.991 -0.4647  0.4413 -0.5442
14531TIP3    H143534   6.954   4.056   1.061  1.1345  1.3835 -0.1228
14531TIP3    H243535   6.996   3.917   1.019 -0.6465  0.6877  0.2815
14532TIP3   OH243536   0.869   1.822   0.633  0.1368  0.0672 -0.4594
14532TIP3    H143537   0.774   1.821   0.643  0.0399 -0.2493 -1.3129
14532TIP3    H243538   0.885   1.770   0.555  0.9362  1.0061 -0.9455
14533TIP3   OH243539   4.606   2.955   1.992 -0.2788  0.2609 -0.6287
14533TIP3    H143540   4.686   2.947   1.941 -0.1116  1.1495 -0.5069
14533TIP3    H243541   4.541   2.988   1.931 -0.4573 -0.0733 -0.6254
14534TIP3   OH243542   4.728   2.910   5.018  0.7374  0.3653  0.6047
14534TIP3    H143543   4.814   2.896   5.059  0.1830 -0.8662  1.3712
14534TIP3    H243544   4.665   2.899   5.089 -0.1315  0.1193 -0.1930
14535TIP3   OH243545   6.474   4.854   1.390 -0.2830 -0.5342 -0.7491
14535TIP3    H143546   6.454   4.767   1.357  1.7613 -1.5685  0.5776
14535TIP3    H243547   6.545   4.885   1.335  1.2681 -1.1344  0.8426
14536TIP3   OH243548   1.071   5.521   1.258  0.7550 -0.1792  0.0729
14536TIP3    H143549   1.143   5.465   1.229  0.6408 -0.5546  0.4902
14536TIP3    H243550   1.114   5.592   1.307  0.8177 -0.7209  0.8271
14537TIP3   OH243551   2.339   4.247   4.112 -0.4301 -0.6053 -0.5774
14537TIP3    H143552   2.414   4.252   4.053 -0.7943 -0.8047 -1.0622
14537TIP3    H243553   2.341   4.156   4.144 -0.8661 -0.8083 -1.1242
14538TIP3   OH243554   3.133   3.489   6.837  0.6112  0.4827 -0.5434
14538TIP3    H143555   3.178   3.404   6.841  1.3182  0.8980  1.4910
14538TIP3    H243556   3.041   3.466   6.824  0.5147 -0.7621  1.6788
14539TIP3   OH243557   0.229   4.975   1.612  0.0902  0.0810 -0.1964
14539TIP3    H143558   0.295   4.922   1.566  0.2097  0.4926 -0.5157
14539TIP3    H243559   0.154   4.918   1.621  0.5497 -0.4531  0.3247
14540TIP3   OH243560   8.336   1.460   2.730 -0.0756 -0.4497 -0.3527
14540TIP3    H143561   8.290   1.532   2.687  0.7404 -0.2929 -0.9879
14540TIP3    H243562   8.385   1.417   2.660  0.8903 -0.4955  0.3258
14541TIP3   OH243563   3.290   5.814   2.394 -0.0082 -0.3412  0.4243
14541TIP3    H143564   3.303   5.777   2.481  1.3690 -1.5794 -0.2650
14541TIP3    H243565   3.296   5.909   2.408  1.5620 -0.5530  1.4978
14542TIP3   OH243566   0.544   4.346   6.354  0.5307  0.0193 -0.4376
14542TIP3    H143567   0.587   4.337   6.269 -0.2794  0.0602 -0.8646
14542TIP3    H243568   0.536   4.440   6.368 -0.6007  0.0338 -1.0000
14543TIP3   OH243569   6.066   2.757   1.439 -0.1512  0.0495  0.3873
14543TIP3    H143570   6.080   2.760   1.344 -0.8247  0.1248  0.2878
14543TIP3    H243571   6.147   2.792   1.476 -0.6571  2.0090 -0.2253
14544TIP3   OH243572   3.103   2.174   3.596  0.3762  0.0729 -0.2139
14544TIP3    H143573   3.038   2.173   3.667 -0.7418 -1.6687 -1.2019
14544TIP3    H243574   3.123   2.267   3.584 -0.7931  0.5394  1.1241
14545TIP3   OH243575   4.821   2.811   0.207  0.5376  0.6660  0.1329
14545TIP3    H143576   4.732   2.778   0.197  0.9859 -0.8931  1.0156
14545TIP3    H243577   4.877   2.734   0.198  1.6437  1.1704  2.1115
14546TIP3   OH243578   1.650   2.909   4.410  0.0404 -0.3233  0.0735
14546TIP3    H143579   1.701   2.934   4.333  1.2551  0.3069  1.0629
14546TIP3    H243580   1.584   2.978   4.417  1.8664  1.3999  1.3668
14547TIP3   OH243581   2.008   3.228   1.618  0.2989 -0.2322  0.3107
14547TIP3    H143582   1.959   3.234   1.536 -0.0029  0.7285  0.5583
14547TIP3    H243583   2.063   3.306   1.619 -1.5499  1.1327  2.2050
14548TIP3   OH243584   2.493   3.819   3.004 -0.5008 -0.6810 -0.2295
14548TIP3    H143585   2.455   3.737   2.973 -1.0800 -0.5193  0.0413
14548TIP3    H243586   2.421   3.881   3.002  0.0928 -0.0112 -1.0375
14549TIP3   OH243587   5.023   1.403   3.570 -0.0298  0.1820 -0.3140
14549TIP3    H143588   5.098   1.414   3.628  0.8623 -0.0479 -1.3978
14549TIP3    H243589   4.956   1.462   3.606 -0.0963 -1.1172  1.8711
14550TIP3   OH243590   0.003   0.082   5.125 -0.3178  0.1645 -0.4588
14550TIP3    H143591   0.037   0.043   5.045  0.4764 -1.4957  0.6288
14550TIP3    H243592   0.079   0.120   5.169 -0.8795  1.8429 -0.8566
14551TIP3   OH243593   7.696   5.969   6.269  0.6612 -0.2416 -0.3269
14551TIP3    H143594   7.719   6.040   6.329  1.0906 -0.5197 -0.1595
14551TIP3    H243595   7.757   5.979   6.196  0.5155 -0.2558 -0.4531
14552TIP3   OH243596   7.568   1.468   4.293 -0.1460 -0.0724  0.2129
14552TIP3    H143597   7.638   1.416   4.334  0.8145 -0.3624 -1.6875
14552TIP3    H243598   7.496   1.406   4.282 -0.6474  0.1524  1.9157
14553TIP3   OH243599   6.978   4.193   6.248 -0.4118  0.1717  0.0964
14553TIP3    H143600   7.033   4.218   6.174 -0.5037 -1.2103 -0.4710
14553TIP3    H243601   7.038   4.152   6.310 -0.6212 -0.4611 -0.1021
14554TIP3   OH243602   5.039   6.346   1.995  0.6320  0.6789 -0.2465
14554TIP3    H143603   5.075   6.294   1.923  2.0650  1.5272 -0.1673
14554TIP3    H243604   5.055   6.437   1.969 -1.8005  1.1399 -0.3706
14555TIP3   OH243605   5.937   7.478   2.306 -0.1385  0.3514  0.0334
14555TIP3    H143606   5.881   7.431   2.369 -0.5223  0.1703 -0.4366
14555TIP3    H243607   6.006   7.414   2.284 -0.8174 -0.1131 -0.8187
14556TIP3   OH243608   5.363   2.068   6.759  0.4051 -0.1108 -0.1312
14556TIP3    H143609   5.315   2.105   6.685  1.5053 -1.0967 -1.3916
14556TIP3    H243610   5.377   1.976   6.734 -0.1595 -0.7826  1.8149
14557TIP3   OH243611   5.603   0.135   5.066 -0.2779 -0.0071 -0.1153
14557TIP3    H143612   5.655   0.211   5.092 -2.2088  1.1109  0.6816
14557TIP3    H243613   5.668   0.071   5.036  1.4643  1.6372 -0.0553
14558TIP3   OH243614   7.863   6.813   6.051 -0.0607  0.0882 -0.4976
14558TIP3    H143615   7.856   6.717   6.042  3.5574 -0.3381 -0.2237
14558TIP3    H243616   7.913   6.840   5.975  2.4090  1.1208  1.3789
14559TIP3   OH243617   0.022   6.621   6.091 -0.1610  0.4140  0.0104
14559TIP3    H143618   0.109   6.594   6.120 -0.4508 -1.3818 -0.6569
14559TIP3    H243619  -0.038   6.581   6.154 -0.5442  0.7267 -0.1543
14560TIP3   OH243620   6.493   3.168   3.496  0.3181 -0.0173  0.5748
14560TIP3    H143621   6.432   3.099   3.468 -0.6322  1.1932 -0.4697
14560TIP3    H243622   6.518   3.212   3.415  0.8083  0.9393  1.2324
14561TIP3   OH243623   3.128   4.311   0.110 -0.7854 -0.6848  0.4385
14561TIP3    H143624   3.114   4.217   0.123  1.8145 -1.2796 -0.4109
14561TIP3    H243625   3.114   4.350   0.196  0.5310 -2.2406  1.4056
14562TIP3   OH243626   6.991   4.196   4.631 -0.2934  0.3931  0.9529
14562TIP3    H143627   7.007   4.139   4.707 -0.4179 -1.7798 -0.5485
14562TIP3    H243628   6.898   4.217   4.636 -0.7711 -1.4280  0.3603
14563TIP3   OH243629   4.230   0.218   0.790  0.1068  0.3652  0.3612
14563TIP3    H143630   4.150   0.166   0.782  0.7568 -0.6231  0.0021
14563TIP3    H243631   4.255   0.208   0.882 -1.5668  2.8648  1.1968
14564TIP3   OH243632   1.892   3.713   0.376  0.2472  1.0128 -0.1299
14564TIP3    H143633   1.936   3.738   0.457  1.6641  0.9742 -0.8502
14564TIP3    H243634   1.801   3.740   0.388  0.1502 -0.0229  1.9064
14565TIP3   OH243635   3.540   6.605   1.990 -0.5181  0.8552  0.2069
14565TIP3    H143636   3.477   6.542   1.954 -0.0518  0.6704 -0.3020
14565TIP3    H243637   3.566   6.568   2.074  0.1731  0.0672 -0.3342
14566TIP3   OH243638   8.200   3.621   3.830  0.7381 -0.2599  0.0336
14566TIP3    H143639   8.246   3.540   3.850  0.0470 -0.3399  1.4471
14566TIP3    H243640   8.159   3.606   3.744  0.4953 -1.4703  0.3483
14567TIP3   OH243641   4.574   0.924   2.331 -0.2288 -0.4914  0.1802
14567TIP3    H143642   4.657   0.902   2.289  0.5698 -1.6974  2.2758
14567TIP3    H243643   4.564   0.860   2.401 -1.8242  1.0157  1.4238
14568TIP3   OH243644   2.788   2.234   3.542  0.1708 -0.7197  0.3824
14568TIP3    H143645   2.738   2.154   3.525  0.2328 -1.6032  3.7075
14568TIP3    H243646   2.877   2.203   3.561  0.4600  0.2480  0.6641
14569TIP3   OH243647   3.122   1.994   4.328 -0.2348 -0.4720  0.1375
14569TIP3    H143648   3.087   1.906   4.318 -0.1444 -0.5287  0.3142
14569TIP3    H243649   3.202   1.994   4.276  0.8547 -1.1203  1.7383
14570TIP3   OH243650   3.911   0.714   5.479  0.6211  0.0587 -0.8832
14570TIP3    H143651   3.994   0.757   5.499  1.3790 -0.8110 -2.0201
14570TIP3    H243652   3.917   0.628   5.522  0.2223  0.0645 -0.8070
14571TIP3   OH243653   5.441   0.328   0.519  0.0207  0.4565  0.2208
14571TIP3    H143654   5.501   0.266   0.477  1.0696  2.0072 -0.6549
14571TIP3    H243655   5.423   0.289   0.605  0.6517 -1.0416 -0.2903
14572TIP3   OH243656   2.284   7.754   1.897  0.1244  0.3313 -0.1862
14572TIP3    H143657   2.299   7.661   1.880  2.1843  0.8449 -1.6214
14572TIP3    H243658   2.290   7.763   1.992  0.2252 -0.9614 -0.0597
14573TIP3   OH243659   0.688   5.436   0.549  0.4032  0.2630 -0.2596
14573TIP3    H143660   0.690   5.412   0.642  1.5972  0.5856 -0.1823
14573TIP3    H243661   0.700   5.531   0.548  1.7315  0.1113 -0.7752
14574TIP3   OH243662   5.936   7.634   1.933 -0.2615  0.1593 -0.5826
14574TIP3    H143663   6.029   7.642   1.951 -0.1677 -0.8405 -0.5849
14574TIP3    H243664   5.895   7.624   2.019 -0.1417 -1.4442 -0.6880
14575TIP3   OH243665   6.431   5.973   2.991  0.5094  0.5899  0.0159
14575TIP3    H143666   6.504   6.001   3.046  0.0160  1.3759  0.2861
14575TIP3    H243667   6.357   6.025   3.022 -0.6483 -1.5701  1.0888
14576TIP3   OH243668   7.981   7.399   0.483 -0.5021  0.2792  0.1203
14576TIP3    H143669   7.996   7.482   0.528 -2.7418  0.9548 -0.2406
14576TIP3    H243670   7.977   7.423   0.390  2.7598 -0.8957 -0.4716
14577TIP3   OH243671   5.972   4.666   5.495 -0.2304  0.0880  0.0622
14577TIP3    H143672   6.036   4.608   5.455 -0.2396 -2.0580  2.8436
14577TIP3    H243673   6.023   4.737   5.533  0.7362 -1.8680  2.7047
14578TIP3   OH243674   7.731   6.340   6.402 -0.1371  0.3460  0.0826
14578TIP3    H143675   7.664   6.387   6.451 -1.8261 -0.6487 -1.1793
14578TIP3    H243676   7.693   6.325   6.316  0.7817 -2.2457  0.0376
14579TIP3   OH243677   4.826   2.757   3.707  0.5139 -0.1106 -0.2215
14579TIP3    H143678   4.883   2.693   3.666 -0.4261 -0.3029 -1.2706
14579TIP3    H243679   4.821   2.830   3.645 -1.1866 -0.5474 -0.6623
14580TIP3   OH243680   7.053   7.205   4.769 -0.0805 -0.2917 -0.1146
14580TIP3    H143681   6.979   7.157   4.806 -0.4829 -0.3453 -0.9601
14580TIP3    H243682   7.037   7.296   4.792  0.4535 -0.4985  1.1151
14581TIP3   OH243683   8.142   4.409   6.084  0.0672  0.3017  0.5042
14581TIP3    H143684   8.080   4.428   6.155  0.3926  4.4660 -0.0965
14581TIP3    H243685   8.106   4.453   6.008  1.3727 -1.3546 -1.1642
14582TIP3   OH243686   1.444   3.876   5.789 -0.2319 -0.0044  0.1960
14582TIP3    H143687   1.495   3.811   5.837  0.4730 -0.4418 -1.1073
14582TIP3    H243688   1.449   3.848   5.698 -1.6830  0.7134 -0.1288
14583TIP3   OH243689   4.001   2.228   1.814  0.2428 -0.4708 -0.0330
14583TIP3    H143690   3.919   2.277   1.803  0.6655  0.1927 -0.2632
14583TIP3    H243691   3.974   2.136   1.809 -0.3362 -0.2566 -1.2597
14584TIP3   OH243692   1.865   6.126   3.088  0.0025  0.3651 -0.5096
14584TIP3    H143693   1.840   6.213   3.120 -0.4142 -0.5686  1.8583
14584TIP3    H243694   1.950   6.109   3.129  0.2305 -0.2419 -1.2021
14585TIP3   OH243695   3.299   5.515   2.319 -0.1295 -0.1652  0.0400
14585TIP3    H143696   3.305   5.610   2.323 -0.2578 -0.1081 -0.9670
14585TIP3    H243697   3.382   5.487   2.281  0.3313 -0.5419  1.2794
14586TIP3   OH243698   3.254   5.518   4.560  0.4930 -0.1148  0.7775
14586TIP3    H143699   3.161   5.501   4.546  0.6446 -0.8328  0.6076
14586TIP3    H243700   3.279   5.574   4.486  0.3395 -0.4383  0.4803
14587TIP3   OH243701   4.873   2.503   4.531 -0.1745 -0.6673 -0.6730
14587TIP3    H143702   4.923   2.422   4.520  2.1762  0.5673  0.1226
14587TIP3    H243703   4.827   2.514   4.448 -0.0768 -2.4855 -1.0170
14588TIP3   OH243704   2.326   4.317   2.499 -0.6601  0.0357  0.1974
14588TIP3    H143705   2.390   4.257   2.538 -1.1738 -1.2494 -0.8634
14588TIP3    H243706   2.243   4.294   2.540 -0.5104  1.6831  1.5502
14589TIP3   OH243707   1.006   3.270   5.025 -0.9577 -0.6789 -0.2458
14589TIP3    H143708   1.062   3.228   4.960  0.1064  0.6537 -0.2351
14589TIP3    H243709   0.944   3.202   5.052  0.6807 -2.2121 -0.2225
14590TIP3   OH243710   0.346   4.638   6.043  0.7289  0.0550 -0.0762
14590TIP3    H143711   0.322   4.714   6.096 -1.0634  0.1468 -0.9585
14590TIP3    H243712   0.382   4.674   5.963  2.1747 -0.0780  0.4853
14591TIP3   OH243713   3.936   5.705   4.562  0.2056  0.4871  0.2238
14591TIP3    H143714   3.894   5.647   4.499 -1.3598  1.3684  0.3956
14591TIP3    H243715   4.002   5.650   4.605  0.3128 -0.5203 -1.1498
14592TIP3   OH243716   6.902   5.574   4.868  0.1303 -0.1882 -0.3262
14592TIP3    H143717   6.925   5.632   4.940 -1.2379  0.5838 -0.4645
14592TIP3    H243718   6.984   5.530   4.845  1.4159  2.2485 -0.7193
14593TIP3   OH243719   2.146   2.789   2.619  0.0321  0.1422  0.1071
14593TIP3    H143720   2.106   2.705   2.642 -0.1959  0.2687  0.1841
14593TIP3    H243721   2.231   2.767   2.583 -0.7003 -0.2536 -1.4866
14594TIP3   OH243722   8.262   1.069   4.821 -0.0523  0.2661 -0.0821
14594TIP3    H143723   8.341   1.029   4.858 -0.8733  0.2637  1.7892
14594TIP3    H243724   8.201   1.073   4.895 -1.2641  1.6793 -1.1159
14595TIP3   OH243725   2.287   4.936   5.652  0.9902 -0.4833  0.1923
14595TIP3    H143726   2.335   4.856   5.672  1.7202 -0.6307 -1.8942
14595TIP3    H243727   2.343   4.983   5.590  0.0183  1.0624  0.4166
14596TIP3   OH243728   5.093   3.943   5.798  0.2634  0.4994 -0.4495
14596TIP3    H143729   5.173   3.974   5.756  0.6823  1.0196  0.6878
14596TIP3    H243730   5.028   3.942   5.728  1.4222 -0.6250 -1.5634
14597TIP3   OH243731   2.732   1.951   4.242 -0.2387  0.6084  0.3546
14597TIP3    H143732   2.801   1.884   4.247 -2.1481 -1.5525 -0.4513
14597TIP3    H243733   2.779   2.033   4.234  2.2876 -0.3748  3.2570
14598TIP3   OH243734   0.130   0.651   2.678  0.0243 -0.6414 -0.7976
14598TIP3    H143735   0.057   0.711   2.660  2.8872  2.9973 -1.4799
14598TIP3    H243736   0.127   0.638   2.773 -1.7711 -1.0205 -0.8720
14599TIP3   OH243737   5.573   6.741   1.213 -0.1106 -0.4583 -0.5708
14599TIP3    H143738   5.615   6.739   1.300  0.8374  0.1206 -0.9903
14599TIP3    H243739   5.508   6.811   1.220 -1.9047 -2.1453  0.4513
14600TIP3   OH243740   1.971   1.033   1.572  0.7708  0.1564  0.5585
14600TIP3    H143741   2.006   1.021   1.660 -0.3279  1.2239  1.1719
14600TIP3    H243742   1.899   0.970   1.566  0.6776  0.2675  0.5148
14601TIP3   OH243743   1.639   7.286   0.304  0.4173 -0.5872 -0.0893
14601TIP3    H143744   1.599   7.343   0.371 -0.6382 -1.5169  0.0987
14601TIP3    H243745   1.616   7.198   0.331 -0.6455 -0.9641 -2.0826
14602TIP3   OH243746   4.176   0.078   2.941  0.3075 -0.4169  0.1355
14602TIP3    H143747   4.220   0.160   2.920  1.0711 -1.0038 -0.6334
14602TIP3    H243748   4.183   0.026   2.860  0.3947 -1.4749  0.8055
14603TIP3   OH243749   2.410   3.259   1.522 -0.0612  0.4250  0.6221
14603TIP3    H143750   2.407   3.184   1.462 -0.1425  0.7630  0.1976
14603TIP3    H243751   2.492   3.304   1.499 -1.4389  2.1596 -1.2161
14604TIP3   OH243752   8.101   5.762   3.523 -0.1245  0.0050 -0.3610
14604TIP3    H143753   8.082   5.813   3.445 -1.2446 -0.3393 -0.3424
14604TIP3    H243754   8.102   5.671   3.492 -2.1009 -0.2783  0.2242
14605TIP3   OH243755   1.813   7.270   2.085  0.1131  0.4841 -0.3463
14605TIP3    H143756   1.728   7.230   2.067 -0.2591  0.5379  1.1952
14605TIP3    H243757   1.792   7.359   2.112  0.4992  0.0487  1.5538
14606TIP3   OH243758   5.121   7.217   4.928  0.5114  0.1089 -0.4550
14606TIP3    H143759   5.190   7.151   4.939  0.3399  0.1528  1.0619
14606TIP3    H243760   5.097   7.241   5.017 -1.7017 -0.1404 -0.9378
14607TIP3   OH243761   5.152   6.465   0.258  0.6505 -0.5863  0.1831
14607TIP3    H143762   5.068   6.421   0.243  1.8985 -2.3805 -2.3334
14607TIP3    H243763   5.151   6.539   0.197  1.6344 -1.8493 -1.4679
14608TIP3   OH243764   3.197   2.614   5.530 -0.1498 -0.0313  0.0325
14608TIP3    H143765   3.191   2.624   5.625  0.4525  0.3561  0.0294
14608TIP3    H243766   3.105   2.607   5.502 -0.3519  0.2954  0.5877
14609TIP3   OH243767   5.205   0.098   5.924 -0.0964 -0.0509 -0.3422
14609TIP3    H143768   5.219   0.081   6.017  0.3954  0.1386 -0.3837
14609TIP3    H243769   5.149   0.025   5.895  1.6590 -1.4292 -0.4232
14610TIP3   OH243770   5.666   6.236   2.866  0.6453 -0.2978 -0.0279
14610TIP3    H143771   5.684   6.286   2.786  2.2560 -0.2592  0.3318
14610TIP3    H243772   5.588   6.278   2.902  1.5025  1.5013 -0.1440
14611TIP3   OH243773   0.728   7.463   1.519  0.3627 -0.1200 -0.0445
14611TIP3    H143774   0.735   7.385   1.464  4.5221 -0.3353  0.4920
14611TIP3    H243775   0.726   7.429   1.609  0.5154  0.3918  0.1546
14612TIP3   OH243776   3.144   6.672   3.444  0.6256 -0.4617  0.5125
14612TIP3    H143777   3.222   6.701   3.396  0.1499  2.9139  1.5041
14612TIP3    H243778   3.076   6.734   3.418 -1.7691 -3.2016 -0.1887
14613TIP3   OH243779   1.499   4.879   0.540  0.4536  0.3004  0.2782
14613TIP3    H143780   1.520   4.864   0.632  1.1381  1.6562  0.3727
14613TIP3    H243781   1.469   4.970   0.537 -2.7346 -0.6594 -0.3488
14614TIP3   OH243782   1.159   6.983   6.688  0.5687 -0.4895 -0.1829
14614TIP3    H143783   1.234   6.970   6.745  1.9410 -0.1985 -1.8311
14614TIP3    H243784   1.162   6.908   6.628 -0.3803 -0.4093 -0.3459
14615TIP3   OH243785   2.510   4.545   6.155 -0.0380 -0.4235 -0.4588
14615TIP3    H143786   2.518   4.475   6.090 -0.9607  0.0849 -1.1460
14615TIP3    H243787   2.570   4.613   6.125 -1.1659  0.2187 -1.3636
14616TIP3   OH243788   3.551   3.950   5.780  0.1803 -0.0743  0.0017
14616TIP3    H143789   3.497   4.011   5.831  0.9186  0.6850 -0.0969
14616TIP3    H243790   3.498   3.931   5.703 -0.3731 -0.1559  0.3915
14617TIP3   OH243791   3.141   1.868   0.039 -0.3334  0.1104 -0.4188
14617TIP3    H143792   3.231   1.901   0.039  0.2825 -1.4647 -0.5850
14617TIP3    H243793   3.119   1.856   0.131 -0.4714  0.7185 -0.3686
14618TIP3   OH243794   3.989   1.181   6.449 -0.6032  0.1013 -0.1667
14618TIP3    H143795   4.030   1.107   6.493 -0.6099  0.0886 -0.1821
14618TIP3    H243796   3.898   1.155   6.438 -0.7747  0.4010  0.4813
14619TIP3   OH243797   3.006   3.048   2.264 -0.1584 -0.1370  1.0368
14619TIP3    H143798   3.051   2.987   2.206 -0.4751 -1.0940  1.7811
14619TIP3    H243799   2.921   3.063   2.223  0.1917  0.3785  0.4853
14620TIP3   OH243800   6.928   7.242   3.056  0.0508  0.2228 -0.1158
14620TIP3    H143801   6.967   7.166   3.013 -1.7328 -0.2359 -0.9832
14620TIP3    H243802   6.968   7.317   3.011 -0.9116 -0.2442 -1.8550
14621TIP3   OH243803   1.293   0.880   1.128  0.3904  0.0807 -0.5152
14621TIP3    H143804   1.282   0.898   1.222 -2.7066 -0.6217 -0.6420
14621TIP3    H243805   1.367   0.936   1.102  1.2692  0.3916  2.2799
14622TIP3   OH243806   6.736   7.317   2.275  0.0565  0.1142  0.4945
14622TIP3    H143807   6.724   7.364   2.357  0.3140  1.2588 -0.0923
14622TIP3    H243808   6.648   7.295   2.246 -0.0758  0.3210  0.7405
14623TIP3   OH243809   3.128   0.578   2.556  0.4502 -0.1903 -0.4905
14623TIP3    H143810   3.218   0.585   2.589  0.7429 -0.6925 -1.1565
14623TIP3    H243811   3.128   0.499   2.503 -0.8734 -1.2106  0.9553
14624TIP3   OH243812   3.965   6.410   4.590  0.2138 -0.6196 -0.1489
14624TIP3    H143813   4.044   6.420   4.644  0.5784  4.3740 -1.1195
14624TIP3    H243814   3.999   6.403   4.501 -0.4615 -1.3535 -0.3573
14625TIP3   OH243815   1.294   5.329   3.486 -0.1784  0.0632 -0.1349
14625TIP3    H143816   1.312   5.408   3.538 -0.6080 -0.0434  0.1761
14625TIP3    H243817   1.221   5.355   3.430 -0.3862 -0.1439  0.0396
14626TIP3   OH243818   5.677   7.121   1.815 -0.6677  0.0792  0.0127
14626TIP3    H143819   5.697   7.183   1.745 -1.6599 -1.2751 -1.5668
14626TIP3    H243820   5.581   7.119   1.818 -0.6546 -1.1702  0.1726
14627TIP3   OH243821   3.853   6.871   3.827  0.0214 -0.4942 -0.4002
14627TIP3    H143822   3.776   6.882   3.772  0.3036  3.4934 -0.2890
14627TIP3    H243823   3.927   6.885   3.769  0.5514 -1.0188  0.1266
14628TIP3   OH243824   1.197   2.216   1.030  0.2925 -0.3175  0.1919
14628TIP3    H143825   1.260   2.252   1.093  0.4150 -0.4205  0.1298
14628TIP3    H243826   1.113   2.222   1.075  0.4700 -1.0145  0.6432
14629TIP3   OH243827   6.988   5.926   1.185 -0.0334  0.3136  0.2188
14629TIP3    H143828   7.081   5.938   1.204 -0.1654  0.5119  0.7793
14629TIP3    H243829   6.950   6.013   1.196 -0.3237  0.1876  0.2313
14630TIP3   OH243830   5.290   5.493   5.628  0.3989  0.0867  0.0326
14630TIP3    H143831   5.261   5.402   5.636  2.1600 -0.4961  0.1940
14630TIP3    H243832   5.385   5.488   5.621  0.8999  2.0661  3.3147
14631TIP3   OH243833   3.968   4.558   0.328  0.2090 -0.5161 -0.3101
14631TIP3    H143834   4.054   4.518   0.318  0.4992  0.1159 -0.3278
14631TIP3    H243835   3.907   4.489   0.300  0.7378 -0.6837 -1.0752
14632TIP3   OH243836   3.192   5.326   0.031 -0.2557  0.4417 -0.6729
14632TIP3    H143837   3.217   5.409   0.072  1.9680 -0.5665  0.1080
14632TIP3    H243838   3.202   5.261   0.100 -0.6488 -0.6868 -1.6513
14633TIP3   OH243839   5.071   7.039   2.562  0.2516  0.6541 -0.6893
14633TIP3    H143840   5.008   7.085   2.616 -0.7213 -0.6447 -0.6578
14633TIP3    H243841   5.145   7.023   2.620 -0.7008 -0.5566  0.2539
14634TIP3   OH243842   6.504   4.607   4.048 -0.2040  0.1299  0.5317
14634TIP3    H143843   6.538   4.520   4.029  1.5028  1.4745 -3.7478
14634TIP3    H243844   6.409   4.595   4.051  0.0380 -2.0075  1.1623
14635TIP3   OH243845   6.982   1.487   4.083 -0.5870  0.0288  0.3620
14635TIP3    H143846   6.903   1.459   4.128 -0.1036 -2.6904 -0.2908
14635TIP3    H243847   7.005   1.413   4.026  2.6248  0.5262  0.8091
14636TIP3   OH243848   4.560   3.637   2.689 -0.7626 -0.5544 -0.4407
14636TIP3    H143849   4.482   3.693   2.686  1.2900  2.6860  0.5293
14636TIP3    H243850   4.563   3.605   2.779  0.2278  1.4582  0.3224
14637TIP3   OH243851   6.604   6.404   2.918 -0.0981 -0.2310 -0.1701
14637TIP3    H143852   6.664   6.360   2.979  1.2368  1.3427 -0.3019
14637TIP3    H243853   6.517   6.377   2.948  0.5333 -0.0006  2.0837
14638TIP3   OH243854   6.735   5.725   6.756 -0.7224  0.2482 -0.5486
14638TIP3    H143855   6.741   5.783   6.680  0.1583 -0.3146 -0.9212
14638TIP3    H243856   6.809   5.665   6.747  0.0824  0.8746  1.3607
14639TIP3   OH243857   4.729   3.543   2.378 -0.5784 -0.4286  0.5669
14639TIP3    H143858   4.804   3.566   2.433  1.3735 -3.4943 -0.5919
14639TIP3    H243859   4.675   3.486   2.432 -2.3576  1.9624  1.4831
14640TIP3   OH243860   5.931   2.448   5.520  0.8320  0.4661 -0.1552
14640TIP3    H143861   5.858   2.494   5.479 -0.3652 -0.4862  0.8254
14640TIP3    H243862   5.997   2.442   5.451  0.6728  2.7878 -0.5758
14641TIP3   OH243863   5.512   3.378   0.319 -0.8487  0.0761 -0.1815
14641TIP3    H143864   5.565   3.315   0.270 -1.5660 -1.7236  1.2761
14641TIP3    H243865   5.423   3.364   0.288 -1.2753 -0.9019  1.3889
14642TIP3   OH243866   5.952   6.254   3.368  0.0324  0.6591  0.2699
14642TIP3    H143867   5.860   6.249   3.340 -0.0124  0.7221  0.4062
14642TIP3    H243868   5.968   6.170   3.411 -0.1372  0.8851  0.7811
14643TIP3   OH243869   8.096   7.552   3.812  0.4247  0.0965  0.0160
14643TIP3    H143870   8.054   7.532   3.895 -0.3422 -0.5277 -0.5121
14643TIP3    H243871   8.067   7.641   3.791 -0.5098 -0.2702 -0.2642
14644TIP3   OH243872   7.552   3.593   2.955 -0.4317 -0.4838  0.1828
14644TIP3    H143873   7.515   3.677   2.981 -1.3425  0.0491 -2.4741
14644TIP3    H243874   7.643   3.596   2.984 -0.6444  1.0996  0.7826
14645TIP3   OH243875   7.420   2.912   6.051  0.2442  0.1915 -0.3661
14645TIP3    H143876   7.396   2.901   6.144  1.0418  0.8740 -0.0662
14645TIP3    H243877   7.340   2.890   6.003 -0.5537  1.0263  0.5377
14646TIP3   OH243878   1.808   5.765   6.705 -0.5556  0.2182  0.5898
14646TIP3    H143879   1.889   5.787   6.750 -0.7205 -0.6144  1.3164
14646TIP3    H243880   1.834   5.700   6.639 -0.5665  0.2467  0.5577
14647TIP3   OH243881   1.834   4.980   0.691 -0.4039  0.5655  0.0777
14647TIP3    H143882   1.926   5.001   0.706  0.5149 -2.8623  0.0669
14647TIP3    H243883   1.823   4.985   0.596 -0.0338  0.3918  0.0225
14648TIP3   OH243884   5.732   7.769   1.262 -0.6200 -0.0161 -0.3310
14648TIP3    H143885   5.773   7.682   1.266 -0.0284  0.2883  0.4746
14648TIP3    H243886   5.797   7.824   1.218 -0.2609  0.4008  0.6928
14649TIP3   OH243887   2.713   4.029   0.211 -0.1769  0.0734 -0.1921
14649TIP3    H143888   2.766   4.103   0.238 -1.1240  0.2640  1.3210
14649TIP3    H243889   2.634   4.068   0.173 -0.2688 -0.1704 -0.2574
14650TIP3   OH243890   6.649   5.623   4.883  0.8721 -0.3924 -0.1901
14650TIP3    H143891   6.664   5.714   4.857  0.5800  0.0732  1.1832
14650TIP3    H243892   6.736   5.586   4.895  1.0628  0.6833  2.3808
14651TIP3   OH243893   5.318   4.405   5.514 -0.2972 -0.0203  0.5996
14651TIP3    H143894   5.229   4.440   5.510 -0.3580 -0.1292  0.9579
14651TIP3    H243895   5.374   4.482   5.505 -0.3659 -0.2190 -2.6406
14652TIP3   OH243896   1.889   0.455   3.002  0.9355 -0.4850  0.7790
14652TIP3    H143897   1.869   0.384   3.063  1.0968 -1.4951 -0.2895
14652TIP3    H243898   1.817   0.517   3.012  0.3558 -1.2049  1.1620
14653TIP3   OH243899   1.248   3.940   1.452 -0.4178 -0.0321  0.2155
14653TIP3    H143900   1.332   3.950   1.497 -0.4026  1.1397 -0.0449
14653TIP3    H243901   1.230   4.026   1.414 -0.7868 -0.7876 -1.4161
14654TIP3   OH243902   1.729   2.697   1.401 -0.0224 -0.0399  0.3877
14654TIP3    H143903   1.733   2.791   1.413  1.4395 -0.0846  0.4167
14654TIP3    H243904   1.794   2.678   1.333 -0.3808 -1.0039  0.2919
14655TIP3   OH243905   6.533   3.116   3.759  0.7605 -0.3002  0.2030
14655TIP3    H143906   6.581   3.033   3.762 -1.1952 -1.4860  0.1237
14655TIP3    H243907   6.538   3.144   3.667  2.0094  0.0804  0.3604
14656TIP3   OH243908   2.883   6.339   6.149  0.0569  0.9844  0.3106
14656TIP3    H143909   2.862   6.431   6.132  1.0310  1.7771  2.8687
14656TIP3    H243910   2.808   6.307   6.199  0.1475  0.6685  0.2432
14657TIP3   OH243911   1.382   5.115   6.040  0.4181 -0.1427  0.1667
14657TIP3    H143912   1.423   5.119   6.126  1.0015  0.2608 -0.1210
14657TIP3    H243913   1.394   5.203   6.004 -0.0842 -0.2219 -0.2071
14658TIP3   OH243914   3.051   7.727   4.336 -0.8675  0.1161  0.1727
14658TIP3    H143915   3.146   7.735   4.338 -0.8079 -0.3510 -0.3822
14658TIP3    H243916   3.022   7.799   4.281 -0.4795 -2.1019 -3.2306
14659TIP3   OH243917   6.714   2.058   1.351  0.3252 -0.1355 -0.2551
14659TIP3    H143918   6.682   2.041   1.262  0.6856 -2.1037 -0.0717
14659TIP3    H243919   6.749   2.147   1.348  0.8636 -0.3653 -2.2679
14660TIP3   OH243920   5.699   7.680   3.915 -0.1747  0.0580 -0.0343
14660TIP3    H143921   5.702   7.698   4.009  0.5579  1.5346 -0.3059
14660TIP3    H243922   5.790   7.662   3.891  0.1617  2.5332 -0.9233
14661TIP3   OH243923   7.318   2.054   6.521 -0.2426  0.3400 -0.3250
14661TIP3    H143924   7.277   2.119   6.577  1.4152  1.2533 -0.0958
14661TIP3    H243925   7.312   1.972   6.571 -1.1597  0.5907 -0.0159
14662TIP3   OH243926   1.765   4.618   0.587  0.3673 -0.7844 -0.1396
14662TIP3    H143927   1.764   4.524   0.607 -1.3225 -0.4971  1.4161
14662TIP3    H243928   1.683   4.634   0.540 -1.0139  0.3704  2.4531
14663TIP3   OH243929   2.170   3.788   2.825  0.5552 -0.3584  0.3504
14663TIP3    H143930   2.186   3.696   2.842  1.4598  0.0627  2.0790
14663TIP3    H243931   2.203   3.833   2.903  1.6706  1.5638 -1.1256
14664TIP3   OH243932   3.241   2.079   5.985 -0.1185 -0.5103 -0.0482
14664TIP3    H143933   3.220   2.154   5.930 -2.0737 -1.1132 -0.2217
14664TIP3    H243934   3.160   2.028   5.988  0.3678 -1.2994  2.1426
14665TIP3   OH243935   5.509   6.757   4.216 -0.3869  0.0789 -0.3062
14665TIP3    H143936   5.560   6.719   4.288  1.3226  0.0082 -1.4778
14665TIP3    H243937   5.455   6.685   4.184 -0.3592 -0.1815  0.2184
14666TIP3   OH243938   3.804   6.304   5.640  0.2286  0.3127 -0.6269
14666TIP3    H143939   3.836   6.383   5.684  1.4773 -0.9404  0.8459
14666TIP3    H243940   3.884   6.256   5.617 -0.4934 -0.4180 -1.7149
14667TIP3   OH243941   6.010   5.094   6.803 -0.5059 -0.1810  0.0078
14667TIP3    H143942   6.086   5.121   6.751 -1.0243 -0.4498 -0.9077
14667TIP3    H243943   5.951   5.052   6.740 -1.2567 -0.3046  0.7714
14668TIP3   OH243944   8.301   2.841   2.197 -0.0130 -0.3026 -0.3949
14668TIP3    H143945   8.306   2.775   2.128 -3.2057 -1.4595  0.3008
14668TIP3    H243946   8.216   2.882   2.186  0.5392  1.4484  1.2040
14669TIP3   OH243947   2.210   1.798   0.952  0.1965  0.2787 -0.4519
14669TIP3    H143948   2.289   1.825   0.906  0.7834  0.9405  0.8989
14669TIP3    H243949   2.158   1.878   0.960 -0.7453 -0.1981 -1.5440
14670TIP3   OH243950   3.947   5.472   3.860  0.3864  0.2434 -0.0273
14670TIP3    H143951   3.963   5.394   3.914 -1.5335 -0.6466 -0.6132
14670TIP3    H243952   3.974   5.545   3.915  2.7523 -0.8094  0.3526
14671TIP3   OH243953   1.066   6.054   3.598  0.0507  0.0809  0.1474
14671TIP3    H143954   0.985   6.104   3.592  0.8993  1.5451  0.3825
14671TIP3    H243955   1.041   5.965   3.572 -1.4259  0.7030 -0.7210
14672TIP3   OH243956   2.689   2.540   6.019 -0.7208 -0.2981 -0.2544
14672TIP3    H143957   2.610   2.498   5.984 -0.0362 -0.4257 -1.7071
14672TIP3    H243958   2.671   2.634   6.015 -0.8328 -0.3299 -0.5181
14673TIP3   OH243959   5.842   1.744   2.199 -0.2167  0.0508  0.0110
14673TIP3    H143960   5.889   1.828   2.202  0.7571 -0.5019  1.5340
14673TIP3    H243961   5.868   1.700   2.280 -0.6240 -1.7668 -0.8063
14674TIP3   OH243962   7.414   5.568   3.398 -0.4697  0.4888  0.1995
14674TIP3    H143963   7.465   5.644   3.423  0.5115 -0.6695  1.9165
14674TIP3    H243964   7.418   5.566   3.302  3.3297  0.1005  0.2211
14675TIP3   OH243965   5.666   1.623   3.055 -0.4894 -0.1710  0.5122
14675TIP3    H143966   5.706   1.693   3.003  0.8368 -0.8360  0.6074
14675TIP3    H243967   5.602   1.668   3.111  1.2007  1.1557  1.4589
14676TIP3   OH243968   6.431   0.646   0.523 -0.1899  0.4049 -0.0249
14676TIP3    H143969   6.468   0.692   0.448  1.1887 -1.4180 -0.5391
14676TIP3    H243970   6.379   0.575   0.485 -2.1763  1.3734  0.7445
14677TIP3   OH243971   3.415   1.082   0.882 -0.2032 -0.4501 -0.3776
14677TIP3    H143972   3.376   1.100   0.968  2.0227  1.4396  0.3431
14677TIP3    H243973   3.458   0.997   0.893 -0.2205 -0.3813  0.3127
14678TIP3   OH243974   6.546   4.866   5.503  0.3330  0.0875 -0.4148
14678TIP3    H143975   6.572   4.880   5.594  0.9223 -0.2827 -0.5248
14678TIP3    H243976   6.450   4.873   5.505  0.4520  2.8923 -0.2440
14679TIP3   OH243977   2.755   3.910   2.584  0.1485 -0.2601  0.1432
14679TIP3    H143978   2.822   3.852   2.548  0.2850  0.0902 -0.1835
14679TIP3    H243979   2.789   3.938   2.669  0.8099  0.5552 -0.3641
14680TIP3   OH243980   1.653   0.653   6.331 -0.0384 -0.4345 -0.4548
14680TIP3    H143981   1.593   0.677   6.261  2.1247  0.7975 -2.0101
14680TIP3    H243982   1.604   0.669   6.411 -1.4859  1.3979 -1.6194
14681TIP3   OH243983   5.971   2.345   3.097 -0.4143  0.3124  0.2000
14681TIP3    H143984   6.041   2.363   3.159 -0.4775  2.1206 -0.1821
14681TIP3    H243985   6.014   2.344   3.011 -0.5343 -0.8119  0.1388
14682TIP3   OH243986   5.852   7.332   4.339 -0.4062  0.1569 -0.6448
14682TIP3    H143987   5.785   7.357   4.276  1.3938  2.7991 -1.7386
14682TIP3    H243988   5.922   7.294   4.286  0.4489  0.8903 -0.0820
14683TIP3   OH243989   8.413   7.851   4.079 -0.5043 -0.9177  0.0141
14683TIP3    H143990   8.389   7.910   4.007  3.1966  0.6028 -0.2368
14683TIP3    H243991   8.402   7.763   4.043  1.3313 -0.2035 -2.5850
14684TIP3   OH243992   1.325   1.503   0.974  0.9511  0.0153 -0.5379
14684TIP3    H143993   1.242   1.475   1.012 -0.0197  0.2974 -2.3465
14684TIP3    H243994   1.327   1.597   0.989 -0.0926  0.3626 -2.2711
14685TIP3   OH243995   6.364   2.949   4.938 -0.5549 -0.2224  0.2262
14685TIP3    H143996   6.295   2.885   4.956 -0.8998  0.0681 -0.0319
14685TIP3    H243997   6.347   2.977   4.847  0.0390 -0.3161  0.0814
14686TIP3   OH243998   0.705   2.884   1.257  0.1799  0.0506  0.4918
14686TIP3    H143999   0.637   2.951   1.251  0.9769  0.7683 -1.5001
14686TIP3    H244000   0.788   2.933   1.257  0.7503 -0.8860  0.1115
14687TIP3   OH244001   0.337   5.956   2.860  0.6383  0.3342  0.4505
14687TIP3    H144002   0.375   5.869   2.873  2.4380  1.1512  1.0236
14687TIP3    H244003   0.346   5.972   2.766 -2.0919 -1.0890 -0.1311
14688TIP3   OH244004   4.806   1.298   2.968  0.5217  0.0926 -0.2306
14688TIP3    H144005   4.775   1.362   2.904  1.3322  0.9830  0.2397
14688TIP3    H244006   4.741   1.228   2.966  0.3404  0.2716 -1.7623
14689TIP3   OH244007   0.661   7.362   3.189  0.0445 -0.1625  0.1394
14689TIP3    H144008   0.584   7.393   3.238  0.0842 -1.9065  1.4049
14689TIP3    H244009   0.734   7.413   3.225  0.1173 -1.6001  2.2267
14690TIP3   OH244010   0.089   3.254   3.863  0.2874  0.4193 -0.2239
14690TIP3    H144011   0.065   3.316   3.794  2.7192  0.9396 -0.7059
14690TIP3    H244012   0.168   3.211   3.829  0.0946 -1.1526  1.1884
14691TIP3   OH244013   5.376   3.317   3.457  0.6449  0.1243  0.2077
14691TIP3    H144014   5.354   3.399   3.502 -1.6555 -1.1396  1.6284
14691TIP3    H244015   5.471   3.309   3.465  0.6881  1.6572  1.8301
14692TIP3   OH244016   6.165   7.774   3.594 -0.4646  0.1837 -0.1468
14692TIP3    H144017   6.238   7.829   3.623 -0.3923 -0.3678  0.7505
14692TIP3    H244018   6.129   7.820   3.518  0.7802  0.4875 -0.5715
14693TIP3   OH244019   2.465   4.111   0.139 -0.4397  0.3429 -0.6246
14693TIP3    H144020   2.453   4.146   0.050 -2.5631 -2.0105 -1.3878
14693TIP3    H244021   2.380   4.074   0.161 -0.0862  1.2372  2.6484
14694TIP3   OH244022   4.253   1.048   3.111 -0.4443 -0.3253  0.1745
14694TIP3    H144023   4.324   1.112   3.115 -1.5268  0.8477  2.2818
14694TIP3    H244024   4.182   1.094   3.065 -1.1441 -0.0477  1.4805
14695TIP3   OH244025   3.787   6.761   4.659 -0.0192  0.5564 -0.8931
14695TIP3    H144026   3.810   6.806   4.741 -0.0201  0.0470 -0.6066
14695TIP3    H244027   3.774   6.832   4.596  0.4069  0.9381 -0.5623
14696TIP3   OH244028   0.720   3.251   3.384 -0.0921  0.3008  0.2034
14696TIP3    H144029   0.724   3.328   3.440  1.8906  1.5842 -1.5616
14696TIP3    H244030   0.793   3.196   3.412 -1.3142 -0.8479  1.2530
14697TIP3   OH244031   7.768   3.173   6.125  0.5793  0.5229  0.0735
14697TIP3    H144032   7.740   3.082   6.139 -0.0800  0.4695 -1.4649
14697TIP3    H244033   7.761   3.186   6.031  1.0708  2.0596  0.2309
14698TIP3   OH244034   7.187   4.459   5.063 -0.1482  0.6155  0.3459
14698TIP3    H144035   7.156   4.376   5.099 -0.6210  0.5535 -0.1827
14698TIP3    H244036   7.239   4.434   4.986  0.8497  0.7446  0.9550
14699TIP3   OH244037   1.638   6.243   5.805 -0.2384 -0.5682  0.0254
14699TIP3    H144038   1.665   6.212   5.891 -2.7459  0.7741  1.3777
14699TIP3    H244039   1.614   6.163   5.757  2.2592 -1.4261  0.0773
14700TIP3   OH244040   4.519   0.649   5.279  0.1175 -0.0500 -0.2438
14700TIP3    H144041   4.523   0.742   5.302 -3.9193  0.2035  0.2012
14700TIP3    H244042   4.534   0.603   5.361  0.7720  0.2248 -0.1989
14701TIP3   OH244043   6.109   4.191   5.447 -0.0170 -0.2815 -0.0932
14701TIP3    H144044   6.105   4.235   5.532  0.3952 -0.8697  0.2346
14701TIP3    H244045   6.203   4.188   5.426 -0.1444  0.3220 -0.8206
14702TIP3   OH244046   6.327   6.540   1.329  0.3524 -0.7197  0.0591
14702TIP3    H144047   6.369   6.613   1.283 -2.2101  1.6223  1.1023
14702TIP3    H244048   6.352   6.551   1.420  1.2793 -2.2321  0.0199
14703TIP3   OH244049   4.061   1.700   4.140 -0.8223 -0.2209  0.0990
14703TIP3    H144050   4.047   1.749   4.222  1.5400 -0.0836  0.4807
14703TIP3    H244051   4.028   1.613   4.160 -0.5353 -0.1163  1.1247
14704TIP3   OH244052   8.289   5.574   5.423  0.2128  0.8107 -0.1467
14704TIP3    H144053   8.333   5.520   5.488  0.9430  0.3859 -0.9681
14704TIP3    H244054   8.279   5.516   5.347  0.9643  1.7902 -1.0273
14705TIP3   OH244055   5.548   3.760   3.955 -0.2195 -0.3649 -0.1895
14705TIP3    H144056   5.630   3.764   4.004 -0.4408 -1.3555  0.2591
14705TIP3    H244057   5.479   3.770   4.020 -0.4807  0.2934 -0.5460
14706TIP3   OH244058   5.391   7.122   5.552  0.1394  0.1800 -0.3330
14706TIP3    H144059   5.327   7.193   5.560  0.7524  0.7680 -0.5519
14706TIP3    H244060   5.441   7.125   5.635  0.3410  0.1783 -0.4531
14707TIP3   OH244061   1.949   2.637   5.680  0.3509  0.1445 -0.0698
14707TIP3    H144062   1.924   2.672   5.766 -2.7173  2.1165 -1.5914
14707TIP3    H244063   2.025   2.689   5.653 -0.7036  1.8289  0.1043
14708TIP3   OH244064   0.651   3.792   0.096 -0.3669  0.2367  0.0628
14708TIP3    H144065   0.689   3.812   0.010  0.3055  1.6596  0.6638
14708TIP3    H244066   0.637   3.697   0.095 -0.4375  0.2376 -1.6344
14709TIP3   OH244067   0.381   0.607   2.293 -0.2077 -0.0421 -0.0187
14709TIP3    H144068   0.450   0.614   2.360  0.6114 -1.1459 -0.7166
14709TIP3    H244069   0.321   0.679   2.313  1.9145  1.9099 -0.2824
14710TIP3   OH244070   0.558   3.121   5.865  0.2839 -0.4323  0.4420
14710TIP3    H144071   0.648   3.101   5.842  0.5246  1.7151 -0.7311
14710TIP3    H244072   0.533   3.192   5.806 -1.2586  0.9153  2.5622
14711TIP3   OH244073   4.630   1.944   4.839 -0.8215  0.1918 -0.5303
14711TIP3    H144074   4.687   1.988   4.776  0.8500 -0.8931  0.1542
14711TIP3    H244075   4.685   1.876   4.878 -2.7423 -1.2408 -0.1683
14712TIP3   OH244076   1.077   5.139   3.350  0.8813  0.3777  0.3694
14712TIP3    H144077   0.982   5.150   3.360  1.0253  2.0845  0.2260
14712TIP3    H244078   1.090   5.045   3.350 -0.7540  0.1031  1.0187
14713TIP3   OH244079   1.382   1.272   4.021 -0.0867  0.6219 -0.1201
14713TIP3    H144080   1.327   1.304   3.949 -2.0221 -1.1800  0.4459
14713TIP3    H244081   1.449   1.219   3.977  0.9448  2.3808 -0.7801
14714TIP3   OH244082   3.386   5.505   1.943  0.4598 -0.2299  0.2134
14714TIP3    H144083   3.433   5.440   1.996  0.3178 -0.4482  0.0741
14714TIP3    H244084   3.409   5.589   1.983  1.5944 -0.2640 -0.3181
14715TIP3   OH244085   7.861   1.058   6.630  0.2173 -0.0908 -0.5517
14715TIP3    H144086   7.907   1.094   6.706 -0.8498 -0.6520  0.3903
14715TIP3    H244087   7.800   1.127   6.605 -1.2638 -0.8738  0.7555
14716TIP3   OH244088   5.406   7.214   1.781 -0.1730  0.3734  0.2722
14716TIP3    H144089   5.315   7.223   1.754 -0.1536  0.6734  0.3006
14716TIP3    H244090   5.455   7.267   1.718  0.0349 -0.1874 -0.0468
14717TIP3   OH244091   4.113   7.495   5.338 -1.0146  0.2797 -0.0781
14717TIP3    H144092   4.170   7.481   5.413 -0.2370 -1.1737 -0.8966
14717TIP3    H244093   4.039   7.544   5.373 -1.2547 -1.3585  1.9005
14718TIP3   OH244094   2.458   6.572   3.766 -0.1515  0.4847 -0.1207
14718TIP3    H144095   2.400   6.497   3.778 -0.1153  0.6719  1.5282
14718TIP3    H244096   2.401   6.648   3.779  0.3403  0.6776  1.0365
14719TIP3   OH244097   4.705   4.246   4.796  0.5119 -0.3170  0.0589
14719TIP3    H144098   4.770   4.313   4.777  0.7949 -0.7867 -0.6879
14719TIP3    H244099   4.702   4.192   4.716  0.5211 -1.3780  0.7546
14720TIP3   OH244100   5.735   1.987   1.427  0.6130  0.0948 -0.8301
14720TIP3    H144101   5.710   2.045   1.355  0.1067  1.3947  0.3547
14720TIP3    H244102   5.828   2.006   1.442  0.2080  1.4145  0.2268
14721TIP3   OH244103   4.571   7.272   6.432  0.4039 -0.2851 -0.0048
14721TIP3    H144104   4.586   7.279   6.527 -0.5253 -0.6751  0.1868
14721TIP3    H244105   4.513   7.197   6.423  0.6742 -0.3925 -0.9140
14722TIP3   OH244106   0.265   7.537   5.076  0.0694 -0.3601 -0.2720
14722TIP3    H144107   0.354   7.574   5.076 -0.5771  1.3110  0.3734
14722TIP3    H244108   0.240   7.536   4.984  0.1361  0.8603 -0.3273
14723TIP3   OH244109   7.837   3.118   6.414  0.2046 -0.4120  0.1769
14723TIP3    H144110   7.856   3.187   6.351  2.1990 -2.9383 -2.2276
14723TIP3    H244111   7.890   3.140   6.491 -0.6150  1.6011  0.2174
14724TIP3   OH244112   0.434   7.248   6.201  0.2117  0.2207  0.2439
14724TIP3    H144113   0.370   7.283   6.139 -1.2250 -1.8349  0.4492
14724TIP3    H244114   0.435   7.310   6.274 -0.1141  1.2460 -0.5984
14725TIP3   OH244115   2.224   0.922   4.596  0.5441 -0.1720  0.4239
14725TIP3    H144116   2.230   0.912   4.691 -1.9001 -0.0814  0.6427
14725TIP3    H244117   2.202   0.834   4.564 -2.3435  0.4569  0.4030
14726TIP3   OH244118   2.831   3.617   6.301  0.3421  0.2976  0.3142
14726TIP3    H144119   2.838   3.621   6.206  0.7275 -0.5695  0.2943
14726TIP3    H244120   2.745   3.653   6.321 -0.5732 -1.2916 -0.5207
14727TIP3   OH244121   6.710   5.869   4.858  0.2995  0.9181 -0.1144
14727TIP3    H144122   6.658   5.947   4.879 -1.9657 -0.6392  0.3895
14727TIP3    H244123   6.772   5.861   4.930  1.3052  2.8140 -0.7057
14728TIP3   OH244124   2.915   6.600   0.718 -0.4399  0.3389 -0.1106
14728TIP3    H144125   2.869   6.648   0.787  2.1254  0.7318  1.4433
14728TIP3    H244126   2.921   6.661   0.645  0.9790  1.6945  1.0926
14729TIP3   OH244127   8.256   4.257   0.163 -0.0224 -0.2921  0.4318
14729TIP3    H144128   8.321   4.327   0.149 -1.0545  0.4615 -0.8421
14729TIP3    H244129   8.241   4.257   0.257 -0.0547  1.2809  0.4512
14730TIP3   OH244130   2.297   7.482   2.779 -0.2744 -0.3918 -0.4719
14730TIP3    H144131   2.386   7.451   2.794 -0.1774  0.3541  0.6094
14730TIP3    H244132   2.280   7.463   2.687  0.7360 -1.2024 -0.5059
14731TIP3   OH244133   4.134   0.503   3.768 -0.2141 -0.3093 -0.6241
14731TIP3    H144134   4.226   0.492   3.794 -0.0869  0.1434 -0.8779
14731TIP3    H244135   4.139   0.535   3.677 -0.5192  2.8237  0.3505
14732TIP3   OH244136   4.261   7.643   3.617 -0.1394 -0.3824  0.4478
14732TIP3    H144137   4.252   7.738   3.615  1.0512 -0.2723 -0.3147
14732TIP3    H244138   4.346   7.627   3.657 -0.3053 -1.1379  0.5255
14733TIP3   OH244139   4.669   7.015   4.619 -0.6049 -0.2814  0.5465
14733TIP3    H144140   4.684   7.080   4.550 -0.4043  0.5431  1.3523
14733TIP3    H244141   4.700   7.057   4.699 -0.1158 -1.5224  1.0356
14734TIP3   OH244142   2.681   2.711   5.390  0.1788  0.9709 -0.0473
14734TIP3    H144143   2.642   2.771   5.453  1.1701 -0.7304  2.3490
14734TIP3    H244144   2.607   2.660   5.356 -0.1929  0.7616  1.0510
14735TIP3   OH244145   6.559   0.335   2.026 -0.0328  0.1040  0.0206
14735TIP3    H144146   6.603   0.326   2.110  0.4664 -1.8606 -0.4198
14735TIP3    H244147   6.471   0.301   2.042  0.2418 -0.8067 -0.3855
14736TIP3   OH244148   5.504   7.838   6.548  0.3281 -0.3057  0.8121
14736TIP3    H144149   5.411   7.832   6.567  0.0431 -2.5720 -0.9156
14736TIP3    H244150   5.539   7.895   6.617 -2.5421  2.0126  0.5548
14737TIP3   OH244151   7.900   1.374   2.461  0.4947  0.9211 -0.1957
14737TIP3    H144152   7.959   1.445   2.488  0.2200  0.9882  0.2339
14737TIP3    H244153   7.947   1.330   2.390  2.1068 -0.4178  1.5862
14738TIP3   OH244154   0.747   5.601   2.296 -0.0242 -0.2073 -0.2259
14738TIP3    H144155   0.749   5.505   2.299 -0.9896 -0.2316  2.5891
14738TIP3    H244156   0.839   5.627   2.307  0.1980 -0.8035 -0.6175
14739TIP3   OH244157   7.267   1.333   2.291 -0.1024 -0.5782  0.6082
14739TIP3    H144158   7.290   1.265   2.354 -0.9496 -0.1254  1.4276
14739TIP3    H244159   7.210   1.290   2.227  2.4114 -1.5770 -1.1267
14740TIP3   OH244160   7.928   3.035   1.945 -0.1251 -0.4749 -0.0551
14740TIP3    H144161   8.021   3.053   1.962 -0.4135  0.3166  0.7290
14740TIP3    H244162   7.892   3.118   1.916 -0.6654 -0.6997 -0.0420
14741TIP3   OH244163   2.434   2.661   4.668 -0.0541 -0.0491  0.3214
14741TIP3    H144164   2.424   2.737   4.611 -0.6078 -0.5919 -0.3232
14741TIP3    H244165   2.483   2.693   4.743 -1.6170  1.3411  0.8134
14742TIP3   OH244166   2.744   4.693   3.985  0.3583  0.2568 -0.4020
14742TIP3    H144167   2.793   4.774   3.979 -0.6826  0.7876 -2.3825
14742TIP3    H244168   2.655   4.720   4.006  0.2364 -0.4703  0.0622
14743TIP3   OH244169   0.857   5.777   1.571  0.5205  0.6989 -0.4547
14743TIP3    H144170   0.861   5.872   1.559  2.2400  0.7823  0.3430
14743TIP3    H244171   0.787   5.763   1.635  0.0636  1.4057 -0.7996
14744TIP3   OH244172   2.757   1.404   6.081  0.0201 -0.0299  0.0930
14744TIP3    H144173   2.795   1.370   6.163 -0.0930 -1.0178 -0.2436
14744TIP3    H244174   2.794   1.348   6.013 -0.8713 -0.0463 -0.3925
14745TIP3   OH244175   8.147   5.591   5.658  0.3311 -0.0416 -0.7781
14745TIP3    H144176   8.203   5.598   5.736  0.1035  2.6150 -0.7684
14745TIP3    H244177   8.199   5.630   5.588 -0.1656 -0.8058 -1.5965
14746TIP3   OH244178   6.188   5.372   0.173 -0.3299 -0.3372  0.3517
14746TIP3    H144179   6.168   5.293   0.223 -1.2547  0.0281  0.5784
14746TIP3    H244180   6.107   5.392   0.125  0.1222  0.0617 -0.2676
14747TIP3   OH244181   0.309   2.366   6.676  0.1670  0.0782  0.3749
14747TIP3    H144182   0.293   2.446   6.727  1.6059  0.3251  0.4774
14747TIP3    H244183   0.400   2.343   6.695  0.4031 -0.4349 -1.2427
14748TIP3   OH244184   8.016   6.036   5.200 -0.6972 -0.0319  0.3320
14748TIP3    H144185   8.101   5.992   5.210  0.1150  1.5822  0.7570
14748TIP3    H244186   7.977   5.995   5.122  0.9107 -0.1036 -0.4739
14749TIP3   OH244187   3.440   7.709   0.307 -0.1219 -0.0687 -0.5854
14749TIP3    H144188   3.393   7.675   0.230  0.4959 -1.2844 -0.4450
14749TIP3    H244189   3.460   7.631   0.359  1.8177  0.4393 -0.5218
14750TIP3   OH244190   0.313   1.142   1.471 -0.8145  0.0045  0.2382
14750TIP3    H144191   0.330   1.195   1.549  0.3973 -0.9303  0.6245
14750TIP3    H244192   0.227   1.173   1.440 -1.0080  0.8498  1.5432
14751TIP3   OH244193   3.354   4.179   0.809  0.5064 -0.3098 -0.2345
14751TIP3    H144194   3.367   4.084   0.799  0.9503 -0.3869  0.9270
14751TIP3    H244195   3.413   4.204   0.880 -0.9307  0.5207  0.7264
14752TIP3   OH244196   8.083   5.277   0.322 -0.6293  0.3717  0.5621
14752TIP3    H144197   8.061   5.321   0.404 -1.8962 -0.4327  0.6958
14752TIP3    H244198   8.158   5.221   0.344  0.0633  1.3540  0.7471
14753TIP3   OH244199   2.967   7.633  -0.001  0.6243  0.1098 -0.0727
14753TIP3    H144200   2.953   7.703   0.063  2.3715 -0.3320  0.8730
14753TIP3    H244201   3.033   7.669  -0.060 -1.8604  1.0055 -2.5154
14754TIP3   OH244202   6.943   7.008   1.332  0.3655  0.2290 -0.4587
14754TIP3    H144203   7.011   7.074   1.320  1.3037 -0.6038  0.0997
14754TIP3    H244204   6.987   6.925   1.316 -0.2730 -0.3862  0.8263
14755TIP3   OH244205   4.816   0.754   5.831 -0.2259 -0.5007  0.1711
14755TIP3    H144206   4.881   0.792   5.772 -1.4177  2.0965  0.3512
14755TIP3    H244207   4.837   0.792   5.916 -0.4834 -1.6051  0.7357
14756TIP3   OH244208   1.353   7.656   5.853 -0.4922 -0.6707 -0.7225
14756TIP3    H144209   1.365   7.561   5.859  1.3233 -0.4624 -0.6506
14756TIP3    H244210   1.348   7.686   5.944  2.2698 -0.3591 -0.6005
14757TIP3   OH244211   7.994   2.842   1.320 -0.0666 -0.4532  1.0169
14757TIP3    H144212   7.992   2.883   1.233  0.8431 -0.3342  1.0512
14757TIP3    H244213   8.061   2.775   1.314 -1.2142 -1.6604  1.1073
14758TIP3   OH244214   4.034   5.160   5.514  0.4393  0.2750 -0.1948
14758TIP3    H144215   3.960   5.175   5.572  0.5561  1.7925 -0.3893
14758TIP3    H244216   4.089   5.097   5.559 -0.4546 -0.0674  0.4261
14759TIP3   OH244217   1.068   3.274   5.516  0.7883  0.3156  0.1576
14759TIP3    H144218   1.027   3.199   5.473  0.3175  1.0478 -0.6954
14759TIP3    H244219   0.997   3.314   5.568  0.8842  0.5244  0.1290
14760TIP3   OH244220   2.038   4.214   3.775  0.1975 -0.5058  0.4290
14760TIP3    H144221   2.044   4.306   3.803  0.8640 -0.9008  1.6570
14760TIP3    H244222   1.964   4.179   3.824  2.1281 -1.5339  2.8344
14761TIP3   OH244223   4.280   7.230   1.076  0.0650  0.7768 -0.1720
14761TIP3    H144224   4.267   7.179   0.996 -1.8707 -0.7796  1.0503
14761TIP3    H244225   4.194   7.232   1.118  1.2475  0.4904  2.4654
14762TIP3   OH244226   2.258   5.673   3.230  0.1881 -0.0610 -0.6266
14762TIP3    H144227   2.205   5.616   3.286 -0.5577 -0.5559 -1.7904
14762TIP3    H244228   2.304   5.731   3.291  1.4420 -2.2620  0.6705
14763TIP3   OH244229   2.081   1.985   3.765 -0.5780  0.0079 -0.3738
14763TIP3    H144230   2.109   1.900   3.731 -0.8207 -0.1264 -0.2399
14763TIP3    H244231   2.055   2.034   3.687  0.3710  0.2656 -0.5367
14764TIP3   OH244232   2.382   6.075   4.492  0.4925  0.7501 -0.4771
14764TIP3    H144233   2.423   6.032   4.416  1.2879  0.8320 -0.1076
14764TIP3    H244234   2.371   6.166   4.465  1.2378  0.8927 -0.3262
14765TIP3   OH244235   2.478   7.831   0.430  0.1528  0.0560  0.2937
14765TIP3    H144236   2.448   7.805   0.343  0.8815 -1.2835  0.4157
14765TIP3    H244237   2.415   7.898   0.458  0.7091  1.5710 -1.8144
14766TIP3   OH244238   4.238   7.495   3.026 -0.1404 -0.7487 -0.1646
14766TIP3    H144239   4.202   7.546   3.099 -2.4161  0.5525 -2.0511
14766TIP3    H244240   4.322   7.538   3.007 -0.9746  0.9476 -0.2612
14767TIP3   OH244241   1.428   3.917   6.681 -0.3238  0.1522  0.0241
14767TIP3    H144242   1.436   4.012   6.688 -0.0428  0.1134  0.2524
14767TIP3    H244243   1.334   3.900   6.690 -0.4382  0.4498 -0.5683
14768TIP3   OH244244   2.507   1.046   1.432 -0.8752  0.6758  0.0079
14768TIP3    H144245   2.501   0.961   1.388  1.5381  0.2548  0.3605
14768TIP3    H244246   2.418   1.080   1.431 -1.4999 -0.8217 -2.2047
14769TIP3   OH244247   4.449   6.413   4.808 -0.6787 -0.2699  0.2527
14769TIP3    H144248   4.451   6.324   4.844 -2.5856 -0.9075 -1.0956
14769TIP3    H244249   4.535   6.449   4.831  0.0518 -2.3450  1.0751
14770TIP3   OH244250   3.341   7.627   6.234  0.6501 -0.2100  0.2877
14770TIP3    H144251   3.363   7.592   6.147  0.4123 -0.4172  0.3118
14770TIP3    H244252   3.260   7.675   6.220  0.4016 -0.5722  0.4748
14771TIP3   OH244253   6.312   2.159   0.273 -0.2202 -0.1580  0.0993
14771TIP3    H144254   6.404   2.136   0.286 -0.2191 -1.9961 -2.3919
14771TIP3    H244255   6.313   2.253   0.253  0.9587  0.0470  1.0226
14772TIP3   OH244256   1.667   4.453   3.003  0.1213 -0.1565  0.1247
14772TIP3    H144257   1.691   4.541   2.975  1.3284 -0.5732 -0.1784
14772TIP3    H244258   1.672   4.456   3.099  1.6020 -0.2689  0.0731
14773TIP3   OH244259   5.591   4.478   1.796  0.3471 -0.4439 -0.4370
14773TIP3    H144260   5.619   4.539   1.728 -0.4914  0.0769 -0.3295
14773TIP3    H244261   5.572   4.533   1.871 -3.4173 -0.3765 -1.2482
14774TIP3   OH244262   0.349   1.609   4.043  0.2463 -0.3919 -0.7720
14774TIP3    H144263   0.345   1.672   4.116  0.1280 -0.7285 -0.4856
14774TIP3    H244264   0.259   1.605   4.010  0.1642 -0.7370 -0.5098
14775TIP3   OH244265   4.359   5.744   6.538  0.0518  0.5091  0.2130
14775TIP3    H144266   4.387   5.761   6.628  0.3444 -1.0183  0.4346
14775TIP3    H244267   4.418   5.796   6.484  1.5517 -0.5117  0.8130
14776TIP3   OH244268   4.666   7.343   6.679 -0.0081 -0.3512  0.0500
14776TIP3    H144269   4.681   7.422   6.732  0.1422 -0.2386 -0.1631
14776TIP3    H244270   4.753   7.309   6.660 -0.0715 -2.1681  2.5159
14777TIP3   OH244271   7.810   4.164   6.256  0.0342  0.0241  0.0366
14777TIP3    H144272   7.805   4.083   6.307  0.2413  0.0652  0.1237
14777TIP3    H244273   7.758   4.227   6.306  1.1752  0.3844  0.8118
14778TIP3   OH244274   7.181   3.336   2.288 -1.0467 -0.2082 -0.2271
14778TIP3    H144275   7.115   3.315   2.354 -1.2623 -0.4884 -0.5274
14778TIP3    H244276   7.168   3.271   2.219 -1.0596  0.2905 -0.7062
14779TIP3   OH244277   3.071   4.159   0.826  0.1806 -0.2266 -0.0485
14779TIP3    H144278   3.162   4.184   0.816  0.2715 -0.6867 -0.4261
14779TIP3    H244279   3.052   4.104   0.749  0.3548 -2.3636  1.3331
14780TIP3   OH244280   7.606   3.526   6.519 -0.8392 -0.0476 -0.8631
14780TIP3    H144281   7.551   3.582   6.575 -1.8134  0.2432 -2.0744
14780TIP3    H244282   7.692   3.568   6.521 -0.3639 -0.9182  1.6614
14781TIP3   OH244283   2.008   6.029   1.697 -0.1406  0.4304 -0.1151
14781TIP3    H144284   2.008   6.121   1.722 -0.8873  1.1900 -2.6337
14781TIP3    H244285   2.066   6.024   1.622 -1.4383 -0.8004 -1.1066
14782TIP3   OH244286   1.531   6.218   2.242  0.0858 -0.1461 -0.1428
14782TIP3    H144287   1.449   6.214   2.291  0.8427 -0.3780  1.1378
14782TIP3    H244288   1.533   6.306   2.206 -1.2714 -0.5034 -1.1915
14783TIP3   OH244289   4.764   3.986   1.240  0.1851 -0.4325  0.0934
14783TIP3    H144290   4.737   4.021   1.326 -1.2407  0.0579 -0.5261
14783TIP3    H244291   4.682   3.971   1.194  0.9441 -0.4126 -1.2991
14784TIP3   OH244292   8.025   3.774   1.283  0.2705 -0.4179  0.8022
14784TIP3    H144293   7.932   3.799   1.291 -0.4180 -2.6349  0.3830
14784TIP3    H244294   8.049   3.798   1.194  0.4912  1.2590  1.2807
14785TIP3   OH244295   7.479   6.178   4.729  0.3762  0.8297  0.5604
14785TIP3    H144296   7.477   6.224   4.813 -0.0098  2.5818 -0.3617
14785TIP3    H244297   7.558   6.211   4.686  1.5806 -1.3931  0.8830
14786TIP3   OH244298   4.673   1.381   1.161 -0.2468 -0.0490  0.2207
14786TIP3    H144299   4.711   1.398   1.075 -0.7559 -0.3163 -0.0605
14786TIP3    H244300   4.632   1.464   1.186 -0.2880 -0.0349  0.1083
14787TIP3   OH244301   3.017   3.651   1.326 -0.2337  0.5051 -0.5166
14787TIP3    H144302   2.970   3.602   1.258  1.2323  0.0419 -1.2198
14787TIP3    H244303   3.090   3.595   1.350 -0.2734  1.0231  0.8941
14788TIP3   OH244304   3.388   1.373   1.048  0.6436 -0.3026 -0.7650
14788TIP3    H144305   3.420   1.460   1.023 -0.7945  0.4228 -0.1636
14788TIP3    H244306   3.293   1.381   1.048  0.4548 -2.1168 -1.4772
14789TIP3   OH244307   1.320   5.800   3.673 -0.2145  0.2235 -0.3498
14789TIP3    H144308   1.230   5.777   3.698 -0.3984 -0.4453 -1.5238
14789TIP3    H244309   1.367   5.717   3.675 -0.2694  0.1051 -2.1976
14790TIP3   OH244310   8.203   4.614   4.811  0.6741  0.8136  0.3747
14790TIP3    H144311   8.286   4.657   4.790  1.1365 -0.1598  0.1751
14790TIP3    H244312   8.149   4.628   4.734  1.1470  0.2509 -0.0671
14791TIP3   OH244313   5.016   2.901   1.643 -0.0293  0.1669  0.5717
14791TIP3    H144314   5.068   2.881   1.720  2.7648  0.8297 -1.0125
14791TIP3    H244315   5.039   2.832   1.580  0.1337  1.3490 -0.6993
14792TIP3   OH244316   4.764   4.207   6.221  0.4103  0.3279  0.5263
14792TIP3    H144317   4.791   4.268   6.290 -0.9012 -0.2705  1.6292
14792TIP3    H244318   4.672   4.188   6.242 -0.0894  0.2789 -1.5187
14793TIP3   OH244319   1.989   2.403   0.314 -0.0363  0.4931  0.2735
14793TIP3    H144320   1.985   2.339   0.385 -1.2120  0.2196 -0.0227
14793TIP3    H244321   1.953   2.483   0.351 -0.4925  0.3985  0.0418
14794TIP3   OH244322   6.896   0.208   5.139  1.1167 -0.3290 -0.2488
14794TIP3    H144323   6.959   0.140   5.116  1.1775  0.0327 -1.1841
14794TIP3    H244324   6.948   0.277   5.180  1.3137 -0.0951 -0.8857
14795TIP3   OH244325   1.356   2.876   1.448 -0.6988  0.7767 -0.1840
14795TIP3    H144326   1.391   2.952   1.493 -2.0982  1.3514 -0.0349
14795TIP3    H244327   1.301   2.832   1.513 -0.4113 -0.0106 -0.4618
14796TIP3   OH244328   6.437   7.622   5.140 -0.3576  0.1445 -0.0378
14796TIP3    H144329   6.408   7.564   5.210  1.6627 -1.2544 -0.3024
14796TIP3    H244330   6.391   7.590   5.062  1.4675 -1.8318 -0.3865
14797TIP3   OH244331   6.986   1.739   5.415 -0.1841  0.0568  0.4762
14797TIP3    H144332   7.059   1.746   5.477 -0.3303 -1.4110  0.8470
14797TIP3    H244333   6.982   1.825   5.373  0.8916  0.5898  1.4153
14798TIP3   OH244334   2.168   4.947   2.209  0.3074 -0.0243  0.1333
14798TIP3    H144335   2.152   5.007   2.136  0.7957  0.5633  0.4949
14798TIP3    H244336   2.082   4.936   2.250  0.3087  0.9149  0.4190
14799TIP3   OH244337   3.510   5.115   6.160 -0.3940 -0.5756 -0.5521
14799TIP3    H144338   3.441   5.103   6.224 -0.4239 -1.8055 -0.7980
14799TIP3    H244339   3.472   5.172   6.093 -0.4589  0.4707  0.3531
14800TIP3   OH244340   7.677   3.157   3.604 -0.4101 -0.0962  0.0383
14800TIP3    H144341   7.683   3.128   3.695 -1.3159 -0.6313 -0.0574
14800TIP3    H244342   7.768   3.161   3.574 -0.1162 -0.0602  0.9206
14801TIP3   OH244343   1.756   2.412   5.816  0.1046 -0.2218  0.5319
14801TIP3    H144344   1.845   2.416   5.780  0.4175 -0.8829  1.2140
14801TIP3    H244345   1.706   2.365   5.749  0.3995 -0.3690  0.4144
14802TIP3   OH244346   2.353   1.684   0.672 -0.0428  0.5901  0.2084
14802TIP3    H144347   2.345   1.772   0.711  0.3039  0.9483 -0.5186
14802TIP3    H244348   2.406   1.635   0.735 -1.0295  0.6122  1.0822
14803TIP3   OH244349   3.245   3.809   3.395  0.5299 -0.7450  0.0357
14803TIP3    H144350   3.304   3.882   3.411 -0.5097  0.4618 -1.4078
14803TIP3    H244351   3.219   3.780   3.482 -0.4518  1.8041  0.6636
14804TIP3   OH244352   0.287   4.566   0.091 -0.1993  0.1556  0.1633
14804TIP3    H144353   0.314   4.476   0.110 -0.6755  0.2578  1.4399
14804TIP3    H244354   0.367   4.618   0.098 -0.2576  0.1091  1.5340
14805TIP3   OH244355   5.794   5.219   1.861  0.1246 -0.1324 -0.9063
14805TIP3    H144356   5.777   5.182   1.947 -0.5773  1.2048 -0.4464
14805TIP3    H244357   5.832   5.147   1.811  2.7194 -0.3553  1.1799
14806TIP3   OH244358   1.716   2.607   4.329  0.9055  0.0753 -0.2300
14806TIP3    H144359   1.656   2.679   4.352  0.6486 -0.3036  0.2999
14806TIP3    H244360   1.726   2.615   4.234 -2.2264 -1.5224 -0.8199
14807TIP3   OH244361   6.370   6.790   0.957  0.1509  0.2716  0.3012
14807TIP3    H144362   6.465   6.793   0.949  0.2284 -0.2682  0.9222
14807TIP3    H244363   6.351   6.699   0.981 -0.5088  0.4168  0.3446
14808TIP3   OH244364   0.918   4.403   2.507  0.1674  0.1218 -0.0640
14808TIP3    H144365   0.893   4.326   2.456 -1.7096  1.2007 -0.8945
14808TIP3    H244366   1.013   4.403   2.506  0.2123 -1.8862 -0.4583
14809TIP3   OH244367   0.746   0.719   5.730 -0.2640 -0.7975  0.1616
14809TIP3    H144368   0.675   0.754   5.676 -0.5203 -1.8882 -0.2526
14809TIP3    H244369   0.712   0.723   5.819 -1.2360 -2.1136 -0.1146
14810TIP3   OH244370   8.044   7.407   3.087 -0.1025 -0.1511 -0.3769
14810TIP3    H144371   8.040   7.360   3.003 -0.3381 -0.6966 -0.0671
14810TIP3    H244372   7.954   7.407   3.119 -0.0693  0.3388 -0.2727
14811TIP3   OH244373   3.883   3.105   0.233  0.4121  0.2010 -0.0906
14811TIP3    H144374   3.941   3.040   0.193  1.0197  1.4297 -1.2762
14811TIP3    H244375   3.942   3.170   0.271 -0.1663  0.8213 -0.2151
14812TIP3   OH244376   5.093   5.755   4.639 -0.2182 -0.2569 -0.1216
14812TIP3    H144377   5.042   5.836   4.636 -1.3995 -0.9709 -0.0656
14812TIP3    H244378   5.097   5.726   4.548 -2.6233 -1.7879  0.1688
14813TIP3   OH244379   7.162   5.505   4.788 -1.1435 -0.7400  0.4281
14813TIP3    H144380   7.140   5.521   4.696 -1.4991  0.2659  0.6678
14813TIP3    H244381   7.257   5.510   4.791 -1.2031  1.0481  0.3947
14814TIP3   OH244382   4.604   7.520   0.715  0.1602  0.4279  0.3283
14814TIP3    H144383   4.617   7.608   0.680 -1.6340  1.5032  2.2264
14814TIP3    H244384   4.590   7.466   0.637 -0.6638  2.1604 -0.7929
14815TIP3   OH244385   7.235   3.401   0.410 -0.3608 -0.4131 -0.3830
14815TIP3    H144386   7.270   3.364   0.492  2.1272 -0.2461 -1.2874
14815TIP3    H244387   7.219   3.493   0.430 -0.3705 -0.5068  0.0683
14816TIP3   OH244388   8.149   3.241   2.638 -0.5580 -0.5854 -0.3035
14816TIP3    H144389   8.207   3.316   2.651 -1.2713 -0.2755  1.4889
14816TIP3    H244390   8.179   3.177   2.703 -0.7529 -1.3589 -0.9646
14817TIP3   OH244391   8.358   2.005   6.710  0.1448  0.1452 -0.5342
14817TIP3    H144392   8.439   2.040   6.675  0.2355  0.4192 -0.0623
14817TIP3    H244393   8.290   2.063   6.675  0.0727 -0.5522 -1.5583
14818TIP3   OH244394   7.785   1.103   1.032 -0.1243 -0.1469  0.4550
14818TIP3    H144395   7.773   1.123   1.124 -0.5126  1.1599  0.1320
14818TIP3    H244396   7.818   1.013   1.031  0.0360 -0.1168  1.8638
14819TIP3   OH244397   8.103   7.652   2.961  0.1553 -0.0979 -0.4522
14819TIP3    H144398   8.109   7.559   2.979  0.4824  0.0458  0.1856
14819TIP3    H244399   8.193   7.683   2.959  0.0107  0.4160  0.4859
14820TIP3   OH244400   2.909   3.554   4.134 -0.7440 -0.0136 -0.5181
14820TIP3    H144401   2.852   3.478   4.122  1.4643 -2.7288  3.7725
14820TIP3    H244402   2.997   3.521   4.116  0.3054  1.3681  1.6674
14821TIP3   OH244403   6.818   2.289   0.995  0.0822 -0.3204  0.0918
14821TIP3    H144404   6.883   2.321   1.058  0.8177  0.2169 -0.9190
14821TIP3    H244405   6.735   2.326   1.026  0.7016  1.4552 -0.2600
14822TIP3   OH244406   4.984   1.597   5.985  0.0642  0.0623 -0.3436
14822TIP3    H144407   4.891   1.612   6.002 -0.2375  0.0055 -1.8236
14822TIP3    H244408   5.029   1.669   6.030 -0.7689  0.6804 -0.4869
14823TIP3   OH244409   0.497   2.813   3.725  0.4117 -0.8900  0.5217
14823TIP3    H144410   0.572   2.860   3.690 -0.4416  0.0168 -0.1820
14823TIP3    H244411   0.532   2.759   3.796  1.5248  0.3889  0.9754
14824TIP3   OH244412   1.375   3.330   0.554  0.6394  0.5838  0.8617
14824TIP3    H144413   1.410   3.358   0.468  2.3407  0.4276  1.4593
14824TIP3    H244414   1.392   3.236   0.557 -3.4997 -0.4008 -0.4140
14825TIP3   OH244415   6.399   2.769   4.602 -0.1069 -0.2027 -0.0363
14825TIP3    H144416   6.475   2.743   4.654 -0.9810 -0.7752  0.9701
14825TIP3    H244417   6.384   2.861   4.626  1.3979  0.5525 -1.6775
14826TIP3   OH244418   0.991   7.572   0.522  0.3711 -0.3501 -0.2527
14826TIP3    H144419   0.948   7.653   0.495 -0.9983 -0.5008  1.2980
14826TIP3    H244420   1.051   7.599   0.592  0.5849 -0.5654 -0.3497
14827TIP3   OH244421   3.793   2.307   1.002  0.0976  0.0626  0.5691
14827TIP3    H144422   3.717   2.362   0.983 -0.9507 -1.2067  0.8989
14827TIP3    H244423   3.866   2.351   0.959 -0.8938  1.1055 -0.1084
14828TIP3   OH244424   6.080   7.587   4.241 -0.0336 -0.1050 -0.1770
14828TIP3    H144425   6.173   7.611   4.244 -0.1198  0.2509 -0.2642
14828TIP3    H244426   6.059   7.583   4.148 -0.7648  2.5159 -0.2229
14829TIP3   OH244427   6.109   7.458   0.664 -0.2764  0.2333 -0.0969
14829TIP3    H144428   6.029   7.480   0.615 -0.0089  1.6136  0.0550
14829TIP3    H244429   6.155   7.397   0.607 -0.2193  1.4189 -1.3815
14830TIP3   OH244430   2.651   0.180   4.882  0.2314 -0.3366 -0.8606
14830TIP3    H144431   2.701   0.099   4.869 -1.3565 -1.9478  1.9108
14830TIP3    H244432   2.592   0.184   4.806  1.1566 -1.0995 -1.6463
14831TIP3   OH244433   7.420   4.650   6.290  0.3440 -0.0859 -0.3423
14831TIP3    H144434   7.370   4.717   6.336  2.8200  2.2761 -0.9020
14831TIP3    H244435   7.393   4.568   6.331 -1.1719  1.4171  1.8693
14832TIP3   OH244436   7.749   0.733   3.345  0.1999 -0.4266  0.0974
14832TIP3    H144437   7.682   0.718   3.411  0.4606 -2.3459 -0.0119
14832TIP3    H244438   7.817   0.782   3.390 -0.3758 -0.2518  0.7839
14833TIP3   OH244439   6.322   0.962   1.670  0.0111  0.4682 -0.1566
14833TIP3    H144440   6.290   0.997   1.753  2.8158 -0.3477  1.4114
14833TIP3    H244441   6.302   0.868   1.674  0.0943  0.4356 -0.4455
14834TIP3   OH244442   3.734   7.473   2.148  0.0506 -0.3201  0.0010
14834TIP3    H144443   3.707   7.421   2.072  1.6437 -0.0759 -0.7748
14834TIP3    H244444   3.767   7.554   2.110 -1.3298  0.8216  1.1329
14835TIP3   OH244445   1.650   0.194   2.474  0.2141  0.1569 -0.0675
14835TIP3    H144446   1.684   0.257   2.409  0.7723 -0.6784 -0.5990
14835TIP3    H244447   1.557   0.189   2.455  0.5356 -0.8449 -1.4952
14836TIP3   OH244448   8.099   2.498   6.599  0.3455  0.1460 -0.0486
14836TIP3    H144449   8.020   2.534   6.640  0.4229  0.7013 -0.3699
14836TIP3    H244450   8.133   2.435   6.662 -0.1162  0.2211  0.2805
14837TIP3   OH244451   2.983   3.569   3.852  0.2592 -0.4461  0.1119
14837TIP3    H144452   3.030   3.606   3.777  2.0506 -2.0014  0.3629
14837TIP3    H244453   2.944   3.644   3.895  2.7332  1.0614 -0.0357
14838TIP3   OH244454   1.659   3.087   3.570  0.0784 -0.4521 -0.4942
14838TIP3    H144455   1.577   3.058   3.609 -0.1000 -0.2913 -0.7548
14838TIP3    H244456   1.707   3.127   3.643  0.3045 -1.3258 -0.1348
14839TIP3   OH244457   0.704   3.634   3.183  0.7016  0.1552 -0.4526
14839TIP3    H144458   0.749   3.669   3.259  0.4913 -1.2368  0.3515
14839TIP3    H244459   0.772   3.629   3.115  0.6473  2.4031 -0.7461
14840TIP3   OH244460   4.560   6.520   5.546  0.3136  0.0147  0.0455
14840TIP3    H144461   4.513   6.533   5.628 -0.0580 -1.2116  0.0484
14840TIP3    H244462   4.652   6.520   5.571  0.1704 -1.9572  0.7546
14841TIP3   OH244463   2.575   4.161   1.325  0.4136 -0.2198  0.0965
14841TIP3    H144464   2.663   4.199   1.320  0.2313  0.0647 -2.1561
14841TIP3    H244465   2.524   4.224   1.374  1.0224  0.5664 -0.2558
14842TIP3   OH244466   1.907   3.580   6.028 -0.5170 -0.0952 -0.0413
14842TIP3    H144467   1.895   3.671   5.999 -1.6288 -0.0247  0.5920
14842TIP3    H244468   1.836   3.565   6.090  0.7180 -0.8159  1.2844
14843TIP3   OH244469   2.210   7.219   4.136  0.3878 -0.0378 -0.5759
14843TIP3    H144470   2.163   7.136   4.134 -0.2219  0.2387  0.8101
14843TIP3    H244471   2.263   7.219   4.057 -0.5146 -1.2062 -1.2069
14844TIP3   OH244472   5.099   0.693   4.706 -0.5074  0.3720  0.0111
14844TIP3    H144473   5.021   0.638   4.704 -0.1390 -0.1415 -1.1622
14844TIP3    H244474   5.107   0.719   4.798 -0.9044 -1.2106  0.5338
14845TIP3   OH244475   1.114   5.642   1.004 -0.4816 -0.3243 -0.2418
14845TIP3    H144476   1.180   5.711   1.011 -0.3152 -0.3419 -1.3897
14845TIP3    H244477   1.059   5.652   1.082 -0.6903  1.3411 -0.5679
14846TIP3   OH244478   1.366   6.803   3.173 -0.4075 -0.0546  0.3864
14846TIP3    H144479   1.458   6.796   3.198 -0.0589  0.2517 -0.7638
14846TIP3    H244480   1.333   6.880   3.221 -0.5546 -1.1665  2.1574
14847TIP3   OH244481   8.086   6.699   6.664  0.8434 -0.2591 -0.1210
14847TIP3    H144482   8.125   6.776   6.623  1.1753 -0.2458  0.2253
14847TIP3    H244483   8.122   6.697   6.752  1.7359 -1.4537 -0.4889
14848TIP3   OH244484   7.521   5.050   4.046 -0.0374  0.2754  0.2426
14848TIP3    H144485   7.465   5.126   4.060  0.3624  0.3430  1.6503
14848TIP3    H244486   7.602   5.072   4.092  0.7810 -0.2378 -0.9030
14849TIP3   OH244487   2.393   2.331   6.341 -0.1606  0.0667 -0.1145
14849TIP3    H144488   2.316   2.326   6.285  0.4274 -0.3902 -0.9032
14849TIP3    H244489   2.428   2.419   6.327 -0.3070  0.1294 -0.0786
14850TIP3   OH244490   5.245   5.162   1.612 -0.2135  0.0500  0.2448
14850TIP3    H144491   5.254   5.257   1.615 -0.6773  0.1345 -0.7020
14850TIP3    H244492   5.171   5.147   1.553  1.3898 -0.9702 -1.6080
14851TIP3   OH244493   3.167   4.149   3.889  0.1658  0.0393  0.8296
14851TIP3    H144494   3.190   4.163   3.797 -1.0312 -0.4964  0.4303
14851TIP3    H244495   3.149   4.236   3.924 -0.4111  0.1482  0.2676
14852TIP3   OH244496   7.717   4.592   6.492  0.1582  0.0687 -0.3207
14852TIP3    H144497   7.805   4.572   6.524 -0.7152 -1.3717  1.3754
14852TIP3    H244498   7.730   4.662   6.428  2.4769  0.1943  0.1973
14853TIP3   OH244499   0.964   3.367   1.599 -0.2616 -0.4533  0.5242
14853TIP3    H144500   0.951   3.327   1.685  1.1240  0.2163  1.0872
14853TIP3    H244501   0.917   3.451   1.605 -1.3809 -1.0318  0.0947
14854TIP3   OH244502   3.608   7.072   6.367  0.6779 -0.2163  0.3013
14854TIP3    H144503   3.644   7.035   6.448  1.8297  2.3838  1.0993
14854TIP3    H244504   3.595   7.165   6.387 -3.6832 -0.3161 -0.9734
14855TIP3   OH244505   3.006   3.717   4.535 -0.0788 -0.4035  0.0064
14855TIP3    H144506   2.987   3.713   4.629 -1.9231  0.2989 -0.2865
14855TIP3    H244507   2.920   3.714   4.493  0.7229 -1.0627 -1.6965
14856TIP3   OH244508   7.749   6.582   5.911 -0.7353 -0.2880  0.3323
14856TIP3    H144509   7.801   6.597   5.832 -1.0681  3.1544  0.5876
14856TIP3    H244510   7.660   6.570   5.880 -0.8161  0.7678  0.1009
14857TIP3   OH244511   1.712   6.413  -0.004  0.1218  0.6802 -0.2685
14857TIP3    H144512   1.733   6.407   0.089 -0.1348  1.5333 -0.1474
14857TIP3    H244513   1.795   6.435  -0.046  0.6077 -1.3465 -0.4644
14858TIP3   OH244514   7.641   2.706   0.664  0.1150  0.4279 -0.2179
14858TIP3    H144515   7.651   2.635   0.728  1.6809  0.6259 -0.2025
14858TIP3    H244516   7.673   2.668   0.582 -1.9741  0.1434 -0.9620
14859TIP3   OH244517   5.555   3.523   3.190 -0.0041 -0.1546 -0.0596
14859TIP3    H144518   5.621   3.471   3.143  1.1632  0.4030  0.9303
14859TIP3    H244519   5.553   3.486   3.278 -0.5802  0.2448  0.1021
14860TIP3   OH244520   2.169   1.545   0.819  0.1518  0.0321  0.0389
14860TIP3    H144521   2.103   1.608   0.847 -1.0064  0.1923 -2.7368
14860TIP3    H244522   2.239   1.599   0.782 -0.1079 -0.2426 -0.8723
14861TIP3   OH244523   6.938   5.835   4.601  0.1155 -0.2511  1.0652
14861TIP3    H144524   6.894   5.801   4.523  0.2865  2.9834 -0.6041
14861TIP3    H244525   6.867   5.871   4.655  0.2952  1.1502  0.4051
14862TIP3   OH244526   3.968   4.809   4.118 -0.0478  0.1346  0.2233
14862TIP3    H144527   3.880   4.840   4.142  0.7389  2.3727  0.4046
14862TIP3    H244528   4.026   4.882   4.140  1.7307 -0.8719 -0.9368
14863TIP3   OH244529   7.720   1.791   1.445  0.4633  0.3433  0.5041
14863TIP3    H144530   7.792   1.737   1.413  0.6975  0.6752  0.4603
14863TIP3    H244531   7.762   1.850   1.508  0.0244 -0.2702  1.3937
14864TIP3   OH244532   2.874   3.771   4.796 -0.3365  0.1522  0.0210
14864TIP3    H144533   2.819   3.824   4.739  0.9808  0.4373 -1.0456
14864TIP3    H244534   2.910   3.833   4.860 -0.2746  0.1979 -0.0583
14865TIP3   OH244535   7.461   4.489   6.668  0.0753  0.1991  0.5772
14865TIP3    H144536   7.444   4.459   6.758 -1.1493  1.1838  0.7060
14865TIP3    H244537   7.553   4.513   6.668  0.0226  0.4845  1.6743
14866TIP3   OH244538   0.997   0.890   1.077 -0.1910 -0.2215  0.4798
14866TIP3    H144539   1.079   0.906   1.124 -0.9166 -1.0464  2.1004
14866TIP3    H244540   0.944   0.839   1.138 -1.3590 -0.9660 -1.0970
14867TIP3   OH244541   5.316   5.079   2.426  0.1571  0.0001 -0.2419
14867TIP3    H144542   5.241   5.136   2.412  0.4146  0.6772  0.9968
14867TIP3    H244543   5.393   5.134   2.410  0.4072 -0.4155 -0.5143
14868TIP3   OH244544   5.805   6.371   4.609  0.2121  0.4878 -0.6409
14868TIP3    H144545   5.828   6.289   4.567 -1.0096 -2.5625  3.9077
14868TIP3    H244546   5.711   6.381   4.592  0.3254  0.8988 -1.0488
14869TIP3   OH244547   6.999   5.287   2.781 -0.0158 -0.2074 -0.2932
14869TIP3    H144548   6.999   5.201   2.823 -2.0062 -0.0072  0.1749
14869TIP3    H244549   7.041   5.272   2.697  1.0285 -1.3075  0.3918
14870TIP3   OH244550   2.996   7.855   4.109 -0.4168 -0.4871  0.4724
14870TIP3    H144551   2.921   7.796   4.103 -0.1879 -1.1341  2.8270
14870TIP3    H244552   3.067   7.808   4.064 -0.8085 -0.9544  0.3341
14871TIP3   OH244553   4.304   3.116   0.998 -0.2341 -0.1397 -0.0073
14871TIP3    H144554   4.269   3.029   1.017 -0.2001 -0.1938 -0.1912
14871TIP3    H244555   4.250   3.149   0.926 -0.7304  0.2961  0.5521
14872TIP3   OH244556   2.817   4.944   3.263 -0.0431  0.0162  0.1046
14872TIP3    H144557   2.728   4.925   3.294  0.1057  0.6881  0.9753
14872TIP3    H244558   2.836   5.032   3.297  0.7949  0.0512 -0.4312
14873TIP3   OH244559   3.170   7.358   3.481 -0.1864  0.2971 -0.2635
14873TIP3    H144560   3.208   7.281   3.522  0.4199  0.7157 -0.0276
14873TIP3    H244561   3.159   7.334   3.389  0.4419  0.0885 -0.2897
14874TIP3   OH244562   7.615   6.880   6.118  0.4173 -0.1615 -0.2016
14874TIP3    H144563   7.702   6.853   6.087  0.4639 -0.1746 -0.0584
14874TIP3    H244564   7.625   6.973   6.137  0.6117 -0.3323  0.5575
14875TIP3   OH244565   6.003   5.313   2.087  0.0302  0.5253  0.2365
14875TIP3    H144566   5.932   5.324   2.151 -0.3501 -0.9458  0.1185
14875TIP3    H244567   5.958   5.290   2.006  0.5500  1.6845 -0.3883
14876TIP3   OH244568   5.164   3.573   3.341 -0.3015  0.0175 -0.0250
14876TIP3    H144569   5.247   3.618   3.326  0.7367 -1.9190 -0.3344
14876TIP3    H244570   5.166   3.549   3.434 -1.8609  2.4256  0.7475
14877TIP3   OH244571   2.123   1.410   1.751 -0.0045 -0.3059  0.4684
14877TIP3    H144572   2.053   1.346   1.751 -0.2059 -0.1145 -1.0910
14877TIP3    H244573   2.160   1.405   1.839 -1.0105 -1.4486  0.8488
14878TIP3   OH244574   4.240   2.033   1.510  0.0773  0.0105 -0.0794
14878TIP3    H144575   4.278   2.026   1.422  0.4704  1.0294 -0.0033
14878TIP3    H244576   4.153   1.994   1.502  0.9133 -1.9139 -0.3821
14879TIP3   OH244577   7.340   2.413   1.434 -0.1202  0.4327 -0.3976
14879TIP3    H144578   7.351   2.325   1.398 -0.9419 -0.1877  0.8033
14879TIP3    H244579   7.429   2.442   1.454  0.0431 -1.6751  2.6559
14880TIP3   OH244580   4.827   3.125   3.794 -0.4937 -0.2366 -0.2745
14880TIP3    H144581   4.797   3.039   3.823 -0.9749  0.1005  0.2422
14880TIP3    H244582   4.785   3.187   3.854 -0.2846  0.3716 -0.7464
14881TIP3   OH244583   4.461   2.894   4.132  0.4084 -0.3809  0.3816
14881TIP3    H144584   4.466   2.875   4.038 -0.5913  0.3045  0.1798
14881TIP3    H244585   4.509   2.822   4.173  0.2504 -1.0737 -0.6115
14882TIP3   OH244586   6.461   7.801   4.014 -0.4053 -0.0834 -0.2690
14882TIP3    H144587   6.458   7.723   4.071 -1.4794  0.3253  0.2518
14882TIP3    H244588   6.531   7.854   4.051 -0.3308 -0.3469 -0.0237
14883TIP3   OH244589   5.552   5.801   2.770  0.4106  0.3020  0.4488
14883TIP3    H144590   5.573   5.717   2.729  0.9658 -0.1644  1.6338
14883TIP3    H244591   5.481   5.780   2.831 -0.6570  1.0558 -0.4885
14884TIP3   OH244592   4.073   2.158   3.845  0.2176 -0.2189 -0.2040
14884TIP3    H144593   4.053   2.068   3.870  3.4428 -1.5579 -1.8503
14884TIP3    H244594   4.007   2.180   3.778 -0.4380 -1.4513  0.0099
14885TIP3   OH244595   1.589   3.776   3.636 -0.3578  0.1775  0.5314
14885TIP3    H144596   1.599   3.685   3.663  0.8495  0.5533  1.4495
14885TIP3    H244597   1.495   3.793   3.643 -0.6058 -1.0205  0.2508
14886TIP3   OH244598   1.716   2.983   1.354  0.4961 -0.1221  0.1361
14886TIP3    H144599   1.690   2.974   1.263  1.5345 -1.6375 -0.0476
14886TIP3    H244600   1.776   3.058   1.354  1.1908 -0.6591 -0.6038
14887TIP3   OH244601   2.020   0.272   3.898  0.1150 -0.5718 -0.1396
14887TIP3    H144602   1.942   0.266   3.842  0.5417 -1.2319 -0.6812
14887TIP3    H244603   2.005   0.350   3.951  0.3725  0.9949 -2.2159
14888TIP3   OH244604   1.891   0.920   6.500 -0.6673  1.0119 -0.4165
14888TIP3    H144605   1.885   1.015   6.510 -0.7801  0.9836 -0.2144
14888TIP3    H244606   1.801   0.889   6.512 -0.8520  0.9904 -1.6865
14889TIP3   OH244607   6.027   0.252   6.601  0.1986  0.3809 -0.4313
14889TIP3    H144608   5.982   0.193   6.541  1.3223 -0.4777 -0.4748
14889TIP3    H244609   5.960   0.314   6.630 -0.8896 -0.6037 -0.7872
14890TIP3   OH244610   7.971   0.774   4.574 -0.3281 -0.2359 -0.5782
14890TIP3    H144611   7.898   0.718   4.598 -0.7667  0.2595 -0.7316
14890TIP3    H244612   8.028   0.719   4.520  0.2375 -1.1032  0.8632
14891TIP3   OH244613   7.658   4.802   6.269 -0.5397  0.7335  0.0300
14891TIP3    H144614   7.722   4.762   6.211 -0.6237 -1.0353  1.0738
14891TIP3    H244615   7.577   4.754   6.253 -0.4192 -0.2318  1.9634
14892TIP3   OH244616   7.628   7.352   3.633  0.3460 -0.5154 -0.5555
14892TIP3    H144617   7.704   7.347   3.575 -1.1768 -1.4198 -2.6032
14892TIP3    H244618   7.553   7.360   3.573 -1.2197 -0.0355  1.3639
14893TIP3   OH244619   0.628   6.354   6.483 -0.0003 -0.5927  0.1428
14893TIP3    H144620   0.696   6.405   6.440  1.2501 -0.8699  1.6822
14893TIP3    H244621   0.608   6.283   6.422  0.5900 -0.1070 -0.6326
14894TIP3   OH244622   1.627   0.133   3.100  0.1763 -0.3266  0.4995
14894TIP3    H144623   1.599   0.211   3.052 -0.1174  0.9574  2.6155
14894TIP3    H244624   1.704   0.161   3.148  0.2882 -1.4661  1.0066
14895TIP3   OH244625   3.088   5.730   5.596  0.3594 -0.8682 -0.3804
14895TIP3    H144626   3.044   5.796   5.649 -0.6386 -1.7453 -0.0745
14895TIP3    H244627   3.178   5.730   5.627  0.5619  0.7972 -0.8498
14896TIP3   OH244628   8.118   5.115   4.629 -1.0370  0.1971 -0.4390
14896TIP3    H144629   8.121   5.206   4.661 -0.3776  0.3477 -0.9105
14896TIP3    H244630   8.136   5.062   4.707 -2.2961  0.4115  0.0303
14897TIP3   OH244631   6.493   1.074   4.513 -0.0096  0.2693  0.0005
14897TIP3    H144632   6.502   1.114   4.600 -2.0726 -1.0270  0.8986
14897TIP3    H244633   6.449   1.141   4.460 -2.2113 -0.2203  1.1008
14898TIP3   OH244634   4.752   3.645   3.741 -0.1344 -0.6734  0.1064
14898TIP3    H144635   4.761   3.717   3.679 -1.7059 -1.2472 -0.8318
14898TIP3    H244636   4.779   3.567   3.692  0.5062 -0.8918  0.7777
14899TIP3   OH244637   8.077   4.469   2.832 -0.1735 -0.7234 -0.0732
14899TIP3    H144638   8.123   4.543   2.791 -0.6698  0.9611  2.1946
14899TIP3    H244639   8.118   4.461   2.918 -2.4509 -0.7861  1.0658
14900TIP3   OH244640   8.006   6.154   4.191 -0.4197 -0.3849  0.0358
14900TIP3    H144641   8.012   6.203   4.274 -1.2972 -0.5093  0.1842
14900TIP3    H244642   7.927   6.188   4.149  2.0319  2.6380 -2.7221
14901TIP3   OH244643   4.557   0.555   5.554  0.1636  0.3976  0.5222
14901TIP3    H144644   4.574   0.473   5.600 -0.6669 -0.0621  0.0307
14901TIP3    H244645   4.540   0.619   5.624  2.0367  0.4679  0.9588
14902TIP3   OH244646   6.392   1.850   2.407 -0.2293 -0.0436 -0.1088
14902TIP3    H144647   6.463   1.887   2.459 -0.4053  0.9948 -0.5914
14902TIP3    H244648   6.429   1.841   2.319  0.3157 -2.4859  0.2863
14903TIP3   OH244649   6.032   0.177   3.751 -0.7663 -0.3448 -0.0335
14903TIP3    H144650   5.938   0.171   3.735 -0.8614  0.0970  0.3478
14903TIP3    H244651   6.040   0.183   3.846 -0.5415  2.4980 -0.1353
14904TIP3   OH244652   0.880   3.953   2.648 -0.7207  0.6691 -0.5833
14904TIP3    H144653   0.899   4.040   2.684  0.7801 -1.1301  3.5256
14904TIP3    H244654   0.954   3.899   2.676 -3.0261 -2.6033 -0.2741
14905TIP3   OH244655   1.285   6.249   5.702 -0.4449 -0.4234  0.1768
14905TIP3    H144656   1.217   6.288   5.757 -2.1509 -0.1919 -1.9725
14905TIP3    H244657   1.262   6.156   5.698 -1.0266 -0.2435 -1.0331
14906TIP3   OH244658   6.385   3.619   6.120 -0.1288  0.0077 -0.3537
14906TIP3    H144659   6.291   3.637   6.109 -0.8281 -2.3449  0.9861
14906TIP3    H244660   6.416   3.599   6.031  0.0055  3.9713 -1.3975
14907TIP3   OH244661   2.392   1.115   3.891  0.1138  0.2647  0.2861
14907TIP3    H144662   2.481   1.150   3.893  0.5875 -0.9172  1.6947
14907TIP3    H244663   2.404   1.020   3.881 -0.8558 -0.1832  2.7798
14908TIP3   OH244664   6.308   4.252   4.129  0.4126 -0.5139  0.3941
14908TIP3    H144665   6.348   4.171   4.160  0.0617 -0.3621  1.2534
14908TIP3    H244666   6.303   4.308   4.206  1.7283  0.7870 -0.4124
14909TIP3   OH244667   7.388   2.316   4.309 -0.3642  0.0396 -0.0285
14909TIP3    H144668   7.455   2.313   4.241 -0.1032 -0.4324  0.2474
14909TIP3    H244669   7.318   2.370   4.271 -0.1630 -0.1081 -0.6181
14910TIP3   OH244670   5.384   5.227   5.921  0.3508 -0.0823 -0.1179
14910TIP3    H144671   5.388   5.202   6.013  0.6345 -0.4671 -0.2281
14910TIP3    H244672   5.304   5.279   5.913 -0.9854 -2.0006 -0.1166
14911TIP3   OH244673   1.678   7.844   1.744  0.1412 -0.6589 -0.1986
14911TIP3    H144674   1.625   7.776   1.702 -0.0094 -1.4489  1.1806
14911TIP3    H244675   1.764   7.836   1.703  0.3822 -2.3230  0.5245
14912TIP3   OH244676   2.157   7.386   2.318 -0.0837  0.3939  0.3837
14912TIP3    H144677   2.086   7.434   2.358  1.5742  3.7419 -0.3198
14912TIP3    H244678   2.145   7.399   2.224  1.4448  1.0846  0.2574
14913TIP3   OH244679   2.038   6.237   5.902  0.1006 -0.1236  0.3140
14913TIP3    H144680   1.944   6.224   5.915 -0.0033  0.0916 -0.1788
14913TIP3    H244681   2.056   6.322   5.942  0.3435 -0.7377  1.5494
14914TIP3   OH244682   0.561   1.668   0.353 -0.0816  0.0740  0.0261
14914TIP3    H144683   0.588   1.721   0.428  0.6462  1.6178 -1.2857
14914TIP3    H244684   0.597   1.581   0.370  0.4439  0.5152  1.2376
14915TIP3   OH244685   8.098   5.581   4.168 -0.0133 -0.2649 -0.7916
14915TIP3    H144686   8.069   5.673   4.169  0.5099 -0.0918 -1.0420
14915TIP3    H244687   8.189   5.585   4.199 -0.3306 -0.8237  0.2450
14916TIP3   OH244688   0.636   2.256   0.891  0.2691  0.2857  0.4154
14916TIP3    H144689   0.542   2.241   0.895  0.4997 -1.2983  0.3152
14916TIP3    H244690   0.646   2.351   0.903 -1.3504  0.5245  0.0431
14917TIP3   OH244691   7.949   0.796   3.534 -0.1889 -0.0795  0.5718
14917TIP3    H144692   7.936   0.826   3.624 -0.1580  1.7832 -0.0094
14917TIP3    H244693   8.043   0.802   3.519 -0.1419 -0.7877  0.5243
14918TIP3   OH244694   0.474   2.993   3.228 -0.1210 -0.2067 -0.1514
14918TIP3    H144695   0.469   2.966   3.136 -3.8106  0.3371 -0.2671
14918TIP3    H244696   0.451   3.086   3.227 -2.0032 -0.6037  1.4374
14919TIP3   OH244697   4.259   7.749   0.105 -0.1621  0.1306 -0.1077
14919TIP3    H144698   4.298   7.776   0.189 -0.9448 -0.0887  0.3301
14919TIP3    H244699   4.276   7.823   0.046 -1.9720  1.4889  0.9827
14920TIP3   OH244700   7.258   4.862   2.871  0.1175  0.3318  0.1280
14920TIP3    H144701   7.312   4.936   2.898 -0.2186  0.4867  0.3791
14920TIP3    H244702   7.248   4.809   2.950  0.3324  0.0304 -0.0427
14921TIP3   OH244703   4.081   0.781   3.305 -0.0942  0.4662  0.7684
14921TIP3    H144704   4.167   0.772   3.263 -0.3129 -0.2589  0.4519
14921TIP3    H244705   4.022   0.731   3.249 -0.9314  1.8191  0.4103
14922TIP3   OH244706   1.536   7.198   1.996  0.1714 -0.8935  1.2171
14922TIP3    H144707   1.513   7.119   1.947 -1.0769  1.0322 -1.5676
14922TIP3    H244708   1.458   7.216   2.048  0.5353 -1.5623  2.0164
14923TIP3   OH244709   4.042   1.666   2.084 -0.4512  0.2583  0.0592
14923TIP3    H144710   4.029   1.636   1.994 -1.2437  0.9479 -0.0730
14923TIP3    H244711   3.964   1.719   2.102 -0.1090  0.4402  1.0173
14924TIP3   OH244712   6.359   4.148   0.469 -0.5120 -0.0665 -0.2272
14924TIP3    H144713   6.268   4.179   0.464  0.4441  3.3085  0.4808
14924TIP3    H244714   6.380   4.148   0.562  0.0812 -1.3488 -0.3432
14925TIP3   OH244715   7.079   6.509   2.735  0.5530  0.0529 -0.2320
14925TIP3    H144716   7.041   6.465   2.812 -0.9155 -0.1543 -1.0238
14925TIP3    H244717   7.172   6.489   2.739  0.5610  0.2637  1.6269
14926TIP3   OH244718   0.985   0.751   5.390 -0.7158  0.3649 -0.3324
14926TIP3    H144719   0.984   0.684   5.457 -1.0204  0.7061  0.0069
14926TIP3    H244720   0.927   0.718   5.321 -1.2311  0.4925  0.0395
14927TIP3   OH244721   2.055   5.334   6.693  0.6667  0.0389  0.0646
14927TIP3    H144722   2.048   5.340   6.597  0.4890  1.2006  0.1323
14927TIP3    H244723   2.109   5.410   6.717  2.0863 -1.1437  0.7596
14928TIP3   OH244724   1.791   4.713   2.421  0.0002  0.1229  0.1823
14928TIP3    H144725   1.705   4.736   2.456  0.1029 -0.9638  1.2368
14928TIP3    H244726   1.853   4.757   2.479  0.1623  0.7533 -0.4626
14929TIP3   OH244727   7.713   1.564   2.632  0.3922  0.2780 -0.1187
14929TIP3    H144728   7.722   1.587   2.540  0.0302  1.0488  0.0348
14929TIP3    H244729   7.674   1.477   2.631 -0.2114  0.5432 -0.6907
14930TIP3   OH244730   3.188   7.777   3.781 -0.6982 -0.0572 -0.4032
14930TIP3    H144731   3.260   7.807   3.837  0.2326  0.9906 -2.0451
14930TIP3    H244732   3.160   7.695   3.820 -0.3352  0.7656  1.7655
14931TIP3   OH244733   5.128   4.032   1.446 -0.3364 -0.2195 -0.2545
14931TIP3    H144734   5.224   4.034   1.445 -0.2134 -2.7765 -0.5864
14931TIP3    H244735   5.104   3.971   1.377 -2.2818  0.8860 -0.6441
14932TIP3   OH244736   0.140   2.134   3.101 -0.4709 -0.7023 -0.2179
14932TIP3    H144737   0.204   2.066   3.079 -0.5453 -0.2531 -1.8781
14932TIP3    H244738   0.151   2.201   3.034 -1.8586 -0.0493  0.1721
14933TIP3   OH244739   0.653   5.419   5.086 -0.2841 -0.3183 -0.5699
14933TIP3    H144740   0.597   5.428   5.009  0.2230  0.3395 -0.8766
14933TIP3    H244741   0.646   5.327   5.111  0.5704 -0.8496 -2.1920
14934TIP3   OH244742   5.744   7.492   6.874  0.2971  0.3863  0.2082
14934TIP3    H144743   5.834   7.520   6.883 -0.7100  3.4324  2.0495
14934TIP3    H244744   5.714   7.532   6.792  0.1375  0.8218  0.4794
14935TIP3   OH244745   8.219   5.863   5.275 -0.0049  0.0936 -0.2122
14935TIP3    H144746   8.165   5.794   5.313  1.4078  0.0179  1.8306
14935TIP3    H244747   8.290   5.817   5.231  1.3937  0.1797  1.8534
14936TIP3   OH244748   7.966   7.316   2.309 -0.0908 -1.4891 -0.3877
14936TIP3    H144749   7.905   7.247   2.282 -2.1188 -0.2910  0.9245
14936TIP3    H244750   7.979   7.368   2.230 -1.7642 -1.0758 -0.4316
14937TIP3   OH244751   4.364   1.884   2.691 -0.3428  0.3339  0.4187
14937TIP3    H144752   4.407   1.876   2.776  2.5940  1.6912 -0.7698
14937TIP3    H244753   4.298   1.815   2.690 -0.2721  0.0811  3.6364
14938TIP3   OH244754   2.683   6.224   0.326 -0.4884  0.1135 -0.1349
14938TIP3    H144755   2.736   6.145   0.339  0.2291  0.8420  1.6770
14938TIP3    H244756   2.738   6.296   0.355 -2.4350  0.8963  1.9506
14939TIP3   OH244757   5.683   7.420   1.864 -0.0074  0.3193  0.0652
14939TIP3    H144758   5.722   7.376   1.788 -2.5875  0.5311 -1.4930
14939TIP3    H244759   5.661   7.508   1.833 -2.2967 -0.0056  0.5619
14940TIP3   OH244760   2.273   5.107   4.390 -0.0867  0.1657 -0.0080
14940TIP3    H144761   2.219   5.166   4.338 -0.5405  0.7367  1.0761
14940TIP3    H244762   2.360   5.147   4.389  0.1868 -0.4184 -1.2248
14941TIP3   OH244763   5.496   2.769   4.179 -0.0977  0.0672 -0.0071
14941TIP3    H144764   5.432   2.790   4.111 -0.8347  1.0268  0.9587
14941TIP3    H244765   5.501   2.847   4.233  1.0641 -0.4003  0.5913
14942TIP3   OH244766   5.258   4.475   2.982  0.2061 -0.3821 -0.2498
14942TIP3    H144767   5.224   4.565   2.983  0.0917 -0.3558 -2.0426
14942TIP3    H244768   5.320   4.474   2.909  0.6022 -1.6334  0.0811
14943TIP3   OH244769   6.811   4.375   4.183  0.2036 -0.2325  0.0456
14943TIP3    H144770   6.785   4.341   4.268 -1.1167 -1.4094 -0.7917
14943TIP3    H244771   6.738   4.356   4.125  1.5574 -0.5828 -1.6466
14944TIP3   OH244772   6.380   0.580   2.972  0.5079 -0.0635  0.4786
14944TIP3    H144773   6.408   0.608   3.058 -0.9874 -0.8342  1.2588
14944TIP3    H244774   6.291   0.547   2.985 -0.3247  1.1567 -1.6264
14945TIP3   OH244775   4.605   6.164   3.986  0.4022 -0.1451 -0.1830
14945TIP3    H144776   4.617   6.251   3.948 -0.9717  0.5027  0.7784
14945TIP3    H244777   4.613   6.177   4.080 -2.7590 -0.4087  0.2359
14946TIP3   OH244778   3.682   3.549   0.200 -0.1779 -0.2380 -0.1497
14946TIP3    H144779   3.669   3.461   0.164 -0.0833 -0.2800 -0.0823
14946TIP3    H244780   3.758   3.584   0.153  1.0165 -0.9307  1.1592
14947TIP3   OH244781   3.402   4.728   5.293 -0.3138  0.1366 -0.1624
14947TIP3    H144782   3.338   4.767   5.353 -0.7209  0.7432 -0.9680
14947TIP3    H244783   3.479   4.785   5.299 -0.2616  0.0506 -0.0224
14948TIP3   OH244784   1.677   7.474   6.617 -0.0914  0.8498 -0.0211
14948TIP3    H144785   1.632   7.471   6.701 -0.3709 -1.4770 -0.1719
14948TIP3    H244786   1.765   7.440   6.635 -0.4342 -0.5444 -0.7519
14949TIP3   OH244787   6.641   6.967   3.683  0.2028  0.0254  0.4557
14949TIP3    H144788   6.554   6.999   3.706 -1.0426 -2.3470 -0.5680
14949TIP3    H244789   6.692   6.976   3.763 -1.3599  0.2976  1.4592
14950TIP3   OH244790   3.550   1.855   3.197  0.5237 -0.0902 -0.1900
14950TIP3    H144791   3.514   1.940   3.220  0.8798  0.3029 -1.0385
14950TIP3    H244792   3.538   1.801   3.275  2.5758  1.4446  1.2937
14951TIP3   OH244793   6.175   7.713   2.030 -0.2633  0.2961  0.3916
14951TIP3    H144794   6.194   7.717   2.123  2.4583 -0.2354 -0.0689
14951TIP3    H244795   6.222   7.787   1.992  0.7235 -0.8930 -0.8133
14952TIP3   OH244796   3.723   4.725   5.834 -0.1516  0.3673  0.0688
14952TIP3    H144797   3.668   4.767   5.900 -0.6346 -1.4408  0.8774
14952TIP3    H244798   3.677   4.741   5.751 -0.1517  1.6670  0.3057
14953TIP3   OH244799   1.540   5.294   0.581  0.1328 -0.4815  0.3341
14953TIP3    H144800   1.562   5.290   0.487  1.3015  0.7207  0.5238
14953TIP3    H244801   1.473   5.227   0.593  0.2592 -0.9378 -1.2871
14954TIP3   OH244802   3.183   2.932   0.924 -0.5281  0.3218  0.1734
14954TIP3    H144803   3.167   3.016   0.881 -1.7824  0.3297  0.6037
14954TIP3    H244804   3.109   2.877   0.899  0.9515 -1.1375 -1.1860
14955TIP3   OH244805   2.262   5.749   2.657 -0.5301  0.1396 -0.7484
14955TIP3    H144806   2.213   5.818   2.702  1.1467 -0.3116  1.9671
14955TIP3    H244807   2.354   5.771   2.673  0.0540 -2.2996 -0.4424
14956TIP3   OH244808   6.381   4.661   0.228  0.3672 -0.2827 -0.0087
14956TIP3    H144809   6.436   4.723   0.275  1.9996 -1.4946 -0.2254
14956TIP3    H244810   6.337   4.611   0.297 -0.9737  1.0841  0.1650
14957TIP3   OH244811   5.325   5.699   5.852  0.0602  0.3581 -0.0357
14957TIP3    H144812   5.327   5.658   5.766  0.0063 -0.9847  0.5675
14957TIP3    H244813   5.395   5.655   5.900 -1.2917 -0.4860  1.2546
14958TIP3   OH244814   3.558   0.805   0.953  0.1333  0.1874  0.6948
14958TIP3    H144815   3.521   0.726   0.992 -2.7199 -0.5946 -3.0180
14958TIP3    H244816   3.613   0.773   0.881  0.0998  1.5515  0.0317
14959TIP3   OH244817   1.253   3.497   2.354 -0.2928 -0.3104 -0.5625
14959TIP3    H144818   1.310   3.571   2.331 -1.0328 -0.0778 -1.7673
14959TIP3    H244819   1.312   3.422   2.357  0.9552  0.6013  3.1655
14960TIP3   OH244820   4.654   7.168   1.212  0.2775 -0.1412 -0.0755
14960TIP3    H144821   4.624   7.216   1.289  1.6998  0.7213 -0.0329
14960TIP3    H244822   4.652   7.232   1.141  2.7900  0.2315  0.1117
14961TIP3   OH244823   5.869   4.528   0.122  0.0744 -0.0657  0.2309
14961TIP3    H144824   5.895   4.554   0.034 -0.3545  0.8608  0.3665
14961TIP3    H244825   5.838   4.438   0.112 -0.5695  0.2358 -0.6929
14962TIP3   OH244826   6.026   2.113   4.401 -0.1796 -0.1134  0.1561
14962TIP3    H144827   5.930   2.113   4.399 -0.2904  1.7669  1.7236
14962TIP3    H244828   6.050   2.194   4.355  0.4893  0.6509  1.7528
14963TIP3   OH244829   4.679   5.058   5.424  0.2401 -0.1162 -0.1323
14963TIP3    H144830   4.627   5.136   5.446  0.3247 -0.3709  1.0620
14963TIP3    H244831   4.637   4.988   5.474  0.0266 -0.8961 -1.3772
14964TIP3   OH244832   7.293   5.292   6.775  0.0191  0.0886 -0.0446
14964TIP3    H144833   7.365   5.354   6.771  0.6578 -0.5638  0.8735
14964TIP3    H244834   7.214   5.346   6.783  0.4893  0.7849 -0.0809
14965TIP3   OH244835   3.695   6.104   3.583 -0.1883 -0.2054  0.1324
14965TIP3    H144836   3.629   6.045   3.547 -1.0119  0.3919  0.6533
14965TIP3    H244837   3.776   6.080   3.537 -0.4326 -1.9290  0.5239
14966TIP3   OH244838   5.557   5.134   4.241 -0.1753 -0.1052  0.6832
14966TIP3    H144839   5.525   5.104   4.326  0.3890 -0.1550  0.8813
14966TIP3    H244840   5.594   5.056   4.200  0.7077  0.1667  0.9298
14967TIP3   OH244841   4.678   4.464   3.062  0.7759 -0.1902 -0.1615
14967TIP3    H144842   4.763   4.507   3.074 -0.1855  1.5116  1.0839
14967TIP3    H244843   4.690   4.408   2.985  3.4313 -1.1304  0.7985
14968TIP3   OH244844   5.275   0.285   6.223  0.4438 -0.0240 -0.6957
14968TIP3    H144845   5.204   0.229   6.253  0.1322 -0.3026 -1.8709
14968TIP3    H244846   5.302   0.334   6.300 -1.0393  0.0983 -0.2318
14969TIP3   OH244847   2.086   5.606   2.225 -0.1011 -0.4263  0.2030
14969TIP3    H144848   2.140   5.585   2.302 -1.4668 -1.0070  1.0364
14969TIP3    H244849   2.059   5.521   2.191  1.4424 -0.2192 -1.6741
14970TIP3   OH244850   4.041   2.611   4.456  0.0101  0.4538  0.3325
14970TIP3    H144851   4.056   2.530   4.407  0.2019  1.2209 -0.9041
14970TIP3    H244852   4.087   2.597   4.539  3.6708  0.8455 -1.4393
14971TIP3   OH244853   1.206   0.995   0.064  0.1291 -0.5023 -0.0625
14971TIP3    H144854   1.204   0.964   0.154 -1.0986  0.1503  0.1629
14971TIP3    H244855   1.168   1.083   0.068 -1.6550 -1.1388 -1.4350
14972TIP3   OH244856   4.953   2.603   5.856 -0.0418 -0.0876 -0.1240
14972TIP3    H144857   4.867   2.615   5.897 -0.8617 -1.2970 -1.4194
14972TIP3    H244858   4.960   2.509   5.840  0.1189  0.3247 -2.9395
14973TIP3   OH244859   2.259   6.125   5.798 -0.0471 -0.1591  0.0598
14973TIP3    H144860   2.243   6.115   5.704  0.5639  1.1196 -0.1985
14973TIP3    H244861   2.180   6.166   5.832 -1.0280 -2.2203  0.4733
14974TIP3   OH244862   4.473   5.946   6.404 -0.4391  0.1941  0.2112
14974TIP3    H144863   4.498   6.025   6.451  1.0975 -0.0063 -0.2207
14974TIP3    H244864   4.552   5.920   6.357 -0.9622 -1.5049  0.2091
14975TIP3   OH244865   5.996   4.808   1.456 -0.5572 -0.2896  0.1671
14975TIP3    H144866   6.052   4.730   1.462 -1.0846 -0.6453  0.5297
14975TIP3    H244867   6.053   4.875   1.417  0.0387 -0.7219  0.2756
14976TIP3   OH244868   1.277   5.437   0.894 -0.0242 -0.6703 -0.0005
14976TIP3    H144869   1.236   5.520   0.918 -0.0598 -0.2736 -1.3807
14976TIP3    H244870   1.223   5.371   0.938 -0.7242 -0.0374  0.1252
14977TIP3   OH244871   5.693   1.196   3.952 -0.0513 -0.1915  0.3699
14977TIP3    H144872   5.628   1.156   4.010 -0.1895  1.1804  1.2014
14977TIP3    H244873   5.777   1.179   3.994  0.1166 -1.3837 -0.3672
14978TIP3   OH244874   5.146   0.385   4.605  0.3595  0.5742  0.2722
14978TIP3    H144875   5.215   0.446   4.630  0.2486  1.1557 -0.7703
14978TIP3    H244876   5.192   0.305   4.580  0.6242  0.7937  0.0541
14979TIP3   OH244877   6.474   6.051   4.888  0.5331  0.3040 -0.5405
14979TIP3    H144878   6.512   6.073   4.973  0.6585 -1.3685 -0.1253
14979TIP3    H244879   6.530   6.095   4.824  0.5429  1.4419  0.2185
14980TIP3   OH244880   8.073   7.590   5.060  0.5729 -0.2391  0.2081
14980TIP3    H144881   7.991   7.554   5.029 -0.1190  1.9426 -0.6649
14980TIP3    H244882   8.119   7.516   5.100 -1.6807 -1.5480  0.4891
14981TIP3   OH244883   2.808   7.158   0.183  0.3197  0.2969 -0.2917
14981TIP3    H144884   2.889   7.192   0.145 -0.2204  1.8246 -0.1407
14981TIP3    H244885   2.772   7.231   0.233 -2.2699  0.4207 -2.1057
14982TIP3   OH244886   6.677   4.708   6.055 -0.1625 -0.2608  0.5258
14982TIP3    H144887   6.697   4.666   5.971 -2.5021 -0.3363 -0.0645
14982TIP3    H244888   6.619   4.781   6.032 -0.1920  0.2092  2.0208
14983TIP3   OH244889   5.861   2.907   1.337 -0.2004  0.3456 -0.5633
14983TIP3    H144890   5.871   2.813   1.350 -0.0593  0.5615  1.0805
14983TIP3    H244891   5.812   2.937   1.414  0.5081  1.7420 -0.6192
14984TIP3   OH244892   0.155   1.933   5.631 -0.3383  0.1614 -0.3777
14984TIP3    H144893   0.117   1.913   5.716  1.0884  0.1152  0.2725
14984TIP3    H244894   0.231   1.874   5.624  1.1268  1.9781 -0.5119
14985TIP3   OH244895   3.373   4.998   6.688 -0.3269  0.9726  0.1235
14985TIP3    H144896   3.423   5.000   6.770  2.6584 -1.9218 -1.4076
14985TIP3    H244897   3.341   5.088   6.678 -0.3016  1.6007  4.0773
14986TIP3   OH244898   2.572   7.550   2.299  0.2510  0.0915 -0.0068
14986TIP3    H144899   2.499   7.609   2.283  0.5014  0.3086 -0.3632
14986TIP3    H244900   2.571   7.489   2.225  1.6962  1.3904 -1.1747
14987TIP3   OH244901   6.672   4.562   4.925  0.1787  0.2071 -0.0433
14987TIP3    H144902   6.679   4.479   4.972 -0.9115 -0.2099 -0.5897
14987TIP3    H244903   6.763   4.593   4.918  0.4482 -0.1242  1.5697
14988TIP3   OH244904   8.152   3.815   0.581 -0.4647 -0.0813 -0.4302
14988TIP3    H144905   8.167   3.731   0.539  0.8127 -0.8215  1.3646
14988TIP3    H244906   8.064   3.807   0.620 -1.3041  0.3097 -2.1308
14989TIP3   OH244907   3.406   4.925   5.036  0.5044  0.1533  0.2671
14989TIP3    H144908   3.436   5.012   5.063 -1.6028  2.1732 -3.1852
14989TIP3    H244909   3.484   4.882   5.000  1.4598  0.7833  1.5111
14990TIP3   OH244910   1.215   4.249   2.064 -0.1290  0.2406  0.1448
14990TIP3    H144911   1.306   4.230   2.086 -0.2249 -0.7555 -0.2530
14990TIP3    H244912   1.208   4.229   1.971 -0.9614 -0.5817  0.3640
14991TIP3   OH244913   0.237   1.666   6.813  0.3760 -0.0164 -0.7060
14991TIP3    H144914   0.188   1.598   6.766 -1.0363  0.2846  0.2551
14991TIP3    H244915   0.192   1.674   6.897  0.3184  2.2964 -0.8987
14992TIP3   OH244916   1.196   7.050   1.270 -0.0964  0.1470 -0.3814
14992TIP3    H144917   1.133   7.119   1.246 -0.0086  0.4222  0.1636
14992TIP3    H244918   1.153   6.968   1.246 -0.2373  0.3856 -0.9607
14993TIP3   OH244919   3.317   7.610   4.381 -0.0858 -0.1376  0.5561
14993TIP3    H144920   3.383   7.659   4.431  1.1487 -0.3841 -0.7564
14993TIP3    H244921   3.282   7.547   4.443  0.6433  0.2602  1.3955
14994TIP3   OH244922   7.970   0.065   3.444  0.6909  0.2918  0.0181
14994TIP3    H144923   7.972  -0.026   3.415  0.8763 -0.0567  1.0811
14994TIP3    H244924   7.885   0.098   3.413  0.3669 -0.4121  0.1444
14995TIP3   OH244925   5.019   5.835   1.153 -0.5506 -0.3422 -0.6716
14995TIP3    H144926   5.058   5.884   1.226  0.0166 -0.5837 -0.8140
14995TIP3    H244927   4.978   5.902   1.098 -2.0405 -0.2396  0.4807
14996TIP3   OH244928   6.840   5.808   4.345 -0.3909 -0.5839 -0.1629
14996TIP3    H144929   6.755   5.792   4.387  0.4086  0.2476  1.8882
14996TIP3    H244930   6.845   5.904   4.339  0.3305 -0.6376 -0.4607
14997TIP3   OH244931   6.811   5.518   4.596 -0.0854  0.4211 -0.1441
14997TIP3    H144932   6.720   5.531   4.572 -0.0895 -1.1593 -1.1085
14997TIP3    H244933   6.820   5.559   4.683 -1.4007  1.5740 -0.5235
14998TIP3   OH244934   5.753   2.259   0.879  0.6616 -0.2249  0.1936
14998TIP3    H144935   5.812   2.200   0.831 -0.6501 -1.1374 -0.3619
14998TIP3    H244936   5.754   2.226   0.969 -1.3107 -2.2366 -0.4194
14999TIP3   OH244937   6.440   0.959   2.930  0.0649 -0.1218 -0.6479
14999TIP3    H144938   6.357   0.999   2.905  0.4731  1.1247 -0.1010
14999TIP3    H244939   6.443   0.968   3.025  0.0159 -1.8028 -0.4699
15000TIP3   OH244940   7.924   1.070   1.558  0.4213 -0.1039  0.5801
15000TIP3    H144941   7.981   0.998   1.586 -0.5372 -0.1607  2.5397
15000TIP3    H244942   7.881   1.099   1.638 -0.6138  1.4455 -0.4813
15001TIP3   OH244943   5.946   6.473   6.483  0.4679 -0.0039  0.0188
15001TIP3    H144944   5.954   6.397   6.426 -0.9485 -0.2896  0.1693
15001TIP3    H244945   6.033   6.512   6.484  0.6983 -0.3953 -1.7735
15002TIP3   OH244946   8.014   2.848   0.746 -0.2228  0.2084  0.3208
15002TIP3    H144947   7.984   2.758   0.734  0.3689  0.3044 -2.8182
15002TIP3    H244948   7.936   2.902   0.730  0.2373  0.2941 -1.9306
15003TIP3   OH244949   4.932   2.647   5.253 -0.1382 -0.2664 -0.0440
15003TIP3    H144950   4.960   2.556   5.266 -2.1738 -0.8427  0.7563
15003TIP3    H244951   4.842   2.640   5.222 -0.0115  1.4861 -0.9052
15004TIP3   OH244952   5.524   1.233   5.141  0.3898  0.1490  0.0023
15004TIP3    H144953   5.446   1.288   5.152  0.9941  0.8817  0.7636
15004TIP3    H244954   5.518   1.201   5.051 -1.1629 -0.3947  0.2639
15005TIP3   OH244955   0.013   1.385   1.855  0.1177 -0.1556 -0.0578
15005TIP3    H144956   0.008   1.480   1.838 -0.5604  0.2637  2.1577
15005TIP3    H244957   0.062   1.350   1.781 -0.5662  1.7672 -1.5065
15006TIP3   OH244958   5.627   5.195   3.873 -0.0184  0.1184 -0.2706
15006TIP3    H144959   5.634   5.108   3.912 -1.3774 -0.8611 -2.0481
15006TIP3    H244960   5.712   5.236   3.891 -0.0844 -0.7250  2.4313
15007TIP3   OH244961   3.030   3.128   5.233 -0.1983 -0.0445  0.2301
15007TIP3    H144962   2.993   3.056   5.285  0.1799 -0.4820 -0.1044
15007TIP3    H244963   2.974   3.133   5.156 -0.0727 -0.1481  0.1320
15008TIP3   OH244964   1.951   1.416   0.126 -1.1286  0.1502 -0.7169
15008TIP3    H144965   2.007   1.378   0.058 -0.6849 -0.2678 -0.1315
15008TIP3    H244966   1.871   1.363   0.123 -0.5201 -0.8755  0.0833
15009TIP3   OH244967   5.821   1.248   4.417  0.5631  0.0221  0.3866
15009TIP3    H144968   5.826   1.340   4.394 -0.3012 -0.2704 -1.0687
15009TIP3    H244969   5.728   1.228   4.415  0.8663 -1.5199 -2.0799
15010TIP3   OH244970   7.955   1.887   1.152 -0.2073 -0.0361  0.2241
15010TIP3    H144971   7.982   1.806   1.196 -0.4895  0.0739  0.5984
15010TIP3    H244972   7.894   1.858   1.085 -0.1534 -0.1535  0.2248
15011TIP3   OH244973   2.887   1.187   4.387  0.4835  0.2925  0.0085
15011TIP3    H144974   2.898   1.153   4.476 -0.6528 -0.4321 -0.1185
15011TIP3    H244975   2.820   1.254   4.395  1.4311  1.2763 -0.0642
15012TIP3   OH244976   7.613   5.339   1.162  0.0906 -0.0723  0.3684
15012TIP3    H144977   7.662   5.261   1.136 -1.1993 -0.6750 -0.3034
15012TIP3    H244978   7.649   5.409   1.107  3.4859  0.6320  3.0912
15013TIP3   OH244979   4.447   6.370   4.430 -0.0196  0.3621 -0.3057
15013TIP3    H144980   4.524   6.425   4.412  0.9838 -0.5638  1.0174
15013TIP3    H244981   4.454   6.298   4.368  1.5958 -1.0414  1.4029
15014TIP3   OH244982   4.426  -0.014   4.703  0.0055  0.2999 -0.1756
15014TIP3    H144983   4.408  -0.006   4.796  1.6828  1.4692  0.0914
15014TIP3    H244984   4.407   0.073   4.667 -1.2646 -0.3102 -1.0780
15015TIP3   OH244985   5.483   5.683   1.328 -0.4702 -0.1128 -0.1933
15015TIP3    H144986   5.398   5.699   1.285 -0.1699 -0.4825 -0.9413
15015TIP3    H244987   5.492   5.588   1.328 -0.0754 -0.0740 -0.0686
15016TIP3   OH244988   4.129   5.477   1.651  0.4327  0.1961  0.1359
15016TIP3    H144989   4.064   5.522   1.596  1.5510 -0.5033 -1.8441
15016TIP3    H244990   4.100   5.386   1.652  0.6486  0.1314  0.3679
15017TIP3   OH244991   5.676   4.194   5.675  0.1766 -0.5626 -0.3057
15017TIP3    H144992   5.645   4.235   5.594 -0.5561 -0.6336 -0.0623
15017TIP3    H244993   5.642   4.104   5.671 -1.7172  0.0403  1.0802
15018TIP3   OH244994   0.047   6.456   1.781  0.3966  0.5518  0.2199
15018TIP3    H144995  -0.035   6.408   1.794  0.9193  0.0212  1.9075
15018TIP3    H244996   0.095   6.443   1.863  2.3238  0.5676 -0.8526
15019TIP3   OH244997   2.359   5.775   2.063  0.2387 -0.2085  0.3766
15019TIP3    H144998   2.392   5.858   2.029 -2.5048  0.6211 -0.4718
15019TIP3    H244999   2.329   5.796   2.152 -0.3248 -0.3097  0.2147
15020TIP3   OH245000   4.789   0.306   2.018  0.6113 -0.0276  0.1427
15020TIP3    H145001   4.772   0.220   2.058  0.3440 -0.8825 -1.7047
15020TIP3    H245002   4.703   0.349   2.018  0.5582 -0.1303  0.2219
15021TIP3   OH245003   1.530   2.494   0.902  0.4949  0.2853 -0.0696
15021TIP3    H145004   1.517   2.573   0.955  1.4046  1.4176 -1.4678
15021TIP3    H245005   1.620   2.467   0.922  0.6065  0.3224 -0.5166
15022TIP3   OH245006   7.865   1.590   0.552  0.0779  0.0442 -0.3103
15022TIP3    H145007   7.828   1.601   0.465 -1.9030  0.8185  0.5539
15022TIP3    H245008   7.901   1.677   0.574 -2.6126  0.9698  0.9282
15023TIP3   OH245009   5.246   0.678   4.082 -0.4651  0.0697  0.2700
15023TIP3    H145010   5.303   0.621   4.134 -1.1831 -0.4621  0.5068
15023TIP3    H245011   5.182   0.711   4.146 -1.5350 -0.8130 -0.2977
15024TIP3   OH245012   0.663   3.909   1.882  0.2421 -0.4075 -0.2541
15024TIP3    H145013   0.586   3.961   1.905  0.2394 -1.0259  1.2371
15024TIP3    H245014   0.634   3.854   1.809 -0.8534 -0.8699  0.4957
15025TIP3   OH245015   7.482   1.676   6.169  0.2711  0.1189 -0.3019
15025TIP3    H145016   7.503   1.752   6.116  0.6784 -1.5684 -2.6990
15025TIP3    H245017   7.420   1.625   6.116 -0.3740 -1.0083  1.4197
15026TIP3   OH245018   2.354   7.819   3.367 -0.4167 -0.2549  0.8053
15026TIP3    H145019   2.363   7.750   3.433  0.3683 -0.0166  0.9690
15026TIP3    H245020   2.281   7.872   3.398 -0.1558 -0.2331  1.4162
15027TIP3   OH245021   3.038   3.123   1.138 -0.1202 -0.8270  0.0189
15027TIP3    H145022   3.061   3.115   1.045  1.4644 -2.6498  0.4807
15027TIP3    H245023   2.957   3.074   1.147 -0.6519 -0.0629 -0.5001
15028TIP3   OH245024   7.590   1.369   6.507 -0.4687  0.6614 -0.1865
15028TIP3    H145025   7.668   1.333   6.463  0.7543  1.4404  1.2593
15028TIP3    H245026   7.518   1.315   6.474  0.6793 -0.1730 -1.4784
15029TIP3   OH245027   0.239   3.832   6.561  0.0099  0.1967  0.3578
15029TIP3    H145028   0.228   3.782   6.480  0.6497  0.0934  0.3307
15029TIP3    H245029   0.304   3.783   6.611 -1.3786 -0.4997  1.5572
15030TIP3   OH245030   7.532   7.599   2.159  0.0564  0.3757 -0.0664
15030TIP3    H145031   7.474   7.597   2.235 -0.2674 -0.8325 -0.3253
15030TIP3    H245032   7.620   7.593   2.195 -0.0131  1.3907  0.2884
15031TIP3   OH245033   6.824   2.023   0.907 -0.3078 -0.0366  0.6964
15031TIP3    H145034   6.919   2.009   0.905 -0.3858 -0.4954 -0.3870
15031TIP3    H245035   6.814   2.114   0.933  0.4498  0.1596  0.3215
15032TIP3   OH245036   6.407   7.628   1.429  0.1423 -0.2350  0.0919
15032TIP3    H145037   6.456   7.652   1.507  2.3366 -0.3876 -1.1565
15032TIP3    H245038   6.413   7.705   1.372  1.3417 -1.2018 -1.1671
15033TIP3   OH245039   2.456   2.412   4.871  0.1729  0.1039  0.6194
15033TIP3    H145040   2.445   2.483   4.808 -3.6497  0.1495  1.0752
15033TIP3    H245041   2.441   2.333   4.820  0.0607 -0.0538  0.8967
15034TIP3   OH245042   0.900   3.440   3.990  0.1531  0.0976  0.8159
15034TIP3    H145043   0.980   3.428   3.940  0.7303  1.4796  1.3641
15034TIP3    H245044   0.893   3.362   4.045 -0.1275 -1.1208 -0.8742
15035TIP3   OH245045   1.744   1.463   6.224  0.0251 -0.4022  0.2779
15035TIP3    H145046   1.718   1.474   6.316 -1.0463 -0.0870 -0.0493
15035TIP3    H245047   1.835   1.434   6.229 -0.0258 -0.4392  1.4427
15036TIP3   OH245048   5.416   1.440   1.094 -0.4243 -0.2019  0.0870
15036TIP3    H145049   5.374   1.358   1.119 -1.3604  0.2145 -0.0741
15036TIP3    H245050   5.508   1.416   1.080 -0.0221 -0.6288  2.9593
15037TIP3   OH245051   0.891   4.487   3.606 -0.1982  0.1170 -0.0914
15037TIP3    H145052   0.826   4.541   3.651 -0.9322 -0.5536 -0.3239
15037TIP3    H245053   0.910   4.417   3.668 -0.9753 -0.6310 -0.6795
15038TIP3   OH245054   2.176   5.428   2.429  0.3365 -0.1261  0.7348
15038TIP3    H145055   2.176   5.340   2.392  0.3780  0.2160 -0.0861
15038TIP3    H245056   2.215   5.418   2.516 -0.1934 -1.0093  0.8787
15039TIP3   OH245057   8.180   6.496   5.657  0.1439 -0.1775  0.1343
15039TIP3    H145058   8.249   6.545   5.701  0.5161 -0.6437  0.0820
15039TIP3    H245059   8.174   6.414   5.706 -2.2284  0.8835  1.8333
15040TIP3   OH245060   2.609   3.508   1.851 -0.5211  0.2782 -0.0564
15040TIP3    H145061   2.668   3.561   1.904 -1.6570  1.6975 -0.1624
15040TIP3    H245062   2.543   3.477   1.913 -0.4899 -0.0806 -0.2018
15041TIP3   OH245063   6.966   7.615   2.284  0.1059 -0.2572 -0.0108
15041TIP3    H145064   7.015   7.559   2.224  0.8785  0.6978 -0.2896
15041TIP3    H245065   6.875   7.610   2.253  0.4920  0.2247 -1.2766
15042TIP3   OH245066   0.883   7.556   4.933 -0.0584 -0.1232  0.2288
15042TIP3    H145067   0.883   7.546   4.838 -0.0304 -0.7093  0.2891
15042TIP3    H245068   0.924   7.642   4.948  1.1646 -0.6064 -0.2363
15043TIP3   OH245069   8.031   2.004   3.223  0.0120  0.6391 -0.0156
15043TIP3    H145070   8.099   1.945   3.191 -1.2835 -0.1461 -1.4833
15043TIP3    H245071   8.026   2.073   3.156 -2.2383 -0.6326 -1.2941
15044TIP3   OH245072   2.923   7.709   2.572 -0.2985  0.1194  0.1193
15044TIP3    H145073   2.980   7.678   2.642  0.3505 -0.1039 -0.5055
15044TIP3    H245074   2.976   7.704   2.493 -1.7598 -1.9784 -0.8338
15045TIP3   OH245075   7.880   3.268   2.535 -0.2273 -0.3431  0.1811
15045TIP3    H145076   7.901   3.307   2.450 -2.2212  2.0656  0.7016
15045TIP3    H245077   7.962   3.270   2.583  0.8436 -1.3710 -1.4888
15046TIP3   OH245078   0.059   5.762   4.302 -0.0518 -0.3682  0.0954
15046TIP3    H145079   0.049   5.854   4.328 -0.2523 -0.0196 -1.1728
15046TIP3    H245080   0.126   5.728   4.361  0.5006  0.7662  0.1491
15047TIP3   OH245081   0.798   5.210   5.906 -0.0726 -0.0200  0.0839
15047TIP3    H145082   0.805   5.179   5.997  0.2351 -0.3319 -0.0435
15047TIP3    H245083   0.885   5.195   5.870 -0.4315 -0.6963 -0.5173
15048TIP3   OH245084   3.769   4.434   5.850 -0.2080  0.3082  0.3240
15048TIP3    H145085   3.711   4.359   5.862  1.5358 -1.0555  0.6420
15048TIP3    H245086   3.715   4.510   5.872 -1.6570 -0.9426  1.2832
15049TIP3   OH245087   4.679   3.689   1.159  0.0782  0.0248 -0.3869
15049TIP3    H145088   4.753   3.693   1.220  0.1925 -0.3735 -0.4990
15049TIP3    H245089   4.664   3.781   1.134 -0.2977  0.2521  0.6263
15050TIP3   OH245090   7.541   2.265   4.107  0.4831 -0.5688 -0.5605
15050TIP3    H145091   7.551   2.290   4.015  0.0613 -0.6227 -0.6236
15050TIP3    H245092   7.474   2.197   4.105 -0.3007  0.1769 -0.0914
15051TIP3   OH245093   4.064   7.528   4.325 -0.1765  0.0374 -0.0375
15051TIP3    H145094   4.123   7.556   4.256 -2.1970  2.5543 -0.8885
15051TIP3    H245095   4.087   7.582   4.401 -0.9346  0.6198 -0.2012
15052TIP3   OH245096   6.835   7.015   3.868  0.1236 -0.0405  0.0323
15052TIP3    H145097   6.923   6.995   3.899 -0.3978 -0.4885  1.2942
15052TIP3    H245098   6.840   7.105   3.835  1.2952 -0.4395 -0.9240
15053TIP3   OH245099   7.435   6.017   6.290 -0.1652  0.1315 -0.3788
15053TIP3    H145100   7.526   5.997   6.266  0.0261 -0.7924  1.0099
15053TIP3    H245101   7.434   6.112   6.302  0.8435  0.0624  0.4223
15054TIP3   OH245102   3.894   0.037   2.845 -0.0965 -0.2899  0.4000
15054TIP3    H145103   3.885   0.101   2.774 -0.5343 -2.0207 -1.2071
15054TIP3    H245104   3.986   0.041   2.870  0.8338 -1.6193 -2.3617
15055TIP3   OH245105   6.101   0.457   6.133  0.0379  0.5298  0.1619
15055TIP3    H145106   6.017   0.415   6.151 -0.1225  0.5535 -0.5044
15055TIP3    H245107   6.166   0.391   6.156 -0.1651  0.4589  0.5397
15056TIP3   OH245108   5.718   7.703   1.747  0.0910  0.2555  0.0857
15056TIP3    H145109   5.682   7.757   1.677  0.1716  2.0838  1.3874
15056TIP3    H245110   5.747   7.766   1.814  1.1272 -1.3636  1.2409
15057TIP3   OH245111   5.342   2.765   5.555  0.5544 -0.5407 -0.5405
15057TIP3    H145112   5.253   2.735   5.535  1.0397 -1.5403 -1.2724
15057TIP3    H245113   5.353   2.750   5.649 -0.1527 -0.1010 -0.3784
15058TIP3   OH245114   2.037   6.883   6.840 -0.3563 -0.4459 -0.4037
15058TIP3    H145115   2.090   6.963   6.834 -0.1514 -0.5917 -0.5798
15058TIP3    H245116   1.948   6.914   6.859 -0.4033 -0.1326 -1.0927
15059TIP3   OH245117   4.556   0.796   0.118 -0.7551  0.0816 -0.3477
15059TIP3    H145118   4.572   0.866   0.181  0.7229  0.6822 -1.3427
15059TIP3    H245119   4.619   0.727   0.141 -1.3746 -0.4260 -0.1288
15060TIP3   OH245120   2.503   7.095   0.089 -0.1785  0.0456 -0.3585
15060TIP3    H145121   2.484   7.163   0.024 -0.4802 -0.5043 -0.8613
15060TIP3    H245122   2.582   7.052   0.056  1.2083  1.4280  1.0078
15061TIP3   OH245123   5.373   5.066   5.241  0.6471  0.3873 -0.3256
15061TIP3    H145124   5.449   5.009   5.230  0.6804  0.3212  0.2274
15061TIP3    H245125   5.311   5.037   5.174 -0.0573 -1.5184  1.0589
15062TIP3   OH245126   5.132   4.813   1.145  0.1441  0.0578  0.3736
15062TIP3    H145127   5.167   4.769   1.067  0.4235  0.7383  0.1138
15062TIP3    H245128   5.130   4.745   1.212 -1.5773 -0.9871 -0.6380
15063TIP3   OH245129   3.190   6.398   4.001  0.3374  0.1829  0.4457
15063TIP3    H145130   3.233   6.327   3.953 -0.6906 -0.5293  0.5564
15063TIP3    H245131   3.098   6.373   4.004 -0.3636  2.3283 -0.9611
15064TIP3   OH245132   6.388   6.442   3.793 -0.3352 -0.0906  0.2903
15064TIP3    H145133   6.303   6.399   3.781  0.3166 -1.5796  0.7238
15064TIP3    H245134   6.448   6.391   3.738  0.5198  0.0972  1.0229
15065TIP3   OH245135   5.243   2.969   1.353  0.2674 -0.4282 -0.4987
15065TIP3    H145136   5.267   2.985   1.444  0.3719  0.0950 -0.6159
15065TIP3    H245137   5.224   2.875   1.349  0.1656 -0.4338  0.0823
15066TIP3   OH245138   6.550   2.633   2.194  0.0244  0.1237  0.3925
15066TIP3    H145139   6.563   2.727   2.197 -1.1520  0.3317 -0.3808
15066TIP3    H245140   6.638   2.597   2.188  0.5575  1.0928  1.8137
15067TIP3   OH245141   6.420   1.679   6.066  0.3123 -0.3631  0.4821
15067TIP3    H145142   6.391   1.718   5.984  0.6405 -1.8420 -0.3778
15067TIP3    H245143   6.357   1.710   6.131 -1.1555 -0.7251 -0.7112
15068TIP3   OH245144   7.057   4.919   0.017  0.1395 -0.2925 -0.1364
15068TIP3    H145145   7.109   4.999   0.030 -0.7817  0.4097 -0.6749
15068TIP3    H245146   7.120   4.848   0.029  0.5077  0.3810  2.9656
15069TIP3   OH245147   6.394   3.526   5.212  0.8373 -0.3878  0.0422
15069TIP3    H145148   6.345   3.600   5.175  2.5461  0.5742 -0.4273
15069TIP3    H245149   6.339   3.450   5.196  0.5093  0.2899 -2.6035
15070TIP3   OH245150   3.632   3.831   0.859 -0.1849 -0.6496 -0.2104
15070TIP3    H145151   3.713   3.859   0.815 -0.1209 -1.1205 -0.3960
15070TIP3    H245152   3.593   3.769   0.798 -1.3689  0.5699 -0.7422
15071TIP3   OH245153   6.322   5.610   3.901  0.5587 -0.0192 -0.0294
15071TIP3    H145154   6.233   5.588   3.929  0.2363  3.0605  1.7486
15071TIP3    H245155   6.330   5.570   3.814 -1.9840 -1.6344  0.3634
15072TIP3   OH245156   2.852   4.256   1.239 -0.1580 -0.7462 -0.3571
15072TIP3    H145157   2.913   4.232   1.170  2.8747 -1.1497  2.2311
15072TIP3    H245158   2.874   4.198   1.312 -1.9642  0.7858  1.5473
15073TIP3   OH245159   6.923   2.265   3.227  0.5802 -0.2494 -0.6270
15073TIP3    H145160   6.871   2.231   3.300  0.1678 -0.2636 -0.9176
15073TIP3    H245161   6.971   2.338   3.263 -1.4723  1.3292 -0.8769
15074TIP3   OH245162   7.036   4.661   4.551  0.0841  0.3346  0.3310
15074TIP3    H145163   7.074   4.582   4.513  0.7494  0.8342 -0.0727
15074TIP3    H245164   7.095   4.731   4.524 -0.7162  1.0263  0.3506
15075TIP3   OH245165   4.082   0.140   4.655 -0.1485  0.5950  0.3864
15075TIP3    H145166   4.026   0.089   4.596 -2.3517  0.1760  2.6510
15075TIP3    H245167   4.169   0.133   4.617 -1.4524  0.5813 -2.8942
15076TIP3   OH245168   8.140   2.991   3.482 -0.1863 -0.4161 -0.2085
15076TIP3    H145169   8.195   2.984   3.560  0.3940 -0.3981 -0.6129
15076TIP3    H245170   8.084   2.913   3.485 -1.4138  0.4673  1.1561
15077TIP3   OH245171   5.522   1.066   1.741  0.0219  0.9675 -0.1961
15077TIP3    H145172   5.551   1.026   1.823 -2.0859 -1.5687 -0.5702
15077TIP3    H245173   5.440   1.109   1.763 -1.3075 -0.9275 -1.1425
15078TIP3   OH245174   6.949   7.144   3.530 -0.4530 -0.5330 -0.4890
15078TIP3    H145175   6.922   7.236   3.532 -0.6740 -0.6010 -0.1780
15078TIP3    H245176   6.924   7.110   3.616  2.5959 -0.0431  0.6835
15079TIP3   OH245177   1.496   3.772   5.502  0.1927  0.0145 -0.3424
15079TIP3    H145178   1.456   3.685   5.505  1.7161 -0.7447  2.9296
15079TIP3    H245179   1.580   3.758   5.459  0.0391  0.0784 -0.6659
15080TIP3   OH245180   6.335   3.840   2.536  0.0454 -0.1877  0.2726
15080TIP3    H145181   6.417   3.886   2.518  0.4436 -1.0804 -0.2765
15080TIP3    H245182   6.361   3.760   2.582 -0.8011  1.0868  3.1935
15081TIP3   OH245183   3.607   6.286   0.518 -0.1832  0.3254  0.2481
15081TIP3    H145184   3.673   6.249   0.577 -1.4735 -0.5008  1.2321
15081TIP3    H245185   3.606   6.227   0.443  0.3761  0.4984  0.0989
15082TIP3   OH245186   4.828   3.803   6.479  0.0174  0.1490 -0.2884
15082TIP3    H145187   4.786   3.750   6.547  0.0660 -0.1625 -0.4955
15082TIP3    H245188   4.756   3.846   6.433 -0.0074  0.4759  0.0519
15083TIP3   OH245189   2.444   6.042   1.349 -0.0717 -0.0751 -0.4515
15083TIP3    H145190   2.487   5.964   1.384  0.7393  0.4062 -0.3428
15083TIP3    H245191   2.476   6.049   1.259  0.3401  0.4592 -0.2731
15084TIP3   OH245192   6.062   3.911   6.462  0.0402 -0.2778  0.5937
15084TIP3    H145193   5.983   3.882   6.506  0.5202 -1.0594  0.9606
15084TIP3    H245194   6.112   3.956   6.531 -0.5362  1.1693  0.1193
15085TIP3   OH245195   3.446   5.377   1.444 -0.2265  0.2329  0.3767
15085TIP3    H145196   3.360   5.365   1.404  0.0049  0.5370 -0.2202
15085TIP3    H245197   3.430   5.436   1.518 -0.7276 -0.6842  1.0160
15086TIP3   OH245198   6.325   3.570   4.256  0.3940  0.6034  0.9032
15086TIP3    H145199   6.307   3.504   4.188  0.5018  1.3499  0.1270
15086TIP3    H245200   6.373   3.522   4.324  0.2123 -0.1833  0.4929
15087TIP3   OH245201   7.418   3.139   5.907  0.2563 -0.2178 -0.2754
15087TIP3    H145202   7.443   3.117   5.817  2.1820 -0.1095  0.1848
15087TIP3    H245203   7.432   3.058   5.956  0.8850  0.1766  0.2188
15088TIP3   OH245204   0.165   4.456   1.502  0.3780  0.0446  0.2860
15088TIP3    H145205   0.257   4.475   1.486  0.2524  1.2123  0.8371
15088TIP3    H245206   0.121   4.476   1.419 -0.0221  4.2989  1.3309
15089TIP3   OH245207   3.216   1.818   0.915 -0.8479  0.2430  0.0327
15089TIP3    H145208   3.281   1.840   0.848  0.2441  1.3654  1.3946
15089TIP3    H245209   3.134   1.809   0.867 -0.0531  0.7887 -1.4800
15090TIP3   OH245210   0.942   2.677   1.662  0.7386  0.4834 -0.6258
15090TIP3    H145211   0.882   2.752   1.665  3.0184  2.4414 -0.9229
15090TIP3    H245212   0.949   2.648   1.753 -1.7449 -0.8263 -0.7467
15091TIP3   OH245213   5.131   6.375   2.501 -0.0403  0.2198 -0.5111
15091TIP3    H145214   5.218   6.374   2.462 -0.6163 -0.7500 -1.8162
15091TIP3    H245215   5.086   6.448   2.457 -0.5781 -0.6549 -1.4373
15092TIP3   OH245216   1.200   4.919   0.425  0.0087  0.4288  0.0034
15092TIP3    H145217   1.154   4.911   0.342  1.2679  0.2757 -0.7059
15092TIP3    H245218   1.227   4.829   0.446  0.6390  0.6122  0.0103
15093TIP3   OH245219   6.383   0.640   2.469 -0.1154  0.1388 -0.4282
15093TIP3    H145220   6.376   0.665   2.561  0.6247  3.4824 -1.1421
15093TIP3    H245221   6.474   0.614   2.458 -0.7542 -2.7553  0.1875
15094TIP3   OH245222   7.367   0.163   4.316 -0.4054  0.3630 -0.0447
15094TIP3    H145223   7.333   0.119   4.238 -2.6246 -0.2589  1.1938
15094TIP3    H245224   7.387   0.092   4.377 -1.8806  0.9273  1.1487
15095TIP3   OH245225   2.049   4.652   2.279  0.7235 -0.4997 -0.0692
15095TIP3    H145226   1.955   4.638   2.282  0.4287  1.0084 -1.0196
15095TIP3    H245227   2.068   4.705   2.357  0.6748 -0.2292 -0.2418
15096TIP3   OH245228   5.806   6.320   1.110  0.0169 -0.4816  0.1841
15096TIP3    H145229   5.796   6.386   1.178  1.5230  0.2533 -0.2770
15096TIP3    H245230   5.716   6.289   1.094 -0.7071  1.2811  0.5761
15097TIP3   OH245231   0.767   5.733   5.468  0.5652 -0.1997 -0.4682
15097TIP3    H145232   0.696   5.692   5.419 -1.5060  1.7950  0.6585
15097TIP3    H245233   0.769   5.685   5.551 -1.2189  1.2296  0.4746
15098TIP3   OH245234   3.940   5.662   6.289 -1.0289  0.2390 -0.0358
15098TIP3    H145235   3.930   5.692   6.380 -2.8027 -1.0477  0.2565
15098TIP3    H245236   4.034   5.660   6.274 -0.6720 -0.0292  1.9856
15099TIP3   OH245237   2.662   7.018   5.679 -0.2558 -0.3103  0.0802
15099TIP3    H145238   2.577   6.990   5.645  0.0718 -1.5092  0.2016
15099TIP3    H245239   2.703   6.937   5.709  0.0490  0.5225  2.0235
15100TIP3   OH245240   8.103   5.374   4.728  0.6296  0.2225 -0.7335
15100TIP3    H145241   8.059   5.434   4.668 -0.9883 -0.8108 -0.6227
15100TIP3    H245242   8.047   5.373   4.806  2.2448  0.8855  0.5146
15101TIP3   OH245243   1.039   0.886   1.974  0.1172 -0.1485 -0.0778
15101TIP3    H145244   1.037   0.957   1.910  0.7993 -1.8355 -2.0667
15101TIP3    H245245   0.948   0.862   1.987  0.0289 -0.8876 -1.7753
15102TIP3   OH245246   2.058   3.408   4.942 -0.7062 -0.0580 -0.4477
15102TIP3    H145247   2.086   3.350   5.013  0.7176 -0.3788 -1.2510
15102TIP3    H245248   1.991   3.464   4.983 -0.8635 -1.0995  0.7906
15103TIP3   OH245249   3.142   1.327   1.704 -0.5936 -0.3173 -0.0794
15103TIP3    H145250   3.176   1.415   1.719  0.1100 -0.6796  0.5170
15103TIP3    H245251   3.148   1.314   1.610  2.5317 -0.9663  0.1059
15104TIP3   OH245252   3.377   0.402   2.538 -0.7042 -0.2992 -0.3067
15104TIP3    H145253   3.395   0.405   2.632  0.2425 -0.2908 -0.4814
15104TIP3    H245254   3.370   0.309   2.517  1.7789 -0.4703 -0.6926
15105TIP3   OH245255   3.921   6.390   2.499  0.2040  0.4727  0.8784
15105TIP3    H145256   3.979   6.440   2.442 -0.0680 -1.5434 -1.3097
15105TIP3    H245257   3.975   6.316   2.528 -0.5970 -0.1946  0.6897
15106TIP3   OH245258   0.799   4.487   5.905 -0.0586 -0.1130  0.3820
15106TIP3    H145259   0.837   4.406   5.871  2.8047  1.8929 -1.6770
15106TIP3    H245260   0.757   4.527   5.829  1.8208  1.9702  0.3295
15107TIP3   OH245261   1.431   6.369   0.130  0.6868 -0.3703 -0.2136
15107TIP3    H145262   1.423   6.350   0.224  2.6403 -0.3305  0.0075
15107TIP3    H245263   1.495   6.306   0.098 -1.2967 -1.6226 -1.9724
15108TIP3   OH245264   2.810   3.207   3.423 -0.0821  0.0696 -0.1054
15108TIP3    H145265   2.869   3.246   3.487 -1.5066  0.0141  1.2883
15108TIP3    H245266   2.832   3.113   3.424  1.2597  0.3410 -1.2172
15109TIP3   OH245267   7.866   2.287   3.937  0.8485 -0.8150  0.3196
15109TIP3    H145268   7.836   2.374   3.961 -0.4643 -0.6515 -1.7352
15109TIP3    H245269   7.844   2.232   4.013 -1.1069  0.0738  0.4505
15110TIP3   OH245270   3.791   6.392   1.381  0.2448 -0.4370  0.2754
15110TIP3    H145271   3.740   6.404   1.462  1.5086  0.4694  0.9723
15110TIP3    H245272   3.753   6.455   1.320  0.7786  0.5467  0.9293
15111TIP3   OH245273   3.551   3.206   1.921 -0.2325  0.1875 -0.0473
15111TIP3    H145274   3.571   3.298   1.940  0.8412 -0.1876  0.7380
15111TIP3    H245275   3.627   3.175   1.872  0.0407 -0.6191  0.8535
15112TIP3   OH245276   2.160   4.791   6.797 -0.0547  0.1041 -0.0386
15112TIP3    H145277   2.194   4.722   6.740 -1.1390  1.3844 -2.3852
15112TIP3    H245278   2.102   4.842   6.741 -1.2294  1.4717  2.2571
15113TIP3   OH245279   6.139   2.410   5.338  0.2339 -0.3629  0.4630
15113TIP3    H145280   6.075   2.456   5.284  2.3049  1.8278 -0.2726
15113TIP3    H245281   6.174   2.477   5.396  1.5803 -1.5951  1.1230
15114TIP3   OH245282   4.255   5.251   6.654 -0.1482  0.3036 -0.2015
15114TIP3    H145283   4.248   5.225   6.746  1.4460 -0.7295 -0.3354
15114TIP3    H245284   4.214   5.337   6.650 -3.3436 -0.9976  0.7866
15115TIP3   OH245285   6.765   7.752   4.562  0.1662  0.4346  0.0086
15115TIP3    H145286   6.826   7.678   4.565  0.1252  0.3264 -1.1436
15115TIP3    H245287   6.705   7.738   4.635  0.2531 -0.5916 -0.1109
15116TIP3   OH245288   1.823   3.373   2.137  0.6060 -0.2244 -0.7574
15116TIP3    H145289   1.872   3.329   2.068  0.4412  1.0040 -1.6762
15116TIP3    H245290   1.731   3.366   2.109  0.5171  0.0673 -0.5335
15117TIP3   OH245291   7.575   1.728   5.604 -0.4925 -0.8738  0.2017
15117TIP3    H145292   7.559   1.664   5.673  0.1964  0.2854  1.4936
15117TIP3    H245293   7.670   1.734   5.599 -0.5425  0.4677  0.5303
15118TIP3   OH245294   7.997   6.598   1.435  0.2633  0.0009  0.5786
15118TIP3    H145295   8.054   6.547   1.492 -0.0697 -1.2332 -0.1640
15118TIP3    H245296   8.004   6.687   1.469  2.2758 -0.1805  0.8044
15119TIP3   OH245297   3.481   0.118   6.376  0.1431 -0.8752 -0.0631
15119TIP3    H145298   3.492   0.143   6.468 -0.0099  1.5090 -0.6225
15119TIP3    H245299   3.554   0.058   6.359  1.5172  0.4012  1.0496
15120TIP3   OH245300   6.047   2.390   0.904  0.0267 -0.3342 -0.2071
15120TIP3    H145301   5.970   2.444   0.892  0.0689 -0.4551 -1.0675
15120TIP3    H245302   6.033   2.314   0.848  0.4070 -0.7494  0.2446
15121TIP3   OH245303   6.795   6.442   5.311  0.2731 -0.0474 -0.4751
15121TIP3    H145304   6.870   6.479   5.357  2.8296 -4.3461 -0.6302
15121TIP3    H245305   6.822   6.436   5.220 -1.0203 -0.0153 -0.8898
15122TIP3   OH245306   2.756   6.921   1.219 -0.0433 -0.2484 -0.3073
15122TIP3    H145307   2.763   6.858   1.290  1.6811  0.8682  0.5916
15122TIP3    H245308   2.764   6.869   1.139 -2.8425 -1.6205  0.2160
15123TIP3   OH245309   5.585   6.351   5.274  0.2665  0.2789  0.2289
15123TIP3    H145310   5.515   6.287   5.262  0.3207 -0.2784  2.4938
15123TIP3    H245311   5.657   6.317   5.220 -0.2919 -0.6369  0.0392
15124TIP3   OH245312   5.130   2.146   5.965 -0.0931  0.0821  0.6034
15124TIP3    H145313   5.156   2.185   6.049 -0.1611  1.1342  0.1506
15124TIP3    H245314   5.213   2.126   5.922 -0.0589 -0.2272  0.8035
15125TIP3   OH245315   8.038   7.286   1.452 -0.1320 -0.3452  0.3838
15125TIP3    H145316   8.083   7.359   1.409  1.3915 -0.9078  0.9587
15125TIP3    H245317   7.947   7.296   1.427  0.4416  0.2764 -1.6695
15126TIP3   OH245318   6.568   3.740   4.147 -0.3081 -0.1793 -0.4320
15126TIP3    H145319   6.590   3.655   4.110 -0.2513  0.2175 -1.3229
15126TIP3    H245320   6.499   3.721   4.212  0.5471 -1.0452  0.2488
15127TIP3   OH245321   6.202   4.522   3.754  0.1134  0.0777  0.2402
15127TIP3    H145322   6.284   4.474   3.744 -0.1259 -0.5427  1.0715
15127TIP3    H245323   6.143   4.459   3.796  0.3550  1.6001  3.1259
15128TIP3   OH245324   0.859   7.529   3.279 -0.2216 -0.3061  0.3320
15128TIP3    H145325   0.953   7.516   3.284 -0.4638 -2.8531 -0.4904
15128TIP3    H245326   0.848   7.608   3.226  1.4069  0.5389  1.1754
15129TIP3   OH245327   0.177   6.919   2.136 -0.4291 -0.0014  0.0777
15129TIP3    H145328   0.140   6.941   2.221 -0.5254  0.4898 -0.0869
15129TIP3    H245329   0.165   6.825   2.128  0.8436 -0.2902  1.2114
15130TIP3   OH245330   3.672   7.646   0.525 -0.0481  0.3870  0.5133
15130TIP3    H145331   3.674   7.601   0.609  2.2496  2.5015  1.7275
15130TIP3    H245332   3.581   7.677   0.517 -0.2626  0.3407  2.3262
15131TIP3   OH245333   4.957   5.486   0.664  0.3861 -0.0698 -0.3332
15131TIP3    H145334   4.923   5.519   0.747  0.1175 -0.7568 -0.1695
15131TIP3    H245335   4.897   5.522   0.598 -0.8502 -1.4964 -0.0282
15132TIP3   OH245336   7.216   5.034   5.633 -0.2054 -0.3448  0.4854
15132TIP3    H145337   7.296   5.051   5.583  1.2976 -0.9292  2.5595
15132TIP3    H245338   7.193   4.944   5.610  0.5160 -0.6341  0.8396
15133TIP3   OH245339   6.282   3.531   2.148  1.0608 -0.0901 -0.4525
15133TIP3    H145340   6.286   3.491   2.235  2.3866 -0.2892 -0.5901
15133TIP3    H245341   6.238   3.464   2.094 -2.2470  1.0697  0.5582
15134TIP3   OH245342   3.969   0.151   0.203  0.0695 -0.3310 -0.1796
15134TIP3    H145343   3.964   0.229   0.147  0.1560 -0.8651 -0.9445
15134TIP3    H245344   3.878   0.133   0.228  0.0459 -0.0108 -0.0305
15135TIP3   OH245345   3.681   4.071   0.672  0.3080  0.2402  0.1473
15135TIP3    H145346   3.620   4.006   0.636  1.0324 -1.3593  1.6419
15135TIP3    H245347   3.741   4.090   0.600 -0.0136 -0.6426 -0.3776
15136TIP3   OH245348   0.714   1.353   6.126 -0.1680  0.4082  0.0619
15136TIP3    H145349   0.652   1.286   6.097 -0.1510  0.5922 -0.3925
15136TIP3    H245350   0.731   1.331   6.218  0.6540 -0.8559 -0.3646
15137TIP3   OH245351   7.455   7.659   6.659 -0.5325  0.2976  0.3881
15137TIP3    H145352   7.501   7.592   6.710 -0.4898  0.6206  0.7728
15137TIP3    H245353   7.517   7.731   6.653 -0.4465  0.1680 -0.3288
15138TIP3   OH245354   3.924   3.409   6.178  0.2111  0.0358  0.0542
15138TIP3    H145355   3.971   3.330   6.151  0.3707  0.6708 -1.6580
15138TIP3    H245356   3.870   3.432   6.102  0.2492  1.6351  0.4728
15139TIP3   OH245357   3.093   7.492   6.378 -0.2722 -0.3249  0.8672
15139TIP3    H145358   3.103   7.399   6.397  2.1589 -0.1816  0.5491
15139TIP3    H245359   3.148   7.536   6.444 -1.3392  0.8998  0.9838
15140TIP3   OH245360   8.118   3.182   6.598 -0.2568 -0.3211  0.0196
15140TIP3    H145361   8.106   3.087   6.597  1.3746 -0.5640  0.1374
15140TIP3    H245362   8.043   3.215   6.648 -0.9502 -1.5163 -0.1902
15141TIP3   OH245363   0.592   6.966   5.545  0.2911 -0.9344  0.6428
15141TIP3    H145364   0.591   6.893   5.607  2.0881 -2.3981 -0.9065
15141TIP3    H245365   0.565   6.928   5.462 -0.9611  0.7220  0.2356
15142TIP3   OH245366   6.190   5.727   6.457  0.0440  0.1366  0.3409
15142TIP3    H145367   6.203   5.731   6.362  0.8848 -0.3835  0.4256
15142TIP3    H245368   6.162   5.816   6.480 -1.9451 -0.1970 -0.6185
15143TIP3   OH245369   5.902   2.022   2.194  0.2094 -0.1053  0.0116
15143TIP3    H145370   5.900   1.996   2.287 -0.8094  0.6701  0.2258
15143TIP3    H245371   5.820   2.070   2.181 -0.7479 -2.0515 -1.8428
15144TIP3   OH245372   3.108   4.032   0.134 -0.0128 -0.3096 -0.2733
15144TIP3    H145373   3.058   3.963   0.090 -1.2008  0.7713 -0.6719
15144TIP3    H245374   3.100   4.012   0.227 -2.4602  0.6138 -0.2125
15145TIP3   OH245375   3.883   2.707   3.532  0.1151 -0.4357  0.0741
15145TIP3    H145376   3.869   2.712   3.627 -2.0399 -0.5305 -0.2008
15145TIP3    H245377   3.838   2.784   3.497 -0.7621 -1.4117 -1.0207
15146TIP3   OH245378   7.510   2.329   1.653 -0.0475 -0.0459 -0.2339
15146TIP3    H145379   7.533   2.237   1.638 -0.7713 -0.4270  0.8605
15146TIP3    H245380   7.414   2.330   1.651 -0.0445  0.6813 -0.1768
15147TIP3   OH245381   4.679   5.558   6.606 -0.1450  0.4428 -0.0966
15147TIP3    H145382   4.610   5.549   6.672 -0.8613  0.5105 -0.8179
15147TIP3    H245383   4.652   5.633   6.553  0.0396 -0.0514 -0.9129
15148TIP3   OH245384   1.038   0.845   6.042 -0.8785  0.2750  0.5686
15148TIP3    H145385   0.967   0.907   6.054 -0.3495  0.6149  2.2728
15148TIP3    H245386   1.112   0.882   6.091 -0.7101 -1.9149  2.1450
15149TIP3   OH245387   3.206   2.121   5.340  0.0504  0.4544 -0.4072
15149TIP3    H145388   3.265   2.056   5.301 -0.1324  0.0127  0.0464
15149TIP3    H245389   3.181   2.177   5.266  1.5905  1.0955 -0.4961
15150TIP3   OH245390   0.290   6.334   4.622  0.0161  0.1653  0.5780
15150TIP3    H145391   0.256   6.388   4.693  2.0528  1.2140  0.8294
15150TIP3    H245392   0.383   6.358   4.616  0.2505 -1.0199 -1.4137
15151TIP3   OH245393   6.709   6.740   4.549  0.0937  0.4594  0.0116
15151TIP3    H145394   6.672   6.810   4.496 -0.4984 -0.2151 -0.4833
15151TIP3    H245395   6.646   6.669   4.543 -0.1030  0.4343  1.8179
15152TIP3   OH245396   1.051   1.573   2.456 -0.0263  0.4490  0.0844
15152TIP3    H145397   0.959   1.595   2.471  0.2324  1.6932 -0.0307
15152TIP3    H245398   1.072   1.508   2.523 -1.1115 -0.2104 -0.1899
15153TIP3   OH245399   2.972   3.923   2.160 -0.3672 -0.1714 -0.3594
15153TIP3    H145400   3.009   3.988   2.219 -0.4588 -1.5992  1.3624
15153TIP3    H245401   2.910   3.972   2.106  1.2084  1.5444 -0.7041
15154TIP3   OH245402   3.403   1.995   4.500  0.0531 -0.3295 -0.3735
15154TIP3    H145403   3.369   1.976   4.587 -0.9407 -0.6655 -0.8149
15154TIP3    H245404   3.452   1.917   4.476 -1.4271 -1.1365 -0.9315
15155TIP3   OH245405   5.009   2.348   1.218 -0.6071 -0.2864 -0.0065
15155TIP3    H145406   5.027   2.254   1.222 -1.5977 -0.5267 -0.6391
15155TIP3    H245407   5.027   2.372   1.127  0.8751  0.4230  0.4534
15156TIP3   OH245408   7.680   1.041   5.120  0.3777  0.2807  0.2346
15156TIP3    H145409   7.714   0.966   5.168 -0.1998  0.4116  0.8559
15156TIP3    H245410   7.688   1.016   5.028  0.4291 -0.4346  0.4292
15157TIP3   OH245411   2.368   1.702   4.136  0.0046  0.2339 -0.1322
15157TIP3    H145412   2.275   1.701   4.159 -0.0704 -0.1424 -0.4437
15157TIP3    H245413   2.375   1.768   4.067  0.0564  0.6313  0.2518
15158TIP3   OH245414   4.217   3.052   4.123  0.0733  0.8069 -0.5945
15158TIP3    H145415   4.290   2.991   4.121 -0.3415  0.1634  1.4883
15158TIP3    H245416   4.241   3.116   4.191 -1.1108  0.8065 -0.1583
15159TIP3   OH245417   1.768   4.451   3.850 -0.0057  0.1773 -0.3864
15159TIP3    H145418   1.777   4.496   3.934 -1.8922 -0.4054  0.1905
15159TIP3    H245419   1.815   4.505   3.788  0.4100  1.2666  0.8363
15160TIP3   OH245420   0.654   5.671   0.903 -0.4504  0.0362  0.2735
15160TIP3    H145421   0.653   5.669   0.999  1.0525  1.3013  0.3618
15160TIP3    H245422   0.609   5.752   0.880 -0.2002  0.0859 -0.0522
15161TIP3   OH245423   8.167   6.490   2.948  0.2193  0.1889 -0.0234
15161TIP3    H145424   8.186   6.580   2.922  2.0495 -0.2666 -0.3501
15161TIP3    H245425   8.086   6.468   2.900  0.2031  1.3774 -0.5702
15162TIP3   OH245426   5.602   5.864   5.171  0.2800 -0.0688 -0.2427
15162TIP3    H145427   5.588   5.770   5.185  0.0820 -0.0496 -0.3090
15162TIP3    H245428   5.624   5.871   5.078 -0.0559 -0.0119 -0.3205
15163TIP3   OH245429   4.028   4.772   6.730 -0.2992  0.4329  0.4478
15163TIP3    H145430   4.022   4.832   6.804  1.7591  1.1643  0.1010
15163TIP3    H245431   4.040   4.829   6.654  1.6509 -0.3476  0.1050
15164TIP3   OH245432   7.129   1.364   1.993 -0.1653 -0.2335 -0.6196
15164TIP3    H145433   7.074   1.364   1.914 -1.3159 -0.4515  0.1565
15164TIP3    H245434   7.165   1.275   1.996 -1.1839 -0.6527 -0.2095
15165TIP3   OH245435   2.507   3.450   5.072 -0.3936  0.1858 -0.5572
15165TIP3    H145436   2.559   3.524   5.102 -0.3340  0.3666 -1.0867
15165TIP3    H245437   2.429   3.451   5.126  0.8216 -1.0284  1.3468
15166TIP3   OH245438   2.582   4.753   2.551  0.1545  0.2486 -0.4152
15166TIP3    H145439   2.604   4.742   2.644  1.7205 -1.6353 -0.9610
15166TIP3    H245440   2.666   4.772   2.509 -0.2188 -0.8565 -1.7082
15167TIP3   OH245441   4.779   4.820   0.951  0.1027 -0.1369  0.1055
15167TIP3    H145442   4.735   4.888   1.002 -1.0594 -0.4484 -0.4565
15167TIP3    H245443   4.863   4.859   0.927  0.7832 -0.0595  2.4044
15168TIP3   OH245444   1.037   5.078   5.082  0.0645  0.3990 -0.5803
15168TIP3    H145445   0.968   5.068   5.147 -1.1136 -0.5918 -1.9155
15168TIP3    H245446   1.119   5.073   5.131 -0.7912  0.0302  0.8374
15169TIP3   OH245447   6.467   7.521   1.136 -0.5937  0.2238  0.2695
15169TIP3    H145448   6.466   7.440   1.085 -0.3051 -0.0640  0.7027
15169TIP3    H245449   6.552   7.521   1.179  0.4576  2.0065 -1.6371
15170TIP3   OH245450   6.265   3.132   4.208 -0.5236 -0.0127  0.0215
15170TIP3    H145451   6.340   3.170   4.163 -0.7440 -0.9089 -1.1321
15170TIP3    H245452   6.225   3.073   4.144 -2.2827  0.5215  0.5577
15171TIP3   OH245453   3.507   5.796   3.234  0.4056  0.2363  0.4120
15171TIP3    H145454   3.550   5.713   3.214 -0.5170 -0.5090  1.3673
15171TIP3    H245455   3.565   5.863   3.198  1.4542 -0.7942  0.1273
15172TIP3   OH245456   5.533   0.630   6.176 -0.0198 -0.1478 -0.3632
15172TIP3    H145457   5.623   0.604   6.195  0.1042  0.6463  0.1701
15172TIP3    H245458   5.508   0.576   6.100  1.0943  0.0403 -0.8819
15173TIP3   OH245459   3.342   6.621   4.027  0.2265 -0.5308 -0.2846
15173TIP3    H145460   3.286   6.546   4.003 -0.0929 -0.3590 -0.0893
15173TIP3    H245461   3.421   6.610   3.975  0.3948 -1.2910  0.1186
15174TIP3   OH245462   1.867   1.174   4.524 -0.6014  0.3091 -0.4359
15174TIP3    H145463   1.787   1.126   4.500 -0.2874  0.6522 -2.2908
15174TIP3    H245464   1.838   1.235   4.592 -2.3605  1.6315 -2.2425
15175TIP3   OH245465   3.226   0.216   0.935  0.0134 -0.1331  0.0272
15175TIP3    H145466   3.136   0.250   0.933  0.6747  1.9251  1.5935
15175TIP3    H245467   3.280   0.289   0.906  1.3305 -0.7759  0.7710
15176TIP3   OH245468   4.646   2.270   4.073 -0.5085 -0.2420 -0.1407
15176TIP3    H145469   4.676   2.331   4.005  0.1638  0.4660  0.7524
15176TIP3    H245470   4.562   2.306   4.101 -0.0966  0.3124  0.4095
15177TIP3   OH245471   3.988   1.894   3.925  0.5580 -0.7990 -0.1655
15177TIP3    H145472   4.027   1.836   3.990  2.0852  1.8563  1.4608
15177TIP3    H245473   3.895   1.873   3.927  0.4551 -0.5700  3.3091
15178TIP3   OH245474   7.220   3.018   3.501 -0.6056  1.0606  0.0317
15178TIP3    H145475   7.140   3.005   3.552 -1.3243 -0.4264 -1.4064
15178TIP3    H245476   7.217   2.951   3.433  2.3590  0.3250  0.4980
15179TIP3   OH245477   3.456   5.466   1.688 -0.1614  0.4654  0.5203
15179TIP3    H145478   3.530   5.409   1.710 -0.0180  1.0729  1.6674
15179TIP3    H245479   3.422   5.496   1.772 -1.2588  0.7920 -0.0195
15180TIP3   OH245480   7.613   3.258   2.615  0.6659 -0.0482  0.3510
15180TIP3    H145481   7.565   3.277   2.534  0.3144 -3.2981 -0.3668
15180TIP3    H245482   7.705   3.261   2.590  0.8606  3.1835  0.9985
15181TIP3   OH245483   1.906   5.422   2.460 -0.0302 -0.3434  0.2444
15181TIP3    H145484   2.000   5.425   2.441  0.1789 -1.8572  0.8842
15181TIP3    H245485   1.888   5.506   2.502  1.3473 -0.5275  1.3143
15182TIP3   OH245486   7.107   2.302   5.406 -0.1933  0.1582 -0.1657
15182TIP3    H145487   7.167   2.314   5.480 -1.2655 -3.6165  1.5272
15182TIP3    H245488   7.136   2.222   5.364 -1.9788  0.1066 -1.4176
15183TIP3   OH245489   8.368   5.992   3.575  0.6984  0.6125  0.2507
15183TIP3    H145490   8.395   5.979   3.666 -0.2496  2.6529  0.8679
15183TIP3    H245491   8.341   5.905   3.546  1.2234 -0.1206  1.8373
15184TIP3   OH245492   2.718   4.644   4.571 -0.0025 -0.1023  0.5802
15184TIP3    H145493   2.794   4.686   4.611 -0.5829  1.1447  0.4075
15184TIP3    H245494   2.649   4.649   4.638 -0.6169  0.8976 -0.1072
15185TIP3   OH245495   4.948   6.382   2.981 -0.5490  0.6438 -0.3180
15185TIP3    H145496   4.859   6.367   3.012 -0.3674 -0.4169 -0.2348
15185TIP3    H245497   4.940   6.393   2.887 -0.5009 -2.8824 -0.8659
15186TIP3   OH245498   0.742   2.535   0.294 -0.0114  0.0041  0.3760
15186TIP3    H145499   0.741   2.627   0.271 -1.4313  0.1033  0.7403
15186TIP3    H245500   0.783   2.492   0.219 -0.2371  0.8262 -0.2364
15187TIP3   OH245501   5.853   3.228   4.264  0.0137  0.2651 -0.0784
15187TIP3    H145502   5.781   3.277   4.306 -0.9277 -0.7297 -0.4977
15187TIP3    H245503   5.825   3.137   4.267  1.6365 -0.2518  0.4528
15188TIP3   OH245504   5.628   2.129   2.145 -0.2982 -0.0965  0.3550
15188TIP3    H145505   5.542   2.088   2.138  0.0732 -0.6116 -2.3164
15188TIP3    H245506   5.621   2.208   2.091  1.3859 -1.1768 -1.6085
15189TIP3   OH245507   8.119   2.568   6.321 -0.3046 -0.5265 -0.7726
15189TIP3    H145508   8.095   2.550   6.412 -0.5397  0.6326 -0.5990
15189TIP3    H245509   8.046   2.535   6.269 -0.0843 -1.3684 -0.5736
15190TIP3   OH245510   2.929   4.351   2.123 -0.1696 -0.1597  0.3591
15190TIP3    H145511   2.905   4.358   2.216  0.8058  0.7996  0.5603
15190TIP3    H245512   3.009   4.298   2.123 -1.4018 -2.1173 -0.1719
15191TIP3   OH245513   8.221   7.823   5.918  0.1483 -0.1736  0.5797
15191TIP3    H145514   8.142   7.770   5.928  0.6797 -1.1783 -0.3466
15191TIP3    H245515   8.192   7.901   5.870 -0.1466 -0.9494 -0.5486
15192TIP3   OH245516   5.433   0.600   3.054 -0.1902  0.2237 -0.1175
15192TIP3    H145517   5.353   0.651   3.040 -1.3667 -1.4267  0.3936
15192TIP3    H245518   5.465   0.629   3.140 -0.8427  0.1270  0.1653
15193TIP3   OH245519   1.973   6.900   0.518  0.1212  0.1985  0.1143
15193TIP3    H145520   1.900   6.874   0.461  0.2613 -1.7243  0.7506
15193TIP3    H245521   2.051   6.886   0.465  0.3463 -2.7561  1.0370
15194TIP3   OH245522   7.171   5.039   4.229 -0.5083  0.3181 -0.2910
15194TIP3    H145523   7.200   5.077   4.312 -1.0235  0.6405 -0.2567
15194TIP3    H245524   7.099   5.095   4.200 -1.0690 -0.4464 -0.3965
15195TIP3   OH245525   2.984   5.541   1.425  0.0881 -0.2242  0.0035
15195TIP3    H145526   3.028   5.624   1.443  1.0219 -0.5370 -0.7402
15195TIP3    H245527   2.895   5.552   1.459 -0.1072  1.4124 -0.9954
15196TIP3   OH245528   3.273   6.706   0.366  0.1462  0.7322  0.1030
15196TIP3    H145529   3.221   6.678   0.290  0.1617 -0.4951  0.5210
15196TIP3    H245530   3.360   6.724   0.329  0.8086 -2.0241  0.0914
15197TIP3   OH245531   6.693   0.192   0.494 -0.2939  0.8125  0.4801
15197TIP3    H145532   6.717   0.280   0.525  0.7431 -0.0281  2.2660
15197TIP3    H245533   6.657   0.149   0.572 -0.7191 -0.3711 -0.3450
15198TIP3   OH245534   5.528   4.124   3.458  0.4580 -1.2204  0.0050
15198TIP3    H145535   5.581   4.100   3.382  0.6947  0.1752 -0.3063
15198TIP3    H245536   5.458   4.178   3.421  0.8767 -0.0735  0.8096
15199TIP3   OH245537   4.903   7.539   4.145  0.3919 -0.4065 -0.0057
15199TIP3    H145538   4.963   7.487   4.199  0.4143 -1.3631 -0.9119
15199TIP3    H245539   4.959   7.578   4.078  0.3601  0.7453  0.6157
15200TIP3   OH245540   2.081   6.361   5.535 -0.6696 -0.2346  0.0961
15200TIP3    H145541   2.017   6.403   5.591  1.4065 -0.9880  3.2746
15200TIP3    H245542   2.074   6.267   5.555  1.0912 -0.3810  0.2478
15201TIP3   OH245543   2.183   5.879   0.064 -0.4783 -0.5399  0.3276
15201TIP3    H145544   2.215   5.790   0.053 -0.8722 -0.5366 -1.0648
15201TIP3    H245545   2.092   5.875   0.034 -1.3332 -0.2081  2.6795
15202TIP3   OH245546   2.425   4.825   0.127  0.0942  0.5142  0.2555
15202TIP3    H145547   2.441   4.843   0.219 -0.6919  3.4539 -0.0841
15202TIP3    H245548   2.492   4.876   0.081 -0.3441  0.1434 -0.8263
15203TIP3   OH245549   5.642   0.266   1.345  0.6975  1.2279 -0.2957
15203TIP3    H145550   5.723   0.253   1.394 -1.0854 -0.8828  2.3656
15203TIP3    H245551   5.626   0.360   1.349  2.0987  1.4536  0.6347
15204TIP3   OH245552   0.396   3.521   5.663  0.2552  0.1968  0.4799
15204TIP3    H145553   0.469   3.467   5.634 -0.0283  0.3326 -0.5412
15204TIP3    H245554   0.394   3.511   5.758 -0.2496 -2.1957  0.2891
15205TIP3   OH245555   5.588   2.237   5.613  0.0979  0.1302 -0.1069
15205TIP3    H145556   5.496   2.236   5.639 -0.1026  0.9234 -0.7413
15205TIP3    H245557   5.637   2.242   5.695 -0.3199 -2.4520  0.3900
15206TIP3   OH245558   7.754   1.524   5.913  0.0710  1.0246  0.2472
15206TIP3    H145559   7.680   1.486   5.863 -0.4318  1.3462  0.7405
15206TIP3    H245560   7.729   1.513   6.004 -0.0149  2.4097  0.4088
15207TIP3   OH245561   3.565   2.454   6.778 -0.5679 -0.1198  0.1901
15207TIP3    H145562   3.578   2.405   6.859 -0.6032  0.3995  0.5127
15207TIP3    H245563   3.503   2.523   6.802 -0.8111 -0.1447 -0.3546
15208TIP3   OH245564   1.410   3.500   5.550 -0.1015 -0.6203 -0.2081
15208TIP3    H145565   1.411   3.417   5.503 -1.0761 -0.1591 -1.0800
15208TIP3    H245566   1.346   3.488   5.619 -0.6391 -0.4304 -0.6661
15209TIP3   OH245567   0.649   6.338   5.074 -0.0297  0.2017 -0.8493
15209TIP3    H145568   0.576   6.352   5.014 -0.4955 -0.2090 -0.3939
15209TIP3    H245569   0.672   6.246   5.063 -0.8320 -0.1666  0.3616
15210TIP3   OH245570   7.022   4.320   3.830 -0.0869 -0.3046 -0.2254
15210TIP3    H145571   7.044   4.275   3.748 -0.7089  0.8653 -1.0574
15210TIP3    H245572   7.069   4.403   3.826  1.6655 -1.0941  1.6480
15211TIP3   OH245573   7.502   0.752   2.515 -0.2773 -0.4330  0.0295
15211TIP3    H145574   7.581   0.703   2.495 -0.3341 -1.5426  2.2466
15211TIP3    H245575   7.526   0.844   2.500  0.3078 -0.9283 -2.6228
15212TIP3   OH245576   6.659   6.681   4.234  0.1878  0.0513  0.1860
15212TIP3    H145577   6.633   6.593   4.263 -0.0964  0.2885  0.6470
15212TIP3    H245578   6.755   6.679   4.237  0.2731 -0.8395 -1.5692
15213TIP3   OH245579   4.940   3.426   3.304 -0.0120 -0.1494  0.6348
15213TIP3    H145580   5.022   3.471   3.324 -0.8931  1.7269  0.2857
15213TIP3    H245581   4.875   3.497   3.296 -1.4990 -1.5069  0.1085
15214TIP3   OH245582   8.365   1.461   3.319  0.4876 -0.1376  0.0994
15214TIP3    H145583   8.456   1.483   3.340  0.5636  0.4128 -0.7334
15214TIP3    H245584   8.313   1.528   3.364  0.5313 -0.1164  0.1196
15215TIP3   OH245585   8.344   2.367   2.084 -0.1779 -0.1300 -0.1671
15215TIP3    H145586   8.324   2.319   2.164  1.0884 -1.5228 -0.6385
15215TIP3    H245587   8.437   2.390   2.092 -0.0220 -0.3259 -1.2267
15216TIP3   OH245588   1.552   0.198   3.451  0.1241  0.2606 -0.1071
15216TIP3    H145589   1.527   0.106   3.453 -0.3939  0.4158  1.3218
15216TIP3    H245590   1.645   0.198   3.427  0.0273 -0.5953 -0.4958
15217TIP3   OH245591   4.674   0.271   5.715 -0.0097 -0.1411  0.1092
15217TIP3    H145592   4.634   0.280   5.802 -0.7205  1.3948 -0.3352
15217TIP3    H245593   4.762   0.237   5.733  0.4259  1.6029  1.5976
15218TIP3   OH245594   6.018   3.683   2.845  0.2099 -0.1678 -0.1680
15218TIP3    H145595   6.084   3.751   2.857  0.4812 -0.4804  0.1527
15218TIP3    H245596   5.953   3.699   2.914 -0.0098  0.0923 -0.4343
15219TIP3   OH245597   6.872   7.814   5.542 -0.6865  0.2772 -0.0149
15219TIP3    H145598   6.869   7.883   5.476  0.0410  1.7075  1.3933
15219TIP3    H245599   6.945   7.758   5.515 -0.2787  0.9408 -0.3115
15220TIP3   OH245600   1.761   6.884   6.122 -0.4191  0.3305 -0.2159
15220TIP3    H145601   1.806   6.844   6.197  0.6355  3.1807  0.7995
15220TIP3    H245602   1.727   6.809   6.072  0.5464 -1.7489  2.0237
15221TIP3   OH245603   4.263   3.060   2.068  0.4988 -0.3326 -0.1832
15221TIP3    H145604   4.168   3.052   2.079  0.5474  0.4725  1.1367
15221TIP3    H245605   4.299   2.996   2.130  0.8129 -0.3514 -0.3884
15222TIP3   OH245606   4.421   6.013   3.335 -0.3864  0.1200 -0.6594
15222TIP3    H145607   4.485   6.077   3.305 -1.0315  0.2086 -1.9013
15222TIP3    H245608   4.336   6.053   3.317 -0.8140 -1.2581 -1.9042
15223TIP3   OH245609   0.966   2.392   5.414 -0.6370  0.1739  0.2564
15223TIP3    H145610   0.925   2.346   5.487  0.9087 -1.0468  0.4065
15223TIP3    H245611   1.001   2.472   5.453 -0.6159 -0.0259  0.6524
15224TIP3   OH245612   1.599   5.077   2.308  0.3942 -0.0860 -0.1547
15224TIP3    H145613   1.505   5.083   2.294  0.4877  1.8291 -0.3162
15224TIP3    H245614   1.616   5.133   2.383  1.2021 -1.9562  1.1329
15225TIP3   OH245615   3.826   2.725   6.521  0.2418  0.0157  0.5706
15225TIP3    H145616   3.735   2.752   6.531 -0.4218 -1.6909 -0.5160
15225TIP3    H245617   3.874   2.778   6.585 -1.3271  1.7728  0.3468
15226TIP3   OH245618   0.588   0.445   0.374 -0.1452 -0.2895  0.4740
15226TIP3    H145619   0.682   0.431   0.386  0.1487  0.2640 -0.9980
15226TIP3    H245620   0.563   0.379   0.309 -0.4552  0.5250 -0.2463
15227TIP3   OH245621   4.686   7.700   2.162  0.6014  0.0360 -0.1239
15227TIP3    H145622   4.629   7.627   2.137  1.6545 -0.8956  0.0667
15227TIP3    H245623   4.770   7.658   2.181  0.9376  1.1731  1.0611
15228TIP3   OH245624   2.618   0.381   5.506 -0.2688  0.2007  0.2489
15228TIP3    H145625   2.566   0.439   5.561  0.5061 -0.5040  1.7811
15228TIP3    H245626   2.709   0.408   5.522 -0.0631  0.7897 -1.6482
15229TIP3   OH245627   1.678   5.610   1.917 -0.2586 -0.2594  0.2769
15229TIP3    H145628   1.623   5.542   1.955 -0.2468 -0.6701 -0.4317
15229TIP3    H245629   1.616   5.679   1.890 -0.6849 -1.5120 -2.2351
15230TIP3   OH245630   5.693   5.559   4.298  0.0800  0.3259 -0.1939
15230TIP3    H145631   5.726   5.600   4.378  2.9709 -0.3507 -0.9529
15230TIP3    H245632   5.710   5.623   4.229 -1.1695  0.3434 -0.5266
15231TIP3   OH245633   2.404   6.592   0.070 -0.1792  0.4521 -0.1892
15231TIP3    H145634   2.454   6.587   0.152  0.6270 -0.6175 -0.7219
15231TIP3    H245635   2.322   6.635   0.095  1.0512  2.4571  0.6762
15232TIP3   OH245636   3.216   0.451   3.692 -0.2832  0.6541 -0.1599
15232TIP3    H145637   3.279   0.502   3.640 -0.3889  2.4783  1.3740
15232TIP3    H245638   3.223   0.488   3.780 -1.0975 -1.3967  0.8320
15233TIP3   OH245639   7.115   3.460   5.070  0.4129 -0.4092 -1.1168
15233TIP3    H145640   7.185   3.501   5.122  0.1251 -0.0514 -1.0077
15233TIP3    H245641   7.140   3.475   4.979  0.0634  0.4465 -1.0812
15234TIP3   OH245642   2.160   4.007   3.618  0.4945 -0.2297 -0.8209
15234TIP3    H145643   2.112   4.073   3.669 -0.4619  0.6180 -2.7056
15234TIP3    H245644   2.095   3.973   3.557  1.4581 -1.6254 -1.1028
15235TIP3   OH245645   3.205   4.385   4.476  0.0852 -0.5917  0.0185
15235TIP3    H145646   3.215   4.479   4.493 -0.8182 -0.5442  0.3427
15235TIP3    H245647   3.121   4.363   4.515 -0.2975 -1.2787 -1.1546
15236TIP3   OH245648   1.470   5.132   5.538  0.3328 -0.2527 -0.2759
15236TIP3    H145649   1.433   5.214   5.506  1.9916  0.2661 -0.9524
15236TIP3    H245650   1.554   5.156   5.575  0.7845 -1.6320 -0.3404
15237TIP3   OH245651   0.908   0.026   2.205  0.0523  0.1951  0.1507
15237TIP3    H145652   0.833   0.056   2.256 -0.6991  0.8970 -1.3117
15237TIP3    H245653   0.973   0.001   2.271 -1.4218 -0.3780  1.4565
15238TIP3   OH245654   5.148   3.238   4.366  0.7962  0.3807  0.9787
15238TIP3    H145655   5.217   3.272   4.422 -0.2336  1.0542  1.8747
15238TIP3    H245656   5.110   3.315   4.324  0.7952 -0.0125  0.2272
15239TIP3   OH245657   2.510   7.876   3.137  0.2093 -0.0374 -0.4778
15239TIP3    H145658   2.572   7.927   3.189  2.5030 -3.9551  1.0155
15239TIP3    H245659   2.443   7.848   3.200  2.0751 -3.3726  0.2510
15240TIP3   OH245660   1.249   5.803   2.409  0.3655 -0.1261 -0.2451
15240TIP3    H145661   1.256   5.848   2.493 -0.3627  0.5427 -0.5285
15240TIP3    H245662   1.205   5.720   2.429 -2.2401  1.1330 -0.2840
15241TIP3   OH245663   0.189   5.042   5.982 -0.7507 -0.2885 -0.2500
15241TIP3    H145664   0.264   5.025   6.039 -0.4713 -0.1265 -0.5613
15241TIP3    H245665   0.169   4.958   5.942 -1.3117 -0.5276  0.5117
15242TIP3   OH245666   0.589   4.200   2.267 -0.2786 -0.0967  0.4452
15242TIP3    H145667   0.682   4.216   2.280 -0.3816  0.3881  0.5881
15242TIP3    H245668   0.585   4.112   2.229  0.5418  1.3368 -3.4912
15243TIP3   OH245669   2.981   3.317   3.611  0.4390  0.1672 -0.1024
15243TIP3    H145670   3.074   3.313   3.633  0.1164 -0.5408  1.2085
15243TIP3    H245671   2.944   3.376   3.675  0.0662  0.9349 -1.0047
15244TIP3   OH245672   2.214   5.180   1.580 -0.4451  0.0344  0.1531
15244TIP3    H145673   2.222   5.240   1.506 -0.4556 -0.8951 -0.6406
15244TIP3    H245674   2.302   5.145   1.592 -0.3444  0.5419  0.9046
15245TIP3   OH245675   1.530   0.662   1.993 -0.0747 -0.3054 -0.0957
15245TIP3    H145676   1.540   0.569   1.978 -2.2995 -0.3736 -1.6770
15245TIP3    H245677   1.503   0.669   2.084 -0.5321 -1.2902 -0.1444
15246TIP3   OH245678   5.589   3.694   4.366 -0.4835  0.4440 -0.6754
15246TIP3    H145679   5.603   3.768   4.426  0.2290 -1.0360  1.0921
15246TIP3    H245680   5.494   3.683   4.365 -0.4776 -0.1345  1.0717
15247TIP3   OH245681   3.386   3.416   0.093  0.4736 -0.3236  0.2263
15247TIP3    H145682   3.481   3.424   0.092  0.5740 -0.5859  2.5788
15247TIP3    H245683   3.367   3.344   0.033  1.6479  0.3588 -1.0125
15248TIP3   OH245684   5.749   4.959   0.806 -0.4117 -0.1201 -0.1211
15248TIP3    H145685   5.741   4.986   0.714 -0.1024 -0.8466 -0.3705
15248TIP3    H245686   5.830   4.999   0.836  0.0180 -0.7148 -0.4730
15249TIP3   OH245687   0.178   1.788   2.667  0.3536 -0.4168 -0.4267
15249TIP3    H145688   0.151   1.746   2.586  0.7442 -1.0385 -0.2362
15249TIP3    H245689   0.163   1.882   2.651  0.6682 -0.5086 -1.3025
15250TIP3   OH245690   4.885   4.885   1.308 -0.0405  0.3879  0.0610
15250TIP3    H145691   4.820   4.829   1.349  1.1453  0.2442  1.8396
15250TIP3    H245692   4.928   4.829   1.243 -0.2193 -0.1439  0.4002
15251TIP3   OH245693   6.353   2.434   4.709 -1.1743 -0.9498  0.1745
15251TIP3    H145694   6.316   2.469   4.790 -1.5552  1.1043 -0.8254
15251TIP3    H245695   6.443   2.465   4.708 -1.4521 -0.1147 -0.6202
15252TIP3   OH245696   7.517   1.978   4.348  0.1258 -0.4128 -0.8717
15252TIP3    H145697   7.550   1.888   4.344  0.0817 -0.6549  2.1915
15252TIP3    H245698   7.422   1.969   4.335  0.1249 -0.7951 -0.6102
15253TIP3   OH245699   6.995   5.502   5.464 -0.1742  0.0454  0.7419
15253TIP3    H145700   7.077   5.456   5.447 -0.0169  0.4344  0.4440
15253TIP3    H245701   7.021   5.593   5.478 -0.2720 -0.2144  3.1029
15254TIP3   OH245702   2.049   7.546   6.747 -0.0702 -0.3716  0.2592
15254TIP3    H145703   1.999   7.612   6.795 -0.7894 -0.5874 -0.1749
15254TIP3    H245704   2.095   7.496   6.814 -1.3414 -0.8944  0.7666
15255TIP3   OH245705   0.026   7.019   0.942  0.6492  0.5372  0.1431
15255TIP3    H145706  -0.048   7.012   0.882  0.6002  0.1308  0.2437
15255TIP3    H245707   0.098   7.052   0.889  1.0620 -1.3577 -0.5446
15256TIP3   OH245708   6.018   1.772   1.324  0.3634 -0.1425 -0.2491
15256TIP3    H145709   6.002   1.840   1.389  1.8411 -1.7546  1.9115
15256TIP3    H245710   5.938   1.772   1.270 -1.7887  0.0291  2.6955
15257TIP3   OH245711   6.937   6.799   2.705 -0.0310  0.6178  0.2852
15257TIP3    H145712   6.874   6.800   2.777  0.2711  0.5052  0.5549
15257TIP3    H245713   6.902   6.735   2.643 -1.3723  2.1845 -0.6613
15258TIP3   OH245714   6.754   0.316   3.043  0.0434  0.0733 -0.3139
15258TIP3    H145715   6.672   0.268   3.036  0.4199 -0.9803  1.6519
15258TIP3    H245716   6.806   0.286   2.969 -0.5050 -1.0048 -0.2813
15259TIP3   OH245717   0.280   0.909   1.788  0.4987  0.5260  0.5488
15259TIP3    H145718   0.300   0.843   1.855 -2.2052  0.6044  1.5683
15259TIP3    H245719   0.293   0.863   1.705  0.0576 -0.8552  1.2087
15260TIP3   OH245720   2.810   1.201   1.188 -0.0701 -0.1033 -0.5699
15260TIP3    H145721   2.798   1.111   1.217 -0.0904  0.0016 -0.2521
15260TIP3    H245722   2.792   1.255   1.266 -2.2466  0.3031 -1.2771
15261TIP3   OH245723   6.110   2.479   1.511  0.4548 -0.5671  0.3997
15261TIP3    H145724   6.073   2.567   1.524  0.5622 -0.3764 -0.5549
15261TIP3    H245725   6.122   2.446   1.600 -0.7782 -0.1194  0.7580
15262TIP3   OH245726   5.818   4.302   4.183 -0.2508  0.0749 -0.2954
15262TIP3    H145727   5.818   4.343   4.096 -0.0041  0.2822 -0.1994
15262TIP3    H245728   5.758   4.355   4.235 -1.0723 -0.5637 -0.5734
15263TIP3   OH245729   5.125   0.729   1.784  0.6261  0.1195 -0.6557
15263TIP3    H145730   5.120   0.652   1.842  1.2979 -0.5301 -1.4406
15263TIP3    H245731   5.095   0.697   1.699  1.8441  0.4500 -1.2349
15264TIP3   OH245732   3.956   0.560   0.528  0.0537  0.3109 -0.1813
15264TIP3    H145733   3.884   0.527   0.474  0.7173 -0.1121 -0.8205
15264TIP3    H245734   3.970   0.649   0.498  0.2646  0.1557 -0.5399
15265TIP3   OH245735   5.974   6.159   2.615  0.3307  0.0362 -0.7485
15265TIP3    H145736   5.912   6.086   2.621  0.7837 -0.2595  3.7408
15265TIP3    H245737   6.058   6.122   2.642  0.8097  1.9712  0.6004
15266TIP3   OH245738   5.586   1.191   1.226 -0.5872 -0.3161 -0.0269
15266TIP3    H145739   5.493   1.177   1.210 -0.2797 -2.7071 -0.2043
15266TIP3    H245740   5.599   1.167   1.318 -0.0423 -0.8868 -0.2361
15267TIP3   OH245741   5.750   0.202   4.615  0.1093 -0.3185  0.0455
15267TIP3    H145742   5.702   0.268   4.564  1.3319  0.1211 -0.5672
15267TIP3    H245743   5.704   0.120   4.597 -0.8482  0.2029  0.0566
15268TIP3   OH245744   4.558   4.394   5.973 -0.1680  0.2339  0.1534
15268TIP3    H145745   4.553   4.306   5.935 -0.6592  0.9277 -1.4531
15268TIP3    H245746   4.497   4.446   5.921 -0.2763  1.4267  1.4191
15269TIP3   OH245747   4.999   5.658   1.717 -0.0524  0.7484 -0.3467
15269TIP3    H145748   4.975   5.577   1.761  0.5867  0.6382 -0.1977
15269TIP3    H245749   4.916   5.690   1.680 -0.6252  0.9032  1.0020
15270TIP3   OH245750   1.407   5.150   4.318 -0.0531  0.4050 -0.3337
15270TIP3    H145751   1.480   5.105   4.362 -0.1362  1.7873  1.3225
15270TIP3    H245752   1.331   5.094   4.335 -0.0514  0.8299  1.2123
15271TIP3   OH245753   7.546   5.250   2.159 -0.3062  0.1345  0.1653
15271TIP3    H145754   7.452   5.229   2.164 -0.4416  0.8096  0.6469
15271TIP3    H245755   7.560   5.310   2.231  0.1919  1.1988 -0.7873
15272TIP3   OH245756   4.746   4.611   6.643 -0.4661  0.1584  0.0891
15272TIP3    H145757   4.808   4.556   6.596  0.9316  2.0273 -0.3427
15272TIP3    H245758   4.798   4.655   6.710 -2.0526 -1.0042  2.2122
15273TIP3   OH245759   7.157   5.559   4.521 -0.4702 -0.1396  0.4142
15273TIP3    H145760   7.132   5.574   4.429 -1.4074 -0.7993  0.5497
15273TIP3    H245761   7.176   5.646   4.555  1.1677  0.0053 -0.7501
15274TIP3   OH245762   1.803   3.482   0.500 -0.1738  0.0870 -0.6134
15274TIP3    H145763   1.777   3.519   0.416  0.8616 -1.4197 -1.6583
15274TIP3    H245764   1.738   3.413   0.517 -1.6149  1.7320  0.9107
15275TIP3   OH245765   2.766   1.091   6.100  0.5309  0.5120  0.2049
15275TIP3    H145766   2.749   1.136   6.018 -0.7181  0.2908  0.3265
15275TIP3    H245767   2.695   1.028   6.109  0.5887  0.5938  1.4949
15276TIP3   OH245768   5.320   1.955   4.142  0.7456 -0.0652 -0.0449
15276TIP3    H145769   5.409   1.979   4.117  0.1310  1.2548 -1.0468
15276TIP3    H245770   5.287   1.905   4.067  0.8704 -1.2222  0.6387
15277TIP3   OH245771   5.686   2.594   2.324 -0.0325 -0.2572  0.5170
15277TIP3    H145772   5.652   2.567   2.238  1.0146  1.0822 -0.3473
15277TIP3    H245773   5.607   2.611   2.375 -0.6900 -1.7670  0.0833
15278TIP3   OH245774   3.774   7.569   5.265 -0.4658 -0.0042 -0.0649
15278TIP3    H145775   3.697   7.624   5.253  0.8478  1.4571 -2.5341
15278TIP3    H245776   3.830   7.619   5.325 -0.6207 -0.1833  0.2327
15279TIP3   OH245777   4.375   0.117   2.159  0.1007  0.0735  0.1807
15279TIP3    H145778   4.428   0.184   2.201  0.8576 -0.0002 -0.6350
15279TIP3    H245779   4.286   0.153   2.159  0.4953  1.0857 -0.2621
15280TIP3   OH245780   0.437   1.469   3.195  0.4479 -0.2164 -0.0064
15280TIP3    H145781   0.520   1.511   3.171 -0.4888 -0.0056 -3.3419
15280TIP3    H245782   0.450   1.376   3.174  1.0840 -1.0226  3.3541
15281TIP3   OH245783   6.130   1.121   4.481 -0.2327 -0.0516 -0.0926
15281TIP3    H145784   6.145   1.095   4.572  0.5582 -2.8140 -0.9141
15281TIP3    H245785   6.035   1.119   4.471 -0.2633 -3.1213 -0.1163
15282TIP3   OH245786   5.554   4.325   1.561 -0.5496  0.1807 -0.0545
15282TIP3    H145787   5.562   4.299   1.652 -1.2358  0.0998 -0.0095
15282TIP3    H245788   5.488   4.395   1.562  0.5095  1.2077 -0.3034
15283TIP3   OH245789   3.144   7.455   4.546  0.0968  0.0907  0.1835
15283TIP3    H145790   3.052   7.471   4.525 -0.2180 -1.2896  0.4117
15283TIP3    H245791   3.148   7.462   4.642 -0.0892 -1.2666  0.3077
15284TIP3   OH245792   5.689   6.501   5.517  0.7029  0.7788  0.1880
15284TIP3    H145793   5.629   6.458   5.578  3.3500 -0.0472  2.3757
15284TIP3    H245794   5.674   6.455   5.434 -1.1747  0.1366  0.8322
15285TIP3   OH245795   1.986   0.931   3.862 -0.4645  0.3419 -0.2431
15285TIP3    H145796   2.015   0.931   3.770 -2.2219  2.7432 -0.8779
15285TIP3    H245797   2.006   1.019   3.893  1.2547 -0.7886  2.1672
15286TIP3   OH245798   0.952   6.193   6.138 -0.6523  0.5638  0.1020
15286TIP3    H145799   1.036   6.201   6.092 -0.8902  1.2715 -0.2262
15286TIP3    H245800   0.975   6.156   6.223 -0.0603  0.3622 -0.1373
15287TIP3   OH245801   7.038   7.274   1.679  0.1819 -0.0769 -0.0629
15287TIP3    H145802   7.014   7.185   1.653  2.0676 -0.4361 -0.7326
15287TIP3    H245803   7.007   7.330   1.608 -5.0847  0.5699  2.2839
15288TIP3   OH245804   0.506   7.702   0.860  0.2566 -0.2435  0.2062
15288TIP3    H145805   0.524   7.773   0.921  0.3156 -1.3976  1.5767
15288TIP3    H245806   0.582   7.644   0.868 -0.0873 -0.7915 -0.4061
15289TIP3   OH245807   6.203   4.418   0.121  0.0195 -0.3924  0.5352
15289TIP3    H145808   6.285   4.465   0.109 -0.3727  0.6625  1.8092
15289TIP3    H245809   6.152   4.472   0.181 -1.9294 -0.6563 -0.8052
15290TIP3   OH245810   4.188   5.520   6.661  0.3924 -0.1698 -0.9970
15290TIP3    H145811   4.211   5.601   6.616  0.1527 -0.6060 -1.9321
15290TIP3    H245812   4.104   5.493   6.622 -0.9453  0.5419  1.2085
15291TIP3   OH245813   7.297   3.878   0.776  0.2860 -0.0991  0.1876
15291TIP3    H145814   7.234   3.814   0.809  0.1973  0.0016  0.2133
15291TIP3    H245815   7.258   3.910   0.695  1.0491 -1.2164 -0.6571
15292TIP3   OH245816   2.263   7.493   4.258  0.2602 -0.0129  0.4227
15292TIP3    H145817   2.201   7.430   4.220 -1.4948 -0.3740  3.4999
15292TIP3    H245818   2.223   7.578   4.242 -0.9655 -0.2205  2.0342
15293TIP3   OH245819   7.290   7.842   5.107 -0.4064  0.3504 -0.3085
15293TIP3    H145820   7.246   7.778   5.162  1.0410 -0.9320 -0.5780
15293TIP3    H245821   7.261   7.822   5.018  0.9854 -0.7882 -0.5400
15294TIP3   OH245822   7.572   6.124   6.594  0.1440 -0.0570  0.3110
15294TIP3    H145823   7.529   6.071   6.527  1.3313  2.5625 -2.7992
15294TIP3    H245824   7.507   6.190   6.618 -0.3059 -1.0301  1.9322
15295TIP3   OH245825   2.406   7.224   1.458  0.0224  0.3915 -0.3564
15295TIP3    H145826   2.406   7.192   1.548  0.1155  0.2942 -0.3909
15295TIP3    H245827   2.498   7.227   1.434 -0.0800 -1.6149 -1.1704
15296TIP3   OH245828   1.595   6.439   4.451  0.4059 -0.3119 -0.6119
15296TIP3    H145829   1.649   6.429   4.529  0.9929  1.0410 -0.8212
15296TIP3    H245830   1.583   6.350   4.419 -0.1405 -0.9508  1.1920
15297TIP3   OH245831   6.818   0.540   2.235 -0.1948 -0.1273  0.5274
15297TIP3    H145832   6.775   0.494   2.163 -1.4294  2.0221 -0.2247
15297TIP3    H245833   6.877   0.602   2.192  0.3529  0.0075  1.4359
15298TIP3   OH245834   3.728   3.533   2.221  0.7982  0.2214 -0.0856
15298TIP3    H145835   3.773   3.558   2.140  1.0868 -1.6915 -0.5757
15298TIP3    H245836   3.756   3.443   2.237 -0.6709 -0.0670  1.1468
15299TIP3   OH245837   3.394   0.604   3.228  0.4839 -0.2094 -0.0841
15299TIP3    H145838   3.388   0.692   3.191  3.4050 -0.6611 -1.9591
15299TIP3    H245839   3.488   0.587   3.235  0.1087 -3.7484 -1.3839
15300TIP3   OH245840   4.363   1.369   3.724  0.1667 -0.3836  0.5931
15300TIP3    H145841   4.327   1.443   3.675 -2.7358 -1.4140  1.0111
15300TIP3    H245842   4.419   1.410   3.790 -0.2825  1.3529 -0.0483
15301TIP3   OH245843   4.481   0.194   5.009 -0.2685  0.5686  0.3380
15301TIP3    H145844   4.404   0.216   5.061  0.7083  1.4763  1.4650
15301TIP3    H245845   4.486   0.264   4.943 -0.7423  0.1708 -0.1247
15302TIP3   OH245846   6.517   5.231   5.439 -0.5721  0.6936 -0.1072
15302TIP3    H145847   6.450   5.250   5.504 -0.0419 -0.1438  0.6967
15302TIP3    H245848   6.594   5.281   5.467 -0.8013  1.5812 -0.9771
15303TIP3   OH245849   5.757   4.483   3.972 -0.0939 -0.1732 -0.1312
15303TIP3    H145850   5.792   4.535   4.044  0.9626 -0.4026 -0.4617
15303TIP3    H245851   5.801   4.516   3.894 -1.2737  0.1157 -0.7052
15304TIP3   OH245852   3.567   4.865   6.009  0.0061 -0.1258 -0.0875
15304TIP3    H145853   3.536   4.833   6.093  0.4186 -0.4437 -0.0523
15304TIP3    H245854   3.561   4.961   6.017  1.0858 -0.0953  0.7299
15305TIP3   OH245855   7.587   0.002   6.537 -0.2701  1.0792 -0.1696
15305TIP3    H145856   7.562   0.094   6.523 -1.2850  0.6326 -1.5986
15305TIP3    H245857   7.591  -0.035   6.448 -1.3546 -0.6086  0.4253
15306TIP3   OH245858   1.139   6.398   6.703  0.2453  0.4671  0.3602
15306TIP3    H145859   1.072   6.399   6.771 -0.3689  0.1718 -0.2206
15306TIP3    H245860   1.095   6.359   6.627  1.7717 -2.1543  0.6747
15307TIP3   OH245861   3.550   4.608   6.697  0.3528 -0.0507 -0.1948
15307TIP3    H145862   3.623   4.661   6.729  1.5676 -0.8157 -1.5427
15307TIP3    H245863   3.581   4.574   6.613 -1.5887 -0.3830 -0.8323
15308TIP3   OH245864   3.241   3.900   3.725  0.6025 -0.0799 -0.0218
15308TIP3    H145865   3.173   3.846   3.764 -0.8947  0.1147 -2.1726
15308TIP3    H245866   3.243   3.979   3.779 -2.5905  0.9213 -1.1672
15309TIP3   OH245867   5.056   0.261   2.033  0.6217 -0.0896  0.2479
15309TIP3    H145868   5.070   0.181   2.084 -0.4299 -0.6505 -0.3136
15309TIP3    H245869   4.966   0.286   2.051  0.5487  0.2599 -0.5527
15310TIP3   OH245870   4.205   6.537   3.139  0.0940  0.4339  0.5484
15310TIP3    H145871   4.225   6.519   3.047 -0.3440  0.9848  0.3421
15310TIP3    H245872   4.158   6.620   3.138  0.4869  0.6786  1.3175
15311TIP3   OH245873   0.872   5.438   6.116 -0.5274 -0.2952  0.2539
15311TIP3    H145874   0.867   5.405   6.026 -1.4104  0.7723 -0.1076
15311TIP3    H245875   0.806   5.387   6.164 -1.4525  0.4891 -0.1609
15312TIP3   OH245876   1.026   4.098   6.667  0.2708 -0.4756 -0.1858
15312TIP3    H145877   0.995   4.135   6.749 -0.0344 -0.7381 -0.1852
15312TIP3    H245878   1.105   4.149   6.647  0.6688 -0.7808  0.5542
15313TIP3   OH245879   7.050   7.517   4.007 -0.2468  0.2872 -0.4264
15313TIP3    H145880   7.123   7.487   3.952 -0.0916 -0.0946 -0.0194
15313TIP3    H245881   7.040   7.448   4.072  0.0038  1.0353  0.4254
15314TIP3   OH245882   2.428   4.321   2.897 -0.1423 -0.3940 -0.1296
15314TIP3    H145883   2.383   4.288   2.974  0.5419 -0.9644  0.0384
15314TIP3    H245884   2.440   4.244   2.841 -1.6999  0.2064 -1.3855
15315TIP3   OH245885   8.368   7.061   3.805  0.0755 -0.1952 -0.2065
15315TIP3    H145886   8.315   7.138   3.827  0.6881  0.5015 -1.0970
15315TIP3    H245887   8.305   6.989   3.800 -1.1519  0.9183 -2.9487
15316TIP3   OH245888   6.959   1.951   3.942 -0.8249 -0.0663 -0.0187
15316TIP3    H145889   6.987   1.869   3.982 -1.2054  0.4328  1.3175
15316TIP3    H245890   7.028   1.972   3.879 -0.8844 -1.5594 -0.6069
15317TIP3   OH245891   1.984   1.695   5.264  0.4592 -0.5433 -0.0619
15317TIP3    H145892   1.993   1.732   5.177  0.2650 -1.8286 -0.6586
15317TIP3    H245893   1.968   1.602   5.249  0.2982 -0.7715  1.3432
15318TIP3   OH245894   7.382   7.915   1.179 -0.2632  0.0913  0.8364
15318TIP3    H145895   7.396   7.885   1.269  0.3198  0.0303  0.7290
15318TIP3    H245896   7.291   7.893   1.160 -0.6962  1.0008  1.7540
15319TIP3   OH245897   7.301   5.437   2.940  0.2364  0.1239  0.4255
15319TIP3    H145898   7.327   5.372   3.005 -2.2950  0.2499  1.6834
15319TIP3    H245899   7.232   5.395   2.890 -0.8917  1.5144  0.7387
15320TIP3   OH245900   5.919   5.649   4.784 -1.0220  0.1762  0.3658
15320TIP3    H145901   5.978   5.685   4.717 -2.4412  0.3828 -0.8237
15320TIP3    H245902   5.929   5.555   4.777  1.1179  0.1972  2.0294
15321TIP3   OH245903   2.159   5.068   0.993 -0.0972  0.6663 -0.0396
15321TIP3    H145904   2.235   5.043   1.045 -0.8321 -0.1295  0.6750
15321TIP3    H245905   2.163   5.012   0.916 -2.2013 -2.4856  1.9392
15322TIP3   OH245906   6.614   0.959   5.050 -0.2631 -0.0579  0.1357
15322TIP3    H145907   6.666   0.885   5.019 -1.5517  0.0458 -2.6604
15322TIP3    H245908   6.569   0.926   5.128  1.2472 -1.2788  0.5378
15323TIP3   OH245909   8.151   0.662   4.407  0.6032  0.0100  0.3110
15323TIP3    H145910   8.092   0.665   4.331 -0.1547 -1.8899  0.7502
15323TIP3    H245911   8.228   0.712   4.380  0.6263 -1.1040 -1.9662
15324TIP3   OH245912   2.817   7.069   3.875  0.0374 -0.0844  0.0109
15324TIP3    H145913   2.748   7.135   3.866 -0.9676 -1.1621 -0.4809
15324TIP3    H245914   2.774   6.995   3.918  1.3054 -0.2073  1.1193
15325TIP3   OH245915   3.097   6.442   6.693  0.4586  0.1489 -0.6776
15325TIP3    H145916   3.178   6.462   6.647  2.1694  0.5958  2.2898
15325TIP3    H245917   3.048   6.524   6.693  0.5438  0.2047 -1.4144
15326TIP3   OH245918   6.630   6.347   1.318 -0.4242 -0.4822  0.0168
15326TIP3    H145919   6.702   6.406   1.296 -1.0104  0.8360  1.4397
15326TIP3    H245920   6.622   6.354   1.413 -2.3127 -0.7263 -0.0921
15327TIP3   OH245921   1.538   3.289   1.138  0.8046  0.5592 -0.1055
15327TIP3    H145922   1.536   3.315   1.230 -0.0779 -1.3000  0.4470
15327TIP3    H245923   1.532   3.194   1.141 -1.5521  0.5721 -2.1667
15328TIP3   OH245924   5.156   7.739   5.587  0.3051  0.0378  0.7495
15328TIP3    H145925   5.168   7.824   5.628  0.1964  0.3230  0.1982
15328TIP3    H245926   5.193   7.677   5.650 -1.1056  0.3139  1.9193
15329TIP3   OH245927   0.439   3.998   0.647 -0.0006  0.1924  0.0011
15329TIP3    H145928   0.385   4.022   0.722 -1.7695  0.4318 -1.2834
15329TIP3    H245929   0.493   4.075   0.631  1.7601 -0.5223  2.1044
15330TIP3   OH245930   3.364   0.894   5.166 -0.3681  0.5904  0.4180
15330TIP3    H145931   3.302   0.885   5.239 -1.5802  3.0186 -0.2091
15330TIP3    H245932   3.446   0.920   5.206 -0.1290 -1.1685  1.1380
15331TIP3   OH245933   4.082   3.577   5.850  0.2639 -0.1599 -0.4382
15331TIP3    H145934   4.110   3.499   5.803  1.0490  2.0698 -4.0862
15331TIP3    H245935   4.012   3.614   5.796 -1.8605  0.4541  2.4940
15332TIP3   OH245936   5.573   2.545   5.777  0.1767  0.0201  0.1850
15332TIP3    H145937   5.574   2.606   5.851  1.5943 -2.8026  2.7050
15332TIP3    H245938   5.488   2.559   5.735 -1.2727  0.8715  3.1644
15333TIP3   OH245939   6.490   1.101   6.019 -0.3855 -0.2041  0.2530
15333TIP3    H145940   6.423   1.123   5.954  1.5930  0.9221 -1.5325
15333TIP3    H245941   6.493   1.176   6.078  0.2512  0.3900 -0.5190
15334TIP3   OH245942   0.960   3.283   3.631  0.2314  0.0845 -0.4151
15334TIP3    H145943   1.017   3.283   3.708  0.8470  0.3150 -0.8675
15334TIP3    H245944   1.019   3.298   3.557 -0.5715  1.5272 -0.7872
15335TIP3   OH245945   1.115   1.939   0.642 -0.0761  0.2191 -0.2051
15335TIP3    H145946   1.164   1.860   0.667  1.5546  0.9489 -0.9910
15335TIP3    H245947   1.024   1.915   0.657  0.3915 -1.7159 -0.1264
15336TIP3   OH245948   2.564   3.128   1.035  0.0283 -0.4154  0.5223
15336TIP3    H145949   2.575   3.222   1.019  2.4407 -0.9723 -1.7068
15336TIP3    H245950   2.495   3.102   0.974  0.8668 -0.4178 -0.4572
15337TIP3   OH245951   4.169   5.600   0.130  0.1596 -0.6145  0.0611
15337TIP3    H145952   4.194   5.592   0.038 -0.5099  0.2444 -0.2157
15337TIP3    H245953   4.136   5.690   0.138 -0.8670 -1.0402  0.8738
15338TIP3   OH245954   7.425   6.893   3.357 -0.1472 -0.9704 -0.3254
15338TIP3    H145955   7.480   6.825   3.318  0.3499 -0.9908  0.3930
15338TIP3    H245956   7.352   6.902   3.296  0.4409 -1.2298 -1.0914
15339TIP3   OH245957   1.825   7.572   4.620  0.0894 -0.4467  0.0746
15339TIP3    H145958   1.876   7.632   4.675 -0.6125  0.5394 -0.3142
15339TIP3    H245959   1.870   7.574   4.535 -1.9618  2.4861 -1.0972
15340TIP3   OH245960   7.657   4.305   6.444  0.0952  0.5259  0.4222
15340TIP3    H145961   7.680   4.397   6.432  1.0264  0.4838  1.7684
15340TIP3    H245962   7.584   4.306   6.505 -1.0059  0.4348 -0.8439
15341TIP3   OH245963   2.618   5.681   3.500 -0.0836 -0.3059 -0.0993
15341TIP3    H145964   2.607   5.772   3.470 -1.9900 -0.0310  1.2406
15341TIP3    H245965   2.618   5.629   3.420 -0.8378  0.7459 -0.8100
15342TIP3   OH245966   6.073   1.489   5.185  0.2520 -0.7016 -0.1761
15342TIP3    H145967   6.094   1.571   5.230  1.5732 -1.5560  0.8347
15342TIP3    H245968   5.989   1.506   5.142  0.2090  0.9788  0.4937
15343TIP3   OH245969   5.082   7.389   0.188  0.9339  0.1157  0.6998
15343TIP3    H145970   5.088   7.379   0.093 -0.9349 -0.4109  0.5865
15343TIP3    H245971   5.111   7.304   0.223 -0.8270 -0.6514  0.4314
15344TIP3   OH245972   4.908   1.223   3.916  0.0065 -0.4318  0.2216
15344TIP3    H145973   4.892   1.135   3.950 -1.7534  0.1017  0.8610
15344TIP3    H245974   4.821   1.255   3.891  0.6939  0.9136 -0.5473
15345TIP3   OH245975   5.647   7.326   4.754  0.2555  0.5257 -0.1603
15345TIP3    H145976   5.577   7.380   4.792 -2.1734 -0.3051 -3.0112
15345TIP3    H245977   5.689   7.383   4.690  0.0879  0.0931 -0.6558
15346TIP3   OH245978   1.213   6.911   3.661  0.4031  0.0130 -0.7707
15346TIP3    H145979   1.249   6.988   3.705  0.0707 -0.3689  0.1933
15346TIP3    H245980   1.258   6.837   3.701 -0.5557 -0.3957 -0.3985
15347TIP3   OH245981   6.379   5.315   4.565 -0.0819 -0.0224  0.7028
15347TIP3    H145982   6.390   5.395   4.513 -0.9395  0.4335  1.1894
15347TIP3    H245983   6.406   5.244   4.507 -1.6965  0.4006 -0.6391
15348TIP3   OH245984   2.572   6.867   4.688 -0.1590 -0.7358 -0.4108
15348TIP3    H145985   2.536   6.840   4.604  1.6271 -2.3354 -0.7384
15348TIP3    H245986   2.662   6.835   4.687 -0.2489 -1.3608  2.3477
15349TIP3   OH245987   6.462   7.605   3.376 -0.0045  0.3435  0.0418
15349TIP3    H145988   6.427   7.692   3.356  0.6182  0.6584  0.2712
15349TIP3    H245989   6.473   7.563   3.291 -2.2597 -0.3208  0.0106
15350TIP3   OH245990   5.619   3.926   5.686  0.1080 -0.0572 -0.4182
15350TIP3    H145991   5.563   3.886   5.753  0.3718 -1.2013 -0.8567
15350TIP3    H245992   5.689   3.863   5.672  0.6552  0.6617 -0.9928
15351TIP3   OH245993   3.706   5.125   5.213  0.4155 -0.4520  0.0929
15351TIP3    H145994   3.797   5.097   5.203  0.6497 -0.4256  1.8435
15351TIP3    H245995   3.694   5.134   5.307 -2.0034 -2.4333  0.0668
15352TIP3   OH245996   6.714   7.120   6.451  0.1155 -0.0886  0.2169
15352TIP3    H145997   6.678   7.207   6.464  2.9234  1.2180  0.0739
15352TIP3    H245998   6.644   7.060   6.479 -1.2047  2.2127  2.2567
15353TIP3   OH245999   2.722   6.235   1.627  0.2713 -0.3222 -0.2299
15353TIP3    H146000   2.805   6.278   1.648  0.2754  0.2095 -1.2413
15353TIP3    H246001   2.746   6.162   1.571  0.0964 -0.4285 -0.1680
15354TIP3   OH246002   7.602   6.509   4.811  0.7479 -0.3385 -0.2338
15354TIP3    H146003   7.641   6.596   4.805 -2.0934  1.1046  0.2813
15354TIP3    H246004   7.583   6.497   4.904 -0.8794 -0.4690 -0.5436
15355TIP3   OH246005   3.955   1.224   4.161 -0.2802 -0.2379  0.3020
15355TIP3    H146006   3.883   1.167   4.188 -0.2436 -0.2797  0.3118
15355TIP3    H246007   4.001   1.173   4.095 -1.1537  0.3863 -0.8223
15356TIP3   OH246008   4.298   2.718   0.184  0.5557 -0.0776 -0.4399
15356TIP3    H146009   4.271   2.630   0.210 -2.6364  0.9708  0.3878
15356TIP3    H246010   4.249   2.736   0.103 -0.7455  1.6466  0.6309
15357TIP3   OH246011   7.656   1.111   1.748  0.2373 -0.1264 -0.2267
15357TIP3    H146012   7.563   1.126   1.734  0.5687  0.8498 -1.5409
15357TIP3    H246013   7.693   1.199   1.757  1.0468 -0.5043  0.2679
15358TIP3   OH246014   1.869   5.488   2.955 -0.3281 -0.1675  0.1662
15358TIP3    H146015   1.921   5.531   2.887  1.2152 -0.6818  0.9557
15358TIP3    H246016   1.827   5.414   2.910  1.2176 -0.9185 -0.1487
15359TIP3   OH246017   6.570   2.468   5.410  0.1371 -0.0709  0.4145
15359TIP3    H146018   6.626   2.397   5.442  1.8329  0.2553 -1.6450
15359TIP3    H246019   6.612   2.548   5.441 -0.2237  0.1300  0.3924
15360TIP3   OH246020   1.479   3.482   5.030  0.5294  0.7555 -0.1527
15360TIP3    H146021   1.447   3.524   5.110  0.0235  0.2860 -0.0960
15360TIP3    H246022   1.515   3.553   4.978  0.6535  1.1008  0.3945
15361TIP3   OH246023   6.429   3.616   4.894  0.1476 -0.0725 -0.0475
15361TIP3    H146024   6.511   3.651   4.929  0.0671 -1.0811  1.2275
15361TIP3    H246025   6.362   3.651   4.953 -0.1737 -0.4610 -0.1846
15362TIP3   OH246026   1.504   4.171   5.599  0.2903  0.0469  0.0354
15362TIP3    H146027   1.544   4.148   5.515 -0.2973  0.2177 -0.2973
15362TIP3    H246028   1.530   4.100   5.658  0.3742 -0.2872 -0.3966
15363TIP3   OH246029   7.339   1.718   4.516  0.4353  0.0848 -0.1983
15363TIP3    H146030   7.317   1.650   4.580 -2.0991  0.0758 -0.9644
15363TIP3    H246031   7.430   1.701   4.494  0.6722 -1.3853  1.6125
15364TIP3   OH246032   4.866   3.784   3.504 -0.5128  0.1689  0.0318
15364TIP3    H146033   4.886   3.859   3.448  1.7722  0.7896  1.5102
15364TIP3    H246034   4.856   3.711   3.443  1.4694  0.8917 -1.2868
15365TIP3   OH246035   1.288   3.001   1.204 -0.0654  0.0619  0.5033
15365TIP3    H146036   1.308   2.953   1.285  0.1840 -1.3335 -0.3560
15365TIP3    H246037   1.193   3.005   1.202 -0.0893 -0.3491  0.6228
15366TIP3   OH246038   0.230   2.871   0.468  0.0718 -0.6471 -0.2512
15366TIP3    H146039   0.237   2.793   0.412 -0.0102 -1.1128  0.3882
15366TIP3    H246040   0.262   2.842   0.553 -0.4561 -0.1164  0.1272
15367TIP3   OH246041   1.800   7.656   2.108  0.0004 -0.6154 -0.6727
15367TIP3    H146042   1.859   7.663   2.033  0.7531  0.3683 -0.0144
15367TIP3    H246043   1.725   7.607   2.075  0.3604 -0.2892 -2.0456
15368TIP3   OH246044   5.619   3.228   2.531 -0.5423  0.1457 -0.2595
15368TIP3    H146045   5.543   3.218   2.590  0.5990 -0.9245  1.1085
15368TIP3    H246046   5.594   3.300   2.473 -2.0468  0.7825  1.0633
15369TIP3   OH246047   7.964   0.101  -0.019 -0.0536  0.3665  0.2688
15369TIP3    H146048   8.012   0.142   0.053 -0.3700 -0.0739  0.7423
15369TIP3    H246049   7.876   0.139  -0.014 -0.1275  0.2052  0.2282
15370TIP3   OH246050   0.632   3.920   2.537 -0.5541  0.5017  0.5489
15370TIP3    H146051   0.584   3.989   2.582 -0.0917 -0.3336  2.4247
15370TIP3    H246052   0.723   3.930   2.566 -0.4168 -0.6609  0.5787
15371TIP3   OH246053   1.068   1.172   5.752  0.0036  0.3011 -0.1066
15371TIP3    H146054   1.076   1.128   5.667  2.0640 -1.0782  0.7149
15371TIP3    H246055   1.136   1.131   5.806 -1.2598  1.1231  2.2234
   8.40148   7.92100   6.85978   0.00000   0.00000  -2.80050   0.00000  -2.80050  -3.96050
