Title t= 439.00000 step= 219500
29212
    1ASP      N    1   1.700   3.467   5.129
    1ASP    HT1    2   1.721   3.537   5.054
    1ASP    HT2    3   1.721   3.508   5.222
    1ASP    HT3    4   1.598   3.450   5.118
    1ASP     CA    5   1.776   3.337   5.123
    1ASP     HA    6   1.806   3.316   5.225
    1ASP     CB    7   1.692   3.230   5.040
    1ASP    HB1    8   1.763   3.147   5.019
    1ASP    HB2    9   1.668   3.268   4.939
    1ASP     CG   10   1.565   3.191   5.123
    1ASP    OD1   11   1.495   3.284   5.165
    1ASP    OD2   12   1.527   3.074   5.136
    1ASP      C   13   1.909   3.360   5.052
    1ASP      O   14   1.940   3.472   5.011
    2GLY      N   15   1.989   3.246   5.038
    2GLY     HN   16   1.960   3.167   5.092
    2GLY     CA   17   2.109   3.239   4.950
    2GLY    HA1   18   2.145   3.137   4.954
    2GLY    HA2   19   2.180   3.300   5.003
    2GLY      C   20   2.088   3.276   4.810
    2GLY      O   21   1.979   3.265   4.750
    3ASP      N   22   2.203   3.322   4.752
    3ASP     HN   23   2.294   3.328   4.793
    3ASP     CA   24   2.209   3.366   4.615
    3ASP     HA   25   2.126   3.434   4.606
    3ASP     CB   26   2.344   3.425   4.578
    3ASP    HB1   27   2.374   3.390   4.477
    3ASP    HB2   28   2.429   3.395   4.643
    3ASP     CG   29   2.356   3.571   4.604
    3ASP    OD1   30   2.279   3.640   4.679
    3ASP    OD2   31   2.465   3.620   4.562
    3ASP      C   32   2.165   3.262   4.501
    3ASP      O   33   2.189   3.142   4.515
    4GLY      N   34   2.092   3.307   4.393
    4GLY     HN   35   2.093   3.406   4.383
    4GLY     CA   36   2.047   3.231   4.277
    4GLY    HA1   37   1.977   3.301   4.232
    4GLY    HA2   38   2.014   3.135   4.313
    4GLY      C   39   2.163   3.203   4.178
    4GLY      O   40   2.273   3.252   4.208
    5PRO      N   41   2.142   3.131   4.067
    5PRO     CD   42   2.024   3.044   4.055
    5PRO    HD1   43   1.934   3.109   4.041
    5PRO    HD2   44   1.999   2.983   4.145
    5PRO     CA   45   2.241   3.106   3.962
    5PRO     HA   46   2.306   3.029   4.001
    5PRO     CB   47   2.152   3.054   3.851
    5PRO    HB1   48   2.205   2.988   3.779
    5PRO    HB2   49   2.098   3.133   3.794
    5PRO     CG   50   2.054   2.958   3.932
    5PRO    HG1   51   1.964   2.932   3.873
    5PRO    HG2   52   2.112   2.869   3.965
    5PRO      C   53   2.329   3.222   3.912
    5PRO      O   54   2.287   3.340   3.922
    6GLY      N   55   2.454   3.201   3.864
    6GLY     HN   56   2.485   3.107   3.873
    6GLY     CA   57   2.546   3.309   3.826
    6GLY    HA1   58   2.625   3.260   3.771
    6GLY    HA2   59   2.579   3.359   3.916
    6GLY      C   60   2.497   3.420   3.732
    6GLY      O   61   2.410   3.401   3.652
    7ASP      N   62   2.556   3.542   3.742
    7ASP     HN   63   2.621   3.570   3.813
    7ASP     CA   64   2.530   3.652   3.652
    7ASP     HA   65   2.423   3.664   3.643
    7ASP     CB   66   2.601   3.779   3.705
    7ASP    HB1   67   2.584   3.864   3.635
    7ASP    HB2   68   2.712   3.768   3.704
    7ASP     CG   69   2.552   3.805   3.846
    7ASP    OD1   70   2.630   3.800   3.941
    7ASP    OD2   71   2.429   3.829   3.861
    7ASP      C   72   2.568   3.619   3.502
    7ASP      O   73   2.677   3.578   3.472
    8PRO      N   74   2.479   3.639   3.403
    8PRO     CD   75   2.343   3.696   3.414
    8PRO    HD1   76   2.347   3.806   3.428
    8PRO    HD2   77   2.293   3.653   3.504
    8PRO     CA   78   2.510   3.604   3.260
    8PRO     HA   79   2.534   3.499   3.259
    8PRO     CB   80   2.385   3.652   3.186
    8PRO    HB1   81   2.348   3.581   3.109
    8PRO    HB2   82   2.398   3.745   3.127
    8PRO     CG   83   2.276   3.654   3.288
    8PRO    HG1   84   2.197   3.727   3.258
    8PRO    HG2   85   2.227   3.557   3.308
    8PRO      C   86   2.639   3.664   3.200
    8PRO      O   87   2.683   3.775   3.227
    9GLY      N   88   2.707   3.582   3.115
    9GLY     HN   89   2.664   3.494   3.097
    9GLY     CA   90   2.824   3.628   3.035
    9GLY    HA1   91   2.874   3.537   3.007
    9GLY    HA2   92   2.891   3.695   3.086
    9GLY      C   93   2.794   3.694   2.907
    9GLY      O   94   2.731   3.799   2.914
   10ASP      N   95   2.850   3.642   2.795
   10ASP     HN   96   2.886   3.549   2.802
   10ASP     CA   97   2.799   3.695   2.669
   10ASP     HA   98   2.815   3.800   2.689
   10ASP     CB   99   2.886   3.667   2.545
   10ASP    HB1  100   2.842   3.712   2.453
   10ASP    HB2  101   2.893   3.556   2.538
   10ASP     CG  102   3.024   3.722   2.563
   10ASP    OD1  103   3.041   3.826   2.638
   10ASP    OD2  104   3.118   3.675   2.492
   10ASP      C  105   2.656   3.668   2.643
   10ASP      O  106   2.596   3.559   2.648
   11GLY      N  107   2.587   3.782   2.608
   11GLY     HN  108   2.636   3.865   2.584
   11GLY     CA  109   2.449   3.773   2.557
   11GLY    HA1  110   2.395   3.818   2.639
   11GLY    HA2  111   2.413   3.672   2.539
   11GLY      C  112   2.441   3.852   2.430
   11GLY    OT1  113   2.404   3.796   2.322
   11GLY    OT2  114   2.489   3.969   2.426
   12SOD    SOD  115   4.753   2.096   0.945
   13SOD    SOD  116   5.589   6.225   0.600
   14SOD    SOD  117   1.446   1.207   2.182
   15SOD    SOD  118   6.992   0.298   2.796
   16SOD    SOD  119   1.350   6.697   5.461
   17SOD    SOD  120   1.558   3.920   4.274
   18SOD    SOD  121   5.356   0.453   0.670
   19SOD    SOD  122   6.573   0.322   5.299
   20SOD    SOD  123   6.432   0.933   5.808
   21SOD    SOD  124   6.580   1.056   0.445
   22SOD    SOD  125   6.486   0.886   4.415
   23SOD    SOD  126   3.173   1.291   2.546
   24SOD    SOD  127   2.925   2.635   5.201
   25SOD    SOD  128   2.765   2.595   1.159
   26SOD    SOD  129   4.104   5.569   3.592
   27SOD    SOD  130   3.745   3.357   2.689
   28SOD    SOD  131   5.618   2.894   3.709
   29SOD    SOD  132   0.495   2.059   1.678
   30SOD    SOD  133   2.074   5.360   5.656
   31SOD    SOD  134   6.843   6.542   3.260
   32SOD    SOD  135   3.016   4.355   0.329
   33SOD    SOD  136   0.906   3.155   1.201
   34SOD    SOD  137   5.110   5.860   2.295
   35SOD    SOD  138   3.382   4.437   1.122
   36SOD    SOD  139   5.028   2.182   5.510
   37SOD    SOD  140   3.627   3.951   0.679
   38SOD    SOD  141   2.018   4.543   3.552
   39SOD    SOD  142   0.666   4.747   3.050
   40SOD    SOD  143   5.117   3.091   1.488
   41SOD    SOD  144   5.153   1.992   1.888
   42SOD    SOD  145   5.910   5.471   4.681
   43CLA    CLA  146   0.966   5.529   2.896
   44CLA    CLA  147   5.876   5.687   0.956
   45CLA    CLA  148   2.034   5.643   0.402
   46CLA    CLA  149   6.675   4.705   4.095
   47CLA    CLA  150   2.946   0.727   2.002
   48CLA    CLA  151   2.559   1.726   2.506
   49CLA    CLA  152   0.468   1.745   2.355
   50CLA    CLA  153   5.608   0.465   4.514
   51CLA    CLA  154   6.475   3.705   4.694
   52CLA    CLA  155   1.780   3.219   3.141
   53CLA    CLA  156   0.855   4.260   0.071
   54CLA    CLA  157   4.022   3.502   2.133
   55CLA    CLA  158   1.176   0.806   1.452
   56CLA    CLA  159   6.298   5.131   4.824
   57CLA    CLA  160   2.611   4.083   0.459
   58CLA    CLA  161   3.221   2.594   3.195
   59CLA    CLA  162   0.391   4.705   2.657
   60CLA    CLA  163   2.475   0.611   4.827
   61CLA    CLA  164   5.824   3.345   0.665
   62CLA    CLA  165   5.507   2.418   2.007
   63CLA    CLA  166   6.618   2.232   3.020
   64CLA    CLA  167   5.764   0.054   0.850
   65CLA    CLA  168   5.755   0.184   4.877
   66CLA    CLA  169   1.955   0.447   3.247
   67CLA    CLA  170   6.964   1.159   0.716
   68CLA    CLA  171   6.842   1.047   2.165
   69CLA    CLA  172   5.336   1.626   2.106
   70TIP3   OH2  173   0.445   3.407   0.957
   70TIP3    H1  174   0.357   3.384   0.985
   70TIP3    H2  175   0.477   3.328   0.913
   71TIP3   OH2  176   1.418   3.571   0.303
   71TIP3    H1  177   1.397   3.621   0.224
   71TIP3    H2  178   1.406   3.634   0.374
   72TIP3   OH2  179   1.907   2.004   0.602
   72TIP3    H1  180   1.884   2.008   0.695
   72TIP3    H2  181   1.847   2.066   0.560
   73TIP3   OH2  182   4.995   2.421   3.690
   73TIP3    H1  183   5.002   2.334   3.730
   73TIP3    H2  184   4.988   2.403   3.596
   74TIP3   OH2  185   2.213   5.052   4.369
   74TIP3    H1  186   2.136   5.065   4.425
   74TIP3    H2  187   2.242   4.963   4.390
   75TIP3   OH2  188   5.982   5.570   5.095
   75TIP3    H1  189   5.936   5.489   5.120
   75TIP3    H2  190   6.060   5.570   5.150
   76TIP3   OH2  191   0.430   5.661   1.043
   76TIP3    H1  192   0.493   5.650   0.972
   76TIP3    H2  193   0.437   5.753   1.067
   77TIP3   OH2  194   4.362   2.895   4.224
   77TIP3    H1  195   4.367   2.824   4.289
   77TIP3    H2  196   4.401   2.970   4.268
   78TIP3   OH2  197   2.280   1.174   0.501
   78TIP3    H1  198   2.348   1.159   0.567
   78TIP3    H2  199   2.303   1.257   0.460
   79TIP3   OH2  200   2.244   6.302   5.342
   79TIP3    H1  201   2.187   6.287   5.417
   79TIP3    H2  202   2.288   6.218   5.329
   80TIP3   OH2  203   2.940   2.049   3.109
   80TIP3    H1  204   2.971   2.096   3.187
   80TIP3    H2  205   2.867   1.997   3.141
   81TIP3   OH2  206   5.674   2.498   3.055
   81TIP3    H1  207   5.699   2.483   2.964
   81TIP3    H2  208   5.633   2.415   3.083
   82TIP3   OH2  209   2.131   1.953   4.716
   82TIP3    H1  210   2.222   1.972   4.693
   82TIP3    H2  211   2.107   2.020   4.780
   83TIP3   OH2  212   1.045   4.574   2.075
   83TIP3    H1  213   1.119   4.514   2.076
   83TIP3    H2  214   1.029   4.591   1.982
   84TIP3   OH2  215   0.819   4.033   3.175
   84TIP3    H1  216   0.842   4.069   3.089
   84TIP3    H2  217   0.805   3.939   3.158
   85TIP3   OH2  218   1.677   1.117   4.314
   85TIP3    H1  219   1.771   1.121   4.335
   85TIP3    H2  220   1.637   1.184   4.368
   86TIP3   OH2  221   1.122   3.166   4.211
   86TIP3    H1  222   1.125   3.252   4.168
   86TIP3    H2  223   1.194   3.117   4.172
   87TIP3   OH2  224   1.657   0.725   5.782
   87TIP3    H1  225   1.648   0.820   5.787
   87TIP3    H2  226   1.579   0.691   5.828
   88TIP3   OH2  227   2.189   3.886   4.762
   88TIP3    H1  228   2.143   3.848   4.837
   88TIP3    H2  229   2.241   3.814   4.727
   89TIP3   OH2  230   7.023   3.127   3.978
   89TIP3    H1  231   7.033   3.195   4.045
   89TIP3    H2  232   6.987   3.052   4.025
   90TIP3   OH2  233   1.474   1.565   0.743
   90TIP3    H1  234   1.438   1.643   0.785
   90TIP3    H2  235   1.546   1.537   0.800
   91TIP3   OH2  236   1.455   0.570   2.294
   91TIP3    H1  237   1.472   0.631   2.366
   91TIP3    H2  238   1.362   0.580   2.275
   92TIP3   OH2  239   5.049   3.392   5.818
   92TIP3    H1  240   4.956   3.387   5.793
   92TIP3    H2  241   5.096   3.352   5.746
   93TIP3   OH2  242   0.241   5.674   4.616
   93TIP3    H1  243   0.301   5.614   4.660
   93TIP3    H2  244   0.258   5.759   4.657
   94TIP3   OH2  245   3.281   0.875   2.464
   94TIP3    H1  246   3.287   0.790   2.507
   94TIP3    H2  247   3.243   0.933   2.531
   95TIP3   OH2  248   3.475   1.386   2.076
   95TIP3    H1  249   3.392   1.432   2.084
   95TIP3    H2  250   3.455   1.310   2.022
   96TIP3   OH2  251   2.318   3.271   2.941
   96TIP3    H1  252   2.321   3.213   2.865
   96TIP3    H2  253   2.291   3.214   3.013
   97TIP3   OH2  254   1.530   1.631   1.311
   97TIP3    H1  255   1.437   1.621   1.289
   97TIP3    H2  256   1.567   1.679   1.237
   98TIP3   OH2  257   3.649   3.939   2.471
   98TIP3    H1  258   3.568   3.936   2.522
   98TIP3    H2  259   3.699   3.864   2.501
   99TIP3   OH2  260   1.531   5.678   2.457
   99TIP3    H1  261   1.554   5.630   2.377
   99TIP3    H2  262   1.601   5.743   2.465
  100TIP3   OH2  263   4.394   0.471   5.375
  100TIP3    H1  264   4.486   0.461   5.398
  100TIP3    H2  265   4.355   0.516   5.449
  101TIP3   OH2  266   2.182   0.454   0.570
  101TIP3    H1  267   2.161   0.405   0.490
  101TIP3    H2  268   2.117   0.524   0.573
  102TIP3   OH2  269   2.812   0.312   1.854
  102TIP3    H1  270   2.898   0.351   1.870
  102TIP3    H2  271   2.767   0.320   1.939
  103TIP3   OH2  272   3.291   5.078   0.534
  103TIP3    H1  273   3.252   4.992   0.519
  103TIP3    H2  274   3.248   5.135   0.470
  104TIP3   OH2  275   6.986   1.852   1.942
  104TIP3    H1  276   6.912   1.813   1.988
  104TIP3    H2  277   6.997   1.799   1.863
  105TIP3   OH2  278   3.867   0.866   1.314
  105TIP3    H1  279   3.945   0.910   1.346
  105TIP3    H2  280   3.834   0.818   1.389
  106TIP3   OH2  281   3.605   4.834   1.831
  106TIP3    H1  282   3.635   4.751   1.869
  106TIP3    H2  283   3.628   4.900   1.895
  107TIP3   OH2  284   2.579   5.349   3.737
  107TIP3    H1  285   2.658   5.327   3.687
  107TIP3    H2  286   2.558   5.269   3.786
  108TIP3   OH2  287   1.413   4.341   5.213
  108TIP3    H1  288   1.437   4.295   5.294
  108TIP3    H2  289   1.493   4.340   5.160
  109TIP3   OH2  290   6.089   1.299   0.868
  109TIP3    H1  291   6.018   1.270   0.810
  109TIP3    H2  292   6.135   1.366   0.817
  110TIP3   OH2  293   0.441   5.884   5.861
  110TIP3    H1  294   0.403   5.804   5.897
  110TIP3    H2  295   0.524   5.894   5.908
  111TIP3   OH2  296   3.718   0.018   3.193
  111TIP3    H1  297   3.690   0.109   3.204
  111TIP3    H2  298   3.648  -0.023   3.142
  112TIP3   OH2  299   5.823   1.575   2.159
  112TIP3    H1  300   5.869   1.647   2.117
  112TIP3    H2  301   5.775   1.615   2.231
  113TIP3   OH2  302   2.561   0.204   4.469
  113TIP3    H1  303   2.479   0.254   4.470
  113TIP3    H2  304   2.604   0.228   4.551
  114TIP3   OH2  305   4.147   4.637   4.741
  114TIP3    H1  306   4.115   4.569   4.682
  114TIP3    H2  307   4.242   4.625   4.742
  115TIP3   OH2  308   2.739   1.524   3.493
  115TIP3    H1  309   2.767   1.466   3.422
  115TIP3    H2  310   2.678   1.585   3.452
  116TIP3   OH2  311   6.656   3.022   4.404
  116TIP3    H1  312   6.577   3.075   4.395
  116TIP3    H2  313   6.726   3.077   4.370
  117TIP3   OH2  314   0.563   4.888   1.898
  117TIP3    H1  315   0.536   4.939   1.822
  117TIP3    H2  316   0.657   4.902   1.904
  118TIP3   OH2  317   2.780   4.974   5.229
  118TIP3    H1  318   2.726   5.012   5.160
  118TIP3    H2  319   2.738   4.891   5.250
  119TIP3   OH2  320   4.304   1.155   5.003
  119TIP3    H1  321   4.307   1.073   5.051
  119TIP3    H2  322   4.248   1.212   5.056
  120TIP3   OH2  323   7.082   3.165   0.676
  120TIP3    H1  324   7.113   3.113   0.750
  120TIP3    H2  325   7.146   3.236   0.668
  121TIP3   OH2  326   3.591   4.224   1.525
  121TIP3    H1  327   3.653   4.166   1.569
  121TIP3    H2  328   3.509   4.212   1.574
  122TIP3   OH2  329   5.304   0.746   5.575
  122TIP3    H1  330   5.370   0.771   5.510
  122TIP3    H2  331   5.353   0.697   5.641
  123TIP3   OH2  332   7.086   6.571   0.156
  123TIP3    H1  333   7.093   6.534   0.068
  123TIP3    H2  334   7.170   6.613   0.171
  124TIP3   OH2  335   4.470   3.376   2.632
  124TIP3    H1  336   4.501   3.422   2.554
  124TIP3    H2  337   4.418   3.442   2.679
  125TIP3   OH2  338   3.757   4.498   5.309
  125TIP3    H1  339   3.750   4.403   5.312
  125TIP3    H2  340   3.779   4.524   5.398
  126TIP3   OH2  341   6.643   2.998   3.650
  126TIP3    H1  342   6.638   3.034   3.738
  126TIP3    H2  343   6.584   2.923   3.650
  127TIP3   OH2  344   3.303   2.277   1.089
  127TIP3    H1  345   3.379   2.270   1.031
  127TIP3    H2  346   3.228   2.259   1.032
  128TIP3   OH2  347   1.575   1.161   2.740
  128TIP3    H1  348   1.518   1.174   2.816
  128TIP3    H2  349   1.534   1.090   2.691
  129TIP3   OH2  350   7.073   0.800   5.392
  129TIP3    H1  351   7.014   0.833   5.325
  129TIP3    H2  352   7.145   0.863   5.394
  130TIP3   OH2  353   3.417   4.488   5.776
  130TIP3    H1  354   3.325   4.514   5.787
  130TIP3    H2  355   3.413   4.393   5.765
  131TIP3   OH2  356   3.160   0.749   1.092
  131TIP3    H1  357   3.215   0.700   1.152
  131TIP3    H2  358   3.140   0.688   1.021
  132TIP3   OH2  359   7.072   1.788   5.995
  132TIP3    H1  360   7.023   1.732   6.055
  132TIP3    H2  361   7.153   1.740   5.978
  133TIP3   OH2  362   6.530   4.459   1.026
  133TIP3    H1  363   6.441   4.471   1.058
  133TIP3    H2  364   6.583   4.519   1.079
  134TIP3   OH2  365   4.059   2.921   3.770
  134TIP3    H1  366   4.115   2.997   3.753
  134TIP3    H2  367   4.084   2.892   3.857
  135TIP3   OH2  368   1.401   4.879   5.207
  135TIP3    H1  369   1.351   4.799   5.225
  135TIP3    H2  370   1.492   4.855   5.226
  136TIP3   OH2  371   1.778   2.724   2.812
  136TIP3    H1  372   1.794   2.811   2.775
  136TIP3    H2  373   1.816   2.663   2.748
  137TIP3   OH2  374   4.570   5.615   3.163
  137TIP3    H1  375   4.620   5.610   3.082
  137TIP3    H2  376   4.626   5.665   3.223
  138TIP3   OH2  377   0.156   2.639   2.006
  138TIP3    H1  378   0.068   2.666   2.033
  138TIP3    H2  379   0.213   2.665   2.078
  139TIP3   OH2  380   6.722   4.640   0.116
  139TIP3    H1  381   6.775   4.604   0.045
  139TIP3    H2  382   6.641   4.669   0.073
  140TIP3   OH2  383   4.349   4.043   2.455
  140TIP3    H1  384   4.359   4.026   2.549
  140TIP3    H2  385   4.269   3.997   2.431
  141TIP3   OH2  386   3.848   3.772   4.027
  141TIP3    H1  387   3.769   3.725   4.001
  141TIP3    H2  388   3.817   3.857   4.058
  142TIP3   OH2  389   0.652   1.713   3.034
  142TIP3    H1  390   0.599   1.787   3.064
  142TIP3    H2  391   0.738   1.750   3.019
  143TIP3   OH2  392   3.109   6.362   1.644
  143TIP3    H1  393   3.048   6.345   1.715
  143TIP3    H2  394   3.161   6.437   1.675
  144TIP3   OH2  395   4.476   3.474   4.070
  144TIP3    H1  396   4.544   3.409   4.050
  144TIP3    H2  397   4.522   3.540   4.122
  145TIP3   OH2  398   6.260   4.179   1.149
  145TIP3    H1  399   6.271   4.272   1.126
  145TIP3    H2  400   6.343   4.155   1.189
  146TIP3   OH2  401   0.914   1.548   1.543
  146TIP3    H1  402   0.932   1.514   1.630
  146TIP3    H2  403   0.852   1.487   1.504
  147TIP3   OH2  404   6.111   6.035   2.799
  147TIP3    H1  405   6.112   6.115   2.747
  147TIP3    H2  406   6.069   5.970   2.743
  148TIP3   OH2  407   4.329   2.636   5.665
  148TIP3    H1  408   4.347   2.730   5.663
  148TIP3    H2  409   4.409   2.594   5.633
  149TIP3   OH2  410   5.458   4.433   2.309
  149TIP3    H1  411   5.447   4.525   2.285
  149TIP3    H2  412   5.390   4.417   2.375
  150TIP3   OH2  413   1.264   3.315   4.700
  150TIP3    H1  414   1.276   3.319   4.795
  150TIP3    H2  415   1.342   3.268   4.669
  151TIP3   OH2  416   4.092   4.643   5.239
  151TIP3    H1  417   4.095   4.578   5.168
  151TIP3    H2  418   4.118   4.594   5.317
  152TIP3   OH2  419   4.377   0.394   1.408
  152TIP3    H1  420   4.416   0.414   1.323
  152TIP3    H2  421   4.428   0.321   1.442
  153TIP3   OH2  422   7.088   4.920   5.021
  153TIP3    H1  423   7.084   4.912   5.116
  153TIP3    H2  424   7.173   4.961   5.005
  154TIP3   OH2  425   4.114   3.164   4.959
  154TIP3    H1  426   4.084   3.099   4.895
  154TIP3    H2  427   4.083   3.248   4.925
  155TIP3   OH2  428   0.639   1.246   1.064
  155TIP3    H1  429   0.590   1.326   1.083
  155TIP3    H2  430   0.573   1.184   1.033
  156TIP3   OH2  431   1.422   4.886   2.928
  156TIP3    H1  432   1.338   4.860   2.891
  156TIP3    H2  433   1.417   4.860   3.020
  157TIP3   OH2  434   3.054   3.032   4.994
  157TIP3    H1  435   3.050   2.939   4.970
  157TIP3    H2  436   3.137   3.041   5.041
  158TIP3   OH2  437   6.465   2.846   1.087
  158TIP3    H1  438   6.378   2.882   1.069
  158TIP3    H2  439   6.520   2.922   1.103
  159TIP3   OH2  440   7.218   4.136   1.131
  159TIP3    H1  441   7.248   4.191   1.058
  159TIP3    H2  442   7.217   4.194   1.207
  160TIP3   OH2  443   5.259   6.355   3.428
  160TIP3    H1  444   5.283   6.413   3.356
  160TIP3    H2  445   5.317   6.379   3.500
  161TIP3   OH2  446   1.776   0.479   5.709
  161TIP3    H1  447   1.737   0.566   5.720
  161TIP3    H2  448   1.830   0.487   5.630
  162TIP3   OH2  449   1.209   5.961   0.171
  162TIP3    H1  450   1.256   5.950   0.254
  162TIP3    H2  451   1.127   5.913   0.184
  163TIP3   OH2  452   4.780   5.185   2.452
  163TIP3    H1  453   4.866   5.226   2.459
  163TIP3    H2  454   4.721   5.256   2.428
  164TIP3   OH2  455   2.437   4.423   2.567
  164TIP3    H1  456   2.470   4.334   2.573
  164TIP3    H2  457   2.516   4.478   2.563
  165TIP3   OH2  458   6.576   1.329   1.110
  165TIP3    H1  459   6.519   1.254   1.122
  165TIP3    H2  460   6.663   1.292   1.094
  166TIP3   OH2  461   5.109   2.010   5.336
  166TIP3    H1  462   5.116   2.053   5.251
  166TIP3    H2  463   5.180   1.946   5.337
  167TIP3   OH2  464   5.776   5.754   2.166
  167TIP3    H1  465   5.794   5.704   2.246
  167TIP3    H2  466   5.860   5.757   2.121
  168TIP3   OH2  467   4.016   6.581   1.547
  168TIP3    H1  468   4.016   6.670   1.581
  168TIP3    H2  469   4.043   6.589   1.456
  169TIP3   OH2  470   0.799   3.858   4.292
  169TIP3    H1  471   0.885   3.900   4.302
  169TIP3    H2  472   0.743   3.905   4.354
  170TIP3   OH2  473   2.282   5.261   5.719
  170TIP3    H1  474   2.340   5.228   5.788
  170TIP3    H2  475   2.317   5.224   5.638
  171TIP3   OH2  476   2.387   6.101   0.534
  171TIP3    H1  477   2.374   6.195   0.528
  171TIP3    H2  478   2.367   6.068   0.447
  172TIP3   OH2  479   5.363   1.748   2.957
  172TIP3    H1  480   5.315   1.733   3.039
  172TIP3    H2  481   5.426   1.817   2.979
  173TIP3   OH2  482   4.829   4.564   4.286
  173TIP3    H1  483   4.911   4.599   4.322
  173TIP3    H2  484   4.852   4.476   4.257
  174TIP3   OH2  485   5.697   3.016   2.766
  174TIP3    H1  486   5.723   3.041   2.678
  174TIP3    H2  487   5.703   2.920   2.767
  175TIP3   OH2  488   5.763   4.111   4.942
  175TIP3    H1  489   5.825   4.183   4.951
  175TIP3    H2  490   5.679   4.148   4.971
  176TIP3   OH2  491   0.432   0.689   1.946
  176TIP3    H1  492   0.437   0.714   2.038
  176TIP3    H2  493   0.436   0.593   1.946
  177TIP3   OH2  494   7.239   5.302   4.652
  177TIP3    H1  495   7.267   5.303   4.744
  177TIP3    H2  496   7.151   5.264   4.654
  178TIP3   OH2  497   6.082   4.720   4.455
  178TIP3    H1  498   6.045   4.753   4.374
  178TIP3    H2  499   6.177   4.725   4.441
  179TIP3   OH2  500   4.083   4.825   3.992
  179TIP3    H1  501   4.164   4.780   4.014
  179TIP3    H2  502   4.090   4.844   3.899
  180TIP3   OH2  503   1.736   1.826   0.309
  180TIP3    H1  504   1.754   1.829   0.215
  180TIP3    H2  505   1.822   1.835   0.351
  181TIP3   OH2  506   2.646   3.450   4.395
  181TIP3    H1  507   2.576   3.392   4.365
  181TIP3    H2  508   2.609   3.538   4.387
  182TIP3   OH2  509   6.952   3.376   4.169
  182TIP3    H1  510   6.924   3.466   4.155
  182TIP3    H2  511   7.044   3.374   4.142
  183TIP3   OH2  512   6.442   0.859   4.977
  183TIP3    H1  513   6.408   0.941   5.014
  183TIP3    H2  514   6.531   0.880   4.950
  184TIP3   OH2  515   3.423   4.364   5.379
  184TIP3    H1  516   3.373   4.374   5.298
  184TIP3    H2  517   3.511   4.340   5.350
  185TIP3   OH2  518   0.003   2.916   5.073
  185TIP3    H1  519   0.046   2.940   4.991
  185TIP3    H2  520   0.068   2.932   5.141
  186TIP3   OH2  521   2.177   5.875   4.000
  186TIP3    H1  522   2.263   5.841   3.977
  186TIP3    H2  523   2.193   5.929   4.077
  187TIP3   OH2  524   5.711   1.125   2.428
  187TIP3    H1  525   5.739   1.076   2.351
  187TIP3    H2  526   5.741   1.214   2.411
  188TIP3   OH2  527   5.822   6.776   3.662
  188TIP3    H1  528   5.830   6.775   3.757
  188TIP3    H2  529   5.805   6.867   3.640
  189TIP3   OH2  530   1.491   2.627   3.394
  189TIP3    H1  531   1.415   2.588   3.437
  189TIP3    H2  532   1.454   2.696   3.339
  190TIP3   OH2  533   7.077   2.583   0.833
  190TIP3    H1  534   6.987   2.605   0.858
  190TIP3    H2  535   7.107   2.658   0.783
  191TIP3   OH2  536   3.884   2.495   3.828
  191TIP3    H1  537   3.885   2.543   3.910
  191TIP3    H2  538   3.862   2.405   3.852
  192TIP3   OH2  539   0.860   1.570   4.788
  192TIP3    H1  540   0.794   1.622   4.835
  192TIP3    H2  541   0.933   1.631   4.775
  193TIP3   OH2  542   2.946   2.334   4.825
  193TIP3    H1  543   2.947   2.246   4.788
  193TIP3    H2  544   3.016   2.381   4.780
  194TIP3   OH2  545   2.983   4.767   4.641
  194TIP3    H1  546   3.056   4.748   4.699
  194TIP3    H2  547   2.917   4.700   4.662
  195TIP3   OH2  548   4.050   3.696   3.812
  195TIP3    H1  549   3.978   3.749   3.848
  195TIP3    H2  550   4.044   3.710   3.717
  196TIP3   OH2  551   7.018   5.661   0.534
  196TIP3    H1  552   7.064   5.730   0.486
  196TIP3    H2  553   7.079   5.635   0.602
  197TIP3   OH2  554   2.460   0.348   1.455
  197TIP3    H1  555   2.435   0.272   1.507
  197TIP3    H2  556   2.542   0.379   1.494
  198TIP3   OH2  557   2.481   5.375   0.927
  198TIP3    H1  558   2.565   5.405   0.960
  198TIP3    H2  559   2.419   5.444   0.952
  199TIP3   OH2  560   1.820   1.033   2.160
  199TIP3    H1  561   1.850   1.089   2.088
  199TIP3    H2  562   1.893   0.975   2.177
  200TIP3   OH2  563   6.177   4.019   3.437
  200TIP3    H1  564   6.226   3.950   3.392
  200TIP3    H2  565   6.116   3.972   3.493
  201TIP3   OH2  566   6.075   3.184   3.228
  201TIP3    H1  567   6.098   3.192   3.321
  201TIP3    H2  568   6.048   3.093   3.218
  202TIP3   OH2  569   0.807   4.959   1.809
  202TIP3    H1  570   0.823   4.940   1.717
  202TIP3    H2  571   0.886   5.003   1.839
  203TIP3   OH2  572   2.931   1.383   5.496
  203TIP3    H1  573   2.984   1.308   5.470
  203TIP3    H2  574   2.960   1.403   5.585
  204TIP3   OH2  575   1.327   3.707   2.354
  204TIP3    H1  576   1.399   3.703   2.417
  204TIP3    H2  577   1.254   3.663   2.398
  205TIP3   OH2  578   5.644   2.842   5.510
  205TIP3    H1  579   5.730   2.810   5.481
  205TIP3    H2  580   5.658   2.868   5.601
  206TIP3   OH2  581   2.441   4.843   3.177
  206TIP3    H1  582   2.362   4.818   3.223
  206TIP3    H2  583   2.469   4.763   3.131
  207TIP3   OH2  584   6.861   4.048   4.873
  207TIP3    H1  585   6.884   4.137   4.848
  207TIP3    H2  586   6.766   4.044   4.865
  208TIP3   OH2  587   1.993   1.691   0.915
  208TIP3    H1  588   2.024   1.670   1.003
  208TIP3    H2  589   2.015   1.614   0.863
  209TIP3   OH2  590   5.406   2.538   1.169
  209TIP3    H1  591   5.317   2.529   1.204
  209TIP3    H2  592   5.398   2.515   1.077
  210TIP3   OH2  593   0.588   5.638   0.813
  210TIP3    H1  594   0.683   5.628   0.808
  210TIP3    H2  595   0.554   5.575   0.749
  211TIP3   OH2  596   6.045   4.205   1.375
  211TIP3    H1  597   6.134   4.219   1.342
  211TIP3    H2  598   6.057   4.155   1.456
  212TIP3   OH2  599   2.947   0.241   0.112
  212TIP3    H1  600   2.952   0.269   0.021
  212TIP3    H2  601   3.037   0.246   0.144
  213TIP3   OH2  602   5.261   1.143   1.554
  213TIP3    H1  603   5.298   1.119   1.639
  213TIP3    H2  604   5.310   1.220   1.526
  214TIP3   OH2  605   2.322   1.924   0.059
  214TIP3    H1  606   2.275   1.958  -0.017
  214TIP3    H2  607   2.403   1.975   0.062
  215TIP3   OH2  608   7.109   2.673   1.135
  215TIP3    H1  609   7.014   2.684   1.128
  215TIP3    H2  610   7.122   2.632   1.221
  216TIP3   OH2  611   5.280   0.263   3.411
  216TIP3    H1  612   5.315   0.226   3.330
  216TIP3    H2  613   5.277   0.357   3.394
  217TIP3   OH2  614   7.187   5.775   1.508
  217TIP3    H1  615   7.257   5.796   1.570
  217TIP3    H2  616   7.229   5.717   1.444
  218TIP3   OH2  617   5.595   1.383   0.557
  218TIP3    H1  618   5.577   1.475   0.577
  218TIP3    H2  619   5.512   1.349   0.524
  219TIP3   OH2  620   6.634   2.073   5.668
  219TIP3    H1  621   6.727   2.061   5.647
  219TIP3    H2  622   6.632   2.085   5.763
  220TIP3   OH2  623   6.929   2.701   1.804
  220TIP3    H1  624   6.936   2.722   1.711
  220TIP3    H2  625   6.863   2.761   1.837
  221TIP3   OH2  626   0.240   6.445   1.667
  221TIP3    H1  627   0.322   6.459   1.619
  221TIP3    H2  628   0.203   6.365   1.630
  222TIP3   OH2  629   3.654   0.288   3.173
  222TIP3    H1  630   3.658   0.320   3.263
  222TIP3    H2  631   3.610   0.359   3.125
  223TIP3   OH2  632   4.441   5.748   5.597
  223TIP3    H1  633   4.458   5.825   5.542
  223TIP3    H2  634   4.379   5.778   5.663
  224TIP3   OH2  635   6.755   3.597   3.407
  224TIP3    H1  636   6.699   3.583   3.483
  224TIP3    H2  637   6.781   3.689   3.414
  225TIP3   OH2  638   6.661   6.321   1.461
  225TIP3    H1  639   6.619   6.407   1.455
  225TIP3    H2  640   6.722   6.319   1.387
  226TIP3   OH2  641   2.227   5.011   1.332
  226TIP3    H1  642   2.289   5.064   1.282
  226TIP3    H2  643   2.151   5.002   1.275
  227TIP3   OH2  644   1.193   0.830   4.201
  227TIP3    H1  645   1.267   0.782   4.237
  227TIP3    H2  646   1.226   0.919   4.188
  228TIP3   OH2  647   5.324   2.884   5.030
  228TIP3    H1  648   5.387   2.949   5.060
  228TIP3    H2  649   5.258   2.880   5.100
  229TIP3   OH2  650   1.507   1.689   5.398
  229TIP3    H1  651   1.484   1.606   5.357
  229TIP3    H2  652   1.562   1.665   5.473
  230TIP3   OH2  653   5.056   2.569   4.588
  230TIP3    H1  654   5.091   2.643   4.540
  230TIP3    H2  655   4.961   2.583   4.589
  231TIP3   OH2  656   1.474   5.259   0.847
  231TIP3    H1  657   1.456   5.286   0.938
  231TIP3    H2  658   1.524   5.332   0.810
  232TIP3   OH2  659   4.262   5.926   0.459
  232TIP3    H1  660   4.247   5.862   0.390
  232TIP3    H2  661   4.184   5.920   0.515
  233TIP3   OH2  662   1.076   0.469   4.476
  233TIP3    H1  663   0.995   0.418   4.478
  233TIP3    H2  664   1.095   0.481   4.383
  234TIP3   OH2  665   3.257   0.972   5.316
  234TIP3    H1  666   3.328   0.918   5.352
  234TIP3    H2  667   3.190   0.909   5.291
  235TIP3   OH2  668   2.960   6.566   0.864
  235TIP3    H1  669   2.874   6.597   0.893
  235TIP3    H2  670   2.943   6.479   0.828
  236TIP3   OH2  671   4.735   4.051   3.562
  236TIP3    H1  672   4.793   4.014   3.496
  236TIP3    H2  673   4.699   3.974   3.608
  237TIP3   OH2  674   6.154   3.000   1.672
  237TIP3    H1  675   6.106   3.082   1.686
  237TIP3    H2  676   6.236   3.012   1.720
  238TIP3   OH2  677   2.184   1.044   5.382
  238TIP3    H1  678   2.135   1.117   5.344
  238TIP3    H2  679   2.205   1.074   5.471
  239TIP3   OH2  680   3.364   3.576   0.698
  239TIP3    H1  681   3.272   3.550   0.704
  239TIP3    H2  682   3.382   3.580   0.604
  240TIP3   OH2  683   2.500   3.113   4.874
  240TIP3    H1  684   2.487   3.207   4.886
  240TIP3    H2  685   2.504   3.102   4.779
  241TIP3   OH2  686   3.058   0.443   1.945
  241TIP3    H1  687   3.019   0.530   1.951
  241TIP3    H2  688   3.149   0.458   1.921
  242TIP3   OH2  689   5.301   1.455   3.948
  242TIP3    H1  690   5.363   1.418   4.011
  242TIP3    H2  691   5.227   1.483   4.001
  243TIP3   OH2  692   1.069   2.967   5.079
  243TIP3    H1  693   1.049   2.874   5.071
  243TIP3    H2  694   1.160   2.969   5.108
  244TIP3   OH2  695   0.491   3.714   1.811
  244TIP3    H1  696   0.515   3.623   1.790
  244TIP3    H2  697   0.445   3.707   1.895
  245TIP3   OH2  698   3.139   6.179   3.880
  245TIP3    H1  699   3.059   6.220   3.914
  245TIP3    H2  700   3.110   6.095   3.845
  246TIP3   OH2  701   1.125   6.110   3.713
  246TIP3    H1  702   1.185   6.163   3.766
  246TIP3    H2  703   1.181   6.046   3.670
  247TIP3   OH2  704   1.395   5.663   5.200
  247TIP3    H1  705   1.488   5.658   5.178
  247TIP3    H2  706   1.377   5.757   5.208
  248TIP3   OH2  707   1.885   1.386   3.879
  248TIP3    H1  708   1.876   1.465   3.826
  248TIP3    H2  709   1.975   1.391   3.912
  249TIP3   OH2  710   0.801   3.717   5.087
  249TIP3    H1  711   0.716   3.708   5.044
  249TIP3    H2  712   0.830   3.806   5.065
  250TIP3   OH2  713   0.643   6.620   1.762
  250TIP3    H1  714   0.737   6.617   1.743
  250TIP3    H2  715   0.621   6.530   1.786
  251TIP3   OH2  716   0.285   5.192   0.367
  251TIP3    H1  717   0.221   5.249   0.325
  251TIP3    H2  718   0.248   5.173   0.453
  252TIP3   OH2  719   6.992   2.519   2.698
  252TIP3    H1  720   7.009   2.488   2.609
  252TIP3    H2  721   6.918   2.580   2.688
  253TIP3   OH2  722   2.991   5.485   5.779
  253TIP3    H1  723   2.991   5.483   5.874
  253TIP3    H2  724   3.033   5.567   5.756
  254TIP3   OH2  725   5.658   1.157   1.381
  254TIP3    H1  726   5.663   1.118   1.293
  254TIP3    H2  727   5.749   1.167   1.408
  255TIP3   OH2  728   2.473   3.192   5.801
  255TIP3    H1  729   2.535   3.122   5.782
  255TIP3    H2  730   2.446   3.178   5.892
  256TIP3   OH2  731   4.432   0.030   5.686
  256TIP3    H1  732   4.415  -0.018   5.605
  256TIP3    H2  733   4.464  -0.037   5.747
  257TIP3   OH2  734   3.650   6.741   1.210
  257TIP3    H1  735   3.575   6.691   1.178
  257TIP3    H2  736   3.613   6.825   1.237
  258TIP3   OH2  737   2.964   6.284   4.185
  258TIP3    H1  738   2.933   6.373   4.171
  258TIP3    H2  739   2.901   6.229   4.139
  259TIP3   OH2  740   3.106   1.552   5.027
  259TIP3    H1  741   3.084   1.516   4.941
  259TIP3    H2  742   3.164   1.626   5.009
  260TIP3   OH2  743   5.877   4.770   3.965
  260TIP3    H1  744   5.950   4.789   3.906
  260TIP3    H2  745   5.817   4.845   3.953
  261TIP3   OH2  746   4.213   5.661   4.718
  261TIP3    H1  747   4.300   5.624   4.733
  261TIP3    H2  748   4.171   5.660   4.804
  262TIP3   OH2  749   6.159   1.497   1.662
  262TIP3    H1  750   6.179   1.591   1.657
  262TIP3    H2  751   6.174   1.464   1.573
  263TIP3   OH2  752   4.667   5.104   5.406
  263TIP3    H1  753   4.667   5.010   5.388
  263TIP3    H2  754   4.630   5.111   5.495
  264TIP3   OH2  755   4.579   2.552   0.729
  264TIP3    H1  756   4.589   2.557   0.824
  264TIP3    H2  757   4.617   2.633   0.697
  265TIP3   OH2  758   0.456   2.765   4.723
  265TIP3    H1  759   0.539   2.724   4.699
  265TIP3    H2  760   0.439   2.735   4.812
  266TIP3   OH2  761   4.512   2.438   4.763
  266TIP3    H1  762   4.554   2.461   4.846
  266TIP3    H2  763   4.443   2.503   4.752
  267TIP3   OH2  764   2.460   6.423   3.014
  267TIP3    H1  765   2.400   6.446   3.085
  267TIP3    H2  766   2.540   6.396   3.058
  268TIP3   OH2  767   2.183   6.651   2.817
  268TIP3    H1  768   2.149   6.604   2.893
  268TIP3    H2  769   2.108   6.702   2.784
  269TIP3   OH2  770   1.622   2.930   2.550
  269TIP3    H1  771   1.538   2.895   2.578
  269TIP3    H2  772   1.605   3.023   2.536
  270TIP3   OH2  773   4.991   3.344   2.295
  270TIP3    H1  774   5.004   3.439   2.299
  270TIP3    H2  775   4.898   3.332   2.317
  271TIP3   OH2  776   2.801   2.620   3.149
  271TIP3    H1  777   2.708   2.625   3.173
  271TIP3    H2  778   2.811   2.534   3.109
  272TIP3   OH2  779   2.728   3.974   0.948
  272TIP3    H1  780   2.741   3.941   0.858
  272TIP3    H2  781   2.655   4.035   0.940
  273TIP3   OH2  782   4.311   0.058   0.475
  273TIP3    H1  783   4.250  -0.015   0.469
  273TIP3    H2  784   4.337   0.060   0.567
  274TIP3   OH2  785   3.105   5.760   3.062
  274TIP3    H1  786   3.065   5.845   3.076
  274TIP3    H2  787   3.032   5.699   3.055
  275TIP3   OH2  788   0.098   5.519   3.691
  275TIP3    H1  789   0.117   5.524   3.597
  275TIP3    H2  790   0.182   5.536   3.733
  276TIP3   OH2  791   1.939   2.589   1.818
  276TIP3    H1  792   1.845   2.594   1.803
  276TIP3    H2  793   1.970   2.678   1.801
  277TIP3   OH2  794   2.883   0.735   4.499
  277TIP3    H1  795   2.926   0.674   4.438
  277TIP3    H2  796   2.955   0.767   4.554
  278TIP3   OH2  797   2.691   1.838   1.423
  278TIP3    H1  798   2.776   1.881   1.435
  278TIP3    H2  799   2.626   1.903   1.448
  279TIP3   OH2  800   1.085   3.139   1.675
  279TIP3    H1  801   1.086   3.198   1.600
  279TIP3    H2  802   1.163   3.163   1.726
  280TIP3   OH2  803   2.572   3.483   2.253
  280TIP3    H1  804   2.622   3.409   2.218
  280TIP3    H2  805   2.635   3.554   2.258
  281TIP3   OH2  806   2.557   5.781   2.889
  281TIP3    H1  807   2.632   5.733   2.923
  281TIP3    H2  808   2.577   5.873   2.907
  282TIP3   OH2  809   5.759   2.423   2.817
  282TIP3    H1  810   5.850   2.400   2.837
  282TIP3    H2  811   5.755   2.426   2.722
  283TIP3   OH2  812   4.357   4.749   0.023
  283TIP3    H1  813   4.307   4.830   0.008
  283TIP3    H2  814   4.441   4.779   0.059
  284TIP3   OH2  815   5.345   3.889   3.030
  284TIP3    H1  816   5.355   3.795   3.017
  284TIP3    H2  817   5.408   3.911   3.098
  285TIP3   OH2  818   6.722   2.324   4.192
  285TIP3    H1  819   6.754   2.414   4.183
  285TIP3    H2  820   6.668   2.310   4.115
  286TIP3   OH2  821   6.686   0.920   3.533
  286TIP3    H1  822   6.681   0.838   3.582
  286TIP3    H2  823   6.636   0.983   3.586
  287TIP3   OH2  824   4.390   3.152   3.023
  287TIP3    H1  825   4.451   3.131   2.952
  287TIP3    H2  826   4.322   3.204   2.981
  288TIP3   OH2  827   7.040   3.354   2.098
  288TIP3    H1  828   6.992   3.395   2.170
  288TIP3    H2  829   6.972   3.320   2.040
  289TIP3   OH2  830   2.525   6.784   3.704
  289TIP3    H1  831   2.472   6.741   3.637
  289TIP3    H2  832   2.597   6.723   3.719
  290TIP3   OH2  833   6.575   5.212   3.134
  290TIP3    H1  834   6.503   5.238   3.192
  290TIP3    H2  835   6.578   5.281   3.068
  291TIP3   OH2  836   0.598   2.113   4.825
  291TIP3    H1  837   0.571   2.200   4.795
  291TIP3    H2  838   0.517   2.073   4.856
  292TIP3   OH2  839   5.126   5.895   3.747
  292TIP3    H1  840   5.192   5.958   3.718
  292TIP3    H2  841   5.171   5.811   3.750
  293TIP3   OH2  842   1.702   3.783   3.048
  293TIP3    H1  843   1.784   3.749   3.011
  293TIP3    H2  844   1.638   3.771   2.979
  294TIP3   OH2  845   4.443   1.476   2.483
  294TIP3    H1  846   4.491   1.477   2.400
  294TIP3    H2  847   4.361   1.522   2.463
  295TIP3   OH2  848   5.333   4.459   2.863
  295TIP3    H1  849   5.345   4.364   2.870
  295TIP3    H2  850   5.326   4.489   2.954
  296TIP3   OH2  851   4.594   0.655   3.065
  296TIP3    H1  852   4.586   0.561   3.084
  296TIP3    H2  853   4.556   0.664   2.977
  297TIP3   OH2  854   5.148   5.390   1.154
  297TIP3    H1  855   5.127   5.310   1.105
  297TIP3    H2  856   5.224   5.368   1.206
  298TIP3   OH2  857   0.913   3.554   3.116
  298TIP3    H1  858   0.947   3.643   3.123
  298TIP3    H2  859   0.834   3.554   3.172
  299TIP3   OH2  860   4.291   5.652   3.498
  299TIP3    H1  861   4.260   5.584   3.438
  299TIP3    H2  862   4.380   5.625   3.521
  300TIP3   OH2  863   0.945   4.738   1.316
  300TIP3    H1  864   0.976   4.660   1.362
  300TIP3    H2  865   0.866   4.764   1.362
  301TIP3   OH2  866   3.961   5.125   3.440
  301TIP3    H1  867   3.928   5.039   3.413
  301TIP3    H2  868   3.935   5.133   3.532
  302TIP3   OH2  869   5.719   3.990   5.414
  302TIP3    H1  870   5.701   4.002   5.507
  302TIP3    H2  871   5.712   4.077   5.376
  303TIP3   OH2  872   0.060   3.921   2.455
  303TIP3    H1  873   0.024   3.927   2.544
  303TIP3    H2  874   0.071   4.012   2.428
  304TIP3   OH2  875   1.427   6.543   2.528
  304TIP3    H1  876   1.488   6.517   2.598
  304TIP3    H2  877   1.383   6.461   2.504
  305TIP3   OH2  878   5.323   1.040   3.663
  305TIP3    H1  879   5.250   0.988   3.629
  305TIP3    H2  880   5.281   1.119   3.698
  306TIP3   OH2  881   4.861   2.566   3.891
  306TIP3    H1  882   4.823   2.515   3.962
  306TIP3    H2  883   4.910   2.503   3.839
  307TIP3   OH2  884   6.771   5.099   0.804
  307TIP3    H1  885   6.817   5.166   0.753
  307TIP3    H2  886   6.814   5.017   0.782
  308TIP3   OH2  887   0.032   1.759   1.038
  308TIP3    H1  888   0.118   1.724   1.062
  308TIP3    H2  889   0.039   1.777   0.944
  309TIP3   OH2  890   5.285   0.496   4.563
  309TIP3    H1  891   5.241   0.451   4.635
  309TIP3    H2  892   5.368   0.450   4.553
  310TIP3   OH2  893   0.405   5.362   2.346
  310TIP3    H1  894   0.388   5.456   2.341
  310TIP3    H2  895   0.332   5.322   2.299
  311TIP3   OH2  896   5.807   1.650   0.306
  311TIP3    H1  897   5.808   1.596   0.386
  311TIP3    H2  898   5.891   1.696   0.308
  312TIP3   OH2  899   1.913   1.215   1.376
  312TIP3    H1  900   1.988   1.168   1.341
  312TIP3    H2  901   1.916   1.199   1.470
  313TIP3   OH2  902   6.457   1.823   2.011
  313TIP3    H1  903   6.425   1.771   2.085
  313TIP3    H2  904   6.487   1.758   1.948
  314TIP3   OH2  905   4.739   4.686   3.674
  314TIP3    H1  906   4.704   4.611   3.722
  314TIP3    H2  907   4.705   4.763   3.720
  315TIP3   OH2  908   5.442   2.307   2.833
  315TIP3    H1  909   5.453   2.316   2.738
  315TIP3    H2  910   5.365   2.360   2.853
  316TIP3   OH2  911   5.095   1.771   2.294
  316TIP3    H1  912   5.137   1.843   2.341
  316TIP3    H2  913   5.169   1.720   2.258
  317TIP3   OH2  914   0.036   0.634   1.565
  317TIP3    H1  915   0.033   0.668   1.655
  317TIP3    H2  916   0.098   0.692   1.520
  318TIP3   OH2  917   0.085   4.592   5.031
  318TIP3    H1  918   0.064   4.681   5.003
  318TIP3    H2  919   0.109   4.601   5.124
  319TIP3   OH2  920   4.633   0.254   1.336
  319TIP3    H1  921   4.676   0.270   1.420
  319TIP3    H2  922   4.647   0.161   1.319
  320TIP3   OH2  923   2.519   1.408   3.658
  320TIP3    H1  924   2.601   1.420   3.612
  320TIP3    H2  925   2.459   1.472   3.618
  321TIP3   OH2  926   4.039   0.699   3.770
  321TIP3    H1  927   4.122   0.667   3.805
  321TIP3    H2  928   4.031   0.657   3.684
  322TIP3   OH2  929   3.578   2.006   5.316
  322TIP3    H1  930   3.553   2.099   5.318
  322TIP3    H2  931   3.506   1.963   5.271
  323TIP3   OH2  932   6.992   1.508   0.469
  323TIP3    H1  933   6.962   1.590   0.431
  323TIP3    H2  934   6.930   1.443   0.437
  324TIP3   OH2  935   5.809   1.856   5.432
  324TIP3    H1  936   5.856   1.881   5.352
  324TIP3    H2  937   5.770   1.772   5.411
  325TIP3   OH2  938   1.489   1.156   0.304
  325TIP3    H1  939   1.482   1.111   0.220
  325TIP3    H2  940   1.486   1.086   0.369
  326TIP3   OH2  941   2.315   0.787   5.288
  326TIP3    H1  942   2.265   0.755   5.213
  326TIP3    H2  943   2.276   0.872   5.307
  327TIP3   OH2  944   2.906   0.519   0.049
  327TIP3    H1  945   2.831   0.472   0.013
  327TIP3    H2  946   2.871   0.605   0.075
  328TIP3   OH2  947   2.215   5.369   3.371
  328TIP3    H1  948   2.158   5.438   3.338
  328TIP3    H2  949   2.247   5.325   3.291
  329TIP3   OH2  950   0.072   1.568   0.235
  329TIP3    H1  951   0.054   1.581   0.328
  329TIP3    H2  952   0.015   1.495   0.210
  330TIP3   OH2  953   3.628   4.730   0.821
  330TIP3    H1  954   3.702   4.781   0.787
  330TIP3    H2  955   3.567   4.725   0.747
  331TIP3   OH2  956   0.555   4.878   2.185
  331TIP3    H1  957   0.523   4.873   2.095
  331TIP3    H2  958   0.486   4.837   2.238
  332TIP3   OH2  959   4.438   1.085   5.267
  332TIP3    H1  960   4.466   1.007   5.219
  332TIP3    H2  961   4.474   1.158   5.216
  333TIP3   OH2  962   6.350   3.456   1.575
  333TIP3    H1  963   6.367   3.538   1.528
  333TIP3    H2  964   6.389   3.469   1.661
  334TIP3   OH2  965   2.266   4.054   1.213
  334TIP3    H1  966   2.327   4.114   1.256
  334TIP3    H2  967   2.322   3.993   1.164
  335TIP3   OH2  968   3.434   4.257   3.814
  335TIP3    H1  969   3.418   4.243   3.721
  335TIP3    H2  970   3.352   4.291   3.849
  336TIP3   OH2  971   0.212   0.783   3.046
  336TIP3    H1  972   0.208   0.698   3.002
  336TIP3    H2  973   0.306   0.803   3.051
  337TIP3   OH2  974   0.453   1.142   3.178
  337TIP3    H1  975   0.417   1.089   3.249
  337TIP3    H2  976   0.410   1.227   3.186
  338TIP3   OH2  977   5.258   3.587   0.011
  338TIP3    H1  978   5.342   3.549  -0.012
  338TIP3    H2  979   5.199   3.512   0.018
  339TIP3   OH2  980   4.030   1.986   4.690
  339TIP3    H1  981   4.064   1.981   4.779
  339TIP3    H2  982   4.106   1.971   4.634
  340TIP3   OH2  983   2.362   5.819   4.250
  340TIP3    H1  984   2.322   5.738   4.282
  340TIP3    H2  985   2.302   5.888   4.276
  341TIP3   OH2  986   5.422   5.567   1.630
  341TIP3    H1  987   5.478   5.577   1.552
  341TIP3    H2  988   5.373   5.649   1.635
  342TIP3   OH2  989   1.723   4.393   0.321
  342TIP3    H1  990   1.792   4.342   0.363
  342TIP3    H2  991   1.668   4.424   0.393
  343TIP3   OH2  992   4.494   5.092   2.929
  343TIP3    H1  993   4.427   5.150   2.892
  343TIP3    H2  994   4.486   5.011   2.878
  344TIP3   OH2  995   3.572   6.577   1.802
  344TIP3    H1  996   3.665   6.562   1.789
  344TIP3    H2  997   3.529   6.520   1.738
  345TIP3   OH2  998   6.753   3.629   1.292
  345TIP3    H1  999   6.799   3.574   1.355
  345TIP3    H2 1000   6.666   3.591   1.286
  346TIP3   OH2 1001   3.877   3.192   2.592
  346TIP3    H1 1002   3.957   3.242   2.605
  346TIP3    H2 1003   3.893   3.108   2.636
  347TIP3   OH2 1004   0.284   1.301   1.288
  347TIP3    H1 1005   0.345   1.333   1.222
  347TIP3    H2 1006   0.221   1.372   1.298
  348TIP3   OH2 1007   0.305   3.868   0.411
  348TIP3    H1 1008   0.394   3.902   0.409
  348TIP3    H2 1009   0.283   3.863   0.504
  349TIP3   OH2 1010   3.870   1.502   3.631
  349TIP3    H1 1011   3.817   1.568   3.675
  349TIP3    H2 1012   3.840   1.419   3.669
  350TIP3   OH2 1013   5.184   3.151   0.778
  350TIP3    H1 1014   5.217   3.083   0.836
  350TIP3    H2 1015   5.262   3.199   0.751
  351TIP3   OH2 1016   6.513   6.324   3.240
  351TIP3    H1 1017   6.441   6.301   3.181
  351TIP3    H2 1018   6.555   6.240   3.261
  352TIP3   OH2 1019   3.897   2.962   1.095
  352TIP3    H1 1020   3.903   2.917   1.179
  352TIP3    H2 1021   3.824   3.023   1.106
  353TIP3   OH2 1022   7.012   3.115   1.215
  353TIP3    H1 1023   6.986   3.173   1.143
  353TIP3    H2 1024   7.016   3.028   1.175
  354TIP3   OH2 1025   2.122   3.487   2.537
  354TIP3    H1 1026   2.115   3.581   2.522
  354TIP3    H2 1027   2.094   3.475   2.628
  355TIP3   OH2 1028   4.025   2.022   3.366
  355TIP3    H1 1029   4.084   1.952   3.393
  355TIP3    H2 1030   3.939   1.995   3.400
  356TIP3   OH2 1031   4.482   1.234   4.292
  356TIP3    H1 1032   4.459   1.155   4.340
  356TIP3    H2 1033   4.485   1.206   4.201
  357TIP3   OH2 1034   1.654   5.177   5.418
  357TIP3    H1 1035   1.749   5.163   5.423
  357TIP3    H2 1036   1.616   5.096   5.452
  358TIP3   OH2 1037   2.256   1.653   2.602
  358TIP3    H1 1038   2.221   1.719   2.663
  358TIP3    H2 1039   2.351   1.667   2.605
  359TIP3   OH2 1040   3.971   0.451   3.277
  359TIP3    H1 1041   3.890   0.485   3.240
  359TIP3    H2 1042   3.952   0.360   3.299
  360TIP3   OH2 1043   4.559   6.615   3.303
  360TIP3    H1 1044   4.514   6.531   3.307
  360TIP3    H2 1045   4.494   6.679   3.333
  361TIP3   OH2 1046   1.591   0.464   4.247
  361TIP3    H1 1047   1.637   0.390   4.207
  361TIP3    H2 1048   1.639   0.480   4.328
  362TIP3   OH2 1049   4.877   1.264   5.695
  362TIP3    H1 1050   4.971   1.277   5.705
  362TIP3    H2 1051   4.868   1.205   5.621
  363TIP3   OH2 1052   6.226   1.670   4.909
  363TIP3    H1 1053   6.150   1.612   4.916
  363TIP3    H2 1054   6.255   1.663   4.818
  364TIP3   OH2 1055   1.241   4.790   0.244
  364TIP3    H1 1056   1.294   4.823   0.317
  364TIP3    H2 1057   1.167   4.850   0.240
  365TIP3   OH2 1058   6.633   4.571   2.485
  365TIP3    H1 1059   6.722   4.552   2.455
  365TIP3    H2 1060   6.592   4.484   2.495
  366TIP3   OH2 1061   5.998   2.629   2.536
  366TIP3    H1 1062   6.058   2.660   2.468
  366TIP3    H2 1063   6.055   2.600   2.607
  367TIP3   OH2 1064   5.998   0.750   1.950
  367TIP3    H1 1065   5.947   0.817   1.904
  367TIP3    H2 1066   6.072   0.733   1.892
  368TIP3   OH2 1067   0.414   3.525   3.265
  368TIP3    H1 1068   0.335   3.561   3.305
  368TIP3    H2 1069   0.384   3.449   3.216
  369TIP3   OH2 1070   4.051   6.222   0.972
  369TIP3    H1 1071   4.063   6.262   1.058
  369TIP3    H2 1072   4.116   6.152   0.968
  370TIP3   OH2 1073   6.251   0.164   4.709
  370TIP3    H1 1074   6.266   0.226   4.638
  370TIP3    H2 1075   6.166   0.125   4.691
  371TIP3   OH2 1076   7.143   6.130   0.745
  371TIP3    H1 1077   7.215   6.178   0.704
  371TIP3    H2 1078   7.087   6.105   0.671
  372TIP3   OH2 1079   4.868   5.121   1.063
  372TIP3    H1 1080   4.794   5.158   1.014
  372TIP3    H2 1081   4.858   5.156   1.151
  373TIP3   OH2 1082   4.283   5.841   3.778
  373TIP3    H1 1083   4.353   5.901   3.752
  373TIP3    H2 1084   4.326   5.756   3.786
  374TIP3   OH2 1085   1.710   1.633   0.972
  374TIP3    H1 1086   1.696   1.713   1.021
  374TIP3    H2 1087   1.801   1.638   0.942
  375TIP3   OH2 1088   1.311   4.787   3.508
  375TIP3    H1 1089   1.229   4.825   3.542
  375TIP3    H2 1090   1.330   4.838   3.430
  376TIP3   OH2 1091   4.154   6.392   5.224
  376TIP3    H1 1092   4.207   6.314   5.237
  376TIP3    H2 1093   4.184   6.428   5.141
  377TIP3   OH2 1094   3.427   0.597   5.639
  377TIP3    H1 1095   3.381   0.645   5.570
  377TIP3    H2 1096   3.505   0.649   5.657
  378TIP3   OH2 1097   4.132   6.819   4.745
  378TIP3    H1 1098   4.061   6.793   4.685
  378TIP3    H2 1099   4.188   6.742   4.751
  379TIP3   OH2 1100   3.000   0.562   3.834
  379TIP3    H1 1101   3.067   0.518   3.886
  379TIP3    H2 1102   3.045   0.590   3.755
  380TIP3   OH2 1103   5.537   1.912   1.368
  380TIP3    H1 1104   5.593   1.837   1.350
  380TIP3    H2 1105   5.499   1.894   1.454
  381TIP3   OH2 1106   6.032   3.425   1.157
  381TIP3    H1 1107   5.940   3.409   1.135
  381TIP3    H2 1108   6.059   3.494   1.096
  382TIP3   OH2 1109   1.966   2.425   2.904
  382TIP3    H1 1110   1.901   2.375   2.952
  382TIP3    H2 1111   2.022   2.464   2.971
  383TIP3   OH2 1112   1.932   6.053   1.256
  383TIP3    H1 1113   2.026   6.066   1.248
  383TIP3    H2 1114   1.922   5.976   1.312
  384TIP3   OH2 1115   4.247   5.620   3.989
  384TIP3    H1 1116   4.287   5.602   3.904
  384TIP3    H2 1117   4.321   5.645   4.045
  385TIP3   OH2 1118   6.262   5.795   0.172
  385TIP3    H1 1119   6.353   5.788   0.144
  385TIP3    H2 1120   6.255   5.735   0.246
  386TIP3   OH2 1121   0.121   3.920   4.256
  386TIP3    H1 1122   0.083   4.007   4.241
  386TIP3    H2 1123   0.049   3.859   4.241
  387TIP3   OH2 1124   2.717   6.709   3.438
  387TIP3    H1 1125   2.708   6.786   3.382
  387TIP3    H2 1126   2.627   6.683   3.459
  388TIP3   OH2 1127   3.025   1.213   3.499
  388TIP3    H1 1128   3.092   1.188   3.435
  388TIP3    H2 1129   2.957   1.257   3.447
  389TIP3   OH2 1130   2.426   2.622   5.340
  389TIP3    H1 1131   2.355   2.659   5.288
  389TIP3    H2 1132   2.387   2.545   5.383
  390TIP3   OH2 1133   5.409   2.518   0.567
  390TIP3    H1 1134   5.358   2.578   0.513
  390TIP3    H2 1135   5.362   2.515   0.651
  391TIP3   OH2 1136   2.508   5.844   5.332
  391TIP3    H1 1137   2.525   5.783   5.403
  391TIP3    H2 1138   2.595   5.865   5.297
  392TIP3   OH2 1139   3.907   5.648   1.295
  392TIP3    H1 1140   3.869   5.580   1.351
  392TIP3    H2 1141   3.989   5.610   1.264
  393TIP3   OH2 1142   0.084   5.545   3.375
  393TIP3    H1 1143   0.067   5.635   3.404
  393TIP3    H2 1144   0.058   5.544   3.283
  394TIP3   OH2 1145   1.779   2.948   3.682
  394TIP3    H1 1146   1.761   2.893   3.606
  394TIP3    H2 1147   1.837   3.016   3.650
  395TIP3   OH2 1148   0.504   2.739   1.280
  395TIP3    H1 1149   0.469   2.674   1.341
  395TIP3    H2 1150   0.440   2.741   1.209
  396TIP3   OH2 1151   1.867   2.602   5.011
  396TIP3    H1 1152   1.800   2.540   4.980
  396TIP3    H2 1153   1.932   2.547   5.055
  397TIP3   OH2 1154   1.104   0.933   1.719
  397TIP3    H1 1155   1.179   0.916   1.776
  397TIP3    H2 1156   1.126   0.888   1.637
  398TIP3   OH2 1157   5.359   3.691   1.253
  398TIP3    H1 1158   5.289   3.647   1.302
  398TIP3    H2 1159   5.376   3.632   1.180
  399TIP3   OH2 1160   6.890   1.280   4.332
  399TIP3    H1 1161   6.868   1.237   4.250
  399TIP3    H2 1162   6.904   1.372   4.308
  400TIP3   OH2 1163   4.040   5.905   0.030
  400TIP3    H1 1164   4.068   5.971  -0.033
  400TIP3    H2 1165   4.112   5.899   0.093
  401TIP3   OH2 1166   6.784   1.228   1.615
  401TIP3    H1 1167   6.766   1.318   1.588
  401TIP3    H2 1168   6.798   1.181   1.533
  402TIP3   OH2 1169   4.179   0.729   4.047
  402TIP3    H1 1170   4.112   0.798   4.045
  402TIP3    H2 1171   4.259   0.775   4.072
  403TIP3   OH2 1172   4.073   1.186   0.294
  403TIP3    H1 1173   4.140   1.242   0.255
  403TIP3    H2 1174   4.061   1.220   0.383
  404TIP3   OH2 1175   6.663   2.910   2.143
  404TIP3    H1 1176   6.585   2.929   2.195
  404TIP3    H2 1177   6.735   2.949   2.192
  405TIP3   OH2 1178   0.968   2.263   1.922
  405TIP3    H1 1179   0.929   2.264   2.009
  405TIP3    H2 1180   0.914   2.202   1.872
  406TIP3   OH2 1181   4.130   0.674   4.665
  406TIP3    H1 1182   4.179   0.659   4.584
  406TIP3    H2 1183   4.039   0.683   4.637
  407TIP3   OH2 1184   0.118   4.489   3.564
  407TIP3    H1 1185   0.035   4.527   3.533
  407TIP3    H2 1186   0.157   4.557   3.618
  408TIP3   OH2 1187   1.082   3.975   3.323
  408TIP3    H1 1188   1.024   3.900   3.307
  408TIP3    H2 1189   1.127   3.989   3.240
  409TIP3   OH2 1190   3.767   2.349   0.292
  409TIP3    H1 1191   3.713   2.350   0.371
  409TIP3    H2 1192   3.853   2.377   0.321
  410TIP3   OH2 1193   2.018   4.302   2.891
  410TIP3    H1 1194   1.956   4.309   2.818
  410TIP3    H2 1195   2.104   4.307   2.851
  411TIP3   OH2 1196   2.318   1.888   5.607
  411TIP3    H1 1197   2.412   1.880   5.592
  411TIP3    H2 1198   2.280   1.813   5.560
  412TIP3   OH2 1199   2.724   5.338   4.337
  412TIP3    H1 1200   2.683   5.309   4.256
  412TIP3    H2 1201   2.657   5.393   4.379
  413TIP3   OH2 1202   4.617   6.014   0.616
  413TIP3    H1 1203   4.587   5.940   0.669
  413TIP3    H2 1204   4.696   5.981   0.572
  414TIP3   OH2 1205   4.929   4.819   1.071
  414TIP3    H1 1206   4.874   4.741   1.079
  414TIP3    H2 1207   4.869   4.891   1.092
  415TIP3   OH2 1208   1.412   5.369   2.751
  415TIP3    H1 1209   1.412   5.283   2.794
  415TIP3    H2 1210   1.348   5.420   2.801
  416TIP3   OH2 1211   1.876   4.282   1.553
  416TIP3    H1 1212   1.969   4.284   1.530
  416TIP3    H2 1213   1.854   4.188   1.556
  417TIP3   OH2 1214   6.821   2.585   2.467
  417TIP3    H1 1215   6.775   2.613   2.546
  417TIP3    H2 1216   6.774   2.627   2.396
  418TIP3   OH2 1217   3.084   5.923   0.793
  418TIP3    H1 1218   3.140   5.959   0.725
  418TIP3    H2 1219   3.031   5.857   0.748
  419TIP3   OH2 1220   6.493   3.182   3.226
  419TIP3    H1 1221   6.520   3.232   3.148
  419TIP3    H2 1222   6.568   3.125   3.245
  420TIP3   OH2 1223   4.034   4.860   3.705
  420TIP3    H1 1224   3.988   4.787   3.665
  420TIP3    H2 1225   4.124   4.828   3.718
  421TIP3   OH2 1226   1.885   5.318   0.269
  421TIP3    H1 1227   1.913   5.399   0.227
  421TIP3    H2 1228   1.825   5.346   0.338
  422TIP3   OH2 1229   0.843   1.369   0.518
  422TIP3    H1 1230   0.825   1.296   0.459
  422TIP3    H2 1231   0.796   1.347   0.598
  423TIP3   OH2 1232   5.969   4.786   0.578
  423TIP3    H1 1233   5.929   4.723   0.639
  423TIP3    H2 1234   6.024   4.841   0.634
  424TIP3   OH2 1235   0.247   4.637   4.068
  424TIP3    H1 1236   0.333   4.675   4.086
  424TIP3    H2 1237   0.186   4.711   4.070
  425TIP3   OH2 1238   0.416   3.434   3.674
  425TIP3    H1 1239   0.348   3.462   3.734
  425TIP3    H2 1240   0.473   3.378   3.727
  426TIP3   OH2 1241   5.533   4.336   5.138
  426TIP3    H1 1242   5.521   4.431   5.133
  426TIP3    H2 1243   5.492   4.303   5.059
  427TIP3   OH2 1244   3.629   1.249  -0.013
  427TIP3    H1 1245   3.716   1.248   0.028
  427TIP3    H2 1246   3.635   1.318  -0.079
  428TIP3   OH2 1247   0.684   0.916   4.672
  428TIP3    H1 1248   0.728   0.923   4.757
  428TIP3    H2 1249   0.604   0.867   4.690
  429TIP3   OH2 1250   1.448   2.066   5.173
  429TIP3    H1 1251   1.465   2.125   5.247
  429TIP3    H2 1252   1.393   2.117   5.114
  430TIP3   OH2 1253   0.623   2.606   4.234
  430TIP3    H1 1254   0.553   2.561   4.187
  430TIP3    H2 1255   0.670   2.655   4.167
  431TIP3   OH2 1256   5.179   5.409   3.890
  431TIP3    H1 1257   5.166   5.326   3.935
  431TIP3    H2 1258   5.185   5.386   3.798
  432TIP3   OH2 1259   1.488   3.310   0.812
  432TIP3    H1 1260   1.476   3.228   0.860
  432TIP3    H2 1261   1.495   3.283   0.720
  433TIP3   OH2 1262   5.981   2.603   4.452
  433TIP3    H1 1263   6.067   2.568   4.429
  433TIP3    H2 1264   5.922   2.565   4.387
  434TIP3   OH2 1265   1.361   1.956   1.472
  434TIP3    H1 1266   1.303   2.032   1.469
  434TIP3    H2 1267   1.340   1.914   1.556
  435TIP3   OH2 1268   1.418   6.747   0.489
  435TIP3    H1 1269   1.392   6.832   0.453
  435TIP3    H2 1270   1.416   6.687   0.414
  436TIP3   OH2 1271   6.855   5.876   3.757
  436TIP3    H1 1272   6.937   5.852   3.800
  436TIP3    H2 1273   6.881   5.899   3.668
  437TIP3   OH2 1274   3.626   5.751   5.596
  437TIP3    H1 1275   3.629   5.795   5.681
  437TIP3    H2 1276   3.542   5.705   5.596
  438TIP3   OH2 1277   1.426   4.723   2.283
  438TIP3    H1 1278   1.432   4.742   2.189
  438TIP3    H2 1279   1.369   4.791   2.318
  439TIP3   OH2 1280   1.034   3.176   5.362
  439TIP3    H1 1281   1.120   3.165   5.323
  439TIP3    H2 1282   1.008   3.089   5.389
  440TIP3   OH2 1283   4.306   3.827   5.396
  440TIP3    H1 1284   4.378   3.793   5.341
  440TIP3    H2 1285   4.255   3.750   5.419
  441TIP3   OH2 1286   6.999   6.553   3.782
  441TIP3    H1 1287   6.958   6.629   3.823
  441TIP3    H2 1288   7.091   6.576   3.775
  442TIP3   OH2 1289   6.135   2.785   2.290
  442TIP3    H1 1290   6.064   2.845   2.265
  442TIP3    H2 1291   6.214   2.838   2.284
  443TIP3   OH2 1292   5.716   0.272   3.328
  443TIP3    H1 1293   5.808   0.256   3.306
  443TIP3    H2 1294   5.690   0.344   3.270
  444TIP3   OH2 1295   2.396   5.211   3.179
  444TIP3    H1 1296   2.464   5.270   3.210
  444TIP3    H2 1297   2.438   5.160   3.109
  445TIP3   OH2 1298   2.943   2.287   2.063
  445TIP3    H1 1299   2.896   2.208   2.089
  445TIP3    H2 1300   2.975   2.324   2.145
  446TIP3   OH2 1301   0.296   2.636   2.270
  446TIP3    H1 1302   0.369   2.622   2.330
  446TIP3    H2 1303   0.221   2.655   2.327
  447TIP3   OH2 1304   5.266   6.793   3.399
  447TIP3    H1 1305   5.325   6.851   3.447
  447TIP3    H2 1306   5.212   6.751   3.466
  448TIP3   OH2 1307   0.602   1.476   3.744
  448TIP3    H1 1308   0.662   1.503   3.675
  448TIP3    H2 1309   0.622   1.383   3.758
  449TIP3   OH2 1310   3.336   6.413   3.915
  449TIP3    H1 1311   3.269   6.404   3.848
  449TIP3    H2 1312   3.326   6.335   3.970
  450TIP3   OH2 1313   4.344   6.644   4.701
  450TIP3    H1 1314   4.378   6.666   4.614
  450TIP3    H2 1315   4.419   6.608   4.748
  451TIP3   OH2 1316   1.991   4.629   2.301
  451TIP3    H1 1317   1.904   4.592   2.283
  451TIP3    H2 1318   1.976   4.723   2.311
  452TIP3   OH2 1319   4.612   6.122   5.035
  452TIP3    H1 1320   4.571   6.095   4.953
  452TIP3    H2 1321   4.646   6.210   5.017
  453TIP3   OH2 1322   1.804   2.254   3.073
  453TIP3    H1 1323   1.843   2.166   3.068
  453TIP3    H2 1324   1.713   2.242   3.045
  454TIP3   OH2 1325   1.073   0.096   5.490
  454TIP3    H1 1326   1.124   0.083   5.411
  454TIP3    H2 1327   0.982   0.104   5.460
  455TIP3   OH2 1328   0.629   5.442   3.730
  455TIP3    H1 1329   0.682   5.512   3.768
  455TIP3    H2 1330   0.612   5.383   3.804
  456TIP3   OH2 1331   3.623   3.930   5.211
  456TIP3    H1 1332   3.551   3.959   5.267
  456TIP3    H2 1333   3.692   3.903   5.273
  457TIP3   OH2 1334   3.466   3.923   2.674
  457TIP3    H1 1335   3.488   3.974   2.752
  457TIP3    H2 1336   3.417   3.848   2.709
  458TIP3   OH2 1337   4.337   6.592   5.090
  458TIP3    H1 1338   4.301   6.670   5.048
  458TIP3    H2 1339   4.370   6.539   5.018
  459TIP3   OH2 1340   0.772   2.686   1.348
  459TIP3    H1 1341   0.806   2.596   1.353
  459TIP3    H2 1342   0.687   2.676   1.305
  460TIP3   OH2 1343   5.758   1.680   4.192
  460TIP3    H1 1344   5.797   1.742   4.131
  460TIP3    H2 1345   5.808   1.599   4.179
  461TIP3   OH2 1346   1.980   1.020   2.566
  461TIP3    H1 1347   1.934   0.947   2.524
  461TIP3    H2 1348   1.967   1.006   2.659
  462TIP3   OH2 1349   1.318   1.640   1.912
  462TIP3    H1 1350   1.240   1.589   1.934
  462TIP3    H2 1351   1.356   1.666   1.996
  463TIP3   OH2 1352   1.920   3.726   3.221
  463TIP3    H1 1353   1.971   3.760   3.147
  463TIP3    H2 1354   1.841   3.779   3.223
  464TIP3   OH2 1355   2.843   3.980   0.644
  464TIP3    H1 1356   2.797   4.011   0.566
  464TIP3    H2 1357   2.846   4.056   0.702
  465TIP3   OH2 1358   5.705   0.657   4.967
  465TIP3    H1 1359   5.754   0.604   4.904
  465TIP3    H2 1360   5.615   0.627   4.958
  466TIP3   OH2 1361   0.341   2.210   1.740
  466TIP3    H1 1362   0.259   2.208   1.691
  466TIP3    H2 1363   0.335   2.290   1.793
  467TIP3   OH2 1364   0.849   0.991   4.893
  467TIP3    H1 1365   0.916   0.927   4.919
  467TIP3    H2 1366   0.899   1.070   4.872
  468TIP3   OH2 1367   3.158   2.342   5.427
  468TIP3    H1 1368   3.081   2.308   5.472
  468TIP3    H2 1369   3.206   2.390   5.495
  469TIP3   OH2 1370   1.727   1.309   4.093
  469TIP3    H1 1371   1.793   1.269   4.151
  469TIP3    H2 1372   1.778   1.360   4.031
  470TIP3   OH2 1373   0.209   5.157   5.632
  470TIP3    H1 1374   0.184   5.204   5.711
  470TIP3    H2 1375   0.296   5.191   5.611
  471TIP3   OH2 1376   4.060   3.898   4.719
  471TIP3    H1 1377   3.974   3.938   4.729
  471TIP3    H2 1378   4.116   3.969   4.686
  472TIP3   OH2 1379   6.452   4.989   3.462
  472TIP3    H1 1380   6.425   5.056   3.524
  472TIP3    H2 1381   6.370   4.950   3.432
  473TIP3   OH2 1382   2.051   3.854   3.863
  473TIP3    H1 1383   2.068   3.760   3.873
  473TIP3    H2 1384   1.966   3.858   3.818
  474TIP3   OH2 1385   1.615   0.234   5.699
  474TIP3    H1 1386   1.633   0.328   5.694
  474TIP3    H2 1387   1.686   0.194   5.649
  475TIP3   OH2 1388   6.575   0.856   3.934
  475TIP3    H1 1389   6.588   0.921   3.865
  475TIP3    H2 1390   6.502   0.802   3.904
  476TIP3   OH2 1391   4.272   6.134   4.460
  476TIP3    H1 1392   4.227   6.060   4.501
  476TIP3    H2 1393   4.252   6.127   4.367
  477TIP3   OH2 1394   2.469   3.382   4.925
  477TIP3    H1 1395   2.486   3.476   4.926
  477TIP3    H2 1396   2.479   3.355   5.016
  478TIP3   OH2 1397   7.110   1.345   0.250
  478TIP3    H1 1398   7.150   1.258   0.252
  478TIP3    H2 1399   7.029   1.336   0.300
  479TIP3   OH2 1400   3.253   1.391   4.446
  479TIP3    H1 1401   3.162   1.374   4.422
  479TIP3    H2 1402   3.254   1.481   4.477
  480TIP3   OH2 1403   3.575   0.589   1.576
  480TIP3    H1 1404   3.538   0.676   1.561
  480TIP3    H2 1405   3.506   0.542   1.624
  481TIP3   OH2 1406   5.081   1.171   5.112
  481TIP3    H1 1407   4.987   1.156   5.126
  481TIP3    H2 1408   5.122   1.087   5.135
  482TIP3   OH2 1409   6.332   6.340   4.502
  482TIP3    H1 1410   6.403   6.292   4.544
  482TIP3    H2 1411   6.310   6.410   4.563
  483TIP3   OH2 1412   6.324   4.014   0.631
  483TIP3    H1 1413   6.354   3.928   0.601
  483TIP3    H2 1414   6.401   4.070   0.621
  484TIP3   OH2 1415   2.479   6.826   1.100
  484TIP3    H1 1416   2.446   6.916   1.112
  484TIP3    H2 1417   2.426   6.791   1.028
  485TIP3   OH2 1418   2.504   4.125   2.214
  485TIP3    H1 1419   2.512   4.079   2.298
  485TIP3    H2 1420   2.420   4.171   2.219
  486TIP3   OH2 1421   0.721   2.414   1.945
  486TIP3    H1 1422   0.656   2.455   2.003
  486TIP3    H2 1423   0.805   2.444   1.979
  487TIP3   OH2 1424   4.633   2.496   0.447
  487TIP3    H1 1425   4.599   2.519   0.533
  487TIP3    H2 1426   4.664   2.578   0.410
  488TIP3   OH2 1427   3.068   1.770   0.418
  488TIP3    H1 1428   2.982   1.778   0.459
  488TIP3    H2 1429   3.128   1.755   0.490
  489TIP3   OH2 1430   7.041   1.784   0.372
  489TIP3    H1 1431   7.080   1.871   0.361
  489TIP3    H2 1432   7.028   1.753   0.283
  490TIP3   OH2 1433   3.503   5.621   2.860
  490TIP3    H1 1434   3.458   5.699   2.891
  490TIP3    H2 1435   3.481   5.616   2.767
  491TIP3   OH2 1436   6.890   1.240   0.423
  491TIP3    H1 1437   6.883   1.147   0.401
  491TIP3    H2 1438   6.896   1.242   0.519
  492TIP3   OH2 1439   1.469   6.195   5.745
  492TIP3    H1 1440   1.404   6.179   5.676
  492TIP3    H2 1441   1.418   6.220   5.821
  493TIP3   OH2 1442   1.115   3.154   3.791
  493TIP3    H1 1443   1.071   3.152   3.706
  493TIP3    H2 1444   1.198   3.198   3.773
  494TIP3   OH2 1445   2.768   2.611   4.509
  494TIP3    H1 1446   2.762   2.529   4.460
  494TIP3    H2 1447   2.678   2.632   4.532
  495TIP3   OH2 1448   6.302   6.738   2.723
  495TIP3    H1 1449   6.350   6.785   2.790
  495TIP3    H2 1450   6.323   6.784   2.641
  496TIP3   OH2 1451   7.045   1.844   4.444
  496TIP3    H1 1452   7.076   1.921   4.396
  496TIP3    H2 1453   7.084   1.770   4.397
  497TIP3   OH2 1454   6.769   6.305   1.724
  497TIP3    H1 1455   6.778   6.265   1.637
  497TIP3    H2 1456   6.675   6.301   1.742
  498TIP3   OH2 1457   2.556   3.632   1.980
  498TIP3    H1 1458   2.490   3.699   1.998
  498TIP3    H2 1459   2.626   3.650   2.043
  499TIP3   OH2 1460   5.619   4.907   2.187
  499TIP3    H1 1461   5.559   4.832   2.182
  499TIP3    H2 1462   5.691   4.877   2.243
  500TIP3   OH2 1463   3.294   4.144   3.332
  500TIP3    H1 1464   3.276   4.105   3.247
  500TIP3    H2 1465   3.209   4.147   3.376
  501TIP3   OH2 1466   6.000   2.571   5.065
  501TIP3    H1 1467   6.045   2.527   4.994
  501TIP3    H2 1468   6.052   2.649   5.084
  502TIP3   OH2 1469   2.734   2.113   0.803
  502TIP3    H1 1470   2.798   2.166   0.755
  502TIP3    H2 1471   2.651   2.157   0.790
  503TIP3   OH2 1472   5.682   6.500   1.150
  503TIP3    H1 1473   5.732   6.571   1.191
  503TIP3    H2 1474   5.747   6.433   1.132
  504TIP3   OH2 1475   4.802   5.021   3.756
  504TIP3    H1 1476   4.750   5.063   3.824
  504TIP3    H2 1477   4.882   4.993   3.800
  505TIP3   OH2 1478   3.534   2.787   0.488
  505TIP3    H1 1479   3.455   2.744   0.453
  505TIP3    H2 1480   3.510   2.879   0.495
  506TIP3   OH2 1481   4.549   6.314   0.311
  506TIP3    H1 1482   4.494   6.242   0.341
  506TIP3    H2 1483   4.629   6.306   0.364
  507TIP3   OH2 1484   1.240   0.710   0.437
  507TIP3    H1 1485   1.257   0.665   0.519
  507TIP3    H2 1486   1.152   0.746   0.447
  508TIP3   OH2 1487   4.564   5.564   3.554
  508TIP3    H1 1488   4.653   5.586   3.526
  508TIP3    H2 1489   4.551   5.475   3.521
  509TIP3   OH2 1490   4.010   2.281   2.083
  509TIP3    H1 1491   4.039   2.368   2.054
  509TIP3    H2 1492   4.084   2.246   2.133
  510TIP3   OH2 1493   5.676   2.284   3.554
  510TIP3    H1 1494   5.587   2.319   3.550
  510TIP3    H2 1495   5.688   2.239   3.471
  511TIP3   OH2 1496   5.157   1.094   4.027
  511TIP3    H1 1497   5.123   1.020   3.977
  511TIP3    H2 1498   5.252   1.088   4.017
  512TIP3   OH2 1499   5.240   5.750   0.422
  512TIP3    H1 1500   5.295   5.766   0.498
  512TIP3    H2 1501   5.166   5.700   0.456
  513TIP3   OH2 1502   1.150   2.506   4.868
  513TIP3    H1 1503   1.062   2.483   4.838
  513TIP3    H2 1504   1.136   2.543   4.955
  514TIP3   OH2 1505   4.795   3.519   3.901
  514TIP3    H1 1506   4.733   3.482   3.838
  514TIP3    H2 1507   4.766   3.609   3.913
  515TIP3   OH2 1508   2.235   3.235   5.310
  515TIP3    H1 1509   2.240   3.221   5.404
  515TIP3    H2 1510   2.216   3.329   5.301
  516TIP3   OH2 1511   0.097   4.443   4.421
  516TIP3    H1 1512   0.118   4.353   4.444
  516TIP3    H2 1513   0.002   4.448   4.426
  517TIP3   OH2 1514   6.220   5.930   1.925
  517TIP3    H1 1515   6.280   6.002   1.940
  517TIP3    H2 1516   6.270   5.867   1.874
  518TIP3   OH2 1517   7.135   0.024   5.585
  518TIP3    H1 1518   7.204   0.063   5.638
  518TIP3    H2 1519   7.055   0.071   5.610
  519TIP3   OH2 1520   0.510   0.183   3.850
  519TIP3    H1 1521   0.416   0.185   3.833
  519TIP3    H2 1522   0.550   0.179   3.763
  520TIP3   OH2 1523   2.288   2.872   0.536
  520TIP3    H1 1524   2.361   2.816   0.561
  520TIP3    H2 1525   2.221   2.811   0.505
  521TIP3   OH2 1526   2.104   2.518   0.778
  521TIP3    H1 1527   2.041   2.470   0.724
  521TIP3    H2 1528   2.067   2.606   0.784
  522TIP3   OH2 1529   3.162   5.392   1.579
  522TIP3    H1 1530   3.245   5.400   1.626
  522TIP3    H2 1531   3.179   5.326   1.512
  523TIP3   OH2 1532   1.813   1.360   2.876
  523TIP3    H1 1533   1.870   1.425   2.834
  523TIP3    H2 1534   1.776   1.310   2.803
  524TIP3   OH2 1535   5.718   5.077   4.453
  524TIP3    H1 1536   5.769   5.150   4.490
  524TIP3    H2 1537   5.716   5.012   4.523
  525TIP3   OH2 1538   5.501   4.930   2.566
  525TIP3    H1 1539   5.419   4.889   2.593
  525TIP3    H2 1540   5.567   4.894   2.625
  526TIP3   OH2 1541   1.794   0.097   5.504
  526TIP3    H1 1542   1.770   0.008   5.479
  526TIP3    H2 1543   1.889   0.093   5.518
  527TIP3   OH2 1544   3.889   2.422   3.342
  527TIP3    H1 1545   3.864   2.514   3.341
  527TIP3    H2 1546   3.817   2.377   3.297
  528TIP3   OH2 1547   1.498   2.956   1.401
  528TIP3    H1 1548   1.452   3.027   1.447
  528TIP3    H2 1549   1.588   2.960   1.434
  529TIP3   OH2 1550   3.518   1.880   2.151
  529TIP3    H1 1551   3.467   1.939   2.096
  529TIP3    H2 1552   3.593   1.855   2.096
  530TIP3   OH2 1553   5.967   2.549   0.865
  530TIP3    H1 1554   5.994   2.640   0.871
  530TIP3    H2 1555   5.998   2.509   0.946
  531TIP3   OH2 1556   5.462   2.410   0.125
  531TIP3    H1 1557   5.474   2.396   0.219
  531TIP3    H2 1558   5.401   2.342   0.098
  532TIP3   OH2 1559   4.351   0.015   1.376
  532TIP3    H1 1560   4.396  -0.057   1.419
  532TIP3    H2 1561   4.407   0.036   1.300
  533TIP3   OH2 1562   5.347   1.785   4.479
  533TIP3    H1 1563   5.371   1.826   4.396
  533TIP3    H2 1564   5.352   1.855   4.544
  534TIP3   OH2 1565   1.126   3.468   1.631
  534TIP3    H1 1566   1.201   3.413   1.608
  534TIP3    H2 1567   1.140   3.489   1.724
  535TIP3   OH2 1568   1.301   0.564   5.115
  535TIP3    H1 1569   1.384   0.610   5.102
  535TIP3    H2 1570   1.298   0.499   5.045
  536TIP3   OH2 1571   4.752   4.022   2.729
  536TIP3    H1 1572   4.732   4.106   2.770
  536TIP3    H2 1573   4.765   3.962   2.802
  537TIP3   OH2 1574   1.398   6.183   3.030
  537TIP3    H1 1575   1.329   6.207   3.092
  537TIP3    H2 1576   1.446   6.264   3.014
  538TIP3   OH2 1577   0.556   2.302   3.729
  538TIP3    H1 1578   0.643   2.288   3.767
  538TIP3    H2 1579   0.495   2.271   3.796
  539TIP3   OH2 1580   4.959   4.724   5.829
  539TIP3    H1 1581   4.943   4.788   5.760
  539TIP3    H2 1582   5.050   4.741   5.856
  540TIP3   OH2 1583   2.779   3.738   1.351
  540TIP3    H1 1584   2.806   3.819   1.309
  540TIP3    H2 1585   2.696   3.760   1.394
  541TIP3   OH2 1586   5.242   2.610   5.611
  541TIP3    H1 1587   5.254   2.599   5.705
  541TIP3    H2 1588   5.317   2.565   5.572
  542TIP3   OH2 1589   4.961   6.515   4.761
  542TIP3    H1 1590   5.038   6.470   4.726
  542TIP3    H2 1591   4.985   6.536   4.851
  543TIP3   OH2 1592   4.456   3.187   1.946
  543TIP3    H1 1593   4.445   3.175   1.851
  543TIP3    H2 1594   4.470   3.281   1.956
  544TIP3   OH2 1595   5.209   5.714   4.816
  544TIP3    H1 1596   5.139   5.660   4.852
  544TIP3    H2 1597   5.172   5.803   4.816
  545TIP3   OH2 1598   1.509   3.506   4.827
  545TIP3    H1 1599   1.511   3.595   4.862
  545TIP3    H2 1600   1.442   3.461   4.878
  546TIP3   OH2 1601   3.204   0.791   0.308
  546TIP3    H1 1602   3.125   0.813   0.358
  546TIP3    H2 1603   3.242   0.716   0.354
  547TIP3   OH2 1604   5.238   0.487   1.580
  547TIP3    H1 1605   5.254   0.581   1.572
  547TIP3    H2 1606   5.171   0.480   1.648
  548TIP3   OH2 1607   3.054   0.711   4.890
  548TIP3    H1 1608   2.966   0.746   4.904
  548TIP3    H2 1609   3.049   0.621   4.922
  549TIP3   OH2 1610   6.244   1.090   0.871
  549TIP3    H1 1611   6.210   1.179   0.878
  549TIP3    H2 1612   6.172   1.039   0.834
  550TIP3   OH2 1613   5.008   5.127   1.741
  550TIP3    H1 1614   5.092   5.117   1.787
  550TIP3    H2 1615   5.028   5.108   1.650
  551TIP3   OH2 1616   1.283   3.349   1.172
  551TIP3    H1 1617   1.362   3.391   1.136
  551TIP3    H2 1618   1.222   3.421   1.187
  552TIP3   OH2 1619   1.986   4.200   1.164
  552TIP3    H1 1620   1.926   4.133   1.197
  552TIP3    H2 1621   2.073   4.162   1.178
  553TIP3   OH2 1622   6.894   2.974   2.277
  553TIP3    H1 1623   6.963   2.936   2.223
  553TIP3    H2 1624   6.917   3.067   2.286
  554TIP3   OH2 1625   1.510   3.193   4.628
  554TIP3    H1 1626   1.486   3.184   4.535
  554TIP3    H2 1627   1.602   3.222   4.626
  555TIP3   OH2 1628   4.893   2.637   1.018
  555TIP3    H1 1629   4.825   2.702   1.004
  555TIP3    H2 1630   4.894   2.621   1.112
  556TIP3   OH2 1631   6.354   0.878   2.124
  556TIP3    H1 1632   6.385   0.884   2.033
  556TIP3    H2 1633   6.401   0.947   2.170
  557TIP3   OH2 1634   3.033   1.230   2.199
  557TIP3    H1 1635   3.088   1.193   2.130
  557TIP3    H2 1636   2.951   1.251   2.154
  558TIP3   OH2 1637   2.354   6.808   5.844
  558TIP3    H1 1638   2.311   6.893   5.832
  558TIP3    H2 1639   2.288   6.744   5.820
  559TIP3   OH2 1640   3.124   0.443   4.066
  559TIP3    H1 1641   3.036   0.413   4.090
  559TIP3    H2 1642   3.175   0.435   4.147
  560TIP3   OH2 1643   6.679   4.994   4.566
  560TIP3    H1 1644   6.691   5.036   4.651
  560TIP3    H2 1645   6.763   4.951   4.548
  561TIP3   OH2 1646   5.861   5.249   3.469
  561TIP3    H1 1647   5.813   5.289   3.397
  561TIP3    H2 1648   5.894   5.166   3.433
  562TIP3   OH2 1649   2.118   3.083   2.880
  562TIP3    H1 1650   2.042   3.131   2.846
  562TIP3    H2 1651   2.089   3.052   2.966
  563TIP3   OH2 1652   3.560   3.504   0.496
  563TIP3    H1 1653   3.590   3.542   0.414
  563TIP3    H2 1654   3.567   3.575   0.560
  564TIP3   OH2 1655   6.901   3.181   2.991
  564TIP3    H1 1656   6.946   3.135   2.921
  564TIP3    H2 1657   6.971   3.216   3.046
  565TIP3   OH2 1658   5.039   4.148   0.437
  565TIP3    H1 1659   5.113   4.112   0.485
  565TIP3    H2 1660   5.077   4.210   0.375
  566TIP3   OH2 1661   7.088   0.576   3.236
  566TIP3    H1 1662   7.143   0.546   3.163
  566TIP3    H2 1663   7.133   0.652   3.271
  567TIP3   OH2 1664   5.868   4.885   0.168
  567TIP3    H1 1665   5.871   4.794   0.140
  567TIP3    H2 1666   5.878   4.936   0.087
  568TIP3   OH2 1667   2.911   3.433   4.397
  568TIP3    H1 1668   2.956   3.456   4.479
  568TIP3    H2 1669   2.818   3.439   4.419
  569TIP3   OH2 1670   1.352   2.945   1.175
  569TIP3    H1 1671   1.339   2.854   1.201
  569TIP3    H2 1672   1.429   2.974   1.224
  570TIP3   OH2 1673   2.462   5.230   0.437
  570TIP3    H1 1674   2.369   5.250   0.433
  570TIP3    H2 1675   2.496   5.287   0.506
  571TIP3   OH2 1676   1.865   1.529   1.283
  571TIP3    H1 1677   1.911   1.587   1.344
  571TIP3    H2 1678   1.858   1.446   1.330
  572TIP3   OH2 1679   7.159   5.369   2.477
  572TIP3    H1 1680   7.216   5.315   2.533
  572TIP3    H2 1681   7.130   5.309   2.408
  573TIP3   OH2 1682   5.706   5.630   3.581
  573TIP3    H1 1683   5.622   5.583   3.578
  573TIP3    H2 1684   5.723   5.654   3.490
  574TIP3   OH2 1685   6.287   5.436   5.854
  574TIP3    H1 1686   6.293   5.402   5.943
  574TIP3    H2 1687   6.308   5.529   5.862
  575TIP3   OH2 1688   2.088   0.905   5.695
  575TIP3    H1 1689   2.102   0.946   5.610
  575TIP3    H2 1690   2.166   0.852   5.710
  576TIP3   OH2 1691   3.037   6.731   0.649
  576TIP3    H1 1692   3.065   6.802   0.708
  576TIP3    H2 1693   3.006   6.663   0.708
  577TIP3   OH2 1694   0.453   2.152   5.742
  577TIP3    H1 1695   0.397   2.140   5.819
  577TIP3    H2 1696   0.408   2.220   5.691
  578TIP3   OH2 1697   3.165   3.095   3.165
  578TIP3    H1 1698   3.227   3.077   3.237
  578TIP3    H2 1699   3.107   3.018   3.164
  579TIP3   OH2 1700   4.952   5.980   4.721
  579TIP3    H1 1701   4.907   6.013   4.643
  579TIP3    H2 1702   4.881   5.951   4.779
  580TIP3   OH2 1703   6.058   6.656   0.069
  580TIP3    H1 1704   6.073   6.749   0.053
  580TIP3    H2 1705   6.009   6.654   0.152
  581TIP3   OH2 1706   6.506   6.017   1.770
  581TIP3    H1 1707   6.527   6.009   1.677
  581TIP3    H2 1708   6.488   6.110   1.783
  582TIP3   OH2 1709   4.326   4.709   4.070
  582TIP3    H1 1710   4.377   4.790   4.083
  582TIP3    H2 1711   4.332   4.664   4.154
  583TIP3   OH2 1712   6.992   5.454   2.130
  583TIP3    H1 1713   6.931   5.410   2.189
  583TIP3    H2 1714   6.951   5.450   2.044
  584TIP3   OH2 1715   1.627   3.807   0.929
  584TIP3    H1 1716   1.567   3.747   0.884
  584TIP3    H2 1717   1.707   3.805   0.876
  585TIP3   OH2 1718   3.746   4.969   2.394
  585TIP3    H1 1719   3.823   5.023   2.381
  585TIP3    H2 1720   3.681   5.004   2.333
  586TIP3   OH2 1721   3.863   3.512   5.120
  586TIP3    H1 1722   3.817   3.546   5.043
  586TIP3    H2 1723   3.800   3.518   5.191
  587TIP3   OH2 1724   6.068   0.337   2.610
  587TIP3    H1 1725   6.155   0.376   2.620
  587TIP3    H2 1726   6.025   0.391   2.544
  588TIP3   OH2 1727   6.378   2.525   1.695
  588TIP3    H1 1728   6.431   2.472   1.636
  588TIP3    H2 1729   6.294   2.481   1.698
  589TIP3   OH2 1730   6.924   1.335   2.792
  589TIP3    H1 1731   6.992   1.312   2.729
  589TIP3    H2 1732   6.862   1.388   2.741
  590TIP3   OH2 1733   6.700   6.278   3.556
  590TIP3    H1 1734   6.614   6.237   3.567
  590TIP3    H2 1735   6.741   6.270   3.642
  591TIP3   OH2 1736   4.162   6.854   0.715
  591TIP3    H1 1737   4.075   6.828   0.746
  591TIP3    H2 1738   4.222   6.791   0.755
  592TIP3   OH2 1739   2.915   4.650   4.243
  592TIP3    H1 1740   2.820   4.641   4.240
  592TIP3    H2 1741   2.930   4.739   4.277
  593TIP3   OH2 1742   4.232   3.048   2.615
  593TIP3    H1 1743   4.210   3.022   2.704
  593TIP3    H2 1744   4.271   2.970   2.575
  594TIP3   OH2 1745   0.828   4.484   5.730
  594TIP3    H1 1746   0.888   4.440   5.789
  594TIP3    H2 1747   0.820   4.426   5.655
  595TIP3   OH2 1748   2.491   6.330   3.684
  595TIP3    H1 1749   2.444   6.251   3.712
  595TIP3    H2 1750   2.583   6.311   3.705
  596TIP3   OH2 1751   5.737   5.070   5.458
  596TIP3    H1 1752   5.817   5.040   5.414
  596TIP3    H2 1753   5.672   5.002   5.438
  597TIP3   OH2 1754   1.657   1.233   2.291
  597TIP3    H1 1755   1.735   1.187   2.261
  597TIP3    H2 1756   1.671   1.246   2.385
  598TIP3   OH2 1757   1.409   0.766   3.360
  598TIP3    H1 1758   1.372   0.846   3.399
  598TIP3    H2 1759   1.428   0.790   3.269
  599TIP3   OH2 1760   1.311   1.348   0.762
  599TIP3    H1 1761   1.257   1.338   0.684
  599TIP3    H2 1762   1.361   1.428   0.747
  600TIP3   OH2 1763   3.135   3.234   2.633
  600TIP3    H1 1764   3.070   3.214   2.566
  600TIP3    H2 1765   3.148   3.150   2.679
  601TIP3   OH2 1766   3.666   5.354   5.509
  601TIP3    H1 1767   3.698   5.269   5.540
  601TIP3    H2 1768   3.571   5.348   5.515
  602TIP3   OH2 1769   0.903   0.243   1.150
  602TIP3    H1 1770   0.869   0.321   1.193
  602TIP3    H2 1771   0.830   0.181   1.150
  603TIP3   OH2 1772   1.552   0.781   1.707
  603TIP3    H1 1773   1.467   0.810   1.739
  603TIP3    H2 1774   1.567   0.696   1.749
  604TIP3   OH2 1775   3.520   1.110   4.766
  604TIP3    H1 1776   3.446   1.124   4.708
  604TIP3    H2 1777   3.552   1.022   4.743
  605TIP3   OH2 1778   0.647   3.349   3.771
  605TIP3    H1 1779   0.704   3.336   3.695
  605TIP3    H2 1780   0.654   3.266   3.819
  606TIP3   OH2 1781   2.464   2.305   2.531
  606TIP3    H1 1782   2.378   2.345   2.526
  606TIP3    H2 1783   2.499   2.310   2.442
  607TIP3   OH2 1784   1.497   4.863   2.061
  607TIP3    H1 1785   1.520   4.935   2.119
  607TIP3    H2 1786   1.580   4.835   2.023
  608TIP3   OH2 1787   0.351   0.735   0.308
  608TIP3    H1 1788   0.431   0.729   0.360
  608TIP3    H2 1789   0.290   0.675   0.352
  609TIP3   OH2 1790   6.482   1.842   2.591
  609TIP3    H1 1791   6.470   1.921   2.644
  609TIP3    H2 1792   6.441   1.863   2.507
  610TIP3   OH2 1793   0.833   2.181   2.833
  610TIP3    H1 1794   0.748   2.207   2.798
  610TIP3    H2 1795   0.813   2.134   2.914
  611TIP3   OH2 1796   1.724   5.623   1.184
  611TIP3    H1 1797   1.658   5.641   1.251
  611TIP3    H2 1798   1.747   5.709   1.148
  612TIP3   OH2 1799   2.722   2.120   0.429
  612TIP3    H1 1800   2.764   2.092   0.347
  612TIP3    H2 1801   2.648   2.061   0.439
  613TIP3   OH2 1802   2.951   0.732   0.712
  613TIP3    H1 1803   2.998   0.815   0.716
  613TIP3    H2 1804   2.869   0.748   0.758
  614TIP3   OH2 1805   0.022   4.037   4.983
  614TIP3    H1 1806  -0.066   4.065   5.010
  614TIP3    H2 1807   0.081   4.078   5.045
  615TIP3   OH2 1808   2.965   2.414   4.157
  615TIP3    H1 1809   2.897   2.390   4.094
  615TIP3    H2 1810   2.957   2.509   4.166
  616TIP3   OH2 1811   2.420   4.756   0.231
  616TIP3    H1 1812   2.351   4.732   0.169
  616TIP3    H2 1813   2.373   4.779   0.311
  617TIP3   OH2 1814   4.834   0.685   2.705
  617TIP3    H1 1815   4.912   0.739   2.719
  617TIP3    H2 1816   4.781   0.735   2.642
  618TIP3   OH2 1817   3.570   3.076   2.114
  618TIP3    H1 1818   3.643   3.084   2.176
  618TIP3    H2 1819   3.492   3.082   2.169
  619TIP3   OH2 1820   3.528   3.458   2.764
  619TIP3    H1 1821   3.434   3.454   2.743
  619TIP3    H2 1822   3.540   3.547   2.797
  620TIP3   OH2 1823   5.892   1.880   5.691
  620TIP3    H1 1824   5.855   1.909   5.608
  620TIP3    H2 1825   5.971   1.933   5.703
  621TIP3   OH2 1826   4.594   1.341   2.270
  621TIP3    H1 1827   4.557   1.253   2.262
  621TIP3    H2 1828   4.623   1.363   2.181
  622TIP3   OH2 1829   6.748   2.869   0.336
  622TIP3    H1 1830   6.827   2.827   0.301
  622TIP3    H2 1831   6.679   2.843   0.275
  623TIP3   OH2 1832   4.195   6.690   2.314
  623TIP3    H1 1833   4.180   6.635   2.391
  623TIP3    H2 1834   4.109   6.695   2.271
  624TIP3   OH2 1835   4.932   0.145   5.441
  624TIP3    H1 1836   4.858   0.183   5.488
  624TIP3    H2 1837   4.919   0.172   5.350
  625TIP3   OH2 1838   7.155   3.060   3.443
  625TIP3    H1 1839   7.128   3.132   3.387
  625TIP3    H2 1840   7.177   3.101   3.526
  626TIP3   OH2 1841   3.136   1.265   5.115
  626TIP3    H1 1842   3.119   1.357   5.095
  626TIP3    H2 1843   3.118   1.219   5.033
  627TIP3   OH2 1844   2.665   4.865   5.582
  627TIP3    H1 1845   2.682   4.788   5.527
  627TIP3    H2 1846   2.701   4.938   5.532
  628TIP3   OH2 1847   4.581   6.710   1.720
  628TIP3    H1 1848   4.551   6.627   1.685
  628TIP3    H2 1849   4.504   6.748   1.762
  629TIP3   OH2 1850   4.769   0.129   3.877
  629TIP3    H1 1851   4.852   0.095   3.845
  629TIP3    H2 1852   4.782   0.143   3.970
  630TIP3   OH2 1853   3.065   2.555   4.648
  630TIP3    H1 1854   3.035   2.527   4.561
  630TIP3    H2 1855   3.038   2.647   4.654
  631TIP3   OH2 1856   1.806   2.555   3.883
  631TIP3    H1 1857   1.862   2.507   3.821
  631TIP3    H2 1858   1.729   2.579   3.831
  632TIP3   OH2 1859   3.473   2.425   0.259
  632TIP3    H1 1860   3.447   2.342   0.219
  632TIP3    H2 1861   3.533   2.464   0.196
  633TIP3   OH2 1862   5.172   3.932   4.895
  633TIP3    H1 1863   5.223   3.886   4.828
  633TIP3    H2 1864   5.238   3.971   4.953
  634TIP3   OH2 1865   5.581   3.257   2.845
  634TIP3    H1 1866   5.505   3.218   2.887
  634TIP3    H2 1867   5.638   3.183   2.824
  635TIP3   OH2 1868   2.310   3.469   5.562
  635TIP3    H1 1869   2.342   3.519   5.638
  635TIP3    H2 1870   2.308   3.533   5.491
  636TIP3   OH2 1871   6.094   1.088   4.120
  636TIP3    H1 1872   6.049   1.166   4.087
  636TIP3    H2 1873   6.177   1.086   4.072
  637TIP3   OH2 1874   6.850   4.346   0.807
  637TIP3    H1 1875   6.809   4.291   0.741
  637TIP3    H2 1876   6.799   4.330   0.887
  638TIP3   OH2 1877   1.405   6.172   4.318
  638TIP3    H1 1878   1.481   6.226   4.339
  638TIP3    H2 1879   1.366   6.214   4.241
  639TIP3   OH2 1880   6.080   0.692   3.439
  639TIP3    H1 1881   6.081   0.740   3.522
  639TIP3    H2 1882   6.125   0.610   3.459
  640TIP3   OH2 1883   1.512   3.049   0.931
  640TIP3    H1 1884   1.511   2.974   0.991
  640TIP3    H2 1885   1.578   3.027   0.865
  641TIP3   OH2 1886   6.721   1.484   1.555
  641TIP3    H1 1887   6.704   1.527   1.470
  641TIP3    H2 1888   6.643   1.503   1.607
  642TIP3   OH2 1889   6.864   6.125   2.249
  642TIP3    H1 1890   6.951   6.120   2.289
  642TIP3    H2 1891   6.880   6.162   2.162
  643TIP3   OH2 1892   1.251   3.843   5.577
  643TIP3    H1 1893   1.189   3.893   5.524
  643TIP3    H2 1894   1.298   3.909   5.628
  644TIP3   OH2 1895   5.900   0.687   2.183
  644TIP3    H1 1896   5.922   0.706   2.092
  644TIP3    H2 1897   5.950   0.750   2.234
  645TIP3   OH2 1898   6.084   2.393   4.111
  645TIP3    H1 1899   6.134   2.313   4.097
  645TIP3    H2 1900   6.007   2.365   4.161
  646TIP3   OH2 1901   2.947   5.896   5.446
  646TIP3    H1 1902   2.932   5.938   5.362
  646TIP3    H2 1903   2.981   5.809   5.424
  647TIP3   OH2 1904   0.463   4.415   2.585
  647TIP3    H1 1905   0.543   4.446   2.542
  647TIP3    H2 1906   0.429   4.492   2.630
  648TIP3   OH2 1907   5.622   5.304   1.556
  648TIP3    H1 1908   5.696   5.250   1.584
  648TIP3    H2 1909   5.577   5.327   1.637
  649TIP3   OH2 1910   6.893   6.073   1.447
  649TIP3    H1 1911   6.851   6.030   1.521
  649TIP3    H2 1912   6.845   6.042   1.371
  650TIP3   OH2 1913   1.040   5.103   2.204
  650TIP3    H1 1914   0.993   5.152   2.137
  650TIP3    H2 1915   0.989   5.024   2.218
  651TIP3   OH2 1916   1.677   1.012   1.798
  651TIP3    H1 1917   1.656   0.920   1.811
  651TIP3    H2 1918   1.749   1.030   1.858
  652TIP3   OH2 1919   4.467   2.257   4.016
  652TIP3    H1 1920   4.459   2.271   3.922
  652TIP3    H2 1921   4.414   2.326   4.056
  653TIP3   OH2 1922   4.296   3.615   2.069
  653TIP3    H1 1923   4.295   3.638   2.162
  653TIP3    H2 1924   4.217   3.563   2.056
  654TIP3   OH2 1925   3.872   2.708   3.302
  654TIP3    H1 1926   3.795   2.762   3.282
  654TIP3    H2 1927   3.896   2.734   3.390
  655TIP3   OH2 1928   5.856   2.303   0.773
  655TIP3    H1 1929   5.926   2.246   0.805
  655TIP3    H2 1930   5.899   2.387   0.757
  656TIP3   OH2 1931   6.388   5.600   3.738
  656TIP3    H1 1932   6.461   5.633   3.685
  656TIP3    H2 1933   6.378   5.666   3.807
  657TIP3   OH2 1934   2.213   6.314   0.532
  657TIP3    H1 1935   2.144   6.248   0.540
  657TIP3    H2 1936   2.205   6.347   0.443
  658TIP3   OH2 1937   5.875   5.877   1.714
  658TIP3    H1 1938   5.818   5.810   1.751
  658TIP3    H2 1939   5.868   5.951   1.774
  659TIP3   OH2 1940   5.334   3.664   0.795
  659TIP3    H1 1941   5.365   3.741   0.844
  659TIP3    H2 1942   5.401   3.651   0.728
  660TIP3   OH2 1943   1.838   0.905   0.089
  660TIP3    H1 1944   1.750   0.942   0.090
  660TIP3    H2 1945   1.827   0.817   0.053
  661TIP3   OH2 1946   1.663   2.989   3.943
  661TIP3    H1 1947   1.702   2.988   3.856
  661TIP3    H2 1948   1.645   3.081   3.961
  662TIP3   OH2 1949   2.605   6.353   2.320
  662TIP3    H1 1950   2.594   6.422   2.255
  662TIP3    H2 1951   2.522   6.350   2.367
  663TIP3   OH2 1952   0.745   2.533   3.928
  663TIP3    H1 1953   0.838   2.555   3.939
  663TIP3    H2 1954   0.724   2.477   4.002
  664TIP3   OH2 1955   1.744   3.361   4.379
  664TIP3    H1 1956   1.747   3.433   4.316
  664TIP3    H2 1957   1.758   3.403   4.464
  665TIP3   OH2 1958   0.859   1.482   5.585
  665TIP3    H1 1959   0.900   1.397   5.603
  665TIP3    H2 1960   0.765   1.463   5.584
  666TIP3   OH2 1961   4.000   0.623   3.505
  666TIP3    H1 1962   3.940   0.579   3.444
  666TIP3    H2 1963   4.062   0.669   3.448
  667TIP3   OH2 1964   1.984   0.087   0.394
  667TIP3    H1 1965   2.022   0.173   0.376
  667TIP3    H2 1966   1.910   0.104   0.452
  668TIP3   OH2 1967   3.481   5.604   5.249
  668TIP3    H1 1968   3.509   5.648   5.329
  668TIP3    H2 1969   3.398   5.561   5.273
  669TIP3   OH2 1970   6.113   2.068   3.135
  669TIP3    H1 1971   6.063   2.023   3.204
  669TIP3    H2 1972   6.086   2.025   3.054
  670TIP3   OH2 1973   4.453   4.516   0.103
  670TIP3    H1 1974   4.399   4.448   0.063
  670TIP3    H2 1975   4.404   4.597   0.089
  671TIP3   OH2 1976   4.866   2.512   5.455
  671TIP3    H1 1977   4.859   2.430   5.406
  671TIP3    H2 1978   4.825   2.493   5.539
  672TIP3   OH2 1979   0.385   2.515   4.064
  672TIP3    H1 1980   0.343   2.587   4.110
  672TIP3    H2 1981   0.389   2.543   3.973
  673TIP3   OH2 1982   5.008   3.841   5.110
  673TIP3    H1 1983   5.051   3.900   5.048
  673TIP3    H2 1984   5.037   3.871   5.196
  674TIP3   OH2 1985   1.560   5.979   0.262
  674TIP3    H1 1986   1.631   6.035   0.230
  674TIP3    H2 1987   1.526   5.938   0.183
  675TIP3   OH2 1988   6.936   1.789   0.629
  675TIP3    H1 1989   6.993   1.844   0.682
  675TIP3    H2 1990   6.988   1.768   0.551
  676TIP3   OH2 1991   7.036   5.181   5.293
  676TIP3    H1 1992   7.128   5.160   5.310
  676TIP3    H2 1993   7.031   5.193   5.199
  677TIP3   OH2 1994   7.090   0.975   0.507
  677TIP3    H1 1995   7.054   1.034   0.572
  677TIP3    H2 1996   7.140   0.911   0.557
  678TIP3   OH2 1997   1.768   3.302   0.624
  678TIP3    H1 1998   1.843   3.295   0.565
  678TIP3    H2 1999   1.730   3.388   0.605
  679TIP3   OH2 2000   4.488   1.652   2.009
  679TIP3    H1 2001   4.406   1.633   2.054
  679TIP3    H2 2002   4.464   1.663   1.917
  680TIP3   OH2 2003   0.954   4.274   5.534
  680TIP3    H1 2004   1.010   4.302   5.606
  680TIP3    H2 2005   1.004   4.205   5.490
  681TIP3   OH2 2006   6.927   5.784   1.611
  681TIP3    H1 2007   7.017   5.781   1.576
  681TIP3    H2 2008   6.915   5.699   1.652
  682TIP3   OH2 2009   0.743   0.938   2.485
  682TIP3    H1 2010   0.705   0.868   2.432
  682TIP3    H2 2011   0.685   0.946   2.560
  683TIP3   OH2 2012   5.971   3.915   2.729
  683TIP3    H1 2013   6.041   3.882   2.786
  683TIP3    H2 2014   5.909   3.842   2.722
  684TIP3   OH2 2015   5.745   2.345   5.767
  684TIP3    H1 2016   5.724   2.302   5.683
  684TIP3    H2 2017   5.666   2.332   5.819
  685TIP3   OH2 2018   1.642   6.503   2.312
  685TIP3    H1 2019   1.596   6.587   2.307
  685TIP3    H2 2020   1.659   6.491   2.405
  686TIP3   OH2 2021   1.002   2.295   1.523
  686TIP3    H1 2022   0.923   2.269   1.570
  686TIP3    H2 2023   1.037   2.368   1.573
  687TIP3   OH2 2024   2.383   0.727   3.665
  687TIP3    H1 2025   2.326   0.737   3.589
  687TIP3    H2 2026   2.463   0.689   3.630
  688TIP3   OH2 2027   4.051   2.652   5.766
  688TIP3    H1 2028   4.009   2.727   5.725
  688TIP3    H2 2029   4.133   2.641   5.720
  689TIP3   OH2 2030   0.293   0.477   2.970
  689TIP3    H1 2031   0.312   0.383   2.972
  689TIP3    H2 2032   0.286   0.502   3.062
  690TIP3   OH2 2033   1.989   4.856   4.915
  690TIP3    H1 2034   2.050   4.894   4.978
  690TIP3    H2 2035   1.917   4.919   4.910
  691TIP3   OH2 2036   4.040   1.577   3.126
  691TIP3    H1 2037   4.022   1.571   3.220
  691TIP3    H2 2038   4.118   1.632   3.119
  692TIP3   OH2 2039   2.278   3.115   3.192
  692TIP3    H1 2040   2.310   3.191   3.239
  692TIP3    H2 2041   2.195   3.094   3.235
  693TIP3   OH2 2042   0.002   5.896   2.833
  693TIP3    H1 2043   0.009   5.818   2.777
  693TIP3    H2 2044   0.084   5.898   2.883
  694TIP3   OH2 2045   4.913   3.662   5.327
  694TIP3    H1 2046   4.821   3.648   5.303
  694TIP3    H2 2047   4.950   3.711   5.254
  695TIP3   OH2 2048   0.042   0.520   1.006
  695TIP3    H1 2049   0.118   0.462   1.013
  695TIP3    H2 2050  -0.033   0.461   1.014
  696TIP3   OH2 2051   3.141   4.445   4.518
  696TIP3    H1 2052   3.181   4.530   4.499
  696TIP3    H2 2053   3.135   4.442   4.614
  697TIP3   OH2 2054   5.488   3.938   0.622
  697TIP3    H1 2055   5.576   3.908   0.599
  697TIP3    H2 2056   5.472   3.901   0.709
  698TIP3   OH2 2057   3.620   2.470   4.347
  698TIP3    H1 2058   3.677   2.454   4.423
  698TIP3    H2 2059   3.532   2.452   4.380
  699TIP3   OH2 2060   4.245   0.916   0.955
  699TIP3    H1 2061   4.328   0.962   0.967
  699TIP3    H2 2062   4.236   0.861   1.032
  700TIP3   OH2 2063   6.524   0.537   1.689
  700TIP3    H1 2064   6.543   0.574   1.775
  700TIP3    H2 2065   6.429   0.520   1.690
  701TIP3   OH2 2066   4.128   1.233   3.775
  701TIP3    H1 2067   4.143   1.159   3.833
  701TIP3    H2 2068   4.121   1.308   3.834
  702TIP3   OH2 2069   5.655   3.862   4.612
  702TIP3    H1 2070   5.589   3.856   4.543
  702TIP3    H2 2071   5.606   3.854   4.694
  703TIP3   OH2 2072   2.605   5.004   4.140
  703TIP3    H1 2073   2.668   4.962   4.199
  703TIP3    H2 2074   2.559   5.067   4.196
  704TIP3   OH2 2075   4.579   3.537   0.448
  704TIP3    H1 2076   4.502   3.591   0.429
  704TIP3    H2 2077   4.549   3.476   0.516
  705TIP3   OH2 2078   5.125   6.312   5.660
  705TIP3    H1 2079   5.179   6.245   5.703
  705TIP3    H2 2080   5.046   6.315   5.713
  706TIP3   OH2 2081   3.421   3.545   5.702
  706TIP3    H1 2082   3.498   3.490   5.686
  706TIP3    H2 2083   3.434   3.579   5.791
  707TIP3   OH2 2084   2.961   5.872   1.669
  707TIP3    H1 2085   2.921   5.937   1.612
  707TIP3    H2 2086   2.929   5.788   1.636
  708TIP3   OH2 2087   6.617   0.351   4.172
  708TIP3    H1 2088   6.669   0.373   4.095
  708TIP3    H2 2089   6.527   0.352   4.141
  709TIP3   OH2 2090   6.006   5.034   5.389
  709TIP3    H1 2091   6.020   5.109   5.330
  709TIP3    H2 2092   6.083   5.033   5.446
  710TIP3   OH2 2093   5.158   4.562   5.536
  710TIP3    H1 2094   5.231   4.530   5.483
  710TIP3    H2 2095   5.118   4.630   5.483
  711TIP3   OH2 2096   6.835   2.695   1.110
  711TIP3    H1 2097   6.768   2.667   1.172
  711TIP3    H2 2098   6.799   2.673   1.024
  712TIP3   OH2 2099   2.302   5.606   4.044
  712TIP3    H1 2100   2.341   5.597   4.130
  712TIP3    H2 2101   2.377   5.605   3.984
  713TIP3   OH2 2102   1.706   4.987   1.372
  713TIP3    H1 2103   1.654   4.906   1.378
  713TIP3    H2 2104   1.781   4.972   1.428
  714TIP3   OH2 2105   2.460   4.533   4.617
  714TIP3    H1 2106   2.488   4.451   4.658
  714TIP3    H2 2107   2.507   4.535   4.534
  715TIP3   OH2 2108   6.106   4.252   4.507
  715TIP3    H1 2109   6.125   4.177   4.563
  715TIP3    H2 2110   6.082   4.214   4.423
  716TIP3   OH2 2111   0.081   5.199   3.917
  716TIP3    H1 2112   0.020   5.254   3.868
  716TIP3    H2 2113   0.154   5.184   3.858
  717TIP3   OH2 2114   2.177   5.864   5.085
  717TIP3    H1 2115   2.259   5.912   5.072
  717TIP3    H2 2116   2.110   5.932   5.087
  718TIP3   OH2 2117   0.824   6.569   4.821
  718TIP3    H1 2118   0.771   6.546   4.746
  718TIP3    H2 2119   0.764   6.610   4.883
  719TIP3   OH2 2120   4.931   1.939   4.466
  719TIP3    H1 2121   4.942   1.898   4.552
  719TIP3    H2 2122   4.877   2.016   4.483
  720TIP3   OH2 2123   4.256   3.451   0.487
  720TIP3    H1 2124   4.317   3.434   0.559
  720TIP3    H2 2125   4.289   3.530   0.445
  721TIP3   OH2 2126   6.362   2.659   4.853
  721TIP3    H1 2127   6.434   2.625   4.799
  721TIP3    H2 2128   6.386   2.750   4.871
  722TIP3   OH2 2129   6.498   1.739   1.438
  722TIP3    H1 2130   6.532   1.813   1.489
  722TIP3    H2 2131   6.405   1.734   1.460
  723TIP3   OH2 2132   6.257   6.628   4.971
  723TIP3    H1 2133   6.349   6.651   4.986
  723TIP3    H2 2134   6.234   6.573   5.046
  724TIP3   OH2 2135   4.982   2.584   1.562
  724TIP3    H1 2136   4.995   2.493   1.533
  724TIP3    H2 2137   5.054   2.600   1.622
  725TIP3   OH2 2138   0.332   4.933   3.894
  725TIP3    H1 2139   0.341   5.028   3.899
  725TIP3    H2 2140   0.264   4.919   3.828
  726TIP3   OH2 2141   0.141   1.252   0.790
  726TIP3    H1 2142   0.082   1.181   0.814
  726TIP3    H2 2143   0.116   1.324   0.848
  727TIP3   OH2 2144   3.275   5.664   0.678
  727TIP3    H1 2145   3.208   5.628   0.620
  727TIP3    H2 2146   3.306   5.743   0.632
  728TIP3   OH2 2147   1.155   1.340   3.007
  728TIP3    H1 2148   1.083   1.289   2.969
  728TIP3    H2 2149   1.150   1.323   3.101
  729TIP3   OH2 2150   1.761   2.327   2.238
  729TIP3    H1 2151   1.849   2.363   2.236
  729TIP3    H2 2152   1.769   2.241   2.197
  730TIP3   OH2 2153   3.948   3.219   1.410
  730TIP3    H1 2154   4.030   3.261   1.434
  730TIP3    H2 2155   3.913   3.273   1.339
  731TIP3   OH2 2156   4.504   3.322   5.471
  731TIP3    H1 2157   4.469   3.233   5.474
  731TIP3    H2 2158   4.434   3.376   5.508
  732TIP3   OH2 2159   1.124   4.560   0.702
  732TIP3    H1 2160   1.131   4.639   0.756
  732TIP3    H2 2161   1.213   4.525   0.698
  733TIP3   OH2 2162   5.019   2.298   2.756
  733TIP3    H1 2163   5.070   2.228   2.716
  733TIP3    H2 2164   4.971   2.254   2.826
  734TIP3   OH2 2165   2.862   5.387   5.329
  734TIP3    H1 2166   2.773   5.410   5.355
  734TIP3    H2 2167   2.901   5.349   5.408
  735TIP3   OH2 2168   6.035   6.545   4.482
  735TIP3    H1 2169   5.991   6.492   4.548
  735TIP3    H2 2170   5.994   6.520   4.399
  736TIP3   OH2 2171   1.241   0.653   0.710
  736TIP3    H1 2172   1.281   0.740   0.703
  736TIP3    H2 2173   1.264   0.623   0.798
  737TIP3   OH2 2174   3.640   5.573   2.344
  737TIP3    H1 2175   3.625   5.490   2.390
  737TIP3    H2 2176   3.553   5.601   2.316
  738TIP3   OH2 2177   5.994   6.153   3.552
  738TIP3    H1 2178   5.951   6.230   3.516
  738TIP3    H2 2179   5.976   6.157   3.646
  739TIP3   OH2 2180   1.611   5.379   3.999
  739TIP3    H1 2181   1.696   5.398   4.038
  739TIP3    H2 2182   1.555   5.451   4.029
  740TIP3   OH2 2183   4.298   4.442   2.354
  740TIP3    H1 2184   4.348   4.365   2.382
  740TIP3    H2 2185   4.289   4.430   2.259
  741TIP3   OH2 2186   4.538   0.362   3.895
  741TIP3    H1 2187   4.565   0.334   3.807
  741TIP3    H2 2188   4.619   0.364   3.945
  742TIP3   OH2 2189   5.665   4.473   1.536
  742TIP3    H1 2190   5.728   4.478   1.465
  742TIP3    H2 2191   5.682   4.550   1.590
  743TIP3   OH2 2192   5.466   2.743   2.301
  743TIP3    H1 2193   5.453   2.721   2.393
  743TIP3    H2 2194   5.546   2.696   2.276
  744TIP3   OH2 2195   1.478   0.084   0.507
  744TIP3    H1 2196   1.531   0.084   0.586
  744TIP3    H2 2197   1.542   0.091   0.436
  745TIP3   OH2 2198   1.871   5.089   4.206
  745TIP3    H1 2199   1.950   5.039   4.185
  745TIP3    H2 2200   1.832   5.108   4.120
  746TIP3   OH2 2201   3.983   1.874   4.251
  746TIP3    H1 2202   4.046   1.807   4.224
  746TIP3    H2 2203   4.032   1.928   4.313
  747TIP3   OH2 2204   2.857   4.622   2.091
  747TIP3    H1 2205   2.939   4.670   2.103
  747TIP3    H2 2206   2.872   4.538   2.134
  748TIP3   OH2 2207   0.166   6.726   5.720
  748TIP3    H1 2208   0.233   6.675   5.675
  748TIP3    H2 2209   0.186   6.714   5.813
  749TIP3   OH2 2210   5.905   3.850   5.946
  749TIP3    H1 2211   5.876   3.909   5.876
  749TIP3    H2 2212   5.914   3.765   5.904
  750TIP3   OH2 2213   6.352   6.426   2.367
  750TIP3    H1 2214   6.418   6.383   2.312
  750TIP3    H2 2215   6.308   6.487   2.307
  751TIP3   OH2 2216   4.946   1.004   1.670
  751TIP3    H1 2217   4.967   0.913   1.647
  751TIP3    H2 2218   4.970   1.011   1.762
  752TIP3   OH2 2219   2.103   1.678   2.988
  752TIP3    H1 2220   2.066   1.607   3.041
  752TIP3    H2 2221   2.178   1.639   2.944
  753TIP3   OH2 2222   2.052   5.166   5.544
  753TIP3    H1 2223   2.122   5.152   5.481
  753TIP3    H2 2224   1.990   5.094   5.527
  754TIP3   OH2 2225   3.264   1.753   5.500
  754TIP3    H1 2226   3.281   1.797   5.417
  754TIP3    H2 2227   3.185   1.795   5.534
  755TIP3   OH2 2228   0.311   0.841   1.715
  755TIP3    H1 2229   0.357   0.794   1.785
  755TIP3    H2 2230   0.233   0.876   1.757
  756TIP3   OH2 2231   1.453   6.813   4.948
  756TIP3    H1 2232   1.438   6.719   4.936
  756TIP3    H2 2233   1.370   6.846   4.983
  757TIP3   OH2 2234   5.376   4.286   0.611
  757TIP3    H1 2235   5.438   4.242   0.669
  757TIP3    H2 2236   5.318   4.335   0.670
  758TIP3   OH2 2237   3.288   2.426   5.201
  758TIP3    H1 2238   3.243   2.409   5.284
  758TIP3    H2 2239   3.359   2.362   5.200
  759TIP3   OH2 2240   6.245   2.314   1.985
  759TIP3    H1 2241   6.328   2.349   1.954
  759TIP3    H2 2242   6.205   2.385   2.035
  760TIP3   OH2 2243   1.967   2.572   0.258
  760TIP3    H1 2244   1.883   2.531   0.280
  760TIP3    H2 2245   1.983   2.546   0.168
  761TIP3   OH2 2246   3.322   0.792   4.084
  761TIP3    H1 2247   3.316   0.814   3.991
  761TIP3    H2 2248   3.231   0.783   4.113
  762TIP3   OH2 2249   2.805   0.782   5.034
  762TIP3    H1 2250   2.802   0.864   5.083
  762TIP3    H2 2251   2.714   0.767   5.008
  763TIP3   OH2 2252   2.327   2.915   5.051
  763TIP3    H1 2253   2.243   2.880   5.021
  763TIP3    H2 2254   2.390   2.884   4.986
  764TIP3   OH2 2255   3.975   3.981   1.151
  764TIP3    H1 2256   3.973   4.065   1.197
  764TIP3    H2 2257   4.032   3.997   1.075
  765TIP3   OH2 2258   4.056   5.797   3.640
  765TIP3    H1 2259   4.145   5.823   3.662
  765TIP3    H2 2260   4.002   5.840   3.707
  766TIP3   OH2 2261   2.431   3.913   4.506
  766TIP3    H1 2262   2.427   3.821   4.532
  766TIP3    H2 2263   2.480   3.956   4.576
  767TIP3   OH2 2264   0.699   4.339   4.862
  767TIP3    H1 2265   0.605   4.322   4.860
  767TIP3    H2 2266   0.715   4.374   4.949
  768TIP3   OH2 2267   2.065   0.256   1.300
  768TIP3    H1 2268   2.130   0.237   1.232
  768TIP3    H2 2269   2.107   0.321   1.356
  769TIP3   OH2 2270   6.969   4.909   1.851
  769TIP3    H1 2271   7.044   4.855   1.875
  769TIP3    H2 2272   6.950   4.961   1.930
  770TIP3   OH2 2273   6.566   1.283   0.367
  770TIP3    H1 2274   6.626   1.347   0.326
  770TIP3    H2 2275   6.548   1.319   0.453
  771TIP3   OH2 2276   6.251   5.772   5.172
  771TIP3    H1 2277   6.270   5.783   5.265
  771TIP3    H2 2278   6.333   5.740   5.134
  772TIP3   OH2 2279   0.601   3.802   0.041
  772TIP3    H1 2280   0.511   3.780   0.066
  772TIP3    H2 2281   0.655   3.746   0.097
  773TIP3   OH2 2282   0.355   4.350   3.190
  773TIP3    H1 2283   0.271   4.351   3.144
  773TIP3    H2 2284   0.354   4.430   3.243
  774TIP3   OH2 2285   6.431   5.232   1.105
  774TIP3    H1 2286   6.390   5.306   1.149
  774TIP3    H2 2287   6.369   5.206   1.037
  775TIP3   OH2 2288   3.745   4.441   4.818
  775TIP3    H1 2289   3.763   4.531   4.844
  775TIP3    H2 2290   3.832   4.401   4.811
  776TIP3   OH2 2291   3.520   3.285   0.854
  776TIP3    H1 2292   3.568   3.228   0.914
  776TIP3    H2 2293   3.584   3.309   0.786
  777TIP3   OH2 2294   4.553   3.924   3.727
  777TIP3    H1 2295   4.522   3.867   3.657
  777TIP3    H2 2296   4.552   3.869   3.805
  778TIP3   OH2 2297   3.328   3.707   1.719
  778TIP3    H1 2298   3.357   3.640   1.781
  778TIP3    H2 2299   3.233   3.698   1.717
  779TIP3   OH2 2300   1.402   1.542   4.598
  779TIP3    H1 2301   1.311   1.513   4.587
  779TIP3    H2 2302   1.400   1.636   4.580
  780TIP3   OH2 2303   2.273   2.175   4.351
  780TIP3    H1 2304   2.186   2.180   4.312
  780TIP3    H2 2305   2.330   2.146   4.280
  781TIP3   OH2 2306   2.473   4.391   3.564
  781TIP3    H1 2307   2.511   4.327   3.624
  781TIP3    H2 2308   2.535   4.464   3.566
  782TIP3   OH2 2309   4.198   4.132   5.057
  782TIP3    H1 2310   4.194   4.135   5.153
  782TIP3    H2 2311   4.107   4.120   5.030
  783TIP3   OH2 2312   3.924   2.394   1.178
  783TIP3    H1 2313   3.881   2.480   1.170
  783TIP3    H2 2314   3.966   2.380   1.093
  784TIP3   OH2 2315   0.596   0.456   1.984
  784TIP3    H1 2316   0.555   0.369   1.993
  784TIP3    H2 2317   0.641   0.452   1.900
  785TIP3   OH2 2318   2.982   4.575   5.281
  785TIP3    H1 2319   2.923   4.555   5.354
  785TIP3    H2 2320   2.928   4.568   5.203
  786TIP3   OH2 2321   4.572   0.475   3.507
  786TIP3    H1 2322   4.657   0.505   3.475
  786TIP3    H2 2323   4.593   0.400   3.563
  787TIP3   OH2 2324   0.607   5.490   3.274
  787TIP3    H1 2325   0.609   5.433   3.352
  787TIP3    H2 2326   0.610   5.429   3.200
  788TIP3   OH2 2327   6.528   1.365   5.532
  788TIP3    H1 2328   6.618   1.389   5.508
  788TIP3    H2 2329   6.475   1.440   5.504
  789TIP3   OH2 2330   5.844   3.829   4.910
  789TIP3    H1 2331   5.831   3.810   4.817
  789TIP3    H2 2332   5.799   3.912   4.923
  790TIP3   OH2 2333   0.293   6.697   5.048
  790TIP3    H1 2334   0.207   6.728   5.018
  790TIP3    H2 2335   0.356   6.753   5.002
  791TIP3   OH2 2336   2.610   5.936   0.285
  791TIP3    H1 2337   2.673   5.984   0.232
  791TIP3    H2 2338   2.551   6.003   0.320
  792TIP3   OH2 2339   5.692   2.286   0.026
  792TIP3    H1 2340   5.653   2.269  -0.060
  792TIP3    H2 2341   5.620   2.319   0.079
  793TIP3   OH2 2342   7.058   2.395   4.230
  793TIP3    H1 2343   6.975   2.404   4.277
  793TIP3    H2 2344   7.033   2.368   4.142
  794TIP3   OH2 2345   0.587   5.266   3.489
  794TIP3    H1 2346   0.644   5.315   3.549
  794TIP3    H2 2347   0.550   5.196   3.543
  795TIP3   OH2 2348   7.076   5.975   5.407
  795TIP3    H1 2349   7.124   6.042   5.456
  795TIP3    H2 2350   7.027   6.025   5.341
  796TIP3   OH2 2351   5.603   5.185   5.715
  796TIP3    H1 2352   5.522   5.161   5.670
  796TIP3    H2 2353   5.670   5.183   5.646
  797TIP3   OH2 2354   1.714   4.962   2.523
  797TIP3    H1 2355   1.697   4.956   2.617
  797TIP3    H2 2356   1.629   4.951   2.482
  798TIP3   OH2 2357   0.140   4.537   2.457
  798TIP3    H1 2358   0.228   4.552   2.422
  798TIP3    H2 2359   0.132   4.600   2.529
  799TIP3   OH2 2360   6.469   4.599   4.528
  799TIP3    H1 2361   6.421   4.519   4.549
  799TIP3    H2 2362   6.497   4.633   4.613
  800TIP3   OH2 2363   0.871   0.060   1.911
  800TIP3    H1 2364   0.785   0.024   1.890
  800TIP3    H2 2365   0.889   0.122   1.840
  801TIP3   OH2 2366   1.939   0.207   0.958
  801TIP3    H1 2367   2.027   0.184   0.986
  801TIP3    H2 2368   1.952   0.268   0.885
  802TIP3   OH2 2369   3.648   2.195   0.075
  802TIP3    H1 2370   3.626   2.255   0.004
  802TIP3    H2 2371   3.671   2.252   0.149
  803TIP3   OH2 2372   2.397   4.852   5.542
  803TIP3    H1 2373   2.479   4.861   5.592
  803TIP3    H2 2374   2.386   4.758   5.532
  804TIP3   OH2 2375   6.008   5.162   3.818
  804TIP3    H1 2376   5.935   5.220   3.836
  804TIP3    H2 2377   6.032   5.126   3.903
  805TIP3   OH2 2378   5.607   5.875   3.232
  805TIP3    H1 2379   5.651   5.821   3.298
  805TIP3    H2 2380   5.663   5.952   3.223
  806TIP3   OH2 2381   2.603   5.068   5.033
  806TIP3    H1 2382   2.564   4.992   4.990
  806TIP3    H2 2383   2.617   5.131   4.963
  807TIP3   OH2 2384   5.948   5.846   0.028
  807TIP3    H1 2385   5.948   5.778   0.095
  807TIP3    H2 2386   6.018   5.821  -0.033
  808TIP3   OH2 2387   5.535   6.506   0.900
  808TIP3    H1 2388   5.588   6.501   0.980
  808TIP3    H2 2389   5.528   6.600   0.883
  809TIP3   OH2 2390   5.021   4.577   4.894
  809TIP3    H1 2391   4.934   4.590   4.932
  809TIP3    H2 2392   5.047   4.489   4.922
  810TIP3   OH2 2393   6.258   5.634   2.788
  810TIP3    H1 2394   6.306   5.552   2.799
  810TIP3    H2 2395   6.315   5.688   2.733
  811TIP3   OH2 2396   6.104   0.618   1.213
  811TIP3    H1 2397   6.054   0.697   1.233
  811TIP3    H2 2398   6.179   0.621   1.272
  812TIP3   OH2 2399   1.333   4.188   2.289
  812TIP3    H1 2400   1.328   4.284   2.290
  812TIP3    H2 2401   1.274   4.162   2.360
  813TIP3   OH2 2402   4.611   2.552   5.047
  813TIP3    H1 2403   4.664   2.609   5.103
  813TIP3    H2 2404   4.646   2.464   5.062
  814TIP3   OH2 2405   4.663   6.074   2.432
  814TIP3    H1 2406   4.643   6.167   2.444
  814TIP3    H2 2407   4.662   6.037   2.520
  815TIP3   OH2 2408   6.899   2.636   4.574
  815TIP3    H1 2409   6.913   2.701   4.505
  815TIP3    H2 2410   6.960   2.661   4.643
  816TIP3   OH2 2411   0.870   4.822   0.529
  816TIP3    H1 2412   0.933   4.759   0.495
  816TIP3    H2 2413   0.785   4.793   0.494
  817TIP3   OH2 2414   4.972   3.618   2.381
  817TIP3    H1 2415   5.005   3.639   2.469
  817TIP3    H2 2416   4.882   3.650   2.381
  818TIP3   OH2 2417   4.811   1.077   5.159
  818TIP3    H1 2418   4.716   1.092   5.152
  818TIP3    H2 2419   4.826   0.999   5.106
  819TIP3   OH2 2420   4.754   5.982   3.587
  819TIP3    H1 2421   4.819   6.031   3.637
  819TIP3    H2 2422   4.802   5.910   3.548
  820TIP3   OH2 2423   6.634   1.320   2.121
  820TIP3    H1 2424   6.671   1.232   2.122
  820TIP3    H2 2425   6.680   1.365   2.049
  821TIP3   OH2 2426   0.363   3.604   2.314
  821TIP3    H1 2427   0.351   3.674   2.379
  821TIP3    H2 2428   0.299   3.538   2.338
  822TIP3   OH2 2429   2.615   0.294   4.726
  822TIP3    H1 2430   2.691   0.346   4.700
  822TIP3    H2 2431   2.557   0.355   4.772
  823TIP3   OH2 2432   1.429   6.459   2.985
  823TIP3    H1 2433   1.403   6.548   2.963
  823TIP3    H2 2434   1.408   6.407   2.907
  824TIP3   OH2 2435   0.613   4.746   1.195
  824TIP3    H1 2436   0.532   4.750   1.144
  824TIP3    H2 2437   0.653   4.663   1.171
  825TIP3   OH2 2438   6.623   3.128   3.892
  825TIP3    H1 2439   6.672   3.197   3.846
  825TIP3    H2 2440   6.619   3.158   3.982
  826TIP3   OH2 2441   5.134   3.878   2.813
  826TIP3    H1 2442   5.147   3.866   2.719
  826TIP3    H2 2443   5.222   3.890   2.848
  827TIP3   OH2 2444   0.506   6.401   3.545
  827TIP3    H1 2445   0.487   6.495   3.547
  827TIP3    H2 2446   0.421   6.360   3.529
  828TIP3   OH2 2447   1.481   1.038   3.922
  828TIP3    H1 2448   1.570   1.056   3.953
  828TIP3    H2 2449   1.461   1.110   3.863
  829TIP3   OH2 2450   5.593   4.152   3.534
  829TIP3    H1 2451   5.591   4.182   3.443
  829TIP3    H2 2452   5.632   4.065   3.530
  830TIP3   OH2 2453   5.604   3.585   2.161
  830TIP3    H1 2454   5.530   3.627   2.206
  830TIP3    H2 2455   5.567   3.504   2.127
  831TIP3   OH2 2456   0.358   1.917   1.552
  831TIP3    H1 2457   0.346   1.822   1.554
  831TIP3    H2 2458   0.335   1.942   1.463
  832TIP3   OH2 2459   6.249   4.324   3.849
  832TIP3    H1 2460   6.279   4.305   3.938
  832TIP3    H2 2461   6.241   4.419   3.846
  833TIP3   OH2 2462   6.080   2.869   0.083
  833TIP3    H1 2463   6.089   2.964   0.070
  833TIP3    H2 2464   6.069   2.860   0.178
  834TIP3   OH2 2465   0.645   5.235   2.450
  834TIP3    H1 2466   0.565   5.255   2.400
  834TIP3    H2 2467   0.663   5.143   2.430
  835TIP3   OH2 2468   2.422   0.098   1.604
  835TIP3    H1 2469   2.355   0.064   1.546
  835TIP3    H2 2470   2.403   0.059   1.689
  836TIP3   OH2 2471   4.149   2.006   2.898
  836TIP3    H1 2472   4.098   1.961   2.965
  836TIP3    H2 2473   4.220   2.048   2.946
  837TIP3   OH2 2474   2.756   1.809   0.794
  837TIP3    H1 2475   2.709   1.888   0.819
  837TIP3    H2 2476   2.703   1.770   0.724
  838TIP3   OH2 2477   1.026   2.247   1.076
  838TIP3    H1 2478   0.947   2.193   1.079
  838TIP3    H2 2479   0.994   2.337   1.079
  839TIP3   OH2 2480   7.068   0.097   2.715
  839TIP3    H1 2481   7.155   0.058   2.729
  839TIP3    H2 2482   7.051   0.086   2.622
  840TIP3   OH2 2483   0.553   6.016   0.590
  840TIP3    H1 2484   0.554   6.015   0.494
  840TIP3    H2 2485   0.585   6.103   0.613
  841TIP3   OH2 2486   5.476   3.078   3.716
  841TIP3    H1 2487   5.387   3.059   3.687
  841TIP3    H2 2488   5.471   3.167   3.752
  842TIP3   OH2 2489   2.606   3.634   0.778
  842TIP3    H1 2490   2.522   3.627   0.824
  842TIP3    H2 2491   2.604   3.721   0.738
  843TIP3   OH2 2492   3.163   1.916   3.693
  843TIP3    H1 2493   3.258   1.904   3.697
  843TIP3    H2 2494   3.132   1.889   3.779
  844TIP3   OH2 2495   3.016   1.738   5.205
  844TIP3    H1 2496   2.971   1.795   5.143
  844TIP3    H2 2497   3.062   1.675   5.149
  845TIP3   OH2 2498   5.156   4.308   0.224
  845TIP3    H1 2499   5.106   4.321   0.143
  845TIP3    H2 2500   5.187   4.396   0.247
  846TIP3   OH2 2501   2.597   0.615   1.837
  846TIP3    H1 2502   2.502   0.625   1.846
  846TIP3    H2 2503   2.627   0.596   1.926
  847TIP3   OH2 2504   0.708   4.972   5.816
  847TIP3    H1 2505   0.749   4.911   5.755
  847TIP3    H2 2506   0.623   4.993   5.777
  848TIP3   OH2 2507   2.406   5.554   2.465
  848TIP3    H1 2508   2.430   5.626   2.524
  848TIP3    H2 2509   2.432   5.586   2.378
  849TIP3   OH2 2510   5.905   5.087   5.673
  849TIP3    H1 2511   5.981   5.141   5.694
  849TIP3    H2 2512   5.901   5.088   5.577
  850TIP3   OH2 2513   7.209   3.832   2.734
  850TIP3    H1 2514   7.163   3.865   2.811
  850TIP3    H2 2515   7.152   3.761   2.701
  851TIP3   OH2 2516   7.106   4.421   1.322
  851TIP3    H1 2517   7.071   4.337   1.350
  851TIP3    H2 2518   7.186   4.399   1.273
  852TIP3   OH2 2519   6.662   6.365   4.827
  852TIP3    H1 2520   6.724   6.293   4.813
  852TIP3    H2 2521   6.577   6.321   4.835
  853TIP3   OH2 2522   6.281   6.191   0.589
  853TIP3    H1 2523   6.289   6.123   0.522
  853TIP3    H2 2524   6.267   6.143   0.671
  854TIP3   OH2 2525   2.120   5.078   2.654
  854TIP3    H1 2526   2.141   4.987   2.674
  854TIP3    H2 2527   2.076   5.110   2.733
  855TIP3   OH2 2528   4.208   2.907   4.667
  855TIP3    H1 2529   4.146   2.980   4.663
  855TIP3    H2 2530   4.274   2.927   4.601
  856TIP3   OH2 2531   6.047   0.359   1.336
  856TIP3    H1 2532   6.008   0.276   1.309
  856TIP3    H2 2533   6.053   0.410   1.256
  857TIP3   OH2 2534   5.929   1.940   0.063
  857TIP3    H1 2535   5.989   2.015   0.056
  857TIP3    H2 2536   5.975   1.878   0.120
  858TIP3   OH2 2537   0.113   4.598   0.297
  858TIP3    H1 2538   0.048   4.649   0.250
  858TIP3    H2 2539   0.097   4.507   0.270
  859TIP3   OH2 2540   1.342   6.684   3.435
  859TIP3    H1 2541   1.307   6.596   3.450
  859TIP3    H2 2542   1.338   6.696   3.340
  860TIP3   OH2 2543   1.025   6.421   5.341
  860TIP3    H1 2544   0.998   6.410   5.250
  860TIP3    H2 2545   0.976   6.498   5.371
  861TIP3   OH2 2546   2.754   3.309   2.156
  861TIP3    H1 2547   2.728   3.351   2.075
  861TIP3    H2 2548   2.773   3.219   2.132
  862TIP3   OH2 2549   0.313   6.510   3.933
  862TIP3    H1 2550   0.349   6.432   3.891
  862TIP3    H2 2551   0.364   6.582   3.897
  863TIP3   OH2 2552   1.289   6.225   4.950
  863TIP3    H1 2553   1.303   6.280   5.027
  863TIP3    H2 2554   1.295   6.285   4.875
  864TIP3   OH2 2555   2.314   1.197   2.630
  864TIP3    H1 2556   2.281   1.220   2.544
  864TIP3    H2 2557   2.390   1.254   2.643
  865TIP3   OH2 2558   6.450   2.599   5.628
  865TIP3    H1 2559   6.509   2.673   5.613
  865TIP3    H2 2560   6.509   2.523   5.636
  866TIP3   OH2 2561   6.368   5.084   2.092
  866TIP3    H1 2562   6.350   5.098   1.999
  866TIP3    H2 2563   6.307   5.016   2.119
  867TIP3   OH2 2564   1.237   3.002   3.989
  867TIP3    H1 2565   1.281   2.924   3.956
  867TIP3    H2 2566   1.199   3.043   3.911
  868TIP3   OH2 2567   2.599   4.553   3.791
  868TIP3    H1 2568   2.540   4.620   3.827
  868TIP3    H2 2569   2.623   4.587   3.704
  869TIP3   OH2 2570   0.198   1.086   1.452
  869TIP3    H1 2571   0.243   1.006   1.426
  869TIP3    H2 2572   0.247   1.156   1.410
  870TIP3   OH2 2573   3.665   6.315   1.075
  870TIP3    H1 2574   3.607   6.349   1.143
  870TIP3    H2 2575   3.753   6.323   1.113
  871TIP3   OH2 2576   4.225   2.931   0.790
  871TIP3    H1 2577   4.214   2.928   0.695
  871TIP3    H2 2578   4.272   3.013   0.806
  872TIP3   OH2 2579   3.023   5.336   1.990
  872TIP3    H1 2580   3.091   5.269   1.995
  872TIP3    H2 2581   3.050   5.401   2.056
  873TIP3   OH2 2582   3.518   4.937   4.530
  873TIP3    H1 2583   3.507   4.955   4.437
  873TIP3    H2 2584   3.577   4.862   4.533
  874TIP3   OH2 2585   6.003   6.318   4.265
  874TIP3    H1 2586   5.946   6.309   4.188
  874TIP3    H2 2587   6.084   6.355   4.231
  875TIP3   OH2 2588   2.519   5.063   2.997
  875TIP3    H1 2589   2.535   4.993   3.061
  875TIP3    H2 2590   2.538   5.023   2.912
  876TIP3   OH2 2591   4.270   1.407   3.602
  876TIP3    H1 2592   4.251   1.348   3.528
  876TIP3    H2 2593   4.218   1.373   3.674
  877TIP3   OH2 2594   5.907   1.906   1.841
  877TIP3    H1 2595   5.831   1.923   1.896
  877TIP3    H2 2596   5.960   1.844   1.891
  878TIP3   OH2 2597   7.127   6.259   1.467
  878TIP3    H1 2598   7.048   6.226   1.426
  878TIP3    H2 2599   7.109   6.253   1.561
  879TIP3   OH2 2600   6.849   0.316   4.378
  879TIP3    H1 2601   6.782   0.298   4.313
  879TIP3    H2 2602   6.929   0.280   4.341
  880TIP3   OH2 2603   3.820   0.140   3.536
  880TIP3    H1 2604   3.892   0.165   3.478
  880TIP3    H2 2605   3.805   0.048   3.517
  881TIP3   OH2 2606   1.159   0.170   2.558
  881TIP3    H1 2607   1.194   0.199   2.474
  881TIP3    H2 2608   1.071   0.207   2.562
  882TIP3   OH2 2609   3.219   0.521   2.894
  882TIP3    H1 2610   3.195   0.510   2.986
  882TIP3    H2 2611   3.256   0.436   2.869
  883TIP3   OH2 2612   6.752   4.633   5.435
  883TIP3    H1 2613   6.732   4.553   5.385
  883TIP3    H2 2614   6.708   4.619   5.519
  884TIP3   OH2 2615   4.832   4.012   2.223
  884TIP3    H1 2616   4.922   4.000   2.252
  884TIP3    H2 2617   4.782   4.027   2.304
  885TIP3   OH2 2618   5.741   0.423   1.452
  885TIP3    H1 2619   5.678   0.421   1.525
  885TIP3    H2 2620   5.803   0.353   1.472
  886TIP3   OH2 2621   0.745   1.245   0.747
  886TIP3    H1 2622   0.807   1.281   0.811
  886TIP3    H2 2623   0.659   1.272   0.779
  887TIP3   OH2 2624   0.422   0.457   4.037
  887TIP3    H1 2625   0.499   0.495   3.995
  887TIP3    H2 2626   0.458   0.392   4.097
  888TIP3   OH2 2627   6.545   2.839   4.004
  888TIP3    H1 2628   6.572   2.927   3.979
  888TIP3    H2 2629   6.449   2.842   4.002
  889TIP3   OH2 2630   4.729   3.462   4.885
  889TIP3    H1 2631   4.782   3.434   4.959
  889TIP3    H2 2632   4.638   3.446   4.913
  890TIP3   OH2 2633   0.327   3.165   4.968
  890TIP3    H1 2634   0.359   3.124   4.888
  890TIP3    H2 2635   0.376   3.121   5.038
  891TIP3   OH2 2636   1.526   2.207   3.377
  891TIP3    H1 2637   1.525   2.264   3.454
  891TIP3    H2 2638   1.619   2.201   3.353
  892TIP3   OH2 2639   1.840   0.336   2.836
  892TIP3    H1 2640   1.815   0.287   2.758
  892TIP3    H2 2641   1.757   0.369   2.872
  893TIP3   OH2 2642   1.046   1.939   2.839
  893TIP3    H1 2643   0.954   1.952   2.814
  893TIP3    H2 2644   1.096   1.969   2.763
  894TIP3   OH2 2645   0.806   0.570   4.655
  894TIP3    H1 2646   0.727   0.611   4.619
  894TIP3    H2 2647   0.859   0.549   4.578
  895TIP3   OH2 2648   6.033   4.772   5.179
  895TIP3    H1 2649   6.097   4.820   5.128
  895TIP3    H2 2650   6.026   4.821   5.261
  896TIP3   OH2 2651   6.974   3.615   4.441
  896TIP3    H1 2652   6.919   3.692   4.454
  896TIP3    H2 2653   6.920   3.541   4.470
  897TIP3   OH2 2654   2.297   5.260   3.614
  897TIP3    H1 2655   2.278   5.314   3.537
  897TIP3    H2 2656   2.383   5.290   3.643
  898TIP3   OH2 2657   3.701   2.732   1.646
  898TIP3    H1 2658   3.701   2.724   1.742
  898TIP3    H2 2659   3.629   2.675   1.618
  899TIP3   OH2 2660   5.114   0.925   3.056
  899TIP3    H1 2661   5.176   0.997   3.063
  899TIP3    H2 2662   5.048   0.955   2.993
  900TIP3   OH2 2663   0.497   4.432   4.566
  900TIP3    H1 2664   0.480   4.399   4.654
  900TIP3    H2 2665   0.586   4.468   4.571
  901TIP3   OH2 2666   6.119   0.428   0.999
  901TIP3    H1 2667   6.031   0.398   0.978
  901TIP3    H2 2668   6.105   0.506   1.054
  902TIP3   OH2 2669   6.514   2.181   1.242
  902TIP3    H1 2670   6.421   2.165   1.261
  902TIP3    H2 2671   6.560   2.138   1.314
  903TIP3   OH2 2672   7.095   6.109   4.783
  903TIP3    H1 2673   7.176   6.080   4.824
  903TIP3    H2 2674   7.111   6.099   4.689
  904TIP3   OH2 2675   5.440   0.591   4.951
  904TIP3    H1 2676   5.371   0.636   5.000
  904TIP3    H2 2677   5.400   0.509   4.924
  905TIP3   OH2 2678   3.141   4.011   1.123
  905TIP3    H1 2679   3.226   3.970   1.105
  905TIP3    H2 2680   3.079   3.938   1.122
  906TIP3   OH2 2681   6.109   0.032   2.443
  906TIP3    H1 2682   6.029   0.023   2.391
  906TIP3    H2 2683   6.153   0.109   2.406
  907TIP3   OH2 2684   4.491   1.883   0.629
  907TIP3    H1 2685   4.458   1.854   0.714
  907TIP3    H2 2686   4.488   1.805   0.574
  908TIP3   OH2 2687   0.952   5.855   0.188
  908TIP3    H1 2688   0.919   5.797   0.119
  908TIP3    H2 2689   0.913   5.940   0.170
  909TIP3   OH2 2690   5.441   4.354   4.520
  909TIP3    H1 2691   5.504   4.310   4.463
  909TIP3    H2 2692   5.386   4.404   4.460
  910TIP3   OH2 2693   4.301   0.349   3.453
  910TIP3    H1 2694   4.385   0.393   3.463
  910TIP3    H2 2695   4.238   0.420   3.439
  911TIP3   OH2 2696   3.979   5.085   5.765
  911TIP3    H1 2697   3.896   5.078   5.718
  911TIP3    H2 2698   4.044   5.095   5.696
  912TIP3   OH2 2699   2.489   0.928   1.497
  912TIP3    H1 2700   2.477   0.981   1.418
  912TIP3    H2 2701   2.540   0.853   1.468
  913TIP3   OH2 2702   5.137   6.700   3.079
  913TIP3    H1 2703   5.071   6.769   3.067
  913TIP3    H2 2704   5.105   6.651   3.155
  914TIP3   OH2 2705   0.890   3.007   1.814
  914TIP3    H1 2706   0.935   3.091   1.821
  914TIP3    H2 2707   0.931   2.963   1.740
  915TIP3   OH2 2708   0.525   1.569   4.090
  915TIP3    H1 2709   0.467   1.506   4.046
  915TIP3    H2 2710   0.543   1.530   4.175
  916TIP3   OH2 2711   1.645   3.811   4.095
  916TIP3    H1 2712   1.566   3.778   4.052
  916TIP3    H2 2713   1.698   3.847   4.025
  917TIP3   OH2 2714   5.362   3.631   3.124
  917TIP3    H1 2715   5.449   3.662   3.151
  917TIP3    H2 2716   5.349   3.550   3.173
  918TIP3   OH2 2717   1.309   5.984   1.832
  918TIP3    H1 2718   1.322   5.895   1.866
  918TIP3    H2 2719   1.372   6.037   1.880
  919TIP3   OH2 2720   0.216   0.833   5.192
  919TIP3    H1 2721   0.266   0.767   5.241
  919TIP3    H2 2722   0.166   0.879   5.259
  920TIP3   OH2 2723   5.790   6.333   3.440
  920TIP3    H1 2724   5.762   6.368   3.524
  920TIP3    H2 2725   5.802   6.410   3.384
  921TIP3   OH2 2726   5.573   3.042   3.043
  921TIP3    H1 2727   5.598   3.026   2.952
  921TIP3    H2 2728   5.558   2.955   3.079
  922TIP3   OH2 2729   3.613   3.051   4.030
  922TIP3    H1 2730   3.703   3.044   4.062
  922TIP3    H2 2731   3.606   3.140   3.997
  923TIP3   OH2 2732   4.435   4.111   0.899
  923TIP3    H1 2733   4.505   4.170   0.926
  923TIP3    H2 2734   4.399   4.151   0.819
  924TIP3   OH2 2735   6.210   3.524   0.615
  924TIP3    H1 2736   6.175   3.591   0.556
  924TIP3    H2 2737   6.203   3.443   0.565
  925TIP3   OH2 2738   1.807   1.951   4.465
  925TIP3    H1 2739   1.802   2.047   4.468
  925TIP3    H2 2740   1.836   1.927   4.553
  926TIP3   OH2 2741   0.620   0.206   3.010
  926TIP3    H1 2742   0.526   0.191   3.018
  926TIP3    H2 2743   0.660   0.120   3.021
  927TIP3   OH2 2744   1.997   5.897   4.666
  927TIP3    H1 2745   2.024   5.904   4.757
  927TIP3    H2 2746   2.025   5.809   4.639
  928TIP3   OH2 2747   0.880   3.253   2.669
  928TIP3    H1 2748   0.853   3.273   2.579
  928TIP3    H2 2749   0.876   3.338   2.714
  929TIP3   OH2 2750   6.591   6.121   5.142
  929TIP3    H1 2751   6.609   6.083   5.056
  929TIP3    H2 2752   6.503   6.158   5.134
  930TIP3   OH2 2753   6.441   6.299   0.992
  930TIP3    H1 2754   6.523   6.295   0.943
  930TIP3    H2 2755   6.452   6.374   1.050
  931TIP3   OH2 2756   6.553   0.666   1.172
  931TIP3    H1 2757   6.543   0.713   1.254
  931TIP3    H2 2758   6.632   0.614   1.183
  932TIP3   OH2 2759   4.946   2.704   0.733
  932TIP3    H1 2760   4.970   2.692   0.824
  932TIP3    H2 2761   4.899   2.624   0.710
  933TIP3   OH2 2762   3.034   4.709   1.071
  933TIP3    H1 2763   3.058   4.778   1.132
  933TIP3    H2 2764   2.938   4.710   1.070
  934TIP3   OH2 2765   0.100   0.226   5.685
  934TIP3    H1 2766   0.171   0.178   5.642
  934TIP3    H2 2767   0.120   0.220   5.778
  935TIP3   OH2 2768   3.949   3.347   4.539
  935TIP3    H1 2769   3.857   3.326   4.557
  935TIP3    H2 2770   3.945   3.423   4.480
  936TIP3   OH2 2771   0.589   2.365   0.807
  936TIP3    H1 2772   0.502   2.325   0.809
  936TIP3    H2 2773   0.574   2.455   0.836
  937TIP3   OH2 2774   2.024   3.466   3.830
  937TIP3    H1 2775   2.078   3.387   3.833
  937TIP3    H2 2776   2.084   3.536   3.858
  938TIP3   OH2 2777   3.052   5.535   4.084
  938TIP3    H1 2778   3.003   5.597   4.138
  938TIP3    H2 2779   3.082   5.588   4.009
  939TIP3   OH2 2780   6.403   3.450   5.243
  939TIP3    H1 2781   6.454   3.503   5.181
  939TIP3    H2 2782   6.356   3.515   5.296
  940TIP3   OH2 2783   5.197   3.650   5.265
  940TIP3    H1 2784   5.145   3.571   5.275
  940TIP3    H2 2785   5.151   3.716   5.317
  941TIP3   OH2 2786   4.169   1.119   0.748
  941TIP3    H1 2787   4.258   1.149   0.726
  941TIP3    H2 2788   4.180   1.069   0.828
  942TIP3   OH2 2789   6.467   4.854   5.762
  942TIP3    H1 2790   6.546   4.846   5.814
  942TIP3    H2 2791   6.401   4.804   5.810
  943TIP3   OH2 2792   1.027   1.972   4.471
  943TIP3    H1 2793   1.053   1.895   4.419
  943TIP3    H2 2794   0.935   1.955   4.493
  944TIP3   OH2 2795   1.305   3.328   4.972
  944TIP3    H1 2796   1.232   3.352   5.030
  944TIP3    H2 2797   1.378   3.312   5.031
  945TIP3   OH2 2798   5.942   4.171   2.910
  945TIP3    H1 2799   6.005   4.104   2.934
  945TIP3    H2 2800   5.972   4.251   2.953
  946TIP3   OH2 2801   2.347   4.809   3.675
  946TIP3    H1 2802   2.410   4.865   3.629
  946TIP3    H2 2803   2.391   4.787   3.757
  947TIP3   OH2 2804   1.095   0.993   1.063
  947TIP3    H1 2805   1.058   1.052   0.998
  947TIP3    H2 2806   1.022   0.937   1.089
  948TIP3   OH2 2807   7.156   2.507   5.436
  948TIP3    H1 2808   7.170   2.598   5.463
  948TIP3    H2 2809   7.192   2.502   5.348
  949TIP3   OH2 2810   2.991   0.343   3.370
  949TIP3    H1 2811   2.908   0.369   3.410
  949TIP3    H2 2812   3.057   0.365   3.435
  950TIP3   OH2 2813   2.122   2.585   1.115
  950TIP3    H1 2814   2.051   2.596   1.178
  950TIP3    H2 2815   2.201   2.583   1.168
  951TIP3   OH2 2816   1.369   3.202   2.677
  951TIP3    H1 2817   1.303   3.178   2.741
  951TIP3    H2 2818   1.441   3.239   2.728
  952TIP3   OH2 2819   6.578   5.805   1.004
  952TIP3    H1 2820   6.574   5.871   0.934
  952TIP3    H2 2821   6.669   5.775   1.004
  953TIP3   OH2 2822   0.887   2.124   1.338
  953TIP3    H1 2823   0.915   2.191   1.400
  953TIP3    H2 2824   0.962   2.066   1.330
  954TIP3   OH2 2825   3.432   1.700   0.239
  954TIP3    H1 2826   3.434   1.669   0.148
  954TIP3    H2 2827   3.457   1.792   0.233
  955TIP3   OH2 2828   3.847   2.669   5.350
  955TIP3    H1 2829   3.887   2.700   5.268
  955TIP3    H2 2830   3.904   2.598   5.379
  956TIP3   OH2 2831   6.203   0.433   3.146
  956TIP3    H1 2832   6.211   0.402   3.236
  956TIP3    H2 2833   6.266   0.381   3.097
  957TIP3   OH2 2834   4.775   0.652   4.380
  957TIP3    H1 2835   4.840   0.614   4.321
  957TIP3    H2 2836   4.816   0.649   4.466
  958TIP3   OH2 2837   1.227   6.113   5.620
  958TIP3    H1 2838   1.143   6.148   5.650
  958TIP3    H2 2839   1.212   6.089   5.528
  959TIP3   OH2 2840   0.111   3.617   4.892
  959TIP3    H1 2841   0.098   3.571   4.809
  959TIP3    H2 2842   0.194   3.663   4.880
  960TIP3   OH2 2843   3.754   4.604   1.405
  960TIP3    H1 2844   3.844   4.575   1.391
  960TIP3    H2 2845   3.724   4.632   1.318
  961TIP3   OH2 2846   2.079   5.185   1.815
  961TIP3    H1 2847   1.997   5.230   1.794
  961TIP3    H2 2848   2.147   5.244   1.782
  962TIP3   OH2 2849   1.536   0.061   1.221
  962TIP3    H1 2850   1.476   0.110   1.165
  962TIP3    H2 2851   1.480   0.020   1.287
  963TIP3   OH2 2852   4.811   0.309   1.548
  963TIP3    H1 2853   4.817   0.294   1.643
  963TIP3    H2 2854   4.772   0.396   1.540
  964TIP3   OH2 2855   0.465   6.124   1.737
  964TIP3    H1 2856   0.496   6.040   1.706
  964TIP3    H2 2857   0.374   6.108   1.762
  965TIP3   OH2 2858   4.861   5.441   4.523
  965TIP3    H1 2859   4.809   5.410   4.598
  965TIP3    H2 2860   4.860   5.367   4.462
  966TIP3   OH2 2861   2.720   0.922   2.084
  966TIP3    H1 2862   2.777   0.858   2.042
  966TIP3    H2 2863   2.779   0.980   2.131
  967TIP3   OH2 2864   4.262   0.166   4.805
  967TIP3    H1 2865   4.314   0.133   4.732
  967TIP3    H2 2866   4.212   0.239   4.768
  968TIP3   OH2 2867   6.577   0.122   0.455
  968TIP3    H1 2868   6.585   0.108   0.550
  968TIP3    H2 2869   6.604   0.038   0.417
  969TIP3   OH2 2870   6.934   6.277   1.984
  969TIP3    H1 2871   6.970   6.365   1.973
  969TIP3    H2 2872   6.855   6.276   1.930
  970TIP3   OH2 2873   6.110   2.796   5.164
  970TIP3    H1 2874   6.151   2.745   5.234
  970TIP3    H2 2875   6.119   2.887   5.193
  971TIP3   OH2 2876   0.295   1.834   3.480
  971TIP3    H1 2877   0.374   1.846   3.534
  971TIP3    H2 2878   0.287   1.916   3.431
  972TIP3   OH2 2879   1.576   1.771   2.572
  972TIP3    H1 2880   1.609   1.839   2.513
  972TIP3    H2 2881   1.651   1.748   2.627
  973TIP3   OH2 2882   6.000   5.859   2.638
  973TIP3    H1 2883   5.997   5.765   2.659
  973TIP3    H2 2884   6.010   5.862   2.543
  974TIP3   OH2 2885   3.426   6.634   1.048
  974TIP3    H1 2886   3.347   6.586   1.022
  974TIP3    H2 2887   3.424   6.713   0.994
  975TIP3   OH2 2888   1.026   3.259   0.877
  975TIP3    H1 2889   1.059   3.339   0.918
  975TIP3    H2 2890   0.945   3.240   0.924
  976TIP3   OH2 2891   7.015   4.512   4.822
  976TIP3    H1 2892   6.969   4.553   4.749
  976TIP3    H2 2893   7.063   4.440   4.782
  977TIP3   OH2 2894   5.029   5.002   1.449
  977TIP3    H1 2895   5.088   4.936   1.412
  977TIP3    H2 2896   5.050   5.082   1.402
  978TIP3   OH2 2897   3.904   4.639   0.708
  978TIP3    H1 2898   3.985   4.683   0.732
  978TIP3    H2 2899   3.895   4.653   0.614
  979TIP3   OH2 2900   6.469   0.125   2.760
  979TIP3    H1 2901   6.462   0.218   2.782
  979TIP3    H2 2902   6.402   0.111   2.693
  980TIP3   OH2 2903   6.733   1.514   5.133
  980TIP3    H1 2904   6.823   1.537   5.108
  980TIP3    H2 2905   6.707   1.584   5.193
  981TIP3   OH2 2906   3.067   5.944   3.739
  981TIP3    H1 2907   3.042   6.005   3.670
  981TIP3    H2 2908   3.061   5.858   3.699
  982TIP3   OH2 2909   7.013   0.028   4.560
  982TIP3    H1 2910   6.925   0.065   4.556
  982TIP3    H2 2911   7.027  -0.010   4.474
  983TIP3   OH2 2912   1.296   5.337   1.852
  983TIP3    H1 2913   1.367   5.385   1.895
  983TIP3    H2 2914   1.332   5.249   1.838
  984TIP3   OH2 2915   4.027   2.225   2.755
  984TIP3    H1 2916   4.088   2.189   2.819
  984TIP3    H2 2917   4.005   2.312   2.789
  985TIP3   OH2 2918   0.277   0.301   5.023
  985TIP3    H1 2919   0.363   0.342   5.011
  985TIP3    H2 2920   0.295   0.207   5.022
  986TIP3   OH2 2921   2.570   6.674   2.278
  986TIP3    H1 2922   2.617   6.677   2.194
  986TIP3    H2 2923   2.480   6.699   2.255
  987TIP3   OH2 2924   3.011   1.429   3.986
  987TIP3    H1 2925   2.940   1.379   4.026
  987TIP3    H2 2926   2.976   1.457   3.901
  988TIP3   OH2 2927   1.588   2.630   3.739
  988TIP3    H1 2928   1.545   2.698   3.687
  988TIP3    H2 2929   1.552   2.641   3.827
  989TIP3   OH2 2930   5.936   2.544   0.520
  989TIP3    H1 2931   5.852   2.587   0.538
  989TIP3    H2 2932   5.913   2.452   0.507
  990TIP3   OH2 2933   6.037   0.000   5.454
  990TIP3    H1 2934   5.952   0.023   5.493
  990TIP3    H2 2935   6.075   0.084   5.429
  991TIP3   OH2 2936   2.283   6.482   3.796
  991TIP3    H1 2937   2.365   6.436   3.776
  991TIP3    H2 2938   2.215   6.424   3.764
  992TIP3   OH2 2939   2.075   3.342   0.926
  992TIP3    H1 2940   2.045   3.271   0.870
  992TIP3    H2 2941   2.048   3.316   1.014
  993TIP3   OH2 2942   3.907   5.431   4.800
  993TIP3    H1 2943   3.944   5.398   4.718
  993TIP3    H2 2944   3.816   5.402   4.800
  994TIP3   OH2 2945   0.383   5.674   2.496
  994TIP3    H1 2946   0.367   5.767   2.511
  994TIP3    H2 2947   0.477   5.662   2.510
  995TIP3   OH2 2948   4.157   0.400   2.029
  995TIP3    H1 2949   4.216   0.324   2.034
  995TIP3    H2 2950   4.153   0.432   2.119
  996TIP3   OH2 2951   0.805   3.431   1.810
  996TIP3    H1 2952   0.829   3.394   1.725
  996TIP3    H2 2953   0.771   3.517   1.790
  997TIP3   OH2 2954   7.139   4.920   0.299
  997TIP3    H1 2955   7.127   5.015   0.292
  997TIP3    H2 2956   7.054   4.883   0.275
  998TIP3   OH2 2957   6.230   3.958   5.828
  998TIP3    H1 2958   6.206   3.943   5.736
  998TIP3    H2 2959   6.325   3.960   5.828
  999TIP3   OH2 2960   6.710   1.318   0.797
  999TIP3    H1 2961   6.707   1.358   0.884
  999TIP3    H2 2962   6.787   1.261   0.800
 1000TIP3   OH2 2963   2.328   0.578   1.841
 1000TIP3    H1 2964   2.354   0.498   1.795
 1000TIP3    H2 2965   2.262   0.549   1.904
 1001TIP3   OH2 2966   2.871   1.069   0.097
 1001TIP3    H1 2967   2.955   1.030   0.124
 1001TIP3    H2 2968   2.807   0.999   0.110
 1002TIP3   OH2 2969   1.898   4.169   3.913
 1002TIP3    H1 2970   1.854   4.135   3.991
 1002TIP3    H2 2971   1.831   4.168   3.845
 1003TIP3   OH2 2972   5.394   3.765   5.074
 1003TIP3    H1 2973   5.379   3.680   5.116
 1003TIP3    H2 2974   5.368   3.829   5.140
 1004TIP3   OH2 2975   2.595   3.648   1.137
 1004TIP3    H1 2976   2.644   3.665   1.217
 1004TIP3    H2 2977   2.656   3.599   1.081
 1005TIP3   OH2 2978   5.538   0.623   3.898
 1005TIP3    H1 2979   5.459   0.671   3.919
 1005TIP3    H2 2980   5.600   0.690   3.870
 1006TIP3   OH2 2981   4.266   0.703   0.443
 1006TIP3    H1 2982   4.298   0.701   0.533
 1006TIP3    H2 2983   4.194   0.766   0.445
 1007TIP3   OH2 2984   3.024   2.926   3.623
 1007TIP3    H1 2985   2.995   2.994   3.562
 1007TIP3    H2 2986   3.113   2.951   3.646
 1008TIP3   OH2 2987   1.456   0.827   5.276
 1008TIP3    H1 2988   1.492   0.827   5.364
 1008TIP3    H2 2989   1.500   0.900   5.232
 1009TIP3   OH2 2990   3.311   5.226   2.010
 1009TIP3    H1 2991   3.292   5.306   1.961
 1009TIP3    H2 2992   3.405   5.214   1.999
 1010TIP3   OH2 2993   5.358   5.563   1.349
 1010TIP3    H1 2994   5.435   5.592   1.299
 1010TIP3    H2 2995   5.367   5.468   1.354
 1011TIP3   OH2 2996   0.500   2.742   1.880
 1011TIP3    H1 2997   0.484   2.834   1.858
 1011TIP3    H2 2998   0.589   2.726   1.849
 1012TIP3   OH2 2999   7.159   1.652   4.281
 1012TIP3    H1 3000   7.156   1.714   4.208
 1012TIP3    H2 3001   7.252   1.639   4.297
 1013TIP3   OH2 3002   1.444   2.097   0.582
 1013TIP3    H1 3003   1.354   2.071   0.563
 1013TIP3    H2 3004   1.466   2.049   0.662
 1014TIP3   OH2 3005   0.177   6.683   2.234
 1014TIP3    H1 3006   0.190   6.778   2.232
 1014TIP3    H2 3007   0.156   6.660   2.144
 1015TIP3   OH2 3008   7.069   1.349  -0.046
 1015TIP3    H1 3009   7.124   1.331   0.030
 1015TIP3    H2 3010   7.129   1.385  -0.111
 1016TIP3   OH2 3011   1.061   3.798   3.102
 1016TIP3    H1 3012   1.037   3.852   3.027
 1016TIP3    H2 3013   1.122   3.734   3.067
 1017TIP3   OH2 3014   4.362   0.110   3.717
 1017TIP3    H1 3015   4.361   0.029   3.769
 1017TIP3    H2 3016   4.297   0.095   3.648
 1018TIP3   OH2 3017   5.099   4.378   1.562
 1018TIP3    H1 3018   5.068   4.287   1.559
 1018TIP3    H2 3019   5.065   4.411   1.645
 1019TIP3   OH2 3020   1.498   0.646   2.816
 1019TIP3    H1 3021   1.589   0.644   2.786
 1019TIP3    H2 3022   1.494   0.721   2.876
 1020TIP3   OH2 3023   2.297   5.729   2.964
 1020TIP3    H1 3024   2.284   5.643   3.002
 1020TIP3    H2 3025   2.390   5.732   2.942
 1021TIP3   OH2 3026   2.081   4.911   1.813
 1021TIP3    H1 3027   2.088   5.006   1.826
 1021TIP3    H2 3028   2.102   4.897   1.721
 1022TIP3   OH2 3029   4.775   2.812   2.470
 1022TIP3    H1 3030   4.687   2.839   2.443
 1022TIP3    H2 3031   4.809   2.762   2.397
 1023TIP3   OH2 3032   1.334   4.018   0.712
 1023TIP3    H1 3033   1.392   4.082   0.753
 1023TIP3    H2 3034   1.299   4.064   0.635
 1024TIP3   OH2 3035   5.898   4.401   5.828
 1024TIP3    H1 3036   5.827   4.380   5.889
 1024TIP3    H2 3037   5.921   4.492   5.850
 1025TIP3   OH2 3038   4.822   0.121   4.129
 1025TIP3    H1 3039   4.899   0.161   4.169
 1025TIP3    H2 3040   4.756   0.122   4.198
 1026TIP3   OH2 3041   3.755   2.221   5.835
 1026TIP3    H1 3042   3.762   2.252   5.925
 1026TIP3    H2 3043   3.665   2.188   5.828
 1027TIP3   OH2 3044   4.252   3.168   1.276
 1027TIP3    H1 3045   4.211   3.142   1.194
 1027TIP3    H2 3046   4.323   3.105   1.288
 1028TIP3   OH2 3047   4.370   2.541   2.528
 1028TIP3    H1 3048   4.450   2.515   2.482
 1028TIP3    H2 3049   4.388   2.523   2.620
 1029TIP3   OH2 3050   6.685   2.861   0.587
 1029TIP3    H1 3051   6.696   2.876   0.493
 1029TIP3    H2 3052   6.613   2.798   0.592
 1030TIP3   OH2 3053   5.583   3.749   2.691
 1030TIP3    H1 3054   5.643   3.752   2.766
 1030TIP3    H2 3055   5.521   3.679   2.713
 1031TIP3   OH2 3056   3.145   0.033   3.502
 1031TIP3    H1 3057   3.187   0.114   3.474
 1031TIP3    H2 3058   3.169   0.025   3.594
 1032TIP3   OH2 3059   2.567   6.480   4.735
 1032TIP3    H1 3060   2.568   6.553   4.672
 1032TIP3    H2 3061   2.538   6.405   4.683
 1033TIP3   OH2 3062   1.501   0.244   2.556
 1033TIP3    H1 3063   1.427   0.245   2.617
 1033TIP3    H2 3064   1.481   0.311   2.491
 1034TIP3   OH2 3065   1.643   5.728   1.517
 1034TIP3    H1 3066   1.633   5.633   1.517
 1034TIP3    H2 3067   1.564   5.760   1.471
 1035TIP3   OH2 3068   6.047   4.264   1.974
 1035TIP3    H1 3069   5.966   4.268   2.023
 1035TIP3    H2 3070   6.020   4.266   1.882
 1036TIP3   OH2 3071   3.881   4.330   1.571
 1036TIP3    H1 3072   3.887   4.405   1.512
 1036TIP3    H2 3073   3.788   4.306   1.570
 1037TIP3   OH2 3074   5.824   4.460   0.249
 1037TIP3    H1 3075   5.799   4.545   0.284
 1037TIP3    H2 3076   5.893   4.479   0.185
 1038TIP3   OH2 3077   3.865   0.594   4.341
 1038TIP3    H1 3078   3.794   0.544   4.381
 1038TIP3    H2 3079   3.827   0.631   4.261
 1039TIP3   OH2 3080   5.487   0.476   5.247
 1039TIP3    H1 3081   5.471   0.494   5.155
 1039TIP3    H2 3082   5.542   0.397   5.248
 1040TIP3   OH2 3083   2.063   3.985   4.537
 1040TIP3    H1 3084   2.067   4.078   4.560
 1040TIP3    H2 3085   2.091   3.939   4.616
 1041TIP3   OH2 3086   6.051   4.769   1.344
 1041TIP3    H1 3087   6.030   4.849   1.296
 1041TIP3    H2 3088   6.144   4.754   1.326
 1042TIP3   OH2 3089   5.580   5.195   0.021
 1042TIP3    H1 3090   5.565   5.188   0.116
 1042TIP3    H2 3091   5.537   5.278  -0.004
 1043TIP3   OH2 3092   3.126   0.567   0.876
 1043TIP3    H1 3093   3.058   0.601   0.818
 1043TIP3    H2 3094   3.102   0.476   0.891
 1044TIP3   OH2 3095   2.360   0.933   2.733
 1044TIP3    H1 3096   2.323   1.018   2.708
 1044TIP3    H2 3097   2.286   0.885   2.770
 1045TIP3   OH2 3098   4.493   0.057   0.215
 1045TIP3    H1 3099   4.441   0.078   0.292
 1045TIP3    H2 3100   4.540   0.138   0.195
 1046TIP3   OH2 3101   2.508   4.161   2.626
 1046TIP3    H1 3102   2.582   4.131   2.678
 1046TIP3    H2 3103   2.498   4.094   2.558
 1047TIP3   OH2 3104   1.615   0.714   2.505
 1047TIP3    H1 3105   1.690   0.723   2.446
 1047TIP3    H2 3106   1.654   0.709   2.592
 1048TIP3   OH2 3107   5.523   2.324   0.397
 1048TIP3    H1 3108   5.608   2.296   0.429
 1048TIP3    H2 3109   5.493   2.387   0.462
 1049TIP3   OH2 3110   3.927   4.065   3.790
 1049TIP3    H1 3111   3.969   4.065   3.876
 1049TIP3    H2 3112   3.834   4.080   3.809
 1050TIP3   OH2 3113   6.408   3.120   3.559
 1050TIP3    H1 3114   6.369   3.050   3.506
 1050TIP3    H2 3115   6.481   3.077   3.604
 1051TIP3   OH2 3116   7.117   0.988   2.650
 1051TIP3    H1 3117   7.029   1.003   2.685
 1051TIP3    H2 3118   7.157   1.075   2.648
 1052TIP3   OH2 3119   6.585   2.892   4.919
 1052TIP3    H1 3120   6.632   2.974   4.937
 1052TIP3    H2 3121   6.653   2.825   4.921
 1053TIP3   OH2 3122   2.321   1.700   1.310
 1053TIP3    H1 3123   2.384   1.769   1.329
 1053TIP3    H2 3124   2.323   1.643   1.387
 1054TIP3   OH2 3125   4.432   0.645   4.800
 1054TIP3    H1 3126   4.370   0.718   4.796
 1054TIP3    H2 3127   4.514   0.682   4.768
 1055TIP3   OH2 3128   6.281   2.899   0.718
 1055TIP3    H1 3129   6.205   2.926   0.667
 1055TIP3    H2 3130   6.276   2.951   0.798
 1056TIP3   OH2 3131   4.577   5.661   1.217
 1056TIP3    H1 3132   4.512   5.615   1.271
 1056TIP3    H2 3133   4.658   5.613   1.232
 1057TIP3   OH2 3134   4.742   2.859   0.887
 1057TIP3    H1 3135   4.739   2.833   0.795
 1057TIP3    H2 3136   4.650   2.864   0.914
 1058TIP3   OH2 3137   2.170   5.078   3.173
 1058TIP3    H1 3138   2.253   5.123   3.185
 1058TIP3    H2 3139   2.189   5.009   3.110
 1059TIP3   OH2 3140   6.927   6.350   5.500
 1059TIP3    H1 3141   6.924   6.255   5.492
 1059TIP3    H2 3142   6.847   6.380   5.457
 1060TIP3   OH2 3143   5.223   3.039   4.686
 1060TIP3    H1 3144   5.295   3.060   4.745
 1060TIP3    H2 3145   5.166   3.116   4.689
 1061TIP3   OH2 3146   3.269   5.221   3.294
 1061TIP3    H1 3147   3.209   5.153   3.264
 1061TIP3    H2 3148   3.355   5.193   3.262
 1062TIP3   OH2 3149   3.331   5.778   2.008
 1062TIP3    H1 3150   3.270   5.756   1.938
 1062TIP3    H2 3151   3.317   5.871   2.024
 1063TIP3   OH2 3152   3.677   4.715   4.542
 1063TIP3    H1 3153   3.652   4.655   4.612
 1063TIP3    H2 3154   3.769   4.694   4.524
 1064TIP3   OH2 3155   1.193   2.013   2.395
 1064TIP3    H1 3156   1.148   1.929   2.393
 1064TIP3    H2 3157   1.282   1.994   2.366
 1065TIP3   OH2 3158   1.562   6.130   2.704
 1065TIP3    H1 3159   1.521   6.045   2.687
 1065TIP3    H2 3160   1.617   6.115   2.781
 1066TIP3   OH2 3161   0.484   2.087   0.140
 1066TIP3    H1 3162   0.514   2.160   0.194
 1066TIP3    H2 3163   0.395   2.111   0.114
 1067TIP3   OH2 3164   0.772   1.720   4.213
 1067TIP3    H1 3165   0.737   1.702   4.301
 1067TIP3    H2 3166   0.720   1.664   4.156
 1068TIP3   OH2 3167   3.562   6.257   5.105
 1068TIP3    H1 3168   3.643   6.289   5.143
 1068TIP3    H2 3169   3.561   6.164   5.125
 1069TIP3   OH2 3170   2.303   6.268   2.857
 1069TIP3    H1 3171   2.231   6.257   2.919
 1069TIP3    H2 3172   2.370   6.316   2.906
 1070TIP3   OH2 3173   1.226   1.873   3.704
 1070TIP3    H1 3174   1.312   1.862   3.663
 1070TIP3    H2 3175   1.183   1.940   3.651
 1071TIP3   OH2 3176   1.043   2.219   5.267
 1071TIP3    H1 3177   1.029   2.226   5.172
 1071TIP3    H2 3178   1.065   2.127   5.281
 1072TIP3   OH2 3179   2.916   6.234   2.711
 1072TIP3    H1 3180   2.913   6.139   2.717
 1072TIP3    H2 3181   2.856   6.264   2.779
 1073TIP3   OH2 3182   6.619   1.423   3.849
 1073TIP3    H1 3183   6.699   1.376   3.873
 1073TIP3    H2 3184   6.596   1.389   3.763
 1074TIP3   OH2 3185   6.444   0.490   2.802
 1074TIP3    H1 3186   6.470   0.581   2.788
 1074TIP3    H2 3187   6.349   0.493   2.815
 1075TIP3   OH2 3188   2.083   1.933   5.068
 1075TIP3    H1 3189   2.137   1.941   4.989
 1075TIP3    H2 3190   2.001   1.896   5.037
 1076TIP3   OH2 3191   4.750   2.874   3.848
 1076TIP3    H1 3192   4.836   2.836   3.866
 1076TIP3    H2 3193   4.694   2.843   3.919
 1077TIP3   OH2 3194   3.824   4.571   3.379
 1077TIP3    H1 3195   3.786   4.578   3.467
 1077TIP3    H2 3196   3.818   4.478   3.358
 1078TIP3   OH2 3197   6.003   0.866   5.868
 1078TIP3    H1 3198   5.963   0.951   5.854
 1078TIP3    H2 3199   5.935   0.814   5.910
 1079TIP3   OH2 3200   0.805   4.427   1.535
 1079TIP3    H1 3201   0.851   4.363   1.588
 1079TIP3    H2 3202   0.811   4.509   1.584
 1080TIP3   OH2 3203   4.864   2.748   2.217
 1080TIP3    H1 3204   4.827   2.716   2.135
 1080TIP3    H2 3205   4.947   2.702   2.227
 1081TIP3   OH2 3206   3.893   4.704   1.011
 1081TIP3    H1 3207   3.894   4.617   0.972
 1081TIP3    H2 3208   3.860   4.762   0.942
 1082TIP3   OH2 3209   5.906   1.081   0.739
 1082TIP3    H1 3210   5.886   1.019   0.669
 1082TIP3    H2 3211   5.890   1.167   0.700
 1083TIP3   OH2 3212   5.610   4.676   1.005
 1083TIP3    H1 3213   5.592   4.742   0.938
 1083TIP3    H2 3214   5.535   4.616   1.001
 1084TIP3   OH2 3215   1.791   5.831   2.407
 1084TIP3    H1 3216   1.805   5.849   2.314
 1084TIP3    H2 3217   1.795   5.917   2.448
 1085TIP3   OH2 3218   5.154   4.595   2.307
 1085TIP3    H1 3219   5.090   4.655   2.345
 1085TIP3    H2 3220   5.171   4.531   2.375
 1086TIP3   OH2 3221   1.274   1.361   1.789
 1086TIP3    H1 3222   1.279   1.424   1.717
 1086TIP3    H2 3223   1.327   1.287   1.759
 1087TIP3   OH2 3224   6.994   6.461   1.784
 1087TIP3    H1 3225   6.916   6.407   1.771
 1087TIP3    H2 3226   7.066   6.399   1.791
 1088TIP3   OH2 3227   0.077   4.005   4.721
 1088TIP3    H1 3228   0.066   3.998   4.816
 1088TIP3    H2 3229  -0.011   3.989   4.687
 1089TIP3   OH2 3230   3.660   5.568   0.122
 1089TIP3    H1 3231   3.683   5.629   0.053
 1089TIP3    H2 3232   3.640   5.486   0.076
 1090TIP3   OH2 3233   5.211   1.093   3.337
 1090TIP3    H1 3234   5.173   1.157   3.397
 1090TIP3    H2 3235   5.250   1.144   3.267
 1091TIP3   OH2 3236   2.749   1.622   0.075
 1091TIP3    H1 3237   2.830   1.660   0.108
 1091TIP3    H2 3238   2.758   1.528   0.091
 1092TIP3   OH2 3239   4.646   3.045   1.310
 1092TIP3    H1 3240   4.623   3.138   1.301
 1092TIP3    H2 3241   4.573   3.006   1.357
 1093TIP3   OH2 3242   3.995   4.284   4.786
 1093TIP3    H1 3243   3.962   4.202   4.823
 1093TIP3    H2 3244   4.070   4.258   4.733
 1094TIP3   OH2 3245   4.345   4.500   2.840
 1094TIP3    H1 3246   4.423   4.556   2.841
 1094TIP3    H2 3247   4.298   4.523   2.920
 1095TIP3   OH2 3248   4.754   3.042   2.657
 1095TIP3    H1 3249   4.788   2.959   2.623
 1095TIP3    H2 3250   4.821   3.072   2.719
 1096TIP3   OH2 3251   3.183   5.750   1.437
 1096TIP3    H1 3252   3.138   5.697   1.503
 1096TIP3    H2 3253   3.126   5.747   1.360
 1097TIP3   OH2 3254   2.635   0.462   0.128
 1097TIP3    H1 3255   2.690   0.469   0.206
 1097TIP3    H2 3256   2.624   0.368   0.116
 1098TIP3   OH2 3257   4.571   5.129   4.878
 1098TIP3    H1 3258   4.537   5.182   4.950
 1098TIP3    H2 3259   4.518   5.156   4.802
 1099TIP3   OH2 3260   2.720   6.668   4.610
 1099TIP3    H1 3261   2.709   6.761   4.588
 1099TIP3    H2 3262   2.789   6.637   4.552
 1100TIP3   OH2 3263   5.626   3.846   4.215
 1100TIP3    H1 3264   5.548   3.891   4.181
 1100TIP3    H2 3265   5.643   3.888   4.299
 1101TIP3   OH2 3266   0.931   6.466   1.742
 1101TIP3    H1 3267   0.918   6.545   1.689
 1101TIP3    H2 3268   1.017   6.477   1.781
 1102TIP3   OH2 3269   1.617   2.545   3.000
 1102TIP3    H1 3270   1.564   2.512   2.928
 1102TIP3    H2 3271   1.671   2.614   2.961
 1103TIP3   OH2 3272   0.424   3.375   4.688
 1103TIP3    H1 3273   0.358   3.397   4.753
 1103TIP3    H2 3274   0.438   3.281   4.699
 1104TIP3   OH2 3275   6.692   5.600   4.539
 1104TIP3    H1 3276   6.651   5.544   4.473
 1104TIP3    H2 3277   6.671   5.558   4.622
 1105TIP3   OH2 3278   0.657   4.481   2.404
 1105TIP3    H1 3279   0.696   4.471   2.317
 1105TIP3    H2 3280   0.704   4.553   2.444
 1106TIP3   OH2 3281   5.828   4.357   4.642
 1106TIP3    H1 3282   5.802   4.368   4.551
 1106TIP3    H2 3283   5.894   4.288   4.639
 1107TIP3   OH2 3284   1.953   1.701   4.044
 1107TIP3    H1 3285   1.922   1.684   3.956
 1107TIP3    H2 3286   1.874   1.710   4.097
 1108TIP3   OH2 3287   1.107   4.043   5.449
 1108TIP3    H1 3288   1.150   4.091   5.379
 1108TIP3    H2 3289   1.042   3.988   5.404
 1109TIP3   OH2 3290   5.112   2.945   0.050
 1109TIP3    H1 3291   5.177   2.983  -0.009
 1109TIP3    H2 3292   5.129   2.987   0.134
 1110TIP3   OH2 3293   4.196   5.314   4.798
 1110TIP3    H1 3294   4.115   5.363   4.788
 1110TIP3    H2 3295   4.169   5.222   4.797
 1111TIP3   OH2 3296   0.839   2.354   5.390
 1111TIP3    H1 3297   0.781   2.375   5.317
 1111TIP3    H2 3298   0.903   2.292   5.354
 1112TIP3   OH2 3299   2.374   5.202   2.625
 1112TIP3    H1 3300   2.320   5.123   2.628
 1112TIP3    H2 3301   2.375   5.227   2.532
 1113TIP3   OH2 3302   4.902   1.035   1.161
 1113TIP3    H1 3303   4.962   1.055   1.233
 1113TIP3    H2 3304   4.831   0.987   1.203
 1114TIP3   OH2 3305   3.034   1.110   2.520
 1114TIP3    H1 3306   3.040   1.020   2.554
 1114TIP3    H2 3307   2.945   1.138   2.543
 1115TIP3   OH2 3308   1.282   3.460   4.343
 1115TIP3    H1 3309   1.228   3.447   4.421
 1115TIP3    H2 3310   1.349   3.391   4.348
 1116TIP3   OH2 3311   1.643   3.709   2.421
 1116TIP3    H1 3312   1.698   3.695   2.344
 1116TIP3    H2 3313   1.604   3.795   2.406
 1117TIP3   OH2 3314   1.142   2.934   2.088
 1117TIP3    H1 3315   1.185   3.013   2.056
 1117TIP3    H2 3316   1.129   2.951   2.182
 1118TIP3   OH2 3317   1.211   2.138   1.903
 1118TIP3    H1 3318   1.200   2.076   1.975
 1118TIP3    H2 3319   1.128   2.186   1.899
 1119TIP3   OH2 3320   1.753   0.238   1.353
 1119TIP3    H1 3321   1.794   0.152   1.361
 1119TIP3    H2 3322   1.673   0.223   1.303
 1120TIP3   OH2 3323   5.303   1.724   4.165
 1120TIP3    H1 3324   5.364   1.757   4.099
 1120TIP3    H2 3325   5.344   1.644   4.197
 1121TIP3   OH2 3326   0.017   6.275   1.065
 1121TIP3    H1 3327   0.032   6.370   1.057
 1121TIP3    H2 3328  -0.069   6.261   1.026
 1122TIP3   OH2 3329   6.194   5.380   4.668
 1122TIP3    H1 3330   6.226   5.305   4.718
 1122TIP3    H2 3331   6.257   5.391   4.597
 1123TIP3   OH2 3332   2.012   1.709   2.388
 1123TIP3    H1 3333   1.928   1.667   2.368
 1123TIP3    H2 3334   2.059   1.644   2.440
 1124TIP3   OH2 3335   6.012   3.782   2.989
 1124TIP3    H1 3336   6.075   3.852   3.006
 1124TIP3    H2 3337   6.064   3.710   2.953
 1125TIP3   OH2 3338   4.971   0.886   5.435
 1125TIP3    H1 3339   4.885   0.875   5.394
 1125TIP3    H2 3340   4.995   0.799   5.466
 1126TIP3   OH2 3341   5.009   6.680   3.580
 1126TIP3    H1 3342   4.979   6.754   3.632
 1126TIP3    H2 3343   4.930   6.629   3.561
 1127TIP3   OH2 3344   5.526   3.584   0.606
 1127TIP3    H1 3345   5.604   3.528   0.598
 1127TIP3    H2 3346   5.475   3.565   0.528
 1128TIP3   OH2 3347   6.712   1.644   5.385
 1128TIP3    H1 3348   6.757   1.571   5.427
 1128TIP3    H2 3349   6.746   1.721   5.431
 1129TIP3   OH2 3350   1.542   0.229   4.675
 1129TIP3    H1 3351   1.541   0.242   4.770
 1129TIP3    H2 3352   1.450   0.235   4.649
 1130TIP3   OH2 3353   4.183   6.684   3.465
 1130TIP3    H1 3354   4.121   6.756   3.475
 1130TIP3    H2 3355   4.264   6.725   3.434
 1131TIP3   OH2 3356   4.002   0.649   0.239
 1131TIP3    H1 3357   3.976   0.730   0.283
 1131TIP3    H2 3358   4.042   0.677   0.157
 1132TIP3   OH2 3359   5.539   1.541   3.424
 1132TIP3    H1 3360   5.496   1.560   3.508
 1132TIP3    H2 3361   5.566   1.450   3.431
 1133TIP3   OH2 3362   0.155   3.176   1.759
 1133TIP3    H1 3363   0.178   3.223   1.679
 1133TIP3    H2 3364   0.086   3.227   1.799
 1134TIP3   OH2 3365   3.223   1.763   4.878
 1134TIP3    H1 3366   3.300   1.718   4.842
 1134TIP3    H2 3367   3.259   1.844   4.916
 1135TIP3   OH2 3368   4.483   6.611   2.638
 1135TIP3    H1 3369   4.448   6.635   2.552
 1135TIP3    H2 3370   4.415   6.558   2.678
 1136TIP3   OH2 3371   3.744   1.094   3.004
 1136TIP3    H1 3372   3.703   1.067   3.086
 1136TIP3    H2 3373   3.803   1.165   3.029
 1137TIP3   OH2 3374   1.827   5.523   4.697
 1137TIP3    H1 3375   1.824   5.549   4.605
 1137TIP3    H2 3376   1.790   5.434   4.697
 1138TIP3   OH2 3377   5.255   1.530   1.495
 1138TIP3    H1 3378   5.320   1.473   1.454
 1138TIP3    H2 3379   5.294   1.556   1.578
 1139TIP3   OH2 3380   3.078   5.864   0.476
 1139TIP3    H1 3381   3.046   5.775   0.465
 1139TIP3    H2 3382   3.165   5.864   0.437
 1140TIP3   OH2 3383   5.468   0.051   3.000
 1140TIP3    H1 3384   5.511   0.096   2.927
 1140TIP3    H2 3385   5.397   0.002   2.959
 1141TIP3   OH2 3386   5.382   3.187   0.132
 1141TIP3    H1 3387   5.425   3.271   0.120
 1141TIP3    H2 3388   5.421   3.130   0.066
 1142TIP3   OH2 3389   2.548   1.834   5.284
 1142TIP3    H1 3390   2.485   1.903   5.265
 1142TIP3    H2 3391   2.512   1.755   5.244
 1143TIP3   OH2 3392   0.666   0.777   4.294
 1143TIP3    H1 3393   0.664   0.739   4.382
 1143TIP3    H2 3394   0.759   0.788   4.274
 1144TIP3   OH2 3395   5.532   6.485   2.036
 1144TIP3    H1 3396   5.456   6.427   2.026
 1144TIP3    H2 3397   5.606   6.425   2.050
 1145TIP3   OH2 3398   2.038   4.641   5.177
 1145TIP3    H1 3399   2.088   4.720   5.156
 1145TIP3    H2 3400   2.062   4.578   5.109
 1146TIP3   OH2 3401   6.465   4.574   5.527
 1146TIP3    H1 3402   6.434   4.485   5.512
 1146TIP3    H2 3403   6.540   4.563   5.585
 1147TIP3   OH2 3404   2.589   3.255   0.922
 1147TIP3    H1 3405   2.514   3.313   0.928
 1147TIP3    H2 3406   2.647   3.298   0.859
 1148TIP3   OH2 3407   2.655   1.233   2.321
 1148TIP3    H1 3408   2.715   1.301   2.289
 1148TIP3    H2 3409   2.712   1.161   2.346
 1149TIP3   OH2 3410   1.760   6.001   4.407
 1149TIP3    H1 3411   1.735   5.968   4.493
 1149TIP3    H2 3412   1.747   6.096   4.413
 1150TIP3   OH2 3413   2.369   3.628   4.939
 1150TIP3    H1 3414   2.300   3.665   4.994
 1150TIP3    H2 3415   2.325   3.601   4.859
 1151TIP3   OH2 3416   4.317   3.790   2.836
 1151TIP3    H1 3417   4.373   3.836   2.773
 1151TIP3    H2 3418   4.324   3.842   2.916
 1152TIP3   OH2 3419   0.126   0.516   4.360
 1152TIP3    H1 3420   0.217   0.517   4.391
 1152TIP3    H2 3421   0.129   0.467   4.278
 1153TIP3   OH2 3422   5.580   1.365   3.140
 1153TIP3    H1 3423   5.648   1.344   3.204
 1153TIP3    H2 3424   5.592   1.300   3.071
 1154TIP3   OH2 3425   4.464   6.280   3.614
 1154TIP3    H1 3426   4.480   6.295   3.521
 1154TIP3    H2 3427   4.551   6.276   3.653
 1155TIP3   OH2 3428   3.119   3.497   2.309
 1155TIP3    H1 3429   3.083   3.416   2.342
 1155TIP3    H2 3430   3.111   3.559   2.382
 1156TIP3   OH2 3431   3.772   6.254   0.438
 1156TIP3    H1 3432   3.738   6.300   0.514
 1156TIP3    H2 3433   3.845   6.201   0.472
 1157TIP3   OH2 3434   5.710   6.705   3.977
 1157TIP3    H1 3435   5.780   6.703   4.042
 1157TIP3    H2 3436   5.671   6.792   3.986
 1158TIP3   OH2 3437   5.363   5.025   4.100
 1158TIP3    H1 3438   5.391   4.934   4.108
 1158TIP3    H2 3439   5.442   5.076   4.119
 1159TIP3   OH2 3440   1.180   3.868   0.969
 1159TIP3    H1 3441   1.140   3.924   0.902
 1159TIP3    H2 3442   1.231   3.804   0.919
 1160TIP3   OH2 3443   1.386   2.114   3.662
 1160TIP3    H1 3444   1.428   2.080   3.582
 1160TIP3    H2 3445   1.423   2.061   3.733
 1161TIP3   OH2 3446   5.218   2.960   3.019
 1161TIP3    H1 3447   5.145   2.967   3.080
 1161TIP3    H2 3448   5.216   2.869   2.990
 1162TIP3   OH2 3449   6.756   6.092   0.808
 1162TIP3    H1 3450   6.662   6.078   0.808
 1162TIP3    H2 3451   6.793   6.005   0.792
 1163TIP3   OH2 3452   0.000   2.751   0.155
 1163TIP3    H1 3453  -0.005   2.841   0.122
 1163TIP3    H2 3454   0.073   2.712   0.107
 1164TIP3   OH2 3455   2.671   3.984   5.043
 1164TIP3    H1 3456   2.674   3.977   4.948
 1164TIP3    H2 3457   2.587   3.947   5.068
 1165TIP3   OH2 3458   1.044   4.021   2.047
 1165TIP3    H1 3459   1.055   3.951   2.111
 1165TIP3    H2 3460   0.996   3.981   1.975
 1166TIP3   OH2 3461   6.294   2.839   5.858
 1166TIP3    H1 3462   6.204   2.811   5.876
 1166TIP3    H2 3463   6.284   2.925   5.817
 1167TIP3   OH2 3464   0.153   2.788   1.226
 1167TIP3    H1 3465   0.110   2.713   1.268
 1167TIP3    H2 3466   0.104   2.800   1.144
 1168TIP3   OH2 3467   0.820   4.835   0.801
 1168TIP3    H1 3468   0.913   4.839   0.824
 1168TIP3    H2 3469   0.818   4.847   0.706
 1169TIP3   OH2 3470   3.540   4.185   0.273
 1169TIP3    H1 3471   3.529   4.278   0.253
 1169TIP3    H2 3472   3.586   4.183   0.357
 1170TIP3   OH2 3473   6.583   5.719   1.832
 1170TIP3    H1 3474   6.543   5.805   1.820
 1170TIP3    H2 3475   6.509   5.658   1.834
 1171TIP3   OH2 3476   6.213   0.275   2.317
 1171TIP3    H1 3477   6.167   0.281   2.233
 1171TIP3    H2 3478   6.220   0.365   2.348
 1172TIP3   OH2 3479   4.797   3.980   0.904
 1172TIP3    H1 3480   4.714   3.958   0.861
 1172TIP3    H2 3481   4.861   3.920   0.864
 1173TIP3   OH2 3482   3.448   1.183   1.878
 1173TIP3    H1 3483   3.541   1.166   1.868
 1173TIP3    H2 3484   3.426   1.244   1.807
 1174TIP3   OH2 3485   6.131   6.556   1.912
 1174TIP3    H1 3486   6.139   6.649   1.894
 1174TIP3    H2 3487   6.047   6.531   1.872
 1175TIP3   OH2 3488   2.181   0.140   2.815
 1175TIP3    H1 3489   2.246   0.121   2.747
 1175TIP3    H2 3490   2.146   0.226   2.792
 1176TIP3   OH2 3491   2.645   3.576   4.751
 1176TIP3    H1 3492   2.579   3.562   4.683
 1176TIP3    H2 3493   2.693   3.653   4.722
 1177TIP3   OH2 3494   3.178   2.673   5.182
 1177TIP3    H1 3495   3.234   2.596   5.187
 1177TIP3    H2 3496   3.201   2.725   5.259
 1178TIP3   OH2 3497   0.626   4.856   2.849
 1178TIP3    H1 3498   0.550   4.817   2.806
 1178TIP3    H2 3499   0.644   4.936   2.799
 1179TIP3   OH2 3500   6.976   5.718   3.996
 1179TIP3    H1 3501   6.926   5.651   4.043
 1179TIP3    H2 3502   7.054   5.672   3.964
 1180TIP3   OH2 3503   6.905   4.906   3.299
 1180TIP3    H1 3504   6.914   4.819   3.260
 1180TIP3    H2 3505   6.880   4.962   3.226
 1181TIP3   OH2 3506   2.576   5.581   4.522
 1181TIP3    H1 3507   2.520   5.547   4.592
 1181TIP3    H2 3508   2.627   5.650   4.564
 1182TIP3   OH2 3509   0.070   2.289   4.960
 1182TIP3    H1 3510  -0.015   2.321   4.992
 1182TIP3    H2 3511   0.055   2.197   4.941
 1183TIP3   OH2 3512   3.270   6.661   2.283
 1183TIP3    H1 3513   3.354   6.702   2.303
 1183TIP3    H2 3514   3.276   6.639   2.190
 1184TIP3   OH2 3515   6.602   3.116   2.403
 1184TIP3    H1 3516   6.659   3.153   2.471
 1184TIP3    H2 3517   6.626   3.163   2.323
 1185TIP3   OH2 3518   0.280   4.521   2.062
 1185TIP3    H1 3519   0.236   4.605   2.050
 1185TIP3    H2 3520   0.212   4.462   2.093
 1186TIP3   OH2 3521   1.497   3.232   0.546
 1186TIP3    H1 3522   1.557   3.192   0.484
 1186TIP3    H2 3523   1.419   3.252   0.495
 1187TIP3   OH2 3524   0.429   1.084   0.124
 1187TIP3    H1 3525   0.418   1.160   0.181
 1187TIP3    H2 3526   0.340   1.051   0.110
 1188TIP3   OH2 3527   4.643   3.811   1.488
 1188TIP3    H1 3528   4.608   3.812   1.399
 1188TIP3    H2 3529   4.689   3.728   1.495
 1189TIP3   OH2 3530   4.786   3.097   0.314
 1189TIP3    H1 3531   4.729   3.122   0.387
 1189TIP3    H2 3532   4.842   3.028   0.350
 1190TIP3   OH2 3533   1.175   2.030   1.660
 1190TIP3    H1 3534   1.183   1.944   1.702
 1190TIP3    H2 3535   1.209   2.092   1.725
 1191TIP3   OH2 3536   2.929   1.129   1.916
 1191TIP3    H1 3537   2.986   1.205   1.922
 1191TIP3    H2 3538   2.840   1.164   1.925
 1192TIP3   OH2 3539   6.549   4.229   0.316
 1192TIP3    H1 3540   6.621   4.190   0.267
 1192TIP3    H2 3541   6.584   4.313   0.346
 1193TIP3   OH2 3542   0.009   4.908   4.368
 1193TIP3    H1 3543   0.030   4.997   4.395
 1193TIP3    H2 3544   0.093   4.863   4.364
 1194TIP3   OH2 3545   5.268   4.525   4.667
 1194TIP3    H1 3546   5.348   4.495   4.624
 1194TIP3    H2 3547   5.282   4.618   4.681
 1195TIP3   OH2 3548   3.679   2.402   1.468
 1195TIP3    H1 3549   3.673   2.365   1.380
 1195TIP3    H2 3550   3.607   2.464   1.474
 1196TIP3   OH2 3551   3.445   1.953   3.692
 1196TIP3    H1 3552   3.536   1.926   3.677
 1196TIP3    H2 3553   3.452   2.039   3.733
 1197TIP3   OH2 3554   2.995   3.067   1.308
 1197TIP3    H1 3555   2.974   3.159   1.293
 1197TIP3    H2 3556   2.946   3.043   1.387
 1198TIP3   OH2 3557   4.068   6.408   2.798
 1198TIP3    H1 3558   4.079   6.495   2.836
 1198TIP3    H2 3559   3.975   6.405   2.773
 1199TIP3   OH2 3560   4.979   3.709   1.128
 1199TIP3    H1 3561   4.890   3.744   1.136
 1199TIP3    H2 3562   5.025   3.742   1.205
 1200TIP3   OH2 3563   2.234   1.336   4.989
 1200TIP3    H1 3564   2.236   1.265   5.053
 1200TIP3    H2 3565   2.303   1.315   4.927
 1201TIP3   OH2 3566   2.753   3.313   4.638
 1201TIP3    H1 3567   2.844   3.343   4.640
 1201TIP3    H2 3568   2.711   3.367   4.572
 1202TIP3   OH2 3569   6.116   1.083   0.501
 1202TIP3    H1 3570   6.071   1.000   0.486
 1202TIP3    H2 3571   6.143   1.112   0.414
 1203TIP3   OH2 3572   2.961   4.662   1.682
 1203TIP3    H1 3573   2.945   4.739   1.627
 1203TIP3    H2 3574   3.049   4.634   1.659
 1204TIP3   OH2 3575   4.238   1.759   1.095
 1204TIP3    H1 3576   4.260   1.818   1.166
 1204TIP3    H2 3577   4.142   1.759   1.091
 1205TIP3   OH2 3578   5.426   2.792   4.318
 1205TIP3    H1 3579   5.495   2.770   4.255
 1205TIP3    H2 3580   5.433   2.887   4.328
 1206TIP3   OH2 3581   4.817   3.131   4.905
 1206TIP3    H1 3582   4.820   3.208   4.962
 1206TIP3    H2 3583   4.725   3.126   4.877
 1207TIP3   OH2 3584   1.120   5.927   1.196
 1207TIP3    H1 3585   1.161   5.930   1.109
 1207TIP3    H2 3586   1.192   5.908   1.256
 1208TIP3   OH2 3587   1.880   4.358   2.136
 1208TIP3    H1 3588   1.887   4.315   2.050
 1208TIP3    H2 3589   1.959   4.412   2.142
 1209TIP3   OH2 3590   0.944   2.617   0.056
 1209TIP3    H1 3591   1.012   2.629   0.123
 1209TIP3    H2 3592   0.971   2.674  -0.016
 1210TIP3   OH2 3593   4.431   4.794   3.206
 1210TIP3    H1 3594   4.517   4.773   3.172
 1210TIP3    H2 3595   4.416   4.730   3.276
 1211TIP3   OH2 3596   0.456   3.873   3.215
 1211TIP3    H1 3597   0.512   3.898   3.289
 1211TIP3    H2 3598   0.367   3.881   3.250
 1212TIP3   OH2 3599   0.727   2.299   0.534
 1212TIP3    H1 3600   0.751   2.207   0.525
 1212TIP3    H2 3601   0.797   2.337   0.588
 1213TIP3   OH2 3602   4.936   2.928   0.492
 1213TIP3    H1 3603   4.938   2.996   0.559
 1213TIP3    H2 3604   4.944   2.846   0.541
 1214TIP3   OH2 3605   1.421   4.084   2.068
 1214TIP3    H1 3606   1.512   4.098   2.096
 1214TIP3    H2 3607   1.369   4.113   2.142
 1215TIP3   OH2 3608   5.777   5.480   0.600
 1215TIP3    H1 3609   5.707   5.472   0.535
 1215TIP3    H2 3610   5.739   5.532   0.671
 1216TIP3   OH2 3611   5.159   4.053   0.663
 1216TIP3    H1 3612   5.254   4.051   0.654
 1216TIP3    H2 3613   5.132   3.962   0.648
 1217TIP3   OH2 3614   6.975   5.544   5.728
 1217TIP3    H1 3615   7.048   5.483   5.736
 1217TIP3    H2 3616   6.980   5.577   5.639
 1218TIP3   OH2 3617   3.351   4.842   4.320
 1218TIP3    H1 3618   3.298   4.919   4.340
 1218TIP3    H2 3619   3.425   4.876   4.270
 1219TIP3   OH2 3620   5.598   2.033   4.129
 1219TIP3    H1 3621   5.654   2.105   4.099
 1219TIP3    H2 3622   5.653   1.955   4.123
 1220TIP3   OH2 3623   6.501   5.192   0.835
 1220TIP3    H1 3624   6.456   5.151   0.761
 1220TIP3    H2 3625   6.593   5.197   0.808
 1221TIP3   OH2 3626   4.660   3.269   0.827
 1221TIP3    H1 3627   4.654   3.340   0.891
 1221TIP3    H2 3628   4.725   3.209   0.864
 1222TIP3   OH2 3629   3.179   5.080   4.084
 1222TIP3    H1 3630   3.210   5.157   4.037
 1222TIP3    H2 3631   3.084   5.080   4.069
 1223TIP3   OH2 3632   2.272   2.832   0.183
 1223TIP3    H1 3633   2.307   2.861   0.267
 1223TIP3    H2 3634   2.336   2.769   0.151
 1224TIP3   OH2 3635   4.292   0.869   5.067
 1224TIP3    H1 3636   4.217   0.852   5.010
 1224TIP3    H2 3637   4.269   0.827   5.150
 1225TIP3   OH2 3638   5.683   6.399   2.656
 1225TIP3    H1 3639   5.640   6.337   2.597
 1225TIP3    H2 3640   5.616   6.422   2.720
 1226TIP3   OH2 3641   4.988   2.789   5.863
 1226TIP3    H1 3642   5.002   2.824   5.951
 1226TIP3    H2 3643   5.000   2.864   5.805
 1227TIP3   OH2 3644   1.743   5.265   1.469
 1227TIP3    H1 3645   1.722   5.173   1.451
 1227TIP3    H2 3646   1.666   5.299   1.514
 1228TIP3   OH2 3647   5.102   6.794  -0.022
 1228TIP3    H1 3648   5.084   6.714  -0.071
 1228TIP3    H2 3649   5.026   6.805   0.036
 1229TIP3   OH2 3650   1.074   0.797   4.940
 1229TIP3    H1 3651   1.117   0.766   4.860
 1229TIP3    H2 3652   1.040   0.718   4.981
 1230TIP3   OH2 3653   5.562   2.425   4.299
 1230TIP3    H1 3654   5.469   2.417   4.319
 1230TIP3    H2 3655   5.566   2.433   4.204
 1231TIP3   OH2 3656   4.902   1.145   5.420
 1231TIP3    H1 3657   4.880   1.127   5.328
 1231TIP3    H2 3658   4.962   1.075   5.444
 1232TIP3   OH2 3659   1.141   2.838   3.655
 1232TIP3    H1 3660   1.232   2.848   3.626
 1232TIP3    H2 3661   1.114   2.927   3.679
 1233TIP3   OH2 3662   6.909   0.186   5.637
 1233TIP3    H1 3663   6.831   0.152   5.682
 1233TIP3    H2 3664   6.942   0.255   5.695
 1234TIP3   OH2 3665   4.105   2.756   1.247
 1234TIP3    H1 3666   4.185   2.710   1.272
 1234TIP3    H2 3667   4.080   2.804   1.326
 1235TIP3   OH2 3668   0.856   1.120   4.211
 1235TIP3    H1 3669   0.820   1.200   4.247
 1235TIP3    H2 3670   0.951   1.130   4.219
 1236TIP3   OH2 3671   3.666   0.469   0.702
 1236TIP3    H1 3672   3.588   0.441   0.751
 1236TIP3    H2 3673   3.719   0.515   0.766
 1237TIP3   OH2 3674   0.788   3.333   3.542
 1237TIP3    H1 3675   0.718   3.272   3.519
 1237TIP3    H2 3676   0.850   3.327   3.469
 1238TIP3   OH2 3677   6.799   2.542   1.404
 1238TIP3    H1 3678   6.833   2.455   1.389
 1238TIP3    H2 3679   6.875   2.594   1.430
 1239TIP3   OH2 3680   5.738   3.001   1.953
 1239TIP3    H1 3681   5.647   3.008   1.981
 1239TIP3    H2 3682   5.752   3.076   1.896
 1240TIP3   OH2 3683   3.344   2.959   4.141
 1240TIP3    H1 3684   3.338   2.872   4.179
 1240TIP3    H2 3685   3.349   2.945   4.047
 1241TIP3   OH2 3686   0.158   1.750   2.835
 1241TIP3    H1 3687   0.183   1.791   2.752
 1241TIP3    H2 3688   0.096   1.682   2.810
 1242TIP3   OH2 3689   5.216   0.393   4.319
 1242TIP3    H1 3690   5.305   0.396   4.284
 1242TIP3    H2 3691   5.224   0.429   4.408
 1243TIP3   OH2 3692   5.165   4.285   3.823
 1243TIP3    H1 3693   5.217   4.239   3.757
 1243TIP3    H2 3694   5.215   4.277   3.904
 1244TIP3   OH2 3695   0.933   3.955   5.030
 1244TIP3    H1 3696   0.998   4.007   5.077
 1244TIP3    H2 3697   0.955   3.968   4.937
 1245TIP3   OH2 3698   3.871   1.314   5.155
 1245TIP3    H1 3699   3.892   1.233   5.108
 1245TIP3    H2 3700   3.797   1.291   5.212
 1246TIP3   OH2 3701   3.552   3.891   0.269
 1246TIP3    H1 3702   3.618   3.874   0.202
 1246TIP3    H2 3703   3.526   3.982   0.255
 1247TIP3   OH2 3704   1.021   1.547   4.000
 1247TIP3    H1 3705   1.070   1.515   4.076
 1247TIP3    H2 3706   1.072   1.621   3.969
 1248TIP3   OH2 3707   0.176   0.162   1.795
 1248TIP3    H1 3708   0.134   0.230   1.742
 1248TIP3    H2 3709   0.104   0.103   1.818
 1249TIP3   OH2 3710   6.744   4.671   5.119
 1249TIP3    H1 3711   6.839   4.661   5.124
 1249TIP3    H2 3712   6.710   4.587   5.152
 1250TIP3   OH2 3713   5.219   2.414   2.897
 1250TIP3    H1 3714   5.172   2.486   2.938
 1250TIP3    H2 3715   5.150   2.360   2.857
 1251TIP3   OH2 3716   3.865   3.310   1.118
 1251TIP3    H1 3717   3.819   3.228   1.100
 1251TIP3    H2 3718   3.925   3.320   1.043
 1252TIP3   OH2 3719   4.401   3.696   3.250
 1252TIP3    H1 3720   4.416   3.603   3.233
 1252TIP3    H2 3721   4.451   3.741   3.182
 1253TIP3   OH2 3722   3.274   1.685   2.167
 1253TIP3    H1 3723   3.276   1.764   2.114
 1253TIP3    H2 3724   3.218   1.707   2.241
 1254TIP3   OH2 3725   1.887   5.552   2.447
 1254TIP3    H1 3726   1.850   5.634   2.413
 1254TIP3    H2 3727   1.813   5.508   2.488
 1255TIP3   OH2 3728   5.479   5.357   1.809
 1255TIP3    H1 3729   5.440   5.440   1.784
 1255TIP3    H2 3730   5.505   5.369   1.900
 1256TIP3   OH2 3731   4.613   0.135   4.363
 1256TIP3    H1 3732   4.567   0.195   4.305
 1256TIP3    H2 3733   4.568   0.051   4.353
 1257TIP3   OH2 3734   4.802   5.198   3.225
 1257TIP3    H1 3735   4.760   5.263   3.169
 1257TIP3    H2 3736   4.800   5.237   3.313
 1258TIP3   OH2 3737   6.655   6.611   1.067
 1258TIP3    H1 3738   6.749   6.615   1.050
 1258TIP3    H2 3739   6.615   6.663   0.997
 1259TIP3   OH2 3740   5.464   0.759   0.566
 1259TIP3    H1 3741   5.463   0.800   0.653
 1259TIP3    H2 3742   5.372   0.742   0.547
 1260TIP3   OH2 3743   2.918   6.095   0.572
 1260TIP3    H1 3744   2.863   6.043   0.632
 1260TIP3    H2 3745   2.955   6.030   0.512
 1261TIP3   OH2 3746   4.560   5.737   1.657
 1261TIP3    H1 3747   4.612   5.786   1.593
 1261TIP3    H2 3748   4.586   5.773   1.742
 1262TIP3   OH2 3749   4.386   3.440   3.166
 1262TIP3    H1 3750   4.295   3.456   3.193
 1262TIP3    H2 3751   4.378   3.383   3.090
 1263TIP3   OH2 3752   3.804   2.269   5.349
 1263TIP3    H1 3753   3.835   2.198   5.405
 1263TIP3    H2 3754   3.709   2.267   5.358
 1264TIP3   OH2 3755   6.748   3.800   1.973
 1264TIP3    H1 3756   6.794   3.716   1.985
 1264TIP3    H2 3757   6.741   3.809   1.878
 1265TIP3   OH2 3758   2.134   2.303   1.397
 1265TIP3    H1 3759   2.147   2.330   1.487
 1265TIP3    H2 3760   2.041   2.318   1.380
 1266TIP3   OH2 3761   5.564   2.772   1.522
 1266TIP3    H1 3762   5.552   2.686   1.560
 1266TIP3    H2 3763   5.575   2.756   1.428
 1267TIP3   OH2 3764   3.531   2.277   5.259
 1267TIP3    H1 3765   3.567   2.366   5.266
 1267TIP3    H2 3766   3.550   2.250   5.170
 1268TIP3   OH2 3767   5.231   3.662   0.397
 1268TIP3    H1 3768   5.195   3.716   0.467
 1268TIP3    H2 3769   5.154   3.626   0.353
 1269TIP3   OH2 3770   4.000   0.175   3.336
 1269TIP3    H1 3771   4.095   0.167   3.324
 1269TIP3    H2 3772   3.963   0.109   3.277
 1270TIP3   OH2 3773   3.146   5.060   2.142
 1270TIP3    H1 3774   3.208   5.124   2.106
 1270TIP3    H2 3775   3.121   5.097   2.227
 1271TIP3   OH2 3776   6.935   0.119   0.738
 1271TIP3    H1 3777   6.961   0.036   0.699
 1271TIP3    H2 3778   6.867   0.096   0.801
 1272TIP3   OH2 3779   6.359   0.268   1.020
 1272TIP3    H1 3780   6.266   0.294   1.017
 1272TIP3    H2 3781   6.406   0.351   1.027
 1273TIP3   OH2 3782   4.410   0.309   4.255
 1273TIP3    H1 3783   4.389   0.251   4.182
 1273TIP3    H2 3784   4.398   0.397   4.220
 1274TIP3   OH2 3785   3.703   5.937   2.048
 1274TIP3    H1 3786   3.766   5.970   2.113
 1274TIP3    H2 3787   3.678   6.015   1.998
 1275TIP3   OH2 3788   0.945   0.678   0.693
 1275TIP3    H1 3789   1.001   0.744   0.651
 1275TIP3    H2 3790   0.995   0.650   0.769
 1276TIP3   OH2 3791   0.046   1.891   1.952
 1276TIP3    H1 3792   0.069   1.979   1.923
 1276TIP3    H2 3793  -0.050   1.891   1.953
 1277TIP3   OH2 3794   4.693   4.994   2.627
 1277TIP3    H1 3795   4.697   4.905   2.591
 1277TIP3    H2 3796   4.731   5.050   2.560
 1278TIP3   OH2 3797   0.251   0.118   3.802
 1278TIP3    H1 3798   0.189   0.047   3.818
 1278TIP3    H2 3799   0.213   0.167   3.728
 1279TIP3   OH2 3800   1.400   0.888   0.773
 1279TIP3    H1 3801   1.447   0.972   0.778
 1279TIP3    H2 3802   1.374   0.870   0.863
 1280TIP3   OH2 3803   2.949   5.045   4.643
 1280TIP3    H1 3804   2.854   5.032   4.649
 1280TIP3    H2 3805   2.986   4.957   4.649
 1281TIP3   OH2 3806   3.248   5.162   2.687
 1281TIP3    H1 3807   3.195   5.177   2.765
 1281TIP3    H2 3808   3.279   5.250   2.662
 1282TIP3   OH2 3809   0.122   4.104   3.434
 1282TIP3    H1 3810   0.087   4.172   3.492
 1282TIP3    H2 3811   0.130   4.146   3.349
 1283TIP3   OH2 3812   3.915   0.354   5.069
 1283TIP3    H1 3813   3.865   0.273   5.065
 1283TIP3    H2 3814   4.001   0.331   5.034
 1284TIP3   OH2 3815   4.944   4.124   2.958
 1284TIP3    H1 3816   4.960   4.129   2.863
 1284TIP3    H2 3817   5.008   4.184   2.996
 1285TIP3   OH2 3818   0.125   0.363   3.171
 1285TIP3    H1 3819   0.190   0.301   3.206
 1285TIP3    H2 3820   0.043   0.336   3.212
 1286TIP3   OH2 3821   7.146   1.409   4.626
 1286TIP3    H1 3822   7.145   1.342   4.694
 1286TIP3    H2 3823   7.054   1.432   4.614
 1287TIP3   OH2 3824   6.100   4.624   0.386
 1287TIP3    H1 3825   6.062   4.685   0.449
 1287TIP3    H2 3826   6.133   4.679   0.316
 1288TIP3   OH2 3827   1.034   3.954   2.860
 1288TIP3    H1 3828   0.979   4.024   2.894
 1288TIP3    H2 3829   1.118   3.997   2.842
 1289TIP3   OH2 3830   4.930   6.654   2.416
 1289TIP3    H1 3831   4.990   6.727   2.432
 1289TIP3    H2 3832   4.853   6.695   2.376
 1290TIP3   OH2 3833   2.796   6.528   1.742
 1290TIP3    H1 3834   2.709   6.497   1.766
 1290TIP3    H2 3835   2.854   6.453   1.755
 1291TIP3   OH2 3836   0.416   1.922   3.132
 1291TIP3    H1 3837   0.432   2.009   3.170
 1291TIP3    H2 3838   0.401   1.939   3.039
 1292TIP3   OH2 3839   6.492   5.218   1.647
 1292TIP3    H1 3840   6.530   5.146   1.597
 1292TIP3    H2 3841   6.520   5.297   1.602
 1293TIP3   OH2 3842   3.586   3.143   3.578
 1293TIP3    H1 3843   3.544   3.200   3.514
 1293TIP3    H2 3844   3.608   3.064   3.529
 1294TIP3   OH2 3845   0.510   4.991   0.378
 1294TIP3    H1 3846   0.490   5.010   0.469
 1294TIP3    H2 3847   0.455   5.051   0.328
 1295TIP3   OH2 3848   4.564   4.855   5.395
 1295TIP3    H1 3849   4.529   4.790   5.457
 1295TIP3    H2 3850   4.487   4.903   5.365
 1296TIP3   OH2 3851   0.368   5.798   5.299
 1296TIP3    H1 3852   0.448   5.779   5.251
 1296TIP3    H2 3853   0.396   5.811   5.389
 1297TIP3   OH2 3854   3.599   0.992   5.083
 1297TIP3    H1 3855   3.594   1.018   4.991
 1297TIP3    H2 3856   3.537   1.050   5.127
 1298TIP3   OH2 3857   2.909   3.981   2.088
 1298TIP3    H1 3858   2.835   3.949   2.141
 1298TIP3    H2 3859   2.954   4.044   2.144
 1299TIP3   OH2 3860   6.096   0.871   2.269
 1299TIP3    H1 3861   6.175   0.848   2.220
 1299TIP3    H2 3862   6.129   0.915   2.348
 1300TIP3   OH2 3863   4.898   4.298   2.276
 1300TIP3    H1 3864   4.867   4.259   2.195
 1300TIP3    H2 3865   4.939   4.226   2.324
 1301TIP3   OH2 3866   2.679   5.439   2.902
 1301TIP3    H1 3867   2.745   5.371   2.918
 1301TIP3    H2 3868   2.596   5.392   2.895
 1302TIP3   OH2 3869   4.488   4.751   5.784
 1302TIP3    H1 3870   4.495   4.730   5.877
 1302TIP3    H2 3871   4.563   4.808   5.766
 1303TIP3   OH2 3872   4.173   5.052   4.684
 1303TIP3    H1 3873   4.144   5.005   4.761
 1303TIP3    H2 3874   4.217   4.986   4.631
 1304TIP3   OH2 3875   3.712   5.727   4.700
 1304TIP3    H1 3876   3.677   5.648   4.740
 1304TIP3    H2 3877   3.802   5.703   4.676
 1305TIP3   OH2 3878   4.727   6.019   3.143
 1305TIP3    H1 3879   4.809   6.056   3.110
 1305TIP3    H2 3880   4.661   6.084   3.120
 1306TIP3   OH2 3881   1.109   0.355   3.393
 1306TIP3    H1 3882   1.188   0.409   3.389
 1306TIP3    H2 3883   1.123   0.286   3.328
 1307TIP3   OH2 3884   6.892   5.849   0.961
 1307TIP3    H1 3885   6.986   5.834   0.956
 1307TIP3    H2 3886   6.857   5.817   0.878
 1308TIP3   OH2 3887   2.879   1.866   2.410
 1308TIP3    H1 3888   2.838   1.810   2.475
 1308TIP3    H2 3889   2.825   1.945   2.408
 1309TIP3   OH2 3890   5.407   2.114   0.814
 1309TIP3    H1 3891   5.492   2.076   0.838
 1309TIP3    H2 3892   5.400   2.101   0.719
 1310TIP3   OH2 3893   6.535   3.246   4.915
 1310TIP3    H1 3894   6.487   3.329   4.926
 1310TIP3    H2 3895   6.508   3.214   4.829
 1311TIP3   OH2 3896   6.524   1.419   0.628
 1311TIP3    H1 3897   6.594   1.374   0.675
 1311TIP3    H2 3898   6.514   1.503   0.674
 1312TIP3   OH2 3899   6.967   2.035   5.621
 1312TIP3    H1 3900   6.974   2.028   5.716
 1312TIP3    H2 3901   7.008   2.119   5.601
 1313TIP3   OH2 3902   0.769   1.568   3.494
 1313TIP3    H1 3903   0.792   1.655   3.528
 1313TIP3    H2 3904   0.680   1.578   3.460
 1314TIP3   OH2 3905   4.360   6.744   1.437
 1314TIP3    H1 3906   4.294   6.685   1.401
 1314TIP3    H2 3907   4.314   6.826   1.452
 1315TIP3   OH2 3908   5.637   5.703   4.755
 1315TIP3    H1 3909   5.664   5.739   4.670
 1315TIP3    H2 3910   5.633   5.779   4.813
 1316TIP3   OH2 3911   2.375   5.978   2.392
 1316TIP3    H1 3912   2.331   5.977   2.478
 1316TIP3    H2 3913   2.306   6.003   2.331
 1317TIP3   OH2 3914   3.051   5.167   1.447
 1317TIP3    H1 3915   3.036   5.097   1.510
 1317TIP3    H2 3916   3.091   5.124   1.372
 1318TIP3   OH2 3917   1.155   1.242   1.427
 1318TIP3    H1 3918   1.088   1.196   1.476
 1318TIP3    H2 3919   1.233   1.188   1.434
 1319TIP3   OH2 3920   5.999   2.203   0.393
 1319TIP3    H1 3921   6.078   2.256   0.398
 1319TIP3    H2 3922   6.029   2.112   0.400
 1320TIP3   OH2 3923   3.128   5.698   3.856
 1320TIP3    H1 3924   3.181   5.678   3.779
 1320TIP3    H2 3925   3.120   5.793   3.856
 1321TIP3   OH2 3926   2.350   0.409   2.818
 1321TIP3    H1 3927   2.262   0.415   2.854
 1321TIP3    H2 3928   2.408   0.427   2.892
 1322TIP3   OH2 3929   7.101   3.116   2.463
 1322TIP3    H1 3930   7.121   3.081   2.377
 1322TIP3    H2 3931   7.183   3.155   2.493
 1323TIP3   OH2 3932   1.561   0.373   0.861
 1323TIP3    H1 3933   1.587   0.293   0.907
 1323TIP3    H2 3934   1.631   0.388   0.798
 1324TIP3   OH2 3935   1.642   5.295   2.990
 1324TIP3    H1 3936   1.621   5.208   2.955
 1324TIP3    H2 3937   1.591   5.355   2.936
 1325TIP3   OH2 3938   3.511   4.805   1.454
 1325TIP3    H1 3939   3.529   4.739   1.522
 1325TIP3    H2 3940   3.416   4.815   1.455
 1326TIP3   OH2 3941   4.327   6.727   5.315
 1326TIP3    H1 3942   4.396   6.793   5.318
 1326TIP3    H2 3943   4.353   6.668   5.244
 1327TIP3   OH2 3944   3.522   6.430   1.282
 1327TIP3    H1 3945   3.476   6.512   1.298
 1327TIP3    H2 3946   3.512   6.381   1.363
 1328TIP3   OH2 3947   1.386   1.744   2.156
 1328TIP3    H1 3948   1.451   1.729   2.225
 1328TIP3    H2 3949   1.380   1.839   2.148
 1329TIP3   OH2 3950   3.389   6.134   4.646
 1329TIP3    H1 3951   3.411   6.199   4.713
 1329TIP3    H2 3952   3.474   6.099   4.617
 1330TIP3   OH2 3953   0.050   5.529   4.488
 1330TIP3    H1 3954   0.045   5.445   4.533
 1330TIP3    H2 3955   0.106   5.583   4.544
 1331TIP3   OH2 3956   5.510   1.316   5.631
 1331TIP3    H1 3957   5.536   1.326   5.723
 1331TIP3    H2 3958   5.544   1.230   5.607
 1332TIP3   OH2 3959   3.625   2.778   1.371
 1332TIP3    H1 3960   3.671   2.861   1.362
 1332TIP3    H2 3961   3.647   2.748   1.459
 1333TIP3   OH2 3962   0.556   5.912   4.624
 1333TIP3    H1 3963   0.595   5.830   4.653
 1333TIP3    H2 3964   0.492   5.887   4.558
 1334TIP3   OH2 3965   4.647   4.600   1.780
 1334TIP3    H1 3966   4.666   4.576   1.871
 1334TIP3    H2 3967   4.659   4.519   1.731
 1335TIP3   OH2 3968   1.351   0.599   4.209
 1335TIP3    H1 3969   1.373   0.650   4.131
 1335TIP3    H2 3970   1.433   0.555   4.232
 1336TIP3   OH2 3971   3.811   3.994   4.696
 1336TIP3    H1 3972   3.820   3.928   4.628
 1336TIP3    H2 3973   3.718   4.016   4.697
 1337TIP3   OH2 3974   3.019   3.910   1.509
 1337TIP3    H1 3975   2.988   3.957   1.586
 1337TIP3    H2 3976   3.012   3.973   1.437
 1338TIP3   OH2 3977   1.712   2.655   2.306
 1338TIP3    H1 3978   1.805   2.636   2.313
 1338TIP3    H2 3979   1.707   2.741   2.265
 1339TIP3   OH2 3980   4.373   2.246   0.724
 1339TIP3    H1 3981   4.404   2.332   0.696
 1339TIP3    H2 3982   4.348   2.201   0.642
 1340TIP3   OH2 3983   7.171   0.683   3.772
 1340TIP3    H1 3984   7.167   0.600   3.723
 1340TIP3    H2 3985   7.204   0.658   3.859
 1341TIP3   OH2 3986   3.858   4.407   5.808
 1341TIP3    H1 3987   3.835   4.483   5.755
 1341TIP3    H2 3988   3.775   4.364   5.827
 1342TIP3   OH2 3989   5.737   3.011   0.904
 1342TIP3    H1 3990   5.704   3.045   0.987
 1342TIP3    H2 3991   5.829   3.036   0.902
 1343TIP3   OH2 3992   1.492   0.280   3.612
 1343TIP3    H1 3993   1.445   0.309   3.690
 1343TIP3    H2 3994   1.469   0.345   3.545
 1344TIP3   OH2 3995   4.616   5.927   0.173
 1344TIP3    H1 3996   4.677   6.000   0.181
 1344TIP3    H2 3997   4.558   5.953   0.101
 1345TIP3   OH2 3998   6.919   4.091   5.377
 1345TIP3    H1 3999   6.892   4.146   5.303
 1345TIP3    H2 4000   6.934   4.152   5.449
 1346TIP3   OH2 4001   4.510   6.512   4.900
 1346TIP3    H1 4002   4.539   6.593   4.943
 1346TIP3    H2 4003   4.591   6.470   4.870
 1347TIP3   OH2 4004   0.024   0.787   3.294
 1347TIP3    H1 4005   0.081   0.811   3.366
 1347TIP3    H2 4006   0.077   0.800   3.216
 1348TIP3   OH2 4007   5.478   3.922   4.870
 1348TIP3    H1 4008   5.468   3.848   4.930
 1348TIP3    H2 4009   5.412   3.907   4.802
 1349TIP3   OH2 4010   4.760   4.340   2.501
 1349TIP3    H1 4011   4.782   4.265   2.446
 1349TIP3    H2 4012   4.791   4.416   2.453
 1350TIP3   OH2 4013   4.956   0.874   2.518
 1350TIP3    H1 4014   4.979   0.966   2.536
 1350TIP3    H2 4015   5.040   0.831   2.504
 1351TIP3   OH2 4016   3.810   5.196   1.274
 1351TIP3    H1 4017   3.751   5.128   1.305
 1351TIP3    H2 4018   3.897   5.157   1.277
 1352TIP3   OH2 4019   4.006   5.144   2.580
 1352TIP3    H1 4020   4.062   5.071   2.606
 1352TIP3    H2 4021   3.992   5.193   2.662
 1353TIP3   OH2 4022   3.266   1.677   4.489
 1353TIP3    H1 4023   3.341   1.731   4.465
 1353TIP3    H2 4024   3.190   1.722   4.452
 1354TIP3   OH2 4025   2.372   5.146   5.213
 1354TIP3    H1 4026   2.459   5.126   5.179
 1354TIP3    H2 4027   2.328   5.192   5.141
 1355TIP3   OH2 4028   1.623   0.613   0.408
 1355TIP3    H1 4029   1.598   0.531   0.449
 1355TIP3    H2 4030   1.651   0.669   0.481
 1356TIP3   OH2 4031   6.646   5.956   3.930
 1356TIP3    H1 4032   6.694   5.952   4.012
 1356TIP3    H2 4033   6.704   5.915   3.866
 1357TIP3   OH2 4034   3.510   3.243   1.869
 1357TIP3    H1 4035   3.540   3.184   1.939
 1357TIP3    H2 4036   3.440   3.295   1.910
 1358TIP3   OH2 4037   6.854   0.364   4.899
 1358TIP3    H1 4038   6.868   0.410   4.816
 1358TIP3    H2 4039   6.942   0.352   4.935
 1359TIP3   OH2 4040   6.328   1.668   5.163
 1359TIP3    H1 4041   6.406   1.715   5.132
 1359TIP3    H2 4042   6.273   1.660   5.085
 1360TIP3   OH2 4043   1.188   3.853   1.312
 1360TIP3    H1 4044   1.166   3.836   1.404
 1360TIP3    H2 4045   1.265   3.909   1.316
 1361TIP3   OH2 4046   0.851   4.743   1.610
 1361TIP3    H1 4047   0.885   4.820   1.566
 1361TIP3    H2 4048   0.756   4.746   1.595
 1362TIP3   OH2 4049   4.659   3.676   1.812
 1362TIP3    H1 4050   4.677   3.733   1.886
 1362TIP3    H2 4051   4.582   3.715   1.770
 1363TIP3   OH2 4052   1.665   4.911   2.789
 1363TIP3    H1 4053   1.600   4.977   2.815
 1363TIP3    H2 4054   1.638   4.831   2.835
 1364TIP3   OH2 4055   6.977   2.229   1.213
 1364TIP3    H1 4056   6.886   2.235   1.186
 1364TIP3    H2 4057   7.027   2.232   1.131
 1365TIP3   OH2 4058   1.265   2.226   1.448
 1365TIP3    H1 4059   1.268   2.210   1.354
 1365TIP3    H2 4060   1.171   2.237   1.467
 1366TIP3   OH2 4061   3.009   0.102   1.773
 1366TIP3    H1 4062   3.044   0.014   1.758
 1366TIP3    H2 4063   2.951   0.092   1.848
 1367TIP3   OH2 4064   3.909   2.422   1.609
 1367TIP3    H1 4065   3.830   2.413   1.556
 1367TIP3    H2 4066   3.877   2.427   1.699
 1368TIP3   OH2 4067   1.116   0.395   0.438
 1368TIP3    H1 4068   1.030   0.385   0.479
 1368TIP3    H2 4069   1.179   0.371   0.507
 1369TIP3   OH2 4070   1.398   2.721   2.577
 1369TIP3    H1 4071   1.469   2.661   2.601
 1369TIP3    H2 4072   1.372   2.761   2.659
 1370TIP3   OH2 4073   0.607   6.266   4.899
 1370TIP3    H1 4074   0.601   6.206   4.973
 1370TIP3    H2 4075   0.548   6.338   4.922
 1371TIP3   OH2 4076   0.397   1.302   0.306
 1371TIP3    H1 4077   0.349   1.346   0.376
 1371TIP3    H2 4078   0.455   1.241   0.352
 1372TIP3   OH2 4079   1.991   2.360   4.541
 1372TIP3    H1 4080   1.923   2.294   4.526
 1372TIP3    H2 4081   2.016   2.388   4.452
 1373TIP3   OH2 4082   3.001   3.912   4.073
 1373TIP3    H1 4083   2.968   3.850   4.008
 1373TIP3    H2 4084   2.954   3.993   4.056
 1374TIP3   OH2 4085   3.303   6.020   1.486
 1374TIP3    H1 4086   3.238   5.953   1.467
 1374TIP3    H2 4087   3.296   6.035   1.581
 1375TIP3   OH2 4088   3.855   5.075   2.861
 1375TIP3    H1 4089   3.936   5.067   2.911
 1375TIP3    H2 4090   3.848   5.168   2.841
 1376TIP3   OH2 4091   0.542   3.728   4.424
 1376TIP3    H1 4092   0.631   3.719   4.390
 1376TIP3    H2 4093   0.498   3.786   4.361
 1377TIP3   OH2 4094   0.808   4.706   0.022
 1377TIP3    H1 4095   0.736   4.710   0.084
 1377TIP3    H2 4096   0.866   4.778   0.047
 1378TIP3   OH2 4097   0.787   6.243   0.844
 1378TIP3    H1 4098   0.779   6.258   0.750
 1378TIP3    H2 4099   0.702   6.207   0.869
 1379TIP3   OH2 4100   1.382   3.030   5.577
 1379TIP3    H1 4101   1.356   3.048   5.667
 1379TIP3    H2 4102   1.350   2.941   5.560
 1380TIP3   OH2 4103   0.644   4.689   0.424
 1380TIP3    H1 4104   0.701   4.622   0.387
 1380TIP3    H2 4105   0.609   4.736   0.348
 1381TIP3   OH2 4106   5.184   6.407   4.626
 1381TIP3    H1 4107   5.249   6.451   4.572
 1381TIP3    H2 4108   5.138   6.348   4.566
 1382TIP3   OH2 4109   3.892   5.593   4.243
 1382TIP3    H1 4110   3.854   5.671   4.285
 1382TIP3    H2 4111   3.984   5.595   4.269
 1383TIP3   OH2 4112   1.677   2.219   1.799
 1383TIP3    H1 4113   1.652   2.138   1.755
 1383TIP3    H2 4114   1.603   2.240   1.856
 1384TIP3   OH2 4115   4.186   3.402   4.138
 1384TIP3    H1 4116   4.279   3.420   4.124
 1384TIP3    H2 4117   4.148   3.487   4.158
 1385TIP3   OH2 4118   3.720   1.549   5.719
 1385TIP3    H1 4119   3.662   1.485   5.678
 1385TIP3    H2 4120   3.808   1.514   5.704
 1386TIP3   OH2 4121   5.542   4.608   3.099
 1386TIP3    H1 4122   5.553   4.677   3.034
 1386TIP3    H2 4123   5.451   4.616   3.128
 1387TIP3   OH2 4124   0.560   5.872   1.746
 1387TIP3    H1 4125   0.652   5.878   1.770
 1387TIP3    H2 4126   0.543   5.778   1.738
 1388TIP3   OH2 4127   0.392   0.878   4.983
 1388TIP3    H1 4128   0.429   0.794   5.007
 1388TIP3    H2 4129   0.335   0.901   5.056
 1389TIP3   OH2 4130   2.963   2.562   5.423
 1389TIP3    H1 4131   2.879   2.537   5.461
 1389TIP3    H2 4132   3.021   2.490   5.444
 1390TIP3   OH2 4133   6.538   2.880   5.508
 1390TIP3    H1 4134   6.620   2.904   5.463
 1390TIP3    H2 4135   6.485   2.839   5.440
 1391TIP3   OH2 4136   0.462   6.465   1.500
 1391TIP3    H1 4137   0.425   6.432   1.418
 1391TIP3    H2 4138   0.546   6.420   1.507
 1392TIP3   OH2 4139   5.261   5.260   0.293
 1392TIP3    H1 4140   5.261   5.168   0.266
 1392TIP3    H2 4141   5.353   5.286   0.289
 1393TIP3   OH2 4142   5.078   3.695   3.212
 1393TIP3    H1 4143   5.164   3.671   3.176
 1393TIP3    H2 4144   5.097   3.725   3.301
 1394TIP3   OH2 4145   1.418   5.910   2.639
 1394TIP3    H1 4146   1.413   5.828   2.688
 1394TIP3    H2 4147   1.386   5.887   2.551
 1395TIP3   OH2 4148   4.341   6.395   2.774
 1395TIP3    H1 4149   4.269   6.333   2.789
 1395TIP3    H2 4150   4.350   6.442   2.857
 1396TIP3   OH2 4151   5.281   6.408   2.364
 1396TIP3    H1 4152   5.234   6.341   2.315
 1396TIP3    H2 4153   5.229   6.421   2.443
 1397TIP3   OH2 4154   3.680   0.204   1.343
 1397TIP3    H1 4155   3.647   0.174   1.428
 1397TIP3    H2 4156   3.757   0.257   1.365
 1398TIP3   OH2 4157   4.723   1.376   0.902
 1398TIP3    H1 4158   4.718   1.286   0.871
 1398TIP3    H2 4159   4.695   1.429   0.827
 1399TIP3   OH2 4160   6.275   6.316   3.085
 1399TIP3    H1 4161   6.333   6.298   3.010
 1399TIP3    H2 4162   6.223   6.237   3.095
 1400TIP3   OH2 4163   5.756   6.672   2.069
 1400TIP3    H1 4164   5.716   6.742   2.017
 1400TIP3    H2 4165   5.691   6.601   2.068
 1401TIP3   OH2 4166   4.282   6.076   3.465
 1401TIP3    H1 4167   4.366   6.099   3.425
 1401TIP3    H2 4168   4.267   5.986   3.438
 1402TIP3   OH2 4169   3.124   1.762   1.734
 1402TIP3    H1 4170   3.202   1.778   1.681
 1402TIP3    H2 4171   3.092   1.849   1.757
 1403TIP3   OH2 4172   6.618   0.365   3.672
 1403TIP3    H1 4173   6.533   0.382   3.714
 1403TIP3    H2 4174   6.669   0.320   3.740
 1404TIP3   OH2 4175   1.070   1.351   0.234
 1404TIP3    H1 4176   1.112   1.287   0.177
 1404TIP3    H2 4177   1.137   1.372   0.299
 1405TIP3   OH2 4178   6.779   2.666   4.844
 1405TIP3    H1 4179   6.854   2.718   4.874
 1405TIP3    H2 4180   6.812   2.622   4.765
 1406TIP3   OH2 4181   0.086   0.665   4.012
 1406TIP3    H1 4182   0.061   0.722   4.085
 1406TIP3    H2 4183   0.157   0.711   3.968
 1407TIP3   OH2 4184   3.281   1.895   0.042
 1407TIP3    H1 4185   3.228   1.862  -0.031
 1407TIP3    H2 4186   3.371   1.896   0.008
 1408TIP3   OH2 4187   1.565   0.925   0.141
 1408TIP3    H1 4188   1.514   0.845   0.158
 1408TIP3    H2 4189   1.531   0.958   0.058
 1409TIP3   OH2 4190   3.435   0.905   5.812
 1409TIP3    H1 4191   3.454   0.838   5.878
 1409TIP3    H2 4192   3.355   0.874   5.769
 1410TIP3   OH2 4193   6.944   3.732   4.684
 1410TIP3    H1 4194   6.957   3.673   4.758
 1410TIP3    H2 4195   6.976   3.683   4.608
 1411TIP3   OH2 4196   5.277   3.167   2.863
 1411TIP3    H1 4197   5.217   3.215   2.920
 1411TIP3    H2 4198   5.280   3.079   2.900
 1412TIP3   OH2 4199   2.191   3.772   5.577
 1412TIP3    H1 4200   2.184   3.862   5.609
 1412TIP3    H2 4201   2.162   3.717   5.650
 1413TIP3   OH2 4202   3.245   5.370   4.342
 1413TIP3    H1 4203   3.192   5.415   4.276
 1413TIP3    H2 4204   3.185   5.353   4.414
 1414TIP3   OH2 4205   3.899   4.075   5.319
 1414TIP3    H1 4206   3.925   4.014   5.388
 1414TIP3    H2 4207   3.982   4.104   5.280
 1415TIP3   OH2 4208   0.674   0.514   5.687
 1415TIP3    H1 4209   0.620   0.589   5.710
 1415TIP3    H2 4210   0.614   0.439   5.690
 1416TIP3   OH2 4211   5.694   3.582   4.181
 1416TIP3    H1 4212   5.722   3.556   4.269
 1416TIP3    H2 4213   5.672   3.674   4.190
 1417TIP3   OH2 4214   4.860   3.784   2.855
 1417TIP3    H1 4215   4.948   3.822   2.863
 1417TIP3    H2 4216   4.846   3.738   2.937
 1418TIP3   OH2 4217   3.759   1.491   2.373
 1418TIP3    H1 4218   3.688   1.526   2.320
 1418TIP3    H2 4219   3.810   1.568   2.399
 1419TIP3   OH2 4220   2.646   4.747   5.280
 1419TIP3    H1 4221   2.551   4.736   5.272
 1419TIP3    H2 4222   2.679   4.658   5.293
 1420TIP3   OH2 4223   6.949   6.027   1.771
 1420TIP3    H1 4224   6.929   5.943   1.729
 1420TIP3    H2 4225   6.880   6.037   1.838
 1421TIP3   OH2 4226   1.059   6.168   2.836
 1421TIP3    H1 4227   1.000   6.214   2.776
 1421TIP3    H2 4228   1.105   6.106   2.781
 1422TIP3   OH2 4229   1.614   1.386   0.941
 1422TIP3    H1 4230   1.658   1.332   1.006
 1422TIP3    H2 4231   1.633   1.476   0.966
 1423TIP3   OH2 4232   4.275   4.984   1.626
 1423TIP3    H1 4233   4.274   5.076   1.652
 1423TIP3    H2 4234   4.363   4.969   1.591
 1424TIP3   OH2 4235   0.396   0.910   1.081
 1424TIP3    H1 4236   0.468   0.871   1.032
 1424TIP3    H2 4237   0.333   0.839   1.092
 1425TIP3   OH2 4238   1.998   0.309   4.847
 1425TIP3    H1 4239   1.940   0.370   4.800
 1425TIP3    H2 4240   2.086   0.331   4.816
 1426TIP3   OH2 4241   0.677   3.262   0.196
 1426TIP3    H1 4242   0.583   3.257   0.212
 1426TIP3    H2 4243   0.711   3.176   0.221
 1427TIP3   OH2 4244   2.149   4.090   4.171
 1427TIP3    H1 4245   2.233   4.049   4.148
 1427TIP3    H2 4246   2.083   4.025   4.145
 1428TIP3   OH2 4247   7.011   5.646   5.197
 1428TIP3    H1 4248   7.082   5.699   5.234
 1428TIP3    H2 4249   6.934   5.702   5.201
 1429TIP3   OH2 4250   5.107   1.042   0.043
 1429TIP3    H1 4251   5.135   1.096   0.117
 1429TIP3    H2 4252   5.083   0.958   0.082
 1430TIP3   OH2 4253   1.327   0.666   4.474
 1430TIP3    H1 4254   1.325   0.640   4.382
 1430TIP3    H2 4255   1.394   0.734   4.479
 1431TIP3   OH2 4256   3.936   0.784   4.508
 1431TIP3    H1 4257   3.967   0.850   4.446
 1431TIP3    H2 4258   3.922   0.706   4.455
 1432TIP3   OH2 4259   6.649   6.391   2.951
 1432TIP3    H1 4260   6.596   6.460   2.992
 1432TIP3    H2 4261   6.660   6.325   3.019
 1433TIP3   OH2 4262   1.201   4.317   3.540
 1433TIP3    H1 4263   1.115   4.326   3.500
 1433TIP3    H2 4264   1.209   4.224   3.559
 1434TIP3   OH2 4265   1.385   5.235   1.116
 1434TIP3    H1 4266   1.383   5.310   1.175
 1434TIP3    H2 4267   1.296   5.200   1.119
 1435TIP3   OH2 4268   2.491   0.045   4.939
 1435TIP3    H1 4269   2.461   0.133   4.917
 1435TIP3    H2 4270   2.464  -0.009   4.865
 1436TIP3   OH2 4271   5.281   1.909   1.691
 1436TIP3    H1 4272   5.370   1.878   1.671
 1436TIP3    H2 4273   5.238   1.912   1.605
 1437TIP3   OH2 4274   0.746   5.711   0.099
 1437TIP3    H1 4275   0.678   5.735   0.037
 1437TIP3    H2 4276   0.722   5.623   0.128
 1438TIP3   OH2 4277   0.301   4.560   1.024
 1438TIP3    H1 4278   0.311   4.465   1.029
 1438TIP3    H2 4279   0.307   4.589   1.114
 1439TIP3   OH2 4280   3.994   1.917   3.098
 1439TIP3    H1 4281   4.000   1.995   3.154
 1439TIP3    H2 4282   3.928   1.862   3.140
 1440TIP3   OH2 4283   3.594   6.134   1.899
 1440TIP3    H1 4284   3.684   6.163   1.882
 1440TIP3    H2 4285   3.548   6.215   1.923
 1441TIP3   OH2 4286   3.145   0.705   3.608
 1441TIP3    H1 4287   3.060   0.699   3.563
 1441TIP3    H2 4288   3.175   0.795   3.592
 1442TIP3   OH2 4289   4.042   2.940   2.404
 1442TIP3    H1 4290   4.102   2.951   2.477
 1442TIP3    H2 4291   4.082   2.871   2.350
 1443TIP3   OH2 4292   5.736   3.601   2.516
 1443TIP3    H1 4293   5.677   3.665   2.556
 1443TIP3    H2 4294   5.750   3.634   2.428
 1444TIP3   OH2 4295   0.400   4.784   0.898
 1444TIP3    H1 4296   0.369   4.694   0.907
 1444TIP3    H2 4297   0.455   4.782   0.819
 1445TIP3   OH2 4298   2.777   5.426   2.000
 1445TIP3    H1 4299   2.862   5.384   1.987
 1445TIP3    H2 4300   2.745   5.389   2.083
 1446TIP3   OH2 4301   7.260   4.852   0.071
 1446TIP3    H1 4302   7.223   4.887   0.152
 1446TIP3    H2 4303   7.185   4.844   0.012
 1447TIP3   OH2 4304   1.215   0.870  -0.004
 1447TIP3    H1 4305   1.126   0.838   0.012
 1447TIP3    H2 4306   1.252   0.881   0.084
 1448TIP3   OH2 4307   1.948   0.796   4.467
 1448TIP3    H1 4308   1.940   0.888   4.489
 1448TIP3    H2 4309   1.859   0.761   4.471
 1449TIP3   OH2 4310   4.116   3.427   5.239
 1449TIP3    H1 4311   4.081   3.423   5.328
 1449TIP3    H2 4312   4.044   3.458   5.186
 1450TIP3   OH2 4313   4.070   4.851   2.443
 1450TIP3    H1 4314   4.056   4.757   2.432
 1450TIP3    H2 4315   4.026   4.872   2.525
 1451TIP3   OH2 4316   2.770   3.176   4.950
 1451TIP3    H1 4317   2.716   3.205   4.876
 1451TIP3    H2 4318   2.798   3.087   4.926
 1452TIP3   OH2 4319   5.721   4.324   4.372
 1452TIP3    H1 4320   5.712   4.419   4.380
 1452TIP3    H2 4321   5.790   4.312   4.307
 1453TIP3   OH2 4322   1.875   4.881   3.024
 1453TIP3    H1 4323   1.822   4.928   3.089
 1453TIP3    H2 4324   1.813   4.825   2.978
 1454TIP3   OH2 4325   0.270   5.705   1.973
 1454TIP3    H1 4326   0.185   5.743   1.951
 1454TIP3    H2 4327   0.330   5.779   1.974
 1455TIP3   OH2 4328   4.408   6.023   4.884
 1455TIP3    H1 4329   4.325   6.071   4.882
 1455TIP3    H2 4330   4.395   5.953   4.948
 1456TIP3   OH2 4331   7.212   3.888   5.580
 1456TIP3    H1 4332   7.118   3.870   5.581
 1456TIP3    H2 4333   7.245   3.850   5.661
 1457TIP3   OH2 4334   3.792   0.206   2.224
 1457TIP3    H1 4335   3.715   0.183   2.276
 1457TIP3    H2 4336   3.781   0.299   2.205
 1458TIP3   OH2 4337   2.758   0.090   0.852
 1458TIP3    H1 4338   2.676   0.128   0.885
 1458TIP3    H2 4339   2.793   0.040   0.925
 1459TIP3   OH2 4340   6.603   0.501   5.157
 1459TIP3    H1 4341   6.681   0.520   5.105
 1459TIP3    H2 4342   6.533   0.487   5.093
 1460TIP3   OH2 4343   0.989   5.433   1.767
 1460TIP3    H1 4344   0.904   5.420   1.808
 1460TIP3    H2 4345   0.982   5.516   1.721
 1461TIP3   OH2 4346   2.639   3.056   1.359
 1461TIP3    H1 4347   2.682   2.983   1.404
 1461TIP3    H2 4348   2.692   3.132   1.381
 1462TIP3   OH2 4349   2.940   6.421   3.805
 1462TIP3    H1 4350   2.965   6.480   3.877
 1462TIP3    H2 4351   3.021   6.406   3.757
 1463TIP3   OH2 4352   3.269   2.547   4.922
 1463TIP3    H1 4353   3.303   2.601   4.850
 1463TIP3    H2 4354   3.284   2.600   5.000
 1464TIP3   OH2 4355   3.052   4.890   3.502
 1464TIP3    H1 4356   3.100   4.808   3.488
 1464TIP3    H2 4357   3.080   4.920   3.588
 1465TIP3   OH2 4358   0.559   6.009   4.250
 1465TIP3    H1 4359   0.463   6.007   4.260
 1465TIP3    H2 4360   0.580   5.923   4.212
 1466TIP3   OH2 4361   5.221   2.625   5.016
 1466TIP3    H1 4362   5.194   2.634   5.108
 1466TIP3    H2 4363   5.291   2.689   5.005
 1467TIP3   OH2 4364   2.351   0.911   4.218
 1467TIP3    H1 4365   2.432   0.897   4.170
 1467TIP3    H2 4366   2.360   0.999   4.255
 1468TIP3   OH2 4367   4.024   1.000   3.231
 1468TIP3    H1 4368   3.986   1.087   3.240
 1468TIP3    H2 4369   4.075   1.005   3.150
 1469TIP3   OH2 4370   0.094   0.024   4.296
 1469TIP3    H1 4371   0.147   0.033   4.217
 1469TIP3    H2 4372   0.143  -0.036   4.352
 1470TIP3   OH2 4373   4.045   3.628   4.682
 1470TIP3    H1 4374   4.008   3.711   4.711
 1470TIP3    H2 4375   4.005   3.613   4.596
 1471TIP3   OH2 4376   1.241   6.264   2.520
 1471TIP3    H1 4377   1.226   6.170   2.523
 1471TIP3    H2 4378   1.156   6.301   2.497
 1472TIP3   OH2 4379   6.338   3.151   4.094
 1472TIP3    H1 4380   6.299   3.063   4.094
 1472TIP3    H2 4381   6.403   3.149   4.164
 1473TIP3   OH2 4382   4.095   3.949   2.411
 1473TIP3    H1 4383   4.068   3.908   2.493
 1473TIP3    H2 4384   4.069   3.886   2.343
 1474TIP3   OH2 4385   4.799   1.529   2.896
 1474TIP3    H1 4386   4.714   1.515   2.853
 1474TIP3    H2 4387   4.862   1.525   2.825
 1475TIP3   OH2 4388   3.396   6.770   1.773
 1475TIP3    H1 4389   3.442   6.803   1.696
 1475TIP3    H2 4390   3.445   6.692   1.799
 1476TIP3   OH2 4391   1.555   6.108   0.597
 1476TIP3    H1 4392   1.517   6.182   0.549
 1476TIP3    H2 4393   1.631   6.082   0.544
 1477TIP3   OH2 4394   3.939   0.424   1.422
 1477TIP3    H1 4395   3.986   0.356   1.373
 1477TIP3    H2 4396   3.974   0.418   1.511
 1478TIP3   OH2 4397   5.424   3.221   0.390
 1478TIP3    H1 4398   5.471   3.298   0.358
 1478TIP3    H2 4399   5.368   3.195   0.317
 1479TIP3   OH2 4400   4.826   6.418   4.258
 1479TIP3    H1 4401   4.813   6.323   4.260
 1479TIP3    H2 4402   4.916   6.431   4.288
 1480TIP3   OH2 4403   4.517   2.241   4.337
 1480TIP3    H1 4404   4.468   2.323   4.344
 1480TIP3    H2 4405   4.454   2.179   4.301
 1481TIP3   OH2 4406   3.361   0.940   0.169
 1481TIP3    H1 4407   3.293   0.905   0.226
 1481TIP3    H2 4408   3.401   1.011   0.220
 1482TIP3   OH2 4409   5.128   6.486   1.609
 1482TIP3    H1 4410   5.164   6.533   1.533
 1482TIP3    H2 4411   5.033   6.487   1.595
 1483TIP3   OH2 4412   1.315   3.189   5.328
 1483TIP3    H1 4413   1.355   3.136   5.397
 1483TIP3    H2 4414   1.389   3.231   5.284
 1484TIP3   OH2 4415   5.298   4.606   1.088
 1484TIP3    H1 4416   5.267   4.692   1.057
 1484TIP3    H2 4417   5.320   4.620   1.180
 1485TIP3   OH2 4418   6.752   6.112   0.286
 1485TIP3    H1 4419   6.713   6.153   0.363
 1485TIP3    H2 4420   6.825   6.169   0.263
 1486TIP3   OH2 4421   7.086   0.436   0.027
 1486TIP3    H1 4422   7.098   0.436   0.122
 1486TIP3    H2 4423   7.174   0.444  -0.009
 1487TIP3   OH2 4424   1.650   4.612   2.669
 1487TIP3    H1 4425   1.734   4.654   2.650
 1487TIP3    H2 4426   1.635   4.632   2.762
 1488TIP3   OH2 4427   5.701   4.092   2.821
 1488TIP3    H1 4428   5.775   4.138   2.861
 1488TIP3    H2 4429   5.722   3.999   2.831
 1489TIP3   OH2 4430   6.761   1.605   1.296
 1489TIP3    H1 4431   6.710   1.677   1.261
 1489TIP3    H2 4432   6.798   1.561   1.219
 1490TIP3   OH2 4433   3.464   0.834   1.931
 1490TIP3    H1 4434   3.464   0.902   1.999
 1490TIP3    H2 4435   3.495   0.879   1.852
 1491TIP3   OH2 4436   2.888   3.759   3.405
 1491TIP3    H1 4437   2.829   3.691   3.437
 1491TIP3    H2 4438   2.835   3.810   3.344
 1492TIP3   OH2 4439   1.333   4.074   4.708
 1492TIP3    H1 4440   1.279   4.131   4.653
 1492TIP3    H2 4441   1.273   4.006   4.738
 1493TIP3   OH2 4442   2.752   6.125   0.125
 1493TIP3    H1 4443   2.795   6.062   0.067
 1493TIP3    H2 4444   2.824   6.178   0.160
 1494TIP3   OH2 4445   3.135   1.805   2.672
 1494TIP3    H1 4446   3.062   1.863   2.693
 1494TIP3    H2 4447   3.158   1.765   2.756
 1495TIP3   OH2 4448   1.425   4.547   3.454
 1495TIP3    H1 4449   1.372   4.626   3.459
 1495TIP3    H2 4450   1.368   4.481   3.415
 1496TIP3   OH2 4451   2.032   6.053   2.715
 1496TIP3    H1 4452   2.025   6.130   2.771
 1496TIP3    H2 4453   2.038   5.979   2.775
 1497TIP3   OH2 4454   4.697   1.151   1.417
 1497TIP3    H1 4455   4.618   1.171   1.467
 1497TIP3    H2 4456   4.679   1.185   1.330
 1498TIP3   OH2 4457   0.681   4.654   3.954
 1498TIP3    H1 4458   0.774   4.658   3.931
 1498TIP3    H2 4459   0.655   4.564   3.936
 1499TIP3   OH2 4460   6.502   0.052   0.203
 1499TIP3    H1 4461   6.419   0.090   0.234
 1499TIP3    H2 4462   6.476  -0.010   0.135
 1500TIP3   OH2 4463   5.824   3.761   1.305
 1500TIP3    H1 4464   5.904   3.790   1.260
 1500TIP3    H2 4465   5.806   3.831   1.368
 1501TIP3   OH2 4466   2.187   5.996   5.638
 1501TIP3    H1 4467   2.141   6.077   5.660
 1501TIP3    H2 4468   2.128   5.926   5.668
 1502TIP3   OH2 4469   7.256   3.509   2.156
 1502TIP3    H1 4470   7.180   3.471   2.112
 1502TIP3    H2 4471   7.227   3.595   2.186
 1503TIP3   OH2 4472   1.642   1.008   5.833
 1503TIP3    H1 4473   1.641   1.102   5.854
 1503TIP3    H2 4474   1.735   0.984   5.837
 1504TIP3   OH2 4475   3.426   4.670   0.316
 1504TIP3    H1 4476   3.379   4.751   0.299
 1504TIP3    H2 4477   3.518   4.692   0.301
 1505TIP3   OH2 4478   3.787   4.379   0.503
 1505TIP3    H1 4479   3.882   4.388   0.507
 1505TIP3    H2 4480   3.755   4.430   0.577
 1506TIP3   OH2 4481   5.763   3.922   3.499
 1506TIP3    H1 4482   5.787   3.923   3.406
 1506TIP3    H2 4483   5.842   3.889   3.543
 1507TIP3   OH2 4484   3.144   3.376   5.570
 1507TIP3    H1 4485   3.105   3.448   5.620
 1507TIP3    H2 4486   3.236   3.400   5.561
 1508TIP3   OH2 4487   3.176   4.210   1.343
 1508TIP3    H1 4488   3.106   4.275   1.334
 1508TIP3    H2 4489   3.165   4.153   1.267
 1509TIP3   OH2 4490   2.490   3.492   0.113
 1509TIP3    H1 4491   2.446   3.436   0.049
 1509TIP3    H2 4492   2.551   3.433   0.157
 1510TIP3   OH2 4493   1.622   6.199   5.447
 1510TIP3    H1 4494   1.613   6.255   5.525
 1510TIP3    H2 4495   1.610   6.110   5.481
 1511TIP3   OH2 4496   3.206   3.158   0.673
 1511TIP3    H1 4497   3.276   3.209   0.633
 1511TIP3    H2 4498   3.179   3.210   0.749
 1512TIP3   OH2 4499   5.253   6.019   5.676
 1512TIP3    H1 4500   5.201   6.014   5.756
 1512TIP3    H2 4501   5.330   5.966   5.694
 1513TIP3   OH2 4502   0.433   4.616   5.027
 1513TIP3    H1 4503   0.377   4.559   4.974
 1513TIP3    H2 4504   0.508   4.635   4.972
 1514TIP3   OH2 4505   6.625   2.567   0.230
 1514TIP3    H1 4506   6.687   2.601   0.165
 1514TIP3    H2 4507   6.543   2.612   0.210
 1515TIP3   OH2 4508   3.274   3.125   4.775
 1515TIP3    H1 4509   3.192   3.147   4.818
 1515TIP3    H2 4510   3.336   3.190   4.807
 1516TIP3   OH2 4511   3.060   5.990   5.679
 1516TIP3    H1 4512   3.086   6.076   5.645
 1516TIP3    H2 4513   2.995   5.959   5.616
 1517TIP3   OH2 4514   0.534   6.084   5.078
 1517TIP3    H1 4515   0.457   6.123   5.119
 1517TIP3    H2 4516   0.589   6.057   5.151
 1518TIP3   OH2 4517   2.270   5.358   4.496
 1518TIP3    H1 4518   2.254   5.329   4.406
 1518TIP3    H2 4519   2.213   5.303   4.549
 1519TIP3   OH2 4520   4.553   0.624   2.342
 1519TIP3    H1 4521   4.647   0.619   2.325
 1519TIP3    H2 4522   4.521   0.690   2.280
 1520TIP3   OH2 4523   2.205   2.771   5.678
 1520TIP3    H1 4524   2.235   2.814   5.598
 1520TIP3    H2 4525   2.129   2.823   5.706
 1521TIP3   OH2 4526   3.490   2.604   1.561
 1521TIP3    H1 4527   3.463   2.535   1.622
 1521TIP3    H2 4528   3.409   2.651   1.541
 1522TIP3   OH2 4529   1.969   2.290   3.293
 1522TIP3    H1 4530   1.912   2.295   3.217
 1522TIP3    H2 4531   1.909   2.285   3.368
 1523TIP3   OH2 4532   2.062   5.696   5.285
 1523TIP3    H1 4533   2.105   5.742   5.357
 1523TIP3    H2 4534   2.072   5.755   5.210
 1524TIP3   OH2 4535   7.003   2.997   1.784
 1524TIP3    H1 4536   7.036   3.008   1.695
 1524TIP3    H2 4537   7.040   2.913   1.813
 1525TIP3   OH2 4538   4.511   6.568   2.117
 1525TIP3    H1 4539   4.573   6.512   2.069
 1525TIP3    H2 4540   4.450   6.506   2.158
 1526TIP3   OH2 4541   3.156   2.954   2.708
 1526TIP3    H1 4542   3.239   2.921   2.742
 1526TIP3    H2 4543   3.094   2.883   2.724
 1527TIP3   OH2 4544   5.912   4.295   4.198
 1527TIP3    H1 4545   6.007   4.286   4.190
 1527TIP3    H2 4546   5.877   4.218   4.154
 1528TIP3   OH2 4547   1.515   3.390   2.430
 1528TIP3    H1 4548   1.495   3.466   2.485
 1528TIP3    H2 4549   1.444   3.388   2.366
 1529TIP3   OH2 4550   6.967   4.343   3.715
 1529TIP3    H1 4551   6.939   4.434   3.715
 1529TIP3    H2 4552   6.982   4.322   3.808
 1530TIP3   OH2 4553   1.942   3.198   5.816
 1530TIP3    H1 4554   1.903   3.285   5.823
 1530TIP3    H2 4555   1.979   3.181   5.903
 1531TIP3   OH2 4556   0.764   2.571   3.062
 1531TIP3    H1 4557   0.668   2.574   3.059
 1531TIP3    H2 4558   0.788   2.635   3.130
 1532TIP3   OH2 4559   3.451   5.976   2.205
 1532TIP3    H1 4560   3.517   5.946   2.142
 1532TIP3    H2 4561   3.484   6.061   2.235
 1533TIP3   OH2 4562   0.393   3.232   2.723
 1533TIP3    H1 4563   0.321   3.173   2.702
 1533TIP3    H2 4564   0.449   3.181   2.781
 1534TIP3   OH2 4565   6.638   1.229   4.749
 1534TIP3    H1 4566   6.581   1.271   4.814
 1534TIP3    H2 4567   6.592   1.148   4.726
 1535TIP3   OH2 4568   0.450   1.449   1.117
 1535TIP3    H1 4569   0.460   1.495   1.201
 1535TIP3    H2 4570   0.426   1.518   1.055
 1536TIP3   OH2 4571   6.715   2.129   0.766
 1536TIP3    H1 4572   6.660   2.130   0.845
 1536TIP3    H2 4573   6.718   2.220   0.738
 1537TIP3   OH2 4574   0.069   1.661   3.745
 1537TIP3    H1 4575   0.045   1.742   3.700
 1537TIP3    H2 4576   0.165   1.665   3.752
 1538TIP3   OH2 4577   4.943   6.704   2.064
 1538TIP3    H1 4578   4.853   6.735   2.068
 1538TIP3    H2 4579   4.937   6.612   2.089
 1539TIP3   OH2 4580   2.012   5.442   0.634
 1539TIP3    H1 4581   2.038   5.498   0.562
 1539TIP3    H2 4582   1.935   5.485   0.672
 1540TIP3   OH2 4583   6.783   1.966   4.709
 1540TIP3    H1 4584   6.777   1.900   4.640
 1540TIP3    H2 4585   6.854   1.936   4.766
 1541TIP3   OH2 4586   3.255   6.637   3.577
 1541TIP3    H1 4587   3.172   6.685   3.570
 1541TIP3    H2 4588   3.229   6.545   3.587
 1542TIP3   OH2 4589   3.681   2.550   0.969
 1542TIP3    H1 4590   3.725   2.606   1.033
 1542TIP3    H2 4591   3.616   2.607   0.928
 1543TIP3   OH2 4592   5.483   2.403   2.571
 1543TIP3    H1 4593   5.579   2.410   2.575
 1543TIP3    H2 4594   5.465   2.362   2.487
 1544TIP3   OH2 4595   6.564   0.986   2.279
 1544TIP3    H1 4596   6.547   1.058   2.339
 1544TIP3    H2 4597   6.651   1.004   2.243
 1545TIP3   OH2 4598   0.289   4.653   3.734
 1545TIP3    H1 4599   0.204   4.692   3.754
 1545TIP3    H2 4600   0.303   4.589   3.804
 1546TIP3   OH2 4601   3.775   2.045   4.806
 1546TIP3    H1 4602   3.846   1.999   4.762
 1546TIP3    H2 4603   3.761   2.124   4.754
 1547TIP3   OH2 4604   6.146   2.872   3.052
 1547TIP3    H1 4605   6.145   2.818   3.131
 1547TIP3    H2 4606   6.053   2.882   3.029
 1548TIP3   OH2 4607   1.216   4.569   0.090
 1548TIP3    H1 4608   1.128   4.565   0.054
 1548TIP3    H2 4609   1.220   4.652   0.137
 1549TIP3   OH2 4610   1.165   6.314   3.226
 1549TIP3    H1 4611   1.149   6.230   3.270
 1549TIP3    H2 4612   1.144   6.380   3.292
 1550TIP3   OH2 4613   4.081   5.145   4.147
 1550TIP3    H1 4614   4.079   5.241   4.142
 1550TIP3    H2 4615   3.991   5.121   4.168
 1551TIP3   OH2 4616   5.662   0.864   2.539
 1551TIP3    H1 4617   5.685   0.947   2.498
 1551TIP3    H2 4618   5.644   0.804   2.466
 1552TIP3   OH2 4619   5.706   0.906   4.540
 1552TIP3    H1 4620   5.721   0.817   4.507
 1552TIP3    H2 4621   5.775   0.959   4.500
 1553TIP3   OH2 4622   6.142   6.783   1.412
 1553TIP3    H1 4623   6.052   6.790   1.380
 1553TIP3    H2 4624   6.144   6.698   1.457
 1554TIP3   OH2 4625   5.285   1.187   4.479
 1554TIP3    H1 4626   5.284   1.096   4.510
 1554TIP3    H2 4627   5.304   1.238   4.558
 1555TIP3   OH2 4628   3.432   0.798   3.082
 1555TIP3    H1 4629   3.499   0.863   3.104
 1555TIP3    H2 4630   3.349   0.846   3.087
 1556TIP3   OH2 4631   3.715   6.050   4.150
 1556TIP3    H1 4632   3.630   6.094   4.151
 1556TIP3    H2 4633   3.754   6.070   4.235
 1557TIP3   OH2 4634   4.563   2.157   1.080
 1557TIP3    H1 4635   4.492   2.118   1.031
 1557TIP3    H2 4636   4.526   2.176   1.166
 1558TIP3   OH2 4637   4.491   1.206   1.617
 1558TIP3    H1 4638   4.533   1.291   1.630
 1558TIP3    H2 4639   4.427   1.222   1.548
 1559TIP3   OH2 4640   6.275   4.308   3.359
 1559TIP3    H1 4641   6.223   4.234   3.391
 1559TIP3    H2 4642   6.356   4.270   3.328
 1560TIP3   OH2 4643   4.620   4.643   4.979
 1560TIP3    H1 4644   4.539   4.604   5.012
 1560TIP3    H2 4645   4.676   4.568   4.958
 1561TIP3   OH2 4646   2.344   6.286   2.415
 1561TIP3    H1 4647   2.373   6.196   2.434
 1561TIP3    H2 4648   2.249   6.279   2.411
 1562TIP3   OH2 4649   3.641   6.765   0.841
 1562TIP3    H1 4650   3.619   6.748   0.749
 1562TIP3    H2 4651   3.558   6.791   0.881
 1563TIP3   OH2 4652   3.244   4.960   1.505
 1563TIP3    H1 4653   3.308   5.029   1.490
 1563TIP3    H2 4654   3.266   4.924   1.591
 1564TIP3   OH2 4655   7.076   0.435   2.622
 1564TIP3    H1 4656   7.010   0.412   2.556
 1564TIP3    H2 4657   7.061   0.528   2.639
 1565TIP3   OH2 4658   7.195   3.512   2.801
 1565TIP3    H1 4659   7.277   3.463   2.801
 1565TIP3    H2 4660   7.144   3.474   2.730
 1566TIP3   OH2 4661   5.761   3.666   5.115
 1566TIP3    H1 4662   5.791   3.718   5.040
 1566TIP3    H2 4663   5.840   3.623   5.148
 1567TIP3   OH2 4664   2.646   2.190   4.530
 1567TIP3    H1 4665   2.682   2.164   4.446
 1567TIP3    H2 4666   2.584   2.260   4.510
 1568TIP3   OH2 4667   4.964   5.141   3.554
 1568TIP3    H1 4668   4.908   5.207   3.513
 1568TIP3    H2 4669   4.913   5.109   3.628
 1569TIP3   OH2 4670   5.408   4.461   1.708
 1569TIP3    H1 4671   5.374   4.378   1.676
 1569TIP3    H2 4672   5.493   4.470   1.664
 1570TIP3   OH2 4673   2.211   1.439   2.116
 1570TIP3    H1 4674   2.244   1.499   2.049
 1570TIP3    H2 4675   2.246   1.473   2.198
 1571TIP3   OH2 4676   3.973   6.311   1.211
 1571TIP3    H1 4677   3.932   6.384   1.256
 1571TIP3    H2 4678   3.913   6.238   1.223
 1572TIP3   OH2 4679   3.640   2.736   4.293
 1572TIP3    H1 4680   3.663   2.743   4.201
 1572TIP3    H2 4681   3.648   2.643   4.313
 1573TIP3   OH2 4682   6.769   3.085   0.164
 1573TIP3    H1 4683   6.842   3.038   0.122
 1573TIP3    H2 4684   6.760   3.044   0.250
 1574TIP3   OH2 4685   3.621   3.150   2.763
 1574TIP3    H1 4686   3.648   3.143   2.855
 1574TIP3    H2 4687   3.531   3.182   2.767
 1575TIP3   OH2 4688   0.704   2.324   5.118
 1575TIP3    H1 4689   0.727   2.235   5.147
 1575TIP3    H2 4690   0.620   2.313   5.072
 1576TIP3   OH2 4691   0.509   0.945   3.387
 1576TIP3    H1 4692   0.551   0.946   3.300
 1576TIP3    H2 4693   0.559   1.008   3.438
 1577TIP3   OH2 4694   4.941   5.447   5.282
 1577TIP3    H1 4695   4.969   5.364   5.243
 1577TIP3    H2 4696   4.845   5.447   5.272
 1578TIP3   OH2 4697   5.315   0.735   1.688
 1578TIP3    H1 4698   5.354   0.688   1.763
 1578TIP3    H2 4699   5.341   0.826   1.701
 1579TIP3   OH2 4700   4.914   3.110   4.435
 1579TIP3    H1 4701   4.916   3.154   4.520
 1579TIP3    H2 4702   4.834   3.143   4.393
 1580TIP3   OH2 4703   0.710   0.632   5.413
 1580TIP3    H1 4704   0.794   0.592   5.392
 1580TIP3    H2 4705   0.681   0.586   5.492
 1581TIP3   OH2 4706   4.269   0.119   2.046
 1581TIP3    H1 4707   4.302   0.128   2.135
 1581TIP3    H2 4708   4.277   0.025   2.027
 1582TIP3   OH2 4709   3.531   1.507   1.222
 1582TIP3    H1 4710   3.470   1.468   1.160
 1582TIP3    H2 4711   3.618   1.491   1.185
 1583TIP3   OH2 4712   6.105   1.506   3.320
 1583TIP3    H1 4713   6.182   1.520   3.265
 1583TIP3    H2 4714   6.035   1.484   3.258
 1584TIP3   OH2 4715   3.557   6.270   0.217
 1584TIP3    H1 4716   3.637   6.245   0.264
 1584TIP3    H2 4717   3.578   6.260   0.125
 1585TIP3   OH2 4718   3.144   1.129   1.054
 1585TIP3    H1 4719   3.077   1.062   1.068
 1585TIP3    H2 4720   3.212   1.085   1.003
 1586TIP3   OH2 4721   0.154   2.322   3.734
 1586TIP3    H1 4722   0.153   2.337   3.640
 1586TIP3    H2 4723   0.093   2.386   3.770
 1587TIP3   OH2 4724   1.379   3.985   4.152
 1587TIP3    H1 4725   1.353   3.943   4.069
 1587TIP3    H2 4726   1.317   4.057   4.162
 1588TIP3   OH2 4727   7.057   1.081   1.954
 1588TIP3    H1 4728   7.020   1.065   1.867
 1588TIP3    H2 4729   6.981   1.089   2.011
 1589TIP3   OH2 4730   1.877   3.848   4.838
 1589TIP3    H1 4731   1.861   3.902   4.916
 1589TIP3    H2 4732   1.870   3.909   4.765
 1590TIP3   OH2 4733   5.631   0.544   2.609
 1590TIP3    H1 4734   5.695   0.519   2.676
 1590TIP3    H2 4735   5.678   0.607   2.554
 1591TIP3   OH2 4736   7.107   5.018   4.020
 1591TIP3    H1 4737   7.045   5.047   3.952
 1591TIP3    H2 4738   7.188   5.064   3.999
 1592TIP3   OH2 4739   6.835   0.836   1.603
 1592TIP3    H1 4740   6.856   0.766   1.541
 1592TIP3    H2 4741   6.740   0.846   1.596
 1593TIP3   OH2 4742   2.624   1.243   5.582
 1593TIP3    H1 4743   2.695   1.234   5.646
 1593TIP3    H2 4744   2.565   1.307   5.622
 1594TIP3   OH2 4745   5.168   2.094   3.098
 1594TIP3    H1 4746   5.225   2.070   3.025
 1594TIP3    H2 4747   5.084   2.114   3.057
 1595TIP3   OH2 4748   2.629   5.097   0.236
 1595TIP3    H1 4749   2.568   5.122   0.305
 1595TIP3    H2 4750   2.681   5.026   0.274
 1596TIP3   OH2 4751   4.212   1.224   5.712
 1596TIP3    H1 4752   4.201   1.301   5.656
 1596TIP3    H2 4753   4.306   1.205   5.707
 1597TIP3   OH2 4754   1.005   0.082   0.302
 1597TIP3    H1 4755   0.953   0.002   0.293
 1597TIP3    H2 4756   1.025   0.088   0.395
 1598TIP3   OH2 4757   5.794   1.171   1.685
 1598TIP3    H1 4758   5.723   1.225   1.650
 1598TIP3    H2 4759   5.821   1.216   1.765
 1599TIP3   OH2 4760   1.534   3.056   3.402
 1599TIP3    H1 4761   1.577   3.133   3.440
 1599TIP3    H2 4762   1.601   3.014   3.349
 1600TIP3   OH2 4763   4.882   0.678   3.383
 1600TIP3    H1 4764   4.949   0.746   3.383
 1600TIP3    H2 4765   4.877   0.649   3.292
 1601TIP3   OH2 4766   2.663   2.921   4.963
 1601TIP3    H1 4767   2.633   2.896   5.050
 1601TIP3    H2 4768   2.604   2.992   4.936
 1602TIP3   OH2 4769   3.618   2.652   1.900
 1602TIP3    H1 4770   3.527   2.631   1.923
 1602TIP3    H2 4771   3.624   2.746   1.910
 1603TIP3   OH2 4772   0.522   6.842   3.046
 1603TIP3    H1 4773   0.488   6.927   3.076
 1603TIP3    H2 4774   0.572   6.809   3.120
 1604TIP3   OH2 4775   6.346   2.394   0.822
 1604TIP3    H1 4776   6.390   2.456   0.880
 1604TIP3    H2 4777   6.280   2.446   0.776
 1605TIP3   OH2 4778   5.809   4.816   5.005
 1605TIP3    H1 4779   5.876   4.821   5.073
 1605TIP3    H2 4780   5.785   4.723   5.001
 1606TIP3   OH2 4781   3.479   3.635   4.692
 1606TIP3    H1 4782   3.505   3.544   4.683
 1606TIP3    H2 4783   3.418   3.636   4.766
 1607TIP3   OH2 4784   0.270   6.715   4.150
 1607TIP3    H1 4785   0.288   6.670   4.068
 1607TIP3    H2 4786   0.339   6.685   4.210
 1608TIP3   OH2 4787   5.773   3.855   0.571
 1608TIP3    H1 4788   5.845   3.884   0.626
 1608TIP3    H2 4789   5.757   3.929   0.512
 1609TIP3   OH2 4790   5.407   1.410   2.644
 1609TIP3    H1 4791   5.422   1.434   2.735
 1609TIP3    H2 4792   5.495   1.412   2.604
 1610TIP3   OH2 4793   6.647   3.281   2.166
 1610TIP3    H1 4794   6.741   3.299   2.172
 1610TIP3    H2 4795   6.606   3.366   2.181
 1611TIP3   OH2 4796   3.132   2.396   5.693
 1611TIP3    H1 4797   3.048   2.353   5.706
 1611TIP3    H2 4798   3.187   2.364   5.765
 1612TIP3   OH2 4799   4.882   1.038   2.928
 1612TIP3    H1 4800   4.894   1.097   2.854
 1612TIP3    H2 4801   4.807   1.075   2.976
 1613TIP3   OH2 4802   0.081   5.078   5.056
 1613TIP3    H1 4803   0.050   5.152   5.002
 1613TIP3    H2 4804   0.170   5.063   5.026
 1614TIP3   OH2 4805   6.758   2.655   3.376
 1614TIP3    H1 4806   6.804   2.687   3.453
 1614TIP3    H2 4807   6.824   2.608   3.326
 1615TIP3   OH2 4808   0.748   2.188   5.690
 1615TIP3    H1 4809   0.766   2.281   5.704
 1615TIP3    H2 4810   0.653   2.181   5.693
 1616TIP3   OH2 4811   1.236   3.058   0.395
 1616TIP3    H1 4812   1.225   3.151   0.415
 1616TIP3    H2 4813   1.241   3.054   0.300
 1617TIP3   OH2 4814   0.191   5.078   1.640
 1617TIP3    H1 4815   0.128   5.034   1.583
 1617TIP3    H2 4816   0.142   5.152   1.677
 1618TIP3   OH2 4817   2.803   3.415   1.041
 1618TIP3    H1 4818   2.724   3.364   1.057
 1618TIP3    H2 4819   2.864   3.385   1.108
 1619TIP3   OH2 4820   3.250   4.542   5.521
 1619TIP3    H1 4821   3.329   4.519   5.472
 1619TIP3    H2 4822   3.189   4.471   5.502
 1620TIP3   OH2 4823   5.244   0.342   0.169
 1620TIP3    H1 4824   5.321   0.387   0.135
 1620TIP3    H2 4825   5.274   0.254   0.189
 1621TIP3   OH2 4826   4.254   6.030   0.952
 1621TIP3    H1 4827   4.327   5.973   0.975
 1621TIP3    H2 4828   4.195   5.974   0.902
 1622TIP3   OH2 4829   3.498   0.115   0.782
 1622TIP3    H1 4830   3.582   0.153   0.810
 1622TIP3    H2 4831   3.438   0.189   0.779
 1623TIP3   OH2 4832   4.111   4.943   4.937
 1623TIP3    H1 4833   4.056   5.021   4.932
 1623TIP3    H2 4834   4.070   4.889   5.003
 1624TIP3   OH2 4835   5.193   4.871   1.014
 1624TIP3    H1 4836   5.203   4.888   0.920
 1624TIP3    H2 4837   5.099   4.861   1.026
 1625TIP3   OH2 4838   2.458   6.406   4.140
 1625TIP3    H1 4839   2.538   6.441   4.099
 1625TIP3    H2 4840   2.455   6.450   4.225
 1626TIP3   OH2 4841   2.400   3.308   3.400
 1626TIP3    H1 4842   2.427   3.360   3.476
 1626TIP3    H2 4843   2.306   3.323   3.392
 1627TIP3   OH2 4844   2.783   1.338   1.642
 1627TIP3    H1 4845   2.833   1.380   1.712
 1627TIP3    H2 4846   2.692   1.352   1.666
 1628TIP3   OH2 4847   3.739   6.070   3.096
 1628TIP3    H1 4848   3.664   6.071   3.156
 1628TIP3    H2 4849   3.811   6.106   3.147
 1629TIP3   OH2 4850   3.844   6.446   5.603
 1629TIP3    H1 4851   3.831   6.495   5.684
 1629TIP3    H2 4852   3.867   6.512   5.538
 1630TIP3   OH2 4853   6.419   5.481   5.439
 1630TIP3    H1 4854   6.356   5.424   5.395
 1630TIP3    H2 4855   6.436   5.438   5.523
 1631TIP3   OH2 4856   0.934   3.625   1.536
 1631TIP3    H1 4857   0.901   3.672   1.613
 1631TIP3    H2 4858   1.011   3.578   1.567
 1632TIP3   OH2 4859   5.893   1.884   4.387
 1632TIP3    H1 4860   5.880   1.894   4.292
 1632TIP3    H2 4861   5.830   1.944   4.426
 1633TIP3   OH2 4862   4.702   4.794   0.315
 1633TIP3    H1 4863   4.712   4.869   0.374
 1633TIP3    H2 4864   4.788   4.753   0.313
 1634TIP3   OH2 4865   1.135   4.915   4.714
 1634TIP3    H1 4866   1.054   4.920   4.663
 1634TIP3    H2 4867   1.136   4.826   4.748
 1635TIP3   OH2 4868   0.610   2.892   0.796
 1635TIP3    H1 4869   0.602   2.880   0.891
 1635TIP3    H2 4870   0.701   2.871   0.777
 1636TIP3   OH2 4871   4.131   0.053   0.714
 1636TIP3    H1 4872   4.065   0.123   0.709
 1636TIP3    H2 4873   4.081  -0.025   0.740
 1637TIP3   OH2 4874   4.583   4.062   5.373
 1637TIP3    H1 4875   4.529   4.046   5.450
 1637TIP3    H2 4876   4.624   4.147   5.389
 1638TIP3   OH2 4877   0.296   2.318   0.332
 1638TIP3    H1 4878   0.248   2.393   0.369
 1638TIP3    H2 4879   0.388   2.346   0.334
 1639TIP3   OH2 4880   3.950   6.735   2.252
 1639TIP3    H1 4881   3.897   6.711   2.177
 1639TIP3    H2 4882   3.890   6.732   2.326
 1640TIP3   OH2 4883   4.615   1.561  -0.020
 1640TIP3    H1 4884   4.699   1.516  -0.016
 1640TIP3    H2 4885   4.631   1.647   0.019
 1641TIP3   OH2 4886   4.623   4.744   2.524
 1641TIP3    H1 4887   4.528   4.751   2.519
 1641TIP3    H2 4888   4.641   4.652   2.506
 1642TIP3   OH2 4889   1.707   2.442   0.204
 1642TIP3    H1 4890   1.691   2.369   0.145
 1642TIP3    H2 4891   1.635   2.438   0.268
 1643TIP3   OH2 4892   4.412   6.380   0.659
 1643TIP3    H1 4893   4.388   6.298   0.614
 1643TIP3    H2 4894   4.507   6.386   0.648
 1644TIP3   OH2 4895   1.463   2.998   1.949
 1644TIP3    H1 4896   1.460   3.059   2.023
 1644TIP3    H2 4897   1.420   2.919   1.982
 1645TIP3   OH2 4898   6.752   6.142   4.440
 1645TIP3    H1 4899   6.703   6.197   4.379
 1645TIP3    H2 4900   6.776   6.065   4.389
 1646TIP3   OH2 4901   0.180   2.932   3.349
 1646TIP3    H1 4902   0.218   2.910   3.434
 1646TIP3    H2 4903   0.100   2.981   3.369
 1647TIP3   OH2 4904   5.876   6.162   2.991
 1647TIP3    H1 4905   5.884   6.243   2.941
 1647TIP3    H2 4906   5.822   6.105   2.937
 1648TIP3   OH2 4907   5.301   4.502   4.314
 1648TIP3    H1 4908   5.270   4.430   4.260
 1648TIP3    H2 4909   5.222   4.550   4.337
 1649TIP3   OH2 4910   6.368   4.760   4.727
 1649TIP3    H1 4911   6.350   4.754   4.634
 1649TIP3    H2 4912   6.333   4.845   4.753
 1650TIP3   OH2 4913   2.671   3.386   2.874
 1650TIP3    H1 4914   2.750   3.351   2.832
 1650TIP3    H2 4915   2.638   3.451   2.813
 1651TIP3   OH2 4916   1.004   1.371   1.777
 1651TIP3    H1 4917   0.980   1.289   1.736
 1651TIP3    H2 4918   1.089   1.354   1.819
 1652TIP3   OH2 4919   5.214   0.192   3.103
 1652TIP3    H1 4920   5.298   0.149   3.120
 1652TIP3    H2 4921   5.237   0.269   3.050
 1653TIP3   OH2 4922   6.546   6.482   5.175
 1653TIP3    H1 4923   6.491   6.447   5.104
 1653TIP3    H2 4924   6.629   6.502   5.132
 1654TIP3   OH2 4925   6.855   3.494   5.236
 1654TIP3    H1 4926   6.798   3.534   5.301
 1654TIP3    H2 4927   6.882   3.411   5.275
 1655TIP3   OH2 4928   0.873   6.528   0.961
 1655TIP3    H1 4929   0.930   6.461   0.922
 1655TIP3    H2 4930   0.932   6.602   0.979
 1656TIP3   OH2 4931   5.087   5.517   3.015
 1656TIP3    H1 4932   5.115   5.490   3.103
 1656TIP3    H2 4933   5.118   5.446   2.958
 1657TIP3   OH2 4934   0.660   3.827   1.084
 1657TIP3    H1 4935   0.680   3.856   0.995
 1657TIP3    H2 4936   0.680   3.733   1.083
 1658TIP3   OH2 4937   6.009   5.968   0.282
 1658TIP3    H1 4938   6.057   5.929   0.209
 1658TIP3    H2 4939   5.930   6.005   0.242
 1659TIP3   OH2 4940   3.539   0.906   2.374
 1659TIP3    H1 4941   3.492   0.947   2.301
 1659TIP3    H2 4942   3.477   0.907   2.446
 1660TIP3   OH2 4943   3.128   3.529   3.467
 1660TIP3    H1 4944   3.169   3.559   3.548
 1660TIP3    H2 4945   3.056   3.590   3.452
 1661TIP3   OH2 4946   1.151   6.004   2.642
 1661TIP3    H1 4947   1.114   5.933   2.591
 1661TIP3    H2 4948   1.238   5.972   2.668
 1662TIP3   OH2 4949   4.877   0.312   1.807
 1662TIP3    H1 4950   4.827   0.232   1.814
 1662TIP3    H2 4951   4.833   0.373   1.866
 1663TIP3   OH2 4952   2.499   0.883   5.444
 1663TIP3    H1 4953   2.448   0.820   5.394
 1663TIP3    H2 4954   2.485   0.967   5.400
 1664TIP3   OH2 4955   2.531   0.690   3.341
 1664TIP3    H1 4956   2.454   0.747   3.338
 1664TIP3    H2 4957   2.500   0.610   3.385
 1665TIP3   OH2 4958   4.322   2.585   1.326
 1665TIP3    H1 4959   4.344   2.556   1.238
 1665TIP3    H2 4960   4.260   2.519   1.358
 1666TIP3   OH2 4961   1.930   5.391   3.575
 1666TIP3    H1 4962   2.002   5.447   3.605
 1666TIP3    H2 4963   1.962   5.302   3.589
 1667TIP3   OH2 4964   7.131   0.764   1.010
 1667TIP3    H1 4965   7.189   0.776   1.085
 1667TIP3    H2 4966   7.145   0.673   0.983
 1668TIP3   OH2 4967   4.626   1.453   1.597
 1668TIP3    H1 4968   4.572   1.496   1.530
 1668TIP3    H2 4969   4.700   1.512   1.611
 1669TIP3   OH2 4970   2.528   5.169   1.716
 1669TIP3    H1 4971   2.434   5.175   1.699
 1669TIP3    H2 4972   2.569   5.196   1.634
 1670TIP3   OH2 4973   4.565   0.846   0.939
 1670TIP3    H1 4974   4.629   0.913   0.917
 1670TIP3    H2 4975   4.576   0.832   1.033
 1671TIP3   OH2 4976   2.672   5.640   1.521
 1671TIP3    H1 4977   2.704   5.698   1.590
 1671TIP3    H2 4978   2.655   5.699   1.447
 1672TIP3   OH2 4979   2.754   2.797   3.939
 1672TIP3    H1 4980   2.849   2.791   3.928
 1672TIP3    H2 4981   2.729   2.713   3.977
 1673TIP3   OH2 4982   3.254   4.808   0.648
 1673TIP3    H1 4983   3.339   4.766   0.635
 1673TIP3    H2 4984   3.217   4.765   0.725
 1674TIP3   OH2 4985   3.274   6.519   4.282
 1674TIP3    H1 4986   3.314   6.590   4.232
 1674TIP3    H2 4987   3.219   6.563   4.346
 1675TIP3   OH2 4988   1.139   5.492   0.208
 1675TIP3    H1 4989   1.149   5.541   0.127
 1675TIP3    H2 4990   1.132   5.559   0.276
 1676TIP3   OH2 4991   0.424   6.626   0.091
 1676TIP3    H1 4992   0.456   6.681   0.020
 1676TIP3    H2 4993   0.476   6.652   0.167
 1677TIP3   OH2 4994   0.890   3.008   4.268
 1677TIP3    H1 4995   0.839   3.080   4.304
 1677TIP3    H2 4996   0.976   3.047   4.248
 1678TIP3   OH2 4997   4.922   1.597   1.864
 1678TIP3    H1 4998   4.947   1.517   1.910
 1678TIP3    H2 4999   4.942   1.578   1.772
 1679TIP3   OH2 5000   2.300   0.424   0.129
 1679TIP3    H1 5001   2.283   0.447   0.038
 1679TIP3    H2 5002   2.293   0.508   0.176
 1680TIP3   OH2 5003   5.984   2.169   2.053
 1680TIP3    H1 5004   5.978   2.106   1.981
 1680TIP3    H2 5005   6.078   2.173   2.073
 1681TIP3   OH2 5006   4.106   0.946   1.414
 1681TIP3    H1 5007   4.139   1.036   1.416
 1681TIP3    H2 5008   4.122   0.912   1.502
 1682TIP3   OH2 5009   2.036   2.103   3.738
 1682TIP3    H1 5010   2.106   2.165   3.720
 1682TIP3    H2 5011   2.077   2.034   3.790
 1683TIP3   OH2 5012   2.719   3.918   2.276
 1683TIP3    H1 5013   2.759   3.950   2.358
 1683TIP3    H2 5014   2.626   3.908   2.297
 1684TIP3   OH2 5015   3.008   3.741   1.082
 1684TIP3    H1 5016   2.944   3.740   1.153
 1684TIP3    H2 5017   2.960   3.708   1.006
 1685TIP3   OH2 5018   1.380   3.734   4.031
 1685TIP3    H1 5019   1.303   3.740   4.087
 1685TIP3    H2 5020   1.352   3.769   3.947
 1686TIP3   OH2 5021   2.202   5.820   2.599
 1686TIP3    H1 5022   2.294   5.802   2.620
 1686TIP3    H2 5023   2.158   5.819   2.684
 1687TIP3   OH2 5024   2.630   4.972   0.964
 1687TIP3    H1 5025   2.662   5.054   0.926
 1687TIP3    H2 5026   2.535   4.978   0.957
 1688TIP3   OH2 5027   0.177   0.940   2.446
 1688TIP3    H1 5028   0.166   1.033   2.426
 1688TIP3    H2 5029   0.088   0.908   2.460
 1689TIP3   OH2 5030   0.081   6.411   4.493
 1689TIP3    H1 5031   0.071   6.444   4.582
 1689TIP3    H2 5032   0.174   6.425   4.473
 1690TIP3   OH2 5033   1.546   1.285   5.865
 1690TIP3    H1 5034   1.593   1.303   5.783
 1690TIP3    H2 5035   1.466   1.241   5.837
 1691TIP3   OH2 5036   4.471   4.867   2.783
 1691TIP3    H1 5037   4.500   4.907   2.701
 1691TIP3    H2 5038   4.499   4.776   2.777
 1692TIP3   OH2 5039   1.506   0.014   3.524
 1692TIP3    H1 5040   1.490   0.099   3.565
 1692TIP3    H2 5041   1.601   0.008   3.517
 1693TIP3   OH2 5042   0.765   3.418   5.120
 1693TIP3    H1 5043   0.822   3.494   5.115
 1693TIP3    H2 5044   0.676   3.455   5.124
 1694TIP3   OH2 5045   4.032   0.066   5.157
 1694TIP3    H1 5046   3.980   0.037   5.082
 1694TIP3    H2 5047   4.071   0.149   5.129
 1695TIP3   OH2 5048   7.079   5.902   4.245
 1695TIP3    H1 5049   7.006   5.852   4.282
 1695TIP3    H2 5050   7.044   5.990   4.235
 1696TIP3   OH2 5051   1.034   4.637   4.489
 1696TIP3    H1 5052   1.006   4.717   4.533
 1696TIP3    H2 5053   1.030   4.658   4.396
 1697TIP3   OH2 5054   6.376   1.920   2.331
 1697TIP3    H1 5055   6.424   2.003   2.337
 1697TIP3    H2 5056   6.290   1.945   2.300
 1698TIP3   OH2 5057   5.965   6.117   2.220
 1698TIP3    H1 5058   5.949   6.105   2.126
 1698TIP3    H2 5059   5.962   6.211   2.234
 1699TIP3   OH2 5060   4.849   3.985   4.296
 1699TIP3    H1 5061   4.853   3.919   4.365
 1699TIP3    H2 5062   4.894   4.062   4.333
 1700TIP3   OH2 5063   0.521   4.013   4.036
 1700TIP3    H1 5064   0.466   4.088   4.010
 1700TIP3    H2 5065   0.473   3.971   4.107
 1701TIP3   OH2 5066   6.908   5.270   1.360
 1701TIP3    H1 5067   6.919   5.316   1.444
 1701TIP3    H2 5068   6.814   5.275   1.342
 1702TIP3   OH2 5069   2.026   6.679   5.436
 1702TIP3    H1 5070   1.993   6.680   5.346
 1702TIP3    H2 5071   2.117   6.707   5.429
 1703TIP3   OH2 5072   1.827   4.691   1.415
 1703TIP3    H1 5073   1.736   4.669   1.433
 1703TIP3    H2 5074   1.841   4.773   1.462
 1704TIP3   OH2 5075   6.164   3.767   5.196
 1704TIP3    H1 5076   6.138   3.703   5.129
 1704TIP3    H2 5077   6.095   3.760   5.263
 1705TIP3   OH2 5078   6.866   6.451   2.279
 1705TIP3    H1 5079   6.905   6.391   2.342
 1705TIP3    H2 5080   6.939   6.506   2.249
 1706TIP3   OH2 5081   3.372   1.893   0.766
 1706TIP3    H1 5082   3.352   1.985   0.751
 1706TIP3    H2 5083   3.448   1.875   0.710
 1707TIP3   OH2 5084   3.962   2.562   4.399
 1707TIP3    H1 5085   3.918   2.490   4.444
 1707TIP3    H2 5086   4.050   2.528   4.381
 1708TIP3   OH2 5087   3.308   0.257   2.795
 1708TIP3    H1 5088   3.399   0.247   2.768
 1708TIP3    H2 5089   3.295   0.189   2.861
 1709TIP3   OH2 5090   6.892   5.280   0.568
 1709TIP3    H1 5091   6.959   5.236   0.515
 1709TIP3    H2 5092   6.937   5.356   0.606
 1710TIP3   OH2 5093   3.318   1.356   4.771
 1710TIP3    H1 5094   3.254   1.298   4.813
 1710TIP3    H2 5095   3.340   1.312   4.689
 1711TIP3   OH2 5096   6.299   1.438   5.770
 1711TIP3    H1 5097   6.355   1.400   5.838
 1711TIP3    H2 5098   6.352   1.506   5.730
 1712TIP3   OH2 5099   1.095   3.827   2.255
 1712TIP3    H1 5100   1.023   3.791   2.307
 1712TIP3    H2 5101   1.173   3.788   2.293
 1713TIP3   OH2 5102   5.020   0.895   4.301
 1713TIP3    H1 5103   4.988   0.827   4.242
 1713TIP3    H2 5104   5.116   0.892   4.292
 1714TIP3   OH2 5105   7.034   0.380   0.331
 1714TIP3    H1 5106   6.943   0.368   0.358
 1714TIP3    H2 5107   7.053   0.472   0.352
 1715TIP3   OH2 5108   6.742   0.747   2.896
 1715TIP3    H1 5109   6.718   0.668   2.944
 1715TIP3    H2 5110   6.794   0.798   2.958
 1716TIP3   OH2 5111   3.418   6.440   1.634
 1716TIP3    H1 5112   3.383   6.472   1.550
 1716TIP3    H2 5113   3.461   6.357   1.611
 1717TIP3   OH2 5114   1.427   3.839   1.108
 1717TIP3    H1 5115   1.350   3.862   1.056
 1717TIP3    H2 5116   1.499   3.836   1.045
 1718TIP3   OH2 5117   1.869   5.781   3.052
 1718TIP3    H1 5118   1.882   5.819   3.139
 1718TIP3    H2 5119   1.840   5.691   3.069
 1719TIP3   OH2 5120   6.883   4.832   0.263
 1719TIP3    H1 5121   6.835   4.753   0.241
 1719TIP3    H2 5122   6.816   4.896   0.285
 1720TIP3   OH2 5123   6.645   0.588   0.653
 1720TIP3    H1 5124   6.561   0.634   0.651
 1720TIP3    H2 5125   6.622   0.496   0.650
 1721TIP3   OH2 5126   1.373   0.432   3.364
 1721TIP3    H1 5127   1.352   0.493   3.293
 1721TIP3    H2 5128   1.433   0.370   3.325
 1722TIP3   OH2 5129   1.855   4.913   1.596
 1722TIP3    H1 5130   1.793   4.960   1.651
 1722TIP3    H2 5131   1.901   4.855   1.656
 1723TIP3   OH2 5132   1.071   6.694   3.099
 1723TIP3    H1 5133   1.036   6.763   3.155
 1723TIP3    H2 5134   1.030   6.709   3.014
 1724TIP3   OH2 5135   3.510   2.307   2.605
 1724TIP3    H1 5136   3.521   2.386   2.658
 1724TIP3    H2 5137   3.447   2.254   2.654
 1725TIP3   OH2 5138   2.729   4.829   2.236
 1725TIP3    H1 5139   2.772   4.762   2.184
 1725TIP3    H2 5140   2.637   4.805   2.235
 1726TIP3   OH2 5141   0.998   4.775   5.398
 1726TIP3    H1 5142   1.008   4.802   5.306
 1726TIP3    H2 5143   0.906   4.793   5.418
 1727TIP3   OH2 5144   4.886   4.810   3.488
 1727TIP3    H1 5145   4.844   4.759   3.557
 1727TIP3    H2 5146   4.824   4.881   3.470
 1728TIP3   OH2 5147   5.687   2.090   0.840
 1728TIP3    H1 5148   5.713   2.162   0.783
 1728TIP3    H2 5149   5.702   2.123   0.929
 1729TIP3   OH2 5150   2.928   4.538   3.381
 1729TIP3    H1 5151   2.962   4.474   3.443
 1729TIP3    H2 5152   2.864   4.489   3.329
 1730TIP3   OH2 5153   2.424   1.709   2.229
 1730TIP3    H1 5154   2.458   1.720   2.140
 1730TIP3    H2 5155   2.501   1.719   2.285
 1731TIP3   OH2 5156   5.696   5.654  -0.020
 1731TIP3    H1 5157   5.692   5.598   0.057
 1731TIP3    H2 5158   5.787   5.647  -0.050
 1732TIP3   OH2 5159   0.852   5.794   5.422
 1732TIP3    H1 5160   0.924   5.837   5.376
 1732TIP3    H2 5161   0.883   5.787   5.513
 1733TIP3   OH2 5162   0.968   1.277   3.851
 1733TIP3    H1 5163   1.050   1.287   3.899
 1733TIP3    H2 5164   0.992   1.230   3.772
 1734TIP3   OH2 5165   2.198   2.079   1.145
 1734TIP3    H1 5166   2.197   2.043   1.233
 1734TIP3    H2 5167   2.253   2.158   1.151
 1735TIP3   OH2 5168   4.741   6.327   3.694
 1735TIP3    H1 5169   4.740   6.394   3.762
 1735TIP3    H2 5170   4.790   6.254   3.733
 1736TIP3   OH2 5171   5.507   4.868   5.110
 1736TIP3    H1 5172   5.602   4.852   5.112
 1736TIP3    H2 5173   5.495   4.947   5.163
 1737TIP3   OH2 5174   3.384   4.358   0.539
 1737TIP3    H1 5175   3.330   4.285   0.509
 1737TIP3    H2 5176   3.357   4.373   0.630
 1738TIP3   OH2 5177   6.015   4.574   3.642
 1738TIP3    H1 5178   6.057   4.544   3.723
 1738TIP3    H2 5179   5.921   4.574   3.662
 1739TIP3   OH2 5180   0.152   2.708   3.912
 1739TIP3    H1 5181   0.118   2.796   3.895
 1739TIP3    H2 5182   0.239   2.707   3.873
 1740TIP3   OH2 5183   1.109   2.436   5.584
 1740TIP3    H1 5184   1.018   2.409   5.570
 1740TIP3    H2 5185   1.102   2.520   5.629
 1741TIP3   OH2 5186   0.643   0.927   5.461
 1741TIP3    H1 5187   0.659   0.833   5.459
 1741TIP3    H2 5188   0.705   0.963   5.398
 1742TIP3   OH2 5189   2.211   0.938   2.396
 1742TIP3    H1 5190   2.221   0.859   2.450
 1742TIP3    H2 5191   2.155   0.995   2.447
 1743TIP3   OH2 5192   5.761   4.599   4.445
 1743TIP3    H1 5193   5.834   4.654   4.418
 1743TIP3    H2 5194   5.696   4.660   4.482
 1744TIP3   OH2 5195   0.649   6.312   1.608
 1744TIP3    H1 5196   0.580   6.266   1.655
 1744TIP3    H2 5197   0.730   6.280   1.648
 1745TIP3   OH2 5198   1.598   4.607   2.945
 1745TIP3    H1 5199   1.558   4.641   3.026
 1745TIP3    H2 5200   1.603   4.513   2.959
 1746TIP3   OH2 5201   4.601   5.786   4.597
 1746TIP3    H1 5202   4.552   5.752   4.672
 1746TIP3    H2 5203   4.607   5.880   4.614
 1747TIP3   OH2 5204   5.956   0.964   0.973
 1747TIP3    H1 5205   5.950   0.871   0.950
 1747TIP3    H2 5206   5.941   1.010   0.890
 1748TIP3   OH2 5207   4.269   3.696   0.983
 1748TIP3    H1 5208   4.292   3.609   1.017
 1748TIP3    H2 5209   4.339   3.753   1.014
 1749TIP3   OH2 5210   5.890   4.537   1.941
 1749TIP3    H1 5211   5.857   4.448   1.929
 1749TIP3    H2 5212   5.827   4.579   2.000
 1750TIP3   OH2 5213   2.283   2.204   5.087
 1750TIP3    H1 5214   2.375   2.231   5.098
 1750TIP3    H2 5215   2.272   2.194   4.993
 1751TIP3   OH2 5216   2.780   6.131   1.153
 1751TIP3    H1 5217   2.832   6.057   1.123
 1751TIP3    H2 5218   2.845   6.200   1.170
 1752TIP3   OH2 5219   1.894   4.195   0.391
 1752TIP3    H1 5220   1.873   4.109   0.355
 1752TIP3    H2 5221   1.967   4.179   0.451
 1753TIP3   OH2 5222   5.076   0.884   3.429
 1753TIP3    H1 5223   5.128   0.954   3.389
 1753TIP3    H2 5224   5.026   0.928   3.498
 1754TIP3   OH2 5225   2.616   5.341   4.868
 1754TIP3    H1 5226   2.597   5.399   4.941
 1754TIP3    H2 5227   2.551   5.363   4.801
 1755TIP3   OH2 5228   7.180   6.177   2.073
 1755TIP3    H1 5229   7.162   6.165   2.166
 1755TIP3    H2 5230   7.096   6.203   2.036
 1756TIP3   OH2 5231   2.132   3.668   5.052
 1756TIP3    H1 5232   2.180   3.659   5.135
 1756TIP3    H2 5233   2.063   3.602   5.058
 1757TIP3   OH2 5234   2.180   4.828   2.742
 1757TIP3    H1 5235   2.150   4.849   2.830
 1757TIP3    H2 5236   2.211   4.737   2.748
 1758TIP3   OH2 5237   2.997   6.009   3.080
 1758TIP3    H1 5238   3.026   6.098   3.062
 1758TIP3    H2 5239   2.986   6.006   3.175
 1759TIP3   OH2 5240   4.578   4.544   2.251
 1759TIP3    H1 5241   4.503   4.494   2.284
 1759TIP3    H2 5242   4.543   4.632   2.238
 1760TIP3   OH2 5243   5.616   5.279   5.302
 1760TIP3    H1 5244   5.674   5.211   5.337
 1760TIP3    H2 5245   5.571   5.314   5.379
 1761TIP3   OH2 5246   6.268   2.178   4.033
 1761TIP3    H1 5247   6.315   2.107   3.990
 1761TIP3    H2 5248   6.327   2.208   4.102
 1762TIP3   OH2 5249   3.814   2.129   4.165
 1762TIP3    H1 5250   3.886   2.083   4.208
 1762TIP3    H2 5251   3.836   2.222   4.175
 1763TIP3   OH2 5252   6.074   4.128   3.763
 1763TIP3    H1 5253   6.135   4.199   3.784
 1763TIP3    H2 5254   6.050   4.092   3.849
 1764TIP3   OH2 5255   5.215   2.502   2.024
 1764TIP3    H1 5256   5.170   2.434   2.075
 1764TIP3    H2 5257   5.305   2.470   2.017
 1765TIP3   OH2 5258   4.278   0.588   1.591
 1765TIP3    H1 5259   4.281   0.517   1.527
 1765TIP3    H2 5260   4.316   0.663   1.546
 1766TIP3   OH2 5261   1.741   4.341   0.969
 1766TIP3    H1 5262   1.808   4.273   0.959
 1766TIP3    H2 5263   1.789   4.423   0.959
 1767TIP3   OH2 5264   5.934   4.791   1.605
 1767TIP3    H1 5265   5.959   4.784   1.513
 1767TIP3    H2 5266   5.973   4.874   1.634
 1768TIP3   OH2 5267   2.658   6.714   2.032
 1768TIP3    H1 5268   2.680   6.652   1.963
 1768TIP3    H2 5269   2.603   6.779   1.988
 1769TIP3   OH2 5270   5.969   2.987   2.585
 1769TIP3    H1 5271   6.033   3.054   2.563
 1769TIP3    H2 5272   5.916   2.977   2.506
 1770TIP3   OH2 5273   6.039   3.964   4.596
 1770TIP3    H1 5274   6.051   3.873   4.625
 1770TIP3    H2 5275   6.061   4.017   4.673
 1771TIP3   OH2 5276   0.066   4.746   2.604
 1771TIP3    H1 5277   0.134   4.739   2.672
 1771TIP3    H2 5278   0.013   4.820   2.631
 1772TIP3   OH2 5279   6.812   4.320   4.940
 1772TIP3    H1 5280   6.756   4.367   4.878
 1772TIP3    H2 5281   6.891   4.374   4.947
 1773TIP3   OH2 5282   5.342   5.846   5.074
 1773TIP3    H1 5283   5.341   5.751   5.088
 1773TIP3    H2 5284   5.261   5.864   5.026
 1774TIP3   OH2 5285   6.072   0.346   2.049
 1774TIP3    H1 5286   6.028   0.390   1.976
 1774TIP3    H2 5287   6.016   0.270   2.068
 1775TIP3   OH2 5288   6.495   4.133   4.397
 1775TIP3    H1 5289   6.471   4.060   4.340
 1775TIP3    H2 5290   6.466   4.107   4.484
 1776TIP3   OH2 5291   1.511   1.833   3.645
 1776TIP3    H1 5292   1.593   1.883   3.647
 1776TIP3    H2 5293   1.515   1.785   3.562
 1777TIP3   OH2 5294   6.057   5.353   2.180
 1777TIP3    H1 5295   5.988   5.293   2.151
 1777TIP3    H2 5296   6.077   5.325   2.270
 1778TIP3   OH2 5297   4.998   2.105   1.755
 1778TIP3    H1 5298   4.997   2.073   1.664
 1778TIP3    H2 5299   4.909   2.137   1.770
 1779TIP3   OH2 5300   2.956   5.977   1.944
 1779TIP3    H1 5301   2.939   5.958   1.851
 1779TIP3    H2 5302   2.952   5.892   1.987
 1780TIP3   OH2 5303   3.640   1.071   5.896
 1780TIP3    H1 5304   3.581   1.010   5.851
 1780TIP3    H2 5305   3.683   1.119   5.826
 1781TIP3   OH2 5306   0.856   6.625   5.395
 1781TIP3    H1 5307   0.776   6.622   5.342
 1781TIP3    H2 5308   0.826   6.650   5.482
 1782TIP3   OH2 5309   7.214   3.452   5.200
 1782TIP3    H1 5310   7.244   3.393   5.130
 1782TIP3    H2 5311   7.241   3.539   5.172
 1783TIP3   OH2 5312   3.074   5.737   2.517
 1783TIP3    H1 5313   3.120   5.766   2.438
 1783TIP3    H2 5314   3.111   5.650   2.535
 1784TIP3   OH2 5315   0.144   1.427   4.428
 1784TIP3    H1 5316   0.208   1.359   4.449
 1784TIP3    H2 5317   0.080   1.422   4.500
 1785TIP3   OH2 5318   2.302   4.920   0.787
 1785TIP3    H1 5319   2.358   4.991   0.757
 1785TIP3    H2 5320   2.225   4.964   0.824
 1786TIP3   OH2 5321   5.020   5.914   3.998
 1786TIP3    H1 5322   4.988   5.826   4.021
 1786TIP3    H2 5323   5.059   5.903   3.911
 1787TIP3   OH2 5324   3.942   5.571   0.942
 1787TIP3    H1 5325   4.001   5.497   0.958
 1787TIP3    H2 5326   3.868   5.555   1.000
 1788TIP3   OH2 5327   6.973   2.698   4.067
 1788TIP3    H1 5328   6.955   2.648   3.987
 1788TIP3    H2 5329   7.044   2.651   4.110
 1789TIP3   OH2 5330   2.999   0.272   4.702
 1789TIP3    H1 5331   3.035   0.267   4.614
 1789TIP3    H2 5332   3.005   0.183   4.736
 1790TIP3   OH2 5333   5.508   0.257   2.040
 1790TIP3    H1 5334   5.507   0.194   2.112
 1790TIP3    H2 5335   5.467   0.336   2.076
 1791TIP3   OH2 5336   2.170   5.447   1.988
 1791TIP3    H1 5337   2.150   5.521   2.045
 1791TIP3    H2 5338   2.123   5.466   1.907
 1792TIP3   OH2 5339   2.899   3.425   5.399
 1792TIP3    H1 5340   2.810   3.459   5.407
 1792TIP3    H2 5341   2.945   3.460   5.475
 1793TIP3   OH2 5342   4.817   1.693   4.305
 1793TIP3    H1 5343   4.861   1.775   4.328
 1793TIP3    H2 5344   4.842   1.632   4.374
 1794TIP3   OH2 5345   6.915   0.131   2.969
 1794TIP3    H1 5346   6.983   0.085   3.019
 1794TIP3    H2 5347   6.897   0.075   2.895
 1795TIP3   OH2 5348   5.092   5.214   4.884
 1795TIP3    H1 5349   5.169   5.210   4.941
 1795TIP3    H2 5350   5.100   5.299   4.840
 1796TIP3   OH2 5351   5.164   5.177   2.167
 1796TIP3    H1 5352   5.215   5.210   2.241
 1796TIP3    H2 5353   5.152   5.083   2.187
 1797TIP3   OH2 5354   0.710   3.854   0.605
 1797TIP3    H1 5355   0.788   3.886   0.558
 1797TIP3    H2 5356   0.698   3.765   0.573
 1798TIP3   OH2 5357   4.116   1.984   0.472
 1798TIP3    H1 5358   4.034   1.940   0.495
 1798TIP3    H2 5359   4.154   1.930   0.403
 1799TIP3   OH2 5360   3.213   3.636   4.836
 1799TIP3    H1 5361   3.173   3.586   4.907
 1799TIP3    H2 5362   3.156   3.619   4.760
 1800TIP3   OH2 5363   1.106   1.406   5.862
 1800TIP3    H1 5364   1.043   1.335   5.852
 1800TIP3    H2 5365   1.103   1.428   5.955
 1801TIP3   OH2 5366   2.406   1.806   4.616
 1801TIP3    H1 5367   2.428   1.813   4.709
 1801TIP3    H2 5368   2.408   1.897   4.585
 1802TIP3   OH2 5369   5.031   3.729   0.864
 1802TIP3    H1 5370   5.017   3.723   0.958
 1802TIP3    H2 5371   5.126   3.721   0.852
 1803TIP3   OH2 5372   0.047   0.338   1.650
 1803TIP3    H1 5373  -0.037   0.341   1.695
 1803TIP3    H2 5374   0.048   0.416   1.595
 1804TIP3   OH2 5375   0.323   1.149   4.933
 1804TIP3    H1 5376   0.333   1.056   4.911
 1804TIP3    H2 5377   0.412   1.179   4.950
 1805TIP3   OH2 5378   4.196   2.436   5.523
 1805TIP3    H1 5379   4.209   2.488   5.444
 1805TIP3    H2 5380   4.253   2.476   5.588
 1806TIP3   OH2 5381   6.308   5.464   2.454
 1806TIP3    H1 5382   6.351   5.396   2.402
 1806TIP3    H2 5383   6.279   5.419   2.533
 1807TIP3   OH2 5384   1.918   0.246   5.279
 1807TIP3    H1 5385   1.851   0.184   5.308
 1807TIP3    H2 5386   1.903   0.325   5.332
 1808TIP3   OH2 5387   6.917   0.222   1.652
 1808TIP3    H1 5388   6.880   0.141   1.686
 1808TIP3    H2 5389   6.979   0.251   1.720
 1809TIP3   OH2 5390   1.832   4.014   1.509
 1809TIP3    H1 5391   1.863   3.927   1.533
 1809TIP3    H2 5392   1.790   4.002   1.424
 1810TIP3   OH2 5393   7.179   2.815   0.721
 1810TIP3    H1 5394   7.090   2.824   0.688
 1810TIP3    H2 5395   7.235   2.856   0.655
 1811TIP3   OH2 5396   0.315   0.497   5.831
 1811TIP3    H1 5397   0.311   0.495   5.926
 1811TIP3    H2 5398   0.225   0.480   5.803
 1812TIP3   OH2 5399   2.978   5.297   5.566
 1812TIP3    H1 5400   3.031   5.225   5.600
 1812TIP3    H2 5401   2.982   5.364   5.635
 1813TIP3   OH2 5402   3.381   3.533   4.318
 1813TIP3    H1 5403   3.309   3.491   4.271
 1813TIP3    H2 5404   3.459   3.488   4.286
 1814TIP3   OH2 5405   0.388   4.080   0.196
 1814TIP3    H1 5406   0.457   4.044   0.252
 1814TIP3    H2 5407   0.307   4.043   0.231
 1815TIP3   OH2 5408   5.453   5.477   3.659
 1815TIP3    H1 5409   5.421   5.567   3.651
 1815TIP3    H2 5410   5.485   5.471   3.749
 1816TIP3   OH2 5411   2.372   3.449   5.824
 1816TIP3    H1 5412   2.317   3.419   5.897
 1816TIP3    H2 5413   2.408   3.368   5.787
 1817TIP3   OH2 5414   2.655   4.580   1.623
 1817TIP3    H1 5415   2.674   4.635   1.547
 1817TIP3    H2 5416   2.663   4.639   1.698
 1818TIP3   OH2 5417   6.758   5.638   2.022
 1818TIP3    H1 5418   6.714   5.673   1.945
 1818TIP3    H2 5419   6.828   5.701   2.041
 1819TIP3   OH2 5420   6.468   2.614   5.134
 1819TIP3    H1 5421   6.476   2.593   5.041
 1819TIP3    H2 5422   6.395   2.561   5.165
 1820TIP3   OH2 5423   6.010   2.442   5.467
 1820TIP3    H1 5424   6.102   2.430   5.491
 1820TIP3    H2 5425   5.992   2.533   5.490
 1821TIP3   OH2 5426   0.057   4.279   2.478
 1821TIP3    H1 5427   0.028   4.246   2.393
 1821TIP3    H2 5428   0.091   4.366   2.460
 1822TIP3   OH2 5429   0.803   2.452   5.741
 1822TIP3    H1 5430   0.776   2.502   5.664
 1822TIP3    H2 5431   0.875   2.502   5.779
 1823TIP3   OH2 5432   5.022   5.319   2.451
 1823TIP3    H1 5433   5.001   5.318   2.358
 1823TIP3    H2 5434   5.115   5.297   2.455
 1824TIP3   OH2 5435   2.742   3.511   4.988
 1824TIP3    H1 5436   2.725   3.420   5.011
 1824TIP3    H2 5437   2.707   3.520   4.899
 1825TIP3   OH2 5438   6.125   6.274   1.902
 1825TIP3    H1 5439   6.150   6.366   1.891
 1825TIP3    H2 5440   6.177   6.244   1.976
 1826TIP3   OH2 5441   3.181   2.264   4.139
 1826TIP3    H1 5442   3.121   2.190   4.126
 1826TIP3    H2 5443   3.129   2.329   4.185
 1827TIP3   OH2 5444   5.020   0.695   4.741
 1827TIP3    H1 5445   5.039   0.732   4.655
 1827TIP3    H2 5446   5.062   0.755   4.802
 1828TIP3   OH2 5447   4.159   4.020   0.932
 1828TIP3    H1 5448   4.220   4.074   0.881
 1828TIP3    H2 5449   4.184   3.930   0.912
 1829TIP3   OH2 5450   6.898   0.869   0.893
 1829TIP3    H1 5451   6.907   0.901   0.803
 1829TIP3    H2 5452   6.987   0.845   0.919
 1830TIP3   OH2 5453   0.211   0.109   2.498
 1830TIP3    H1 5454   0.301   0.080   2.484
 1830TIP3    H2 5455   0.212   0.203   2.480
 1831TIP3   OH2 5456   0.007   5.749   5.315
 1831TIP3    H1 5457  -0.049   5.821   5.342
 1831TIP3    H2 5458   0.059   5.784   5.242
 1832TIP3   OH2 5459   2.631   0.299   1.198
 1832TIP3    H1 5460   2.690   0.243   1.249
 1832TIP3    H2 5461   2.571   0.335   1.263
 1833TIP3   OH2 5462   4.410   1.990   3.120
 1833TIP3    H1 5463   4.402   2.028   3.207
 1833TIP3    H2 5464   4.478   2.043   3.077
 1834TIP3   OH2 5465   4.221   4.376   1.395
 1834TIP3    H1 5466   4.238   4.319   1.470
 1834TIP3    H2 5467   4.308   4.408   1.369
 1835TIP3   OH2 5468   2.505   4.077   4.288
 1835TIP3    H1 5469   2.462   4.020   4.225
 1835TIP3    H2 5470   2.488   4.037   4.373
 1836TIP3   OH2 5471   6.679   1.068   0.644
 1836TIP3    H1 5472   6.621   1.100   0.713
 1836TIP3    H2 5473   6.767   1.097   0.671
 1837TIP3   OH2 5474   1.686   5.816   4.619
 1837TIP3    H1 5475   1.672   5.752   4.550
 1837TIP3    H2 5476   1.768   5.789   4.661
 1838TIP3   OH2 5477   7.083   1.253   1.145
 1838TIP3    H1 5478   7.089   1.206   1.228
 1838TIP3    H2 5479   7.132   1.199   1.083
 1839TIP3   OH2 5480   4.635   5.443   4.708
 1839TIP3    H1 5481   4.571   5.372   4.707
 1839TIP3    H2 5482   4.683   5.430   4.790
 1840TIP3   OH2 5483   5.136   2.317   4.552
 1840TIP3    H1 5484   5.123   2.272   4.636
 1840TIP3    H2 5485   5.092   2.401   4.563
 1841TIP3   OH2 5486   4.445   6.541   0.192
 1841TIP3    H1 5487   4.397   6.574   0.268
 1841TIP3    H2 5488   4.487   6.461   0.224
 1842TIP3   OH2 5489   1.134   4.141   4.120
 1842TIP3    H1 5490   1.057   4.103   4.077
 1842TIP3    H2 5491   1.180   4.187   4.049
 1843TIP3   OH2 5492   0.119   2.979   3.841
 1843TIP3    H1 5493   0.060   3.047   3.810
 1843TIP3    H2 5494   0.201   3.025   3.860
 1844TIP3   OH2 5495   1.297   4.621   2.734
 1844TIP3    H1 5496   1.370   4.680   2.716
 1844TIP3    H2 5497   1.337   4.546   2.777
 1845TIP3   OH2 5498   1.667   4.589   4.302
 1845TIP3    H1 5499   1.634   4.604   4.213
 1845TIP3    H2 5500   1.687   4.677   4.335
 1846TIP3   OH2 5501   4.951   4.319   0.038
 1846TIP3    H1 5502   4.982   4.238  -0.004
 1846TIP3    H2 5503   4.910   4.368  -0.033
 1847TIP3   OH2 5504   0.511   2.967   3.295
 1847TIP3    H1 5505   0.601   2.958   3.265
 1847TIP3    H2 5506   0.488   2.880   3.328
 1848TIP3   OH2 5507   2.963   4.084   0.329
 1848TIP3    H1 5508   2.880   4.106   0.371
 1848TIP3    H2 5509   2.938   4.036   0.250
 1849TIP3   OH2 5510   5.143   0.698   3.225
 1849TIP3    H1 5511   5.068   0.699   3.166
 1849TIP3    H2 5512   5.124   0.767   3.288
 1850TIP3   OH2 5513   1.998   1.468   2.669
 1850TIP3    H1 5514   2.089   1.460   2.698
 1850TIP3    H2 5515   1.990   1.407   2.595
 1851TIP3   OH2 5516   6.013   3.894   3.625
 1851TIP3    H1 5517   6.057   3.820   3.667
 1851TIP3    H2 5518   5.990   3.953   3.696
 1852TIP3   OH2 5519   2.717   2.377   4.050
 1852TIP3    H1 5520   2.641   2.415   4.006
 1852TIP3    H2 5521   2.722   2.288   4.017
 1853TIP3   OH2 5522   5.173   5.194   4.023
 1853TIP3    H1 5523   5.243   5.130   4.013
 1853TIP3    H2 5524   5.140   5.181   4.112
 1854TIP3   OH2 5525   0.232   5.535   4.264
 1854TIP3    H1 5526   0.181   5.547   4.344
 1854TIP3    H2 5527   0.205   5.607   4.207
 1855TIP3   OH2 5528   0.210   5.573   4.974
 1855TIP3    H1 5529   0.259   5.649   4.944
 1855TIP3    H2 5530   0.227   5.568   5.068
 1856TIP3   OH2 5531   5.658   4.037   5.696
 1856TIP3    H1 5532   5.741   4.084   5.709
 1856TIP3    H2 5533   5.640   3.995   5.780
 1857TIP3   OH2 5534   6.571   1.719   4.776
 1857TIP3    H1 5535   6.490   1.683   4.739
 1857TIP3    H2 5536   6.609   1.771   4.705
 1858TIP3   OH2 5537   0.948   2.061   5.831
 1858TIP3    H1 5538   0.957   2.111   5.912
 1858TIP3    H2 5539   0.908   2.123   5.770
 1859TIP3   OH2 5540   7.200   1.696   3.295
 1859TIP3    H1 5541   7.187   1.667   3.204
 1859TIP3    H2 5542   7.148   1.775   3.302
 1860TIP3   OH2 5543   4.109   5.069   0.595
 1860TIP3    H1 5544   4.018   5.092   0.578
 1860TIP3    H2 5545   4.141   5.035   0.511
 1861TIP3   OH2 5546   0.538   5.244   2.713
 1861TIP3    H1 5547   0.562   5.272   2.625
 1861TIP3    H2 5548   0.471   5.307   2.740
 1862TIP3   OH2 5549   2.689   0.572   4.203
 1862TIP3    H1 5550   2.619   0.627   4.237
 1862TIP3    H2 5551   2.739   0.629   4.144
 1863TIP3   OH2 5552   3.481   0.855   5.432
 1863TIP3    H1 5553   3.402   0.809   5.459
 1863TIP3    H2 5554   3.513   0.806   5.356
 1864TIP3   OH2 5555   6.358   1.963   1.065
 1864TIP3    H1 5556   6.281   2.020   1.073
 1864TIP3    H2 5557   6.326   1.876   1.091
 1865TIP3   OH2 5558   3.777   4.949   3.811
 1865TIP3    H1 5559   3.762   4.897   3.890
 1865TIP3    H2 5560   3.849   4.905   3.767
 1866TIP3   OH2 5561   5.330   1.979   4.931
 1866TIP3    H1 5562   5.419   1.993   4.964
 1866TIP3    H2 5563   5.279   2.050   4.968
 1867TIP3   OH2 5564   3.836   6.633   2.554
 1867TIP3    H1 5565   3.798   6.714   2.519
 1867TIP3    H2 5566   3.782   6.563   2.516
 1868TIP3   OH2 5567   1.606   3.925   3.259
 1868TIP3    H1 5568   1.544   3.853   3.276
 1868TIP3    H2 5569   1.650   3.900   3.178
 1869TIP3   OH2 5570   2.021   1.461   3.184
 1869TIP3    H1 5571   2.093   1.407   3.152
 1869TIP3    H2 5572   1.963   1.400   3.230
 1870TIP3   OH2 5573   1.893   5.606   1.611
 1870TIP3    H1 5574   1.982   5.572   1.620
 1870TIP3    H2 5575   1.898   5.667   1.537
 1871TIP3   OH2 5576   3.785   2.718   2.838
 1871TIP3    H1 5577   3.692   2.695   2.844
 1871TIP3    H2 5578   3.817   2.671   2.760
 1872TIP3   OH2 5579   6.766   1.347   1.885
 1872TIP3    H1 5580   6.721   1.341   1.801
 1872TIP3    H2 5581   6.850   1.388   1.865
 1873TIP3   OH2 5582   4.780   1.995   5.133
 1873TIP3    H1 5583   4.753   1.911   5.170
 1873TIP3    H2 5584   4.838   1.970   5.060
 1874TIP3   OH2 5585   1.439   4.457   1.354
 1874TIP3    H1 5586   1.496   4.418   1.420
 1874TIP3    H2 5587   1.443   4.396   1.280
 1875TIP3   OH2 5588   2.781   4.787   3.982
 1875TIP3    H1 5589   2.872   4.770   3.956
 1875TIP3    H2 5590   2.746   4.842   3.912
 1876TIP3   OH2 5591   4.912   3.198   1.543
 1876TIP3    H1 5592   4.838   3.146   1.573
 1876TIP3    H2 5593   4.872   3.276   1.504
 1877TIP3   OH2 5594   7.108   2.546   2.053
 1877TIP3    H1 5595   7.056   2.493   2.113
 1877TIP3    H2 5596   7.119   2.629   2.099
 1878TIP3   OH2 5597   7.054   4.037   2.850
 1878TIP3    H1 5598   7.071   4.094   2.925
 1878TIP3    H2 5599   7.037   4.097   2.777
 1879TIP3   OH2 5600   2.172   5.493   4.806
 1879TIP3    H1 5601   2.131   5.410   4.831
 1879TIP3    H2 5602   2.110   5.559   4.838
 1880TIP3   OH2 5603   1.821   1.683   2.643
 1880TIP3    H1 5604   1.870   1.760   2.670
 1880TIP3    H2 5605   1.881   1.610   2.660
 1881TIP3   OH2 5606   5.666   5.654   1.733
 1881TIP3    H1 5607   5.650   5.688   1.645
 1881TIP3    H2 5608   5.586   5.605   1.754
 1882TIP3   OH2 5609   3.085   0.776   5.197
 1882TIP3    H1 5610   3.009   0.795   5.142
 1882TIP3    H2 5611   3.149   0.737   5.138
 1883TIP3   OH2 5612   4.267   3.357   2.893
 1883TIP3    H1 5613   4.185   3.354   2.942
 1883TIP3    H2 5614   4.250   3.418   2.821
 1884TIP3   OH2 5615   6.116   4.639   1.748
 1884TIP3    H1 5616   6.056   4.697   1.701
 1884TIP3    H2 5617   6.061   4.565   1.774
 1885TIP3   OH2 5618   2.654   1.467   1.114
 1885TIP3    H1 5619   2.586   1.515   1.068
 1885TIP3    H2 5620   2.655   1.506   1.202
 1886TIP3   OH2 5621   4.305   0.499   0.257
 1886TIP3    H1 5622   4.216   0.464   0.258
 1886TIP3    H2 5623   4.307   0.562   0.329
 1887TIP3   OH2 5624   2.030   4.165   4.925
 1887TIP3    H1 5625   2.103   4.150   4.864
 1887TIP3    H2 5626   2.017   4.081   4.969
 1888TIP3   OH2 5627   3.756   0.603   4.755
 1888TIP3    H1 5628   3.815   0.544   4.709
 1888TIP3    H2 5629   3.669   0.579   4.725
 1889TIP3   OH2 5630   2.546   5.722   5.735
 1889TIP3    H1 5631   2.619   5.721   5.798
 1889TIP3    H2 5632   2.579   5.773   5.661
 1890TIP3   OH2 5633   3.534   4.108   4.147
 1890TIP3    H1 5634   3.452   4.059   4.157
 1890TIP3    H2 5635   3.514   4.196   4.179
 1891TIP3   OH2 5636   4.207   0.293   2.653
 1891TIP3    H1 5637   4.258   0.321   2.729
 1891TIP3    H2 5638   4.243   0.344   2.580
 1892TIP3   OH2 5639   4.597   2.229   3.148
 1892TIP3    H1 5640   4.580   2.279   3.068
 1892TIP3    H2 5641   4.643   2.151   3.118
 1893TIP3   OH2 5642   0.596   4.388   3.854
 1893TIP3    H1 5643   0.636   4.322   3.910
 1893TIP3    H2 5644   0.517   4.415   3.900
 1894TIP3   OH2 5645   0.310   1.944   4.780
 1894TIP3    H1 5646   0.218   1.965   4.794
 1894TIP3    H2 5647   0.337   2.002   4.709
 1895TIP3   OH2 5648   1.954   6.181   5.440
 1895TIP3    H1 5649   1.994   6.141   5.362
 1895TIP3    H2 5650   1.887   6.119   5.467
 1896TIP3   OH2 5651   5.841   1.352   2.362
 1896TIP3    H1 5652   5.848   1.330   2.269
 1896TIP3    H2 5653   5.895   1.431   2.372
 1897TIP3   OH2 5654   4.169   4.339   3.547
 1897TIP3    H1 5655   4.082   4.371   3.570
 1897TIP3    H2 5656   4.158   4.298   3.461
 1898TIP3   OH2 5657   6.684   0.385   1.516
 1898TIP3    H1 5658   6.633   0.443   1.572
 1898TIP3    H2 5659   6.753   0.351   1.573
 1899TIP3   OH2 5660   3.979   2.038   1.009
 1899TIP3    H1 5661   3.919   2.067   1.078
 1899TIP3    H2 5662   3.955   1.947   0.993
 1900TIP3   OH2 5663   1.857   2.408   5.327
 1900TIP3    H1 5664   1.941   2.433   5.290
 1900TIP3    H2 5665   1.800   2.484   5.311
 1901TIP3   OH2 5666   4.676   2.567   2.956
 1901TIP3    H1 5667   4.594   2.575   3.005
 1901TIP3    H2 5668   4.659   2.612   2.873
 1902TIP3   OH2 5669   1.865   2.917   5.156
 1902TIP3    H1 5670   1.897   2.982   5.218
 1902TIP3    H2 5671   1.826   2.849   5.210
 1903TIP3   OH2 5672   0.740   5.687   3.923
 1903TIP3    H1 5673   0.707   5.635   3.996
 1903TIP3    H2 5674   0.835   5.674   3.925
 1904TIP3   OH2 5675   4.116   0.823   1.925
 1904TIP3    H1 5676   4.172   0.749   1.902
 1904TIP3    H2 5677   4.088   0.805   2.015
 1905TIP3   OH2 5678   1.007   3.716   2.011
 1905TIP3    H1 5679   0.919   3.688   2.033
 1905TIP3    H2 5680   1.045   3.745   2.093
 1906TIP3   OH2 5681   6.638   3.588   2.250
 1906TIP3    H1 5682   6.615   3.670   2.208
 1906TIP3    H2 5683   6.579   3.582   2.325
 1907TIP3   OH2 5684   4.468   4.452   1.363
 1907TIP3    H1 5685   4.498   4.384   1.303
 1907TIP3    H2 5686   4.526   4.526   1.347
 1908TIP3   OH2 5687   3.247   1.104   0.578
 1908TIP3    H1 5688   3.202   1.172   0.628
 1908TIP3    H2 5689   3.200   1.023   0.599
 1909TIP3   OH2 5690   3.964   2.682   1.651
 1909TIP3    H1 5691   3.875   2.716   1.660
 1909TIP3    H2 5692   3.954   2.598   1.607
 1910TIP3   OH2 5693   5.523   5.145   4.698
 1910TIP3    H1 5694   5.510   5.070   4.639
 1910TIP3    H2 5695   5.458   5.209   4.669
 1911TIP3   OH2 5696   6.768   2.448   5.078
 1911TIP3    H1 5697   6.779   2.482   5.167
 1911TIP3    H2 5698   6.739   2.523   5.027
 1912TIP3   OH2 5699   6.874   2.040   0.325
 1912TIP3    H1 5700   6.821   2.025   0.403
 1912TIP3    H2 5701   6.871   1.957   0.277
 1913TIP3   OH2 5702   5.052   4.991   0.434
 1913TIP3    H1 5703   5.126   5.023   0.384
 1913TIP3    H2 5704   5.058   4.895   0.427
 1914TIP3   OH2 5705   2.899   5.378   4.642
 1914TIP3    H1 5706   2.850   5.314   4.694
 1914TIP3    H2 5707   2.908   5.454   4.700
 1915TIP3   OH2 5708   5.406   2.941   0.718
 1915TIP3    H1 5709   5.501   2.941   0.716
 1915TIP3    H2 5710   5.379   2.961   0.628
 1916TIP3   OH2 5711   3.868   5.591   5.672
 1916TIP3    H1 5712   3.781   5.598   5.712
 1916TIP3    H2 5713   3.851   5.584   5.579
 1917TIP3   OH2 5714   5.758   5.083   1.657
 1917TIP3    H1 5715   5.731   5.057   1.745
 1917TIP3    H2 5716   5.835   5.029   1.638
 1918TIP3   OH2 5717   0.603   1.597   0.339
 1918TIP3    H1 5718   0.681   1.550   0.368
 1918TIP3    H2 5719   0.629   1.637   0.256
 1919TIP3   OH2 5720   3.214   5.629   3.585
 1919TIP3    H1 5721   3.294   5.676   3.608
 1919TIP3    H2 5722   3.244   5.542   3.557
 1920TIP3   OH2 5723   3.044   4.702   3.861
 1920TIP3    H1 5724   3.065   4.774   3.802
 1920TIP3    H2 5725   3.089   4.725   3.943
 1921TIP3   OH2 5726   0.914   4.399   3.974
 1921TIP3    H1 5727   0.841   4.340   3.990
 1921TIP3    H2 5728   0.963   4.358   3.903
 1922TIP3   OH2 5729   4.583   0.916   5.790
 1922TIP3    H1 5730   4.669   0.881   5.814
 1922TIP3    H2 5731   4.600   0.967   5.711
 1923TIP3   OH2 5732   0.830   5.453   2.427
 1923TIP3    H1 5733   0.812   5.427   2.336
 1923TIP3    H2 5734   0.748   5.436   2.473
 1924TIP3   OH2 5735   1.682   2.558   4.131
 1924TIP3    H1 5736   1.686   2.652   4.148
 1924TIP3    H2 5737   1.744   2.544   4.059
 1925TIP3   OH2 5738   0.041   1.501   1.180
 1925TIP3    H1 5739  -0.028   1.443   1.212
 1925TIP3    H2 5740   0.040   1.491   1.085
 1926TIP3   OH2 5741   5.268   3.657   2.540
 1926TIP3    H1 5742   5.306   3.620   2.620
 1926TIP3    H2 5743   5.241   3.580   2.489
 1927TIP3   OH2 5744   0.148   5.505   0.513
 1927TIP3    H1 5745   0.172   5.584   0.560
 1927TIP3    H2 5746   0.223   5.487   0.456
 1928TIP3   OH2 5747   0.216   3.047   5.262
 1928TIP3    H1 5748   0.134   3.085   5.293
 1928TIP3    H2 5749   0.281   3.075   5.327
 1929TIP3   OH2 5750   5.217   5.344   3.278
 1929TIP3    H1 5751   5.266   5.293   3.342
 1929TIP3    H2 5752   5.215   5.433   3.314
 1930TIP3   OH2 5753   4.358   5.054   4.139
 1930TIP3    H1 5754   4.267   5.075   4.159
 1930TIP3    H2 5755   4.354   5.006   4.056
 1931TIP3   OH2 5756   0.850   1.887   3.951
 1931TIP3    H1 5757   0.794   1.816   3.921
 1931TIP3    H2 5758   0.936   1.846   3.964
 1932TIP3   OH2 5759   3.507   0.177   0.299
 1932TIP3    H1 5760   3.601   0.158   0.310
 1932TIP3    H2 5761   3.464   0.122   0.364
 1933TIP3   OH2 5762   6.069   0.401   3.818
 1933TIP3    H1 5763   6.016   0.473   3.784
 1933TIP3    H2 5764   6.008   0.346   3.867
 1934TIP3   OH2 5765   1.015   6.523   3.319
 1934TIP3    H1 5766   1.018   6.591   3.387
 1934TIP3    H2 5767   1.019   6.572   3.237
 1935TIP3   OH2 5768   5.102   1.464   4.863
 1935TIP3    H1 5769   5.150   1.540   4.896
 1935TIP3    H2 5770   5.089   1.482   4.770
 1936TIP3   OH2 5771   0.155   4.174   5.181
 1936TIP3    H1 5772   0.186   4.258   5.217
 1936TIP3    H2 5773   0.103   4.136   5.252
 1937TIP3   OH2 5774   3.924   6.513   3.063
 1937TIP3    H1 5775   3.982   6.446   3.099
 1937TIP3    H2 5776   3.836   6.477   3.073
 1938TIP3   OH2 5777   0.407  -0.056   5.586
 1938TIP3    H1 5778   0.351   0.000   5.533
 1938TIP3    H2 5779   0.396  -0.144   5.549
 1939TIP3   OH2 5780   4.689   4.946   5.792
 1939TIP3    H1 5781   4.649   5.000   5.725
 1939TIP3    H2 5782   4.782   4.943   5.768
 1940TIP3   OH2 5783   7.180   3.437   3.916
 1940TIP3    H1 5784   7.156   3.397   3.833
 1940TIP3    H2 5785   7.187   3.364   3.977
 1941TIP3   OH2 5786   2.101   4.537   5.417
 1941TIP3    H1 5787   2.055   4.599   5.473
 1941TIP3    H2 5788   2.087   4.569   5.328
 1942TIP3   OH2 5789   4.051   3.133   0.220
 1942TIP3    H1 5790   3.958   3.121   0.205
 1942TIP3    H2 5791   4.081   3.185   0.144
 1943TIP3   OH2 5792   2.532   4.557   1.004
 1943TIP3    H1 5793   2.485   4.569   1.086
 1943TIP3    H2 5794   2.480   4.604   0.939
 1944TIP3   OH2 5795   5.167   6.580   4.030
 1944TIP3    H1 5796   5.214   6.568   3.948
 1944TIP3    H2 5797   5.133   6.669   4.026
 1945TIP3   OH2 5798   4.898   0.884   4.547
 1945TIP3    H1 5799   4.934   0.879   4.458
 1945TIP3    H2 5800   4.900   0.978   4.568
 1946TIP3   OH2 5801   4.086   3.927   2.728
 1946TIP3    H1 5802   4.155   3.872   2.765
 1946TIP3    H2 5803   4.026   3.944   2.801
 1947TIP3   OH2 5804   5.087   4.197   5.708
 1947TIP3    H1 5805   5.147   4.183   5.634
 1947TIP3    H2 5806   5.078   4.292   5.714
 1948TIP3   OH2 5807   5.077   0.896   0.715
 1948TIP3    H1 5808   5.114   0.880   0.802
 1948TIP3    H2 5809   4.989   0.929   0.733
 1949TIP3   OH2 5810   2.518   3.187   4.305
 1949TIP3    H1 5811   2.436   3.223   4.272
 1949TIP3    H2 5812   2.510   3.093   4.290
 1950TIP3   OH2 5813   1.481   2.006   3.922
 1950TIP3    H1 5814   1.530   1.939   3.969
 1950TIP3    H2 5815   1.393   2.003   3.960
 1951TIP3   OH2 5816   0.476   2.801   2.381
 1951TIP3    H1 5817   0.527   2.731   2.339
 1951TIP3    H2 5818   0.542   2.858   2.420
 1952TIP3   OH2 5819   6.732   3.043   3.188
 1952TIP3    H1 5820   6.767   3.059   3.100
 1952TIP3    H2 5821   6.783   3.102   3.244
 1953TIP3   OH2 5822   4.597   3.415   3.696
 1953TIP3    H1 5823   4.564   3.356   3.628
 1953TIP3    H2 5824   4.597   3.502   3.654
 1954TIP3   OH2 5825   2.161   1.082   1.290
 1954TIP3    H1 5826   2.105   1.010   1.260
 1954TIP3    H2 5827   2.198   1.051   1.372
 1955TIP3   OH2 5828   2.771   3.052   2.068
 1955TIP3    H1 5829   2.851   3.063   2.017
 1955TIP3    H2 5830   2.800   3.021   2.153
 1956TIP3   OH2 5831   6.630   3.903   3.821
 1956TIP3    H1 5832   6.574   3.946   3.757
 1956TIP3    H2 5833   6.594   3.929   3.906
 1957TIP3   OH2 5834   4.763   6.850   4.910
 1957TIP3    H1 5835   4.778   6.799   4.989
 1957TIP3    H2 5836   4.669   6.841   4.893
 1958TIP3   OH2 5837   1.423   6.448   5.453
 1958TIP3    H1 5838   1.359   6.426   5.521
 1958TIP3    H2 5839   1.508   6.431   5.493
 1959TIP3   OH2 5840   1.648   1.725   2.289
 1959TIP3    H1 5841   1.673   1.649   2.341
 1959TIP3    H2 5842   1.686   1.800   2.335
 1960TIP3   OH2 5843   7.170   1.253   2.685
 1960TIP3    H1 5844   7.171   1.280   2.593
 1960TIP3    H2 5845   7.242   1.301   2.725
 1961TIP3   OH2 5846   3.116   5.009   3.268
 1961TIP3    H1 5847   3.078   4.973   3.348
 1961TIP3    H2 5848   3.084   4.952   3.199
 1962TIP3   OH2 5849   2.190   0.601   3.871
 1962TIP3    H1 5850   2.243   0.643   3.803
 1962TIP3    H2 5851   2.154   0.523   3.830
 1963TIP3   OH2 5852   3.233   4.527   3.998
 1963TIP3    H1 5853   3.190   4.484   4.072
 1963TIP3    H2 5854   3.238   4.619   4.023
 1964TIP3   OH2 5855   0.916   3.672   0.814
 1964TIP3    H1 5856   0.952   3.761   0.815
 1964TIP3    H2 5857   0.958   3.628   0.888
 1965TIP3   OH2 5858   6.587   0.698   5.373
 1965TIP3    H1 5859   6.554   0.642   5.302
 1965TIP3    H2 5860   6.512   0.750   5.400
 1966TIP3   OH2 5861   0.955   2.768   5.261
 1966TIP3    H1 5862   0.860   2.769   5.253
 1966TIP3    H2 5863   0.974   2.835   5.326
 1967TIP3   OH2 5864   2.616   2.129   1.509
 1967TIP3    H1 5865   2.585   2.219   1.520
 1967TIP3    H2 5866   2.710   2.133   1.528
 1968TIP3   OH2 5867   6.107   2.734   4.827
 1968TIP3    H1 5868   6.184   2.683   4.800
 1968TIP3    H2 5869   6.143   2.810   4.872
 1969TIP3   OH2 5870   1.551   4.641   4.859
 1969TIP3    H1 5871   1.498   4.646   4.779
 1969TIP3    H2 5872   1.544   4.728   4.898
 1970TIP3   OH2 5873   5.692   6.592   1.738
 1970TIP3    H1 5874   5.684   6.498   1.720
 1970TIP3    H2 5875   5.602   6.623   1.745
 1971TIP3   OH2 5876   3.384   0.815   3.810
 1971TIP3    H1 5877   3.474   0.837   3.785
 1971TIP3    H2 5878   3.333   0.891   3.783
 1972TIP3   OH2 5879   1.820   3.340   1.691
 1972TIP3    H1 5880   1.901   3.381   1.660
 1972TIP3    H2 5881   1.846   3.252   1.717
 1973TIP3   OH2 5882   0.684   3.790   3.067
 1973TIP3    H1 5883   0.611   3.852   3.064
 1973TIP3    H2 5884   0.666   3.737   3.145
 1974TIP3   OH2 5885   7.026   1.750   1.231
 1974TIP3    H1 5886   6.956   1.778   1.172
 1974TIP3    H2 5887   7.103   1.740   1.175
 1975TIP3   OH2 5888   2.966   4.521   0.123
 1975TIP3    H1 5889   2.968   4.588   0.055
 1975TIP3    H2 5890   2.905   4.554   0.189
 1976TIP3   OH2 5891   4.369   0.844   2.866
 1976TIP3    H1 5892   4.320   0.769   2.832
 1976TIP3    H2 5893   4.457   0.834   2.828
 1977TIP3   OH2 5894   4.598   1.203   4.665
 1977TIP3    H1 5895   4.543   1.149   4.607
 1977TIP3    H2 5896   4.559   1.290   4.660
 1978TIP3   OH2 5897   2.819   3.616   1.831
 1978TIP3    H1 5898   2.841   3.661   1.913
 1978TIP3    H2 5899   2.768   3.540   1.858
 1979TIP3   OH2 5900   2.554   4.271   4.474
 1979TIP3    H1 5901   2.560   4.228   4.388
 1979TIP3    H2 5902   2.609   4.217   4.531
 1980TIP3   OH2 5903   5.910   0.729   2.584
 1980TIP3    H1 5904   5.966   0.732   2.662
 1980TIP3    H2 5905   5.860   0.810   2.587
 1981TIP3   OH2 5906   2.494   2.911   2.063
 1981TIP3    H1 5907   2.579   2.952   2.079
 1981TIP3    H2 5908   2.432   2.960   2.117
 1982TIP3   OH2 5909   4.530   1.741   3.220
 1982TIP3    H1 5910   4.493   1.826   3.195
 1982TIP3    H2 5911   4.619   1.743   3.185
 1983TIP3   OH2 5912   1.737   0.560   5.096
 1983TIP3    H1 5913   1.810   0.559   5.034
 1983TIP3    H2 5914   1.768   0.614   5.168
 1984TIP3   OH2 5915   5.203   3.923   2.521
 1984TIP3    H1 5916   5.292   3.956   2.528
 1984TIP3    H2 5917   5.213   3.828   2.513
 1985TIP3   OH2 5918   6.558   3.559   3.605
 1985TIP3    H1 5919   6.507   3.638   3.622
 1985TIP3    H2 5920   6.493   3.496   3.573
 1986TIP3   OH2 5921   0.220   2.574   5.427
 1986TIP3    H1 5922   0.146   2.557   5.485
 1986TIP3    H2 5923   0.195   2.536   5.343
 1987TIP3   OH2 5924   3.589   5.068   2.197
 1987TIP3    H1 5925   3.560   5.126   2.127
 1987TIP3    H2 5926   3.517   5.069   2.260
 1988TIP3   OH2 5927   6.265   5.429   2.030
 1988TIP3    H1 5928   6.340   5.371   2.045
 1988TIP3    H2 5929   6.209   5.416   2.106
 1989TIP3   OH2 5930   3.887   6.189   2.538
 1989TIP3    H1 5931   3.944   6.115   2.556
 1989TIP3    H2 5932   3.869   6.227   2.624
 1990TIP3   OH2 5933   5.027   4.504   1.329
 1990TIP3    H1 5934   4.982   4.580   1.366
 1990TIP3    H2 5935   5.016   4.435   1.394
 1991TIP3   OH2 5936   1.888   4.981   5.311
 1991TIP3    H1 5937   1.950   4.927   5.362
 1991TIP3    H2 5938   1.816   4.922   5.291
 1992TIP3   OH2 5939   2.987   3.297   0.819
 1992TIP3    H1 5940   3.055   3.309   0.885
 1992TIP3    H2 5941   2.916   3.253   0.865
 1993TIP3   OH2 5942   0.700   4.428   3.592
 1993TIP3    H1 5943   0.643   4.420   3.668
 1993TIP3    H2 5944   0.651   4.387   3.520
 1994TIP3   OH2 5945   6.678   1.343   3.587
 1994TIP3    H1 5946   6.767   1.311   3.569
 1994TIP3    H2 5947   6.684   1.438   3.577
 1995TIP3   OH2 5948   5.349   5.521   4.142
 1995TIP3    H1 5949   5.344   5.426   4.144
 1995TIP3    H2 5950   5.360   5.547   4.233
 1996TIP3   OH2 5951   3.256   5.201   4.996
 1996TIP3    H1 5952   3.191   5.213   5.065
 1996TIP3    H2 5953   3.281   5.109   5.002
 1997TIP3   OH2 5954   0.918   1.396   0.923
 1997TIP3    H1 5955   0.920   1.438   1.008
 1997TIP3    H2 5956   0.958   1.459   0.863
 1998TIP3   OH2 5957   2.328   0.547   4.571
 1998TIP3    H1 5958   2.371   0.559   4.655
 1998TIP3    H2 5959   2.395   0.569   4.506
 1999TIP3   OH2 5960   3.006   2.564   1.807
 1999TIP3    H1 5961   3.069   2.603   1.869
 1999TIP3    H2 5962   2.951   2.508   1.862
 2000TIP3   OH2 5963   2.811   5.822   2.184
 2000TIP3    H1 5964   2.729   5.832   2.232
 2000TIP3    H2 5965   2.858   5.903   2.200
 2001TIP3   OH2 5966   1.558   2.480   2.511
 2001TIP3    H1 5967   1.598   2.530   2.440
 2001TIP3    H2 5968   1.631   2.433   2.551
 2002TIP3   OH2 5969   4.976   4.205   5.258
 2002TIP3    H1 5970   5.068   4.226   5.273
 2002TIP3    H2 5971   4.928   4.270   5.310
 2003TIP3   OH2 5972   2.281   5.689   3.321
 2003TIP3    H1 5973   2.286   5.615   3.261
 2003TIP3    H2 5974   2.288   5.651   3.408
 2004TIP3   OH2 5975   5.801   1.369   1.895
 2004TIP3    H1 5976   5.741   1.424   1.945
 2004TIP3    H2 5977   5.882   1.421   1.890
 2005TIP3   OH2 5978   6.884   1.101   2.962
 2005TIP3    H1 5979   6.827   1.072   2.891
 2005TIP3    H2 5980   6.922   1.182   2.931
 2006TIP3   OH2 5981   6.855   4.154   1.936
 2006TIP3    H1 5982   6.785   4.220   1.927
 2006TIP3    H2 5983   6.808   4.071   1.938
 2007TIP3   OH2 5984   6.905   3.192   1.927
 2007TIP3    H1 5985   6.826   3.185   1.874
 2007TIP3    H2 5986   6.954   3.112   1.908
 2008TIP3   OH2 5987   5.769   6.099   4.975
 2008TIP3    H1 5988   5.845   6.099   5.034
 2008TIP3    H2 5989   5.806   6.113   4.888
 2009TIP3   OH2 5990   5.347   6.532   2.675
 2009TIP3    H1 5991   5.410   6.469   2.710
 2009TIP3    H2 5992   5.400   6.600   2.634
 2010TIP3   OH2 5993   5.246   0.558   5.374
 2010TIP3    H1 5994   5.280   0.596   5.455
 2010TIP3    H2 5995   5.312   0.493   5.349
 2011TIP3   OH2 5996   4.167   6.151   4.889
 2011TIP3    H1 5997   4.093   6.116   4.938
 2011TIP3    H2 5998   4.155   6.246   4.894
 2012TIP3   OH2 5999   4.709   6.414   4.008
 2012TIP3    H1 6000   4.717   6.424   4.103
 2012TIP3    H2 6001   4.799   6.410   3.976
 2013TIP3   OH2 6002   2.226   4.039   2.685
 2013TIP3    H1 6003   2.135   4.030   2.658
 2013TIP3    H2 6004   2.244   3.961   2.736
 2014TIP3   OH2 6005   1.894   0.849   1.448
 2014TIP3    H1 6006   1.807   0.887   1.455
 2014TIP3    H2 6007   1.905   0.801   1.530
 2015TIP3   OH2 6008   1.710   1.281   1.192
 2015TIP3    H1 6009   1.637   1.278   1.254
 2015TIP3    H2 6010   1.780   1.231   1.234
 2016TIP3   OH2 6011   3.537   0.538   3.108
 2016TIP3    H1 6012   3.485   0.618   3.109
 2016TIP3    H2 6013   3.620   0.563   3.068
 2017TIP3   OH2 6014   6.309   1.798   3.391
 2017TIP3    H1 6015   6.336   1.890   3.393
 2017TIP3    H2 6016   6.316   1.769   3.482
 2018TIP3   OH2 6017   1.313   3.237   1.472
 2018TIP3    H1 6018   1.350   3.270   1.390
 2018TIP3    H2 6019   1.380   3.256   1.538
 2019TIP3   OH2 6020   3.374   5.859   0.513
 2019TIP3    H1 6021   3.435   5.792   0.480
 2019TIP3    H2 6022   3.426   5.939   0.515
 2020TIP3   OH2 6023   2.411   4.594   2.090
 2020TIP3    H1 6024   2.412   4.565   2.182
 2020TIP3    H2 6025   2.326   4.637   2.081
 2021TIP3   OH2 6026   6.808   5.659   1.263
 2021TIP3    H1 6027   6.849   5.720   1.201
 2021TIP3    H2 6028   6.753   5.602   1.208
 2022TIP3   OH2 6029   3.918   1.930   0.224
 2022TIP3    H1 6030   3.878   1.850   0.257
 2022TIP3    H2 6031   3.941   1.980   0.302
 2023TIP3   OH2 6032   4.236   0.607   1.850
 2023TIP3    H1 6033   4.222   0.518   1.882
 2023TIP3    H2 6034   4.240   0.598   1.755
 2024TIP3   OH2 6035   6.380   2.251   4.939
 2024TIP3    H1 6036   6.406   2.175   4.887
 2024TIP3    H2 6037   6.402   2.228   5.029
 2025TIP3   OH2 6038   0.364   3.496   4.458
 2025TIP3    H1 6039   0.395   3.453   4.537
 2025TIP3    H2 6040   0.438   3.549   4.428
 2026TIP3   OH2 6041   5.025   0.174   3.300
 2026TIP3    H1 6042   5.092   0.180   3.232
 2026TIP3    H2 6043   5.055   0.234   3.368
 2027TIP3   OH2 6044   2.444   3.875   1.067
 2027TIP3    H1 6045   2.427   3.803   1.007
 2027TIP3    H2 6046   2.482   3.834   1.144
 2028TIP3   OH2 6047   5.729   5.312   3.229
 2028TIP3    H1 6048   5.660   5.274   3.174
 2028TIP3    H2 6049   5.797   5.338   3.167
 2029TIP3   OH2 6050   5.819   5.255   2.030
 2029TIP3    H1 6051   5.759   5.191   1.993
 2029TIP3    H2 6052   5.812   5.331   1.973
 2030TIP3   OH2 6053   2.973   1.428   0.383
 2030TIP3    H1 6054   2.888   1.391   0.404
 2030TIP3    H2 6055   3.004   1.378   0.308
 2031TIP3   OH2 6056   0.267   2.418   2.738
 2031TIP3    H1 6057   0.201   2.454   2.798
 2031TIP3    H2 6058   0.240   2.327   2.726
 2032TIP3   OH2 6059   6.414   3.186   0.602
 2032TIP3    H1 6060   6.454   3.265   0.639
 2032TIP3    H2 6061   6.405   3.127   0.676
 2033TIP3   OH2 6062   5.691   2.693   2.078
 2033TIP3    H1 6063   5.650   2.769   2.038
 2033TIP3    H2 6064   5.695   2.628   2.008
 2034TIP3   OH2 6065   1.738   4.064   4.218
 2034TIP3    H1 6066   1.804   4.001   4.190
 2034TIP3    H2 6067   1.781   4.116   4.286
 2035TIP3   OH2 6068   6.992   2.858   2.929
 2035TIP3    H1 6069   6.971   2.868   3.022
 2035TIP3    H2 6070   6.917   2.895   2.883
 2036TIP3   OH2 6071   6.761   0.770   2.044
 2036TIP3    H1 6072   6.821   0.741   1.976
 2036TIP3    H2 6073   6.807   0.842   2.087
 2037TIP3   OH2 6074   5.532   5.210   0.303
 2037TIP3    H1 6075   5.498   5.176   0.386
 2037TIP3    H2 6076   5.626   5.194   0.308
 2038TIP3   OH2 6077   1.813   3.946   1.109
 2038TIP3    H1 6078   1.758   3.928   1.033
 2038TIP3    H2 6079   1.902   3.954   1.074
 2039TIP3   OH2 6080   2.844   6.316   0.414
 2039TIP3    H1 6081   2.841   6.266   0.495
 2039TIP3    H2 6082   2.900   6.265   0.356
 2040TIP3   OH2 6083   0.851   1.525   1.163
 2040TIP3    H1 6084   0.787   1.593   1.184
 2040TIP3    H2 6085   0.801   1.444   1.163
 2041TIP3   OH2 6086   0.343   3.654   5.361
 2041TIP3    H1 6087   0.254   3.633   5.389
 2041TIP3    H2 6088   0.344   3.749   5.352
 2042TIP3   OH2 6089   1.353   6.323   2.749
 2042TIP3    H1 6090   1.424   6.263   2.725
 2042TIP3    H2 6091   1.273   6.278   2.721
 2043TIP3   OH2 6092   0.061   2.609   3.584
 2043TIP3    H1 6093   0.007   2.671   3.535
 2043TIP3    H2 6094   0.082   2.541   3.521
 2044TIP3   OH2 6095   4.983   1.539   1.616
 2044TIP3    H1 6096   5.074   1.533   1.586
 2044TIP3    H2 6097   4.944   1.455   1.590
 2045TIP3   OH2 6098   5.671   0.214   5.788
 2045TIP3    H1 6099   5.632   0.231   5.874
 2045TIP3    H2 6100   5.672   0.299   5.745
 2046TIP3   OH2 6101   5.739   4.723   1.247
 2046TIP3    H1 6102   5.685   4.716   1.169
 2046TIP3    H2 6103   5.827   4.740   1.214
 2047TIP3   OH2 6104   4.624   0.257   4.653
 2047TIP3    H1 6105   4.595   0.301   4.733
 2047TIP3    H2 6106   4.544   0.235   4.606
 2048TIP3   OH2 6107   2.256   0.953   3.727
 2048TIP3    H1 6108   2.313   0.877   3.717
 2048TIP3    H2 6109   2.314   1.024   3.755
 2049TIP3   OH2 6110   6.393   4.787   5.363
 2049TIP3    H1 6111   6.441   4.723   5.416
 2049TIP3    H2 6112   6.400   4.753   5.274
 2050TIP3   OH2 6113   0.162   2.934   5.601
 2050TIP3    H1 6114   0.114   3.017   5.605
 2050TIP3    H2 6115   0.248   2.958   5.566
 2051TIP3   OH2 6116   1.626   0.495   3.158
 2051TIP3    H1 6117   1.700   0.549   3.130
 2051TIP3    H2 6118   1.590   0.460   3.076
 2052TIP3   OH2 6119   7.116   6.588   5.095
 2052TIP3    H1 6120   7.154   6.598   5.008
 2052TIP3    H2 6121   7.183   6.542   5.145
 2053TIP3   OH2 6122   5.656   5.603   3.310
 2053TIP3    H1 6123   5.677   5.510   3.315
 2053TIP3    H2 6124   5.568   5.606   3.273
 2054TIP3   OH2 6125   4.608   1.298   5.148
 2054TIP3    H1 6126   4.571   1.323   5.063
 2054TIP3    H2 6127   4.702   1.287   5.131
 2055TIP3   OH2 6128   4.503   5.830   5.925
 2055TIP3    H1 6129   4.564   5.850   5.854
 2055TIP3    H2 6130   4.418   5.859   5.892
 2056TIP3   OH2 6131   2.250   6.308   3.482
 2056TIP3    H1 6132   2.264   6.214   3.479
 2056TIP3    H2 6133   2.185   6.321   3.551
 2057TIP3   OH2 6134   5.930   5.627   0.197
 2057TIP3    H1 6135   5.948   5.545   0.244
 2057TIP3    H2 6136   5.851   5.661   0.239
 2058TIP3   OH2 6137   5.070   6.317   5.326
 2058TIP3    H1 6138   4.981   6.340   5.355
 2058TIP3    H2 6139   5.127   6.375   5.377
 2059TIP3   OH2 6140   2.414   0.512   2.573
 2059TIP3    H1 6141   2.507   0.492   2.570
 2059TIP3    H2 6142   2.385   0.482   2.659
 2060TIP3   OH2 6143   2.715   4.033   2.743
 2060TIP3    H1 6144   2.738   4.094   2.813
 2060TIP3    H2 6145   2.712   3.947   2.785
 2061TIP3   OH2 6146   0.392   5.688  -0.008
 2061TIP3    H1 6147   0.416   5.719   0.079
 2061TIP3    H2 6148   0.467   5.709  -0.063
 2062TIP3   OH2 6149   4.586   0.548   4.536
 2062TIP3    H1 6150   4.650   0.574   4.470
 2062TIP3    H2 6151   4.639   0.529   4.614
 2063TIP3   OH2 6152   0.702   2.706   4.627
 2063TIP3    H1 6153   0.719   2.635   4.564
 2063TIP3    H2 6154   0.774   2.767   4.612
 2064TIP3   OH2 6155   3.720   3.311   5.337
 2064TIP3    H1 6156   3.630   3.282   5.352
 2064TIP3    H2 6157   3.711   3.393   5.288
 2065TIP3   OH2 6158   0.897   4.113   0.599
 2065TIP3    H1 6159   0.850   4.133   0.518
 2065TIP3    H2 6160   0.917   4.198   0.637
 2066TIP3   OH2 6161   3.360   2.720   4.257
 2066TIP3    H1 6162   3.323   2.680   4.336
 2066TIP3    H2 6163   3.454   2.698   4.262
 2067TIP3   OH2 6164   6.495   1.540   2.002
 2067TIP3    H1 6165   6.417   1.548   2.056
 2067TIP3    H2 6166   6.549   1.474   2.047
 2068TIP3   OH2 6167   3.932   2.644   1.076
 2068TIP3    H1 6168   4.008   2.665   1.130
 2068TIP3    H2 6169   3.955   2.675   0.988
 2069TIP3   OH2 6170   0.765   1.592   2.723
 2069TIP3    H1 6171   0.839   1.545   2.763
 2069TIP3    H2 6172   0.701   1.600   2.792
 2070TIP3   OH2 6173   0.642   1.433   2.021
 2070TIP3    H1 6174   0.649   1.432   1.926
 2070TIP3    H2 6175   0.620   1.523   2.043
 2071TIP3   OH2 6176   5.831   4.440   0.634
 2071TIP3    H1 6177   5.891   4.418   0.705
 2071TIP3    H2 6178   5.870   4.400   0.557
 2072TIP3   OH2 6179   0.849   5.936   1.132
 2072TIP3    H1 6180   0.862   5.918   1.039
 2072TIP3    H2 6181   0.937   5.936   1.169
 2073TIP3   OH2 6182   7.077   3.324   4.771
 2073TIP3    H1 6183   7.058   3.318   4.864
 2073TIP3    H2 6184   7.137   3.398   4.764
 2074TIP3   OH2 6185   1.484   2.345   2.850
 2074TIP3    H1 6186   1.447   2.264   2.884
 2074TIP3    H2 6187   1.569   2.320   2.814
 2075TIP3   OH2 6188   1.111   2.220   2.732
 2075TIP3    H1 6189   1.033   2.193   2.781
 2075TIP3    H2 6190   1.114   2.315   2.743
 2076TIP3   OH2 6191   0.828   1.946   3.639
 2076TIP3    H1 6192   0.740   1.911   3.651
 2076TIP3    H2 6193   0.872   1.929   3.722
 2077TIP3   OH2 6194   0.452   4.287   4.786
 2077TIP3    H1 6195   0.375   4.331   4.821
 2077TIP3    H2 6196   0.421   4.199   4.763
 2078TIP3   OH2 6197   6.777   2.240   3.314
 2078TIP3    H1 6198   6.817   2.318   3.275
 2078TIP3    H2 6199   6.735   2.195   3.241
 2079TIP3   OH2 6200   4.298   2.064   0.980
 2079TIP3    H1 6201   4.264   2.150   0.956
 2079TIP3    H2 6202   4.224   2.019   1.022
 2080TIP3   OH2 6203   1.666   0.096   5.170
 2080TIP3    H1 6204   1.719   0.026   5.132
 2080TIP3    H2 6205   1.608   0.051   5.232
 2081TIP3   OH2 6206   6.215   4.585   4.875
 2081TIP3    H1 6207   6.263   4.662   4.844
 2081TIP3    H2 6208   6.156   4.564   4.803
 2082TIP3   OH2 6209   6.825   5.387   5.937
 2082TIP3    H1 6210   6.799   5.331   5.865
 2082TIP3    H2 6211   6.849   5.470   5.895
 2083TIP3   OH2 6212   3.484   0.563   4.666
 2083TIP3    H1 6213   3.442   0.582   4.582
 2083TIP3    H2 6214   3.457   0.473   4.686
 2084TIP3   OH2 6215   4.925   4.388   3.885
 2084TIP3    H1 6216   4.998   4.349   3.838
 2084TIP3    H2 6217   4.848   4.339   3.856
 2085TIP3   OH2 6218   4.029   1.537   0.952
 2085TIP3    H1 6219   4.099   1.480   0.983
 2085TIP3    H2 6220   4.039   1.539   0.857
 2086TIP3   OH2 6221   0.705   6.072   5.727
 2086TIP3    H1 6222   0.678   6.097   5.816
 2086TIP3    H2 6223   0.637   6.109   5.670
 2087TIP3   OH2 6224   5.982   5.461   3.152
 2087TIP3    H1 6225   6.017   5.514   3.224
 2087TIP3    H2 6226   5.996   5.370   3.179
 2088TIP3   OH2 6227   0.569   2.860   3.916
 2088TIP3    H1 6228   0.512   2.784   3.910
 2088TIP3    H2 6229   0.626   2.842   3.991
 2089TIP3   OH2 6230   4.430   5.648   1.994
 2089TIP3    H1 6231   4.402   5.737   1.971
 2089TIP3    H2 6232   4.361   5.592   1.960
 2090TIP3   OH2 6233   0.496   1.504   4.974
 2090TIP3    H1 6234   0.556   1.578   4.984
 2090TIP3    H2 6235   0.481   1.499   4.879
 2091TIP3   OH2 6236   6.486   4.205   1.380
 2091TIP3    H1 6237   6.557   4.201   1.316
 2091TIP3    H2 6238   6.477   4.299   1.400
 2092TIP3   OH2 6239   4.218   1.382   1.081
 2092TIP3    H1 6240   4.142   1.327   1.100
 2092TIP3    H2 6241   4.293   1.329   1.107
 2093TIP3   OH2 6242   1.924   4.909   2.366
 2093TIP3    H1 6243   1.893   4.960   2.291
 2093TIP3    H2 6244   1.855   4.919   2.431
 2094TIP3   OH2 6245   5.545   5.042   1.041
 2094TIP3    H1 6246   5.452   5.051   1.062
 2094TIP3    H2 6247   5.547   4.986   0.964
 2095TIP3   OH2 6248   4.811   5.328   4.910
 2095TIP3    H1 6249   4.862   5.251   4.887
 2095TIP3    H2 6250   4.786   5.314   5.002
 2096TIP3   OH2 6251   3.816   6.123   5.340
 2096TIP3    H1 6252   3.847   6.163   5.259
 2096TIP3    H2 6253   3.764   6.048   5.311
 2097TIP3   OH2 6254   3.764   5.535   2.931
 2097TIP3    H1 6255   3.802   5.597   2.869
 2097TIP3    H2 6256   3.671   5.558   2.934
 2098TIP3   OH2 6257   5.956   6.487   5.033
 2098TIP3    H1 6258   6.030   6.526   5.080
 2098TIP3    H2 6259   5.903   6.446   5.101
 2099TIP3   OH2 6260   2.045   6.472   4.419
 2099TIP3    H1 6261   2.070   6.559   4.450
 2099TIP3    H2 6262   2.046   6.417   4.497
 2100TIP3   OH2 6263   3.659   5.331   3.436
 2100TIP3    H1 6264   3.740   5.381   3.443
 2100TIP3    H2 6265   3.650   5.287   3.521
 2101TIP3   OH2 6266   2.708   5.373   0.347
 2101TIP3    H1 6267   2.616   5.345   0.345
 2101TIP3    H2 6268   2.713   5.444   0.283
 2102TIP3   OH2 6269   6.092   3.687   3.756
 2102TIP3    H1 6270   6.110   3.599   3.723
 2102TIP3    H2 6271   6.028   3.674   3.826
 2103TIP3   OH2 6272   2.890   1.936   5.056
 2103TIP3    H1 6273   2.815   1.945   4.997
 2103TIP3    H2 6274   2.908   2.025   5.086
 2104TIP3   OH2 6275   4.694   5.827   1.876
 2104TIP3    H1 6276   4.712   5.805   1.967
 2104TIP3    H2 6277   4.744   5.908   1.861
 2105TIP3   OH2 6278   2.676   0.182   0.125
 2105TIP3    H1 6279   2.767   0.212   0.128
 2105TIP3    H2 6280   2.672   0.128   0.045
 2106TIP3   OH2 6281   1.757   2.671   5.292
 2106TIP3    H1 6282   1.757   2.659   5.197
 2106TIP3    H2 6283   1.667   2.649   5.319
 2107TIP3   OH2 6284   3.689   5.337   2.470
 2107TIP3    H1 6285   3.650   5.269   2.526
 2107TIP3    H2 6286   3.753   5.290   2.416
 2108TIP3   OH2 6287   3.090   3.492   0.566
 2108TIP3    H1 6288   3.052   3.443   0.639
 2108TIP3    H2 6289   3.043   3.575   0.567
 2109TIP3   OH2 6290   6.397   5.232   3.602
 2109TIP3    H1 6291   6.376   5.186   3.683
 2109TIP3    H2 6292   6.366   5.321   3.616
 2110TIP3   OH2 6293   3.908   0.788   5.821
 2110TIP3    H1 6294   3.918   0.794   5.916
 2110TIP3    H2 6295   3.977   0.845   5.786
 2111TIP3   OH2 6296   3.906   1.763   1.009
 2111TIP3    H1 6297   3.813   1.744   1.003
 2111TIP3    H2 6298   3.949   1.687   0.969
 2112TIP3   OH2 6299   1.068   5.500   3.980
 2112TIP3    H1 6300   1.153   5.491   4.021
 2112TIP3    H2 6301   1.074   5.580   3.928
 2113TIP3   OH2 6302   2.866   2.880   0.069
 2113TIP3    H1 6303   2.870   2.924   0.154
 2113TIP3    H2 6304   2.957   2.875   0.040
 2114TIP3   OH2 6305   6.035   1.970   3.390
 2114TIP3    H1 6306   6.078   2.043   3.436
 2114TIP3    H2 6307   6.070   1.892   3.431
 2115TIP3   OH2 6308   3.992   4.583   3.782
 2115TIP3    H1 6309   4.074   4.604   3.737
 2115TIP3    H2 6310   3.965   4.499   3.747
 2116TIP3   OH2 6311   1.571   4.592   1.715
 2116TIP3    H1 6312   1.637   4.553   1.658
 2116TIP3    H2 6313   1.497   4.610   1.657
 2117TIP3   OH2 6314   4.101   0.497   1.184
 2117TIP3    H1 6315   4.120   0.406   1.207
 2117TIP3    H2 6316   4.021   0.519   1.231
 2118TIP3   OH2 6317   0.365   5.222   5.310
 2118TIP3    H1 6318   0.336   5.132   5.296
 2118TIP3    H2 6319   0.304   5.275   5.260
 2119TIP3   OH2 6320   4.067   0.997   2.753
 2119TIP3    H1 6321   3.989   0.942   2.757
 2119TIP3    H2 6322   4.058   1.045   2.671
 2120TIP3   OH2 6323   1.558   5.912   4.234
 2120TIP3    H1 6324   1.579   5.961   4.154
 2120TIP3    H2 6325   1.615   5.950   4.301
 2121TIP3   OH2 6326   1.301   4.138   1.555
 2121TIP3    H1 6327   1.316   4.137   1.461
 2121TIP3    H2 6328   1.388   4.123   1.593
 2122TIP3   OH2 6329   3.818   2.434   1.871
 2122TIP3    H1 6330   3.759   2.509   1.878
 2122TIP3    H2 6331   3.831   2.405   1.961
 2123TIP3   OH2 6332   3.921   6.705   5.945
 2123TIP3    H1 6333   3.837   6.717   5.903
 2123TIP3    H2 6334   3.977   6.667   5.877
 2124TIP3   OH2 6335   5.695   2.074   0.176
 2124TIP3    H1 6336   5.774   2.032   0.142
 2124TIP3    H2 6337   5.687   2.155   0.126
 2125TIP3   OH2 6338   3.866   1.576   1.802
 2125TIP3    H1 6339   3.798   1.638   1.775
 2125TIP3    H2 6340   3.819   1.506   1.846
 2126TIP3   OH2 6341   5.377   5.799   4.585
 2126TIP3    H1 6342   5.347   5.755   4.665
 2126TIP3    H2 6343   5.314   5.869   4.571
 2127TIP3   OH2 6344   3.950   5.545   0.038
 2127TIP3    H1 6345   3.957   5.558   0.132
 2127TIP3    H2 6346   3.879   5.603   0.010
 2128TIP3   OH2 6347   1.800   2.130   1.114
 2128TIP3    H1 6348   1.839   2.212   1.082
 2128TIP3    H2 6349   1.841   2.116   1.199
 2129TIP3   OH2 6350   6.019   5.054   0.688
 2129TIP3    H1 6351   5.936   5.077   0.730
 2129TIP3    H2 6352   6.012   5.090   0.600
 2130TIP3   OH2 6353   1.410   6.132   1.121
 2130TIP3    H1 6354   1.356   6.101   1.047
 2130TIP3    H2 6355   1.374   6.218   1.142
 2131TIP3   OH2 6356   3.665   1.748   1.751
 2131TIP3    H1 6357   3.645   1.747   1.657
 2131TIP3    H2 6358   3.665   1.841   1.774
 2132TIP3   OH2 6359   3.176   1.280   1.947
 2132TIP3    H1 6360   3.192   1.373   1.930
 2132TIP3    H2 6361   3.243   1.235   1.896
 2133TIP3   OH2 6362   4.705   0.276   5.528
 2133TIP3    H1 6363   4.742   0.343   5.586
 2133TIP3    H2 6364   4.718   0.310   5.440
 2134TIP3   OH2 6365   4.236   2.677   0.360
 2134TIP3    H1 6366   4.164   2.677   0.424
 2134TIP3    H2 6367   4.208   2.739   0.293
 2135TIP3   OH2 6368   0.373   1.359   1.753
 2135TIP3    H1 6369   0.377   1.265   1.739
 2135TIP3    H2 6370   0.462   1.383   1.779
 2136TIP3   OH2 6371   4.705   0.450   2.791
 2136TIP3    H1 6372   4.714   0.388   2.718
 2136TIP3    H2 6373   4.755   0.527   2.762
 2137TIP3   OH2 6374   5.272   2.911   3.313
 2137TIP3    H1 6375   5.345   2.899   3.252
 2137TIP3    H2 6376   5.202   2.856   3.278
 2138TIP3   OH2 6377   5.053   1.401   0.037
 2138TIP3    H1 6378   5.001   1.366  -0.035
 2138TIP3    H2 6379   5.140   1.362   0.026
 2139TIP3   OH2 6380   3.886   1.846   0.538
 2139TIP3    H1 6381   3.893   1.761   0.581
 2139TIP3    H2 6382   3.825   1.896   0.592
 2140TIP3   OH2 6383   2.945   3.191   5.676
 2140TIP3    H1 6384   2.864   3.177   5.626
 2140TIP3    H2 6385   3.011   3.212   5.611
 2141TIP3   OH2 6386   4.924   3.614   1.469
 2141TIP3    H1 6387   4.911   3.542   1.407
 2141TIP3    H2 6388   4.891   3.580   1.552
 2142TIP3   OH2 6389   1.083   0.408   4.820
 2142TIP3    H1 6390   1.054   0.325   4.782
 2142TIP3    H2 6391   1.146   0.382   4.888
 2143TIP3   OH2 6392   5.009   4.294   4.933
 2143TIP3    H1 6393   4.938   4.277   4.870
 2143TIP3    H2 6394   4.968   4.282   5.018
 2144TIP3   OH2 6395   1.320   2.663   1.069
 2144TIP3    H1 6396   1.349   2.586   1.118
 2144TIP3    H2 6397   1.361   2.654   0.983
 2145TIP3   OH2 6398   0.272   3.857   1.007
 2145TIP3    H1 6399   0.328   3.795   0.962
 2145TIP3    H2 6400   0.323   3.886   1.083
 2146TIP3   OH2 6401   3.483   2.906   0.782
 2146TIP3    H1 6402   3.498   2.822   0.739
 2146TIP3    H2 6403   3.518   2.971   0.721
 2147TIP3   OH2 6404   2.307   1.433   0.299
 2147TIP3    H1 6405   2.290   1.497   0.230
 2147TIP3    H2 6406   2.263   1.468   0.376
 2148TIP3   OH2 6407   5.207   4.845   2.535
 2148TIP3    H1 6408   5.117   4.814   2.531
 2148TIP3    H2 6409   5.218   4.872   2.626
 2149TIP3   OH2 6410   4.835   2.802   5.583
 2149TIP3    H1 6411   4.805   2.768   5.667
 2149TIP3    H2 6412   4.898   2.738   5.552
 2150TIP3   OH2 6413   2.098   4.889   3.835
 2150TIP3    H1 6414   2.171   4.924   3.783
 2150TIP3    H2 6415   2.116   4.796   3.841
 2151TIP3   OH2 6416   4.676   4.282   3.285
 2151TIP3    H1 6417   4.718   4.338   3.220
 2151TIP3    H2 6418   4.694   4.326   3.369
 2152TIP3   OH2 6419   4.875   0.541   1.186
 2152TIP3    H1 6420   4.965   0.564   1.162
 2152TIP3    H2 6421   4.861   0.585   1.270
 2153TIP3   OH2 6422   2.089   0.932   2.155
 2153TIP3    H1 6423   2.143   0.932   2.234
 2153TIP3    H2 6424   2.143   0.975   2.088
 2154TIP3   OH2 6425   4.351   5.269   5.346
 2154TIP3    H1 6426   4.438   5.304   5.365
 2154TIP3    H2 6427   4.333   5.298   5.256
 2155TIP3   OH2 6428   3.328   5.493   3.046
 2155TIP3    H1 6429   3.384   5.521   3.118
 2155TIP3    H2 6430   3.377   5.515   2.967
 2156TIP3   OH2 6431   6.656   1.301   4.480
 2156TIP3    H1 6432   6.722   1.278   4.415
 2156TIP3    H2 6433   6.691   1.268   4.562
 2157TIP3   OH2 6434   4.687   4.879   5.093
 2157TIP3    H1 6435   4.653   4.796   5.059
 2157TIP3    H2 6436   4.610   4.925   5.125
 2158TIP3   OH2 6437   0.918   0.241   2.517
 2158TIP3    H1 6438   0.842   0.183   2.519
 2158TIP3    H2 6439   0.890   0.319   2.565
 2159TIP3   OH2 6440   3.025   1.568   4.306
 2159TIP3    H1 6441   3.043   1.625   4.231
 2159TIP3    H2 6442   2.939   1.596   4.338
 2160TIP3   OH2 6443   0.869   1.341   4.404
 2160TIP3    H1 6444   0.816   1.419   4.388
 2160TIP3    H2 6445   0.850   1.318   4.495
 2161TIP3   OH2 6446   1.986   0.819   0.320
 2161TIP3    H1 6447   1.908   0.832   0.266
 2161TIP3    H2 6448   2.049   0.882   0.285
 2162TIP3   OH2 6449   3.067   4.285   5.291
 2162TIP3    H1 6450   3.099   4.366   5.251
 2162TIP3    H2 6451   3.101   4.215   5.236
 2163TIP3   OH2 6452   5.003   5.613   1.972
 2163TIP3    H1 6453   4.967   5.532   1.937
 2163TIP3    H2 6454   5.082   5.586   2.019
 2164TIP3   OH2 6455   1.686   0.139   0.989
 2164TIP3    H1 6456   1.774   0.174   0.999
 2164TIP3    H2 6457   1.664   0.104   1.075
 2165TIP3   OH2 6458   5.936   4.157   5.403
 2165TIP3    H1 6459   5.858   4.206   5.380
 2165TIP3    H2 6460   5.904   4.070   5.426
 2166TIP3   OH2 6461   4.481   2.854   0.954
 2166TIP3    H1 6462   4.420   2.796   0.999
 2166TIP3    H2 6463   4.426   2.917   0.908
 2167TIP3   OH2 6464   4.867   3.265   0.118
 2167TIP3    H1 6465   4.784   3.312   0.114
 2167TIP3    H2 6466   4.853   3.197   0.184
 2168TIP3   OH2 6467   4.403   0.788   1.452
 2168TIP3    H1 6468   4.445   0.864   1.413
 2168TIP3    H2 6469   4.428   0.715   1.396
 2169TIP3   OH2 6470   4.512   4.172   0.504
 2169TIP3    H1 6471   4.595   4.181   0.550
 2169TIP3    H2 6472   4.521   4.230   0.428
 2170TIP3   OH2 6473   0.974   3.276   0.392
 2170TIP3    H1 6474   0.903   3.214   0.409
 2170TIP3    H2 6475   0.962   3.345   0.458
 2171TIP3   OH2 6476   3.246   1.204   5.638
 2171TIP3    H1 6477   3.165   1.199   5.586
 2171TIP3    H2 6478   3.290   1.121   5.622
 2172TIP3   OH2 6479   4.473   2.721   4.424
 2172TIP3    H1 6480   4.523   2.663   4.367
 2172TIP3    H2 6481   4.539   2.775   4.468
 2173TIP3   OH2 6482   5.809   1.221   0.374
 2173TIP3    H1 6483   5.834   1.151   0.435
 2173TIP3    H2 6484   5.767   1.287   0.429
 2174TIP3   OH2 6485   0.835   5.939   2.509
 2174TIP3    H1 6486   0.916   5.890   2.524
 2174TIP3    H2 6487   0.807   5.967   2.596
 2175TIP3   OH2 6488   1.410   0.816   3.080
 2175TIP3    H1 6489   1.335   0.757   3.079
 2175TIP3    H2 6490   1.372   0.903   3.082
 2176TIP3   OH2 6491   2.197   1.699   5.410
 2176TIP3    H1 6492   2.227   1.620   5.364
 2176TIP3    H2 6493   2.123   1.669   5.463
 2177TIP3   OH2 6494   5.170   2.256   0.099
 2177TIP3    H1 6495   5.199   2.259   0.190
 2177TIP3    H2 6496   5.171   2.163   0.077
 2178TIP3   OH2 6497   4.474   5.158   2.606
 2178TIP3    H1 6498   4.510   5.247   2.604
 2178TIP3    H2 6499   4.550   5.102   2.623
 2179TIP3   OH2 6500   3.324   1.498   5.611
 2179TIP3    H1 6501   3.297   1.569   5.553
 2179TIP3    H2 6502   3.250   1.437   5.610
 2180TIP3   OH2 6503   2.505   2.764   4.569
 2180TIP3    H1 6504   2.458   2.690   4.532
 2180TIP3    H2 6505   2.528   2.818   4.494
 2181TIP3   OH2 6506   3.013   5.329   0.683
 2181TIP3    H1 6507   3.061   5.263   0.733
 2181TIP3    H2 6508   3.000   5.290   0.597
 2182TIP3   OH2 6509   4.340   1.588   5.238
 2182TIP3    H1 6510   4.367   1.664   5.187
 2182TIP3    H2 6511   4.422   1.553   5.275
 2183TIP3   OH2 6512   1.728   3.440   3.369
 2183TIP3    H1 6513   1.635   3.462   3.367
 2183TIP3    H2 6514   1.736   3.369   3.306
 2184TIP3   OH2 6515   2.711   4.945   4.382
 2184TIP3    H1 6516   2.658   5.002   4.437
 2184TIP3    H2 6517   2.775   4.907   4.442
 2185TIP3   OH2 6518   2.204   2.335   3.984
 2185TIP3    H1 6519   2.205   2.273   3.911
 2185TIP3    H2 6520   2.190   2.281   4.062
 2186TIP3   OH2 6521   6.936   3.838   2.396
 2186TIP3    H1 6522   6.842   3.830   2.413
 2186TIP3    H2 6523   6.966   3.902   2.460
 2187TIP3   OH2 6524   3.628   3.126   2.485
 2187TIP3    H1 6525   3.629   3.139   2.580
 2187TIP3    H2 6526   3.717   3.146   2.457
 2188TIP3   OH2 6527   3.260   5.586   4.591
 2188TIP3    H1 6528   3.262   5.536   4.509
 2188TIP3    H2 6529   3.211   5.665   4.570
 2189TIP3   OH2 6530   1.343   2.274   5.626
 2189TIP3    H1 6531   1.271   2.325   5.588
 2189TIP3    H2 6532   1.348   2.304   5.717
 2190TIP3   OH2 6533   6.691   5.191   3.432
 2190TIP3    H1 6534   6.612   5.138   3.447
 2190TIP3    H2 6535   6.685   5.217   3.340
 2191TIP3   OH2 6536   1.062   6.559   2.804
 2191TIP3    H1 6537   1.025   6.518   2.882
 2191TIP3    H2 6538   1.115   6.491   2.764
 2192TIP3   OH2 6539   0.823   0.756   2.702
 2192TIP3    H1 6540   0.913   0.745   2.732
 2192TIP3    H2 6541   0.826   0.832   2.644
 2193TIP3   OH2 6542   6.677   0.404   0.033
 2193TIP3    H1 6543   6.674   0.360   0.117
 2193TIP3    H2 6544   6.594   0.451   0.027
 2194TIP3   OH2 6545   3.811   6.383   5.175
 2194TIP3    H1 6546   3.815   6.430   5.258
 2194TIP3    H2 6547   3.865   6.435   5.115
 2195TIP3   OH2 6548   0.002   2.113   3.806
 2195TIP3    H1 6549   0.049   2.112   3.889
 2195TIP3    H2 6550   0.048   2.178   3.753
 2196TIP3   OH2 6551   5.622   1.589   3.756
 2196TIP3    H1 6552   5.685   1.596   3.683
 2196TIP3    H2 6553   5.614   1.494   3.771
 2197TIP3   OH2 6554   4.915   0.421   3.712
 2197TIP3    H1 6555   4.874   0.436   3.627
 2197TIP3    H2 6556   4.978   0.351   3.696
 2198TIP3   OH2 6557   6.134   4.529   2.126
 2198TIP3    H1 6558   6.078   4.606   2.116
 2198TIP3    H2 6559   6.093   4.461   2.073
 2199TIP3   OH2 6560   0.725   1.723   5.005
 2199TIP3    H1 6561   0.697   1.688   5.090
 2199TIP3    H2 6562   0.647   1.763   4.968
 2200TIP3   OH2 6563   0.543   1.801   4.793
 2200TIP3    H1 6564   0.457   1.844   4.795
 2200TIP3    H2 6565   0.583   1.832   4.711
 2201TIP3   OH2 6566   1.034   4.228   3.794
 2201TIP3    H1 6567   1.000   4.180   3.719
 2201TIP3    H2 6568   1.119   4.260   3.765
 2202TIP3   OH2 6569   2.228   2.290   5.810
 2202TIP3    H1 6570   2.174   2.368   5.820
 2202TIP3    H2 6571   2.209   2.259   5.721
 2203TIP3   OH2 6572   3.609   5.199   1.960
 2203TIP3    H1 6573   3.640   5.174   1.872
 2203TIP3    H2 6574   3.675   5.261   1.991
 2204TIP3   OH2 6575   6.013   1.020   3.450
 2204TIP3    H1 6576   6.023   1.100   3.503
 2204TIP3    H2 6577   5.921   0.994   3.463
 2205TIP3   OH2 6578   3.410   3.906   0.577
 2205TIP3    H1 6579   3.401   3.846   0.503
 2205TIP3    H2 6580   3.324   3.947   0.585
 2206TIP3   OH2 6581   0.376   6.616   2.897
 2206TIP3    H1 6582   0.328   6.689   2.860
 2206TIP3    H2 6583   0.402   6.645   2.984
 2207TIP3   OH2 6584   0.041   0.863   1.252
 2207TIP3    H1 6585   0.108   0.823   1.307
 2207TIP3    H2 6586   0.024   0.948   1.292
 2208TIP3   OH2 6587   5.042   6.051   2.590
 2208TIP3    H1 6588   5.025   6.123   2.651
 2208TIP3    H2 6589   5.127   6.073   2.551
 2209TIP3   OH2 6590   3.707   0.728   2.535
 2209TIP3    H1 6591   3.678   0.644   2.572
 2209TIP3    H2 6592   3.655   0.793   2.581
 2210TIP3   OH2 6593   5.092   4.511   2.698
 2210TIP3    H1 6594   5.165   4.471   2.745
 2210TIP3    H2 6595   5.086   4.599   2.734
 2211TIP3   OH2 6596   3.556   5.140   4.005
 2211TIP3    H1 6597   3.647   5.167   3.993
 2211TIP3    H2 6598   3.518   5.209   4.060
 2212TIP3   OH2 6599   2.264   4.260   4.344
 2212TIP3    H1 6600   2.212   4.214   4.278
 2212TIP3    H2 6601   2.352   4.224   4.335
 2213TIP3   OH2 6602   0.333   1.430   3.205
 2213TIP3    H1 6603   0.283   1.468   3.277
 2213TIP3    H2 6604   0.321   1.492   3.133
 2214TIP3   OH2 6605   6.634   6.333   3.841
 2214TIP3    H1 6606   6.668   6.347   3.929
 2214TIP3    H2 6607   6.588   6.414   3.819
 2215TIP3   OH2 6608   0.352   6.421   0.545
 2215TIP3    H1 6609   0.264   6.387   0.562
 2215TIP3    H2 6610   0.396   6.417   0.630
 2216TIP3   OH2 6611   6.440   0.385   5.460
 2216TIP3    H1 6612   6.438   0.429   5.545
 2216TIP3    H2 6613   6.364   0.326   5.462
 2217TIP3   OH2 6614   0.284   6.494   0.971
 2217TIP3    H1 6615   0.327   6.563   0.921
 2217TIP3    H2 6616   0.259   6.535   1.053
 2218TIP3   OH2 6617   5.328   3.398   3.307
 2218TIP3    H1 6618   5.250   3.349   3.282
 2218TIP3    H2 6619   5.397   3.332   3.311
 2219TIP3   OH2 6620   2.866   1.798   3.520
 2219TIP3    H1 6621   2.954   1.765   3.538
 2219TIP3    H2 6622   2.814   1.719   3.501
 2220TIP3   OH2 6623   3.617   2.133   0.450
 2220TIP3    H1 6624   3.560   2.094   0.384
 2220TIP3    H2 6625   3.705   2.128   0.412
 2221TIP3   OH2 6626   4.713   2.904   3.537
 2221TIP3    H1 6627   4.639   2.890   3.597
 2221TIP3    H2 6628   4.706   2.833   3.473
 2222TIP3   OH2 6629   0.071   6.451   5.282
 2222TIP3    H1 6630   0.030   6.450   5.368
 2222TIP3    H2 6631   0.147   6.509   5.292
 2223TIP3   OH2 6632   3.678   4.107   3.896
 2223TIP3    H1 6633   3.637   4.088   3.980
 2223TIP3    H2 6634   3.611   4.155   3.847
 2224TIP3   OH2 6635   2.950   2.138   1.327
 2224TIP3    H1 6636   3.004   2.187   1.390
 2224TIP3    H2 6637   2.925   2.058   1.374
 2225TIP3   OH2 6638   6.362   4.724   2.767
 2225TIP3    H1 6639   6.403   4.685   2.844
 2225TIP3    H2 6640   6.434   4.765   2.720
 2226TIP3   OH2 6641   5.234   6.031   2.389
 2226TIP3    H1 6642   5.301   5.990   2.443
 2226TIP3    H2 6643   5.279   6.103   2.344
 2227TIP3   OH2 6644   4.489   6.654   3.611
 2227TIP3    H1 6645   4.484   6.696   3.697
 2227TIP3    H2 6646   4.466   6.563   3.627
 2228TIP3   OH2 6647   1.760   0.167   4.490
 2228TIP3    H1 6648   1.716   0.106   4.432
 2228TIP3    H2 6649   1.696   0.186   4.559
 2229TIP3   OH2 6650   4.206   5.323   2.458
 2229TIP3    H1 6651   4.282   5.266   2.444
 2229TIP3    H2 6652   4.140   5.265   2.497
 2230TIP3   OH2 6653   2.908   5.317   3.265
 2230TIP3    H1 6654   2.895   5.273   3.349
 2230TIP3    H2 6655   3.000   5.344   3.267
 2231TIP3   OH2 6656   4.817   4.246   2.005
 2231TIP3    H1 6657   4.866   4.165   1.992
 2231TIP3    H2 6658   4.728   4.225   1.977
 2232TIP3   OH2 6659   4.383   6.808   2.150
 2232TIP3    H1 6660   4.327   6.762   2.212
 2232TIP3    H2 6661   4.422   6.738   2.097
 2233TIP3   OH2 6662   1.836   3.670   0.129
 2233TIP3    H1 6663   1.900   3.677   0.058
 2233TIP3    H2 6664   1.889   3.671   0.209
 2234TIP3   OH2 6665   6.220   2.483   1.350
 2234TIP3    H1 6666   6.277   2.549   1.309
 2234TIP3    H2 6667   6.166   2.533   1.411
 2235TIP3   OH2 6668   2.136   2.147   2.151
 2235TIP3    H1 6669   2.127   2.075   2.214
 2235TIP3    H2 6670   2.230   2.164   2.149
 2236TIP3   OH2 6671   2.358   6.128   3.789
 2236TIP3    H1 6672   2.372   6.042   3.750
 2236TIP3    H2 6673   2.265   6.129   3.812
 2237TIP3   OH2 6674   4.134   3.314   2.566
 2237TIP3    H1 6675   4.198   3.362   2.513
 2237TIP3    H2 6676   4.182   3.239   2.600
 2238TIP3   OH2 6677   1.156   1.196   5.022
 2238TIP3    H1 6678   1.222   1.258   5.054
 2238TIP3    H2 6679   1.178   1.114   5.066
 2239TIP3   OH2 6680   0.082   2.489   5.201
 2239TIP3    H1 6681   0.154   2.486   5.139
 2239TIP3    H2 6682   0.055   2.398   5.212
 2240TIP3   OH2 6683   6.547   5.395   4.345
 2240TIP3    H1 6684   6.613   5.332   4.375
 2240TIP3    H2 6685   6.469   5.342   4.327
 2241TIP3   OH2 6686   4.331   0.847   5.871
 2241TIP3    H1 6687   4.425   0.858   5.859
 2241TIP3    H2 6688   4.322   0.803   5.956
 2242TIP3   OH2 6689   3.269   2.968   1.367
 2242TIP3    H1 6690   3.265   2.873   1.378
 2242TIP3    H2 6691   3.188   2.990   1.321
 2243TIP3   OH2 6692   4.738   0.436   0.864
 2243TIP3    H1 6693   4.798   0.509   0.849
 2243TIP3    H2 6694   4.715   0.406   0.776
 2244TIP3   OH2 6695   5.991   3.509   4.452
 2244TIP3    H1 6696   5.983   3.597   4.416
 2244TIP3    H2 6697   5.970   3.518   4.544
 2245TIP3   OH2 6698   6.590   6.133   1.171
 2245TIP3    H1 6699   6.524   6.190   1.132
 2245TIP3    H2 6700   6.540   6.057   1.201
 2246TIP3   OH2 6701   2.873   5.356   1.315
 2246TIP3    H1 6702   2.789   5.331   1.354
 2246TIP3    H2 6703   2.935   5.292   1.349
 2247TIP3   OH2 6704   3.654   4.175   3.117
 2247TIP3    H1 6705   3.586   4.241   3.101
 2247TIP3    H2 6706   3.727   4.225   3.153
 2248TIP3   OH2 6707   2.378   0.170   0.114
 2248TIP3    H1 6708   2.474   0.173   0.112
 2248TIP3    H2 6709   2.353   0.258   0.142
 2249TIP3   OH2 6710   2.176   1.498   5.750
 2249TIP3    H1 6711   2.270   1.497   5.730
 2249TIP3    H2 6712   2.173   1.510   5.845
 2250TIP3   OH2 6713   4.669   3.437   2.973
 2250TIP3    H1 6714   4.698   3.518   3.013
 2250TIP3    H2 6715   4.613   3.465   2.900
 2251TIP3   OH2 6716   2.905   6.137   5.882
 2251TIP3    H1 6717   2.948   6.114   5.800
 2251TIP3    H2 6718   2.977   6.153   5.943
 2252TIP3   OH2 6719   6.312   0.853   5.453
 2252TIP3    H1 6720   6.287   0.792   5.384
 2252TIP3    H2 6721   6.353   0.926   5.406
 2253TIP3   OH2 6722   1.676   1.466   0.188
 2253TIP3    H1 6723   1.672   1.555   0.222
 2253TIP3    H2 6724   1.683   1.411   0.266
 2254TIP3   OH2 6725   2.763   3.807   4.370
 2254TIP3    H1 6726   2.848   3.784   4.331
 2254TIP3    H2 6727   2.699   3.768   4.311
 2255TIP3   OH2 6728   6.796   2.386   3.581
 2255TIP3    H1 6729   6.815   2.363   3.490
 2255TIP3    H2 6730   6.711   2.429   3.578
 2256TIP3   OH2 6731   4.439   2.688   3.070
 2256TIP3    H1 6732   4.417   2.763   3.014
 2256TIP3    H2 6733   4.366   2.682   3.132
 2257TIP3   OH2 6734   4.564   2.822   4.066
 2257TIP3    H1 6735   4.481   2.863   4.091
 2257TIP3    H2 6736   4.631   2.871   4.112
 2258TIP3   OH2 6737   5.233   0.801   2.465
 2258TIP3    H1 6738   5.286   0.778   2.541
 2258TIP3    H2 6739   5.208   0.717   2.427
 2259TIP3   OH2 6740   3.050   3.885   2.934
 2259TIP3    H1 6741   2.982   3.888   3.001
 2259TIP3    H2 6742   3.003   3.893   2.851
 2260TIP3   OH2 6743   2.671   1.440   4.358
 2260TIP3    H1 6744   2.581   1.441   4.391
 2260TIP3    H2 6745   2.711   1.518   4.396
 2261TIP3   OH2 6746   0.400   4.611   2.349
 2261TIP3    H1 6747   0.481   4.562   2.332
 2261TIP3    H2 6748   0.416   4.656   2.432
 2262TIP3   OH2 6749   2.176   1.004   0.219
 2262TIP3    H1 6750   2.179   1.087   0.171
 2262TIP3    H2 6751   2.249   1.010   0.281
 2263TIP3   OH2 6752   1.806   3.398   2.335
 2263TIP3    H1 6753   1.724   3.410   2.382
 2263TIP3    H2 6754   1.784   3.422   2.244
 2264TIP3   OH2 6755   2.163   1.560   0.478
 2264TIP3    H1 6756   2.110   1.504   0.534
 2264TIP3    H2 6757   2.154   1.647   0.517
 2265TIP3   OH2 6758   5.046   2.146   4.762
 2265TIP3    H1 6759   5.057   2.054   4.740
 2265TIP3    H2 6760   4.955   2.152   4.792
 2266TIP3   OH2 6761   5.512   5.854   5.733
 2266TIP3    H1 6762   5.580   5.884   5.794
 2266TIP3    H2 6763   5.527   5.905   5.654
 2267TIP3   OH2 6764   2.335   2.563   0.197
 2267TIP3    H1 6765   2.274   2.619   0.245
 2267TIP3    H2 6766   2.285   2.485   0.176
 2268TIP3   OH2 6767   5.555   6.715   2.965
 2268TIP3    H1 6768   5.517   6.633   2.999
 2268TIP3    H2 6769   5.648   6.695   2.952
 2269TIP3   OH2 6770   5.320   5.016   4.908
 2269TIP3    H1 6771   5.327   5.060   4.824
 2269TIP3    H2 6772   5.393   4.954   4.909
 2270TIP3   OH2 6773   3.221   4.814   5.580
 2270TIP3    H1 6774   3.283   4.858   5.522
 2270TIP3    H2 6775   3.243   4.721   5.573
 2271TIP3   OH2 6776   0.661   6.513   2.529
 2271TIP3    H1 6777   0.708   6.569   2.468
 2271TIP3    H2 6778   0.612   6.453   2.473
 2272TIP3   OH2 6779   3.800   1.815   1.440
 2272TIP3    H1 6780   3.721   1.832   1.389
 2272TIP3    H2 6781   3.847   1.899   1.440
 2273TIP3   OH2 6782   3.938   4.690   0.420
 2273TIP3    H1 6783   4.033   4.700   0.408
 2273TIP3    H2 6784   3.904   4.780   0.419
 2274TIP3   OH2 6785   1.554   3.201   1.566
 2274TIP3    H1 6786   1.584   3.261   1.497
 2274TIP3    H2 6787   1.624   3.201   1.631
 2275TIP3   OH2 6788   0.568   0.097   1.624
 2275TIP3    H1 6789   0.496   0.045   1.590
 2275TIP3    H2 6790   0.582   0.064   1.713
 2276TIP3   OH2 6791   3.882   5.836   3.865
 2276TIP3    H1 6792   3.831   5.913   3.841
 2276TIP3    H2 6793   3.957   5.872   3.913
 2277TIP3   OH2 6794   6.173   1.459   0.437
 2277TIP3    H1 6795   6.217   1.543   0.445
 2277TIP3    H2 6796   6.089   1.480   0.396
 2278TIP3   OH2 6797   6.300   5.268   4.214
 2278TIP3    H1 6798   6.333   5.185   4.179
 2278TIP3    H2 6799   6.310   5.331   4.142
 2279TIP3   OH2 6800   3.965   0.122   4.736
 2279TIP3    H1 6801   3.932   0.076   4.813
 2279TIP3    H2 6802   4.058   0.135   4.754
 2280TIP3   OH2 6803   0.286   0.148   0.334
 2280TIP3    H1 6804   0.240   0.073   0.297
 2280TIP3    H2 6805   0.276   0.217   0.267
 2281TIP3   OH2 6806   0.710   0.967   3.213
 2281TIP3    H1 6807   0.752   1.052   3.201
 2281TIP3    H2 6808   0.755   0.928   3.288
 2282TIP3   OH2 6809   7.114   1.674   1.453
 2282TIP3    H1 6810   7.073   1.702   1.371
 2282TIP3    H2 6811   7.175   1.605   1.426
 2283TIP3   OH2 6812   4.737   5.898   4.864
 2283TIP3    H1 6813   4.722   5.821   4.918
 2283TIP3    H2 6814   4.741   5.971   4.926
 2284TIP3   OH2 6815   1.707   4.981   0.719
 2284TIP3    H1 6816   1.708   5.063   0.669
 2284TIP3    H2 6817   1.616   4.969   0.744
 2285TIP3   OH2 6818   4.634   1.396   1.973
 2285TIP3    H1 6819   4.593   1.482   1.975
 2285TIP3    H2 6820   4.564   1.336   1.947
 2286TIP3   OH2 6821   6.181   1.275   2.086
 2286TIP3    H1 6822   6.224   1.297   2.169
 2286TIP3    H2 6823   6.251   1.237   2.033
 2287TIP3   OH2 6824   2.758   4.983   2.851
 2287TIP3    H1 6825   2.733   4.987   2.759
 2287TIP3    H2 6826   2.785   5.073   2.873
 2288TIP3   OH2 6827   3.421   0.904   4.317
 2288TIP3    H1 6828   3.413   0.999   4.315
 2288TIP3    H2 6829   3.394   0.875   4.230
 2289TIP3   OH2 6830   0.369   4.560   1.615
 2289TIP3    H1 6831   0.328   4.496   1.674
 2289TIP3    H2 6832   0.420   4.506   1.554
 2290TIP3   OH2 6833   1.909   1.274   0.590
 2290TIP3    H1 6834   1.845   1.276   0.518
 2290TIP3    H2 6835   1.966   1.200   0.569
 2291TIP3   OH2 6836   3.083   3.839   3.755
 2291TIP3    H1 6837   3.117   3.759   3.714
 2291TIP3    H2 6838   3.015   3.809   3.814
 2292TIP3   OH2 6839   3.807   1.072   4.183
 2292TIP3    H1 6840   3.861   1.126   4.240
 2292TIP3    H2 6841   3.779   0.999   4.238
 2293TIP3   OH2 6842   5.455   1.144   5.305
 2293TIP3    H1 6843   5.485   1.121   5.393
 2293TIP3    H2 6844   5.389   1.078   5.285
 2294TIP3   OH2 6845   5.852   5.358   3.885
 2294TIP3    H1 6846   5.827   5.438   3.839
 2294TIP3    H2 6847   5.806   5.363   3.969
 2295TIP3   OH2 6848   3.165   3.225   3.772
 2295TIP3    H1 6849   3.104   3.267   3.711
 2295TIP3    H2 6850   3.112   3.209   3.850
 2296TIP3   OH2 6851   1.048   0.331   0.950
 2296TIP3    H1 6852   1.077   0.246   0.916
 2296TIP3    H2 6853   0.995   0.309   1.027
 2297TIP3   OH2 6854   4.368   5.538   1.344
 2297TIP3    H1 6855   4.347   5.475   1.275
 2297TIP3    H2 6856   4.292   5.536   1.402
 2298TIP3   OH2 6857   5.097   0.693   4.486
 2298TIP3    H1 6858   5.076   0.694   4.393
 2298TIP3    H2 6859   5.174   0.637   4.494
 2299TIP3   OH2 6860   6.162   2.626   3.960
 2299TIP3    H1 6861   6.096   2.568   3.922
 2299TIP3    H2 6862   6.166   2.601   4.052
 2300TIP3   OH2 6863   3.456   5.505   3.325
 2300TIP3    H1 6864   3.538   5.461   3.300
 2300TIP3    H2 6865   3.414   5.443   3.385
 2301TIP3   OH2 6866   1.038   3.117   2.404
 2301TIP3    H1 6867   0.953   3.127   2.362
 2301TIP3    H2 6868   1.017   3.084   2.492
 2302TIP3   OH2 6869   1.194   0.151   2.265
 2302TIP3    H1 6870   1.175   0.203   2.187
 2302TIP3    H2 6871   1.108   0.120   2.294
 2303TIP3   OH2 6872   1.558   4.161   2.512
 2303TIP3    H1 6873   1.520   4.248   2.510
 2303TIP3    H2 6874   1.534   4.122   2.428
 2304TIP3   OH2 6875   5.031   2.495   4.182
 2304TIP3    H1 6876   5.060   2.463   4.096
 2304TIP3    H2 6877   4.952   2.444   4.200
 2305TIP3   OH2 6878   5.423   6.568   3.356
 2305TIP3    H1 6879   5.508   6.602   3.387
 2305TIP3    H2 6880   5.366   6.645   3.355
 2306TIP3   OH2 6881   5.683   1.955   2.553
 2306TIP3    H1 6882   5.684   1.939   2.647
 2306TIP3    H2 6883   5.640   1.878   2.517
 2307TIP3   OH2 6884   1.300   3.782   4.904
 2307TIP3    H1 6885   1.222   3.794   4.850
 2307TIP3    H2 6886   1.269   3.732   4.980
 2308TIP3   OH2 6887   5.385   2.019   0.564
 2308TIP3    H1 6888   5.457   2.022   0.502
 2308TIP3    H2 6889   5.307   2.033   0.511
 2309TIP3   OH2 6890   3.489   3.834   4.976
 2309TIP3    H1 6891   3.542   3.857   4.900
 2309TIP3    H2 6892   3.538   3.869   5.051
 2310TIP3   OH2 6893   1.805   0.803   3.199
 2310TIP3    H1 6894   1.850   0.865   3.256
 2310TIP3    H2 6895   1.724   0.781   3.246
 2311TIP3   OH2 6896   2.906   6.373   3.427
 2311TIP3    H1 6897   2.947   6.432   3.490
 2311TIP3    H2 6898   2.934   6.406   3.341
 2312TIP3   OH2 6899   3.388   0.432   0.307
 2312TIP3    H1 6900   3.403   0.433   0.213
 2312TIP3    H2 6901   3.470   0.397   0.344
 2313TIP3   OH2 6902   6.531   1.248   2.952
 2313TIP3    H1 6903   6.578   1.262   3.034
 2313TIP3    H2 6904   6.520   1.153   2.947
 2314TIP3   OH2 6905   2.582   6.327   1.416
 2314TIP3    H1 6906   2.611   6.237   1.400
 2314TIP3    H2 6907   2.653   6.381   1.381
 2315TIP3   OH2 6908   6.414   3.174   4.354
 2315TIP3    H1 6909   6.328   3.207   4.328
 2315TIP3    H2 6910   6.464   3.253   4.375
 2316TIP3   OH2 6911   2.666   3.395   1.902
 2316TIP3    H1 6912   2.600   3.460   1.928
 2316TIP3    H2 6913   2.615   3.322   1.867
 2317TIP3   OH2 6914   6.032   6.785   4.647
 2317TIP3    H1 6915   6.014   6.699   4.608
 2317TIP3    H2 6916   6.082   6.832   4.581
 2318TIP3   OH2 6917   4.776   4.548   2.679
 2318TIP3    H1 6918   4.869   4.554   2.702
 2318TIP3    H2 6919   4.770   4.470   2.625
 2319TIP3   OH2 6920   3.869   1.314   3.103
 2319TIP3    H1 6921   3.801   1.382   3.098
 2319TIP3    H2 6922   3.948   1.356   3.070
 2320TIP3   OH2 6923   0.971   4.625   3.835
 2320TIP3    H1 6924   0.962   4.545   3.886
 2320TIP3    H2 6925   1.021   4.684   3.891
 2321TIP3   OH2 6926   7.258   4.374   2.151
 2321TIP3    H1 6927   7.187   4.336   2.203
 2321TIP3    H2 6928   7.213   4.409   2.074
 2322TIP3   OH2 6929   0.677   4.658   4.521
 2322TIP3    H1 6930   0.662   4.725   4.455
 2322TIP3    H2 6931   0.725   4.589   4.474
 2323TIP3   OH2 6932   0.298   2.737   5.191
 2323TIP3    H1 6933   0.325   2.701   5.275
 2323TIP3    H2 6934   0.284   2.830   5.209
 2324TIP3   OH2 6935   5.748   6.546   5.511
 2324TIP3    H1 6936   5.830   6.534   5.559
 2324TIP3    H2 6937   5.775   6.564   5.421
 2325TIP3   OH2 6938   3.022   2.272   1.566
 2325TIP3    H1 6939   3.068   2.348   1.530
 2325TIP3    H2 6940   2.949   2.310   1.615
 2326TIP3   OH2 6941   3.099   2.298   2.598
 2326TIP3    H1 6942   3.184   2.309   2.641
 2326TIP3    H2 6943   3.072   2.209   2.621
 2327TIP3   OH2 6944   0.378   5.529   5.592
 2327TIP3    H1 6945   0.379   5.623   5.576
 2327TIP3    H2 6946   0.294   5.512   5.635
 2328TIP3   OH2 6947   5.046   1.049   1.409
 2328TIP3    H1 6948   4.959   1.068   1.444
 2328TIP3    H2 6949   5.107   1.077   1.478
 2329TIP3   OH2 6950   1.509   0.209   3.275
 2329TIP3    H1 6951   1.549   0.123   3.279
 2329TIP3    H2 6952   1.569   0.266   3.323
 2330TIP3   OH2 6953   4.833   3.275   3.093
 2330TIP3    H1 6954   4.753   3.319   3.066
 2330TIP3    H2 6955   4.811   3.182   3.091
 2331TIP3   OH2 6956   7.113   4.837   0.566
 2331TIP3    H1 6957   7.127   4.888   0.486
 2331TIP3    H2 6958   7.102   4.747   0.535
 2332TIP3   OH2 6959   3.722   1.570   2.983
 2332TIP3    H1 6960   3.640   1.565   2.934
 2332TIP3    H2 6961   3.762   1.652   2.954
 2333TIP3   OH2 6962   6.313   0.588   1.401
 2333TIP3    H1 6963   6.367   0.518   1.365
 2333TIP3    H2 6964   6.276   0.551   1.481
 2334TIP3   OH2 6965   4.766   6.525   2.628
 2334TIP3    H1 6966   4.676   6.553   2.611
 2334TIP3    H2 6967   4.786   6.464   2.557
 2335TIP3   OH2 6968   6.208   6.066   1.117
 2335TIP3    H1 6969   6.224   6.159   1.109
 2335TIP3    H2 6970   6.279   6.033   1.172
 2336TIP3   OH2 6971   6.904   0.692   1.818
 2336TIP3    H1 6972   6.866   0.747   1.750
 2336TIP3    H2 6973   6.993   0.726   1.828
 2337TIP3   OH2 6974   2.311   0.881   1.025
 2337TIP3    H1 6975   2.294   0.936   0.949
 2337TIP3    H2 6976   2.228   0.836   1.041
 2338TIP3   OH2 6977   0.562   3.752   4.966
 2338TIP3    H1 6978   0.542   3.841   4.994
 2338TIP3    H2 6979   0.502   3.735   4.893
 2339TIP3   OH2 6980   6.398   3.476   0.371
 2339TIP3    H1 6981   6.327   3.539   0.381
 2339TIP3    H2 6982   6.424   3.484   0.279
 2340TIP3   OH2 6983   0.342   6.211   2.161
 2340TIP3    H1 6984   0.411   6.212   2.094
 2340TIP3    H2 6985   0.299   6.296   2.153
 2341TIP3   OH2 6986   2.839   1.604   5.353
 2341TIP3    H1 6987   2.914   1.650   5.315
 2341TIP3    H2 6988   2.879   1.535   5.407
 2342TIP3   OH2 6989   3.282   4.626   1.967
 2342TIP3    H1 6990   3.307   4.582   2.048
 2342TIP3    H2 6991   3.202   4.582   1.939
 2343TIP3   OH2 6992   4.585   3.879   0.734
 2343TIP3    H1 6993   4.592   3.805   0.795
 2343TIP3    H2 6994   4.494   3.910   0.744
 2344TIP3   OH2 6995   6.445   6.488   5.424
 2344TIP3    H1 6996   6.476   6.518   5.339
 2344TIP3    H2 6997   6.525   6.468   5.473
 2345TIP3   OH2 6998   3.950   3.846   0.453
 2345TIP3    H1 6999   3.938   3.909   0.382
 2345TIP3    H2 7000   3.974   3.765   0.409
 2346TIP3   OH2 7001   6.230   2.643   5.380
 2346TIP3    H1 7002   6.291   2.631   5.453
 2346TIP3    H2 7003   6.224   2.557   5.339
 2347TIP3   OH2 7004   3.607   2.841   5.643
 2347TIP3    H1 7005   3.569   2.904   5.704
 2347TIP3    H2 7006   3.596   2.757   5.685
 2348TIP3   OH2 7007   6.003   5.188   3.148
 2348TIP3    H1 7008   5.971   5.123   3.209
 2348TIP3    H2 7009   6.093   5.161   3.129
 2349TIP3   OH2 7010   3.284   0.402   4.288
 2349TIP3    H1 7011   3.346   0.475   4.292
 2349TIP3    H2 7012   3.339   0.324   4.287
 2350TIP3   OH2 7013   4.851   0.404   3.451
 2350TIP3    H1 7014   4.840   0.357   3.368
 2350TIP3    H2 7015   4.886   0.490   3.426
 2351TIP3   OH2 7016   5.891   0.836   4.834
 2351TIP3    H1 7017   5.861   0.771   4.770
 2351TIP3    H2 7018   5.828   0.830   4.906
 2352TIP3   OH2 7019   0.453  -0.003   2.452
 2352TIP3    H1 7020   0.504   0.075   2.429
 2352TIP3    H2 7021   0.516  -0.075   2.449
 2353TIP3   OH2 7022   6.806   3.914   2.855
 2353TIP3    H1 7023   6.843   3.853   2.918
 2353TIP3    H2 7024   6.876   3.977   2.838
 2354TIP3   OH2 7025   5.201   2.352   3.986
 2354TIP3    H1 7026   5.262   2.424   3.972
 2354TIP3    H2 7027   5.248   2.291   4.043
 2355TIP3   OH2 7028   2.302   1.208   3.365
 2355TIP3    H1 7029   2.284   1.148   3.293
 2355TIP3    H2 7030   2.359   1.275   3.328
 2356TIP3   OH2 7031   5.107   1.643   3.839
 2356TIP3    H1 7032   5.041   1.676   3.899
 2356TIP3    H2 7033   5.109   1.549   3.855
 2357TIP3   OH2 7034   0.931   0.555   4.989
 2357TIP3    H1 7035   0.926   0.481   5.050
 2357TIP3    H2 7036   0.967   0.518   4.909
 2358TIP3   OH2 7037   6.394   3.602   0.098
 2358TIP3    H1 7038   6.339   3.578   0.024
 2358TIP3    H2 7039   6.384   3.696   0.107
 2359TIP3   OH2 7040   4.811   0.357   5.273
 2359TIP3    H1 7041   4.793   0.359   5.179
 2359TIP3    H2 7042   4.855   0.439   5.291
 2360TIP3   OH2 7043   7.101   4.647   1.090
 2360TIP3    H1 7044   7.113   4.738   1.114
 2360TIP3    H2 7045   7.101   4.600   1.174
 2361TIP3   OH2 7046   4.843   2.279   2.276
 2361TIP3    H1 7047   4.903   2.243   2.342
 2361TIP3    H2 7048   4.759   2.239   2.295
 2362TIP3   OH2 7049   2.327   3.745   0.095
 2362TIP3    H1 7050   2.371   3.660   0.105
 2362TIP3    H2 7051   2.309   3.772   0.185
 2363TIP3   OH2 7052   6.571   2.037   2.761
 2363TIP3    H1 7053   6.569   2.096   2.836
 2363TIP3    H2 7054   6.655   2.055   2.718
 2364TIP3   OH2 7055   0.396   0.958   5.855
 2364TIP3    H1 7056   0.456   0.977   5.927
 2364TIP3    H2 7057   0.379   1.043   5.815
 2365TIP3   OH2 7058   5.902   2.647   0.041
 2365TIP3    H1 7059   5.819   2.694   0.036
 2365TIP3    H2 7060   5.968   2.715   0.053
 2366TIP3   OH2 7061   4.469   2.863   3.656
 2366TIP3    H1 7062   4.475   2.797   3.726
 2366TIP3    H2 7063   4.421   2.819   3.586
 2367TIP3   OH2 7064   1.972   3.106   5.312
 2367TIP3    H1 7065   1.945   3.147   5.394
 2367TIP3    H2 7066   2.068   3.109   5.315
 2368TIP3   OH2 7067   3.328   4.529   2.211
 2368TIP3    H1 7068   3.392   4.564   2.273
 2368TIP3    H2 7069   3.361   4.441   2.191
 2369TIP3   OH2 7070   7.182   5.480   1.569
 2369TIP3    H1 7071   7.277   5.489   1.578
 2369TIP3    H2 7072   7.147   5.526   1.645
 2370TIP3   OH2 7073   0.981   4.335   0.710
 2370TIP3    H1 7074   1.017   4.418   0.679
 2370TIP3    H2 7075   0.958   4.351   0.801
 2371TIP3   OH2 7076   3.560   2.171   2.271
 2371TIP3    H1 7077   3.537   2.109   2.340
 2371TIP3    H2 7078   3.476   2.209   2.244
 2372TIP3   OH2 7079   7.128   3.104   2.178
 2372TIP3    H1 7080   7.116   3.197   2.159
 2372TIP3    H2 7081   7.203   3.078   2.125
 2373TIP3   OH2 7082   5.326   6.720   5.827
 2373TIP3    H1 7083   5.270   6.731   5.750
 2373TIP3    H2 7084   5.408   6.684   5.792
 2374TIP3   OH2 7085   6.528   5.093   0.156
 2374TIP3    H1 7086   6.467   5.019   0.157
 2374TIP3    H2 7087   6.602   5.063   0.209
 2375TIP3   OH2 7088   0.242   2.049   1.285
 2375TIP3    H1 7089   0.254   2.140   1.255
 2375TIP3    H2 7090   0.149   2.043   1.303
 2376TIP3   OH2 7091   3.793   3.322   2.927
 2376TIP3    H1 7092   3.802   3.378   3.004
 2376TIP3    H2 7093   3.863   3.257   2.937
 2377TIP3   OH2 7094   6.152   0.529   5.494
 2377TIP3    H1 7095   6.236   0.513   5.539
 2377TIP3    H2 7096   6.173   0.594   5.427
 2378TIP3   OH2 7097   0.432   1.413   2.396
 2378TIP3    H1 7098   0.477   1.497   2.395
 2378TIP3    H2 7099   0.501   1.348   2.385
 2379TIP3   OH2 7100   2.067   4.283   5.377
 2379TIP3    H1 7101   2.033   4.293   5.288
 2379TIP3    H2 7102   2.080   4.372   5.409
 2380TIP3   OH2 7103   2.173   3.099   1.079
 2380TIP3    H1 7104   2.245   3.152   1.114
 2380TIP3    H2 7105   2.215   3.018   1.051
 2381TIP3   OH2 7106   3.122   0.100   2.568
 2381TIP3    H1 7107   3.085   0.094   2.656
 2381TIP3    H2 7108   3.203   0.050   2.572
 2382TIP3   OH2 7109   0.580  -0.042   5.015
 2382TIP3    H1 7110   0.560   0.001   5.098
 2382TIP3    H2 7111   0.501  -0.030   4.962
 2383TIP3   OH2 7112   4.763   1.133   5.917
 2383TIP3    H1 7113   4.796   1.181   5.841
 2383TIP3    H2 7114   4.671   1.115   5.897
 2384TIP3   OH2 7115   6.284   1.404   3.496
 2384TIP3    H1 7116   6.357   1.357   3.457
 2384TIP3    H2 7117   6.246   1.454   3.423
 2385TIP3   OH2 7118   7.092   5.384   3.828
 2385TIP3    H1 7119   6.997   5.371   3.816
 2385TIP3    H2 7120   7.123   5.411   3.742
 2386TIP3   OH2 7121   0.747   5.536   1.459
 2386TIP3    H1 7122   0.709   5.611   1.412
 2386TIP3    H2 7123   0.822   5.573   1.505
 2387TIP3   OH2 7124   6.447   2.146   5.186
 2387TIP3    H1 7125   6.539   2.155   5.212
 2387TIP3    H2 7126   6.415   2.072   5.238
 2388TIP3   OH2 7127   2.278   1.530   2.360
 2388TIP3    H1 7128   2.279   1.535   2.456
 2388TIP3    H2 7129   2.324   1.609   2.332
 2389TIP3   OH2 7130   1.796   3.472   3.675
 2389TIP3    H1 7131   1.833   3.487   3.588
 2389TIP3    H2 7132   1.872   3.465   3.733
 2390TIP3   OH2 7133   6.763   3.798   1.695
 2390TIP3    H1 7134   6.716   3.851   1.630
 2390TIP3    H2 7135   6.855   3.826   1.686
 2391TIP3   OH2 7136   3.332   6.301   3.127
 2391TIP3    H1 7137   3.347   6.347   3.045
 2391TIP3    H2 7138   3.279   6.225   3.103
 2392TIP3   OH2 7139   6.784   3.826   4.488
 2392TIP3    H1 7140   6.705   3.798   4.534
 2392TIP3    H2 7141   6.840   3.861   4.556
 2393TIP3   OH2 7142   3.477   2.043   3.189
 2393TIP3    H1 7143   3.459   2.078   3.101
 2393TIP3    H2 7144   3.468   2.119   3.247
 2394TIP3   OH2 7145   3.785   6.555   3.594
 2394TIP3    H1 7146   3.869   6.591   3.623
 2394TIP3    H2 7147   3.734   6.545   3.674
 2395TIP3   OH2 7148   0.365   0.602   3.324
 2395TIP3    H1 7149   0.321   0.687   3.321
 2395TIP3    H2 7150   0.454   0.620   3.294
 2396TIP3   OH2 7151   2.019   0.459   5.475
 2396TIP3    H1 7152   2.022   0.527   5.408
 2396TIP3    H2 7153   2.072   0.493   5.547
 2397TIP3   OH2 7154   6.123   2.511   2.758
 2397TIP3    H1 7155   6.212   2.490   2.786
 2397TIP3    H2 7156   6.068   2.471   2.825
 2398TIP3   OH2 7157   6.195   3.949   2.373
 2398TIP3    H1 7158   6.192   3.956   2.469
 2398TIP3    H2 7159   6.289   3.949   2.352
 2399TIP3   OH2 7160   1.313   5.061   1.966
 2399TIP3    H1 7161   1.288   5.100   2.050
 2399TIP3    H2 7162   1.357   4.980   1.990
 2400TIP3   OH2 7163   4.789   5.968   4.311
 2400TIP3    H1 7164   4.713   5.959   4.253
 2400TIP3    H2 7165   4.800   5.882   4.350
 2401TIP3   OH2 7166   5.576   5.920   4.400
 2401TIP3    H1 7167   5.534   6.006   4.386
 2401TIP3    H2 7168   5.503   5.859   4.408
 2402TIP3   OH2 7169   3.146   6.178   2.276
 2402TIP3    H1 7170   3.233   6.179   2.315
 2402TIP3    H2 7171   3.100   6.251   2.318
 2403TIP3   OH2 7172   4.833   0.805   5.848
 2403TIP3    H1 7173   4.912   0.837   5.806
 2403TIP3    H2 7174   4.842   0.710   5.847
 2404TIP3   OH2 7175   5.089   1.377   3.104
 2404TIP3    H1 7176   5.164   1.369   3.164
 2404TIP3    H2 7177   5.121   1.432   3.033
 2405TIP3   OH2 7178   2.658   1.617   4.054
 2405TIP3    H1 7179   2.753   1.629   4.055
 2405TIP3    H2 7180   2.636   1.592   4.144
 2406TIP3   OH2 7181   2.377   6.793   5.025
 2406TIP3    H1 7182   2.409   6.714   5.068
 2406TIP3    H2 7183   2.443   6.815   4.960
 2407TIP3   OH2 7184   1.321   4.472   2.363
 2407TIP3    H1 7185   1.314   4.562   2.330
 2407TIP3    H2 7186   1.402   4.470   2.413
 2408TIP3   OH2 7187   2.596   1.919   0.995
 2408TIP3    H1 7188   2.513   1.881   1.024
 2408TIP3    H2 7189   2.650   1.844   0.970
 2409TIP3   OH2 7190   2.425   6.388   5.857
 2409TIP3    H1 7191   2.456   6.429   5.939
 2409TIP3    H2 7192   2.479   6.429   5.789
 2410TIP3   OH2 7193   6.151   5.567   5.398
 2410TIP3    H1 7194   6.129   5.500   5.461
 2410TIP3    H2 7195   6.218   5.527   5.342
 2411TIP3   OH2 7196   5.912   0.379   1.841
 2411TIP3    H1 7197   5.946   0.336   1.762
 2411TIP3    H2 7198   5.857   0.313   1.883
 2412TIP3   OH2 7199   1.419   0.190   4.236
 2412TIP3    H1 7200   1.438   0.117   4.295
 2412TIP3    H2 7201   1.499   0.201   4.185
 2413TIP3   OH2 7202   5.527   0.922   0.063
 2413TIP3    H1 7203   5.475   0.987   0.015
 2413TIP3    H2 7204   5.597   0.972   0.105
 2414TIP3   OH2 7205   3.206   3.909   4.789
 2414TIP3    H1 7206   3.219   3.817   4.766
 2414TIP3    H2 7207   3.162   3.947   4.712
 2415TIP3   OH2 7208   5.103   0.171   3.900
 2415TIP3    H1 7209   5.188   0.129   3.906
 2415TIP3    H2 7210   5.089   0.185   3.807
 2416TIP3   OH2 7211   0.733   5.223   3.279
 2416TIP3    H1 7212   0.666   5.224   3.348
 2416TIP3    H2 7213   0.816   5.218   3.326
 2417TIP3   OH2 7214   0.523   3.714   2.595
 2417TIP3    H1 7215   0.481   3.660   2.662
 2417TIP3    H2 7216   0.451   3.747   2.541
 2418TIP3   OH2 7217   7.092   4.992   0.968
 2418TIP3    H1 7218   7.030   4.964   0.901
 2418TIP3    H2 7219   7.038   5.022   1.041
 2419TIP3   OH2 7220   2.989   5.730   4.265
 2419TIP3    H1 7221   2.958   5.652   4.310
 2419TIP3    H2 7222   3.060   5.764   4.320
 2420TIP3   OH2 7223   6.370   3.529   0.850
 2420TIP3    H1 7224   6.293   3.525   0.794
 2420TIP3    H2 7225   6.436   3.478   0.803
 2421TIP3   OH2 7226   3.892   3.654   3.569
 2421TIP3    H1 7227   3.815   3.712   3.574
 2421TIP3    H2 7228   3.898   3.631   3.476
 2422TIP3   OH2 7229   6.966   3.845   5.025
 2422TIP3    H1 7230   6.928   3.778   4.968
 2422TIP3    H2 7231   6.946   3.928   4.981
 2423TIP3   OH2 7232   4.036   0.921   0.273
 2423TIP3    H1 7233   3.945   0.894   0.280
 2423TIP3    H2 7234   4.035   1.015   0.289
 2424TIP3   OH2 7235   2.400   2.501   3.682
 2424TIP3    H1 7236   2.384   2.501   3.588
 2424TIP3    H2 7237   2.364   2.585   3.713
 2425TIP3   OH2 7238   0.558   5.469   1.207
 2425TIP3    H1 7239   0.535   5.508   1.291
 2425TIP3    H2 7240   0.517   5.525   1.142
 2426TIP3   OH2 7241   5.202   1.553   5.595
 2426TIP3    H1 7242   5.130   1.598   5.638
 2426TIP3    H2 7243   5.165   1.471   5.564
 2427TIP3   OH2 7244   5.766   6.378   0.619
 2427TIP3    H1 7245   5.851   6.334   0.627
 2427TIP3    H2 7246   5.771   6.452   0.680
 2428TIP3   OH2 7247   3.125   4.290   4.896
 2428TIP3    H1 7248   3.200   4.231   4.886
 2428TIP3    H2 7249   3.159   4.377   4.872
 2429TIP3   OH2 7250   5.797   1.934   3.559
 2429TIP3    H1 7251   5.870   1.912   3.617
 2429TIP3    H2 7252   5.723   1.949   3.618
 2430TIP3   OH2 7253   6.175   0.883   4.817
 2430TIP3    H1 7254   6.227   0.823   4.871
 2430TIP3    H2 7255   6.087   0.876   4.852
 2431TIP3   OH2 7256   5.191   1.981   0.347
 2431TIP3    H1 7257   5.157   1.897   0.319
 2431TIP3    H2 7258   5.195   2.034   0.268
 2432TIP3   OH2 7259   2.848   5.692   1.928
 2432TIP3    H1 7260   2.800   5.609   1.938
 2432TIP3    H2 7261   2.826   5.742   2.006
 2433TIP3   OH2 7262   6.958   4.048   3.579
 2433TIP3    H1 7263   6.948   4.047   3.674
 2433TIP3    H2 7264   6.914   4.129   3.551
 2434TIP3   OH2 7265   3.090   1.917   4.426
 2434TIP3    H1 7266   3.127   1.932   4.513
 2434TIP3    H2 7267   3.049   2.000   4.403
 2435TIP3   OH2 7268   4.235   6.416   4.843
 2435TIP3    H1 7269   4.325   6.393   4.866
 2435TIP3    H2 7270   4.239   6.434   4.749
 2436TIP3   OH2 7271   4.045   0.367   0.116
 2436TIP3    H1 7272   3.951   0.377   0.130
 2436TIP3    H2 7273   4.072   0.302   0.181
 2437TIP3   OH2 7274   0.780   6.291   1.909
 2437TIP3    H1 7275   0.806   6.216   1.856
 2437TIP3    H2 7276   0.821   6.367   1.867
 2438TIP3   OH2 7277   3.589   1.561   5.102
 2438TIP3    H1 7278   3.609   1.506   5.178
 2438TIP3    H2 7279   3.591   1.500   5.027
 2439TIP3   OH2 7280   0.841   4.153   2.904
 2439TIP3    H1 7281   0.890   4.232   2.882
 2439TIP3    H2 7282   0.750   4.175   2.883
 2440TIP3   OH2 7283   1.751   5.559   3.438
 2440TIP3    H1 7284   1.698   5.562   3.518
 2440TIP3    H2 7285   1.820   5.495   3.456
 2441TIP3   OH2 7286   2.971   5.562   3.670
 2441TIP3    H1 7287   2.990   5.472   3.699
 2441TIP3    H2 7288   3.054   5.594   3.634
 2442TIP3   OH2 7289   6.956   1.712   3.536
 2442TIP3    H1 7290   6.979   1.654   3.463
 2442TIP3    H2 7291   6.945   1.653   3.611
 2443TIP3   OH2 7292   2.860   1.269   1.054
 2443TIP3    H1 7293   2.820   1.356   1.048
 2443TIP3    H2 7294   2.808   1.224   1.121
 2444TIP3   OH2 7295   6.709   4.402   3.249
 2444TIP3    H1 7296   6.657   4.479   3.225
 2444TIP3    H2 7297   6.645   4.339   3.282
 2445TIP3   OH2 7298   1.573   2.958   5.368
 2445TIP3    H1 7299   1.559   2.987   5.278
 2445TIP3    H2 7300   1.488   2.973   5.411
 2446TIP3   OH2 7301   6.987   4.083   0.993
 2446TIP3    H1 7302   6.952   4.165   1.028
 2446TIP3    H2 7303   7.079   4.084   1.017
 2447TIP3   OH2 7304   5.172   6.380   0.769
 2447TIP3    H1 7305   5.160   6.303   0.825
 2447TIP3    H2 7306   5.237   6.352   0.705
 2448TIP3   OH2 7307   4.497   3.063   1.692
 2448TIP3    H1 7308   4.574   3.010   1.672
 2448TIP3    H2 7309   4.433   3.001   1.727
 2449TIP3   OH2 7310   1.653   1.962   2.764
 2449TIP3    H1 7311   1.729   1.990   2.714
 2449TIP3    H2 7312   1.610   1.897   2.708
 2450TIP3   OH2 7313   6.025   2.045   2.884
 2450TIP3    H1 7314   6.056   2.046   2.793
 2450TIP3    H2 7315   5.930   2.055   2.877
 2451TIP3   OH2 7316   3.353   4.620   1.246
 2451TIP3    H1 7317   3.277   4.656   1.291
 2451TIP3    H2 7318   3.420   4.689   1.250
 2452TIP3   OH2 7319   2.746   6.224   3.764
 2452TIP3    H1 7320   2.751   6.131   3.785
 2452TIP3    H2 7321   2.831   6.259   3.792
 2453TIP3   OH2 7322   6.046   1.736   3.098
 2453TIP3    H1 7323   5.991   1.660   3.081
 2453TIP3    H2 7324   6.135   1.706   3.082
 2454TIP3   OH2 7325   5.252   3.397   2.483
 2454TIP3    H1 7326   5.321   3.358   2.537
 2454TIP3    H2 7327   5.256   3.348   2.401
 2455TIP3   OH2 7328   4.566   3.346   0.047
 2455TIP3    H1 7329   4.573   3.440   0.028
 2455TIP3    H2 7330   4.505   3.341   0.120
 2456TIP3   OH2 7331   4.007   5.541   2.713
 2456TIP3    H1 7332   4.095   5.505   2.698
 2456TIP3    H2 7333   4.008   5.568   2.805
 2457TIP3   OH2 7334   6.217   6.757   2.311
 2457TIP3    H1 7335   6.139   6.810   2.328
 2457TIP3    H2 7336   6.271   6.768   2.390
 2458TIP3   OH2 7337   5.214   1.760   0.583
 2458TIP3    H1 7338   5.212   1.850   0.614
 2458TIP3    H2 7339   5.179   1.764   0.494
 2459TIP3   OH2 7340   5.940   6.321   2.477
 2459TIP3    H1 7341   5.938   6.352   2.387
 2459TIP3    H2 7342   6.023   6.274   2.485
 2460TIP3   OH2 7343   5.105   5.261   0.507
 2460TIP3    H1 7344   5.162   5.269   0.431
 2460TIP3    H2 7345   5.037   5.199   0.481
 2461TIP3   OH2 7346   0.726   0.809   0.724
 2461TIP3    H1 7347   0.786   0.738   0.702
 2461TIP3    H2 7348   0.780   0.888   0.718
 2462TIP3   OH2 7349   5.986   1.147   2.860
 2462TIP3    H1 7350   5.995   1.167   2.767
 2462TIP3    H2 7351   6.035   1.217   2.904
 2463TIP3   OH2 7352   5.006   5.546   0.506
 2463TIP3    H1 7353   4.912   5.533   0.515
 2463TIP3    H2 7354   5.032   5.486   0.436
 2464TIP3   OH2 7355   7.166   5.762   3.733
 2464TIP3    H1 7356   7.210   5.677   3.739
 2464TIP3    H2 7357   7.171   5.785   3.640
 2465TIP3   OH2 7358   1.400   6.410   0.572
 2465TIP3    H1 7359   1.346   6.459   0.634
 2465TIP3    H2 7360   1.352   6.329   0.556
 2466TIP3   OH2 7361   7.018   0.935   0.126
 2466TIP3    H1 7362   6.974   0.996   0.067
 2466TIP3    H2 7363   7.073   0.991   0.180
 2467TIP3   OH2 7364   4.520   5.410   5.774
 2467TIP3    H1 7365   4.429   5.400   5.745
 2467TIP3    H2 7366   4.537   5.504   5.769
 2468TIP3   OH2 7367   0.776   1.626   3.911
 2468TIP3    H1 7368   0.737   1.538   3.917
 2468TIP3    H2 7369   0.861   1.617   3.953
 2469TIP3   OH2 7370   1.310   0.425   3.785
 2469TIP3    H1 7371   1.249   0.431   3.859
 2469TIP3    H2 7372   1.287   0.499   3.729
 2470TIP3   OH2 7373   1.217   1.178   0.070
 2470TIP3    H1 7374   1.247   1.095   0.107
 2470TIP3    H2 7375   1.159   1.152  -0.002
 2471TIP3   OH2 7376   6.310   5.631   4.757
 2471TIP3    H1 7377   6.293   5.572   4.830
 2471TIP3    H2 7378   6.314   5.574   4.680
 2472TIP3   OH2 7379   1.544   0.795   1.399
 2472TIP3    H1 7380   1.549   0.813   1.493
 2472TIP3    H2 7381   1.517   0.878   1.360
 2473TIP3   OH2 7382   5.089   3.302   3.045
 2473TIP3    H1 7383   5.104   3.263   3.131
 2473TIP3    H2 7384   4.994   3.305   3.036
 2474TIP3   OH2 7385   6.036   6.341   0.178
 2474TIP3    H1 7386   6.126   6.321   0.205
 2474TIP3    H2 7387   6.005   6.404   0.243
 2475TIP3   OH2 7388   1.401   6.073   0.824
 2475TIP3    H1 7389   1.409   6.167   0.843
 2475TIP3    H2 7390   1.457   6.060   0.747
 2476TIP3   OH2 7391   0.909   5.686   1.643
 2476TIP3    H1 7392   0.948   5.749   1.583
 2476TIP3    H2 7393   0.883   5.739   1.719
 2477TIP3   OH2 7394   2.625   4.242   5.444
 2477TIP3    H1 7395   2.630   4.219   5.537
 2477TIP3    H2 7396   2.705   4.205   5.406
 2478TIP3   OH2 7397  -0.034   5.789   4.926
 2478TIP3    H1 7398   0.013   5.706   4.937
 2478TIP3    H2 7399   0.023   5.854   4.966
 2479TIP3   OH2 7400   0.762   1.611   4.491
 2479TIP3    H1 7401   0.786   1.626   4.583
 2479TIP3    H2 7402   0.667   1.597   4.493
 2480TIP3   OH2 7403   0.038   3.329   0.875
 2480TIP3    H1 7404   0.082   3.377   0.804
 2480TIP3    H2 7405   0.105   3.321   0.943
 2481TIP3   OH2 7406   1.826   0.479   3.754
 2481TIP3    H1 7407   1.853   0.543   3.820
 2481TIP3    H2 7408   1.803   0.401   3.804
 2482TIP3   OH2 7409   6.144   3.136   0.058
 2482TIP3    H1 7410   6.235   3.119   0.035
 2482TIP3    H2 7411   6.148   3.211   0.118
 2483TIP3   OH2 7412   1.474   2.060   4.314
 2483TIP3    H1 7413   1.551   2.038   4.262
 2483TIP3    H2 7414   1.455   2.152   4.291
 2484TIP3   OH2 7415   1.714   0.680   4.592
 2484TIP3    H1 7416   1.634   0.658   4.640
 2484TIP3    H2 7417   1.738   0.599   4.547
 2485TIP3   OH2 7418   5.648   4.635   2.373
 2485TIP3    H1 7419   5.566   4.670   2.338
 2485TIP3    H2 7420   5.702   4.713   2.388
 2486TIP3   OH2 7421   3.515   0.965   1.671
 2486TIP3    H1 7422   3.492   0.948   1.580
 2486TIP3    H2 7423   3.588   1.026   1.667
 2487TIP3   OH2 7424   7.265   2.814   2.826
 2487TIP3    H1 7425   7.176   2.841   2.851
 2487TIP3    H2 7426   7.304   2.781   2.907
 2488TIP3   OH2 7427   5.214   5.946   4.186
 2488TIP3    H1 7428   5.192   5.915   4.274
 2488TIP3    H2 7429   5.135   5.929   4.134
 2489TIP3   OH2 7430   5.494   5.085   2.343
 2489TIP3    H1 7431   5.496   5.024   2.417
 2489TIP3    H2 7432   5.550   5.044   2.277
 2490TIP3   OH2 7433   4.614   2.892   5.878
 2490TIP3    H1 7434   4.575   2.925   5.959
 2490TIP3    H2 7435   4.565   2.935   5.809
 2491TIP3   OH2 7436   3.308   5.369   3.548
 2491TIP3    H1 7437   3.296   5.293   3.491
 2491TIP3    H2 7438   3.392   5.355   3.590
 2492TIP3   OH2 7439   1.511   2.122   1.204
 2492TIP3    H1 7440   1.464   2.206   1.203
 2492TIP3    H2 7441   1.584   2.134   1.143
 2493TIP3   OH2 7442   0.534   0.683   5.181
 2493TIP3    H1 7443   0.490   0.702   5.264
 2493TIP3    H2 7444   0.623   0.717   5.193
 2494TIP3   OH2 7445   3.387  -0.052   5.802
 2494TIP3    H1 7446   3.350  -0.029   5.887
 2494TIP3    H2 7447   3.475  -0.013   5.803
 2495TIP3   OH2 7448   7.136   5.574   3.101
 2495TIP3    H1 7449   7.042   5.574   3.082
 2495TIP3    H2 7450   7.166   5.660   3.072
 2496TIP3   OH2 7451   3.048   3.271   2.070
 2496TIP3    H1 7452   2.996   3.322   2.132
 2496TIP3    H2 7453   3.082   3.336   2.008
 2497TIP3   OH2 7454   4.586   4.634   2.869
 2497TIP3    H1 7455   4.654   4.611   2.807
 2497TIP3    H2 7456   4.633   4.670   2.944
 2498TIP3   OH2 7457   3.869   3.192   3.661
 2498TIP3    H1 7458   3.781   3.154   3.659
 2498TIP3    H2 7459   3.867   3.254   3.734
 2499TIP3   OH2 7460   0.914   4.294   1.754
 2499TIP3    H1 7461   0.907   4.199   1.750
 2499TIP3    H2 7462   0.911   4.315   1.848
 2500TIP3   OH2 7463   1.693   5.905   5.801
 2500TIP3    H1 7464   1.632   5.890   5.873
 2500TIP3    H2 7465   1.638   5.913   5.723
 2501TIP3   OH2 7466   3.197   2.833   4.642
 2501TIP3    H1 7467   3.263   2.807   4.705
 2501TIP3    H2 7468   3.114   2.831   4.690
 2502TIP3   OH2 7469   4.421   6.386   3.328
 2502TIP3    H1 7470   4.431   6.298   3.290
 2502TIP3    H2 7471   4.327   6.401   3.329
 2503TIP3   OH2 7472   5.128   4.091   4.414
 2503TIP3    H1 7473   5.076   4.165   4.446
 2503TIP3    H2 7474   5.180   4.065   4.489
 2504TIP3   OH2 7475   3.550   5.688   1.092
 2504TIP3    H1 7476   3.538   5.595   1.075
 2504TIP3    H2 7477   3.508   5.703   1.177
 2505TIP3   OH2 7478   4.642   1.646   4.593
 2505TIP3    H1 7479   4.629   1.740   4.583
 2505TIP3    H2 7480   4.629   1.610   4.505
 2506TIP3   OH2 7481   5.616   2.772   0.840
 2506TIP3    H1 7482   5.671   2.846   0.865
 2506TIP3    H2 7483   5.632   2.706   0.908
 2507TIP3   OH2 7484   3.647   2.822   3.212
 2507TIP3    H1 7485   3.564   2.788   3.177
 2507TIP3    H2 7486   3.623   2.863   3.295
 2508TIP3   OH2 7487   2.731   3.008   4.129
 2508TIP3    H1 7488   2.721   2.949   4.054
 2508TIP3    H2 7489   2.823   3.035   4.124
 2509TIP3   OH2 7490   3.078   1.274   2.817
 2509TIP3    H1 7491   3.149   1.318   2.864
 2509TIP3    H2 7492   3.001   1.328   2.835
 2510TIP3   OH2 7493   1.027   4.004   0.020
 2510TIP3    H1 7494   0.993   4.091   0.040
 2510TIP3    H2 7495   0.961   3.966  -0.039
 2511TIP3   OH2 7496   1.010   5.601   2.305
 2511TIP3    H1 7497   0.932   5.581   2.356
 2511TIP3    H2 7498   1.002   5.544   2.228
 2512TIP3   OH2 7499   4.819   6.143   4.511
 2512TIP3    H1 7500   4.798   6.079   4.442
 2512TIP3    H2 7501   4.737   6.190   4.525
 2513TIP3   OH2 7502   1.615   2.995   2.883
 2513TIP3    H1 7503   1.540   2.990   2.824
 2513TIP3    H2 7504   1.611   2.914   2.934
 2514TIP3   OH2 7505   1.158   1.466   4.221
 2514TIP3    H1 7506   1.137   1.373   4.218
 2514TIP3    H2 7507   1.249   1.469   4.251
 2515TIP3   OH2 7508   2.451   1.524   5.691
 2515TIP3    H1 7509   2.503   1.559   5.619
 2515TIP3    H2 7510   2.485   1.568   5.769
 2516TIP3   OH2 7511   4.192   2.037   1.543
 2516TIP3    H1 7512   4.136   2.075   1.611
 2516TIP3    H2 7513   4.253   1.980   1.590
 2517TIP3   OH2 7514   0.542   4.775   4.778
 2517TIP3    H1 7515   0.452   4.741   4.783
 2517TIP3    H2 7516   0.577   4.738   4.697
 2518TIP3   OH2 7517   5.806   6.227   1.446
 2518TIP3    H1 7518   5.881   6.168   1.455
 2518TIP3    H2 7519   5.844   6.309   1.415
 2519TIP3   OH2 7520   4.256   4.215   4.287
 2519TIP3    H1 7521   4.176   4.267   4.287
 2519TIP3    H2 7522   4.271   4.195   4.194
 2520TIP3   OH2 7523   1.646   5.464   2.588
 2520TIP3    H1 7524   1.584   5.411   2.638
 2520TIP3    H2 7525   1.601   5.547   2.573
 2521TIP3   OH2 7526   3.138   6.080   4.588
 2521TIP3    H1 7527   3.232   6.098   4.590
 2521TIP3    H2 7528   3.096   6.166   4.597
 2522TIP3   OH2 7529   4.533   1.946   5.672
 2522TIP3    H1 7530   4.600   1.886   5.637
 2522TIP3    H2 7531   4.464   1.945   5.606
 2523TIP3   OH2 7532   5.898   0.688   0.990
 2523TIP3    H1 7533   5.884   0.668   1.082
 2523TIP3    H2 7534   5.825   0.646   0.945
 2524TIP3   OH2 7535   5.431   4.194   4.920
 2524TIP3    H1 7536   5.425   4.218   4.828
 2524TIP3    H2 7537   5.421   4.099   4.922
 2525TIP3   OH2 7538   6.313   4.344   5.603
 2525TIP3    H1 7539   6.221   4.321   5.591
 2525TIP3    H2 7540   6.361   4.271   5.564
 2526TIP3   OH2 7541   2.689   6.223   0.894
 2526TIP3    H1 7542   2.733   6.185   0.970
 2526TIP3    H2 7543   2.622   6.281   0.932
 2527TIP3   OH2 7544   0.928   0.754   4.271
 2527TIP3    H1 7545   0.982   0.754   4.350
 2527TIP3    H2 7546   0.987   0.786   4.202
 2528TIP3   OH2 7547   0.211   6.026   2.300
 2528TIP3    H1 7548   0.276   6.064   2.240
 2528TIP3    H2 7549   0.209   5.933   2.277
 2529TIP3   OH2 7550   5.368   5.125   0.571
 2529TIP3    H1 7551   5.288   5.102   0.619
 2529TIP3    H2 7552   5.398   5.206   0.612
 2530TIP3   OH2 7553   6.630   3.264   4.133
 2530TIP3    H1 7554   6.596   3.346   4.169
 2530TIP3    H2 7555   6.687   3.230   4.202
 2531TIP3   OH2 7556   1.328   1.516   2.590
 2531TIP3    H1 7557   1.402   1.513   2.651
 2531TIP3    H2 7558   1.317   1.609   2.571
 2532TIP3   OH2 7559   6.804   4.558   3.670
 2532TIP3    H1 7560   6.714   4.577   3.646
 2532TIP3    H2 7561   6.820   4.612   3.748
 2533TIP3   OH2 7562   4.517   2.281   0.321
 2533TIP3    H1 7563   4.440   2.250   0.370
 2533TIP3    H2 7564   4.547   2.357   0.371
 2534TIP3   OH2 7565   0.975   2.140   0.700
 2534TIP3    H1 7566   1.029   2.107   0.772
 2534TIP3    H2 7567   0.953   2.062   0.649
 2535TIP3   OH2 7568   5.313   4.082   4.604
 2535TIP3    H1 7569   5.375   4.149   4.575
 2535TIP3    H2 7570   5.261   4.126   4.672
 2536TIP3   OH2 7571   7.177   6.475   5.542
 2536TIP3    H1 7572   7.107   6.412   5.521
 2536TIP3    H2 7573   7.132   6.547   5.585
 2537TIP3   OH2 7574   6.449   5.256   2.316
 2537TIP3    H1 7575   6.390   5.229   2.246
 2537TIP3    H2 7576   6.498   5.329   2.280
 2538TIP3   OH2 7577   4.646   2.624   1.257
 2538TIP3    H1 7578   4.605   2.578   1.184
 2538TIP3    H2 7579   4.573   2.651   1.313
 2539TIP3   OH2 7580   3.214   4.152   5.508
 2539TIP3    H1 7581   3.232   4.206   5.585
 2539TIP3    H2 7582   3.125   4.178   5.482
 2540TIP3   OH2 7583   6.585   5.210   5.334
 2540TIP3    H1 7584   6.585   5.243   5.424
 2540TIP3    H2 7585   6.616   5.119   5.342
 2541TIP3   OH2 7586   4.273   0.928   4.614
 2541TIP3    H1 7587   4.280   0.971   4.699
 2541TIP3    H2 7588   4.189   0.882   4.617
 2542TIP3   OH2 7589   3.186   2.208   3.601
 2542TIP3    H1 7590   3.154   2.137   3.657
 2542TIP3    H2 7591   3.189   2.285   3.658
 2543TIP3   OH2 7592   0.566   1.147   4.616
 2543TIP3    H1 7593   0.599   1.060   4.635
 2543TIP3    H2 7594   0.642   1.204   4.623
 2544TIP3   OH2 7595   5.709   4.470   5.514
 2544TIP3    H1 7596   5.767   4.540   5.544
 2544TIP3    H2 7597   5.627   4.486   5.559
 2545TIP3   OH2 7598   7.004   1.397   5.253
 2545TIP3    H1 7599   7.080   1.418   5.308
 2545TIP3    H2 7600   6.994   1.473   5.195
 2546TIP3   OH2 7601   1.529   1.300   4.439
 2546TIP3    H1 7602   1.465   1.243   4.482
 2546TIP3    H2 7603   1.549   1.367   4.505
 2547TIP3   OH2 7604   6.927   4.427   0.478
 2547TIP3    H1 7605   7.000   4.466   0.526
 2547TIP3    H2 7606   6.927   4.335   0.503
 2548TIP3   OH2 7607   6.254   5.074   0.368
 2548TIP3    H1 7608   6.238   5.036   0.455
 2548TIP3    H2 7609   6.333   5.127   0.380
 2549TIP3   OH2 7610   3.996   1.559   2.845
 2549TIP3    H1 7611   4.000   1.571   2.940
 2549TIP3    H2 7612   3.957   1.640   2.812
 2550TIP3   OH2 7613   5.898   3.820   4.183
 2550TIP3    H1 7614   5.803   3.832   4.187
 2550TIP3    H2 7615   5.910   3.735   4.140
 2551TIP3   OH2 7616   0.212   2.122   0.492
 2551TIP3    H1 7617   0.219   2.201   0.437
 2551TIP3    H2 7618   0.270   2.140   0.566
 2552TIP3   OH2 7619   0.637   3.818   2.051
 2552TIP3    H1 7620   0.676   3.905   2.060
 2552TIP3    H2 7621   0.545   3.831   2.073
 2553TIP3   OH2 7622   3.371   1.155   4.172
 2553TIP3    H1 7623   3.288   1.136   4.130
 2553TIP3    H2 7624   3.364   1.246   4.200
 2554TIP3   OH2 7625   0.283   0.795   3.656
 2554TIP3    H1 7626   0.346   0.864   3.638
 2554TIP3    H2 7627   0.275   0.795   3.752
 2555TIP3   OH2 7628   5.821   6.597   2.501
 2555TIP3    H1 7629   5.784   6.517   2.538
 2555TIP3    H2 7630   5.895   6.618   2.559
 2556TIP3   OH2 7631   2.726   3.373   0.723
 2556TIP3    H1 7632   2.682   3.452   0.756
 2556TIP3    H2 7633   2.815   3.403   0.702
 2557TIP3   OH2 7634   3.316   6.601   5.645
 2557TIP3    H1 7635   3.284   6.535   5.707
 2557TIP3    H2 7636   3.278   6.575   5.561
 2558TIP3   OH2 7637   1.037   2.600   3.738
 2558TIP3    H1 7638   0.996   2.583   3.653
 2558TIP3    H2 7639   1.065   2.692   3.733
 2559TIP3   OH2 7640   0.732   3.960   0.854
 2559TIP3    H1 7641   0.804   4.018   0.828
 2559TIP3    H2 7642   0.711   3.912   0.774
 2560TIP3   OH2 7643   4.150   2.683   4.149
 2560TIP3    H1 7644   4.192   2.746   4.090
 2560TIP3    H2 7645   4.098   2.737   4.209
 2561TIP3   OH2 7646   4.751   0.740   0.099
 2561TIP3    H1 7647   4.657   0.723   0.097
 2561TIP3    H2 7648   4.784   0.706   0.016
 2562TIP3   OH2 7649   3.929   2.461   5.531
 2562TIP3    H1 7650   3.908   2.404   5.457
 2562TIP3    H2 7651   4.019   2.438   5.554
 2563TIP3   OH2 7652   5.330   1.363   3.250
 2563TIP3    H1 7653   5.317   1.390   3.341
 2563TIP3    H2 7654   5.420   1.389   3.231
 2564TIP3   OH2 7655   3.938   6.781   1.209
 2564TIP3    H1 7656   3.846   6.757   1.194
 2564TIP3    H2 7657   3.986   6.729   1.145
 2565TIP3   OH2 7658   4.764   4.253   1.382
 2565TIP3    H1 7659   4.847   4.212   1.357
 2565TIP3    H2 7660   4.700   4.182   1.377
 2566TIP3   OH2 7661   0.117   4.574   5.778
 2566TIP3    H1 7662   0.175   4.535   5.843
 2566TIP3    H2 7663   0.097   4.502   5.718
 2567TIP3   OH2 7664   1.354   1.055   1.450
 2567TIP3    H1 7665   1.384   1.045   1.360
 2567TIP3    H2 7666   1.311   0.972   1.471
 2568TIP3   OH2 7667   1.746   2.833   0.973
 2568TIP3    H1 7668   1.730   2.786   1.055
 2568TIP3    H2 7669   1.776   2.920   1.000
 2569TIP3   OH2 7670   5.311   6.226   0.344
 2569TIP3    H1 7671   5.311   6.302   0.285
 2569TIP3    H2 7672   5.347   6.155   0.290
 2570TIP3   OH2 7673   5.971   1.487   5.259
 2570TIP3    H1 7674   5.977   1.494   5.163
 2570TIP3    H2 7675   5.880   1.510   5.279
 2571TIP3   OH2 7676   4.541   6.103   3.378
 2571TIP3    H1 7677   4.621   6.058   3.405
 2571TIP3    H2 7678   4.553   6.121   3.285
 2572TIP3   OH2 7679   2.600   2.613   0.807
 2572TIP3    H1 7680   2.626   2.697   0.845
 2572TIP3    H2 7681   2.634   2.547   0.867
 2573TIP3   OH2 7682   1.679   0.204   2.154
 2573TIP3    H1 7683   1.686   0.219   2.249
 2573TIP3    H2 7684   1.706   0.113   2.143
 2574TIP3   OH2 7685   4.886   2.745   1.736
 2574TIP3    H1 7686   4.958   2.726   1.796
 2574TIP3    H2 7687   4.902   2.689   1.660
 2575TIP3   OH2 7688   3.396   3.150   2.331
 2575TIP3    H1 7689   3.473   3.159   2.387
 2575TIP3    H2 7690   3.349   3.074   2.367
 2576TIP3   OH2 7691   0.150   3.208   4.607
 2576TIP3    H1 7692   0.219   3.157   4.565
 2576TIP3    H2 7693   0.081   3.215   4.541
 2577TIP3   OH2 7694   0.686   4.119   5.112
 2577TIP3    H1 7695   0.602   4.161   5.092
 2577TIP3    H2 7696   0.728   4.108   5.027
 2578TIP3   OH2 7697   5.704   6.027   0.593
 2578TIP3    H1 7698   5.711   5.995   0.683
 2578TIP3    H2 7699   5.795   6.033   0.563
 2579TIP3   OH2 7700   0.512   5.378   5.077
 2579TIP3    H1 7701   0.497   5.302   5.133
 2579TIP3    H2 7702   0.464   5.450   5.119
 2580TIP3   OH2 7703   6.886   3.560   1.075
 2580TIP3    H1 7704   6.837   3.589   1.151
 2580TIP3    H2 7705   6.939   3.636   1.050
 2581TIP3   OH2 7706   3.630   5.788   3.065
 2581TIP3    H1 7707   3.649   5.764   3.156
 2581TIP3    H2 7708   3.683   5.866   3.050
 2582TIP3   OH2 7709   4.731   5.994   1.032
 2582TIP3    H1 7710   4.801   6.039   1.078
 2582TIP3    H2 7711   4.765   5.905   1.017
 2583TIP3   OH2 7712   6.808   4.153   4.579
 2583TIP3    H1 7713   6.784   4.244   4.562
 2583TIP3    H2 7714   6.727   4.111   4.606
 2584TIP3   OH2 7715   1.548   1.033   1.222
 2584TIP3    H1 7716   1.638   1.021   1.192
 2584TIP3    H2 7717   1.495   1.028   1.142
 2585TIP3   OH2 7718   6.776   1.913   4.285
 2585TIP3    H1 7719   6.826   1.968   4.225
 2585TIP3    H2 7720   6.777   1.827   4.244
 2586TIP3   OH2 7721   7.047   1.850   4.723
 2586TIP3    H1 7722   7.001   1.770   4.748
 2586TIP3    H2 7723   7.054   1.845   4.628
 2587TIP3   OH2 7724   1.644   0.554   1.842
 2587TIP3    H1 7725   1.592   0.503   1.904
 2587TIP3    H2 7726   1.661   0.494   1.770
 2588TIP3   OH2 7727   5.166   2.822   4.502
 2588TIP3    H1 7728   5.188   2.882   4.573
 2588TIP3    H2 7729   5.240   2.829   4.442
 2589TIP3   OH2 7730   1.193   4.992   4.451
 2589TIP3    H1 7731   1.270   4.937   4.436
 2589TIP3    H2 7732   1.177   4.986   4.545
 2590TIP3   OH2 7733   5.810   5.459   1.834
 2590TIP3    H1 7734   5.855   5.410   1.766
 2590TIP3    H2 7735   5.752   5.519   1.787
 2591TIP3   OH2 7736   0.450   6.836   2.465
 2591TIP3    H1 7737   0.471   6.812   2.375
 2591TIP3    H2 7738   0.535   6.851   2.506
 2592TIP3   OH2 7739   5.167   6.491   2.895
 2592TIP3    H1 7740   5.164   6.563   2.959
 2592TIP3    H2 7741   5.215   6.527   2.821
 2593TIP3   OH2 7742   3.686   4.918   3.179
 2593TIP3    H1 7743   3.723   4.885   3.261
 2593TIP3    H2 7744   3.681   4.841   3.122
 2594TIP3   OH2 7745   1.978   3.674   1.519
 2594TIP3    H1 7746   2.047   3.714   1.467
 2594TIP3    H2 7747   1.985   3.716   1.605
 2595TIP3   OH2 7748   4.009   2.179   5.732
 2595TIP3    H1 7749   3.926   2.224   5.750
 2595TIP3    H2 7750   3.992   2.087   5.754
 2596TIP3   OH2 7751   6.006   3.948   1.883
 2596TIP3    H1 7752   6.049   3.946   1.968
 2596TIP3    H2 7753   5.915   3.924   1.902
 2597TIP3   OH2 7754   6.094   0.012   3.606
 2597TIP3    H1 7755   6.035  -0.054   3.644
 2597TIP3    H2 7756   6.036   0.081   3.575
 2598TIP3   OH2 7757   0.355   2.664   1.062
 2598TIP3    H1 7758   0.364   2.577   1.099
 2598TIP3    H2 7759   0.269   2.663   1.019
 2599TIP3   OH2 7760   1.648   2.483   5.582
 2599TIP3    H1 7761   1.677   2.484   5.490
 2599TIP3    H2 7762   1.724   2.451   5.631
 2600TIP3   OH2 7763   1.787   5.800   0.719
 2600TIP3    H1 7764   1.748   5.859   0.784
 2600TIP3    H2 7765   1.764   5.712   0.750
 2601TIP3   OH2 7766   3.489   4.015   1.023
 2601TIP3    H1 7767   3.527   3.948   1.080
 2601TIP3    H2 7768   3.479   3.971   0.938
 2602TIP3   OH2 7769   5.303   4.925   2.792
 2602TIP3    H1 7770   5.352   4.861   2.844
 2602TIP3    H2 7771   5.342   5.009   2.812
 2603TIP3   OH2 7772   0.610   6.622   4.990
 2603TIP3    H1 7773   0.635   6.665   5.072
 2603TIP3    H2 7774   0.543   6.559   5.016
 2604TIP3   OH2 7775   0.571   1.147   0.443
 2604TIP3    H1 7776   0.546   1.084   0.510
 2604TIP3    H2 7777   0.631   1.099   0.386
 2605TIP3   OH2 7778   6.185   2.177   3.497
 2605TIP3    H1 7779   6.109   2.229   3.525
 2605TIP3    H2 7780   6.255   2.242   3.485
 2606TIP3   OH2 7781   4.167   5.552   2.009
 2606TIP3    H1 7782   4.108   5.555   2.084
 2606TIP3    H2 7783   4.145   5.470   1.965
 2607TIP3   OH2 7784   2.277   2.944   2.256
 2607TIP3    H1 7785   2.199   2.938   2.311
 2607TIP3    H2 7786   2.307   2.854   2.245
 2608TIP3   OH2 7787   3.442   1.327   0.444
 2608TIP3    H1 7788   3.375   1.392   0.467
 2608TIP3    H2 7789   3.443   1.327   0.349
 2609TIP3   OH2 7790   7.050   4.879   1.348
 2609TIP3    H1 7791   6.987   4.949   1.337
 2609TIP3    H2 7792   7.135   4.922   1.348
 2610TIP3   OH2 7793   1.070   6.722   3.508
 2610TIP3    H1 7794   1.061   6.715   3.603
 2610TIP3    H2 7795   1.162   6.745   3.495
 2611TIP3   OH2 7796   2.419   3.858   2.067
 2611TIP3    H1 7797   2.413   3.810   2.150
 2611TIP3    H2 7798   2.474   3.933   2.087
 2612TIP3   OH2 7799   1.329   6.336   3.809
 2612TIP3    H1 7800   1.416   6.362   3.777
 2612TIP3    H2 7801   1.275   6.414   3.795
 2613TIP3   OH2 7802   4.228   2.883   3.973
 2613TIP3    H1 7803   4.273   2.933   4.041
 2613TIP3    H2 7804   4.270   2.910   3.891
 2614TIP3   OH2 7805   1.943   4.658   1.865
 2614TIP3    H1 7806   2.014   4.614   1.818
 2614TIP3    H2 7807   1.979   4.744   1.887
 2615TIP3   OH2 7808   4.930   1.194   0.765
 2615TIP3    H1 7809   4.964   1.213   0.677
 2615TIP3    H2 7810   4.975   1.256   0.822
 2616TIP3   OH2 7811   3.158   4.502   2.612
 2616TIP3    H1 7812   3.100   4.578   2.621
 2616TIP3    H2 7813   3.116   4.448   2.545
 2617TIP3   OH2 7814   0.568   6.508   3.295
 2617TIP3    H1 7815   0.608   6.448   3.231
 2617TIP3    H2 7816   0.581   6.465   3.379
 2618TIP3   OH2 7817   3.298   2.097   5.461
 2618TIP3    H1 7818   3.278   2.089   5.368
 2618TIP3    H2 7819   3.253   2.176   5.489
 2619TIP3   OH2 7820   2.961   2.762   1.290
 2619TIP3    H1 7821   2.978   2.849   1.254
 2619TIP3    H2 7822   3.047   2.730   1.317
 2620TIP3   OH2 7823   2.721   4.129   1.732
 2620TIP3    H1 7824   2.814   4.111   1.741
 2620TIP3    H2 7825   2.691   4.146   1.821
 2621TIP3   OH2 7826   5.828   1.603   0.651
 2621TIP3    H1 7827   5.756   1.651   0.692
 2621TIP3    H2 7828   5.907   1.638   0.692
 2622TIP3   OH2 7829   6.526   2.386   2.224
 2622TIP3    H1 7830   6.569   2.465   2.255
 2622TIP3    H2 7831   6.487   2.411   2.140
 2623TIP3   OH2 7832   6.438   3.733   0.583
 2623TIP3    H1 7833   6.523   3.688   0.578
 2623TIP3    H2 7834   6.374   3.664   0.566
 2624TIP3   OH2 7835   3.743   2.551   5.751
 2624TIP3    H1 7836   3.789   2.558   5.667
 2624TIP3    H2 7837   3.813   2.549   5.817
 2625TIP3   OH2 7838   0.478   2.766   4.431
 2625TIP3    H1 7839   0.491   2.760   4.526
 2625TIP3    H2 7840   0.554   2.721   4.394
 2626TIP3   OH2 7841   0.323   3.128   3.860
 2626TIP3    H1 7842   0.275   3.206   3.888
 2626TIP3    H2 7843   0.415   3.154   3.862
 2627TIP3   OH2 7844   2.927   0.319   2.538
 2627TIP3    H1 7845   2.957   0.234   2.569
 2627TIP3    H2 7846   2.977   0.335   2.458
 2628TIP3   OH2 7847   1.192   4.143   1.850
 2628TIP3    H1 7848   1.210   4.098   1.767
 2628TIP3    H2 7849   1.141   4.081   1.901
 2629TIP3   OH2 7850   1.395   2.603   4.480
 2629TIP3    H1 7851   1.335   2.674   4.501
 2629TIP3    H2 7852   1.359   2.563   4.401
 2630TIP3   OH2 7853   5.343   2.151   3.673
 2630TIP3    H1 7854   5.296   2.091   3.731
 2630TIP3    H2 7855   5.283   2.165   3.599
 2631TIP3   OH2 7856   6.668   4.690   1.061
 2631TIP3    H1 7857   6.696   4.671   1.150
 2631TIP3    H2 7858   6.747   4.677   1.008
 2632TIP3   OH2 7859   6.655   5.962   4.885
 2632TIP3    H1 7860   6.693   6.034   4.835
 2632TIP3    H2 7861   6.591   5.923   4.825
 2633TIP3   OH2 7862   1.953   5.255   5.241
 2633TIP3    H1 7863   1.940   5.163   5.264
 2633TIP3    H2 7864   1.870   5.284   5.204
 2634TIP3   OH2 7865   2.924   6.683   2.865
 2634TIP3    H1 7866   2.981   6.641   2.800
 2634TIP3    H2 7867   2.863   6.614   2.891
 2635TIP3   OH2 7868   2.526   1.114   5.322
 2635TIP3    H1 7869   2.588   1.144   5.389
 2635TIP3    H2 7870   2.515   1.190   5.265
 2636TIP3   OH2 7871   0.977   0.372   1.490
 2636TIP3    H1 7872   0.994   0.444   1.429
 2636TIP3    H2 7873   0.884   0.353   1.480
 2637TIP3   OH2 7874   4.459   3.187   4.243
 2637TIP3    H1 7875   4.410   3.213   4.321
 2637TIP3    H2 7876   4.543   3.232   4.252
 2638TIP3   OH2 7877   5.758   2.747   0.312
 2638TIP3    H1 7878   5.785   2.656   0.300
 2638TIP3    H2 7879   5.701   2.745   0.389
 2639TIP3   OH2 7880   4.708   3.158   3.428
 2639TIP3    H1 7881   4.622   3.169   3.387
 2639TIP3    H2 7882   4.707   3.068   3.460
 2640TIP3   OH2 7883   2.046   6.095   0.553
 2640TIP3    H1 7884   1.957   6.110   0.520
 2640TIP3    H2 7885   2.082   6.028   0.495
 2641TIP3   OH2 7886   3.790   6.360   3.389
 2641TIP3    H1 7887   3.694   6.361   3.384
 2641TIP3    H2 7888   3.812   6.438   3.441
 2642TIP3   OH2 7889   6.325   0.440   5.702
 2642TIP3    H1 7890   6.254   0.480   5.753
 2642TIP3    H2 7891   6.349   0.362   5.752
 2643TIP3   OH2 7892   1.931   3.921   5.669
 2643TIP3    H1 7893   1.934   3.884   5.757
 2643TIP3    H2 7894   1.838   3.919   5.645
 2644TIP3   OH2 7895   6.471   3.573   3.257
 2644TIP3    H1 7896   6.542   3.526   3.300
 2644TIP3    H2 7897   6.401   3.509   3.247
 2645TIP3   OH2 7898   4.871   0.637   5.257
 2645TIP3    H1 7899   4.802   0.669   5.315
 2645TIP3    H2 7900   4.874   0.701   5.186
 2646TIP3   OH2 7901   5.797   6.201   5.678
 2646TIP3    H1 7902   5.815   6.238   5.765
 2646TIP3    H2 7903   5.868   6.138   5.664
 2647TIP3   OH2 7904   0.737   3.049   0.352
 2647TIP3    H1 7905   0.796   2.974   0.340
 2647TIP3    H2 7906   0.670   3.018   0.413
 2648TIP3   OH2 7907   4.306   0.613   4.482
 2648TIP3    H1 7908   4.336   0.684   4.426
 2648TIP3    H2 7909   4.386   0.570   4.512
 2649TIP3   OH2 7910   4.159   3.465   3.404
 2649TIP3    H1 7911   4.065   3.479   3.418
 2649TIP3    H2 7912   4.188   3.421   3.484
 2650TIP3   OH2 7913   5.251   4.211   5.396
 2650TIP3    H1 7914   5.274   4.303   5.384
 2650TIP3    H2 7915   5.315   4.178   5.458
 2651TIP3   OH2 7916   5.200   0.628   0.542
 2651TIP3    H1 7917   5.145   0.590   0.474
 2651TIP3    H2 7918   5.143   0.694   0.584
 2652TIP3   OH2 7919   3.634   2.513   2.195
 2652TIP3    H1 7920   3.554   2.476   2.157
 2652TIP3    H2 7921   3.643   2.598   2.152
 2653TIP3   OH2 7922   1.799   1.666   3.138
 2653TIP3    H1 7923   1.865   1.598   3.126
 2653TIP3    H2 7924   1.733   1.626   3.194
 2654TIP3   OH2 7925   2.636   1.910   1.746
 2654TIP3    H1 7926   2.571   1.949   1.804
 2654TIP3    H2 7927   2.591   1.900   1.662
 2655TIP3   OH2 7928   6.012   4.232   0.600
 2655TIP3    H1 7929   6.010   4.193   0.512
 2655TIP3    H2 7930   5.992   4.160   0.659
 2656TIP3   OH2 7931   5.760   3.236   3.880
 2656TIP3    H1 7932   5.774   3.253   3.787
 2656TIP3    H2 7933   5.725   3.147   3.883
 2657TIP3   OH2 7934   4.452   0.449   2.534
 2657TIP3    H1 7935   4.492   0.518   2.481
 2657TIP3    H2 7936   4.484   0.367   2.495
 2658TIP3   OH2 7937   3.792   6.076   1.227
 2658TIP3    H1 7938   3.718   6.061   1.287
 2658TIP3    H2 7939   3.775   6.019   1.153
 2659TIP3   OH2 7940   6.523   1.490   2.851
 2659TIP3    H1 7941   6.481   1.405   2.865
 2659TIP3    H2 7942   6.606   1.482   2.898
 2660TIP3   OH2 7943   4.252   4.341   1.012
 2660TIP3    H1 7944   4.272   4.433   1.025
 2660TIP3    H2 7945   4.334   4.302   0.982
 2661TIP3   OH2 7946   5.221   0.042   0.248
 2661TIP3    H1 7947   5.132   0.076   0.238
 2661TIP3    H2 7948   5.224   0.010   0.338
 2662TIP3   OH2 7949   2.807   1.976   0.204
 2662TIP3    H1 7950   2.881   2.004   0.151
 2662TIP3    H2 7951   2.823   1.883   0.220
 2663TIP3   OH2 7952   4.274   3.871   4.098
 2663TIP3    H1 7953   4.323   3.883   4.179
 2663TIP3    H2 7954   4.329   3.812   4.046
 2664TIP3   OH2 7955   1.105   4.416   2.568
 2664TIP3    H1 7956   1.137   4.397   2.480
 2664TIP3    H2 7957   1.153   4.495   2.593
 2665TIP3   OH2 7958   3.135   0.223   5.771
 2665TIP3    H1 7959   3.222   0.260   5.785
 2665TIP3    H2 7960   3.090   0.287   5.715
 2666TIP3   OH2 7961   1.173   5.054   0.698
 2666TIP3    H1 7962   1.117   5.114   0.747
 2666TIP3    H2 7963   1.143   5.061   0.608
 2667TIP3   OH2 7964   4.430   0.862   1.742
 2667TIP3    H1 7965   4.459   0.815   1.664
 2667TIP3    H2 7966   4.341   0.891   1.722
 2668TIP3   OH2 7967   0.513   1.128   2.446
 2668TIP3    H1 7968   0.428   1.090   2.469
 2668TIP3    H2 7969   0.572   1.098   2.515
 2669TIP3   OH2 7970   7.115   4.493   1.966
 2669TIP3    H1 7971   7.134   4.587   1.967
 2669TIP3    H2 7972   7.019   4.488   1.966
 2670TIP3   OH2 7973   1.833   6.733   2.485
 2670TIP3    H1 7974   1.796   6.647   2.506
 2670TIP3    H2 7975   1.836   6.779   2.569
 2671TIP3   OH2 7976   0.853   3.232   2.188
 2671TIP3    H1 7977   0.782   3.171   2.209
 2671TIP3    H2 7978   0.821   3.281   2.112
 2672TIP3   OH2 7979   0.134   1.071   3.232
 2672TIP3    H1 7980   0.190   1.009   3.280
 2672TIP3    H2 7981   0.124   1.032   3.146
 2673TIP3   OH2 7982   2.021   6.054   4.920
 2673TIP3    H1 7983   2.085   6.125   4.921
 2673TIP3    H2 7984   1.954   6.082   4.857
 2674TIP3   OH2 7985   0.752   6.699   5.649
 2674TIP3    H1 7986   0.743   6.784   5.604
 2674TIP3    H2 7987   0.836   6.705   5.693
 2675TIP3   OH2 7988   6.433   3.613   3.987
 2675TIP3    H1 7989   6.369   3.542   3.977
 2675TIP3    H2 7990   6.382   3.687   4.021
 2676TIP3   OH2 7991   5.363   3.041   5.434
 2676TIP3    H1 7992   5.329   3.104   5.370
 2676TIP3    H2 7993   5.361   2.957   5.388
 2677TIP3   OH2 7994   3.618   0.853   4.739
 2677TIP3    H1 7995   3.538   0.801   4.726
 2677TIP3    H2 7996   3.689   0.790   4.730
 2678TIP3   OH2 7997   1.253   6.590   0.712
 2678TIP3    H1 7998   1.233   6.577   0.805
 2678TIP3    H2 7999   1.295   6.676   0.709
 2679TIP3   OH2 8000   4.457   0.977   1.270
 2679TIP3    H1 8001   4.493   1.007   1.186
 2679TIP3    H2 8002   4.386   0.918   1.246
 2680TIP3   OH2 8003   6.684   6.344   0.864
 2680TIP3    H1 8004   6.747   6.415   0.873
 2680TIP3    H2 8005   6.738   6.268   0.839
 2681TIP3   OH2 8006   3.823   2.952   1.376
 2681TIP3    H1 8007   3.853   3.042   1.387
 2681TIP3    H2 8008   3.897   2.898   1.404
 2682TIP3   OH2 8009   6.397   1.054   0.567
 2682TIP3    H1 8010   6.306   1.041   0.538
 2682TIP3    H2 8011   6.389   1.094   0.654
 2683TIP3   OH2 8012   1.530   0.316   5.044
 2683TIP3    H1 8013   1.564   0.236   5.084
 2683TIP3    H2 8014   1.579   0.386   5.086
 2684TIP3   OH2 8015   4.554   5.444   2.625
 2684TIP3    H1 8016   4.553   5.435   2.530
 2684TIP3    H2 8017   4.647   5.439   2.648
 2685TIP3   OH2 8018   2.068   3.467   5.352
 2685TIP3    H1 8019   2.025   3.551   5.366
 2685TIP3    H2 8020   2.075   3.428   5.440
 2686TIP3   OH2 8021   2.446   1.643   5.128
 2686TIP3    H1 8022   2.386   1.569   5.117
 2686TIP3    H2 8023   2.524   1.618   5.079
 2687TIP3   OH2 8024   4.866   4.306   4.155
 2687TIP3    H1 8025   4.786   4.260   4.129
 2687TIP3    H2 8026   4.925   4.294   4.081
 2688TIP3   OH2 8027   6.956   6.762   0.596
 2688TIP3    H1 8028   6.899   6.773   0.672
 2688TIP3    H2 8029   6.897   6.743   0.524
 2689TIP3   OH2 8030   2.310   2.387   0.513
 2689TIP3    H1 8031   2.348   2.357   0.430
 2689TIP3    H2 8032   2.293   2.307   0.562
 2690TIP3   OH2 8033   3.237   6.417   3.352
 2690TIP3    H1 8034   3.245   6.375   3.266
 2690TIP3    H2 8035   3.318   6.466   3.362
 2691TIP3   OH2 8036   3.497   0.792   0.751
 2691TIP3    H1 8037   3.418   0.817   0.703
 2691TIP3    H2 8038   3.489   0.697   0.761
 2692TIP3   OH2 8039   1.619   1.923   1.411
 2692TIP3    H1 8040   1.527   1.949   1.411
 2692TIP3    H2 8041   1.617   1.827   1.410
 2693TIP3   OH2 8042   6.820   3.165   0.760
 2693TIP3    H1 8043   6.805   3.115   0.840
 2693TIP3    H2 8044   6.907   3.140   0.731
 2694TIP3   OH2 8045   3.173   4.891   2.972
 2694TIP3    H1 8046   3.240   4.959   2.982
 2694TIP3    H2 8047   3.191   4.829   3.043
 2695TIP3   OH2 8048   0.368   1.168   0.967
 2695TIP3    H1 8049   0.363   1.073   0.977
 2695TIP3    H2 8050   0.293   1.202   1.015
 2696TIP3   OH2 8051   2.078   0.186   4.149
 2696TIP3    H1 8052   2.148   0.216   4.091
 2696TIP3    H2 8053   2.120   0.122   4.205
 2697TIP3   OH2 8054   4.859   1.193   4.629
 2697TIP3    H1 8055   4.766   1.212   4.647
 2697TIP3    H2 8056   4.905   1.228   4.706
 2698TIP3   OH2 8057   4.065   5.254   2.104
 2698TIP3    H1 8058   4.160   5.256   2.105
 2698TIP3    H2 8059   4.042   5.274   2.013
 2699TIP3   OH2 8060   4.009   3.618   1.710
 2699TIP3    H1 8061   3.957   3.624   1.630
 2699TIP3    H2 8062   4.019   3.524   1.724
 2700TIP3   OH2 8063   3.109   6.768   1.423
 2700TIP3    H1 8064   3.042   6.738   1.484
 2700TIP3    H2 8065   3.067   6.839   1.375
 2701TIP3   OH2 8066   4.342   6.250   0.109
 2701TIP3    H1 8067   4.353   6.339   0.075
 2701TIP3    H2 8068   4.334   6.195   0.031
 2702TIP3   OH2 8069   7.099   3.742   4.243
 2702TIP3    H1 8070   7.044   3.686   4.298
 2702TIP3    H2 8071   7.084   3.710   4.154
 2703TIP3   OH2 8072   6.373   2.663   0.209
 2703TIP3    H1 8073   6.326   2.631   0.286
 2703TIP3    H2 8074   6.329   2.622   0.134
 2704TIP3   OH2 8075   2.617   4.569   0.208
 2704TIP3    H1 8076   2.562   4.498   0.241
 2704TIP3    H2 8077   2.559   4.645   0.207
 2705TIP3   OH2 8078   0.399   6.417   5.045
 2705TIP3    H1 8079   0.345   6.494   5.065
 2705TIP3    H2 8080   0.359   6.347   5.096
 2706TIP3   OH2 8081   2.350   3.636   0.923
 2706TIP3    H1 8082   2.258   3.624   0.900
 2706TIP3    H2 8083   2.371   3.562   0.980
 2707TIP3   OH2 8084   5.795   1.419   1.326
 2707TIP3    H1 8085   5.717   1.378   1.287
 2707TIP3    H2 8086   5.853   1.346   1.347
 2708TIP3   OH2 8087   1.577   3.370   1.840
 2708TIP3    H1 8088   1.645   3.383   1.775
 2708TIP3    H2 8089   1.496   3.397   1.796
 2709TIP3   OH2 8090   4.009   4.454   2.677
 2709TIP3    H1 8091   4.051   4.369   2.660
 2709TIP3    H2 8092   3.998   4.493   2.591
 2710TIP3   OH2 8093   0.062   2.222   5.303
 2710TIP3    H1 8094   0.117   2.170   5.361
 2710TIP3    H2 8095   0.057   2.170   5.222
 2711TIP3   OH2 8096   1.960   5.799   5.699
 2711TIP3    H1 8097   1.906   5.830   5.772
 2711TIP3    H2 8098   1.899   5.782   5.628
 2712TIP3   OH2 8099   1.621   6.610   2.742
 2712TIP3    H1 8100   1.542   6.608   2.797
 2712TIP3    H2 8101   1.640   6.703   2.732
 2713TIP3   OH2 8102   5.687   0.542   0.883
 2713TIP3    H1 8103   5.681   0.452   0.850
 2713TIP3    H2 8104   5.700   0.595   0.805
 2714TIP3   OH2 8105   4.014   2.802   3.507
 2714TIP3    H1 8106   4.036   2.834   3.594
 2714TIP3    H2 8107   4.037   2.709   3.510
 2715TIP3   OH2 8108   5.174   1.310   1.883
 2715TIP3    H1 8109   5.104   1.318   1.948
 2715TIP3    H2 8110   5.169   1.220   1.852
 2716TIP3   OH2 8111   0.967   4.184   5.156
 2716TIP3    H1 8112   0.965   4.274   5.188
 2716TIP3    H2 8113   0.881   4.171   5.115
 2717TIP3   OH2 8114   1.208   4.121   2.510
 2717TIP3    H1 8115   1.163   4.190   2.559
 2717TIP3    H2 8116   1.142   4.086   2.451
 2718TIP3   OH2 8117   3.381   3.780   4.476
 2718TIP3    H1 8118   3.363   3.723   4.401
 2718TIP3    H2 8119   3.411   3.721   4.545
 2719TIP3   OH2 8120   4.120   5.584   0.554
 2719TIP3    H1 8121   4.096   5.521   0.622
 2719TIP3    H2 8122   4.210   5.561   0.531
 2720TIP3   OH2 8123   4.378   3.364   5.725
 2720TIP3    H1 8124   4.430   3.386   5.802
 2720TIP3    H2 8125   4.332   3.283   5.749
 2721TIP3   OH2 8126   6.708   1.955   3.550
 2721TIP3    H1 8127   6.643   2.014   3.513
 2721TIP3    H2 8128   6.772   2.013   3.591
 2722TIP3   OH2 8129   3.883   3.381   3.376
 2722TIP3    H1 8130   3.810   3.376   3.315
 2722TIP3    H2 8131   3.862   3.317   3.444
 2723TIP3   OH2 8132   2.215   6.371   1.333
 2723TIP3    H1 8133   2.307   6.398   1.337
 2723TIP3    H2 8134   2.176   6.432   1.270
 2724TIP3   OH2 8135   2.305   5.809   5.799
 2724TIP3    H1 8136   2.294   5.888   5.747
 2724TIP3    H2 8137   2.395   5.782   5.784
 2725TIP3   OH2 8138   1.693   6.554   3.913
 2725TIP3    H1 8139   1.638   6.613   3.862
 2725TIP3    H2 8140   1.742   6.611   3.972
 2726TIP3   OH2 8141   2.942   4.088   5.051
 2726TIP3    H1 8142   2.985   4.120   4.972
 2726TIP3    H2 8143   2.868   4.037   5.018
 2727TIP3   OH2 8144   1.840   5.806   1.038
 2727TIP3    H1 8145   1.873   5.896   1.040
 2727TIP3    H2 8146   1.907   5.757   0.991
 2728TIP3   OH2 8147   7.007   6.087   0.523
 2728TIP3    H1 8148   7.004   5.992   0.510
 2728TIP3    H2 8149   6.917   6.116   0.506
 2729TIP3   OH2 8150   3.577   3.606   1.590
 2729TIP3    H1 8151   3.630   3.618   1.668
 2729TIP3    H2 8152   3.500   3.661   1.604
 2730TIP3   OH2 8153   3.292   5.817   2.866
 2730TIP3    H1 8154   3.239   5.873   2.809
 2730TIP3    H2 8155   3.233   5.795   2.939
 2731TIP3   OH2 8156   6.037   4.976   2.361
 2731TIP3    H1 8157   6.100   4.989   2.431
 2731TIP3    H2 8158   6.084   4.925   2.295
 2732TIP3   OH2 8159   5.291   0.443   3.002
 2732TIP3    H1 8160   5.336   0.514   2.956
 2732TIP3    H2 8161   5.304   0.463   3.095
 2733TIP3   OH2 8162   4.932   1.375   2.038
 2733TIP3    H1 8163   4.953   1.296   2.088
 2733TIP3    H2 8164   4.836   1.378   2.037
 2734TIP3   OH2 8165   5.793   2.318   1.433
 2734TIP3    H1 8166   5.822   2.395   1.384
 2734TIP3    H2 8167   5.753   2.354   1.513
 2735TIP3   OH2 8168   2.655   0.098   3.630
 2735TIP3    H1 8169   2.625   0.027   3.688
 2735TIP3    H2 8170   2.750   0.100   3.644
 2736TIP3   OH2 8171   3.237   4.428   0.761
 2736TIP3    H1 8172   3.302   4.427   0.831
 2736TIP3    H2 8173   3.174   4.494   0.788
 2737TIP3   OH2 8174   2.913   0.678   3.490
 2737TIP3    H1 8175   2.860   0.735   3.434
 2737TIP3    H2 8176   2.860   0.600   3.504
 2738TIP3   OH2 8177   4.250   2.626   5.318
 2738TIP3    H1 8178   4.224   2.706   5.362
 2738TIP3    H2 8179   4.167   2.578   5.305
 2739TIP3   OH2 8180   1.087   1.511   2.270
 2739TIP3    H1 8181   1.065   1.509   2.177
 2739TIP3    H2 8182   1.011   1.473   2.314
 2740TIP3   OH2 8183   4.333   0.598   3.755
 2740TIP3    H1 8184   4.354   0.527   3.694
 2740TIP3    H2 8185   4.321   0.675   3.700
 2741TIP3   OH2 8186   2.643   4.083   3.544
 2741TIP3    H1 8187   2.734   4.064   3.569
 2741TIP3    H2 8188   2.641   4.071   3.449
 2742TIP3   OH2 8189   4.685   4.292   5.548
 2742TIP3    H1 8190   4.678   4.333   5.634
 2742TIP3    H2 8191   4.747   4.348   5.500
 2743TIP3   OH2 8192   0.606   2.020   2.339
 2743TIP3    H1 8193   0.572   1.931   2.348
 2743TIP3    H2 8194   0.700   2.008   2.329
 2744TIP3   OH2 8195   6.028   5.488   1.331
 2744TIP3    H1 8196   5.953   5.445   1.290
 2744TIP3    H2 8197   6.018   5.580   1.307
 2745TIP3   OH2 8198   5.524   2.802   3.510
 2745TIP3    H1 8199   5.542   2.797   3.416
 2745TIP3    H2 8200   5.439   2.759   3.520
 2746TIP3   OH2 8201   0.110   5.302   4.205
 2746TIP3    H1 8202   0.175   5.370   4.187
 2746TIP3    H2 8203   0.120   5.239   4.134
 2747TIP3   OH2 8204   3.243   4.260   5.760
 2747TIP3    H1 8205   3.175   4.301   5.813
 2747TIP3    H2 8206   3.302   4.220   5.824
 2748TIP3   OH2 8207   1.368   1.485   1.558
 2748TIP3    H1 8208   1.301   1.491   1.491
 2748TIP3    H2 8209   1.441   1.537   1.525
 2749TIP3   OH2 8210   6.865   0.731   3.795
 2749TIP3    H1 8211   6.960   0.733   3.792
 2749TIP3    H2 8212   6.839   0.669   3.727
 2750TIP3   OH2 8213   0.838   4.631   3.157
 2750TIP3    H1 8214   0.932   4.632   3.175
 2750TIP3    H2 8215   0.808   4.546   3.187
 2751TIP3   OH2 8216   5.586   0.244   1.784
 2751TIP3    H1 8217   5.564   0.327   1.741
 2751TIP3    H2 8218   5.578   0.262   1.877
 2752TIP3   OH2 8219   1.146   0.256   1.997
 2752TIP3    H1 8220   1.081   0.222   1.936
 2752TIP3    H2 8221   1.164   0.345   1.967
 2753TIP3   OH2 8222   6.823   5.686   4.848
 2753TIP3    H1 8223   6.756   5.620   4.833
 2753TIP3    H2 8224   6.834   5.688   4.943
 2754TIP3   OH2 8225   1.171   4.481   1.371
 2754TIP3    H1 8226   1.261   4.453   1.355
 2754TIP3    H2 8227   1.137   4.417   1.434
 2755TIP3   OH2 8228   3.304   0.942   0.953
 2755TIP3    H1 8229   3.285   0.886   1.029
 2755TIP3    H2 8230   3.398   0.959   0.958
 2756TIP3   OH2 8231   6.221   3.384   4.365
 2756TIP3    H1 8232   6.236   3.434   4.285
 2756TIP3    H2 8233   6.137   3.418   4.398
 2757TIP3   OH2 8234   2.748   1.263   3.357
 2757TIP3    H1 8235   2.777   1.227   3.273
 2757TIP3    H2 8236   2.658   1.289   3.342
 2758TIP3   OH2 8237   0.927   0.658   3.112
 2758TIP3    H1 8238   0.944   0.654   3.206
 2758TIP3    H2 8239   0.847   0.607   3.099
 2759TIP3   OH2 8240   2.047   3.394   3.112
 2759TIP3    H1 8241   1.980   3.328   3.121
 2759TIP3    H2 8242   2.000   3.477   3.109
 2760TIP3   OH2 8243   3.094   5.049   2.421
 2760TIP3    H1 8244   3.106   5.039   2.515
 2760TIP3    H2 8245   3.000   5.036   2.408
 2761TIP3   OH2 8246   4.130   3.294   3.166
 2761TIP3    H1 8247   4.101   3.345   3.241
 2761TIP3    H2 8248   4.058   3.234   3.148
 2762TIP3   OH2 8249   4.645   2.928   4.483
 2762TIP3    H1 8250   4.684   2.926   4.570
 2762TIP3    H2 8251   4.576   2.994   4.489
 2763TIP3   OH2 8252   4.674   5.755   2.135
 2763TIP3    H1 8253   4.602   5.708   2.094
 2763TIP3    H2 8254   4.632   5.822   2.189
 2764TIP3   OH2 8255   3.670   2.761   0.152
 2764TIP3    H1 8256   3.741   2.705   0.120
 2764TIP3    H2 8257   3.707   2.802   0.230
 2765TIP3   OH2 8258   1.831   3.521   1.027
 2765TIP3    H1 8259   1.899   3.456   1.046
 2765TIP3    H2 8260   1.845   3.590   1.092
 2766TIP3   OH2 8261   0.043   1.784   0.042
 2766TIP3    H1 8262   0.130   1.825   0.043
 2766TIP3    H2 8263   0.044   1.725   0.117
 2767TIP3   OH2 8264   3.742   4.923   2.054
 2767TIP3    H1 8265   3.687   4.973   2.113
 2767TIP3    H2 8266   3.829   4.924   2.094
 2768TIP3   OH2 8267   0.144   5.198   2.617
 2768TIP3    H1 8268   0.223   5.145   2.607
 2768TIP3    H2 8269   0.177   5.284   2.644
 2769TIP3   OH2 8270   6.850   5.462   5.100
 2769TIP3    H1 8271   6.921   5.525   5.113
 2769TIP3    H2 8272   6.894   5.380   5.079
 2770TIP3   OH2 8273   4.159   3.415   0.107
 2770TIP3    H1 8274   4.076   3.443   0.146
 2770TIP3    H2 8275   4.136   3.341   0.051
 2771TIP3   OH2 8276   6.774   5.591   0.495
 2771TIP3    H1 8277   6.862   5.612   0.525
 2771TIP3    H2 8278   6.736   5.675   0.470
 2772TIP3   OH2 8279   1.512   5.355   4.307
 2772TIP3    H1 8280   1.442   5.327   4.367
 2772TIP3    H2 8281   1.534   5.444   4.337
 2773TIP3   OH2 8282   1.179   3.567   3.307
 2773TIP3    H1 8283   1.178   3.527   3.220
 2773TIP3    H2 8284   1.097   3.616   3.312
 2774TIP3   OH2 8285   4.628   1.845   1.532
 2774TIP3    H1 8286   4.635   1.775   1.467
 2774TIP3    H2 8287   4.714   1.846   1.575
 2775TIP3   OH2 8288   3.758   3.720   3.255
 2775TIP3    H1 8289   3.706   3.666   3.314
 2775TIP3    H2 8290   3.712   3.804   3.251
 2776TIP3   OH2 8291   3.793   0.856   2.820
 2776TIP3    H1 8292   3.777   0.908   2.898
 2776TIP3    H2 8293   3.733   0.891   2.754
 2777TIP3   OH2 8294   5.412   2.078   0.083
 2777TIP3    H1 8295   5.485   2.073   0.144
 2777TIP3    H2 8296   5.442   2.031   0.005
 2778TIP3   OH2 8297   5.432   1.167   2.513
 2778TIP3    H1 8298   5.523   1.165   2.483
 2778TIP3    H2 8299   5.420   1.255   2.548
 2779TIP3   OH2 8300   2.059   6.474   3.276
 2779TIP3    H1 8301   1.978   6.473   3.327
 2779TIP3    H2 8302   2.118   6.414   3.323
 2780TIP3   OH2 8303   0.340   4.594   1.281
 2780TIP3    H1 8304   0.340   4.679   1.325
 2780TIP3    H2 8305   0.407   4.543   1.327
 2781TIP3   OH2 8306   6.839   5.355   3.782
 2781TIP3    H1 8307   6.775   5.331   3.849
 2781TIP3    H2 8308   6.786   5.394   3.712
 2782TIP3   OH2 8309   2.940   1.008   5.523
 2782TIP3    H1 8310   2.960   1.071   5.453
 2782TIP3    H2 8311   2.900   0.934   5.478
 2783TIP3   OH2 8312   5.708   0.911   4.104
 2783TIP3    H1 8313   5.770   0.864   4.048
 2783TIP3    H2 8314   5.651   0.958   4.043
 2784TIP3   OH2 8315   1.176   2.733   4.625
 2784TIP3    H1 8316   1.143   2.818   4.655
 2784TIP3    H2 8317   1.182   2.679   4.703
 2785TIP3   OH2 8318   2.305   4.274   0.975
 2785TIP3    H1 8319   2.309   4.291   1.069
 2785TIP3    H2 8320   2.283   4.359   0.936
 2786TIP3   OH2 8321   3.266   3.638   2.136
 2786TIP3    H1 8322   3.355   3.616   2.162
 2786TIP3    H2 8323   3.211   3.594   2.201
 2787TIP3   OH2 8324   0.591   1.185   4.075
 2787TIP3    H1 8325   0.654   1.152   4.138
 2787TIP3    H2 8326   0.506   1.177   4.119
 2788TIP3   OH2 8327   7.075   2.083   2.536
 2788TIP3    H1 8328   7.047   2.017   2.472
 2788TIP3    H2 8329   7.016   2.157   2.521
 2789TIP3   OH2 8330   2.763   4.317   1.559
 2789TIP3    H1 8331   2.752   4.259   1.635
 2789TIP3    H2 8332   2.785   4.402   1.597
 2790TIP3   OH2 8333   3.609   5.232   1.686
 2790TIP3    H1 8334   3.564   5.315   1.703
 2790TIP3    H2 8335   3.576   5.204   1.601
 2791TIP3   OH2 8336   3.288   2.336   2.811
 2791TIP3    H1 8337   3.258   2.262   2.864
 2791TIP3    H2 8338   3.240   2.412   2.846
 2792TIP3   OH2 8339   6.956   5.196   5.034
 2792TIP3    H1 8340   6.971   5.102   5.045
 2792TIP3    H2 8341   6.939   5.207   4.941
 2793TIP3   OH2 8342   3.844   5.565   2.168
 2793TIP3    H1 8343   3.812   5.515   2.093
 2793TIP3    H2 8344   3.768   5.577   2.224
 2794TIP3   OH2 8345   7.127   6.695   1.754
 2794TIP3    H1 8346   7.145   6.691   1.660
 2794TIP3    H2 8347   7.063   6.626   1.770
 2795TIP3   OH2 8348   0.758   6.453   0.371
 2795TIP3    H1 8349   0.843   6.409   0.377
 2795TIP3    H2 8350   0.773   6.539   0.410
 2796TIP3   OH2 8351   5.066   2.344   3.156
 2796TIP3    H1 8352   5.008   2.305   3.090
 2796TIP3    H2 8353   5.141   2.285   3.159
 2797TIP3   OH2 8354   6.412   4.572   4.250
 2797TIP3    H1 8355   6.500   4.585   4.215
 2797TIP3    H2 8356   6.415   4.609   4.338
 2798TIP3   OH2 8357   2.607   4.297   1.010
 2798TIP3    H1 8358   2.557   4.376   0.990
 2798TIP3    H2 8359   2.642   4.269   0.925
 2799TIP3   OH2 8360   5.947   4.361   0.882
 2799TIP3    H1 8361   5.917   4.270   0.873
 2799TIP3    H2 8362   5.893   4.397   0.952
 2800TIP3   OH2 8363   5.233   2.260   0.359
 2800TIP3    H1 8364   5.310   2.234   0.409
 2800TIP3    H2 8365   5.178   2.306   0.422
 2801TIP3   OH2 8366   7.205   0.704   0.178
 2801TIP3    H1 8367   7.202   0.663   0.264
 2801TIP3    H2 8368   7.173   0.793   0.192
 2802TIP3   OH2 8369   5.341   0.503   3.270
 2802TIP3    H1 8370   5.279   0.570   3.242
 2802TIP3    H2 8371   5.370   0.532   3.357
 2803TIP3   OH2 8372   0.947   2.964   2.628
 2803TIP3    H1 8373   0.892   2.885   2.621
 2803TIP3    H2 8374   0.887   3.031   2.661
 2804TIP3   OH2 8375   5.475   2.916   2.062
 2804TIP3    H1 8376   5.456   2.861   2.138
 2804TIP3    H2 8377   5.404   2.980   2.060
 2805TIP3   OH2 8378   6.601   0.129   5.415
 2805TIP3    H1 8379   6.609   0.109   5.509
 2805TIP3    H2 8380   6.638   0.053   5.371
 2806TIP3   OH2 8381   1.280   5.963   2.152
 2806TIP3    H1 8382   1.199   6.006   2.124
 2806TIP3    H2 8383   1.339   6.035   2.172
 2807TIP3   OH2 8384   7.171   2.179   3.069
 2807TIP3    H1 8385   7.098   2.197   3.009
 2807TIP3    H2 8386   7.194   2.088   3.052
 2808TIP3   OH2 8387   3.142   1.116   3.771
 2808TIP3    H1 8388   3.161   1.205   3.742
 2808TIP3    H2 8389   3.138   1.065   3.690
 2809TIP3   OH2 8390   4.069   1.732   3.924
 2809TIP3    H1 8391   4.102   1.745   4.012
 2809TIP3    H2 8392   4.065   1.820   3.886
 2810TIP3   OH2 8393   6.495   3.471   4.238
 2810TIP3    H1 8394   6.467   3.492   4.149
 2810TIP3    H2 8395   6.468   3.548   4.289
 2811TIP3   OH2 8396   0.109   2.416   4.222
 2811TIP3    H1 8397   0.138   2.335   4.180
 2811TIP3    H2 8398   0.018   2.399   4.247
 2812TIP3   OH2 8399   5.594   6.209   1.287
 2812TIP3    H1 8400   5.545   6.287   1.313
 2812TIP3    H2 8401   5.666   6.203   1.350
 2813TIP3   OH2 8402   1.852   6.066   0.904
 2813TIP3    H1 8403   1.783   6.131   0.920
 2813TIP3    H2 8404   1.933   6.115   0.911
 2814TIP3   OH2 8405   2.463   3.012   5.267
 2814TIP3    H1 8406   2.529   2.943   5.274
 2814TIP3    H2 8407   2.402   2.980   5.199
 2815TIP3   OH2 8408   0.910   2.073   1.713
 2815TIP3    H1 8409   0.854   2.009   1.668
 2815TIP3    H2 8410   0.999   2.045   1.693
 2816TIP3   OH2 8411   4.140   4.204   3.990
 2816TIP3    H1 8412   4.147   4.286   3.940
 2816TIP3    H2 8413   4.199   4.144   3.945
 2817TIP3   OH2 8414   0.219   1.688   1.346
 2817TIP3    H1 8415   0.164   1.653   1.276
 2817TIP3    H2 8416   0.308   1.674   1.316
 2818TIP3   OH2 8417   2.824   0.466   4.649
 2818TIP3    H1 8418   2.840   0.559   4.662
 2818TIP3    H2 8419   2.904   0.423   4.677
 2819TIP3   OH2 8420   6.323   5.808   3.070
 2819TIP3    H1 8421   6.232   5.783   3.054
 2819TIP3    H2 8422   6.326   5.830   3.163
 2820TIP3   OH2 8423   6.838   6.314   1.262
 2820TIP3    H1 8424   6.885   6.240   1.301
 2820TIP3    H2 8425   6.876   6.323   1.174
 2821TIP3   OH2 8426   3.122   4.946   3.774
 2821TIP3    H1 8427   3.215   4.953   3.797
 2821TIP3    H2 8428   3.078   5.003   3.836
 2822TIP3   OH2 8429   0.744   3.626   0.192
 2822TIP3    H1 8430   0.822   3.646   0.245
 2822TIP3    H2 8431   0.709   3.546   0.230
 2823TIP3   OH2 8432   1.245   5.931   3.558
 2823TIP3    H1 8433   1.327   5.921   3.606
 2823TIP3    H2 8434   1.221   5.841   3.532
 2824TIP3   OH2 8435   6.905   4.613   0.884
 2824TIP3    H1 8436   6.910   4.523   0.852
 2824TIP3    H2 8437   6.955   4.612   0.966
 2825TIP3   OH2 8438   3.852   6.653   0.243
 2825TIP3    H1 8439   3.868   6.677   0.334
 2825TIP3    H2 8440   3.880   6.561   0.237
 2826TIP3   OH2 8441   4.430   0.748   4.250
 2826TIP3    H1 8442   4.516   0.788   4.258
 2826TIP3    H2 8443   4.446   0.665   4.204
 2827TIP3   OH2 8444   6.334   6.179   5.252
 2827TIP3    H1 8445   6.369   6.247   5.311
 2827TIP3    H2 8446   6.305   6.110   5.311
 2828TIP3   OH2 8447   7.124   1.596   3.020
 2828TIP3    H1 8448   7.054   1.642   2.975
 2828TIP3    H2 8449   7.109   1.503   3.001
 2829TIP3   OH2 8450   0.785   0.053   5.663
 2829TIP3    H1 8451   0.749  -0.030   5.631
 2829TIP3    H2 8452   0.738   0.120   5.613
 2830TIP3   OH2 8453   5.439   4.867   0.315
 2830TIP3    H1 8454   5.460   4.833   0.228
 2830TIP3    H2 8455   5.388   4.946   0.299
 2831TIP3   OH2 8456   0.035   1.568   4.967
 2831TIP3    H1 8457   0.101   1.508   5.002
 2831TIP3    H2 8458   0.060   1.579   4.875
 2832TIP3   OH2 8459   0.617   3.570   2.396
 2832TIP3    H1 8460   0.537   3.569   2.344
 2832TIP3    H2 8461   0.592   3.615   2.477
 2833TIP3   OH2 8462   0.712   0.476   3.065
 2833TIP3    H1 8463   0.694   0.382   3.067
 2833TIP3    H2 8464   0.683   0.504   2.979
 2834TIP3   OH2 8465   0.460   5.644   1.419
 2834TIP3    H1 8466   0.448   5.735   1.390
 2834TIP3    H2 8467   0.385   5.598   1.380
 2835TIP3   OH2 8468   0.652   0.174   1.015
 2835TIP3    H1 8469   0.699   0.246   0.973
 2835TIP3    H2 8470   0.606   0.215   1.088
 2836TIP3   OH2 8471   0.027   1.828   5.670
 2836TIP3    H1 8472  -0.047   1.800   5.616
 2836TIP3    H2 8473   0.087   1.754   5.669
 2837TIP3   OH2 8474   3.283   3.012   3.659
 2837TIP3    H1 8475   3.354   2.976   3.712
 2837TIP3    H2 8476   3.248   3.084   3.712
 2838TIP3   OH2 8477   6.549   4.370   5.871
 2838TIP3    H1 8478   6.586   4.365   5.959
 2838TIP3    H2 8479   6.460   4.335   5.880
 2839TIP3   OH2 8480   1.021   1.173   4.810
 2839TIP3    H1 8481   1.069   1.194   4.891
 2839TIP3    H2 8482   1.084   1.122   4.758
 2840TIP3   OH2 8483   5.003   4.128   1.359
 2840TIP3    H1 8484   5.068   4.150   1.292
 2840TIP3    H2 8485   5.018   4.036   1.377
 2841TIP3   OH2 8486   3.145   6.418   5.769
 2841TIP3    H1 8487   3.125   6.351   5.834
 2841TIP3    H2 8488   3.072   6.479   5.772
 2842TIP3   OH2 8489   4.025   1.519   5.669
 2842TIP3    H1 8490   4.048   1.608   5.643
 2842TIP3    H2 8491   4.007   1.473   5.587
 2843TIP3   OH2 8492   0.263   0.926   4.639
 2843TIP3    H1 8493   0.210   0.892   4.567
 2843TIP3    H2 8494   0.203   0.982   4.689
 2844TIP3   OH2 8495   0.448   2.625   4.984
 2844TIP3    H1 8496   0.535   2.655   5.010
 2844TIP3    H2 8497   0.388   2.669   5.043
 2845TIP3   OH2 8498   3.345   6.027   1.794
 2845TIP3    H1 8499   3.309   6.025   1.883
 2845TIP3    H2 8500   3.390   6.111   1.788
 2846TIP3   OH2 8501   4.498   3.431   2.051
 2846TIP3    H1 8502   4.555   3.438   2.127
 2846TIP3    H2 8503   4.451   3.515   2.049
 2847TIP3   OH2 8504   0.382   5.555   3.652
 2847TIP3    H1 8505   0.391   5.647   3.623
 2847TIP3    H2 8506   0.472   5.528   3.671
 2848TIP3   OH2 8507   0.099   3.699   3.999
 2848TIP3    H1 8508   0.142   3.664   4.077
 2848TIP3    H2 8509   0.012   3.658   3.999
 2849TIP3   OH2 8510   1.268   3.032   3.464
 2849TIP3    H1 8511   1.360   3.053   3.446
 2849TIP3    H2 8512   1.245   3.087   3.539
 2850TIP3   OH2 8513   2.135   5.095   2.062
 2850TIP3    H1 8514   2.210   5.153   2.055
 2850TIP3    H2 8515   2.076   5.123   1.992
 2851TIP3   OH2 8516   4.272   0.191   5.397
 2851TIP3    H1 8517   4.311   0.277   5.411
 2851TIP3    H2 8518   4.329   0.148   5.333
 2852TIP3   OH2 8519   0.550   6.195   1.993
 2852TIP3    H1 8520   0.526   6.154   1.909
 2852TIP3    H2 8521   0.619   6.257   1.970
 2853TIP3   OH2 8522   1.757   1.263   3.590
 2853TIP3    H1 8523   1.683   1.203   3.576
 2853TIP3    H2 8524   1.730   1.317   3.665
 2854TIP3   OH2 8525   4.421   5.552   5.394
 2854TIP3    H1 8526   4.494   5.598   5.435
 2854TIP3    H2 8527   4.343   5.594   5.430
 2855TIP3   OH2 8528   4.484   4.396   4.478
 2855TIP3    H1 8529   4.439   4.409   4.394
 2855TIP3    H2 8530   4.448   4.313   4.512
 2856TIP3   OH2 8531   3.003   6.262   0.197
 2856TIP3    H1 8532   2.992   6.300   0.110
 2856TIP3    H2 8533   3.094   6.283   0.221
 2857TIP3   OH2 8534   6.820   5.293   2.278
 2857TIP3    H1 8535   6.847   5.278   2.369
 2857TIP3    H2 8536   6.769   5.216   2.255
 2858TIP3   OH2 8537   6.235   1.169   0.234
 2858TIP3    H1 8538   6.253   1.254   0.273
 2858TIP3    H2 8539   6.189   1.188   0.152
 2859TIP3   OH2 8540   6.772   0.562   0.901
 2859TIP3    H1 8541   6.739   0.549   0.812
 2859TIP3    H2 8542   6.818   0.646   0.899
 2860TIP3   OH2 8543   5.874   1.352   0.149
 2860TIP3    H1 8544   5.846   1.308   0.229
 2860TIP3    H2 8545   5.821   1.432   0.147
 2861TIP3   OH2 8546   2.368   2.015   2.224
 2861TIP3    H1 8547   2.368   2.015   2.319
 2861TIP3    H2 8548   2.298   1.955   2.199
 2862TIP3   OH2 8549   2.949   3.336   2.826
 2862TIP3    H1 8550   3.005   3.322   2.749
 2862TIP3    H2 8551   3.006   3.315   2.900
 2863TIP3   OH2 8552   6.417   0.203   5.844
 2863TIP3    H1 8553   6.340   0.177   5.895
 2863TIP3    H2 8554   6.480   0.235   5.909
 2864TIP3   OH2 8555   1.616   3.702   4.603
 2864TIP3    H1 8556   1.654   3.629   4.652
 2864TIP3    H2 8557   1.599   3.769   4.669
 2865TIP3   OH2 8558   4.505   5.396   3.299
 2865TIP3    H1 8559   4.564   5.429   3.231
 2865TIP3    H2 8560   4.435   5.461   3.305
 2866TIP3   OH2 8561   0.197   5.227   2.225
 2866TIP3    H1 8562   0.181   5.135   2.244
 2866TIP3    H2 8563   0.255   5.226   2.149
 2867TIP3   OH2 8564   0.879   5.536   4.162
 2867TIP3    H1 8565   0.944   5.496   4.104
 2867TIP3    H2 8566   0.919   5.619   4.189
 2868TIP3   OH2 8567   4.585   4.928   2.196
 2868TIP3    H1 8568   4.579   4.983   2.118
 2868TIP3    H2 8569   4.511   4.867   2.189
 2869TIP3   OH2 8570   0.656   5.482   0.219
 2869TIP3    H1 8571   0.727   5.429   0.252
 2869TIP3    H2 8572   0.606   5.424   0.162
 2870TIP3   OH2 8573   7.092   1.592   2.570
 2870TIP3    H1 8574   7.130   1.547   2.646
 2870TIP3    H2 8575   6.997   1.590   2.586
 2871TIP3   OH2 8576   2.988   4.371   5.529
 2871TIP3    H1 8577   2.999   4.363   5.434
 2871TIP3    H2 8578   2.978   4.281   5.560
 2872TIP3   OH2 8579   6.393   2.310   4.215
 2872TIP3    H1 8580   6.405   2.404   4.219
 2872TIP3    H2 8581   6.460   2.274   4.274
 2873TIP3   OH2 8582   2.365   6.630   4.515
 2873TIP3    H1 8583   2.279   6.640   4.475
 2873TIP3    H2 8584   2.352   6.648   4.607
 2874TIP3   OH2 8585   5.874   0.489   5.489
 2874TIP3    H1 8586   5.968   0.504   5.498
 2874TIP3    H2 8587   5.857   0.504   5.396
 2875TIP3   OH2 8588   1.261  -0.063   0.649
 2875TIP3    H1 8589   1.305  -0.005   0.587
 2875TIP3    H2 8590   1.208  -0.121   0.594
 2876TIP3   OH2 8591   5.447   1.602   0.853
 2876TIP3    H1 8592   5.474   1.512   0.870
 2876TIP3    H2 8593   5.462   1.615   0.759
 2877TIP3   OH2 8594   6.330   5.459   3.996
 2877TIP3    H1 8595   6.359   5.515   3.924
 2877TIP3    H2 8596   6.256   5.505   4.034
 2878TIP3   OH2 8597   4.472   2.671   3.843
 2878TIP3    H1 8598   4.389   2.624   3.855
 2878TIP3    H2 8599   4.488   2.713   3.928
 2879TIP3   OH2 8600   2.767   1.675   4.437
 2879TIP3    H1 8601   2.684   1.719   4.422
 2879TIP3    H2 8602   2.824   1.741   4.475
 2880TIP3   OH2 8603   5.579   3.214   5.643
 2880TIP3    H1 8604   5.503   3.251   5.689
 2880TIP3    H2 8605   5.648   3.213   5.709
 2881TIP3   OH2 8606   4.117   4.794   5.590
 2881TIP3    H1 8607   4.041   4.834   5.631
 2881TIP3    H2 8608   4.148   4.730   5.654
 2882TIP3   OH2 8609   1.319   1.517   3.153
 2882TIP3    H1 8610   1.323   1.607   3.120
 2882TIP3    H2 8611   1.285   1.466   3.080
 2883TIP3   OH2 8612   2.396   4.086   4.769
 2883TIP3    H1 8613   2.333   4.014   4.764
 2883TIP3    H2 8614   2.375   4.131   4.851
 2884TIP3   OH2 8615   3.537   5.493   4.534
 2884TIP3    H1 8616   3.571   5.468   4.620
 2884TIP3    H2 8617   3.457   5.542   4.553
 2885TIP3   OH2 8618   3.837   4.936   0.831
 2885TIP3    H1 8619   3.827   4.931   0.736
 2885TIP3    H2 8620   3.792   5.018   0.855
 2886TIP3   OH2 8621   1.580   6.787   2.304
 2886TIP3    H1 8622   1.617   6.784   2.393
 2886TIP3    H2 8623   1.553   6.879   2.293
 2887TIP3   OH2 8624   6.247   4.766   1.948
 2887TIP3    H1 8625   6.201   4.845   1.918
 2887TIP3    H2 8626   6.219   4.697   1.888
 2888TIP3   OH2 8627   4.492   1.018   4.469
 2888TIP3    H1 8628   4.553   0.946   4.453
 2888TIP3    H2 8629   4.412   0.976   4.500
 2889TIP3   OH2 8630   2.713   5.297   2.239
 2889TIP3    H1 8631   2.781   5.231   2.250
 2889TIP3    H2 8632   2.749   5.375   2.281
 2890TIP3   OH2 8633   3.596   2.495   4.727
 2890TIP3    H1 8634   3.530   2.514   4.661
 2890TIP3    H2 8635   3.605   2.577   4.776
 2891TIP3   OH2 8636   6.033   4.055   1.610
 2891TIP3    H1 8637   6.039   3.983   1.673
 2891TIP3    H2 8638   5.961   4.030   1.552
 2892TIP3   OH2 8639   5.935   0.170   0.377
 2892TIP3    H1 8640   5.965   0.241   0.321
 2892TIP3    H2 8641   5.897   0.106   0.317
 2893TIP3   OH2 8642   6.128   3.363   3.001
 2893TIP3    H1 8643   6.126   3.324   2.914
 2893TIP3    H2 8644   6.086   3.298   3.057
 2894TIP3   OH2 8645   5.024   1.759   2.745
 2894TIP3    H1 8646   4.960   1.743   2.676
 2894TIP3    H2 8647   5.107   1.730   2.707
 2895TIP3   OH2 8648   5.595   0.919   2.070
 2895TIP3    H1 8649   5.568   1.009   2.053
 2895TIP3    H2 8650   5.690   0.924   2.079
 2896TIP3   OH2 8651   1.840   6.166   3.124
 2896TIP3    H1 8652   1.790   6.248   3.120
 2896TIP3    H2 8653   1.850   6.149   3.218
 2897TIP3   OH2 8654   5.192   5.829   5.460
 2897TIP3    H1 8655   5.221   5.903   5.514
 2897TIP3    H2 8656   5.260   5.820   5.393
 2898TIP3   OH2 8657   5.541   1.968   5.394
 2898TIP3    H1 8658   5.470   1.906   5.384
 2898TIP3    H2 8659   5.620   1.914   5.397
 2899TIP3   OH2 8660   2.725   2.330   3.584
 2899TIP3    H1 8661   2.818   2.331   3.608
 2899TIP3    H2 8662   2.704   2.421   3.565
 2900TIP3   OH2 8663   2.038   3.860   3.002
 2900TIP3    H1 8664   1.996   3.805   2.936
 2900TIP3    H2 8665   2.131   3.856   2.981
 2901TIP3   OH2 8666   1.754   6.039   2.885
 2901TIP3    H1 8667   1.769   6.060   2.978
 2901TIP3    H2 8668   1.784   5.949   2.876
 2902TIP3   OH2 8669   0.234   0.077   5.412
 2902TIP3    H1 8670   0.189  -0.002   5.381
 2902TIP3    H2 8671   0.234   0.136   5.336
 2903TIP3   OH2 8672   6.645   5.026   1.527
 2903TIP3    H1 8673   6.654   4.970   1.604
 2903TIP3    H2 8674   6.734   5.058   1.511
 2904TIP3   OH2 8675   2.798   1.697   2.728
 2904TIP3    H1 8676   2.722   1.717   2.673
 2904TIP3    H2 8677   2.796   1.764   2.796
 2905TIP3   OH2 8678   1.919   2.000   2.620
 2905TIP3    H1 8679   1.982   2.062   2.585
 2905TIP3    H2 8680   1.967   1.952   2.687
 2906TIP3   OH2 8681   1.236   2.800   2.367
 2906TIP3    H1 8682   1.297   2.872   2.378
 2906TIP3    H2 8683   1.268   2.731   2.425
 2907TIP3   OH2 8684   5.146   5.327   2.806
 2907TIP3    H1 8685   5.051   5.316   2.808
 2907TIP3    H2 8686   5.179   5.241   2.779
 2908TIP3   OH2 8687   6.949   4.176   4.338
 2908TIP3    H1 8688   6.890   4.166   4.263
 2908TIP3    H2 8689   6.910   4.124   4.408
 2909TIP3   OH2 8690   3.102   3.842   0.345
 2909TIP3    H1 8691   3.069   3.925   0.311
 2909TIP3    H2 8692   3.031   3.780   0.330
 2910TIP3   OH2 8693   0.501   2.942   5.127
 2910TIP3    H1 8694   0.484   2.997   5.204
 2910TIP3    H2 8695   0.591   2.961   5.103
 2911TIP3   OH2 8696   1.736   2.300   2.761
 2911TIP3    H1 8697   1.820   2.316   2.805
 2911TIP3    H2 8698   1.760   2.273   2.672
 2912TIP3   OH2 8699   1.649   3.281   3.934
 2912TIP3    H1 8700   1.583   3.326   3.986
 2912TIP3    H2 8701   1.732   3.311   3.970
 2913TIP3   OH2 8702   2.240   4.614   4.740
 2913TIP3    H1 8703   2.233   4.568   4.823
 2913TIP3    H2 8704   2.313   4.570   4.695
 2914TIP3   OH2 8705   4.158   1.191   1.740
 2914TIP3    H1 8706   4.147   1.285   1.731
 2914TIP3    H2 8707   4.169   1.177   1.834
 2915TIP3   OH2 8708   0.011   1.051   4.671
 2915TIP3    H1 8709  -0.049   1.074   4.600
 2915TIP3    H2 8710  -0.010   0.960   4.691
 2916TIP3   OH2 8711   4.350   3.717   5.715
 2916TIP3    H1 8712   4.342   3.646   5.780
 2916TIP3    H2 8713   4.298   3.788   5.751
 2917TIP3   OH2 8714   4.043   3.861   5.216
 2917TIP3    H1 8715   4.093   3.820   5.145
 2917TIP3    H2 8716   4.107   3.913   5.264
 2918TIP3   OH2 8717   6.734   5.931   5.325
 2918TIP3    H1 8718   6.663   5.898   5.381
 2918TIP3    H2 8719   6.725   6.026   5.330
 2919TIP3   OH2 8720   4.620   5.981   2.717
 2919TIP3    H1 8721   4.529   5.970   2.742
 2919TIP3    H2 8722   4.644   6.068   2.747
 2920TIP3   OH2 8723   2.403   1.967   4.182
 2920TIP3    H1 8724   2.424   1.942   4.092
 2920TIP3    H2 8725   2.314   1.936   4.196
 2921TIP3   OH2 8726   2.982   3.712   4.253
 2921TIP3    H1 8727   2.988   3.774   4.181
 2921TIP3    H2 8728   3.001   3.627   4.214
 2922TIP3   OH2 8729   0.379   5.845   3.946
 2922TIP3    H1 8730   0.418   5.840   3.859
 2922TIP3    H2 8731   0.434   5.787   4.000
 2923TIP3   OH2 8732   0.439   1.090   1.652
 2923TIP3    H1 8733   0.443   1.055   1.563
 2923TIP3    H2 8734   0.375   1.035   1.697
 2924TIP3   OH2 8735   1.870   3.943   0.196
 2924TIP3    H1 8736   1.813   3.880   0.150
 2924TIP3    H2 8737   1.925   3.980   0.128
 2925TIP3   OH2 8738   3.444   3.154   1.612
 2925TIP3    H1 8739   3.462   3.187   1.700
 2925TIP3    H2 8740   3.355   3.184   1.593
 2926TIP3   OH2 8741   1.761   2.109   5.095
 2926TIP3    H1 8742   1.707   2.068   5.163
 2926TIP3    H2 8743   1.849   2.110   5.132
 2927TIP3   OH2 8744   6.439   1.172   1.991
 2927TIP3    H1 8745   6.478   1.171   1.904
 2927TIP3    H2 8746   6.506   1.211   2.047
 2928TIP3   OH2 8747   5.387   0.903   4.514
 2928TIP3    H1 8748   5.461   0.862   4.469
 2928TIP3    H2 8749   5.355   0.835   4.574
 2929TIP3   OH2 8750   2.650   6.723   2.782
 2929TIP3    H1 8751   2.625   6.646   2.731
 2929TIP3    H2 8752   2.745   6.718   2.788
 2930TIP3   OH2 8753   3.070   0.030   5.187
 2930TIP3    H1 8754   2.982   0.063   5.169
 2930TIP3    H2 8755   3.128   0.095   5.147
 2931TIP3   OH2 8756   3.895   0.744   3.180
 2931TIP3    H1 8757   3.822   0.752   3.242
 2931TIP3    H2 8758   3.947   0.823   3.194
 2932TIP3   OH2 8759   4.756   5.011   1.986
 2932TIP3    H1 8760   4.779   4.929   1.942
 2932TIP3    H2 8761   4.832   5.032   2.039
 2933TIP3   OH2 8762   3.940   2.621   0.788
 2933TIP3    H1 8763   3.873   2.685   0.810
 2933TIP3    H2 8764   3.905   2.538   0.822
 2934TIP3   OH2 8765   6.487   5.963   0.152
 2934TIP3    H1 8766   6.445   5.976   0.067
 2934TIP3    H2 8767   6.577   5.939   0.132
 2935TIP3   OH2 8768   3.917   1.621   1.262
 2935TIP3    H1 8769   3.907   1.674   1.183
 2935TIP3    H2 8770   3.892   1.680   1.333
 2936TIP3   OH2 8771   3.748   3.838   0.100
 2936TIP3    H1 8772   3.777   3.907   0.040
 2936TIP3    H2 8773   3.808   3.765   0.082
 2937TIP3   OH2 8774   6.324   1.648   4.639
 2937TIP3    H1 8775   6.349   1.573   4.586
 2937TIP3    H2 8776   6.266   1.699   4.583
 2938TIP3   OH2 8777   2.665   6.120   5.625
 2938TIP3    H1 8778   2.625   6.187   5.570
 2938TIP3    H2 8779   2.745   6.160   5.659
 2939TIP3   OH2 8780   2.683   4.707   1.863
 2939TIP3    H1 8781   2.684   4.802   1.846
 2939TIP3    H2 8782   2.757   4.692   1.922
 2940TIP3   OH2 8783   0.891   5.867   5.690
 2940TIP3    H1 8784   0.877   5.817   5.770
 2940TIP3    H2 8785   0.838   5.946   5.701
 2941TIP3   OH2 8786   1.315   4.285   3.957
 2941TIP3    H1 8787   1.407   4.285   3.984
 2941TIP3    H2 8788   1.302   4.372   3.919
 2942TIP3   OH2 8789   0.779   4.594   2.821
 2942TIP3    H1 8790   0.832   4.670   2.845
 2942TIP3    H2 8791   0.836   4.518   2.837
 2943TIP3   OH2 8792   1.837   2.690   4.558
 2943TIP3    H1 8793   1.772   2.651   4.617
 2943TIP3    H2 8794   1.806   2.779   4.544
 2944TIP3   OH2 8795   0.381   2.415   1.179
 2944TIP3    H1 8796   0.303   2.369   1.145
 2944TIP3    H2 8797   0.371   2.411   1.274
 2945TIP3   OH2 8798   2.908   1.441   3.139
 2945TIP3    H1 8799   2.971   1.428   3.210
 2945TIP3    H2 8800   2.860   1.358   3.135
 2946TIP3   OH2 8801   5.328   3.274   1.196
 2946TIP3    H1 8802   5.395   3.299   1.261
 2946TIP3    H2 8803   5.365   3.303   1.113
 2947TIP3   OH2 8804   2.265   0.144   3.110
 2947TIP3    H1 8805   2.201   0.143   3.039
 2947TIP3    H2 8806   2.349   0.127   3.066
 2948TIP3   OH2 8807   6.046   6.297   1.339
 2948TIP3    H1 8808   6.027   6.359   1.269
 2948TIP3    H2 8809   6.131   6.259   1.316
 2949TIP3   OH2 8810   5.738   2.314   4.604
 2949TIP3    H1 8811   5.828   2.311   4.638
 2949TIP3    H2 8812   5.684   2.282   4.676
 2950TIP3   OH2 8813   3.657   5.936   4.548
 2950TIP3    H1 8814   3.652   5.866   4.614
 2950TIP3    H2 8815   3.673   5.890   4.466
 2951TIP3   OH2 8816   5.304   5.254   2.446
 2951TIP3    H1 8817   5.355   5.179   2.417
 2951TIP3    H2 8818   5.334   5.271   2.536
 2952TIP3   OH2 8819   4.052   1.386   4.740
 2952TIP3    H1 8820   3.997   1.355   4.668
 2952TIP3    H2 8821   4.129   1.329   4.737
 2953TIP3   OH2 8822   3.041   1.530   5.755
 2953TIP3    H1 8823   3.050   1.456   5.815
 2953TIP3    H2 8824   3.105   1.594   5.787
 2954TIP3   OH2 8825   4.266   3.146   3.411
 2954TIP3    H1 8826   4.174   3.135   3.388
 2954TIP3    H2 8827   4.266   3.212   3.481
 2955TIP3   OH2 8828   1.936   2.805   0.504
 2955TIP3    H1 8829   2.018   2.763   0.477
 2955TIP3    H2 8830   1.868   2.743   0.479
 2956TIP3   OH2 8831   6.771   0.254   2.218
 2956TIP3    H1 8832   6.679   0.269   2.243
 2956TIP3    H2 8833   6.783   0.159   2.226
 2957TIP3   OH2 8834   7.125   4.316   1.720
 2957TIP3    H1 8835   7.125   4.386   1.786
 2957TIP3    H2 8836   7.082   4.355   1.644
 2958TIP3   OH2 8837   0.420   3.674   0.837
 2958TIP3    H1 8838   0.381   3.649   0.753
 2958TIP3    H2 8839   0.441   3.591   0.879
 2959TIP3   OH2 8840   5.109   2.811   5.513
 2959TIP3    H1 8841   5.068   2.868   5.577
 2959TIP3    H2 8842   5.153   2.743   5.565
 2960TIP3   OH2 8843   4.741   3.323   4.123
 2960TIP3    H1 8844   4.778   3.393   4.069
 2960TIP3    H2 8845   4.759   3.243   4.074
 2961TIP3   OH2 8846   3.921   1.700   2.489
 2961TIP3    H1 8847   3.919   1.726   2.581
 2961TIP3    H2 8848   3.916   1.783   2.441
 2962TIP3   OH2 8849   0.674   5.730   2.468
 2962TIP3    H1 8850   0.693   5.667   2.537
 2962TIP3    H2 8851   0.738   5.800   2.481
 2963TIP3   OH2 8852   2.562   4.309   4.754
 2963TIP3    H1 8853   2.522   4.224   4.737
 2963TIP3    H2 8854   2.645   4.288   4.797
 2964TIP3   OH2 8855   1.139   4.716   4.922
 2964TIP3    H1 8856   1.069   4.663   4.883
 2964TIP3    H2 8857   1.201   4.653   4.956
 2965TIP3   OH2 8858   3.892   0.711   1.819
 2965TIP3    H1 8859   3.882   0.718   1.724
 2965TIP3    H2 8860   3.976   0.753   1.837
 2966TIP3   OH2 8861   3.412   0.453   5.027
 2966TIP3    H1 8862   3.396   0.389   4.957
 2966TIP3    H2 8863   3.451   0.402   5.098
 2967TIP3   OH2 8864   2.300   3.814   2.869
 2967TIP3    H1 8865   2.369   3.873   2.900
 2967TIP3    H2 8866   2.324   3.728   2.904
 2968TIP3   OH2 8867   7.238   1.271   4.843
 2968TIP3    H1 8868   7.269   1.189   4.804
 2968TIP3    H2 8869   7.305   1.292   4.909
 2969TIP3   OH2 8870   2.422   3.168   1.256
 2969TIP3    H1 8871   2.358   3.177   1.326
 2969TIP3    H2 8872   2.495   3.121   1.295
 2970TIP3   OH2 8873   4.938   5.987   5.132
 2970TIP3    H1 8874   4.949   5.893   5.149
 2970TIP3    H2 8875   4.938   6.027   5.218
 2971TIP3   OH2 8876   1.516   6.062   1.415
 2971TIP3    H1 8877   1.603   6.054   1.456
 2971TIP3    H2 8878   1.531   6.120   1.340
 2972TIP3   OH2 8879   3.919   5.828   5.277
 2972TIP3    H1 8880   3.838   5.819   5.227
 2972TIP3    H2 8881   3.964   5.744   5.267
 2973TIP3   OH2 8882   3.624   5.003   3.568
 2973TIP3    H1 8883   3.663   4.974   3.650
 2973TIP3    H2 8884   3.622   4.924   3.513
 2974TIP3   OH2 8885   5.021   0.066   1.808
 2974TIP3    H1 8886   4.985   0.150   1.782
 2974TIP3    H2 8887   5.114   0.072   1.788
 2975TIP3   OH2 8888   0.368   4.140   1.586
 2975TIP3    H1 8889   0.455   4.139   1.625
 2975TIP3    H2 8890   0.329   4.222   1.617
 2976TIP3   OH2 8891   1.077   2.706   1.168
 2976TIP3    H1 8892   1.097   2.650   1.243
 2976TIP3    H2 8893   1.158   2.710   1.118
 2977TIP3   OH2 8894   4.706   5.906   5.752
 2977TIP3    H1 8895   4.705   6.001   5.767
 2977TIP3    H2 8896   4.729   5.897   5.660
 2978TIP3   OH2 8897   1.560   4.378   0.581
 2978TIP3    H1 8898   1.593   4.454   0.629
 2978TIP3    H2 8899   1.539   4.314   0.649
 2979TIP3   OH2 8900   0.148   0.564   3.533
 2979TIP3    H1 8901   0.158   0.637   3.595
 2979TIP3    H2 8902   0.230   0.563   3.483
 2980TIP3   OH2 8903   5.245   3.011   3.591
 2980TIP3    H1 8904   5.286   2.993   3.506
 2980TIP3    H2 8905   5.159   2.969   3.585
 2981TIP3   OH2 8906   5.450   3.492   1.068
 2981TIP3    H1 8907   5.475   3.494   0.976
 2981TIP3    H2 8908   5.533   3.504   1.115
 2982TIP3   OH2 8909   4.940   3.191   0.613
 2982TIP3    H1 8910   5.001   3.192   0.688
 2982TIP3    H2 8911   4.983   3.246   0.547
 2983TIP3   OH2 8912   2.471   3.362   2.531
 2983TIP3    H1 8913   2.515   3.436   2.574
 2983TIP3    H2 8914   2.442   3.396   2.447
 2984TIP3   OH2 8915   0.704   5.575   2.708
 2984TIP3    H1 8916   0.783   5.560   2.760
 2984TIP3    H2 8917   0.637   5.595   2.773
 2985TIP3   OH2 8918   4.647   3.655   0.886
 2985TIP3    H1 8919   4.724   3.620   0.841
 2985TIP3    H2 8920   4.634   3.596   0.960
 2986TIP3   OH2 8921   3.536   6.179   0.854
 2986TIP3    H1 8922   3.573   6.216   0.934
 2986TIP3    H2 8923   3.444   6.205   0.855
 2987TIP3   OH2 8924   3.061   4.728   2.787
 2987TIP3    H1 8925   3.098   4.766   2.867
 2987TIP3    H2 8926   3.121   4.754   2.718
 2988TIP3   OH2 8927   0.956   4.679   2.364
 2988TIP3    H1 8928   0.985   4.611   2.304
 2988TIP3    H2 8929   0.922   4.748   2.307
 2989TIP3   OH2 8930   0.513   0.813   3.064
 2989TIP3    H1 8931   0.564   0.732   3.057
 2989TIP3    H2 8932   0.535   0.848   3.150
 2990TIP3   OH2 8933   1.676   3.505   0.450
 2990TIP3    H1 8934   1.719   3.588   0.430
 2990TIP3    H2 8935   1.663   3.463   0.365
 2991TIP3   OH2 8936   2.356   4.783   1.211
 2991TIP3    H1 8937   2.305   4.855   1.246
 2991TIP3    H2 8938   2.312   4.704   1.242
 2992TIP3   OH2 8939   3.454   5.121   1.427
 2992TIP3    H1 8940   3.489   5.052   1.370
 2992TIP3    H2 8941   3.482   5.203   1.386
 2993TIP3   OH2 8942   6.653  -0.033   3.060
 2993TIP3    H1 8943   6.559  -0.043   3.077
 2993TIP3    H2 8944   6.662   0.058   3.032
 2994TIP3   OH2 8945   0.098   2.710   0.935
 2994TIP3    H1 8946   0.054   2.734   0.853
 2994TIP3    H2 8947   0.026   2.688   0.995
 2995TIP3   OH2 8948   4.987   0.172   2.772
 2995TIP3    H1 8949   5.021   0.083   2.781
 2995TIP3    H2 8950   4.904   0.162   2.725
 2996TIP3   OH2 8951   6.296   0.539   2.338
 2996TIP3    H1 8952   6.329   0.621   2.374
 2996TIP3    H2 8953   6.267   0.561   2.250
 2997TIP3   OH2 8954   2.161   4.613   3.918
 2997TIP3    H1 8955   2.172   4.649   4.006
 2997TIP3    H2 8956   2.234   4.552   3.909
 2998TIP3   OH2 8957   2.871   5.250   0.917
 2998TIP3    H1 8958   2.937   5.186   0.944
 2998TIP3    H2 8959   2.911   5.297   0.844
 2999TIP3   OH2 8960   0.820   3.129   0.989
 2999TIP3    H1 8961   0.836   3.041   0.955
 2999TIP3    H2 8962   0.738   3.156   0.947
 3000TIP3   OH2 8963   6.231   1.179   4.470
 3000TIP3    H1 8964   6.196   1.090   4.472
 3000TIP3    H2 8965   6.167   1.228   4.419
 3001TIP3   OH2 8966   3.770   2.081   2.782
 3001TIP3    H1 8967   3.720   2.041   2.711
 3001TIP3    H2 8968   3.846   2.120   2.738
 3002TIP3   OH2 8969   5.316   1.945   2.076
 3002TIP3    H1 8970   5.338   1.855   2.099
 3002TIP3    H2 8971   5.374   1.999   2.130
 3003TIP3   OH2 8972   0.129   5.997   3.348
 3003TIP3    H1 8973   0.059   6.046   3.307
 3003TIP3    H2 8974   0.180   6.062   3.397
 3004TIP3   OH2 8975   3.779   3.834   5.674
 3004TIP3    H1 8976   3.831   3.850   5.752
 3004TIP3    H2 8977   3.696   3.880   5.691
 3005TIP3   OH2 8978   2.338   1.233   3.809
 3005TIP3    H1 8979   2.396   1.281   3.750
 3005TIP3    H2 8980   2.252   1.236   3.766
 3006TIP3   OH2 8981   2.089   5.099   0.870
 3006TIP3    H1 8982   2.090   5.125   0.778
 3006TIP3    H2 8983   2.047   5.173   0.915
 3007TIP3   OH2 8984   4.085   0.238   1.275
 3007TIP3    H1 8985   4.174   0.204   1.287
 3007TIP3    H2 8986   4.045   0.180   1.210
 3008TIP3   OH2 8987   3.588   5.963   0.156
 3008TIP3    H1 8988   3.635   5.945   0.237
 3008TIP3    H2 8989   3.497   5.976   0.184
 3009TIP3   OH2 8990   1.971   0.133   2.061
 3009TIP3    H1 8991   1.924   0.151   1.979
 3009TIP3    H2 8992   1.922   0.060   2.100
 3010TIP3   OH2 8993   2.450   6.511   0.200
 3010TIP3    H1 8994   2.545   6.515   0.211
 3010TIP3    H2 8995   2.431   6.572   0.128
 3011TIP3   OH2 8996   0.661   1.719   0.587
 3011TIP3    H1 8997   0.639   1.680   0.502
 3011TIP3    H2 8998   0.675   1.811   0.568
 3012TIP3   OH2 8999   2.565   5.473   5.161
 3012TIP3    H1 9000   2.493   5.444   5.104
 3012TIP3    H2 9001   2.568   5.408   5.230
 3013TIP3   OH2 9002   3.846   4.510   2.160
 3013TIP3    H1 9003   3.860   4.420   2.130
 3013TIP3    H2 9004   3.760   4.508   2.202
 3014TIP3   OH2 9005   0.933   6.721   4.165
 3014TIP3    H1 9006   0.998   6.654   4.185
 3014TIP3    H2 9007   0.980   6.786   4.113
 3015TIP3   OH2 9008   0.153   2.751   5.801
 3015TIP3    H1 9009   0.167   2.814   5.731
 3015TIP3    H2 9010   0.230   2.760   5.857
 3016TIP3   OH2 9011   5.365   0.326   2.291
 3016TIP3    H1 9012   5.347   0.269   2.366
 3016TIP3    H2 9013   5.392   0.409   2.330
 3017TIP3   OH2 9014   5.954   2.983   2.194
 3017TIP3    H1 9015   5.965   3.075   2.214
 3017TIP3    H2 9016   5.924   2.981   2.103
 3018TIP3   OH2 9017   4.500   6.482   3.859
 3018TIP3    H1 9018   4.454   6.403   3.886
 3018TIP3    H2 9019   4.573   6.489   3.921
 3019TIP3   OH2 9020   5.816   6.674   2.924
 3019TIP3    H1 9021   5.866   6.747   2.962
 3019TIP3    H2 9022   5.872   6.641   2.854
 3020TIP3   OH2 9023   5.754   6.322   2.037
 3020TIP3    H1 9024   5.775   6.292   1.949
 3020TIP3    H2 9025   5.716   6.246   2.081
 3021TIP3   OH2 9026   4.223   4.480   0.404
 3021TIP3    H1 9027   4.227   4.570   0.372
 3021TIP3    H2 9028   4.175   4.486   0.487
 3022TIP3   OH2 9029   3.567   0.308   5.291
 3022TIP3    H1 9030   3.530   0.226   5.322
 3022TIP3    H2 9031   3.588   0.357   5.371
 3023TIP3   OH2 9032   5.004   4.462   5.769
 3023TIP3    H1 9033   5.073   4.492   5.710
 3023TIP3    H2 9034   4.963   4.542   5.801
 3024TIP3   OH2 9035   6.362   0.674   0.604
 3024TIP3    H1 9036   6.314   0.745   0.648
 3024TIP3    H2 9037   6.337   0.595   0.653
 3025TIP3   OH2 9038   1.779   3.584   5.375
 3025TIP3    H1 9039   1.846   3.652   5.373
 3025TIP3    H2 9040   1.736   3.595   5.460
 3026TIP3   OH2 9041   3.212   6.155   0.621
 3026TIP3    H1 9042   3.120   6.169   0.644
 3026TIP3    H2 9043   3.232   6.226   0.560
 3027TIP3   OH2 9044   4.509   5.274   1.762
 3027TIP3    H1 9045   4.577   5.227   1.715
 3027TIP3    H2 9046   4.499   5.357   1.715
 3028TIP3   OH2 9047   4.453   3.672   4.809
 3028TIP3    H1 9048   4.467   3.764   4.833
 3028TIP3    H2 9049   4.541   3.639   4.791
 3029TIP3   OH2 9050   2.263   5.910   0.753
 3029TIP3    H1 9051   2.293   5.965   0.681
 3029TIP3    H2 9052   2.179   5.874   0.722
 3030TIP3   OH2 9053   4.606   1.899   4.476
 3030TIP3    H1 9054   4.649   1.982   4.499
 3030TIP3    H2 9055   4.615   1.893   4.381
 3031TIP3   OH2 9056   0.487   1.014   0.668
 3031TIP3    H1 9057   0.557   0.965   0.712
 3031TIP3    H2 9058   0.430   1.042   0.739
 3032TIP3   OH2 9059   1.861   6.489   1.259
 3032TIP3    H1 9060   1.950   6.501   1.226
 3032TIP3    H2 9061   1.807   6.544   1.203
 3033TIP3   OH2 9062   1.224   1.766   5.490
 3033TIP3    H1 9063   1.287   1.838   5.499
 3033TIP3    H2 9064   1.263   1.708   5.425
 3034TIP3   OH2 9065   5.700   2.141   1.962
 3034TIP3    H1 9066   5.613   2.175   1.942
 3034TIP3    H2 9067   5.746   2.215   2.001
 3035TIP3   OH2 9068   5.688   4.267   5.354
 3035TIP3    H1 9069   5.691   4.340   5.417
 3035TIP3    H2 9070   5.645   4.304   5.277
 3036TIP3   OH2 9071   6.837   5.838   2.807
 3036TIP3    H1 9072   6.776   5.909   2.826
 3036TIP3    H2 9073   6.796   5.761   2.847
 3037TIP3   OH2 9074   4.463   6.416   1.252
 3037TIP3    H1 9075   4.452   6.370   1.168
 3037TIP3    H2 9076   4.504   6.499   1.228
 3038TIP3   OH2 9077   2.069   0.117   1.653
 3038TIP3    H1 9078   2.097   0.052   1.717
 3038TIP3    H2 9079   2.118   0.196   1.677
 3039TIP3   OH2 9080   2.173   2.038   1.411
 3039TIP3    H1 9081   2.160   2.132   1.423
 3039TIP3    H2 9082   2.120   1.997   1.479
 3040TIP3   OH2 9083   0.694   1.726   1.549
 3040TIP3    H1 9084   0.781   1.689   1.535
 3040TIP3    H2 9085   0.651   1.665   1.609
 3041TIP3   OH2 9086   3.392   3.307   5.248
 3041TIP3    H1 9087   3.373   3.379   5.307
 3041TIP3    H2 9088   3.394   3.347   5.161
 3042TIP3   OH2 9089   4.827   0.409   3.970
 3042TIP3    H1 9090   4.914   0.401   4.009
 3042TIP3    H2 9091   4.840   0.389   3.877
 3043TIP3   OH2 9092   2.579   0.390   3.957
 3043TIP3    H1 9093   2.635   0.450   3.907
 3043TIP3    H2 9094   2.616   0.391   4.045
 3044TIP3   OH2 9095   1.636   1.350   5.288
 3044TIP3    H1 9096   1.692   1.428   5.285
 3044TIP3    H2 9097   1.550   1.384   5.312
 3045TIP3   OH2 9098   1.290   3.761   1.576
 3045TIP3    H1 9099   1.234   3.802   1.642
 3045TIP3    H2 9100   1.368   3.816   1.572
 3046TIP3   OH2 9101   5.834   2.422   4.271
 3046TIP3    H1 9102   5.749   2.426   4.313
 3046TIP3    H2 9103   5.875   2.343   4.305
 3047TIP3   OH2 9104   6.222   2.373   0.473
 3047TIP3    H1 9105   6.265   2.425   0.405
 3047TIP3    H2 9106   6.204   2.436   0.543
 3048TIP3   OH2 9107   2.142   0.532   2.036
 3048TIP3    H1 9108   2.112   0.616   2.071
 3048TIP3    H2 9109   2.064   0.476   2.038
 3049TIP3   OH2 9110   2.394   1.148   4.331
 3049TIP3    H1 9111   2.395   1.224   4.389
 3049TIP3    H2 9112   2.347   1.178   4.253
 3050TIP3   OH2 9113   3.164   0.644   0.060
 3050TIP3    H1 9114   3.206   0.673   0.141
 3050TIP3    H2 9115   3.087   0.596   0.089
 3051TIP3   OH2 9116   4.017   1.264   0.548
 3051TIP3    H1 9117   3.941   1.221   0.509
 3051TIP3    H2 9118   4.061   1.196   0.598
 3052TIP3   OH2 9119   7.075   2.393   1.461
 3052TIP3    H1 9120   7.016   2.382   1.536
 3052TIP3    H2 9121   7.059   2.316   1.407
 3053TIP3   OH2 9122   6.382   3.779   2.179
 3053TIP3    H1 9123   6.382   3.684   2.194
 3053TIP3    H2 9124   6.331   3.790   2.099
 3054TIP3   OH2 9125   5.477   2.486   5.536
 3054TIP3    H1 9126   5.518   2.443   5.460
 3054TIP3    H2 9127   5.522   2.570   5.543
 3055TIP3   OH2 9128   1.205   6.391   4.745
 3055TIP3    H1 9129   1.112   6.413   4.753
 3055TIP3    H2 9130   1.218   6.373   4.652
 3056TIP3   OH2 9131   6.383   2.399   2.870
 3056TIP3    H1 9132   6.386   2.483   2.917
 3056TIP3    H2 9133   6.426   2.337   2.929
 3057TIP3   OH2 9134   2.069   4.918   4.126
 3057TIP3    H1 9135   2.078   4.841   4.181
 3057TIP3    H2 9136   2.110   4.894   4.043
 3058TIP3   OH2 9137   1.439   1.481   4.240
 3058TIP3    H1 9138   1.460   1.447   4.153
 3058TIP3    H2 9139   1.474   1.415   4.300
 3059TIP3   OH2 9140   2.446   2.089   2.752
 3059TIP3    H1 9141   2.381   2.027   2.717
 3059TIP3    H2 9142   2.431   2.169   2.702
 3060TIP3   OH2 9143   1.034   1.797   2.303
 3060TIP3    H1 9144   0.949   1.754   2.309
 3060TIP3    H2 9145   1.097   1.726   2.304
 3061TIP3   OH2 9146   3.186   4.256   2.796
 3061TIP3    H1 9147   3.192   4.166   2.762
 3061TIP3    H2 9148   3.143   4.305   2.727
 3062TIP3   OH2 9149   1.247   2.899   0.880
 3062TIP3    H1 9150   1.301   2.978   0.872
 3062TIP3    H2 9151   1.284   2.852   0.954
 3063TIP3   OH2 9152   2.781   1.024   0.683
 3063TIP3    H1 9153   2.771   0.962   0.756
 3063TIP3    H2 9154   2.854   1.080   0.708
 3064TIP3   OH2 9155   1.276   4.898   5.794
 3064TIP3    H1 9156   1.257   4.914   5.702
 3064TIP3    H2 9157   1.191   4.906   5.838
 3065TIP3   OH2 9158   1.625   0.365   0.236
 3065TIP3    H1 9159   1.613   0.405   0.322
 3065TIP3    H2 9160   1.628   0.271   0.254
 3066TIP3   OH2 9161   3.561   1.262   0.951
 3066TIP3    H1 9162   3.541   1.227   0.864
 3066TIP3    H2 9163   3.574   1.185   1.006
 3067TIP3   OH2 9164   4.183   6.354   3.590
 3067TIP3    H1 9165   4.262   6.304   3.571
 3067TIP3    H2 9166   4.211   6.422   3.651
 3068TIP3   OH2 9167   0.109   3.244   3.040
 3068TIP3    H1 9168   0.142   3.261   3.128
 3068TIP3    H2 9169   0.137   3.319   2.988
 3069TIP3   OH2 9170   6.948   5.882   2.554
 3069TIP3    H1 9171   6.899   5.866   2.635
 3069TIP3    H2 9172   6.886   5.927   2.497
 3070TIP3   OH2 9173   3.450   3.932   5.654
 3070TIP3    H1 9174   3.392   3.859   5.677
 3070TIP3    H2 9175   3.503   3.947   5.732
 3071TIP3   OH2 9176   2.525   2.113   5.739
 3071TIP3    H1 9177   2.600   2.170   5.757
 3071TIP3    H2 9178   2.451   2.174   5.728
 3072TIP3   OH2 9179   6.267   0.810   3.036
 3072TIP3    H1 9180   6.293   0.718   3.031
 3072TIP3    H2 9181   6.226   0.819   3.122
 3073TIP3   OH2 9182   0.264   6.723   1.693
 3073TIP3    H1 9183   0.255   6.636   1.652
 3073TIP3    H2 9184   0.225   6.783   1.629
 3074TIP3   OH2 9185   2.463   2.960   3.071
 3074TIP3    H1 9186   2.538   2.976   3.129
 3074TIP3    H2 9187   2.390   3.007   3.113
 3075TIP3   OH2 9188   6.197   1.398   1.392
 3075TIP3    H1 9189   6.154   1.395   1.306
 3075TIP3    H2 9190   6.289   1.415   1.372
 3076TIP3   OH2 9191   6.833   4.612   4.363
 3076TIP3    H1 9192   6.923   4.636   4.341
 3076TIP3    H2 9193   6.779   4.663   4.303
 3077TIP3   OH2 9194   1.761   5.518   0.744
 3077TIP3    H1 9195   1.692   5.522   0.678
 3077TIP3    H2 9196   1.716   5.499   0.826
 3078TIP3   OH2 9197   1.821   6.145   4.768
 3078TIP3    H1 9198   1.818   6.236   4.796
 3078TIP3    H2 9199   1.734   6.111   4.788
 3079TIP3   OH2 9200   3.001   3.987   1.778
 3079TIP3    H1 9201   2.976   3.981   1.870
 3079TIP3    H2 9202   3.096   3.985   1.778
 3080TIP3   OH2 9203   4.726   3.541   5.712
 3080TIP3    H1 9204   4.750   3.627   5.747
 3080TIP3    H2 9205   4.673   3.501   5.782
 3081TIP3   OH2 9206   4.761   5.694   5.041
 3081TIP3    H1 9207   4.845   5.686   5.087
 3081TIP3    H2 9208   4.702   5.634   5.088
 3082TIP3   OH2 9209   5.874   3.394   3.398
 3082TIP3    H1 9210   5.845   3.353   3.317
 3082TIP3    H2 9211   5.824   3.476   3.402
 3083TIP3   OH2 9212   2.063   2.524   5.825
 3083TIP3    H1 9213   2.084   2.602   5.774
 3083TIP3    H2 9214   1.980   2.493   5.787
 3084TIP3   OH2 9215   1.481   3.618   2.603
 3084TIP3    H1 9216   1.556   3.643   2.550
 3084TIP3    H2 9217   1.494   3.664   2.686
 3085TIP3   OH2 9218   7.126   4.061   2.026
 3085TIP3    H1 9219   7.170   4.038   1.945
 3085TIP3    H2 9220   7.048   4.108   1.998
 3086TIP3   OH2 9221   5.703   0.484   5.685
 3086TIP3    H1 9222   5.670   0.574   5.684
 3086TIP3    H2 9223   5.743   0.472   5.599
 3087TIP3   OH2 9224   1.745   0.742   5.523
 3087TIP3    H1 9225   1.768   0.834   5.514
 3087TIP3    H2 9226   1.718   0.732   5.615
 3088TIP3   OH2 9227   4.713   3.744   2.364
 3088TIP3    H1 9228   4.757   3.828   2.374
 3088TIP3    H2 9229   4.627   3.765   2.327
 3089TIP3   OH2 9230   4.573   0.442   1.156
 3089TIP3    H1 9231   4.615   0.382   1.218
 3089TIP3    H2 9232   4.619   0.428   1.074
 3090TIP3   OH2 9233   3.971   3.099   1.654
 3090TIP3    H1 9234   3.983   3.183   1.609
 3090TIP3    H2 9235   3.876   3.091   1.665
 3091TIP3   OH2 9236   5.848   2.956   5.711
 3091TIP3    H1 9237   5.930   3.004   5.722
 3091TIP3    H2 9238   5.798   2.977   5.790
 3092TIP3   OH2 9239   6.398   5.693   2.151
 3092TIP3    H1 9240   6.475   5.648   2.186
 3092TIP3    H2 9241   6.379   5.648   2.069
 3093TIP3   OH2 9242   1.879   3.071   1.049
 3093TIP3    H1 9243   1.974   3.074   1.063
 3093TIP3    H2 9244   1.842   3.074   1.138
 3094TIP3   OH2 9245   6.304   1.820   4.260
 3094TIP3    H1 9246   6.256   1.844   4.339
 3094TIP3    H2 9247   6.386   1.869   4.265
 3095TIP3   OH2 9248   5.675   5.859   0.199
 3095TIP3    H1 9249   5.715   5.821   0.120
 3095TIP3    H2 9250   5.723   5.941   0.213
 3096TIP3   OH2 9251   4.302   3.245   4.758
 3096TIP3    H1 9252   4.222   3.207   4.720
 3096TIP3    H2 9253   4.275   3.331   4.790
 3097TIP3   OH2 9254   2.998   0.495   0.576
 3097TIP3    H1 9255   2.974   0.417   0.625
 3097TIP3    H2 9256   2.966   0.568   0.630
 3098TIP3   OH2 9257   3.110   2.047   1.701
 3098TIP3    H1 9258   3.190   2.046   1.649
 3098TIP3    H2 9259   3.064   2.126   1.674
 3099TIP3   OH2 9260   1.941   2.180   1.815
 3099TIP3    H1 9261   1.849   2.207   1.822
 3099TIP3    H2 9262   1.967   2.162   1.905
 3100TIP3   OH2 9263   1.048   4.004   4.334
 3100TIP3    H1 9264   1.114   3.950   4.377
 3100TIP3    H2 9265   1.091   4.036   4.255
 3101TIP3   OH2 9266   2.096   1.918   0.234
 3101TIP3    H1 9267   2.076   2.011   0.241
 3101TIP3    H2 9268   2.124   1.906   0.144
 3102TIP3   OH2 9269   7.068   5.584   1.797
 3102TIP3    H1 9270   7.117   5.562   1.876
 3102TIP3    H2 9271   6.977   5.569   1.820
 3103TIP3   OH2 9272   2.898   4.135   5.849
 3103TIP3    H1 9273   2.936   4.061   5.801
 3103TIP3    H2 9274   2.870   4.098   5.932
 3104TIP3   OH2 9275   3.211   6.480   0.940
 3104TIP3    H1 9276   3.128   6.518   0.909
 3104TIP3    H2 9277   3.210   6.391   0.905
 3105TIP3   OH2 9278   7.064   5.274   3.485
 3105TIP3    H1 9279   6.982   5.226   3.488
 3105TIP3    H2 9280   7.114   5.233   3.414
 3106TIP3   OH2 9281   6.680   6.415   2.077
 3106TIP3    H1 9282   6.687   6.505   2.043
 3106TIP3    H2 9283   6.755   6.405   2.134
 3107TIP3   OH2 9284   6.696   1.886   0.528
 3107TIP3    H1 9285   6.669   1.941   0.602
 3107TIP3    H2 9286   6.761   1.826   0.565
 3108TIP3   OH2 9287   4.614   4.581   5.298
 3108TIP3    H1 9288   4.553   4.558   5.367
 3108TIP3    H2 9289   4.633   4.674   5.311
 3109TIP3   OH2 9290   1.126   1.320   5.426
 3109TIP3    H1 9291   1.176   1.292   5.503
 3109TIP3    H2 9292   1.045   1.269   5.431
 3110TIP3   OH2 9293   2.956   0.940   1.067
 3110TIP3    H1 9294   2.891   0.959   1.135
 3110TIP3    H2 9295   2.983   0.850   1.085
 3111TIP3   OH2 9296   4.129   0.395   4.732
 3111TIP3    H1 9297   4.036   0.409   4.715
 3111TIP3    H2 9298   4.170   0.480   4.712
 3112TIP3   OH2 9299   3.041   2.970   0.809
 3112TIP3    H1 9300   3.043   3.002   0.900
 3112TIP3    H2 9301   3.109   3.021   0.765
 3113TIP3   OH2 9302   4.294   5.537   2.655
 3113TIP3    H1 9303   4.261   5.497   2.575
 3113TIP3    H2 9304   4.380   5.497   2.667
 3114TIP3   OH2 9305   1.345   5.637   0.381
 3114TIP3    H1 9306   1.416   5.692   0.414
 3114TIP3    H2 9307   1.280   5.636   0.452
 3115TIP3   OH2 9308   2.197   3.975   2.317
 3115TIP3    H1 9309   2.280   3.931   2.337
 3115TIP3    H2 9310   2.220   4.068   2.309
 3116TIP3   OH2 9311   7.045   6.753   3.997
 3116TIP3    H1 9312   7.072   6.825   3.940
 3116TIP3    H2 9313   7.080   6.777   4.083
 3117TIP3   OH2 9314   4.429   4.584   4.679
 3117TIP3    H1 9315   4.459   4.516   4.619
 3117TIP3    H2 9316   4.490   4.580   4.753
 3118TIP3   OH2 9317   2.202   6.137   1.601
 3118TIP3    H1 9318   2.209   6.080   1.525
 3118TIP3    H2 9319   2.121   6.186   1.586
 3119TIP3   OH2 9320   5.031   0.724   1.653
 3119TIP3    H1 9321   4.991   0.713   1.739
 3119TIP3    H2 9322   5.125   0.724   1.670
 3120TIP3   OH2 9323   2.465   0.696   4.353
 3120TIP3    H1 9324   2.529   0.715   4.422
 3120TIP3    H2 9325   2.427   0.781   4.330
 3121TIP3   OH2 9326   5.647   4.051   4.382
 3121TIP3    H1 9327   5.701   4.040   4.460
 3121TIP3    H2 9328   5.669   4.139   4.350
 3122TIP3   OH2 9329   0.391   3.289   5.280
 3122TIP3    H1 9330   0.342   3.313   5.202
 3122TIP3    H2 9331   0.421   3.373   5.316
 3123TIP3   OH2 9332   2.054   3.443   1.201
 3123TIP3    H1 9333   2.124   3.441   1.266
 3123TIP3    H2 9334   2.063   3.528   1.159
 3124TIP3   OH2 9335   2.161   0.361   3.453
 3124TIP3    H1 9336   2.097   0.400   3.393
 3124TIP3    H2 9337   2.193   0.284   3.406
 3125TIP3   OH2 9338   4.438   2.045   3.683
 3125TIP3    H1 9339   4.494   2.122   3.694
 3125TIP3    H2 9340   4.499   1.973   3.663
 3126TIP3   OH2 9341   7.169   1.096   0.933
 3126TIP3    H1 9342   7.107   1.121   0.864
 3126TIP3    H2 9343   7.161   1.001   0.938
 3127TIP3   OH2 9344   4.908   1.787   2.990
 3127TIP3    H1 9345   4.963   1.809   2.915
 3127TIP3    H2 9346   4.881   1.697   2.974
 3128TIP3   OH2 9347   5.629   0.714   2.297
 3128TIP3    H1 9348   5.577   0.748   2.223
 3128TIP3    H2 9349   5.709   0.680   2.257
 3129TIP3   OH2 9350   2.323   3.547   4.127
 3129TIP3    H1 9351   2.417   3.552   4.143
 3129TIP3    H2 9352   2.313   3.483   4.058
 3130TIP3   OH2 9353   0.875   0.953   5.260
 3130TIP3    H1 9354   0.880   1.038   5.216
 3130TIP3    H2 9355   0.856   0.891   5.190
 3131TIP3   OH2 9356   2.987   0.914   0.463
 3131TIP3    H1 9357   2.913   0.958   0.421
 3131TIP3    H2 9358   2.957   0.895   0.552
 3132TIP3   OH2 9359   4.592   4.882   4.763
 3132TIP3    H1 9360   4.610   4.960   4.816
 3132TIP3    H2 9361   4.536   4.828   4.818
 3133TIP3   OH2 9362   3.170   5.862   4.433
 3133TIP3    H1 9363   3.264   5.877   4.423
 3133TIP3    H2 9364   3.139   5.936   4.486
 3134TIP3   OH2 9365   6.379   4.484   0.124
 3134TIP3    H1 9366   6.321   4.518   0.056
 3134TIP3    H2 9367   6.439   4.425   0.077
 3135TIP3   OH2 9368   6.813   1.216   3.870
 3135TIP3    H1 9369   6.817   1.125   3.899
 3135TIP3    H2 9370   6.903   1.237   3.843
 3136TIP3   OH2 9371   6.039   6.342   0.489
 3136TIP3    H1 9372   6.134   6.348   0.499
 3136TIP3    H2 9373   6.019   6.249   0.502
 3137TIP3   OH2 9374   1.849   3.475   1.399
 3137TIP3    H1 9375   1.915   3.411   1.375
 3137TIP3    H2 9376   1.898   3.549   1.435
 3138TIP3   OH2 9377   6.044   4.476   5.115
 3138TIP3    H1 9378   6.031   4.566   5.143
 3138TIP3    H2 9379   6.109   4.481   5.045
 3139TIP3   OH2 9380   3.856   0.988   1.055
 3139TIP3    H1 9381   3.898   0.952   1.133
 3139TIP3    H2 9382   3.779   1.033   1.089
 3140TIP3   OH2 9383   5.364   5.368   4.620
 3140TIP3    H1 9384   5.269   5.365   4.631
 3140TIP3    H2 9385   5.393   5.433   4.685
 3141TIP3   OH2 9386   2.907   5.055   4.926
 3141TIP3    H1 9387   2.981   5.039   4.868
 3141TIP3    H2 9388   2.878   4.967   4.952
 3142TIP3   OH2 9389   3.842   4.893   2.657
 3142TIP3    H1 9390   3.802   4.952   2.594
 3142TIP3    H2 9391   3.856   4.947   2.735
 3143TIP3   OH2 9392   4.250   1.370   0.202
 3143TIP3    H1 9393   4.202   1.444   0.166
 3143TIP3    H2 9394   4.342   1.394   0.193
 3144TIP3   OH2 9395   5.076   6.256   2.241
 3144TIP3    H1 9396   5.051   6.174   2.284
 3144TIP3    H2 9397   5.036   6.249   2.154
 3145TIP3   OH2 9398   3.059   0.853   4.258
 3145TIP3    H1 9399   3.080   0.763   4.279
 3145TIP3    H2 9400   2.979   0.848   4.204
 3146TIP3   OH2 9401   6.145   1.814   4.488
 3146TIP3    H1 9402   6.068   1.821   4.433
 3146TIP3    H2 9403   6.158   1.903   4.522
 3147TIP3   OH2 9404   6.029   4.699   3.407
 3147TIP3    H1 9405   6.053   4.666   3.493
 3147TIP3    H2 9406   5.946   4.654   3.386
 3148TIP3   OH2 9407   1.285   1.901   4.901
 3148TIP3    H1 9408   1.348   1.939   4.962
 3148TIP3    H2 9409   1.201   1.911   4.943
 3149TIP3   OH2 9410   5.513   3.302   2.455
 3149TIP3    H1 9411   5.493   3.209   2.458
 3149TIP3    H2 9412   5.590   3.308   2.398
 3150TIP3   OH2 9413   4.245   1.399   4.213
 3150TIP3    H1 9414   4.317   1.373   4.270
 3150TIP3    H2 9415   4.284   1.461   4.151
 3151TIP3   OH2 9416   6.623   3.967   1.503
 3151TIP3    H1 9417   6.686   4.022   1.550
 3151TIP3    H2 9418   6.600   4.017   1.425
 3152TIP3   OH2 9419   0.734   4.781   3.460
 3152TIP3    H1 9420   0.806   4.720   3.476
 3152TIP3    H2 9421   0.687   4.785   3.543
 3153TIP3   OH2 9422   4.200   6.619   3.730
 3153TIP3    H1 9423   4.200   6.652   3.640
 3153TIP3    H2 9424   4.265   6.673   3.776
 3154TIP3   OH2 9425   0.279   4.087   1.891
 3154TIP3    H1 9426   0.245   4.010   1.936
 3154TIP3    H2 9427   0.345   4.051   1.831
 3155TIP3   OH2 9428   5.218   6.544   3.717
 3155TIP3    H1 9429   5.147   6.582   3.665
 3155TIP3    H2 9430   5.295   6.549   3.661
 3156TIP3   OH2 9431   5.509   6.076   3.794
 3156TIP3    H1 9432   5.482   6.167   3.784
 3156TIP3    H2 9433   5.529   6.047   3.705
 3157TIP3   OH2 9434   1.788   1.443   2.054
 3157TIP3    H1 9435   1.700   1.408   2.038
 3157TIP3    H2 9436   1.794   1.452   2.149
 3158TIP3   OH2 9437   4.684  -0.008   5.421
 3158TIP3    H1 9438   4.662   0.073   5.467
 3158TIP3    H2 9439   4.779  -0.006   5.414
 3159TIP3   OH2 9440   6.173   1.958   2.138
 3159TIP3    H1 9441   6.108   1.926   2.200
 3159TIP3    H2 9442   6.142   1.928   2.053
 3160TIP3   OH2 9443   5.249   6.231   4.159
 3160TIP3    H1 9444   5.155   6.211   4.162
 3160TIP3    H2 9445   5.263   6.267   4.071
 3161TIP3   OH2 9446   1.591   2.089   3.017
 3161TIP3    H1 9447   1.500   2.118   3.031
 3161TIP3    H2 9448   1.590   2.051   2.929
 3162TIP3   OH2 9449   1.404   3.513   1.668
 3162TIP3    H1 9450   1.363   3.599   1.664
 3162TIP3    H2 9451   1.495   3.528   1.643
 3163TIP3   OH2 9452   6.809   5.024   5.587
 3163TIP3    H1 9453   6.781   4.947   5.537
 3163TIP3    H2 9454   6.895   5.047   5.550
 3164TIP3   OH2 9455   7.120   2.303   5.611
 3164TIP3    H1 9456   7.107   2.340   5.524
 3164TIP3    H2 9457   7.170   2.369   5.659
 3165TIP3   OH2 9458   5.065   4.426   0.988
 3165TIP3    H1 9459   5.004   4.485   1.032
 3165TIP3    H2 9460   5.145   4.431   1.040
 3166TIP3   OH2 9461   3.538   3.128   5.457
 3166TIP3    H1 9462   3.449   3.096   5.447
 3166TIP3    H2 9463   3.593   3.057   5.423
 3167TIP3   OH2 9464   0.018   3.913   0.058
 3167TIP3    H1 9465   0.063   3.966   0.123
 3167TIP3    H2 9466  -0.044   3.860   0.108
 3168TIP3   OH2 9467   2.106   4.887   5.487
 3168TIP3    H1 9468   2.062   4.815   5.532
 3168TIP3    H2 9469   2.199   4.870   5.500
 3169TIP3   OH2 9470   3.826   6.291   5.826
 3169TIP3    H1 9471   3.851   6.202   5.852
 3169TIP3    H2 9472   3.857   6.300   5.736
 3170TIP3   OH2 9473   6.213   1.683   1.384
 3170TIP3    H1 9474   6.184   1.597   1.355
 3170TIP3    H2 9475   6.258   1.720   1.308
 3171TIP3   OH2 9476   5.974   2.505   3.796
 3171TIP3    H1 9477   5.885   2.526   3.768
 3171TIP3    H2 9478   6.012   2.460   3.720
 3172TIP3   OH2 9479   1.931   1.989   3.453
 3172TIP3    H1 9480   1.871   2.049   3.497
 3172TIP3    H2 9481   1.915   2.003   3.360
 3173TIP3   OH2 9482   5.322   4.337   1.116
 3173TIP3    H1 9483   5.323   4.428   1.085
 3173TIP3    H2 9484   5.415   4.316   1.129
 3174TIP3   OH2 9485   4.241   5.817   5.027
 3174TIP3    H1 9486   4.227   5.838   5.120
 3174TIP3    H2 9487   4.164   5.767   5.002
 3175TIP3   OH2 9488   3.154   6.701   4.505
 3175TIP3    H1 9489   3.096   6.713   4.580
 3175TIP3    H2 9490   3.240   6.685   4.544
 3176TIP3   OH2 9491   4.055   0.082   2.758
 3176TIP3    H1 9492   4.000   0.137   2.814
 3176TIP3    H2 9493   4.117   0.143   2.718
 3177TIP3   OH2 9494   3.779   4.669   2.423
 3177TIP3    H1 9495   3.855   4.617   2.399
 3177TIP3    H2 9496   3.807   4.760   2.411
 3178TIP3   OH2 9497   4.609   2.021   2.091
 3178TIP3    H1 9498   4.546   1.982   2.031
 3178TIP3    H2 9499   4.618   1.958   2.162
 3179TIP3   OH2 9500   3.480   6.620   2.512
 3179TIP3    H1 9501   3.518   6.606   2.599
 3179TIP3    H2 9502   3.550   6.595   2.451
 3180TIP3   OH2 9503   3.385   3.574   5.408
 3180TIP3    H1 9504   3.397   3.583   5.503
 3180TIP3    H2 9505   3.307   3.626   5.388
 3181TIP3   OH2 9506   7.181   3.692   2.325
 3181TIP3    H1 9507   7.235   3.741   2.386
 3181TIP3    H2 9508   7.097   3.737   2.326
 3182TIP3   OH2 9509   6.670   4.825   3.408
 3182TIP3    H1 9510   6.742   4.877   3.374
 3182TIP3    H2 9511   6.614   4.888   3.454
 3183TIP3   OH2 9512   3.403   5.345   5.569
 3183TIP3    H1 9513   3.387   5.306   5.655
 3183TIP3    H2 9514   3.386   5.275   5.507
 3184TIP3   OH2 9515   0.187   5.011   1.942
 3184TIP3    H1 9516   0.220   4.940   1.887
 3184TIP3    H2 9517   0.266   5.053   1.977
 3185TIP3   OH2 9518   4.006   1.260   4.245
 3185TIP3    H1 9519   3.959   1.304   4.174
 3185TIP3    H2 9520   4.096   1.292   4.238
 3186TIP3   OH2 9521   2.585   0.795   0.082
 3186TIP3    H1 9522   2.587   0.705   0.049
 3186TIP3    H2 9523   2.602   0.849   0.006
 3187TIP3   OH2 9524   0.284   1.896   4.201
 3187TIP3    H1 9525   0.271   1.821   4.258
 3187TIP3    H2 9526   0.223   1.962   4.234
 3188TIP3   OH2 9527   6.894   0.357   5.839
 3188TIP3    H1 9528   6.868   0.449   5.849
 3188TIP3    H2 9529   6.966   0.346   5.902
 3189TIP3   OH2 9530   6.094   3.871   1.262
 3189TIP3    H1 9531   6.153   3.798   1.279
 3189TIP3    H2 9532   6.148   3.949   1.274
 3190TIP3   OH2 9533   4.487   3.976   2.697
 3190TIP3    H1 9534   4.579   3.972   2.673
 3190TIP3    H2 9535   4.486   4.020   2.782
 3191TIP3   OH2 9536   6.151   2.867   4.586
 3191TIP3    H1 9537   6.131   2.838   4.675
 3191TIP3    H2 9538   6.170   2.960   4.595
 3192TIP3   OH2 9539   0.060   1.315   3.497
 3192TIP3    H1 9540   0.085   1.401   3.463
 3192TIP3    H2 9541   0.005   1.277   3.429
 3193TIP3   OH2 9542   6.900   5.362   1.843
 3193TIP3    H1 9543   6.816   5.378   1.802
 3193TIP3    H2 9544   6.959   5.339   1.771
 3194TIP3   OH2 9545   1.824   5.046   5.018
 3194TIP3    H1 9546   1.770   5.123   5.035
 3194TIP3    H2 9547   1.823   4.998   5.101
 3195TIP3   OH2 9548   6.195   3.260   0.423
 3195TIP3    H1 9549   6.289   3.251   0.435
 3195TIP3    H2 9550   6.186   3.307   0.340
 3196TIP3   OH2 9551   3.926   0.345   5.386
 3196TIP3    H1 9552   4.019   0.340   5.365
 3196TIP3    H2 9553   3.898   0.432   5.357
 3197TIP3   OH2 9554   3.257   2.574   1.115
 3197TIP3    H1 9555   3.252   2.483   1.143
 3197TIP3    H2 9556   3.250   2.569   1.019
 3198TIP3   OH2 9557   4.180   3.102   0.484
 3198TIP3    H1 9558   4.123   3.119   0.410
 3198TIP3    H2 9559   4.263   3.074   0.445
 3199TIP3   OH2 9560   2.630   5.785   1.776
 3199TIP3    H1 9561   2.592   5.855   1.828
 3199TIP3    H2 9562   2.715   5.768   1.817
 3200TIP3   OH2 9563   5.814   6.605   0.767
 3200TIP3    H1 9564   5.819   6.638   0.857
 3200TIP3    H2 9565   5.776   6.677   0.717
 3201TIP3   OH2 9566   2.823   0.367   0.325
 3201TIP3    H1 9567   2.877   0.366   0.246
 3201TIP3    H2 9568   2.883   0.392   0.395
 3202TIP3   OH2 9569   4.231   0.892   2.257
 3202TIP3    H1 9570   4.209   0.936   2.339
 3202TIP3    H2 9571   4.246   0.801   2.283
 3203TIP3   OH2 9572   2.605   5.971   3.454
 3203TIP3    H1 9573   2.626   5.927   3.372
 3203TIP3    H2 9574   2.646   6.058   3.445
 3204TIP3   OH2 9575   6.786   4.053   0.784
 3204TIP3    H1 9576   6.707   4.060   0.837
 3204TIP3    H2 9577   6.858   4.056   0.848
 3205TIP3   OH2 9578   2.868   5.606   3.285
 3205TIP3    H1 9579   2.818   5.616   3.204
 3205TIP3    H2 9580   2.915   5.524   3.274
 3206TIP3   OH2 9581   2.929   5.102   4.000
 3206TIP3    H1 9582   2.895   5.175   4.052
 3206TIP3    H2 9583   2.856   5.041   3.994
 3207TIP3   OH2 9584   4.869   5.839   0.602
 3207TIP3    H1 9585   4.873   5.824   0.507
 3207TIP3    H2 9586   4.894   5.755   0.640
 3208TIP3   OH2 9587   3.280   2.964   2.457
 3208TIP3    H1 9588   3.362   2.928   2.493
 3208TIP3    H2 9589   3.216   2.951   2.527
 3209TIP3   OH2 9590   6.820   6.310   3.225
 3209TIP3    H1 9591   6.760   6.286   3.296
 3209TIP3    H2 9592   6.889   6.244   3.230
 3210TIP3   OH2 9593   2.414   3.414   1.104
 3210TIP3    H1 9594   2.451   3.483   1.159
 3210TIP3    H2 9595   2.407   3.338   1.162
 3211TIP3   OH2 9596   6.777   0.502   1.262
 3211TIP3    H1 9597   6.739   0.472   1.344
 3211TIP3    H2 9598   6.869   0.477   1.268
 3212TIP3   OH2 9599   3.946   1.845   1.808
 3212TIP3    H1 9600   3.925   1.888   1.890
 3212TIP3    H2 9601   3.938   1.752   1.827
 3213TIP3   OH2 9602   0.615   3.173   3.417
 3213TIP3    H1 9603   0.575   3.089   3.393
 3213TIP3    H2 9604   0.558   3.239   3.377
 3214TIP3   OH2 9605   2.568   5.360   5.427
 3214TIP3    H1 9606   2.483   5.317   5.438
 3214TIP3    H2 9607   2.548   5.454   5.429
 3215TIP3   OH2 9608   1.037   4.955   4.218
 3215TIP3    H1 9609   1.069   4.948   4.308
 3215TIP3    H2 9610   1.075   5.036   4.186
 3216TIP3   OH2 9611   7.103   5.432   1.083
 3216TIP3    H1 9612   7.047   5.375   1.136
 3216TIP3    H2 9613   7.157   5.372   1.032
 3217TIP3   OH2 9614   5.099   5.833   1.841
 3217TIP3    H1 9615   5.046   5.764   1.880
 3217TIP3    H2 9616   5.039   5.907   1.832
 3218TIP3   OH2 9617   3.786   1.228   4.698
 3218TIP3    H1 9618   3.724   1.157   4.716
 3218TIP3    H2 9619   3.837   1.236   4.778
 3219TIP3   OH2 9620   3.778   4.251   1.285
 3219TIP3    H1 9621   3.864   4.238   1.243
 3219TIP3    H2 9622   3.761   4.169   1.330
 3220TIP3   OH2 9623   0.158   0.167   4.618
 3220TIP3    H1 9624   0.167   0.249   4.665
 3220TIP3    H2 9625   0.073   0.174   4.574
 3221TIP3   OH2 9626   6.572   2.780   3.193
 3221TIP3    H1 9627   6.609   2.868   3.182
 3221TIP3    H2 9628   6.630   2.737   3.255
 3222TIP3   OH2 9629   4.916   6.430   3.247
 3222TIP3    H1 9630   4.963   6.352   3.278
 3222TIP3    H2 9631   4.868   6.461   3.324
 3223TIP3   OH2 9632   1.171  -0.029   5.192
 3223TIP3    H1 9633   1.145  -0.046   5.102
 3223TIP3    H2 9634   1.198   0.063   5.193
 3224TIP3   OH2 9635   0.759   1.237   3.269
 3224TIP3    H1 9636   0.788   1.311   3.216
 3224TIP3    H2 9637   0.698   1.276   3.333
 3225TIP3   OH2 9638   5.830   5.170   2.308
 3225TIP3    H1 9639   5.914   5.130   2.330
 3225TIP3    H2 9640   5.836   5.190   2.215
 3226TIP3   OH2 9641   6.519   3.697   1.513
 3226TIP3    H1 9642   6.588   3.761   1.493
 3226TIP3    H2 9643   6.444   3.751   1.539
 3227TIP3   OH2 9644   4.357   4.566   5.034
 3227TIP3    H1 9645   4.269   4.554   5.000
 3227TIP3    H2 9646   4.379   4.657   5.012
 3228TIP3   OH2 9647   4.188   6.254   1.395
 3228TIP3    H1 9648   4.105   6.261   1.349
 3228TIP3    H2 9649   4.175   6.302   1.477
 3229TIP3   OH2 9650   4.973   6.246   5.074
 3229TIP3    H1 9651   4.971   6.150   5.077
 3229TIP3    H2 9652   5.011   6.271   5.158
 3230TIP3   OH2 9653   0.743   1.170   1.356
 3230TIP3    H1 9654   0.693   1.186   1.276
 3230TIP3    H2 9655   0.807   1.104   1.331
 3231TIP3   OH2 9656   1.803   1.041   5.497
 3231TIP3    H1 9657   1.832   1.064   5.409
 3231TIP3    H2 9658   1.871   1.074   5.555
 3232TIP3   OH2 9659   2.360   4.632   1.635
 3232TIP3    H1 9660   2.422   4.702   1.618
 3232TIP3    H2 9661   2.410   4.566   1.683
 3233TIP3   OH2 9662   2.780   4.553   4.597
 3233TIP3    H1 9663   2.735   4.569   4.514
 3233TIP3    H2 9664   2.797   4.458   4.597
 3234TIP3   OH2 9665   5.937   1.538   4.984
 3234TIP3    H1 9666   5.963   1.533   4.893
 3234TIP3    H2 9667   5.888   1.457   5.000
 3235TIP3   OH2 9668   6.532   1.624   4.320
 3235TIP3    H1 9669   6.480   1.631   4.241
 3235TIP3    H2 9670   6.490   1.555   4.371
 3236TIP3   OH2 9671   6.017   6.663   3.884
 3236TIP3    H1 9672   6.003   6.757   3.893
 3236TIP3    H2 9673   5.989   6.626   3.968
 3237TIP3   OH2 9674   2.712   2.631   2.795
 3237TIP3    H1 9675   2.771   2.705   2.782
 3237TIP3    H2 9676   2.769   2.561   2.829
 3238TIP3   OH2 9677   3.495   3.979   2.241
 3238TIP3    H1 9678   3.417   3.950   2.288
 3238TIP3    H2 9679   3.563   3.986   2.308
 3239TIP3   OH2 9680   0.423   5.601   2.200
 3239TIP3    H1 9681   0.368   5.624   2.125
 3239TIP3    H2 9682   0.408   5.672   2.263
 3240TIP3   OH2 9683   3.995   3.972   4.378
 3240TIP3    H1 9684   4.081   3.934   4.397
 3240TIP3    H2 9685   3.989   3.971   4.283
 3241TIP3   OH2 9686   0.507   6.042   0.309
 3241TIP3    H1 9687   0.536   6.027   0.219
 3241TIP3    H2 9688   0.474   6.132   0.309
 3242TIP3   OH2 9689   4.653   4.288   0.872
 3242TIP3    H1 9690   4.677   4.303   0.780
 3242TIP3    H2 9691   4.708   4.215   0.899
 3243TIP3   OH2 9692   6.036   3.204   5.489
 3243TIP3    H1 9693   6.044   3.112   5.514
 3243TIP3    H2 9694   6.119   3.243   5.516
 3244TIP3   OH2 9695   2.516   4.847   1.578
 3244TIP3    H1 9696   2.547   4.918   1.635
 3244TIP3    H2 9697   2.559   4.862   1.494
 3245TIP3   OH2 9698   2.121   2.790   2.782
 3245TIP3    H1 9699   2.108   2.885   2.793
 3245TIP3    H2 9700   2.178   2.765   2.856
 3246TIP3   OH2 9701   2.727   5.223   3.536
 3246TIP3    H1 9702   2.822   5.210   3.536
 3246TIP3    H2 9703   2.692   5.144   3.495
 3247TIP3   OH2 9704   1.489   5.662   5.603
 3247TIP3    H1 9705   1.401   5.637   5.628
 3247TIP3    H2 9706   1.523   5.587   5.553
 3248TIP3   OH2 9707   3.395   5.262   4.776
 3248TIP3    H1 9708   3.355   5.216   4.850
 3248TIP3    H2 9709   3.325   5.267   4.710
 3249TIP3   OH2 9710   5.079   2.006   0.068
 3249TIP3    H1 9711   4.994   1.995   0.109
 3249TIP3    H2 9712   5.105   1.917   0.042
 3250TIP3   OH2 9713   2.451   5.578   0.409
 3250TIP3    H1 9714   2.445   5.519   0.334
 3250TIP3    H2 9715   2.368   5.625   0.409
 3251TIP3   OH2 9716   6.112   4.395   0.259
 3251TIP3    H1 9717   6.120   4.425   0.169
 3251TIP3    H2 9718   6.098   4.474   0.311
 3252TIP3   OH2 9719   4.604   4.076   1.676
 3252TIP3    H1 9720   4.695   4.047   1.673
 3252TIP3    H2 9721   4.553   3.995   1.674
 3253TIP3   OH2 9722   6.268   5.967   0.407
 3253TIP3    H1 9723   6.331   5.929   0.346
 3253TIP3    H2 9724   6.183   5.951   0.366
 3254TIP3   OH2 9725   0.791   5.877   0.573
 3254TIP3    H1 9726   0.752   5.807   0.522
 3254TIP3    H2 9727   0.716   5.924   0.611
 3255TIP3   OH2 9728   5.342   2.518   4.751
 3255TIP3    H1 9729   5.346   2.495   4.658
 3255TIP3    H2 9730   5.330   2.613   4.752
 3256TIP3   OH2 9731   5.679   5.921   0.859
 3256TIP3    H1 9732   5.753   5.862   0.873
 3256TIP3    H2 9733   5.660   5.957   0.945
 3257TIP3   OH2 9734   0.550   0.348   4.644
 3257TIP3    H1 9735   0.618   0.409   4.616
 3257TIP3    H2 9736   0.570   0.332   4.736
 3258TIP3   OH2 9737   2.808   1.061   1.474
 3258TIP3    H1 9738   2.823   1.039   1.565
 3258TIP3    H2 9739   2.850   1.146   1.462
 3259TIP3   OH2 9740   1.857   6.513   4.701
 3259TIP3    H1 9741   1.865   6.553   4.788
 3259TIP3    H2 9742   1.948   6.492   4.677
 3260TIP3   OH2 9743   6.748   5.474   3.519
 3260TIP3    H1 9744   6.735   5.385   3.486
 3260TIP3    H2 9745   6.831   5.501   3.480
 3261TIP3   OH2 9746   5.782   5.483   2.816
 3261TIP3    H1 9747   5.771   5.388   2.814
 3261TIP3    H2 9748   5.762   5.508   2.906
 3262TIP3   OH2 9749   4.733   3.198   2.023
 3262TIP3    H1 9750   4.778   3.148   2.092
 3262TIP3    H2 9751   4.647   3.155   2.015
 3263TIP3   OH2 9752   4.386   6.311   5.703
 3263TIP3    H1 9753   4.296   6.280   5.689
 3263TIP3    H2 9754   4.394   6.318   5.798
 3264TIP3   OH2 9755   3.185   6.597   1.751
 3264TIP3    H1 9756   3.116   6.650   1.710
 3264TIP3    H2 9757   3.266   6.646   1.734
 3265TIP3   OH2 9758   2.300   6.710   2.224
 3265TIP3    H1 9759   2.243   6.644   2.265
 3265TIP3    H2 9760   2.241   6.783   2.205
 3266TIP3   OH2 9761   1.557   4.281   4.121
 3266TIP3    H1 9762   1.572   4.236   4.205
 3266TIP3    H2 9763   1.550   4.374   4.145
 3267TIP3   OH2 9764   4.914   0.501   2.456
 3267TIP3    H1 9765   4.966   0.521   2.534
 3267TIP3    H2 9766   4.887   0.587   2.422
 3268TIP3   OH2 9767   1.128   3.352   2.262
 3268TIP3    H1 9768   1.048   3.321   2.220
 3268TIP3    H2 9769   1.148   3.285   2.327
 3269TIP3   OH2 9770   1.883   6.430   5.337
 3269TIP3    H1 9771   1.888   6.350   5.389
 3269TIP3    H2 9772   1.846   6.495   5.397
 3270TIP3   OH2 9773   4.157   6.233   5.482
 3270TIP3    H1 9774   4.124   6.270   5.564
 3270TIP3    H2 9775   4.177   6.309   5.428
 3271TIP3   OH2 9776   2.705   5.109   5.469
 3271TIP3    H1 9777   2.748   5.093   5.385
 3271TIP3    H2 9778   2.651   5.187   5.453
 3272TIP3   OH2 9779   5.209   4.550   3.632
 3272TIP3    H1 9780   5.207   4.642   3.608
 3272TIP3    H2 9781   5.141   4.540   3.698
 3273TIP3   OH2 9782   2.323   1.850   1.046
 3273TIP3    H1 9783   2.265   1.801   1.104
 3273TIP3    H2 9784   2.293   1.941   1.053
 3274TIP3   OH2 9785   3.467   4.859   5.444
 3274TIP3    H1 9786   3.532   4.874   5.375
 3274TIP3    H2 9787   3.505   4.790   5.499
 3275TIP3   OH2 9788   7.223   6.717   4.700
 3275TIP3    H1 9789   7.254   6.732   4.610
 3275TIP3    H2 9790   7.129   6.704   4.691
 3276TIP3   OH2 9791   5.430   3.492   0.332
 3276TIP3    H1 9792   5.367   3.562   0.345
 3276TIP3    H2 9793   5.440   3.484   0.237
 3277TIP3   OH2 9794   1.612   4.358   1.551
 3277TIP3    H1 9795   1.594   4.308   1.631
 3277TIP3    H2 9796   1.706   4.349   1.538
 3278TIP3   OH2 9797   1.591   3.251   2.847
 3278TIP3    H1 9798   1.604   3.159   2.871
 3278TIP3    H2 9799   1.615   3.300   2.925
 3279TIP3   OH2 9800   7.127   3.178   3.725
 3279TIP3    H1 9801   7.058   3.239   3.698
 3279TIP3    H2 9802   7.106   3.158   3.817
 3280TIP3   OH2 9803   0.235   0.791   1.436
 3280TIP3    H1 9804   0.291   0.729   1.390
 3280TIP3    H2 9805   0.277   0.803   1.521
 3281TIP3   OH2 9806   4.462   4.010   4.326
 3281TIP3    H1 9807   4.493   4.002   4.416
 3281TIP3    H2 9808   4.414   4.093   4.325
 3282TIP3   OH2 9809   1.886   1.763   5.025
 3282TIP3    H1 9810   1.877   1.702   4.952
 3282TIP3    H2 9811   1.807   1.817   5.020
 3283TIP3   OH2 9812   6.629   4.921   5.363
 3283TIP3    H1 9813   6.538   4.892   5.357
 3283TIP3    H2 9814   6.680   4.842   5.342
 3284TIP3   OH2 9815   3.901   4.837   3.351
 3284TIP3    H1 9816   3.955   4.818   3.274
 3284TIP3    H2 9817   3.848   4.758   3.364
 3285TIP3   OH2 9818   7.120   2.656   5.072
 3285TIP3    H1 9819   7.199   2.611   5.100
 3285TIP3    H2 9820   7.139   2.749   5.086
 3286TIP3   OH2 9821   6.564   4.916   4.284
 3286TIP3    H1 9822   6.598   4.845   4.229
 3286TIP3    H2 9823   6.622   4.918   4.360
 3287TIP3   OH2 9824   2.999   2.746   3.839
 3287TIP3    H1 9825   2.992   2.815   3.773
 3287TIP3    H2 9826   3.053   2.679   3.797
 3288TIP3   OH2 9827   4.846   5.252   4.263
 3288TIP3    H1 9828   4.770   5.197   4.241
 3288TIP3    H2 9829   4.921   5.195   4.249
 3289TIP3   OH2 9830   4.420   0.962   3.791
 3289TIP3    H1 9831   4.498   0.913   3.818
 3289TIP3    H2 9832   4.383   0.909   3.720
 3290TIP3   OH2 9833   5.671   2.637   0.559
 3290TIP3    H1 9834   5.595   2.581   0.545
 3290TIP3    H2 9835   5.650   2.688   0.636
 3291TIP3   OH2 9836   0.964   5.815   3.652
 3291TIP3    H1 9837   0.891   5.868   3.685
 3291TIP3    H2 9838   0.949   5.808   3.558
 3292TIP3   OH2 9839   1.877   4.280   5.176
 3292TIP3    H1 9840   1.813   4.209   5.185
 3292TIP3    H2 9841   1.881   4.296   5.082
 3293TIP3   OH2 9842   3.976   5.888   4.366
 3293TIP3    H1 9843   3.976   5.978   4.399
 3293TIP3    H2 9844   3.955   5.835   4.442
 3294TIP3   OH2 9845   6.790   2.313   1.040
 3294TIP3    H1 9846   6.696   2.321   1.027
 3294TIP3    H2 9847   6.828   2.343   0.957
 3295TIP3   OH2 9848   4.839   2.434   0.655
 3295TIP3    H1 9849   4.895   2.431   0.578
 3295TIP3    H2 9850   4.750   2.443   0.621
 3296TIP3   OH2 9851   4.704   5.342   0.645
 3296TIP3    H1 9852   4.702   5.438   0.640
 3296TIP3    H2 9853   4.717   5.314   0.554
 3297TIP3   OH2 9854   5.967   6.020   0.538
 3297TIP3    H1 9855   6.016   5.980   0.610
 3297TIP3    H2 9856   5.990   5.968   0.461
 3298TIP3   OH2 9857   1.920   6.050   2.165
 3298TIP3    H1 9858   1.862   5.981   2.132
 3298TIP3    H2 9859   1.864   6.127   2.173
 3299TIP3   OH2 9860   3.722   1.394   1.970
 3299TIP3    H1 9861   3.718   1.300   1.950
 3299TIP3    H2 9862   3.638   1.413   2.013
 3300TIP3   OH2 9863   1.298   6.570   4.946
 3300TIP3    H1 9864   1.293   6.497   5.007
 3300TIP3    H2 9865   1.280   6.531   4.860
 3301TIP3   OH2 9866   6.324   0.528   0.359
 3301TIP3    H1 9867   6.339   0.574   0.277
 3301TIP3    H2 9868   6.336   0.594   0.427
 3302TIP3   OH2 9869   4.459   4.425   3.152
 3302TIP3    H1 9870   4.531   4.451   3.211
 3302TIP3    H2 9871   4.502   4.384   3.078
 3303TIP3   OH2 9872   1.985   6.314   5.097
 3303TIP3    H1 9873   2.004   6.357   5.180
 3303TIP3    H2 9874   1.947   6.384   5.042
 3304TIP3   OH2 9875   0.496   3.487   0.307
 3304TIP3    H1 9876   0.453   3.411   0.268
 3304TIP3    H2 9877   0.448   3.563   0.272
 3305TIP3   OH2 9878   3.912   0.446   2.596
 3305TIP3    H1 9879   3.819   0.454   2.574
 3305TIP3    H2 9880   3.941   0.536   2.609
 3306TIP3   OH2 9881   6.332   3.688   5.609
 3306TIP3    H1 9882   6.324   3.619   5.674
 3306TIP3    H2 9883   6.421   3.723   5.622
 3307TIP3   OH2 9884   4.253   5.381   1.162
 3307TIP3    H1 9885   4.177   5.328   1.189
 3307TIP3    H2 9886   4.319   5.317   1.136
 3308TIP3   OH2 9887   4.331   6.713   4.233
 3308TIP3    H1 9888   4.243   6.736   4.202
 3308TIP3    H2 9889   4.382   6.699   4.153
 3309TIP3   OH2 9890   3.308   4.199   1.597
 3309TIP3    H1 9891   3.278   4.108   1.592
 3309TIP3    H2 9892   3.269   4.241   1.521
 3310TIP3   OH2 9893   1.542   5.077   2.246
 3310TIP3    H1 9894   1.451   5.105   2.241
 3310TIP3    H2 9895   1.582   5.137   2.309
 3311TIP3   OH2 9896   1.711   5.671   3.860
 3311TIP3    H1 9897   1.683   5.642   3.773
 3311TIP3    H2 9898   1.635   5.658   3.916
 3312TIP3   OH2 9899   5.988   3.359   4.090
 3312TIP3    H1 9900   5.942   3.361   4.174
 3312TIP3    H2 9901   5.955   3.281   4.047
 3313TIP3   OH2 9902   3.429   1.652   5.829
 3313TIP3    H1 9903   3.341   1.688   5.841
 3313TIP3    H2 9904   3.427   1.613   5.742
 3314TIP3   OH2 9905   0.247   4.340   1.762
 3314TIP3    H1 9906   0.153   4.354   1.772
 3314TIP3    H2 9907   0.269   4.276   1.829
 3315TIP3   OH2 9908   6.882   5.487   1.514
 3315TIP3    H1 9909   6.832   5.537   1.450
 3315TIP3    H2 9910   6.973   5.514   1.499
 3316TIP3   OH2 9911   6.756   2.182   2.625
 3316TIP3    H1 9912   6.676   2.181   2.571
 3316TIP3    H2 9913   6.746   2.260   2.680
 3317TIP3   OH2 9914   6.281   4.497   1.140
 3317TIP3    H1 9915   6.248   4.587   1.139
 3317TIP3    H2 9916   6.259   4.462   1.054
 3318TIP3   OH2 9917   6.465   1.497   1.718
 3318TIP3    H1 9918   6.373   1.484   1.694
 3318TIP3    H2 9919   6.465   1.495   1.814
 3319TIP3   OH2 9920   3.491   5.364   1.264
 3319TIP3    H1 9921   3.447   5.352   1.180
 3319TIP3    H2 9922   3.450   5.442   1.302
 3320TIP3   OH2 9923   6.767   3.588   2.791
 3320TIP3    H1 9924   6.717   3.610   2.869
 3320TIP3    H2 9925   6.848   3.548   2.824
 3321TIP3   OH2 9926   2.542   4.170   1.241
 3321TIP3    H1 9927   2.636   4.172   1.259
 3321TIP3    H2 9928   2.534   4.206   1.152
 3322TIP3   OH2 9929   4.418   0.368   5.127
 3322TIP3    H1 9930   4.405   0.439   5.189
 3322TIP3    H2 9931   4.483   0.311   5.168
 3323TIP3   OH2 9932   2.846   4.885   0.261
 3323TIP3    H1 9933   2.939   4.872   0.238
 3323TIP3    H2 9934   2.799   4.832   0.197
 3324TIP3   OH2 9935   1.688   1.646   5.600
 3324TIP3    H1 9936   1.654   1.638   5.690
 3324TIP3    H2 9937   1.775   1.685   5.611
 3325TIP3   OH2 9938   5.470   3.352   4.630
 3325TIP3    H1 9939   5.479   3.288   4.701
 3325TIP3    H2 9940   5.493   3.303   4.551
 3326TIP3   OH2 9941   3.882   6.256   1.855
 3326TIP3    H1 9942   3.880   6.169   1.814
 3326TIP3    H2 9943   3.865   6.238   1.948
 3327TIP3   OH2 9944   3.509   1.825   0.495
 3327TIP3    H1 9945   3.582   1.798   0.440
 3327TIP3    H2 9946   3.447   1.866   0.435
 3328TIP3   OH2 9947   2.563   2.929   3.815
 3328TIP3    H1 9948   2.635   2.878   3.852
 3328TIP3    H2 9949   2.561   2.904   3.723
 3329TIP3   OH2 9950   0.583   1.812   3.747
 3329TIP3    H1 9951   0.618   1.728   3.776
 3329TIP3    H2 9952   0.549   1.853   3.826
 3330TIP3   OH2 9953   4.298   6.172   5.184
 3330TIP3    H1 9954   4.327   6.137   5.100
 3330TIP3    H2 9955   4.231   6.111   5.213
 3331TIP3   OH2 9956   4.096   0.410   4.386
 3331TIP3    H1 9957   4.007   0.442   4.376
 3331TIP3    H2 9958   4.143   0.482   4.429
 3332TIP3   OH2 9959   1.413   2.798   2.867
 3332TIP3    H1 9960   1.320   2.811   2.853
 3332TIP3    H2 9961   1.418   2.749   2.949
 3333TIP3   OH2 9962   5.845   5.836   3.399
 3333TIP3    H1 9963   5.863   5.928   3.381
 3333TIP3    H2 9964   5.909   5.788   3.347
 3334TIP3   OH2 9965   3.181   2.962   2.120
 3334TIP3    H1 9966   3.162   3.025   2.189
 3334TIP3    H2 9967   3.250   2.906   2.156
 3335TIP3   OH2 9968   6.042   2.847   0.355
 3335TIP3    H1 9969   5.949   2.855   0.376
 3335TIP3    H2 9970   6.086   2.905   0.417
 3336TIP3   OH2 9971   6.932   2.801   1.521
 3336TIP3    H1 9972   6.916   2.883   1.475
 3336TIP3    H2 9973   7.027   2.791   1.520
 3337TIP3   OH2 9974   0.108   6.738   4.446
 3337TIP3    H1 9975   0.091   6.729   4.352
 3337TIP3    H2 9976   0.134   6.829   4.456
 3338TIP3   OH2 9977   1.650   2.820   1.655
 3338TIP3    H1 9978   1.561   2.810   1.622
 3338TIP3    H2 9979   1.648   2.782   1.743
 3339TIP3   OH2 9980   6.689   0.806   2.473
 3339TIP3    H1 9981   6.669   0.724   2.428
 3339TIP3    H2 9982   6.693   0.872   2.404
 3340TIP3   OH2 9983   5.494   6.112   4.190
 3340TIP3    H1 9984   5.400   6.111   4.171
 3340TIP3    H2 9985   5.529   6.181   4.134
 3341TIP3   OH2 9986   6.983   4.766   5.506
 3341TIP3    H1 9987   6.979   4.731   5.595
 3341TIP3    H2 9988   6.924   4.711   5.456
 3342TIP3   OH2 9989   2.401   2.491   2.038
 3342TIP3    H1 9990   2.316   2.476   1.996
 3342TIP3    H2 9991   2.436   2.568   1.994
 3343TIP3   OH2 9992   3.560   1.932  -0.001
 3343TIP3    H1 9993   3.634   1.871   0.007
 3343TIP3    H2 9994   3.599   2.018   0.016
 3344TIP3   OH2 9995   6.182   2.962   5.506
 3344TIP3    H1 9996   6.194   2.985   5.414
 3344TIP3    H2 9997   6.206   2.869   5.510
 3345TIP3   OH2 9998   4.164   1.691   4.185
 3345TIP3    H1 9999   4.248   1.668   4.145
 3345TIP3    H210000   4.153   1.627   4.256
 3346TIP3   OH210001   3.598   3.990   4.385
 3346TIP3    H110002   3.626   4.038   4.307
 3346TIP3    H210003   3.504   3.976   4.372
 3347TIP3   OH210004   4.928   1.695   0.846
 3347TIP3    H110005   4.849   1.740   0.876
 3347TIP3    H210006   4.921   1.607   0.882
 3348TIP3   OH210007   4.627   4.462   3.775
 3348TIP3    H110008   4.543   4.423   3.751
 3348TIP3    H210009   4.618   4.481   3.868
 3349TIP3   OH210010   4.530   2.245   2.183
 3349TIP3    H110011   4.581   2.165   2.169
 3349TIP3    H210012   4.439   2.216   2.180
 3350TIP3   OH210013   4.661   6.411   1.916
 3350TIP3    H110014   4.630   6.337   1.865
 3350TIP3    H210015   4.652   6.487   1.858
 3351TIP3   OH210016   4.856   0.093   4.750
 3351TIP3    H110017   4.936   0.117   4.702
 3351TIP3    H210018   4.785   0.114   4.689
 3352TIP3   OH210019   4.414   5.914   2.159
 3352TIP3    H110020   4.356   5.893   2.086
 3352TIP3    H210021   4.368   5.879   2.236
 3353TIP3   OH210022   2.092   2.158   2.499
 3353TIP3    H110023   2.161   2.096   2.475
 3353TIP3    H210024   2.135   2.220   2.559
 3354TIP3   OH210025   3.680   2.923   1.916
 3354TIP3    H110026   3.635   2.979   1.979
 3354TIP3    H210027   3.714   2.983   1.850
 3355TIP3   OH210028   3.653   2.376   0.575
 3355TIP3    H110029   3.587   2.315   0.542
 3355TIP3    H210030   3.714   2.320   0.623
 3356TIP3   OH210031   0.394   1.204   5.447
 3356TIP3    H110032   0.433   1.249   5.372
 3356TIP3    H210033   0.300   1.207   5.429
 3357TIP3   OH210034   5.635   1.313   3.723
 3357TIP3    H110035   5.583   1.305   3.643
 3357TIP3    H210036   5.618   1.232   3.771
 3358TIP3   OH210037   6.600   3.516   0.552
 3358TIP3    H110038   6.529   3.503   0.489
 3358TIP3    H210039   6.671   3.460   0.521
 3359TIP3   OH210040   6.709   5.563   2.516
 3359TIP3    H110041   6.684   5.598   2.431
 3359TIP3    H210042   6.786   5.508   2.498
 3360TIP3   OH210043   2.661   4.577   3.533
 3360TIP3    H110044   2.740   4.526   3.514
 3360TIP3    H210045   2.689   4.668   3.525
 3361TIP3   OH210046   1.933   3.523   1.868
 3361TIP3    H110047   1.880   3.449   1.839
 3361TIP3    H210048   1.893   3.550   1.950
 3362TIP3   OH210049   1.451   5.609   1.284
 3362TIP3    H110050   1.391   5.536   1.298
 3362TIP3    H210051   1.405   5.685   1.320
 3363TIP3   OH210052   1.691   1.973   3.265
 3363TIP3    H110053   1.638   2.000   3.189
 3363TIP3    H210054   1.637   1.906   3.308
 3364TIP3   OH210055   2.263   4.825   0.463
 3364TIP3    H110056   2.185   4.824   0.519
 3364TIP3    H210057   2.330   4.869   0.517
 3365TIP3   OH210058   1.236   5.815   5.484
 3365TIP3    H110059   1.168   5.866   5.439
 3365TIP3    H210060   1.214   5.724   5.464
 3366TIP3   OH210061   0.638   4.828   4.291
 3366TIP3    H110062   0.678   4.914   4.280
 3366TIP3    H210063   0.560   4.831   4.236
 3367TIP3   OH210064   6.914   4.940   4.467
 3367TIP3    H110065   6.907   4.944   4.372
 3367TIP3    H210066   6.993   4.890   4.484
 3368TIP3   OH210067   2.592   6.018   0.736
 3368TIP3    H110068   2.530   6.075   0.691
 3368TIP3    H210069   2.653   6.077   0.780
 3369TIP3   OH210070   1.227   5.270   5.067
 3369TIP3    H110071   1.283   5.230   5.134
 3369TIP3    H210072   1.252   5.363   5.067
 3370TIP3   OH210073   3.869   0.367   4.647
 3370TIP3    H110074   3.895   0.277   4.663
 3370TIP3    H210075   3.805   0.361   4.576
 3371TIP3   OH210076   0.037   4.121   5.738
 3371TIP3    H110077   0.023   4.050   5.675
 3371TIP3    H210078   0.132   4.132   5.739
 3372TIP3   OH210079   3.928   3.758   1.941
 3372TIP3    H110080   3.961   3.711   1.864
 3372TIP3    H210081   3.941   3.697   2.013
 3373TIP3   OH210082   7.102   5.102   5.581
 3373TIP3    H110083   7.159   5.138   5.649
 3373TIP3    H210084   7.073   5.178   5.531
 3374TIP3   OH210085   0.680   4.192   2.417
 3374TIP3    H110086   0.650   4.280   2.441
 3374TIP3    H210087   0.630   4.171   2.338
 3375TIP3   OH210088   2.103   3.260   2.226
 3375TIP3    H110089   2.034   3.319   2.195
 3375TIP3    H210090   2.094   3.260   2.321
 3376TIP3   OH210091   1.156   0.194   1.324
 3376TIP3    H110092   1.152   0.289   1.318
 3376TIP3    H210093   1.219   0.168   1.257
 3377TIP3   OH210094   0.691   4.232   4.065
 3377TIP3    H110095   0.684   4.247   4.159
 3377TIP3    H210096   0.686   4.137   4.055
 3378TIP3   OH210097   4.326   2.258   3.416
 3378TIP3    H110098   4.249   2.254   3.359
 3378TIP3    H210099   4.359   2.347   3.405
 3379TIP3   OH210100   2.213   5.918   1.955
 3379TIP3    H110101   2.298   5.958   1.973
 3379TIP3    H210102   2.167   5.982   1.901
 3380TIP3   OH210103   0.146   4.038   3.117
 3380TIP3    H110104   0.159   4.132   3.120
 3380TIP3    H210105   0.187   4.010   3.035
 3381TIP3   OH210106   3.205   6.044   2.024
 3381TIP3    H110107   3.187   6.095   2.104
 3381TIP3    H210108   3.120   6.009   1.999
 3382TIP3   OH210109   3.134   5.353   1.159
 3382TIP3    H110110   3.048   5.369   1.197
 3382TIP3    H210111   3.140   5.257   1.152
 3383TIP3   OH210112   2.902   0.935   1.735
 3383TIP3    H110113   2.953   1.016   1.739
 3383TIP3    H210114   2.916   0.894   1.820
 3384TIP3   OH210115   3.712   4.673   2.724
 3384TIP3    H110116   3.711   4.631   2.638
 3384TIP3    H210117   3.756   4.757   2.709
 3385TIP3   OH210118   0.881   1.542   0.189
 3385TIP3    H110119   0.888   1.544   0.094
 3385TIP3    H210120   0.922   1.459   0.214
 3386TIP3   OH210121   2.833   3.245   1.459
 3386TIP3    H110122   2.879   3.329   1.458
 3386TIP3    H210123   2.882   3.191   1.521
 3387TIP3   OH210124   0.341   0.330   1.577
 3387TIP3    H110125   0.273   0.354   1.641
 3387TIP3    H210126   0.406   0.281   1.628
 3388TIP3   OH210127   6.329   4.381   4.597
 3388TIP3    H110128   6.234   4.381   4.591
 3388TIP3    H210129   6.356   4.302   4.550
 3389TIP3   OH210130   1.024   6.677   2.382
 3389TIP3    H110131   0.994   6.763   2.412
 3389TIP3    H210132   1.118   6.686   2.372
 3390TIP3   OH210133   5.836   1.807   3.256
 3390TIP3    H110134   5.878   1.854   3.328
 3390TIP3    H210135   5.903   1.803   3.187
 3391TIP3   OH210136   6.306   3.238   2.398
 3391TIP3    H110137   6.318   3.255   2.492
 3391TIP3    H210138   6.388   3.197   2.371
 3392TIP3   OH210139   2.457   0.912   0.325
 3392TIP3    H110140   2.486   0.878   0.241
 3392TIP3    H210141   2.534   0.956   0.361
 3393TIP3   OH210142   2.754   2.578   3.453
 3393TIP3    H110143   2.814   2.505   3.434
 3393TIP3    H210144   2.798   2.655   3.417
 3394TIP3   OH210145   4.436   4.635   5.523
 3394TIP3    H110146   4.455   4.656   5.614
 3394TIP3    H210147   4.352   4.589   5.526
 3395TIP3   OH210148   2.524   4.497   4.963
 3395TIP3    H110149   2.567   4.567   4.913
 3395TIP3    H210150   2.512   4.426   4.900
 3396TIP3   OH210151   1.557   4.527   5.746
 3396TIP3    H110152   1.547   4.604   5.801
 3396TIP3    H210153   1.500   4.544   5.670
 3397TIP3   OH210154   5.149   4.442   4.093
 3397TIP3    H110155   5.069   4.432   4.042
 3397TIP3    H210156   5.183   4.528   4.068
 3398TIP3   OH210157   2.206   2.037   3.503
 3398TIP3    H110158   2.224   2.115   3.451
 3398TIP3    H210159   2.110   2.035   3.510
 3399TIP3   OH210160   6.709   5.237   1.048
 3399TIP3    H110161   6.617   5.227   1.072
 3399TIP3    H210162   6.715   5.202   0.959
 3400TIP3   OH210163   5.018   1.746   0.382
 3400TIP3    H110164   4.969   1.818   0.343
 3400TIP3    H210165   4.999   1.670   0.326
 3401TIP3   OH210166   5.569   6.504   4.538
 3401TIP3    H110167   5.490   6.557   4.524
 3401TIP3    H210168   5.544   6.440   4.604
 3402TIP3   OH210169   4.717   0.890   1.548
 3402TIP3    H110170   4.773   0.949   1.599
 3402TIP3    H210171   4.639   0.941   1.530
 3403TIP3   OH210172   3.329   5.084   3.572
 3403TIP3    H110173   3.422   5.082   3.549
 3403TIP3    H210174   3.319   5.012   3.635
 3404TIP3   OH210175   6.174   3.386   0.194
 3404TIP3    H110176   6.249   3.409   0.139
 3404TIP3    H210177   6.107   3.450   0.172
 3405TIP3   OH210178   0.704   4.639   1.906
 3405TIP3    H110179   0.660   4.698   1.844
 3405TIP3    H210180   0.793   4.631   1.873
 3406TIP3   OH210181   0.254   0.142   2.204
 3406TIP3    H110182   0.309   0.087   2.259
 3406TIP3    H210183   0.209   0.079   2.146
 3407TIP3   OH210184   2.766   5.709   0.279
 3407TIP3    H110185   2.736   5.800   0.282
 3407TIP3    H210186   2.726   5.668   0.356
 3408TIP3   OH210187   2.062   6.280   4.646
 3408TIP3    H110188   2.125   6.289   4.717
 3408TIP3    H210189   1.984   6.241   4.687
 3409TIP3   OH210190   3.479   5.474   1.722
 3409TIP3    H110191   3.568   5.511   1.720
 3409TIP3    H210192   3.444   5.500   1.807
 3410TIP3   OH210193   0.104   2.219   2.455
 3410TIP3    H110194   0.160   2.232   2.532
 3410TIP3    H210195   0.028   2.172   2.489
 3411TIP3   OH210196   5.180   6.642   5.252
 3411TIP3    H110197   5.191   6.582   5.326
 3411TIP3    H210198   5.221   6.724   5.283
 3412TIP3   OH210199   4.614   0.238   3.654
 3412TIP3    H110200   4.548   0.173   3.630
 3412TIP3    H210201   4.698   0.193   3.644
 3413TIP3   OH210202   4.620   4.614   3.353
 3413TIP3    H110203   4.676   4.668   3.409
 3413TIP3    H210204   4.541   4.600   3.404
 3414TIP3   OH210205   0.727   6.205   4.373
 3414TIP3    H110206   0.776   6.187   4.293
 3414TIP3    H210207   0.640   6.167   4.356
 3415TIP3   OH210208   0.515   4.294   3.427
 3415TIP3    H110209   0.462   4.265   3.501
 3415TIP3    H210210   0.454   4.301   3.354
 3416TIP3   OH210211   4.095   0.564   5.509
 3416TIP3    H110212   4.137   0.600   5.431
 3416TIP3    H210213   4.164   0.560   5.574
 3417TIP3   OH210214   5.499   2.540   5.046
 3417TIP3    H110215   5.409   2.522   5.018
 3417TIP3    H210216   5.547   2.554   4.964
 3418TIP3   OH210217   5.801   3.738   0.301
 3418TIP3    H110218   5.810   3.744   0.396
 3418TIP3    H210219   5.753   3.817   0.276
 3419TIP3   OH210220   6.898   3.593   5.535
 3419TIP3    H110221   6.913   3.664   5.472
 3419TIP3    H210222   6.925   3.630   5.619
 3420TIP3   OH210223   4.832   4.568   2.349
 3420TIP3    H110224   4.737   4.561   2.335
 3420TIP3    H210225   4.870   4.503   2.290
 3421TIP3   OH210226   5.142   0.442   1.846
 3421TIP3    H110227   5.169   0.432   1.938
 3421TIP3    H210228   5.051   0.414   1.845
 3422TIP3   OH210229   3.520   6.780   2.245
 3422TIP3    H110230   3.473   6.843   2.190
 3422TIP3    H210231   3.589   6.746   2.188
 3423TIP3   OH210232   3.781   0.064   1.724
 3423TIP3    H110233   3.797   0.053   1.817
 3423TIP3    H210234   3.823  -0.011   1.683
 3424TIP3   OH210235   5.289   4.635   3.927
 3424TIP3    H110236   5.359   4.654   3.990
 3424TIP3    H210237   5.334   4.596   3.852
 3425TIP3   OH210238   5.898   6.469   3.706
 3425TIP3    H110239   5.939   6.546   3.746
 3425TIP3    H210240   5.808   6.472   3.738
 3426TIP3   OH210241   6.627   3.195   4.643
 3426TIP3    H110242   6.623   3.291   4.640
 3426TIP3    H210243   6.711   3.173   4.601
 3427TIP3   OH210244   6.293   0.761   3.902
 3427TIP3    H110245   6.294   0.726   3.814
 3427TIP3    H210246   6.254   0.848   3.893
 3428TIP3   OH210247   5.852   0.917   1.774
 3428TIP3    H110248   5.822   0.842   1.722
 3428TIP3    H210249   5.821   0.994   1.725
 3429TIP3   OH210250   0.518   5.969   2.749
 3429TIP3    H110251   0.540   5.896   2.807
 3429TIP3    H210252   0.600   6.018   2.740
 3430TIP3   OH210253   4.074   3.352   1.832
 3430TIP3    H110254   4.116   3.271   1.860
 3430TIP3    H210255   4.042   3.392   1.912
 3431TIP3   OH210256   5.796   4.096   0.808
 3431TIP3    H110257   5.763   4.021   0.858
 3431TIP3    H210258   5.719   4.151   0.795
 3432TIP3   OH210259   6.307   4.211   2.071
 3432TIP3    H110260   6.216   4.208   2.043
 3432TIP3    H210261   6.318   4.298   2.109
 3433TIP3   OH210262   4.074   2.813   0.172
 3433TIP3    H110263   4.105   2.882   0.113
 3433TIP3    H210264   3.988   2.843   0.201
 3434TIP3   OH210265   1.334   2.021   5.516
 3434TIP3    H110266   1.318   2.113   5.540
 3434TIP3    H210267   1.424   2.021   5.482
 3435TIP3   OH210268   1.830   6.443   3.399
 3435TIP3    H110269   1.826   6.422   3.492
 3435TIP3    H210270   1.746   6.414   3.364
 3436TIP3   OH210271   0.132   3.744   4.492
 3436TIP3    H110272   0.044   3.707   4.504
 3436TIP3    H210273   0.121   3.807   4.421
 3437TIP3   OH210274   3.187   6.608   3.110
 3437TIP3    H110275   3.278   6.615   3.081
 3437TIP3    H210276   3.149   6.694   3.091
 3438TIP3   OH210277   4.358   4.755   2.532
 3438TIP3    H110278   4.321   4.740   2.445
 3438TIP3    H210279   4.284   4.741   2.592
 3439TIP3   OH210280   3.341   5.202   5.802
 3439TIP3    H110281   3.370   5.111   5.803
 3439TIP3    H210282   3.340   5.228   5.894
 3440TIP3   OH210283   2.768   5.202   5.815
 3440TIP3    H110284   2.812   5.285   5.796
 3440TIP3    H210285   2.724   5.179   5.734
 3441TIP3   OH210286   6.342   4.247   2.411
 3441TIP3    H110287   6.357   4.286   2.498
 3441TIP3    H210288   6.251   4.220   2.412
 3442TIP3   OH210289   5.558   1.769   3.270
 3442TIP3    H110290   5.651   1.792   3.276
 3442TIP3    H210291   5.550   1.691   3.326
 3443TIP3   OH210292   2.381   6.499   2.067
 3443TIP3    H110293   2.403   6.567   2.129
 3443TIP3    H210294   2.287   6.509   2.052
 3444TIP3   OH210295   1.122   6.287   0.938
 3444TIP3    H110296   1.060   6.296   1.011
 3444TIP3    H210297   1.094   6.207   0.893
 3445TIP3   OH210298   4.915   2.597   1.311
 3445TIP3    H110299   4.923   2.595   1.406
 3445TIP3    H210300   4.823   2.615   1.294
 3446TIP3   OH210301   2.282   1.697   0.809
 3446TIP3    H110302   2.196   1.672   0.775
 3446TIP3    H210303   2.264   1.763   0.875
 3447TIP3   OH210304   2.296   1.531   1.821
 3447TIP3    H110305   2.208   1.498   1.804
 3447TIP3    H210306   2.284   1.624   1.838
 3448TIP3   OH210307   6.187   1.539   3.950
 3448TIP3    H110308   6.243   1.605   3.991
 3448TIP3    H210309   6.107   1.586   3.928
 3449TIP3   OH210310   7.023   3.060   1.489
 3449TIP3    H110311   6.929   3.068   1.508
 3449TIP3    H210312   7.031   3.083   1.397
 3450TIP3   OH210313   0.957   2.571   0.476
 3450TIP3    H110314   0.990   2.503   0.417
 3450TIP3    H210315   1.015   2.567   0.552
 3451TIP3   OH210316   3.077   0.280   0.931
 3451TIP3    H110317   2.983   0.265   0.917
 3451TIP3    H210318   3.086   0.293   1.025
 3452TIP3   OH210319   6.454   2.422   2.585
 3452TIP3    H110320   6.550   2.423   2.590
 3452TIP3    H210321   6.425   2.417   2.676
 3453TIP3   OH210322   6.089   4.861   3.829
 3453TIP3    H110323   6.168   4.842   3.779
 3453TIP3    H210324   6.118   4.919   3.899
 3454TIP3   OH210325   2.234   0.762   0.074
 3454TIP3    H110326   2.313   0.790   0.026
 3454TIP3    H210327   2.220   0.831   0.139
 3455TIP3   OH210328   4.868   6.750   3.864
 3455TIP3    H110329   4.846   6.656   3.871
 3455TIP3    H210330   4.791   6.794   3.899
 3456TIP3   OH210331   3.045   1.486   2.266
 3456TIP3    H110332   2.995   1.491   2.347
 3456TIP3    H210333   3.051   1.392   2.248
 3457TIP3   OH210334   5.279   0.783   1.214
 3457TIP3    H110335   5.216   0.766   1.284
 3457TIP3    H210336   5.331   0.857   1.245
 3458TIP3   OH210337   3.779   2.715   4.031
 3458TIP3    H110338   3.749   2.755   3.949
 3458TIP3    H210339   3.862   2.759   4.049
 3459TIP3   OH210340   0.712   2.090   4.427
 3459TIP3    H110341   0.731   2.073   4.335
 3459TIP3    H210342   0.666   2.174   4.427
 3460TIP3   OH210343   4.552   5.258   3.574
 3460TIP3    H110344   4.607   5.206   3.632
 3460TIP3    H210345   4.500   5.193   3.527
 3461TIP3   OH210346   5.434   0.211   3.653
 3461TIP3    H110347   5.527   0.229   3.639
 3461TIP3    H210348   5.389   0.256   3.582
 3462TIP3   OH210349   6.482   3.965   2.563
 3462TIP3    H110350   6.536   4.012   2.500
 3462TIP3    H210351   6.396   4.006   2.557
 3463TIP3   OH210352   3.473   6.213   5.738
 3463TIP3    H110353   3.501   6.297   5.774
 3463TIP3    H210354   3.493   6.219   5.644
 3464TIP3   OH210355   4.124   2.012   4.037
 3464TIP3    H110356   4.082   1.957   4.103
 3464TIP3    H210357   4.212   2.026   4.070
 3465TIP3   OH210358   1.700   5.526   3.143
 3465TIP3    H110359   1.704   5.451   3.084
 3465TIP3    H210360   1.656   5.493   3.221
 3466TIP3   OH210361   4.198   1.032   3.924
 3466TIP3    H110362   4.213   1.002   4.013
 3466TIP3    H210363   4.272   0.998   3.874
 3467TIP3   OH210364   4.482   5.882   1.050
 3467TIP3    H110365   4.570   5.917   1.032
 3467TIP3    H210366   4.497   5.791   1.075
 3468TIP3   OH210367   2.203   2.768   3.069
 3468TIP3    H110368   2.280   2.725   3.031
 3468TIP3    H210369   2.230   2.790   3.158
 3469TIP3   OH210370   0.577   6.571   5.365
 3469TIP3    H110371   0.565   6.620   5.447
 3469TIP3    H210372   0.491   6.571   5.324
 3470TIP3   OH210373   1.333   3.093   2.424
 3470TIP3    H110374   1.238   3.092   2.412
 3470TIP3    H210375   1.345   3.128   2.512
 3471TIP3   OH210376   0.617   0.640   3.282
 3471TIP3    H110377   0.650   0.566   3.231
 3471TIP3    H210378   0.685   0.657   3.347
 3472TIP3   OH210379   1.970   0.522   1.237
 3472TIP3    H110380   2.026   0.452   1.272
 3472TIP3    H210381   1.890   0.517   1.288
 3473TIP3   OH210382   0.066   1.878   2.349
 3473TIP3    H110383  -0.001   1.875   2.280
 3473TIP3    H210384   0.129   1.944   2.318
 3474TIP3   OH210385   5.838   6.426   4.665
 3474TIP3    H110386   5.781   6.349   4.665
 3474TIP3    H210387   5.920   6.396   4.703
 3475TIP3   OH210388   7.150   0.292   5.440
 3475TIP3    H110389   7.184   0.235   5.509
 3475TIP3    H210390   7.186   0.378   5.460
 3476TIP3   OH210391   4.956   2.491   0.400
 3476TIP3    H110392   4.955   2.421   0.335
 3476TIP3    H210393   4.892   2.555   0.366
 3477TIP3   OH210394   5.105   3.113   1.230
 3477TIP3    H110395   5.181   3.164   1.204
 3477TIP3    H210396   5.088   3.055   1.155
 3478TIP3   OH210397   4.110   4.715   2.145
 3478TIP3    H110398   4.022   4.679   2.133
 3478TIP3    H210399   4.097   4.809   2.157
 3479TIP3   OH210400   2.744   5.840   4.559
 3479TIP3    H110401   2.808   5.909   4.543
 3479TIP3    H210402   2.689   5.873   4.630
 3480TIP3   OH210403   6.707   5.867   0.452
 3480TIP3    H110404   6.669   5.953   0.471
 3480TIP3    H210405   6.634   5.817   0.414
 3481TIP3   OH210406   7.118   3.730   0.238
 3481TIP3    H110407   7.103   3.644   0.199
 3481TIP3    H210408   7.034   3.756   0.275
 3482TIP3   OH210409   1.904   0.438   2.552
 3482TIP3    H110410   1.936   0.523   2.523
 3482TIP3    H210411   1.960   0.375   2.507
 3483TIP3   OH210412   3.815   5.138   4.261
 3483TIP3    H110413   3.779   5.217   4.302
 3483TIP3    H210414   3.737   5.090   4.233
 3484TIP3   OH210415   6.658   2.880   5.832
 3484TIP3    H110416   6.584   2.829   5.867
 3484TIP3    H210417   6.632   2.904   5.743
 3485TIP3   OH210418   4.073   1.227   1.444
 3485TIP3    H110419   3.984   1.227   1.409
 3485TIP3    H210420   4.091   1.319   1.462
 3486TIP3   OH210421   4.786   3.897   1.188
 3486TIP3    H110422   4.750   3.943   1.265
 3486TIP3    H210423   4.787   3.964   1.119
 3487TIP3   OH210424   6.689   4.460   0.337
 3487TIP3    H110425   6.719   4.508   0.261
 3487TIP3    H210426   6.766   4.455   0.395
 3488TIP3   OH210427   3.700   3.055   1.675
 3488TIP3    H110428   3.708   2.979   1.617
 3488TIP3    H210429   3.617   3.095   1.650
 3489TIP3   OH210430   4.306   0.916   0.198
 3489TIP3    H110431   4.358   0.847   0.238
 3489TIP3    H210432   4.218   0.905   0.235
 3490TIP3   OH210433   2.877   6.288   2.413
 3490TIP3    H110434   2.785   6.298   2.386
 3490TIP3    H210435   2.872   6.243   2.498
 3491TIP3   OH210436   2.855   1.358   1.384
 3491TIP3    H110437   2.862   1.352   1.479
 3491TIP3    H210438   2.792   1.429   1.369
 3492TIP3   OH210439   0.424   3.631   1.425
 3492TIP3    H110440   0.433   3.609   1.517
 3492TIP3    H210441   0.347   3.582   1.396
 3493TIP3   OH210442   2.077   6.295   2.459
 3493TIP3    H110443   2.068   6.353   2.535
 3493TIP3    H210444   1.993   6.248   2.456
 3494TIP3   OH210445   4.514   1.779   3.675
 3494TIP3    H110446   4.480   1.746   3.592
 3494TIP3    H210447   4.468   1.729   3.742
 3495TIP3   OH210448   0.149   5.907   5.137
 3495TIP3    H110449   0.231   5.904   5.186
 3495TIP3    H210450   0.118   5.997   5.147
 3496TIP3   OH210451   4.331   3.489   1.686
 3496TIP3    H110452   4.295   3.576   1.671
 3496TIP3    H210453   4.255   3.434   1.707
 3497TIP3   OH210454   5.545   3.309   2.122
 3497TIP3    H110455   5.471   3.255   2.151
 3497TIP3    H210456   5.602   3.314   2.198
 3498TIP3   OH210457   5.770   4.271   2.037
 3498TIP3    H110458   5.709   4.296   1.968
 3498TIP3    H210459   5.715   4.256   2.114
 3499TIP3   OH210460   7.058   0.664   2.935
 3499TIP3    H110461   7.061   0.756   2.959
 3499TIP3    H210462   7.112   0.658   2.856
 3500TIP3   OH210463   1.449   5.144   3.377
 3500TIP3    H110464   1.531   5.184   3.404
 3500TIP3    H210465   1.381   5.198   3.417
 3501TIP3   OH210466   0.498   4.972   4.530
 3501TIP3    H110467   0.523   4.966   4.622
 3501TIP3    H210468   0.564   5.030   4.491
 3502TIP3   OH210469   2.891   0.198   3.736
 3502TIP3    H110470   2.985   0.189   3.722
 3502TIP3    H210471   2.881   0.204   3.831
 3503TIP3   OH210472   2.278   5.115   3.997
 3503TIP3    H110473   2.207   5.087   4.055
 3503TIP3    H210474   2.259   5.207   3.978
 3504TIP3   OH210475   2.439   2.323   4.716
 3504TIP3    H110476   2.388   2.384   4.663
 3504TIP3    H210477   2.479   2.378   4.784
 3505TIP3   OH210478   4.607   1.115   5.544
 3505TIP3    H110479   4.694   1.115   5.504
 3505TIP3    H210480   4.547   1.122   5.469
 3506TIP3   OH210481  -0.033   2.388   3.234
 3506TIP3    H110482   0.030   2.451   3.198
 3506TIP3    H210483  -0.013   2.306   3.189
 3507TIP3   OH210484   0.276   5.843   5.629
 3507TIP3    H110485   0.329   5.887   5.695
 3507TIP3    H210486   0.188   5.839   5.667
 3508TIP3   OH210487   0.782   2.950   3.232
 3508TIP3    H110488   0.831   2.913   3.159
 3508TIP3    H210489   0.837   2.935   3.309
 3509TIP3   OH210490   1.728   2.157   4.187
 3509TIP3    H110491   1.806   2.178   4.136
 3509TIP3    H210492   1.740   2.206   4.269
 3510TIP3   OH210493   4.282   2.442   4.192
 3510TIP3    H110494   4.265   2.526   4.149
 3510TIP3    H210495   4.283   2.462   4.285
 3511TIP3   OH210496   3.401   5.605   5.689
 3511TIP3    H110497   3.314   5.638   5.667
 3511TIP3    H210498   3.401   5.514   5.660
 3512TIP3   OH210499   6.348   3.688   1.867
 3512TIP3    H110500   6.274   3.650   1.820
 3512TIP3    H210501   6.338   3.782   1.855
 3513TIP3   OH210502   3.378   1.240   5.881
 3513TIP3    H110503   3.331   1.241   5.797
 3513TIP3    H210504   3.410   1.151   5.889
 3514TIP3   OH210505   5.408   5.359   5.516
 3514TIP3    H110506   5.317   5.388   5.520
 3514TIP3    H210507   5.402   5.265   5.503
 3515TIP3   OH210508   2.718   0.041   4.698
 3515TIP3    H110509   2.812   0.050   4.714
 3515TIP3    H210510   2.678   0.113   4.746
 3516TIP3   OH210511   4.474   5.636   4.799
 3516TIP3    H110512   4.475   5.631   4.894
 3516TIP3    H210513   4.536   5.569   4.771
 3517TIP3   OH210514   2.908   0.108   4.010
 3517TIP3    H110515   2.827   0.144   4.047
 3517TIP3    H210516   2.929   0.034   4.068
 3518TIP3   OH210517   6.648   2.960   0.860
 3518TIP3    H110518   6.671   2.949   0.768
 3518TIP3    H210519   6.587   2.888   0.878
 3519TIP3   OH210520   1.869   0.408   2.103
 3519TIP3    H110521   1.815   0.356   2.043
 3519TIP3    H210522   1.820   0.409   2.185
 3520TIP3   OH210523   2.733   0.590   2.872
 3520TIP3    H110524   2.693   0.668   2.910
 3520TIP3    H210525   2.820   0.619   2.843
 3521TIP3   OH210526   0.416   2.681   3.309
 3521TIP3    H110527   0.335   2.629   3.314
 3521TIP3    H210528   0.453   2.677   3.397
 3522TIP3   OH210529   7.023   3.594   4.904
 3522TIP3    H110530   6.970   3.536   4.958
 3522TIP3    H210531   7.112   3.584   4.938
 3523TIP3   OH210532   1.234   2.536   3.442
 3523TIP3    H110533   1.144   2.505   3.431
 3523TIP3    H210534   1.226   2.631   3.449
 3524TIP3   OH210535   4.717   1.617   4.871
 3524TIP3    H110536   4.708   1.605   4.777
 3524TIP3    H210537   4.629   1.599   4.906
 3525TIP3   OH210538   5.710   0.143   1.555
 3525TIP3    H110539   5.640   0.097   1.509
 3525TIP3    H210540   5.675   0.157   1.643
 3526TIP3   OH210541   3.969   5.701   4.575
 3526TIP3    H110542   3.981   5.615   4.535
 3526TIP3    H210543   4.057   5.727   4.602
 3527TIP3   OH210544   4.244   4.446   5.369
 3527TIP3    H110545   4.259   4.363   5.414
 3527TIP3    H210546   4.303   4.444   5.294
 3528TIP3   OH210547   0.338   5.446   2.660
 3528TIP3    H110548   0.340   5.490   2.575
 3528TIP3    H210549   0.306   5.512   2.721
 3529TIP3   OH210550   5.285   6.419   1.019
 3529TIP3    H110551   5.359   6.412   0.958
 3529TIP3    H210552   5.210   6.439   0.962
 3530TIP3   OH210553   3.286   1.345   3.350
 3530TIP3    H110554   3.358   1.360   3.411
 3530TIP3    H210555   3.288   1.420   3.291
 3531TIP3   OH210556   7.046   2.276   3.940
 3531TIP3    H110557   7.089   2.199   3.905
 3531TIP3    H210558   7.085   2.349   3.892
 3532TIP3   OH210559   6.149   3.099   5.766
 3532TIP3    H110560   6.183   3.172   5.818
 3532TIP3    H210561   6.220   3.077   5.707
 3533TIP3   OH210562   7.077   0.157   4.294
 3533TIP3    H110563   7.149   0.100   4.321
 3533TIP3    H210564   7.107   0.198   4.213
 3534TIP3   OH210565   5.367   3.421   5.801
 3534TIP3    H110566   5.292   3.479   5.815
 3534TIP3    H210567   5.434   3.477   5.763
 3535TIP3   OH210568   1.835   1.749   0.009
 3535TIP3    H110569   1.741   1.760  -0.004
 3535TIP3    H210570   1.865   1.699  -0.067
 3536TIP3   OH210571   6.726   4.155   4.196
 3536TIP3    H110572   6.640   4.178   4.233
 3536TIP3    H210573   6.716   4.171   4.102
 3537TIP3   OH210574   5.841   2.577   1.276
 3537TIP3    H110575   5.896   2.624   1.339
 3537TIP3    H210576   5.767   2.635   1.261
 3538TIP3   OH210577   1.375   5.054   0.078
 3538TIP3    H110578   1.431   4.981   0.105
 3538TIP3    H210579   1.331   5.022  -0.001
 3539TIP3   OH210580   1.403   6.184   2.287
 3539TIP3    H110581   1.404   6.254   2.222
 3539TIP3    H210582   1.357   6.222   2.362
 3540TIP3   OH210583   4.983   5.858   1.405
 3540TIP3    H110584   5.029   5.911   1.339
 3540TIP3    H210585   5.051   5.803   1.444
 3541TIP3   OH210586   6.314   4.749   1.270
 3541TIP3    H110587   6.359   4.832   1.276
 3541TIP3    H210588   6.383   4.683   1.274
 3542TIP3   OH210589   4.814   4.543   1.123
 3542TIP3    H110590   4.875   4.499   1.182
 3542TIP3    H210591   4.728   4.512   1.150
 3543TIP3   OH210592   1.007   4.381   4.899
 3543TIP3    H110593   1.102   4.377   4.901
 3543TIP3    H210594   0.983   4.339   4.816
 3544TIP3   OH210595   0.246   1.106   3.679
 3544TIP3    H110596   0.324   1.077   3.726
 3544TIP3    H210597   0.205   1.170   3.737
 3545TIP3   OH210598   0.623   6.140   3.341
 3545TIP3    H110599   0.571   6.184   3.274
 3545TIP3    H210600   0.713   6.167   3.322
 3546TIP3   OH210601   2.349   2.675   2.253
 3546TIP3    H110602   2.351   2.591   2.206
 3546TIP3    H210603   2.328   2.652   2.343
 3547TIP3   OH210604   6.664   3.546   0.178
 3547TIP3    H110605   6.576   3.572   0.150
 3547TIP3    H210606   6.651   3.461   0.222
 3548TIP3   OH210607   4.761   3.591   4.658
 3548TIP3    H110608   4.752   3.534   4.733
 3548TIP3    H210609   4.692   3.563   4.597
 3549TIP3   OH210610   2.184   6.119   2.231
 3549TIP3    H110611   2.130   6.086   2.160
 3549TIP3    H210612   2.123   6.130   2.304
 3550TIP3   OH210613   7.231   6.543   1.087
 3550TIP3    H110614   7.286   6.613   1.122
 3550TIP3    H210615   7.188   6.582   1.011
 3551TIP3   OH210616   5.500   6.516   4.922
 3551TIP3    H110617   5.496   6.478   5.010
 3551TIP3    H210618   5.458   6.602   4.931
 3552TIP3   OH210619   4.433   5.487   1.633
 3552TIP3    H110620   4.431   5.486   1.537
 3552TIP3    H210621   4.478   5.568   1.656
 3553TIP3   OH210622   1.417   4.923   4.894
 3553TIP3    H110623   1.402   4.922   4.989
 3553TIP3    H210624   1.332   4.897   4.857
 3554TIP3   OH210625   6.118   2.163   1.037
 3554TIP3    H110626   6.083   2.252   1.044
 3554TIP3    H210627   6.103   2.139   0.945
 3555TIP3   OH210628   2.726   6.365   4.472
 3555TIP3    H110629   2.808   6.414   4.471
 3555TIP3    H210630   2.671   6.409   4.407
 3556TIP3   OH210631   4.444   6.122   1.562
 3556TIP3    H110632   4.349   6.109   1.562
 3556TIP3    H210633   4.472   6.091   1.476
 3557TIP3   OH210634   5.752   0.976   3.478
 3557TIP3    H110635   5.764   0.915   3.551
 3557TIP3    H210636   5.663   0.958   3.447
 3558TIP3   OH210637   2.044   2.601   3.297
 3558TIP3    H110638   1.952   2.574   3.293
 3558TIP3    H210639   2.042   2.696   3.288
 3559TIP3   OH210640   6.214   3.728   0.989
 3559TIP3    H110641   6.247   3.811   0.954
 3559TIP3    H210642   6.268   3.662   0.947
 3560TIP3   OH210643   1.796   4.061   4.648
 3560TIP3    H110644   1.830   4.061   4.558
 3560TIP3    H210645   1.740   4.138   4.652
 3561TIP3   OH210646   1.491   2.331   1.535
 3561TIP3    H110647   1.554   2.264   1.508
 3561TIP3    H210648   1.405   2.295   1.510
 3562TIP3   OH210649   2.942   2.384   4.424
 3562TIP3    H110650   2.946   2.376   4.329
 3562TIP3    H210651   2.944   2.293   4.455
 3563TIP3   OH210652   2.138   4.843   2.999
 3563TIP3    H110653   2.046   4.859   3.018
 3563TIP3    H210654   2.150   4.749   3.015
 3564TIP3   OH210655   3.815   2.228   3.866
 3564TIP3    H110656   3.876   2.162   3.833
 3564TIP3    H210657   3.799   2.203   3.957
 3565TIP3   OH210658   3.190   3.953   5.792
 3565TIP3    H110659   3.202   4.044   5.819
 3565TIP3    H210660   3.200   3.955   5.697
 3566TIP3   OH210661   6.234   3.745   1.553
 3566TIP3    H110662   6.212   3.829   1.514
 3566TIP3    H210663   6.251   3.688   1.478
 3567TIP3   OH210664   0.053   0.448   5.014
 3567TIP3    H110665   0.135   0.402   5.030
 3567TIP3    H210666   0.040   0.441   4.919
 3568TIP3   OH210667   4.688   2.375   3.348
 3568TIP3    H110668   4.662   2.309   3.283
 3568TIP3    H210669   4.628   2.448   3.333
 3569TIP3   OH210670   7.248   1.897   3.021
 3569TIP3    H110671   7.239   1.809   3.058
 3569TIP3    H210672   7.295   1.884   2.939
 3570TIP3   OH210673   0.778   1.887   3.275
 3570TIP3    H110674   0.827   1.934   3.342
 3570TIP3    H210675   0.845   1.837   3.227
 3571TIP3   OH210676   0.236   6.450   3.190
 3571TIP3    H110677   0.146   6.419   3.182
 3571TIP3    H210678   0.275   6.435   3.104
 3572TIP3   OH210679   0.590   4.515   2.992
 3572TIP3    H110680   0.649   4.507   2.917
 3572TIP3    H210681   0.584   4.426   3.027
 3573TIP3   OH210682   7.184   1.336   4.096
 3573TIP3    H110683   7.238   1.291   4.161
 3573TIP3    H210684   7.110   1.370   4.146
 3574TIP3   OH210685   1.188   6.467   1.845
 3574TIP3    H110686   1.176   6.372   1.852
 3574TIP3    H210687   1.271   6.484   1.889
 3575TIP3   OH210688   1.083   0.736   2.793
 3575TIP3    H110689   1.155   0.726   2.857
 3575TIP3    H210690   1.102   0.819   2.749
 3576TIP3   OH210691   5.269   2.109   3.350
 3576TIP3    H110692   5.295   2.020   3.377
 3576TIP3    H210693   5.242   2.100   3.259
 3577TIP3   OH210694   6.235   1.785   1.689
 3577TIP3    H110695   6.273   1.855   1.743
 3577TIP3    H210696   6.181   1.831   1.624
 3578TIP3   OH210697   5.456   2.692   0.126
 3578TIP3    H110698   5.456   2.604   0.164
 3578TIP3    H210699   5.418   2.747   0.194
 3579TIP3   OH210700   3.803   3.804   5.040
 3579TIP3    H110701   3.735   3.840   5.097
 3579TIP3    H210702   3.875   3.783   5.099
 3580TIP3   OH210703   1.471   1.850   0.366
 3580TIP3    H110704   1.461   1.835   0.272
 3580TIP3    H210705   1.564   1.833   0.383
 3581TIP3   OH210706   2.533   5.747   2.292
 3581TIP3    H110707   2.461   5.712   2.241
 3581TIP3    H210708   2.491   5.805   2.356
 3582TIP3   OH210709   4.537   2.895   2.366
 3582TIP3    H110710   4.496   2.981   2.376
 3582TIP3    H210711   4.541   2.881   2.272
 3583TIP3   OH210712   5.348   5.370   5.018
 3583TIP3    H110713   5.375   5.430   4.948
 3583TIP3    H210714   5.320   5.428   5.089
 3584TIP3   OH210715   6.557   4.848   3.829
 3584TIP3    H110716   6.564   4.810   3.917
 3584TIP3    H210717   6.573   4.774   3.770
 3585TIP3   OH210718   6.684   3.573   3.849
 3585TIP3    H110719   6.622   3.591   3.920
 3585TIP3    H210720   6.629   3.557   3.773
 3586TIP3   OH210721   4.806   3.003   2.212
 3586TIP3    H110722   4.828   2.910   2.220
 3586TIP3    H210723   4.785   3.030   2.301
 3587TIP3   OH210724   6.157   1.245   3.858
 3587TIP3    H110725   6.194   1.330   3.881
 3587TIP3    H210726   6.062   1.260   3.856
 3588TIP3   OH210727   5.941   3.721   1.005
 3588TIP3    H110728   6.033   3.735   1.029
 3588TIP3    H210729   5.944   3.657   0.934
 3589TIP3   OH210730   2.992   3.131   3.425
 3589TIP3    H110731   2.932   3.192   3.468
 3589TIP3    H210732   2.996   3.161   3.334
 3590TIP3   OH210733   4.947   6.693   1.222
 3590TIP3    H110734   4.887   6.763   1.198
 3590TIP3    H210735   4.947   6.694   1.318
 3591TIP3   OH210736   6.881   2.099   1.831
 3591TIP3    H110737   6.924   2.154   1.897
 3591TIP3    H210738   6.895   2.010   1.861
 3592TIP3   OH210739   1.490   3.144   2.204
 3592TIP3    H110740   1.447   3.110   2.283
 3592TIP3    H210741   1.444   3.226   2.186
 3593TIP3   OH210742   1.666   5.695   5.145
 3593TIP3    H110743   1.691   5.764   5.083
 3593TIP3    H210744   1.713   5.617   5.115
 3594TIP3   OH210745   6.916   4.724   5.763
 3594TIP3    H110746   6.962   4.671   5.829
 3594TIP3    H210747   6.940   4.814   5.784
 3595TIP3   OH210748   1.988   0.996   4.856
 3595TIP3    H110749   1.905   0.954   4.833
 3595TIP3    H210750   2.030   1.013   4.772
 3596TIP3   OH210751   2.954   6.096   3.525
 3596TIP3    H110752   2.892   6.169   3.521
 3596TIP3    H210753   2.933   6.042   3.449
 3597TIP3   OH210754   6.468   0.578   4.072
 3597TIP3    H110755   6.462   0.622   4.157
 3597TIP3    H210756   6.397   0.616   4.021
 3598TIP3   OH210757   5.000   5.013   4.716
 3598TIP3    H110758   5.049   4.939   4.752
 3598TIP3    H210759   5.045   5.090   4.750
 3599TIP3   OH210760   2.604   0.034   2.811
 3599TIP3    H110761   2.566   0.028   2.723
 3599TIP3    H210762   2.628   0.126   2.819
 3600TIP3   OH210763   1.449   6.607   0.240
 3600TIP3    H110764   1.398   6.527   0.246
 3600TIP3    H210765   1.520   6.586   0.178
 3601TIP3   OH210766   0.933   2.724   3.288
 3601TIP3    H110767   0.982   2.642   3.294
 3601TIP3    H210768   0.904   2.741   3.378
 3602TIP3   OH210769   1.696   1.852   2.011
 3602TIP3    H110770   1.681   1.777   2.069
 3602TIP3    H210771   1.634   1.839   1.939
 3603TIP3   OH210772   1.251   3.905   0.153
 3603TIP3    H110773   1.274   3.823   0.108
 3603TIP3    H210774   1.179   3.941   0.101
 3604TIP3   OH210775   1.744   1.239   1.658
 3604TIP3    H110776   1.738   1.152   1.697
 3604TIP3    H210777   1.683   1.237   1.585
 3605TIP3   OH210778   5.867   2.544   1.765
 3605TIP3    H110779   5.885   2.637   1.756
 3605TIP3    H210780   5.935   2.501   1.713
 3606TIP3   OH210781   2.930   2.798   2.826
 3606TIP3    H110782   2.992   2.758   2.887
 3606TIP3    H210783   2.891   2.870   2.876
 3607TIP3   OH210784   5.984   4.872   3.156
 3607TIP3    H110785   6.031   4.883   3.073
 3607TIP3    H210786   5.995   4.779   3.177
 3608TIP3   OH210787   4.731   1.143   1.933
 3608TIP3    H110788   4.764   1.141   1.844
 3608TIP3    H210789   4.700   1.233   1.945
 3609TIP3   OH210790   6.479   6.120   1.518
 3609TIP3    H110791   6.521   6.046   1.472
 3609TIP3    H210792   6.525   6.197   1.484
 3610TIP3   OH210793   0.521   3.333   3.072
 3610TIP3    H110794   0.527   3.422   3.038
 3610TIP3    H210795   0.605   3.293   3.050
 3611TIP3   OH210796   6.883   6.435   2.843
 3611TIP3    H110797   6.890   6.348   2.804
 3611TIP3    H210798   6.797   6.436   2.885
 3612TIP3   OH210799   4.883   1.737   1.459
 3612TIP3    H110800   4.919   1.821   1.489
 3612TIP3    H210801   4.928   1.671   1.512
 3613TIP3   OH210802   6.300   5.093   1.784
 3613TIP3    H110803   6.315   5.024   1.719
 3613TIP3    H210804   6.367   5.159   1.765
 3614TIP3   OH210805   3.047   6.335   4.615
 3614TIP3    H110806   3.035   6.401   4.546
 3614TIP3    H210807   2.962   6.331   4.658
 3615TIP3   OH210808   4.228   2.416   0.060
 3615TIP3    H110809   4.324   2.409   0.059
 3615TIP3    H210810   4.197   2.330   0.034
 3616TIP3   OH210811   4.251   1.260   3.125
 3616TIP3    H110812   4.337   1.236   3.158
 3616TIP3    H210813   4.226   1.188   3.067
 3617TIP3   OH210814   5.893   3.303   0.361
 3617TIP3    H110815   5.983   3.273   0.350
 3617TIP3    H210816   5.881   3.309   0.456
 3618TIP3   OH210817   1.004   0.599   1.313
 3618TIP3    H110818   1.045   0.654   1.379
 3618TIP3    H210819   0.967   0.660   1.250
 3619TIP3   OH210820   6.758   5.290   2.613
 3619TIP3    H110821   6.710   5.368   2.639
 3619TIP3    H210822   6.698   5.242   2.557
 3620TIP3   OH210823   2.910   6.553   4.192
 3620TIP3    H110824   2.938   6.643   4.171
 3620TIP3    H210825   2.827   6.543   4.146
 3621TIP3   OH210826   1.680   4.291   3.418
 3621TIP3    H110827   1.703   4.213   3.468
 3621TIP3    H210828   1.740   4.290   3.343
 3622TIP3   OH210829   2.775   0.677   0.501
 3622TIP3    H110830   2.863   0.694   0.536
 3622TIP3    H210831   2.723   0.654   0.578
 3623TIP3   OH210832   3.435   1.955   2.392
 3623TIP3    H110833   3.464   1.926   2.305
 3623TIP3    H210834   3.343   1.931   2.396
 3624TIP3   OH210835   0.408   3.545   0.597
 3624TIP3    H110836   0.413   3.523   0.504
 3624TIP3    H210837   0.498   3.566   0.621
 3625TIP3   OH210838   5.774   1.557   5.879
 3625TIP3    H110839   5.852   1.515   5.843
 3625TIP3    H210840   5.747   1.620   5.812
 3626TIP3   OH210841   0.670   6.115   3.922
 3626TIP3    H110842   0.661   6.049   3.854
 3626TIP3    H210843   0.664   6.199   3.876
 3627TIP3   OH210844   5.674   0.822   5.631
 3627TIP3    H110845   5.705   0.840   5.719
 3627TIP3    H210846   5.619   0.744   5.640
 3628TIP3   OH210847   3.039   0.591   2.267
 3628TIP3    H110848   3.037   0.621   2.176
 3628TIP3    H210849   3.037   0.496   2.261
 3629TIP3   OH210850   6.287   3.980   1.949
 3629TIP3    H110851   6.319   4.045   2.011
 3629TIP3    H210852   6.196   4.005   1.933
 3630TIP3   OH210853   1.725   6.455   2.571
 3630TIP3    H110854   1.789   6.402   2.618
 3630TIP3    H210855   1.676   6.500   2.639
 3631TIP3   OH210856   3.946   5.474   3.747
 3631TIP3    H110857   3.903   5.480   3.832
 3631TIP3    H210858   3.898   5.406   3.700
 3632TIP3   OH210859   1.321   6.608   4.403
 3632TIP3    H110860   1.347   6.620   4.311
 3632TIP3    H210861   1.256   6.537   4.400
 3633TIP3   OH210862   3.967   5.191   4.973
 3633TIP3    H110863   3.921   5.272   4.992
 3633TIP3    H210864   3.904   5.139   4.922
 3634TIP3   OH210865   2.634   0.611   0.738
 3634TIP3    H110866   2.667   0.554   0.807
 3634TIP3    H210867   2.573   0.670   0.783
 3635TIP3   OH210868   1.451   2.630   0.016
 3635TIP3    H110869   1.420   2.643   0.106
 3635TIP3    H210870   1.542   2.602   0.027
 3636TIP3   OH210871   4.506   2.634   0.070
 3636TIP3    H110872   4.453   2.694   0.018
 3636TIP3    H210873   4.494   2.548   0.028
 3637TIP3   OH210874   1.479   5.529   0.691
 3637TIP3    H110875   1.421   5.469   0.645
 3637TIP3    H210876   1.426   5.608   0.706
 3638TIP3   OH210877   5.248   5.452   0.914
 3638TIP3    H110878   5.200   5.432   0.994
 3638TIP3    H210879   5.317   5.385   0.911
 3639TIP3   OH210880   3.661   1.126   1.207
 3639TIP3    H110881   3.589   1.104   1.267
 3639TIP3    H210882   3.718   1.184   1.258
 3640TIP3   OH210883   5.315   6.084   5.313
 3640TIP3    H110884   5.327   6.066   5.220
 3640TIP3    H210885   5.295   6.177   5.316
 3641TIP3   OH210886   2.297   6.134   0.009
 3641TIP3    H110887   2.376   6.090  -0.023
 3641TIP3    H210888   2.273   6.194  -0.062
 3642TIP3   OH210889   6.542   3.789   0.835
 3642TIP3    H110890   6.507   3.875   0.859
 3642TIP3    H210891   6.485   3.758   0.765
 3643TIP3   OH210892   2.675   2.652   0.225
 3643TIP3    H110893   2.683   2.743   0.199
 3643TIP3    H210894   2.657   2.655   0.319
 3644TIP3   OH210895   1.155   3.043   4.649
 3644TIP3    H110896   1.137   3.123   4.700
 3644TIP3    H210897   1.247   3.024   4.667
 3645TIP3   OH210898   7.198   6.514   1.380
 3645TIP3    H110899   7.184   6.521   1.286
 3645TIP3    H210900   7.185   6.421   1.399
 3646TIP3   OH210901   1.715   1.988   3.713
 3646TIP3    H110902   1.766   2.069   3.716
 3646TIP3    H210903   1.707   1.961   3.805
 3647TIP3   OH210904   6.851   0.070   0.412
 3647TIP3    H110905   6.898   0.027   0.483
 3647TIP3    H210906   6.841   0.161   0.441
 3648TIP3   OH210907   7.016   6.805   4.303
 3648TIP3    H110908   7.104   6.842   4.295
 3648TIP3    H210909   7.031   6.714   4.330
 3649TIP3   OH210910   1.409   0.593   5.782
 3649TIP3    H110911   1.400   0.549   5.697
 3649TIP3    H210912   1.360   0.674   5.772
 3650TIP3   OH210913   0.976   6.246   0.115
 3650TIP3    H110914   0.911   6.179   0.091
 3650TIP3    H210915   0.974   6.248   0.211
 3651TIP3   OH210916   4.812   5.179   1.322
 3651TIP3    H110917   4.842   5.219   1.404
 3651TIP3    H210918   4.727   5.220   1.305
 3652TIP3   OH210919   3.380   5.073   2.389
 3652TIP3    H110920   3.290   5.043   2.395
 3652TIP3    H210921   3.389   5.137   2.460
 3653TIP3   OH210922   2.165   4.920   5.136
 3653TIP3    H110923   2.174   4.947   5.227
 3653TIP3    H210924   2.236   4.966   5.090
 3654TIP3   OH210925   4.423   1.111   2.309
 3654TIP3    H110926   4.391   1.043   2.249
 3654TIP3    H210927   4.343   1.153   2.341
 3655TIP3   OH210928   6.424   2.661   2.982
 3655TIP3    H110929   6.355   2.717   3.016
 3655TIP3    H210930   6.497   2.674   3.042
 3656TIP3   OH210931   0.071   5.386   0.273
 3656TIP3    H110932   0.063   5.430   0.358
 3656TIP3    H210933   0.111   5.450   0.216
 3657TIP3   OH210934   0.112   1.737   0.477
 3657TIP3    H110935   0.208   1.730   0.469
 3657TIP3    H210936   0.088   1.803   0.412
 3658TIP3   OH210937   1.774   6.168   5.702
 3658TIP3    H110938   1.790   6.081   5.738
 3658TIP3    H210939   1.684   6.188   5.729
 3659TIP3   OH210940   2.091   4.499   3.311
 3659TIP3    H110941   2.123   4.409   3.313
 3659TIP3    H210942   2.169   4.552   3.292
 3660TIP3   OH210943   2.118   4.353   3.629
 3660TIP3    H110944   2.104   4.259   3.626
 3660TIP3    H210945   2.165   4.367   3.712
 3661TIP3   OH210946  -0.007   3.931   1.424
 3661TIP3    H110947  -0.005   3.911   1.330
 3661TIP3    H210948   0.082   3.914   1.454
 3662TIP3   OH210949   5.032   0.764   1.323
 3662TIP3    H110950   5.011   0.772   1.416
 3662TIP3    H210951   5.018   0.852   1.287
 3663TIP3   OH210952   1.135   4.192   4.548
 3663TIP3    H110953   1.061   4.197   4.608
 3663TIP3    H210954   1.110   4.126   4.484
 3664TIP3   OH210955   0.685   1.979   0.760
 3664TIP3    H110956   0.691   2.009   0.669
 3664TIP3    H210957   0.602   1.932   0.765
 3665TIP3   OH210958   3.360   4.271   0.966
 3665TIP3    H110959   3.414   4.193   0.979
 3665TIP3    H210960   3.279   4.238   0.928
 3666TIP3   OH210961   6.709   3.507   5.012
 3666TIP3    H110962   6.696   3.412   5.002
 3666TIP3    H210963   6.754   3.516   5.095
 3667TIP3   OH210964   0.925   4.296   2.036
 3667TIP3    H110965   0.949   4.386   2.058
 3667TIP3    H210966   1.003   4.245   2.057
 3668TIP3   OH210967   3.238   5.690   0.955
 3668TIP3    H110968   3.265   5.773   0.995
 3668TIP3    H210969   3.234   5.708   0.862
 3669TIP3   OH210970   4.203   1.568   1.328
 3669TIP3    H110971   4.111   1.562   1.352
 3669TIP3    H210972   4.203   1.567   1.232
 3670TIP3   OH210973   0.811   1.580   5.875
 3670TIP3    H110974   0.762   1.662   5.862
 3670TIP3    H210975   0.814   1.540   5.788
 3671TIP3   OH210976   0.235   2.793   0.371
 3671TIP3    H110977   0.143   2.805   0.345
 3671TIP3    H210978   0.235   2.713   0.423
 3672TIP3   OH210979   0.110   1.276   2.950
 3672TIP3    H110980   0.145   1.289   3.038
 3672TIP3    H210981   0.119   1.183   2.933
 3673TIP3   OH210982   6.846   4.855   4.844
 3673TIP3    H110983   6.911   4.844   4.913
 3673TIP3    H210984   6.767   4.884   4.890
 3674TIP3   OH210985   6.496   0.489   0.965
 3674TIP3    H110986   6.572   0.508   0.911
 3674TIP3    H210987   6.506   0.546   1.042
 3675TIP3   OH210988   0.691   0.037   2.297
 3675TIP3    H110989   0.776  -0.002   2.276
 3675TIP3    H210990   0.695   0.125   2.259
 3676TIP3   OH210991   4.351   4.229   2.812
 3676TIP3    H110992   4.285   4.220   2.880
 3676TIP3    H210993   4.356   4.323   2.795
 3677TIP3   OH210994   5.634   6.007   2.927
 3677TIP3    H110995   5.632   5.933   2.867
 3677TIP3    H210996   5.599   5.971   3.009
 3678TIP3   OH210997   4.530   4.915   1.567
 3678TIP3    H110998   4.574   4.980   1.621
 3678TIP3    H210999   4.599   4.879   1.512
 3679TIP3   OH211000   6.330   6.338   5.780
 3679TIP3    H111001   6.417   6.368   5.753
 3679TIP3    H211002   6.314   6.260   5.727
 3680TIP3   OH211003   2.359   6.708   0.378
 3680TIP3    H111004   2.266   6.688   0.370
 3680TIP3    H211005   2.403   6.638   0.329
 3681TIP3   OH211006   7.145   2.674   3.099
 3681TIP3    H111007   7.100   2.602   3.054
 3681TIP3    H211008   7.081   2.745   3.102
 3682TIP3   OH211009   7.151   6.219   1.757
 3682TIP3    H111010   7.225   6.159   1.762
 3682TIP3    H211011   7.074   6.164   1.766
 3683TIP3   OH211012   4.064   5.250   3.202
 3683TIP3    H111013   4.099   5.174   3.156
 3683TIP3    H211014   4.007   5.213   3.269
 3684TIP3   OH211015   6.551   1.932   1.647
 3684TIP3    H111016   6.523   1.996   1.712
 3684TIP3    H211017   6.583   1.858   1.698
 3685TIP3   OH211018   6.599   3.340   0.776
 3685TIP3    H111019   6.677   3.286   0.774
 3685TIP3    H211020   6.619   3.415   0.720
 3686TIP3   OH211021   4.991   5.369   0.256
 3686TIP3    H111022   5.067   5.321   0.224
 3686TIP3    H211023   4.987   5.447   0.202
 3687TIP3   OH211024   0.786   0.518   3.489
 3687TIP3    H111025   0.803   0.428   3.460
 3687TIP3    H211026   0.699   0.516   3.529
 3688TIP3   OH211027   2.921   5.215   0.446
 3688TIP3    H111028   2.945   5.144   0.386
 3688TIP3    H211029   2.874   5.277   0.392
 3689TIP3   OH211030   3.641   5.778   1.523
 3689TIP3    H111031   3.717   5.720   1.532
 3689TIP3    H211032   3.623   5.808   1.612
 3690TIP3   OH211033   0.019   6.489   4.860
 3690TIP3    H111034   0.041   6.558   4.798
 3690TIP3    H211035   0.088   6.423   4.848
 3691TIP3   OH211036   0.106   0.959   5.447
 3691TIP3    H111037   0.174   1.024   5.430
 3691TIP3    H211038   0.135   0.913   5.526
 3692TIP3   OH211039   5.133   3.181   5.187
 3692TIP3    H111040   5.146   3.086   5.197
 3692TIP3    H211041   5.148   3.197   5.094
 3693TIP3   OH211042   4.912   1.752   4.004
 3693TIP3    H111043   4.834   1.715   4.047
 3693TIP3    H211044   4.924   1.838   4.045
 3694TIP3   OH211045   0.420   5.449   4.671
 3694TIP3    H111046   0.502   5.450   4.719
 3694TIP3    H211047   0.392   5.358   4.672
 3695TIP3   OH211048   3.616   0.059   5.547
 3695TIP3    H111049   3.541   0.101   5.506
 3695TIP3    H211050   3.631   0.110   5.627
 3696TIP3   OH211051   2.618   6.753   5.611
 3696TIP3    H111052   2.543   6.767   5.669
 3696TIP3    H211053   2.602   6.812   5.537
 3697TIP3   OH211054   4.051   4.411   0.626
 3697TIP3    H111055   4.023   4.335   0.678
 3697TIP3    H211056   4.026   4.486   0.680
 3698TIP3   OH211057   4.534   0.316   0.372
 3698TIP3    H111058   4.553   0.325   0.278
 3698TIP3    H211059   4.482   0.394   0.393
 3699TIP3   OH211060   4.613   6.206   0.862
 3699TIP3    H111061   4.608   6.160   0.778
 3699TIP3    H211062   4.624   6.136   0.927
 3700TIP3   OH211063   6.382   5.907   4.445
 3700TIP3    H111064   6.420   5.877   4.362
 3700TIP3    H211065   6.338   5.989   4.422
 3701TIP3   OH211066   2.113   6.526   1.142
 3701TIP3    H111067   2.109   6.493   1.053
 3701TIP3    H211068   2.097   6.620   1.134
 3702TIP3   OH211069   0.666   1.406   1.462
 3702TIP3    H111070   0.715   1.330   1.430
 3702TIP3    H211071   0.653   1.388   1.555
 3703TIP3   OH211072   3.970   3.128   3.002
 3703TIP3    H111073   3.880   3.094   3.004
 3703TIP3    H211074   4.013   3.086   3.077
 3704TIP3   OH211075   4.399   5.597   0.491
 3704TIP3    H111076   4.455   5.554   0.555
 3704TIP3    H211077   4.457   5.653   0.440
 3705TIP3   OH211078   1.087   4.383   4.240
 3705TIP3    H111079   1.031   4.406   4.166
 3705TIP3    H211080   1.096   4.288   4.235
 3706TIP3   OH211081   1.153   4.047   3.572
 3706TIP3    H111082   1.128   4.032   3.481
 3706TIP3    H211083   1.135   3.964   3.616
 3707TIP3   OH211084   2.082   3.240   1.735
 3707TIP3    H111085   2.129   3.290   1.802
 3707TIP3    H211086   2.042   3.167   1.783
 3708TIP3   OH211087   7.014   0.071   3.532
 3708TIP3    H111088   6.965   0.107   3.606
 3708TIP3    H211089   6.989  -0.021   3.529
 3709TIP3   OH211090   0.757   0.462   2.575
 3709TIP3    H111091   0.763   0.550   2.536
 3709TIP3    H211092   0.698   0.414   2.517
 3710TIP3   OH211093   6.101   3.361   1.450
 3710TIP3    H111094   6.114   3.382   1.358
 3710TIP3    H211095   6.188   3.365   1.489
 3711TIP3   OH211096   3.210   6.610   0.133
 3711TIP3    H111097   3.119   6.629   0.108
 3711TIP3    H211098   3.208   6.609   0.229
 3712TIP3   OH211099   3.428   1.280   3.732
 3712TIP3    H111100   3.464   1.216   3.793
 3712TIP3    H211101   3.412   1.357   3.786
 3713TIP3   OH211102   0.185   3.024   2.678
 3713TIP3    H111103   0.197   2.993   2.588
 3713TIP3    H211104   0.148   2.949   2.724
 3714TIP3   OH211105   3.727   1.599   3.286
 3714TIP3    H111106   3.742   1.560   3.199
 3714TIP3    H211107   3.715   1.692   3.268
 3715TIP3   OH211108   4.455   5.490   2.887
 3715TIP3    H111109   4.481   5.482   2.795
 3715TIP3    H211110   4.463   5.583   2.907
 3716TIP3   OH211111   0.112   2.794   4.606
 3716TIP3    H111112   0.195   2.826   4.643
 3716TIP3    H211113   0.103   2.843   4.524
 3717TIP3   OH211114   4.593   3.682   4.214
 3717TIP3    H111115   4.685   3.655   4.213
 3717TIP3    H211116   4.594   3.769   4.173
 3718TIP3   OH211117   1.741   1.956   2.416
 3718TIP3    H111118   1.789   1.969   2.498
 3718TIP3    H211119   1.793   2.002   2.350
 3719TIP3   OH211120   5.914   2.977   4.832
 3719TIP3    H111121   5.829   2.942   4.858
 3719TIP3    H211122   5.977   2.909   4.856
 3720TIP3   OH211123   4.265   0.478   0.959
 3720TIP3    H111124   4.225   0.534   0.893
 3720TIP3    H211125   4.224   0.503   1.041
 3721TIP3   OH211126   4.857   3.406   2.611
 3721TIP3    H111127   4.832   3.412   2.703
 3721TIP3    H211128   4.917   3.480   2.598
 3722TIP3   OH211129   0.311   4.279   3.645
 3722TIP3    H111130   0.357   4.309   3.724
 3722TIP3    H211131   0.287   4.359   3.599
 3723TIP3   OH211132   3.947   6.374   0.248
 3723TIP3    H111133   3.874   6.346   0.304
 3723TIP3    H211134   4.014   6.308   0.264
 3724TIP3   OH211135   3.004   3.596   5.645
 3724TIP3    H111136   3.078   3.638   5.689
 3724TIP3    H211137   2.931   3.607   5.706
 3725TIP3   OH211138   6.581   4.138   2.365
 3725TIP3    H111139   6.588   4.101   2.277
 3725TIP3    H211140   6.512   4.203   2.358
 3726TIP3   OH211141   3.892   3.850   0.725
 3726TIP3    H111142   3.875   3.763   0.760
 3726TIP3    H211143   3.916   3.835   0.634
 3727TIP3   OH211144   6.517   0.676   3.200
 3727TIP3    H111145   6.560   0.761   3.193
 3727TIP3    H211146   6.443   0.692   3.259
 3728TIP3   OH211147   3.074   5.745   0.114
 3728TIP3    H111148   3.049   5.677   0.176
 3728TIP3    H211149   3.170   5.747   0.118
 3729TIP3   OH211150   5.528   4.316   1.926
 3729TIP3    H111151   5.480   4.238   1.896
 3729TIP3    H211152   5.469   4.389   1.908
 3730TIP3   OH211153   6.258   3.848   2.835
 3730TIP3    H111154   6.346   3.884   2.846
 3730TIP3    H211155   6.263   3.761   2.876
 3731TIP3   OH211156   3.980   6.542   4.955
 3731TIP3    H111157   4.056   6.492   4.926
 3731TIP3    H211158   3.937   6.569   4.874
 3732TIP3   OH211159   5.263   3.665   5.752
 3732TIP3    H111160   5.315   3.647   5.674
 3732TIP3    H211161   5.196   3.727   5.722
 3733TIP3   OH211162   6.742   3.842   2.605
 3733TIP3    H111163   6.763   3.847   2.698
 3733TIP3    H211164   6.651   3.814   2.602
 3734TIP3   OH211165   0.234   2.517   0.528
 3734TIP3    H111166   0.194   2.500   0.613
 3734TIP3    H211167   0.328   2.518   0.545
 3735TIP3   OH211168   3.142   3.024   0.449
 3735TIP3    H111169   3.127   3.111   0.413
 3735TIP3    H211170   3.148   3.038   0.544
 3736TIP3   OH211171   3.024   0.662   5.605
 3736TIP3    H111172   2.998   0.588   5.660
 3736TIP3    H211173   2.951   0.672   5.543
 3737TIP3   OH211174   5.183   2.666   1.773
 3737TIP3    H111175   5.173   2.580   1.814
 3737TIP3    H211176   5.277   2.684   1.779
 3738TIP3   OH211177   6.343   1.054   3.993
 3738TIP3    H111178   6.397   0.975   3.987
 3738TIP3    H211179   6.406   1.125   4.005
 3739TIP3   OH211180   0.314   4.957   5.001
 3739TIP3    H111181   0.407   4.971   4.982
 3739TIP3    H211182   0.287   4.890   4.939
 3740TIP3   OH211183   0.565   4.462   2.095
 3740TIP3    H111184   0.471   4.479   2.096
 3740TIP3    H211185   0.599   4.521   2.028
 3741TIP3   OH211186   0.881   0.423   0.567
 3741TIP3    H111187   0.902   0.508   0.606
 3741TIP3    H211188   0.789   0.430   0.541
 3742TIP3   OH211189   1.838   0.799   3.717
 3742TIP3    H111190   1.910   0.741   3.694
 3742TIP3    H211191   1.874   0.887   3.707
 3743TIP3   OH211192   6.591   0.297   4.718
 3743TIP3    H111193   6.553   0.210   4.730
 3743TIP3    H211194   6.684   0.281   4.707
 3744TIP3   OH211195   3.855   0.873   3.547
 3744TIP3    H111196   3.907   0.953   3.534
 3744TIP3    H211197   3.920   0.802   3.547
 3745TIP3   OH211198   7.050   4.602   3.517
 3745TIP3    H111199   7.019   4.611   3.428
 3745TIP3    H211200   6.972   4.613   3.572
 3746TIP3   OH211201   4.826   5.415   2.662
 3746TIP3    H111202   4.850   5.387   2.751
 3746TIP3    H211203   4.892   5.375   2.605
 3747TIP3   OH211204   3.294   2.272   2.196
 3747TIP3    H111205   3.303   2.354   2.244
 3747TIP3    H211206   3.284   2.299   2.105
 3748TIP3   OH211207   3.736   0.332   3.758
 3748TIP3    H111208   3.774   0.260   3.709
 3748TIP3    H211209   3.784   0.333   3.841
 3749TIP3   OH211210   2.775   4.320   0.328
 3749TIP3    H111211   2.722   4.245   0.354
 3749TIP3    H211212   2.722   4.396   0.353
 3750TIP3   OH211213   5.494   2.967  -0.011
 3750TIP3    H111214   5.574   2.952   0.038
 3750TIP3    H211215   5.435   2.895   0.015
 3751TIP3   OH211216   6.910   3.239   5.366
 3751TIP3    H111217   6.876   3.159   5.325
 3751TIP3    H211218   6.841   3.265   5.427
 3752TIP3   OH211219   3.741   2.197   2.482
 3752TIP3    H111220   3.714   2.204   2.390
 3752TIP3    H211221   3.665   2.227   2.532
 3753TIP3   OH211222   6.063   4.891   5.754
 3753TIP3    H111223   6.126   4.889   5.682
 3753TIP3    H211224   5.992   4.949   5.723
 3754TIP3   OH211225   6.191   2.444   4.907
 3754TIP3    H111226   6.250   2.518   4.921
 3754TIP3    H211227   6.247   2.367   4.918
 3755TIP3   OH211228   1.765   5.738   5.472
 3755TIP3    H111229   1.731   5.671   5.413
 3755TIP3    H211230   1.707   5.813   5.459
 3756TIP3   OH211231   3.237   1.453   4.139
 3756TIP3    H111232   3.178   1.458   4.214
 3756TIP3    H211233   3.180   1.461   4.063
 3757TIP3   OH211234   6.639   0.327   0.751
 3757TIP3    H111235   6.614   0.239   0.726
 3757TIP3    H211236   6.595   0.341   0.835
 3758TIP3   OH211237   0.673   3.587   3.239
 3758TIP3    H111238   0.585   3.562   3.210
 3758TIP3    H211239   0.676   3.560   3.330
 3759TIP3   OH211240   5.348   5.803   1.742
 3759TIP3    H111241   5.254   5.802   1.763
 3759TIP3    H211242   5.390   5.825   1.825
 3760TIP3   OH211243   6.639   5.695   3.638
 3760TIP3    H111244   6.731   5.719   3.654
 3760TIP3    H211245   6.644   5.609   3.598
 3761TIP3   OH211246   5.593   6.198   5.163
 3761TIP3    H111247   5.513   6.155   5.132
 3761TIP3    H211248   5.662   6.161   5.107
 3762TIP3   OH211249   0.321   5.228   3.708
 3762TIP3    H111250   0.269   5.234   3.627
 3762TIP3    H211251   0.372   5.310   3.710
 3763TIP3   OH211252   0.965   3.419   4.703
 3763TIP3    H111253   0.894   3.356   4.718
 3763TIP3    H211254   1.041   3.365   4.684
 3764TIP3   OH211255   3.926   2.772   5.129
 3764TIP3    H111256   4.007   2.778   5.077
 3764TIP3    H211257   3.915   2.860   5.166
 3765TIP3   OH211258   3.796   3.564   5.584
 3765TIP3    H111259   3.743   3.518   5.649
 3765TIP3    H211260   3.808   3.651   5.622
 3766TIP3   OH211261   1.208   4.545   1.005
 3766TIP3    H111262   1.192   4.633   1.040
 3766TIP3    H211263   1.122   4.503   1.005
 3767TIP3   OH211264   0.456   1.675   5.764
 3767TIP3    H111265   0.500   1.732   5.701
 3767TIP3    H211266   0.441   1.730   5.840
 3768TIP3   OH211267   5.846   2.182   5.065
 3768TIP3    H111268   5.841   2.249   4.997
 3768TIP3    H211269   5.871   2.230   5.144
 3769TIP3   OH211270   2.362   2.389   0.969
 3769TIP3    H111271   2.338   2.356   1.056
 3769TIP3    H211272   2.290   2.446   0.944
 3770TIP3   OH211273   4.125   0.984   5.776
 3770TIP3    H111274   4.166   1.066   5.750
 3770TIP3    H211275   4.198   0.929   5.805
 3771TIP3   OH211276   2.661   3.166   0.550
 3771TIP3    H111277   2.682   3.245   0.600
 3771TIP3    H211278   2.735   3.108   0.564
 3772TIP3   OH211279   7.087   1.927   5.304
 3772TIP3    H111280   7.008   1.967   5.267
 3772TIP3    H211281   7.094   1.966   5.392
 3773TIP3   OH211282   3.257   4.189   0.341
 3773TIP3    H111283   3.351   4.173   0.332
 3773TIP3    H211284   3.220   4.163   0.256
 3774TIP3   OH211285   3.209   4.480   0.347
 3774TIP3    H111286   3.250   4.565   0.331
 3774TIP3    H211287   3.275   4.431   0.398
 3775TIP3   OH211288   3.452   1.983   0.272
 3775TIP3    H111289   3.499   2.025   0.200
 3775TIP3    H211290   3.360   1.998   0.254
 3776TIP3   OH211291   1.553   3.160   1.179
 3776TIP3    H111292   1.526   3.124   1.094
 3776TIP3    H211293   1.548   3.255   1.167
 3777TIP3   OH211294   3.313   2.162   0.771
 3777TIP3    H111295   3.220   2.146   0.788
 3777TIP3    H211296   3.313   2.219   0.694
 3778TIP3   OH211297   5.678   4.170   3.216
 3778TIP3    H111298   5.657   4.263   3.223
 3778TIP3    H211299   5.764   4.161   3.257
 3779TIP3   OH211300   2.796   1.129   2.670
 3779TIP3    H111301   2.734   1.066   2.634
 3779TIP3    H211302   2.746   1.177   2.736
 3780TIP3   OH211303   5.516   2.230   4.822
 3780TIP3    H111304   5.423   2.252   4.815
 3780TIP3    H211305   5.530   2.216   4.915
 3781TIP3   OH211306   0.214   0.173   1.390
 3781TIP3    H111307   0.232   0.241   1.455
 3781TIP3    H211308   0.252   0.093   1.427
 3782TIP3   OH211309   4.016   3.024   5.223
 3782TIP3    H111310   3.926   3.059   5.218
 3782TIP3    H211311   4.070   3.095   5.187
 3783TIP3   OH211312   6.839   0.759   4.270
 3783TIP3    H111313   6.816   0.695   4.338
 3783TIP3    H211314   6.758   0.771   4.220
 3784TIP3   OH211315   6.848   6.701   2.687
 3784TIP3    H111316   6.922   6.756   2.713
 3784TIP3    H211317   6.851   6.628   2.749
 3785TIP3   OH211318   4.117   5.165   1.237
 3785TIP3    H111319   4.108   5.124   1.322
 3785TIP3    H211320   4.124   5.093   1.175
 3786TIP3   OH211321   1.068   1.940   5.338
 3786TIP3    H111322   0.985   1.913   5.378
 3786TIP3    H211323   1.134   1.912   5.401
 3787TIP3   OH211324   4.939   4.968   5.667
 3787TIP3    H111325   4.989   4.932   5.594
 3787TIP3    H211326   4.943   5.063   5.654
 3788TIP3   OH211327   3.461   1.449   3.950
 3788TIP3    H111328   3.476   1.542   3.934
 3788TIP3    H211329   3.388   1.447   4.012
 3789TIP3   OH211330   3.633   0.349   1.916
 3789TIP3    H111331   3.720   0.385   1.898
 3789TIP3    H211332   3.608   0.305   1.835
 3790TIP3   OH211333   7.187   5.002   2.721
 3790TIP3    H111334   7.233   5.076   2.682
 3790TIP3    H211335   7.156   5.034   2.805
 3791TIP3   OH211336   3.708   5.811   4.318
 3791TIP3    H111337   3.717   5.871   4.245
 3791TIP3    H211338   3.632   5.757   4.296
 3792TIP3   OH211339   0.756   4.181   0.363
 3792TIP3    H111340   0.758   4.263   0.412
 3792TIP3    H211341   0.779   4.206   0.274
 3793TIP3   OH211342   3.984   0.377   2.873
 3793TIP3    H111343   4.053   0.436   2.902
 3793TIP3    H211344   3.986   0.383   2.777
 3794TIP3   OH211345   1.305   5.521   4.909
 3794TIP3    H111346   1.352   5.604   4.904
 3794TIP3    H211347   1.224   5.536   4.860
 3795TIP3   OH211348   6.494   0.643   4.725
 3795TIP3    H111349   6.514   0.577   4.792
 3795TIP3    H211350   6.564   0.707   4.733
 3796TIP3   OH211351   3.145   1.721   3.492
 3796TIP3    H111352   3.166   1.778   3.566
 3796TIP3    H211353   3.206   1.748   3.423
 3797TIP3   OH211354   4.168   2.023   2.602
 3797TIP3    H111355   4.149   2.068   2.685
 3797TIP3    H211356   4.172   1.930   2.626
 3798TIP3   OH211357   1.203   2.449   5.320
 3798TIP3    H111358   1.177   2.440   5.412
 3798TIP3    H211359   1.194   2.361   5.284
 3799TIP3   OH211360   1.367   1.171   2.903
 3799TIP3    H111361   1.324   1.107   2.960
 3799TIP3    H211362   1.329   1.255   2.929
 3800TIP3   OH211363   1.541   2.478   5.268
 3800TIP3    H111364   1.501   2.451   5.185
 3800TIP3    H211365   1.541   2.399   5.322
 3801TIP3   OH211366   0.306   6.623   5.300
 3801TIP3    H111367   0.291   6.699   5.355
 3801TIP3    H211368   0.280   6.651   5.212
 3802TIP3   OH211369   0.522   3.561   2.845
 3802TIP3    H111370   0.559   3.488   2.795
 3802TIP3    H211371   0.597   3.614   2.869
 3803TIP3   OH211372   2.956   5.612   1.524
 3803TIP3    H111373   2.898   5.620   1.448
 3803TIP3    H211374   2.996   5.526   1.515
 3804TIP3   OH211375   7.161   6.162   4.517
 3804TIP3    H111376   7.202   6.247   4.531
 3804TIP3    H211377   7.119   6.170   4.431
 3805TIP3   OH211378   3.818   4.246   2.029
 3805TIP3    H111379   3.729   4.253   1.995
 3805TIP3    H211380   3.820   4.162   2.075
 3806TIP3   OH211381   6.884   1.977   2.750
 3806TIP3    H111382   6.958   1.931   2.712
 3806TIP3    H211383   6.858   2.041   2.683
 3807TIP3   OH211384   1.394   3.160   3.736
 3807TIP3    H111385   1.446   3.221   3.684
 3807TIP3    H211386   1.425   3.173   3.826
 3808TIP3   OH211387   1.210   0.026   5.713
 3808TIP3    H111388   1.166   0.069   5.639
 3808TIP3    H211389   1.195   0.085   5.787
 3809TIP3   OH211390   7.015   4.151   1.397
 3809TIP3    H111391   6.945   4.159   1.462
 3809TIP3    H211392   7.065   4.075   1.426
 3810TIP3   OH211393   6.171   6.449   4.112
 3810TIP3    H111394   6.252   6.498   4.129
 3810TIP3    H211395   6.199   6.373   4.062
 3811TIP3   OH211396   1.191   5.223   4.188
 3811TIP3    H111397   1.210   5.247   4.279
 3811TIP3    H211398   1.146   5.299   4.152
 3812TIP3   OH211399   1.029   1.899   0.480
 3812TIP3    H111400   1.115   1.933   0.504
 3812TIP3    H211401   1.039   1.804   0.486
 3813TIP3   OH211402   3.881   1.045   5.111
 3813TIP3    H111403   3.912   0.994   5.186
 3813TIP3    H211404   3.795   1.008   5.091
 3814TIP3   OH211405   7.132   6.120   5.777
 3814TIP3    H111406   7.180   6.191   5.820
 3814TIP3    H211407   7.063   6.097   5.839
 3815TIP3   OH211408   5.284   0.823   4.155
 3815TIP3    H111409   5.354   0.801   4.216
 3815TIP3    H211410   5.280   0.919   4.156
 3816TIP3   OH211411   3.317   6.397   5.152
 3816TIP3    H111412   3.267   6.408   5.072
 3816TIP3    H211413   3.404   6.370   5.123
 3817TIP3   OH211414   0.987   3.171   4.922
 3817TIP3    H111415   0.967   3.259   4.954
 3817TIP3    H211416   1.022   3.125   4.998
 3818TIP3   OH211417   1.091   4.387   5.323
 3818TIP3    H111418   1.054   4.356   5.405
 3818TIP3    H211419   1.186   4.388   5.338
 3819TIP3   OH211420   4.526   6.305   2.612
 3819TIP3    H111421   4.600   6.292   2.671
 3819TIP3    H211422   4.454   6.331   2.670
 3820TIP3   OH211423   3.690   1.182   1.555
 3820TIP3    H111424   3.675   1.276   1.549
 3820TIP3    H211425   3.780   1.174   1.588
 3821TIP3   OH211426   6.799   5.961   4.171
 3821TIP3    H111427   6.886   5.946   4.134
 3821TIP3    H211428   6.787   5.890   4.235
 3822TIP3   OH211429   1.549   6.091   1.999
 3822TIP3    H111430   1.591   6.177   1.993
 3822TIP3    H211431   1.608   6.039   2.054
 3823TIP3   OH211432   4.424   5.219   4.378
 3823TIP3    H111433   4.391   5.188   4.294
 3823TIP3    H211434   4.410   5.314   4.376
 3824TIP3   OH211435   2.807   5.064   2.402
 3824TIP3    H111436   2.795   5.031   2.491
 3824TIP3    H211437   2.773   4.994   2.346
 3825TIP3   OH211438   5.061   3.389   4.117
 3825TIP3    H111439   5.080   3.459   4.054
 3825TIP3    H211440   5.075   3.308   4.069
 3826TIP3   OH211441  -0.008   5.510   5.450
 3826TIP3    H111442   0.036   5.524   5.534
 3826TIP3    H211443  -0.022   5.598   5.415
 3827TIP3   OH211444   4.544   4.863   1.868
 3827TIP3    H111445   4.555   4.774   1.833
 3827TIP3    H211446   4.618   4.912   1.833
 3828TIP3   OH211447   1.965   5.546   3.201
 3828TIP3    H111448   1.997   5.511   3.118
 3828TIP3    H211449   1.870   5.530   3.199
 3829TIP3   OH211450   3.036   5.902   4.042
 3829TIP3    H111451   2.952   5.920   3.999
 3829TIP3    H211452   3.013   5.848   4.117
 3830TIP3   OH211453   2.843   0.267   0.622
 3830TIP3    H111454   2.781   0.301   0.557
 3830TIP3    H211455   2.787   0.228   0.689
 3831TIP3   OH211456   1.554   4.646   0.218
 3831TIP3    H111457   1.594   4.725   0.183
 3831TIP3    H211458   1.505   4.674   0.295
 3832TIP3   OH211459   2.078   2.481   5.172
 3832TIP3    H111460   2.124   2.561   5.196
 3832TIP3    H211461   2.143   2.430   5.124
 3833TIP3   OH211462   1.488   2.369   4.118
 3833TIP3    H111463   1.539   2.450   4.126
 3833TIP3    H211464   1.553   2.301   4.100
 3834TIP3   OH211465   2.983   4.956   0.596
 3834TIP3    H111466   2.942   5.042   0.591
 3834TIP3    H211467   2.913   4.898   0.626
 3835TIP3   OH211468   4.407   6.257   1.033
 3835TIP3    H111469   4.333   6.223   0.982
 3835TIP3    H211470   4.481   6.252   0.973
 3836TIP3   OH211471   6.906   6.423   4.640
 3836TIP3    H111472   6.888   6.474   4.719
 3836TIP3    H211473   6.859   6.341   4.654
 3837TIP3   OH211474   3.600   1.212   4.351
 3837TIP3    H111475   3.615   1.130   4.398
 3837TIP3    H211476   3.540   1.189   4.280
 3838TIP3   OH211477   2.465   6.260   4.527
 3838TIP3    H111478   2.474   6.190   4.463
 3838TIP3    H211479   2.547   6.309   4.521
 3839TIP3   OH211480   6.740   0.045   2.752
 3839TIP3    H111481   6.703   0.026   2.666
 3839TIP3    H211482   6.678   0.106   2.792
 3840TIP3   OH211483   4.801   6.296   0.428
 3840TIP3    H111484   4.896   6.304   0.416
 3840TIP3    H211485   4.789   6.302   0.522
 3841TIP3   OH211486   5.432   2.408   0.882
 3841TIP3    H111487   5.522   2.440   0.882
 3841TIP3    H211488   5.438   2.319   0.848
 3842TIP3   OH211489   4.395   2.104   2.448
 3842TIP3    H111490   4.322   2.070   2.500
 3842TIP3    H211491   4.457   2.137   2.513
 3843TIP3   OH211492   4.551   3.064  -0.026
 3843TIP3    H111493   4.553   3.158  -0.008
 3843TIP3    H211494   4.638   3.045  -0.062
 3844TIP3   OH211495   5.501   4.716   0.043
 3844TIP3    H111496   5.476   4.634  -0.001
 3844TIP3    H211497   5.595   4.706   0.058
 3845TIP3   OH211498   6.058   5.294   2.446
 3845TIP3    H111499   6.141   5.286   2.493
 3845TIP3    H211500   6.017   5.372   2.483
 3846TIP3   OH211501   1.286   6.384   0.242
 3846TIP3    H111502   1.264   6.327   0.169
 3846TIP3    H211503   1.328   6.326   0.305
 3847TIP3   OH211504   4.679   6.654   4.272
 3847TIP3    H111505   4.717   6.566   4.275
 3847TIP3    H211506   4.754   6.712   4.262
 3848TIP3   OH211507   3.074   1.521   1.359
 3848TIP3    H111508   3.101   1.527   1.268
 3848TIP3    H211509   2.998   1.462   1.358
 3849TIP3   OH211510   0.624   1.185   2.175
 3849TIP3    H111511   0.544   1.165   2.223
 3849TIP3    H211512   0.610   1.274   2.141
 3850TIP3   OH211513   6.267   6.390   0.773
 3850TIP3    H111514   6.246   6.317   0.716
 3850TIP3    H211515   6.291   6.350   0.857
 3851TIP3   OH211516   7.143   2.275   2.742
 3851TIP3    H111517   7.102   2.362   2.740
 3851TIP3    H211518   7.096   2.225   2.676
 3852TIP3   OH211519   0.121   5.049   3.368
 3852TIP3    H111520   0.072   5.070   3.288
 3852TIP3    H211521   0.162   5.131   3.394
 3853TIP3   OH211522   0.408   4.708   3.001
 3853TIP3    H111523   0.445   4.620   3.011
 3853TIP3    H211524   0.385   4.714   2.908
 3854TIP3   OH211525   6.534   0.858   1.913
 3854TIP3    H111526   6.558   0.931   1.857
 3854TIP3    H211527   6.610   0.844   1.969
 3855TIP3   OH211528   2.927   6.296   0.764
 3855TIP3    H111529   2.847   6.281   0.815
 3855TIP3    H211530   2.927   6.228   0.698
 3856TIP3   OH211531   0.643   2.919   2.564
 3856TIP3    H111532   0.666   2.833   2.600
 3856TIP3    H211533   0.664   2.981   2.634
 3857TIP3   OH211534   6.297   6.683   5.875
 3857TIP3    H111535   6.257   6.618   5.933
 3857TIP3    H211536   6.229   6.703   5.811
 3858TIP3   OH211537   1.343   1.078   2.327
 3858TIP3    H111538   1.404   1.050   2.395
 3858TIP3    H211539   1.264   1.105   2.374
 3859TIP3   OH211540   2.778   5.588   5.051
 3859TIP3    H111541   2.713   5.555   5.113
 3859TIP3    H211542   2.837   5.515   5.038
 3860TIP3   OH211543   1.988   6.591   0.545
 3860TIP3    H111544   1.929   6.519   0.565
 3860TIP3    H211545   2.010   6.578   0.452
 3861TIP3   OH211546   6.660   5.984   5.687
 3861TIP3    H111547   6.703   5.906   5.652
 3861TIP3    H211548   6.640   5.961   5.778
 3862TIP3   OH211549   1.514   1.144   5.594
 3862TIP3    H111550   1.501   1.070   5.534
 3862TIP3    H211551   1.608   1.146   5.609
 3863TIP3   OH211552   0.562   5.794   3.744
 3863TIP3    H111553   0.634   5.746   3.783
 3863TIP3    H211554   0.602   5.873   3.707
 3864TIP3   OH211555   4.972   6.056   3.031
 3864TIP3    H111556   5.029   6.132   3.046
 3864TIP3    H211557   5.012   6.010   2.957
 3865TIP3   OH211558   2.195   5.428   2.598
 3865TIP3    H111559   2.249   5.361   2.639
 3865TIP3    H211560   2.255   5.473   2.538
 3866TIP3   OH211561   3.490   2.542   1.268
 3866TIP3    H111562   3.446   2.553   1.184
 3866TIP3    H211563   3.523   2.629   1.290
 3867TIP3   OH211564   5.924   1.800   5.117
 3867TIP3    H111565   6.014   1.833   5.116
 3867TIP3    H211566   5.927   1.717   5.069
 3868TIP3   OH211567   0.662   5.633   5.697
 3868TIP3    H111568   0.597   5.565   5.712
 3868TIP3    H211569   0.668   5.640   5.602
 3869TIP3   OH211570   1.766   2.820   5.539
 3869TIP3    H111571   1.765   2.742   5.484
 3869TIP3    H211572   1.714   2.884   5.492
 3870TIP3   OH211573   2.974   5.226   0.158
 3870TIP3    H111574   3.032   5.237   0.083
 3870TIP3    H211575   2.886   5.232   0.122
 3871TIP3   OH211576   4.857   3.157   5.751
 3871TIP3    H111577   4.928   3.093   5.744
 3871TIP3    H211578   4.838   3.181   5.660
 3872TIP3   OH211579   3.919   2.879   5.643
 3872TIP3    H111580   3.920   2.974   5.634
 3872TIP3    H211581   3.833   2.859   5.680
 3873TIP3   OH211582   4.447   2.949   2.099
 3873TIP3    H111583   4.480   3.012   2.035
 3873TIP3    H211584   4.386   2.999   2.153
 3874TIP3   OH211585   0.892   6.184   1.088
 3874TIP3    H111586   0.856   6.194   0.999
 3874TIP3    H211587   0.874   6.093   1.111
 3875TIP3   OH211588   1.465   2.235   1.967
 3875TIP3    H111589   1.447   2.319   2.010
 3875TIP3    H211590   1.379   2.204   1.940
 3876TIP3   OH211591   4.964   2.109   0.480
 3876TIP3    H111592   5.038   2.048   0.482
 3876TIP3    H211593   4.989   2.179   0.541
 3877TIP3   OH211594   0.350   5.017   2.554
 3877TIP3    H111595   0.372   4.931   2.588
 3877TIP3    H211596   0.433   5.065   2.553
 3878TIP3   OH211597   0.520   6.078   0.882
 3878TIP3    H111598   0.475   6.015   0.937
 3878TIP3    H211599   0.495   6.055   0.793
 3879TIP3   OH211600   1.828   4.858   3.335
 3879TIP3    H111601   1.765   4.804   3.287
 3879TIP3    H211602   1.853   4.804   3.410
 3880TIP3   OH211603   5.652   5.470   1.065
 3880TIP3    H111604   5.725   5.515   1.023
 3880TIP3    H211605   5.693   5.407   1.124
 3881TIP3   OH211606   5.381   0.406   0.432
 3881TIP3    H111607   5.430   0.325   0.419
 3881TIP3    H211608   5.327   0.414   0.354
 3882TIP3   OH211609   1.490   4.246   1.806
 3882TIP3    H111610   1.449   4.331   1.822
 3882TIP3    H211611   1.455   4.189   1.874
 3883TIP3   OH211612   7.187   2.507   3.824
 3883TIP3    H111613   7.246   2.553   3.884
 3883TIP3    H211614   7.191   2.559   3.743
 3884TIP3   OH211615   4.801   0.369   4.981
 3884TIP3    H111616   4.755   0.431   4.924
 3884TIP3    H211617   4.766   0.283   4.957
 3885TIP3   OH211618   5.457   1.718   1.107
 3885TIP3    H111619   5.459   1.683   1.018
 3885TIP3    H211620   5.461   1.640   1.163
 3886TIP3   OH211621   4.266   1.208   2.710
 3886TIP3    H111622   4.361   1.198   2.697
 3886TIP3    H211623   4.240   1.130   2.759
 3887TIP3   OH211624   4.158   2.337   3.014
 3887TIP3    H111625   4.122   2.317   3.100
 3887TIP3    H211626   4.088   2.384   2.968
 3888TIP3   OH211627   3.533   4.875   2.554
 3888TIP3    H111628   3.522   4.957   2.506
 3888TIP3    H211629   3.614   4.886   2.603
 3889TIP3   OH211630   1.760   5.242   4.432
 3889TIP3    H111631   1.789   5.192   4.355
 3889TIP3    H211632   1.679   5.284   4.404
 3890TIP3   OH211633   6.153   1.184   5.638
 3890TIP3    H111634   6.110   1.253   5.587
 3890TIP3    H211635   6.204   1.231   5.704
 3891TIP3   OH211636   1.530   2.239   5.392
 3891TIP3    H111637   1.479   2.261   5.470
 3891TIP3    H211638   1.590   2.171   5.421
 3892TIP3   OH211639   3.507   0.444   3.631
 3892TIP3    H111640   3.474   0.487   3.710
 3892TIP3    H211641   3.582   0.393   3.661
 3893TIP3   OH211642   0.152   5.298   3.493
 3893TIP3    H111643   0.058   5.302   3.508
 3893TIP3    H211644   0.174   5.383   3.454
 3894TIP3   OH211645   0.374   3.017   1.780
 3894TIP3    H111646   0.302   3.079   1.780
 3894TIP3    H211647   0.451   3.069   1.760
 3895TIP3   OH211648   4.144   6.522   5.461
 3895TIP3    H111649   4.203   6.595   5.445
 3895TIP3    H211650   4.132   6.481   5.376
 3896TIP3   OH211651   1.038   0.140   4.770
 3896TIP3    H111652   1.009   0.093   4.848
 3896TIP3    H211653   1.085   0.074   4.718
 3897TIP3   OH211654   3.785   5.450   0.430
 3897TIP3    H111655   3.705   5.424   0.383
 3897TIP3    H211656   3.770   5.421   0.520
 3898TIP3   OH211657   5.246   3.325   4.328
 3898TIP3    H111658   5.258   3.391   4.397
 3898TIP3    H211659   5.176   3.361   4.273
 3899TIP3   OH211660   2.209   3.865   4.347
 3899TIP3    H111661   2.152   3.933   4.382
 3899TIP3    H211662   2.295   3.885   4.384
 3900TIP3   OH211663   2.655   3.842   1.742
 3900TIP3    H111664   2.713   3.774   1.776
 3900TIP3    H211665   2.698   3.924   1.765
 3901TIP3   OH211666   2.880   0.791   2.405
 3901TIP3    H111667   2.958   0.755   2.362
 3901TIP3    H211668   2.809   0.734   2.378
 3902TIP3   OH211669   1.478   6.753   4.159
 3902TIP3    H111670   1.545   6.696   4.121
 3902TIP3    H211671   1.528   6.822   4.203
 3903TIP3   OH211672   4.381   0.515   4.068
 3903TIP3    H111673   4.291   0.520   4.038
 3903TIP3    H211674   4.429   0.479   3.993
 3904TIP3   OH211675   2.705   3.232   3.441
 3904TIP3    H111676   2.628   3.274   3.401
 3904TIP3    H211677   2.746   3.184   3.369
 3905TIP3   OH211678   0.113   6.347   4.010
 3905TIP3    H111679   0.174   6.414   3.978
 3905TIP3    H211680   0.159   6.265   3.995
 3906TIP3   OH211681   5.807   5.915   3.672
 3906TIP3    H111682   5.815   5.854   3.598
 3906TIP3    H211683   5.768   5.862   3.742
 3907TIP3   OH211684   2.441   5.151   0.726
 3907TIP3    H111685   2.491   5.219   0.681
 3907TIP3    H211686   2.420   5.188   0.811
 3908TIP3   OH211687   0.776   3.685   2.835
 3908TIP3    H111688   0.766   3.722   2.923
 3908TIP3    H211689   0.804   3.758   2.781
 3909TIP3   OH211690   5.439   6.720   1.860
 3909TIP3    H111691   5.346   6.735   1.878
 3909TIP3    H211692   5.460   6.641   1.910
 3910TIP3   OH211693   6.794   2.672   0.063
 3910TIP3    H111694   6.865   2.614   0.091
 3910TIP3    H211695   6.826   2.713  -0.017
 3911TIP3   OH211696   3.746   0.192   0.847
 3911TIP3    H111697   3.798   0.252   0.794
 3911TIP3    H211698   3.810   0.133   0.887
 3912TIP3   OH211699   2.496   1.379   3.289
 3912TIP3    H111700   2.499   1.474   3.277
 3912TIP3    H211701   2.477   1.345   3.201
 3913TIP3   OH211702   0.714   5.790   4.385
 3913TIP3    H111703   0.636   5.836   4.417
 3913TIP3    H211704   0.699   5.782   4.291
 3914TIP3   OH211705   4.132   0.077   1.829
 3914TIP3    H111706   4.183   0.103   1.906
 3914TIP3    H211707   4.178   0.115   1.755
 3915TIP3   OH211708   6.334   6.455   1.771
 3915TIP3    H111709   6.287   6.474   1.690
 3915TIP3    H211710   6.279   6.492   1.840
 3916TIP3   OH211711   1.149   3.401   4.083
 3916TIP3    H111712   1.150   3.433   4.174
 3916TIP3    H211713   1.086   3.458   4.038
 3917TIP3   OH211714   6.777   6.508   5.057
 3917TIP3    H111715   6.727   6.477   4.981
 3917TIP3    H211716   6.863   6.468   5.047
 3918TIP3   OH211717   1.450   4.979   0.770
 3918TIP3    H111718   1.443   5.069   0.801
 3918TIP3    H211719   1.366   4.961   0.728
 3919TIP3   OH211720   0.336   1.201   3.440
 3919TIP3    H111721   0.247   1.235   3.432
 3919TIP3    H211722   0.331   1.138   3.512
 3920TIP3   OH211723   3.622   6.363   0.657
 3920TIP3    H111724   3.582   6.445   0.685
 3920TIP3    H211725   3.590   6.298   0.719
 3921TIP3   OH211726   1.451   1.978   2.296
 3921TIP3    H111727   1.435   2.072   2.292
 3921TIP3    H211728   1.544   1.968   2.276
 3922TIP3   OH211729   6.690   4.875   1.754
 3922TIP3    H111730   6.628   4.852   1.823
 3922TIP3    H211731   6.752   4.936   1.796
 3923TIP3   OH211732   0.831   2.765   0.677
 3923TIP3    H111733   0.915   2.764   0.632
 3923TIP3    H211734   0.851   2.796   0.765
 3924TIP3   OH211735   3.254   0.607   0.493
 3924TIP3    H111736   3.180   0.558   0.529
 3924TIP3    H211737   3.291   0.549   0.427
 3925TIP3   OH211738   6.769   1.639   0.805
 3925TIP3    H111739   6.826   1.563   0.810
 3925TIP3    H211740   6.812   1.697   0.742
 3926TIP3   OH211741   6.918   4.989   1.582
 3926TIP3    H111742   6.958   5.076   1.572
 3926TIP3    H211743   6.945   4.961   1.670
 3927TIP3   OH211744   4.948   4.781   2.489
 3927TIP3    H111745   4.905   4.856   2.448
 3927TIP3    H211746   4.889   4.707   2.471
 3928TIP3   OH211747   6.601   5.810   3.014
 3928TIP3    H111748   6.626   5.749   3.083
 3928TIP3    H211749   6.505   5.811   3.016
 3929TIP3   OH211750   5.503   3.418   0.055
 3929TIP3    H111751   5.523   3.477  -0.018
 3929TIP3    H211752   5.587   3.401   0.096
 3930TIP3   OH211753   6.125   1.338   3.022
 3930TIP3    H111754   6.152   1.267   3.080
 3930TIP3    H211755   6.191   1.406   3.034
 3931TIP3   OH211756   6.402   0.721   3.639
 3931TIP3    H111757   6.490   0.683   3.636
 3931TIP3    H211758   6.386   0.751   3.549
 3932TIP3   OH211759   6.581   1.079   3.756
 3932TIP3    H111760   6.501   1.124   3.729
 3932TIP3    H211761   6.649   1.145   3.753
 3933TIP3   OH211762   1.894   6.278   4.012
 3933TIP3    H111763   1.803   6.304   4.027
 3933TIP3    H211764   1.945   6.330   4.074
 3934TIP3   OH211765   3.274   4.494   3.728
 3934TIP3    H111766   3.229   4.492   3.812
 3934TIP3    H211767   3.325   4.575   3.730
 3935TIP3   OH211768   1.035   0.646   3.379
 3935TIP3    H111769   0.971   0.576   3.396
 3935TIP3    H211770   1.069   0.669   3.466
 3936TIP3   OH211771   3.370   3.316   3.467
 3936TIP3    H111772   3.343   3.373   3.395
 3936TIP3    H211773   3.320   3.236   3.454
 3937TIP3   OH211774   7.230   6.252   3.473
 3937TIP3    H111775   7.174   6.274   3.547
 3937TIP3    H211776   7.219   6.325   3.412
 3938TIP3   OH211777   4.389   3.736   3.892
 3938TIP3    H111778   4.424   3.648   3.877
 3938TIP3    H211779   4.302   3.734   3.851
 3939TIP3   OH211780   3.461   0.178   4.296
 3939TIP3    H111781   3.533   0.124   4.328
 3939TIP3    H211782   3.501   0.236   4.232
 3940TIP3   OH211783   1.850   3.417   4.030
 3940TIP3    H111784   1.857   3.480   4.102
 3940TIP3    H211785   1.915   3.446   3.966
 3941TIP3   OH211786   2.025   0.854   1.201
 3941TIP3    H111787   1.985   0.831   1.285
 3941TIP3    H211788   2.055   0.771   1.165
 3942TIP3   OH211789   7.069   0.337   3.763
 3942TIP3    H111790   7.056   0.380   3.678
 3942TIP3    H211791   7.150   0.288   3.753
 3943TIP3   OH211792   5.526   4.962   3.557
 3943TIP3    H111793   5.463   4.958   3.485
 3943TIP3    H211794   5.530   4.872   3.590
 3944TIP3   OH211795   6.194   5.660   0.383
 3944TIP3    H111796   6.155   5.579   0.351
 3944TIP3    H211797   6.177   5.658   0.477
 3945TIP3   OH211798   1.731   5.098   2.022
 3945TIP3    H111799   1.642   5.115   2.053
 3945TIP3    H211800   1.787   5.113   2.099
 3946TIP3   OH211801   1.638   5.762   1.864
 3946TIP3    H111802   1.598   5.836   1.819
 3946TIP3    H211803   1.708   5.733   1.805
 3947TIP3   OH211804   2.014   1.279   2.474
 3947TIP3    H111805   2.078   1.275   2.403
 3947TIP3    H211806   1.989   1.188   2.489
 3948TIP3   OH211807   2.218   0.781   3.460
 3948TIP3    H111808   2.134   0.827   3.458
 3948TIP3    H211809   2.203   0.702   3.408
 3949TIP3   OH211810   6.382   5.529   1.795
 3949TIP3    H111811   6.324   5.545   1.721
 3949TIP3    H211812   6.326   5.487   1.861
 3950TIP3   OH211813   3.761   3.082   5.192
 3950TIP3    H111814   3.731   3.008   5.245
 3950TIP3    H211815   3.751   3.158   5.249
 3951TIP3   OH211816   2.387   2.583   1.211
 3951TIP3    H111817   2.468   2.602   1.163
 3951TIP3    H211818   2.387   2.647   1.283
 3952TIP3   OH211819   4.686   5.732   3.914
 3952TIP3    H111820   4.748   5.804   3.903
 3952TIP3    H211821   4.740   5.653   3.912
 3953TIP3   OH211822   7.013   3.918   1.689
 3953TIP3    H111823   7.061   3.875   1.618
 3953TIP3    H211824   7.074   3.983   1.723
 3954TIP3   OH211825   3.522   1.355   3.504
 3954TIP3    H111826   3.473   1.314   3.575
 3954TIP3    H211827   3.605   1.307   3.501
 3955TIP3   OH211828   5.212   3.743   1.629
 3955TIP3    H111829   5.202   3.750   1.723
 3955TIP3    H211830   5.180   3.655   1.608
 3956TIP3   OH211831   2.835   0.149   5.218
 3956TIP3    H111832   2.799   0.233   5.247
 3956TIP3    H211833   2.826   0.091   5.293
 3957TIP3   OH211834   4.478   5.503   0.762
 3957TIP3    H111835   4.422   5.555   0.821
 3957TIP3    H211836   4.506   5.429   0.816
 3958TIP3   OH211837   0.035   0.534   5.820
 3958TIP3    H111838  -0.002   0.496   5.900
 3958TIP3    H211839   0.023   0.628   5.830
 3959TIP3   OH211840   6.672   3.859   0.128
 3959TIP3    H111841   6.596   3.865   0.186
 3959TIP3    H211842   6.636   3.866   0.040
 3960TIP3   OH211843   4.000   5.828   2.062
 3960TIP3    H111844   4.015   5.915   2.099
 3960TIP3    H211845   3.936   5.787   2.121
 3961TIP3   OH211846   7.045   2.195   2.031
 3961TIP3    H111847   7.104   2.267   2.052
 3961TIP3    H211848   7.095   2.140   1.970
 3962TIP3   OH211849   4.142   1.301   3.372
 3962TIP3    H111850   4.073   1.367   3.361
 3962TIP3    H211851   4.172   1.284   3.283
 3963TIP3   OH211852   0.356   1.575   0.502
 3963TIP3    H111853   0.348   1.498   0.559
 3963TIP3    H211854   0.446   1.571   0.470
 3964TIP3   OH211855   4.626   0.236   5.798
 3964TIP3    H111856   4.604   0.226   5.706
 3964TIP3    H211857   4.611   0.329   5.817
 3965TIP3   OH211858   3.534   0.715   0.440
 3965TIP3    H111859   3.444   0.688   0.458
 3965TIP3    H211860   3.526   0.803   0.405
 3966TIP3   OH211861   6.627   6.066   3.289
 3966TIP3    H111862   6.685   6.000   3.251
 3966TIP3    H211863   6.590   6.024   3.366
 3967TIP3   OH211864   1.697   0.365   3.450
 3967TIP3    H111865   1.776   0.373   3.396
 3967TIP3    H211866   1.704   0.437   3.513
 3968TIP3   OH211867   0.736   2.794   0.103
 3968TIP3    H111868   0.764   2.803   0.194
 3968TIP3    H211869   0.772   2.710   0.075
 3969TIP3   OH211870   4.266   6.389   4.553
 3969TIP3    H111871   4.297   6.306   4.518
 3969TIP3    H211872   4.323   6.455   4.512
 3970TIP3   OH211873   2.476   3.070   0.360
 3970TIP3    H111874   2.534   3.079   0.436
 3970TIP3    H211875   2.391   3.102   0.390
 3971TIP3   OH211876   6.728   0.571   5.545
 3971TIP3    H111877   6.777   0.501   5.502
 3971TIP3    H211878   6.701   0.629   5.474
 3972TIP3   OH211879   4.312   4.007   0.432
 3972TIP3    H111880   4.394   4.055   0.444
 3972TIP3    H211881   4.260   4.062   0.374
 3973TIP3   OH211882   0.543   0.483   0.108
 3973TIP3    H111883   0.607   0.441   0.050
 3973TIP3    H211884   0.470   0.421   0.112
 3974TIP3   OH211885   4.275   5.900   5.806
 3974TIP3    H111886   4.219   5.823   5.812
 3974TIP3    H211887   4.217   5.970   5.777
 3975TIP3   OH211888   4.492   3.194   3.925
 3975TIP3    H111889   4.587   3.186   3.914
 3975TIP3    H211890   4.478   3.191   4.019
 3976TIP3   OH211891   5.821   3.071   0.259
 3976TIP3    H111892   5.730   3.042   0.273
 3976TIP3    H211893   5.833   3.142   0.322
 3977TIP3   OH211894   4.110   4.437   4.550
 3977TIP3    H111895   4.140   4.346   4.550
 3977TIP3    H211896   4.160   4.479   4.480
 3978TIP3   OH211897   0.211   2.071   5.486
 3978TIP3    H111898   0.255   1.990   5.460
 3978TIP3    H211899   0.216   2.070   5.582
 3979TIP3   OH211900   3.115   4.648   0.832
 3979TIP3    H111901   3.037   4.690   0.795
 3979TIP3    H211902   3.105   4.658   0.926
 3980TIP3   OH211903   1.514   6.081   4.850
 3980TIP3    H111904   1.435   6.118   4.889
 3980TIP3    H211905   1.486   6.052   4.763
 3981TIP3   OH211906   1.297   2.310   1.150
 3981TIP3    H111907   1.202   2.312   1.139
 3981TIP3    H211908   1.331   2.286   1.064
 3982TIP3   OH211909  -0.082   4.253   3.939
 3982TIP3    H111910  -0.045   4.328   3.985
 3982TIP3    H211911  -0.045   4.177   3.982
 3983TIP3   OH211912   3.953   0.912   4.027
 3983TIP3    H111913   3.899   0.987   4.052
 3983TIP3    H211914   4.003   0.943   3.952
 3984TIP3   OH211915   3.183   3.203   1.679
 3984TIP3    H111916   3.180   3.110   1.702
 3984TIP3    H211917   3.102   3.239   1.715
 3985TIP3   OH211918   1.969   0.419   0.187
 3985TIP3    H111919   1.950   0.338   0.140
 3985TIP3    H211920   2.020   0.391   0.263
 3986TIP3   OH211921   6.970   6.167   0.971
 3986TIP3    H111922   7.023   6.174   0.892
 3986TIP3    H211923   6.880   6.158   0.938
 3987TIP3   OH211924   1.982   6.738   4.458
 3987TIP3    H111925   1.970   6.831   4.475
 3987TIP3    H211926   1.909   6.714   4.401
 3988TIP3   OH211927   4.780   4.157   3.821
 3988TIP3    H111928   4.829   4.092   3.871
 3988TIP3    H211929   4.747   4.109   3.746
 3989TIP3   OH211930   2.600   6.460   2.670
 3989TIP3    H111931   2.586   6.366   2.677
 3989TIP3    H211932   2.512   6.496   2.656
 3990TIP3   OH211933   0.748   1.451   3.098
 3990TIP3    H111934   0.699   1.530   3.072
 3990TIP3    H211935   0.697   1.379   3.061
 3991TIP3   OH211936   3.804   0.427   4.005
 3991TIP3    H111937   3.899   0.440   4.008
 3991TIP3    H211938   3.769   0.512   3.978
 3992TIP3   OH211939   3.332   1.169   4.574
 3992TIP3    H111940   3.323   1.250   4.524
 3992TIP3    H211941   3.251   1.121   4.558
 3993TIP3   OH211942   0.695   4.695   2.582
 3993TIP3    H111943   0.723   4.643   2.658
 3993TIP3    H211944   0.602   4.713   2.599
 3994TIP3   OH211945   5.432   1.173   4.024
 3994TIP3    H111946   5.428   1.199   4.116
 3994TIP3    H211947   5.526   1.166   4.005
 3995TIP3   OH211948   1.190   5.857   4.908
 3995TIP3    H111949   1.250   5.865   4.982
 3995TIP3    H211950   1.103   5.872   4.945
 3996TIP3   OH211951   0.031   4.441   4.110
 3996TIP3    H111952   0.084   4.472   4.183
 3996TIP3    H211953   0.050   4.501   4.038
 3997TIP3   OH211954   5.741   0.082   0.541
 3997TIP3    H111955   5.767   0.057   0.630
 3997TIP3    H211956   5.822   0.078   0.490
 3998TIP3   OH211957   0.316   5.732   2.991
 3998TIP3    H111958   0.278   5.684   2.917
 3998TIP3    H211959   0.316   5.823   2.964
 3999TIP3   OH211960   5.693   2.341   2.284
 3999TIP3    H111961   5.777   2.385   2.288
 3999TIP3    H211962   5.656   2.367   2.200
 4000TIP3   OH211963   6.549   2.738   3.537
 4000TIP3    H111964   6.549   2.692   3.621
 4000TIP3    H211965   6.590   2.676   3.477
 4001TIP3   OH211966   0.003   6.186   5.533
 4001TIP3    H111967  -0.006   6.278   5.558
 4001TIP3    H211968  -0.020   6.137   5.611
 4002TIP3   OH211969   0.244   5.235   1.249
 4002TIP3    H111970   0.303   5.234   1.173
 4002TIP3    H211971   0.213   5.326   1.253
 4003TIP3   OH211972   6.387   3.417   1.247
 4003TIP3    H111973   6.434   3.397   1.327
 4003TIP3    H211974   6.435   3.372   1.178
 4004TIP3   OH211975   2.200   2.203   4.824
 4004TIP3    H111976   2.266   2.260   4.785
 4004TIP3    H211977   2.122   2.258   4.832
 4005TIP3   OH211978   1.102   2.521   2.745
 4005TIP3    H111979   1.115   2.506   2.838
 4005TIP3    H211980   1.009   2.504   2.730
 4006TIP3   OH211981   3.931   3.435   3.760
 4006TIP3    H111982   3.961   3.517   3.799
 4006TIP3    H211983   3.910   3.457   3.670
 4007TIP3   OH211984   6.387   1.018   3.406
 4007TIP3    H111985   6.338   1.047   3.483
 4007TIP3    H211986   6.466   1.072   3.406
 4008TIP3   OH211987   3.910   5.022   1.831
 4008TIP3    H111988   3.874   4.978   1.754
 4008TIP3    H211989   3.858   4.990   1.904
 4009TIP3   OH211990   3.952   5.831   2.402
 4009TIP3    H111991   3.888   5.784   2.456
 4009TIP3    H211992   4.006   5.763   2.363
 4010TIP3   OH211993   1.015   5.085   3.973
 4010TIP3    H111994   0.990   5.025   3.902
 4010TIP3    H211995   1.094   5.128   3.942
 4011TIP3   OH211996   3.867   4.037   0.273
 4011TIP3    H111997   3.882   4.106   0.209
 4011TIP3    H211998   3.845   3.960   0.220
 4012TIP3   OH211999   7.164   6.081   0.205
 4012TIP3    H112000   7.146   6.064   0.113
 4012TIP3    H212001   7.151   6.175   0.215
 4013TIP3   OH212002   7.134   4.149   2.299
 4013TIP3    H112003   7.141   4.105   2.214
 4013TIP3    H212004   7.044   4.182   2.301
 4014TIP3   OH212005   2.411   1.503   1.520
 4014TIP3    H112006   2.475   1.471   1.584
 4014TIP3    H212007   2.331   1.454   1.540
 4015TIP3   OH212008   3.598   0.343   4.144
 4015TIP3    H112009   3.676   0.358   4.090
 4015TIP3    H212010   3.549   0.426   4.138
 4016TIP3   OH212011   3.538   6.453   3.367
 4016TIP3    H112012   3.518   6.417   3.453
 4016TIP3    H212013   3.546   6.547   3.381
 4017TIP3   OH212014   4.499   5.935   4.202
 4017TIP3    H112015   4.549   6.017   4.205
 4017TIP3    H212016   4.445   5.943   4.124
 4018TIP3   OH212017   5.707   2.495   0.947
 4018TIP3    H112018   5.745   2.420   0.902
 4018TIP3    H212019   5.782   2.552   0.965
 4019TIP3   OH212020   7.175   6.650   0.447
 4019TIP3    H112021   7.101   6.655   0.508
 4019TIP3    H212022   7.166   6.729   0.393
 4020TIP3   OH212023   1.433   0.685   0.227
 4020TIP3    H112024   1.349   0.663   0.266
 4020TIP3    H212025   1.494   0.687   0.301
 4021TIP3   OH212026   5.696   3.513   3.915
 4021TIP3    H112027   5.676   3.533   4.007
 4021TIP3    H212028   5.693   3.417   3.911
 4022TIP3   OH212029   5.804   4.584   4.808
 4022TIP3    H112030   5.822   4.503   4.761
 4022TIP3    H212031   5.846   4.652   4.755
 4023TIP3   OH212032   2.946   4.449   3.784
 4023TIP3    H112033   2.880   4.428   3.850
 4023TIP3    H212034   2.993   4.525   3.821
 4024TIP3   OH212035   4.693   3.839   5.742
 4024TIP3    H112036   4.738   3.919   5.715
 4024TIP3    H212037   4.615   3.834   5.687
 4025TIP3   OH212038   1.654   4.971   0.389
 4025TIP3    H112039   1.642   5.025   0.468
 4025TIP3    H212040   1.744   4.939   0.395
 4026TIP3   OH212041   3.315   3.859   2.426
 4026TIP3    H112042   3.336   3.897   2.511
 4026TIP3    H212043   3.257   3.786   2.445
 4027TIP3   OH212044   4.496   2.749   0.327
 4027TIP3    H112045   4.408   2.718   0.351
 4027TIP3    H212046   4.515   2.702   0.245
 4028TIP3   OH212047   1.715   6.705   1.464
 4028TIP3    H112048   1.704   6.624   1.414
 4028TIP3    H212049   1.800   6.740   1.437
 4029TIP3   OH212050   0.892   2.486   2.145
 4029TIP3    H112051   0.865   2.500   2.236
 4029TIP3    H212052   0.987   2.498   2.145
 4030TIP3   OH212053   2.161   1.855   4.199
 4030TIP3    H112054   2.159   1.852   4.294
 4030TIP3    H212055   2.104   1.782   4.171
 4031TIP3   OH212056   5.330   1.334   4.700
 4031TIP3    H112057   5.404   1.389   4.727
 4031TIP3    H212058   5.287   1.310   4.782
 4032TIP3   OH212059   0.790   3.188   5.256
 4032TIP3    H112060   0.881   3.188   5.284
 4032TIP3    H212061   0.784   3.260   5.194
 4033TIP3   OH212062   1.341   4.303   0.972
 4033TIP3    H112063   1.292   4.385   0.972
 4033TIP3    H212064   1.285   4.241   1.018
 4034TIP3   OH212065   3.720   1.883   3.706
 4034TIP3    H112066   3.745   1.797   3.737
 4034TIP3    H212067   3.787   1.942   3.741
 4035TIP3   OH212068   6.169   5.007   2.619
 4035TIP3    H112069   6.170   4.912   2.613
 4035TIP3    H212070   6.243   5.028   2.676
 4036TIP3   OH212071   4.656   0.230   0.653
 4036TIP3    H112072   4.611   0.147   0.671
 4036TIP3    H212073   4.663   0.234   0.558
 4037TIP3   OH212074   0.927   6.406   4.354
 4037TIP3    H112075   0.963   6.373   4.272
 4037TIP3    H212076   0.844   6.358   4.365
 4038TIP3   OH212077   3.792   3.823   4.480
 4038TIP3    H112078   3.854   3.871   4.425
 4038TIP3    H212079   3.716   3.880   4.485
 4039TIP3   OH212080   2.187   6.314   4.890
 4039TIP3    H112081   2.134   6.344   4.964
 4039TIP3    H212082   2.263   6.372   4.889
 4040TIP3   OH212083   2.552   0.170   3.353
 4040TIP3    H112084   2.563   0.080   3.322
 4040TIP3    H212085   2.564   0.164   3.448
 4041TIP3   OH212086   0.525   2.424   2.129
 4041TIP3    H112087   0.519   2.329   2.138
 4041TIP3    H212088   0.444   2.457   2.169
 4042TIP3   OH212089   4.908   2.719   4.295
 4042TIP3    H112090   4.983   2.750   4.347
 4042TIP3    H212091   4.936   2.633   4.263
 4043TIP3   OH212092   3.590   6.740   1.515
 4043TIP3    H112093   3.609   6.659   1.467
 4043TIP3    H212094   3.668   6.795   1.502
 4044TIP3   OH212095   6.766   0.504   2.038
 4044TIP3    H112096   6.781   0.598   2.027
 4044TIP3    H212097   6.680   0.489   1.998
 4045TIP3   OH212098   6.967   1.499   4.178
 4045TIP3    H112099   6.906   1.564   4.144
 4045TIP3    H212100   7.015   1.544   4.247
 4046TIP3   OH212101   6.433   6.527   1.185
 4046TIP3    H112102   6.514   6.546   1.137
 4046TIP3    H212103   6.445   6.572   1.269
 4047TIP3   OH212104   6.623   1.270   2.708
 4047TIP3    H112105   6.626   1.229   2.794
 4047TIP3    H212106   6.647   1.361   2.724
 4048TIP3   OH212107   2.356   2.729   3.829
 4048TIP3    H112108   2.277   2.711   3.881
 4048TIP3    H212109   2.387   2.814   3.863
 4049TIP3   OH212110   5.985   3.229   1.658
 4049TIP3    H112111   6.048   3.257   1.724
 4049TIP3    H212112   5.991   3.295   1.589
 4050TIP3   OH212113   5.325   5.269   4.314
 4050TIP3    H112114   5.376   5.203   4.269
 4050TIP3    H212115   5.304   5.231   4.400
 4051TIP3   OH212116   5.664   0.286   2.293
 4051TIP3    H112117   5.684   0.295   2.386
 4051TIP3    H212118   5.573   0.255   2.291
 4052TIP3   OH212119   2.929   6.442   2.125
 4052TIP3    H112120   2.930   6.446   2.221
 4052TIP3    H212121   2.913   6.533   2.098
 4053TIP3   OH212122   5.769   4.714   0.383
 4053TIP3    H112123   5.832   4.736   0.451
 4053TIP3    H212124   5.787   4.775   0.312
 4054TIP3   OH212125   3.627   5.415   4.807
 4054TIP3    H112126   3.599   5.476   4.875
 4054TIP3    H212127   3.559   5.348   4.806
 4055TIP3   OH212128   2.051   2.920   2.454
 4055TIP3    H112129   2.036   2.912   2.549
 4055TIP3    H212130   1.995   2.993   2.427
 4056TIP3   OH212131   7.228   0.192   1.238
 4056TIP3    H112132   7.289   0.194   1.312
 4056TIP3    H212133   7.143   0.212   1.277
 4057TIP3   OH212134   7.111   1.558   5.642
 4057TIP3    H112135   7.055   1.504   5.585
 4057TIP3    H212136   7.082   1.536   5.731
 4058TIP3   OH212137   0.180   3.606   3.770
 4058TIP3    H112138   0.144   3.646   3.850
 4058TIP3    H212139   0.106   3.606   3.709
 4059TIP3   OH212140   2.237   0.121   5.106
 4059TIP3    H112141   2.319   0.085   5.071
 4059TIP3    H212142   2.190   0.045   5.139
 4060TIP3   OH212143   2.894   0.566   1.132
 4060TIP3    H112144   2.878   0.610   1.216
 4060TIP3    H212145   2.982   0.530   1.140
 4061TIP3   OH212146   0.771   1.671   2.305
 4061TIP3    H112147   0.799   1.589   2.345
 4061TIP3    H212148   0.675   1.668   2.310
 4062TIP3   OH212149   5.806   3.309   4.320
 4062TIP3    H112150   5.857   3.332   4.398
 4062TIP3    H212151   5.716   3.327   4.345
 4063TIP3   OH212152   5.403   3.698   2.293
 4063TIP3    H112153   5.317   3.732   2.265
 4063TIP3    H212154   5.394   3.684   2.387
 4064TIP3   OH212155   4.068   2.430   5.232
 4064TIP3    H112156   3.997   2.367   5.244
 4064TIP3    H212157   4.106   2.407   5.147
 4065TIP3   OH212158   7.034   2.240   0.252
 4065TIP3    H112159   7.011   2.152   0.283
 4065TIP3    H212160   7.114   2.227   0.201
 4066TIP3   OH212161   7.103   5.939   1.256
 4066TIP3    H112162   7.015   5.972   1.240
 4066TIP3    H212163   7.101   5.909   1.347
 4067TIP3   OH212164   0.478   6.198   5.607
 4067TIP3    H112165   0.521   6.213   5.523
 4067TIP3    H212166   0.389   6.171   5.583
 4068TIP3   OH212167   6.620   1.064   5.822
 4068TIP3    H112168   6.564   1.123   5.772
 4068TIP3    H212169   6.708   1.099   5.811
 4069TIP3   OH212170   5.150   3.720   2.205
 4069TIP3    H112171   5.080   3.750   2.146
 4069TIP3    H212172   5.103   3.680   2.278
 4070TIP3   OH212173   2.135   1.285   3.607
 4070TIP3    H112174   2.186   1.285   3.525
 4070TIP3    H212175   2.093   1.371   3.608
 4071TIP3   OH212176   6.865   3.114   0.496
 4071TIP3    H112177   6.951   3.118   0.537
 4071TIP3    H212178   6.817   3.049   0.548
 4072TIP3   OH212179   2.083   3.460   2.820
 4072TIP3    H112180   2.088   3.399   2.894
 4072TIP3    H212181   2.145   3.530   2.842
 4073TIP3   OH212182   6.825   0.283   3.860
 4073TIP3    H112183   6.905   0.322   3.826
 4073TIP3    H212184   6.789   0.350   3.918
 4074TIP3   OH212185   3.892   3.719   1.231
 4074TIP3    H112186   3.901   3.662   1.154
 4074TIP3    H212187   3.931   3.802   1.205
 4075TIP3   OH212188   3.541   5.283   5.137
 4075TIP3    H112189   3.483   5.246   5.071
 4075TIP3    H212190   3.483   5.323   5.201
 4076TIP3   OH212191   6.917   2.240   2.946
 4076TIP3    H112192   6.929   2.148   2.923
 4076TIP3    H212193   6.825   2.247   2.972
 4077TIP3   OH212194   2.216   3.435   1.432
 4077TIP3    H112195   2.269   3.356   1.446
 4077TIP3    H212196   2.257   3.502   1.486
 4078TIP3   OH212197   6.730   0.219   5.146
 4078TIP3    H112198   6.806   0.174   5.185
 4078TIP3    H212199   6.769   0.291   5.096
 4079TIP3   OH212200   3.524   0.172   0.023
 4079TIP3    H112201   3.497   0.172   0.115
 4079TIP3    H212202   3.612   0.136   0.024
 4080TIP3   OH212203   1.464   5.599   0.142
 4080TIP3    H112204   1.417   5.616   0.224
 4080TIP3    H212205   1.448   5.506   0.124
 4081TIP3   OH212206   5.308   2.177   1.840
 4081TIP3    H112207   5.351   2.152   1.758
 4081TIP3    H212208   5.368   2.239   1.882
 4082TIP3   OH212209   4.992   5.734   5.257
 4082TIP3    H112210   5.051   5.772   5.323
 4082TIP3    H212211   4.979   5.644   5.286
 4083TIP3   OH212212   6.402   2.966   1.759
 4083TIP3    H112213   6.432   2.901   1.696
 4083TIP3    H212214   6.406   2.922   1.843
 4084TIP3   OH212215   3.023   6.743   4.726
 4084TIP3    H112216   2.941   6.698   4.745
 4084TIP3    H212217   3.071   6.742   4.809
 4085TIP3   OH212218   4.298   1.735   0.815
 4085TIP3    H112219   4.275   1.756   0.906
 4085TIP3    H212220   4.216   1.740   0.767
 4086TIP3   OH212221   0.116   5.967   1.997
 4086TIP3    H112222   0.060   5.895   2.028
 4086TIP3    H212223   0.067   6.046   2.018
 4087TIP3   OH212224   5.376   3.128   2.240
 4087TIP3    H112225   5.289   3.091   2.222
 4087TIP3    H212226   5.412   3.071   2.308
 4088TIP3   OH212227   6.481   6.035   0.831
 4088TIP3    H112228   6.446   5.958   0.786
 4088TIP3    H212229   6.404   6.085   0.855
 4089TIP3   OH212230   6.530   4.783   2.055
 4089TIP3    H112231   6.589   4.708   2.057
 4089TIP3    H212232   6.466   4.762   1.986
 4090TIP3   OH212233   0.233   2.993   4.148
 4090TIP3    H112234   0.235   3.049   4.070
 4090TIP3    H212235   0.289   3.039   4.211
 4091TIP3   OH212236   1.212   1.907   0.014
 4091TIP3    H112237   1.157   1.920   0.091
 4091TIP3    H212238   1.211   1.992  -0.030
 4092TIP3   OH212239   2.500   3.685   4.301
 4092TIP3    H112240   2.446   3.753   4.262
 4092TIP3    H212241   2.480   3.688   4.395
 4093TIP3   OH212242   5.744   4.650   1.737
 4093TIP3    H112243   5.781   4.624   1.822
 4093TIP3    H212244   5.805   4.715   1.702
 4094TIP3   OH212245   6.357   1.597   2.641
 4094TIP3    H112246   6.410   1.580   2.719
 4094TIP3    H212247   6.384   1.684   2.612
 4095TIP3   OH212248   5.024   2.137   3.834
 4095TIP3    H112249   5.068   2.071   3.888
 4095TIP3    H212250   5.051   2.117   3.745
 4096TIP3   OH212251   6.365   3.950   4.227
 4096TIP3    H112252   6.282   3.953   4.274
 4096TIP3    H212253   6.345   3.905   4.145
 4097TIP3   OH212254   3.939   3.056   2.017
 4097TIP3    H112255   3.949   3.105   1.936
 4097TIP3    H212256   4.005   2.987   2.013
 4098TIP3   OH212257   2.459   6.480   5.014
 4098TIP3    H112258   2.514   6.497   4.938
 4098TIP3    H212259   2.521   6.459   5.084
 4099TIP3   OH212260   0.138   0.538   0.020
 4099TIP3    H112261   0.142   0.584  -0.064
 4099TIP3    H212262   0.087   0.596   0.076
 4100TIP3   OH212263   4.626   2.283   3.676
 4100TIP3    H112264   4.560   2.353   3.676
 4100TIP3    H212265   4.693   2.313   3.615
 4101TIP3   OH212266   1.835   0.162   1.816
 4101TIP3    H112267   1.885   0.116   1.748
 4101TIP3    H212268   1.789   0.232   1.769
 4102TIP3   OH212269   2.287   4.181   3.014
 4102TIP3    H112270   2.324   4.121   2.950
 4102TIP3    H212271   2.226   4.235   2.963
 4103TIP3   OH212272   5.033   4.132   1.714
 4103TIP3    H112273   5.034   4.131   1.809
 4103TIP3    H212274   4.968   4.065   1.690
 4104TIP3   OH212275   4.914   2.978   5.119
 4104TIP3    H112276   4.868   3.016   5.194
 4104TIP3    H212277   4.906   3.044   5.050
 4105TIP3   OH212278   5.105   5.762   2.516
 4105TIP3    H112279   5.016   5.725   2.519
 4105TIP3    H212280   5.149   5.722   2.591
 4106TIP3   OH212281   2.502   2.389   4.409
 4106TIP3    H112282   2.425   2.428   4.450
 4106TIP3    H212283   2.467   2.327   4.345
 4107TIP3   OH212284   5.366   4.038   1.470
 4107TIP3    H112285   5.298   3.971   1.477
 4107TIP3    H212286   5.339   4.106   1.531
 4108TIP3   OH212287   0.419   2.021   4.533
 4108TIP3    H112288   0.464   2.103   4.516
 4108TIP3    H212289   0.434   1.969   4.454
 4109TIP3   OH212290   5.457   5.413   3.059
 4109TIP3    H112291   5.371   5.372   3.047
 4109TIP3    H212292   5.440   5.490   3.112
 4110TIP3   OH212293   5.228   1.596   4.627
 4110TIP3    H112294   5.283   1.519   4.615
 4110TIP3    H212295   5.258   1.658   4.560
 4111TIP3   OH212296   3.762   5.831   3.414
 4111TIP3    H112297   3.668   5.815   3.403
 4111TIP3    H212298   3.770   5.926   3.425
 4112TIP3   OH212299   0.307   0.169   3.264
 4112TIP3    H112300   0.383   0.115   3.285
 4112TIP3    H212301   0.233   0.107   3.260
 4113TIP3   OH212302   1.237   5.343   1.577
 4113TIP3    H112303   1.315   5.297   1.606
 4113TIP3    H212304   1.198   5.377   1.658
 4114TIP3   OH212305   7.081   6.743   1.434
 4114TIP3    H112306   6.989   6.727   1.412
 4114TIP3    H212307   7.123   6.657   1.425
 4115TIP3   OH212308   2.268   3.872   3.663
 4115TIP3    H112309   2.185   3.837   3.697
 4115TIP3    H212310   2.332   3.853   3.732
 4116TIP3   OH212311   6.346   4.547   3.010
 4116TIP3    H112312   6.418   4.498   2.969
 4116TIP3    H212313   6.385   4.585   3.089
 4117TIP3   OH212314   7.243   5.298   5.837
 4117TIP3    H112315   7.163   5.296   5.888
 4117TIP3    H212316   7.299   5.231   5.876
 4118TIP3   OH212317   6.272   3.248   5.084
 4118TIP3    H112318   6.319   3.319   5.127
 4118TIP3    H212319   6.283   3.265   4.990
 4119TIP3   OH212320   6.064   6.486   3.017
 4119TIP3    H112321   6.032   6.465   2.930
 4119TIP3    H212322   6.151   6.446   3.020
 4120TIP3   OH212323   5.065   1.896   4.703
 4120TIP3    H112324   5.161   1.896   4.698
 4120TIP3    H212325   5.045   1.841   4.778
 4121TIP3   OH212326   6.506   1.165   2.484
 4121TIP3    H112327   6.540   1.193   2.569
 4121TIP3    H212328   6.411   1.163   2.496
 4122TIP3   OH212329   2.165   2.546   4.828
 4122TIP3    H112330   2.114   2.627   4.829
 4122TIP3    H212331   2.100   2.476   4.838
 4123TIP3   OH212332   5.364   5.818   2.787
 4123TIP3    H112333   5.306   5.744   2.804
 4123TIP3    H212334   5.450   5.788   2.816
 4124TIP3   OH212335   4.837   4.787   1.820
 4124TIP3    H112336   4.909   4.767   1.761
 4124TIP3    H212337   4.768   4.724   1.798
 4125TIP3   OH212338   0.314   2.958   0.175
 4125TIP3    H112339   0.337   2.898   0.247
 4125TIP3    H212340   0.303   2.901   0.099
 4126TIP3   OH212341   1.381   6.734   2.867
 4126TIP3    H112342   1.371   6.747   2.773
 4126TIP3    H212343   1.410   6.820   2.900
 4127TIP3   OH212344   0.685   0.706   2.313
 4127TIP3    H112345   0.601   0.721   2.270
 4127TIP3    H212346   0.720   0.627   2.271
 4128TIP3   OH212347   2.893   4.513   3.049
 4128TIP3    H112348   2.803   4.538   3.027
 4128TIP3    H212349   2.931   4.592   3.088
 4129TIP3   OH212350   3.268   4.147   5.149
 4129TIP3    H112351   3.218   4.066   5.157
 4129TIP3    H212352   3.327   4.131   5.075
 4130TIP3   OH212353   2.008   5.776   3.811
 4130TIP3    H112354   1.927   5.759   3.858
 4130TIP3    H212355   2.067   5.813   3.877
 4131TIP3   OH212356   6.629   4.929   0.362
 4131TIP3    H112357   6.614   4.921   0.456
 4131TIP3    H212358   6.570   4.864   0.323
 4132TIP3   OH212359   5.980   5.812   5.278
 4132TIP3    H112360   6.006   5.798   5.369
 4132TIP3    H212361   6.053   5.776   5.227
 4133TIP3   OH212362   6.197   0.484   4.948
 4133TIP3    H112363   6.215   0.572   4.982
 4133TIP3    H212364   6.102   0.480   4.939
 4134TIP3   OH212365   3.101   3.346   5.162
 4134TIP3    H112366   3.124   3.256   5.187
 4134TIP3    H212367   3.050   3.379   5.236
 4135TIP3   OH212368   5.902   0.168   1.226
 4135TIP3    H112369   5.831   0.133   1.281
 4135TIP3    H212370   5.857   0.201   1.148
 4136TIP3   OH212371   1.800   2.456   4.368
 4136TIP3    H112372   1.823   2.537   4.413
 4136TIP3    H212373   1.743   2.484   4.296
 4137TIP3   OH212374   0.920   4.030   3.968
 4137TIP3    H112375   0.926   4.056   3.876
 4137TIP3    H212376   0.843   3.974   3.972
 4138TIP3   OH212377   0.781   3.226   3.071
 4138TIP3    H112378   0.793   3.153   3.131
 4138TIP3    H212379   0.799   3.304   3.124
 4139TIP3   OH212380   4.194   2.666   0.872
 4139TIP3    H112381   4.100   2.665   0.858
 4139TIP3    H212382   4.224   2.747   0.830
 4140TIP3   OH212383   3.605   0.515   2.666
 4140TIP3    H112384   3.630   0.445   2.727
 4140TIP3    H212385   3.549   0.573   2.717
 4141TIP3   OH212386   1.674   1.721   2.908
 4141TIP3    H112387   1.713   1.789   2.853
 4141TIP3    H212388   1.731   1.717   2.985
 4142TIP3   OH212389   6.065   5.738   1.589
 4142TIP3    H112390   6.136   5.802   1.585
 4142TIP3    H212391   5.998   5.781   1.642
 4143TIP3   OH212392   4.613   4.680   1.365
 4143TIP3    H112393   4.622   4.751   1.301
 4143TIP3    H212394   4.702   4.664   1.396
 4144TIP3   OH212395   4.782   6.539   3.504
 4144TIP3    H112396   4.767   6.472   3.570
 4144TIP3    H212397   4.695   6.569   3.479
 4145TIP3   OH212398   2.020   0.406   0.791
 4145TIP3    H112399   2.100   0.422   0.740
 4145TIP3    H212400   2.018   0.477   0.855
 4146TIP3   OH212401   4.206   4.735   5.859
 4146TIP3    H112402   4.144   4.798   5.897
 4146TIP3    H212403   4.274   4.725   5.925
 4147TIP3   OH212404   6.513   3.935   2.834
 4147TIP3    H112405   6.606   3.917   2.841
 4147TIP3    H212406   6.498   3.948   2.740
 4148TIP3   OH212407   0.796   2.126   0.990
 4148TIP3    H112408   0.732   2.185   1.032
 4148TIP3    H212409   0.759   2.109   0.903
 4149TIP3   OH212410   6.449   1.524   0.973
 4149TIP3    H112411   6.477   1.438   1.004
 4149TIP3    H212412   6.530   1.571   0.954
 4150TIP3   OH212413   0.600   0.199   3.580
 4150TIP3    H112414   0.668   0.211   3.514
 4150TIP3    H212415   0.522   0.239   3.541
 4151TIP3   OH212416   7.180   5.742   2.042
 4151TIP3    H112417   7.188   5.694   2.125
 4151TIP3    H212418   7.094   5.784   2.047
 4152TIP3   OH212419   5.946   2.414   0.189
 4152TIP3    H112420   5.873   2.369   0.148
 4152TIP3    H212421   5.945   2.502   0.152
 4153TIP3   OH212422   1.700   4.654   1.988
 4153TIP3    H112423   1.660   4.679   1.905
 4153TIP3    H212424   1.793   4.644   1.968
 4154TIP3   OH212425   4.108   2.419   1.413
 4154TIP3    H112426   4.050   2.435   1.487
 4154TIP3    H212427   4.050   2.409   1.338
 4155TIP3   OH212428   0.580   5.695   5.121
 4155TIP3    H112429   0.566   5.727   5.032
 4155TIP3    H212430   0.657   5.639   5.115
 4156TIP3   OH212431   2.759   6.505   5.678
 4156TIP3    H112432   2.703   6.563   5.626
 4156TIP3    H212433   2.816   6.564   5.727
 4157TIP3   OH212434   0.518   4.431   1.414
 4157TIP3    H112435   0.501   4.376   1.338
 4157TIP3    H212436   0.611   4.416   1.434
 4158TIP3   OH212437   2.074   6.794   0.708
 4158TIP3    H112438   2.003   6.791   0.772
 4158TIP3    H212439   2.054   6.724   0.646
 4159TIP3   OH212440   4.625   1.971   2.753
 4159TIP3    H112441   4.571   2.045   2.727
 4159TIP3    H212442   4.677   1.950   2.675
 4160TIP3   OH212443   2.631   2.381   0.220
 4160TIP3    H112444   2.537   2.380   0.234
 4160TIP3    H212445   2.654   2.474   0.212
 4161TIP3   OH212446   4.223   5.334   2.887
 4161TIP3    H112447   4.307   5.382   2.890
 4161TIP3    H212448   4.161   5.393   2.930
 4162TIP3   OH212449   2.044   2.118   5.258
 4162TIP3    H112450   2.118   2.171   5.230
 4162TIP3    H212451   2.037   2.049   5.193
 4163TIP3   OH212452   5.250   2.300   4.867
 4163TIP3    H112453   5.166   2.268   4.834
 4163TIP3    H212454   5.271   2.375   4.812
 4164TIP3   OH212455   2.453   5.876   0.946
 4164TIP3    H112456   2.530   5.901   0.895
 4164TIP3    H212457   2.379   5.888   0.887
 4165TIP3   OH212458   3.285   6.272   0.258
 4165TIP3    H112459   3.378   6.295   0.256
 4165TIP3    H212460   3.253   6.309   0.341
 4166TIP3   OH212461   2.267   6.178   1.853
 4166TIP3    H112462   2.244   6.181   1.761
 4166TIP3    H212463   2.358   6.207   1.857
 4167TIP3   OH212464   1.728   5.357   5.138
 4167TIP3    H112465   1.665   5.306   5.089
 4167TIP3    H212466   1.739   5.438   5.088
 4168TIP3   OH212467   1.611   1.983   1.700
 4168TIP3    H112468   1.574   1.952   1.618
 4168TIP3    H212469   1.650   1.905   1.740
 4169TIP3   OH212470   1.547   2.445   2.148
 4169TIP3    H112471   1.549   2.540   2.159
 4169TIP3    H212472   1.635   2.417   2.176
 4170TIP3   OH212473   4.962   3.151   2.785
 4170TIP3    H112474   5.055   3.139   2.804
 4170TIP3    H212475   4.945   3.243   2.805
 4171TIP3   OH212476   6.159   1.026   2.568
 4171TIP3    H112477   6.129   0.958   2.629
 4171TIP3    H212478   6.088   1.090   2.566
 4172TIP3   OH212479   7.070   0.638   0.415
 4172TIP3    H112480   6.999   0.693   0.450
 4172TIP3    H212481   7.130   0.626   0.489
 4173TIP3   OH212482   4.076   1.149   1.146
 4173TIP3    H112483   4.115   1.063   1.132
 4173TIP3    H212484   3.982   1.133   1.148
 4174TIP3   OH212485   0.906   5.545   3.190
 4174TIP3    H112486   0.923   5.516   3.100
 4174TIP3    H212487   0.811   5.537   3.200
 4175TIP3   OH212488   0.783   2.789   4.101
 4175TIP3    H112489   0.822   2.856   4.157
 4175TIP3    H212490   0.858   2.738   4.069
 4176TIP3   OH212491   6.296   3.537   2.283
 4176TIP3    H112492   6.332   3.452   2.308
 4176TIP3    H212493   6.249   3.567   2.361
 4177TIP3   OH212494   4.091   0.579   0.783
 4177TIP3    H112495   4.099   0.654   0.724
 4177TIP3    H212496   4.062   0.507   0.726
 4178TIP3   OH212497   1.583   0.022   1.863
 4178TIP3    H112498   1.523   0.046   1.933
 4178TIP3    H212499   1.668   0.057   1.891
 4179TIP3   OH212500   5.790   0.299   2.542
 4179TIP3    H112501   5.877   0.264   2.563
 4179TIP3    H212502   5.807   0.377   2.490
 4180TIP3   OH212503   4.603   0.063   1.796
 4180TIP3    H112504   4.569   0.007   1.865
 4180TIP3    H212505   4.683   0.020   1.766
 4181TIP3   OH212506   1.685   4.808   5.275
 4181TIP3    H112507   1.697   4.714   5.261
 4181TIP3    H212508   1.654   4.815   5.366
 4182TIP3   OH212509   1.476   5.787   0.586
 4182TIP3    H112510   1.482   5.840   0.665
 4182TIP3    H212511   1.559   5.739   0.583
 4183TIP3   OH212512   0.326   6.202   5.224
 4183TIP3    H112513   0.392   6.226   5.290
 4183TIP3    H212514   0.268   6.141   5.269
 4184TIP3   OH212515   1.700   1.356   5.646
 4184TIP3    H112516   1.699   1.424   5.579
 4184TIP3    H212517   1.777   1.303   5.625
 4185TIP3   OH212518   5.310   4.129   3.592
 4185TIP3    H112519   5.291   4.189   3.520
 4185TIP3    H212520   5.406   4.131   3.600
 4186TIP3   OH212521   5.017   6.600   5.013
 4186TIP3    H112522   4.923   6.606   5.030
 4186TIP3    H212523   5.057   6.606   5.100
 4187TIP3   OH212524   3.333   1.364   1.056
 4187TIP3    H112525   3.291   1.279   1.049
 4187TIP3    H212526   3.427   1.346   1.048
 4188TIP3   OH212527   0.959   1.560   3.294
 4188TIP3    H112528   0.897   1.506   3.244
 4188TIP3    H212529   0.911   1.585   3.373
 4189TIP3   OH212530   5.280   4.321   2.483
 4189TIP3    H112531   5.297   4.299   2.575
 4189TIP3    H212532   5.284   4.237   2.437
 4190TIP3   OH212533   3.566   0.063   1.571
 4190TIP3    H112534   3.498   0.102   1.627
 4190TIP3    H212535   3.642   0.056   1.629
 4191TIP3   OH212536   5.481   4.587   1.302
 4191TIP3    H112537   5.482   4.523   1.372
 4191TIP3    H212538   5.573   4.613   1.292
 4192TIP3   OH212539   0.672   5.030   0.967
 4192TIP3    H112540   0.738   4.987   0.914
 4192TIP3    H212541   0.641   4.962   1.026
 4193TIP3   OH212542   3.706   1.546   4.700
 4193TIP3    H112543   3.676   1.491   4.773
 4193TIP3    H212544   3.760   1.613   4.741
 4194TIP3   OH212545   5.161   3.934   3.749
 4194TIP3    H112546   5.231   3.995   3.725
 4194TIP3    H212547   5.092   3.951   3.685
 4195TIP3   OH212548   0.957   3.618   4.310
 4195TIP3    H112549   0.917   3.532   4.305
 4195TIP3    H212550   0.886   3.676   4.337
 4196TIP3   OH212551   2.621   2.233   1.904
 4196TIP3    H112552   2.621   2.203   1.995
 4196TIP3    H212553   2.553   2.181   1.861
 4197TIP3   OH212554   5.772   4.468   3.496
 4197TIP3    H112555   5.806   4.395   3.547
 4197TIP3    H212556   5.720   4.428   3.427
 4198TIP3   OH212557   4.404   2.188   1.298
 4198TIP3    H112558   4.322   2.239   1.298
 4198TIP3    H212559   4.449   2.214   1.378
 4199TIP3   OH212560   6.718   2.348   0.381
 4199TIP3    H112561   6.658   2.414   0.347
 4199TIP3    H212562   6.802   2.368   0.341
 4200TIP3   OH212563   2.596   1.856   5.674
 4200TIP3    H112564   2.662   1.856   5.604
 4200TIP3    H212565   2.575   1.948   5.686
 4201TIP3   OH212566   3.623   6.790   4.599
 4201TIP3    H112567   3.594   6.739   4.523
 4201TIP3    H212568   3.550   6.783   4.662
 4202TIP3   OH212569   1.995   5.555   2.722
 4202TIP3    H112570   1.939   5.542   2.645
 4202TIP3    H212571   2.082   5.528   2.692
 4203TIP3   OH212572   4.660   4.341   5.149
 4203TIP3    H112573   4.687   4.428   5.178
 4203TIP3    H212574   4.573   4.328   5.188
 4204TIP3   OH212575   0.485   0.994   3.726
 4204TIP3    H112576   0.542   0.982   3.802
 4204TIP3    H212577   0.537   1.048   3.666
 4205TIP3   OH212578   6.400   4.470   2.164
 4205TIP3    H112579   6.398   4.493   2.257
 4205TIP3    H212580   6.323   4.512   2.127
 4206TIP3   OH212581   0.264   6.075   4.279
 4206TIP3    H112582   0.202   6.078   4.206
 4206TIP3    H212583   0.218   6.025   4.347
 4207TIP3   OH212584   6.042   6.561   3.474
 4207TIP3    H112585   6.128   6.569   3.515
 4207TIP3    H212586   5.981   6.558   3.548
 4208TIP3   OH212587   5.636   4.512   2.668
 4208TIP3    H112588   5.639   4.550   2.581
 4208TIP3    H212589   5.724   4.477   2.683
 4209TIP3   OH212590   2.653   3.855   0.231
 4209TIP3    H112591   2.629   3.939   0.270
 4209TIP3    H212592   2.678   3.801   0.307
 4210TIP3   OH212593   1.961   1.551   4.659
 4210TIP3    H112594   1.922   1.638   4.655
 4210TIP3    H212595   1.952   1.525   4.751
 4211TIP3   OH212596   2.417   1.864   3.902
 4211TIP3    H112597   2.438   1.888   3.811
 4211TIP3    H212598   2.433   1.770   3.906
 4212TIP3   OH212599   0.039   2.039   1.613
 4212TIP3    H112600  -0.016   2.088   1.553
 4212TIP3    H212601   0.095   1.986   1.556
 4213TIP3   OH212602   5.407   3.549   3.500
 4213TIP3    H112603   5.349   3.576   3.572
 4213TIP3    H212604   5.348   3.510   3.435
 4214TIP3   OH212605   6.434   1.074   5.606
 4214TIP3    H112606   6.415   1.162   5.575
 4214TIP3    H212607   6.477   1.032   5.532
 4215TIP3   OH212608   0.147   4.852   0.683
 4215TIP3    H112609   0.151   4.794   0.760
 4215TIP3    H212610   0.055   4.850   0.656
 4216TIP3   OH212611   2.842   1.041   2.308
 4216TIP3    H112612   2.838   0.954   2.348
 4216TIP3    H212613   2.936   1.059   2.299
 4217TIP3   OH212614   4.601   4.245   4.045
 4217TIP3    H112615   4.550   4.163   4.049
 4217TIP3    H212616   4.639   4.245   3.957
 4218TIP3   OH212617   2.087   6.601   0.284
 4218TIP3    H112618   2.078   6.681   0.232
 4218TIP3    H212619   2.103   6.532   0.220
 4219TIP3   OH212620   2.731   4.056   4.517
 4219TIP3    H112621   2.755   4.007   4.596
 4219TIP3    H212622   2.723   3.988   4.449
 4220TIP3   OH212623   6.230   4.343   0.908
 4220TIP3    H112624   6.137   4.361   0.920
 4220TIP3    H212625   6.235   4.292   0.827
 4221TIP3   OH212626   3.526   4.498   3.415
 4221TIP3    H112627   3.479   4.441   3.476
 4221TIP3    H212628   3.490   4.476   3.329
 4222TIP3   OH212629   3.925   4.841   1.302
 4222TIP3    H112630   3.922   4.752   1.268
 4222TIP3    H212631   4.012   4.850   1.339
 4223TIP3   OH212632   2.856   1.531   4.744
 4223TIP3    H112633   2.812   1.474   4.680
 4223TIP3    H212634   2.948   1.509   4.736
 4224TIP3   OH212635   6.381   0.241   3.035
 4224TIP3    H112636   6.476   0.252   3.027
 4224TIP3    H212637   6.366   0.148   3.015
 4225TIP3   OH212638   3.017   1.218   4.258
 4225TIP3    H112639   3.074   1.173   4.197
 4225TIP3    H212640   2.954   1.265   4.202
 4226TIP3   OH212641   4.256   3.208   5.174
 4226TIP3    H112642   4.228   3.199   5.083
 4226TIP3    H212643   4.201   3.278   5.209
 4227TIP3   OH212644   1.844   2.339   1.391
 4227TIP3    H112645   1.828   2.246   1.372
 4227TIP3    H212646   1.781   2.360   1.461
 4228TIP3   OH212647   6.410   2.692   2.476
 4228TIP3    H112648   6.424   2.598   2.490
 4228TIP3    H212649   6.482   2.734   2.523
 4229TIP3   OH212650   6.861   3.772   0.349
 4229TIP3    H112651   6.836   3.782   0.441
 4229TIP3    H212652   6.784   3.734   0.307
 4230TIP3   OH212653   2.573   1.598   5.446
 4230TIP3    H112654   2.549   1.686   5.415
 4230TIP3    H212655   2.660   1.583   5.411
 4231TIP3   OH212656   3.762   1.429   1.062
 4231TIP3    H112657   3.819   1.483   1.007
 4231TIP3    H212658   3.711   1.377   1.000
 4232TIP3   OH212659   0.562   6.258   0.036
 4232TIP3    H112660   0.519   6.312   0.101
 4232TIP3    H212661   0.566   6.313  -0.042
 4233TIP3   OH212662   0.105   5.364   5.237
 4233TIP3    H112663   0.092   5.272   5.257
 4233TIP3    H212664   0.048   5.410   5.299
 4234TIP3   OH212665   5.279   6.626   2.206
 4234TIP3    H112666   5.259   6.550   2.262
 4234TIP3    H212667   5.370   6.613   2.181
 4235TIP3   OH212668   1.283   1.596   5.130
 4235TIP3    H112669   1.201   1.629   5.165
 4235TIP3    H212670   1.331   1.674   5.102
 4236TIP3   OH212671   6.218   1.145   5.314
 4236TIP3    H112672   6.227   1.240   5.307
 4236TIP3    H212673   6.209   1.128   5.407
 4237TIP3   OH212674   1.487   3.502   5.511
 4237TIP3    H112675   1.414   3.486   5.571
 4237TIP3    H212676   1.512   3.415   5.480
 4238TIP3   OH212677   2.165   3.534   0.516
 4238TIP3    H112678   2.152   3.543   0.611
 4238TIP3    H212679   2.134   3.447   0.495
 4239TIP3   OH212680   2.761   3.871   5.265
 4239TIP3    H112681   2.846   3.911   5.283
 4239TIP3    H212682   2.727   3.919   5.190
 4240TIP3   OH212683   6.654   2.804   1.347
 4240TIP3    H112684   6.656   2.875   1.411
 4240TIP3    H212685   6.710   2.736   1.385
 4241TIP3   OH212686   5.127   5.940   4.912
 4241TIP3    H112687   5.078   5.985   4.981
 4241TIP3    H212688   5.083   5.965   4.831
 4242TIP3   OH212689   4.489   3.513   1.292
 4242TIP3    H112690   4.470   3.607   1.291
 4242TIP3    H212691   4.406   3.472   1.268
 4243TIP3   OH212692   5.608   2.014   0.437
 4243TIP3    H112693   5.683   2.031   0.496
 4243TIP3    H212694   5.638   2.044   0.352
 4244TIP3   OH212695   5.435   2.025   2.322
 4244TIP3    H112696   5.418   2.117   2.302
 4244TIP3    H212697   5.530   2.019   2.331
 4245TIP3   OH212698   5.730   5.050   1.241
 4245TIP3    H112699   5.763   4.964   1.214
 4245TIP3    H212700   5.667   5.073   1.173
 4246TIP3   OH212701   5.250   0.966   2.109
 4246TIP3    H112702   5.201   0.989   2.188
 4246TIP3    H212703   5.332   0.929   2.142
 4247TIP3   OH212704   1.557   1.268   1.444
 4247TIP3    H112705   1.485   1.327   1.464
 4247TIP3    H212706   1.515   1.185   1.422
 4248TIP3   OH212707   5.440   4.742   4.174
 4248TIP3    H112708   5.528   4.721   4.144
 4248TIP3    H212709   5.422   4.677   4.243
 4249TIP3   OH212710   0.059   4.630   5.342
 4249TIP3    H112711   0.010   4.709   5.323
 4249TIP3    H212712   0.137   4.660   5.389
 4250TIP3   OH212713   5.730   3.926   0.993
 4250TIP3    H112714   5.762   3.990   1.057
 4250TIP3    H212715   5.774   3.844   1.016
 4251TIP3   OH212716   1.166   4.839   3.281
 4251TIP3    H112717   1.092   4.896   3.303
 4251TIP3    H212718   1.141   4.753   3.317
 4252TIP3   OH212719   2.594   0.342   0.458
 4252TIP3    H112720   2.566   0.433   0.468
 4252TIP3    H212721   2.667   0.345   0.396
 4253TIP3   OH212722   1.465   4.172   0.413
 4253TIP3    H112723   1.528   4.223   0.464
 4253TIP3    H212724   1.382   4.218   0.426
 4254TIP3   OH212725   6.830   5.998   1.201
 4254TIP3    H112726   6.750   6.047   1.183
 4254TIP3    H212727   6.844   5.946   1.122
 4255TIP3   OH212728   0.724   2.050   4.148
 4255TIP3    H112729   0.636   2.073   4.118
 4255TIP3    H212730   0.759   1.994   4.078
 4256TIP3   OH212731   6.400   1.913   5.843
 4256TIP3    H112732   6.320   1.905   5.896
 4256TIP3    H212733   6.382   1.986   5.784
 4257TIP3   OH212734   2.497   5.739   0.108
 4257TIP3    H112735   2.531   5.785   0.184
 4257TIP3    H212736   2.408   5.713   0.133
 4258TIP3   OH212737   3.356   5.685   4.821
 4258TIP3    H112738   3.351   5.615   4.756
 4258TIP3    H212739   3.276   5.736   4.808
 4259TIP3   OH212740   3.336   2.882   5.364
 4259TIP3    H112741   3.342   2.809   5.425
 4259TIP3    H212742   3.408   2.869   5.302
 4260TIP3   OH212743   2.614   6.774   5.236
 4260TIP3    H112744   2.597   6.831   5.161
 4260TIP3    H212745   2.643   6.834   5.305
 4261TIP3   OH212746   5.152   3.077   4.276
 4261TIP3    H112747   5.072   3.057   4.325
 4261TIP3    H212748   5.195   3.144   4.327
 4262TIP3   OH212749   6.053   2.200   1.557
 4262TIP3    H112750   6.074   2.114   1.592
 4262TIP3    H212751   5.964   2.190   1.522
 4263TIP3   OH212752   0.098   4.298   3.064
 4263TIP3    H112753   0.028   4.243   3.030
 4263TIP3    H212754   0.053   4.374   3.102
 4264TIP3   OH212755   1.153   5.553   0.600
 4264TIP3    H112756   1.153   5.477   0.658
 4264TIP3    H212757   1.064   5.555   0.564
 4265TIP3   OH212758   6.903   3.781   3.056
 4265TIP3    H112759   6.916   3.694   3.093
 4265TIP3    H212760   6.940   3.840   3.122
 4266TIP3   OH212761   5.257   3.506   4.542
 4266TIP3    H112762   5.184   3.494   4.603
 4266TIP3    H212763   5.330   3.458   4.582
 4267TIP3   OH212764   6.120   4.027   3.101
 4267TIP3    H112765   6.207   4.022   3.139
 4267TIP3    H212766   6.080   4.103   3.144
 4268TIP3   OH212767   4.368   2.101   0.495
 4268TIP3    H112768   4.276   2.083   0.479
 4268TIP3    H212769   4.400   2.024   0.542
 4269TIP3   OH212770   0.512   1.817   4.021
 4269TIP3    H112771   0.418   1.812   4.039
 4269TIP3    H212772   0.547   1.735   4.055
 4270TIP3   OH212773   3.248   0.712   5.437
 4270TIP3    H112774   3.178   0.679   5.492
 4270TIP3    H212775   3.206   0.731   5.353
 4271TIP3   OH212776   0.740   5.998   5.238
 4271TIP3    H112777   0.781   6.018   5.323
 4271TIP3    H212778   0.758   5.905   5.224
 4272TIP3   OH212779   2.752  -0.009   1.926
 4272TIP3    H112780   2.745   0.087   1.933
 4272TIP3    H212781   2.702  -0.031   1.848
 4273TIP3   OH212782   0.688   3.608   3.826
 4273TIP3    H112783   0.678   3.513   3.825
 4273TIP3    H212784   0.614   3.641   3.774
 4274TIP3   OH212785   6.792   0.496   3.356
 4274TIP3    H112786   6.708   0.452   3.344
 4274TIP3    H212787   6.853   0.446   3.302
 4275TIP3   OH212788   4.711   1.973   3.012
 4275TIP3    H112789   4.685   1.977   2.920
 4275TIP3    H212790   4.764   1.893   3.019
 4276TIP3   OH212791   2.847   0.743   0.204
 4276TIP3    H112792   2.759   0.772   0.181
 4276TIP3    H212793   2.841   0.717   0.296
 4277TIP3   OH212794   5.726   5.093   0.712
 4277TIP3    H112795   5.707   5.047   0.631
 4277TIP3    H212796   5.660   5.162   0.717
 4278TIP3   OH212797   3.423   5.495   0.420
 4278TIP3    H112798   3.462   5.411   0.395
 4278TIP3    H212799   3.407   5.487   0.514
 4279TIP3   OH212800   3.430   5.534   3.954
 4279TIP3    H112801   3.438   5.628   3.938
 4279TIP3    H212802   3.482   5.518   4.032
 4280TIP3   OH212803   1.286   5.180   2.243
 4280TIP3    H112804   1.192   5.169   2.230
 4280TIP3    H212805   1.297   5.179   2.338
 4281TIP3   OH212806   1.618   2.836   4.448
 4281TIP3    H112807   1.534   2.879   4.433
 4281TIP3    H212808   1.598   2.742   4.449
 4282TIP3   OH212809   1.212   1.229   3.944
 4282TIP3    H112810   1.291   1.282   3.937
 4282TIP3    H212811   1.243   1.139   3.952
 4283TIP3   OH212812   5.751   6.101   4.650
 4283TIP3    H112813   5.765   6.007   4.666
 4283TIP3    H212814   5.827   6.128   4.598
 4284TIP3   OH212815   1.268   4.661   1.632
 4284TIP3    H112816   1.237   4.581   1.674
 4284TIP3    H212817   1.254   4.646   1.538
 4285TIP3   OH212818   6.538   6.783   3.359
 4285TIP3    H112819   6.578   6.697   3.371
 4285TIP3    H212820   6.603   6.845   3.392
 4286TIP3   OH212821   5.142   5.656   1.534
 4286TIP3    H112822   5.117   5.586   1.594
 4286TIP3    H212823   5.224   5.627   1.495
 4287TIP3   OH212824   3.371   6.545   0.712
 4287TIP3    H112825   3.336   6.493   0.784
 4287TIP3    H212826   3.357   6.636   0.738
 4288TIP3   OH212827   1.593   1.048   5.276
 4288TIP3    H112828   1.579   1.142   5.279
 4288TIP3    H212829   1.688   1.038   5.282
 4289TIP3   OH212830   6.017   2.817   0.960
 4289TIP3    H112831   6.094   2.843   1.010
 4289TIP3    H212832   5.950   2.881   0.985
 4290TIP3   OH212833   1.294   5.669   0.906
 4290TIP3    H112834   1.325   5.758   0.924
 4290TIP3    H212835   1.354   5.613   0.956
 4291TIP3   OH212836   3.838   0.941   2.352
 4291TIP3    H112837   3.746   0.924   2.374
 4291TIP3    H212838   3.868   0.860   2.311
 4292TIP3   OH212839   5.688   2.882   4.955
 4292TIP3    H112840   5.726   2.832   5.027
 4292TIP3    H212841   5.645   2.816   4.901
 4293TIP3   OH212842   3.763   5.045   4.823
 4293TIP3    H112843   3.712   5.093   4.758
 4293TIP3    H212844   3.697   4.993   4.870
 4294TIP3   OH212845   3.434   1.662   4.727
 4294TIP3    H112846   3.514   1.610   4.729
 4294TIP3    H212847   3.407   1.659   4.635
 4295TIP3   OH212848   0.746   4.836   5.556
 4295TIP3    H112849   0.674   4.889   5.523
 4295TIP3    H212850   0.709   4.749   5.567
 4296TIP3   OH212851   3.384   6.722   4.136
 4296TIP3    H112852   3.390   6.798   4.194
 4296TIP3    H212853   3.343   6.756   4.056
 4297TIP3   OH212854   6.098   4.726   2.695
 4297TIP3    H112855   6.188   4.707   2.721
 4297TIP3    H212856   6.082   4.667   2.621
 4298TIP3   OH212857   2.097   1.469   4.036
 4298TIP3    H112858   2.038   1.541   4.059
 4298TIP3    H212859   2.135   1.441   4.120
 4299TIP3   OH212860   1.037   4.745   2.801
 4299TIP3    H112861   1.084   4.787   2.872
 4299TIP3    H212862   1.103   4.689   2.758
 4300TIP3   OH212863   3.728   1.723   0.237
 4300TIP3    H112864   3.651   1.666   0.246
 4300TIP3    H212865   3.785   1.676   0.176
 4301TIP3   OH212866   5.608   0.941   1.553
 4301TIP3    H112867   5.583   0.995   1.628
 4301TIP3    H212868   5.638   1.003   1.487
 4302TIP3   OH212869   2.603   1.693   5.886
 4302TIP3    H112870   2.691   1.716   5.917
 4302TIP3    H212871   2.590   1.747   5.808
 4303TIP3   OH212872   4.496   6.102   4.615
 4303TIP3    H112873   4.469   6.078   4.704
 4303TIP3    H212874   4.416   6.093   4.563
 4304TIP3   OH212875   4.666   3.679   3.620
 4304TIP3    H112876   4.670   3.736   3.698
 4304TIP3    H212877   4.757   3.656   3.602
 4305TIP3   OH212878   4.348   1.262   1.342
 4305TIP3    H112879   4.260   1.227   1.330
 4305TIP3    H212880   4.333   1.349   1.381
 4306TIP3   OH212881   7.226   4.851   5.650
 4306TIP3    H112882   7.145   4.809   5.624
 4306TIP3    H212883   7.213   4.943   5.630
 4307TIP3   OH212884   4.209   0.792   1.194
 4307TIP3    H112885   4.159   0.713   1.172
 4307TIP3    H212886   4.183   0.812   1.284
 4308TIP3   OH212887   6.427   6.263   2.869
 4308TIP3    H112888   6.513   6.306   2.867
 4308TIP3    H212889   6.386   6.288   2.786
 4309TIP3   OH212890   4.191   4.502   4.286
 4309TIP3    H112891   4.131   4.532   4.218
 4309TIP3    H212892   4.249   4.440   4.241
 4310TIP3   OH212893   1.539   4.319   3.024
 4310TIP3    H112894   1.541   4.280   3.112
 4310TIP3    H212895   1.560   4.247   2.965
 4311TIP3   OH212896   0.464   2.259   2.912
 4311TIP3    H112897   0.421   2.333   2.954
 4311TIP3    H212898   0.495   2.293   2.828
 4312TIP3   OH212899   2.256   5.112   4.927
 4312TIP3    H112900   2.287   5.048   4.863
 4312TIP3    H212901   2.186   5.159   4.882
 4313TIP3   OH212902   0.796   1.867   2.714
 4313TIP3    H112903   0.818   1.885   2.622
 4313TIP3    H212904   0.789   1.772   2.719
 4314TIP3   OH212905   0.726   4.418   5.134
 4314TIP3    H112906   0.728   4.370   5.217
 4314TIP3    H212907   0.730   4.510   5.159
 4315TIP3   OH212908   0.597   0.752   0.492
 4315TIP3    H112909   0.627   0.664   0.468
 4315TIP3    H212910   0.630   0.766   0.580
 4316TIP3   OH212911   4.522   0.907   3.212
 4316TIP3    H112912   4.441   0.903   3.161
 4316TIP3    H212913   4.572   0.830   3.183
 4317TIP3   OH212914   6.005   1.771   2.681
 4317TIP3    H112915   5.922   1.777   2.728
 4317TIP3    H212916   6.025   1.861   2.656
 4318TIP3   OH212917   0.904   1.207   5.161
 4318TIP3    H112918   0.989   1.208   5.118
 4318TIP3    H212919   0.883   1.300   5.175
 4319TIP3   OH212920   5.035   0.527   4.942
 4319TIP3    H112921   5.023   0.558   4.852
 4319TIP3    H212922   4.955   0.479   4.962
 4320TIP3   OH212923   2.891   2.788   3.394
 4320TIP3    H112924   2.928   2.838   3.320
 4320TIP3    H212925   2.901   2.847   3.469
 4321TIP3   OH212926   2.607   1.324   2.569
 4321TIP3    H112927   2.670   1.254   2.586
 4321TIP3    H212928   2.580   1.310   2.478
 4322TIP3   OH212929   5.609   4.211   2.254
 4322TIP3    H112930   5.541   4.276   2.272
 4322TIP3    H212931   5.562   4.128   2.247
 4323TIP3   OH212932   1.392   0.918   4.902
 4323TIP3    H112933   1.437   0.833   4.900
 4323TIP3    H212934   1.346   0.919   4.985
 4324TIP3   OH212935   3.415   2.249   4.288
 4324TIP3    H112936   3.437   2.166   4.247
 4324TIP3    H212937   3.358   2.293   4.225
 4325TIP3   OH212938   0.410   0.228   1.937
 4325TIP3    H112939   0.436   0.143   1.973
 4325TIP3    H212940   0.325   0.213   1.897
 4326TIP3   OH212941   2.743   1.576   2.102
 4326TIP3    H112942   2.666   1.624   2.072
 4326TIP3    H212943   2.817   1.634   2.082
 4327TIP3   OH212944   6.988   6.158   5.224
 4327TIP3    H112945   6.960   6.107   5.148
 4327TIP3    H212946   6.960   6.247   5.206
 4328TIP3   OH212947   1.672   5.268   2.399
 4328TIP3    H112948   1.751   5.241   2.445
 4328TIP3    H212949   1.661   5.360   2.424
 4329TIP3   OH212950   6.914   0.939   4.689
 4329TIP3    H112951   6.961   1.015   4.655
 4329TIP3    H212952   6.983   0.882   4.723
 4330TIP3   OH212953   2.781   4.717   2.772
 4330TIP3    H112954   2.766   4.808   2.797
 4330TIP3    H212955   2.874   4.703   2.788
 4331TIP3   OH212956   3.887   0.079   5.399
 4331TIP3    H112957   3.934   0.090   5.316
 4331TIP3    H212958   3.872   0.169   5.430
 4332TIP3   OH212959   3.161   1.294   0.110
 4332TIP3    H112960   3.180   1.373   0.161
 4332TIP3    H212961   3.134   1.230   0.176
 4333TIP3   OH212962   1.523   2.364   4.589
 4333TIP3    H112963   1.489   2.453   4.579
 4333TIP3    H212964   1.460   2.321   4.648
 4334TIP3   OH212965   3.404   6.709   3.365
 4334TIP3    H112966   3.341   6.764   3.318
 4334TIP3    H212967   3.360   6.685   3.446
 4335TIP3   OH212968   0.500   3.100   4.734
 4335TIP3    H112969   0.460   3.018   4.708
 4335TIP3    H212970   0.593   3.079   4.746
 4336TIP3   OH212971   4.982   4.825   0.089
 4336TIP3    H112972   4.903   4.774   0.070
 4336TIP3    H212973   4.958   4.915   0.068
 4337TIP3   OH212974   2.801   1.205   3.781
 4337TIP3    H112975   2.861   1.275   3.755
 4337TIP3    H212976   2.761   1.176   3.699
 4338TIP3   OH212977   0.254   5.094   0.956
 4338TIP3    H112978   0.271   5.000   0.964
 4338TIP3    H212979   0.334   5.129   0.916
 4339TIP3   OH212980   5.290   4.567   0.167
 4339TIP3    H112981   5.348   4.521   0.106
 4339TIP3    H212982   5.328   4.552   0.253
 4340TIP3   OH212983   2.204   5.381   3.922
 4340TIP3    H112984   2.194   5.407   3.831
 4340TIP3    H212985   2.242   5.458   3.965
 4341TIP3   OH212986   6.012   2.729   1.451
 4341TIP3    H112987   5.978   2.758   1.536
 4341TIP3    H212988   6.058   2.806   1.417
 4342TIP3   OH212989   0.289   6.567   4.602
 4342TIP3    H112990   0.243   6.619   4.536
 4342TIP3    H212991   0.299   6.625   4.677
 4343TIP3   OH212992   0.834   0.217   2.108
 4343TIP3    H112993   0.841   0.174   2.023
 4343TIP3    H212994   0.905   0.179   2.160
 4344TIP3   OH212995   4.429   5.551   5.054
 4344TIP3    H112996   4.375   5.623   5.086
 4344TIP3    H212997   4.371   5.475   5.054
 4345TIP3   OH212998   0.335   4.278   0.708
 4345TIP3    H112999   0.415   4.241   0.745
 4345TIP3    H213000   0.364   4.327   0.631
 4346TIP3   OH213001   2.965   1.766   5.603
 4346TIP3    H113002   2.992   1.684   5.645
 4346TIP3    H213003   2.929   1.739   5.518
 4347TIP3   OH213004   1.346   5.844   1.377
 4347TIP3    H113005   1.285   5.841   1.451
 4347TIP3    H213006   1.408   5.913   1.400
 4348TIP3   OH213007   6.180   4.375   1.581
 4348TIP3    H113008   6.092   4.365   1.618
 4348TIP3    H213009   6.237   4.326   1.640
 4349TIP3   OH213010   6.807   1.884   5.477
 4349TIP3    H113011   6.832   1.911   5.389
 4349TIP3    H213012   6.870   1.927   5.534
 4350TIP3   OH213013   2.874   0.978   3.569
 4350TIP3    H113014   2.930   1.056   3.569
 4350TIP3    H213015   2.853   0.964   3.476
 4351TIP3   OH213016   4.161   1.796   3.467
 4351TIP3    H113017   4.246   1.753   3.480
 4351TIP3    H213018   4.103   1.726   3.437
 4352TIP3   OH213019   4.570   3.147   5.694
 4352TIP3    H113020   4.665   3.135   5.703
 4352TIP3    H213021   4.561   3.238   5.664
 4353TIP3   OH213022   2.085   3.639   5.839
 4353TIP3    H113023   2.147   3.692   5.890
 4353TIP3    H213024   2.013   3.622   5.900
 4354TIP3   OH213025   6.579   1.709   2.262
 4354TIP3    H113026   6.508   1.757   2.304
 4354TIP3    H213027   6.552   1.618   2.265
 4355TIP3   OH213028   6.642   2.848   1.897
 4355TIP3    H113029   6.577   2.779   1.908
 4355TIP3    H213030   6.656   2.882   1.985
 4356TIP3   OH213031   5.732   3.309   3.171
 4356TIP3    H113032   5.673   3.239   3.142
 4356TIP3    H213033   5.794   3.319   3.099
 4357TIP3   OH213034   4.924   1.778   4.947
 4357TIP3    H113035   4.963   1.717   5.010
 4357TIP3    H213036   4.849   1.730   4.911
 4358TIP3   OH213037   3.488   5.232   0.792
 4358TIP3    H113038   3.496   5.320   0.753
 4358TIP3    H213039   3.432   5.245   0.869
 4359TIP3   OH213040   1.344   2.909   4.380
 4359TIP3    H113041   1.347   2.977   4.313
 4359TIP3    H213042   1.302   2.952   4.455
 4360TIP3   OH213043   0.594   1.427   4.317
 4360TIP3    H113044   0.530   1.358   4.298
 4360TIP3    H213045   0.545   1.492   4.367
 4361TIP3   OH213046   1.329   4.336   5.790
 4361TIP3    H113047   1.424   4.345   5.797
 4361TIP3    H213048   1.296   4.425   5.803
 4362TIP3   OH213049   6.363   3.477   5.808
 4362TIP3    H113050   6.302   3.459   5.879
 4362TIP3    H213051   6.449   3.461   5.847
 4363TIP3   OH213052   5.842   1.334   0.639
 4363TIP3    H113053   5.858   1.428   0.644
 4363TIP3    H213054   5.748   1.326   0.625
 4364TIP3   OH213055   4.828   6.391   5.389
 4364TIP3    H113056   4.746   6.399   5.341
 4364TIP3    H213057   4.802   6.373   5.479
 4365TIP3   OH213058   1.252   0.958   0.254
 4365TIP3    H113059   1.319   0.917   0.309
 4365TIP3    H213060   1.173   0.957   0.309
 4366TIP3   OH213061   1.741   0.753   3.996
 4366TIP3    H113062   1.770   0.844   4.004
 4366TIP3    H213063   1.817   0.701   4.022
 4367TIP3   OH213064   3.130   2.858   0.033
 4367TIP3    H113065   3.200   2.922   0.039
 4367TIP3    H213066   3.172   2.774   0.053
 4368TIP3   OH213067   0.652   5.072   5.225
 4368TIP3    H113068   0.627   5.053   5.134
 4368TIP3    H213069   0.732   5.123   5.218
 4369TIP3   OH213070   2.604   4.191   1.978
 4369TIP3    H113071   2.605   4.168   2.070
 4369TIP3    H213072   2.539   4.261   1.971
 4370TIP3   OH213073   3.644   6.300   3.973
 4370TIP3    H113074   3.557   6.272   3.945
 4370TIP3    H213075   3.703   6.260   3.909
 4371TIP3   OH213076   4.897   3.243   3.636
 4371TIP3    H113077   4.962   3.248   3.566
 4371TIP3    H213078   4.813   3.246   3.590
 4372TIP3   OH213079   0.726   6.743   0.816
 4372TIP3    H113080   0.786   6.674   0.842
 4372TIP3    H213081   0.768   6.824   0.845
 4373TIP3   OH213082   3.684   4.471   0.738
 4373TIP3    H113083   3.630   4.547   0.764
 4373TIP3    H213084   3.773   4.495   0.764
 4374TIP3   OH213085   2.775   1.892   4.084
 4374TIP3    H113086   2.709   1.825   4.063
 4374TIP3    H213087   2.736   1.974   4.054
 4375TIP3   OH213088   1.977   5.254   2.491
 4375TIP3    H113089   2.035   5.191   2.534
 4375TIP3    H213090   2.015   5.339   2.513
 4376TIP3   OH213091   3.628   6.621   4.065
 4376TIP3    H113092   3.622   6.530   4.036
 4376TIP3    H213093   3.538   6.646   4.086
 4377TIP3   OH213094   4.977   3.953   3.178
 4377TIP3    H113095   4.980   3.999   3.095
 4377TIP3    H213096   5.023   3.871   3.161
 4378TIP3   OH213097   3.683   3.987   1.661
 4378TIP3    H113098   3.646   4.034   1.736
 4378TIP3    H213099   3.727   3.912   1.699
 4379TIP3   OH213100   3.961   1.612   5.156
 4379TIP3    H113101   3.910   1.687   5.186
 4379TIP3    H213102   3.909   1.536   5.181
 4380TIP3   OH213103   5.692   5.250   2.961
 4380TIP3    H113104   5.712   5.158   2.975
 4380TIP3    H213105   5.597   5.256   2.970
 4381TIP3   OH213106   3.911   2.417   2.906
 4381TIP3    H113107   3.862   2.427   2.824
 4381TIP3    H213108   3.848   2.440   2.974
 4382TIP3   OH213109   7.151   5.690   0.050
 4382TIP3    H113110   7.084   5.623   0.046
 4382TIP3    H213111   7.143   5.727   0.139
 4383TIP3   OH213112   0.977   0.457   5.345
 4383TIP3    H113113   0.955   0.432   5.255
 4383TIP3    H213114   1.055   0.406   5.365
 4384TIP3   OH213115   1.399   0.084   2.062
 4384TIP3    H113116   1.325   0.145   2.049
 4384TIP3    H213117   1.398   0.065   2.156
 4385TIP3   OH213118   3.245   5.325   3.955
 4385TIP3    H113119   3.310   5.395   3.959
 4385TIP3    H213120   3.164   5.365   3.988
 4386TIP3   OH213121   5.457   0.285   2.575
 4386TIP3    H113122   5.534   0.341   2.579
 4386TIP3    H213123   5.483   0.205   2.620
 4387TIP3   OH213124   4.548   2.501   5.580
 4387TIP3    H113125   4.557   2.406   5.571
 4387TIP3    H213126   4.560   2.535   5.491
 4388TIP3   OH213127   4.629   0.579   0.575
 4388TIP3    H113128   4.662   0.566   0.486
 4388TIP3    H213129   4.706   0.566   0.631
 4389TIP3   OH213130   1.338   5.790   4.566
 4389TIP3    H113131   1.396   5.864   4.551
 4389TIP3    H213132   1.347   5.771   4.660
 4390TIP3   OH213133   4.701   3.050   0.633
 4390TIP3    H113134   4.778   3.105   0.622
 4390TIP3    H213135   4.643   3.101   0.690
 4391TIP3   OH213136   1.895   2.303   0.386
 4391TIP3    H113137   1.814   2.255   0.370
 4391TIP3    H213138   1.888   2.331   0.478
 4392TIP3   OH213139   4.576   0.942   3.482
 4392TIP3    H113140   4.604   1.033   3.487
 4392TIP3    H213141   4.576   0.923   3.388
 4393TIP3   OH213142   4.465   2.707   1.548
 4393TIP3    H113143   4.401   2.664   1.492
 4393TIP3    H213144   4.505   2.635   1.598
 4394TIP3   OH213145   5.571   4.768   4.819
 4394TIP3    H113146   5.602   4.679   4.808
 4394TIP3    H213147   5.625   4.805   4.889
 4395TIP3   OH213148   1.683   4.105   5.215
 4395TIP3    H113149   1.608   4.122   5.272
 4395TIP3    H213150   1.662   4.021   5.174
 4396TIP3   OH213151   2.321   4.530   2.351
 4396TIP3    H113152   2.242   4.580   2.370
 4396TIP3    H213153   2.352   4.499   2.436
 4397TIP3   OH213154   1.456   5.162   5.203
 4397TIP3    H113155   1.537   5.163   5.254
 4397TIP3    H213156   1.424   5.072   5.210
 4398TIP3   OH213157   0.091   5.528   5.695
 4398TIP3    H113158   0.095   5.598   5.761
 4398TIP3    H213159   0.073   5.449   5.745
 4399TIP3   OH213160   7.094   1.940   3.256
 4399TIP3    H113161   7.165   1.953   3.193
 4399TIP3    H213162   7.016   1.975   3.213
 4400TIP3   OH213163   1.145   2.384   3.889
 4400TIP3    H113164   1.132   2.393   3.983
 4400TIP3    H213165   1.121   2.469   3.853
 4401TIP3   OH213166   0.399   2.516   2.493
 4401TIP3    H113167   0.459   2.442   2.486
 4401TIP3    H213168   0.343   2.495   2.568
 4402TIP3   OH213169   5.595   0.452   3.171
 4402TIP3    H113170   5.503   0.439   3.191
 4402TIP3    H213171   5.612   0.543   3.196
 4403TIP3   OH213172   0.218   1.591   5.653
 4403TIP3    H113173   0.311   1.605   5.673
 4403TIP3    H213174   0.181   1.559   5.735
 4404TIP3   OH213175   5.586   2.068   5.059
 4404TIP3    H113176   5.673   2.106   5.073
 4404TIP3    H213177   5.595   1.976   5.083
 4405TIP3   OH213178   1.107   1.134   2.444
 4405TIP3    H113179   1.020   1.133   2.404
 4405TIP3    H213180   1.107   1.212   2.500
 4406TIP3   OH213181   2.656   1.580   1.363
 4406TIP3    H113182   2.705   1.656   1.393
 4406TIP3    H213183   2.581   1.574   1.423
 4407TIP3   OH213184   6.258   2.938   4.912
 4407TIP3    H113185   6.229   2.988   4.988
 4407TIP3    H213186   6.323   2.994   4.870
 4408TIP3   OH213187   0.870   0.189   3.149
 4408TIP3    H113188   0.774   0.192   3.139
 4408TIP3    H213189   0.903   0.235   3.072
 4409TIP3   OH213190   1.166   0.883   5.501
 4409TIP3    H113191   1.172   0.972   5.467
 4409TIP3    H213192   1.147   0.829   5.424
 4410TIP3   OH213193   5.951   1.211   2.603
 4410TIP3    H113194   5.996   1.292   2.628
 4410TIP3    H213195   5.892   1.236   2.532
 4411TIP3   OH213196   5.815   6.244   1.108
 4411TIP3    H113197   5.747   6.194   1.154
 4411TIP3    H213198   5.872   6.176   1.070
 4412TIP3   OH213199   4.398   4.333   5.187
 4412TIP3    H113200   4.400   4.403   5.121
 4412TIP3    H213201   4.345   4.265   5.148
 4413TIP3   OH213202   6.513   2.120   3.453
 4413TIP3    H113203   6.467   2.114   3.369
 4413TIP3    H213204   6.592   2.171   3.434
 4414TIP3   OH213205   6.452   0.997   0.210
 4414TIP3    H113206   6.370   1.044   0.223
 4414TIP3    H213207   6.426   0.905   0.198
 4415TIP3   OH213208   1.717   2.356   4.953
 4415TIP3    H113209   1.628   2.364   4.986
 4415TIP3    H213210   1.753   2.280   5.000
 4416TIP3   OH213211   2.363   4.472   3.093
 4416TIP3    H113212   2.283   4.520   3.072
 4416TIP3    H213213   2.343   4.428   3.176
 4417TIP3   OH213214   6.866   2.139   3.690
 4417TIP3    H113215   6.949   2.095   3.671
 4417TIP3    H213216   6.868   2.218   3.635
 4418TIP3   OH213217   1.692   2.895   3.187
 4418TIP3    H113218   1.756   2.844   3.136
 4418TIP3    H213219   1.699   2.983   3.152
 4419TIP3   OH213220   1.567   4.074   2.897
 4419TIP3    H113221   1.564   4.006   2.964
 4419TIP3    H213222   1.607   4.031   2.821
 4420TIP3   OH213223   3.111   3.443   4.218
 4420TIP3    H113224   3.032   3.441   4.271
 4420TIP3    H213225   3.142   3.352   4.216
 4421TIP3   OH213226   6.069   4.520   4.646
 4421TIP3    H113227   6.006   4.450   4.627
 4421TIP3    H213228   6.061   4.580   4.571
 4422TIP3   OH213229   1.966   2.678   2.388
 4422TIP3    H113230   1.998   2.762   2.421
 4422TIP3    H213231   1.976   2.618   2.461
 4423TIP3   OH213232   3.455   2.894   0.050
 4423TIP3    H113233   3.534   2.843   0.069
 4423TIP3    H213234   3.484   2.985   0.052
 4424TIP3   OH213235   4.241   2.178   5.351
 4424TIP3    H113236   4.225   2.248   5.415
 4424TIP3    H213237   4.330   2.193   5.321
 4425TIP3   OH213238   2.905   3.956   3.583
 4425TIP3    H113239   2.953   3.920   3.658
 4425TIP3    H213240   2.906   3.886   3.518
 4426TIP3   OH213241   2.292   4.007   1.572
 4426TIP3    H113242   2.327   4.071   1.634
 4426TIP3    H213243   2.304   3.923   1.616
 4427TIP3   OH213244   4.048   4.870   4.295
 4427TIP3    H113245   4.063   4.877   4.201
 4427TIP3    H213246   3.993   4.945   4.316
 4428TIP3   OH213247   1.464   2.414   4.999
 4428TIP3    H113248   1.391   2.360   4.969
 4428TIP3    H213249   1.439   2.503   4.975
 4429TIP3   OH213250   5.408   2.350   3.133
 4429TIP3    H113251   5.380   2.441   3.133
 4429TIP3    H213252   5.405   2.323   3.041
 4430TIP3   OH213253   7.054   1.850   1.646
 4430TIP3    H113254   7.079   1.778   1.589
 4430TIP3    H213255   7.136   1.898   1.663
 4431TIP3   OH213256   4.457   5.993   5.475
 4431TIP3    H113257   4.412   6.075   5.493
 4431TIP3    H213258   4.533   6.019   5.422
 4432TIP3   OH213259   3.740   4.632   3.687
 4432TIP3    H113260   3.680   4.572   3.732
 4432TIP3    H213261   3.827   4.607   3.717
 4433TIP3   OH213262   2.805   0.202   2.171
 4433TIP3    H113263   2.712   0.190   2.193
 4433TIP3    H213264   2.844   0.116   2.185
 4434TIP3   OH213265   6.070   6.380   4.816
 4434TIP3    H113266   6.022   6.411   4.894
 4434TIP3    H213267   6.075   6.285   4.827
 4435TIP3   OH213268   5.477   6.665   5.384
 4435TIP3    H113269   5.505   6.611   5.458
 4435TIP3    H213270   5.530   6.635   5.311
 4436TIP3   OH213271   1.060   6.741   1.005
 4436TIP3    H113272   1.066   6.819   1.059
 4436TIP3    H213273   1.072   6.773   0.915
 4437TIP3   OH213274   5.455   4.006   4.110
 4437TIP3    H113275   5.387   4.059   4.152
 4437TIP3    H213276   5.406   3.937   4.065
 4438TIP3   OH213277   6.596   3.748   5.647
 4438TIP3    H113278   6.647   3.828   5.630
 4438TIP3    H213279   6.649   3.698   5.708
 4439TIP3   OH213280   3.357   4.936   5.796
 4439TIP3    H113281   3.307   4.883   5.734
 4439TIP3    H213282   3.446   4.938   5.760
 4440TIP3   OH213283   3.616   1.438   1.478
 4440TIP3    H113284   3.537   1.432   1.532
 4440TIP3    H213285   3.587   1.478   1.397
 4441TIP3   OH213286   6.078   2.139   0.751
 4441TIP3    H113287   6.134   2.167   0.679
 4441TIP3    H213288   6.028   2.066   0.716
 4442TIP3   OH213289   1.873   1.060   4.552
 4442TIP3    H113290   1.938   1.128   4.569
 4442TIP3    H213291   1.800   1.082   4.611
 4443TIP3   OH213292   5.615   2.670   4.825
 4443TIP3    H113293   5.697   2.657   4.778
 4443TIP3    H213294   5.548   2.633   4.768
 4444TIP3   OH213295   0.371   6.498   2.375
 4444TIP3    H113296   0.316   6.563   2.332
 4444TIP3    H213297   0.442   6.549   2.413
 4445TIP3   OH213298   4.145   4.720   2.721
 4445TIP3    H113299   4.191   4.731   2.804
 4445TIP3    H213300   4.098   4.637   2.731
 4446TIP3   OH213301   6.680   4.345   2.655
 4446TIP3    H113302   6.760   4.396   2.672
 4446TIP3    H213303   6.712   4.259   2.628
 4447TIP3   OH213304   7.011   0.288   2.079
 4447TIP3    H113305   7.069   0.331   2.141
 4447TIP3    H213306   6.935   0.263   2.131
 4448TIP3   OH213307   2.971   3.748   0.608
 4448TIP3    H113308   2.990   3.724   0.699
 4448TIP3    H213309   2.915   3.825   0.615
 4449TIP3   OH213310   0.553   3.091   5.365
 4449TIP3    H113311   0.500   3.169   5.346
 4449TIP3    H213312   0.638   3.126   5.391
 4450TIP3   OH213313   0.881   6.426   1.260
 4450TIP3    H113314   0.811   6.477   1.219
 4450TIP3    H213315   0.893   6.350   1.202
 4451TIP3   OH213316   1.180   3.701   3.658
 4451TIP3    H113317   1.190   3.619   3.707
 4451TIP3    H213318   1.116   3.681   3.589
 4452TIP3   OH213319   6.301   1.148   3.161
 4452TIP3    H113320   6.348   1.112   3.086
 4452TIP3    H213321   6.358   1.132   3.236
 4453TIP3   OH213322   4.845   4.554   1.534
 4453TIP3    H113323   4.916   4.492   1.551
 4453TIP3    H213324   4.768   4.514   1.575
 4454TIP3   OH213325   6.663   5.702   2.284
 4454TIP3    H113326   6.689   5.666   2.200
 4454TIP3    H213327   6.732   5.765   2.305
 4455TIP3   OH213328   4.489   1.333   0.504
 4455TIP3    H113329   4.568   1.335   0.449
 4455TIP3    H213330   4.417   1.347   0.443
 4456TIP3   OH213331   5.981   6.067   5.153
 4456TIP3    H113332   5.969   6.117   5.235
 4456TIP3    H213333   5.992   5.977   5.182
 4457TIP3   OH213334   0.523   0.585   3.627
 4457TIP3    H113335   0.461   0.564   3.696
 4457TIP3    H213336   0.478   0.650   3.574
 4458TIP3   OH213337   0.400   0.064   1.221
 4458TIP3    H113338   0.395   0.067   1.126
 4458TIP3    H213339   0.325   0.115   1.250
 4459TIP3   OH213340   4.817   4.092   5.682
 4459TIP3    H113341   4.897   4.125   5.642
 4459TIP3    H213342   4.747   4.140   5.638
 4460TIP3   OH213343   5.536   6.375   5.358
 4460TIP3    H113344   5.604   6.359   5.423
 4460TIP3    H213345   5.540   6.298   5.301
 4461TIP3   OH213346   1.165   2.048   3.453
 4461TIP3    H113347   1.137   2.125   3.503
 4461TIP3    H213348   1.113   2.052   3.372
 4462TIP3   OH213349   7.001   6.223   4.290
 4462TIP3    H113350   7.015   6.258   4.202
 4462TIP3    H213351   6.950   6.291   4.335
 4463TIP3   OH213352   0.841   6.348   2.230
 4463TIP3    H113353   0.796   6.329   2.148
 4463TIP3    H213354   0.778   6.325   2.298
 4464TIP3   OH213355   2.051   5.780   0.669
 4464TIP3    H113356   2.076   5.730   0.591
 4464TIP3    H213357   1.957   5.792   0.660
 4465TIP3   OH213358   1.202   5.094   0.419
 4465TIP3    H113359   1.151   5.070   0.341
 4465TIP3    H213360   1.255   5.016   0.436
 4466TIP3   OH213361   6.738   1.773   2.636
 4466TIP3    H113362   6.647   1.804   2.638
 4466TIP3    H213363   6.778   1.810   2.714
 4467TIP3   OH213364   4.757   5.045   2.894
 4467TIP3    H113365   4.671   5.063   2.933
 4467TIP3    H213366   4.739   4.990   2.818
 4468TIP3   OH213367   6.259   2.887   4.140
 4468TIP3    H113368   6.165   2.885   4.121
 4468TIP3    H213369   6.264   2.877   4.235
 4469TIP3   OH213370   1.390   6.060   4.597
 4469TIP3    H113371   1.297   6.046   4.615
 4469TIP3    H213372   1.391   6.106   4.512
 4470TIP3   OH213373   5.053   6.034   0.662
 4470TIP3    H113374   5.124   5.991   0.710
 4470TIP3    H213375   4.982   5.969   0.663
 4471TIP3   OH213376   4.156   6.335   2.121
 4471TIP3    H113377   4.130   6.326   2.213
 4471TIP3    H213378   4.134   6.250   2.082
 4472TIP3   OH213379   4.903   3.327   3.368
 4472TIP3    H113380   4.886   3.345   3.275
 4472TIP3    H213381   4.823   3.284   3.399
 4473TIP3   OH213382   4.244   2.174   2.199
 4473TIP3    H113383   4.230   2.091   2.153
 4473TIP3    H213384   4.278   2.149   2.284
 4474TIP3   OH213385   4.215   6.436   3.979
 4474TIP3    H113386   4.281   6.370   3.956
 4474TIP3    H213387   4.233   6.509   3.920
 4475TIP3   OH213388   2.859   2.336   3.114
 4475TIP3    H113389   2.778   2.286   3.123
 4475TIP3    H213390   2.898   2.333   3.201
 4476TIP3   OH213391   6.994   1.467   0.829
 4476TIP3    H113392   6.988   1.380   0.791
 4476TIP3    H213393   7.059   1.512   0.776
 4477TIP3   OH213394   6.482   5.650   5.091
 4477TIP3    H113395   6.497   5.564   5.131
 4477TIP3    H213396   6.569   5.686   5.078
 4478TIP3   OH213397   6.573   3.992   3.388
 4478TIP3    H113398   6.642   3.931   3.414
 4478TIP3    H213399   6.520   4.004   3.467
 4479TIP3   OH213400   2.770   6.024   2.536
 4479TIP3    H113401   2.735   5.941   2.566
 4479TIP3    H213402   2.760   6.022   2.441
 4480TIP3   OH213403   5.510   0.703   4.685
 4480TIP3    H113404   5.500   0.668   4.774
 4480TIP3    H213405   5.542   0.629   4.633
 4481TIP3   OH213406   0.275   4.191   2.166
 4481TIP3    H113407   0.214   4.257   2.199
 4481TIP3    H213408   0.261   4.193   2.071
 4482TIP3   OH213409   0.084   2.145   4.068
 4482TIP3    H113410  -0.011   2.144   4.082
 4482TIP3    H213411   0.120   2.101   4.145
 4483TIP3   OH213412   2.893   3.688   0.300
 4483TIP3    H113413   2.841   3.683   0.380
 4483TIP3    H213414   2.858   3.617   0.245
 4484TIP3   OH213415   6.906   3.415   0.750
 4484TIP3    H113416   6.850   3.472   0.802
 4484TIP3    H213417   6.903   3.330   0.796
 4485TIP3   OH213418   4.965   1.382   3.873
 4485TIP3    H113419   4.873   1.399   3.851
 4485TIP3    H213420   4.975   1.418   3.961
 4486TIP3   OH213421   6.476   2.498   1.961
 4486TIP3    H113422   6.572   2.506   1.963
 4486TIP3    H213423   6.450   2.542   1.881
 4487TIP3   OH213424   2.212   0.155   1.060
 4487TIP3    H113425   2.299   0.124   1.086
 4487TIP3    H213426   2.228   0.242   1.024
 4488TIP3   OH213427   2.280   4.365   3.841
 4488TIP3    H113428   2.370   4.365   3.810
 4488TIP3    H213429   2.263   4.274   3.863
 4489TIP3   OH213430   3.099   5.539   2.164
 4489TIP3    H113431   3.078   5.523   2.256
 4489TIP3    H213432   3.070   5.628   2.148
 4490TIP3   OH213433   0.603   2.929   1.062
 4490TIP3    H113434   0.543   2.888   1.124
 4490TIP3    H213435   0.680   2.953   1.114
 4491TIP3   OH213436   0.375   5.755   4.398
 4491TIP3    H113437   0.310   5.730   4.464
 4491TIP3    H213438   0.329   5.750   4.315
 4492TIP3   OH213439   1.048   5.975   5.334
 4492TIP3    H113440   0.998   6.049   5.368
 4492TIP3    H213441   1.097   6.010   5.259
 4493TIP3   OH213442   4.726   4.464   4.575
 4493TIP3    H113443   4.745   4.547   4.532
 4493TIP3    H213444   4.650   4.429   4.528
 4494TIP3   OH213445   3.598   4.976   2.898
 4494TIP3    H113446   3.612   4.881   2.903
 4494TIP3    H213447   3.670   5.013   2.949
 4495TIP3   OH213448   5.231   4.999   0.197
 4495TIP3    H113449   5.222   5.055   0.120
 4495TIP3    H213450   5.175   4.924   0.179
 4496TIP3   OH213451   2.893   4.996   1.174
 4496TIP3    H113452   2.864   4.957   1.091
 4496TIP3    H213453   2.842   5.077   1.181
 4497TIP3   OH213454   3.140   4.060   4.332
 4497TIP3    H113455   3.211   4.022   4.280
 4497TIP3    H213456   3.061   4.042   4.281
 4498TIP3   OH213457   0.653   2.672   5.280
 4498TIP3    H113458   0.599   2.750   5.271
 4498TIP3    H213459   0.673   2.646   5.190
 4499TIP3   OH213460  -0.032   1.065   0.283
 4499TIP3    H113461   0.059   1.088   0.302
 4499TIP3    H213462  -0.066   1.032   0.366
 4500TIP3   OH213463   5.215   3.252   3.810
 4500TIP3    H113464   5.200   3.196   3.886
 4500TIP3    H213465   5.201   3.195   3.735
 4501TIP3   OH213466   2.861   5.622   2.993
 4501TIP3    H113467   2.790   5.559   2.981
 4501TIP3    H213468   2.869   5.666   2.909
 4502TIP3   OH213469   3.047   3.667   1.658
 4502TIP3    H113470   3.028   3.747   1.608
 4502TIP3    H213471   2.964   3.646   1.701
 4503TIP3   OH213472   2.606   4.171   5.715
 4503TIP3    H113473   2.695   4.173   5.750
 4503TIP3    H213474   2.569   4.256   5.739
 4504TIP3   OH213475   5.666   5.026   1.928
 4504TIP3    H113476   5.661   4.985   2.014
 4504TIP3    H213477   5.575   5.042   1.903
 4505TIP3   OH213478   1.673   3.201   2.596
 4505TIP3    H113479   1.645   3.268   2.533
 4505TIP3    H213480   1.619   3.217   2.673
 4506TIP3   OH213481   3.153   2.833   1.071
 4506TIP3    H113482   3.204   2.758   1.100
 4506TIP3    H213483   3.217   2.895   1.037
 4507TIP3   OH213484   1.863   2.369   5.693
 4507TIP3    H113485   1.868   2.353   5.788
 4507TIP3    H213486   1.891   2.286   5.654
 4508TIP3   OH213487   3.329   6.437   2.895
 4508TIP3    H113488   3.297   6.415   2.808
 4508TIP3    H213489   3.306   6.529   2.906
 4509TIP3   OH213490   0.600   4.610   5.496
 4509TIP3    H113491   0.598   4.515   5.510
 4509TIP3    H213492   0.618   4.620   5.403
 4510TIP3   OH213493   5.002   6.415   2.473
 4510TIP3    H113494   4.975   6.363   2.397
 4510TIP3    H213495   4.970   6.503   2.454
 4511TIP3   OH213496   1.350   2.823   3.267
 4511TIP3    H113497   1.333   2.903   3.317
 4511TIP3    H213498   1.300   2.834   3.186
 4512TIP3   OH213499   5.013   3.516   4.679
 4512TIP3    H113500   4.929   3.548   4.644
 4512TIP3    H213501   5.002   3.520   4.774
 4513TIP3   OH213502   1.256   3.592   2.960
 4513TIP3    H113503   1.251   3.568   2.868
 4513TIP3    H213504   1.257   3.508   3.007
 4514TIP3   OH213505   6.605   6.734   3.857
 4514TIP3    H113506   6.662   6.734   3.780
 4514TIP3    H213507   6.665   6.728   3.931
 4515TIP3   OH213508   1.173   5.843   5.762
 4515TIP3    H113509   1.122   5.913   5.803
 4515TIP3    H213510   1.198   5.878   5.677
 4516TIP3   OH213511   5.871   3.320   5.290
 4516TIP3    H113512   5.910   3.312   5.376
 4516TIP3    H213513   5.777   3.305   5.304
 4517TIP3   OH213514   2.060   5.935   0.316
 4517TIP3    H113515   2.020   5.939   0.229
 4517TIP3    H213516   2.049   5.843   0.342
 4518TIP3   OH213517   0.323   2.757   2.900
 4518TIP3    H113518   0.251   2.805   2.940
 4518TIP3    H213519   0.305   2.760   2.806
 4519TIP3   OH213520   1.066   5.088   1.852
 4519TIP3    H113521   1.153   5.080   1.891
 4519TIP3    H213522   1.057   5.181   1.832
 4520TIP3   OH213523   3.091   4.142   0.901
 4520TIP3    H113524   3.142   4.091   0.838
 4520TIP3    H213525   3.100   4.093   0.983
 4521TIP3   OH213526   6.224   0.479   0.726
 4521TIP3    H113527   6.187   0.482   0.814
 4521TIP3    H213528   6.210   0.389   0.696
 4522TIP3   OH213529   6.627   6.042   2.864
 4522TIP3    H113530   6.551   6.092   2.893
 4522TIP3    H213531   6.625   5.962   2.916
 4523TIP3   OH213532   2.870   0.717   4.024
 4523TIP3    H113533   2.918   0.675   3.952
 4523TIP3    H213534   2.884   0.811   4.011
 4524TIP3   OH213535   2.937   1.790   4.685
 4524TIP3    H113536   3.014   1.810   4.738
 4524TIP3    H213537   2.905   1.706   4.718
 4525TIP3   OH213538   2.879   0.661   1.691
 4525TIP3    H113539   2.866   0.756   1.691
 4525TIP3    H213540   2.871   0.636   1.783
 4526TIP3   OH213541   1.877   0.162   3.190
 4526TIP3    H113542   1.907   0.252   3.202
 4526TIP3    H213543   1.798   0.171   3.136
 4527TIP3   OH213544   2.109   6.451   5.612
 4527TIP3    H113545   2.031   6.491   5.650
 4527TIP3    H213546   2.126   6.504   5.534
 4528TIP3   OH213547   3.160   0.280   5.083
 4528TIP3    H113548   3.219   0.335   5.134
 4528TIP3    H213549   3.086   0.336   5.062
 4529TIP3   OH213550   1.060   5.219   2.980
 4529TIP3    H113551   1.047   5.189   2.890
 4529TIP3    H213552   1.002   5.295   2.989
 4530TIP3   OH213553   4.555   5.342   2.378
 4530TIP3    H113554   4.548   5.366   2.286
 4530TIP3    H213555   4.502   5.262   2.386
 4531TIP3   OH213556   1.266   2.194   5.002
 4531TIP3    H113557   1.273   2.195   4.907
 4531TIP3    H213558   1.180   2.233   5.021
 4532TIP3   OH213559   0.003   0.717   0.668
 4532TIP3    H113560   0.053   0.732   0.749
 4532TIP3    H213561  -0.058   0.647   0.690
 4533TIP3   OH213562   5.210   0.754   3.681
 4533TIP3    H113563   5.138   0.745   3.618
 4533TIP3    H213564   5.170   0.735   3.765
 4534TIP3   OH213565   0.151   2.103   2.199
 4534TIP3    H113566   0.120   2.158   2.126
 4534TIP3    H213567   0.135   2.156   2.277
 4535TIP3   OH213568   1.580   6.240   3.667
 4535TIP3    H113569   1.520   6.243   3.592
 4535TIP3    H213570   1.549   6.166   3.719
 4536TIP3   OH213571   0.646   1.997   1.528
 4536TIP3    H113572   0.667   1.904   1.540
 4536TIP3    H213573   0.643   2.008   1.433
 4537TIP3   OH213574   5.952   2.730   5.585
 4537TIP3    H113575   5.923   2.811   5.626
 4537TIP3    H213576   5.944   2.747   5.491
 4538TIP3   OH213577   5.485   4.489   0.835
 4538TIP3    H113578   5.509   4.552   0.768
 4538TIP3    H213579   5.532   4.409   0.810
 4539TIP3   OH213580   2.678   4.507   2.639
 4539TIP3    H113581   2.713   4.578   2.693
 4539TIP3    H213582   2.751   4.479   2.584
 4540TIP3   OH213583   6.017   3.581   0.790
 4540TIP3    H113584   6.092   3.569   0.733
 4540TIP3    H213585   5.952   3.519   0.757
 4541TIP3   OH213586   3.232   2.276   3.145
 4541TIP3    H113587   3.214   2.368   3.166
 4541TIP3    H213588   3.267   2.239   3.226
 4542TIP3   OH213589   3.573   6.617   4.367
 4542TIP3    H113590   3.620   6.540   4.334
 4542TIP3    H213591   3.576   6.680   4.295
 4543TIP3   OH213592   4.996   1.689   0.013
 4543TIP3    H113593   5.086   1.694   0.046
 4543TIP3    H213594   4.989   1.600  -0.022
 4544TIP3   OH213595   6.074   1.772   0.284
 4544TIP3    H113596   6.163   1.752   0.254
 4544TIP3    H213597   6.083   1.853   0.334
 4545TIP3   OH213598   6.585   5.094   2.478
 4545TIP3    H113599   6.582   5.002   2.454
 4545TIP3    H213600   6.550   5.140   2.401
 4546TIP3   OH213601   3.163   2.459   3.730
 4546TIP3    H113602   3.142   2.480   3.639
 4546TIP3    H213603   3.249   2.498   3.744
 4547TIP3   OH213604   2.211   2.842   0.929
 4547TIP3    H113605   2.260   2.764   0.957
 4547TIP3    H213606   2.132   2.807   0.889
 4548TIP3   OH213607   6.919   0.451   2.950
 4548TIP3    H113608   6.979   0.524   2.942
 4548TIP3    H213609   6.840   0.489   2.990
 4549TIP3   OH213610   5.121   0.589   1.098
 4549TIP3    H113611   5.167   0.508   1.079
 4549TIP3    H213612   5.155   0.617   1.183
 4550TIP3   OH213613   5.640   3.867   1.690
 4550TIP3    H113614   5.660   3.827   1.774
 4550TIP3    H213615   5.604   3.796   1.637
 4551TIP3   OH213616   2.611   2.608   4.266
 4551TIP3    H113617   2.632   2.559   4.186
 4551TIP3    H213618   2.599   2.541   4.333
 4552TIP3   OH213619   6.606   4.832   2.343
 4552TIP3    H113620   6.602   4.750   2.391
 4552TIP3    H213621   6.590   4.807   2.252
 4553TIP3   OH213622   3.580   4.961   4.224
 4553TIP3    H113623   3.533   5.028   4.174
 4553TIP3    H213624   3.618   4.904   4.156
 4554TIP3   OH213625   7.051   6.340   4.040
 4554TIP3    H113626   7.129   6.306   3.997
 4554TIP3    H213627   7.079   6.424   4.076
 4555TIP3   OH213628   2.272   0.411   0.967
 4555TIP3    H113629   2.304   0.420   0.878
 4555TIP3    H213630   2.270   0.500   1.001
 4556TIP3   OH213631   2.065   6.212   5.723
 4556TIP3    H113632   1.980   6.212   5.679
 4556TIP3    H213633   2.117   6.275   5.672
 4557TIP3   OH213634   2.206   6.477   5.128
 4557TIP3    H113635   2.202   6.425   5.209
 4557TIP3    H213636   2.300   6.486   5.110
 4558TIP3   OH213637   6.725   5.482   0.775
 4558TIP3    H113638   6.815   5.449   0.781
 4558TIP3    H213639   6.715   5.510   0.684
 4559TIP3   OH213640   0.766   0.336   4.816
 4559TIP3    H113641   0.784   0.242   4.814
 4559TIP3    H213642   0.791   0.367   4.728
 4560TIP3   OH213643   1.986   1.331   0.186
 4560TIP3    H113644   1.973   1.420   0.218
 4560TIP3    H213645   1.992   1.277   0.265
 4561TIP3   OH213646   6.935   0.974   5.920
 4561TIP3    H113647   6.933   0.927   6.003
 4561TIP3    H213648   6.865   0.934   5.868
 4562TIP3   OH213649   4.004   5.946   1.399
 4562TIP3    H113650   3.924   5.966   1.351
 4562TIP3    H213651   4.074   5.955   1.335
 4563TIP3   OH213652   3.044   4.462   1.881
 4563TIP3    H113653   2.981   4.436   1.948
 4563TIP3    H213654   2.993   4.517   1.821
 4564TIP3   OH213655   6.278   4.596   3.816
 4564TIP3    H113656   6.256   4.660   3.884
 4564TIP3    H213657   6.370   4.575   3.832
 4565TIP3   OH213658   2.900   2.404   1.180
 4565TIP3    H113659   2.903   2.317   1.220
 4565TIP3    H213660   2.942   2.392   1.094
 4566TIP3   OH213661   2.926   1.497   1.809
 4566TIP3    H113662   2.886   1.580   1.833
 4566TIP3    H213663   2.973   1.469   1.888
 4567TIP3   OH213664   2.024   4.801   3.563
 4567TIP3    H113665   2.005   4.834   3.651
 4567TIP3    H213666   2.083   4.867   3.526
 4568TIP3   OH213667   2.164   4.883   1.560
 4568TIP3    H113668   2.251   4.859   1.592
 4568TIP3    H213669   2.179   4.912   1.469
 4569TIP3   OH213670   5.735   3.417   0.169
 4569TIP3    H113671   5.732   3.503   0.212
 4569TIP3    H213672   5.799   3.367   0.219
 4570TIP3   OH213673   3.188   4.049   2.605
 4570TIP3    H113674   3.171   4.098   2.525
 4570TIP3    H213675   3.124   3.977   2.602
 4571TIP3   OH213676   0.914   1.014   0.678
 4571TIP3    H113677   0.871   1.095   0.649
 4571TIP3    H213678   0.972   1.043   0.749
 4572TIP3   OH213679   6.803   1.390   5.584
 4572TIP3    H113680   6.771   1.322   5.524
 4572TIP3    H213681   6.799   1.349   5.671
 4573TIP3   OH213682   1.713   4.332   4.651
 4573TIP3    H113683   1.795   4.381   4.661
 4573TIP3    H213684   1.672   4.370   4.573
 4574TIP3   OH213685   2.753   6.023   3.955
 4574TIP3    H113686   2.719   6.090   4.015
 4574TIP3    H213687   2.712   5.942   3.986
 4575TIP3   OH213688   5.171   5.037   5.146
 4575TIP3    H113689   5.217   4.996   5.072
 4575TIP3    H213690   5.079   5.036   5.121
 4576TIP3   OH213691   0.058   2.407   0.727
 4576TIP3    H113692  -0.009   2.343   0.704
 4576TIP3    H213693   0.010   2.479   0.769
 4577TIP3   OH213694   4.632   1.530   0.679
 4577TIP3    H113695   4.587   1.470   0.621
 4577TIP3    H213696   4.717   1.545   0.638
 4578TIP3   OH213697   4.293   4.206   0.670
 4578TIP3    H113698   4.371   4.168   0.630
 4578TIP3    H213699   4.273   4.282   0.616
 4579TIP3   OH213700   6.385   2.018   4.744
 4579TIP3    H113701   6.369   1.927   4.722
 4579TIP3    H213702   6.301   2.062   4.729
 4580TIP3   OH213703   6.072   3.000   3.562
 4580TIP3    H113704   6.155   2.967   3.527
 4580TIP3    H213705   6.078   3.095   3.554
 4581TIP3   OH213706   2.451   2.277   4.147
 4581TIP3    H113707   2.368   2.303   4.106
 4581TIP3    H213708   2.492   2.220   4.083
 4582TIP3   OH213709   1.844   1.980   0.882
 4582TIP3    H113710   1.819   2.038   0.953
 4582TIP3    H213711   1.855   1.894   0.924
 4583TIP3   OH213712   3.316   2.288   4.539
 4583TIP3    H113713   3.326   2.316   4.448
 4583TIP3    H213714   3.401   2.251   4.562
 4584TIP3   OH213715   1.507   5.310   5.622
 4584TIP3    H113716   1.568   5.276   5.556
 4584TIP3    H213717   1.484   5.234   5.675
 4585TIP3   OH213718   1.357   2.274   2.264
 4585TIP3    H113719   1.315   2.330   2.330
 4585TIP3    H213720   1.426   2.329   2.227
 4586TIP3   OH213721   2.458   1.578   3.876
 4586TIP3    H113722   2.461   1.511   3.807
 4586TIP3    H213723   2.535   1.560   3.930
 4587TIP3   OH213724   4.631   0.583   5.503
 4587TIP3    H113725   4.631   0.678   5.517
 4587TIP3    H213726   4.679   0.547   5.577
 4588TIP3   OH213727   5.292   1.034   5.563
 4588TIP3    H113728   5.272   0.942   5.546
 4588TIP3    H213729   5.368   1.032   5.622
 4589TIP3   OH213730   0.565   4.243   2.784
 4589TIP3    H113731   0.508   4.301   2.734
 4589TIP3    H213732   0.506   4.198   2.844
 4590TIP3   OH213733   5.530   4.801   1.628
 4590TIP3    H113734   5.605   4.760   1.672
 4590TIP3    H213735   5.489   4.855   1.695
 4591TIP3   OH213736   5.818   0.248   0.099
 4591TIP3    H113737   5.748   0.307   0.071
 4591TIP3    H213738   5.894   0.277   0.049
 4592TIP3   OH213739   5.832   1.004   2.203
 4592TIP3    H113740   5.856   1.095   2.185
 4592TIP3    H213741   5.911   0.964   2.239
 4593TIP3   OH213742   5.888   3.033   5.133
 4593TIP3    H113743   5.843   3.085   5.199
 4593TIP3    H213744   5.839   3.049   5.052
 4594TIP3   OH213745   6.375   2.099   3.723
 4594TIP3    H113746   6.357   2.099   3.629
 4594TIP3    H213747   6.334   2.178   3.756
 4595TIP3   OH213748   6.857   6.788   5.477
 4595TIP3    H113749   6.939   6.801   5.525
 4595TIP3    H213750   6.884   6.778   5.386
 4596TIP3   OH213751   7.039   1.081   4.481
 4596TIP3    H113752   7.073   1.029   4.409
 4596TIP3    H213753   6.999   1.158   4.440
 4597TIP3   OH213754   1.856   1.567   0.518
 4597TIP3    H113755   1.777   1.614   0.493
 4597TIP3    H213756   1.839   1.476   0.495
 4598TIP3   OH213757   3.060   0.576   4.355
 4598TIP3    H113758   2.994   0.536   4.299
 4598TIP3    H213759   3.128   0.509   4.364
 4599TIP3   OH213760   5.836   0.048   5.635
 4599TIP3    H113761   5.778   0.096   5.694
 4599TIP3    H213762   5.800  -0.041   5.634
 4600TIP3   OH213763   1.957   3.895   4.140
 4600TIP3    H113764   1.973   3.810   4.181
 4600TIP3    H213765   1.971   3.880   4.047
 4601TIP3   OH213766   6.479   4.005   5.240
 4601TIP3    H113767   6.463   4.058   5.162
 4601TIP3    H213768   6.573   3.985   5.237
 4602TIP3   OH213769   6.206   6.052   3.761
 4602TIP3    H113770   6.149   6.127   3.745
 4602TIP3    H213771   6.291   6.078   3.726
 4603TIP3   OH213772   6.514   5.677   0.101
 4603TIP3    H113773   6.600   5.718   0.094
 4603TIP3    H213774   6.497   5.641   0.014
 4604TIP3   OH213775   0.511   6.675   3.581
 4604TIP3    H113776   0.594   6.713   3.550
 4604TIP3    H213777   0.520   6.674   3.676
 4605TIP3   OH213778   1.493   0.284   5.346
 4605TIP3    H113779   1.524   0.195   5.329
 4605TIP3    H213780   1.572   0.338   5.343
 4606TIP3   OH213781   0.133   3.410   2.389
 4606TIP3    H113782   0.051   3.407   2.438
 4606TIP3    H213783   0.112   3.459   2.309
 4607TIP3   OH213784   5.391   2.974   5.697
 4607TIP3    H113785   5.484   2.996   5.701
 4607TIP3    H213786   5.365   2.991   5.607
 4608TIP3   OH213787   2.762   6.493   1.255
 4608TIP3    H113788   2.773   6.573   1.305
 4608TIP3    H213789   2.843   6.486   1.204
 4609TIP3   OH213790   4.346   2.299   1.753
 4609TIP3    H113791   4.356   2.393   1.770
 4609TIP3    H213792   4.253   2.282   1.763
 4610TIP3   OH213793   1.938   0.185   0.074
 4610TIP3    H113794   1.894   0.109   0.112
 4610TIP3    H213795   2.027   0.156   0.058
 4611TIP3   OH213796   0.657   1.209   2.966
 4611TIP3    H113797   0.593   1.212   2.894
 4611TIP3    H213798   0.628   1.136   3.021
 4612TIP3   OH213799   3.486   5.804   3.930
 4612TIP3    H113800   3.528   5.770   4.008
 4612TIP3    H213801   3.471   5.897   3.949
 4613TIP3   OH213802   3.680   3.115   1.039
 4613TIP3    H113803   3.632   3.046   0.993
 4613TIP3    H213804   3.634   3.124   1.123
 4614TIP3   OH213805   3.261   2.578   0.059
 4614TIP3    H113806   3.354   2.590   0.041
 4614TIP3    H213807   3.258   2.512   0.128
 4615TIP3   OH213808   4.285   0.162   2.348
 4615TIP3    H113809   4.193   0.187   2.363
 4615TIP3    H213810   4.291   0.074   2.385
 4616TIP3   OH213811   5.943   0.881   3.950
 4616TIP3    H113812   5.989   0.914   4.027
 4616TIP3    H213813   5.995   0.912   3.876
 4617TIP3   OH213814   1.225   5.313   3.455
 4617TIP3    H113815   1.307   5.346   3.418
 4617TIP3    H213816   1.171   5.391   3.467
 4618TIP3   OH213817   0.111   0.431   2.519
 4618TIP3    H113818   0.025   0.435   2.562
 4618TIP3    H213819   0.152   0.515   2.540
 4619TIP3   OH213820   1.889   1.005   3.353
 4619TIP3    H113821   1.927   0.995   3.440
 4619TIP3    H213822   1.878   1.099   3.342
 4620TIP3   OH213823   0.179   0.615   0.479
 4620TIP3    H113824   0.150   0.639   0.567
 4620TIP3    H213825   0.217   0.528   0.489
 4621TIP3   OH213826   6.019   4.161   0.341
 4621TIP3    H113827   6.093   4.127   0.291
 4621TIP3    H213828   6.020   4.255   0.324
 4622TIP3   OH213829   1.263   3.463   5.284
 4622TIP3    H113830   1.343   3.433   5.242
 4622TIP3    H213831   1.219   3.383   5.313
 4623TIP3   OH213832   0.168   3.859   3.339
 4623TIP3    H113833   0.144   3.889   3.252
 4623TIP3    H213834   0.149   3.933   3.397
 4624TIP3   OH213835   2.424   3.255   0.691
 4624TIP3    H113836   2.483   3.182   0.673
 4624TIP3    H213837   2.366   3.223   0.760
 4625TIP3   OH213838   0.090   5.152   4.441
 4625TIP3    H113839   0.080   5.205   4.362
 4625TIP3    H213840   0.088   5.216   4.512
 4626TIP3   OH213841   1.916   4.522   1.009
 4626TIP3    H113842   1.886   4.605   1.047
 4626TIP3    H213843   1.967   4.481   1.079
 4627TIP3   OH213844   6.973   6.295   3.707
 4627TIP3    H113845   6.970   6.381   3.748
 4627TIP3    H213846   6.939   6.235   3.774
 4628TIP3   OH213847   0.224   3.518   5.814
 4628TIP3    H113848   0.253   3.459   5.884
 4628TIP3    H213849   0.291   3.508   5.746
 4629TIP3   OH213850   2.908   2.454   2.882
 4629TIP3    H113851   2.873   2.392   2.945
 4629TIP3    H213852   2.912   2.406   2.800
 4630TIP3   OH213853   5.330   6.159   5.042
 4630TIP3    H113854   5.321   6.132   4.950
 4630TIP3    H213855   5.289   6.245   5.047
 4631TIP3   OH213856   3.528   3.050   0.555
 4631TIP3    H113857   3.470   3.113   0.512
 4631TIP3    H213858   3.601   3.103   0.588
 4632TIP3   OH213859   2.372   3.905   4.137
 4632TIP3    H113860   2.390   3.875   4.048
 4632TIP3    H213861   2.294   3.858   4.163
 4633TIP3   OH213862   0.730   2.848   1.631
 4633TIP3    H113863   0.713   2.803   1.548
 4633TIP3    H213864   0.823   2.832   1.647
 4634TIP3   OH213865   6.335   1.733   0.191
 4634TIP3    H113866   6.410   1.789   0.169
 4634TIP3    H213867   6.375   1.651   0.219
 4635TIP3   OH213868   3.835   0.667   5.460
 4635TIP3    H113869   3.843   0.698   5.370
 4635TIP3    H213870   3.922   0.631   5.479
 4636TIP3   OH213871   5.529   6.051   5.536
 4636TIP3    H113872   5.457   6.041   5.474
 4636TIP3    H213873   5.606   6.025   5.486
 4637TIP3   OH213874   0.072   4.359   0.691
 4637TIP3    H113875   0.038   4.348   0.780
 4637TIP3    H213876   0.161   4.324   0.695
 4638TIP3   OH213877   1.287   0.318   4.601
 4638TIP3    H113878   1.261   0.280   4.517
 4638TIP3    H213879   1.234   0.397   4.609
 4639TIP3   OH213880   2.466   2.669   2.992
 4639TIP3    H113881   2.452   2.763   3.002
 4639TIP3    H213882   2.531   2.662   2.922
 4640TIP3   OH213883   5.418   0.900   3.907
 4640TIP3    H113884   5.372   0.935   3.832
 4640TIP3    H213885   5.357   0.836   3.945
 4641TIP3   OH213886   5.715   6.711   3.275
 4641TIP3    H113887   5.804   6.678   3.262
 4641TIP3    H213888   5.704   6.777   3.207
 4642TIP3   OH213889   1.743   0.918   2.690
 4642TIP3    H113890   1.721   0.996   2.741
 4642TIP3    H213891   1.754   0.849   2.756
 4643TIP3   OH213892   0.128   6.798   3.857
 4643TIP3    H113893   0.040   6.812   3.820
 4643TIP3    H213894   0.147   6.706   3.837
 4644TIP3   OH213895   0.309   0.342   0.150
 4644TIP3    H113896   0.329   0.289   0.073
 4644TIP3    H213897   0.244   0.405   0.120
 4645TIP3   OH213898   5.291   1.691   4.885
 4645TIP3    H113899   5.339   1.774   4.884
 4645TIP3    H213900   5.278   1.670   4.793
 4646TIP3   OH213901   2.748   6.723   1.425
 4646TIP3    H113902   2.795   6.738   1.507
 4646TIP3    H213903   2.694   6.802   1.414
 4647TIP3   OH213904   3.269   6.185   0.939
 4647TIP3    H113905   3.226   6.118   0.887
 4647TIP3    H213906   3.333   6.137   0.991
 4648TIP3   OH213907   0.357   4.051   4.687
 4648TIP3    H113908   0.390   3.978   4.739
 4648TIP3    H213909   0.262   4.039   4.689
 4649TIP3   OH213910   6.599   0.310   3.373
 4649TIP3    H113911   6.518   0.259   3.364
 4649TIP3    H213912   6.614   0.314   3.467
 4650TIP3   OH213913   5.632   5.593   0.815
 4650TIP3    H113914   5.693   5.642   0.870
 4650TIP3    H213915   5.546   5.630   0.836
 4651TIP3   OH213916   3.580   6.029   0.433
 4651TIP3    H113917   3.627   6.036   0.516
 4651TIP3    H213918   3.567   6.120   0.405
 4652TIP3   OH213919   3.890   6.154   2.123
 4652TIP3    H113920   3.970   6.139   2.173
 4652TIP3    H213921   3.824   6.175   2.190
 4653TIP3   OH213922   7.083   5.036   4.763
 4653TIP3    H113923   7.041   4.959   4.801
 4653TIP3    H213924   7.014   5.102   4.760
 4654TIP3   OH213925   1.442   5.866   5.940
 4654TIP3    H113926   1.467   5.810   6.014
 4654TIP3    H213927   1.348   5.880   5.952
 4655TIP3   OH213928   1.398   6.152   3.460
 4655TIP3    H113929   1.343   6.074   3.464
 4655TIP3    H213930   1.453   6.138   3.383
 4656TIP3   OH213931   5.453   3.647   5.552
 4656TIP3    H113932   5.484   3.688   5.472
 4656TIP3    H213933   5.532   3.636   5.605
 4657TIP3   OH213934   0.647   2.601   3.689
 4657TIP3    H113935   0.693   2.602   3.773
 4657TIP3    H213936   0.617   2.510   3.680
 4658TIP3   OH213937   5.338   0.262   0.783
 4658TIP3    H113938   5.363   0.172   0.806
 4658TIP3    H213939   5.273   0.286   0.849
 4659TIP3   OH213940   5.545   1.708   2.553
 4659TIP3    H113941   5.597   1.633   2.582
 4659TIP3    H213942   5.535   1.694   2.459
 4660TIP3   OH213943   3.804   6.595   5.360
 4660TIP3    H113944   3.882   6.631   5.319
 4660TIP3    H213945   3.754   6.671   5.389
 4661TIP3   OH213946   1.795   6.793   3.534
 4661TIP3    H113947   1.776   6.829   3.448
 4661TIP3    H213948   1.823   6.703   3.518
 4662TIP3   OH213949   4.745   5.141   1.658
 4662TIP3    H113950   4.825   5.158   1.707
 4662TIP3    H213951   4.761   5.059   1.612
 4663TIP3   OH213952   2.088   6.167   0.813
 4663TIP3    H113953   2.169   6.140   0.855
 4663TIP3    H213954   2.094   6.131   0.724
 4664TIP3   OH213955   5.634   4.617   2.024
 4664TIP3    H113956   5.593   4.531   2.034
 4664TIP3    H213957   5.570   4.669   1.976
 4665TIP3   OH213958   5.656   2.759   4.153
 4665TIP3    H113959   5.679   2.796   4.238
 4665TIP3    H213960   5.739   2.732   4.115
 4666TIP3   OH213961   5.396   5.078   5.270
 4666TIP3    H113962   5.429   5.154   5.222
 4666TIP3    H213963   5.326   5.043   5.216
 4667TIP3   OH213964   0.771   0.499   0.284
 4667TIP3    H113965   0.689   0.506   0.235
 4667TIP3    H213966   0.766   0.415   0.329
 4668TIP3   OH213967   5.822   0.471   3.669
 4668TIP3    H113968   5.824   0.375   3.661
 4668TIP3    H213969   5.779   0.501   3.589
 4669TIP3   OH213970   3.168   3.037   4.463
 4669TIP3    H113971   3.152   3.096   4.537
 4669TIP3    H213972   3.181   2.951   4.503
 4670TIP3   OH213973   6.343   3.990   0.905
 4670TIP3    H113974   6.270   4.014   0.963
 4670TIP3    H213975   6.313   4.013   0.817
 4671TIP3   OH213976   2.749   2.590   1.679
 4671TIP3    H113977   2.801   2.669   1.666
 4671TIP3    H213978   2.682   2.616   1.742
 4672TIP3   OH213979   0.931   3.599   3.503
 4672TIP3    H113980   0.893   3.654   3.571
 4672TIP3    H213981   0.898   3.511   3.522
 4673TIP3   OH213982   5.511   0.122   3.274
 4673TIP3    H113983   5.596   0.158   3.299
 4673TIP3    H213984   5.520   0.101   3.181
 4674TIP3   OH213985   2.468   3.111   4.593
 4674TIP3    H113986   2.389   3.058   4.584
 4674TIP3    H213987   2.467   3.169   4.516
 4675TIP3   OH213988   6.524   1.932   0.109
 4675TIP3    H113989   6.436   1.960   0.086
 4675TIP3    H213990   6.573   2.013   0.122
 4676TIP3   OH213991   3.413   1.426   1.710
 4676TIP3    H113992   3.407   1.491   1.780
 4676TIP3    H213993   3.329   1.433   1.664
 4677TIP3   OH213994   4.337   2.622   5.005
 4677TIP3    H113995   4.422   2.597   5.040
 4677TIP3    H213996   4.278   2.621   5.080
 4678TIP3   OH213997   1.511   5.692   4.805
 4678TIP3    H113998   1.536   5.759   4.741
 4678TIP3    H213999   1.588   5.635   4.810
 4679TIP3   OH214000   3.807   0.629   0.865
 4679TIP3    H114001   3.776   0.699   0.807
 4679TIP3    H214002   3.897   0.613   0.838
 4680TIP3   OH214003   4.659   6.381   5.628
 4680TIP3    H114004   4.568   6.354   5.645
 4680TIP3    H214005   4.698   6.388   5.715
 4681TIP3   OH214006   4.322   0.511   5.659
 4681TIP3    H114007   4.331   0.422   5.692
 4681TIP3    H214008   4.394   0.560   5.699
 4682TIP3   OH214009   1.807   1.634   3.794
 4682TIP3    H114010   1.727   1.682   3.814
 4682TIP3    H214011   1.826   1.657   3.703
 4683TIP3   OH214012   6.214   6.079   0.843
 4683TIP3    H114013   6.181   5.997   0.808
 4683TIP3    H214014   6.177   6.085   0.931
 4684TIP3   OH214015   6.435   3.223   1.998
 4684TIP3    H114016   6.510   3.221   2.057
 4684TIP3    H214017   6.383   3.146   2.022
 4685TIP3   OH214018   3.094   0.955   0.764
 4685TIP3    H114019   3.066   1.046   0.780
 4685TIP3    H214020   3.163   0.940   0.828
 4686TIP3   OH214021   3.589   5.850   1.796
 4686TIP3    H114022   3.602   5.852   1.891
 4686TIP3    H214023   3.523   5.917   1.779
 4687TIP3   OH214024   5.238   0.681   3.945
 4687TIP3    H114025   5.240   0.704   4.038
 4687TIP3    H214026   5.212   0.589   3.943
 4688TIP3   OH214027   6.894   1.160   2.446
 4688TIP3    H114028   6.861   1.110   2.371
 4688TIP3    H214029   6.983   1.185   2.421
 4689TIP3   OH214030   0.906   1.768   3.024
 4689TIP3    H114031   0.952   1.831   2.969
 4689TIP3    H214032   0.975   1.713   3.061
 4690TIP3   OH214033   5.497   2.137   1.647
 4690TIP3    H114034   5.553   2.061   1.630
 4690TIP3    H214035   5.556   2.212   1.639
 4691TIP3   OH214036   4.125   5.959   4.660
 4691TIP3    H114037   4.147   6.024   4.726
 4691TIP3    H214038   4.190   5.890   4.671
 4692TIP3   OH214039   4.728   1.298   0.052
 4692TIP3    H114040   4.789   1.266  -0.014
 4692TIP3    H214041   4.729   1.232   0.121
 4693TIP3   OH214042   4.439   2.935   5.612
 4693TIP3    H114043   4.377   2.971   5.550
 4693TIP3    H214044   4.486   3.011   5.647
 4694TIP3   OH214045   3.684   2.263   3.246
 4694TIP3    H114046   3.680   2.204   3.322
 4694TIP3    H214047   3.709   2.206   3.173
 4695TIP3   OH214048   3.901   4.025   2.191
 4695TIP3    H114049   3.919   3.934   2.213
 4695TIP3    H214050   3.915   4.073   2.272
 4696TIP3   OH214051   0.900   4.997   1.533
 4696TIP3    H114052   0.861   5.084   1.544
 4696TIP3    H214053   0.991   5.013   1.512
 4697TIP3   OH214054   3.391   3.294   4.018
 4697TIP3    H114055   3.348   3.227   4.071
 4697TIP3    H214056   3.461   3.327   4.074
 4698TIP3   OH214057   1.877   6.189   0.296
 4698TIP3    H114058   1.852   6.116   0.353
 4698TIP3    H214059   1.912   6.147   0.217
 4699TIP3   OH214060   0.802   1.725   5.443
 4699TIP3    H114061   0.819   1.641   5.487
 4699TIP3    H214062   0.769   1.782   5.513
 4700TIP3   OH214063   0.971   5.840   2.081
 4700TIP3    H114064   0.915   5.916   2.096
 4700TIP3    H214065   1.007   5.820   2.167
 4701TIP3   OH214066   5.094   0.762   0.132
 4701TIP3    H114067   5.065   0.705   0.203
 4701TIP3    H214068   5.189   0.766   0.142
 4702TIP3   OH214069   0.783   5.073   4.350
 4702TIP3    H114070   0.867   5.049   4.311
 4702TIP3    H214071   0.782   5.169   4.347
 4703TIP3   OH214072   4.451   5.029   5.190
 4703TIP3    H114073   4.484   5.118   5.196
 4703TIP3    H214074   4.356   5.039   5.183
 4704TIP3   OH214075   5.969   0.257   1.608
 4704TIP3    H114076   6.022   0.266   1.530
 4704TIP3    H214077   5.903   0.191   1.585
 4705TIP3   OH214078   7.021   6.325   2.472
 4705TIP3    H114079   7.064   6.241   2.458
 4705TIP3    H214080   7.014   6.333   2.567
 4706TIP3   OH214081   6.956   3.523   0.147
 4706TIP3    H114082   6.964   3.567   0.062
 4706TIP3    H214083   6.869   3.546   0.178
 4707TIP3   OH214084   2.016   2.956   4.553
 4707TIP3    H114085   2.076   3.025   4.524
 4707TIP3    H214086   2.006   2.971   4.647
 4708TIP3   OH214087   5.648   2.177   3.116
 4708TIP3    H114088   5.687   2.159   3.201
 4708TIP3    H214089   5.572   2.231   3.135
 4709TIP3   OH214090   2.587   5.961   1.963
 4709TIP3    H114091   2.645   5.969   2.040
 4709TIP3    H214092   2.533   6.040   1.965
 4710TIP3   OH214093   5.666   5.424   4.664
 4710TIP3    H114094   5.641   5.332   4.670
 4710TIP3    H214095   5.587   5.472   4.691
 4711TIP3   OH214096   0.644   4.108   5.587
 4711TIP3    H114097   0.715   4.100   5.650
 4711TIP3    H214098   0.583   4.037   5.610
 4712TIP3   OH214099   5.802   0.561   4.740
 4712TIP3    H114100   5.880   0.545   4.687
 4712TIP3    H214101   5.730   0.525   4.688
 4713TIP3   OH214102   0.167   6.265   2.475
 4713TIP3    H114103   0.212   6.205   2.415
 4713TIP3    H214104   0.195   6.352   2.446
 4714TIP3   OH214105   5.864   4.446   2.995
 4714TIP3    H114106   5.909   4.404   3.069
 4714TIP3    H214107   5.777   4.408   2.996
 4715TIP3   OH214108   4.069   4.625   3.427
 4715TIP3    H114109   3.981   4.646   3.398
 4715TIP3    H214110   4.109   4.579   3.353
 4716TIP3   OH214111   0.502   6.322   0.337
 4716TIP3    H114112   0.461   6.336   0.423
 4716TIP3    H214113   0.565   6.393   0.329
 4717TIP3   OH214114   4.231   5.341   5.063
 4717TIP3    H114115   4.208   5.258   5.105
 4717TIP3    H214116   4.212   5.327   4.970
 4718TIP3   OH214117   2.709   6.473   4.022
 4718TIP3    H114118   2.701   6.439   3.933
 4718TIP3    H214119   2.677   6.563   4.015
 4719TIP3   OH214120   1.328   4.907   3.800
 4719TIP3    H114121   1.246   4.872   3.765
 4719TIP3    H214122   1.379   4.829   3.823
 4720TIP3   OH214123   2.673   0.612   2.090
 4720TIP3    H114124   2.750   0.665   2.070
 4720TIP3    H214125   2.691   0.575   2.177
 4721TIP3   OH214126   1.793   6.119   2.538
 4721TIP3    H114127   1.851   6.093   2.609
 4721TIP3    H214128   1.707   6.128   2.579
 4722TIP3   OH214129   6.432   5.915   1.232
 4722TIP3    H114130   6.393   5.843   1.281
 4722TIP3    H214131   6.491   5.873   1.169
 4723TIP3   OH214132   2.302   1.570   3.574
 4723TIP3    H114133   2.240   1.574   3.501
 4723TIP3    H214134   2.253   1.603   3.649
 4724TIP3   OH214135   5.752   3.277   3.611
 4724TIP3    H114136   5.666   3.314   3.635
 4724TIP3    H214137   5.780   3.329   3.535
 4725TIP3   OH214138   0.924   0.762   5.694
 4725TIP3    H114139   0.998   0.810   5.656
 4725TIP3    H214140   0.930   0.675   5.656
 4726TIP3   OH214141   1.655   4.725   1.015
 4726TIP3    H114142   1.594   4.792   1.043
 4726TIP3    H214143   1.735   4.743   1.064
 4727TIP3   OH214144   6.559   6.657   1.692
 4727TIP3    H114145   6.487   6.595   1.692
 4727TIP3    H214146   6.523   6.737   1.730
 4728TIP3   OH214147   4.496   3.415   3.413
 4728TIP3    H114148   4.401   3.416   3.427
 4728TIP3    H214149   4.506   3.418   3.317
 4729TIP3   OH214150   5.809   6.759   1.025
 4729TIP3    H114151   5.715   6.741   1.018
 4729TIP3    H214152   5.820   6.796   1.113
 4730TIP3   OH214153   1.223   4.235   0.519
 4730TIP3    H114154   1.183   4.238   0.432
 4730TIP3    H214155   1.156   4.271   0.577
 4731TIP3   OH214156   0.247   0.603   2.696
 4731TIP3    H114157   0.269   0.566   2.782
 4731TIP3    H214158   0.326   0.590   2.644
 4732TIP3   OH214159   1.929   0.047   1.427
 4732TIP3    H114160   1.969   0.110   1.367
 4732TIP3    H214161   1.955   0.077   1.514
 4733TIP3   OH214162   6.690   6.283   5.331
 4733TIP3    H114163   6.656   6.222   5.266
 4733TIP3    H214164   6.682   6.369   5.290
 4734TIP3   OH214165   6.269   1.686   1.108
 4734TIP3    H114166   6.181   1.668   1.073
 4734TIP3    H214167   6.328   1.644   1.046
 4735TIP3   OH214168   2.272   1.097   5.108
 4735TIP3    H114169   2.209   1.028   5.087
 4735TIP3    H214170   2.302   1.076   5.197
 4736TIP3   OH214171   0.336   0.494   4.774
 4736TIP3    H114172   0.383   0.456   4.700
 4736TIP3    H214173   0.391   0.477   4.850
 4737TIP3   OH214174   5.616   4.374   2.989
 4737TIP3    H114175   5.569   4.447   3.030
 4737TIP3    H214176   5.550   4.305   2.980
 4738TIP3   OH214177   3.174   0.024   3.759
 4738TIP3    H114178   3.190   0.091   3.825
 4738TIP3    H214179   3.219  -0.054   3.793
 4739TIP3   OH214180   5.663   5.394   2.362
 4739TIP3    H114181   5.747   5.440   2.358
 4739TIP3    H214182   5.684   5.306   2.392
 4740TIP3   OH214183   0.481   2.835   3.538
 4740TIP3    H114184   0.407   2.815   3.596
 4740TIP3    H214185   0.553   2.783   3.573
 4741TIP3   OH214186   1.648   6.537   0.044
 4741TIP3    H114187   1.682   6.476   0.109
 4741TIP3    H214188   1.654   6.490  -0.039
 4742TIP3   OH214189   1.660   2.768   5.812
 4742TIP3    H114190   1.715   2.773   5.734
 4742TIP3    H214191   1.655   2.858   5.844
 4743TIP3   OH214192   0.603   2.260   3.450
 4743TIP3    H114193   0.695   2.234   3.456
 4743TIP3    H214194   0.583   2.296   3.536
 4744TIP3   OH214195   3.891   5.148   0.412
 4744TIP3    H114196   3.864   5.119   0.325
 4744TIP3    H214197   3.844   5.230   0.425
 4745TIP3   OH214198   2.999   6.708   3.469
 4745TIP3    H114199   3.027   6.774   3.405
 4745TIP3    H214200   2.905   6.696   3.450
 4746TIP3   OH214201   5.539   3.930   3.209
 4746TIP3    H114202   5.584   4.014   3.219
 4746TIP3    H214203   5.602   3.865   3.242
 4747TIP3   OH214204   0.513   1.596   2.808
 4747TIP3    H114205   0.525   1.639   2.893
 4747TIP3    H214206   0.486   1.667   2.749
 4748TIP3   OH214207   4.275   4.999   0.789
 4748TIP3    H114208   4.204   5.020   0.729
 4748TIP3    H214209   4.325   4.929   0.746
 4749TIP3   OH214210   4.882   5.327   2.214
 4749TIP3    H114211   4.914   5.313   2.124
 4749TIP3    H214212   4.812   5.391   2.205
 4750TIP3   OH214213   6.915   2.182   4.486
 4750TIP3    H114214   6.919   2.102   4.538
 4750TIP3    H214215   6.910   2.152   4.395
 4751TIP3   OH214216   4.518   3.379   5.128
 4751TIP3    H114217   4.451   3.335   5.180
 4751TIP3    H214218   4.577   3.418   5.193
 4752TIP3   OH214219   2.300   2.384   5.438
 4752TIP3    H114220   2.208   2.362   5.452
 4752TIP3    H214221   2.346   2.300   5.447
 4753TIP3   OH214222   5.105   1.864   4.272
 4753TIP3    H114223   5.182   1.808   4.263
 4753TIP3    H214224   5.092   1.873   4.366
 4754TIP3   OH214225   1.877   2.185   5.474
 4754TIP3    H114226   1.821   2.253   5.435
 4754TIP3    H214227   1.923   2.147   5.399
 4755TIP3   OH214228   6.318   5.712   5.824
 4755TIP3    H114229   6.320   5.764   5.904
 4755TIP3    H214230   6.409   5.690   5.807
 4756TIP3   OH214231   3.215   0.618   2.479
 4756TIP3    H114232   3.161   0.609   2.401
 4756TIP3    H214233   3.248   0.530   2.496
 4757TIP3   OH214234   2.790   2.315   1.694
 4757TIP3    H114235   2.774   2.409   1.703
 4757TIP3    H214236   2.745   2.275   1.768
 4758TIP3   OH214237   0.296   2.293   0.067
 4758TIP3    H114238   0.285   2.302   0.162
 4758TIP3    H214239   0.369   2.351   0.046
 4759TIP3   OH214240   2.315   4.001   0.389
 4759TIP3    H114241   2.311   3.908   0.366
 4759TIP3    H214242   2.406   4.015   0.416
 4760TIP3   OH214243   5.790   4.477   1.095
 4760TIP3    H114244   5.799   4.494   1.189
 4760TIP3    H214245   5.751   4.556   1.059
 4761TIP3   OH214246   1.530   5.844   0.022
 4761TIP3    H114247   1.492   5.847  -0.066
 4761TIP3    H214248   1.514   5.755   0.052
 4762TIP3   OH214249   5.990   1.944   3.779
 4762TIP3    H114250   5.940   2.022   3.756
 4762TIP3    H214251   6.075   1.978   3.807
 4763TIP3   OH214252   3.684   3.784   0.491
 4763TIP3    H114253   3.779   3.791   0.482
 4763TIP3    H214254   3.648   3.840   0.422
 4764TIP3   OH214255   6.314   6.375   3.450
 4764TIP3    H114256   6.224   6.346   3.466
 4764TIP3    H214257   6.306   6.438   3.379
 4765TIP3   OH214258   5.982   1.349   4.301
 4765TIP3    H114259   5.940   1.405   4.367
 4765TIP3    H214260   5.944   1.262   4.317
 4766TIP3   OH214261   5.547   5.313   0.792
 4766TIP3    H114262   5.570   5.323   0.884
 4766TIP3    H214263   5.562   5.399   0.754
 4767TIP3   OH214264   2.915   3.022   1.661
 4767TIP3    H114265   2.950   2.933   1.674
 4767TIP3    H214266   2.926   3.064   1.747
 4768TIP3   OH214267   3.737   3.464   1.990
 4768TIP3    H114268   3.815   3.500   2.033
 4768TIP3    H214269   3.720   3.382   2.037
 4769TIP3   OH214270   4.218   3.883   0.649
 4769TIP3    H114271   4.131   3.911   0.680
 4769TIP3    H214272   4.238   3.945   0.578
 4770TIP3   OH214273   0.526   3.978   1.793
 4770TIP3    H114274   0.602   4.007   1.843
 4770TIP3    H214275   0.515   3.886   1.816
 4771TIP3   OH214276   4.637   1.441   5.651
 4771TIP3    H114277   4.627   1.474   5.740
 4771TIP3    H214278   4.727   1.409   5.647
 4772TIP3   OH214279   4.106   6.576   2.544
 4772TIP3    H114280   4.141   6.576   2.633
 4772TIP3    H214281   4.012   6.590   2.554
 4773TIP3   OH214282   3.343   1.172   2.660
 4773TIP3    H114283   3.429   1.192   2.623
 4773TIP3    H214284   3.361   1.160   2.754
 4774TIP3   OH214285   4.960   6.336   1.872
 4774TIP3    H114286   4.889   6.361   1.932
 4774TIP3    H214287   4.944   6.390   1.794
 4775TIP3   OH214288   1.942   4.704   5.614
 4775TIP3    H114289   1.871   4.765   5.634
 4775TIP3    H214290   1.900   4.618   5.613
 4776TIP3   OH214291   4.799   3.479   2.059
 4776TIP3    H114292   4.779   3.385   2.055
 4776TIP3    H214293   4.787   3.510   1.969
 4777TIP3   OH214294   5.115   3.284   5.569
 4777TIP3    H114295   5.180   3.301   5.500
 4777TIP3    H214296   5.057   3.360   5.566
 4778TIP3   OH214297   4.771   2.962   1.625
 4778TIP3    H114298   4.794   2.886   1.679
 4778TIP3    H214299   4.823   2.952   1.546
 4779TIP3   OH214300   5.110   1.349   0.936
 4779TIP3    H114301   5.110   1.433   0.889
 4779TIP3    H214302   5.160   1.366   1.015
 4780TIP3   OH214303   0.351   0.220   2.950
 4780TIP3    H114304   0.391   0.170   2.879
 4780TIP3    H214305   0.278   0.166   2.979
 4781TIP3   OH214306   1.523   5.956   5.574
 4781TIP3    H114307   1.498   5.865   5.559
 4781TIP3    H214308   1.449   5.994   5.622
 4782TIP3   OH214309   5.884   4.403   2.691
 4782TIP3    H114310   5.893   4.357   2.774
 4782TIP3    H214311   5.952   4.471   2.695
 4783TIP3   OH214312   3.274   6.259   2.697
 4783TIP3    H114313   3.331   6.200   2.747
 4783TIP3    H214314   3.195   6.209   2.681
 4784TIP3   OH214315   4.380   1.847   5.472
 4784TIP3    H114316   4.370   1.756   5.443
 4784TIP3    H214317   4.291   1.877   5.489
 4785TIP3   OH214318   2.163   4.167   0.250
 4785TIP3    H114319   2.230   4.113   0.293
 4785TIP3    H214320   2.108   4.198   0.321
 4786TIP3   OH214321   5.784   1.055   0.158
 4786TIP3    H114322   5.793   1.102   0.241
 4786TIP3    H214323   5.807   0.964   0.180
 4787TIP3   OH214324   5.309   4.186   1.719
 4787TIP3    H114325   5.343   4.110   1.766
 4787TIP3    H214326   5.216   4.166   1.704
 4788TIP3   OH214327   5.286   1.918   5.677
 4788TIP3    H114328   5.298   1.896   5.584
 4788TIP3    H214329   5.374   1.944   5.706
 4789TIP3   OH214330   3.679   3.350   0.228
 4789TIP3    H114331   3.753   3.399   0.264
 4789TIP3    H214332   3.603   3.385   0.274
 4790TIP3   OH214333   1.290   0.308   0.239
 4790TIP3    H114334   1.359   0.270   0.294
 4790TIP3    H214335   1.220   0.330   0.300
 4791TIP3   OH214336   6.381   0.110   3.791
 4791TIP3    H114337   6.440   0.054   3.841
 4791TIP3    H214338   6.293   0.077   3.811
 4792TIP3   OH214339   2.154   1.270   1.905
 4792TIP3    H114340   2.224   1.204   1.907
 4792TIP3    H214341   2.167   1.321   1.985
 4793TIP3   OH214342   6.863   3.419   2.316
 4793TIP3    H114343   6.845   3.391   2.405
 4793TIP3    H214344   6.808   3.497   2.303
 4794TIP3   OH214345   0.531   1.862   4.341
 4794TIP3    H114346   0.618   1.889   4.370
 4794TIP3    H214347   0.525   1.893   4.250
 4795TIP3   OH214348   6.161   3.904   5.568
 4795TIP3    H114349   6.202   3.819   5.579
 4795TIP3    H214350   6.086   3.887   5.511
 4796TIP3   OH214351   1.540   6.637   3.186
 4796TIP3    H114352   1.498   6.565   3.233
 4796TIP3    H214353   1.467   6.682   3.142
 4797TIP3   OH214354   4.834   0.325   4.480
 4797TIP3    H114355   4.762   0.271   4.449
 4797TIP3    H214356   4.799   0.371   4.556
 4798TIP3   OH214357   4.837   3.525   0.732
 4798TIP3    H114358   4.868   3.438   0.707
 4798TIP3    H214359   4.910   3.583   0.710
 4799TIP3   OH214360   0.723   3.049   2.808
 4799TIP3    H114361   0.745   3.141   2.817
 4799TIP3    H214362   0.656   3.034   2.874
 4800TIP3   OH214363   2.257   4.590   3.542
 4800TIP3    H114364   2.299   4.664   3.586
 4800TIP3    H214365   2.293   4.513   3.587
 4801TIP3   OH214366   4.824   0.467   5.676
 4801TIP3    H114367   4.899   0.508   5.632
 4801TIP3    H214368   4.837   0.488   5.769
 4802TIP3   OH214369   5.543   4.176   0.032
 4802TIP3    H114370   5.555   4.088   0.067
 4802TIP3    H214371   5.556   4.235   0.106
 4803TIP3   OH214372   6.060   4.521   2.520
 4803TIP3    H114373   6.104   4.437   2.531
 4803TIP3    H214374   5.970   4.498   2.496
 4804TIP3   OH214375   5.881   2.599   4.756
 4804TIP3    H114376   5.904   2.579   4.666
 4804TIP3    H214377   5.964   2.627   4.796
 4805TIP3   OH214378   4.342   4.418   1.763
 4805TIP3    H114379   4.375   4.496   1.717
 4805TIP3    H214380   4.261   4.396   1.717
 4806TIP3   OH214381   5.503   5.281   2.107
 4806TIP3    H114382   5.559   5.358   2.102
 4806TIP3    H214383   5.540   5.227   2.176
 4807TIP3   OH214384   5.077   3.102   4.020
 4807TIP3    H114385   5.112   3.077   4.105
 4807TIP3    H214386   4.983   3.111   4.034
 4808TIP3   OH214387   4.957   3.749   1.994
 4808TIP3    H114388   4.863   3.769   2.000
 4808TIP3    H214389   4.966   3.665   2.039
 4809TIP3   OH214390   6.570   5.637   5.758
 4809TIP3    H114391   6.635   5.673   5.698
 4809TIP3    H214392   6.566   5.543   5.736
 4810TIP3   OH214393   1.871   5.590   0.149
 4810TIP3    H114394   1.937   5.621   0.211
 4810TIP3    H214395   1.790   5.634   0.175
 4811TIP3   OH214396   3.255   2.555   0.823
 4811TIP3    H114397   3.334   2.545   0.771
 4811TIP3    H214398   3.208   2.628   0.783
 4812TIP3   OH214399   7.113   1.836   2.663
 4812TIP3    H114400   7.118   1.766   2.598
 4812TIP3    H214401   7.125   1.916   2.613
 4813TIP3   OH214402   5.483   3.964   2.205
 4813TIP3    H114403   5.416   3.964   2.137
 4813TIP3    H214404   5.474   3.879   2.248
 4814TIP3   OH214405   6.592   4.657   3.213
 4814TIP3    H114406   6.605   4.708   3.293
 4814TIP3    H214407   6.555   4.719   3.150
 4815TIP3   OH214408   2.465   3.481   0.505
 4815TIP3    H114409   2.466   3.408   0.566
 4815TIP3    H214410   2.374   3.509   0.501
 4816TIP3   OH214411   3.431   4.262   1.283
 4816TIP3    H114412   3.479   4.232   1.360
 4816TIP3    H214413   3.339   4.243   1.303
 4817TIP3   OH214414   4.509   1.066   4.088
 4817TIP3    H114415   4.502   1.035   3.998
 4817TIP3    H214416   4.579   1.013   4.127
 4818TIP3   OH214417   4.003   1.089   2.517
 4818TIP3    H114418   3.955   1.029   2.462
 4818TIP3    H214419   3.942   1.161   2.534
 4819TIP3   OH214420   3.389   1.218   5.241
 4819TIP3    H114421   3.324   1.284   5.217
 4819TIP3    H214422   3.338   1.142   5.269
 4820TIP3   OH214423   4.399   6.498   1.820
 4820TIP3    H114424   4.412   6.502   1.726
 4820TIP3    H214425   4.370   6.408   1.837
 4821TIP3   OH214426   6.901   2.467   3.229
 4821TIP3    H114427   6.921   2.503   3.142
 4821TIP3    H214428   6.987   2.447   3.266
 4822TIP3   OH214429   0.081   3.575   3.056
 4822TIP3    H114430   0.161   3.625   3.039
 4822TIP3    H214431   0.035   3.575   2.972
 4823TIP3   OH214432   3.153   1.105   0.313
 4823TIP3    H114433   3.105   1.026   0.340
 4823TIP3    H214434   3.210   1.124   0.387
 4824TIP3   OH214435   2.595   6.733   4.013
 4824TIP3    H114436   2.630   6.821   4.002
 4824TIP3    H214437   2.505   6.746   4.042
 4825TIP3   OH214438   4.752   2.154   1.859
 4825TIP3    H114439   4.684   2.093   1.832
 4825TIP3    H214440   4.752   2.151   1.954
 4826TIP3   OH214441   0.989   3.098   3.552
 4826TIP3    H114442   0.897   3.090   3.578
 4826TIP3    H214443   0.987   3.097   3.457
 4827TIP3   OH214444   6.097   2.066   5.758
 4827TIP3    H114445   6.122   2.008   5.830
 4827TIP3    H214446   6.064   2.145   5.801
 4828TIP3   OH214447   4.444   5.621   3.790
 4828TIP3    H114448   4.494   5.609   3.710
 4828TIP3    H214449   4.509   5.613   3.860
 4829TIP3   OH214450   6.077   2.935   3.837
 4829TIP3    H114451   6.002   2.877   3.848
 4829TIP3    H214452   6.061   2.977   3.752
 4830TIP3   OH214453   1.170   1.917   2.063
 4830TIP3    H114454   1.154   1.880   2.149
 4830TIP3    H214455   1.170   1.841   2.004
 4831TIP3   OH214456   0.251   5.944   4.684
 4831TIP3    H114457   0.298   6.027   4.688
 4831TIP3    H214458   0.191   5.954   4.610
 4832TIP3   OH214459   2.039   5.621   4.119
 4832TIP3    H114460   1.999   5.693   4.167
 4832TIP3    H214461   2.116   5.659   4.077
 4833TIP3   OH214462   6.293   2.019   1.864
 4833TIP3    H114463   6.328   1.967   1.936
 4833TIP3    H214464   6.309   2.110   1.889
 4834TIP3   OH214465   3.309   3.676   0.426
 4834TIP3    H114466   3.324   3.656   0.333
 4834TIP3    H214467   3.217   3.701   0.430
 4835TIP3   OH214468   2.438   6.344   3.278
 4835TIP3    H114469   2.359   6.327   3.330
 4835TIP3    H214470   2.510   6.329   3.339
 4836TIP3   OH214471   1.469   2.675   5.642
 4836TIP3    H114472   1.480   2.704   5.733
 4836TIP3    H214473   1.504   2.586   5.642
 4837TIP3   OH214474   7.083   1.035   4.081
 4837TIP3    H114475   7.120   1.094   4.015
 4837TIP3    H214476   7.015   0.986   4.034
 4838TIP3   OH214477   1.182   0.971   4.734
 4838TIP3    H114478   1.171   0.884   4.697
 4838TIP3    H214479   1.243   0.959   4.807
 4839TIP3   OH214480   6.146   3.150   4.523
 4839TIP3    H114481   6.166   3.208   4.450
 4839TIP3    H214482   6.227   3.147   4.574
 4840TIP3   OH214483   3.915   3.445   0.285
 4840TIP3    H114484   3.927   3.352   0.305
 4840TIP3    H214485   3.934   3.489   0.368
 4841TIP3   OH214486   2.527   1.561   0.419
 4841TIP3    H114487   2.467   1.505   0.369
 4841TIP3    H214488   2.569   1.616   0.353
 4842TIP3   OH214489   6.562   1.717   3.086
 4842TIP3    H114490   6.599   1.805   3.097
 4842TIP3    H214491   6.556   1.706   2.991
 4843TIP3   OH214492   2.590   4.523   4.379
 4843TIP3    H114493   2.609   4.531   4.285
 4843TIP3    H214494   2.575   4.429   4.393
 4844TIP3   OH214495   3.720   3.365   0.695
 4844TIP3    H114496   3.648   3.392   0.638
 4844TIP3    H214497   3.773   3.444   0.707
 4845TIP3   OH214498   6.592   3.954   2.155
 4845TIP3    H114499   6.516   3.899   2.170
 4845TIP3    H214500   6.645   3.905   2.091
 4846TIP3   OH214501   2.759   1.496   2.353
 4846TIP3    H114502   2.751   1.506   2.258
 4846TIP3    H214503   2.698   1.561   2.389
 4847TIP3   OH214504   3.232   3.194   4.242
 4847TIP3    H114505   3.230   3.177   4.336
 4847TIP3    H214506   3.253   3.109   4.203
 4848TIP3   OH214507   4.679   5.341   0.943
 4848TIP3    H114508   4.678   5.317   0.850
 4848TIP3    H214509   4.766   5.378   0.958
 4849TIP3   OH214510   1.373   2.689   5.368
 4849TIP3    H114511   1.436   2.692   5.440
 4849TIP3    H214512   1.381   2.600   5.332
 4850TIP3   OH214513   0.614   0.367   2.360
 4850TIP3    H114514   0.532   0.354   2.313
 4850TIP3    H214515   0.663   0.430   2.308
 4851TIP3   OH214516   6.660   1.741   0.292
 4851TIP3    H114517   6.618   1.791   0.223
 4851TIP3    H214518   6.660   1.800   0.368
 4852TIP3   OH214519   5.529   4.199   0.872
 4852TIP3    H114520   5.484   4.120   0.902
 4852TIP3    H214521   5.538   4.253   0.950
 4853TIP3   OH214522   5.470   1.797   3.952
 4853TIP3    H114523   5.405   1.816   3.885
 4853TIP3    H214524   5.515   1.719   3.921
 4854TIP3   OH214525   6.671   4.573   5.719
 4854TIP3    H114526   6.620   4.529   5.786
 4854TIP3    H214527   6.756   4.590   5.761
 4855TIP3   OH214528   2.809   1.188   3.111
 4855TIP3    H114529   2.814   1.098   3.079
 4855TIP3    H214530   2.758   1.234   3.045
 4856TIP3   OH214531   5.606   0.976   0.448
 4856TIP3    H114532   5.555   0.923   0.510
 4856TIP3    H214533   5.544   1.042   0.417
 4857TIP3   OH214534   3.686   1.880   3.191
 4857TIP3    H114535   3.698   1.918   3.278
 4857TIP3    H214536   3.615   1.931   3.152
 4858TIP3   OH214537   3.110   3.792   4.485
 4858TIP3    H114538   3.073   3.766   4.401
 4858TIP3    H214539   3.204   3.802   4.469
 4859TIP3   OH214540   2.164   0.309   0.347
 4859TIP3    H114541   2.207   0.368   0.285
 4859TIP3    H214542   2.234   0.254   0.382
 4860TIP3   OH214543   2.827   3.454   3.912
 4860TIP3    H114544   2.754   3.468   3.973
 4860TIP3    H214545   2.884   3.392   3.957
 4861TIP3   OH214546   4.041   3.127   4.701
 4861TIP3    H114547   3.964   3.073   4.682
 4861TIP3    H214548   4.025   3.208   4.652
 4862TIP3   OH214549   3.594   6.008   1.392
 4862TIP3    H114550   3.500   6.026   1.396
 4862TIP3    H214551   3.606   5.930   1.447
 4863TIP3   OH214552   0.542   0.096   0.104
 4863TIP3    H114553   0.598   0.153   0.051
 4863TIP3    H214554   0.472   0.069   0.045
 4864TIP3   OH214555   3.375   0.157   2.276
 4864TIP3    H114556   3.305   0.223   2.278
 4864TIP3    H214557   3.407   0.160   2.186
 4865TIP3   OH214558   3.043   3.974   5.263
 4865TIP3    H114559   3.106   3.919   5.217
 4865TIP3    H214560   3.009   4.033   5.195
 4866TIP3   OH214561   0.202   2.939   3.054
 4866TIP3    H114562   0.138   3.009   3.046
 4866TIP3    H214563   0.207   2.921   3.148
 4867TIP3   OH214564   2.450   2.512   1.746
 4867TIP3    H114565   2.416   2.594   1.710
 4867TIP3    H214566   2.521   2.540   1.805
 4868TIP3   OH214567   3.691   3.698   1.846
 4868TIP3    H114568   3.652   3.643   1.913
 4868TIP3    H214569   3.777   3.723   1.882
 4869TIP3   OH214570   4.056   5.049   1.462
 4869TIP3    H114571   4.131   5.021   1.516
 4869TIP3    H214572   3.982   4.998   1.495
 4870TIP3   OH214573   5.585   2.404   5.272
 4870TIP3    H114574   5.680   2.396   5.275
 4870TIP3    H214575   5.567   2.457   5.194
 4871TIP3   OH214576   0.695   1.229   3.830
 4871TIP3    H114577   0.790   1.235   3.824
 4871TIP3    H214578   0.677   1.218   3.923
 4872TIP3   OH214579   1.766   2.223   4.481
 4872TIP3    H114580   1.792   2.309   4.449
 4872TIP3    H214581   1.687   2.239   4.533
 4873TIP3   OH214582   0.247   2.948   2.435
 4873TIP3    H114583   0.257   3.033   2.392
 4873TIP3    H214584   0.324   2.898   2.407
 4874TIP3   OH214585   5.705   5.625   2.578
 4874TIP3    H114586   5.742   5.545   2.614
 4874TIP3    H214587   5.762   5.648   2.505
 4875TIP3   OH214588   6.333   4.825   0.511
 4875TIP3    H114589   6.337   4.769   0.433
 4875TIP3    H214590   6.424   4.841   0.535
 4876TIP3   OH214591   4.334   4.969   1.980
 4876TIP3    H114592   4.259   4.911   1.964
 4876TIP3    H214593   4.406   4.929   1.932
 4877TIP3   OH214594   1.489   5.898   3.641
 4877TIP3    H114595   1.519   5.848   3.717
 4877TIP3    H214596   1.542   5.865   3.568
 4878TIP3   OH214597   1.158   2.062   4.055
 4878TIP3    H114598   1.168   2.152   4.024
 4878TIP3    H214599   1.110   2.070   4.137
 4879TIP3   OH214600   4.199  -0.010   0.044
 4879TIP3    H114601   4.281  -0.034   0.001
 4879TIP3    H214602   4.149  -0.092   0.049
 4880TIP3   OH214603   5.274   1.755  -0.012
 4880TIP3    H114604   5.325   1.834  -0.028
 4880TIP3    H214605   5.338   1.689   0.014
 4881TIP3   OH214606   5.864   0.551   5.201
 4881TIP3    H114607   5.802   0.607   5.154
 4881TIP3    H214608   5.875   0.475   5.143
 4882TIP3   OH214609   7.121   5.518   4.249
 4882TIP3    H114610   7.114   5.586   4.316
 4882TIP3    H214611   7.201   5.471   4.271
 4883TIP3   OH214612   1.959   5.789   3.318
 4883TIP3    H114613   2.014   5.776   3.395
 4883TIP3    H214614   1.965   5.706   3.271
 4884TIP3   OH214615   5.012   2.442   5.040
 4884TIP3    H114616   4.972   2.525   5.013
 4884TIP3    H214617   5.105   2.462   5.048
 4885TIP3   OH214618   4.897   5.467   1.061
 4885TIP3    H114619   4.852   5.472   1.146
 4885TIP3    H214620   4.986   5.438   1.083
 4886TIP3   OH214621   1.031   1.508   2.816
 4886TIP3    H114622   1.073   1.594   2.807
 4886TIP3    H214623   1.093   1.458   2.869
 4887TIP3   OH214624   2.949   5.995   2.319
 4887TIP3    H114625   2.933   5.995   2.413
 4887TIP3    H214626   2.989   6.080   2.301
 4888TIP3   OH214627   1.244   4.899   2.432
 4888TIP3    H114628   1.156   4.882   2.465
 4888TIP3    H214629   1.259   4.992   2.449
 4889TIP3   OH214630   7.110   0.042   1.024
 4889TIP3    H114631   7.068   0.117   1.066
 4889TIP3    H214632   7.158   0.080   0.950
 4890TIP3   OH214633   2.558   1.702   3.360
 4890TIP3    H114634   2.532   1.711   3.268
 4890TIP3    H214635   2.477   1.711   3.409
 4891TIP3   OH214636   4.775   2.802   4.950
 4891TIP3    H114637   4.834   2.858   5.001
 4891TIP3    H214638   4.830   2.729   4.922
 4892TIP3   OH214639   1.710   5.125   5.701
 4892TIP3    H114640   1.776   5.193   5.711
 4892TIP3    H214641   1.639   5.151   5.759
 4893TIP3   OH214642   4.114   6.770   4.019
 4893TIP3    H114643   4.086   6.850   4.062
 4893TIP3    H214644   4.040   6.710   4.029
 4894TIP3   OH214645   4.837   4.274   4.737
 4894TIP3    H114646   4.887   4.214   4.681
 4894TIP3    H214647   4.842   4.358   4.691
 4895TIP3   OH214648   6.632   6.737   0.093
 4895TIP3    H114649   6.606   6.695   0.011
 4895TIP3    H214650   6.630   6.665   0.157
 4896TIP3   OH214651   6.396   0.086   3.531
 4896TIP3    H114652   6.414   0.130   3.614
 4896TIP3    H214653   6.301   0.072   3.531
 4897TIP3   OH214654   6.322   0.019   0.806
 4897TIP3    H114655   6.245  -0.038   0.811
 4897TIP3    H214656   6.303   0.089   0.868
 4898TIP3   OH214657   2.930   3.319   1.744
 4898TIP3    H114658   2.842   3.328   1.781
 4898TIP3    H214659   2.968   3.406   1.753
 4899TIP3   OH214660   6.809   2.560   5.330
 4899TIP3    H114661   6.833   2.560   5.422
 4899TIP3    H214662   6.842   2.644   5.296
 4900TIP3   OH214663   0.824   4.494   4.373
 4900TIP3    H114664   0.898   4.435   4.362
 4900TIP3    H214665   0.847   4.572   4.321
 4901TIP3   OH214666   4.719   4.758   4.529
 4901TIP3    H114667   4.709   4.775   4.622
 4901TIP3    H214668   4.678   4.833   4.486
 4902TIP3   OH214669   1.588   2.867   0.385
 4902TIP3    H114670   1.602   2.942   0.327
 4902TIP3    H214671   1.544   2.904   0.462
 4903TIP3   OH214672   4.133   5.235   0.232
 4903TIP3    H114673   4.074   5.308   0.249
 4903TIP3    H214674   4.221   5.273   0.236
 4904TIP3   OH214675   5.485   4.675   2.807
 4904TIP3    H114676   5.402   4.630   2.820
 4904TIP3    H214677   5.542   4.609   2.768
 4905TIP3   OH214678   3.931   0.765   5.224
 4905TIP3    H114679   4.007   0.706   5.228
 4905TIP3    H214680   3.872   0.723   5.161
 4906TIP3   OH214681   1.348   1.130   4.555
 4906TIP3    H114682   1.318   1.160   4.641
 4906TIP3    H214683   1.285   1.062   4.530
 4907TIP3   OH214684   0.748   4.045   1.269
 4907TIP3    H114685   0.721   3.978   1.205
 4907TIP3    H214686   0.706   4.125   1.238
 4908TIP3   OH214687   2.683   4.653   4.817
 4908TIP3    H114688   2.773   4.675   4.839
 4908TIP3    H214689   2.688   4.610   4.732
 4909TIP3   OH214690   1.819   2.084   1.396
 4909TIP3    H114691   1.747   2.022   1.393
 4909TIP3    H214692   1.874   2.054   1.469
 4910TIP3   OH214693   5.032   1.991   2.114
 4910TIP3    H114694   5.075   1.913   2.149
 4910TIP3    H214695   4.946   1.992   2.154
 4911TIP3   OH214696   0.243   6.080   5.452
 4911TIP3    H114697   0.166   6.130   5.480
 4911TIP3    H214698   0.230   5.993   5.491
 4912TIP3   OH214699   0.361   3.048   1.111
 4912TIP3    H114700   0.377   3.048   1.017
 4912TIP3    H214701   0.306   2.971   1.126
 4913TIP3   OH214702   2.335   6.086   5.112
 4913TIP3    H114703   2.376   6.131   5.039
 4913TIP3    H214704   2.393   6.102   5.186
 4914TIP3   OH214705   1.944   5.704   2.008
 4914TIP3    H114706   1.903   5.625   2.044
 4914TIP3    H214707   1.938   5.768   2.080
 4915TIP3   OH214708   6.811   4.281   3.508
 4915TIP3    H114709   6.723   4.318   3.513
 4915TIP3    H214710   6.866   4.346   3.553
 4916TIP3   OH214711   3.581   6.245   1.552
 4916TIP3    H114712   3.655   6.301   1.576
 4916TIP3    H214713   3.621   6.166   1.516
 4917TIP3   OH214714   1.312   0.845   5.755
 4917TIP3    H114715   1.289   0.908   5.823
 4917TIP3    H214716   1.261   0.873   5.678
 4918TIP3   OH214717   5.500   5.006   1.415
 4918TIP3    H114718   5.587   5.017   1.376
 4918TIP3    H214719   5.504   4.920   1.457
 4919TIP3   OH214720   2.882   5.331   4.925
 4919TIP3    H114721   2.905   5.238   4.925
 4919TIP3    H214722   2.788   5.332   4.906
 4920TIP3   OH214723   2.873   3.018   0.297
 4920TIP3    H114724   2.956   3.066   0.285
 4920TIP3    H214725   2.879   2.983   0.385
 4921TIP3   OH214726   5.971   5.609   4.170
 4921TIP3    H114727   5.964   5.668   4.095
 4921TIP3    H214728   6.038   5.649   4.225
 4922TIP3   OH214729   5.907   3.435   4.745
 4922TIP3    H114730   5.888   3.341   4.737
 4922TIP3    H214731   5.824   3.478   4.722
 4923TIP3   OH214732   3.203   1.030   1.730
 4923TIP3    H114733   3.291   1.009   1.761
 4923TIP3    H214734   3.217   1.088   1.655
 4924TIP3   OH214735   4.888   3.996   4.766
 4924TIP3    H114736   4.876   4.063   4.834
 4924TIP3    H214737   4.974   3.960   4.784
 4925TIP3   OH214738   6.944   6.758   4.713
 4925TIP3    H114739   6.923   6.825   4.647
 4925TIP3    H214740   6.874   6.767   4.778
 4926TIP3   OH214741   6.994   5.537   3.409
 4926TIP3    H114742   7.057   5.607   3.389
 4926TIP3    H214743   7.042   5.476   3.464
 4927TIP3   OH214744   5.649   5.892   3.950
 4927TIP3    H114745   5.580   5.833   3.980
 4927TIP3    H214746   5.604   5.958   3.898
 4928TIP3   OH214747   1.673   4.540   0.766
 4928TIP3    H114748   1.732   4.465   0.773
 4928TIP3    H214749   1.705   4.602   0.831
 4929TIP3   OH214750   3.362   3.018   0.998
 4929TIP3    H114751   3.391   3.002   0.908
 4929TIP3    H214752   3.325   3.106   0.997
 4930TIP3   OH214753   6.197   6.251   2.529
 4930TIP3    H114754   6.238   6.175   2.487
 4930TIP3    H214755   6.237   6.326   2.485
 4931TIP3   OH214756   3.766   2.862   0.873
 4931TIP3    H114757   3.823   2.893   0.943
 4931TIP3    H214758   3.760   2.935   0.812
 4932TIP3   OH214759   1.855   6.038   3.380
 4932TIP3    H114760   1.927   5.993   3.336
 4932TIP3    H214761   1.799   5.968   3.412
 4933TIP3   OH214762   4.739   4.545   0.507
 4933TIP3    H114763   4.750   4.451   0.523
 4933TIP3    H214764   4.644   4.556   0.494
 4934TIP3   OH214765   6.826   2.571   4.290
 4934TIP3    H114766   6.855   2.632   4.221
 4934TIP3    H214767   6.752   2.616   4.331
 4935TIP3   OH214768   6.186   3.773   4.030
 4935TIP3    H114769   6.201   3.823   3.950
 4935TIP3    H214770   6.097   3.738   4.019
 4936TIP3   OH214771   3.533   1.902   4.850
 4936TIP3    H114772   3.627   1.911   4.869
 4936TIP3    H214773   3.525   1.815   4.813
 4937TIP3   OH214774   4.160   0.793   3.373
 4937TIP3    H114775   4.205   0.760   3.294
 4937TIP3    H214776   4.106   0.865   3.341
 4938TIP3   OH214777   5.380   3.058   4.087
 4938TIP3    H114778   5.453   3.051   4.149
 4938TIP3    H214779   5.311   3.102   4.137
 4939TIP3   OH214780   5.049   3.826   4.134
 4939TIP3    H114781   5.060   3.743   4.181
 4939TIP3    H214782   4.983   3.874   4.185
 4940TIP3   OH214783   3.249   6.420   0.464
 4940TIP3    H114784   3.302   6.465   0.529
 4940TIP3    H214785   3.185   6.485   0.435
 4941TIP3   OH214786   3.899   4.341   3.671
 4941TIP3    H114787   3.810   4.354   3.703
 4941TIP3    H214788   3.928   4.260   3.712
 4942TIP3   OH214789   2.301   5.465   3.033
 4942TIP3    H114790   2.350   5.394   2.991
 4942TIP3    H214791   2.214   5.429   3.048
 4943TIP3   OH214792   4.221   3.945   3.576
 4943TIP3    H114793   4.287   3.887   3.539
 4943TIP3    H214794   4.138   3.910   3.544
 4944TIP3   OH214795   2.473   0.293   5.367
 4944TIP3    H114796   2.458   0.240   5.445
 4944TIP3    H214797   2.408   0.262   5.304
 4945TIP3   OH214798   1.949   4.716   4.528
 4945TIP3    H114799   1.897   4.688   4.603
 4945TIP3    H214800   1.984   4.635   4.492
 4946TIP3   OH214801   6.470   1.104   4.382
 4946TIP3    H114802   6.383   1.137   4.405
 4946TIP3    H214803   6.529   1.177   4.400
 4947TIP3   OH214804   5.317   6.623   4.502
 4947TIP3    H114805   5.269   6.705   4.519
 4947TIP3    H214806   5.319   6.616   4.407
 4948TIP3   OH214807   1.714   5.895   2.095
 4948TIP3    H114808   1.640   5.912   2.154
 4948TIP3    H214809   1.684   5.823   2.040
 4949TIP3   OH214810   0.554   3.988   0.411
 4949TIP3    H114811   0.600   4.063   0.374
 4949TIP3    H214812   0.603   3.966   0.491
 4950TIP3   OH214813   1.276   2.528   0.532
 4950TIP3    H114814   1.304   2.620   0.540
 4950TIP3    H214815   1.229   2.511   0.613
 4951TIP3   OH214816   2.497   6.267   1.698
 4951TIP3    H114817   2.483   6.264   1.603
 4951TIP3    H214818   2.563   6.201   1.715
 4952TIP3   OH214819   4.911   3.574   3.549
 4952TIP3    H114820   4.996   3.576   3.594
 4952TIP3    H214821   4.917   3.498   3.491
 4953TIP3   OH214822   5.937   3.973   3.968
 4953TIP3    H114823   5.841   3.970   3.965
 4953TIP3    H214824   5.959   3.942   4.056
 4954TIP3   OH214825   3.611   3.648   3.913
 4954TIP3    H114826   3.566   3.700   3.847
 4954TIP3    H214827   3.590   3.557   3.890
 4955TIP3   OH214828   4.428   4.006   5.587
 4955TIP3    H114829   4.445   3.976   5.676
 4955TIP3    H214830   4.396   3.928   5.542
 4956TIP3   OH214831   5.751   5.360   5.063
 4956TIP3    H114832   5.694   5.407   5.003
 4956TIP3    H214833   5.694   5.299   5.109
 4957TIP3   OH214834   3.886   3.139   5.866
 4957TIP3    H114835   3.926   3.225   5.856
 4957TIP3    H214836   3.810   3.154   5.921
 4958TIP3   OH214837   1.837   0.928   5.211
 4958TIP3    H114838   1.908   0.925   5.148
 4958TIP3    H214839   1.859   0.861   5.276
 4959TIP3   OH214840   3.543   4.661   5.619
 4959TIP3    H114841   3.503   4.595   5.675
 4959TIP3    H214842   3.621   4.618   5.583
 4960TIP3   OH214843   6.608   1.075   1.296
 4960TIP3    H114844   6.699   1.070   1.323
 4960TIP3    H214845   6.600   1.015   1.222
 4961TIP3   OH214846   4.755   5.787   3.274
 4961TIP3    H114847   4.801   5.835   3.342
 4961TIP3    H214848   4.739   5.852   3.205
 4962TIP3   OH214849   5.821   5.089   5.003
 4962TIP3    H114850   5.740   5.131   4.975
 4962TIP3    H214851   5.811   4.997   4.978
 4963TIP3   OH214852   2.861   1.466   0.698
 4963TIP3    H114853   2.840   1.387   0.648
 4963TIP3    H214854   2.800   1.532   0.666
 4964TIP3   OH214855   3.792   4.511   0.253
 4964TIP3    H114856   3.841   4.590   0.274
 4964TIP3    H214857   3.786   4.464   0.336
 4965TIP3   OH214858   0.759   3.061   4.831
 4965TIP3    H114859   0.841   3.107   4.850
 4965TIP3    H214860   0.757   2.989   4.893
 4966TIP3   OH214861   5.562   3.528   4.949
 4966TIP3    H114862   5.633   3.563   5.002
 4966TIP3    H214863   5.502   3.489   5.012
 4967TIP3   OH214864   4.135   4.264   1.674
 4967TIP3    H114865   4.044   4.295   1.667
 4967TIP3    H214866   4.151   4.257   1.768
 4968TIP3   OH214867   5.074   1.211   4.284
 4968TIP3    H114868   5.154   1.193   4.333
 4968TIP3    H214869   5.084   1.162   4.202
 4969TIP3   OH214870   3.837   5.421   1.440
 4969TIP3    H114871   3.809   5.347   1.385
 4969TIP3    H214872   3.849   5.383   1.527
 4970TIP3   OH214873   0.628   3.529   1.164
 4970TIP3    H114874   0.564   3.472   1.121
 4970TIP3    H214875   0.588   3.551   1.248
 4971TIP3   OH214876   0.891   5.337   0.197
 4971TIP3    H114877   0.876   5.251   0.158
 4971TIP3    H214878   0.967   5.372   0.150
 4972TIP3   OH214879   2.770   2.525   4.804
 4972TIP3    H114880   2.842   2.463   4.810
 4972TIP3    H214881   2.775   2.560   4.715
 4973TIP3   OH214882   0.890   5.692   4.549
 4973TIP3    H114883   0.821   5.732   4.497
 4973TIP3    H214884   0.963   5.681   4.488
 4974TIP3   OH214885   2.345   3.728   0.389
 4974TIP3    H114886   2.427   3.680   0.404
 4974TIP3    H214887   2.276   3.665   0.410
 4975TIP3   OH214888   6.516   6.168   4.587
 4975TIP3    H114889   6.478   6.082   4.607
 4975TIP3    H214890   6.606   6.149   4.560
 4976TIP3   OH214891   5.686   3.652   3.457
 4976TIP3    H114892   5.593   3.635   3.470
 4976TIP3    H214893   5.701   3.737   3.497
 4977TIP3   OH214894   3.597   1.184   2.572
 4977TIP3    H114895   3.682   1.228   2.576
 4977TIP3    H214896   3.593   1.148   2.484
 4978TIP3   OH214897   5.830   5.730   5.855
 4978TIP3    H114898   5.811   5.707   5.764
 4978TIP3    H214899   5.860   5.821   5.850
 4979TIP3   OH214900   0.753   3.661   5.808
 4979TIP3    H114901   0.802   3.691   5.731
 4979TIP3    H214902   0.713   3.578   5.780
 4980TIP3   OH214903   6.128   1.049   1.169
 4980TIP3    H114904   6.208   0.999   1.188
 4980TIP3    H214905   6.101   1.019   1.082
 4981TIP3   OH214906   3.128   2.664   5.625
 4981TIP3    H114907   3.129   2.580   5.671
 4981TIP3    H214908   3.066   2.650   5.553
 4982TIP3   OH214909   4.975   2.105   1.049
 4982TIP3    H114910   5.050   2.146   1.006
 4982TIP3    H214911   5.014   2.049   1.116
 4983TIP3   OH214912   4.884   5.511   4.224
 4983TIP3    H114913   4.831   5.562   4.285
 4983TIP3    H214914   4.865   5.420   4.246
 4984TIP3   OH214915   6.473   1.996   4.028
 4984TIP3    H114916   6.479   1.968   4.119
 4984TIP3    H214917   6.559   1.979   3.991
 4985TIP3   OH214918   5.971   6.012   1.491
 4985TIP3    H114919   6.061   5.980   1.496
 4985TIP3    H214920   5.925   5.965   1.560
 4986TIP3   OH214921   4.401   1.133   0.072
 4986TIP3    H114922   4.358   1.052   0.097
 4986TIP3    H214923   4.362   1.200   0.127
 4987TIP3   OH214924   3.260   3.286   0.951
 4987TIP3    H114925   3.344   3.314   0.914
 4987TIP3    H214926   3.235   3.356   1.010
 4988TIP3   OH214927   6.888   2.439   1.711
 4988TIP3    H114928   6.809   2.390   1.731
 4988TIP3    H214929   6.876   2.524   1.755
 4989TIP3   OH214930   0.928   6.721  -0.020
 4989TIP3    H114931   0.863   6.738   0.048
 4989TIP3    H214932   0.988   6.657   0.018
 4990TIP3   OH214933   4.772   0.375   2.252
 4990TIP3    H114934   4.768   0.427   2.172
 4990TIP3    H214935   4.828   0.425   2.311
 4991TIP3   OH214936   2.995   4.621   5.695
 4991TIP3    H114937   2.974   4.542   5.646
 4991TIP3    H214938   3.036   4.679   5.630
 4992TIP3   OH214939   4.775   2.101   4.849
 4992TIP3    H114940   4.705   2.037   4.835
 4992TIP3    H214941   4.761   2.167   4.781
 4993TIP3   OH214942   1.460   3.778   2.862
 4993TIP3    H114943   1.416   3.848   2.812
 4993TIP3    H214944   1.388   3.720   2.888
 4994TIP3   OH214945   3.652   0.834   0.081
 4994TIP3    H114946   3.676   0.751   0.039
 4994TIP3    H214947   3.577   0.865   0.031
 4995TIP3   OH214948   2.727   5.263   0.038
 4995TIP3    H114949   2.700   5.355   0.041
 4995TIP3    H214950   2.671   5.221   0.103
 4996TIP3   OH214951   4.390   2.044   1.901
 4996TIP3    H114952   4.388   2.127   1.854
 4996TIP3    H214953   4.372   1.978   1.834
 4997TIP3   OH214954   3.012   5.270   3.788
 4997TIP3    H114955   3.102   5.259   3.817
 4997TIP3    H214956   2.959   5.227   3.855
 4998TIP3   OH214957   0.257   1.292   0.541
 4998TIP3    H114958   0.206   1.292   0.622
 4998TIP3    H214959   0.241   1.206   0.503
 4999TIP3   OH214960   3.598   2.208   5.011
 4999TIP3    H114961   3.665   2.164   4.960
 4999TIP3    H214962   3.545   2.255   4.946
 5000TIP3   OH214963   5.791   5.153   0.272
 5000TIP3    H114964   5.811   5.067   0.234
 5000TIP3    H214965   5.844   5.156   0.351
 5001TIP3   OH214966   2.023   3.773   1.778
 5001TIP3    H114967   2.085   3.804   1.844
 5001TIP3    H214968   2.003   3.683   1.804
 5002TIP3   OH214969   1.857   6.708   5.195
 5002TIP3    H114970   1.826   6.618   5.207
 5002TIP3    H214971   1.783   6.762   5.222
 5003TIP3   OH214972   2.589   5.010   2.624
 5003TIP3    H114973   2.579   4.931   2.571
 5003TIP3    H214974   2.501   5.046   2.632
 5004TIP3   OH214975   2.432   4.776   4.404
 5004TIP3    H114976   2.503   4.714   4.393
 5004TIP3    H214977   2.440   4.806   4.495
 5005TIP3   OH214978   6.822   1.193   1.030
 5005TIP3    H114979   6.882   1.242   1.087
 5005TIP3    H214980   6.878   1.153   0.964
 5006TIP3   OH214981   2.335   6.768   1.330
 5006TIP3    H114982   2.341   6.680   1.368
 5006TIP3    H214983   2.398   6.768   1.258
 5007TIP3   OH214984   3.063   0.907   1.380
 5007TIP3    H114985   3.077   1.001   1.376
 5007TIP3    H214986   3.079   0.876   1.291
 5008TIP3   OH214987   2.517   4.499   5.226
 5008TIP3    H114988   2.509   4.538   5.139
 5008TIP3    H214989   2.575   4.424   5.214
 5009TIP3   OH214990   4.142   5.081   2.903
 5009TIP3    H114991   4.170   5.038   2.822
 5009TIP3    H214992   4.179   5.169   2.896
 5010TIP3   OH214993   4.625   5.703   0.322
 5010TIP3    H114994   4.602   5.636   0.258
 5010TIP3    H214995   4.595   5.785   0.283
 5011TIP3   OH214996   1.908   4.711   2.684
 5011TIP3    H114997   1.854   4.779   2.724
 5011TIP3    H214998   1.998   4.745   2.691
 5012TIP3   OH214999   5.456   1.206   2.001
 5012TIP3    H115000   5.377   1.221   2.052
 5012TIP3    H215001   5.515   1.278   2.024
 5013TIP3   OH215002   0.955   2.434   3.418
 5013TIP3    H115003   0.938   2.358   3.473
 5013TIP3    H215004   0.942   2.402   3.329
 5014TIP3   OH215005   3.043   5.060   5.342
 5014TIP3    H115006   2.963   5.063   5.289
 5014TIP3    H215007   3.017   5.096   5.427
 5015TIP3   OH215008   1.720   2.636   0.458
 5015TIP3    H115009   1.675   2.573   0.402
 5015TIP3    H215010   1.660   2.710   0.463
 5016TIP3   OH215011   4.896   1.206   0.487
 5016TIP3    H115012   4.974   1.238   0.442
 5016TIP3    H215013   4.890   1.114   0.461
 5017TIP3   OH215014   1.361   3.844   3.413
 5017TIP3    H115015   1.374   3.785   3.339
 5017TIP3    H215016   1.270   3.873   3.405
 5018TIP3   OH215017   4.246   3.843   1.956
 5018TIP3    H115018   4.153   3.820   1.962
 5018TIP3    H215019   4.292   3.762   1.976
 5019TIP3   OH215020   3.475   0.160   1.143
 5019TIP3    H115021   3.412   0.153   1.215
 5019TIP3    H215022   3.558   0.180   1.185
 5020TIP3   OH215023   5.830   3.346   0.983
 5020TIP3    H115024   5.837   3.351   0.888
 5020TIP3    H215025   5.766   3.414   1.006
 5021TIP3   OH215026   1.761   4.536   5.298
 5021TIP3    H115027   1.814   4.562   5.223
 5021TIP3    H215028   1.800   4.453   5.327
 5022TIP3   OH215029   4.908   3.863   0.173
 5022TIP3    H115030   4.939   3.873   0.263
 5022TIP3    H215031   4.815   3.882   0.178
 5023TIP3   OH215032   4.075   4.221   1.957
 5023TIP3    H115033   3.982   4.231   1.977
 5023TIP3    H215034   4.094   4.129   1.976
 5024TIP3   OH215035   3.600   2.399   2.982
 5024TIP3    H115036   3.621   2.391   3.075
 5024TIP3    H215037   3.540   2.327   2.965
 5025TIP3   OH215038   5.559   0.206   0.242
 5025TIP3    H115039   5.648   0.238   0.223
 5025TIP3    H215040   5.558   0.117   0.207
 5026TIP3   OH215041   4.052   5.400   4.068
 5026TIP3    H115042   4.084   5.484   4.036
 5026TIP3    H215043   4.027   5.417   4.159
 5027TIP3   OH215044   3.759   6.787   3.348
 5027TIP3    H115045   3.726   6.770   3.436
 5027TIP3    H215046   3.681   6.799   3.295
 5028TIP3   OH215047   2.509   0.312   3.668
 5028TIP3    H115048   2.539   0.223   3.649
 5028TIP3    H215049   2.546   0.332   3.754
 5029TIP3   OH215050   0.868   3.419   1.147
 5029TIP3    H115051   0.911   3.505   1.148
 5029TIP3    H215052   0.775   3.438   1.140
 5030TIP3   OH215053   7.097   4.533   2.705
 5030TIP3    H115054   7.164   4.549   2.771
 5030TIP3    H215055   7.130   4.577   2.627
 5031TIP3   OH215056   2.157   4.431   4.962
 5031TIP3    H115057   2.211   4.381   5.023
 5031TIP3    H215058   2.100   4.366   4.921
 5032TIP3   OH215059   3.072   4.429   4.207
 5032TIP3    H115060   3.021   4.508   4.193
 5032TIP3    H215061   3.105   4.437   4.297
 5033TIP3   OH215062   2.271   6.613   3.290
 5033TIP3    H115063   2.190   6.564   3.279
 5033TIP3    H215064   2.247   6.690   3.342
 5034TIP3   OH215065   3.992   1.213   4.513
 5034TIP3    H115066   4.011   1.245   4.425
 5034TIP3    H215067   3.897   1.217   4.521
 5035TIP3   OH215068   4.465   3.139   2.424
 5035TIP3    H115069   4.450   3.165   2.515
 5035TIP3    H215070   4.414   3.202   2.372
 5036TIP3   OH215071   1.206   0.980   3.800
 5036TIP3    H115072   1.232   1.049   3.739
 5036TIP3    H215073   1.276   0.978   3.865
 5037TIP3   OH215074   4.792   1.678   1.191
 5037TIP3    H115075   4.815   1.710   1.279
 5037TIP3    H215076   4.814   1.585   1.193
 5038TIP3   OH215077   3.963   1.601   2.059
 5038TIP3    H115078   3.921   1.680   2.094
 5038TIP3    H215079   3.920   1.587   1.974
 5039TIP3   OH215080   2.103   1.632   1.162
 5039TIP3    H115081   2.057   1.560   1.205
 5039TIP3    H215082   2.179   1.649   1.218
 5040TIP3   OH215083   6.033   0.981   5.146
 5040TIP3    H115084   6.090   1.046   5.187
 5040TIP3    H215085   5.946   1.021   5.148
 5041TIP3   OH215086   3.586   3.142   0.077
 5041TIP3    H115087   3.640   3.200   0.130
 5041TIP3    H215088   3.498   3.179   0.082
 5042TIP3   OH215089   1.101   5.295   5.383
 5042TIP3    H115090   1.022   5.349   5.374
 5042TIP3    H215091   1.074   5.221   5.436
 5043TIP3   OH215092   1.902   1.997   5.699
 5043TIP3    H115093   1.912   1.904   5.720
 5043TIP3    H215094   1.985   2.021   5.657
 5044TIP3   OH215095   4.387   4.680   1.636
 5044TIP3    H115096   4.392   4.772   1.661
 5044TIP3    H215097   4.458   4.667   1.574
 5045TIP3   OH215098   1.880   4.667   0.608
 5045TIP3    H115099   1.896   4.728   0.681
 5045TIP3    H215100   1.796   4.626   0.630
 5046TIP3   OH215101   4.069   5.990   2.616
 5046TIP3    H115102   4.091   5.937   2.539
 5046TIP3    H215103   4.064   5.928   2.688
 5047TIP3   OH215104   6.050   0.438   0.299
 5047TIP3    H115105   5.986   0.500   0.333
 5047TIP3    H215106   6.132   0.462   0.342
 5048TIP3   OH215107   4.888   6.122   1.218
 5048TIP3    H115108   4.982   6.140   1.207
 5048TIP3    H215109   4.850   6.207   1.240
 5049TIP3   OH215110   1.186   5.829   1.624
 5049TIP3    H115111   1.215   5.911   1.665
 5049TIP3    H215112   1.180   5.767   1.696
 5050TIP3   OH215113   4.305   2.172   5.692
 5050TIP3    H115114   4.290   2.115   5.767
 5050TIP3    H215115   4.218   2.208   5.671
 5051TIP3   OH215116   6.532   3.273   1.057
 5051TIP3    H115117   6.575   3.192   1.085
 5051TIP3    H215118   6.563   3.287   0.967
 5052TIP3   OH215119   6.753   2.078   4.978
 5052TIP3    H115120   6.684   2.070   4.913
 5052TIP3    H215121   6.790   2.165   4.963
 5053TIP3   OH215122   4.979   5.248   5.570
 5053TIP3    H115123   5.066   5.250   5.608
 5053TIP3    H215124   4.936   5.327   5.602
 5054TIP3   OH215125   5.499   0.074   5.534
 5054TIP3    H115126   5.477   0.095   5.624
 5054TIP3    H215127   5.477  -0.019   5.525
 5055TIP3   OH215128   0.052   2.674   4.190
 5055TIP3    H115129   0.099   2.686   4.108
 5055TIP3    H215130   0.070   2.583   4.215
 5056TIP3   OH215131   7.020   4.578   5.094
 5056TIP3    H115132   7.096   4.635   5.086
 5056TIP3    H215133   7.013   4.535   5.009
 5057TIP3   OH215134   4.652   2.527   1.605
 5057TIP3    H115135   4.712   2.573   1.546
 5057TIP3    H215136   4.704   2.513   1.685
 5058TIP3   OH215137   0.573   4.399   0.263
 5058TIP3    H115138   0.655   4.443   0.287
 5058TIP3    H215139   0.593   4.354   0.181
 5059TIP3   OH215140   3.585   5.709   0.355
 5059TIP3    H115141   3.540   5.636   0.398
 5059TIP3    H215142   3.634   5.668   0.284
 5060TIP3   OH215143   5.579   5.887   4.942
 5060TIP3    H115144   5.615   5.973   4.961
 5060TIP3    H215145   5.493   5.887   4.985
 5061TIP3   OH215146   5.212   5.368   1.586
 5061TIP3    H115147   5.290   5.418   1.607
 5061TIP3    H215148   5.243   5.278   1.576
 5062TIP3   OH215149   7.201   4.238   0.454
 5062TIP3    H115150   7.229   4.297   0.384
 5062TIP3    H215151   7.239   4.275   0.534
 5063TIP3   OH215152   4.350   5.803   4.434
 5063TIP3    H115153   4.412   5.799   4.507
 5063TIP3    H215154   4.393   5.860   4.369
 5064TIP3   OH215155   1.742   1.026   4.024
 5064TIP3    H115156   1.819   1.070   3.987
 5064TIP3    H215157   1.741   1.052   4.116
 5065TIP3   OH215158   5.852   1.046   4.372
 5065TIP3    H115159   5.940   1.034   4.336
 5065TIP3    H215160   5.794   1.023   4.299
 5066TIP3   OH215161   2.378   0.305   1.799
 5066TIP3    H115162   2.385   0.298   1.894
 5066TIP3    H215163   2.449   0.251   1.765
 5067TIP3   OH215164   0.598   5.769   3.330
 5067TIP3    H115165   0.523   5.800   3.381
 5067TIP3    H215166   0.575   5.680   3.305
 5068TIP3   OH215167   2.007   3.701   1.178
 5068TIP3    H115168   2.084   3.742   1.218
 5068TIP3    H215169   1.945   3.692   1.251
 5069TIP3   OH215170   1.372   6.357   5.202
 5069TIP3    H115171   1.368   6.393   5.291
 5069TIP3    H215172   1.465   6.340   5.187
 5070TIP3   OH215173   1.858   4.461   4.919
 5070TIP3    H115174   1.811   4.527   4.869
 5070TIP3    H215175   1.898   4.404   4.853
 5071TIP3   OH215176   2.022   3.658   4.657
 5071TIP3    H115177   2.117   3.647   4.667
 5071TIP3    H215178   2.000   3.730   4.715
 5072TIP3   OH215179   1.162   1.612   1.450
 5072TIP3    H115180   1.158   1.566   1.366
 5072TIP3    H215181   1.075   1.599   1.488
 5073TIP3   OH215182   0.118   0.082   2.979
 5073TIP3    H115183   0.034   0.124   2.998
 5073TIP3    H215184   0.102   0.031   2.900
 5074TIP3   OH215185   5.733   4.704   5.299
 5074TIP3    H115186   5.750   4.627   5.245
 5074TIP3    H215187   5.784   4.689   5.379
 5075TIP3   OH215188   0.948   3.872   5.320
 5075TIP3    H115189   0.871   3.929   5.316
 5075TIP3    H215190   0.930   3.803   5.257
 5076TIP3   OH215191   4.587   4.668   4.251
 5076TIP3    H115192   4.671   4.640   4.288
 5076TIP3    H215193   4.537   4.701   4.325
 5077TIP3   OH215194   2.069   4.109   3.463
 5077TIP3    H115195   2.154   4.149   3.445
 5077TIP3    H215196   2.037   4.081   3.377
 5078TIP3   OH215197   5.034   6.545   0.566
 5078TIP3    H115198   4.965   6.599   0.605
 5078TIP3    H215199   5.050   6.477   0.631
 5079TIP3   OH215200   0.666   2.200   1.794
 5079TIP3    H115201   0.738   2.150   1.755
 5079TIP3    H215202   0.707   2.256   1.859
 5080TIP3   OH215203   3.491   4.662   0.594
 5080TIP3    H115204   3.488   4.566   0.588
 5080TIP3    H215205   3.490   4.691   0.503
 5081TIP3   OH215206   5.467   6.234   2.231
 5081TIP3    H115207   5.419   6.292   2.290
 5081TIP3    H215208   5.556   6.230   2.268
 5082TIP3   OH215209   1.004   2.307   5.018
 5082TIP3    H115210   0.956   2.297   4.935
 5082TIP3    H215211   1.002   2.401   5.035
 5083TIP3   OH215212   5.365   2.872   0.305
 5083TIP3    H115213   5.439   2.913   0.350
 5083TIP3    H215214   5.287   2.915   0.342
 5084TIP3   OH215215   3.189   5.853   2.288
 5084TIP3    H115216   3.260   5.909   2.256
 5084TIP3    H215217   3.111   5.909   2.286
 5085TIP3   OH215218   6.316   3.942   3.844
 5085TIP3    H115219   6.301   3.977   3.756
 5085TIP3    H215220   6.338   4.019   3.896
 5086TIP3   OH215221   2.323   6.031   3.414
 5086TIP3    H115222   2.309   5.998   3.326
 5086TIP3    H215223   2.407   5.995   3.440
 5087TIP3   OH215224   6.502   2.678   5.935
 5087TIP3    H115225   6.415   2.717   5.926
 5087TIP3    H215226   6.485   2.584   5.942
 5088TIP3   OH215227   7.106   6.416   0.596
 5088TIP3    H115228   7.063   6.337   0.563
 5088TIP3    H215229   7.158   6.447   0.522
 5089TIP3   OH215230   1.399   4.618   3.145
 5089TIP3    H115231   1.402   4.532   3.188
 5089TIP3    H215232   1.341   4.606   3.070
 5090TIP3   OH215233   5.736   2.127   2.862
 5090TIP3    H115234   5.692   2.125   2.947
 5090TIP3    H215235   5.705   2.208   2.821
 5091TIP3   OH215236   2.446   5.177   4.564
 5091TIP3    H115237   2.363   5.224   4.571
 5091TIP3    H215238   2.449   5.148   4.473
 5092TIP3   OH215239   0.699   3.596   0.632
 5092TIP3    H115240   0.772   3.614   0.692
 5092TIP3    H215241   0.708   3.503   0.611
 5093TIP3   OH215242   3.338   3.693   3.015
 5093TIP3    H115243   3.285   3.712   2.938
 5093TIP3    H215244   3.428   3.702   2.985
 5094TIP3   OH215245   6.741   2.556   2.006
 5094TIP3    H115246   6.817   2.600   1.968
 5094TIP3    H215247   6.773   2.518   2.088
 5095TIP3   OH215248   6.480   4.306   4.825
 5095TIP3    H115249   6.550   4.333   4.766
 5095TIP3    H215250   6.399   4.333   4.781
 5096TIP3   OH215251   1.625   0.761   2.043
 5096TIP3    H115252   1.546   0.716   2.074
 5096TIP3    H215253   1.650   0.713   1.964
 5097TIP3   OH215254   5.918   2.114   5.542
 5097TIP3    H115255   5.941   2.154   5.458
 5097TIP3    H215256   5.994   2.131   5.597
 5098TIP3   OH215257   7.150   5.284   3.202
 5098TIP3    H115258   7.155   5.251   3.112
 5098TIP3    H215259   7.108   5.370   3.194
 5099TIP3   OH215260   6.535   2.441   4.758
 5099TIP3    H115261   6.623   2.407   4.742
 5099TIP3    H215262   6.497   2.381   4.822
 5100TIP3   OH215263   2.890   1.475   2.868
 5100TIP3    H115264   2.857   1.556   2.829
 5100TIP3    H215265   2.889   1.492   2.962
 5101TIP3   OH215266   1.293   5.827   2.385
 5101TIP3    H115267   1.368   5.767   2.379
 5101TIP3    H215268   1.263   5.838   2.295
 5102TIP3   OH215269   0.462   5.056   0.073
 5102TIP3    H115270   0.400   5.001   0.122
 5102TIP3    H215271   0.419   5.070  -0.012
 5103TIP3   OH215272   3.524   2.035   4.599
 5103TIP3    H115273   3.533   1.971   4.669
 5103TIP3    H215274   3.558   1.991   4.521
 5104TIP3   OH215275   5.418   3.741   0.180
 5104TIP3    H115276   5.354   3.776   0.242
 5104TIP3    H215277   5.368   3.680   0.126
 5105TIP3   OH215278   1.575   1.040   2.102
 5105TIP3    H115279   1.568   0.951   2.068
 5105TIP3    H215280   1.665   1.046   2.136
 5106TIP3   OH215281   6.622   0.083   5.714
 5106TIP3    H115282   6.638   0.001   5.762
 5106TIP3    H215283   6.550   0.124   5.760
 5107TIP3   OH215284   4.099   1.431   3.982
 5107TIP3    H115285   4.136   1.421   4.069
 5107TIP3    H215286   4.099   1.525   3.966
 5108TIP3   OH215287   2.238   0.054   2.053
 5108TIP3    H115288   2.142   0.060   2.060
 5108TIP3    H215289   2.268   0.144   2.065
 5109TIP3   OH215290   4.749   1.643   2.097
 5109TIP3    H115291   4.805   1.622   2.022
 5109TIP3    H215292   4.663   1.658   2.058
 5110TIP3   OH215293   3.773   0.860   0.305
 5110TIP3    H115294   3.769   0.774   0.348
 5110TIP3    H215295   3.723   0.849   0.225
 5111TIP3   OH215296   0.969   5.817   4.191
 5111TIP3    H115297   0.910   5.890   4.210
 5111TIP3    H215298   1.003   5.791   4.277
 5112TIP3   OH215299   5.473   1.023   5.778
 5112TIP3    H115300   5.404   0.958   5.793
 5112TIP3    H215301   5.544   0.997   5.837
 5113TIP3   OH215302   0.463   2.192   2.521
 5113TIP3    H115303   0.373   2.170   2.496
 5113TIP3    H215304   0.518   2.131   2.473
 5114TIP3   OH215305   6.981   4.891   0.018
 5114TIP3    H115306   6.960   4.854   0.104
 5114TIP3    H215307   6.907   4.948  -0.003
 5115TIP3   OH215308   3.263   3.491   2.657
 5115TIP3    H115309   3.231   3.561   2.601
 5115TIP3    H215310   3.220   3.412   2.624
 5116TIP3   OH215311   4.131   2.872   4.947
 5116TIP3    H115312   4.172   2.943   4.997
 5116TIP3    H215313   4.201   2.835   4.894
 5117TIP3   OH215314   1.754   6.431   0.815
 5117TIP3    H115315   1.840   6.469   0.834
 5117TIP3    H215316   1.760   6.342   0.848
 5118TIP3   OH215317   0.557   5.919   2.283
 5118TIP3    H115318   0.500   5.938   2.358
 5118TIP3    H215319   0.608   5.843   2.311
 5119TIP3   OH215320   2.303   3.792   5.300
 5119TIP3    H115321   2.340   3.706   5.285
 5119TIP3    H215322   2.277   3.792   5.393
 5120TIP3   OH215323   4.428   4.448   4.195
 5120TIP3    H115324   4.447   4.384   4.126
 5120TIP3    H215325   4.508   4.500   4.203
 5121TIP3   OH215326   6.588   0.145   1.456
 5121TIP3    H115327   6.615   0.235   1.470
 5121TIP3    H215328   6.533   0.148   1.378
 5122TIP3   OH215329   0.428   2.684   1.604
 5122TIP3    H115330   0.345   2.686   1.651
 5122TIP3    H215331   0.481   2.751   1.647
 5123TIP3   OH215332   0.899   5.814   4.954
 5123TIP3    H115333   0.883   5.735   5.005
 5123TIP3    H215334   0.813   5.840   4.922
 5124TIP3   OH215335   5.043   2.364   5.662
 5124TIP3    H115336   5.099   2.438   5.638
 5124TIP3    H215337   5.065   2.346   5.753
 5125TIP3   OH215338   6.617   5.852   1.526
 5125TIP3    H115339   6.635   5.841   1.433
 5125TIP3    H215340   6.673   5.788   1.570
 5126TIP3   OH215341   3.286   3.792   1.454
 5126TIP3    H115342   3.306   3.749   1.538
 5126TIP3    H215343   3.191   3.794   1.451
 5127TIP3   OH215344   4.023   0.876   0.574
 5127TIP3    H115345   3.933   0.845   0.577
 5127TIP3    H215346   4.029   0.941   0.643
 5128TIP3   OH215347   5.238   0.856   0.943
 5128TIP3    H115348   5.193   0.936   0.969
 5128TIP3    H215349   5.263   0.814   1.026
 5129TIP3   OH215350   3.817   3.080   2.268
 5129TIP3    H115351   3.889   3.067   2.331
 5129TIP3    H215352   3.856   3.059   2.183
 5130TIP3   OH215353   2.022   1.516   5.522
 5130TIP3    H115354   2.022   1.430   5.482
 5130TIP3    H215355   2.073   1.506   5.603
 5131TIP3   OH215356   5.734   0.075   3.906
 5131TIP3    H115357   5.732   0.117   3.820
 5131TIP3    H215358   5.703   0.142   3.966
 5132TIP3   OH215359   3.246   4.871   2.630
 5132TIP3    H115360   3.335   4.845   2.608
 5132TIP3    H215361   3.254   4.962   2.657
 5133TIP3   OH215362   2.635   5.877   3.197
 5133TIP3    H115363   2.592   5.927   3.128
 5133TIP3    H215364   2.608   5.786   3.181
 5134TIP3   OH215365   4.487   1.768   2.575
 5134TIP3    H115366   4.413   1.710   2.592
 5134TIP3    H215367   4.484   1.832   2.646
 5135TIP3   OH215368   3.795   0.188   2.932
 5135TIP3    H115369   3.866   0.252   2.927
 5135TIP3    H215370   3.747   0.212   3.011
 5136TIP3   OH215371   1.136   5.525   2.626
 5136TIP3    H115372   1.079   5.487   2.559
 5136TIP3    H215373   1.082   5.531   2.704
 5137TIP3   OH215374   3.737   1.802   5.632
 5137TIP3    H115375   3.654   1.851   5.630
 5137TIP3    H215376   3.721   1.731   5.694
 5138TIP3   OH215377   3.445   2.977   4.920
 5138TIP3    H115378   3.412   2.991   5.008
 5138TIP3    H215379   3.373   3.005   4.863
 5139TIP3   OH215380   2.621   0.734   4.560
 5139TIP3    H115381   2.714   0.752   4.551
 5139TIP3    H215382   2.614   0.682   4.641
 5140TIP3   OH215383   3.497   2.297   1.951
 5140TIP3    H115384   3.580   2.273   1.993
 5140TIP3    H215385   3.449   2.215   1.942
 5141TIP3   OH215386   6.049   3.637   1.738
 5141TIP3    H115387   6.114   3.684   1.684
 5141TIP3    H215388   5.982   3.609   1.676
 5142TIP3   OH215389   0.841   0.043   4.972
 5142TIP3    H115390   0.749   0.022   4.989
 5142TIP3    H215391   0.866  -0.012   4.898
 5143TIP3   OH215392   7.006   5.450   0.801
 5143TIP3    H115393   7.069   5.403   0.747
 5143TIP3    H215394   7.035   5.435   0.891
 5144TIP3   OH215395   3.814   4.349   2.829
 5144TIP3    H115396   3.764   4.308   2.758
 5144TIP3    H215397   3.888   4.390   2.785
 5145TIP3   OH215398   3.270   1.217   2.333
 5145TIP3    H115399   3.306   1.134   2.302
 5145TIP3    H215400   3.194   1.233   2.277
 5146TIP3   OH215401   0.203   5.134   0.656
 5146TIP3    H115402   0.288   5.145   0.700
 5146TIP3    H215403   0.184   5.041   0.664
 5147TIP3   OH215404   4.311   1.943   1.288
 5147TIP3    H115405   4.365   2.022   1.298
 5147TIP3    H215406   4.244   1.952   1.356
 5148TIP3   OH215407   0.845   5.858   3.413
 5148TIP3    H115408   0.901   5.848   3.336
 5148TIP3    H215409   0.769   5.802   3.395
 5149TIP3   OH215410   4.631   5.745   0.769
 5149TIP3    H115411   4.607   5.653   0.761
 5149TIP3    H215412   4.674   5.751   0.854
 5150TIP3   OH215413   7.147   6.593   2.561
 5150TIP3    H115414   7.210   6.664   2.548
 5150TIP3    H215415   7.136   6.554   2.474
 5151TIP3   OH215416   6.633   5.260   1.340
 5151TIP3    H115417   6.607   5.235   1.252
 5151TIP3    H215418   6.576   5.334   1.362
 5152TIP3   OH215419   6.555   6.694   4.941
 5152TIP3    H115420   6.625   6.758   4.949
 5152TIP3    H215421   6.567   6.656   4.854
 5153TIP3   OH215422   5.654   0.722   3.217
 5153TIP3    H115423   5.566   0.750   3.192
 5153TIP3    H215424   5.708   0.743   3.140
 5154TIP3   OH215425   2.168   6.369   5.941
 5154TIP3    H115426   2.163   6.295   5.880
 5154TIP3    H215427   2.261   6.389   5.949
 5155TIP3   OH215428   1.487   0.881   4.450
 5155TIP3    H115429   1.455   0.935   4.521
 5155TIP3    H215430   1.564   0.928   4.417
 5156TIP3   OH215431   1.115   4.815   0.829
 5156TIP3    H115432   1.146   4.896   0.789
 5156TIP3    H215433   1.177   4.796   0.899
 5157TIP3   OH215434   1.185   0.649   4.724
 5157TIP3    H115435   1.205   0.649   4.631
 5157TIP3    H215436   1.142   0.565   4.739
 5158TIP3   OH215437   0.728   0.455   1.758
 5158TIP3    H115438   0.702   0.546   1.743
 5158TIP3    H215439   0.700   0.409   1.679
 5159TIP3   OH215440   4.434   2.864   2.853
 5159TIP3    H115441   4.446   2.958   2.839
 5159TIP3    H215442   4.509   2.824   2.810
 5160TIP3   OH215443   2.536   2.926   1.711
 5160TIP3    H115444   2.589   2.875   1.773
 5160TIP3    H215445   2.557   3.017   1.731
 5161TIP3   OH215446   2.612   3.362   0.308
 5161TIP3    H115447   2.554   3.419   0.359
 5161TIP3    H215448   2.614   3.280   0.358
 5162TIP3   OH215449   6.403   0.781   2.414
 5162TIP3    H115450   6.449   0.855   2.454
 5162TIP3    H215451   6.398   0.804   2.321
 5163TIP3   OH215452   1.645   5.193   0.559
 5163TIP3    H115453   1.691   5.251   0.498
 5163TIP3    H215454   1.558   5.232   0.568
 5164TIP3   OH215455   5.672   1.300   1.075
 5164TIP3    H115456   5.694   1.207   1.071
 5164TIP3    H215457   5.731   1.342   1.012
 5165TIP3   OH215458   0.525   0.057   5.272
 5165TIP3    H115459   0.585  -0.002   5.317
 5165TIP3    H215460   0.535   0.141   5.317
 5166TIP3   OH215461   1.683   4.129   5.746
 5166TIP3    H115462   1.753   4.139   5.682
 5166TIP3    H215463   1.715   4.175   5.824
 5167TIP3   OH215464   1.907   1.804   4.716
 5167TIP3    H115465   1.998   1.834   4.724
 5167TIP3    H215466   1.857   1.864   4.770
 5168TIP3   OH215467   5.442   2.314   5.747
 5168TIP3    H115468   5.469   2.226   5.720
 5168TIP3    H215469   5.437   2.364   5.666
 5169TIP3   OH215470   3.235   1.945   2.085
 5169TIP3    H115471   3.292   1.960   2.010
 5169TIP3    H215472   3.209   2.033   2.114
 5170TIP3   OH215473   3.666   0.411   4.422
 5170TIP3    H115474   3.658   0.378   4.333
 5170TIP3    H215475   3.614   0.350   4.475
 5171TIP3   OH215476   4.294   4.047   1.211
 5171TIP3    H115477   4.210   4.065   1.253
 5171TIP3    H215478   4.282   4.073   1.120
 5172TIP3   OH215479   6.040   4.332   3.184
 5172TIP3    H115480   5.979   4.282   3.238
 5172TIP3    H215481   6.117   4.346   3.239
 5173TIP3   OH215482   2.037   0.421   4.338
 5173TIP3    H115483   2.036   0.350   4.274
 5173TIP3    H215484   2.106   0.479   4.308
 5174TIP3   OH215485   1.495   3.895   0.311
 5174TIP3    H115486   1.498   3.974   0.364
 5174TIP3    H215487   1.421   3.909   0.252
 5175TIP3   OH215488   0.253   6.658   1.235
 5175TIP3    H115489   0.228   6.590   1.298
 5175TIP3    H215490   0.320   6.708   1.280
 5176TIP3   OH215491   6.566   1.807   5.075
 5176TIP3    H115492   6.562   1.800   4.980
 5176TIP3    H215493   6.606   1.892   5.092
 5177TIP3   OH215494   4.032   1.657   0.690
 5177TIP3    H115495   4.067   1.602   0.619
 5177TIP3    H215496   3.939   1.637   0.692
 5178TIP3   OH215497   2.121   5.557   5.778
 5178TIP3    H115498   2.061   5.596   5.716
 5178TIP3    H215499   2.165   5.632   5.819
 5179TIP3   OH215500   5.124   6.845   4.902
 5179TIP3    H115501   5.082   6.759   4.897
 5179TIP3    H215502   5.081   6.896   4.833
 5180TIP3   OH215503   5.208   6.247   1.267
 5180TIP3    H115504   5.140   6.306   1.301
 5180TIP3    H215505   5.257   6.301   1.205
 5181TIP3   OH215506   4.105   5.592   2.991
 5181TIP3    H115507   4.123   5.677   3.031
 5181TIP3    H215508   4.059   5.543   3.060
 5182TIP3   OH215509   4.036   1.337   2.106
 5182TIP3    H115510   4.014   1.430   2.097
 5182TIP3    H215511   3.956   1.291   2.083
 5183TIP3   OH215512   1.118   6.716   3.795
 5183TIP3    H115513   1.097   6.797   3.841
 5183TIP3    H215514   1.187   6.675   3.847
 5184TIP3   OH215515   3.781   6.150   0.061
 5184TIP3    H115516   3.723   6.075   0.072
 5184TIP3    H215517   3.862   6.124   0.106
 5185TIP3   OH215518   6.922   3.457   3.570
 5185TIP3    H115519   6.866   3.387   3.602
 5185TIP3    H215520   6.875   3.494   3.495
 5186TIP3   OH215521   2.988   1.010   5.851
 5186TIP3    H115522   2.971   1.044   5.763
 5186TIP3    H215523   3.046   0.935   5.837
 5187TIP3   OH215524   5.161   1.538   2.582
 5187TIP3    H115525   5.168   1.521   2.488
 5187TIP3    H215526   5.250   1.527   2.615
 5188TIP3   OH215527   6.683   5.596   2.805
 5188TIP3    H115528   6.588   5.605   2.808
 5188TIP3    H215529   6.706   5.603   2.713
 5189TIP3   OH215530   2.453   4.386   5.811
 5189TIP3    H115531   2.490   4.431   5.734
 5189TIP3    H215532   2.360   4.408   5.808
 5190TIP3   OH215533   5.937   1.158   1.371
 5190TIP3    H115534   5.988   1.126   1.297
 5190TIP3    H215535   6.002   1.174   1.440
 5191TIP3   OH215536   0.674   6.348   3.782
 5191TIP3    H115537   0.758   6.317   3.750
 5191TIP3    H215538   0.625   6.369   3.702
 5192TIP3   OH215539   6.174   5.716   4.345
 5192TIP3    H115540   6.110   5.780   4.314
 5192TIP3    H215541   6.248   5.769   4.377
 5193TIP3   OH215542   0.668   4.376   0.633
 5193TIP3    H115543   0.616   4.448   0.597
 5193TIP3    H215544   0.712   4.415   0.709
 5194TIP3   OH215545   1.355   4.635   4.025
 5194TIP3    H115546   1.347   4.579   3.948
 5194TIP3    H215547   1.440   4.678   4.015
 5195TIP3   OH215548   6.227   1.361   2.387
 5195TIP3    H115549   6.179   1.418   2.448
 5195TIP3    H215550   6.317   1.395   2.388
 5196TIP3   OH215551   2.473   4.496   0.621
 5196TIP3    H115552   2.441   4.560   0.685
 5196TIP3    H215553   2.403   4.430   0.616
 5197TIP3   OH215554   2.378   1.831   4.939
 5197TIP3    H115555   2.296   1.801   4.899
 5197TIP3    H215556   2.400   1.763   5.003
 5198TIP3   OH215557   5.100   2.956   1.715
 5198TIP3    H115558   5.083   2.866   1.741
 5198TIP3    H215559   5.141   2.996   1.793
 5199TIP3   OH215560   0.393   0.326   3.458
 5199TIP3    H115561   0.412   0.405   3.407
 5199TIP3    H215562   0.341   0.271   3.400
 5200TIP3   OH215563   5.946   2.303   3.591
 5200TIP3    H115564   5.950   2.301   3.687
 5200TIP3    H215565   5.854   2.284   3.571
 5201TIP3   OH215566   5.307   5.679   3.842
 5201TIP3    H115567   5.358   5.737   3.898
 5201TIP3    H215568   5.275   5.610   3.900
 5202TIP3   OH215569   6.308   4.913   1.573
 5202TIP3    H115570   6.326   4.819   1.575
 5202TIP3    H215571   6.354   4.944   1.495
 5203TIP3   OH215572   0.906   4.021   1.763
 5203TIP3    H115573   0.827   3.976   1.793
 5203TIP3    H215574   0.910   4.003   1.669
 5204TIP3   OH215575   2.428   2.878   2.793
 5204TIP3    H115576   2.402   2.966   2.763
 5204TIP3    H215577   2.441   2.888   2.887
 5205TIP3   OH215578   4.241   5.017   2.639
 5205TIP3    H115579   4.312   5.076   2.613
 5205TIP3    H215580   4.281   4.931   2.642
 5206TIP3   OH215581   3.214   6.453   4.802
 5206TIP3    H115582   3.181   6.414   4.721
 5206TIP3    H215583   3.289   6.398   4.826
 5207TIP3   OH215584   6.421   2.856   5.248
 5207TIP3    H115585   6.374   2.873   5.167
 5207TIP3    H215586   6.459   2.769   5.235
 5208TIP3   OH215587   4.113   2.290   3.873
 5208TIP3    H115588   4.034   2.317   3.826
 5208TIP3    H215589   4.156   2.229   3.814
 5209TIP3   OH215590   0.125   4.970   4.680
 5209TIP3    H115591   0.140   4.984   4.587
 5209TIP3    H215592   0.035   4.999   4.695
 5210TIP3   OH215593   6.749   0.130   0.148
 5210TIP3    H115594   6.655   0.119   0.156
 5210TIP3    H215595   6.784   0.101   0.233
 5211TIP3   OH215596   3.502   3.393   1.146
 5211TIP3    H115597   3.547   3.339   1.211
 5211TIP3    H215598   3.409   3.373   1.158
 5212TIP3   OH215599   2.926   2.214   0.588
 5212TIP3    H115600   2.848   2.167   0.557
 5212TIP3    H215601   2.986   2.212   0.514
 5213TIP3   OH215602   2.523   4.868   4.874
 5213TIP3    H115603   2.443   4.848   4.825
 5213TIP3    H215604   2.579   4.792   4.860
 5214TIP3   OH215605   0.778   0.500   2.177
 5214TIP3    H115606   0.828   0.421   2.157
 5214TIP3    H215607   0.714   0.506   2.107
 5215TIP3   OH215608   1.837   0.328   4.129
 5215TIP3    H115609   1.898   0.262   4.163
 5215TIP3    H215610   1.888   0.409   4.127
 5216TIP3   OH215611   1.325   2.905   5.173
 5216TIP3    H115612   1.398   2.967   5.163
 5216TIP3    H215613   1.353   2.847   5.244
 5217TIP3   OH215614   6.137   6.613   0.909
 5217TIP3    H115615   6.166   6.527   0.880
 5217TIP3    H215616   6.079   6.644   0.840
 5218TIP3   OH215617   0.155   3.012   1.418
 5218TIP3    H115618   0.167   2.960   1.338
 5218TIP3    H215619   0.237   3.001   1.466
 5219TIP3   OH215620   0.713   0.835   3.884
 5219TIP3    H115621   0.738   0.817   3.794
 5219TIP3    H215622   0.764   0.913   3.908
 5220TIP3   OH215623   3.146   3.467   1.911
 5220TIP3    H115624   3.237   3.483   1.884
 5220TIP3    H215625   3.122   3.546   1.960
 5221TIP3   OH215626   2.835   4.295   4.859
 5221TIP3    H115627   2.862   4.289   4.768
 5221TIP3    H215628   2.910   4.336   4.903
 5222TIP3   OH215629   4.577   4.999   4.471
 5222TIP3    H115630   4.556   4.997   4.564
 5222TIP3    H215631   4.520   5.067   4.435
 5223TIP3   OH215632   2.275   5.826   5.438
 5223TIP3    H115633   2.263   5.906   5.489
 5223TIP3    H215634   2.341   5.850   5.372
 5224TIP3   OH215635   1.420   1.198   3.726
 5224TIP3    H115636   1.377   1.173   3.645
 5224TIP3    H215637   1.424   1.294   3.722
 5225TIP3   OH215638   3.369   6.613   1.427
 5225TIP3    H115639   3.406   6.695   1.460
 5225TIP3    H215640   3.275   6.629   1.425
 5226TIP3   OH215641   3.596   4.703   2.953
 5226TIP3    H115642   3.616   4.676   2.863
 5226TIP3    H215643   3.507   4.672   2.969
 5227TIP3   OH215644   3.926   1.071   1.695
 5227TIP3    H115645   4.014   1.108   1.700
 5227TIP3    H215646   3.934   0.998   1.633
 5228TIP3   OH215647   4.371   6.640   5.742
 5228TIP3    H115648   4.318   6.562   5.724
 5228TIP3    H215649   4.404   6.667   5.656
 5229TIP3   OH215650   2.812   2.003   5.585
 5229TIP3    H115651   2.873   1.934   5.611
 5229TIP3    H215652   2.802   1.992   5.490
 5230TIP3   OH215653   4.526   5.286   5.131
 5230TIP3    H115654   4.509   5.370   5.088
 5230TIP3    H215655   4.620   5.271   5.118
 5231TIP3   OH215656   5.290   4.784   4.481
 5231TIP3    H115657   5.228   4.786   4.554
 5231TIP3    H215658   5.249   4.726   4.416
 5232TIP3   OH215659   3.691   3.576   1.059
 5232TIP3    H115660   3.756   3.509   1.080
 5232TIP3    H215661   3.606   3.535   1.079
 5233TIP3   OH215662   3.997   4.532   1.358
 5233TIP3    H115663   4.042   4.593   1.418
 5233TIP3    H215664   4.049   4.452   1.363
 5234TIP3   OH215665   6.153   0.978   3.781
 5234TIP3    H115666   6.176   1.045   3.845
 5234TIP3    H215667   6.141   1.026   3.699
 5235TIP3   OH215668   0.028   4.346   0.211
 5235TIP3    H115669   0.062   4.282   0.149
 5235TIP3    H215670  -0.015   4.412   0.157
 5236TIP3   OH215671   5.408   1.567   5.191
 5236TIP3    H115672   5.479   1.520   5.235
 5236TIP3    H215673   5.330   1.515   5.209
 5237TIP3   OH215674   6.364   3.159   4.666
 5237TIP3    H115675   6.340   3.251   4.676
 5237TIP3    H215676   6.455   3.160   4.637
 5238TIP3   OH215677   0.995   2.995   2.944
 5238TIP3    H115678   0.919   3.024   2.893
 5238TIP3    H215679   1.044   2.938   2.884
 5239TIP3   OH215680   6.066   2.117   5.288
 5239TIP3    H115681   6.097   2.156   5.206
 5239TIP3    H215682   6.138   2.059   5.315
 5240TIP3   OH215683   4.333   2.527   3.385
 5240TIP3    H115684   4.301   2.617   3.385
 5240TIP3    H215685   4.300   2.489   3.303
 5241TIP3   OH215686   1.013   1.302   3.486
 5241TIP3    H115687   0.925   1.333   3.465
 5241TIP3    H215688   1.055   1.376   3.530
 5242TIP3   OH215689   6.418   2.935   2.311
 5242TIP3    H115690   6.409   2.863   2.372
 5242TIP3    H215691   6.468   3.001   2.359
 5243TIP3   OH215692   2.509   1.163   0.637
 5243TIP3    H115693   2.579   1.104   0.667
 5243TIP3    H215694   2.472   1.198   0.718
 5244TIP3   OH215695   1.391   4.559   0.769
 5244TIP3    H115696   1.357   4.526   0.852
 5244TIP3    H215697   1.477   4.594   0.790
 5245TIP3   OH215698   0.665   5.399   2.184
 5245TIP3    H115699   0.661   5.310   2.150
 5245TIP3    H215700   0.578   5.414   2.222
 5246TIP3   OH215701   1.516   3.999   3.610
 5246TIP3    H115702   1.452   3.981   3.540
 5246TIP3    H215703   1.600   3.978   3.570
 5247TIP3   OH215704   3.524   6.421   2.185
 5247TIP3    H115705   3.500   6.379   2.102
 5247TIP3    H215706   3.460   6.492   2.194
 5248TIP3   OH215707   0.050   1.989   4.837
 5248TIP3    H115708  -0.031   1.951   4.804
 5248TIP3    H215709   0.032   2.009   4.929
 5249TIP3   OH215710   6.513   1.655   3.963
 5249TIP3    H115711   6.495   1.730   3.906
 5249TIP3    H215712   6.558   1.592   3.907
 5250TIP3   OH215713   4.897   6.751   2.731
 5250TIP3    H115714   4.856   6.673   2.693
 5250TIP3    H215715   4.941   6.794   2.656
 5251TIP3   OH215716   5.265   5.106   1.185
 5251TIP3    H115717   5.256   5.018   1.221
 5251TIP3    H215718   5.220   5.102   1.100
 5252TIP3   OH215719   1.421   2.359   3.827
 5252TIP3    H115720   1.372   2.334   3.748
 5252TIP3    H215721   1.354   2.375   3.893
 5253TIP3   OH215722   2.887   0.852   2.714
 5253TIP3    H115723   2.900   0.757   2.715
 5253TIP3    H215724   2.807   0.864   2.663
 5254TIP3   OH215725   2.399   5.642   0.737
 5254TIP3    H115726   2.334   5.586   0.780
 5254TIP3    H215727   2.360   5.730   0.740
 5255TIP3   OH215728   4.740   1.089   0.948
 5255TIP3    H115729   4.807   1.090   0.879
 5255TIP3    H215730   4.787   1.063   1.027
 5256TIP3   OH215731   7.182   1.771   4.026
 5256TIP3    H115732   7.240   1.710   3.980
 5256TIP3    H215733   7.129   1.811   3.956
 5257TIP3   OH215734   7.196   0.353   0.561
 5257TIP3    H115735   7.129   0.402   0.609
 5257TIP3    H215736   7.152   0.326   0.480
 5258TIP3   OH215737   5.711   0.569   3.435
 5258TIP3    H115738   5.701   0.644   3.377
 5258TIP3    H215739   5.735   0.497   3.377
 5259TIP3   OH215740   1.566   6.111   3.255
 5259TIP3    H115741   1.567   6.089   3.162
 5259TIP3    H215742   1.623   6.045   3.296
 5260TIP3   OH215743   3.340   5.927   1.081
 5260TIP3    H115744   3.405   5.875   1.128
 5260TIP3    H215745   3.267   5.935   1.143
 5261TIP3   OH215746   6.730   4.549   1.294
 5261TIP3    H115747   6.666   4.551   1.365
 5261TIP3    H215748   6.811   4.580   1.334
 5262TIP3   OH215749   6.166   5.182   5.748
 5262TIP3    H115750   6.242   5.237   5.769
 5262TIP3    H215751   6.202   5.113   5.693
 5263TIP3   OH215752   1.152   5.083   1.507
 5263TIP3    H115753   1.215   5.031   1.557
 5263TIP3    H215754   1.169   5.173   1.535
 5264TIP3   OH215755   0.067   3.443   1.571
 5264TIP3    H115756   0.057   3.418   1.480
 5264TIP3    H215757  -0.017   3.424   1.612
 5265TIP3   OH215758   2.930   6.676   0.074
 5265TIP3    H115759   2.860   6.630   0.027
 5265TIP3    H215760   2.884   6.745   0.122
 5266TIP3   OH215761   2.268   4.343   0.507
 5266TIP3    H115762   2.203   4.407   0.479
 5266TIP3    H215763   2.223   4.259   0.502
 5267TIP3   OH215764   6.223   5.311   2.655
 5267TIP3    H115765   6.144   5.358   2.683
 5267TIP3    H215766   6.224   5.232   2.708
 5268TIP3   OH215767   2.379   6.268   0.864
 5268TIP3    H115768   2.404   6.246   0.954
 5268TIP3    H215769   2.459   6.306   0.826
 5269TIP3   OH215770   4.481   6.012   3.719
 5269TIP3    H115771   4.568   5.987   3.687
 5269TIP3    H215772   4.447   6.070   3.652
 5270TIP3   OH215773   3.464   4.273   2.195
 5270TIP3    H115774   3.440   4.184   2.220
 5270TIP3    H215775   3.547   4.289   2.240
 5271TIP3   OH215776   4.693   6.748   2.316
 5271TIP3    H115777   4.675   6.825   2.369
 5271TIP3    H215778   4.625   6.747   2.249
 5272TIP3   OH215779   3.283   3.964   3.906
 5272TIP3    H115780   3.260   4.047   3.865
 5272TIP3    H215781   3.219   3.902   3.874
 5273TIP3   OH215782   4.810   4.096   5.043
 5273TIP3    H115783   4.758   4.156   5.096
 5273TIP3    H215784   4.888   4.078   5.096
 5274TIP3   OH215785   3.104   3.295   0.335
 5274TIP3    H115786   3.018   3.318   0.300
 5274TIP3    H215787   3.113   3.346   0.415
 5275TIP3   OH215788   6.602   4.223   1.818
 5275TIP3    H115789   6.513   4.196   1.797
 5275TIP3    H215790   6.639   4.253   1.735
 5276TIP3   OH215791   0.553   0.659   4.515
 5276TIP3    H115792   0.516   0.722   4.577
 5276TIP3    H215793   0.482   0.644   4.452
 5277TIP3   OH215794   2.765   6.627   3.715
 5277TIP3    H115795   2.807   6.541   3.724
 5277TIP3    H215796   2.750   6.635   3.620
 5278TIP3   OH215797   3.452   2.752   4.774
 5278TIP3    H115798   3.463   2.818   4.843
 5278TIP3    H215799   3.533   2.757   4.723
 5279TIP3   OH215800   1.432   1.152   1.722
 5279TIP3    H115801   1.490   1.081   1.748
 5279TIP3    H215802   1.399   1.127   1.636
 5280TIP3   OH215803   6.809   0.066   1.867
 5280TIP3    H115804   6.818   0.102   1.955
 5280TIP3    H215805   6.722   0.026   1.866
 5281TIP3   OH215806   2.714   2.515   5.297
 5281TIP3    H115807   2.720   2.423   5.323
 5281TIP3    H215808   2.622   2.537   5.308
 5282TIP3   OH215809   0.350   0.115   0.937
 5282TIP3    H115810   0.394   0.179   0.880
 5282TIP3    H215811   0.370   0.030   0.898
 5283TIP3   OH215812   3.962   5.374   4.562
 5283TIP3    H115813   3.913   5.401   4.485
 5283TIP3    H215814   4.028   5.314   4.528
 5284TIP3   OH215815   2.083   2.063   2.908
 5284TIP3    H115816   2.034   2.006   2.967
 5284TIP3    H215817   2.171   2.066   2.944
 5285TIP3   OH215818   3.144   2.576   2.907
 5285TIP3    H115819   3.060   2.536   2.885
 5285TIP3    H215820   3.143   2.584   3.002
 5286TIP3   OH215821   7.211   4.170   4.214
 5286TIP3    H115822   7.233   4.260   4.188
 5286TIP3    H215823   7.129   4.179   4.261
 5287TIP3   OH215824   4.544   2.100   5.914
 5287TIP3    H115825   4.492   2.049   5.976
 5287TIP3    H215826   4.546   2.046   5.835
 5288TIP3   OH215827   6.271   2.226   1.371
 5288TIP3    H115828   6.185   2.208   1.408
 5288TIP3    H215829   6.278   2.322   1.373
 5289TIP3   OH215830   4.435   3.868   1.769
 5289TIP3    H115831   4.362   3.861   1.831
 5289TIP3    H215832   4.396   3.903   1.689
 5290TIP3   OH215833   5.023   3.733  -0.035
 5290TIP3    H115834   4.960   3.768   0.029
 5290TIP3    H215835   5.083   3.680   0.017
 5291TIP3   OH215836   5.955   4.038   5.708
 5291TIP3    H115837   6.025   3.986   5.667
 5291TIP3    H215838   5.946   4.114   5.651
 5292TIP3   OH215839   6.532   4.491   3.906
 5292TIP3    H115840   6.560   4.572   3.948
 5292TIP3    H215841   6.573   4.422   3.958
 5293TIP3   OH215842   2.637   6.070   2.283
 5293TIP3    H115843   2.634   6.166   2.284
 5293TIP3    H215844   2.545   6.043   2.285
 5294TIP3   OH215845   3.444   6.710   3.031
 5294TIP3    H115846   3.494   6.790   3.014
 5294TIP3    H215847   3.490   6.669   3.104
 5295TIP3   OH215848   6.692   0.098   2.489
 5295TIP3    H115849   6.693   0.033   2.419
 5295TIP3    H215850   6.606   0.140   2.482
 5296TIP3   OH215851   0.180   6.062   1.757
 5296TIP3    H115852   0.168   6.048   1.850
 5296TIP3    H215853   0.163   5.977   1.717
 5297TIP3   OH215854   1.468   3.242   3.174
 5297TIP3    H115855   1.469   3.276   3.263
 5297TIP3    H215856   1.559   3.247   3.146
 5298TIP3   OH215857   6.675   0.845   4.801
 5298TIP3    H115858   6.700   0.800   4.882
 5298TIP3    H215859   6.753   0.895   4.777
 5299TIP3   OH215860   6.325   0.058   4.986
 5299TIP3    H115861   6.296   0.095   4.903
 5299TIP3    H215862   6.318  -0.037   4.974
 5300TIP3   OH215863   1.740   4.860   5.709
 5300TIP3    H115864   1.677   4.823   5.771
 5300TIP3    H215865   1.736   4.955   5.723
 5301TIP3   OH215866   3.474   6.438  -0.008
 5301TIP3    H115867   3.568   6.430   0.011
 5301TIP3    H215868   3.441   6.497   0.060
 5302TIP3   OH215869   0.972   6.263   0.426
 5302TIP3    H115870   0.975   6.168   0.433
 5302TIP3    H215871   1.039   6.294   0.487
 5303TIP3   OH215872   6.292   5.703   1.305
 5303TIP3    H115873   6.289   5.608   1.317
 5303TIP3    H215874   6.203   5.727   1.278
 5304TIP3   OH215875   4.187   2.370   4.993
 5304TIP3    H115876   4.244   2.430   4.946
 5304TIP3    H215877   4.147   2.316   4.924
 5305TIP3   OH215878   4.194   0.935   5.520
 5305TIP3    H115879   4.131   0.935   5.592
 5305TIP3    H215880   4.183   1.021   5.479
 5306TIP3   OH215881   5.746   3.182   1.758
 5306TIP3    H115882   5.832   3.200   1.721
 5306TIP3    H215883   5.688   3.246   1.717
 5307TIP3   OH215884   2.641   5.654   0.820
 5307TIP3    H115885   2.697   5.619   0.752
 5307TIP3    H215886   2.557   5.671   0.776
 5308TIP3   OH215887   4.483   5.575   0.126
 5308TIP3    H115888   4.402   5.587   0.077
 5308TIP3    H215889   4.552   5.605   0.067
 5309TIP3   OH215890   5.742   2.651   5.140
 5309TIP3    H115891   5.822   2.628   5.094
 5309TIP3    H215892   5.689   2.571   5.137
 5310TIP3   OH215893   5.284   1.840   3.741
 5310TIP3    H115894   5.298   1.826   3.647
 5310TIP3    H215895   5.215   1.779   3.765
 5311TIP3   OH215896   6.853   3.348   5.861
 5311TIP3    H115897   6.892   3.387   5.939
 5311TIP3    H215898   6.894   3.262   5.853
 5312TIP3   OH215899   1.218   6.683   5.259
 5312TIP3    H115900   1.223   6.717   5.169
 5312TIP3    H215901   1.173   6.599   5.250
 5313TIP3   OH215902   5.958   5.635   4.841
 5313TIP3    H115903   6.006   5.714   4.817
 5313TIP3    H215904   5.970   5.627   4.936
 5314TIP3   OH215905   2.188   5.431   0.859
 5314TIP3    H115906   2.135   5.375   0.915
 5314TIP3    H215907   2.137   5.440   0.778
 5315TIP3   OH215908   5.143   2.565   5.296
 5315TIP3    H115909   5.207   2.622   5.339
 5315TIP3    H215910   5.080   2.544   5.365
 5316TIP3   OH215911   4.118   6.305   2.379
 5316TIP3    H115912   4.050   6.278   2.440
 5316TIP3    H215913   4.179   6.357   2.432
 5317TIP3   OH215914   5.341   3.754   1.944
 5317TIP3    H115915   5.386   3.672   1.928
 5317TIP3    H215916   5.278   3.734   2.014
 5318TIP3   OH215917   3.289   1.588   3.179
 5318TIP3    H115918   3.315   1.640   3.255
 5318TIP3    H215919   3.203   1.624   3.154
 5319TIP3   OH215920   0.350   2.869   2.106
 5319TIP3    H115921   0.394   2.817   2.038
 5319TIP3    H215922   0.336   2.807   2.178
 5320TIP3   OH215923   0.427   2.192   3.240
 5320TIP3    H115924   0.481   2.218   3.314
 5320TIP3    H215925   0.388   2.273   3.208
 5321TIP3   OH215926   2.440   1.211   3.072
 5321TIP3    H115927   2.469   1.121   3.091
 5321TIP3    H215928   2.345   1.203   3.063
 5322TIP3   OH215929   6.617   2.842   2.589
 5322TIP3    H115930   6.704   2.854   2.627
 5322TIP3    H215931   6.567   2.918   2.622
 5323TIP3   OH215932   5.138   5.352   3.631
 5323TIP3    H115933   5.212   5.333   3.573
 5323TIP3    H215934   5.064   5.308   3.590
 5324TIP3   OH215935   3.427   1.145   2.954
 5324TIP3    H115936   3.523   1.154   2.953
 5324TIP3    H215937   3.396   1.224   2.998
 5325TIP3   OH215938   2.566   2.902   0.162
 5325TIP3    H115939   2.654   2.938   0.149
 5325TIP3    H215940   2.534   2.947   0.241
 5326TIP3   OH215941   4.035   3.935   5.548
 5326TIP3    H115942   4.097   3.928   5.621
 5326TIP3    H215943   3.949   3.919   5.588
 5327TIP3   OH215944   3.443   5.741   3.658
 5327TIP3    H115945   3.532   5.720   3.628
 5327TIP3    H215946   3.453   5.756   3.752
 5328TIP3   OH215947   3.882   2.107   4.510
 5328TIP3    H115948   3.942   2.160   4.457
 5328TIP3    H215949   3.938   2.062   4.572
 5329TIP3   OH215950   0.374   6.722   3.302
 5329TIP3    H115951   0.429   6.659   3.257
 5329TIP3    H215952   0.385   6.702   3.395
 5330TIP3   OH215953   1.830   2.166   5.920
 5330TIP3    H115954   1.854   2.094   5.861
 5330TIP3    H215955   1.734   2.163   5.923
 5331TIP3   OH215956   5.421   1.112   0.645
 5331TIP3    H115957   5.360   1.067   0.587
 5331TIP3    H215958   5.447   1.045   0.709
 5332TIP3   OH215959   4.761   1.232   2.735
 5332TIP3    H115960   4.805   1.316   2.722
 5332TIP3    H215961   4.671   1.247   2.708
 5333TIP3   OH215962   5.004   1.992   1.493
 5333TIP3    H115963   5.077   2.053   1.489
 5333TIP3    H215964   4.953   2.010   1.414
 5334TIP3   OH215965   2.623   2.125   2.162
 5334TIP3    H115966   2.660   2.037   2.160
 5334TIP3    H215967   2.534   2.114   2.195
 5335TIP3   OH215968   0.493   0.298   5.714
 5335TIP3    H115969   0.421   0.349   5.752
 5335TIP3    H215970   0.548   0.275   5.789
 5336TIP3   OH215971   2.356   6.767   0.805
 5336TIP3    H115972   2.262   6.764   0.789
 5336TIP3    H215973   2.376   6.683   0.847
 5337TIP3   OH215974   1.850   4.379   1.825
 5337TIP3    H115975   1.867   4.473   1.817
 5337TIP3    H215976   1.818   4.353   1.738
 5338TIP3   OH215977   2.466   1.559   0.935
 5338TIP3    H115978   2.515   1.540   0.855
 5338TIP3    H215979   2.395   1.616   0.907
 5339TIP3   OH215980   1.463   5.430   4.657
 5339TIP3    H115981   1.406   5.458   4.729
 5339TIP3    H215982   1.469   5.335   4.666
 5340TIP3   OH215983   2.872   2.955   0.568
 5340TIP3    H115984   2.926   2.977   0.644
 5340TIP3    H215985   2.846   2.864   0.582
 5341TIP3   OH215986   4.665   0.937   2.309
 5341TIP3    H115987   4.581   0.969   2.275
 5341TIP3    H215988   4.646   0.913   2.400
 5342TIP3   OH215989   6.778   1.658   4.088
 5342TIP3    H115990   6.784   1.679   3.995
 5342TIP3    H215991   6.686   1.634   4.101
 5343TIP3   OH215992   2.123   1.245   2.816
 5343TIP3    H115993   2.036   1.206   2.820
 5343TIP3    H215994   2.161   1.213   2.734
 5344TIP3   OH215995   5.529   5.534   0.456
 5344TIP3    H115996   5.446   5.522   0.503
 5344TIP3    H215997   5.555   5.624   0.476
 5345TIP3   OH215998   3.888   4.694   4.838
 5345TIP3    H115999   3.814   4.751   4.816
 5345TIP3    H216000   3.955   4.714   4.772
 5346TIP3   OH216001   3.451   6.092   2.833
 5346TIP3    H116002   3.522   6.034   2.807
 5346TIP3    H216003   3.446   6.081   2.928
 5347TIP3   OH216004   1.216   4.121   5.220
 5347TIP3    H116005   1.264   4.200   5.197
 5347TIP3    H216006   1.128   4.135   5.185
 5348TIP3   OH216007   3.005   4.886   4.317
 5348TIP3    H116008   2.967   4.973   4.303
 5348TIP3    H216009   3.033   4.885   4.408
 5349TIP3   OH216010   5.211   0.952   0.491
 5349TIP3    H116011   5.170   0.925   0.573
 5349TIP3    H216012   5.152   0.920   0.423
 5350TIP3   OH216013   1.610   4.215   0.134
 5350TIP3    H116014   1.620   4.128   0.173
 5350TIP3    H216015   1.652   4.274   0.196
 5351TIP3   OH216016   0.729   3.554   5.384
 5351TIP3    H116017   0.824   3.544   5.377
 5351TIP3    H216018   0.696   3.526   5.298
 5352TIP3   OH216019   1.254   0.362   3.007
 5352TIP3    H116020   1.225   0.276   3.036
 5352TIP3    H216021   1.295   0.347   2.922
 5353TIP3   OH216022   3.777   0.946   5.475
 5353TIP3    H116023   3.702   0.925   5.530
 5353TIP3    H216024   3.812   0.860   5.449
 5354TIP3   OH216025   4.398   1.661   3.455
 5354TIP3    H116026   4.418   1.569   3.474
 5354TIP3    H216027   4.438   1.677   3.370
 5355TIP3   OH216028   1.320   3.323   0.357
 5355TIP3    H116029   1.231   3.344   0.331
 5355TIP3    H216030   1.371   3.401   0.335
 5356TIP3   OH216031   4.563   3.491   4.479
 5356TIP3    H116032   4.591   3.548   4.408
 5356TIP3    H216033   4.474   3.520   4.500
 5357TIP3   OH216034   2.734   4.327   3.920
 5357TIP3    H116035   2.682   4.355   3.845
 5357TIP3    H216036   2.690   4.249   3.953
 5358TIP3   OH216037   0.456   0.339   1.114
 5358TIP3    H116038   0.485   0.356   1.025
 5358TIP3    H216039   0.361   0.344   1.111
 5359TIP3   OH216040   4.690   5.675   5.504
 5359TIP3    H116041   4.617   5.691   5.563
 5359TIP3    H216042   4.728   5.762   5.490
 5360TIP3   OH216043   6.827   1.855   1.072
 5360TIP3    H116044   6.749   1.872   1.125
 5360TIP3    H216045   6.792   1.820   0.989
 5361TIP3   OH216046   5.218   6.217   1.625
 5361TIP3    H116047   5.194   6.167   1.547
 5361TIP3    H216048   5.198   6.308   1.601
 5362TIP3   OH216049   5.509   3.365   1.394
 5362TIP3    H116050   5.555   3.373   1.478
 5362TIP3    H216051   5.559   3.420   1.334
 5363TIP3   OH216052   3.492   1.639   3.438
 5363TIP3    H116053   3.585   1.614   3.436
 5363TIP3    H216054   3.446   1.558   3.460
 5364TIP3   OH216055   5.344   6.015   3.439
 5364TIP3    H116056   5.312   6.024   3.349
 5364TIP3    H216057   5.418   6.075   3.445
 5365TIP3   OH216058   5.040   5.024   5.383
 5365TIP3    H116059   5.019   5.110   5.419
 5365TIP3    H216060   5.117   5.038   5.328
 5366TIP3   OH216061   1.332   2.670   1.767
 5366TIP3    H116062   1.328   2.751   1.717
 5366TIP3    H216063   1.322   2.601   1.702
 5367TIP3   OH216064   5.577   6.703   0.225
 5367TIP3    H116065   5.525   6.771   0.182
 5367TIP3    H216066   5.576   6.629   0.163
 5368TIP3   OH216067   3.899   1.254   0.064
 5368TIP3    H116068   3.934   1.235   0.151
 5368TIP3    H216069   3.878   1.168   0.027
 5369TIP3   OH216070   6.079   2.025   2.599
 5369TIP3    H116071   6.035   2.081   2.535
 5369TIP3    H216072   6.159   2.073   2.621
 5370TIP3   OH216073   6.997   0.542   1.526
 5370TIP3    H116074   6.990   0.560   1.620
 5370TIP3    H216075   7.087   0.568   1.504
 5371TIP3   OH216076   3.614   5.606   5.888
 5371TIP3    H116077   3.558   5.582   5.814
 5371TIP3    H216078   3.616   5.702   5.887
 5372TIP3   OH216079   2.367   4.657   0.826
 5372TIP3    H116080   2.349   4.751   0.823
 5372TIP3    H216081   2.281   4.616   0.834
 5373TIP3   OH216082   4.174   1.226   2.316
 5373TIP3    H116083   4.113   1.203   2.386
 5373TIP3    H216084   4.123   1.282   2.257
 5374TIP3   OH216085   3.621   2.885   3.496
 5374TIP3    H116086   3.551   2.819   3.492
 5374TIP3    H216087   3.662   2.871   3.582
 5375TIP3   OH216088   1.027   1.819   4.251
 5375TIP3    H116089   1.067   1.737   4.223
 5375TIP3    H216090   0.934   1.809   4.229
 5376TIP3   OH216091   3.681   6.688   5.709
 5376TIP3    H116092   3.701   6.739   5.630
 5376TIP3    H216093   3.588   6.706   5.725
 5377TIP3   OH216094   3.386   0.724   2.818
 5377TIP3    H116095   3.398   0.753   2.908
 5377TIP3    H216096   3.327   0.649   2.824
 5378TIP3   OH216097   4.561   1.448   2.740
 5378TIP3    H116098   4.477   1.458   2.785
 5378TIP3    H216099   4.539   1.458   2.647
 5379TIP3   OH216100   4.614   0.981   2.780
 5379TIP3    H116101   4.580   1.031   2.854
 5379TIP3    H216102   4.692   1.028   2.752
 5380TIP3   OH216103   2.427   2.366   3.055
 5380TIP3    H116104   2.333   2.348   3.055
 5380TIP3    H216105   2.435   2.453   3.016
 5381TIP3   OH216106   1.966   1.891   1.956
 5381TIP3    H116107   1.882   1.896   2.001
 5381TIP3    H216108   1.946   1.850   1.872
 5382TIP3   OH216109   1.488   4.164   3.264
 5382TIP3    H116110   1.543   4.087   3.248
 5382TIP3    H216111   1.545   4.224   3.312
 5383TIP3   OH216112   1.322   2.366   3.230
 5383TIP3    H116113   1.295   2.420   3.304
 5383TIP3    H216114   1.394   2.313   3.263
 5384TIP3   OH216115   7.055   1.974   3.535
 5384TIP3    H116116   7.076   1.989   3.443
 5384TIP3    H216117   7.021   1.885   3.538
 5385TIP3   OH216118   1.916   1.842   2.847
 5385TIP3    H116119   1.887   1.910   2.908
 5385TIP3    H216120   1.976   1.788   2.898
 5386TIP3   OH216121   4.275   3.552   2.698
 5386TIP3    H116122   4.232   3.573   2.616
 5386TIP3    H216123   4.291   3.637   2.739
 5387TIP3   OH216124   6.242   1.665   3.679
 5387TIP3    H116125   6.252   1.590   3.738
 5387TIP3    H216126   6.307   1.728   3.710
 5388TIP3   OH216127   0.081   1.008   2.973
 5388TIP3    H116128  -0.006   0.969   2.972
 5388TIP3    H216129   0.141   0.933   2.977
 5389TIP3   OH216130   2.101   6.628   4.715
 5389TIP3    H116131   2.018   6.674   4.702
 5389TIP3    H216132   2.112   6.623   4.810
 5390TIP3   OH216133   5.573   1.714   2.271
 5390TIP3    H116134   5.610   1.779   2.211
 5390TIP3    H216135   5.492   1.686   2.229
 5391TIP3   OH216136   6.792   6.418   4.039
 5391TIP3    H116137   6.795   6.510   4.015
 5391TIP3    H216138   6.884   6.393   4.049
 5392TIP3   OH216139   4.643   2.932   1.892
 5392TIP3    H116140   4.716   2.984   1.858
 5392TIP3    H216141   4.685   2.863   1.944
 5393TIP3   OH216142   2.073   6.334   3.691
 5393TIP3    H116143   1.986   6.372   3.687
 5393TIP3    H216144   2.060   6.245   3.725
 5394TIP3   OH216145   0.470   5.905   2.014
 5394TIP3    H116146   0.495   5.932   2.102
 5394TIP3    H216147   0.538   5.939   1.958
 5395TIP3   OH216148   6.364   4.637   1.631
 5395TIP3    H116149   6.284   4.612   1.677
 5395TIP3    H216150   6.370   4.575   1.558
 5396TIP3   OH216151   3.758   2.956   2.991
 5396TIP3    H116152   3.777   2.867   2.961
 5396TIP3    H216153   3.702   2.944   3.067
 5397TIP3   OH216154   0.388   2.484   3.524
 5397TIP3    H116155   0.319   2.447   3.469
 5397TIP3    H216156   0.445   2.410   3.544
 5398TIP3   OH216157   2.247   0.656   5.061
 5398TIP3    H116158   2.192   0.578   5.051
 5398TIP3    H216159   2.300   0.660   4.981
 5399TIP3   OH216160   6.959   2.866   3.210
 5399TIP3    H116161   7.004   2.834   3.288
 5399TIP3    H216162   6.896   2.930   3.243
 5400TIP3   OH216163   6.488   3.025   0.388
 5400TIP3    H116164   6.469   3.087   0.459
 5400TIP3    H216165   6.505   2.942   0.433
 5401TIP3   OH216166   0.834   0.377   4.358
 5401TIP3    H116167   0.821   0.282   4.354
 5401TIP3    H216168   0.887   0.397   4.281
 5402TIP3   OH216169   5.644   5.459   4.371
 5402TIP3    H116170   5.549   5.473   4.367
 5402TIP3    H216171   5.669   5.482   4.460
 5403TIP3   OH216172   2.694   3.129   5.487
 5403TIP3    H116173   2.694   3.107   5.394
 5403TIP3    H216174   2.698   3.224   5.489
 5404TIP3   OH216175   0.465   6.446   5.742
 5404TIP3    H116176   0.433   6.378   5.682
 5404TIP3    H216177   0.556   6.423   5.757
 5405TIP3   OH216178   6.344   6.604   2.127
 5405TIP3    H116179   6.311   6.667   2.191
 5405TIP3    H216180   6.290   6.620   2.049
 5406TIP3   OH216181   4.718   2.119   1.383
 5406TIP3    H116182   4.661   2.044   1.367
 5406TIP3    H216183   4.659   2.188   1.413
 5407TIP3   OH216184   1.464   4.860   4.425
 5407TIP3    H116185   1.555   4.880   4.445
 5407TIP3    H216186   1.458   4.868   4.330
 5408TIP3   OH216187   3.557   5.156   3.227
 5408TIP3    H116188   3.605   5.208   3.292
 5408TIP3    H216189   3.615   5.083   3.207
 5409TIP3   OH216190   3.811   4.470   3.065
 5409TIP3    H116191   3.795   4.561   3.041
 5409TIP3    H216192   3.826   4.425   2.981
 5410TIP3   OH216193   1.375   3.960   2.657
 5410TIP3    H116194   1.455   4.000   2.623
 5410TIP3    H216195   1.309   3.980   2.591
 5411TIP3   OH216196   6.722   3.582   0.845
 5411TIP3    H116197   6.666   3.660   0.841
 5411TIP3    H216198   6.738   3.570   0.939
 5412TIP3   OH216199   0.848   2.519   2.779
 5412TIP3    H116200   0.763   2.477   2.768
 5412TIP3    H216201   0.862   2.519   2.873
 5413TIP3   OH216202   3.365   1.060   3.352
 5413TIP3    H116203   3.364   1.155   3.357
 5413TIP3    H216204   3.325   1.039   3.268
 5414TIP3   OH216205   0.211   1.683   1.920
 5414TIP3    H116206   0.229   1.642   2.004
 5414TIP3    H216207   0.157   1.758   1.940
 5415TIP3   OH216208   0.394   0.422   5.309
 5415TIP3    H116209   0.459   0.481   5.270
 5415TIP3    H216210   0.310   0.463   5.291
 5416TIP3   OH216211   5.419   1.486   4.242
 5416TIP3    H116212   5.435   1.392   4.241
 5416TIP3    H216213   5.427   1.511   4.334
 5417TIP3   OH216214   1.987   4.444   1.320
 5417TIP3    H116215   1.971   4.350   1.317
 5417TIP3    H216216   1.906   4.481   1.356
 5418TIP3   OH216217   2.250   4.874   4.772
 5418TIP3    H116218   2.254   4.790   4.726
 5418TIP3    H216219   2.166   4.872   4.818
 5419TIP3   OH216220   4.540   2.269   5.303
 5419TIP3    H116221   4.521   2.363   5.309
 5419TIP3    H216222   4.547   2.240   5.394
 5420TIP3   OH216223   0.531   3.549   5.152
 5420TIP3    H116224   0.524   3.605   5.074
 5420TIP3    H216225   0.495   3.601   5.223
 5421TIP3   OH216226   1.201   0.611   3.005
 5421TIP3    H116227   1.234   0.522   2.998
 5421TIP3    H216228   1.109   0.602   3.031
 5422TIP3   OH216229   5.634   3.155   4.531
 5422TIP3    H116230   5.728   3.152   4.547
 5422TIP3    H216231   5.602   3.070   4.561
 5423TIP3   OH216232   2.730   2.007   4.767
 5423TIP3    H116233   2.812   1.969   4.737
 5423TIP3    H216234   2.695   2.053   4.690
 5424TIP3   OH216235   3.067   1.693   3.031
 5424TIP3    H116236   3.000   1.757   3.053
 5424TIP3    H216237   3.023   1.608   3.039
 5425TIP3   OH216238   0.804   6.056   4.679
 5425TIP3    H116239   0.724   6.012   4.707
 5425TIP3    H216240   0.874   6.004   4.718
 5426TIP3   OH216241   5.862   3.480   2.978
 5426TIP3    H116242   5.954   3.459   2.993
 5426TIP3    H216243   5.861   3.525   2.894
 5427TIP3   OH216244   6.560   0.884   1.570
 5427TIP3    H116245   6.532   0.914   1.483
 5427TIP3    H216246   6.482   0.842   1.607
 5428TIP3   OH216247   5.590   4.298   1.125
 5428TIP3    H116248   5.660   4.360   1.106
 5428TIP3    H216249   5.632   4.228   1.175
 5429TIP3   OH216250   6.029   3.252   2.769
 5429TIP3    H116251   6.016   3.164   2.733
 5429TIP3    H216252   5.957   3.304   2.734
 5430TIP3   OH216253   4.639   1.815   0.115
 5430TIP3    H116254   4.675   1.850   0.196
 5430TIP3    H216255   4.564   1.872   0.096
 5431TIP3   OH216256   1.574   6.654   1.704
 5431TIP3    H116257   1.633   6.658   1.629
 5431TIP3    H216258   1.608   6.719   1.766
 5432TIP3   OH216259   7.157   0.804   4.760
 5432TIP3    H116260   7.157   0.808   4.856
 5432TIP3    H216261   7.202   0.722   4.739
 5433TIP3   OH216262   1.516   1.920   5.771
 5433TIP3    H116263   1.562   1.953   5.693
 5433TIP3    H216264   1.519   1.992   5.833
 5434TIP3   OH216265   3.191   1.453   0.548
 5434TIP3    H116266   3.126   1.436   0.480
 5434TIP3    H216267   3.158   1.529   0.595
 5435TIP3   OH216268   0.882   1.988   5.546
 5435TIP3    H116269   0.822   2.050   5.586
 5435TIP3    H216270   0.968   2.010   5.584
 5436TIP3   OH216271   6.458   5.457   0.811
 5436TIP3    H116272   6.457   5.361   0.819
 5436TIP3    H216273   6.550   5.479   0.795
 5437TIP3   OH216274   3.683   3.329   3.971
 5437TIP3    H116275   3.767   3.306   3.930
 5437TIP3    H216276   3.623   3.341   3.897
 5438TIP3   OH216277   3.425   0.698   3.494
 5438TIP3    H116278   3.418   0.603   3.483
 5438TIP3    H216279   3.341   0.724   3.533
 5439TIP3   OH216280   5.665   2.210   5.532
 5439TIP3    H116281   5.756   2.179   5.529
 5439TIP3    H216282   5.619   2.152   5.472
 5440TIP3   OH216283   5.876   0.339   0.968
 5440TIP3    H116284   5.787   0.352   1.001
 5440TIP3    H216285   5.869   0.262   0.911
 5441TIP3   OH216286   7.075   1.280   3.840
 5441TIP3    H116287   7.128   1.209   3.803
 5441TIP3    H216288   7.118   1.302   3.922
 5442TIP3   OH216289   6.075   4.984   4.692
 5442TIP3    H116290   6.092   5.036   4.613
 5442TIP3    H216291   6.141   5.012   4.754
 5443TIP3   OH216292   1.053   5.838   0.745
 5443TIP3    H116293   0.974   5.784   0.744
 5443TIP3    H216294   1.111   5.797   0.681
 5444TIP3   OH216295   3.794   5.383   5.094
 5444TIP3    H116296   3.708   5.346   5.111
 5444TIP3    H216297   3.778   5.477   5.083
 5445TIP3   OH216298   5.406   5.164   2.719
 5445TIP3    H116299   5.459   5.238   2.748
 5445TIP3    H216300   5.466   5.111   2.667
 5446TIP3   OH216301   1.632   0.679   1.126
 5446TIP3    H116302   1.647   0.623   1.202
 5446TIP3    H216303   1.615   0.766   1.164
 5447TIP3   OH216304   5.193   1.253   3.763
 5447TIP3    H116305   5.239   1.310   3.824
 5447TIP3    H216306   5.102   1.281   3.768
 5448TIP3   OH216307   4.381   4.664   4.414
 5448TIP3    H116308   4.312   4.599   4.401
 5448TIP3    H216309   4.400   4.661   4.508
 5449TIP3   OH216310   1.782   3.468   4.625
 5449TIP3    H116311   1.740   3.443   4.707
 5449TIP3    H216312   1.870   3.497   4.651
 5450TIP3   OH216313   4.582   3.947   4.592
 5450TIP3    H116314   4.652   3.885   4.571
 5450TIP3    H216315   4.587   3.957   4.687
 5451TIP3   OH216316   5.127   2.252   2.120
 5451TIP3    H116317   5.042   2.292   2.140
 5451TIP3    H216318   5.108   2.159   2.106
 5452TIP3   OH216319   1.684   4.416   3.878
 5452TIP3    H116320   1.719   4.363   3.949
 5452TIP3    H216321   1.658   4.352   3.811
 5453TIP3   OH216322   3.094   0.097   5.432
 5453TIP3    H116323   3.071   0.073   5.342
 5453TIP3    H216324   3.032   0.166   5.455
 5454TIP3   OH216325   6.510   2.903   0.142
 5454TIP3    H116326   6.500   2.978   0.201
 5454TIP3    H216327   6.457   2.834   0.183
 5455TIP3   OH216328   3.054   3.709   0.054
 5455TIP3    H116329   3.145   3.730   0.078
 5455TIP3    H216330   3.008   3.703   0.138
 5456TIP3   OH216331   5.998   5.500   2.675
 5456TIP3    H116332   5.913   5.502   2.720
 5456TIP3    H216333   6.061   5.528   2.742
 5457TIP3   OH216334   4.417   2.017   3.384
 5457TIP3    H116335   4.379   2.103   3.397
 5457TIP3    H216336   4.388   1.966   3.460
 5458TIP3   OH216337   0.334   4.404   3.923
 5458TIP3    H116338   0.329   4.324   3.975
 5458TIP3    H216339   0.302   4.472   3.981
 5459TIP3   OH216340   3.180   4.812   4.839
 5459TIP3    H116341   3.214   4.861   4.914
 5459TIP3    H216342   3.212   4.861   4.762
 5460TIP3   OH216343   2.285   2.157   0.660
 5460TIP3    H116344   2.253   2.150   0.750
 5460TIP3    H216345   2.265   2.072   0.621
 5461TIP3   OH216346   0.850   6.126   4.994
 5461TIP3    H116347   0.788   6.076   5.047
 5461TIP3    H216348   0.804   6.143   4.912
 5462TIP3   OH216349   6.020   2.450   1.111
 5462TIP3    H116350   6.086   2.455   1.180
 5462TIP3    H216351   5.939   2.477   1.152
 5463TIP3   OH216352   1.679   1.343   2.563
 5463TIP3    H116353   1.652   1.275   2.624
 5463TIP3    H216354   1.641   1.424   2.598
 5464TIP3   OH216355   0.772   5.349   4.358
 5464TIP3    H116356   0.811   5.406   4.292
 5464TIP3    H216357   0.681   5.378   4.364
 5465TIP3   OH216358   3.645   0.436   0.430
 5465TIP3    H116359   3.626   0.526   0.403
 5465TIP3    H216360   3.644   0.439   0.526
 5466TIP3   OH216361   6.925   0.304   3.198
 5466TIP3    H116362   6.954   0.302   3.107
 5466TIP3    H216363   7.005   0.295   3.250
 5467TIP3   OH216364   4.963   6.428   3.897
 5467TIP3    H116365   5.008   6.434   3.981
 5467TIP3    H216366   5.033   6.415   3.833
 5468TIP3   OH216367   7.173   1.298   2.427
 5468TIP3    H116368   7.119   1.336   2.357
 5468TIP3    H216369   7.257   1.281   2.385
 5469TIP3   OH216370   4.734   3.900   3.316
 5469TIP3    H116371   4.684   3.960   3.260
 5469TIP3    H216372   4.813   3.881   3.266
 5470TIP3   OH216373   5.906   3.146   4.617
 5470TIP3    H116374   5.995   3.167   4.592
 5470TIP3    H216375   5.913   3.067   4.670
 5471TIP3   OH216376   2.982   6.633   5.490
 5471TIP3    H116377   2.933   6.556   5.519
 5471TIP3    H216378   3.061   6.596   5.449
 5472TIP3   OH216379   2.246   4.129   5.497
 5472TIP3    H116380   2.244   4.202   5.558
 5472TIP3    H216381   2.163   4.134   5.450
 5473TIP3   OH216382   2.682   4.276   5.168
 5473TIP3    H116383   2.751   4.224   5.127
 5473TIP3    H216384   2.602   4.226   5.154
 5474TIP3   OH216385   5.594   4.953   0.522
 5474TIP3    H116386   5.512   5.003   0.529
 5474TIP3    H216387   5.573   4.882   0.462
 5475TIP3   OH216388   4.229   0.559   2.274
 5475TIP3    H116389   4.262   0.476   2.308
 5475TIP3    H216390   4.306   0.602   2.237
 5476TIP3   OH216391   3.295   2.741   2.297
 5476TIP3    H116392   3.264   2.791   2.372
 5476TIP3    H216393   3.287   2.649   2.324
 5477TIP3   OH216394   2.336   2.318   1.223
 5477TIP3    H116395   2.366   2.409   1.227
 5477TIP3    H216396   2.270   2.311   1.292
 5478TIP3   OH216397   2.329   4.402   1.204
 5478TIP3    H116398   2.280   4.461   1.261
 5478TIP3    H216399   2.379   4.347   1.264
 5479TIP3   OH216400   6.095   0.711   5.096
 5479TIP3    H116401   6.025   0.682   5.154
 5479TIP3    H216402   6.073   0.802   5.076
 5480TIP3   OH216403   5.280   3.835   3.990
 5480TIP3    H116404   5.243   3.836   3.902
 5480TIP3    H216405   5.208   3.859   4.047
 5481TIP3   OH216406   4.210   6.014   1.237
 5481TIP3    H116407   4.238   6.019   1.145
 5481TIP3    H216408   4.228   6.102   1.272
 5482TIP3   OH216409   3.574   5.609   2.008
 5482TIP3    H116410   3.515   5.669   1.963
 5482TIP3    H216411   3.588   5.649   2.094
 5483TIP3   OH216412   1.814   3.941   1.793
 5483TIP3    H116413   1.886   3.880   1.783
 5483TIP3    H216414   1.855   4.023   1.822
 5484TIP3   OH216415   6.896   1.480   1.088
 5484TIP3    H116416   6.954   1.411   1.122
 5484TIP3    H216417   6.938   1.509   1.007
 5485TIP3   OH216418   5.862   4.856   4.586
 5485TIP3    H116419   5.915   4.908   4.647
 5485TIP3    H216420   5.924   4.792   4.550
 5486TIP3   OH216421   6.674   3.851   4.225
 5486TIP3    H116422   6.708   3.867   4.312
 5486TIP3    H216423   6.625   3.930   4.203
 5487TIP3   OH216424   2.195   1.595   4.505
 5487TIP3    H116425   2.214   1.689   4.499
 5487TIP3    H216426   2.103   1.591   4.529
 5488TIP3   OH216427   1.799   5.805   2.710
 5488TIP3    H116428   1.880   5.756   2.724
 5488TIP3    H216429   1.812   5.848   2.625
 5489TIP3   OH216430   5.473   1.147   0.303
 5489TIP3    H116431   5.412   1.214   0.333
 5489TIP3    H216432   5.483   1.164   0.209
 5490TIP3   OH216433   7.163   3.353   1.852
 5490TIP3    H116434   7.201   3.439   1.868
 5490TIP3    H216435   7.100   3.340   1.924
 5491TIP3   OH216436   4.480   0.684   1.206
 5491TIP3    H116437   4.524   0.601   1.192
 5491TIP3    H216438   4.387   0.663   1.202
 5492TIP3   OH216439   6.254   0.787   5.761
 5492TIP3    H116440   6.186   0.815   5.823
 5492TIP3    H216441   6.205   0.759   5.684
 5493TIP3   OH216442   1.403   1.966   3.290
 5493TIP3    H116443   1.326   2.003   3.332
 5493TIP3    H216444   1.473   2.028   3.310
 5494TIP3   OH216445   1.156   6.544   5.533
 5494TIP3    H116446   1.111   6.530   5.616
 5494TIP3    H216447   1.100   6.500   5.468
 5495TIP3   OH216448   6.994   1.560   3.790
 5495TIP3    H116449   7.011   1.466   3.794
 5495TIP3    H216450   7.079   1.601   3.807
 5496TIP3   OH216451   1.381   3.371   2.135
 5496TIP3    H116452   1.404   3.462   2.114
 5496TIP3    H216453   1.293   3.377   2.172
 5497TIP3   OH216454   4.293   3.533   4.620
 5497TIP3    H116455   4.200   3.546   4.639
 5497TIP3    H216456   4.339   3.576   4.692
 5498TIP3   OH216457   3.675   6.390   3.132
 5498TIP3    H116458   3.618   6.439   3.191
 5498TIP3    H216459   3.702   6.313   3.183
 5499TIP3   OH216460   5.054   3.485   3.792
 5499TIP3    H116461   5.076   3.391   3.796
 5499TIP3    H216462   4.963   3.489   3.821
 5500TIP3   OH216463   3.702   1.292   0.558
 5500TIP3    H116464   3.614   1.324   0.540
 5500TIP3    H216465   3.727   1.244   0.479
 5501TIP3   OH216466   1.591   1.451   4.822
 5501TIP3    H116467   1.514   1.501   4.794
 5501TIP3    H216468   1.556   1.367   4.851
 5502TIP3   OH216469   6.108   3.536   4.928
 5502TIP3    H116470   6.050   3.510   4.856
 5502TIP3    H216471   6.061   3.512   5.007
 5503TIP3   OH216472   1.287   1.584   0.358
 5503TIP3    H116473   1.336   1.663   0.336
 5503TIP3    H216474   1.309   1.522   0.288
 5504TIP3   OH216475   0.947   0.825   4.562
 5504TIP3    H116476   0.868   0.871   4.590
 5504TIP3    H216477   0.932   0.734   4.587
 5505TIP3   OH216478   3.276   0.595   1.350
 5505TIP3    H116479   3.363   0.561   1.368
 5505TIP3    H216480   3.244   0.626   1.434
 5506TIP3   OH216481   5.190   1.553   0.764
 5506TIP3    H116482   5.260   1.577   0.826
 5506TIP3    H216483   5.171   1.634   0.718
 5507TIP3   OH216484   6.629   5.600   3.195
 5507TIP3    H116485   6.566   5.584   3.265
 5507TIP3    H216486   6.704   5.544   3.218
 5508TIP3   OH216487   6.869   4.450   3.984
 5508TIP3    H116488   6.817   4.511   4.035
 5508TIP3    H216489   6.944   4.502   3.953
 5509TIP3   OH216490   2.143   6.635   1.921
 5509TIP3    H116491   2.069   6.657   1.978
 5509TIP3    H216492   2.109   6.565   1.864
 5510TIP3   OH216493   6.259   2.315   2.408
 5510TIP3    H116494   6.327   2.331   2.474
 5510TIP3    H216495   6.289   2.361   2.330
 5511TIP3   OH216496   3.378   5.098   3.028
 5511TIP3    H116497   3.438   5.137   3.091
 5511TIP3    H216498   3.434   5.058   2.962
 5512TIP3   OH216499   5.081   0.206   3.625
 5512TIP3    H116500   5.033   0.123   3.621
 5512TIP3    H216501   5.159   0.191   3.571
 5513TIP3   OH216502   0.598   3.967   4.569
 5513TIP3    H116503   0.566   3.879   4.545
 5513TIP3    H216504   0.530   4.026   4.537
 5514TIP3   OH216505   6.768   3.598   4.195
 5514TIP3    H116506   6.741   3.690   4.187
 5514TIP3    H216507   6.704   3.560   4.255
 5515TIP3   OH216508   0.997   5.281   1.315
 5515TIP3    H116509   0.967   5.283   1.406
 5515TIP3    H216510   1.018   5.189   1.299
 5516TIP3   OH216511   6.952   4.609   1.448
 5516TIP3    H116512   6.978   4.701   1.449
 5516TIP3    H216513   7.030   4.562   1.418
 5517TIP3   OH216514   3.708   1.996   0.666
 5517TIP3    H116515   3.685   2.040   0.749
 5517TIP3    H216516   3.643   2.028   0.604
 5518TIP3   OH216517   1.959   2.346   1.032
 5518TIP3    H116518   1.972   2.435   1.065
 5518TIP3    H216519   2.034   2.329   0.975
 5519TIP3   OH216520   1.358   5.318   0.115
 5519TIP3    H116521   1.275   5.340   0.157
 5519TIP3    H216522   1.361   5.223   0.113
 5520TIP3   OH216523   1.160   2.817   2.759
 5520TIP3    H116524   1.140   2.727   2.737
 5520TIP3    H216525   1.099   2.869   2.707
 5521TIP3   OH216526   4.564   2.510   2.157
 5521TIP3    H116527   4.535   2.419   2.152
 5521TIP3    H216528   4.486   2.561   2.132
 5522TIP3   OH216529   3.297   2.163   0.146
 5522TIP3    H116530   3.321   2.230   0.083
 5522TIP3    H216531   3.278   2.085   0.093
 5523TIP3   OH216532   6.830   6.840   3.627
 5523TIP3    H116533   6.814   6.780   3.554
 5523TIP3    H216534   6.752   6.895   3.630
 5524TIP3   OH216535   0.480   2.331   5.360
 5524TIP3    H116536   0.469   2.410   5.413
 5524TIP3    H216537   0.475   2.361   5.270
 5525TIP3   OH216538   1.466   0.008   5.598
 5525TIP3    H116539   1.377   0.008   5.633
 5525TIP3    H216540   1.495   0.099   5.607
 5526TIP3   OH216541   4.411   3.646   2.319
 5526TIP3    H116542   4.488   3.592   2.332
 5526TIP3    H216543   4.443   3.736   2.325
 5527TIP3   OH216544   5.728   1.588   5.305
 5527TIP3    H116545   5.692   1.654   5.246
 5527TIP3    H216546   5.656   1.526   5.319
 5528TIP3   OH216547   6.565   0.379   0.320
 5528TIP3    H116548   6.485   0.428   0.341
 5528TIP3    H216549   6.546   0.290   0.348
 5529TIP3   OH216550   1.662   3.902   5.554
 5529TIP3    H116551   1.642   3.961   5.481
 5529TIP3    H216552   1.596   3.923   5.620
 5530TIP3   OH216553   4.379   4.835   4.961
 5530TIP3    H116554   4.287   4.854   4.944
 5530TIP3    H216555   4.406   4.901   5.026
 5531TIP3   OH216556   6.258   1.644   2.220
 5531TIP3    H116557   6.227   1.721   2.268
 5531TIP3    H216558   6.289   1.584   2.288
 5532TIP3   OH216559   4.800   0.923   2.064
 5532TIP3    H116560   4.782   0.936   2.157
 5532TIP3    H216561   4.779   1.007   2.023
 5533TIP3   OH216562   1.639   1.586   4.410
 5533TIP3    H116563   1.613   1.598   4.501
 5533TIP3    H216564   1.556   1.573   4.363
 5534TIP3   OH216565   2.995   2.485   0.522
 5534TIP3    H116566   2.954   2.403   0.550
 5534TIP3    H216567   2.972   2.493   0.430
 5535TIP3   OH216568   2.212   0.462   1.382
 5535TIP3    H116569   2.215   0.556   1.400
 5535TIP3    H216570   2.302   0.432   1.393
 5536TIP3   OH216571   6.885   4.260   2.198
 5536TIP3    H116572   6.790   4.273   2.197
 5536TIP3    H216573   6.913   4.273   2.108
 5537TIP3   OH216574   6.367   0.685   5.201
 5537TIP3    H116575   6.419   0.728   5.133
 5537TIP3    H216576   6.276   0.711   5.182
 5538TIP3   OH216577   4.188   5.754   0.230
 5538TIP3    H116578   4.106   5.708   0.247
 5538TIP3    H216579   4.241   5.692   0.181
 5539TIP3   OH216580   4.042   0.877   4.927
 5539TIP3    H116581   4.016   0.902   4.838
 5539TIP3    H216582   3.975   0.917   4.983
 5540TIP3   OH216583   4.831   5.614   3.478
 5540TIP3    H116584   4.861   5.638   3.390
 5540TIP3    H216585   4.891   5.658   3.537
 5541TIP3   OH216586   3.879   6.784   0.497
 5541TIP3    H116587   3.874   6.877   0.518
 5541TIP3    H216588   3.940   6.747   0.561
 5542TIP3   OH216589   1.492   3.466   4.090
 5542TIP3    H116590   1.424   3.532   4.075
 5542TIP3    H216591   1.557   3.509   4.144
 5543TIP3   OH216592   0.120   6.146   1.274
 5543TIP3    H116593   0.035   6.124   1.311
 5543TIP3    H216594   0.100   6.209   1.205
 5544TIP3   OH216595   0.373   2.439   3.083
 5544TIP3    H116596   0.437   2.510   3.076
 5544TIP3    H216597   0.292   2.475   3.046
 5545TIP3   OH216598   2.432   6.093   5.358
 5545TIP3    H116599   2.508   6.139   5.395
 5545TIP3    H216600   2.465   6.004   5.341
 5546TIP3   OH216601   2.190   1.659   4.836
 5546TIP3    H116602   2.237   1.627   4.759
 5546TIP3    H216603   2.100   1.630   4.824
 5547TIP3   OH216604   1.526   3.649   3.591
 5547TIP3    H116605   1.469   3.719   3.557
 5547TIP3    H216606   1.542   3.673   3.682
 5548TIP3   OH216607   1.962   0.676   2.461
 5548TIP3    H116608   1.958   0.709   2.371
 5548TIP3    H216609   2.052   0.695   2.489
 5549TIP3   OH216610   5.706   3.752   1.947
 5549TIP3    H116611   5.628   3.717   1.991
 5549TIP3    H216612   5.777   3.696   1.978
 5550TIP3   OH216613   5.489   5.737   5.337
 5550TIP3    H116614   5.559   5.727   5.273
 5550TIP3    H216615   5.513   5.679   5.409
 5551TIP3   OH216616   7.090   1.411   1.905
 5551TIP3    H116617   7.055   1.458   1.829
 5551TIP3    H216618   7.184   1.403   1.887
 5552TIP3   OH216619   6.395   1.475   0.239
 5552TIP3    H116620   6.328   1.459   0.305
 5552TIP3    H216621   6.474   1.436   0.275
 5553TIP3   OH216622   7.206   3.862   3.636
 5553TIP3    H116623   7.163   3.934   3.591
 5553TIP3    H216624   7.299   3.882   3.630
 5554TIP3   OH216625   3.545   1.630   2.304
 5554TIP3    H116626   3.575   1.707   2.256
 5554TIP3    H216627   3.458   1.612   2.267
 5555TIP3   OH216628   2.306   0.713   1.357
 5555TIP3    H116629   2.399   0.719   1.335
 5555TIP3    H216630   2.297   0.764   1.437
 5556TIP3   OH216631   2.557   3.886   0.687
 5556TIP3    H116632   2.484   3.916   0.740
 5556TIP3    H216633   2.564   3.950   0.616
 5557TIP3   OH216634   4.508   3.108   2.768
 5557TIP3    H116635   4.594   3.089   2.730
 5557TIP3    H216636   4.487   3.196   2.735
 5558TIP3   OH216637   1.988   3.745   5.396
 5558TIP3    H116638   2.044   3.756   5.473
 5558TIP3    H216639   1.980   3.833   5.359
 5559TIP3   OH216640   4.928   3.481   5.508
 5559TIP3    H116641   4.927   3.550   5.443
 5559TIP3    H216642   4.863   3.509   5.573
 5560TIP3   OH216643   3.170   4.831   5.292
 5560TIP3    H116644   3.118   4.901   5.331
 5560TIP3    H216645   3.108   4.760   5.277
 5561TIP3   OH216646   4.781   1.460   3.640
 5561TIP3    H116647   4.718   1.434   3.706
 5561TIP3    H216648   4.783   1.556   3.645
 5562TIP3   OH216649   4.390   1.868   0.309
 5562TIP3    H116650   4.370   1.905   0.223
 5562TIP3    H216651   4.329   1.795   0.318
 5563TIP3   OH216652   2.329   1.944   2.499
 5563TIP3    H116653   2.266   1.893   2.550
 5563TIP3    H216654   2.404   1.885   2.488
 5564TIP3   OH216655   1.884   3.204   5.542
 5564TIP3    H116656   1.903   3.165   5.627
 5564TIP3    H216657   1.887   3.298   5.557
 5565TIP3   OH216658   2.799   0.291   3.165
 5565TIP3    H116659   2.868   0.278   3.230
 5565TIP3    H216660   2.717   0.283   3.215
 5566TIP3   OH216661   6.197   4.018   2.630
 5566TIP3    H116662   6.229   3.977   2.711
 5566TIP3    H216663   6.102   4.016   2.639
 5567TIP3   OH216664   0.338   4.864   1.410
 5567TIP3    H116665   0.252   4.904   1.399
 5567TIP3    H216666   0.397   4.937   1.427
 5568TIP3   OH216667   5.248   1.818   3.449
 5568TIP3    H116668   5.293   1.759   3.388
 5568TIP3    H216669   5.157   1.817   3.420
 5569TIP3   OH216670   4.104   0.272   3.927
 5569TIP3    H116671   4.199   0.275   3.938
 5569TIP3    H216672   4.077   0.364   3.920
 5570TIP3   OH216673   6.030   0.611   0.525
 5570TIP3    H116674   6.065   0.558   0.596
 5570TIP3    H216675   6.036   0.701   0.556
 5571TIP3   OH216676   1.980   2.565   2.662
 5571TIP3    H116677   2.029   2.645   2.682
 5571TIP3    H216678   1.964   2.525   2.748
 5572TIP3   OH216679   3.279   5.982   5.254
 5572TIP3    H116680   3.243   5.902   5.216
 5572TIP3    H216681   3.209   6.047   5.246
 5573TIP3   OH216682   5.498   0.706   2.920
 5573TIP3    H116683   5.453   0.748   2.847
 5573TIP3    H216684   5.474   0.759   2.996
 5574TIP3   OH216685   0.369   0.715   5.451
 5574TIP3    H116686   0.413   0.696   5.534
 5574TIP3    H216687   0.277   0.727   5.475
 5575TIP3   OH216688   3.056   5.664   5.369
 5575TIP3    H116689   3.037   5.573   5.346
 5575TIP3    H216690   3.129   5.688   5.312
 5576TIP3   OH216691   3.096   5.111   0.792
 5576TIP3    H116692   3.173   5.072   0.832
 5576TIP3    H216693   3.066   5.045   0.729
 5577TIP3   OH216694   5.174   5.963   4.546
 5577TIP3    H116695   5.120   5.972   4.624
 5577TIP3    H216696   5.181   6.053   4.512
 5578TIP3   OH216697   2.779   0.408   5.272
 5578TIP3    H116698   2.828   0.457   5.206
 5578TIP3    H216699   2.687   0.421   5.248
 5579TIP3   OH216700   4.651   6.055   5.308
 5579TIP3    H116701   4.671   6.146   5.333
 5579TIP3    H216702   4.677   6.050   5.216
 5580TIP3   OH216703   2.932   5.031   1.958
 5580TIP3    H116704   2.995   5.078   2.014
 5580TIP3    H216705   2.909   4.953   2.008
 5581TIP3   OH216706   0.757   4.706   5.193
 5581TIP3    H116707   0.761   4.746   5.106
 5581TIP3    H216708   0.843   4.667   5.206
 5582TIP3   OH216709   2.465   5.238   4.248
 5582TIP3    H116710   2.406   5.191   4.190
 5582TIP3    H216711   2.449   5.331   4.228
 5583TIP3   OH216712   3.392   2.014   1.244
 5583TIP3    H116713   3.440   1.983   1.168
 5583TIP3    H216714   3.303   2.027   1.211
 5584TIP3   OH216715   5.727   1.581   0.965
 5584TIP3    H116716   5.692   1.649   0.908
 5584TIP3    H216717   5.662   1.572   1.035
 5585TIP3   OH216718   1.696   5.678   0.424
 5585TIP3    H116719   1.661   5.596   0.391
 5585TIP3    H216720   1.790   5.660   0.436
 5586TIP3   OH216721   5.861   1.825   1.208
 5586TIP3    H116722   5.766   1.835   1.211
 5586TIP3    H216723   5.883   1.779   1.289
 5587TIP3   OH216724   6.857   6.583   0.302
 5587TIP3    H116725   6.833   6.674   0.323
 5587TIP3    H216726   6.943   6.590   0.260
 5588TIP3   OH216727   5.592   2.716   1.224
 5588TIP3    H116728   5.550   2.792   1.185
 5588TIP3    H216729   5.530   2.644   1.210
 5589TIP3   OH216730   3.514   0.591   4.199
 5589TIP3    H116731   3.462   0.650   4.145
 5589TIP3    H216732   3.551   0.647   4.267
 5590TIP3   OH216733   2.997   6.372   1.149
 5590TIP3    H116734   3.033   6.336   1.230
 5590TIP3    H216735   3.071   6.371   1.088
 5591TIP3   OH216736   6.837   2.490   3.886
 5591TIP3    H116737   6.918   2.442   3.868
 5591TIP3    H216738   6.767   2.429   3.864
 5592TIP3   OH216739   4.941   6.142   3.738
 5592TIP3    H116740   4.982   6.107   3.818
 5592TIP3    H216741   5.015   6.159   3.679
 5593TIP3   OH216742   4.796   0.543   4.737
 5593TIP3    H116743   4.881   0.572   4.704
 5593TIP3    H216744   4.754   0.622   4.769
 5594TIP3   OH216745   4.924   6.008   2.356
 5594TIP3    H116746   4.957   6.016   2.446
 5594TIP3    H216747   4.834   6.041   2.360
 5595TIP3   OH216748   1.249   4.658   5.278
 5595TIP3    H116749   1.239   4.618   5.192
 5595TIP3    H216750   1.160   4.660   5.315
 5596TIP3   OH216751   2.554   6.459   0.756
 5596TIP3    H116752   2.463   6.487   0.754
 5596TIP3    H216753   2.593   6.500   0.678
 5597TIP3   OH216754   2.245   1.927   0.538
 5597TIP3    H116755   2.189   1.907   0.463
 5597TIP3    H216756   2.215   1.866   0.606
 5598TIP3   OH216757   1.300   0.306   2.739
 5598TIP3    H116758   1.235   0.258   2.688
 5598TIP3    H216759   1.290   0.397   2.713
 5599TIP3   OH216760   0.886   6.730   1.640
 5599TIP3    H116761   0.889   6.816   1.681
 5599TIP3    H216762   0.835   6.743   1.560
 5600TIP3   OH216763   0.669   2.433   1.390
 5600TIP3    H116764   0.578   2.407   1.405
 5600TIP3    H216765   0.715   2.411   1.471
 5601TIP3   OH216766   0.980   5.108   5.546
 5601TIP3    H116767   0.992   5.171   5.617
 5601TIP3    H216768   0.887   5.083   5.551
 5602TIP3   OH216769   6.820   0.728   3.220
 5602TIP3    H116770   6.906   0.697   3.192
 5602TIP3    H216771   6.781   0.653   3.265
 5603TIP3   OH216772   3.902   0.261   0.641
 5603TIP3    H116773   3.932   0.342   0.601
 5603TIP3    H216774   3.860   0.213   0.570
 5604TIP3   OH216775   3.009   2.455   5.062
 5604TIP3    H116776   2.978   2.415   4.981
 5604TIP3    H216777   3.093   2.495   5.039
 5605TIP3   OH216778   1.059   1.596   5.285
 5605TIP3    H116779   1.067   1.525   5.349
 5605TIP3    H216780   1.000   1.659   5.327
 5606TIP3   OH216781   3.179   3.714   5.301
 5606TIP3    H116782   3.243   3.768   5.255
 5606TIP3    H216783   3.118   3.686   5.234
 5607TIP3   OH216784   4.342   1.606   5.804
 5607TIP3    H116785   4.323   1.546   5.732
 5607TIP3    H216786   4.314   1.692   5.772
 5608TIP3   OH216787   5.167   0.243   2.109
 5608TIP3    H116788   5.215   0.312   2.155
 5608TIP3    H216789   5.109   0.206   2.175
 5609TIP3   OH216790   2.272   0.085   3.370
 5609TIP3    H116791   2.358   0.043   3.375
 5609TIP3    H216792   2.265   0.112   3.278
 5610TIP3   OH216793   3.938   6.012   0.305
 5610TIP3    H116794   3.987   6.080   0.351
 5610TIP3    H216795   4.000   5.974   0.244
 5611TIP3   OH216796   4.136   6.024   5.321
 5611TIP3    H116797   4.143   6.090   5.391
 5611TIP3    H216798   4.046   5.993   5.325
 5612TIP3   OH216799   5.160   0.595   5.798
 5612TIP3    H116800   5.147   0.610   5.891
 5612TIP3    H216801   5.252   0.613   5.783
 5613TIP3   OH216802   6.082   3.265   3.532
 5613TIP3    H116803   6.018   3.311   3.477
 5613TIP3    H216804   6.118   3.333   3.589
 5614TIP3   OH216805   1.424   3.833   1.938
 5614TIP3    H116806   1.481   3.858   1.865
 5614TIP3    H216807   1.407   3.915   1.984
 5615TIP3   OH216808   2.740   3.102   3.186
 5615TIP3    H116809   2.791   3.073   3.111
 5615TIP3    H216810   2.697   3.182   3.157
 5616TIP3   OH216811   6.385   5.410   4.940
 5616TIP3    H116812   6.370   5.321   4.911
 5616TIP3    H216813   6.469   5.406   4.987
 5617TIP3   OH216814   6.959   1.789   0.117
 5617TIP3    H116815   6.937   1.696   0.107
 5617TIP3    H216816   7.002   1.812   0.034
 5618TIP3   OH216817   3.955   4.205   0.821
 5618TIP3    H116818   4.027   4.167   0.872
 5618TIP3    H216819   3.878   4.157   0.848
 5619TIP3   OH216820   1.498   5.861   1.041
 5619TIP3    H116821   1.588   5.871   1.009
 5619TIP3    H216822   1.481   5.940   1.091
 5620TIP3   OH216823   5.127   3.886   5.366
 5620TIP3    H116824   5.108   3.895   5.459
 5620TIP3    H216825   5.208   3.936   5.353
 5621TIP3   OH216826   3.394   4.986   3.832
 5621TIP3    H116827   3.430   5.051   3.891
 5621TIP3    H216828   3.450   4.909   3.843
 5622TIP3   OH216829   6.968   1.524   1.670
 5622TIP3    H116830   6.881   1.502   1.635
 5622TIP3    H216831   7.005   1.586   1.607
 5623TIP3   OH216832   0.339   4.115   1.291
 5623TIP3    H116833   0.366   4.025   1.273
 5623TIP3    H216834   0.330   4.119   1.386
 5624TIP3   OH216835   4.517   5.100   0.361
 5624TIP3    H116836   4.559   5.037   0.420
 5624TIP3    H216837   4.497   5.175   0.417
 5625TIP3   OH216838   2.356   3.135   2.690
 5625TIP3    H116839   2.276   3.126   2.638
 5625TIP3    H216840   2.384   3.225   2.676
 5626TIP3   OH216841   5.430   4.428   3.712
 5626TIP3    H116842   5.345   4.471   3.699
 5626TIP3    H216843   5.494   4.490   3.679
 5627TIP3   OH216844   5.071   4.292   3.108
 5627TIP3    H116845   5.061   4.295   3.203
 5627TIP3    H216846   5.032   4.374   3.077
 5628TIP3   OH216847   3.800   5.670   2.608
 5628TIP3    H116848   3.868   5.615   2.646
 5628TIP3    H216849   3.774   5.625   2.528
 5629TIP3   OH216850   2.499   1.051   3.532
 5629TIP3    H116851   2.452   1.129   3.563
 5629TIP3    H216852   2.438   0.979   3.548
 5630TIP3   OH216853   3.120   5.951   2.676
 5630TIP3    H116854   3.100   5.884   2.611
 5630TIP3    H216855   3.044   5.951   2.734
 5631TIP3   OH216856   3.492   2.904   3.822
 5631TIP3    H116857   3.516   2.937   3.908
 5631TIP3    H216858   3.573   2.910   3.771
 5632TIP3   OH216859   5.731   2.257   4.042
 5632TIP3    H116860   5.664   2.310   3.999
 5632TIP3    H216861   5.761   2.310   4.115
 5633TIP3   OH216862   3.893   3.531   2.733
 5633TIP3    H116863   3.984   3.554   2.712
 5633TIP3    H216864   3.882   3.559   2.823
 5634TIP3   OH216865   2.700   0.549   2.373
 5634TIP3    H116866   2.616   0.516   2.403
 5634TIP3    H216867   2.765   0.496   2.419
 5635TIP3   OH216868   4.022   4.979   1.065
 5635TIP3    H116869   4.014   4.892   1.105
 5635TIP3    H216870   3.982   4.969   0.978
 5636TIP3   OH216871   3.401   2.624   2.052
 5636TIP3    H116872   3.334   2.556   2.051
 5636TIP3    H216873   3.376   2.680   2.125
 5637TIP3   OH216874   0.707   3.997   5.347
 5637TIP3    H116875   0.669   4.048   5.419
 5637TIP3    H216876   0.691   4.050   5.269
 5638TIP3   OH216877   0.077   3.686   5.410
 5638TIP3    H116878   0.070   3.739   5.331
 5638TIP3    H216879   0.034   3.739   5.478
 5639TIP3   OH216880   2.907   2.032   3.629
 5639TIP3    H116881   2.990   2.031   3.677
 5639TIP3    H216882   2.907   1.951   3.579
 5640TIP3   OH216883   3.980   0.509   5.757
 5640TIP3    H116884   3.967   0.603   5.743
 5640TIP3    H216885   3.998   0.474   5.670
 5641TIP3   OH216886   5.814   2.429   2.544
 5641TIP3    H116887   5.866   2.361   2.501
 5641TIP3    H216888   5.869   2.507   2.543
 5642TIP3   OH216889   5.645   1.801   5.135
 5642TIP3    H116890   5.594   1.764   5.062
 5642TIP3    H216891   5.734   1.804   5.101
 5643TIP3   OH216892   2.658   0.430   1.619
 5643TIP3    H116893   2.647   0.504   1.680
 5643TIP3    H216894   2.721   0.373   1.663
 5644TIP3   OH216895   2.462   2.641   2.641
 5644TIP3    H116896   2.546   2.623   2.682
 5644TIP3    H216897   2.427   2.716   2.690
 5645TIP3   OH216898   1.309   5.742   3.279
 5645TIP3    H116899   1.391   5.766   3.236
 5645TIP3    H216900   1.241   5.773   3.220
 5646TIP3   OH216901   1.118   5.572   3.396
 5646TIP3    H116902   1.166   5.643   3.352
 5646TIP3    H216903   1.057   5.541   3.329
 5647TIP3   OH216904   4.191   4.130   5.342
 5647TIP3    H116905   4.179   4.194   5.412
 5647TIP3    H216906   4.197   4.046   5.386
 5648TIP3   OH216907   3.482   6.675   3.751
 5648TIP3    H116908   3.408   6.638   3.703
 5648TIP3    H216909   3.441   6.728   3.820
 5649TIP3   OH216910   6.538   1.148   1.754
 5649TIP3    H116911   6.620   1.106   1.728
 5649TIP3    H216912   6.511   1.196   1.676
 5650TIP3   OH216913   0.368   5.484   0.332
 5650TIP3    H116914   0.366   5.554   0.266
 5650TIP3    H216915   0.385   5.405   0.281
 5651TIP3   OH216916   4.004   3.535   0.531
 5651TIP3    H116917   4.088   3.495   0.512
 5651TIP3    H216918   4.019   3.586   0.611
 5652TIP3   OH216919   3.978   1.446   5.418
 5652TIP3    H116920   3.911   1.512   5.401
 5652TIP3    H216921   3.930   1.363   5.417
 5653TIP3   OH216922   2.123   6.659   5.882
 5653TIP3    H116923   2.112   6.565   5.890
 5653TIP3    H216924   2.118   6.692   5.972
 5654TIP3   OH216925   3.637   0.131   5.081
 5654TIP3    H116926   3.636   0.206   5.140
 5654TIP3    H216927   3.546   0.121   5.053
 5655TIP3   OH216928   6.462   6.822   4.279
 5655TIP3    H116929   6.426   6.804   4.192
 5655TIP3    H216930   6.514   6.744   4.300
 5656TIP3   OH216931   3.630   3.322   5.666
 5656TIP3    H116932   3.632   3.274   5.749
 5656TIP3    H216933   3.611   3.256   5.600
 5657TIP3   OH216934   1.730   3.330   0.230
 5657TIP3    H116935   1.652   3.349   0.180
 5657TIP3    H216936   1.799   3.317   0.164
 5658TIP3   OH216937   5.477   1.667   0.593
 5658TIP3    H116938   5.387   1.698   0.583
 5658TIP3    H216939   5.519   1.691   0.510
 5659TIP3   OH216940  -0.054   2.025   0.528
 5659TIP3    H116941   0.034   2.019   0.566
 5659TIP3    H216942  -0.040   2.017   0.433
 5660TIP3   OH216943   0.132   0.585   2.200
 5660TIP3    H116944   0.057   0.525   2.211
 5660TIP3    H216945   0.098   0.657   2.147
 5661TIP3   OH216946   5.640   3.521   5.715
 5661TIP3    H116947   5.656   3.445   5.771
 5661TIP3    H216948   5.726   3.545   5.681
 5662TIP3   OH216949   4.617   4.850   0.808
 5662TIP3    H116950   4.638   4.942   0.794
 5662TIP3    H216951   4.696   4.803   0.782
 5663TIP3   OH216952   5.401   4.851   3.054
 5663TIP3    H116953   5.330   4.852   3.118
 5663TIP3    H216954   5.465   4.913   3.088
 5664TIP3   OH216955   4.806   1.172   4.053
 5664TIP3    H116956   4.803   1.142   4.143
 5664TIP3    H216957   4.894   1.149   4.022
 5665TIP3   OH216958   5.813   1.790   1.608
 5665TIP3    H116959   5.870   1.851   1.654
 5665TIP3    H216960   5.857   1.705   1.615
 5666TIP3   OH216961   5.633   2.913   4.640
 5666TIP3    H116962   5.681   2.888   4.561
 5666TIP3    H216963   5.593   2.831   4.669
 5667TIP3   OH216964   4.255   6.580   0.783
 5667TIP3    H116965   4.313   6.627   0.843
 5667TIP3    H216966   4.309   6.510   0.746
 5668TIP3   OH216967   4.125   2.861   5.443
 5668TIP3    H116968   4.075   2.869   5.524
 5668TIP3    H216969   4.070   2.903   5.377
 5669TIP3   OH216970   0.170   2.103   4.328
 5669TIP3    H116971   0.249   2.149   4.357
 5669TIP3    H216972   0.120   2.088   4.408
 5670TIP3   OH216973   4.193   1.564   2.416
 5670TIP3    H116974   4.145   1.491   2.456
 5670TIP3    H216975   4.128   1.635   2.409
 5671TIP3   OH216976   3.026   2.779   1.621
 5671TIP3    H116977   3.004   2.697   1.665
 5671TIP3    H216978   3.122   2.777   1.613
 5672TIP3   OH216979   6.288   3.377   3.237
 5672TIP3    H116980   6.324   3.288   3.243
 5672TIP3    H216981   6.218   3.370   3.172
 5673TIP3   OH216982   3.421   6.050   3.613
 5673TIP3    H116983   3.423   5.955   3.597
 5673TIP3    H216984   3.390   6.087   3.531
 5674TIP3   OH216985   1.361   6.668   3.927
 5674TIP3    H116986   1.386   6.698   4.015
 5674TIP3    H216987   1.416   6.720   3.868
 5675TIP3   OH216988   2.043   2.761   3.565
 5675TIP3    H116989   2.080   2.845   3.539
 5675TIP3    H216990   1.965   2.784   3.616
 5676TIP3   OH216991   6.749   3.274   3.480
 5676TIP3    H116992   6.655   3.292   3.487
 5676TIP3    H216993   6.757   3.180   3.497
 5677TIP3   OH216994   0.560   0.497   0.890
 5677TIP3    H116995   0.516   0.523   0.809
 5677TIP3    H216996   0.633   0.441   0.861
 5678TIP3   OH216997   0.432   1.018   2.918
 5678TIP3    H116998   0.416   1.081   2.989
 5678TIP3    H216999   0.444   0.934   2.962
 5679TIP3   OH217000   3.886   4.282   0.144
 5679TIP3    H117001   3.943   4.331   0.084
 5679TIP3    H217002   3.834   4.349   0.188
 5680TIP3   OH217003   3.102   0.791   4.629
 5680TIP3    H117004   3.125   0.883   4.634
 5680TIP3    H217005   3.109   0.759   4.719
 5681TIP3   OH217006   6.840   2.765   3.610
 5681TIP3    H117007   6.841   2.852   3.651
 5681TIP3    H217008   6.761   2.723   3.644
 5682TIP3   OH217009   5.858   0.227   4.569
 5682TIP3    H117010   5.834   0.222   4.662
 5682TIP3    H217011   5.816   0.307   4.538
 5683TIP3   OH217012   5.091   4.699   4.312
 5683TIP3    H117013   5.044   4.774   4.347
 5683TIP3    H217014   5.099   4.717   4.218
 5684TIP3   OH217015   2.246   2.468   2.504
 5684TIP3    H117016   2.184   2.453   2.575
 5684TIP3    H217017   2.288   2.551   2.525
 5685TIP3   OH217018   4.704   4.984   3.351
 5685TIP3    H117019   4.620   5.031   3.349
 5685TIP3    H217020   4.756   5.025   3.282
 5686TIP3   OH217021   6.434   4.123   5.494
 5686TIP3    H117022   6.452   4.091   5.406
 5686TIP3    H217023   6.446   4.046   5.550
 5687TIP3   OH217024   1.846   6.471   5.789
 5687TIP3    H117025   1.813   6.381   5.794
 5687TIP3    H217026   1.883   6.487   5.876
 5688TIP3   OH217027   5.293   2.773   0.960
 5688TIP3    H117028   5.346   2.779   0.880
 5688TIP3    H217029   5.345   2.818   1.027
 5689TIP3   OH217030   4.991   2.952   3.204
 5689TIP3    H117031   4.904   2.969   3.167
 5689TIP3    H217032   4.973   2.920   3.292
 5690TIP3   OH217033   5.959   5.310   4.842
 5690TIP3    H117034   5.890   5.291   4.906
 5690TIP3    H217035   6.038   5.273   4.882
 5691TIP3   OH217036   1.585   2.402   3.575
 5691TIP3    H117037   1.573   2.430   3.666
 5691TIP3    H217038   1.582   2.483   3.524
 5692TIP3   OH217039   2.578   2.892   4.345
 5692TIP3    H117040   2.630   2.944   4.284
 5692TIP3    H217041   2.592   2.801   4.318
 5693TIP3   OH217042   0.777   2.400   0.142
 5693TIP3    H117043   0.820   2.485   0.133
 5693TIP3    H217044   0.850   2.339   0.156
 5694TIP3   OH217045   7.157   5.900   0.899
 5694TIP3    H117046   7.235   5.906   0.955
 5694TIP3    H217047   7.155   5.984   0.853
 5695TIP3   OH217048   2.942   2.185   5.193
 5695TIP3    H117049   3.022   2.162   5.240
 5695TIP3    H217050   2.957   2.275   5.164
 5696TIP3   OH217051   2.872   1.798   5.887
 5696TIP3    H117052   2.907   1.879   5.924
 5696TIP3    H217053   2.871   1.813   5.793
 5697TIP3   OH217054   6.971   2.938   0.993
 5697TIP3    H117055   6.972   2.843   0.980
 5697TIP3    H217056   7.063   2.963   0.996
 5698TIP3   OH217057   4.815   5.346   3.481
 5698TIP3    H117058   4.808   5.441   3.491
 5698TIP3    H217059   4.727   5.314   3.501
 5699TIP3   OH217060   4.946   1.300   3.477
 5699TIP3    H117061   4.969   1.341   3.393
 5699TIP3    H217062   4.909   1.371   3.529
 5700TIP3   OH217063   4.796   1.339   3.098
 5700TIP3    H117064   4.799   1.388   3.016
 5700TIP3    H217065   4.887   1.334   3.127
 5701TIP3   OH217066   3.528   0.813   1.401
 5701TIP3    H117067   3.491   0.748   1.341
 5701TIP3    H217068   3.497   0.897   1.368
 5702TIP3   OH217069   0.861   5.572   0.763
 5702TIP3    H117070   0.945   5.565   0.808
 5702TIP3    H217071   0.841   5.482   0.736
 5703TIP3   OH217072   0.293   3.545   1.676
 5703TIP3    H117073   0.289   3.581   1.764
 5703TIP3    H217074   0.202   3.531   1.651
 5704TIP3   OH217075   4.561   0.904   5.120
 5704TIP3    H117076   4.624   0.872   5.055
 5704TIP3    H217077   4.478   0.911   5.073
 5705TIP3   OH217078   5.688   6.312   1.675
 5705TIP3    H117079   5.628   6.244   1.705
 5705TIP3    H217080   5.736   6.270   1.603
 5706TIP3   OH217081   0.520   0.766   4.067
 5706TIP3    H117082   0.561   0.759   4.153
 5706TIP3    H217083   0.585   0.809   4.012
 5707TIP3   OH217084   0.459   5.162   0.793
 5707TIP3    H117085   0.523   5.096   0.818
 5707TIP3    H217086   0.510   5.234   0.757
 5708TIP3   OH217087   6.222   0.460   3.508
 5708TIP3    H117088   6.283   0.454   3.582
 5708TIP3    H217089   6.267   0.414   3.437
 5709TIP3   OH217090   6.421   3.415   4.583
 5709TIP3    H117091   6.435   3.503   4.617
 5709TIP3    H217092   6.357   3.426   4.512
 5710TIP3   OH217093   3.960   5.740   1.612
 5710TIP3    H117094   3.941   5.760   1.520
 5710TIP3    H217095   4.054   5.758   1.621
 5711TIP3   OH217096   2.925   4.571   0.390
 5711TIP3    H117097   2.848   4.607   0.433
 5711TIP3    H217098   2.996   4.630   0.415
 5712TIP3   OH217099   1.384   2.379   5.886
 5712TIP3    H117100   1.344   2.436   5.953
 5712TIP3    H217101   1.478   2.393   5.896
 5713TIP3   OH217102   4.925   5.316   1.930
 5713TIP3    H117103   4.838   5.321   1.890
 5713TIP3    H217104   4.978   5.265   1.868
 5714TIP3   OH217105   3.222   0.146   3.050
 5714TIP3    H117106   3.160   0.087   3.092
 5714TIP3    H217107   3.300   0.142   3.105
 5715TIP3   OH217108   6.815   4.156   1.614
 5715TIP3    H117109   6.880   4.118   1.673
 5715TIP3    H217110   6.840   4.247   1.605
 5716TIP3   OH217111   4.969   0.137   0.786
 5716TIP3    H117112   4.880   0.106   0.771
 5716TIP3    H217113   4.995   0.094   0.868
 5717TIP3   OH217114   1.043   1.744   1.168
 5717TIP3    H117115   1.016   1.653   1.177
 5717TIP3    H217116   1.004   1.772   1.085
 5718TIP3   OH217117   0.239   4.414   5.318
 5718TIP3    H117118   0.275   4.425   5.406
 5718TIP3    H217119   0.164   4.473   5.315
 5719TIP3   OH217120   5.229   3.436   0.704
 5719TIP3    H117121   5.265   3.519   0.734
 5719TIP3    H217122   5.306   3.379   0.694
 5720TIP3   OH217123   6.830   4.680   2.197
 5720TIP3    H117124   6.828   4.667   2.292
 5720TIP3    H217125   6.913   4.727   2.182
 5721TIP3   OH217126   1.345   0.117   0.035
 5721TIP3    H117127   1.330   0.184   0.102
 5721TIP3    H217128   1.432   0.137   0.000
 5722TIP3   OH217129   3.334   1.836   3.317
 5722TIP3    H117130   3.418   1.817   3.359
 5722TIP3    H217131   3.354   1.906   3.255
 5723TIP3   OH217132   3.226   2.464   1.510
 5723TIP3    H117133   3.291   2.409   1.467
 5723TIP3    H217134   3.259   2.476   1.599
 5724TIP3   OH217135   1.484   0.495   0.014
 5724TIP3    H117136   1.442   0.569   0.057
 5724TIP3    H217137   1.543   0.459   0.080
 5725TIP3   OH217138   3.643   4.682   1.156
 5725TIP3    H117139   3.611   4.594   1.138
 5725TIP3    H217140   3.726   4.688   1.108
 5726TIP3   OH217141   1.857   4.558   3.154
 5726TIP3    H117142   1.895   4.541   3.240
 5726TIP3    H217143   1.777   4.608   3.173
 5727TIP3   OH217144   0.313   2.336   5.605
 5727TIP3    H117145   0.242   2.385   5.647
 5727TIP3    H217146   0.271   2.294   5.530
 5728TIP3   OH217147   5.483   2.710   3.795
 5728TIP3    H117148   5.425   2.692   3.721
 5728TIP3    H217149   5.427   2.704   3.872
 5729TIP3   OH217150   2.380   2.760   1.401
 5729TIP3    H117151   2.309   2.822   1.384
 5729TIP3    H217152   2.383   2.753   1.496
 5730TIP3   OH217153   0.157   0.541   5.244
 5730TIP3    H117154   0.119   0.529   5.157
 5730TIP3    H217155   0.082   0.538   5.303
 5731TIP3   OH217156   0.579   0.267   5.443
 5731TIP3    H117157   0.552   0.285   5.533
 5731TIP3    H217158   0.521   0.321   5.389
 5732TIP3   OH217159   4.035   1.902   2.320
 5732TIP3    H117160   4.035   1.993   2.349
 5732TIP3    H217161   4.118   1.892   2.274
 5733TIP3   OH217162   0.658   5.673   4.679
 5733TIP3    H117163   0.668   5.588   4.721
 5733TIP3    H217164   0.745   5.694   4.645
 5734TIP3   OH217165   6.714   1.231   3.176
 5734TIP3    H117166   6.789   1.243   3.118
 5734TIP3    H217167   6.712   1.137   3.194
 5735TIP3   OH217168   6.987   0.298   1.379
 5735TIP3    H117169   6.986   0.229   1.446
 5735TIP3    H217170   6.980   0.379   1.428
 5736TIP3   OH217171   2.310   6.080   2.666
 5736TIP3    H117172   2.336   6.146   2.730
 5736TIP3    H217173   2.214   6.080   2.667
 5737TIP3   OH217174   4.732   1.412   0.387
 5737TIP3    H117175   4.785   1.334   0.404
 5737TIP3    H217176   4.795   1.485   0.391
 5738TIP3   OH217177   2.252   2.963   5.476
 5738TIP3    H117178   2.218   3.039   5.522
 5738TIP3    H217179   2.324   2.997   5.423
 5739TIP3   OH217180   4.791   5.552   2.949
 5739TIP3    H117181   4.880   5.557   2.982
 5739TIP3    H217182   4.788   5.614   2.876
 5740TIP3   OH217183   3.989   3.396   4.818
 5740TIP3    H117184   3.962   3.375   4.729
 5740TIP3    H217185   4.016   3.488   4.814
 5741TIP3   OH217186   5.637   4.667   3.630
 5741TIP3    H117187   5.660   4.598   3.568
 5741TIP3    H217188   5.710   4.729   3.624
 5742TIP3   OH217189   3.571   0.192   4.631
 5742TIP3    H117190   3.508   0.169   4.700
 5742TIP3    H217191   3.627   0.115   4.623
 5743TIP3   OH217192   4.208   4.848   3.456
 5743TIP3    H117193   4.164   4.910   3.514
 5743TIP3    H217194   4.150   4.771   3.455
 5744TIP3   OH217195   3.000   4.726   3.181
 5744TIP3    H117196   2.964   4.682   3.258
 5744TIP3    H217197   3.094   4.715   3.189
 5745TIP3   OH217198   1.430   3.741   5.390
 5745TIP3    H117199   1.370   3.788   5.448
 5745TIP3    H217200   1.454   3.663   5.439
 5746TIP3   OH217201   3.573   0.965   0.964
 5746TIP3    H117202   3.665   0.985   0.949
 5746TIP3    H217203   3.545   0.919   0.885
 5747TIP3   OH217204   2.218   0.310   4.663
 5747TIP3    H117205   2.164   0.249   4.613
 5747TIP3    H217206   2.253   0.371   4.598
 5748TIP3   OH217207   6.501   3.301   5.476
 5748TIP3    H117208   6.468   3.372   5.421
 5748TIP3    H217209   6.592   3.326   5.495
 5749TIP3   OH217210   5.918   4.461   1.363
 5749TIP3    H117211   5.978   4.535   1.373
 5749TIP3    H217212   5.973   4.384   1.378
 5750TIP3   OH217213   0.407   3.901   5.759
 5750TIP3    H117214   0.431   3.864   5.674
 5750TIP3    H217215   0.475   3.869   5.819
 5751TIP3   OH217216   0.095   1.492   5.413
 5751TIP3    H117217   0.070   1.567   5.360
 5751TIP3    H217218   0.090   1.522   5.503
 5752TIP3   OH217219   5.484   6.661   0.480
 5752TIP3    H117220   5.406   6.620   0.442
 5752TIP3    H217221   5.534   6.693   0.406
 5753TIP3   OH217222   7.040   6.573   2.110
 5753TIP3    H117223   7.135   6.566   2.095
 5753TIP3    H217224   7.017   6.659   2.074
 5754TIP3   OH217225   5.539   1.855   1.684
 5754TIP3    H117226   5.625   1.814   1.676
 5754TIP3    H217227   5.520   1.852   1.778
 5755TIP3   OH217228   1.049   3.442   1.928
 5755TIP3    H117229   1.041   3.531   1.963
 5755TIP3    H217230   0.964   3.424   1.889
 5756TIP3   OH217231   5.042   6.546   5.842
 5756TIP3    H117232   5.134   6.522   5.840
 5756TIP3    H217233   5.036   6.617   5.906
 5757TIP3   OH217234   3.233   0.662   1.900
 5757TIP3    H117235   3.313   0.708   1.927
 5757TIP3    H217236   3.163   0.702   1.952
 5758TIP3   OH217237   5.012   0.441   2.904
 5758TIP3    H117238   4.967   0.363   2.870
 5758TIP3    H217239   5.098   0.409   2.931
 5759TIP3   OH217240   6.717   1.964   3.891
 5759TIP3    H117241   6.742   1.871   3.892
 5759TIP3    H217242   6.791   2.008   3.849
 5760TIP3   OH217243   5.551   4.895   0.810
 5760TIP3    H117244   5.619   4.949   0.768
 5760TIP3    H217245   5.479   4.895   0.747
 5761TIP3   OH217246   1.068   3.080   3.275
 5761TIP3    H117247   1.084   3.044   3.187
 5761TIP3    H217248   1.147   3.059   3.324
 5762TIP3   OH217249   1.840   4.249   5.517
 5762TIP3    H117250   1.858   4.314   5.585
 5762TIP3    H217251   1.921   4.246   5.465
 5763TIP3   OH217252   3.828   5.332   2.778
 5763TIP3    H117253   3.811   5.407   2.835
 5763TIP3    H217254   3.846   5.370   2.692
 5764TIP3   OH217255   6.453   4.321   3.663
 5764TIP3    H117256   6.513   4.369   3.719
 5764TIP3    H217257   6.372   4.314   3.714
 5765TIP3   OH217258   6.152   0.089   3.930
 5765TIP3    H117259   6.081   0.150   3.951
 5765TIP3    H217260   6.110   0.003   3.929
 5766TIP3   OH217261   2.560   2.571   3.899
 5766TIP3    H117262   2.479   2.616   3.923
 5766TIP3    H217263   2.559   2.567   3.804
 5767TIP3   OH217264   4.728   1.006   3.805
 5767TIP3    H117265   4.776   0.938   3.853
 5767TIP3    H217266   4.705   1.071   3.871
 5768TIP3   OH217267   5.740   6.205   5.400
 5768TIP3    H117268   5.701   6.121   5.375
 5768TIP3    H217269   5.748   6.199   5.496
 5769TIP3   OH217270   0.389   3.477   5.577
 5769TIP3    H117271   0.386   3.530   5.497
 5769TIP3    H217272   0.481   3.477   5.602
 5770TIP3   OH217273   5.826   1.611   4.488
 5770TIP3    H117274   5.783   1.650   4.413
 5770TIP3    H217275   5.810   1.672   4.560
 5771TIP3   OH217276   6.282   1.422   4.202
 5771TIP3    H117277   6.252   1.441   4.291
 5771TIP3    H217278   6.205   1.439   4.147
 5772TIP3   OH217279   3.555   2.609   2.643
 5772TIP3    H117280   3.466   2.592   2.673
 5772TIP3    H217281   3.551   2.695   2.601
 5773TIP3   OH217282   3.110   3.130   5.895
 5773TIP3    H117283   3.050   3.152   5.824
 5773TIP3    H217284   3.161   3.056   5.860
 5774TIP3   OH217285   3.888   5.976   1.789
 5774TIP3    H117286   3.900   5.923   1.867
 5774TIP3    H217287   3.910   5.918   1.716
 5775TIP3   OH217288   3.205   0.777   1.575
 5775TIP3    H117289   3.147   0.828   1.518
 5775TIP3    H217290   3.222   0.835   1.649
 5776TIP3   OH217291   5.085   3.898   5.638
 5776TIP3    H117292   5.104   3.980   5.684
 5776TIP3    H217293   5.003   3.867   5.677
 5777TIP3   OH217294   6.469   1.835   3.725
 5777TIP3    H117295   6.542   1.851   3.666
 5777TIP3    H217296   6.438   1.922   3.749
 5778TIP3   OH217297   6.946   5.492   4.605
 5778TIP3    H117298   7.029   5.538   4.594
 5778TIP3    H217299   6.880   5.550   4.568
 5779TIP3   OH217300   4.381   6.769   0.926
 5779TIP3    H117301   4.310   6.795   0.985
 5779TIP3    H217302   4.461   6.785   0.976
 5780TIP3   OH217303   2.099   5.704   2.354
 5780TIP3    H117304   2.129   5.735   2.440
 5780TIP3    H217305   2.050   5.624   2.373
 5781TIP3   OH217306   3.209   0.348   3.555
 5781TIP3    H117307   3.268   0.354   3.479
 5781TIP3    H217308   3.256   0.393   3.625
 5782TIP3   OH217309   3.334   5.609   0.171
 5782TIP3    H117310   3.338   5.581   0.262
 5782TIP3    H217311   3.398   5.681   0.165
 5783TIP3   OH217312   0.484   1.310   0.779
 5783TIP3    H117313   0.431   1.260   0.840
 5783TIP3    H217314   0.469   1.269   0.694
 5784TIP3   OH217315   3.549   5.603   4.990
 5784TIP3    H117316   3.510   5.591   5.076
 5784TIP3    H217317   3.483   5.652   4.940
 5785TIP3   OH217318   4.897   1.977   0.267
 5785TIP3    H117319   4.802   1.981   0.257
 5785TIP3    H217320   4.917   2.045   0.331
 5786TIP3   OH217321   1.713   5.287   4.764
 5786TIP3    H117322   1.643   5.304   4.828
 5786TIP3    H217323   1.672   5.232   4.698
 5787TIP3   OH217324   5.154   2.929   2.546
 5787TIP3    H117325   5.116   3.006   2.505
 5787TIP3    H217326   5.243   2.924   2.512
 5788TIP3   OH217327   0.657   2.624   2.283
 5788TIP3    H117328   0.713   2.579   2.345
 5788TIP3    H217329   0.651   2.565   2.208
 5789TIP3   OH217330   5.513   1.469   1.194
 5789TIP3    H117331   5.537   1.461   1.286
 5789TIP3    H217332   5.574   1.411   1.148
 5790TIP3   OH217333   2.649   6.040   2.889
 5790TIP3    H117334   2.612   6.073   2.971
 5790TIP3    H217335   2.622   6.105   2.823
 5791TIP3   OH217336   0.012   4.796   4.106
 5791TIP3    H117337  -0.022   4.866   4.050
 5791TIP3    H217338   0.017   4.836   4.193
 5792TIP3   OH217339   2.994   3.717   2.062
 5792TIP3    H117340   3.085   3.702   2.088
 5792TIP3    H217341   2.983   3.813   2.067
 5793TIP3   OH217342   6.950   2.804   0.591
 5793TIP3    H117343   6.857   2.821   0.602
 5793TIP3    H217344   6.960   2.785   0.497
 5794TIP3   OH217345   1.269   4.385   4.799
 5794TIP3    H117346   1.266   4.382   4.704
 5794TIP3    H217347   1.353   4.347   4.823
 5795TIP3   OH217348   0.872   3.963   3.673
 5795TIP3    H117349   0.834   4.002   3.594
 5795TIP3    H217350   0.797   3.933   3.724
 5796TIP3   OH217351   5.937   4.328   1.705
 5796TIP3    H117352   5.847   4.356   1.689
 5796TIP3    H217353   5.933   4.232   1.704
 5797TIP3   OH217354   1.292   5.513   4.157
 5797TIP3    H117355   1.353   5.457   4.206
 5797TIP3    H217356   1.327   5.602   4.167
 5798TIP3   OH217357   6.301   4.392   2.667
 5798TIP3    H117358   6.380   4.417   2.716
 5798TIP3    H217359   6.232   4.389   2.733
 5799TIP3   OH217360   2.318   6.698   0.038
 5799TIP3    H117361   2.299   6.781  -0.007
 5799TIP3    H217362   2.282   6.710   0.126
 5800TIP3   OH217363   2.248   3.624   3.811
 5800TIP3    H117364   2.317   3.689   3.828
 5800TIP3    H217365   2.293   3.555   3.762
 5801TIP3   OH217366   4.369   3.166   0.803
 5801TIP3    H117367   4.324   3.241   0.765
 5801TIP3    H217368   4.459   3.196   0.814
 5802TIP3   OH217369   2.458   1.277   1.080
 5802TIP3    H117370   2.368   1.299   1.106
 5802TIP3    H217371   2.506   1.359   1.085
 5803TIP3   OH217372   0.611   0.777   0.954
 5803TIP3    H117373   0.587   0.685   0.952
 5803TIP3    H217374   0.659   0.792   0.872
 5804TIP3   OH217375   6.707   1.162   4.137
 5804TIP3    H117376   6.778   1.176   4.074
 5804TIP3    H217377   6.631   1.207   4.099
 5805TIP3   OH217378   6.732   4.182   5.749
 5805TIP3    H117379   6.781   4.236   5.687
 5805TIP3    H217380   6.667   4.243   5.787
 5806TIP3   OH217381   3.508   1.502   4.232
 5806TIP3    H117382   3.536   1.412   4.250
 5806TIP3    H217383   3.413   1.497   4.224
 5807TIP3   OH217384   5.409   5.016   4.470
 5807TIP3    H117385   5.375   4.927   4.480
 5807TIP3    H217386   5.481   5.007   4.408
 5808TIP3   OH217387   0.848   2.421   2.410
 5808TIP3    H117388   0.832   2.390   2.499
 5808TIP3    H217389   0.905   2.354   2.371
 5809TIP3   OH217390   3.255   4.542   4.852
 5809TIP3    H117391   3.249   4.638   4.856
 5809TIP3    H217392   3.341   4.526   4.813
 5810TIP3   OH217393   3.668   3.865   1.181
 5810TIP3    H117394   3.603   3.808   1.221
 5810TIP3    H217395   3.732   3.805   1.143
 5811TIP3   OH217396   1.950   0.559   4.046
 5811TIP3    H117397   1.969   0.593   4.133
 5811TIP3    H217398   2.032   0.567   3.997
 5812TIP3   OH217399   1.091   1.203   4.310
 5812TIP3    H117400   1.114   1.127   4.364
 5812TIP3    H217401   1.033   1.255   4.366
 5813TIP3   OH217402   0.692   4.498   1.126
 5813TIP3    H117403   0.754   4.446   1.177
 5813TIP3    H217404   0.607   4.457   1.143
 5814TIP3   OH217405   5.915   2.351   4.832
 5814TIP3    H117406   6.008   2.359   4.855
 5814TIP3    H217407   5.881   2.440   4.836
 5815TIP3   OH217408   6.486   3.050   2.722
 5815TIP3    H117409   6.469   3.015   2.809
 5815TIP3    H217410   6.424   3.122   2.712
 5816TIP3   OH217411   4.721   2.652   1.996
 5816TIP3    H117412   4.696   2.605   1.916
 5816TIP3    H217413   4.682   2.600   2.067
 5817TIP3   OH217414   1.062   1.977   5.046
 5817TIP3    H117415   1.080   1.995   5.138
 5817TIP3    H217416   0.970   2.001   5.035
 5818TIP3   OH217417   5.673   0.189   5.364
 5818TIP3    H117418   5.737   0.201   5.434
 5818TIP3    H217419   5.602   0.140   5.404
 5819TIP3   OH217420   3.345   0.671   4.439
 5819TIP3    H117421   3.266   0.685   4.492
 5819TIP3    H217422   3.366   0.758   4.405
 5820TIP3   OH217423   3.272   2.308   0.545
 5820TIP3    H117424   3.184   2.334   0.518
 5820TIP3    H217425   3.327   2.383   0.522
 5821TIP3   OH217426   0.807   6.579   3.909
 5821TIP3    H117427   0.770   6.510   3.853
 5821TIP3    H217428   0.767   6.564   3.995
 5822TIP3   OH217429   1.536   6.574   1.245
 5822TIP3    H117430   1.477   6.499   1.243
 5822TIP3    H217431   1.484   6.645   1.284
 5823TIP3   OH217432   3.429   3.263   0.457
 5823TIP3    H117433   3.430   3.255   0.362
 5823TIP3    H217434   3.442   3.356   0.473
 5824TIP3   OH217435   0.724   5.353   0.655
 5824TIP3    H117436   0.645   5.381   0.610
 5824TIP3    H217437   0.723   5.258   0.649
 5825TIP3   OH217438   2.371   0.363   2.358
 5825TIP3    H117439   2.369   0.427   2.430
 5825TIP3    H217440   2.280   0.353   2.332
 5826TIP3   OH217441   4.183   6.140   4.201
 5826TIP3    H117442   4.247   6.125   4.132
 5826TIP3    H217443   4.098   6.144   4.156
 5827TIP3   OH217444   0.266   0.364   0.523
 5827TIP3    H117445   0.173   0.356   0.543
 5827TIP3    H217446   0.280   0.306   0.448
 5828TIP3   OH217447   1.883   5.454   3.951
 5828TIP3    H117448   1.954   5.493   4.001
 5828TIP3    H217449   1.838   5.528   3.911
 5829TIP3   OH217450   5.040   5.898   2.827
 5829TIP3    H117451   5.061   5.940   2.744
 5829TIP3    H217452   4.956   5.856   2.813
 5830TIP3   OH217453   3.976   0.281   1.638
 5830TIP3    H117454   3.965   0.292   1.732
 5830TIP3    H217455   3.934   0.197   1.618
 5831TIP3   OH217456   3.595   5.713   0.734
 5831TIP3    H117457   3.620   5.789   0.682
 5831TIP3    H217458   3.563   5.750   0.816
 5832TIP3   OH217459   0.213   3.272   5.581
 5832TIP3    H117460   0.145   3.320   5.534
 5832TIP3    H217461   0.288   3.332   5.583
 5833TIP3   OH217462   1.964   3.516   3.443
 5833TIP3    H117463   1.978   3.591   3.386
 5833TIP3    H217464   1.884   3.475   3.409
 5834TIP3   OH217465   1.114   2.187   3.192
 5834TIP3    H117466   1.187   2.249   3.199
 5834TIP3    H217467   1.040   2.241   3.163
 5835TIP3   OH217468   6.524   6.242   2.230
 5835TIP3    H117469   6.596   6.282   2.182
 5835TIP3    H217470   6.549   6.251   2.322
 5836TIP3   OH217471   1.763   0.854   4.799
 5836TIP3    H117472   1.704   0.929   4.794
 5836TIP3    H217473   1.740   0.799   4.724
 5837TIP3   OH217474   0.170   2.996   0.557
 5837TIP3    H117475   0.201   2.951   0.479
 5837TIP3    H217476   0.134   3.079   0.524
 5838TIP3   OH217477   5.699   0.521   2.916
 5838TIP3    H117478   5.649   0.464   2.974
 5838TIP3    H217479   5.638   0.590   2.891
 5839TIP3   OH217480   5.933   2.560   2.123
 5839TIP3    H117481   5.918   2.522   2.036
 5839TIP3    H217482   5.854   2.612   2.139
 5840TIP3   OH217483   6.518   2.222   0.971
 5840TIP3    H117484   6.521   2.200   1.064
 5840TIP3    H217485   6.431   2.259   0.957
 5841TIP3   OH217486   2.583   4.933   0.021
 5841TIP3    H117487   2.614   5.001   0.081
 5841TIP3    H217488   2.624   4.853   0.052
 5842TIP3   OH217489   0.702   5.245   4.622
 5842TIP3    H117490   0.728   5.297   4.547
 5842TIP3    H217491   0.672   5.309   4.687
 5843TIP3   OH217492   1.376   5.320   0.457
 5843TIP3    H117493   1.350   5.350   0.370
 5843TIP3    H217494   1.314   5.250   0.477
 5844TIP3   OH217495   1.153   4.127   1.119
 5844TIP3    H117496   1.109   4.045   1.097
 5844TIP3    H217497   1.156   4.128   1.215
 5845TIP3   OH217498   7.126   0.076   1.934
 5845TIP3    H117499   7.088   0.011   1.875
 5845TIP3    H217500   7.052   0.131   1.959
 5846TIP3   OH217501   5.884   4.434   3.939
 5846TIP3    H117502   5.886   4.525   3.967
 5846TIP3    H217503   5.840   4.388   4.010
 5847TIP3   OH217504   5.223   0.671   5.105
 5847TIP3    H117505   5.225   0.632   5.192
 5847TIP3    H217506   5.170   0.610   5.053
 5848TIP3   OH217507   6.677   3.087   1.744
 5848TIP3    H117508   6.665   3.005   1.791
 5848TIP3    H217509   6.596   3.135   1.759
 5849TIP3   OH217510   2.076   1.863   4.455
 5849TIP3    H117511   2.092   1.897   4.543
 5849TIP3    H217512   1.986   1.888   4.436
 5850TIP3   OH217513   1.136   6.209   1.856
 5850TIP3    H117514   1.202   6.140   1.845
 5850TIP3    H217515   1.088   6.210   1.774
 5851TIP3   OH217516   2.669   4.528   4.123
 5851TIP3    H117517   2.720   4.460   4.080
 5851TIP3    H217518   2.639   4.584   4.051
 5852TIP3   OH217519   2.472   1.894   3.162
 5852TIP3    H117520   2.513   1.975   3.193
 5852TIP3    H217521   2.403   1.876   3.226
 5853TIP3   OH217522   6.298   5.439   1.237
 5853TIP3    H117523   6.251   5.474   1.161
 5853TIP3    H217524   6.230   5.408   1.296
 5854TIP3   OH217525   2.830   2.683   0.655
 5854TIP3    H117526   2.858   2.614   0.594
 5854TIP3    H217527   2.735   2.675   0.657
 5855TIP3   OH217528   2.828   2.707   5.000
 5855TIP3    H117529   2.816   2.646   4.928
 5855TIP3    H217530   2.765   2.777   4.983
 5856TIP3   OH217531   4.866   0.725   2.304
 5856TIP3    H117532   4.914   0.784   2.362
 5856TIP3    H217533   4.791   0.777   2.274
 5857TIP3   OH217534   0.649   1.700   0.074
 5857TIP3    H117535   0.683   1.739  -0.006
 5857TIP3    H217536   0.623   1.611   0.048
 5858TIP3   OH217537   3.044   1.479   3.381
 5858TIP3    H117538   3.068   1.554   3.436
 5858TIP3    H217539   3.113   1.415   3.396
 5859TIP3   OH217540   3.725   5.922   2.740
 5859TIP3    H117541   3.755   5.843   2.694
 5859TIP3    H217542   3.680   5.974   2.674
 5860TIP3   OH217543   3.465   3.153   4.550
 5860TIP3    H117544   3.473   3.089   4.479
 5860TIP3    H217545   3.413   3.108   4.617
 5861TIP3   OH217546   2.606   3.575   4.063
 5861TIP3    H117547   2.593   3.610   4.151
 5861TIP3    H217548   2.603   3.652   4.006
 5862TIP3   OH217549   6.116   0.293   5.150
 5862TIP3    H117550   6.025   0.266   5.140
 5862TIP3    H217551   6.128   0.361   5.083
 5863TIP3   OH217552   1.756   0.249   3.877
 5863TIP3    H117553   1.792   0.252   3.966
 5863TIP3    H217554   1.670   0.291   3.885
 5864TIP3   OH217555   1.718   6.649   1.035
 5864TIP3    H117556   1.686   6.630   0.947
 5864TIP3    H217557   1.649   6.618   1.093
 5865TIP3   OH217558   0.990   2.650   4.034
 5865TIP3    H117559   1.019   2.597   4.108
 5865TIP3    H217560   1.071   2.673   3.988
 5866TIP3   OH217561   3.996   6.287   3.200
 5866TIP3    H117562   4.068   6.327   3.251
 5866TIP3    H217563   3.918   6.304   3.252
 5867TIP3   OH217564   0.180   3.567   3.443
 5867TIP3    H117565   0.090   3.584   3.469
 5867TIP3    H217566   0.229   3.565   3.525
 5868TIP3   OH217567   7.223   5.803   3.467
 5868TIP3    H117568   7.289   5.860   3.427
 5868TIP3    H217569   7.142   5.854   3.464
 5869TIP3   OH217570   2.406   3.890   5.047
 5869TIP3    H117571   2.423   3.802   5.013
 5869TIP3    H217572   2.369   3.875   5.134
 5870TIP3   OH217573   1.410   1.402   0.193
 5870TIP3    H117574   1.428   1.312   0.222
 5870TIP3    H217575   1.491   1.429   0.149
 5871TIP3   OH217576   5.930   5.261   4.540
 5871TIP3    H117577   5.946   5.275   4.447
 5871TIP3    H217578   6.016   5.247   4.578
 5872TIP3   OH217579   6.162   2.330   4.657
 5872TIP3    H117580   6.168   2.374   4.572
 5872TIP3    H217581   6.213   2.385   4.716
 5873TIP3   OH217582   2.131   5.182   0.599
 5873TIP3    H117583   2.071   5.255   0.612
 5873TIP3    H217584   2.169   5.197   0.512
 5874TIP3   OH217585   0.871   4.320   1.261
 5874TIP3    H117586   0.851   4.351   1.349
 5874TIP3    H217587   0.935   4.250   1.273
 5875TIP3   OH217588   3.773   5.461   0.756
 5875TIP3    H117589   3.760   5.552   0.730
 5875TIP3    H217590   3.855   5.462   0.806
 5876TIP3   OH217591   2.354   1.415   5.350
 5876TIP3    H117592   2.415   1.485   5.372
 5876TIP3    H217593   2.397   1.366   5.280
 5877TIP3   OH217594   4.942   2.253   5.251
 5877TIP3    H117595   4.886   2.211   5.185
 5877TIP3    H217596   4.992   2.318   5.202
 5878TIP3   OH217597   2.664   1.278   2.901
 5878TIP3    H117598   2.572   1.279   2.926
 5878TIP3    H217599   2.683   1.368   2.872
 5879TIP3   OH217600   4.962   0.069   0.307
 5879TIP3    H117601   4.977   0.130   0.379
 5879TIP3    H217602   4.875   0.033   0.325
 5880TIP3   OH217603   4.377   4.142   3.253
 5880TIP3    H117604   4.408   4.148   3.344
 5880TIP3    H217605   4.432   4.204   3.205
 5881TIP3   OH217606   2.745   0.931   5.259
 5881TIP3    H117607   2.649   0.924   5.257
 5881TIP3    H217608   2.761   1.015   5.301
 5882TIP3   OH217609   6.484   3.935   0.365
 5882TIP3    H117610   6.535   3.989   0.425
 5882TIP3    H217611   6.463   3.856   0.415
 5883TIP3   OH217612   0.190   5.979   0.239
 5883TIP3    H117613   0.114   6.037   0.242
 5883TIP3    H217614   0.196   5.951   0.148
 5884TIP3   OH217615   3.190   2.082   2.987
 5884TIP3    H117616   3.237   2.142   3.044
 5884TIP3    H217617   3.101   2.081   3.021
 5885TIP3   OH217618   5.570   3.758   5.326
 5885TIP3    H117619   5.623   3.728   5.252
 5885TIP3    H217620   5.610   3.841   5.352
 5886TIP3   OH217621   1.509   0.150   1.583
 5886TIP3    H117622   1.446   0.109   1.525
 5886TIP3    H217623   1.511   0.094   1.661
 5887TIP3   OH217624   4.668   1.382   3.915
 5887TIP3    H117625   4.707   1.321   3.977
 5887TIP3    H217626   4.606   1.329   3.865
 5888TIP3   OH217627   2.948   1.928   1.472
 5888TIP3    H117628   3.012   1.862   1.447
 5888TIP3    H217629   2.948   1.926   1.568
 5889TIP3   OH217630   0.884   6.743   2.722
 5889TIP3    H117631   0.808   6.701   2.762
 5889TIP3    H217632   0.958   6.690   2.752
 5890TIP3   OH217633   2.655   5.827   1.294
 5890TIP3    H117634   2.693   5.776   1.222
 5890TIP3    H217635   2.568   5.789   1.306
 5891TIP3   OH217636   2.297   0.716   5.870
 5891TIP3    H117637   2.281   0.664   5.949
 5891TIP3    H217638   2.388   0.744   5.878
 5892TIP3   OH217639   2.439   5.447   1.422
 5892TIP3    H117640   2.391   5.473   1.500
 5892TIP3    H217641   2.529   5.433   1.453
 5893TIP3   OH217642   3.352   6.724   4.716
 5893TIP3    H117643   3.363   6.799   4.774
 5893TIP3    H217644   3.281   6.673   4.756
 5894TIP3   OH217645   0.282   6.389   0.176
 5894TIP3    H117646   0.298   6.456   0.109
 5894TIP3    H217647   0.358   6.392   0.233
 5895TIP3   OH217648   6.262   5.070   3.181
 5895TIP3    H117649   6.256   4.989   3.232
 5895TIP3    H217650   6.290   5.136   3.244
 5896TIP3   OH217651   0.979   0.259   4.093
 5896TIP3    H117652   1.023   0.340   4.118
 5896TIP3    H217653   1.034   0.190   4.131
 5897TIP3   OH217654   6.064   0.869   2.796
 5897TIP3    H117655   6.058   0.960   2.823
 5897TIP3    H217656   6.081   0.821   2.877
 5898TIP3   OH217657   5.279   6.439   5.468
 5898TIP3    H117658   5.362   6.417   5.426
 5898TIP3    H217659   5.269   6.373   5.537
 5899TIP3   OH217660   5.619   0.288   1.074
 5899TIP3    H117661   5.598   0.219   1.011
 5899TIP3    H217662   5.547   0.351   1.066
 5900TIP3   OH217663   4.294   4.293   5.579
 5900TIP3    H117664   4.337   4.208   5.569
 5900TIP3    H217665   4.336   4.333   5.655
 5901TIP3   OH217666   5.357   6.076   0.904
 5901TIP3    H117667   5.389   6.100   0.818
 5901TIP3    H217668   5.433   6.041   0.950
 5902TIP3   OH217669   2.817   5.349   4.018
 5902TIP3    H117670   2.745   5.411   4.026
 5902TIP3    H217671   2.896   5.403   4.020
 5903TIP3   OH217672   4.327   2.240   4.663
 5903TIP3    H117673   4.327   2.178   4.736
 5903TIP3    H217674   4.400   2.299   4.681
 5904TIP3   OH217675   0.519   6.230   1.118
 5904TIP3    H117676   0.550   6.311   1.077
 5904TIP3    H217677   0.536   6.162   1.053
 5905TIP3   OH217678   5.307   5.109   1.578
 5905TIP3    H117679   5.388   5.128   1.531
 5905TIP3    H217680   5.335   5.064   1.658
 5906TIP3   OH217681   4.058   0.979   4.363
 5906TIP3    H117682   4.119   1.000   4.291
 5906TIP3    H217683   4.074   1.048   4.428
 5907TIP3   OH217684   5.537   2.794   3.206
 5907TIP3    H117685   5.590   2.731   3.255
 5907TIP3    H217686   5.474   2.739   3.159
 5908TIP3   OH217687   2.419   0.436   0.732
 5908TIP3    H117688   2.341   0.432   0.678
 5908TIP3    H217689   2.485   0.476   0.675
 5909TIP3   OH217690   0.965   4.957   3.435
 5909TIP3    H117691   0.968   5.038   3.384
 5909TIP3    H217692   0.872   4.933   3.437
 5910TIP3   OH217693   5.605   4.671   3.926
 5910TIP3    H117694   5.645   4.638   3.845
 5910TIP3    H217695   5.647   4.756   3.940
 5911TIP3   OH217696   6.956   3.852   5.705
 5911TIP3    H117697   6.952   3.904   5.785
 5911TIP3    H217698   6.867   3.857   5.669
 5912TIP3   OH217699   5.776   5.346   1.317
 5912TIP3    H117700   5.718   5.344   1.393
 5912TIP3    H217701   5.783   5.255   1.290
 5913TIP3   OH217702   5.848   0.763   0.219
 5913TIP3    H117703   5.925   0.724   0.178
 5913TIP3    H217704   5.779   0.698   0.205
 5914TIP3   OH217705   2.117   6.646   2.442
 5914TIP3    H117706   2.178   6.707   2.482
 5914TIP3    H217707   2.035   6.658   2.491
 5915TIP3   OH217708   1.692   1.335   0.419
 5915TIP3    H117709   1.641   1.261   0.386
 5915TIP3    H217710   1.627   1.395   0.454
 5916TIP3   OH217711   5.044   5.966   0.155
 5916TIP3    H117712   5.013   6.055   0.171
 5916TIP3    H217713   5.126   5.977   0.106
 5917TIP3   OH217714   6.655   2.259   1.779
 5917TIP3    H117715   6.722   2.190   1.778
 5917TIP3    H217716   6.592   2.230   1.845
 5918TIP3   OH217717   5.156   2.911   5.245
 5918TIP3    H117718   5.162   2.860   5.326
 5918TIP3    H217719   5.068   2.896   5.213
 5919TIP3   OH217720   3.072   6.275   3.037
 5919TIP3    H117721   3.135   6.326   2.986
 5919TIP3    H217722   3.026   6.340   3.091
 5920TIP3   OH217723   1.076   6.492   2.171
 5920TIP3    H117724   1.051   6.553   2.240
 5920TIP3    H217725   1.002   6.433   2.162
 5921TIP3   OH217726   1.471   5.411   5.929
 5921TIP3    H117727   1.447   5.375   5.843
 5921TIP3    H217728   1.406   5.479   5.945
 5922TIP3   OH217729   4.256   1.715   3.019
 5922TIP3    H117730   4.323   1.647   3.019
 5922TIP3    H217731   4.300   1.791   3.057
 5923TIP3   OH217732   2.678   5.062   4.663
 5923TIP3    H117733   2.640   5.034   4.746
 5923TIP3    H217734   2.610   5.115   4.621
 5924TIP3   OH217735   0.489   1.844   2.659
 5924TIP3    H117736   0.463   1.800   2.578
 5924TIP3    H217737   0.583   1.858   2.650
 5925TIP3   OH217738   6.352   0.030   4.303
 5925TIP3    H117739   6.373  -0.042   4.362
 5925TIP3    H217740   6.258   0.043   4.311
 5926TIP3   OH217741   1.631   1.497   3.283
 5926TIP3    H117742   1.565   1.457   3.339
 5926TIP3    H217743   1.619   1.455   3.197
 5927TIP3   OH217744   5.262   3.276   1.506
 5927TIP3    H117745   5.331   3.265   1.441
 5927TIP3    H217746   5.301   3.335   1.571
 5928TIP3   OH217747   7.105   4.647   2.392
 5928TIP3    H117748   7.197   4.626   2.409
 5928TIP3    H217749   7.103   4.671   2.299
 5929TIP3   OH217750   4.378   2.842   1.809
 5929TIP3    H117751   4.463   2.873   1.840
 5929TIP3    H217752   4.398   2.795   1.728
 5930TIP3   OH217753   2.657   1.509   4.981
 5930TIP3    H117754   2.739   1.535   5.022
 5930TIP3    H217755   2.680   1.495   4.889
 5931TIP3   OH217756   0.341   4.585   3.318
 5931TIP3    H117757   0.389   4.647   3.262
 5931TIP3    H217758   0.338   4.628   3.404
 5932TIP3   OH217759   0.909   3.892   1.475
 5932TIP3    H117760   0.911   3.797   1.459
 5932TIP3    H217761   0.832   3.923   1.429
 5933TIP3   OH217762   5.085   3.485   1.739
 5933TIP3    H117763   5.097   3.452   1.828
 5933TIP3    H217764   4.996   3.460   1.716
 5934TIP3   OH217765   6.093   5.561   1.869
 5934TIP3    H117766   6.011   5.514   1.851
 5934TIP3    H217767   6.149   5.496   1.911
 5935TIP3   OH217768   6.035   1.141   4.858
 5935TIP3    H117769   6.087   1.061   4.864
 5935TIP3    H217770   5.971   1.123   4.789
 5936TIP3   OH217771   1.339   2.084   2.677
 5936TIP3    H117772   1.408   2.139   2.640
 5936TIP3    H217773   1.263   2.142   2.684
 5937TIP3   OH217774   6.659   2.076   1.440
 5937TIP3    H117775   6.712   2.004   1.408
 5937TIP3    H217776   6.632   2.049   1.528
 5938TIP3   OH217777   6.697   1.581   3.286
 5938TIP3    H117778   6.746   1.512   3.241
 5938TIP3    H217779   6.630   1.607   3.223
 5939TIP3   OH217780   1.061   3.991   0.758
 5939TIP3    H117781   1.151   3.980   0.726
 5939TIP3    H217782   1.020   4.051   0.696
 5940TIP3   OH217783   3.242   0.998   3.061
 5940TIP3    H117784   3.163   1.007   3.008
 5940TIP3    H217785   3.310   1.043   3.011
 5941TIP3   OH217786   1.603   0.054   0.245
 5941TIP3    H117787   1.645  -0.032   0.257
 5941TIP3    H217788   1.617   0.073   0.152
 5942TIP3   OH217789   1.889   3.639   2.877
 5942TIP3    H117790   1.942   3.562   2.856
 5942TIP3    H217791   1.845   3.661   2.795
 5943TIP3   OH217792   2.172   0.028   0.036
 5943TIP3    H117793   2.188  -0.051   0.089
 5943TIP3    H217794   2.230   0.094   0.073
 5944TIP3   OH217795   6.939   3.894   0.016
 5944TIP3    H117796   7.004   3.949   0.059
 5944TIP3    H217797   6.870   3.883   0.081
 5945TIP3   OH217798   2.329   4.578   2.764
 5945TIP3    H117799   2.365   4.530   2.689
 5945TIP3    H217800   2.335   4.516   2.836
 5946TIP3   OH217801   2.712   5.554   2.341
 5946TIP3    H117802   2.671   5.638   2.323
 5946TIP3    H217803   2.650   5.507   2.396
 5947TIP3   OH217804   2.864   0.698   1.388
 5947TIP3    H117805   2.861   0.794   1.385
 5947TIP3    H217806   2.910   0.678   1.469
 5948TIP3   OH217807   0.659   3.361   2.020
 5948TIP3    H117808   0.571   3.325   2.012
 5948TIP3    H217809   0.694   3.358   1.931
 5949TIP3   OH217810   6.546   0.648   4.394
 5949TIP3    H117811   6.634   0.653   4.432
 5949TIP3    H217812   6.504   0.575   4.440
 5950TIP3   OH217813   2.612   6.606   0.544
 5950TIP3    H117814   2.634   6.577   0.455
 5950TIP3    H217815   2.522   6.638   0.537
 5951TIP3   OH217816   0.855   4.903   2.165
 5951TIP3    H117817   0.900   4.861   2.092
 5951TIP3    H217818   0.766   4.868   2.162
 5952TIP3   OH217819   2.190   0.638   1.120
 5952TIP3    H117820   2.136   0.559   1.120
 5952TIP3    H217821   2.233   0.637   1.205
 5953TIP3   OH217822   2.469   3.194   1.892
 5953TIP3    H117823   2.408   3.236   1.953
 5953TIP3    H217824   2.497   3.114   1.937
 5954TIP3   OH217825   2.303   2.540   4.559
 5954TIP3    H117826   2.268   2.566   4.644
 5954TIP3    H217827   2.230   2.553   4.498
 5955TIP3   OH217828   6.087   4.878   2.928
 5955TIP3    H117829   6.182   4.867   2.934
 5955TIP3    H217830   6.064   4.839   2.844
 5956TIP3   OH217831   6.857   2.285   5.857
 5956TIP3    H117832   6.865   2.195   5.825
 5956TIP3    H217833   6.784   2.281   5.920
 5957TIP3   OH217834   1.316   5.177   2.520
 5957TIP3    H117835   1.367   5.238   2.574
 5957TIP3    H217836   1.225   5.207   2.530
 5958TIP3   OH217837   3.173   3.476   1.159
 5958TIP3    H117838   3.113   3.547   1.135
 5958TIP3    H217839   3.154   3.459   1.252
 5959TIP3   OH217840   2.084   1.614   3.417
 5959TIP3    H117841   2.058   1.571   3.336
 5959TIP3    H217842   2.009   1.604   3.475
 5960TIP3   OH217843   2.304   3.548   2.195
 5960TIP3    H117844   2.325   3.613   2.262
 5960TIP3    H217845   2.385   3.500   2.181
 5961TIP3   OH217846   5.435   1.339   0.854
 5961TIP3    H117847   5.476   1.301   0.932
 5961TIP3    H217848   5.427   1.265   0.793
 5962TIP3   OH217849   6.128   0.255   5.413
 5962TIP3    H117850   6.103   0.344   5.438
 5962TIP3    H217851   6.121   0.254   5.318
 5963TIP3   OH217852   3.531   1.719   3.935
 5963TIP3    H117853   3.616   1.752   3.966
 5963TIP3    H217854   3.490   1.795   3.894
 5964TIP3   OH217855   2.287   0.029   3.717
 5964TIP3    H117856   2.335   0.090   3.660
 5964TIP3    H217857   2.195   0.039   3.690
 5965TIP3   OH217858   2.200   4.813   2.034
 5965TIP3    H117859   2.217   4.870   2.109
 5965TIP3    H217860   2.184   4.873   1.961
 5966TIP3   OH217861   4.485   0.103   3.152
 5966TIP3    H117862   4.515   0.190   3.125
 5966TIP3    H217863   4.552   0.072   3.213
 5967TIP3   OH217864   2.627   1.147   4.001
 5967TIP3    H117865   2.682   1.167   3.925
 5967TIP3    H217866   2.539   1.173   3.974
 5968TIP3   OH217867   0.444   2.357   5.033
 5968TIP3    H117868   0.449   2.449   5.004
 5968TIP3    H217869   0.388   2.315   4.968
 5969TIP3   OH217870   1.203   0.623   3.938
 5969TIP3    H117871   1.122   0.667   3.965
 5969TIP3    H217872   1.272   0.687   3.953
 5970TIP3   OH217873   6.736   3.967   5.543
 5970TIP3    H117874   6.721   4.046   5.595
 5970TIP3    H217875   6.783   3.998   5.466
 5971TIP3   OH217876   2.610   2.893   0.853
 5971TIP3    H117877   2.535   2.945   0.823
 5971TIP3    H217878   2.647   2.944   0.924
 5972TIP3   OH217879   6.501   2.351   1.533
 5972TIP3    H117880   6.580   2.310   1.569
 5972TIP3    H217881   6.445   2.278   1.507
 5973TIP3   OH217882   4.814   5.664   2.504
 5973TIP3    H117883   4.815   5.568   2.513
 5973TIP3    H217884   4.838   5.680   2.413
 5974TIP3   OH217885   6.655   1.742   1.808
 5974TIP3    H117886   6.639   1.651   1.785
 5974TIP3    H217887   6.713   1.738   1.884
 5975TIP3   OH217888   1.094   4.237   0.281
 5975TIP3    H117889   1.170   4.272   0.235
 5975TIP3    H217890   1.022   4.243   0.218
 5976TIP3   OH217891   5.038   5.626   3.660
 5976TIP3    H117892   5.010   5.538   3.633
 5976TIP3    H217893   5.094   5.610   3.736
 5977TIP3   OH217894   1.525   3.949   2.332
 5977TIP3    H117895   1.572   4.009   2.274
 5977TIP3    H217896   1.434   3.952   2.301
 5978TIP3   OH217897   6.057   1.724   1.995
 5978TIP3    H117898   6.113   1.716   2.072
 5978TIP3    H217899   6.052   1.635   1.959
 5979TIP3   OH217900   4.396   4.749   0.679
 5979TIP3    H117901   4.408   4.682   0.612
 5979TIP3    H217902   4.481   4.755   0.723
 5980TIP3   OH217903   5.235   2.238   1.097
 5980TIP3    H117904   5.297   2.281   1.037
 5980TIP3    H217905   5.288   2.216   1.173
 5981TIP3   OH217906   5.226   0.023   0.542
 5981TIP3    H117907   5.298  -0.032   0.573
 5981TIP3    H217908   5.147  -0.026   0.564
 5982TIP3   OH217909   3.672   4.875   5.799
 5982TIP3    H117910   3.638   4.807   5.741
 5982TIP3    H217911   3.712   4.826   5.871
 5983TIP3   OH217912   6.525   6.566   3.661
 5983TIP3    H117913   6.438   6.580   3.626
 5983TIP3    H217914   6.531   6.627   3.735
 5984TIP3   OH217915   1.240   4.025   3.090
 5984TIP3    H117916   1.222   4.082   3.015
 5984TIP3    H217917   1.313   4.067   3.135
 5985TIP3   OH217918   2.205   0.222   5.368
 5985TIP3    H117919   2.152   0.299   5.389
 5985TIP3    H217920   2.154   0.175   5.302
 5986TIP3   OH217921   1.814   4.543   3.437
 5986TIP3    H117922   1.757   4.581   3.504
 5986TIP3    H217923   1.789   4.451   3.433
 5987TIP3   OH217924   2.086   5.448   1.439
 5987TIP3    H117925   1.995   5.422   1.432
 5987TIP3    H217926   2.120   5.446   1.350
 5988TIP3   OH217927   1.235   0.234   5.255
 5988TIP3    H117928   1.312   0.290   5.267
 5988TIP3    H217929   1.206   0.253   5.166
 5989TIP3   OH217930   2.002   3.140   1.995
 5989TIP3    H117931   2.042   3.150   2.081
 5989TIP3    H217932   1.908   3.135   2.012
 5990TIP3   OH217933   2.785   3.313   4.175
 5990TIP3    H117934   2.815   3.351   4.258
 5990TIP3    H217935   2.710   3.258   4.198
 5991TIP3   OH217936   5.168   1.175   0.285
 5991TIP3    H117937   5.162   1.092   0.332
 5991TIP3    H217938   5.202   1.237   0.349
 5992TIP3   OH217939   4.080   6.561   5.744
 5992TIP3    H117940   4.038   6.476   5.757
 5992TIP3    H217941   4.102   6.563   5.650
 5993TIP3   OH217942   7.196   0.161   0.790
 5993TIP3    H117943   7.240   0.223   0.733
 5993TIP3    H217944   7.103   0.176   0.774
 5994TIP3   OH217945   1.409   2.742   0.259
 5994TIP3    H117946   1.479   2.793   0.302
 5994TIP3    H217947   1.331   2.795   0.269
 5995TIP3   OH217948   5.293   0.282   5.035
 5995TIP3    H117949   5.346   0.248   4.963
 5995TIP3    H217950   5.317   0.229   5.110
 5996TIP3   OH217951   4.732   2.679   5.284
 5996TIP3    H117952   4.790   2.755   5.287
 5996TIP3    H217953   4.773   2.614   5.342
 5997TIP3   OH217954   4.767   5.335   0.051
 5997TIP3    H117955   4.858   5.322   0.079
 5997TIP3    H217956   4.775   5.369  -0.038
 5998TIP3   OH217957   4.372   3.723   0.432
 5998TIP3    H117958   4.291   3.771   0.449
 5998TIP3    H217959   4.441   3.788   0.438
 5999TIP3   OH217960   5.259   0.412   1.305
 5999TIP3    H117961   5.322   0.340   1.318
 5999TIP3    H217962   5.231   0.435   1.394
 6000TIP3   OH217963   5.845   0.241   5.173
 6000TIP3    H117964   5.774   0.213   5.231
 6000TIP3    H217965   5.814   0.217   5.085
 6001TIP3   OH217966   5.483   0.315   4.805
 6001TIP3    H117967   5.565   0.278   4.840
 6001TIP3    H217968   5.508   0.352   4.720
 6002TIP3   OH217969   4.946   1.742   5.376
 6002TIP3    H117970   4.988   1.825   5.351
 6002TIP3    H217971   4.994   1.675   5.328
 6003TIP3   OH217972   0.855   2.700   2.574
 6003TIP3    H117973   0.821   2.642   2.506
 6003TIP3    H217974   0.851   2.648   2.654
 6004TIP3   OH217975   2.129   5.483   1.707
 6004TIP3    H117976   2.218   5.515   1.719
 6004TIP3    H217977   2.126   5.455   1.616
 6005TIP3   OH217978   4.615   6.190   4.159
 6005TIP3    H117979   4.564   6.259   4.201
 6005TIP3    H217980   4.611   6.212   4.066
 6006TIP3   OH217981   3.360   2.296   4.844
 6006TIP3    H117982   3.346   2.330   4.756
 6006TIP3    H217983   3.323   2.362   4.902
 6007TIP3   OH217984   2.387   4.593   5.451
 6007TIP3    H117985   2.300   4.557   5.433
 6007TIP3    H217986   2.442   4.560   5.380
 6008TIP3   OH217987   0.890   0.769   1.094
 6008TIP3    H117988   0.795   0.780   1.084
 6008TIP3    H217989   0.914   0.707   1.025
 6009TIP3   OH217990   0.026   2.897   4.340
 6009TIP3    H117991   0.037   2.811   4.299
 6009TIP3    H217992   0.024   2.959   4.266
 6010TIP3   OH217993   0.830   3.392   4.182
 6010TIP3    H117994   0.815   3.314   4.236
 6010TIP3    H217995   0.866   3.358   4.100
 6011TIP3   OH217996   0.760   5.431   1.922
 6011TIP3    H117997   0.767   5.527   1.921
 6011TIP3    H217998   0.751   5.409   2.015
 6012TIP3   OH217999   3.750   0.388   0.155
 6012TIP3    H118000   3.763   0.452   0.084
 6012TIP3    H218001   3.663   0.407   0.189
 6013TIP3   OH218002   1.020   1.726   3.549
 6013TIP3    H118003   1.099   1.676   3.530
 6013TIP3    H218004   1.048   1.794   3.610
 6014TIP3   OH218005   4.179   0.258   5.055
 6014TIP3    H118006   4.213   0.240   4.968
 6014TIP3    H218007   4.251   0.302   5.101
 6015TIP3   OH218008   0.523   5.708   4.164
 6015TIP3    H118009   0.543   5.644   4.096
 6015TIP3    H218010   0.469   5.661   4.227
 6016TIP3   OH218011   4.078   2.869   1.508
 6016TIP3    H118012   4.058   2.953   1.550
 6016TIP3    H218013   4.056   2.803   1.573
 6017TIP3   OH218014   5.268   3.342   4.981
 6017TIP3    H118015   5.242   3.416   4.927
 6017TIP3    H218016   5.308   3.382   5.059
 6018TIP3   OH218017   2.763   5.742   2.527
 6018TIP3    H118018   2.857   5.730   2.544
 6018TIP3    H218019   2.740   5.672   2.466
 6019TIP3   OH218020   1.513   4.225   0.783
 6019TIP3    H118021   1.578   4.255   0.846
 6019TIP3    H218022   1.430   4.257   0.818
 6020TIP3   OH218023   3.006   4.146   3.401
 6020TIP3    H118024   3.007   4.221   3.460
 6020TIP3    H218025   2.985   4.072   3.458
 6021TIP3   OH218026   1.086   1.188   0.852
 6021TIP3    H118027   1.158   1.223   0.800
 6021TIP3    H218028   1.024   1.261   0.859
 6022TIP3   OH218029   5.151   4.265   4.706
 6022TIP3    H118030   5.102   4.259   4.787
 6022TIP3    H218031   5.184   4.355   4.704
 6023TIP3   OH218032   0.210   6.306   4.791
 6023TIP3    H118033   0.264   6.306   4.870
 6023TIP3    H218034   0.269   6.332   4.721
 6024TIP3   OH218035   5.967   6.397   2.204
 6024TIP3    H118036   5.892   6.401   2.145
 6024TIP3    H218037   6.013   6.480   2.190
 6025TIP3   OH218038   5.711   1.084   5.179
 6025TIP3    H118039   5.729   1.078   5.273
 6025TIP3    H218040   5.622   1.117   5.174
 6026TIP3   OH218041   0.774   0.832   0.252
 6026TIP3    H118042   0.712   0.804   0.319
 6026TIP3    H218043   0.725   0.893   0.198
 6027TIP3   OH218044   2.561   3.297   3.096
 6027TIP3    H118045   2.465   3.296   3.091
 6027TIP3    H218046   2.589   3.332   3.012
 6028TIP3   OH218047   4.946   1.030   3.620
 6028TIP3    H118048   4.927   1.123   3.604
 6028TIP3    H218049   4.883   1.004   3.687
 6029TIP3   OH218050   0.033   2.022   5.115
 6029TIP3    H118051  -0.002   1.979   5.193
 6029TIP3    H218052   0.124   1.993   5.110
 6030TIP3   OH218053   6.308   2.401   5.258
 6030TIP3    H118054   6.376   2.339   5.232
 6030TIP3    H218055   6.289   2.379   5.349
 6031TIP3   OH218056   3.946   2.980   0.554
 6031TIP3    H118057   3.977   2.898   0.516
 6031TIP3    H218058   4.026   3.031   0.570
 6032TIP3   OH218059   3.942   2.165   5.051
 6032TIP3    H118060   3.860   2.203   5.082
 6032TIP3    H218061   3.939   2.177   4.956
 6033TIP3   OH218062   4.791   0.436   0.229
 6033TIP3    H118063   4.878   0.403   0.252
 6033TIP3    H218064   4.807   0.501   0.161
 6034TIP3   OH218065   1.071   2.581   5.118
 6034TIP3    H118066   1.098   2.516   5.183
 6034TIP3    H218067   1.033   2.652   5.169
 6035TIP3   OH218068   2.318   3.546   1.643
 6035TIP3    H118069   2.290   3.496   1.720
 6035TIP3    H218070   2.360   3.624   1.679
 6036TIP3   OH218071   2.483   0.594   0.456
 6036TIP3    H118072   2.405   0.594   0.401
 6036TIP3    H218073   2.534   0.670   0.426
 6037TIP3   OH218074   6.866   1.419   2.349
 6037TIP3    H118075   6.861   1.403   2.255
 6037TIP3    H218076   6.885   1.333   2.387
 6038TIP3   OH218077   3.588   0.189   2.436
 6038TIP3    H118078   3.522   0.152   2.377
 6038TIP3    H218079   3.553   0.276   2.458
 6039TIP3   OH218080   2.671   0.308   2.911
 6039TIP3    H118081   2.669   0.401   2.889
 6039TIP3    H218082   2.713   0.304   2.997
 6040TIP3   OH218083   6.327   5.060   0.692
 6040TIP3    H118084   6.358   4.973   0.670
 6040TIP3    H218085   6.233   5.049   0.708
 6041TIP3   OH218086   1.360   5.933   5.122
 6041TIP3    H118087   1.444   5.976   5.105
 6041TIP3    H218088   1.297   6.005   5.129
 6042TIP3   OH218089   6.688   4.258   3.941
 6042TIP3    H118090   6.756   4.320   3.967
 6042TIP3    H218091   6.729   4.205   3.872
 6043TIP3   OH218092   7.237   5.928   3.993
 6043TIP3    H118093   7.176   5.919   4.066
 6043TIP3    H218094   7.222   5.850   3.939
 6044TIP3   OH218095   6.386   3.041   2.977
 6044TIP3    H118096   6.296   3.009   2.968
 6044TIP3    H218097   6.407   3.028   3.069
 6045TIP3   OH218098   5.986   3.580   0.144
 6045TIP3    H118099   5.932   3.619   0.212
 6045TIP3    H218100   5.959   3.624   0.063
 6046TIP3   OH218101   1.843   5.219  -0.014
 6046TIP3    H118102   1.855   5.230   0.080
 6046TIP3    H218103   1.751   5.239  -0.029
 6047TIP3   OH218104   6.465   5.878   2.357
 6047TIP3    H118105   6.379   5.853   2.326
 6047TIP3    H218106   6.520   5.801   2.344
 6048TIP3   OH218107   6.317   0.740   0.961
 6048TIP3    H118108   6.330   0.645   0.970
 6048TIP3    H218109   6.377   0.779   1.023
 6049TIP3   OH218110   4.231   2.540   3.920
 6049TIP3    H118111   4.158   2.479   3.915
 6049TIP3    H218112   4.211   2.595   3.996
 6050TIP3   OH218113   1.207   3.452   3.760
 6050TIP3    H118114   1.233   3.400   3.835
 6050TIP3    H218115   1.112   3.439   3.754
 6051TIP3   OH218116   6.687   2.240   5.245
 6051TIP3    H118117   6.749   2.270   5.311
 6051TIP3    H218118   6.715   2.284   5.165
 6052TIP3   OH218119   3.888   5.187   2.330
 6052TIP3    H118120   3.957   5.185   2.396
 6052TIP3    H218121   3.932   5.213   2.249
 6053TIP3   OH218122   5.843   0.871   3.005
 6053TIP3    H118123   5.914   0.915   3.052
 6053TIP3    H218124   5.824   0.927   2.930
 6054TIP3   OH218125   5.240   2.690   1.439
 6054TIP3    H118126   5.318   2.668   1.491
 6054TIP3    H218127   5.215   2.607   1.398
 6055TIP3   OH218128   3.196   0.419   1.140
 6055TIP3    H118129   3.283   0.436   1.104
 6055TIP3    H218130   3.193   0.470   1.220
 6056TIP3   OH218131   4.292   4.749   2.982
 6056TIP3    H118132   4.320   4.769   3.071
 6056TIP3    H218133   4.351   4.800   2.927
 6057TIP3   OH218134   6.187   5.838   4.896
 6057TIP3    H118135   6.203   5.806   4.984
 6057TIP3    H218136   6.228   5.773   4.839
 6058TIP3   OH218137   4.607   2.402   2.426
 6058TIP3    H118138   4.598   2.418   2.332
 6058TIP3    H218139   4.681   2.457   2.453
 6059TIP3   OH218140   5.749   2.262   0.508
 6059TIP3    H118141   5.756   2.271   0.603
 6059TIP3    H218142   5.835   2.233   0.480
 6060TIP3   OH218143   1.661   0.673   3.360
 6060TIP3    H118144   1.570   0.675   3.388
 6060TIP3    H218145   1.671   0.590   3.314
 6061TIP3   OH218146   4.970   4.421   1.807
 6061TIP3    H118147   4.960   4.470   1.889
 6061TIP3    H218148   4.907   4.349   1.814
 6062TIP3   OH218149   0.138   6.560   0.736
 6062TIP3    H118150   0.083   6.482   0.726
 6062TIP3    H218151   0.080   6.625   0.776
 6063TIP3   OH218152   4.223   3.861   4.503
 6063TIP3    H118153   4.316   3.864   4.525
 6063TIP3    H218154   4.181   3.826   4.582
 6064TIP3   OH218155   4.536   2.743   4.813
 6064TIP3    H118156   4.603   2.733   4.881
 6064TIP3    H218157   4.532   2.838   4.798
 6065TIP3   OH218158   5.844   1.122   4.683
 6065TIP3    H118159   5.796   1.200   4.710
 6065TIP3    H218160   5.776   1.055   4.670
 6066TIP3   OH218161   6.707   4.955   5.848
 6066TIP3    H118162   6.699   4.946   5.753
 6066TIP3    H218163   6.799   4.936   5.867
 6067TIP3   OH218164   0.543   5.940   1.375
 6067TIP3    H118165   0.606   6.012   1.381
 6067TIP3    H218166   0.594   5.861   1.394
 6068TIP3   OH218167   3.691   3.822   3.559
 6068TIP3    H118168   3.636   3.745   3.546
 6068TIP3    H218169   3.641   3.879   3.618
 6069TIP3   OH218170   4.021   2.241   3.567
 6069TIP3    H118171   4.057   2.180   3.503
 6069TIP3    H218172   3.926   2.240   3.551
 6070TIP3   OH218173   6.057   1.468   1.917
 6070TIP3    H118174   6.083   1.451   1.827
 6070TIP3    H218175   6.123   1.423   1.970
 6071TIP3   OH218176   6.438   5.734   5.402
 6071TIP3    H118177   6.415   5.641   5.407
 6071TIP3    H218178   6.533   5.736   5.413
 6072TIP3   OH218179   6.856   2.439   2.232
 6072TIP3    H118180   6.831   2.479   2.315
 6072TIP3    H218181   6.875   2.348   2.255
 6073TIP3   OH218182   5.578   5.177   4.240
 6073TIP3    H118183   5.632   5.250   4.211
 6073TIP3    H218184   5.626   5.140   4.314
 6074TIP3   OH218185   4.451   4.912   3.594
 6074TIP3    H118186   4.372   4.908   3.541
 6074TIP3    H218187   4.519   4.871   3.540
 6075TIP3   OH218188   3.023   2.076   0.819
 6075TIP3    H118189   3.001   2.146   0.758
 6075TIP3    H218190   2.954   2.011   0.806
 6076TIP3   OH218191   3.800   5.160   0.120
 6076TIP3    H118192   3.754   5.242   0.102
 6076TIP3    H218193   3.851   5.143   0.041
 6077TIP3   OH218194   5.342   3.484   3.950
 6077TIP3    H118195   5.323   3.395   3.921
 6077TIP3    H218196   5.391   3.523   3.878
 6078TIP3   OH218197   6.943   4.900   4.202
 6078TIP3    H118198   6.873   4.853   4.157
 6078TIP3    H218199   6.980   4.957   4.134
 6079TIP3   OH218200   0.060   5.254  -0.007
 6079TIP3    H118201  -0.033   5.238  -0.024
 6079TIP3    H218202   0.060   5.315   0.067
 6080TIP3   OH218203   6.488   4.679   0.295
 6080TIP3    H118204   6.558   4.621   0.323
 6080TIP3    H218205   6.448   4.635   0.221
 6081TIP3   OH218206   2.088   3.874   0.662
 6081TIP3    H118207   2.160   3.818   0.689
 6081TIP3    H218208   2.055   3.833   0.582
 6082TIP3   OH218209   3.631   2.523   5.324
 6082TIP3    H118210   3.697   2.592   5.320
 6082TIP3    H218211   3.608   2.516   5.417
 6083TIP3   OH218212   5.616   4.259   3.798
 6083TIP3    H118213   5.613   4.192   3.729
 6083TIP3    H218214   5.551   4.324   3.770
 6084TIP3   OH218215   6.678   0.614   3.592
 6084TIP3    H118216   6.669   0.521   3.617
 6084TIP3    H218217   6.709   0.611   3.502
 6085TIP3   OH218218   5.342   0.806   0.253
 6085TIP3    H118219   5.417   0.841   0.205
 6085TIP3    H218220   5.354   0.838   0.343
 6086TIP3   OH218221   6.180   2.586   0.637
 6086TIP3    H118222   6.088   2.573   0.617
 6086TIP3    H218223   6.185   2.676   0.670
 6087TIP3   OH218224   2.945   2.867   4.754
 6087TIP3    H118225   2.901   2.928   4.695
 6087TIP3    H218226   2.884   2.858   4.828
 6088TIP3   OH218227   2.844   0.458   5.746
 6088TIP3    H118228   2.894   0.487   5.822
 6088TIP3    H218229   2.763   0.422   5.783
 6089TIP3   OH218230   6.027   1.480   5.779
 6089TIP3    H118231   6.118   1.451   5.776
 6089TIP3    H218232   6.014   1.528   5.698
 6090TIP3   OH218233   0.776   1.184   0.092
 6090TIP3    H118234   0.811   1.273   0.085
 6090TIP3    H218235   0.719   1.174   0.016
 6091TIP3   OH218236   5.408   1.109   1.033
 6091TIP3    H118237   5.315   1.103   1.008
 6091TIP3    H218238   5.409   1.092   1.127
 6092TIP3   OH218239   6.890   5.241   4.747
 6092TIP3    H118240   6.798   5.229   4.721
 6092TIP3    H218241   6.911   5.330   4.718
 6093TIP3   OH218242   5.984   6.009   5.627
 6093TIP3    H118243   6.015   5.921   5.606
 6093TIP3    H218244   5.998   6.060   5.548
 6094TIP3   OH218245   0.957   5.345   5.724
 6094TIP3    H118246   0.986   5.429   5.687
 6094TIP3    H218247   1.013   5.332   5.800
 6095TIP3   OH218248   6.744   2.663   2.816
 6095TIP3    H118249   6.651   2.687   2.816
 6095TIP3    H218250   6.789   2.740   2.849
 6096TIP3   OH218251   3.066   5.558   0.536
 6096TIP3    H118252   3.040   5.521   0.451
 6096TIP3    H218253   3.042   5.490   0.599
 6097TIP3   OH218254   1.269   6.322   2.094
 6097TIP3    H118255   1.208   6.385   2.131
 6097TIP3    H218256   1.214   6.258   2.049
 6098TIP3   OH218257   3.171   2.234   1.913
 6098TIP3    H118258   3.084   2.257   1.947
 6098TIP3    H218259   3.155   2.159   1.856
 6099TIP3   OH218260   0.195   4.773   1.700
 6099TIP3    H118261   0.229   4.854   1.663
 6099TIP3    H218262   0.261   4.707   1.678
 6100TIP3   OH218263   1.854   6.542   4.199
 6100TIP3    H118264   1.944   6.508   4.204
 6100TIP3    H218265   1.865   6.635   4.178
 6101TIP3   OH218266   2.768   2.522   5.635
 6101TIP3    H118267   2.683   2.485   5.662
 6101TIP3    H218268   2.827   2.501   5.707
 6102TIP3   OH218269   1.059   0.625   0.926
 6102TIP3    H118270   1.138   0.654   0.971
 6102TIP3    H218271   1.070   0.531   0.915
 6103TIP3   OH218272   2.722   4.315   3.357
 6103TIP3    H118273   2.651   4.275   3.407
 6103TIP3    H218274   2.731   4.260   3.279
 6104TIP3   OH218275   0.297   3.177   2.305
 6104TIP3    H118276   0.366   3.192   2.241
 6104TIP3    H218277   0.261   3.263   2.322
 6105TIP3   OH218278   4.272   1.884   2.162
 6105TIP3    H118279   4.355   1.897   2.208
 6105TIP3    H218280   4.286   1.806   2.109
 6106TIP3   OH218281   4.846   0.705   0.376
 6106TIP3    H118282   4.820   0.702   0.284
 6106TIP3    H218283   4.903   0.629   0.388
 6107TIP3   OH218284   3.601   1.084   3.957
 6107TIP3    H118285   3.535   1.089   4.026
 6107TIP3    H218286   3.679   1.125   3.995
 6108TIP3   OH218287   4.684   2.598   3.655
 6108TIP3    H118288   4.760   2.643   3.691
 6108TIP3    H218289   4.615   2.612   3.721
 6109TIP3   OH218290   6.585   4.634   0.769
 6109TIP3    H118291   6.558   4.556   0.720
 6109TIP3    H218292   6.599   4.602   0.858
 6110TIP3   OH218293   3.214   4.225   2.401
 6110TIP3    H118294   3.251   4.294   2.456
 6110TIP3    H218295   3.274   4.220   2.326
 6111TIP3   OH218296   3.496   2.716   5.180
 6111TIP3    H118297   3.539   2.712   5.095
 6111TIP3    H218298   3.525   2.638   5.226
 6112TIP3   OH218299   2.242   2.277   3.683
 6112TIP3    H118300   2.320   2.327   3.707
 6112TIP3    H218301   2.244   2.274   3.587
 6113TIP3   OH218302   5.770   0.746   3.672
 6113TIP3    H118303   5.767   0.714   3.582
 6113TIP3    H218304   5.788   0.668   3.725
 6114TIP3   OH218305   4.688   6.575   4.664
 6114TIP3    H118306   4.775   6.558   4.699
 6114TIP3    H218307   4.688   6.669   4.644
 6115TIP3   OH218308   3.791   1.552   0.663
 6115TIP3    H118309   3.702   1.585   0.675
 6115TIP3    H218310   3.781   1.456   0.663
 6116TIP3   OH218311   4.955   4.529   3.017
 6116TIP3    H118312   4.954   4.600   3.082
 6116TIP3    H218313   4.981   4.572   2.935
 6117TIP3   OH218314   6.652   4.916   5.023
 6117TIP3    H118315   6.671   4.833   5.067
 6117TIP3    H218316   6.624   4.975   5.094
 6118TIP3   OH218317   4.090   4.113   1.442
 6118TIP3    H118318   4.000   4.081   1.445
 6118TIP3    H218319   4.108   4.141   1.532
 6119TIP3   OH218320   6.334   4.001   1.465
 6119TIP3    H118321   6.376   4.085   1.445
 6119TIP3    H218322   6.404   3.947   1.502
 6120TIP3   OH218323   6.993   3.667   2.630
 6120TIP3    H118324   6.970   3.704   2.544
 6120TIP3    H218325   6.910   3.665   2.677
 6121TIP3   OH218326   4.548   5.427   2.104
 6121TIP3    H118327   4.502   5.508   2.085
 6121TIP3    H218328   4.523   5.368   2.033
 6122TIP3   OH218329   3.948   3.758   2.266
 6122TIP3    H118330   3.990   3.682   2.225
 6122TIP3    H218331   3.919   3.726   2.351
 6123TIP3   OH218332   7.047   3.482   0.524
 6123TIP3    H118333   7.094   3.551   0.571
 6123TIP3    H218334   6.987   3.445   0.590
 6124TIP3   OH218335   2.803   6.712   3.161
 6124TIP3    H118336   2.786   6.768   3.085
 6124TIP3    H218337   2.720   6.667   3.176
 6125TIP3   OH218338   6.977   5.962   5.015
 6125TIP3    H118339   6.904   5.981   4.955
 6125TIP3    H218340   7.021   5.887   4.975
 6126TIP3   OH218341   2.309   6.038   0.265
 6126TIP3    H118342   2.227   6.005   0.302
 6126TIP3    H218343   2.292   6.043   0.171
 6127TIP3   OH218344   6.544   3.425   2.847
 6127TIP3    H118345   6.621   3.475   2.819
 6127TIP3    H218346   6.575   3.373   2.921
 6128TIP3   OH218347   2.787   2.787   5.666
 6128TIP3    H118348   2.785   2.692   5.656
 6128TIP3    H218349   2.868   2.814   5.623
 6129TIP3   OH218350   6.083   3.647   2.485
 6129TIP3    H118351   5.991   3.642   2.513
 6129TIP3    H218352   6.087   3.726   2.431
 6130TIP3   OH218353   4.311   2.105   4.885
 6130TIP3    H118354   4.247   2.064   4.944
 6130TIP3    H218355   4.390   2.113   4.938
 6131TIP3   OH218356   7.172   0.203   3.333
 6131TIP3    H118357   7.127   0.154   3.402
 6131TIP3    H218358   7.229   0.139   3.291
 6132TIP3   OH218359   5.951   2.188   4.271
 6132TIP3    H118360   5.891   2.146   4.333
 6132TIP3    H218361   6.006   2.116   4.240
 6133TIP3   OH218362   6.358   0.194   4.099
 6133TIP3    H118363   6.342   0.127   4.166
 6133TIP3    H218364   6.303   0.169   4.025
 6134TIP3   OH218365   2.413   5.700   5.005
 6134TIP3    H118366   2.329   5.718   5.049
 6134TIP3    H218367   2.474   5.681   5.076
 6135TIP3   OH218368   6.136   5.295   0.885
 6135TIP3    H118369   6.147   5.367   0.948
 6135TIP3    H218370   6.159   5.333   0.801
 6136TIP3   OH218371   6.588   6.458   0.430
 6136TIP3    H118372   6.673   6.503   0.434
 6136TIP3    H218373   6.561   6.466   0.339
 6137TIP3   OH218374   4.387   6.518   3.015
 6137TIP3    H118375   4.342   6.600   3.033
 6137TIP3    H218376   4.457   6.513   3.080
 6138TIP3   OH218377   3.207   6.507   2.052
 6138TIP3    H118378   3.185   6.543   1.966
 6138TIP3    H218379   3.128   6.461   2.080
 6139TIP3   OH218380   2.551   0.818   2.349
 6139TIP3    H118381   2.584   0.729   2.363
 6139TIP3    H218382   2.573   0.837   2.258
 6140TIP3   OH218383   0.957   3.540   3.900
 6140TIP3    H118384   1.007   3.620   3.914
 6140TIP3    H218385   0.870   3.569   3.874
 6141TIP3   OH218386   0.447   3.205   4.167
 6141TIP3    H118387   0.431   3.297   4.147
 6141TIP3    H218388   0.509   3.176   4.100
 6142TIP3   OH218389   4.668   4.479   5.748
 6142TIP3    H118390   4.574   4.465   5.739
 6142TIP3    H218391   4.677   4.534   5.827
 6143TIP3   OH218392   3.769   4.037   0.908
 6143TIP3    H118393   3.752   4.023   1.001
 6143TIP3    H218394   3.823   3.963   0.881
 6144TIP3   OH218395   4.080   6.440   4.222
 6144TIP3    H118396   4.129   6.449   4.140
 6144TIP3    H218397   4.088   6.347   4.244
 6145TIP3   OH218398   6.831   2.002   5.238
 6145TIP3    H118399   6.809   1.995   5.145
 6145TIP3    H218400   6.810   2.093   5.261
 6146TIP3   OH218401   0.602   6.784   4.767
 6146TIP3    H118402   0.592   6.753   4.857
 6146TIP3    H218403   0.583   6.708   4.713
 6147TIP3   OH218404   3.856   6.257   4.768
 6147TIP3    H118405   3.804   6.177   4.771
 6147TIP3    H218406   3.811   6.317   4.828
 6148TIP3   OH218407   6.366   2.728   3.815
 6148TIP3    H118408   6.298   2.718   3.881
 6148TIP3    H218409   6.362   2.820   3.790
 6149TIP3   OH218410   1.816   4.452   5.687
 6149TIP3    H118411   1.842   4.410   5.769
 6149TIP3    H218412   1.725   4.477   5.701
 6150TIP3   OH218413   5.869   4.697   5.580
 6150TIP3    H118414   5.957   4.679   5.614
 6150TIP3    H218415   5.841   4.776   5.627
 6151TIP3   OH218416   6.962   3.467   2.947
 6151TIP3    H118417   7.036   3.498   2.896
 6151TIP3    H218418   6.992   3.469   3.038
 6152TIP3   OH218419   2.183   3.958   1.963
 6152TIP3    H118420   2.217   4.047   1.959
 6152TIP3    H218421   2.239   3.914   2.027
 6153TIP3   OH218422   0.728   6.004   3.628
 6153TIP3    H118423   0.777   5.954   3.562
 6153TIP3    H218424   0.681   6.070   3.577
 6154TIP3   OH218425   2.278   0.301   5.630
 6154TIP3    H118426   2.369   0.271   5.626
 6154TIP3    H218427   2.240   0.273   5.547
 6155TIP3   OH218428   5.940   1.627   5.571
 6155TIP3    H118429   5.916   1.716   5.598
 6155TIP3    H218430   5.881   1.607   5.499
 6156TIP3   OH218431   3.253   0.939   4.903
 6156TIP3    H118432   3.323   0.889   4.943
 6156TIP3    H218433   3.175   0.885   4.916
 6157TIP3   OH218434   6.035   6.688   3.214
 6157TIP3    H118435   6.036   6.619   3.147
 6157TIP3    H218436   6.022   6.641   3.296
 6158TIP3   OH218437   5.988   2.287   2.334
 6158TIP3    H118438   5.994   2.273   2.239
 6158TIP3    H218439   6.078   2.299   2.362
 6159TIP3   OH218440   5.196   0.333   4.754
 6159TIP3    H118441   5.274   0.280   4.770
 6159TIP3    H218442   5.171   0.365   4.841
 6160TIP3   OH218443   6.618   5.372   1.842
 6160TIP3    H118444   6.562   5.430   1.791
 6160TIP3    H218445   6.600   5.285   1.808
 6161TIP3   OH218446   7.214   6.556   3.470
 6161TIP3    H118447   7.125   6.577   3.442
 6161TIP3    H218448   7.271   6.601   3.408
 6162TIP3   OH218449   1.184   0.573   2.208
 6162TIP3    H118450   1.095   0.547   2.232
 6162TIP3    H218451   1.174   0.612   2.121
 6163TIP3   OH218452   7.207   3.628   1.850
 6163TIP3    H118453   7.123   3.605   1.811
 6163TIP3    H218454   7.198   3.721   1.872
 6164TIP3   OH218455   4.118   6.252   5.758
 6164TIP3    H118456   4.042   6.201   5.728
 6164TIP3    H218457   4.109   6.253   5.853
 6165TIP3   OH218458   4.896   4.074   2.491
 6165TIP3    H118459   4.982   4.035   2.504
 6165TIP3    H218460   4.841   4.033   2.558
 6166TIP3   OH218461   4.511   0.401   4.870
 6166TIP3    H118462   4.458   0.476   4.842
 6166TIP3    H218463   4.493   0.393   4.963
 6167TIP3   OH218464   4.548   1.380   3.230
 6167TIP3    H118465   4.630   1.350   3.190
 6167TIP3    H218466   4.527   1.460   3.183
 6168TIP3   OH218467   5.431   5.876   2.490
 6168TIP3    H118468   5.422   5.864   2.585
 6168TIP3    H218469   5.525   5.885   2.475
 6169TIP3   OH218470   3.767   3.538   4.407
 6169TIP3    H118471   3.859   3.566   4.402
 6169TIP3    H218472   3.722   3.614   4.444
 6170TIP3   OH218473   2.774   6.447   2.897
 6170TIP3    H118474   2.690   6.452   2.851
 6170TIP3    H218475   2.750   6.421   2.987
 6171TIP3   OH218476   7.055   2.384   5.038
 6171TIP3    H118477   7.066   2.478   5.027
 6171TIP3    H218478   6.979   2.362   4.984
 6172TIP3   OH218479   1.378   0.921   1.856
 6172TIP3    H118480   1.374   1.017   1.865
 6172TIP3    H218481   1.356   0.888   1.944
 6173TIP3   OH218482   5.268   2.703   3.600
 6173TIP3    H118483   5.183   2.681   3.639
 6173TIP3    H218484   5.248   2.722   3.508
 6174TIP3   OH218485   6.515   5.789   4.226
 6174TIP3    H118486   6.486   5.748   4.145
 6174TIP3    H218487   6.608   5.770   4.230
 6175TIP3   OH218488   4.124   5.493   1.462
 6175TIP3    H118489   4.096   5.564   1.520
 6175TIP3    H218490   4.048   5.435   1.457
 6176TIP3   OH218491   5.079   3.785   0.578
 6176TIP3    H118492   5.014   3.764   0.512
 6176TIP3    H218493   5.040   3.756   0.661
 6177TIP3   OH218494   4.189   5.103   5.174
 6177TIP3    H118495   4.176   5.061   5.258
 6177TIP3    H218496   4.105   5.094   5.129
 6178TIP3   OH218497   6.140   6.668   0.380
 6178TIP3    H118498   6.192   6.590   0.396
 6178TIP3    H218499   6.204   6.739   0.376
 6179TIP3   OH218500   1.509   1.912   4.744
 6179TIP3    H118501   1.420   1.925   4.778
 6179TIP3    H218502   1.541   1.834   4.789
 6180TIP3   OH218503   2.866  -0.007   0.315
 6180TIP3    H118504   2.810   0.070   0.302
 6180TIP3    H218505   2.810  -0.070   0.360
 6181TIP3   OH218506   2.444   5.301   2.896
 6181TIP3    H118507   2.465   5.226   2.952
 6181TIP3    H218508   2.406   5.262   2.817
 6182TIP3   OH218509   0.983   0.896   3.325
 6182TIP3    H118510   1.014   0.805   3.322
 6182TIP3    H218511   1.064   0.948   3.329
 6183TIP3   OH218512   3.294   0.560   3.781
 6183TIP3    H118513   3.245   0.584   3.702
 6183TIP3    H218514   3.341   0.640   3.805
 6184TIP3   OH218515   1.387   4.673   4.629
 6184TIP3    H118516   1.403   4.733   4.556
 6184TIP3    H218517   1.347   4.597   4.588
 6185TIP3   OH218518   1.252   5.411   1.305
 6185TIP3    H118519   1.268   5.386   1.396
 6185TIP3    H218520   1.157   5.405   1.295
 6186TIP3   OH218521   3.720   2.121   1.608
 6186TIP3    H118522   3.794   2.083   1.561
 6186TIP3    H218523   3.675   2.176   1.544
 6187TIP3   OH218524   0.821   0.139   5.361
 6187TIP3    H118525   0.790   0.050   5.376
 6187TIP3    H218526   0.743   0.194   5.373
 6188TIP3   OH218527   4.431   5.477   4.474
 6188TIP3    H118528   4.487   5.490   4.550
 6188TIP3    H218529   4.356   5.535   4.490
 6189TIP3   OH218530   4.894   0.695   1.881
 6189TIP3    H118531   4.853   0.774   1.919
 6189TIP3    H218532   4.963   0.672   1.944
 6190TIP3   OH218533   7.193   3.437   5.538
 6190TIP3    H118534   7.247   3.509   5.505
 6190TIP3    H218535   7.129   3.421   5.468
 6191TIP3   OH218536   5.014   2.866   1.437
 6191TIP3    H118537   4.973   2.830   1.359
 6191TIP3    H218538   5.096   2.818   1.446
 6192TIP3   OH218539   6.562   5.415   2.096
 6192TIP3    H118540   6.573   5.416   2.001
 6192TIP3    H218541   6.652   5.408   2.131
 6193TIP3   OH218542   5.050   6.148   3.300
 6193TIP3    H118543   4.994   6.102   3.238
 6193TIP3    H218544   5.138   6.141   3.263
 6194TIP3   OH218545   4.748   5.296   0.393
 6194TIP3    H118546   4.819   5.328   0.337
 6194TIP3    H218547   4.670   5.298   0.338
 6195TIP3   OH218548   1.809   1.563   5.274
 6195TIP3    H118549   1.876   1.548   5.207
 6195TIP3    H218550   1.857   1.554   5.357
 6196TIP3   OH218551   0.079   5.616   2.271
 6196TIP3    H118552   0.064   5.662   2.354
 6196TIP3    H218553   0.090   5.524   2.296
 6197TIP3   OH218554   1.599   3.894   5.063
 6197TIP3    H118555   1.565   3.806   5.079
 6197TIP3    H218556   1.599   3.903   4.967
 6198TIP3   OH218557   6.267   4.838   3.328
 6198TIP3    H118558   6.333   4.786   3.372
 6198TIP3    H218559   6.189   4.782   3.326
 6199TIP3   OH218560   4.023   1.732  -0.030
 6199TIP3    H118561   3.967   1.699   0.040
 6199TIP3    H218562   4.066   1.654  -0.065
 6200TIP3   OH218563   3.158   1.735   0.683
 6200TIP3    H118564   3.091   1.738   0.751
 6200TIP3    H218565   3.231   1.785   0.719
 6201TIP3   OH218566   0.394   1.994   2.893
 6201TIP3    H118567   0.416   1.965   2.804
 6201TIP3    H218568   0.423   2.085   2.897
 6202TIP3   OH218569   5.871   6.148   1.826
 6202TIP3    H118570   5.846   6.205   1.754
 6202TIP3    H218571   5.964   6.168   1.842
 6203TIP3   OH218572   2.165   2.149   5.586
 6203TIP3    H118573   2.079   2.145   5.544
 6203TIP3    H218574   2.199   2.060   5.579
 6204TIP3   OH218575   4.896   5.280   2.889
 6204TIP3    H118576   4.865   5.321   2.970
 6204TIP3    H218577   4.842   5.202   2.879
 6205TIP3   OH218578   6.642   4.139   1.190
 6205TIP3    H118579   6.601   4.155   1.105
 6205TIP3    H218580   6.642   4.043   1.199
 6206TIP3   OH218581   6.906   3.375   4.568
 6206TIP3    H118582   6.985   3.352   4.615
 6206TIP3    H218583   6.843   3.398   4.636
 6207TIP3   OH218584   0.324   5.498   5.258
 6207TIP3    H118585   0.233   5.469   5.258
 6207TIP3    H218586   0.323   5.581   5.306
 6208TIP3   OH218587   6.843   3.762   3.748
 6208TIP3    H118588   6.806   3.682   3.786
 6208TIP3    H218589   6.776   3.829   3.764
 6209TIP3   OH218590   0.705   6.339   4.624
 6209TIP3    H118591   0.700   6.279   4.550
 6209TIP3    H218592   0.730   6.284   4.699
 6210TIP3   OH218593   1.153   4.370   1.631
 6210TIP3    H118594   1.062   4.364   1.661
 6210TIP3    H218595   1.199   4.304   1.683
 6211TIP3   OH218596   5.616   1.686   4.880
 6211TIP3    H118597   5.522   1.674   4.893
 6211TIP3    H218598   5.626   1.695   4.785
 6212TIP3   OH218599   2.659   2.184   1.090
 6212TIP3    H118600   2.597   2.182   1.163
 6212TIP3    H218601   2.644   2.102   1.043
 6213TIP3   OH218602   5.403   5.369   5.846
 6213TIP3    H118603   5.411   5.452   5.798
 6213TIP3    H218604   5.375   5.306   5.780
 6214TIP3   OH218605   1.302   4.359   3.275
 6214TIP3    H118606   1.345   4.276   3.295
 6214TIP3    H218607   1.212   4.335   3.251
 6215TIP3   OH218608   3.856   4.951   5.533
 6215TIP3    H118609   3.780   5.001   5.561
 6215TIP3    H218610   3.875   4.984   5.445
 6216TIP3   OH218611   1.992   0.156   2.486
 6216TIP3    H118612   2.024   0.066   2.493
 6216TIP3    H218613   1.925   0.163   2.553
 6217TIP3   OH218614   5.276   3.618   4.861
 6217TIP3    H118615   5.263   3.674   4.785
 6217TIP3    H218616   5.357   3.651   4.901
 6218TIP3   OH218617   4.324   0.324   2.899
 6218TIP3    H118618   4.415   0.349   2.919
 6218TIP3    H218619   4.275   0.348   2.978
 6219TIP3   OH218620   6.260   6.123   4.335
 6219TIP3    H118621   6.240   6.163   4.250
 6219TIP3    H218622   6.299   6.194   4.387
 6220TIP3   OH218623   4.438   6.297   5.383
 6220TIP3    H118624   4.394   6.292   5.468
 6220TIP3    H218625   4.391   6.233   5.329
 6221TIP3   OH218626   2.005   3.638   0.336
 6221TIP3    H118627   2.058   3.601   0.266
 6221TIP3    H218628   2.047   3.607   0.416
 6222TIP3   OH218629   1.953   2.973   3.276
 6222TIP3    H118630   1.913   2.908   3.218
 6222TIP3    H218631   1.902   3.053   3.260
 6223TIP3   OH218632   5.113   3.639   4.348
 6223TIP3    H118633   5.103   3.589   4.429
 6223TIP3    H218634   5.205   3.628   4.324
 6224TIP3   OH218635   3.688   4.223   2.347
 6224TIP3    H118636   3.776   4.258   2.362
 6224TIP3    H218637   3.680   4.151   2.410
 6225TIP3   OH218638   4.743   5.594   0.548
 6225TIP3    H118639   4.726   5.668   0.605
 6225TIP3    H218640   4.723   5.625   0.460
 6226TIP3   OH218641   3.282   4.677   4.528
 6226TIP3    H118642   3.339   4.708   4.599
 6226TIP3    H218643   3.319   4.715   4.449
 6227TIP3   OH218644   0.147   2.664   3.276
 6227TIP3    H118645   0.171   2.756   3.289
 6227TIP3    H218646   0.056   2.667   3.246
 6228TIP3   OH218647   3.667   0.729   5.681
 6228TIP3    H118648   3.718   0.704   5.604
 6228TIP3    H218649   3.732   0.748   5.748
 6229TIP3   OH218650   0.560   4.765   3.684
 6229TIP3    H118651   0.595   4.734   3.768
 6229TIP3    H218652   0.477   4.717   3.674
 6230TIP3   OH218653   2.237   5.692   0.176
 6230TIP3    H118654   2.186   5.689   0.257
 6230TIP3    H218655   2.172   5.683   0.107
 6231TIP3   OH218656   3.496   4.529   4.730
 6231TIP3    H118657   3.493   4.483   4.646
 6231TIP3    H218658   3.579   4.501   4.769
 6232TIP3   OH218659   2.043   1.769   0.615
 6232TIP3    H118660   1.973   1.703   0.614
 6232TIP3    H218661   1.997   1.852   0.601
 6233TIP3   OH218662   2.020   4.416   4.636
 6233TIP3    H118663   2.080   4.478   4.595
 6233TIP3    H218664   2.066   4.332   4.633
 6234TIP3   OH218665   2.787   4.728   0.034
 6234TIP3    H118666   2.769   4.720  -0.059
 6234TIP3    H218667   2.754   4.646   0.072
 6235TIP3   OH218668   1.791   0.459   4.454
 6235TIP3    H118669   1.783   0.370   4.488
 6235TIP3    H218670   1.874   0.460   4.407
 6236TIP3   OH218671   5.376   3.957   1.165
 6236TIP3    H118672   5.378   3.870   1.205
 6236TIP3    H218673   5.378   4.017   1.240
 6237TIP3   OH218674   4.236   2.585   4.738
 6237TIP3    H118675   4.282   2.631   4.808
 6237TIP3    H218676   4.181   2.651   4.697
 6238TIP3   OH218677   2.364   6.540   0.966
 6238TIP3    H118678   2.301   6.508   0.901
 6238TIP3    H218679   2.400   6.462   1.006
 6239TIP3   OH218680   1.157   5.742   3.845
 6239TIP3    H118681   1.159   5.824   3.894
 6239TIP3    H218682   1.104   5.761   3.767
 6240TIP3   OH218683   0.593   2.618   2.794
 6240TIP3    H118684   0.630   2.625   2.881
 6240TIP3    H218685   0.505   2.656   2.802
 6241TIP3   OH218686   3.529   4.561   1.554
 6241TIP3    H118687   3.532   4.471   1.520
 6241TIP3    H218688   3.604   4.604   1.515
 6242TIP3   OH218689   5.002   4.634   3.806
 6242TIP3    H118690   4.962   4.557   3.846
 6242TIP3    H218691   4.937   4.664   3.742
 6243TIP3   OH218692   1.220   4.358   2.025
 6243TIP3    H118693   1.213   4.285   1.963
 6243TIP3    H218694   1.307   4.396   2.008
 6244TIP3   OH218695   6.164   3.045   5.226
 6244TIP3    H118696   6.070   3.067   5.224
 6244TIP3    H218697   6.206   3.115   5.177
 6245TIP3   OH218698   5.024   5.645   4.017
 6245TIP3    H118699   4.946   5.628   4.071
 6245TIP3    H218700   5.066   5.560   4.008
 6246TIP3   OH218701   1.347   0.547   1.460
 6246TIP3    H118702   1.296   0.622   1.492
 6246TIP3    H218703   1.333   0.548   1.366
 6247TIP3   OH218704   3.466   4.429   0.203
 6247TIP3    H118705   3.389   4.420   0.147
 6247TIP3    H218706   3.443   4.498   0.265
 6248TIP3   OH218707   2.829   1.247   4.522
 6248TIP3    H118708   2.924   1.239   4.517
 6248TIP3    H218709   2.805   1.290   4.439
 6249TIP3   OH218710   3.849   5.231   3.674
 6249TIP3    H118711   3.799   5.157   3.637
 6249TIP3    H218712   3.836   5.223   3.768
 6250TIP3   OH218713   0.428   2.980   1.477
 6250TIP3    H118714   0.450   2.894   1.440
 6250TIP3    H218715   0.445   2.971   1.571
 6251TIP3   OH218716   6.020   5.776   2.031
 6251TIP3    H118717   6.086   5.837   1.998
 6251TIP3    H218718   6.030   5.698   1.977
 6252TIP3   OH218719   0.595   5.300   3.065
 6252TIP3    H118720   0.638   5.259   2.990
 6252TIP3    H218721   0.623   5.248   3.140
 6253TIP3   OH218722   2.055   5.689   0.917
 6253TIP3    H118723   2.055   5.737   0.834
 6253TIP3    H218724   2.095   5.605   0.896
 6254TIP3   OH218725   0.026   3.262   4.131
 6254TIP3    H118726   0.067   3.255   4.217
 6254TIP3    H218727   0.098   3.272   4.069
 6255TIP3   OH218728   0.158   3.466   0.122
 6255TIP3    H118729   0.104   3.447   0.045
 6255TIP3    H218730   0.096   3.463   0.196
 6256TIP3   OH218731   1.780   4.715   4.767
 6256TIP3    H118732   1.846   4.756   4.823
 6256TIP3    H218733   1.711   4.689   4.829
 6257TIP3   OH218734   2.734   0.938   1.247
 6257TIP3    H118735   2.644   0.966   1.234
 6257TIP3    H218736   2.764   0.988   1.323
 6258TIP3   OH218737   4.542   4.918   0.136
 6258TIP3    H118738   4.522   5.008   0.160
 6258TIP3    H218739   4.604   4.888   0.203
 6259TIP3   OH218740   2.191   0.850   1.754
 6259TIP3    H118741   2.197   0.769   1.703
 6259TIP3    H218742   2.175   0.820   1.844
 6260TIP3   OH218743   1.473   5.140   4.658
 6260TIP3    H118744   1.424   5.081   4.600
 6260TIP3    H218745   1.501   5.083   4.730
 6261TIP3   OH218746   6.720   6.648   2.416
 6261TIP3    H118747   6.757   6.670   2.502
 6261TIP3    H218748   6.772   6.572   2.387
 6262TIP3   OH218749   3.843   4.327   3.291
 6262TIP3    H118750   3.831   4.384   3.215
 6262TIP3    H218751   3.935   4.300   3.286
 6263TIP3   OH218752   2.879   5.306   2.510
 6263TIP3    H118753   2.864   5.222   2.468
 6263TIP3    H218754   2.797   5.326   2.554
 6264TIP3   OH218755   5.312   5.729   2.291
 6264TIP3    H118756   5.340   5.637   2.298
 6264TIP3    H218757   5.359   5.774   2.361
 6265TIP3   OH218758   2.419   5.588   4.739
 6265TIP3    H118759   2.430   5.612   4.831
 6265TIP3    H218760   2.337   5.540   4.735
 6266TIP3   OH218761   3.807   1.649   5.418
 6266TIP3    H118762   3.763   1.683   5.496
 6266TIP3    H218763   3.787   1.712   5.349
 6267TIP3   OH218764   4.771   5.206   5.163
 6267TIP3    H118765   4.733   5.191   5.249
 6267TIP3    H218766   4.800   5.120   5.134
 6268TIP3   OH218767   3.023   3.458   4.930
 6268TIP3    H118768   2.928   3.458   4.943
 6268TIP3    H218769   3.058   3.414   5.008
 6269TIP3   OH218770   3.252   4.578   1.579
 6269TIP3    H118771   3.265   4.632   1.657
 6269TIP3    H218772   3.339   4.570   1.540
 6270TIP3   OH218773   2.428   5.567   3.552
 6270TIP3    H118774   2.523   5.580   3.549
 6270TIP3    H218775   2.416   5.493   3.611
 6271TIP3   OH218776   5.101   3.045   5.719
 6271TIP3    H118777   5.185   3.003   5.735
 6271TIP3    H218778   5.123   3.120   5.663
 6272TIP3   OH218779   2.470   1.023   5.691
 6272TIP3    H118780   2.519   1.083   5.634
 6272TIP3    H218781   2.447   0.949   5.634
 6273TIP3   OH218782   4.455   1.568   1.432
 6273TIP3    H118783   4.465   1.548   1.338
 6273TIP3    H218784   4.365   1.598   1.441
 6274TIP3   OH218785   0.653   1.127   3.569
 6274TIP3    H118786   0.687   1.176   3.644
 6274TIP3    H218787   0.617   1.194   3.511
 6275TIP3   OH218788   6.388   4.401   5.120
 6275TIP3    H118789   6.338   4.329   5.157
 6275TIP3    H218790   6.373   4.396   5.025
 6276TIP3   OH218791   5.961   1.893   0.678
 6276TIP3    H118792   5.872   1.884   0.710
 6276TIP3    H218793   6.014   1.839   0.737
 6277TIP3   OH218794   0.452   0.693   5.724
 6277TIP3    H118795   0.419   0.769   5.772
 6277TIP3    H218796   0.393   0.622   5.748
 6278TIP3   OH218797   5.584   3.949   0.178
 6278TIP3    H118798   5.542   3.863   0.174
 6278TIP3    H218799   5.529   4.001   0.235
 6279TIP3   OH218800   0.159   6.229   2.768
 6279TIP3    H118801   0.175   6.244   2.675
 6279TIP3    H218802   0.070   6.195   2.772
 6280TIP3   OH218803   4.210   4.464   3.222
 6280TIP3    H118804   4.177   4.385   3.179
 6280TIP3    H218805   4.299   4.475   3.187
 6281TIP3   OH218806   3.585   6.380   2.872
 6281TIP3    H118807   3.614   6.392   2.962
 6281TIP3    H218808   3.489   6.385   2.876
 6282TIP3   OH218809   0.021   6.343   0.252
 6282TIP3    H118810   0.116   6.354   0.254
 6282TIP3    H218811  -0.012   6.426   0.218
 6283TIP3   OH218812   2.607   2.671   1.925
 6283TIP3    H118813   2.692   2.661   1.967
 6283TIP3    H218814   2.560   2.734   1.979
 6284TIP3   OH218815   4.592   6.342   4.515
 6284TIP3    H118816   4.565   6.268   4.568
 6284TIP3    H218817   4.591   6.417   4.576
 6285TIP3   OH218818   5.254   0.027   5.802
 6285TIP3    H118819   5.253   0.123   5.794
 6285TIP3    H218820   5.180  -0.002   5.747
 6286TIP3   OH218821   2.866   5.704   3.920
 6286TIP3    H118822   2.949   5.675   3.883
 6286TIP3    H218823   2.812   5.726   3.844
 6287TIP3   OH218824   2.656   4.056   4.015
 6287TIP3    H118825   2.633   3.976   3.967
 6287TIP3    H218826   2.612   4.046   4.100
 6288TIP3   OH218827   5.106   6.155   0.948
 6288TIP3    H118828   5.067   6.070   0.926
 6288TIP3    H218829   5.197   6.134   0.969
 6289TIP3   OH218830   3.797   4.898   1.614
 6289TIP3    H118831   3.807   4.815   1.569
 6289TIP3    H218832   3.708   4.897   1.649
 6290TIP3   OH218833   1.944   3.456   5.649
 6290TIP3    H118834   2.013   3.506   5.692
 6290TIP3    H218835   1.868   3.515   5.649
 6291TIP3   OH218836   6.160   4.161   4.781
 6291TIP3    H118837   6.198   4.106   4.850
 6291TIP3    H218838   6.104   4.222   4.828
 6292TIP3   OH218839   6.461   4.880   3.058
 6292TIP3    H118840   6.415   4.951   3.103
 6292TIP3    H218841   6.532   4.923   3.011
 6293TIP3   OH218842   2.473   4.763   3.932
 6293TIP3    H118843   2.563   4.788   3.952
 6293TIP3    H218844   2.426   4.775   4.014
 6294TIP3   OH218845   2.928   4.778   4.965
 6294TIP3    H118846   3.019   4.757   4.941
 6294TIP3    H218847   2.903   4.709   5.026
 6295TIP3   OH218848   6.978   3.026   5.198
 6295TIP3    H118849   7.067   3.022   5.231
 6295TIP3    H218850   6.982   2.983   5.113
 6296TIP3   OH218851   3.870   6.627   4.718
 6296TIP3    H118852   3.933   6.605   4.650
 6296TIP3    H218853   3.816   6.696   4.681
 6297TIP3   OH218854   5.723   4.886   2.689
 6297TIP3    H118855   5.782   4.959   2.708
 6297TIP3    H218856   5.743   4.820   2.756
 6298TIP3   OH218857   6.841   4.481   2.025
 6298TIP3    H118858   6.819   4.560   2.074
 6298TIP3    H218859   6.771   4.419   2.046
 6299TIP3   OH218860   2.854   4.127   5.440
 6299TIP3    H118861   2.832   4.062   5.507
 6299TIP3    H218862   2.928   4.089   5.392
 6300TIP3   OH218863   5.985   6.498   1.118
 6300TIP3    H118864   5.934   6.451   1.052
 6300TIP3    H218865   6.036   6.562   1.068
 6301TIP3   OH218866   6.666   0.233   3.019
 6301TIP3    H118867   6.758   0.211   3.034
 6301TIP3    H218868   6.665   0.327   3.006
 6302TIP3   OH218869   2.150   2.658   0.433
 6302TIP3    H118870   2.181   2.577   0.474
 6302TIP3    H218871   2.088   2.629   0.366
 6303TIP3   OH218872   2.525   0.724   0.958
 6303TIP3    H118873   2.455   0.766   1.008
 6303TIP3    H218874   2.558   0.655   1.017
 6304TIP3   OH218875   3.276   2.624   2.647
 6304TIP3    H118876   3.262   2.562   2.575
 6304TIP3    H218877   3.221   2.592   2.718
 6305TIP3   OH218878   2.598   4.899   1.319
 6305TIP3    H118879   2.541   4.848   1.261
 6305TIP3    H218880   2.628   4.972   1.265
 6306TIP3   OH218881   4.954   3.440   1.270
 6306TIP3    H118882   5.002   3.454   1.189
 6306TIP3    H218883   4.897   3.366   1.252
 6307TIP3   OH218884   4.225   5.790   1.664
 6307TIP3    H118885   4.312   5.757   1.638
 6307TIP3    H218886   4.219   5.876   1.623
 6308TIP3   OH218887   3.480   0.117   3.969
 6308TIP3    H118888   3.538   0.181   4.008
 6308TIP3    H218889   3.410   0.169   3.929
 6309TIP3   OH218890   0.684   5.326   5.754
 6309TIP3    H118891   0.776   5.300   5.756
 6309TIP3    H218892   0.649   5.287   5.674
 6310TIP3   OH218893   2.509   6.676   3.190
 6310TIP3    H118894   2.500   6.713   3.102
 6310TIP3    H218895   2.425   6.634   3.207
 6311TIP3   OH218896   5.160   4.785   4.755
 6311TIP3    H118897   5.197   4.794   4.843
 6311TIP3    H218898   5.093   4.717   4.764
 6312TIP3   OH218899   1.885   4.829   0.845
 6312TIP3    H118900   1.894   4.864   0.934
 6312TIP3    H218901   1.821   4.886   0.803
 6313TIP3   OH218902   3.900   1.200   5.793
 6313TIP3    H118903   3.888   1.181   5.700
 6313TIP3    H218904   3.990   1.232   5.799
 6314TIP3   OH218905   1.704   3.586   4.223
 6314TIP3    H118906   1.708   3.669   4.175
 6314TIP3    H218907   1.709   3.612   4.315
 6315TIP3   OH218908   0.384   5.946   2.506
 6315TIP3    H118909   0.419   5.976   2.589
 6315TIP3    H218910   0.300   5.990   2.498
 6316TIP3   OH218911   2.635   2.454   1.028
 6316TIP3    H118912   2.548   2.414   1.023
 6316TIP3    H218913   2.694   2.381   1.046
 6317TIP3   OH218914   3.471   2.123   2.930
 6317TIP3    H118915   3.416   2.113   2.853
 6317TIP3    H218916   3.558   2.096   2.900
 6318TIP3   OH218917   0.623   3.113   3.928
 6318TIP3    H118918   0.602   3.021   3.917
 6318TIP3    H218919   0.716   3.114   3.950
 6319TIP3   OH218920   2.396   4.231   1.718
 6319TIP3    H118921   2.446   4.283   1.781
 6319TIP3    H218922   2.411   4.274   1.634
 6320TIP3   OH218923   6.792   0.623   4.495
 6320TIP3    H118924   6.828   0.628   4.583
 6320TIP3    H218925   6.763   0.532   4.485
 6321TIP3   OH218926   3.937   3.975   3.484
 6321TIP3    H118927   3.939   4.020   3.569
 6321TIP3    H218928   3.923   3.883   3.506
 6322TIP3   OH218929   4.748   2.342   4.673
 6322TIP3    H118930   4.783   2.425   4.643
 6322TIP3    H218931   4.660   2.363   4.705
 6323TIP3   OH218932   6.636   0.607   2.292
 6323TIP3    H118933   6.554   0.577   2.251
 6323TIP3    H218934   6.700   0.605   2.222
 6324TIP3   OH218935   2.454   6.205   2.075
 6324TIP3    H118936   2.488   6.294   2.087
 6324TIP3    H218937   2.378   6.201   2.133
 6325TIP3   OH218938   0.833   1.834   0.976
 6325TIP3    H118939   0.786   1.822   0.893
 6325TIP3    H218940   0.833   1.929   0.989
 6326TIP3   OH218941   1.984   2.917   1.692
 6326TIP3    H118942   2.024   2.896   1.776
 6326TIP3    H218943   2.017   2.849   1.633
 6327TIP3   OH218944   6.152   4.609   5.561
 6327TIP3    H118945   6.105   4.526   5.570
 6327TIP3    H218946   6.243   4.584   5.544
 6328TIP3   OH218947   5.337   4.175   2.946
 6328TIP3    H118948   5.259   4.145   2.995
 6328TIP3    H218949   5.365   4.098   2.897
 6329TIP3   OH218950   1.573   4.442   2.486
 6329TIP3    H118951   1.605   4.514   2.540
 6329TIP3    H218952   1.633   4.439   2.411
 6330TIP3   OH218953   2.377   2.075   4.577
 6330TIP3    H118954   2.347   2.116   4.496
 6330TIP3    H218955   2.413   2.147   4.629
 6331TIP3   OH218956   1.536   1.151   0.723
 6331TIP3    H118957   1.588   1.197   0.789
 6331TIP3    H218958   1.465   1.212   0.701
 6332TIP3   OH218959   6.241   0.461   1.645
 6332TIP3    H118960   6.187   0.508   1.709
 6332TIP3    H218961   6.207   0.372   1.646
 6333TIP3   OH218962   5.253   4.876   1.365
 6333TIP3    H118963   5.316   4.927   1.416
 6333TIP3    H218964   5.271   4.785   1.388
 6334TIP3   OH218965   4.495   1.212   2.573
 6334TIP3    H118966   4.470   1.302   2.555
 6334TIP3    H218967   4.482   1.166   2.491
 6335TIP3   OH218968   3.395   5.637   2.249
 6335TIP3    H118969   3.304   5.617   2.272
 6335TIP3    H218970   3.389   5.699   2.176
 6336TIP3   OH218971   6.441   1.091   1.059
 6336TIP3    H118972   6.377   1.083   0.989
 6336TIP3    H218973   6.508   1.026   1.039
 6337TIP3   OH218974   5.059   6.221   4.443
 6337TIP3    H118975   5.069   6.166   4.366
 6337TIP3    H218976   4.972   6.199   4.478
 6338TIP3   OH218977   2.680   1.979   2.642
 6338TIP3    H118978   2.617   2.027   2.696
 6338TIP3    H218979   2.628   1.911   2.600
 6339TIP3   OH218980   6.490   1.031   5.319
 6339TIP3    H118981   6.448   1.088   5.254
 6339TIP3    H218982   6.557   1.087   5.360
 6340TIP3   OH218983  -0.016   0.562   5.472
 6340TIP3    H118984   0.016   0.560   5.562
 6340TIP3    H218985  -0.068   0.643   5.466
 6341TIP3   OH218986   2.703   4.221   0.739
 6341TIP3    H118987   2.728   4.314   0.741
 6341TIP3    H218988   2.642   4.215   0.665
 6342TIP3   OH218989   1.904   1.223   5.004
 6342TIP3    H118990   1.963   1.152   4.977
 6342TIP3    H218991   1.830   1.178   5.044
 6343TIP3   OH218992   7.024   2.495   2.975
 6343TIP3    H118993   7.023   2.538   2.889
 6343TIP3    H218994   6.992   2.407   2.958
 6344TIP3   OH218995   5.363   1.561   3.677
 6344TIP3    H118996   5.322   1.561   3.763
 6344TIP3    H218997   5.453   1.588   3.693
 6345TIP3   OH218998   4.709   3.793   3.944
 6345TIP3    H118999   4.800   3.819   3.932
 6345TIP3    H219000   4.676   3.850   4.014
 6346TIP3   OH219001   4.379   2.363   3.736
 6346TIP3    H119002   4.327   2.327   3.664
 6346TIP3    H219003   4.328   2.438   3.766
 6347TIP3   OH219004   5.912   4.792   4.257
 6347TIP3    H119005   5.894   4.883   4.279
 6347TIP3    H219006   5.892   4.785   4.163
 6348TIP3   OH219007   0.772   2.944   5.118
 6348TIP3    H119008   0.860   2.906   5.115
 6348TIP3    H219009   0.784   3.030   5.158
 6349TIP3   OH219010   3.676   0.660   1.974
 6349TIP3    H119011   3.746   0.698   1.920
 6349TIP3    H219012   3.604   0.723   1.966
 6350TIP3   OH219013   7.006   0.970   3.351
 6350TIP3    H119014   7.083   0.914   3.344
 6350TIP3    H219015   6.958   0.935   3.427
 6351TIP3   OH219016   4.891   1.469   2.636
 6351TIP3    H119017   4.980   1.466   2.602
 6351TIP3    H219018   4.862   1.560   2.622
 6352TIP3   OH219019   6.213   3.976   4.962
 6352TIP3    H119020   6.138   3.940   5.010
 6352TIP3    H219021   6.288   3.958   5.019
 6353TIP3   OH219022   1.305   4.249   5.522
 6353TIP3    H119023   1.280   4.281   5.608
 6353TIP3    H219024   1.398   4.273   5.514
 6354TIP3   OH219025   5.194   3.533   1.423
 6354TIP3    H119026   5.216   3.462   1.483
 6354TIP3    H219027   5.127   3.495   1.365
 6355TIP3   OH219028   0.758   5.065   0.251
 6355TIP3    H119029   0.747   5.060   0.156
 6355TIP3    H219030   0.679   5.024   0.287
 6356TIP3   OH219031   6.300   0.850   4.252
 6356TIP3    H119032   6.268   0.910   4.186
 6356TIP3    H219033   6.250   0.769   4.238
 6357TIP3   OH219034   3.775   6.144   4.409
 6357TIP3    H119035   3.862   6.170   4.440
 6357TIP3    H219036   3.747   6.077   4.471
 6358TIP3   OH219037   2.896   4.431   2.480
 6358TIP3    H119038   2.912   4.336   2.475
 6358TIP3    H219039   2.954   4.469   2.414
 6359TIP3   OH219040   5.084   0.184   2.386
 6359TIP3    H119041   5.062   0.245   2.457
 6359TIP3    H219042   5.008   0.127   2.378
 6360TIP3   OH219043   6.725   3.514   1.817
 6360TIP3    H119044   6.707   3.597   1.773
 6360TIP3    H219045   6.639   3.472   1.827
 6361TIP3   OH219046   3.693   4.017   2.877
 6361TIP3    H119047   3.620   4.042   2.933
 6361TIP3    H219048   3.695   4.084   2.808
 6362TIP3   OH219049   0.306   4.868   0.180
 6362TIP3    H119050   0.263   4.883   0.264
 6362TIP3    H219051   0.238   4.831   0.124
 6363TIP3   OH219052   2.489   6.094   3.113
 6363TIP3    H119053   2.500   6.160   3.181
 6363TIP3    H219054   2.414   6.043   3.141
 6364TIP3   OH219055   1.165   2.509   0.257
 6364TIP3    H119056   1.151   2.603   0.266
 6364TIP3    H219057   1.237   2.490   0.318
 6365TIP3   OH219058   0.226   3.339   1.093
 6365TIP3    H119059   0.230   3.265   1.153
 6365TIP3    H219060   0.187   3.410   1.144
 6366TIP3   OH219061   6.425   5.864   0.614
 6366TIP3    H119062   6.361   5.883   0.546
 6366TIP3    H219063   6.388   5.790   0.663
 6367TIP3   OH219064   1.195   0.546  -0.007
 6367TIP3    H119065   1.124   0.549   0.057
 6367TIP3    H219066   1.269   0.508   0.040
 6368TIP3   OH219067   2.107   3.581   0.778
 6368TIP3    H119068   2.020   3.620   0.776
 6368TIP3    H219069   2.097   3.502   0.832
 6369TIP3   OH219070   6.043   4.347   5.598
 6369TIP3    H119071   5.998   4.287   5.538
 6369TIP3    H219072   5.979   4.362   5.668
 6370TIP3   OH219073   6.074   5.324   3.603
 6370TIP3    H119074   6.053   5.284   3.687
 6370TIP3    H219075   5.993   5.320   3.552
 6371TIP3   OH219076   3.132   4.460   1.080
 6371TIP3    H119077   3.086   4.543   1.080
 6371TIP3    H219078   3.063   4.394   1.079
 6372TIP3   OH219079   2.926   2.252   5.574
 6372TIP3    H119080   2.848   2.280   5.525
 6372TIP3    H219081   2.908   2.160   5.596
 6373TIP3   OH219082   7.041   0.173   2.449
 6373TIP3    H119083   7.108   0.230   2.411
 6373TIP3    H219084   6.960   0.224   2.442
 6374TIP3   OH219085   6.010   6.698   2.694
 6374TIP3    H119086   6.093   6.687   2.740
 6374TIP3    H219087   6.002   6.793   2.682
 6375TIP3   OH219088   3.988   5.580   0.310
 6375TIP3    H119089   4.033   5.564   0.392
 6375TIP3    H219090   3.896   5.563   0.329
 6376TIP3   OH219091   5.497   0.931   3.463
 6376TIP3    H119092   5.464   0.847   3.432
 6376TIP3    H219093   5.435   0.957   3.531
 6377TIP3   OH219094   4.046   4.251   1.188
 6377TIP3    H119095   4.119   4.276   1.133
 6377TIP3    H219096   4.070   4.281   1.276
 6378TIP3   OH219097   6.127   4.442   2.871
 6378TIP3    H119098   6.186   4.481   2.936
 6378TIP3    H219099   6.044   4.490   2.882
 6379TIP3   OH219100   6.887   6.701   5.221
 6379TIP3    H119101   6.811   6.688   5.164
 6379TIP3    H219102   6.953   6.639   5.188
 6380TIP3   OH219103   6.360   0.381   3.767
 6380TIP3    H119104   6.275   0.416   3.793
 6380TIP3    H219105   6.351   0.286   3.774
 6381TIP3   OH219106   5.214   2.170   5.113
 6381TIP3    H119107   5.219   2.246   5.055
 6381TIP3    H219108   5.285   2.182   5.175
 6382TIP3   OH219109   4.510   1.895   2.312
 6382TIP3    H119110   4.528   1.822   2.371
 6382TIP3    H219111   4.482   1.967   2.369
 6383TIP3   OH219112   0.534   3.259   1.472
 6383TIP3    H119113   0.562   3.196   1.539
 6383TIP3    H219114   0.451   3.225   1.440
 6384TIP3   OH219115   1.291   1.872   0.566
 6384TIP3    H119116   1.349   1.856   0.491
 6384TIP3    H219117   1.312   1.802   0.628
 6385TIP3   OH219118   4.689   0.818   4.778
 6385TIP3    H119119   4.734   0.856   4.703
 6385TIP3    H219120   4.634   0.889   4.812
 6386TIP3   OH219121   1.557   1.709   1.797
 6386TIP3    H119122   1.579   1.650   1.725
 6386TIP3    H219123   1.477   1.672   1.835
 6387TIP3   OH219124   0.141   2.500   4.594
 6387TIP3    H119125   0.053   2.471   4.573
 6387TIP3    H219126   0.145   2.592   4.565
 6388TIP3   OH219127   2.094   2.650   1.535
 6388TIP3    H119128   2.174   2.693   1.566
 6388TIP3    H219129   2.105   2.558   1.562
 6389TIP3   OH219130   4.307   3.077   3.742
 6389TIP3    H119131   4.360   3.019   3.687
 6389TIP3    H219132   4.371   3.121   3.798
 6390TIP3   OH219133   5.418   0.566   0.852
 6390TIP3    H119134   5.503   0.557   0.895
 6390TIP3    H219135   5.361   0.606   0.918
 6391TIP3   OH219136   2.360   2.798   3.332
 6391TIP3    H119137   2.348   2.878   3.384
 6391TIP3    H219138   2.444   2.811   3.289
 6392TIP3   OH219139   3.180   0.910   5.649
 6392TIP3    H119140   3.100   0.922   5.597
 6392TIP3    H219141   3.166   0.827   5.695
 6393TIP3   OH219142   6.311   4.861   4.368
 6393TIP3    H119143   6.395   4.906   4.357
 6393TIP3    H219144   6.251   4.929   4.400
 6394TIP3   OH219145   2.977   6.607   5.843
 6394TIP3    H119146   3.045   6.634   5.905
 6394TIP3    H219147   2.932   6.687   5.819
 6395TIP3   OH219148   1.573   1.745   3.340
 6395TIP3    H119149   1.495   1.765   3.288
 6395TIP3    H219150   1.586   1.651   3.330
 6396TIP3   OH219151   6.975   0.408   0.962
 6396TIP3    H119152   6.898   0.452   0.925
 6396TIP3    H219153   6.943   0.320   0.985
 6397TIP3   OH219154   3.943   6.199   4.054
 6397TIP3    H119155   3.880   6.128   4.044
 6397TIP3    H219156   3.944   6.242   3.968
 6398TIP3   OH219157   0.640   2.367   2.631
 6398TIP3    H119158   0.573   2.305   2.602
 6398TIP3    H219159   0.590   2.440   2.669
 6399TIP3   OH219160   5.954   0.637   2.974
 6399TIP3    H119161   5.934   0.731   2.976
 6399TIP3    H219162   5.872   0.594   2.997
 6400TIP3   OH219163   4.421   3.328   0.284
 6400TIP3    H119164   4.409   3.235   0.302
 6400TIP3    H219165   4.332   3.363   0.278
 6401TIP3   OH219166   0.218   3.365   3.957
 6401TIP3    H119167   0.186   3.419   3.884
 6401TIP3    H219168   0.272   3.425   4.009
 6402TIP3   OH219169   4.247   1.435   0.776
 6402TIP3    H119170   4.261   1.379   0.852
 6402TIP3    H219171   4.281   1.520   0.802
 6403TIP3   OH219172   7.129   3.531   5.776
 6403TIP3    H119173   7.111   3.481   5.696
 6403TIP3    H219174   7.224   3.530   5.784
 6404TIP3   OH219175   5.269   1.077   2.747
 6404TIP3    H119176   5.200   1.136   2.717
 6404TIP3    H219177   5.339   1.088   2.683
 6405TIP3   OH219178   6.654   0.529   3.009
 6405TIP3    H119179   6.589   0.484   2.955
 6405TIP3    H219180   6.603   0.578   3.072
 6406TIP3   OH219181   6.361   4.683   5.097
 6406TIP3    H119182   6.386   4.595   5.125
 6406TIP3    H219183   6.292   4.668   5.031
 6407TIP3   OH219184   5.634   5.754   2.820
 6407TIP3    H119185   5.645   5.711   2.905
 6407TIP3    H219186   5.669   5.693   2.756
 6408TIP3   OH219187   2.793   2.142   3.843
 6408TIP3    H119188   2.874   2.193   3.837
 6408TIP3    H219189   2.790   2.092   3.762
 6409TIP3   OH219190   4.090   1.866   4.943
 6409TIP3    H119191   4.132   1.781   4.952
 6409TIP3    H219192   4.082   1.899   5.032
 6410TIP3   OH219193   2.750   1.270   5.821
 6410TIP3    H119194   2.709   1.343   5.868
 6410TIP3    H219195   2.791   1.217   5.890
 6411TIP3   OH219196   0.137   6.763   2.493
 6411TIP3    H119197   0.146   6.749   2.398
 6411TIP3    H219198   0.222   6.797   2.520
 6412TIP3   OH219199   1.207   5.440   3.105
 6412TIP3    H119200   1.151   5.488   3.044
 6412TIP3    H219201   1.194   5.348   3.081
 6413TIP3   OH219202   6.817   5.394   3.235
 6413TIP3    H119203   6.858   5.409   3.150
 6413TIP3    H219204   6.861   5.456   3.294
 6414TIP3   OH219205   5.140   2.308   0.686
 6414TIP3    H119206   5.125   2.398   0.712
 6414TIP3    H219207   5.158   2.262   0.768
 6415TIP3   OH219208   1.397   5.172   2.921
 6415TIP3    H119209   1.379   5.081   2.943
 6415TIP3    H219210   1.371   5.221   3.000
 6416TIP3   OH219211   4.354   5.232   1.974
 6416TIP3    H119212   4.409   5.258   1.900
 6416TIP3    H219213   4.351   5.136   1.970
 6417TIP3   OH219214   4.044   5.938   3.357
 6417TIP3    H119215   4.003   5.863   3.400
 6417TIP3    H219216   4.002   6.014   3.397
 6418TIP3   OH219217   3.408   6.332   1.942
 6418TIP3    H119218   3.406   6.409   1.885
 6418TIP3    H219219   3.317   6.321   1.969
 6419TIP3   OH219220   5.412   5.477   2.317
 6419TIP3    H119221   5.507   5.464   2.327
 6419TIP3    H219222   5.373   5.414   2.377
 6420TIP3   OH219223   3.590   0.742   5.188
 6420TIP3    H119224   3.600   0.835   5.170
 6420TIP3    H219225   3.646   0.698   5.124
 6421TIP3   OH219226   0.879   2.336   3.146
 6421TIP3    H119227   0.838   2.413   3.106
 6421TIP3    H219228   0.818   2.265   3.127
 6422TIP3   OH219229   3.765   0.729   4.112
 6422TIP3    H119230   3.823   0.801   4.088
 6422TIP3    H219231   3.730   0.698   4.029
 6423TIP3   OH219232   3.304   2.042   4.976
 6423TIP3    H119233   3.283   2.120   4.925
 6423TIP3    H219234   3.399   2.038   4.976
 6424TIP3   OH219235   0.834   6.127   1.705
 6424TIP3    H119236   0.918   6.119   1.659
 6424TIP3    H219237   0.775   6.066   1.659
 6425TIP3   OH219238   6.062   6.562   5.667
 6425TIP3    H119239   6.016   6.552   5.751
 6425TIP3    H219240   6.055   6.655   5.648
 6426TIP3   OH219241   6.565   6.578   4.653
 6426TIP3    H119242   6.470   6.565   4.658
 6426TIP3    H219243   6.602   6.497   4.688
 6427TIP3   OH219244   5.791   5.920   1.298
 6427TIP3    H119245   5.748   5.865   1.363
 6427TIP3    H219246   5.833   5.990   1.349
 6428TIP3   OH219247   1.254   1.474   4.870
 6428TIP3    H119248   1.260   1.495   4.963
 6428TIP3    H219249   1.162   1.491   4.848
 6429TIP3   OH219250   1.065   4.611   3.366
 6429TIP3    H119251   1.023   4.577   3.444
 6429TIP3    H219252   1.108   4.535   3.327
 6430TIP3   OH219253   5.862   3.868   3.264
 6430TIP3    H119254   5.932   3.894   3.204
 6430TIP3    H219255   5.823   3.791   3.224
 6431TIP3   OH219256   6.637   5.458   4.753
 6431TIP3    H119257   6.644   5.363   4.762
 6431TIP3    H219258   6.558   5.481   4.801
 6432TIP3   OH219259   0.607   0.435   0.553
 6432TIP3    H119260   0.568   0.392   0.477
 6432TIP3    H219261   0.569   0.390   0.628
 6433TIP3   OH219262   1.240   3.676   0.780
 6433TIP3    H119263   1.252   3.708   0.691
 6433TIP3    H219264   1.230   3.582   0.771
 6434TIP3   OH219265   4.071   0.022   3.779
 6434TIP3    H119266   4.134   0.031   3.708
 6434TIP3    H219267   4.056   0.112   3.809
 6435TIP3   OH219268   6.802   0.339   0.497
 6435TIP3    H119269   6.783   0.300   0.583
 6435TIP3    H219270   6.716   0.365   0.463
 6436TIP3   OH219271   0.161   1.509   4.708
 6436TIP3    H119272   0.239   1.464   4.677
 6436TIP3    H219273   0.090   1.446   4.696
 6437TIP3   OH219274   5.854   2.824   5.337
 6437TIP3    H119275   5.872   2.899   5.280
 6437TIP3    H219276   5.809   2.761   5.281
 6438TIP3   OH219277   2.806   6.352   4.770
 6438TIP3    H119278   2.723   6.399   4.757
 6438TIP3    H219279   2.789   6.294   4.844
 6439TIP3   OH219280   6.233   3.358   5.589
 6439TIP3    H119281   6.257   3.409   5.666
 6439TIP3    H219282   6.316   3.329   5.552
 6440TIP3   OH219283   0.656   0.635   1.397
 6440TIP3    H119284   0.654   0.576   1.472
 6440TIP3    H219285   0.715   0.705   1.423
 6441TIP3   OH219286   4.689   4.485   2.007
 6441TIP3    H119287   4.627   4.488   2.080
 6441TIP3    H219288   4.736   4.403   2.019
 6442TIP3   OH219289   3.179   2.043   5.738
 6442TIP3    H119290   3.227   2.111   5.786
 6442TIP3    H219291   3.234   2.024   5.662
 6443TIP3   OH219292   2.423   6.769   2.945
 6443TIP3    H119293   2.490   6.732   2.888
 6443TIP3    H219294   2.340   6.741   2.906
 6444TIP3   OH219295   3.249   2.693   3.963
 6444TIP3    H119296   3.173   2.750   3.953
 6444TIP3    H219297   3.247   2.666   4.055
 6445TIP3   OH219298   4.996   2.847   2.747
 6445TIP3    H119299   4.962   2.927   2.787
 6445TIP3    H219300   5.054   2.877   2.678
 6446TIP3   OH219301   5.804   4.406   2.383
 6446TIP3    H119302   5.732   4.344   2.389
 6446TIP3    H219303   5.763   4.488   2.355
 6447TIP3   OH219304   6.372   4.981   4.076
 6447TIP3    H119305   6.453   4.976   4.126
 6447TIP3    H219306   6.319   4.908   4.109
 6448TIP3   OH219307   2.177   1.338   1.644
 6448TIP3    H119308   2.167   1.297   1.730
 6448TIP3    H219309   2.198   1.266   1.586
 6449TIP3   OH219310   5.108   5.652   0.770
 6449TIP3    H119311   5.090   5.609   0.687
 6449TIP3    H219312   5.130   5.581   0.830
 6450TIP3   OH219313   6.399   5.074   3.820
 6450TIP3    H119314   6.378   5.054   3.911
 6450TIP3    H219315   6.474   5.019   3.799
 6451TIP3   OH219316   4.644   3.592   5.259
 6451TIP3    H119317   4.613   3.674   5.220
 6451TIP3    H219318   4.597   3.586   5.342
 6452TIP3   OH219319   2.661   6.193   4.962
 6452TIP3    H119320   2.582   6.201   4.909
 6452TIP3    H219321   2.650   6.258   5.031
 6453TIP3   OH219322   3.123   0.239   1.559
 6453TIP3    H119323   3.091   0.328   1.572
 6453TIP3    H219324   3.107   0.195   1.643
 6454TIP3   OH219325   1.142   5.103   1.034
 6454TIP3    H119326   1.169   5.017   1.000
 6454TIP3    H219327   1.068   5.084   1.091
 6455TIP3   OH219328   4.553   5.138   5.670
 6455TIP3    H119329   4.534   5.224   5.706
 6455TIP3    H219330   4.469   5.092   5.672
 6456TIP3   OH219331   5.919   3.647   5.613
 6456TIP3    H119332   5.937   3.667   5.705
 6456TIP3    H219333   5.927   3.552   5.606
 6457TIP3   OH219334   1.221   0.948   5.109
 6457TIP3    H119335   1.233   0.910   5.196
 6457TIP3    H219336   1.175   0.881   5.059
 6458TIP3   OH219337   1.386   1.432   5.334
 6458TIP3    H119338   1.353   1.468   5.252
 6458TIP3    H219339   1.308   1.415   5.387
 6459TIP3   OH219340   3.780   3.090   0.724
 6459TIP3    H119341   3.848   3.061   0.664
 6459TIP3    H219342   3.786   3.186   0.724
 6460TIP3   OH219343   3.840   4.350   4.498
 6460TIP3    H119344   3.921   4.386   4.533
 6460TIP3    H219345   3.854   4.256   4.496
 6461TIP3   OH219346   3.980   6.763   3.110
 6461TIP3    H119347   3.976   6.671   3.085
 6461TIP3    H219348   3.905   6.776   3.167
 6462TIP3   OH219349   3.300   4.959   0.910
 6462TIP3    H119350   3.372   4.951   0.972
 6462TIP3    H219351   3.341   4.957   0.824
 6463TIP3   OH219352   3.800   3.356   2.262
 6463TIP3    H119353   3.797   3.261   2.248
 6463TIP3    H219354   3.878   3.385   2.214
 6464TIP3   OH219355   4.670   4.334   1.630
 6464TIP3    H119356   4.618   4.257   1.654
 6464TIP3    H219357   4.707   4.312   1.544
 6465TIP3   OH219358   1.255   6.183   0.523
 6465TIP3    H119359   1.210   6.184   0.608
 6465TIP3    H219360   1.239   6.095   0.490
 6466TIP3   OH219361   3.797   3.701   2.507
 6466TIP3    H119362   3.738   3.633   2.477
 6466TIP3    H219363   3.814   3.679   2.599
 6467TIP3   OH219364   1.586   6.074   5.153
 6467TIP3    H119365   1.600   6.169   5.162
 6467TIP3    H219366   1.582   6.042   5.243
 6468TIP3   OH219367   5.459   0.408   4.158
 6468TIP3    H119368   5.502   0.335   4.203
 6468TIP3    H219369   5.506   0.415   4.075
 6469TIP3   OH219370   3.544   0.536   1.310
 6469TIP3    H119371   3.576   0.519   1.398
 6469TIP3    H219372   3.621   0.568   1.262
 6470TIP3   OH219373   3.327   6.005   0.217
 6470TIP3    H119374   3.329   6.093   0.253
 6470TIP3    H219375   3.243   5.969   0.246
 6471TIP3   OH219376   6.588   3.099   5.311
 6471TIP3    H119377   6.560   3.156   5.383
 6471TIP3    H219378   6.512   3.044   5.293
 6472TIP3   OH219379   6.499   6.567   0.818
 6472TIP3    H119380   6.411   6.531   0.830
 6472TIP3    H219381   6.558   6.494   0.839
 6473TIP3   OH219382   0.936   3.344   3.303
 6473TIP3    H119383   0.984   3.272   3.263
 6473TIP3    H219384   0.981   3.423   3.272
 6474TIP3   OH219385   6.932   1.986   0.836
 6474TIP3    H119386   6.921   1.966   0.929
 6474TIP3    H219387   6.855   2.036   0.813
 6475TIP3   OH219388   7.110   3.406   2.532
 6475TIP3    H119389   7.052   3.482   2.517
 6475TIP3    H219390   7.051   3.331   2.531
 6476TIP3   OH219391   5.841   0.185   2.077
 6476TIP3    H119392   5.790   0.238   2.138
 6476TIP3    H219393   5.776   0.129   2.034
 6477TIP3   OH219394   1.528   3.869   4.802
 6477TIP3    H119395   1.441   3.852   4.839
 6477TIP3    H219396   1.516   3.949   4.749
 6478TIP3   OH219397   2.769   3.030   4.626
 6478TIP3    H119398   2.676   3.008   4.621
 6478TIP3    H219399   2.770   3.124   4.643
 6479TIP3   OH219400   2.600   0.839   2.868
 6479TIP3    H119401   2.543   0.901   2.822
 6479TIP3    H219402   2.540   0.786   2.920
 6480TIP3   OH219403   3.075   2.205   0.351
 6480TIP3    H119404   3.014   2.229   0.282
 6480TIP3    H219405   3.150   2.167   0.305
 6481TIP3   OH219406   2.405   1.933   1.522
 6481TIP3    H119407   2.321   1.962   1.487
 6481TIP3    H219408   2.457   2.013   1.530
 6482TIP3   OH219409   1.069   2.391   4.170
 6482TIP3    H119410   1.035   2.313   4.213
 6482TIP3    H219411   1.148   2.414   4.219
 6483TIP3   OH219412   1.848   3.688   2.622
 6483TIP3    H119413   1.788   3.656   2.555
 6483TIP3    H219414   1.908   3.745   2.575
 6484TIP3   OH219415   6.693   2.253   3.890
 6484TIP3    H119416   6.731   2.246   3.802
 6484TIP3    H219417   6.680   2.162   3.917
 6485TIP3   OH219418   5.525   5.466   3.912
 6485TIP3    H119419   5.572   5.486   3.993
 6485TIP3    H219420   5.436   5.499   3.927
 6486TIP3   OH219421   3.047   5.041   5.656
 6486TIP3    H119422   3.090   4.957   5.641
 6486TIP3    H219423   2.964   5.018   5.698
 6487TIP3   OH219424   5.952   0.845   1.304
 6487TIP3    H119425   5.982   0.926   1.262
 6487TIP3    H219426   5.859   0.860   1.321
 6488TIP3   OH219427   2.543   6.371   1.087
 6488TIP3    H119428   2.542   6.305   1.156
 6488TIP3    H219429   2.608   6.435   1.116
 6489TIP3   OH219430   1.125   1.787   3.950
 6489TIP3    H119431   1.154   1.854   4.012
 6489TIP3    H219432   1.153   1.819   3.864
 6490TIP3   OH219433   3.270   4.714   3.184
 6490TIP3    H119434   3.313   4.786   3.230
 6490TIP3    H219435   3.327   4.639   3.198
 6491TIP3   OH219436   3.661   0.768   3.350
 6491TIP3    H119437   3.568   0.760   3.374
 6491TIP3    H219438   3.703   0.801   3.430
 6492TIP3   OH219439   5.127   1.482   2.304
 6492TIP3    H119440   5.091   1.416   2.246
 6492TIP3    H219441   5.193   1.527   2.251
 6493TIP3   OH219442   0.109   6.694   0.163
 6493TIP3    H119443   0.170   6.688   0.089
 6493TIP3    H219444   0.164   6.690   0.240
 6494TIP3   OH219445   0.575   4.250   3.097
 6494TIP3    H119446   0.580   4.154   3.097
 6494TIP3    H219447   0.495   4.269   3.147
 6495TIP3   OH219448   6.244   6.606   3.702
 6495TIP3    H119449   6.268   6.688   3.659
 6495TIP3    H219450   6.179   6.631   3.768
 6496TIP3   OH219451   6.178   3.561   5.407
 6496TIP3    H119452   6.158   3.487   5.464
 6496TIP3    H219453   6.225   3.623   5.463
 6497TIP3   OH219454   2.747   0.443   3.522
 6497TIP3    H119455   2.661   0.400   3.520
 6497TIP3    H219456   2.757   0.472   3.612
 6498TIP3   OH219457   4.605   3.884   0.460
 6498TIP3    H119458   4.579   3.895   0.551
 6498TIP3    H219459   4.663   3.958   0.442
 6499TIP3   OH219460   0.601   2.087   5.414
 6499TIP3    H119461   0.555   2.167   5.388
 6499TIP3    H219462   0.690   2.115   5.434
 6500TIP3   OH219463   5.490   6.762   0.861
 6500TIP3    H119464   5.459   6.833   0.915
 6500TIP3    H219465   5.412   6.711   0.839
 6501TIP3   OH219466   2.649   2.091   3.498
 6501TIP3    H119467   2.655   2.183   3.524
 6501TIP3    H219468   2.734   2.054   3.520
 6502TIP3   OH219469   4.808   6.485   0.167
 6502TIP3    H119470   4.781   6.433   0.091
 6502TIP3    H219471   4.761   6.446   0.240
 6503TIP3   OH219472   1.454   3.695   4.365
 6503TIP3    H119473   1.483   3.665   4.451
 6503TIP3    H219474   1.399   3.624   4.332
 6504TIP3   OH219475   6.464   1.638   5.679
 6504TIP3    H119476   6.433   1.650   5.590
 6504TIP3    H219477   6.453   1.723   5.721
 6505TIP3   OH219478   3.131   4.373   3.039
 6505TIP3    H119479   3.144   4.334   2.952
 6505TIP3    H219480   3.040   4.402   3.039
 6506TIP3   OH219481   3.919   1.072   0.792
 6506TIP3    H119482   4.008   1.107   0.788
 6506TIP3    H219483   3.901   1.064   0.885
 6507TIP3   OH219484   7.016  -0.054   1.304
 6507TIP3    H119485   7.012   0.026   1.252
 6507TIP3    H219486   6.928  -0.062   1.341
 6508TIP3   OH219487   7.108   4.670   4.328
 6508TIP3    H119488   7.129   4.762   4.342
 6508TIP3    H219489   7.148   4.648   4.244
 6509TIP3   OH219490   3.164   6.364   3.603
 6509TIP3    H119491   3.197   6.394   3.519
 6509TIP3    H219492   3.152   6.270   3.592
 6510TIP3   OH219493   0.692   0.308   1.504
 6510TIP3    H119494   0.672   0.295   1.411
 6510TIP3    H219495   0.663   0.228   1.547
 6511TIP3   OH219496   0.991   5.136   2.721
 6511TIP3    H119497   1.028   5.200   2.659
 6511TIP3    H219498   1.034   5.054   2.697
 6512TIP3   OH219499   7.063   5.234   1.654
 6512TIP3    H119500   7.131   5.228   1.721
 6512TIP3    H219501   7.093   5.302   1.594
 6513TIP3   OH219502   3.707   3.244   4.626
 6513TIP3    H119503   3.701   3.252   4.721
 6513TIP3    H219504   3.622   3.210   4.599
 6514TIP3   OH219505   3.278   3.389   4.564
 6514TIP3    H119506   3.342   3.318   4.572
 6514TIP3    H219507   3.311   3.444   4.492
 6515TIP3   OH219508   2.661   3.150   2.474
 6515TIP3    H119509   2.615   3.226   2.510
 6515TIP3    H219510   2.597   3.078   2.481
 6516TIP3   OH219511   0.398   2.441   1.493
 6516TIP3    H119512   0.427   2.524   1.531
 6516TIP3    H219513   0.349   2.398   1.563
 6517TIP3   OH219514   3.129   6.133   4.950
 6517TIP3    H119515   3.102   6.216   4.988
 6517TIP3    H219516   3.167   6.156   4.865
 6518TIP3   OH219517   5.856   6.278   4.030
 6518TIP3    H119518   5.774   6.328   4.030
 6518TIP3    H219519   5.840   6.208   4.094
 6519TIP3   OH219520   6.117   1.356   1.134
 6519TIP3    H119521   6.148   1.265   1.133
 6519TIP3    H219522   6.084   1.371   1.045
 6520TIP3   OH219523   2.352   6.575   2.590
 6520TIP3    H119524   2.318   6.507   2.532
 6520TIP3    H219525   2.286   6.583   2.659
 6521TIP3   OH219526   5.284   5.451   0.622
 6521TIP3    H119527   5.228   5.377   0.597
 6521TIP3    H219528   5.285   5.449   0.718
 6522TIP3   OH219529   3.604   3.953   3.266
 6522TIP3    H119530   3.632   4.013   3.198
 6522TIP3    H219531   3.611   4.003   3.347
 6523TIP3   OH219532   1.823   3.723   2.232
 6523TIP3    H119533   1.853   3.805   2.193
 6523TIP3    H219534   1.878   3.655   2.191
 6524TIP3   OH219535   2.875   3.735   3.924
 6524TIP3    H119536   2.871   3.642   3.904
 6524TIP3    H219537   2.784   3.764   3.926
 6525TIP3   OH219538   6.900   6.487   3.488
 6525TIP3    H119539   6.816   6.446   3.506
 6525TIP3    H219540   6.928   6.523   3.572
 6526TIP3   OH219541   5.053   1.206   2.207
 6526TIP3    H119542   5.113   1.152   2.258
 6526TIP3    H219543   4.984   1.231   2.269
 6527TIP3   OH219544   5.871   4.241   3.628
 6527TIP3    H119545   5.956   4.208   3.657
 6527TIP3    H219546   5.818   4.245   3.707
 6528TIP3   OH219547   0.569   1.919   5.652
 6528TIP3    H119548   0.581   1.944   5.560
 6528TIP3    H219549   0.513   1.988   5.689
 6529TIP3   OH219550   3.797   2.099   2.087
 6529TIP3    H119551   3.860   2.164   2.117
 6529TIP3    H219552   3.719   2.115   2.139
 6530TIP3   OH219553   3.385   2.228   3.389
 6530TIP3    H119554   3.447   2.295   3.417
 6530TIP3    H219555   3.340   2.203   3.469
 6531TIP3   OH219556   7.029   4.014   0.277
 6531TIP3    H119557   7.114   4.052   0.256
 6531TIP3    H219558   7.046   3.954   0.350
 6532TIP3   OH219559   1.917   5.852   1.465
 6532TIP3    H119560   1.930   5.889   1.552
 6532TIP3    H219561   1.825   5.826   1.463
 6533TIP3   OH219562   3.475   1.817   5.122
 6533TIP3    H119563   3.499   1.851   5.036
 6533TIP3    H219564   3.504   1.726   5.121
 6534TIP3   OH219565   1.673   6.448   0.540
 6534TIP3    H119566   1.578   6.439   0.534
 6534TIP3    H219567   1.692   6.431   0.632
 6535TIP3   OH219568   4.332   4.048   3.904
 6535TIP3    H119569   4.313   3.960   3.937
 6535TIP3    H219570   4.383   4.033   3.824
 6536TIP3   OH219571   5.591   0.964   2.782
 6536TIP3    H119572   5.500   0.938   2.770
 6536TIP3    H219573   5.637   0.929   2.707
 6537TIP3   OH219574   5.119   1.629   5.115
 6537TIP3    H119575   5.151   1.549   5.159
 6537TIP3    H219576   5.195   1.662   5.068
 6538TIP3   OH219577   1.366   3.008   5.872
 6538TIP3    H119578   1.458   3.035   5.874
 6538TIP3    H219579   1.368   2.913   5.882
 6539TIP3   OH219580   4.339   0.818   3.578
 6539TIP3    H119581   4.413   0.857   3.532
 6539TIP3    H219582   4.270   0.813   3.512
 6540TIP3   OH219583   6.357   3.942   3.213
 6540TIP3    H119584   6.437   3.973   3.256
 6540TIP3    H219585   6.338   3.858   3.255
 6541TIP3   OH219586   6.229   0.567   2.063
 6541TIP3    H119587   6.186   0.483   2.048
 6541TIP3    H219588   6.164   0.632   2.037
 6542TIP3   OH219589   5.413   5.305   1.278
 6542TIP3    H119590   5.356   5.231   1.259
 6542TIP3    H219591   5.487   5.267   1.325
 6543TIP3   OH219592   0.011   3.067   0.926
 6543TIP3    H119593   0.014   3.161   0.941
 6543TIP3    H219594   0.102   3.040   0.916
 6544TIP3   OH219595   1.279   2.477   2.983
 6544TIP3    H119596   1.306   2.435   3.065
 6544TIP3    H219597   1.341   2.446   2.918
 6545TIP3   OH219598   6.562   3.315   1.442
 6545TIP3    H119599   6.530   3.350   1.525
 6545TIP3    H219600   6.655   3.339   1.440
 6546TIP3   OH219601   0.926   5.561   0.428
 6546TIP3    H119602   0.928   5.495   0.359
 6546TIP3    H219603   0.844   5.609   0.413
 6547TIP3   OH219604   7.028   5.754   4.662
 6547TIP3    H119605   7.090   5.786   4.727
 6547TIP3    H219606   6.949   5.736   4.713
 6548TIP3   OH219607   2.675   6.632   0.941
 6548TIP3    H119608   2.606   6.644   1.006
 6548TIP3    H219609   2.634   6.582   0.871
 6549TIP3   OH219610   6.233   2.461   4.409
 6549TIP3    H119611   6.305   2.516   4.441
 6549TIP3    H219612   6.276   2.389   4.364
 6550TIP3   OH219613   6.460   5.850   4.706
 6550TIP3    H119614   6.415   5.788   4.762
 6550TIP3    H219615   6.427   5.832   4.618
 6551TIP3   OH219616   6.712   3.703   5.867
 6551TIP3    H119617   6.778   3.663   5.924
 6551TIP3    H219618   6.629   3.678   5.907
 6552TIP3   OH219619   1.137   0.098   0.844
 6552TIP3    H119620   1.101   0.042   0.913
 6552TIP3    H219621   1.180   0.038   0.784
 6553TIP3   OH219622   6.112   0.131   4.367
 6553TIP3    H119623   6.072   0.085   4.441
 6553TIP3    H219624   6.076   0.220   4.371
 6554TIP3   OH219625   4.276   5.372   5.612
 6554TIP3    H119626   4.295   5.321   5.533
 6554TIP3    H219627   4.181   5.380   5.612
 6555TIP3   OH219628   3.304   4.449   3.255
 6555TIP3    H119629   3.311   4.359   3.287
 6555TIP3    H219630   3.241   4.445   3.183
 6556TIP3   OH219631   1.570   5.546   2.203
 6556TIP3    H119632   1.508   5.553   2.131
 6556TIP3    H219633   1.655   5.536   2.161
 6557TIP3   OH219634   2.191   3.807   1.379
 6557TIP3    H119635   2.210   3.895   1.413
 6557TIP3    H219636   2.277   3.769   1.363
 6558TIP3   OH219637   3.317   6.018   3.339
 6558TIP3    H119638   3.312   6.016   3.244
 6558TIP3    H219639   3.231   5.988   3.369
 6559TIP3   OH219640   2.236   1.241   2.332
 6559TIP3    H119641   2.263   1.156   2.295
 6559TIP3    H219642   2.293   1.305   2.289
 6560TIP3   OH219643   0.790   2.782   0.398
 6560TIP3    H119644   0.862   2.719   0.401
 6560TIP3    H219645   0.764   2.792   0.489
 6561TIP3   OH219646   4.905   0.757   0.962
 6561TIP3    H119647   4.846   0.729   1.032
 6561TIP3    H219648   4.991   0.722   0.988
 6562TIP3   OH219649   6.992   5.393   2.765
 6562TIP3    H119650   6.919   5.365   2.709
 6562TIP3    H219651   7.068   5.395   2.707
 6563TIP3   OH219652   4.066   6.548   0.582
 6563TIP3    H119653   4.022   6.486   0.641
 6563TIP3    H219654   4.136   6.586   0.636
 6564TIP3   OH219655   3.614   1.002   3.225
 6564TIP3    H119656   3.678   0.935   3.251
 6564TIP3    H219657   3.559   1.013   3.302
 6565TIP3   OH219658   0.473   1.920   1.852
 6565TIP3    H119659   0.559   1.912   1.894
 6565TIP3    H219660   0.411   1.899   1.922
 6566TIP3   OH219661   3.803   6.395   2.708
 6566TIP3    H119662   3.804   6.490   2.699
 6566TIP3    H219663   3.724   6.377   2.759
 6567TIP3   OH219664   1.073   5.159   4.836
 6567TIP3    H119665   1.091   5.066   4.825
 6567TIP3    H219666   1.138   5.189   4.900
 6568TIP3   OH219667   5.388   5.614   4.398
 6568TIP3    H119668   5.314   5.555   4.415
 6568TIP3    H219669   5.379   5.683   4.463
 6569TIP3   OH219670   0.516   6.670   3.851
 6569TIP3    H119671   0.580   6.623   3.904
 6569TIP3    H219672   0.536   6.763   3.865
 6570TIP3   OH219673   6.666   4.430   5.216
 6570TIP3    H119674   6.689   4.339   5.235
 6570TIP3    H219675   6.578   4.425   5.178
 6571TIP3   OH219676   1.409   5.425   3.300
 6571TIP3    H119677   1.418   5.503   3.355
 6571TIP3    H219678   1.339   5.447   3.239
 6572TIP3   OH219679   4.985   3.243   4.688
 6572TIP3    H119680   4.912   3.227   4.748
 6572TIP3    H219681   4.993   3.338   4.684
 6573TIP3   OH219682   2.344   6.165   4.098
 6573TIP3    H119683   2.367   6.146   4.007
 6573TIP3    H219684   2.378   6.254   4.113
 6574TIP3   OH219685   2.966   5.033   1.681
 6574TIP3    H119686   2.987   5.001   1.769
 6574TIP3    H219687   2.919   5.115   1.697
 6575TIP3   OH219688   6.302   5.774   0.991
 6575TIP3    H119689   6.397   5.783   0.986
 6575TIP3    H219690   6.274   5.841   1.053
 6576TIP3   OH219691   4.403   2.534   2.792
 6576TIP3    H119692   4.440   2.621   2.807
 6576TIP3    H219693   4.317   2.537   2.834
 6577TIP3   OH219694   2.336   2.066   3.003
 6577TIP3    H119695   2.388   2.027   3.073
 6577TIP3    H219696   2.400   2.090   2.935
 6578TIP3   OH219697   4.169   0.928   1.682
 6578TIP3    H119698   4.148   0.884   1.765
 6578TIP3    H219699   4.157   1.021   1.701
 6579TIP3   OH219700   5.345   1.856   2.696
 6579TIP3    H119701   5.422   1.826   2.648
 6579TIP3    H219702   5.356   1.822   2.784
 6580TIP3   OH219703   1.050   1.923   1.390
 6580TIP3    H119704   1.033   1.831   1.369
 6580TIP3    H219705   1.109   1.920   1.465
 6581TIP3   OH219706   7.130   1.132   1.400
 6581TIP3    H119707   7.105   1.192   1.469
 6581TIP3    H219708   7.215   1.097   1.427
 6582TIP3   OH219709   4.385   6.811   3.841
 6582TIP3    H119710   4.372   6.904   3.858
 6582TIP3    H219711   4.444   6.782   3.910
 6583TIP3   OH219712   6.013   5.575   0.678
 6583TIP3    H119713   5.978   5.589   0.766
 6583TIP3    H219714   5.943   5.531   0.631
 6584TIP3   OH219715   5.828   2.652   3.210
 6584TIP3    H119716   5.851   2.582   3.272
 6584TIP3    H219717   5.788   2.606   3.136
 6585TIP3   OH219718   5.538   0.989   4.738
 6585TIP3    H119719   5.527   0.989   4.643
 6585TIP3    H219720   5.590   0.911   4.756
 6586TIP3   OH219721   0.161   4.019   0.801
 6586TIP3    H119722   0.211   4.086   0.755
 6586TIP3    H219723   0.221   3.984   0.866
 6587TIP3   OH219724   3.350   0.718   5.064
 6587TIP3    H119725   3.417   0.744   5.128
 6587TIP3    H219726   3.368   0.625   5.048
 6588TIP3   OH219727   2.180   2.749   5.255
 6588TIP3    H119728   2.172   2.814   5.185
 6588TIP3    H219729   2.215   2.799   5.330
 6589TIP3   OH219730   0.420   0.145   4.508
 6589TIP3    H119731   0.480   0.204   4.554
 6589TIP3    H219732   0.337   0.153   4.556
 6590TIP3   OH219733   6.180   1.904   5.060
 6590TIP3    H119734   6.254   1.916   5.120
 6590TIP3    H219735   6.218   1.862   4.983
 6591TIP3   OH219736   6.928   4.870   0.779
 6591TIP3    H119737   6.920   4.787   0.825
 6591TIP3    H219738   7.004   4.859   0.722
 6592TIP3   OH219739   0.550   5.531   4.441
 6592TIP3    H119740   0.541   5.625   4.431
 6592TIP3    H219741   0.495   5.509   4.516
 6593TIP3   OH219742   5.724   3.728   2.926
 6593TIP3    H119743   5.814   3.752   2.951
 6593TIP3    H219744   5.701   3.656   2.985
 6594TIP3   OH219745   4.897   6.268   0.685
 6594TIP3    H119746   4.926   6.311   0.766
 6594TIP3    H219747   4.940   6.183   0.686
 6595TIP3   OH219748   3.649   4.591   5.094
 6595TIP3    H119749   3.696   4.564   5.172
 6595TIP3    H219750   3.562   4.616   5.125
 6596TIP3   OH219751   6.212   4.653   0.694
 6596TIP3    H119752   6.235   4.564   0.666
 6596TIP3    H219753   6.237   4.709   0.620
 6597TIP3   OH219754   4.604   0.822   2.565
 6597TIP3    H119755   4.615   0.885   2.635
 6597TIP3    H219756   4.510   0.809   2.558
 6598TIP3   OH219757   4.809   2.335   0.906
 6598TIP3    H119758   4.831   2.401   0.972
 6598TIP3    H219759   4.823   2.379   0.822
 6599TIP3   OH219760   0.977   0.907   2.974
 6599TIP3    H119761   0.970   0.865   3.060
 6599TIP3    H219762   0.956   0.838   2.912
 6600TIP3   OH219763   1.070   6.585   0.177
 6600TIP3    H119764   1.035   6.596   0.265
 6600TIP3    H219765   1.147   6.530   0.188
 6601TIP3   OH219766   4.360   3.986   0.096
 6601TIP3    H119767   4.275   3.964   0.136
 6601TIP3    H219768   4.346   3.971   0.002
 6602TIP3   OH219769   4.783   4.288   0.615
 6602TIP3    H119770   4.853   4.279   0.680
 6602TIP3    H219771   4.823   4.263   0.532
 6603TIP3   OH219772   1.336   6.773   4.621
 6603TIP3    H119773   1.342   6.689   4.575
 6603TIP3    H219774   1.418   6.779   4.670
 6604TIP3   OH219775   2.386   0.412   3.187
 6604TIP3    H119776   2.465   0.372   3.224
 6604TIP3    H219777   2.324   0.339   3.178
 6605TIP3   OH219778   6.300   3.620   2.631
 6605TIP3    H119779   6.270   3.616   2.722
 6605TIP3    H219780   6.221   3.640   2.581
 6606TIP3   OH219781   1.469   3.082   4.113
 6606TIP3    H119782   1.394   3.076   4.055
 6606TIP3    H219783   1.540   3.040   4.065
 6607TIP3   OH219784   6.847   5.780   4.379
 6607TIP3    H119785   6.815   5.691   4.387
 6607TIP3    H219786   6.870   5.806   4.469
 6608TIP3   OH219787   3.128   1.108   4.029
 6608TIP3    H119788   3.137   1.127   3.936
 6608TIP3    H219789   3.048   1.056   4.036
 6609TIP3   OH219790   4.544   1.036   4.865
 6609TIP3    H119791   4.460   1.062   4.902
 6609TIP3    H219792   4.581   1.117   4.829
 6610TIP3   OH219793   3.286   4.923   0.235
 6610TIP3    H119794   3.354   4.989   0.224
 6610TIP3    H219795   3.249   4.911   0.147
 6611TIP3   OH219796   0.276   4.750   4.804
 6611TIP3    H119797   0.226   4.828   4.780
 6611TIP3    H219798   0.259   4.688   4.733
 6612TIP3   OH219799   3.141   6.570   3.999
 6612TIP3    H119800   3.225   6.528   3.983
 6612TIP3    H219801   3.132   6.569   4.095
 6613TIP3   OH219802   0.916   6.808   4.461
 6613TIP3    H119803   0.924   6.783   4.369
 6613TIP3    H219804   0.986   6.871   4.475
 6614TIP3   OH219805   5.658   3.523   4.698
 6614TIP3    H119806   5.607   3.452   4.660
 6614TIP3    H219807   5.613   3.544   4.780
 6615TIP3   OH219808   3.215   4.135   2.115
 6615TIP3    H119809   3.242   4.049   2.081
 6615TIP3    H219810   3.216   4.192   2.038
 6616TIP3   OH219811   5.492   2.344   1.357
 6616TIP3    H119812   5.536   2.265   1.325
 6616TIP3    H219813   5.489   2.402   1.282
 6617TIP3   OH219814   0.717   5.091   0.606
 6617TIP3    H119815   0.763   5.053   0.532
 6617TIP3    H219816   0.712   5.020   0.670
 6618TIP3   OH219817   6.580   2.440   3.244
 6618TIP3    H119818   6.651   2.500   3.270
 6618TIP3    H219819   6.618   2.387   3.174
 6619TIP3   OH219820   4.320   0.844   2.545
 6619TIP3    H119821   4.275   0.886   2.619
 6619TIP3    H219822   4.298   0.751   2.554
 6620TIP3   OH219823   4.495   3.909   2.296
 6620TIP3    H119824   4.444   3.953   2.363
 6620TIP3    H219825   4.478   3.960   2.216
 6621TIP3   OH219826   0.985   0.859   2.275
 6621TIP3    H119827   0.910   0.806   2.301
 6621TIP3    H219828   0.951   0.918   2.208
 6622TIP3   OH219829   3.838   3.615   2.987
 6622TIP3    H119830   3.788   3.630   3.067
 6622TIP3    H219831   3.929   3.625   3.013
 6623TIP3   OH219832   1.802   3.695   0.727
 6623TIP3    H119833   1.716   3.652   0.731
 6623TIP3    H219834   1.804   3.737   0.641
 6624TIP3   OH219835   4.477   1.795   5.059
 6624TIP3    H119836   4.558   1.771   5.104
 6624TIP3    H219837   4.475   1.891   5.063
 6625TIP3   OH219838   3.162   4.790   4.077
 6625TIP3    H119839   3.223   4.863   4.068
 6625TIP3    H219840   3.125   4.801   4.165
 6626TIP3   OH219841   4.379   5.365   0.280
 6626TIP3    H119842   4.422   5.431   0.225
 6626TIP3    H219843   4.364   5.410   0.363
 6627TIP3   OH219844   6.171   4.799   0.932
 6627TIP3    H119845   6.200   4.754   0.852
 6627TIP3    H219846   6.249   4.799   0.989
 6628TIP3   OH219847   2.614   2.642   0.497
 6628TIP3    H119848   2.641   2.552   0.510
 6628TIP3    H219849   2.531   2.649   0.546
 6629TIP3   OH219850   6.550   4.883   0.681
 6629TIP3    H119851   6.582   4.800   0.719
 6629TIP3    H219852   6.610   4.949   0.715
 6630TIP3   OH219853   2.255   1.023   1.550
 6630TIP3    H119854   2.219   0.967   1.619
 6630TIP3    H219855   2.345   0.993   1.539
 6631TIP3   OH219856   6.800   5.810   0.702
 6631TIP3    H119857   6.835   5.723   0.684
 6631TIP3    H219858   6.769   5.842   0.618
 6632TIP3   OH219859   7.038   5.907   3.062
 6632TIP3    H119860   7.128   5.881   3.082
 6632TIP3    H219861   7.041   5.934   2.970
 6633TIP3   OH219862   1.347   0.487   5.528
 6633TIP3    H119863   1.324   0.559   5.469
 6633TIP3    H219864   1.399   0.428   5.474
 6634TIP3   OH219865   1.118   5.687   4.389
 6634TIP3    H119866   1.153   5.599   4.392
 6634TIP3    H219867   1.189   5.743   4.422
 6635TIP3   OH219868   7.042   1.284   2.154
 6635TIP3    H119869   7.063   1.301   2.062
 6635TIP3    H219870   6.996   1.200   2.153
 6636TIP3   OH219871   3.817   3.025   0.127
 6636TIP3    H119872   3.722   3.039   0.125
 6636TIP3    H219873   3.838   2.994   0.038
 6637TIP3   OH219874   0.788   0.369   0.814
 6637TIP3    H119875   0.814   0.337   0.728
 6637TIP3    H219876   0.870   0.398   0.855
 6638TIP3   OH219877   5.435   0.108   5.223
 6638TIP3    H119878   5.381   0.083   5.297
 6638TIP3    H219879   5.508   0.156   5.261
 6639TIP3   OH219880   5.817   5.851   4.495
 6639TIP3    H119881   5.884   5.894   4.442
 6639TIP3    H219882   5.734   5.885   4.463
 6640TIP3   OH219883   5.899   1.794   4.680
 6640TIP3    H119884   5.839   1.840   4.739
 6640TIP3    H219885   5.918   1.857   4.611
 6641TIP3   OH219886   1.255   4.935   5.517
 6641TIP3    H119887   1.211   5.016   5.492
 6641TIP3    H219888   1.203   4.866   5.477
 6642TIP3   OH219889   1.904   5.845   4.236
 6642TIP3    H119890   1.968   5.901   4.192
 6642TIP3    H219891   1.862   5.903   4.299
 6643TIP3   OH219892   6.801   5.302   0.131
 6643TIP3    H119893   6.746   5.289   0.207
 6643TIP3    H219894   6.759   5.252   0.061
 6644TIP3   OH219895   0.019   4.965   3.124
 6644TIP3    H119896   0.106   4.986   3.088
 6644TIP3    H219897  -0.042   4.986   3.054
 6645TIP3   OH219898   0.110   6.701   3.284
 6645TIP3    H119899   0.081   6.717   3.195
 6645TIP3    H219900   0.204   6.683   3.276
 6646TIP3   OH219901   6.236   1.146   1.517
 6646TIP3    H119902   6.205   1.235   1.501
 6646TIP3    H219903   6.328   1.157   1.540
 6647TIP3   OH219904   0.209   4.359   4.873
 6647TIP3    H119905   0.152   4.325   4.803
 6647TIP3    H219906   0.156   4.427   4.915
 6648TIP3   OH219907   5.096   2.677   2.957
 6648TIP3    H119908   5.064   2.718   2.877
 6648TIP3    H219909   5.018   2.666   3.012
 6649TIP3   OH219910   3.541   2.418   3.556
 6649TIP3    H119911   3.478   2.451   3.620
 6649TIP3    H219912   3.584   2.497   3.522
 6650TIP3   OH219913   2.894   6.273   5.630
 6650TIP3    H119914   2.850   6.345   5.675
 6650TIP3    H219915   2.987   6.294   5.639
 6651TIP3   OH219916   6.247   1.499   0.779
 6651TIP3    H119917   6.281   1.492   0.690
 6651TIP3    H219918   6.325   1.504   0.834
 6652TIP3   OH219919   4.619   6.106   2.151
 6652TIP3    H119920   4.657   6.075   2.234
 6652TIP3    H219921   4.546   6.046   2.135
 6653TIP3   OH219922   3.655   4.225   5.312
 6653TIP3    H119923   3.587   4.161   5.332
 6653TIP3    H219924   3.737   4.176   5.320
 6654TIP3   OH219925   1.204   1.577   3.421
 6654TIP3    H119926   1.241   1.633   3.353
 6654TIP3    H219927   1.115   1.558   3.391
 6655TIP3   OH219928   4.658   6.575   2.873
 6655TIP3    H119929   4.602   6.606   2.802
 6655TIP3    H219930   4.736   6.541   2.828
 6656TIP3   OH219931   2.058   4.044   0.012
 6656TIP3    H119932   2.109   4.102   0.068
 6656TIP3    H219933   2.105   4.043  -0.071
 6657TIP3   OH219934   0.007   4.061   1.772
 6657TIP3    H119935   0.101   4.066   1.757
 6657TIP3    H219936  -0.026   4.147   1.745
 6658TIP3   OH219937   4.577   2.087   0.794
 6658TIP3    H119938   4.487   2.118   0.783
 6658TIP3    H219939   4.585   2.015   0.732
 6659TIP3   OH219940   5.106   5.193   0.977
 6659TIP3    H119941   5.122   5.156   0.891
 6659TIP3    H219942   5.015   5.170   0.996
 6660TIP3   OH219943   1.102   0.485   4.196
 6660TIP3    H119944   1.190   0.521   4.190
 6660TIP3    H219945   1.044   0.557   4.172
 6661TIP3   OH219946   4.155   1.150   5.368
 6661TIP3    H119947   4.248   1.132   5.353
 6661TIP3    H219948   4.135   1.222   5.308
 6662TIP3   OH219949   1.442   2.872   3.618
 6662TIP3    H119950   1.485   2.893   3.535
 6662TIP3    H219951   1.461   2.947   3.674
 6663TIP3   OH219952   5.573   5.703   1.175
 6663TIP3    H119953   5.625   5.764   1.123
 6663TIP3    H219954   5.588   5.617   1.135
 6664TIP3   OH219955   0.329   1.627   1.605
 6664TIP3    H119956   0.254   1.617   1.547
 6664TIP3    H219957   0.308   1.571   1.681
 6665TIP3   OH219958   3.654   6.501   4.856
 6665TIP3    H119959   3.598   6.555   4.912
 6665TIP3    H219960   3.716   6.562   4.818
 6666TIP3   OH219961   3.174   3.406   1.458
 6666TIP3    H119962   3.269   3.409   1.445
 6666TIP3    H219963   3.163   3.373   1.547
 6667TIP3   OH219964   2.063   6.444   0.893
 6667TIP3    H119965   2.062   6.348   0.894
 6667TIP3    H219966   2.126   6.466   0.825
 6668TIP3   OH219967   4.465   5.133   3.342
 6668TIP3    H119968   4.482   5.222   3.312
 6668TIP3    H219969   4.407   5.096   3.276
 6669TIP3   OH219970   2.292   5.724   2.163
 6669TIP3    H119971   2.257   5.786   2.099
 6669TIP3    H219972   2.223   5.718   2.230
 6670TIP3   OH219973   1.553   3.571   0.688
 6670TIP3    H119974   1.580   3.523   0.609
 6670TIP3    H219975   1.496   3.511   0.735
 6671TIP3   OH219976   0.761   2.003   0.507
 6671TIP3    H119977   0.846   1.961   0.507
 6671TIP3    H219978   0.725   1.985   0.420
 6672TIP3   OH219979   5.342   4.770   0.619
 6672TIP3    H119980   5.417   4.711   0.607
 6672TIP3    H219981   5.280   4.719   0.671
 6673TIP3   OH219982   5.002   2.014   5.676
 6673TIP3    H119983   4.971   2.005   5.766
 6673TIP3    H219984   5.083   1.963   5.674
 6674TIP3   OH219985   0.462   4.950   5.698
 6674TIP3    H119986   0.427   5.038   5.715
 6674TIP3    H219987   0.478   4.949   5.603
 6675TIP3   OH219988   4.850   5.510   5.659
 6675TIP3    H119989   4.814   5.554   5.736
 6675TIP3    H219990   4.810   5.555   5.585
 6676TIP3   OH219991   2.928   2.825   2.515
 6676TIP3    H119992   2.914   2.734   2.490
 6676TIP3    H219993   2.910   2.826   2.610
 6677TIP3   OH219994   6.505   5.377   5.688
 6677TIP3    H119995   6.584   5.325   5.677
 6677TIP3    H219996   6.459   5.336   5.762
 6678TIP3   OH219997   5.678   6.048   2.043
 6678TIP3    H119998   5.749   6.032   1.981
 6678TIP3    H219999   5.598   6.029   1.993
 6679TIP3   OH220000   0.840   1.147   2.326
 6679TIP3    H120001   0.828   1.078   2.391
 6679TIP3    H220002   0.752   1.161   2.290
 6680TIP3   OH220003   0.907   6.822   4.746
 6680TIP3    H120004   0.884   6.850   4.658
 6680TIP3    H220005   0.884   6.729   4.749
 6681TIP3   OH220006   4.167   0.152   0.256
 6681TIP3    H120007   4.189   0.081   0.196
 6681TIP3    H220008   4.199   0.123   0.341
 6682TIP3   OH220009   3.210   0.956   3.552
 6682TIP3    H120010   3.173   0.928   3.468
 6682TIP3    H220011   3.292   0.999   3.530
 6683TIP3   OH220012   2.101   5.483   5.098
 6683TIP3    H120013   2.098   5.399   5.144
 6683TIP3    H220014   2.078   5.547   5.165
 6684TIP3   OH220015   1.806   5.013   3.598
 6684TIP3    H120016   1.892   5.042   3.626
 6684TIP3    H220017   1.817   4.991   3.505
 6685TIP3   OH220018   2.191   4.101   3.844
 6685TIP3    H120019   2.109   4.061   3.872
 6685TIP3    H220020   2.217   4.051   3.767
 6686TIP3   OH220021   4.879   6.672   5.388
 6686TIP3    H120022   4.817   6.712   5.450
 6686TIP3    H220023   4.873   6.578   5.406
 6687TIP3   OH220024   6.940   3.072   2.691
 6687TIP3    H120025   6.969   3.036   2.607
 6687TIP3    H220026   7.020   3.077   2.744
 6688TIP3   OH220027   5.662   1.655   3.050
 6688TIP3    H120028   5.610   1.694   3.121
 6688TIP3    H220029   5.721   1.593   3.094
 6689TIP3   OH220030   5.382   6.091   2.900
 6689TIP3    H120031   5.345   6.018   2.850
 6689TIP3    H220032   5.473   6.067   2.915
 6690TIP3   OH220033   3.988   2.860   4.306
 6690TIP3    H120034   3.977   2.772   4.342
 6690TIP3    H220035   3.926   2.914   4.355
 6691TIP3   OH220036   5.337   5.820   0.666
 6691TIP3    H120037   5.247   5.791   0.683
 6691TIP3    H220038   5.389   5.774   0.733
 6692TIP3   OH220039   2.612   0.972   2.553
 6692TIP3    H120040   2.532   0.951   2.601
 6692TIP3    H220041   2.607   0.922   2.472
 6693TIP3   OH220042   0.622   5.659   2.008
 6693TIP3    H120043   0.607   5.613   2.090
 6693TIP3    H220044   0.549   5.721   2.001
 6694TIP3   OH220045   6.480   6.763   2.465
 6694TIP3    H120046   6.511   6.841   2.511
 6694TIP3    H220047   6.559   6.712   2.450
 6695TIP3   OH220048   6.641   3.626   3.031
 6695TIP3    H120049   6.645   3.715   3.064
 6695TIP3    H220050   6.571   3.585   3.083
 6696TIP3   OH220051   5.106   3.411   0.969
 6696TIP3    H120052   5.129   3.400   0.877
 6696TIP3    H220053   5.181   3.457   1.007
 6697TIP3   OH220054   2.089   6.094   3.847
 6697TIP3    H120055   2.021   6.138   3.897
 6697TIP3    H220056   2.126   6.029   3.907
 6698TIP3   OH220057   4.753   2.929   4.227
 6698TIP3    H120058   4.827   2.872   4.247
 6698TIP3    H220059   4.707   2.939   4.310
 6699TIP3   OH220060   5.484   6.139   1.700
 6699TIP3    H120061   5.402   6.183   1.678
 6699TIP3    H220062   5.478   6.121   1.793
 6700TIP3   OH220063   6.750   5.887   4.635
 6700TIP3    H120064   6.790   5.835   4.705
 6700TIP3    H220065   6.701   5.823   4.583
 6701TIP3   OH220066   4.321   4.957   5.686
 6701TIP3    H120067   4.353   4.909   5.762
 6701TIP3    H220068   4.261   4.896   5.642
 6702TIP3   OH220069   2.200   4.852   2.367
 6702TIP3    H120070   2.158   4.887   2.289
 6702TIP3    H220071   2.140   4.873   2.438
 6703TIP3   OH220072   3.885   3.631   0.060
 6703TIP3    H120073   3.941   3.614  -0.016
 6703TIP3    H220074   3.854   3.545   0.088
 6704TIP3   OH220075   0.741   6.147   1.371
 6704TIP3    H120076   0.711   6.220   1.424
 6704TIP3    H220077   0.755   6.185   1.284
 6705TIP3   OH220078   0.350   2.442   4.358
 6705TIP3    H120079   0.285   2.417   4.292
 6705TIP3    H220080   0.299   2.474   4.432
 6706TIP3   OH220081   5.064   2.083   3.551
 6706TIP3    H120082   5.114   2.079   3.470
 6706TIP3    H220083   4.973   2.093   3.523
 6707TIP3   OH220084   1.252   2.681   4.194
 6707TIP3    H120085   1.277   2.754   4.250
 6707TIP3    H220086   1.202   2.623   4.251
 6708TIP3   OH220087   3.371   2.100   1.627
 6708TIP3    H120088   3.386   2.159   1.553
 6708TIP3    H220089   3.411   2.017   1.600
 6709TIP3   OH220090   5.520   4.246   2.684
 6709TIP3    H120091   5.587   4.303   2.647
 6709TIP3    H220092   5.562   4.208   2.761
 6710TIP3   OH220093   1.957   2.768   0.794
 6710TIP3    H120094   1.945   2.821   0.715
 6710TIP3    H220095   1.878   2.783   0.845
 6711TIP3   OH220096   2.886   3.623   0.860
 6711TIP3    H120097   2.882   3.532   0.889
 6711TIP3    H220098   2.794   3.648   0.846
 6712TIP3   OH220099   6.546   2.142   2.345
 6712TIP3    H120100   6.581   2.090   2.273
 6712TIP3    H220101   6.537   2.230   2.309
 6713TIP3   OH220102   6.481   0.451   4.909
 6713TIP3    H120103   6.513   0.391   4.841
 6713TIP3    H220104   6.387   0.432   4.914
 6714TIP3   OH220105   5.937   0.278   4.044
 6714TIP3    H120106   5.881   0.355   4.053
 6714TIP3    H220107   5.987   0.276   4.126
 6715TIP3   OH220108   3.560   2.119   0.863
 6715TIP3    H120109   3.570   2.200   0.912
 6715TIP3    H220110   3.470   2.121   0.830
 6716TIP3   OH220111   5.028   3.591   4.966
 6716TIP3    H120112   5.107   3.613   4.918
 6716TIP3    H220113   4.999   3.673   5.005
 6717TIP3   OH220114   6.284   6.286   0.264
 6717TIP3    H120115   6.326   6.201   0.272
 6717TIP3    H220116   6.299   6.328   0.349
 6718TIP3   OH220117   1.559   4.301   5.510
 6718TIP3    H120118   1.570   4.396   5.522
 6718TIP3    H220119   1.648   4.267   5.508
 6719TIP3   OH220120   4.474   3.465   0.690
 6719TIP3    H120121   4.562   3.427   0.686
 6719TIP3    H220122   4.482   3.538   0.751
 6720TIP3   OH220123   4.839   6.443   2.114
 6720TIP3    H120124   4.815   6.488   2.195
 6720TIP3    H220125   4.762   6.390   2.093
 6721TIP3   OH220126   3.941   2.356   0.720
 6721TIP3    H120127   3.949   2.273   0.672
 6721TIP3    H220128   3.970   2.423   0.657
 6722TIP3   OH220129   3.703   5.106   5.690
 6722TIP3    H120130   3.676   5.179   5.745
 6722TIP3    H220131   3.682   5.028   5.741
 6723TIP3   OH220132   6.154   0.614   4.162
 6723TIP3    H120133   6.148   0.576   4.074
 6723TIP3    H220134   6.211   0.553   4.210
 6724TIP3   OH220135   4.400   0.276   1.812
 6724TIP3    H120136   4.464   0.207   1.796
 6724TIP3    H220137   4.334   0.263   1.744
 6725TIP3   OH220138   4.909   6.740   0.228
 6725TIP3    H120139   4.880   6.649   0.232
 6725TIP3    H220140   4.828   6.791   0.223
 6726TIP3   OH220141   1.272   5.695   2.752
 6726TIP3    H120142   1.241   5.632   2.687
 6726TIP3    H220143   1.200   5.700   2.816
 6727TIP3   OH220144   5.419   4.993   5.545
 6727TIP3    H120145   5.364   4.920   5.574
 6727TIP3    H220146   5.394   5.007   5.454
 6728TIP3   OH220147   1.741   6.233   2.271
 6728TIP3    H120148   1.706   6.318   2.300
 6728TIP3    H220149   1.775   6.194   2.351
 6729TIP3   OH220150   0.003   3.081   4.836
 6729TIP3    H120151   0.083   3.122   4.804
 6729TIP3    H220152  -0.068   3.125   4.789
 6730TIP3   OH220153   2.161   3.194   2.511
 6730TIP3    H120154   2.171   3.288   2.521
 6730TIP3    H220155   2.067   3.179   2.514
 6731TIP3   OH220156   2.946   1.409   2.555
 6731TIP3    H120157   2.915   1.414   2.646
 6731TIP3    H220158   2.874   1.444   2.503
 6732TIP3   OH220159   6.009   0.508   4.566
 6732TIP3    H120160   6.000   0.452   4.488
 6732TIP3    H220161   6.102   0.502   4.589
 6733TIP3   OH220162   6.568   2.475   1.243
 6733TIP3    H120163   6.545   2.382   1.240
 6733TIP3    H220164   6.644   2.479   1.300
 6734TIP3   OH220165   6.060   5.617   3.349
 6734TIP3    H120166   6.129   5.677   3.321
 6734TIP3    H220167   6.046   5.638   3.441
 6735TIP3   OH220168   1.835   2.835   1.440
 6735TIP3    H120169   1.809   2.912   1.389
 6735TIP3    H220170   1.808   2.855   1.529
 6736TIP3   OH220171   1.654   6.602   4.563
 6736TIP3    H120172   1.719   6.551   4.610
 6736TIP3    H220173   1.682   6.693   4.573
 6737TIP3   OH220174   0.725   6.428   3.038
 6737TIP3    H120175   0.818   6.412   3.030
 6737TIP3    H220176   0.700   6.471   2.956
 6738TIP3   OH220177   3.099   2.024   3.328
 6738TIP3    H120178   3.145   1.974   3.260
 6738TIP3    H220179   3.159   2.025   3.402
 6739TIP3   OH220180   6.146   2.590   0.329
 6739TIP3    H120181   6.112   2.679   0.323
 6739TIP3    H220182   6.068   2.535   0.329
 6740TIP3   OH220183   4.366   2.681   2.121
 6740TIP3    H120184   4.398   2.770   2.106
 6740TIP3    H220185   4.292   2.692   2.181
 6741TIP3   OH220186   2.722   5.414   1.084
 6741TIP3    H120187   2.766   5.482   1.135
 6741TIP3    H220188   2.790   5.379   1.027
 6742TIP3   OH220189   3.076   2.194   4.576
 6742TIP3    H120190   3.115   2.116   4.615
 6742TIP3    H220191   3.151   2.247   4.549
 6743TIP3   OH220192   4.442   1.214   1.890
 6743TIP3    H120193   4.454   1.180   1.801
 6743TIP3    H220194   4.349   1.201   1.908
 6744TIP3   OH220195   1.382   6.352   0.927
 6744TIP3    H120196   1.369   6.442   0.958
 6744TIP3    H220197   1.294   6.315   0.923
 6745TIP3   OH220198   3.675   5.991   0.718
 6745TIP3    H120199   3.629   6.053   0.775
 6745TIP3    H220200   3.766   5.995   0.747
 6746TIP3   OH220201   4.209   3.714   5.049
 6746TIP3    H120202   4.248   3.644   5.100
 6746TIP3    H220203   4.162   3.669   4.978
 6747TIP3   OH220204   3.117   5.942   1.224
 6747TIP3    H120205   3.121   6.038   1.230
 6747TIP3    H220206   3.044   5.925   1.164
 6748TIP3   OH220207   5.820   6.094   3.286
 6748TIP3    H120208   5.813   6.102   3.191
 6748TIP3    H220209   5.835   6.183   3.317
 6749TIP3   OH220210   0.733   0.968   2.061
 6749TIP3    H120211   0.692   1.052   2.080
 6749TIP3    H220212   0.664   0.904   2.074
 6750TIP3   OH220213   1.799   3.023   4.353
 6750TIP3    H120214   1.883   3.024   4.400
 6750TIP3    H220215   1.734   3.001   4.419
 6751TIP3   OH220216   3.014   3.208   4.014
 6751TIP3    H120217   3.064   3.196   4.095
 6751TIP3    H220218   2.924   3.189   4.038
 6752TIP3   OH220219   1.109   0.138   1.576
 6752TIP3    H120220   1.174   0.120   1.508
 6752TIP3    H220221   1.065   0.218   1.547
 6753TIP3   OH220222   7.059   3.259   3.212
 6753TIP3    H120223   7.153   3.269   3.226
 6753TIP3    H220224   7.019   3.331   3.262
 6754TIP3   OH220225   5.602   5.198   3.935
 6754TIP3    H120226   5.576   5.290   3.938
 6754TIP3    H220227   5.619   5.182   3.842
 6755TIP3   OH220228   4.410   6.247   3.908
 6755TIP3    H120229   4.429   6.225   3.817
 6755TIP3    H220230   4.376   6.166   3.946
 6756TIP3   OH220231   2.843   4.227   2.933
 6756TIP3    H120232   2.826   4.320   2.950
 6756TIP3    H220233   2.903   4.200   3.002
 6757TIP3   OH220234   2.741   0.066   5.457
 6757TIP3    H120235   2.702   0.152   5.467
 6757TIP3    H220236   2.766   0.040   5.546
 6758TIP3   OH220237   2.769   4.924   3.125
 6758TIP3    H120238   2.844   4.872   3.154
 6758TIP3    H220239   2.774   4.923   3.030
 6759TIP3   OH220240   1.751   0.628   2.750
 6759TIP3    H120241   1.801   0.626   2.832
 6759TIP3    H220242   1.793   0.561   2.695
 6760TIP3   OH220243   1.484   4.384   2.752
 6760TIP3    H120244   1.543   4.313   2.726
 6760TIP3    H220245   1.524   4.463   2.718
 6761TIP3   OH220246   6.013   3.957   2.158
 6761TIP3    H120247   5.932   4.003   2.180
 6761TIP3    H220248   6.073   3.980   2.229
 6762TIP3   OH220249   3.696   3.764   2.777
 6762TIP3    H120250   3.684   3.858   2.784
 6762TIP3    H220251   3.735   3.738   2.861
 6763TIP3   OH220252   2.231   5.615   4.338
 6763TIP3    H120253   2.301   5.563   4.377
 6763TIP3    H220254   2.184   5.554   4.281
 6764TIP3   OH220255   7.171   3.701   0.723
 6764TIP3    H120256   7.133   3.729   0.806
 6764TIP3    H220257   7.151   3.772   0.662
 6765TIP3   OH220258   5.160   1.970   4.031
 6765TIP3    H120259   5.170   1.878   4.005
 6765TIP3    H220260   5.124   1.966   4.120
 6766TIP3   OH220261   6.701   3.021   1.146
 6766TIP3    H120262   6.749   2.982   1.073
 6766TIP3    H220263   6.726   2.968   1.223
 6767TIP3   OH220264   4.705   2.062   3.476
 6767TIP3    H120265   4.635   2.003   3.449
 6767TIP3    H220266   4.661   2.144   3.497
 6768TIP3   OH220267   5.045   4.728   5.371
 6768TIP3    H120268   5.045   4.824   5.376
 6768TIP3    H220269   4.985   4.707   5.300
 6769TIP3   OH220270   3.584   5.199   2.701
 6769TIP3    H120271   3.656   5.249   2.741
 6769TIP3    H220272   3.580   5.118   2.752
 6770TIP3   OH220273   1.947   1.189   4.211
 6770TIP3    H120274   1.996   1.148   4.283
 6770TIP3    H220275   1.991   1.158   4.132
 6771TIP3   OH220276   5.306   4.039   5.167
 6771TIP3    H120277   5.379   4.088   5.130
 6771TIP3    H220278   5.254   4.105   5.213
 6772TIP3   OH220279   2.216   4.602   1.370
 6772TIP3    H120280   2.222   4.622   1.464
 6772TIP3    H220281   2.131   4.558   1.360
 6773TIP3   OH220282   4.086   0.678   2.989
 6773TIP3    H120283   4.011   0.684   3.049
 6773TIP3    H220284   4.162   0.668   3.046
 6774TIP3   OH220285   0.185   0.874   5.709
 6774TIP3    H120286   0.262   0.890   5.763
 6774TIP3    H220287   0.113   0.866   5.772
 6775TIP3   OH220288   6.248   0.872   1.526
 6775TIP3    H120289   6.229   0.825   1.445
 6775TIP3    H220290   6.225   0.963   1.507
 6776TIP3   OH220291   1.344   4.376   0.242
 6776TIP3    H120292   1.420   4.324   0.215
 6776TIP3    H220293   1.331   4.439   0.171
 6777TIP3   OH220294   1.302   3.584   4.635
 6777TIP3    H120295   1.378   3.594   4.691
 6777TIP3    H220296   1.265   3.499   4.660
 6778TIP3   OH220297   0.539   1.556   0.872
 6778TIP3    H120298   0.630   1.538   0.896
 6778TIP3    H220299   0.512   1.477   0.824
 6779TIP3   OH220300   3.566   3.602   3.422
 6779TIP3    H120301   3.536   3.511   3.425
 6779TIP3    H220302   3.485   3.654   3.425
 6780TIP3   OH220303   2.168   0.996   4.643
 6780TIP3    H120304   2.230   1.000   4.570
 6780TIP3    H220305   2.130   0.908   4.638
 6781TIP3   OH220306   0.638   0.503   3.889
 6781TIP3    H120307   0.701   0.443   3.849
 6781TIP3    H220308   0.665   0.590   3.859
 6782TIP3   OH220309   5.987   3.090   0.823
 6782TIP3    H120310   6.065   3.105   0.876
 6782TIP3    H220311   5.962   3.176   0.791
 6783TIP3   OH220312   7.210   3.314   1.260
 6783TIP3    H120313   7.200   3.219   1.275
 6783TIP3    H220314   7.155   3.332   1.184
 6784TIP3   OH220315   0.222   2.829   3.623
 6784TIP3    H120316   0.177   2.883   3.688
 6784TIP3    H220317   0.173   2.747   3.622
 6785TIP3   OH220318   4.142   6.213   0.300
 6785TIP3    H120319   4.206   6.217   0.229
 6785TIP3    H220320   4.193   6.186   0.377
 6786TIP3   OH220321   0.275   1.163   4.240
 6786TIP3    H120322   0.261   1.206   4.324
 6786TIP3    H220323   0.364   1.127   4.245
 6787TIP3   OH220324   1.088   1.615   4.475
 6787TIP3    H120325   0.996   1.619   4.450
 6787TIP3    H220326   1.128   1.558   4.409
 6788TIP3   OH220327   1.910   2.803   3.047
 6788TIP3    H120328   2.004   2.789   3.036
 6788TIP3    H220329   1.875   2.806   2.958
 6789TIP3   OH220330   6.533   3.629   1.086
 6789TIP3    H120331   6.521   3.673   1.002
 6789TIP3    H220332   6.531   3.536   1.065
 6790TIP3   OH220333   5.083   5.887   0.911
 6790TIP3    H120334   5.096   5.806   0.862
 6790TIP3    H220335   5.132   5.874   0.993
 6791TIP3   OH220336   0.365   6.712   0.643
 6791TIP3    H120337   0.294   6.654   0.672
 6791TIP3    H220338   0.378   6.772   0.716
 6792TIP3   OH220339   5.155   3.527   2.893
 6792TIP3    H120340   5.198   3.585   2.955
 6792TIP3    H220341   5.138   3.447   2.943
 6793TIP3   OH220342   4.927   0.973   0.361
 6793TIP3    H120343   4.911   0.879   0.373
 6793TIP3    H220344   4.870   0.998   0.289
 6794TIP3   OH220345   2.527   5.405   0.658
 6794TIP3    H120346   2.526   5.425   0.751
 6794TIP3    H220347   2.485   5.480   0.617
 6795TIP3   OH220348   4.537  -0.024   3.487
 6795TIP3    H120349   4.455   0.016   3.514
 6795TIP3    H220350   4.587  -0.035   3.568
 6796TIP3   OH220351   4.051   6.428   0.002
 6796TIP3    H120352   4.052   6.413   0.096
 6796TIP3    H220353   4.072   6.521  -0.007
 6797TIP3   OH220354   3.580   4.231   4.738
 6797TIP3    H120355   3.597   4.255   4.647
 6797TIP3    H220356   3.662   4.251   4.783
 6798TIP3   OH220357   0.275   4.946   3.012
 6798TIP3    H120358   0.283   4.922   2.919
 6798TIP3    H220359   0.322   4.877   3.059
 6799TIP3   OH220360   0.514   2.270   4.474
 6799TIP3    H120361   0.532   2.308   4.560
 6799TIP3    H220362   0.465   2.337   4.427
 6800TIP3   OH220363   0.263   4.603   4.585
 6800TIP3    H120364   0.329   4.539   4.560
 6800TIP3    H220365   0.181   4.568   4.548
 6801TIP3   OH220366   6.184   0.070   2.706
 6801TIP3    H120367   6.229  -0.014   2.692
 6801TIP3    H220368   6.137   0.086   2.625
 6802TIP3   OH220369   2.048   0.116   4.526
 6802TIP3    H120370   2.095   0.091   4.447
 6802TIP3    H220371   1.959   0.136   4.495
 6803TIP3   OH220372   6.828   4.535   2.799
 6803TIP3    H120373   6.916   4.532   2.762
 6803TIP3    H220374   6.839   4.499   2.888
 6804TIP3   OH220375   6.965   0.085   5.348
 6804TIP3    H120376   6.936   0.129   5.428
 6804TIP3    H220377   7.058   0.066   5.362
 6805TIP3   OH220378   5.280   4.554   3.164
 6805TIP3    H120379   5.288   4.491   3.236
 6805TIP3    H220380   5.188   4.583   3.168
 6806TIP3   OH220381   2.789   2.856   1.470
 6806TIP3    H120382   2.843   2.915   1.524
 6806TIP3    H220383   2.853   2.803   1.423
 6807TIP3   OH220384   4.556   4.365   0.309
 6807TIP3    H120385   4.510   4.386   0.227
 6807TIP3    H220386   4.648   4.378   0.289
 6808TIP3   OH220387   7.050   2.383   2.468
 6808TIP3    H120388   7.137   2.362   2.436
 6808TIP3    H220389   6.992   2.364   2.394
 6809TIP3   OH220390   2.169   1.395   4.285
 6809TIP3    H120391   2.201   1.454   4.353
 6809TIP3    H220392   2.094   1.351   4.324
 6810TIP3   OH220393   6.056   0.189   5.694
 6810TIP3    H120394   5.979   0.133   5.681
 6810TIP3    H220395   6.077   0.221   5.606
 6811TIP3   OH220396   1.829   1.303   3.334
 6811TIP3    H120397   1.814   1.286   3.427
 6811TIP3    H220398   1.744   1.330   3.299
 6812TIP3   OH220399   0.052   2.022   4.553
 6812TIP3    H120400   0.082   1.932   4.538
 6812TIP3    H220401   0.071   2.039   4.645
 6813TIP3   OH220402   1.565   5.769   3.164
 6813TIP3    H120403   1.566   5.782   3.069
 6813TIP3    H220404   1.612   5.687   3.177
 6814TIP3   OH220405   5.914   0.301   2.844
 6814TIP3    H120406   5.853   0.373   2.832
 6814TIP3    H220407   5.987   0.321   2.786
 6815TIP3   OH220408   4.639   1.366   1.171
 6815TIP3    H120409   4.664   1.329   1.087
 6815TIP3    H220410   4.589   1.445   1.149
 6816TIP3   OH220411   2.939   6.549   4.462
 6816TIP3    H120412   2.917   6.550   4.369
 6816TIP3    H220413   3.008   6.615   4.471
 6817TIP3   OH220414   0.765   2.157   3.866
 6817TIP3    H120415   0.778   2.062   3.871
 6817TIP3    H220416   0.811   2.192   3.943
 6818TIP3   OH220417   4.242   1.583   2.116
 6818TIP3    H120418   4.167   1.543   2.073
 6818TIP3    H220419   4.216   1.591   2.208
 6819TIP3   OH220420   3.929   4.876   0.165
 6819TIP3    H120421   3.898   4.943   0.104
 6819TIP3    H220422   3.956   4.804   0.109
 6820TIP3   OH220423   5.006   4.594   2.016
 6820TIP3    H120424   4.963   4.679   2.010
 6820TIP3    H220425   5.058   4.599   2.096
 6821TIP3   OH220426   6.168   4.200   4.123
 6821TIP3    H120427   6.250   4.244   4.143
 6821TIP3    H220428   6.169   4.121   4.178
 6822TIP3   OH220429   0.760   6.086   0.061
 6822TIP3    H120430   0.693   6.153   0.047
 6822TIP3    H220431   0.745   6.022  -0.009
 6823TIP3   OH220432   2.400   5.539   1.679
 6823TIP3    H120433   2.426   5.507   1.766
 6823TIP3    H220434   2.469   5.600   1.654
 6824TIP3   OH220435   5.897   1.099   5.424
 6824TIP3    H120436   5.949   1.036   5.473
 6824TIP3    H220437   5.920   1.184   5.462
 6825TIP3   OH220438   3.819   1.829   2.151
 6825TIP3    H120439   3.832   1.922   2.133
 6825TIP3    H220440   3.878   1.810   2.224
 6826TIP3   OH220441   5.460   4.003   2.545
 6826TIP3    H120442   5.499   4.086   2.573
 6826TIP3    H220443   5.515   3.936   2.585
 6827TIP3   OH220444   0.751   6.256   0.580
 6827TIP3    H120445   0.829   6.235   0.528
 6827TIP3    H220446   0.703   6.319   0.526
 6828TIP3   OH220447   1.890   4.615   0.217
 6828TIP3    H120448   1.904   4.608   0.123
 6828TIP3    H220449   1.828   4.545   0.237
 6829TIP3   OH220450   5.731   4.071   0.415
 6829TIP3    H120451   5.663   4.137   0.401
 6829TIP3    H220452   5.811   4.111   0.381
 6830TIP3   OH220453   4.662   5.136   3.978
 6830TIP3    H120454   4.571   5.163   3.964
 6830TIP3    H220455   4.662   5.096   4.065
 6831TIP3   OH220456   1.284   3.042   3.068
 6831TIP3    H120457   1.245   3.067   2.985
 6831TIP3    H220458   1.361   3.098   3.077
 6832TIP3   OH220459   6.877   1.896   2.417
 6832TIP3    H120460   6.911   1.819   2.371
 6832TIP3    H220461   6.857   1.864   2.505
 6833TIP3   OH220462   2.639   6.133   5.903
 6833TIP3    H120463   2.633   6.136   5.807
 6833TIP3    H220464   2.733   6.123   5.920
 6834TIP3   OH220465   0.113   5.722   5.882
 6834TIP3    H120466   0.186   5.717   5.944
 6834TIP3    H220467   0.039   5.752   5.934
 6835TIP3   OH220468   6.152   5.118   4.443
 6835TIP3    H120469   6.243   5.138   4.462
 6835TIP3    H220470   6.131   5.170   4.366
 6836TIP3   OH220471   4.901   4.697   5.130
 6836TIP3    H120472   4.813   4.736   5.128
 6836TIP3    H220473   4.945   4.734   5.054
 6837TIP3   OH220474   4.798   2.682   0.221
 6837TIP3    H120475   4.747   2.762   0.235
 6837TIP3    H220476   4.877   2.711   0.175
 6838TIP3   OH220477   2.581   1.198   1.934
 6838TIP3    H120478   2.568   1.140   1.860
 6838TIP3    H220479   2.597   1.140   2.008
 6839TIP3   OH220480   6.830   4.154   0.506
 6839TIP3    H120481   6.810   4.175   0.415
 6839TIP3    H220482   6.877   4.071   0.502
 6840TIP3   OH220483   0.152   3.564   4.291
 6840TIP3    H120484   0.194   3.601   4.369
 6840TIP3    H220485   0.059   3.584   4.303
 6841TIP3   OH220486   3.930   4.656   4.453
 6841TIP3    H120487   3.988   4.705   4.395
 6841TIP3    H220488   3.955   4.565   4.441
 6842TIP3   OH220489   2.051   3.891   0.963
 6842TIP3    H120490   2.051   3.874   0.869
 6842TIP3    H220491   2.032   3.806   1.004
 6843TIP3   OH220492   0.797   0.104   4.328
 6843TIP3    H120493   0.879   0.060   4.305
 6843TIP3    H220494   0.753   0.118   4.244
 6844TIP3   OH220495   3.557   3.054   4.320
 6844TIP3    H120496   3.557   3.111   4.243
 6844TIP3    H220497   3.499   2.982   4.295
 6845TIP3   OH220498   4.524   3.608   5.523
 6845TIP3    H120499   4.459   3.635   5.588
 6845TIP3    H220500   4.593   3.565   5.574
 6846TIP3   OH220501   6.843   1.049   2.680
 6846TIP3    H120502   6.885   1.088   2.604
 6846TIP3    H220503   6.767   1.003   2.646
 6847TIP3   OH220504  -0.006   3.876   1.159
 6847TIP3    H120505  -0.025   3.970   1.159
 6847TIP3    H220506   0.076   3.868   1.111
 6848TIP3   OH220507   5.677   3.017   1.536
 6848TIP3    H120508   5.630   2.935   1.523
 6848TIP3    H220509   5.641   3.052   1.618
 6849TIP3   OH220510   5.739   1.832   2.827
 6849TIP3    H120511   5.736   1.913   2.876
 6849TIP3    H220512   5.700   1.766   2.885
 6850TIP3   OH220513   5.669   5.175   3.667
 6850TIP3    H120514   5.637   5.102   3.614
 6850TIP3    H220515   5.725   5.225   3.608
 6851TIP3   OH220516   0.991   0.241   3.628
 6851TIP3    H120517   0.976   0.322   3.676
 6851TIP3    H220518   1.043   0.266   3.552
 6852TIP3   OH220519   0.306   4.690   0.516
 6852TIP3    H120520   0.262   4.644   0.444
 6852TIP3    H220521   0.238   4.745   0.554
 6853TIP3   OH220522   0.154   6.228   0.604
 6853TIP3    H120523   0.210   6.233   0.682
 6853TIP3    H220524   0.167   6.139   0.571
 6854TIP3   OH220525   4.640   3.960   4.131
 6854TIP3    H120526   4.558   3.974   4.178
 6854TIP3    H220527   4.708   3.971   4.199
 6855TIP3   OH220528   3.444   2.693   5.826
 6855TIP3    H120529   3.384   2.696   5.901
 6855TIP3    H220530   3.479   2.604   5.828
 6856TIP3   OH220531   5.209   4.573   0.789
 6856TIP3    H120532   5.140   4.523   0.833
 6856TIP3    H220533   5.290   4.532   0.820
 6857TIP3   OH220534   4.185   1.849   5.771
 6857TIP3    H120535   4.182   1.899   5.689
 6857TIP3    H220536   4.097   1.857   5.807
 6858TIP3   OH220537   0.523   2.685   3.064
 6858TIP3    H120538   0.457   2.726   3.009
 6858TIP3    H220539   0.485   2.688   3.152
 6859TIP3   OH220540   6.345   1.370  -0.030
 6859TIP3    H120541   6.252   1.379  -0.049
 6859TIP3    H220542   6.354   1.402   0.060
 6860TIP3   OH220543   2.027   0.998   4.000
 6860TIP3    H120544   2.039   0.962   4.087
 6860TIP3    H220545   2.106   0.973   3.952
 6861TIP3   OH220546   6.620   4.670   1.568
 6861TIP3    H120547   6.529   4.657   1.597
 6861TIP3    H220548   6.646   4.751   1.611
 6862TIP3   OH220549   0.543   5.560   2.957
 6862TIP3    H120550   0.570   5.477   2.997
 6862TIP3    H220551   0.451   5.569   2.979
 6863TIP3   OH220552   3.511   0.462   2.412
 6863TIP3    H120553   3.557   0.511   2.480
 6863TIP3    H220554   3.420   0.460   2.441
 6864TIP3   OH220555   4.822   1.215   2.377
 6864TIP3    H120556   4.784   1.139   2.421
 6864TIP3    H220557   4.750   1.278   2.371
 6865TIP3   OH220558   3.695   6.832   0.083
 6865TIP3    H120559   3.613   6.789   0.107
 6865TIP3    H220560   3.761   6.790   0.139
 6866TIP3   OH220561   5.425   4.704   2.198
 6866TIP3    H120562   5.360   4.773   2.209
 6866TIP3    H220563   5.425   4.687   2.103
 6867TIP3   OH220564   6.470   0.177   2.167
 6867TIP3    H120565   6.444   0.097   2.213
 6867TIP3    H220566   6.393   0.233   2.171
 6868TIP3   OH220567   0.092   1.192   1.944
 6868TIP3    H120568   0.115   1.213   1.853
 6868TIP3    H220569   0.022   1.127   1.938
 6869TIP3   OH220570   1.683   1.871   1.125
 6869TIP3    H120571   1.768   1.880   1.166
 6869TIP3    H220572   1.628   1.937   1.168
 6870TIP3   OH220573   5.970   1.543   4.716
 6870TIP3    H120574   5.939   1.521   4.628
 6870TIP3    H220575   5.971   1.639   4.718
 6871TIP3   OH220576   3.717   5.674   3.672
 6871TIP3    H120577   3.776   5.664   3.746
 6871TIP3    H220578   3.772   5.706   3.600
 6872TIP3   OH220579   3.914   4.437   0.972
 6872TIP3    H120580   3.942   4.357   0.926
 6872TIP3    H220581   3.994   4.470   1.012
 6873TIP3   OH220582   1.501   4.982   1.051
 6873TIP3    H120583   1.537   4.994   0.963
 6873TIP3    H220584   1.458   5.066   1.070
 6874TIP3   OH220585   3.217   2.680   1.362
 6874TIP3    H120586   3.240   2.653   1.273
 6874TIP3    H220587   3.231   2.603   1.416
 6875TIP3   OH220588   6.725   0.948   4.484
 6875TIP3    H120589   6.803   0.942   4.428
 6875TIP3    H220590   6.760   0.945   4.574
 6876TIP3   OH220591   2.188   1.328   1.120
 6876TIP3    H120592   2.190   1.264   1.191
 6876TIP3    H220593   2.095   1.338   1.100
 6877TIP3   OH220594   6.914   1.157   5.737
 6877TIP3    H120595   6.947   1.099   5.806
 6877TIP3    H220596   6.952   1.242   5.758
 6878TIP3   OH220597   6.562   4.682   3.609
 6878TIP3    H120598   6.602   4.722   3.532
 6878TIP3    H220599   6.481   4.642   3.576
 6879TIP3   OH220600   1.240   0.162   3.240
 6879TIP3    H120601   1.233   0.067   3.230
 6879TIP3    H220602   1.333   0.178   3.255
 6880TIP3   OH220603   0.629   1.648   5.251
 6880TIP3    H120604   0.702   1.681   5.304
 6880TIP3    H220605   0.606   1.564   5.291
 6881TIP3   OH220606   1.364   2.979   1.691
 6881TIP3    H120607   1.399   3.064   1.663
 6881TIP3    H220608   1.387   2.973   1.784
 6882TIP3   OH220609   1.475   5.547   1.930
 6882TIP3    H120610   1.553   5.594   1.900
 6882TIP3    H220611   1.404   5.609   1.917
 6883TIP3   OH220612   3.815   1.482   4.171
 6883TIP3    H120613   3.749   1.549   4.154
 6883TIP3    H220614   3.814   1.472   4.267
 6884TIP3   OH220615   0.086   3.232   5.048
 6884TIP3    H120616   0.035   3.164   5.004
 6884TIP3    H220617   0.176   3.215   5.023
 6885TIP3   OH220618   2.402   6.546   1.480
 6885TIP3    H120619   2.440   6.613   1.537
 6885TIP3    H220620   2.453   6.467   1.498
 6886TIP3   OH220621   6.306   4.192   0.217
 6886TIP3    H120622   6.259   4.273   0.237
 6886TIP3    H220623   6.387   4.198   0.267
 6887TIP3   OH220624   2.063   0.585  -0.014
 6887TIP3    H120625   2.120   0.658   0.010
 6887TIP3    H220626   2.057   0.533   0.066
 6888TIP3   OH220627   0.973   4.557   5.167
 6888TIP3    H120628   0.971   4.502   5.089
 6888TIP3    H220629   1.008   4.500   5.236
 6889TIP3   OH220630   4.675   5.515   5.263
 6889TIP3    H120631   4.581   5.498   5.270
 6889TIP3    H220632   4.696   5.565   5.341
 6890TIP3   OH220633   5.455   0.470   0.046
 6890TIP3    H120634   5.537   0.512   0.069
 6890TIP3    H220635   5.479   0.399  -0.014
 6891TIP3   OH220636   0.851   0.736   3.647
 6891TIP3    H120637   0.796   0.731   3.569
 6891TIP3    H220638   0.931   0.779   3.617
 6892TIP3   OH220639   2.654   5.527   0.029
 6892TIP3    H120640   2.589   5.517  -0.041
 6892TIP3    H220641   2.620   5.599   0.082
 6893TIP3   OH220642   0.709   0.142   4.031
 6893TIP3    H120643   0.644   0.147   3.962
 6893TIP3    H220644   0.772   0.212   4.010
 6894TIP3   OH220645   6.861   4.955   2.403
 6894TIP3    H120646   6.768   4.932   2.393
 6894TIP3    H220647   6.896   4.888   2.462
 6895TIP3   OH220648   2.008   5.247   4.567
 6895TIP3    H120649   1.996   5.157   4.595
 6895TIP3    H220650   1.926   5.269   4.522
 6896TIP3   OH220651   6.609   0.903   4.204
 6896TIP3    H120652   6.583   0.902   4.112
 6896TIP3    H220653   6.664   0.981   4.212
 6897TIP3   OH220654   6.309   6.375   3.827
 6897TIP3    H120655   6.237   6.313   3.841
 6897TIP3    H220656   6.274   6.439   3.765
 6898TIP3   OH220657   3.394   4.637   5.206
 6898TIP3    H120658   3.335   4.670   5.274
 6898TIP3    H220659   3.368   4.545   5.194
 6899TIP3   OH220660   5.074   0.485   0.356
 6899TIP3    H120661   5.058   0.418   0.422
 6899TIP3    H220662   5.111   0.438   0.281
 6900TIP3   OH220663   4.517   4.249   2.309
 6900TIP3    H120664   4.457   4.211   2.245
 6900TIP3    H220665   4.516   4.188   2.382
 6901TIP3   OH220666   0.538   1.282   2.737
 6901TIP3    H120667   0.455   1.318   2.707
 6901TIP3    H220668   0.600   1.354   2.728
 6902TIP3   OH220669   2.856   0.968   3.929
 6902TIP3    H120670   2.787   0.935   3.872
 6902TIP3    H220671   2.885   1.049   3.888
 6903TIP3   OH220672   2.038  -0.033   3.352
 6903TIP3    H120673   2.120   0.013   3.367
 6903TIP3    H220674   1.986   0.028   3.299
 6904TIP3   OH220675   2.931   6.734   1.642
 6904TIP3    H120676   2.888   6.656   1.677
 6904TIP3    H220677   2.933   6.795   1.716
 6905TIP3   OH220678   5.358   3.635   4.179
 6905TIP3    H120679   5.365   3.709   4.120
 6905TIP3    H220680   5.352   3.559   4.121
 6906TIP3   OH220681   7.021   4.391   4.492
 6906TIP3    H120682   6.997   4.480   4.464
 6906TIP3    H220683   6.974   4.334   4.431
 6907TIP3   OH220684   5.669   3.592   3.198
 6907TIP3    H120685   5.665   3.575   3.292
 6907TIP3    H220686   5.698   3.509   3.160
 6908TIP3   OH220687   5.414   4.155   5.611
 6908TIP3    H120688   5.451   4.235   5.648
 6908TIP3    H220689   5.477   4.087   5.632
 6909TIP3   OH220690   1.549   4.270   1.156
 6909TIP3    H120691   1.629   4.290   1.108
 6909TIP3    H220692   1.482   4.261   1.088
 6910TIP3   OH220693   4.184   0.365   0.525
 6910TIP3    H120694   4.182   0.283   0.476
 6910TIP3    H220695   4.266   0.362   0.574
 6911TIP3   OH220696   3.162   5.268   4.622
 6911TIP3    H120697   3.099   5.334   4.651
 6911TIP3    H220698   3.122   5.184   4.645
 6912TIP3   OH220699   2.973   6.484   3.182
 6912TIP3    H120700   2.919   6.562   3.168
 6912TIP3    H220701   3.063   6.516   3.178
 6913TIP3   OH220702   4.854   2.901   1.141
 6913TIP3    H120703   4.803   2.967   1.189
 6913TIP3    H220704   4.809   2.893   1.057
 6914TIP3   OH220705   0.573   3.612   3.513
 6914TIP3    H120706   0.514   3.604   3.438
 6914TIP3    H220707   0.541   3.547   3.575
 6915TIP3   OH220708   4.160   5.177   3.809
 6915TIP3    H120709   4.145   5.091   3.848
 6915TIP3    H220710   4.108   5.177   3.729
 6916TIP3   OH220711   0.352   6.291   0.802
 6916TIP3    H120712   0.420   6.244   0.849
 6916TIP3    H220713   0.316   6.352   0.866
 6917TIP3   OH220714   3.688   2.004   1.861
 6917TIP3    H120715   3.749   2.053   1.917
 6917TIP3    H220716   3.702   2.039   1.773
 6918TIP3   OH220717   2.895   3.938   5.658
 6918TIP3    H120718   2.971   3.892   5.621
 6918TIP3    H220719   2.823   3.877   5.647
 6919TIP3   OH220720   2.383   1.232   5.897
 6919TIP3    H120721   2.424   1.187   5.823
 6919TIP3    H220722   2.304   1.182   5.915
 6920TIP3   OH220723   3.508   5.080   0.148
 6920TIP3    H120724   3.597   5.095   0.117
 6920TIP3    H220725   3.455   5.071   0.069
 6921TIP3   OH220726   1.955   0.693   3.459
 6921TIP3    H120727   1.960   0.599   3.442
 6921TIP3    H220728   1.866   0.716   3.433
 6922TIP3   OH220729   3.898   6.116   5.610
 6922TIP3    H120730   3.918   6.023   5.602
 6922TIP3    H220731   3.841   6.134   5.535
 6923TIP3   OH220732   0.318   1.903   2.076
 6923TIP3    H120733   0.247   1.951   2.119
 6923TIP3    H220734   0.348   1.840   2.143
 6924TIP3   OH220735   6.766   6.641   1.858
 6924TIP3    H120736   6.691   6.659   1.801
 6924TIP3    H220737   6.823   6.585   1.805
 6925TIP3   OH220738   4.506   0.530   1.807
 6925TIP3    H120739   4.469   0.442   1.808
 6925TIP3    H220740   4.441   0.582   1.758
 6926TIP3   OH220741   3.722   1.153   1.873
 6926TIP3    H120742   3.791   1.145   1.807
 6926TIP3    H220743   3.761   1.116   1.953
 6927TIP3   OH220744   4.270   4.934   4.452
 6927TIP3    H120745   4.330   4.861   4.434
 6927TIP3    H220746   4.200   4.923   4.387
 6928TIP3   OH220747   4.799   6.433   5.868
 6928TIP3    H120748   4.815   6.359   5.927
 6928TIP3    H220749   4.876   6.488   5.878
 6929TIP3   OH220750   2.955   3.283   2.401
 6929TIP3    H120751   2.889   3.232   2.448
 6929TIP3    H220752   2.914   3.304   2.318
 6930TIP3   OH220753   4.639   4.609   3.996
 6930TIP3    H120754   4.734   4.622   3.990
 6930TIP3    H220755   4.616   4.639   4.084
 6931TIP3   OH220756   0.218   1.220   2.372
 6931TIP3    H120757   0.290   1.266   2.415
 6931TIP3    H220758   0.219   1.253   2.282
 6932TIP3   OH220759   0.163   2.336   3.464
 6932TIP3    H120760   0.084   2.345   3.411
 6932TIP3    H220761   0.199   2.251   3.439
 6933TIP3   OH220762   6.836   6.172   2.753
 6933TIP3    H120763   6.777   6.143   2.822
 6933TIP3    H220764   6.782   6.173   2.674
 6934TIP3   OH220765   0.414   0.355   2.711
 6934TIP3    H120766   0.421   0.375   2.805
 6934TIP3    H220767   0.447   0.265   2.703
 6935TIP3   OH220768   3.496   1.181   0.717
 6935TIP3    H120769   3.433   1.205   0.649
 6935TIP3    H220770   3.577   1.164   0.669
 6936TIP3   OH220771   4.547   6.683   0.587
 6936TIP3    H120772   4.607   6.620   0.627
 6936TIP3    H220773   4.476   6.629   0.550
 6937TIP3   OH220774   3.606   4.765   3.417
 6937TIP3    H120775   3.531   4.807   3.376
 6937TIP3    H220776   3.586   4.672   3.416
 6938TIP3   OH220777   0.460   0.250   4.245
 6938TIP3    H120778   0.429   0.203   4.322
 6938TIP3    H220779   0.528   0.195   4.208
 6939TIP3   OH220780   1.052   5.900   3.190
 6939TIP3    H120781   0.974   5.874   3.141
 6939TIP3    H220782   1.117   5.923   3.123
 6940TIP3   OH220783   5.865   4.937   3.640
 6940TIP3    H120784   5.928   4.884   3.690
 6940TIP3    H220785   5.876   5.026   3.674
 6941TIP3   OH220786   0.522   4.935   5.423
 6941TIP3    H120787   0.577   4.997   5.375
 6941TIP3    H220788   0.504   4.865   5.360
 6942TIP3   OH220789   4.305   5.996   4.011
 6942TIP3    H120790   4.322   5.947   3.931
 6942TIP3    H220791   4.212   5.979   4.030
 6943TIP3   OH220792   4.822   2.005   4.060
 6943TIP3    H120793   4.790   2.017   3.970
 6943TIP3    H220794   4.887   2.074   4.071
 6944TIP3   OH220795   1.039   1.631   0.425
 6944TIP3    H120796   0.974   1.626   0.355
 6944TIP3    H220797   1.121   1.606   0.384
 6945TIP3   OH220798   6.063   6.120   5.410
 6945TIP3    H120799   6.144   6.074   5.431
 6945TIP3    H220800   6.090   6.211   5.397
 6946TIP3   OH220801   3.682   0.431   5.510
 6946TIP3    H120802   3.754   0.376   5.481
 6946TIP3    H220803   3.711   0.521   5.494
 6947TIP3   OH220804   6.502   1.982   4.304
 6947TIP3    H120805   6.517   2.067   4.346
 6947TIP3    H220806   6.576   1.929   4.333
 6948TIP3   OH220807   1.911   6.642   2.055
 6948TIP3    H120808   1.816   6.636   2.064
 6948TIP3    H220809   1.944   6.559   2.092
 6949TIP3   OH220810   3.282   1.481   2.421
 6949TIP3    H120811   3.355   1.442   2.372
 6949TIP3    H220812   3.229   1.525   2.354
 6950TIP3   OH220813   6.367   2.840   4.394
 6950TIP3    H120814   6.335   2.859   4.482
 6950TIP3    H220815   6.454   2.802   4.408
 6951TIP3   OH220816   6.704   3.477   4.733
 6951TIP3    H120817   6.628   3.536   4.725
 6951TIP3    H220818   6.732   3.486   4.824
 6952TIP3   OH220819   5.989   6.185   4.497
 6952TIP3    H120820   5.980   6.226   4.412
 6952TIP3    H220821   6.083   6.184   4.514
 6953TIP3   OH220822   0.466   2.116   4.121
 6953TIP3    H120823   0.409   2.043   4.144
 6953TIP3    H220824   0.432   2.146   4.036
 6954TIP3   OH220825   2.024   5.021   1.118
 6954TIP3    H120826   2.072   5.023   1.035
 6954TIP3    H220827   1.977   5.104   1.121
 6955TIP3   OH220828   6.294   3.736   3.388
 6955TIP3    H120829   6.359   3.679   3.348
 6955TIP3    H220830   6.308   3.726   3.482
 6956TIP3   OH220831   4.567   3.803   3.063
 6956TIP3    H120832   4.659   3.780   3.076
 6956TIP3    H220833   4.563   3.897   3.083
 6957TIP3   OH220834   2.191   4.229   4.605
 6957TIP3    H120835   2.271   4.206   4.653
 6957TIP3    H220836   2.223   4.257   4.519
 6958TIP3   OH220837   1.090   6.080   3.391
 6958TIP3    H120838   1.068   6.013   3.326
 6958TIP3    H220839   1.113   6.031   3.470
 6959TIP3   OH220840   3.734   1.426   4.439
 6959TIP3    H120841   3.697   1.338   4.441
 6959TIP3    H220842   3.749   1.447   4.531
 6960TIP3   OH220843   5.966   3.607   3.982
 6960TIP3    H120844   5.872   3.595   3.971
 6960TIP3    H220845   5.998   3.521   4.010
 6961TIP3   OH220846   5.945   1.672   3.919
 6961TIP3    H120847   5.969   1.755   3.878
 6961TIP3    H220848   5.887   1.630   3.856
 6962TIP3   OH220849   3.339   4.590   2.898
 6962TIP3    H120850   3.316   4.570   2.807
 6962TIP3    H220851   3.261   4.564   2.948
 6963TIP3   OH220852   1.127   3.961   0.399
 6963TIP3    H120853   1.170   3.962   0.313
 6963TIP3    H220854   1.091   4.049   0.409
 6964TIP3   OH220855   6.811   0.296   2.644
 6964TIP3    H120856   6.787   0.213   2.603
 6964TIP3    H220857   6.748   0.360   2.610
 6965TIP3   OH220858   7.059   2.209   0.696
 6965TIP3    H120859   7.081   2.165   0.614
 6965TIP3    H220860   7.025   2.139   0.752
 6966TIP3   OH220861   6.316   3.878   0.141
 6966TIP3    H120862   6.322   3.940   0.068
 6966TIP3    H220863   6.323   3.933   0.219
 6967TIP3   OH220864   3.467   4.214   3.534
 6967TIP3    H120865   3.546   4.161   3.530
 6967TIP3    H220866   3.416   4.188   3.457
 6968TIP3   OH220867   2.399   5.718   1.361
 6968TIP3    H120868   2.317   5.741   1.317
 6968TIP3    H220869   2.387   5.627   1.389
 6969TIP3   OH220870   2.531   2.395   5.835
 6969TIP3    H120871   2.467   2.445   5.785
 6969TIP3    H220872   2.558   2.455   5.906
 6970TIP3   OH220873   0.779   3.715   1.777
 6970TIP3    H120874   0.690   3.748   1.784
 6970TIP3    H220875   0.800   3.684   1.865
 6971TIP3   OH220876   4.183   6.590   1.978
 6971TIP3    H120877   4.264   6.583   1.927
 6971TIP3    H220878   4.186   6.515   2.037
 6972TIP3   OH220879   6.383   6.333   4.982
 6972TIP3    H120880   6.343   6.366   4.902
 6972TIP3    H220881   6.315   6.281   5.024
 6973TIP3   OH220882   0.383   0.446   2.170
 6973TIP3    H120883   0.310   0.508   2.163
 6973TIP3    H220884   0.353   0.368   2.124
 6974TIP3   OH220885   3.112   3.150   5.369
 6974TIP3    H120886   3.145   3.195   5.447
 6974TIP3    H220887   3.111   3.057   5.393
 6975TIP3   OH220888   1.427   6.683   5.676
 6975TIP3    H120889   1.406   6.775   5.691
 6975TIP3    H220890   1.477   6.657   5.754
 6976TIP3   OH220891   1.650   2.670   1.891
 6976TIP3    H120892   1.595   2.697   1.965
 6976TIP3    H220893   1.614   2.586   1.864
 6977TIP3   OH220894   2.196   1.027   0.793
 6977TIP3    H120895   2.262   1.096   0.786
 6977TIP3    H220896   2.167   1.012   0.703
 6978TIP3   OH220897   0.895   2.403   0.763
 6978TIP3    H120898   0.900   2.308   0.754
 6978TIP3    H220899   0.801   2.421   0.771
 6979TIP3   OH220900   5.131   1.919   0.819
 6979TIP3    H120901   5.056   1.860   0.833
 6979TIP3    H220902   5.183   1.910   0.899
 6980TIP3   OH220903   1.071   1.189   3.250
 6980TIP3    H120904   1.037   1.228   3.330
 6980TIP3    H220905   0.994   1.159   3.202
 6981TIP3   OH220906   1.176   3.223   2.866
 6981TIP3    H120907   1.095   3.186   2.832
 6981TIP3    H220908   1.172   3.315   2.841
 6982TIP3   OH220909   6.873   5.058   2.749
 6982TIP3    H120910   6.906   4.987   2.695
 6982TIP3    H220911   6.869   5.133   2.690
 6983TIP3   OH220912   0.197   1.572   3.413
 6983TIP3    H120913   0.128   1.629   3.380
 6983TIP3    H220914   0.229   1.615   3.492
 6984TIP3   OH220915   0.030   6.723   3.004
 6984TIP3    H120916   0.091   6.772   2.948
 6984TIP3    H220917   0.002   6.650   2.949
 6985TIP3   OH220918   5.130   1.299   5.491
 6985TIP3    H120919   5.053   1.242   5.490
 6985TIP3    H220920   5.204   1.240   5.505
 6986TIP3   OH220921   1.921   1.952   3.114
 6986TIP3    H120922   1.841   1.945   3.166
 6986TIP3    H220923   1.976   1.881   3.147
 6987TIP3   OH220924   1.672   6.731   5.502
 6987TIP3    H120925   1.610   6.779   5.447
 6987TIP3    H220926   1.698   6.795   5.568
 6988TIP3   OH220927   4.001   1.108   3.547
 6988TIP3    H120928   4.035   1.150   3.468
 6988TIP3    H220929   4.059   1.138   3.617
 6989TIP3   OH220930   4.073   3.671   4.153
 6989TIP3    H120931   3.998   3.709   4.108
 6989TIP3    H220932   4.142   3.737   4.146
 6990TIP3   OH220933   0.498   2.511   0.577
 6990TIP3    H120934   0.488   2.521   0.671
 6990TIP3    H220935   0.581   2.462   0.567
 6991TIP3   OH220936   6.417   3.096   5.646
 6991TIP3    H120937   6.432   3.022   5.588
 6991TIP3    H220938   6.458   3.170   5.601
 6992TIP3   OH220939   3.515   1.107   5.532
 6992TIP3    H120940   3.488   1.032   5.585
 6992TIP3    H220941   3.545   1.069   5.450
 6993TIP3   OH220942   5.722   0.690   0.671
 6993TIP3    H120943   5.784   0.751   0.632
 6993TIP3    H220944   5.636   0.719   0.638
 6994TIP3   OH220945   4.478   0.578   2.784
 6994TIP3    H120946   4.414   0.516   2.749
 6994TIP3    H220947   4.562   0.549   2.750
 6995TIP3   OH220948   6.887   4.626   3.312
 6995TIP3    H120949   6.806   4.598   3.355
 6995TIP3    H220950   6.889   4.577   3.230
 6996TIP3   OH220951   2.083   4.084   3.177
 6996TIP3    H120952   2.153   4.136   3.137
 6996TIP3    H220953   2.077   4.005   3.124
 6997TIP3   OH220954   6.230   4.174   5.209
 6997TIP3    H120955   6.169   4.181   5.283
 6997TIP3    H220956   6.290   4.104   5.234
 6998TIP3   OH220957   2.855   2.183   2.867
 6998TIP3    H120958   2.791   2.184   2.939
 6998TIP3    H220959   2.933   2.142   2.905
 6999TIP3   OH220960   3.149   0.428   3.152
 6999TIP3    H120961   3.100   0.434   3.234
 6999TIP3    H220962   3.125   0.342   3.116
 7000TIP3   OH220963   1.375   3.758   3.149
 7000TIP3    H120964   1.377   3.693   3.078
 7000TIP3    H220965   1.329   3.833   3.111
 7001TIP3   OH220966   0.790   3.580   2.079
 7001TIP3    H120967   0.712   3.628   2.106
 7001TIP3    H220968   0.756   3.501   2.036
 7002TIP3   OH220969   1.475   3.652   5.137
 7002TIP3    H120970   1.380   3.649   5.124
 7002TIP3    H220971   1.488   3.716   5.207
 7003TIP3   OH220972   2.251   1.661   0.171
 7003TIP3    H120973   2.229   1.641   0.080
 7003TIP3    H220974   2.282   1.752   0.169
 7004TIP3   OH220975   2.469   2.372   1.509
 7004TIP3    H120976   2.447   2.415   1.592
 7004TIP3    H220977   2.406   2.406   1.447
 7005TIP3   OH220978   5.116   1.779   1.942
 7005TIP3    H120979   5.182   1.731   1.994
 7005TIP3    H220980   5.058   1.711   1.909
 7006TIP3   OH220981   2.044   6.447   2.692
 7006TIP3    H120982   2.093   6.502   2.753
 7006TIP3    H220983   1.994   6.388   2.749
 7007TIP3   OH220984   0.597   2.359   4.093
 7007TIP3    H120985   0.568   2.268   4.088
 7007TIP3    H220986   0.517   2.408   4.113
 7008TIP3   OH220987   6.395   1.425   4.471
 7008TIP3    H120988   6.489   1.404   4.471
 7008TIP3    H220989   6.351   1.340   4.477
 7009TIP3   OH220990   0.564   4.796   0.162
 7009TIP3    H120991   0.560   4.890   0.179
 7009TIP3    H220992   0.474   4.771   0.141
 7010TIP3   OH220993   2.210   6.086   1.291
 7010TIP3    H120994   2.300   6.064   1.267
 7010TIP3    H220995   2.211   6.181   1.305
 7011TIP3   OH220996   5.246   3.656   3.685
 7011TIP3    H120997   5.196   3.579   3.712
 7011TIP3    H220998   5.206   3.729   3.731
 7012TIP3   OH220999   5.685   1.345   4.736
 7012TIP3    H121000   5.727   1.412   4.790
 7012TIP3    H221001   5.645   1.285   4.798
 7013TIP3   OH221002   4.786   4.319   3.552
 7013TIP3    H121003   4.772   4.225   3.565
 7013TIP3    H221004   4.736   4.360   3.623
 7014TIP3   OH221005   4.528   6.054   1.309
 7014TIP3    H121006   4.509   5.982   1.248
 7014TIP3    H221007   4.504   6.133   1.261
 7015TIP3   OH221008   1.293   1.806   2.585
 7015TIP3    H121009   1.307   1.900   2.595
 7015TIP3    H221010   1.381   1.768   2.584
 7016TIP3   OH221011   6.731   1.075   5.120
 7016TIP3    H121012   6.769   1.106   5.038
 7016TIP3    H221013   6.637   1.085   5.108
 7017TIP3   OH221014   1.961   1.500   1.555
 7017TIP3    H121015   2.041   1.448   1.565
 7017TIP3    H221016   1.897   1.457   1.612
 7018TIP3   OH221017   2.131   0.679   2.815
 7018TIP3    H121018   2.108   0.586   2.808
 7018TIP3    H221019   2.102   0.704   2.903
 7019TIP3   OH221020   7.228   4.734   3.677
 7019TIP3    H121021   7.253   4.825   3.662
 7019TIP3    H221022   7.144   4.724   3.634
 7020TIP3   OH221023   5.006   4.203   2.707
 7020TIP3    H121024   5.036   4.294   2.708
 7020TIP3    H221025   4.960   4.194   2.624
 7021TIP3   OH221026   0.748   6.612   2.295
 7021TIP3    H121027   0.816   6.599   2.361
 7021TIP3    H221028   0.782   6.569   2.217
 7022TIP3   OH221029   5.078   4.993   3.808
 7022TIP3    H121030   5.137   4.967   3.738
 7022TIP3    H221031   5.109   5.079   3.836
 7023TIP3   OH221032   4.153   4.813   1.794
 7023TIP3    H121033   4.078   4.861   1.829
 7023TIP3    H221034   4.197   4.875   1.736
 7024TIP3   OH221035   3.486   6.349   3.630
 7024TIP3    H121036   3.484   6.274   3.689
 7024TIP3    H221037   3.499   6.424   3.687
 7025TIP3   OH221038   1.751   1.949   4.011
 7025TIP3    H121039   1.743   2.031   4.061
 7025TIP3    H221040   1.819   1.900   4.058
 7026TIP3   OH221041   5.182   4.990   0.731
 7026TIP3    H121042   5.240   4.915   0.722
 7026TIP3    H221043   5.101   4.964   0.687
 7027TIP3   OH221044   0.167   5.716   0.704
 7027TIP3    H121045   0.120   5.770   0.767
 7027TIP3    H221046   0.254   5.756   0.698
 7028TIP3   OH221047   4.789   5.024   0.437
 7028TIP3    H121048   4.779   5.099   0.378
 7028TIP3    H221049   4.880   5.031   0.467
 7029TIP3   OH221050   1.036   4.984   0.237
 7029TIP3    H121051   0.960   5.000   0.293
 7029TIP3    H221052   0.999   4.973   0.150
 7030TIP3   OH221053   3.579   4.414   4.477
 7030TIP3    H121054   3.533   4.366   4.408
 7030TIP3    H221055   3.669   4.381   4.473
 7031TIP3   OH221056   3.517   2.583   0.003
 7031TIP3    H121057   3.553   2.650   0.062
 7031TIP3    H221058   3.557   2.602  -0.082
 7032TIP3   OH221059   4.145   3.279   0.679
 7032TIP3    H121060   4.126   3.340   0.607
 7032TIP3    H221061   4.152   3.193   0.636
 7033TIP3   OH221062   0.384   0.559   1.387
 7033TIP3    H121063   0.472   0.595   1.400
 7033TIP3    H221064   0.389   0.471   1.423
 7034TIP3   OH221065   3.437   5.715   1.332
 7034TIP3    H121066   3.492   5.720   1.410
 7034TIP3    H221067   3.351   5.745   1.361
 7035TIP3   OH221068   2.062   0.857   5.084
 7035TIP3    H121069   2.044   0.901   5.001
 7035TIP3    H221070   2.138   0.801   5.065
 7036TIP3   OH221071   4.168   5.861   3.067
 7036TIP3    H121072   4.098   5.897   3.013
 7036TIP3    H221073   4.151   5.896   3.155
 7037TIP3   OH221074   6.880   4.794   2.616
 7037TIP3    H121075   6.915   4.707   2.598
 7037TIP3    H221076   6.796   4.778   2.660
 7038TIP3   OH221077   0.851   5.489   1.154
 7038TIP3    H121078   0.891   5.419   1.206
 7038TIP3    H221079   0.759   5.490   1.180
 7039TIP3   OH221080   4.915   4.911   3.104
 7039TIP3    H121081   4.861   4.963   3.044
 7039TIP3    H221082   4.992   4.965   3.121
 7040TIP3   OH221083   1.257   5.156   3.893
 7040TIP3    H121084   1.266   5.068   3.858
 7040TIP3    H221085   1.345   5.180   3.920
 7041TIP3   OH221086   5.133   5.472   4.377
 7041TIP3    H121087   5.064   5.460   4.312
 7041TIP3    H221088   5.205   5.417   4.347
 7042TIP3   OH221089   7.127   0.338   4.757
 7042TIP3    H121090   7.112   0.243   4.751
 7042TIP3    H221091   7.133   0.367   4.666
 7043TIP3   OH221092   1.334   0.604   3.571
 7043TIP3    H121093   1.410   0.621   3.626
 7043TIP3    H221094   1.364   0.540   3.507
 7044TIP3   OH221095   5.946   5.793   3.985
 7044TIP3    H121096   5.938   5.727   3.916
 7044TIP3    H221097   5.859   5.832   3.992
 7045TIP3   OH221098   5.105   4.792   4.044
 7045TIP3    H121099   5.085   4.867   3.988
 7045TIP3    H221100   5.156   4.733   3.988
 7046TIP3   OH221101   6.873   2.941   4.118
 7046TIP3    H121102   6.779   2.923   4.124
 7046TIP3    H221103   6.911   2.861   4.081
 7047TIP3   OH221104   2.007   2.451   3.684
 7047TIP3    H121105   2.085   2.408   3.720
 7047TIP3    H221106   2.042   2.518   3.626
 7048TIP3   OH221107   6.177   3.271   1.877
 7048TIP3    H121108   6.239   3.202   1.904
 7048TIP3    H221109   6.176   3.333   1.950
 7049TIP3   OH221110   6.760   2.865   5.232
 7049TIP3    H121111   6.703   2.940   5.251
 7049TIP3    H221112   6.848   2.903   5.228
 7050TIP3   OH221113   2.938   6.705   2.043
 7050TIP3    H121114   2.989   6.785   2.056
 7050TIP3    H221115   2.847   6.735   2.041
 7051TIP3   OH221116   4.544   3.118   4.874
 7051TIP3    H121117   4.508   3.057   4.939
 7051TIP3    H221118   4.470   3.173   4.849
 7052TIP3   OH221119   2.853   3.984   2.513
 7052TIP3    H121120   2.932   3.944   2.549
 7052TIP3    H221121   2.797   3.999   2.590
 7053TIP3   OH221122  -0.037   0.705   2.693
 7053TIP3    H121123  -0.060   0.789   2.653
 7053TIP3    H221124   0.059   0.702   2.689
 7054TIP3   OH221125   2.220   0.633   3.221
 7054TIP3    H121126   2.269   0.560   3.185
 7054TIP3    H221127   2.128   0.609   3.209
 7055TIP3   OH221128   1.577   2.975   0.644
 7055TIP3    H121129   1.668   2.984   0.672
 7055TIP3    H221130   1.552   3.063   0.615
 7056TIP3   OH221131   2.155   0.559   5.680
 7056TIP3    H121132   2.204   0.617   5.738
 7056TIP3    H221133   2.207   0.479   5.675
 7057TIP3   OH221134   1.181   6.510   4.139
 7057TIP3    H121135   1.147   6.421   4.143
 7057TIP3    H221136   1.235   6.512   4.060
 7058TIP3   OH221137   0.348   6.281   4.450
 7058TIP3    H121138   0.345   6.231   4.531
 7058TIP3    H221139   0.314   6.221   4.384
 7059TIP3   OH221140   0.437   0.666   0.701
 7059TIP3    H121141   0.422   0.747   0.750
 7059TIP3    H221142   0.425   0.691   0.609
 7060TIP3   OH221143   6.519   1.247   1.502
 7060TIP3    H121144   6.524   1.331   1.458
 7060TIP3    H221145   6.530   1.182   1.432
 7061TIP3   OH221146   0.448   6.029   3.489
 7061TIP3    H121147   0.388   6.104   3.493
 7061TIP3    H221148   0.519   6.058   3.431
 7062TIP3   OH221149   6.406   4.063   3.587
 7062TIP3    H121150   6.328   4.087   3.537
 7062TIP3    H221151   6.444   4.147   3.614
 7063TIP3   OH221152   4.002   2.544   3.583
 7063TIP3    H121153   4.014   2.465   3.530
 7063TIP3    H221154   3.979   2.512   3.670
 7064TIP3   OH221155   0.051   5.351   4.931
 7064TIP3    H121156   0.104   5.424   4.899
 7064TIP3    H221157   0.055   5.358   5.026
 7065TIP3   OH221158   4.670   0.877   4.270
 7065TIP3    H121159   4.717   0.809   4.319
 7065TIP3    H221160   4.711   0.959   4.298
 7066TIP3   OH221161   6.967   5.341   5.502
 7066TIP3    H121162   6.946   5.288   5.425
 7066TIP3    H221163   7.037   5.399   5.472
 7067TIP3   OH221164   5.191   4.741   0.365
 7067TIP3    H121165   5.267   4.796   0.384
 7067TIP3    H221166   5.211   4.698   0.282
 7068TIP3   OH221167   2.013   6.299   1.975
 7068TIP3    H121168   2.012   6.369   1.909
 7068TIP3    H221169   2.075   6.234   1.940
 7069TIP3   OH221170   0.635   5.181   3.880
 7069TIP3    H121171   0.698   5.211   3.945
 7069TIP3    H221172   0.555   5.162   3.930
 7070TIP3   OH221173   1.951   2.908   5.738
 7070TIP3    H121174   1.880   2.891   5.676
 7070TIP3    H221175   1.948   3.003   5.752
 7071TIP3   OH221176   6.445   6.169   3.616
 7071TIP3    H121177   6.399   6.212   3.545
 7071TIP3    H221178   6.459   6.237   3.682
 7072TIP3   OH221179   5.212   5.579   2.707
 7072TIP3    H121180   5.299   5.544   2.688
 7072TIP3    H221181   5.163   5.503   2.741
 7073TIP3   OH221182   5.306   5.453   2.070
 7073TIP3    H121183   5.326   5.506   2.147
 7073TIP3    H221184   5.362   5.376   2.080
 7074TIP3   OH221185   6.407   5.414   2.811
 7074TIP3    H121186   6.352   5.375   2.743
 7074TIP3    H221187   6.386   5.365   2.890
 7075TIP3   OH221188   7.140   4.397   0.932
 7075TIP3    H121189   7.058   4.349   0.922
 7075TIP3    H221190   7.115   4.489   0.931
 7076TIP3   OH221191   2.940   4.838   5.848
 7076TIP3    H121192   2.852   4.824   5.882
 7076TIP3    H221193   2.967   4.752   5.817
 7077TIP3   OH221194   2.618   5.366   2.609
 7077TIP3    H121195   2.559   5.300   2.572
 7077TIP3    H221196   2.560   5.436   2.639
 7078TIP3   OH221197   3.747   1.133   0.342
 7078TIP3    H121198   3.775   1.044   0.366
 7078TIP3    H221199   3.653   1.125   0.328
 7079TIP3   OH221200   5.403   6.581   4.196
 7079TIP3    H121201   5.326   6.593   4.140
 7079TIP3    H221202   5.386   6.499   4.243
 7080TIP3   OH221203   4.499   1.405   5.401
 7080TIP3    H121204   4.567   1.394   5.467
 7080TIP3    H221205   4.535   1.366   5.321
 7081TIP3   OH221206   2.202   1.859   2.755
 7081TIP3    H121207   2.270   1.829   2.816
 7081TIP3    H221208   2.150   1.921   2.806
 7082TIP3   OH221209   7.104   6.730   5.690
 7082TIP3    H121210   7.199   6.735   5.679
 7082TIP3    H221211   7.086   6.775   5.772
 7083TIP3   OH221212   2.669   2.384   0.514
 7083TIP3    H121213   2.640   2.320   0.450
 7083TIP3    H221214   2.642   2.349   0.598
 7084TIP3   OH221215   1.283   4.422   2.957
 7084TIP3    H121216   1.365   4.391   2.919
 7084TIP3    H221217   1.271   4.368   3.035
 7085TIP3   OH221218   4.251   5.416   3.703
 7085TIP3    H121219   4.340   5.408   3.739
 7085TIP3    H221220   4.202   5.347   3.746
 7086TIP3   OH221221   4.099   2.544   1.955
 7086TIP3    H121222   4.058   2.586   1.879
 7086TIP3    H221223   4.100   2.612   2.022
 7087TIP3   OH221224   2.116   4.543   2.052
 7087TIP3    H121225   2.140   4.632   2.028
 7087TIP3    H221226   2.070   4.551   2.135
 7088TIP3   OH221227   3.185   5.289   2.950
 7088TIP3    H121228   3.254   5.236   2.989
 7088TIP3    H221229   3.210   5.380   2.969
 7089TIP3   OH221230   0.554   0.959   2.687
 7089TIP3    H121231   0.584   0.886   2.742
 7089TIP3    H221232   0.515   1.021   2.749
 7090TIP3   OH221233   6.933   0.570   4.721
 7090TIP3    H121234   7.013   0.528   4.689
 7090TIP3    H221235   6.960   0.615   4.801
 7091TIP3   OH221236   0.905   3.455   2.855
 7091TIP3    H121237   0.852   3.532   2.835
 7091TIP3    H221238   0.914   3.457   2.951
 7092TIP3   OH221239   3.780   5.995   4.821
 7092TIP3    H121240   3.688   5.971   4.810
 7092TIP3    H221241   3.829   5.928   4.773
 7093TIP3   OH221242   3.475   4.442   4.179
 7093TIP3    H121243   3.413   4.435   4.107
 7093TIP3    H221244   3.480   4.536   4.197
 7094TIP3   OH221245   1.096   6.579   1.296
 7094TIP3    H121246   1.024   6.517   1.293
 7094TIP3    H221247   1.073   6.638   1.368
 7095TIP3   OH221248   5.137   0.267   5.741
 7095TIP3    H121249   5.161   0.359   5.745
 7095TIP3    H221250   5.077   0.255   5.815
 7096TIP3   OH221251   0.359   4.427   0.455
 7096TIP3    H121252   0.428   4.407   0.392
 7096TIP3    H221253   0.380   4.515   0.486
 7097TIP3   OH221254   4.352   5.664   2.272
 7097TIP3    H121255   4.378   5.650   2.181
 7097TIP3    H221256   4.274   5.609   2.283
 7098TIP3   OH221257   4.665   6.749   3.092
 7098TIP3    H121258   4.617   6.708   3.163
 7098TIP3    H221259   4.655   6.688   3.018
 7099TIP3   OH221260   0.098   0.589   4.687
 7099TIP3    H121261   0.116   0.538   4.608
 7099TIP3    H221262   0.172   0.570   4.745
 7100TIP3   OH221263   4.874   0.643   0.713
 7100TIP3    H121264   4.898   0.670   0.802
 7100TIP3    H221265   4.864   0.725   0.665
 7101TIP3   OH221266   6.389   3.373   3.499
 7101TIP3    H121267   6.355   3.376   3.409
 7101TIP3    H221268   6.380   3.281   3.524
 7102TIP3   OH221269   2.887   5.983   4.840
 7102TIP3    H121270   2.813   6.043   4.829
 7102TIP3    H221271   2.962   6.040   4.858
 7103TIP3   OH221272   4.021   5.247   0.939
 7103TIP3    H121273   4.052   5.211   1.022
 7103TIP3    H221274   3.955   5.184   0.909
 7104TIP3   OH221275   0.756   2.044   5.062
 7104TIP3    H121276   0.719   2.053   4.974
 7104TIP3    H221277   0.715   1.964   5.097
 7105TIP3   OH221278   6.901   3.369   1.358
 7105TIP3    H121279   6.971   3.389   1.420
 7105TIP3    H221280   6.936   3.297   1.305
 7106TIP3   OH221281   6.590   3.282   0.251
 7106TIP3    H121282   6.601   3.297   0.345
 7106TIP3    H221283   6.669   3.236   0.224
 7107TIP3   OH221284   3.725   5.392   4.355
 7107TIP3    H121285   3.781   5.451   4.306
 7107TIP3    H221286   3.680   5.448   4.418
 7108TIP3   OH221287   3.871   6.568   1.885
 7108TIP3    H121288   3.871   6.474   1.902
 7108TIP3    H221289   3.962   6.589   1.865
 7109TIP3   OH221290   0.932   1.191   2.970
 7109TIP3    H121291   0.930   1.095   2.975
 7109TIP3    H221292   0.842   1.216   2.950
 7110TIP3   OH221293   0.637   6.846   1.220
 7110TIP3    H121294   0.579   6.793   1.276
 7110TIP3    H221295   0.690   6.896   1.282
 7111TIP3   OH221296   6.458   2.347   0.217
 7111TIP3    H121297   6.512   2.271   0.197
 7111TIP3    H221298   6.521   2.417   0.234
 7112TIP3   OH221299   5.452   1.587   5.705
 7112TIP3    H121300   5.357   1.579   5.695
 7112TIP3    H221301   5.487   1.506   5.666
 7113TIP3   OH221302   0.841   6.314   2.717
 7113TIP3    H121303   0.769   6.370   2.746
 7113TIP3    H221304   0.878   6.360   2.641
 7114TIP3   OH221305   1.119   2.238   4.499
 7114TIP3    H121306   1.101   2.147   4.473
 7114TIP3    H221307   1.154   2.279   4.421
 7115TIP3   OH221308   2.142   2.423   3.114
 7115TIP3    H121309   2.080   2.357   3.148
 7115TIP3    H221310   2.124   2.501   3.167
 7116TIP3   OH221311   0.867   6.065   4.138
 7116TIP3    H121312   0.928   6.080   4.065
 7116TIP3    H221313   0.781   6.065   4.097
 7117TIP3   OH221314   2.243   4.301   2.716
 7117TIP3    H121315   2.238   4.205   2.708
 7117TIP3    H221316   2.292   4.329   2.638
 7118TIP3   OH221317   2.755   3.640   5.764
 7118TIP3    H121318   2.712   3.671   5.685
 7118TIP3    H221319   2.739   3.546   5.766
 7119TIP3   OH221320   0.541   5.605   1.687
 7119TIP3    H121321   0.625   5.587   1.644
 7119TIP3    H221322   0.477   5.605   1.616
 7120TIP3   OH221323   4.017   3.567   1.033
 7120TIP3    H121324   4.042   3.476   1.048
 7120TIP3    H221325   4.100   3.613   1.020
 7121TIP3   OH221326   0.648   6.706   4.139
 7121TIP3    H121327   0.613   6.757   4.212
 7121TIP3    H221328   0.743   6.713   4.148
 7122TIP3   OH221329   2.527   2.368   2.256
 7122TIP3    H121330   2.495   2.437   2.198
 7122TIP3    H221331   2.570   2.305   2.197
 7123TIP3   OH221332   5.014   6.624   0.958
 7123TIP3    H121333   5.007   6.647   1.050
 7123TIP3    H221334   4.969   6.541   0.949
 7124TIP3   OH221335   2.078   2.704   4.434
 7124TIP3    H121336   2.104   2.791   4.465
 7124TIP3    H221337   1.996   2.686   4.480
 7125TIP3   OH221338   2.393   2.520   5.656
 7125TIP3    H121339   2.395   2.503   5.562
 7125TIP3    H221340   2.332   2.593   5.666
 7126TIP3   OH221341   1.317   5.792   4.166
 7126TIP3    H121342   1.260   5.844   4.223
 7126TIP3    H221343   1.403   5.834   4.173
 7127TIP3   OH221344   4.683   5.625   5.834
 7127TIP3    H121345   4.628   5.702   5.850
 7127TIP3    H221346   4.754   5.632   5.898
 7128TIP3   OH221347   2.684   1.871   2.930
 7128TIP3    H121348   2.670   1.960   2.900
 7128TIP3    H221349   2.662   1.873   3.023
 7129TIP3   OH221350   2.997   0.431   4.930
 7129TIP3    H121351   2.994   0.359   4.867
 7129TIP3    H221352   2.905   0.452   4.948
 7130TIP3   OH221353   5.736   6.613   4.349
 7130TIP3    H121354   5.711   6.616   4.441
 7130TIP3    H221355   5.654   6.626   4.301
 7131TIP3   OH221356   1.909   4.456   4.314
 7131TIP3    H121357   1.832   4.512   4.306
 7131TIP3    H221358   1.943   4.449   4.225
 7132TIP3   OH221359   1.690   4.121   2.176
 7132TIP3    H121360   1.744   4.059   2.128
 7132TIP3    H221361   1.740   4.203   2.175
 7133TIP3   OH221362   6.586   2.252   4.415
 7133TIP3    H121363   6.662   2.288   4.370
 7133TIP3    H221364   6.621   2.216   4.496
 7134TIP3   OH221365   4.699   3.277   4.378
 7134TIP3    H121366   4.642   3.336   4.428
 7134TIP3    H221367   4.723   3.328   4.301
 7135TIP3   OH221368   4.622   2.797   0.575
 7135TIP3    H121369   4.571   2.781   0.496
 7135TIP3    H221370   4.652   2.888   0.566
 7136TIP3   OH221371   4.150   6.446   3.337
 7136TIP3    H121372   4.132   6.540   3.343
 7136TIP3    H221373   4.155   6.417   3.428
 7137TIP3   OH221374   0.464   6.738   5.686
 7137TIP3    H121375   0.466   6.644   5.703
 7137TIP3    H221376   0.544   6.771   5.727
 7138TIP3   OH221377   5.100   5.075   3.228
 7138TIP3    H121378   5.011   5.062   3.259
 7138TIP3    H221379   5.119   5.167   3.246
 7139TIP3   OH221380   6.421   6.569   2.993
 7139TIP3    H121381   6.377   6.556   3.077
 7139TIP3    H221382   6.359   6.538   2.927
 7140TIP3   OH221383   0.370   2.255   3.917
 7140TIP3    H121384   0.368   2.335   3.969
 7140TIP3    H221385   0.294   2.263   3.859
 7141TIP3   OH221386   6.163   3.740   4.689
 7141TIP3    H121387   6.258   3.741   4.681
 7141TIP3    H221388   6.147   3.710   4.778
 7142TIP3   OH221389   1.332   6.232   1.526
 7142TIP3    H121390   1.367   6.298   1.585
 7142TIP3    H221391   1.410   6.184   1.495
 7143TIP3   OH221392   1.182   3.396   0.689
 7143TIP3    H121393   1.125   3.326   0.720
 7143TIP3    H221394   1.265   3.352   0.668
 7144TIP3   OH221395   4.907   4.867   0.779
 7144TIP3    H121396   4.909   4.771   0.772
 7144TIP3    H221397   4.940   4.885   0.867
 7145TIP3   OH221398   5.452   2.953   1.177
 7145TIP3    H121399   5.508   3.030   1.166
 7145TIP3    H221400   5.392   2.977   1.247
 7146TIP3   OH221401   4.994   4.261   0.772
 7146TIP3    H121402   5.060   4.193   0.756
 7146TIP3    H221403   5.015   4.294   0.859
 7147TIP3   OH221404   1.913   3.156   2.419
 7147TIP3    H121405   1.867   3.225   2.371
 7147TIP3    H221406   1.854   3.134   2.491
 7148TIP3   OH221407   1.447   4.027   5.368
 7148TIP3    H121408   1.471   3.937   5.350
 7148TIP3    H221409   1.362   4.038   5.325
 7149TIP3   OH221410   4.752   2.991   5.361
 7149TIP3    H121411   4.764   3.079   5.395
 7149TIP3    H221412   4.758   2.934   5.437
 7150TIP3   OH221413   0.410   3.481   4.127
 7150TIP3    H121414   0.357   3.524   4.194
 7150TIP3    H221415   0.495   3.525   4.132
 7151TIP3   OH221416   4.493   6.392   4.271
 7151TIP3    H121417   4.425   6.455   4.295
 7151TIP3    H221418   4.535   6.370   4.354
 7152TIP3   OH221419   0.079   5.938   4.474
 7152TIP3    H121420   0.010   6.001   4.497
 7152TIP3    H221421   0.057   5.910   4.385
 7153TIP3   OH221422   2.730   6.624   2.493
 7153TIP3    H121423   2.709   6.547   2.547
 7153TIP3    H221424   2.661   6.627   2.428
 7154TIP3   OH221425   6.296   3.601   2.945
 7154TIP3    H121426   6.234   3.554   3.001
 7154TIP3    H221427   6.380   3.559   2.960
 7155TIP3   OH221428   0.650   0.567   2.820
 7155TIP3    H121429   0.640   0.498   2.755
 7155TIP3    H221430   0.686   0.641   2.772
 7156TIP3   OH221431   3.046   4.432   1.428
 7156TIP3    H121432   3.121   4.470   1.473
 7156TIP3    H221433   2.973   4.490   1.450
 7157TIP3   OH221434   3.570   1.359   5.597
 7157TIP3    H121435   3.534   1.275   5.569
 7157TIP3    H221436   3.493   1.412   5.619
 7158TIP3   OH221437   7.001   5.572   2.404
 7158TIP3    H121438   7.066   5.504   2.414
 7158TIP3    H221439   6.968   5.562   2.315
 7159TIP3   OH221440   4.264   4.713   3.730
 7159TIP3    H121441   4.278   4.652   3.657
 7159TIP3    H221442   4.333   4.692   3.792
 7160TIP3   OH221443   2.518   1.774   4.325
 7160TIP3    H121444   2.484   1.856   4.287
 7160TIP3    H221445   2.483   1.773   4.414
 7161TIP3   OH221446   4.828   4.603   0.823
 7161TIP3    H121447   4.813   4.570   0.912
 7161TIP3    H221448   4.799   4.531   0.766
 7162TIP3   OH221449   2.433   1.620   3.092
 7162TIP3    H121450   2.380   1.571   3.028
 7162TIP3    H221451   2.428   1.711   3.062
 7163TIP3   OH221452   6.643   6.285   4.248
 7163TIP3    H121453   6.580   6.238   4.193
 7163TIP3    H221454   6.696   6.336   4.186
 7164TIP3   OH221455   4.270   1.943   4.540
 7164TIP3    H121456   4.335   1.920   4.473
 7164TIP3    H221457   4.311   2.014   4.589
 7165TIP3   OH221458   3.311   2.436   2.418
 7165TIP3    H121459   3.238   2.375   2.424
 7165TIP3    H221460   3.383   2.392   2.464
 7166TIP3   OH221461   3.015   2.920   5.542
 7166TIP3    H121462   2.994   2.989   5.605
 7166TIP3    H221463   3.098   2.884   5.572
 7167TIP3   OH221464   1.146   2.595   2.166
 7167TIP3    H121465   1.197   2.538   2.223
 7167TIP3    H221466   1.138   2.678   2.215
 7168TIP3   OH221467   2.795   1.333   4.131
 7168TIP3    H121468   2.742   1.259   4.101
 7168TIP3    H221469   2.743   1.371   4.203
 7169TIP3   OH221470   0.302   0.463   3.781
 7169TIP3    H121471   0.348   0.382   3.759
 7169TIP3    H221472   0.285   0.456   3.875
 7170TIP3   OH221473   1.898   0.664   0.981
 7170TIP3    H121474   1.923   0.620   1.062
 7170TIP3    H221475   1.807   0.691   0.996
 7171TIP3   OH221476   6.747   2.963   2.815
 7171TIP3    H121477   6.810   3.023   2.775
 7171TIP3    H221478   6.665   3.014   2.819
 7172TIP3   OH221479   5.348   0.025   4.107
 7172TIP3    H121480   5.393   0.099   4.148
 7172TIP3    H221481   5.370   0.033   4.014
 7173TIP3   OH221482   1.708   0.342   1.648
 7173TIP3    H121483   1.628   0.295   1.625
 7173TIP3    H221484   1.761   0.338   1.568
 7174TIP3   OH221485   7.090   3.163   4.407
 7174TIP3    H121486   7.008   3.180   4.453
 7174TIP3    H221487   7.072   3.189   4.317
 7175TIP3   OH221488   1.206   0.753   1.166
 7175TIP3    H121489   1.229   0.759   1.259
 7175TIP3    H221490   1.198   0.844   1.137
 7176TIP3   OH221491   1.145   3.468   2.734
 7176TIP3    H121492   1.054   3.459   2.764
 7176TIP3    H221493   1.137   3.500   2.644
 7177TIP3   OH221494   1.345   4.918   1.634
 7177TIP3    H121495   1.322   4.852   1.699
 7177TIP3    H221496   1.353   4.870   1.552
 7178TIP3   OH221497   5.906   1.480   3.098
 7178TIP3    H121498   5.965   1.430   3.041
 7178TIP3    H221499   5.851   1.413   3.139
 7179TIP3   OH221500   6.964   3.507   3.237
 7179TIP3    H121501   7.031   3.560   3.280
 7179TIP3    H221502   6.881   3.551   3.259
 7180TIP3   OH221503   6.030   5.769   1.219
 7180TIP3    H121504   5.991   5.848   1.258
 7180TIP3    H221505   5.978   5.753   1.140
 7181TIP3   OH221506   0.874   6.382   5.083
 7181TIP3    H121507   0.844   6.427   5.004
 7181TIP3    H221508   0.876   6.290   5.058
 7182TIP3   OH221509   1.289   4.414   4.517
 7182TIP3    H121510   1.282   4.461   4.434
 7182TIP3    H221511   1.243   4.331   4.502
 7183TIP3   OH221512   5.511   1.948   3.054
 7183TIP3    H121513   5.535   1.916   3.141
 7183TIP3    H221514   5.533   2.042   3.056
 7184TIP3   OH221515   5.533   6.496   3.889
 7184TIP3    H121516   5.568   6.442   3.960
 7184TIP3    H221517   5.538   6.586   3.923
 7185TIP3   OH221518   3.778   0.659   3.854
 7185TIP3    H121519   3.741   0.638   3.768
 7185TIP3    H221520   3.872   0.667   3.839
 7186TIP3   OH221521   2.690   6.164   4.188
 7186TIP3    H121522   2.598   6.187   4.176
 7186TIP3    H221523   2.691   6.110   4.267
 7187TIP3   OH221524   0.350   5.186   4.702
 7187TIP3    H121525   0.335   5.191   4.797
 7187TIP3    H221526   0.284   5.125   4.670
 7188TIP3   OH221527   2.853   3.113   5.217
 7188TIP3    H121528   2.928   3.141   5.271
 7188TIP3    H221529   2.869   3.154   5.132
 7189TIP3   OH221530   2.578   5.404   3.312
 7189TIP3    H121531   2.673   5.394   3.304
 7189TIP3    H221532   2.562   5.403   3.406
 7190TIP3   OH221533   0.291   5.819   3.595
 7190TIP3    H121534   0.236   5.866   3.658
 7190TIP3    H221535   0.345   5.888   3.554
 7191TIP3   OH221536   0.779   3.637   4.673
 7191TIP3    H121537   0.805   3.722   4.709
 7191TIP3    H221538   0.857   3.583   4.681
 7192TIP3   OH221539   4.741   1.866   0.966
 7192TIP3    H121540   4.671   1.806   0.942
 7192TIP3    H221541   4.770   1.836   1.052
 7193TIP3   OH221542   7.093   5.204   0.262
 7193TIP3    H121543   7.016   5.240   0.217
 7193TIP3    H221544   7.162   5.269   0.245
 7194TIP3   OH221545   2.291   0.929   3.174
 7194TIP3    H121546   2.255   0.841   3.183
 7194TIP3    H221547   2.384   0.919   3.196
 7195TIP3   OH221548   7.010   2.922   5.697
 7195TIP3    H121549   6.948   2.938   5.768
 7195TIP3    H221550   7.058   3.004   5.689
 7196TIP3   OH221551   5.322   0.809   2.744
 7196TIP3    H121552   5.243   0.760   2.726
 7196TIP3    H221553   5.292   0.899   2.757
 7197TIP3   OH221554   4.739   5.078   0.739
 7197TIP3    H121555   4.815   5.019   0.745
 7197TIP3    H221556   4.758   5.134   0.664
 7198TIP3   OH221557   2.046   4.529   0.446
 7198TIP3    H121558   2.017   4.566   0.363
 7198TIP3    H221559   2.001   4.582   0.512
 7199TIP3   OH221560   5.497   1.260   3.485
 7199TIP3    H121561   5.401   1.266   3.492
 7199TIP3    H221562   5.513   1.176   3.443
 7200TIP3   OH221563   0.781   4.765   4.943
 7200TIP3    H121564   0.709   4.790   4.885
 7200TIP3    H221565   0.843   4.719   4.886
 7201TIP3   OH221566   0.335   4.401   5.612
 7201TIP3    H121567   0.358   4.322   5.661
 7201TIP3    H221568   0.329   4.470   5.677
 7202TIP3   OH221569   5.102   3.357   2.004
 7202TIP3    H121570   5.079   3.381   2.094
 7202TIP3    H221571   5.034   3.296   1.976
 7203TIP3   OH221572   0.979   4.728   1.835
 7203TIP3    H121573   1.024   4.812   1.845
 7203TIP3    H221574   0.936   4.735   1.750
 7204TIP3   OH221575   6.144   2.368   1.735
 7204TIP3    H121576   6.169   2.307   1.804
 7204TIP3    H221577   6.116   2.313   1.662
 7205TIP3   OH221578   3.485   1.890   5.578
 7205TIP3    H121579   3.404   1.839   5.580
 7205TIP3    H221580   3.478   1.942   5.498
 7206TIP3   OH221581   1.825   2.261   2.503
 7206TIP3    H121582   1.917   2.237   2.489
 7206TIP3    H221583   1.789   2.270   2.415
 7207TIP3   OH221584   4.059   0.533   5.203
 7207TIP3    H121585   4.017   0.460   5.157
 7207TIP3    H221586   4.117   0.572   5.138
 7208TIP3   OH221587   3.339   1.007   2.196
 7208TIP3    H121588   3.296   0.951   2.261
 7208TIP3    H221589   3.277   1.009   2.123
 7209TIP3   OH221590   3.132   5.475   3.234
 7209TIP3    H121591   3.171   5.397   3.274
 7209TIP3    H221592   3.187   5.492   3.158
 7210TIP3   OH221593   6.849   0.765   0.609
 7210TIP3    H121594   6.823   0.843   0.560
 7210TIP3    H221595   6.772   0.708   0.604
 7211TIP3   OH221596   0.868   2.196   3.556
 7211TIP3    H121597   0.946   2.204   3.612
 7211TIP3    H221598   0.833   2.110   3.577
 7212TIP3   OH221599   2.286   0.269   3.967
 7212TIP3    H121600   2.262   0.306   3.882
 7212TIP3    H221601   2.372   0.307   3.985
 7213TIP3   OH221602   6.238   2.985   1.107
 7213TIP3    H121603   6.278   2.975   1.194
 7213TIP3    H221604   6.163   3.043   1.122
 7214TIP3   OH221605   6.480   6.845   0.745
 7214TIP3    H121606   6.462   6.751   0.750
 7214TIP3    H221607   6.490   6.872   0.836
 7215TIP3   OH221608   1.670   2.095   2.128
 7215TIP3    H121609   1.673   2.019   2.071
 7215TIP3    H221610   1.588   2.139   2.106
 7216TIP3   OH221611   5.426   2.115   1.214
 7216TIP3    H121612   5.456   2.031   1.250
 7216TIP3    H221613   5.371   2.092   1.140
 7217TIP3   OH221614   0.640   6.761   4.412
 7217TIP3    H121615   0.606   6.672   4.418
 7217TIP3    H221616   0.734   6.753   4.429
 7218TIP3   OH221617   2.810   5.715   1.031
 7218TIP3    H121618   2.734   5.691   0.977
 7218TIP3    H221619   2.880   5.658   1.000
 7219TIP3   OH221620   1.986   6.747   1.047
 7219TIP3    H121621   1.901   6.706   1.064
 7219TIP3    H221622   1.967   6.840   1.037
 7220TIP3   OH221623   4.462   5.272   0.568
 7220TIP3    H121624   4.414   5.333   0.624
 7220TIP3    H221625   4.539   5.249   0.620
 7221TIP3   OH221626   1.691   5.478   5.409
 7221TIP3    H121627   1.689   5.443   5.320
 7221TIP3    H221628   1.672   5.403   5.465
 7222TIP3   OH221629   1.761   3.864   3.856
 7222TIP3    H121630   1.713   3.781   3.861
 7222TIP3    H221631   1.716   3.913   3.787
 7223TIP3   OH221632   3.991   3.267   3.988
 7223TIP3    H121633   4.082   3.274   4.014
 7223TIP3    H221634   3.982   3.325   3.912
 7224TIP3   OH221635   1.435   4.030   5.684
 7224TIP3    H121636   1.508   4.084   5.715
 7224TIP3    H221637   1.395   4.082   5.615
 7225TIP3   OH221638   3.781   0.621   5.025
 7225TIP3    H121639   3.765   0.635   4.932
 7225TIP3    H221640   3.802   0.528   5.032
 7226TIP3   OH221641   0.606   3.083   1.695
 7226TIP3    H121642   0.683   3.116   1.742
 7226TIP3    H221643   0.624   2.991   1.680
 7227TIP3   OH221644   4.296   3.985   3.034
 7227TIP3    H121645   4.234   4.048   2.999
 7227TIP3    H221646   4.305   4.008   3.126
 7228TIP3   OH221647   5.558   1.436   5.002
 7228TIP3    H121648   5.516   1.521   5.016
 7228TIP3    H221649   5.485   1.377   4.982
 7229TIP3   OH221650   2.117   4.647   4.229
 7229TIP3    H121651   2.037   4.604   4.258
 7229TIP3    H221652   2.176   4.642   4.304
 7230TIP3   OH221653   1.148   5.971   4.666
 7230TIP3    H121654   1.160   5.897   4.606
 7230TIP3    H221655   1.182   5.940   4.750
 7231TIP3   OH221656   5.368   6.081   0.588
 7231TIP3    H121657   5.351   5.992   0.618
 7231TIP3    H221658   5.351   6.079   0.494
 7232TIP3   OH221659   1.624   4.754   3.560
 7232TIP3    H121660   1.593   4.840   3.531
 7232TIP3    H221661   1.562   4.692   3.522
 7233TIP3   OH221662   5.630   5.530   2.054
 7233TIP3    H121663   5.629   5.625   2.048
 7233TIP3    H221664   5.704   5.503   1.999
 7234TIP3   OH221665   0.609   1.195   4.948
 7234TIP3    H121666   0.694   1.167   4.982
 7234TIP3    H221667   0.629   1.241   4.867
 7235TIP3   OH221668   6.432   3.695   4.389
 7235TIP3    H121669   6.470   3.702   4.477
 7235TIP3    H221670   6.346   3.735   4.396
 7236TIP3   OH221671   1.286   3.247   1.834
 7236TIP3    H121672   1.260   3.334   1.864
 7236TIP3    H221673   1.368   3.228   1.879
 7237TIP3   OH221674   0.255   0.878   3.401
 7237TIP3    H121675   0.229   0.881   3.493
 7237TIP3    H221676   0.348   0.903   3.401
 7238TIP3   OH221677   1.819   0.187   0.568
 7238TIP3    H121678   1.783   0.129   0.635
 7238TIP3    H221679   1.861   0.257   0.618
 7239TIP3   OH221680   5.347   0.978   4.924
 7239TIP3    H121681   5.363   0.888   4.952
 7239TIP3    H221682   5.408   0.993   4.852
 7240TIP3   OH221683   6.787   3.370   0.438
 7240TIP3    H121684   6.819   3.281   0.450
 7240TIP3    H221685   6.859   3.426   0.466
 7241TIP3   OH221686   5.790   3.008   3.628
 7241TIP3    H121687   5.878   2.987   3.596
 7241TIP3    H221688   5.785   3.103   3.621
 7242TIP3   OH221689   2.887   2.848   5.306
 7242TIP3    H121690   2.871   2.932   5.263
 7242TIP3    H221691   2.916   2.871   5.395
 7243TIP3   OH221692   2.118   6.045   4.204
 7243TIP3    H121693   2.194   6.102   4.189
 7243TIP3    H221694   2.091   6.064   4.294
 7244TIP3   OH221695   3.146   3.887   5.522
 7244TIP3    H121696   3.179   3.972   5.491
 7244TIP3    H221697   3.157   3.829   5.447
 7245TIP3   OH221698   5.021   5.635   0.168
 7245TIP3    H121699   4.947   5.648   0.109
 7245TIP3    H221700   5.007   5.698   0.239
 7246TIP3   OH221701   7.051   0.914   3.073
 7246TIP3    H121702   7.003   0.977   3.020
 7246TIP3    H221703   7.024   0.931   3.163
 7247TIP3   OH221704   2.479   4.314   1.477
 7247TIP3    H121705   2.564   4.328   1.520
 7247TIP3    H221706   2.499   4.254   1.405
 7248TIP3   OH221707   0.471   6.521   4.296
 7248TIP3    H121708   0.517   6.484   4.221
 7248TIP3    H221709   0.405   6.456   4.319
 7249TIP3   OH221710   4.473   6.490   1.565
 7249TIP3    H121711   4.446   6.402   1.536
 7249TIP3    H221712   4.464   6.545   1.487
 7250TIP3   OH221713   7.054   0.034   0.176
 7250TIP3    H121714   6.979  -0.021   0.200
 7250TIP3    H221715   7.017   0.121   0.165
 7251TIP3   OH221716   3.480   3.857   3.741
 7251TIP3    H121717   3.411   3.819   3.686
 7251TIP3    H221718   3.432   3.902   3.811
 7252TIP3   OH221719   5.519   3.397   4.310
 7252TIP3    H121720   5.519   3.459   4.238
 7252TIP3    H221721   5.448   3.337   4.290
 7253TIP3   OH221722   7.129   4.871   5.298
 7253TIP3    H121723   7.068   4.849   5.369
 7253TIP3    H221724   7.157   4.961   5.317
 7254TIP3   OH221725   7.183   3.145   5.329
 7254TIP3    H121726   7.098   3.166   5.367
 7254TIP3    H221727   7.187   3.198   5.250
 7255TIP3   OH221728   3.135   4.042   0.567
 7255TIP3    H121729   3.074   3.974   0.593
 7255TIP3    H221730   3.116   4.058   0.474
 7256TIP3   OH221731   5.024   0.641   5.532
 7256TIP3    H121732   5.080   0.603   5.464
 7256TIP3    H221733   5.079   0.640   5.611
 7257TIP3   OH221734   6.697   5.589   5.349
 7257TIP3    H121735   6.721   5.553   5.263
 7257TIP3    H221736   6.616   5.544   5.372
 7258TIP3   OH221737   5.348   6.438   5.167
 7258TIP3    H121738   5.421   6.447   5.228
 7258TIP3    H221739   5.300   6.520   5.173
 7259TIP3   OH221740   0.708   4.356   5.496
 7259TIP3    H121741   0.797   4.322   5.505
 7259TIP3    H221742   0.652   4.282   5.516
 7260TIP3   OH221743  -0.038   5.334   0.617
 7260TIP3    H121744   0.010   5.256   0.644
 7260TIP3    H221745   0.030   5.397   0.594
 7261TIP3   OH221746   4.438   4.035   2.069
 7261TIP3    H121747   4.436   4.113   2.015
 7261TIP3    H221748   4.368   3.980   2.035
 7262TIP3   OH221749   3.215   2.009   5.220
 7262TIP3    H121750   3.231   2.032   5.129
 7262TIP3    H221751   3.170   1.925   5.215
 7263TIP3   OH221752   5.632   1.085   5.509
 7263TIP3    H121753   5.628   0.998   5.548
 7263TIP3    H221754   5.722   1.093   5.477
 7264TIP3   OH221755   0.160   2.703   1.732
 7264TIP3    H121756   0.128   2.614   1.720
 7264TIP3    H221757   0.145   2.722   1.825
 7265TIP3   OH221758   3.014   2.708   4.170
 7265TIP3    H121759   3.070   2.720   4.247
 7265TIP3    H221760   2.972   2.793   4.157
 7266TIP3   OH221761   4.946   0.608   4.171
 7266TIP3    H121762   4.876   0.589   4.108
 7266TIP3    H221763   5.021   0.558   4.140
 7267TIP3   OH221764   5.486   6.366   2.859
 7267TIP3    H121765   5.466   6.389   2.950
 7267TIP3    H221766   5.469   6.272   2.854
 7268TIP3   OH221767   6.991   2.258   5.326
 7268TIP3    H121768   7.083   2.269   5.351
 7268TIP3    H221769   6.975   2.329   5.264
 7269TIP3   OH221770   1.671   2.688   1.195
 7269TIP3    H121771   1.755   2.680   1.240
 7269TIP3    H221772   1.606   2.679   1.264
 7270TIP3   OH221773   1.060   6.488   5.786
 7270TIP3    H121774   1.010   6.568   5.801
 7270TIP3    H221775   1.147   6.506   5.822
 7271TIP3   OH221776   4.276   2.460   1.033
 7271TIP3    H121777   4.263   2.527   0.966
 7271TIP3    H221778   4.204   2.399   1.020
 7272TIP3   OH221779   3.676   4.963   1.303
 7272TIP3    H121780   3.769   4.943   1.290
 7272TIP3    H221781   3.648   4.901   1.370
 7273TIP3   OH221782   4.462   0.777   0.698
 7273TIP3    H121783   4.525   0.705   0.690
 7273TIP3    H221784   4.459   0.796   0.792
 7274TIP3   OH221785   5.124   6.813   1.594
 7274TIP3    H121786   5.145   6.737   1.648
 7274TIP3    H221787   5.083   6.875   1.655
 7275TIP3   OH221788   0.971   0.485   3.774
 7275TIP3    H121789   0.957   0.565   3.724
 7275TIP3    H221790   1.019   0.514   3.852
 7276TIP3   OH221791   4.203   1.768   2.726
 7276TIP3    H121792   4.172   1.681   2.751
 7276TIP3    H221793   4.211   1.815   2.809
 7277TIP3   OH221794   0.739   4.533   0.845
 7277TIP3    H121795   0.760   4.626   0.836
 7277TIP3    H221796   0.710   4.523   0.935
 7278TIP3   OH221797   5.600   4.594   0.571
 7278TIP3    H121798   5.642   4.651   0.506
 7278TIP3    H221799   5.670   4.535   0.600
 7279TIP3   OH221800   4.654   1.598   4.112
 7279TIP3    H121801   4.677   1.516   4.069
 7279TIP3    H221802   4.712   1.604   4.187
 7280TIP3   OH221803   7.039   5.776   5.586
 7280TIP3    H121804   7.077   5.838   5.524
 7280TIP3    H221805   7.051   5.818   5.671
 7281TIP3   OH221806   0.153   4.974   2.354
 7281TIP3    H121807   0.073   4.977   2.405
 7281TIP3    H221808   0.223   4.980   2.419
 7282TIP3   OH221809   4.656   2.583   4.284
 7282TIP3    H121810   4.688   2.526   4.214
 7282TIP3    H221811   4.714   2.660   4.280
 7283TIP3   OH221812   5.430   2.344   3.405
 7283TIP3    H121813   5.394   2.256   3.403
 7283TIP3    H221814   5.412   2.380   3.318
 7284TIP3   OH221815   1.741   6.411   0.270
 7284TIP3    H121816   1.800   6.337   0.275
 7284TIP3    H221817   1.715   6.426   0.361
 7285TIP3   OH221818   6.868   5.126   1.993
 7285TIP3    H121819   6.854   5.210   1.948
 7285TIP3    H221820   6.797   5.122   2.058
 7286TIP3   OH221821   3.980   0.541   0.510
 7286TIP3    H121822   4.067   0.503   0.524
 7286TIP3    H221823   3.985   0.581   0.423
 7287TIP3   OH221824   1.132   0.132   3.882
 7287TIP3    H121825   1.158   0.209   3.831
 7287TIP3    H221826   1.071   0.166   3.948
 7288TIP3   OH221827   0.434   0.798   2.473
 7288TIP3    H121828   0.453   0.839   2.557
 7288TIP3    H221829   0.341   0.817   2.458
 7289TIP3   OH221830   4.258   0.775   5.316
 7289TIP3    H121831   4.350   0.773   5.340
 7289TIP3    H221832   4.223   0.852   5.362
 7290TIP3   OH221833   3.505   4.609   2.427
 7290TIP3    H121834   3.601   4.601   2.431
 7290TIP3    H221835   3.486   4.694   2.466
 7291TIP3   OH221836   7.021   3.951   3.280
 7291TIP3    H121837   7.072   3.871   3.269
 7291TIP3    H221838   7.073   4.005   3.340
 7292TIP3   OH221839   2.073   5.852   2.874
 7292TIP3    H121840   2.151   5.807   2.905
 7292TIP3    H221841   2.002   5.815   2.926
 7293TIP3   OH221842   3.775   4.927   0.556
 7293TIP3    H121843   3.688   4.965   0.566
 7293TIP3    H221844   3.818   4.982   0.492
 7294TIP3   OH221845   4.909   0.667   3.810
 7294TIP3    H121846   4.871   0.716   3.737
 7294TIP3    H221847   4.918   0.578   3.777
 7295TIP3   OH221848   0.042   1.715   5.206
 7295TIP3    H121849   0.024   1.686   5.116
 7295TIP3    H221850  -0.035   1.767   5.230
 7296TIP3   OH221851   6.595   0.066   1.090
 7296TIP3    H121852   6.559   0.144   1.048
 7296TIP3    H221853   6.550   0.061   1.174
 7297TIP3   OH221854   2.175   5.331   0.361
 7297TIP3    H121855   2.098   5.276   0.344
 7297TIP3    H221856   2.143   5.421   0.351
 7298TIP3   OH221857   1.116   5.319   0.823
 7298TIP3    H121858   1.117   5.268   0.904
 7298TIP3    H221859   1.108   5.410   0.851
 7299TIP3   OH221860   2.878   2.330   0.128
 7299TIP3    H121861   2.788   2.349   0.153
 7299TIP3    H221862   2.926   2.411   0.146
 7300TIP3   OH221863   5.963   5.607   4.512
 7300TIP3    H121864   6.053   5.633   4.493
 7300TIP3    H221865   5.909   5.679   4.479
 7301TIP3   OH221866   4.992   0.136   1.416
 7301TIP3    H121867   4.957   0.214   1.459
 7301TIP3    H221868   4.919   0.074   1.417
 7302TIP3   OH221869   5.015   1.628   5.790
 7302TIP3    H121870   4.951   1.697   5.807
 7302TIP3    H221871   4.980   1.551   5.834
 7303TIP3   OH221872   6.326   6.477   0.494
 7303TIP3    H121873   6.421   6.484   0.482
 7303TIP3    H221874   6.315   6.463   0.588
 7304TIP3   OH221875   0.066   2.743   2.387
 7304TIP3    H121876   0.025   2.720   2.470
 7304TIP3    H221877   0.112   2.825   2.404
 7305TIP3   OH221878   4.238   3.124   5.795
 7305TIP3    H121879   4.167   3.113   5.732
 7305TIP3    H221880   4.258   3.035   5.824
 7306TIP3   OH221881   5.516   2.705   2.790
 7306TIP3    H121882   5.468   2.692   2.708
 7306TIP3    H221883   5.607   2.685   2.768
 7307TIP3   OH221884   4.862   4.185   1.089
 7307TIP3    H121885   4.950   4.169   1.122
 7307TIP3    H221886   4.858   4.137   1.006
 7308TIP3   OH221887   5.477   1.368   1.448
 7308TIP3    H121888   5.512   1.393   1.534
 7308TIP3    H221889   5.537   1.301   1.416
 7309TIP3   OH221890   3.646   4.987   5.250
 7309TIP3    H121891   3.724   4.996   5.305
 7309TIP3    H221892   3.647   5.065   5.195
 7310TIP3   OH221893   1.973   3.261   0.113
 7310TIP3    H121894   2.022   3.184   0.143
 7310TIP3    H221895   1.998   3.271   0.021
 7311TIP3   OH221896   1.226   6.191   0.020
 7311TIP3    H121897   1.137   6.217   0.044
 7311TIP3    H221898   1.243   6.112   0.072
 7312TIP3   OH221899   0.517   1.638   3.363
 7312TIP3    H121900   0.505   1.578   3.289
 7312TIP3    H221901   0.455   1.709   3.347
 7313TIP3   OH221902   1.303   2.356   4.335
 7313TIP3    H121903   1.345   2.358   4.249
 7313TIP3    H221904   1.376   2.361   4.397
 7314TIP3   OH221905   3.528   1.602   0.694
 7314TIP3    H121906   3.491   1.668   0.636
 7314TIP3    H221907   3.455   1.543   0.712
 7315TIP3   OH221908   2.091   0.424   3.699
 7315TIP3    H121909   2.139   0.396   3.621
 7315TIP3    H221910   2.001   0.433   3.670
 7316TIP3   OH221911   0.416   1.818   0.700
 7316TIP3    H121912   0.422   1.849   0.610
 7316TIP3    H221913   0.472   1.741   0.703
 7317TIP3   OH221914   1.959   1.085   0.923
 7317TIP3    H121915   1.948   1.172   0.884
 7317TIP3    H221916   2.029   1.045   0.871
 7318TIP3   OH221917   1.708   0.458   5.354
 7318TIP3    H121918   1.752   0.528   5.402
 7318TIP3    H221919   1.697   0.492   5.265
 7319TIP3   OH221920   5.034   3.970   3.455
 7319TIP3    H121921   5.114   4.023   3.451
 7319TIP3    H221922   5.012   3.952   3.364
 7320TIP3   OH221923   5.865   1.218   3.831
 7320TIP3    H121924   5.805   1.284   3.797
 7320TIP3    H221925   5.810   1.142   3.849
 7321TIP3   OH221926   3.353   2.446   1.760
 7321TIP3    H121927   3.425   2.430   1.821
 7321TIP3    H221928   3.276   2.410   1.804
 7322TIP3   OH221929   4.592   1.895   4.833
 7322TIP3    H121930   4.578   1.830   4.902
 7322TIP3    H221931   4.524   1.877   4.769
 7323TIP3   OH221932   5.419   2.183   5.299
 7323TIP3    H121933   5.457   2.107   5.342
 7323TIP3    H221934   5.488   2.250   5.301
 7324TIP3   OH221935   6.166   2.503   2.224
 7324TIP3    H121936   6.179   2.588   2.265
 7324TIP3    H221937   6.072   2.499   2.205
 7325TIP3   OH221938   6.794   3.806   0.617
 7325TIP3    H121939   6.785   3.886   0.670
 7325TIP3    H221940   6.789   3.735   0.680
 7326TIP3   OH221941   2.316   1.835   3.376
 7326TIP3    H121942   2.253   1.764   3.384
 7326TIP3    H221943   2.290   1.898   3.443
 7327TIP3   OH221944   3.225   5.281   0.293
 7327TIP3    H121945   3.234   5.375   0.283
 7327TIP3    H221946   3.143   5.260   0.248
 7328TIP3   OH221947   1.742   3.630   4.913
 7328TIP3    H121948   1.754   3.719   4.878
 7328TIP3    H221949   1.831   3.593   4.915
 7329TIP3   OH221950   1.819   1.485   2.368
 7329TIP3    H121951   1.907   1.446   2.371
 7329TIP3    H221952   1.770   1.438   2.435
 7330TIP3   OH221953   0.950   2.881   0.912
 7330TIP3    H121954   1.036   2.919   0.900
 7330TIP3    H221955   0.966   2.797   0.955
 7331TIP3   OH221956   7.204   1.045   3.775
 7331TIP3    H121957   7.207   0.953   3.799
 7331TIP3    H221958   7.276   1.056   3.712
 7332TIP3   OH221959   5.968   3.603   2.744
 7332TIP3    H121960   6.024   3.608   2.666
 7332TIP3    H221961   5.897   3.545   2.718
 7333TIP3   OH221962   0.470   4.788   4.063
 7333TIP3    H121963   0.418   4.825   3.992
 7333TIP3    H221964   0.542   4.743   4.018
 7334TIP3   OH221965   2.859   2.861   4.420
 7334TIP3    H121966   2.804   2.907   4.483
 7334TIP3    H221967   2.835   2.769   4.431
 7335TIP3   OH221968   5.507   0.717   5.395
 7335TIP3    H121969   5.588   0.756   5.362
 7335TIP3    H221970   5.502   0.632   5.352
 7336TIP3   OH221971   4.495   4.256   1.914
 7336TIP3    H121972   4.436   4.331   1.904
 7336TIP3    H221973   4.530   4.241   1.827
 7337TIP3   OH221974   2.429   5.036   3.519
 7337TIP3    H121975   2.400   5.118   3.560
 7337TIP3    H221976   2.350   5.001   3.477
 7338TIP3   OH221977   0.052   6.168   5.173
 7338TIP3    H121978  -0.041   6.173   5.196
 7338TIP3    H221979   0.086   6.255   5.191
 7339TIP3   OH221980   0.137   3.010   2.022
 7339TIP3    H121981   0.211   2.970   2.067
 7339TIP3    H221982   0.173   3.042   1.939
 7340TIP3   OH221983   0.254   1.798   5.416
 7340TIP3    H121984   0.223   1.748   5.491
 7340TIP3    H221985   0.241   1.740   5.341
 7341TIP3   OH221986   6.604   6.773   2.860
 7341TIP3    H121987   6.583   6.708   2.927
 7341TIP3    H221988   6.700   6.773   2.856
 7342TIP3   OH221989   2.493   5.390   1.930
 7342TIP3    H121990   2.586   5.402   1.949
 7342TIP3    H221991   2.486   5.301   1.895
 7343TIP3   OH221992   5.101   0.894   4.960
 7343TIP3    H121993   5.171   0.943   4.916
 7343TIP3    H221994   5.146   0.835   5.020
 7344TIP3   OH221995   1.523   2.390   0.664
 7344TIP3    H121996   1.545   2.378   0.572
 7344TIP3    H221997   1.608   2.396   0.709
 7345TIP3   OH221998   6.042   6.265   3.824
 7345TIP3    H121999   5.975   6.328   3.800
 7345TIP3    H222000   6.030   6.251   3.918
 7346TIP3   OH222001   6.510   5.494   1.495
 7346TIP3    H122002   6.420   5.527   1.494
 7346TIP3    H222003   6.548   5.528   1.576
 7347TIP3   OH222004   3.295   3.976   1.817
 7347TIP3    H122005   3.370   4.023   1.854
 7347TIP3    H222006   3.334   3.909   1.761
 7348TIP3   OH222007   3.913   6.026   0.858
 7348TIP3    H122008   3.934   6.108   0.903
 7348TIP3    H222009   3.923   5.958   0.924
 7349TIP3   OH222010   0.219   3.260   4.323
 7349TIP3    H122011   0.231   3.340   4.374
 7349TIP3    H222012   0.308   3.225   4.313
 7350TIP3   OH222013   3.838   1.540   0.078
 7350TIP3    H122014   3.867   1.454   0.110
 7350TIP3    H222015   3.771   1.520   0.014
 7351TIP3   OH222016   6.610   5.144   4.815
 7351TIP3    H122017   6.646   5.092   4.887
 7351TIP3    H222018   6.516   5.127   4.817
 7352TIP3   OH222019   2.929   1.427   3.696
 7352TIP3    H122020   2.866   1.471   3.640
 7352TIP3    H222021   2.997   1.397   3.637
 7353TIP3   OH222022   5.208   2.582   0.768
 7353TIP3    H122023   5.183   2.643   0.699
 7353TIP3    H222024   5.203   2.633   0.849
 7354TIP3   OH222025   4.630   3.443   1.055
 7354TIP3    H122026   4.705   3.396   1.091
 7354TIP3    H222027   4.561   3.433   1.121
 7355TIP3   OH222028   4.138   6.033   1.605
 7355TIP3    H122029   4.079   5.997   1.539
 7355TIP3    H222030   4.105   6.121   1.621
 7356TIP3   OH222031  -0.009   2.847   1.549
 7356TIP3    H122032   0.032   2.925   1.513
 7356TIP3    H222033   0.049   2.820   1.621
 7357TIP3   OH222034   5.688   4.897   5.719
 7357TIP3    H122035   5.759   4.961   5.712
 7357TIP3    H222036   5.608   4.950   5.720
 7358TIP3   OH222037   0.744   1.872   5.849
 7358TIP3    H122038   0.829   1.915   5.840
 7358TIP3    H222039   0.700   1.887   5.766
 7359TIP3   OH222040   0.011   0.341   2.917
 7359TIP3    H122041   0.058   0.400   2.859
 7359TIP3    H222042   0.054   0.351   3.002
 7360TIP3   OH222043   6.878   0.139   1.163
 7360TIP3    H122044   6.884   0.207   1.231
 7360TIP3    H222045   6.792   0.151   1.124
 7361TIP3   OH222046   5.975   5.223   0.476
 7361TIP3    H122047   5.930   5.285   0.533
 7361TIP3    H222048   6.050   5.272   0.443
 7362TIP3   OH222049   5.190   2.752   2.162
 7362TIP3    H122050   5.184   2.669   2.115
 7362TIP3    H222051   5.273   2.746   2.210
 7363TIP3   OH222052   7.161   5.857   0.404
 7363TIP3    H122053   7.140   5.843   0.312
 7363TIP3    H222054   7.184   5.950   0.409
 7364TIP3   OH222055   7.203   2.631   1.395
 7364TIP3    H122056   7.164   2.564   1.451
 7364TIP3    H222057   7.206   2.709   1.451
 7365TIP3   OH222058   6.123   2.058   4.677
 7365TIP3    H122059   6.076   2.048   4.759
 7365TIP3    H222060   6.110   2.150   4.652
 7366TIP3   OH222061   3.170   0.260   0.278
 7366TIP3    H122062   3.239   0.326   0.282
 7366TIP3    H222063   3.160   0.230   0.368
 7367TIP3   OH222064   4.061   5.694   5.849
 7367TIP3    H122065   3.999   5.678   5.778
 7367TIP3    H222066   4.051   5.619   5.907
 7368TIP3   OH222067   0.808   1.701   2.006
 7368TIP3    H122068   0.725   1.672   2.043
 7368TIP3    H222069   0.798   1.796   1.996
 7369TIP3   OH222070   1.662   6.475   5.583
 7369TIP3    H122071   1.728   6.477   5.652
 7369TIP3    H222072   1.636   6.566   5.571
 7370TIP3   OH222073   3.018   6.359   5.010
 7370TIP3    H122074   3.040   6.376   4.918
 7370TIP3    H222075   2.990   6.444   5.044
 7371TIP3   OH222076   1.030   2.631   4.366
 7371TIP3    H122077   0.975   2.555   4.386
 7371TIP3    H222078   1.029   2.683   4.446
 7372TIP3   OH222079   5.303   1.943   1.027
 7372TIP3    H122080   5.368   1.979   0.968
 7372TIP3    H222081   5.343   1.864   1.062
 7373TIP3   OH222082   4.412   6.334   2.308
 7373TIP3    H122083   4.348   6.321   2.238
 7373TIP3    H222084   4.391   6.267   2.373
 7374TIP3   OH222085   0.426   0.715   2.214
 7374TIP3    H122086   0.403   0.622   2.214
 7374TIP3    H222087   0.414   0.743   2.305
 7375TIP3   OH222088   0.792   2.729   1.913
 7375TIP3    H122089   0.811   2.806   1.859
 7375TIP3    H222090   0.878   2.689   1.927
 7376TIP3   OH222091   1.777   5.985   0.487
 7376TIP3    H122092   1.827   5.948   0.559
 7376TIP3    H222093   1.713   5.918   0.465
 7377TIP3   OH222094   3.173   6.214   5.565
 7377TIP3    H122095   3.218   6.258   5.638
 7377TIP3    H222096   3.225   6.237   5.488
 7378TIP3   OH222097   3.982   1.574   3.383
 7378TIP3    H122098   3.895   1.564   3.344
 7378TIP3    H222099   3.970   1.553   3.475
 7379TIP3   OH222100   0.882   1.479   5.099
 7379TIP3    H122101   0.955   1.522   5.144
 7379TIP3    H222102   0.867   1.532   5.021
 7380TIP3   OH222103   6.274   1.082   5.896
 7380TIP3    H122104   6.189   1.127   5.887
 7380TIP3    H222105   6.311   1.119   5.977
 7381TIP3   OH222106   0.203   1.731   2.531
 7381TIP3    H122107   0.280   1.735   2.475
 7381TIP3    H222108   0.133   1.772   2.479
 7382TIP3   OH222109   4.837   3.712   0.481
 7382TIP3    H122110   4.774   3.777   0.449
 7382TIP3    H222111   4.784   3.637   0.505
 7383TIP3   OH222112   2.754   3.674   2.168
 7383TIP3    H122113   2.847   3.677   2.147
 7383TIP3    H222114   2.734   3.762   2.200
 7384TIP3   OH222115   2.535   0.991   3.270
 7384TIP3    H122116   2.494   1.037   3.343
 7384TIP3    H222117   2.626   0.981   3.297
 7385TIP3   OH222118   1.185   5.681  -0.002
 7385TIP3    H122119   1.238   5.760  -0.014
 7385TIP3    H222120   1.097   5.707  -0.030
 7386TIP3   OH222121   1.049   3.776   3.951
 7386TIP3    H122122   1.019   3.866   3.962
 7386TIP3    H222123   1.123   3.782   3.892
 7387TIP3   OH222124   5.203   4.835   3.551
 7387TIP3    H122125   5.111   4.816   3.531
 7387TIP3    H222126   5.236   4.880   3.473
 7388TIP3   OH222127   2.386   2.240   0.278
 7388TIP3    H122128   2.295   2.218   0.257
 7388TIP3    H222129   2.434   2.160   0.259
 7389TIP3   OH222130   2.976   1.771   0.155
 7389TIP3    H122131   3.011   1.775   0.244
 7389TIP3    H222132   3.015   1.846   0.111
 7390TIP3   OH222133   0.391   2.610   3.812
 7390TIP3    H122134   0.485   2.594   3.805
 7390TIP3    H222135   0.352   2.552   3.747
 7391TIP3   OH222136   6.428   6.522   4.324
 7391TIP3    H122137   6.409   6.452   4.386
 7391TIP3    H222138   6.523   6.532   4.327
 7392TIP3   OH222139   4.877   6.425   1.632
 7392TIP3    H122140   4.844   6.511   1.605
 7392TIP3    H222141   4.821   6.362   1.588
 7393TIP3   OH222142   7.247   4.582   3.103
 7393TIP3    H122143   7.250   4.599   3.009
 7393TIP3    H222144   7.316   4.637   3.140
 7394TIP3   OH222145   5.500   3.018   2.472
 7394TIP3    H122146   5.573   2.956   2.461
 7394TIP3    H222147   5.475   3.009   2.563
 7395TIP3   OH222148   3.580   0.219   2.740
 7395TIP3    H122149   3.654   0.220   2.800
 7395TIP3    H222150   3.586   0.135   2.695
 7396TIP3   OH222151   5.304   5.676   0.157
 7396TIP3    H122152   5.313   5.700   0.249
 7396TIP3    H222153   5.214   5.642   0.150
 7397TIP3   OH222154   2.612   2.793   5.202
 7397TIP3    H122155   2.573   2.715   5.242
 7397TIP3    H222156   2.699   2.799   5.241
 7398TIP3   OH222157   7.130   0.438   4.497
 7398TIP3    H122158   7.192   0.491   4.448
 7398TIP3    H222159   7.062   0.416   4.434
 7399TIP3   OH222160   5.823   2.803   3.853
 7399TIP3    H122161   5.766   2.799   3.930
 7399TIP3    H222162   5.799   2.727   3.801
 7400TIP3   OH222163   4.330   0.223   4.494
 7400TIP3    H122164   4.264   0.282   4.530
 7400TIP3    H222165   4.365   0.270   4.418
 7401TIP3   OH222166   1.831   6.277   4.395
 7401TIP3    H122167   1.898   6.209   4.384
 7401TIP3    H222168   1.880   6.359   4.399
 7402TIP3   OH222169   2.443   1.989   1.947
 7402TIP3    H122170   2.428   1.990   2.041
 7402TIP3    H222171   2.360   2.016   1.908
 7403TIP3   OH222172   6.698   1.634   3.550
 7403TIP3    H122173   6.704   1.612   3.457
 7403TIP3    H222174   6.712   1.728   3.553
 7404TIP3   OH222175   4.536   0.138   2.247
 7404TIP3    H122176   4.571   0.220   2.213
 7404TIP3    H222177   4.448   0.160   2.278
 7405TIP3   OH222178   6.189   4.853   0.237
 7405TIP3    H122179   6.218   4.924   0.293
 7405TIP3    H222180   6.255   4.847   0.168
 7406TIP3   OH222181   1.315   6.786   0.089
 7406TIP3    H122182   1.363   6.733   0.153
 7406TIP3    H222183   1.224   6.779   0.116
 7407TIP3   OH222184   6.659   4.714   2.738
 7407TIP3    H122185   6.698   4.647   2.793
 7407TIP3    H222186   6.623   4.666   2.663
 7408TIP3   OH222187   6.067   0.958   4.571
 7408TIP3    H122188   6.071   0.909   4.653
 7408TIP3    H222189   6.005   1.028   4.587
 7409TIP3   OH222190   4.599   3.654   2.809
 7409TIP3    H122191   4.554   3.693   2.885
 7409TIP3    H222192   4.659   3.723   2.779
 7410TIP3   OH222193   1.688   3.931   2.697
 7410TIP3    H122194   1.682   3.978   2.614
 7410TIP3    H222195   1.728   3.848   2.675
 7411TIP3   OH222196   4.010   6.134   0.552
 7411TIP3    H122197   3.996   6.210   0.608
 7411TIP3    H222198   4.002   6.059   0.611
 7412TIP3   OH222199   2.832   0.122   4.323
 7412TIP3    H122200   2.741   0.096   4.337
 7412TIP3    H222201   2.881   0.070   4.386
 7413TIP3   OH222202   3.051   6.494   2.672
 7413TIP3    H122203   3.009   6.490   2.586
 7413TIP3    H222204   3.023   6.414   2.715
 7414TIP3   OH222205   5.259   1.376   3.505
 7414TIP3    H122206   5.165   1.390   3.515
 7414TIP3    H222207   5.299   1.432   3.571
 7415TIP3   OH222208   4.781   3.239   1.149
 7415TIP3    H122209   4.829   3.197   1.078
 7415TIP3    H222210   4.753   3.167   1.206
 7416TIP3   OH222211   2.959   2.313   3.375
 7416TIP3    H122212   2.996   2.226   3.393
 7416TIP3    H222213   3.016   2.373   3.423
 7417TIP3   OH222214   1.755   1.774   4.246
 7417TIP3    H122215   1.774   1.843   4.309
 7417TIP3    H222216   1.729   1.699   4.299
 7418TIP3   OH222217   3.823   0.037   1.988
 7418TIP3    H122218   3.808   0.094   2.063
 7418TIP3    H222219   3.913   0.056   1.961
 7419TIP3   OH222220   4.953   3.962   3.931
 7419TIP3    H122221   5.036   3.954   3.883
 7419TIP3    H222222   4.972   3.928   4.018
 7420TIP3   OH222223   2.061   3.071   0.358
 7420TIP3    H122224   2.068   3.022   0.439
 7420TIP3    H222225   2.031   3.007   0.293
 7421TIP3   OH222226   4.170  -0.014   4.079
 7421TIP3    H122227   4.141   0.045   4.148
 7421TIP3    H222228   4.212   0.043   4.015
 7422TIP3   OH222229   6.847   4.682   4.638
 7422TIP3    H122230   6.850   4.771   4.674
 7422TIP3    H222231   6.808   4.692   4.552
 7423TIP3   OH222232   1.404   5.661   3.914
 7423TIP3    H122233   1.398   5.697   4.002
 7423TIP3    H222234   1.318   5.676   3.876
 7424TIP3   OH222235   4.397   5.259   3.907
 7424TIP3    H122236   4.308   5.249   3.872
 7424TIP3    H222237   4.384   5.292   3.996
 7425TIP3   OH222238   1.196   5.560   5.415
 7425TIP3    H122239   1.173   5.467   5.411
 7425TIP3    H222240   1.265   5.571   5.349
 7426TIP3   OH222241   1.044   5.309   4.606
 7426TIP3    H122242   0.960   5.343   4.635
 7426TIP3    H222243   1.076   5.258   4.681
 7427TIP3   OH222244   2.462   3.975   5.603
 7427TIP3    H122245   2.509   4.050   5.639
 7427TIP3    H222246   2.389   4.013   5.555
 7428TIP3   OH222247   2.580   4.209   3.082
 7428TIP3    H122248   2.492   4.245   3.078
 7428TIP3    H222249   2.633   4.269   3.028
 7429TIP3   OH222250   1.245   5.753   1.959
 7429TIP3    H122251   1.157   5.715   1.965
 7429TIP3    H222252   1.260   5.791   2.046
 7430TIP3   OH222253   6.606   3.590   5.403
 7430TIP3    H122254   6.586   3.625   5.490
 7430TIP3    H222255   6.543   3.633   5.345
 7431TIP3   OH222256   3.005   5.265   3.517
 7431TIP3    H122257   3.099   5.265   3.503
 7431TIP3    H222258   2.995   5.263   3.612
 7432TIP3   OH222259   2.499   3.965   2.980
 7432TIP3    H122260   2.528   4.051   3.013
 7432TIP3    H222261   2.581   3.916   2.967
 7433TIP3   OH222262   4.565   2.468   1.027
 7433TIP3    H122263   4.610   2.385   1.012
 7433TIP3    H222264   4.473   2.450   1.005
 7434TIP3   OH222265   1.137   1.693   5.727
 7434TIP3    H122266   1.101   1.605   5.711
 7434TIP3    H222267   1.174   1.719   5.643
 7435TIP3   OH222268   0.430   5.989   0.000
 7435TIP3    H122269   0.352   5.971   0.052
 7435TIP3    H222270   0.438   6.085   0.001
 7436TIP3   OH222271   6.113   3.027   0.557
 7436TIP3    H122272   6.146   3.095   0.498
 7436TIP3    H222273   6.082   3.074   0.633
 7437TIP3   OH222274   3.015   3.404   4.652
 7437TIP3    H122275   3.024   3.419   4.746
 7437TIP3    H222276   3.104   3.410   4.617
 7438TIP3   OH222277   1.813   2.249   3.538
 7438TIP3    H122278   1.890   2.275   3.588
 7438TIP3    H222279   1.741   2.298   3.577
 7439TIP3   OH222280   2.412   4.194   5.280
 7439TIP3    H122281   2.489   4.193   5.336
 7439TIP3    H222282   2.340   4.169   5.337
 7440TIP3   OH222283   1.324   0.178   1.092
 7440TIP3    H122284   1.322   0.145   1.003
 7440TIP3    H222285   1.331   0.273   1.083
 7441TIP3   OH222286   1.067   2.258   2.388
 7441TIP3    H122287   1.109   2.172   2.384
 7441TIP3    H222288   1.128   2.313   2.437
 7442TIP3   OH222289   6.692   0.962   1.066
 7442TIP3    H122290   6.721   0.884   1.019
 7442TIP3    H222291   6.737   1.035   1.022
 7443TIP3   OH222292   1.047   4.242   3.223
 7443TIP3    H122293   0.967   4.294   3.229
 7443TIP3    H222294   1.028   4.162   3.271
 7444TIP3   OH222295   1.180   6.704   2.012
 7444TIP3    H122296   1.262   6.721   1.966
 7444TIP3    H222297   1.148   6.621   1.974
 7445TIP3   OH222298   3.460   4.062   5.388
 7445TIP3    H122299   3.388   4.125   5.396
 7445TIP3    H222300   3.468   4.025   5.476
 7446TIP3   OH222301   6.475   1.945   0.791
 7446TIP3    H122302   6.456   1.941   0.885
 7446TIP3    H222303   6.487   2.038   0.772
 7447TIP3   OH222304   6.321   4.164   1.690
 7447TIP3    H122305   6.289   4.105   1.622
 7447TIP3    H222306   6.303   4.118   1.773
 7448TIP3   OH222307   5.608   6.075   3.498
 7448TIP3    H122308   5.659   6.133   3.441
 7448TIP3    H222309   5.673   6.037   3.558
 7449TIP3   OH222310   1.219   3.687   5.155
 7449TIP3    H122311   1.149   3.746   5.183
 7449TIP3    H222312   1.223   3.620   5.223
 7450TIP3   OH222313   1.106   4.888   3.017
 7450TIP3    H122314   1.115   4.845   3.101
 7450TIP3    H222315   1.073   4.976   3.038
 7451TIP3   OH222316   5.007   4.860   2.142
 7451TIP3    H122317   5.081   4.879   2.199
 7451TIP3    H222318   4.930   4.870   2.198
 7452TIP3   OH222319   3.661   2.668   4.963
 7452TIP3    H122320   3.708   2.639   5.041
 7452TIP3    H222321   3.709   2.746   4.934
 7453TIP3   OH222322   3.766   1.840   5.221
 7453TIP3    H122323   3.686   1.871   5.177
 7453TIP3    H222324   3.784   1.907   5.287
 7454TIP3   OH222325   1.554   1.583   0.464
 7454TIP3    H122326   1.545   1.574   0.559
 7454TIP3    H222327   1.465   1.576   0.431
 7455TIP3   OH222328   0.310   2.426   1.917
 7455TIP3    H122329   0.285   2.518   1.931
 7455TIP3    H222330   0.405   2.426   1.924
 7456TIP3   OH222331   2.020   4.968   4.572
 7456TIP3    H122332   2.074   4.971   4.652
 7456TIP3    H222333   1.995   4.876   4.563
 7457TIP3   OH222334   6.804   3.252   4.331
 7457TIP3    H122335   6.815   3.305   4.409
 7457TIP3    H222336   6.869   3.285   4.269
 7458TIP3   OH222337   6.413   2.045   3.224
 7458TIP3    H122338   6.461   2.084   3.150
 7458TIP3    H222339   6.322   2.045   3.195
 7459TIP3   OH222340   2.148   2.469   1.947
 7459TIP3    H122341   2.085   2.512   1.889
 7459TIP3    H222342   2.098   2.448   2.025
 7460TIP3   OH222343   3.119   1.540   4.673
 7460TIP3    H122344   3.200   1.496   4.701
 7460TIP3    H222345   3.148   1.615   4.622
 7461TIP3   OH222346   2.735   0.471   4.964
 7461TIP3    H122347   2.678   0.529   4.913
 7461TIP3    H222348   2.675   0.425   5.023
 7462TIP3   OH222349   0.999   3.886   5.792
 7462TIP3    H122350   1.070   3.829   5.762
 7462TIP3    H222351   0.931   3.878   5.725
 7463TIP3   OH222352   4.486   4.619   0.449
 7463TIP3    H122353   4.542   4.675   0.395
 7463TIP3    H222354   4.451   4.554   0.388
 7464TIP3   OH222355   5.881   0.923   0.458
 7464TIP3    H122356   5.789   0.943   0.473
 7464TIP3    H222357   5.881   0.852   0.394
 7465TIP3   OH222358   0.247   1.041   0.451
 7465TIP3    H122359   0.339   1.020   0.466
 7465TIP3    H222360   0.230   1.013   0.361
 7466TIP3   OH222361   1.237   5.379   4.449
 7466TIP3    H122362   1.295   5.421   4.512
 7466TIP3    H222363   1.161   5.351   4.500
 7467TIP3   OH222364   2.804   2.537   2.445
 7467TIP3    H122365   2.779   2.449   2.472
 7467TIP3    H222366   2.725   2.590   2.461
 7468TIP3   OH222367   6.055   1.678   0.813
 7468TIP3    H122368   6.030   1.681   0.905
 7468TIP3    H222369   6.118   1.607   0.806
 7469TIP3   OH222370   0.701   6.746   3.233
 7469TIP3    H122371   0.680   6.653   3.228
 7469TIP3    H222372   0.681   6.771   3.323
 7470TIP3   OH222373   6.672   0.941   3.251
 7470TIP3    H122374   6.724   0.860   3.244
 7470TIP3    H222375   6.692   0.975   3.338
 7471TIP3   OH222376   0.155   3.492   0.659
 7471TIP3    H122377   0.240   3.535   0.668
 7471TIP3    H222378   0.091   3.562   0.670
 7472TIP3   OH222379   5.525   3.079   5.095
 7472TIP3    H122380   5.539   3.095   5.188
 7472TIP3    H222381   5.595   3.019   5.070
 7473TIP3   OH222382   0.398   3.217   0.240
 7473TIP3    H122383   0.409   3.140   0.185
 7473TIP3    H222384   0.310   3.208   0.276
 7474TIP3   OH222385   0.103   1.479   0.909
 7474TIP3    H122386   0.070   1.498   0.821
 7474TIP3    H222387   0.150   1.559   0.934
 7475TIP3   OH222388   2.689   5.800   3.689
 7475TIP3    H122389   2.647   5.865   3.632
 7475TIP3    H222390   2.708   5.726   3.631
 7476TIP3   OH222391   3.940   5.857   5.530
 7476TIP3    H122392   3.920   5.829   5.441
 7476TIP3    H222393   3.898   5.792   5.586
 7477TIP3   OH222394   5.075   1.666   3.243
 7477TIP3    H122395   5.019   1.659   3.320
 7477TIP3    H222396   5.016   1.652   3.169
 7478TIP3   OH222397   1.158   0.981   2.660
 7478TIP3    H122398   1.174   1.050   2.724
 7478TIP3    H222399   1.138   1.028   2.579
 7479TIP3   OH222400   5.261   4.926   2.284
 7479TIP3    H122401   5.338   4.982   2.296
 7479TIP3    H222402   5.237   4.899   2.372
 7480TIP3   OH222403   3.530   2.065   4.118
 7480TIP3    H122404   3.501   1.989   4.168
 7480TIP3    H222405   3.626   2.059   4.119
 7481TIP3   OH222406   4.628   4.248   2.766
 7481TIP3    H122407   4.633   4.284   2.678
 7481TIP3    H222408   4.540   4.272   2.797
 7482TIP3   OH222409   5.735   0.151   3.633
 7482TIP3    H122410   5.816   0.176   3.589
 7482TIP3    H222411   5.700   0.080   3.579
 7483TIP3   OH222412   5.712   2.588   3.681
 7483TIP3    H122413   5.691   2.587   3.588
 7483TIP3    H222414   5.627   2.581   3.725
 7484TIP3   OH222415   6.467   2.587   0.994
 7484TIP3    H122416   6.464   2.682   0.999
 7484TIP3    H222417   6.453   2.557   1.084
 7485TIP3   OH222418   2.555   0.319   4.219
 7485TIP3    H122419   2.598   0.401   4.245
 7485TIP3    H222420   2.581   0.256   4.286
 7486TIP3   OH222421   1.148  -0.053   1.795
 7486TIP3    H122422   1.144   0.031   1.748
 7486TIP3    H222423   1.068  -0.054   1.847
 7487TIP3   OH222424   5.550   2.031   5.742
 7487TIP3    H122425   5.605   2.056   5.667
 7487TIP3    H222426   5.588   1.949   5.773
 7488TIP3   OH222427   3.324   0.116   1.382
 7488TIP3    H122428   3.411   0.131   1.418
 7488TIP3    H222429   3.266   0.172   1.434
 7489TIP3   OH222430   5.481   3.736   4.438
 7489TIP3    H122431   5.443   3.725   4.351
 7489TIP3    H222432   5.534   3.658   4.451
 7490TIP3   OH222433   1.909   2.205   3.991
 7490TIP3    H122434   1.966   2.168   3.923
 7490TIP3    H222435   1.825   2.219   3.947
 7491TIP3   OH222436   4.010   6.568   4.496
 7491TIP3    H122437   3.996   6.534   4.408
 7491TIP3    H222438   4.080   6.514   4.533
 7492TIP3   OH222439   5.737   2.200   1.112
 7492TIP3    H122440   5.800   2.142   1.155
 7492TIP3    H222441   5.741   2.282   1.161
 7493TIP3   OH222442   4.011   2.171   2.425
 7493TIP3    H122443   3.919   2.180   2.450
 7493TIP3    H222444   4.054   2.140   2.505
 7494TIP3   OH222445   5.648   5.733   1.443
 7494TIP3    H122446   5.636   5.722   1.348
 7494TIP3    H222447   5.576   5.790   1.469
 7495TIP3   OH222448   6.622   6.258   0.053
 7495TIP3    H122449   6.647   6.204   0.128
 7495TIP3    H222450   6.562   6.203   0.002
 7496TIP3   OH222451   0.015   0.825   5.033
 7496TIP3    H122452   0.092   0.788   5.077
 7496TIP3    H222453   0.027   0.920   5.039
 7497TIP3   OH222454   2.033   5.251   4.870
 7497TIP3    H122455   1.983   5.201   4.935
 7497TIP3    H222456   1.969   5.275   4.804
 7498TIP3   OH222457   5.424   6.459   1.259
 7498TIP3    H122458   5.511   6.481   1.226
 7498TIP3    H222459   5.376   6.429   1.182
 7499TIP3   OH222460   4.743   0.262   2.602
 7499TIP3    H122461   4.770   0.334   2.544
 7499TIP3    H222462   4.771   0.183   2.557
 7500TIP3   OH222463   2.949   4.104   3.141
 7500TIP3    H122464   3.039   4.111   3.110
 7500TIP3    H222465   2.954   4.124   3.234
 7501TIP3   OH222466   6.405   1.162   5.091
 7501TIP3    H122467   6.311   1.181   5.081
 7501TIP3    H222468   6.449   1.239   5.056
 7502TIP3   OH222469   6.663   2.158   0.178
 7502TIP3    H122470   6.674   2.173   0.271
 7502TIP3    H222471   6.751   2.135   0.147
 7503TIP3   OH222472   2.374   5.601   1.046
 7503TIP3    H122473   2.429   5.670   1.008
 7503TIP3    H222474   2.317   5.647   1.108
 7504TIP3   OH222475   1.771   3.176   4.600
 7504TIP3    H122476   1.834   3.209   4.664
 7504TIP3    H222477   1.802   3.211   4.516
 7505TIP3   OH222478   1.447   1.760   3.064
 7505TIP3    H122479   1.529   1.757   3.014
 7505TIP3    H222480   1.442   1.850   3.096
 7506TIP3   OH222481   5.960   0.494   2.412
 7506TIP3    H122482   5.935   0.536   2.330
 7506TIP3    H222483   5.967   0.567   2.474
 7507TIP3   OH222484   0.318   5.815   4.909
 7507TIP3    H122485   0.258   5.872   4.957
 7507TIP3    H222486   0.312   5.845   4.818
 7508TIP3   OH222487   4.812   4.876   1.551
 7508TIP3    H122488   4.879   4.914   1.494
 7508TIP3    H222489   4.829   4.781   1.547
 7509TIP3   OH222490   2.542   5.565   3.898
 7509TIP3    H122491   2.546   5.497   3.830
 7509TIP3    H222492   2.582   5.642   3.857
 7510TIP3   OH222493   2.424   0.946   4.535
 7510TIP3    H122494   2.447   1.031   4.496
 7510TIP3    H222495   2.479   0.883   4.489
 7511TIP3   OH222496   7.082   0.832   2.313
 7511TIP3    H122497   7.091   0.872   2.400
 7511TIP3    H222498   7.006   0.876   2.274
 7512TIP3   OH222499   2.421   5.599   5.516
 7512TIP3    H122500   2.448   5.633   5.602
 7512TIP3    H222501   2.341   5.647   5.495
 7513TIP3   OH222502   0.291   1.974   5.071
 7513TIP3    H122503   0.364   1.938   5.121
 7513TIP3    H222504   0.308   1.946   4.981
 7514TIP3   OH222505   4.747   3.520   0.208
 7514TIP3    H122506   4.718   3.553   0.123
 7514TIP3    H222507   4.671   3.533   0.266
 7515TIP3   OH222508   1.450   1.071   3.315
 7515TIP3    H122509   1.517   1.049   3.381
 7515TIP3    H222510   1.440   1.166   3.323
 7516TIP3   OH222511   7.197   4.027   5.346
 7516TIP3    H122512   7.103   4.044   5.354
 7516TIP3    H222513   7.222   3.993   5.432
 7517TIP3   OH222514   1.536   6.348   1.711
 7517TIP3    H122515   1.538   6.339   1.806
 7517TIP3    H222516   1.543   6.443   1.696
 7518TIP3   OH222517   1.000   3.470   5.498
 7518TIP3    H122518   1.050   3.424   5.565
 7518TIP3    H222519   0.987   3.406   5.428
 7519TIP3   OH222520   0.829   4.467   0.299
 7519TIP3    H122521   0.918   4.490   0.327
 7519TIP3    H222522   0.842   4.414   0.220
 7520TIP3   OH222523   4.915   4.305   4.446
 7520TIP3    H122524   4.852   4.354   4.498
 7520TIP3    H222525   4.870   4.288   4.363
 7521TIP3   OH222526   1.805   4.831   3.855
 7521TIP3    H122527   1.772   4.878   3.778
 7521TIP3    H222528   1.892   4.868   3.869
 7522TIP3   OH222529   0.897   3.713   5.569
 7522TIP3    H122530   0.931   3.767   5.498
 7522TIP3    H222531   0.948   3.632   5.564
 7523TIP3   OH222532   4.423   2.976   1.448
 7523TIP3    H122533   4.441   3.028   1.527
 7523TIP3    H222534   4.420   2.886   1.479
 7524TIP3   OH222535   6.201   2.558   5.695
 7524TIP3    H122536   6.133   2.626   5.698
 7524TIP3    H222537   6.283   2.607   5.687
 7525TIP3   OH222538   3.420   6.249   2.386
 7525TIP3    H122539   3.373   6.270   2.466
 7525TIP3    H222540   3.448   6.335   2.353
 7526TIP3   OH222541   2.704   5.610   0.531
 7526TIP3    H122542   2.735   5.521   0.542
 7526TIP3    H222543   2.611   5.601   0.508
 7527TIP3   OH222544   3.924   2.056   1.434
 7527TIP3    H122545   3.932   2.115   1.359
 7527TIP3    H222546   4.011   2.058   1.475
 7528TIP3   OH222547   1.704   3.732   1.240
 7528TIP3    H122548   1.655   3.697   1.166
 7528TIP3    H222549   1.757   3.803   1.202
 7529TIP3   OH222550   7.115   6.060   2.374
 7529TIP3    H122551   7.209   6.071   2.368
 7529TIP3    H222552   7.102   6.001   2.448
 7530TIP3   OH222553   6.332   6.169   2.051
 7530TIP3    H122554   6.405   6.198   2.105
 7530TIP3    H222555   6.317   6.078   2.077
 7531TIP3   OH222556   3.243   1.510   0.242
 7531TIP3    H122557   3.162   1.560   0.246
 7531TIP3    H222558   3.311   1.571   0.272
 7532TIP3   OH222559   6.231   0.097   1.491
 7532TIP3    H122560   6.285   0.057   1.559
 7532TIP3    H222561   6.256   0.053   1.411
 7533TIP3   OH222562   2.800   1.315   2.085
 7533TIP3    H122563   2.787   1.409   2.087
 7533TIP3    H222564   2.728   1.282   2.030
 7534TIP3   OH222565   6.078   5.859   0.752
 7534TIP3    H122566   5.999   5.821   0.791
 7534TIP3    H222567   6.137   5.784   0.741
 7535TIP3   OH222568   2.566   2.959   5.653
 7535TIP3    H122569   2.610   2.874   5.660
 7535TIP3    H222570   2.624   3.012   5.599
 7536TIP3   OH222571   5.504   6.579   5.657
 7536TIP3    H122572   5.467   6.491   5.662
 7536TIP3    H222573   5.599   6.564   5.657
 7537TIP3   OH222574   4.620   4.329   1.143
 7537TIP3    H122575   4.701   4.290   1.175
 7537TIP3    H222576   4.639   4.352   1.052
 7538TIP3   OH222577   1.231   3.816   4.483
 7538TIP3    H122578   1.278   3.799   4.401
 7538TIP3    H222579   1.253   3.742   4.539
 7539TIP3   OH222580   0.409   3.846   1.245
 7539TIP3    H122581   0.500   3.839   1.216
 7539TIP3    H222582   0.404   3.788   1.320
 7540TIP3   OH222583   5.459   4.615   5.184
 7540TIP3    H122584   5.420   4.689   5.136
 7540TIP3    H222585   5.532   4.654   5.232
 7541TIP3   OH222586   4.744   6.364   1.253
 7541TIP3    H122587   4.704   6.373   1.340
 7541TIP3    H222588   4.684   6.409   1.194
 7542TIP3   OH222589   3.430   5.663   2.579
 7542TIP3    H122590   3.491   5.727   2.544
 7542TIP3    H222591   3.356   5.714   2.611
 7543TIP3   OH222592   1.455   3.624   2.136
 7543TIP3    H122593   1.448   3.691   2.068
 7543TIP3    H222594   1.415   3.664   2.214
 7544TIP3   OH222595   0.640   0.690   1.700
 7544TIP3    H122596   0.589   0.698   1.780
 7544TIP3    H222597   0.691   0.771   1.695
 7545TIP3   OH222598   4.467   3.054   3.274
 7545TIP3    H122599   4.412   3.091   3.343
 7545TIP3    H222600   4.415   3.061   3.194
 7546TIP3   OH222601   2.873   5.649   4.731
 7546TIP3    H122602   2.852   5.738   4.703
 7546TIP3    H222603   2.797   5.621   4.782
 7547TIP3   OH222604   1.345   4.499   4.260
 7547TIP3    H122605   1.263   4.452   4.243
 7547TIP3    H222606   1.364   4.545   4.178
 7548TIP3   OH222607   3.346   4.778   1.732
 7548TIP3    H122608   3.439   4.799   1.731
 7548TIP3    H222609   3.328   4.749   1.821
 7549TIP3   OH222610   5.525   3.405   3.707
 7549TIP3    H122611   5.467   3.418   3.632
 7549TIP3    H222612   5.563   3.491   3.722
 7550TIP3   OH222613   3.618   4.415   1.092
 7550TIP3    H122614   3.682   4.400   1.023
 7550TIP3    H222615   3.657   4.374   1.169
 7551TIP3   OH222616   0.810   4.363   3.165
 7551TIP3    H122617   0.845   4.351   3.077
 7551TIP3    H222618   0.719   4.333   3.159
 7552TIP3   OH222619   4.115   5.339   0.699
 7552TIP3    H122620   4.134   5.252   0.663
 7552TIP3    H222621   4.086   5.322   0.789
 7553TIP3   OH222622   4.226   4.221   0.283
 7553TIP3    H122623   4.251   4.298   0.335
 7553TIP3    H222624   4.149   4.251   0.233
 7554TIP3   OH222625   4.322   0.261   5.803
 7554TIP3    H122626   4.334   0.176   5.761
 7554TIP3    H222627   4.313   0.241   5.896
 7555TIP3   OH222628   5.072   5.092   4.259
 7555TIP3    H122629   5.047   5.060   4.345
 7555TIP3    H222630   5.163   5.062   4.247
 7556TIP3   OH222631   4.199   5.777   2.732
 7556TIP3    H122632   4.205   5.761   2.826
 7556TIP3    H222633   4.213   5.692   2.692
 7557TIP3   OH222634   4.554   1.688   0.882
 7557TIP3    H122635   4.462   1.696   0.857
 7557TIP3    H222636   4.596   1.644   0.808
 7558TIP3   OH222637   6.312   1.196   4.780
 7558TIP3    H122638   6.305   1.199   4.684
 7558TIP3    H222639   6.221   1.206   4.810
 7559TIP3   OH222640   3.959   3.391   5.469
 7559TIP3    H122641   3.887   3.353   5.419
 7559TIP3    H222642   3.920   3.463   5.518
 7560TIP3   OH222643   1.384   0.404   1.686
 7560TIP3    H122644   1.375   0.468   1.614
 7560TIP3    H222645   1.419   0.326   1.644
 7561TIP3   OH222646   3.135   3.682   5.881
 7561TIP3    H122647   3.146   3.775   5.864
 7561TIP3    H222648   3.215   3.655   5.926
 7562TIP3   OH222649   5.019   2.664   2.538
 7562TIP3    H122650   5.056   2.721   2.471
 7562TIP3    H222651   4.970   2.723   2.596
 7563TIP3   OH222652   3.725  -0.009   2.601
 7563TIP3    H122653   3.762  -0.090   2.566
 7563TIP3    H222654   3.691   0.037   2.524
 7564TIP3   OH222655   3.668   4.527  -0.003
 7564TIP3    H122656   3.726   4.526   0.073
 7564TIP3    H222657   3.583   4.499   0.032
 7565TIP3   OH222658   6.757   5.282   5.662
 7565TIP3    H122659   6.821   5.335   5.615
 7565TIP3    H222660   6.789   5.192   5.654
 7566TIP3   OH222661   1.391   4.875   0.466
 7566TIP3    H122662   1.372   4.798   0.519
 7566TIP3    H222663   1.486   4.873   0.453
 7567TIP3   OH222664   3.403   2.607   4.519
 7567TIP3    H122665   3.312   2.612   4.549
 7567TIP3    H222666   3.441   2.691   4.545
 7568TIP3   OH222667   2.520   5.128   3.903
 7568TIP3    H122668   2.573   5.080   3.966
 7568TIP3    H222669   2.430   5.105   3.924
 7569TIP3   OH222670   0.689   2.127   3.070
 7569TIP3    H122671   0.673   2.056   3.132
 7569TIP3    H222672   0.605   2.173   3.064
 7570TIP3   OH222673   1.977   1.986   1.621
 7570TIP3    H122674   1.971   2.049   1.693
 7570TIP3    H222675   1.942   1.904   1.658
 7571TIP3   OH222676   6.063   5.176   5.133
 7571TIP3    H122677   5.980   5.162   5.088
 7571TIP3    H222678   6.120   5.106   5.100
 7572TIP3   OH222679   5.216   1.390   5.256
 7572TIP3    H122680   5.205   1.368   5.349
 7572TIP3    H222681   5.181   1.314   5.209
 7573TIP3   OH222682   5.406   5.699   0.926
 7573TIP3    H122683   5.377   5.624   0.978
 7573TIP3    H222684   5.422   5.768   0.990
 7574TIP3   OH222685   3.304   1.396   2.975
 7574TIP3    H122686   3.361   1.455   2.926
 7574TIP3    H222687   3.282   1.445   3.055
 7575TIP3   OH222688   6.752   5.745   5.560
 7575TIP3    H122689   6.738   5.704   5.475
 7575TIP3    H222690   6.845   5.768   5.561
 7576TIP3   OH222691   1.094   3.891   4.743
 7576TIP3    H122692   1.126   3.888   4.653
 7576TIP3    H222693   0.999   3.901   4.735
 7577TIP3   OH222694   2.535   1.425   1.767
 7577TIP3    H122695   2.440   1.442   1.767
 7577TIP3    H222696   2.551   1.377   1.849
 7578TIP3   OH222697   0.684   5.122   2.153
 7578TIP3    H122698   0.760   5.069   2.128
 7578TIP3    H222699   0.619   5.059   2.182
 7579TIP3   OH222700   4.453   0.966   2.012
 7579TIP3    H122701   4.451   1.058   1.986
 7579TIP3    H222702   4.452   0.918   1.929
 7580TIP3   OH222703   7.205   3.092   0.219
 7580TIP3    H122704   7.125   3.089   0.271
 7580TIP3    H222705   7.227   3.185   0.212
 7581TIP3   OH222706   0.104   5.423   2.900
 7581TIP3    H122707   0.130   5.333   2.915
 7581TIP3    H222708   0.080   5.456   2.987
 7582TIP3   OH222709   0.461   5.913   1.110
 7582TIP3    H122710   0.474   5.926   1.204
 7582TIP3    H222711   0.366   5.916   1.098
 7583TIP3   OH222712   4.337   5.415   4.189
 7583TIP3    H122713   4.402   5.486   4.195
 7583TIP3    H222714   4.253   5.461   4.178
 7584TIP3   OH222715   3.488   3.298   3.016
 7584TIP3    H122716   3.424   3.243   2.971
 7584TIP3    H222717   3.523   3.356   2.948
 7585TIP3   OH222718   5.142   3.334   0.074
 7585TIP3    H122719   5.054   3.304   0.096
 7585TIP3    H222720   5.200   3.265   0.106
 7586TIP3   OH222721   5.446   6.354   4.720
 7586TIP3    H122722   5.353   6.373   4.721
 7586TIP3    H222723   5.480   6.398   4.798
 7587TIP3   OH222724   4.956   3.174   1.838
 7587TIP3    H122725   4.868   3.211   1.828
 7587TIP3    H222726   4.966   3.116   1.762
 7588TIP3   OH222727   0.627   5.275   1.720
 7588TIP3    H122728   0.578   5.199   1.753
 7588TIP3    H222729   0.662   5.316   1.799
 7589TIP3   OH222730   0.414   3.748   3.823
 7589TIP3    H122731   0.338   3.697   3.853
 7589TIP3    H222732   0.376   3.829   3.788
 7590TIP3   OH222733   3.557   0.270   5.711
 7590TIP3    H122734   3.514   0.317   5.782
 7590TIP3    H222735   3.555   0.330   5.637
 7591TIP3   OH222736   5.792   4.861   2.410
 7591TIP3    H122737   5.886   4.875   2.406
 7591TIP3    H222738   5.767   4.890   2.498
 7592TIP3   OH222739   4.052   6.558   1.070
 7592TIP3    H122740   4.007   6.479   1.100
 7592TIP3    H222741   4.069   6.542   0.977
 7593TIP3   OH222742   5.933   3.394   5.663
 7593TIP3    H122743   5.981   3.327   5.614
 7593TIP3    H222744   5.877   3.344   5.723
 7594TIP3   OH222745   6.730   5.962   2.404
 7594TIP3    H122746   6.636   5.951   2.389
 7594TIP3    H222747   6.759   6.019   2.332
 7595TIP3   OH222748   0.039   3.980   3.919
 7595TIP3    H122749   0.063   3.894   3.952
 7595TIP3    H222750  -0.039   3.965   3.867
 7596TIP3   OH222751   0.434   4.669   5.705
 7596TIP3    H122752   0.479   4.638   5.626
 7596TIP3    H222753   0.447   4.764   5.704
 7597TIP3   OH222754   5.183   5.927   2.082
 7597TIP3    H122755   5.164   5.895   1.994
 7597TIP3    H222756   5.249   5.995   2.070
 7598TIP3   OH222757   1.301   5.442   2.193
 7598TIP3    H122758   1.314   5.350   2.215
 7598TIP3    H222759   1.377   5.486   2.232
 7599TIP3   OH222760   6.204   2.933   1.408
 7599TIP3    H122761   6.181   2.978   1.490
 7599TIP3    H222762   6.280   2.880   1.431
 7600TIP3   OH222763   5.790   6.144   0.217
 7600TIP3    H122764   5.875   6.181   0.194
 7600TIP3    H222765   5.740   6.217   0.254
 7601TIP3   OH222766   5.454   2.777   5.324
 7601TIP3    H122767   5.494   2.733   5.249
 7601TIP3    H222768   5.527   2.790   5.385
 7602TIP3   OH222769   0.633   4.767   1.464
 7602TIP3    H122770   0.547   4.726   1.474
 7602TIP3    H222771   0.646   4.774   1.370
 7603TIP3   OH222772   6.104   5.975   3.390
 7603TIP3    H122773   6.075   6.032   3.319
 7603TIP3    H222774   6.074   6.018   3.470
 7604TIP3   OH222775   3.296   5.399   5.280
 7604TIP3    H122776   3.216   5.408   5.228
 7604TIP3    H222777   3.286   5.315   5.325
 7605TIP3   OH222778   4.511   5.203   0.056
 7605TIP3    H122779   4.585   5.260   0.034
 7605TIP3    H222780   4.477   5.238   0.139
 7606TIP3   OH222781   5.768   2.730   2.669
 7606TIP3    H122782   5.772   2.652   2.614
 7606TIP3    H222783   5.845   2.781   2.645
 7607TIP3   OH222784   7.036   0.279   5.101
 7607TIP3    H122785   7.115   0.325   5.071
 7607TIP3    H222786   7.067   0.221   5.171
 7608TIP3   OH222787   0.315   1.647   0.977
 7608TIP3    H122788   0.400   1.633   0.938
 7608TIP3    H222789   0.323   1.730   1.024
 7609TIP3   OH222790   6.684   3.311   3.038
 7609TIP3    H122791   6.751   3.243   3.047
 7609TIP3    H222792   6.730   3.393   3.053
 7610TIP3   OH222793   2.860   3.772   4.623
 7610TIP3    H122794   2.952   3.751   4.603
 7610TIP3    H222795   2.814   3.758   4.540
 7611TIP3   OH222796   0.525   1.678   2.049
 7611TIP3    H122797   0.441   1.658   2.007
 7611TIP3    H222798   0.504   1.683   2.142
 7612TIP3   OH222799   2.037   2.761   2.124
 7612TIP3    H122800   1.958   2.814   2.115
 7612TIP3    H222801   2.021   2.707   2.201
 7613TIP3   OH222802   5.279   0.147   1.836
 7613TIP3    H122803   5.353   0.206   1.846
 7613TIP3    H222804   5.225   0.163   1.913
 7614TIP3   OH222805   5.937   0.646   1.506
 7614TIP3    H122806   5.978   0.693   1.433
 7614TIP3    H222807   5.914   0.560   1.469
 7615TIP3   OH222808   1.564   0.317   2.920
 7615TIP3    H122809   1.532   0.240   2.967
 7615TIP3    H222810   1.507   0.324   2.843
 7616TIP3   OH222811   3.318   5.496   1.946
 7616TIP3    H122812   3.245   5.549   1.914
 7616TIP3    H222813   3.363   5.554   2.008
 7617TIP3   OH222814   5.143   2.476   1.218
 7617TIP3    H122815   5.104   2.416   1.155
 7617TIP3    H222816   5.068   2.525   1.254
 7618TIP3   OH222817   1.660   5.842   3.402
 7618TIP3    H122818   1.599   5.814   3.333
 7618TIP3    H222819   1.724   5.771   3.407
 7619TIP3   OH222820   4.383   0.991   0.540
 7619TIP3    H122821   4.390   0.909   0.590
 7619TIP3    H222822   4.408   0.968   0.451
 7620TIP3   OH222823   2.110   5.659   4.590
 7620TIP3    H122824   2.165   5.645   4.513
 7620TIP3    H222825   2.128   5.583   4.646
 7621TIP3   OH222826   5.111   0.422   4.051
 7621TIP3    H122827   5.158   0.417   4.134
 7621TIP3    H222828   5.128   0.337   4.009
 7622TIP3   OH222829   6.316   6.293   1.299
 7622TIP3    H122830   6.354   6.276   1.385
 7622TIP3    H222831   6.373   6.359   1.260
 7623TIP3   OH222832   6.986   2.510   0.189
 7623TIP3    H122833   7.008   2.429   0.235
 7623TIP3    H222834   7.026   2.500   0.103
 7624TIP3   OH222835   6.719   3.162   5.077
 7624TIP3    H122836   6.655   3.187   5.010
 7624TIP3    H222837   6.667   3.145   5.155
 7625TIP3   OH222838   3.692   5.830   5.117
 7625TIP3    H122839   3.668   5.765   5.050
 7625TIP3    H222840   3.631   5.902   5.103
 7626TIP3   OH222841   4.632   6.561   1.079
 7626TIP3    H122842   4.645   6.552   0.985
 7626TIP3    H222843   4.677   6.642   1.102
 7627TIP3   OH222844   2.846   4.746   0.729
 7627TIP3    H122845   2.805   4.754   0.816
 7627TIP3    H222846   2.786   4.691   0.679
 7628TIP3   OH222847   4.123   0.176   5.645
 7628TIP3    H122848   4.181   0.218   5.708
 7628TIP3    H222849   4.169   0.182   5.561
 7629TIP3   OH222850   6.758   6.023   1.968
 7629TIP3    H122851   6.706   6.061   2.038
 7629TIP3    H222852   6.698   6.018   1.893
 7630TIP3   OH222853   5.811   4.178   2.594
 7630TIP3    H122854   5.780   4.148   2.679
 7630TIP3    H222855   5.849   4.264   2.611
 7631TIP3   OH222856   3.720   5.603   1.726
 7631TIP3    H122857   3.809   5.625   1.699
 7631TIP3    H222858   3.694   5.677   1.781
 7632TIP3   OH222859   2.051   1.307   5.291
 7632TIP3    H122860   2.005   1.274   5.214
 7632TIP3    H222861   2.096   1.385   5.260
 7633TIP3   OH222862   2.949   3.370   3.659
 7633TIP3    H122863   2.890   3.409   3.595
 7633TIP3    H222864   2.913   3.395   3.744
 7634TIP3   OH222865   5.417   5.539   4.809
 7634TIP3    H122866   5.339   5.592   4.797
 7634TIP3    H222867   5.489   5.602   4.810
 7635TIP3   OH222868   5.067   0.245   0.535
 7635TIP3    H122869   5.026   0.237   0.622
 7635TIP3    H222870   5.133   0.176   0.534
 7636TIP3   OH222871   0.472   1.605   1.339
 7636TIP3    H122872   0.509   1.554   1.411
 7636TIP3    H222873   0.533   1.677   1.326
 7637TIP3   OH222874   2.379   5.852   3.696
 7637TIP3    H122875   2.465   5.820   3.724
 7637TIP3    H222876   2.341   5.779   3.648
 7638TIP3   OH222877   4.334   5.839   1.399
 7638TIP3    H122878   4.390   5.779   1.349
 7638TIP3    H222879   4.292   5.894   1.332
 7639TIP3   OH222880   4.525   2.067   5.112
 7639TIP3    H122881   4.533   2.136   5.177
 7639TIP3    H222882   4.614   2.038   5.096
 7640TIP3   OH222883   2.588   0.882   4.067
 7640TIP3    H122884   2.603   0.975   4.054
 7640TIP3    H222885   2.647   0.838   4.006
 7641TIP3   OH222886   4.022   6.228   4.524
 7641TIP3    H122887   4.101   6.276   4.550
 7641TIP3    H222888   3.965   6.231   4.601
 7642TIP3   OH222889   1.559   3.409   1.058
 7642TIP3    H122890   1.552   3.405   0.963
 7642TIP3    H222891   1.649   3.437   1.074
 7643TIP3   OH222892   7.063   4.464   5.356
 7643TIP3    H122893   7.027   4.478   5.268
 7643TIP3    H222894   7.130   4.531   5.365
 7644TIP3   OH222895   1.534   5.512   1.010
 7644TIP3    H122896   1.616   5.550   1.042
 7644TIP3    H222897   1.480   5.502   1.088
 7645TIP3   OH222898   1.788   0.980   1.105
 7645TIP3    H122899   1.817   0.898   1.144
 7645TIP3    H222900   1.861   1.007   1.050
 7646TIP3   OH222901   4.496   5.673   4.114
 7646TIP3    H122902   4.566   5.707   4.059
 7646TIP3    H222903   4.507   5.720   4.197
 7647TIP3   OH222904   5.002   4.732   2.833
 7647TIP3    H122905   5.061   4.782   2.889
 7647TIP3    H222906   4.951   4.798   2.786
 7648TIP3   OH222907   1.074   6.119   1.583
 7648TIP3    H122908   1.160   6.158   1.569
 7648TIP3    H222909   1.076   6.037   1.534
 7649TIP3   OH222910   5.556   0.207   4.340
 7649TIP3    H122911   5.575   0.273   4.407
 7649TIP3    H222912   5.610   0.132   4.366
 7650TIP3   OH222913   0.260   3.917   5.229
 7650TIP3    H122914   0.247   4.011   5.242
 7650TIP3    H222915   0.182   3.888   5.182
 7651TIP3   OH222916   2.695   1.037   0.410
 7651TIP3    H122917   2.711   1.131   0.423
 7651TIP3    H222918   2.693   1.000   0.498
 7652TIP3   OH222919   6.469   2.578   4.178
 7652TIP3    H122920   6.404   2.621   4.234
 7652TIP3    H222921   6.503   2.649   4.123
 7653TIP3   OH222922   0.535   2.628   0.848
 7653TIP3    H122923   0.504   2.657   0.934
 7653TIP3    H222924   0.544   2.709   0.797
 7654TIP3   OH222925   2.866   1.909   1.895
 7654TIP3    H122926   2.915   1.988   1.870
 7654TIP3    H222927   2.789   1.910   1.838
 7655TIP3   OH222928   5.541   1.743   0.308
 7655TIP3    H122929   5.636   1.732   0.307
 7655TIP3    H222930   5.527   1.837   0.298
 7656TIP3   OH222931   0.549   5.041   3.623
 7656TIP3    H122932   0.579   5.084   3.703
 7656TIP3    H222933   0.551   4.948   3.645
 7657TIP3   OH222934   6.406   4.299   4.202
 7657TIP3    H122935   6.425   4.261   4.288
 7657TIP3    H222936   6.385   4.390   4.220
 7658TIP3   OH222937   5.785   4.720   2.910
 7658TIP3    H122938   5.735   4.650   2.868
 7658TIP3    H222939   5.844   4.674   2.970
 7659TIP3   OH222940   0.931   2.861   4.529
 7659TIP3    H122941   1.004   2.922   4.540
 7659TIP3    H222942   0.895   2.881   4.443
 7660TIP3   OH222943   1.954   4.151   1.922
 7660TIP3    H122944   2.043   4.183   1.913
 7660TIP3    H222945   1.900   4.215   1.874
 7661TIP3   OH222946   7.043   6.573   3.145
 7661TIP3    H122947   7.090   6.627   3.081
 7661TIP3    H222948   7.084   6.487   3.139
 7662TIP3   OH222949   3.428   2.274   1.383
 7662TIP3    H122950   3.424   2.357   1.337
 7662TIP3    H222951   3.417   2.208   1.315
 7663TIP3   OH222952   5.303   2.322   4.349
 7663TIP3    H122953   5.229   2.308   4.409
 7663TIP3    H222954   5.298   2.250   4.287
 7664TIP3   OH222955   2.149   4.274   1.524
 7664TIP3    H122956   2.231   4.300   1.481
 7664TIP3    H222957   2.172   4.196   1.574
 7665TIP3   OH222958   5.587   3.062   4.254
 7665TIP3    H122959   5.673   3.045   4.215
 7665TIP3    H222960   5.605   3.123   4.326
 7666TIP3   OH222961   5.446   0.038   0.908
 7666TIP3    H122962   5.401  -0.046   0.909
 7666TIP3    H222963   5.535   0.018   0.938
 7667TIP3   OH222964   4.604   3.472   2.319
 7667TIP3    H122965   4.675   3.533   2.341
 7667TIP3    H222966   4.647   3.386   2.315
 7668TIP3   OH222967   4.364   4.481   5.784
 7668TIP3    H122968   4.344   4.575   5.788
 7668TIP3    H222969   4.327   4.446   5.865
 7669TIP3   OH222970   1.085   3.252   5.645
 7669TIP3    H122971   1.054   3.212   5.563
 7669TIP3    H222972   1.052   3.193   5.713
 7670TIP3   OH222973   6.013   5.042   1.312
 7670TIP3    H122974   6.061   5.043   1.229
 7670TIP3    H222975   5.922   5.057   1.287
 7671TIP3   OH222976   0.439   3.908   0.693
 7671TIP3    H122977   0.533   3.922   0.680
 7671TIP3    H222978   0.434   3.834   0.753
 7672TIP3   OH222979   6.922   1.723   2.888
 7672TIP3    H122980   6.878   1.808   2.900
 7672TIP3    H222981   7.004   1.745   2.843
 7673TIP3   OH222982   2.760   4.741   0.994
 7673TIP3    H122983   2.707   4.817   0.971
 7673TIP3    H222984   2.697   4.673   1.018
 7674TIP3   OH222985   4.806   3.486   1.722
 7674TIP3    H122986   4.761   3.563   1.756
 7674TIP3    H222987   4.736   3.422   1.707
 7675TIP3   OH222988   6.777   6.677   4.063
 7675TIP3    H122989   6.864   6.715   4.054
 7675TIP3    H222990   6.756   6.687   4.156
 7676TIP3   OH222991   0.260   4.006   3.758
 7676TIP3    H122992   0.240   4.098   3.736
 7676TIP3    H222993   0.183   3.976   3.806
 7677TIP3   OH222994   1.119   2.216   3.673
 7677TIP3    H122995   1.206   2.179   3.688
 7677TIP3    H222996   1.109   2.283   3.740
 7678TIP3   OH222997   6.255   4.923   5.563
 7678TIP3    H122998   6.343   4.907   5.597
 7678TIP3    H222999   6.239   4.851   5.502
 7679TIP3   OH223000   2.214   4.740   3.296
 7679TIP3    H123001   2.241   4.684   3.369
 7679TIP3    H223002   2.131   4.778   3.324
 7680TIP3   OH223003   2.546   2.064   0.085
 7680TIP3    H123004   2.617   2.030   0.140
 7680TIP3    H223005   2.582   2.142   0.044
 7681TIP3   OH223006   5.099   3.094   2.246
 7681TIP3    H123007   5.059   3.170   2.286
 7681TIP3    H223008   5.026   3.040   2.216
 7682TIP3   OH223009   2.734   0.473   0.946
 7682TIP3    H123010   2.679   0.427   1.009
 7682TIP3    H223011   2.797   0.522   1.000
 7683TIP3   OH223012   5.800   3.982   1.486
 7683TIP3    H123013   5.767   3.948   1.569
 7683TIP3    H223014   5.747   4.060   1.469
 7684TIP3   OH223015   4.418   3.774   1.351
 7684TIP3    H123016   4.372   3.836   1.294
 7684TIP3    H223017   4.407   3.810   1.439
 7685TIP3   OH223018   3.521   5.295   3.682
 7685TIP3    H123019   3.500   5.331   3.769
 7685TIP3    H223020   3.500   5.202   3.689
 7686TIP3   OH223021   2.709   5.337   1.558
 7686TIP3    H123022   2.782   5.313   1.615
 7686TIP3    H223023   2.704   5.433   1.566
 7687TIP3   OH223024   3.479   5.386   4.183
 7687TIP3    H123025   3.408   5.371   4.245
 7687TIP3    H223026   3.558   5.379   4.236
 7688TIP3   OH223027   7.048   0.615   4.998
 7688TIP3    H123028   7.091   0.695   5.026
 7688TIP3    H223029   7.112   0.545   5.015
 7689TIP3   OH223030   6.365   4.461   1.402
 7689TIP3    H123031   6.306   4.405   1.453
 7689TIP3    H223032   6.313   4.491   1.328
 7690TIP3   OH223033   0.428   5.334   0.078
 7690TIP3    H123034   0.416   5.336  -0.017
 7690TIP3    H223035   0.447   5.242   0.097
 7691TIP3   OH223036   6.962   1.253   3.501
 7691TIP3    H123037   6.985   1.268   3.410
 7691TIP3    H223038   7.039   1.282   3.551
 7692TIP3   OH223039   7.067   1.156   5.452
 7692TIP3    H123040   6.978   1.161   5.418
 7692TIP3    H223041   7.060   1.099   5.529
 7693TIP3   OH223042   5.883   2.638   4.089
 7693TIP3    H123043   5.955   2.646   4.026
 7693TIP3    H223044   5.903   2.560   4.140
 7694TIP3   OH223045   3.836   2.122   3.046
 7694TIP3    H123046   3.881   2.038   3.051
 7694TIP3    H223047   3.815   2.132   2.953
 7695TIP3   OH223048   1.139   0.995   4.455
 7695TIP3    H123049   1.157   0.934   4.383
 7695TIP3    H223050   1.081   0.946   4.514
 7696TIP3   OH223051   0.088   1.117   5.088
 7696TIP3    H123052   0.147   1.152   5.021
 7696TIP3    H223053   0.099   1.176   5.163
 7697TIP3   OH223054   2.643   5.042   3.339
 7697TIP3    H123055   2.565   4.995   3.367
 7697TIP3    H223056   2.667   5.002   3.255
 7698TIP3   OH223057   3.441   3.399   1.450
 7698TIP3    H123058   3.478   3.470   1.503
 7698TIP3    H223059   3.507   3.330   1.453
 7699TIP3   OH223060   1.223   4.773   1.339
 7699TIP3    H123061   1.223   4.681   1.312
 7699TIP3    H223062   1.131   4.799   1.335
 7700TIP3   OH223063   5.437   2.943   1.761
 7700TIP3    H123064   5.409   2.976   1.846
 7700TIP3    H223065   5.471   2.855   1.778
 7701TIP3   OH223066   0.336   5.255   2.982
 7701TIP3    H123067   0.337   5.163   3.008
 7701TIP3    H223068   0.426   5.285   2.995
 7702TIP3   OH223069   6.077   0.768   0.797
 7702TIP3    H123070   6.159   0.755   0.844
 7702TIP3    H223071   6.010   0.732   0.855
 7703TIP3   OH223072   6.771   5.246   4.387
 7703TIP3    H123073   6.825   5.209   4.457
 7703TIP3    H223074   6.811   5.213   4.306
 7704TIP3   OH223075   2.648   3.573   5.301
 7704TIP3    H123076   2.691   3.565   5.216
 7704TIP3    H223077   2.640   3.668   5.314
 7705TIP3   OH223078   6.013   3.655   2.012
 7705TIP3    H123079   6.069   3.723   2.050
 7705TIP3    H223080   6.001   3.681   1.921
 7706TIP3   OH223081   1.571   2.152   0.198
 7706TIP3    H123082   1.584   2.060   0.221
 7706TIP3    H223083   1.478   2.168   0.209
 7707TIP3   OH223084   5.442   5.934   1.517
 7707TIP3    H123085   5.460   6.017   1.562
 7707TIP3    H223086   5.398   5.880   1.583
 7708TIP3   OH223087   2.561   6.551   4.351
 7708TIP3    H123088   2.483   6.585   4.395
 7708TIP3    H223089   2.627   6.619   4.363
 7709TIP3   OH223090   0.954   3.671   0.352
 7709TIP3    H123091   0.965   3.605   0.421
 7709TIP3    H223092   1.013   3.742   0.377
 7710TIP3   OH223093   3.924   5.027   5.280
 7710TIP3    H123094   3.934   5.114   5.242
 7710TIP3    H223095   3.933   4.967   5.206
 7711TIP3   OH223096   1.880   5.327   5.791
 7711TIP3    H123097   1.842   5.413   5.773
 7711TIP3    H223098   1.848   5.304   5.879
 7712TIP3   OH223099   4.653   2.627   5.808
 7712TIP3    H123100   4.614   2.713   5.817
 7712TIP3    H223101   4.610   2.589   5.731
 7713TIP3   OH223102   6.860   1.405   4.681
 7713TIP3    H123103   6.845   1.341   4.751
 7713TIP3    H223104   6.773   1.425   4.648
 7714TIP3   OH223105   1.052   6.120   0.731
 7714TIP3    H123106   1.067   6.027   0.745
 7714TIP3    H223107   0.957   6.128   0.720
 7715TIP3   OH223108   2.557   3.806   1.481
 7715TIP3    H123109   2.508   3.888   1.472
 7715TIP3    H223110   2.581   3.803   1.574
 7716TIP3   OH223111   5.433   0.199   1.273
 7716TIP3    H123112   5.503   0.212   1.210
 7716TIP3    H223113   5.358   0.172   1.221
 7717TIP3   OH223114   3.459   2.166   3.873
 7717TIP3    H123115   3.441   2.260   3.869
 7717TIP3    H223116   3.474   2.148   3.965
 7718TIP3   OH223117   4.468   1.474   4.944
 7718TIP3    H123118   4.406   1.536   4.983
 7718TIP3    H223119   4.423   1.439   4.868
 7719TIP3   OH223120   0.442   5.766   0.268
 7719TIP3    H123121   0.522   5.734   0.310
 7719TIP3    H223122   0.443   5.860   0.284
 7720TIP3   OH223123   3.579   5.874   2.471
 7720TIP3    H123124   3.655   5.893   2.417
 7720TIP3    H223125   3.505   5.875   2.410
 7721TIP3   OH223126   1.591   4.134   3.892
 7721TIP3    H123127   1.554   4.184   3.820
 7721TIP3    H223128   1.565   4.182   3.971
 7722TIP3   OH223129   5.629   1.064   3.857
 7722TIP3    H123130   5.539   1.034   3.874
 7722TIP3    H223131   5.654   1.018   3.776
 7723TIP3   OH223132   0.608   3.442   5.711
 7723TIP3    H123133   0.685   3.404   5.668
 7723TIP3    H223134   0.580   3.375   5.773
 7724TIP3   OH223135   1.660   0.759   0.642
 7724TIP3    H123136   1.599   0.808   0.696
 7724TIP3    H223137   1.746   0.774   0.683
 7725TIP3   OH223138   1.374   2.730   1.485
 7725TIP3    H123139   1.417   2.810   1.454
 7725TIP3    H223140   1.401   2.663   1.422
 7726TIP3   OH223141   1.928   1.151   1.911
 7726TIP3    H123142   1.877   1.225   1.877
 7726TIP3    H223143   2.015   1.186   1.926
 7727TIP3   OH223144   2.422   3.041   3.473
 7727TIP3    H123145   2.447   3.133   3.462
 7727TIP3    H223146   2.347   3.043   3.533
 7728TIP3   OH223147   1.541   1.725   4.079
 7728TIP3    H123148   1.623   1.749   4.123
 7728TIP3    H223149   1.485   1.691   4.148
 7729TIP3   OH223150   6.336   4.576   3.487
 7729TIP3    H123151   6.344   4.491   3.443
 7729TIP3    H223152   6.278   4.559   3.561
 7730TIP3   OH223153   0.568   3.804   5.552
 7730TIP3    H123154   0.612   3.848   5.480
 7730TIP3    H223155   0.600   3.714   5.548
 7731TIP3   OH223156   0.177   2.121   2.760
 7731TIP3    H123157   0.232   2.062   2.813
 7731TIP3    H223158   0.110   2.152   2.821
 7732TIP3   OH223159   4.403   6.154   0.502
 7732TIP3    H123160   4.342   6.083   0.483
 7732TIP3    H223161   4.482   6.110   0.534
 7733TIP3   OH223162   4.360   3.440   3.816
 7733TIP3    H123163   4.358   3.434   3.912
 7733TIP3    H223164   4.445   3.403   3.791
 7734TIP3   OH223165   3.484   2.997   5.839
 7734TIP3    H123166   3.537   2.980   5.916
 7734TIP3    H223167   3.469   3.091   5.839
 7735TIP3   OH223168   0.283   1.431   0.100
 7735TIP3    H123169   0.239   1.514   0.122
 7735TIP3    H223170   0.314   1.397   0.184
 7736TIP3   OH223171   4.343   0.206   0.977
 7736TIP3    H123172   4.339   0.222   0.883
 7736TIP3    H223173   4.308   0.287   1.016
 7737TIP3   OH223174   6.367   2.191   0.634
 7737TIP3    H123175   6.340   2.255   0.567
 7737TIP3    H223176   6.385   2.244   0.712
 7738TIP3   OH223177   1.286   0.307   4.974
 7738TIP3    H123178   1.258   0.220   4.945
 7738TIP3    H223179   1.381   0.300   4.984
 7739TIP3   OH223180   4.777   3.207   2.421
 7739TIP3    H123181   4.701   3.161   2.456
 7739TIP3    H223182   4.814   3.254   2.497
 7740TIP3   OH223183   0.884   1.141   0.342
 7740TIP3    H123184   0.972   1.175   0.326
 7740TIP3    H223185   0.839   1.149   0.257
 7741TIP3   OH223186   0.887   2.483   4.774
 7741TIP3    H123187   0.898   2.388   4.763
 7741TIP3    H223188   0.838   2.511   4.697
 7742TIP3   OH223189   4.259   5.260   1.632
 7742TIP3    H123190   4.248   5.340   1.579
 7742TIP3    H223191   4.350   5.263   1.661
 7743TIP3   OH223192   6.033   4.233   5.008
 7743TIP3    H123193   6.025   4.314   5.058
 7743TIP3    H223194   6.098   4.181   5.056
 7744TIP3   OH223195   5.005   0.215   4.286
 7744TIP3    H123196   5.085   0.263   4.307
 7744TIP3    H223197   4.943   0.239   4.355
 7745TIP3   OH223198   0.963   1.138   1.618
 7745TIP3    H123199   0.953   1.065   1.680
 7745TIP3    H223200   0.906   1.115   1.545
 7746TIP3   OH223201   2.150   4.999   3.439
 7746TIP3    H123202   2.159   5.029   3.348
 7746TIP3    H223203   2.125   5.077   3.488
 7747TIP3   OH223204   0.747   4.996   3.112
 7747TIP3    H123205   0.732   5.066   3.176
 7747TIP3    H223206   0.756   5.042   3.029
 7748TIP3   OH223207   6.849   1.661   4.823
 7748TIP3    H123208   6.756   1.682   4.820
 7748TIP3    H223209   6.856   1.577   4.777
 7749TIP3   OH223210   3.004   5.554   0.991
 7749TIP3    H123211   3.018   5.464   1.021
 7749TIP3    H223212   3.091   5.584   0.965
 7750TIP3   OH223213   7.192   2.127   0.041
 7750TIP3    H123214   7.235   2.181  -0.026
 7750TIP3    H223215   7.123   2.081  -0.007
 7751TIP3   OH223216   4.019   4.272   2.292
 7751TIP3    H123217   4.046   4.233   2.209
 7751TIP3    H223218   4.101   4.288   2.339
 7752TIP3   OH223219   4.367   4.564   3.481
 7752TIP3    H123220   4.290   4.560   3.425
 7752TIP3    H223221   4.377   4.475   3.516
 7753TIP3   OH223222   6.243   4.722   4.069
 7753TIP3    H123223   6.170   4.721   4.131
 7753TIP3    H223224   6.309   4.667   4.110
 7754TIP3   OH223225   2.964   5.459   4.391
 7754TIP3    H123226   2.948   5.438   4.483
 7754TIP3    H223227   2.882   5.437   4.347
 7755TIP3   OH223228   5.009   2.677   4.841
 7755TIP3    H123229   5.038   2.668   4.750
 7755TIP3    H223230   5.090   2.692   4.890
 7756TIP3   OH223231   1.208   2.812   5.570
 7756TIP3    H123232   1.207   2.766   5.486
 7756TIP3    H223233   1.269   2.762   5.624
 7757TIP3   OH223234   3.784   6.511   1.292
 7757TIP3    H123235   3.790   6.606   1.277
 7757TIP3    H223236   3.693   6.490   1.274
 7758TIP3   OH223237   1.463   0.064   2.995
 7758TIP3    H123238   1.491  -0.021   3.029
 7758TIP3    H223239   1.380   0.081   3.040
 7759TIP3   OH223240   3.099   0.511   1.619
 7759TIP3    H123241   3.152   0.588   1.596
 7759TIP3    H223242   3.017   0.547   1.651
 7760TIP3   OH223243   3.481   1.016   0.424
 7760TIP3    H123244   3.402   1.049   0.467
 7760TIP3    H223245   3.548   1.016   0.493
 7761TIP3   OH223246   5.134   3.330   0.431
 7761TIP3    H123247   5.104   3.408   0.385
 7761TIP3    H223248   5.184   3.364   0.506
 7762TIP3   OH223249   1.158   0.680   5.313
 7762TIP3    H123250   1.203   0.648   5.235
 7762TIP3    H223251   1.072   0.638   5.309
 7763TIP3   OH223252   2.735   6.721   4.910
 7763TIP3    H123253   2.703   6.654   4.849
 7763TIP3    H223254   2.701   6.803   4.874
 7764TIP3   OH223255   2.730   4.558   0.577
 7764TIP3    H123256   2.788   4.489   0.545
 7764TIP3    H223257   2.647   4.514   0.596
 7765TIP3   OH223258   6.824   1.867   1.441
 7765TIP3    H123259   6.862   1.877   1.528
 7765TIP3    H223260   6.871   1.792   1.402
 7766TIP3   OH223261   1.840   4.325   0.701
 7766TIP3    H123262   1.858   4.312   0.608
 7766TIP3    H223263   1.923   4.306   0.745
 7767TIP3   OH223264   2.966   1.215   0.809
 7767TIP3    H123265   2.948   1.211   0.903
 7767TIP3    H223266   2.974   1.309   0.790
 7768TIP3   OH223267   3.605   2.308   1.070
 7768TIP3    H123268   3.649   2.385   1.033
 7768TIP3    H223269   3.540   2.345   1.130
 7769TIP3   OH223270   5.480   1.482   2.918
 7769TIP3    H123271   5.553   1.466   2.978
 7769TIP3    H223272   5.456   1.574   2.933
 7770TIP3   OH223273   3.450   3.510   1.894
 7770TIP3    H123274   3.534   3.491   1.852
 7770TIP3    H223275   3.467   3.501   1.987
 7771TIP3   OH223276   1.043   4.131   1.373
 7771TIP3    H123277   0.992   4.050   1.362
 7771TIP3    H223278   1.078   4.125   1.462
 7772TIP3   OH223279   2.095   6.499   2.225
 7772TIP3    H123280   2.069   6.543   2.306
 7772TIP3    H223281   2.110   6.408   2.251
 7773TIP3   OH223282   1.878   6.711   4.880
 7773TIP3    H123283   1.860   6.801   4.851
 7773TIP3    H223284   1.948   6.720   4.944
 7774TIP3   OH223285   6.865   0.959   3.953
 7774TIP3    H123286   6.878   0.891   3.887
 7774TIP3    H223287   6.782   0.937   3.994
 7775TIP3   OH223288   4.748   6.670   5.109
 7775TIP3    H123289   4.800   6.686   5.187
 7775TIP3    H223290   4.708   6.584   5.124
 7776TIP3   OH223291   3.698   2.911   5.405
 7776TIP3    H123292   3.766   2.845   5.393
 7776TIP3    H223293   3.686   2.916   5.499
 7777TIP3   OH223294   6.339   1.618   3.180
 7777TIP3    H123295   6.411   1.640   3.120
 7777TIP3    H223296   6.329   1.695   3.235
 7778TIP3   OH223297   5.191   4.860   1.906
 7778TIP3    H123298   5.119   4.867   1.968
 7778TIP3    H223299   5.149   4.857   1.820
 7779TIP3   OH223300   3.010   3.041   1.922
 7779TIP3    H123301   3.021   3.130   1.954
 7779TIP3    H223302   3.074   2.989   1.971
 7780TIP3   OH223303   6.023   1.691   3.509
 7780TIP3    H123304   6.090   1.700   3.577
 7780TIP3    H223305   6.069   1.651   3.436
 7781TIP3   OH223306   2.335   5.350   5.025
 7781TIP3    H123307   2.315   5.284   4.958
 7781TIP3    H223308   2.251   5.391   5.044
 7782TIP3   OH223309   1.537   4.335   3.663
 7782TIP3    H123310   1.446   4.334   3.635
 7782TIP3    H223311   1.587   4.340   3.582
 7783TIP3   OH223312   0.448   6.744   1.413
 7783TIP3    H123313   0.462   6.665   1.465
 7783TIP3    H223314   0.442   6.814   1.478
 7784TIP3   OH223315   3.378   0.068   0.509
 7784TIP3    H123316   3.304   0.117   0.544
 7784TIP3    H223317   3.439   0.060   0.582
 7785TIP3   OH223318   3.292   4.995   4.651
 7785TIP3    H123319   3.386   4.985   4.634
 7785TIP3    H223320   3.252   4.992   4.564
 7786TIP3   OH223321   0.318   3.693   2.971
 7786TIP3    H123322   0.379   3.749   3.019
 7786TIP3    H223323   0.374   3.641   2.913
 7787TIP3   OH223324   1.089   2.623   5.787
 7787TIP3    H123325   1.017   2.680   5.813
 7787TIP3    H223326   1.129   2.595   5.870
 7788TIP3   OH223327   4.376   5.114   2.328
 7788TIP3    H123328   4.347   5.025   2.350
 7788TIP3    H223329   4.449   5.101   2.267
 7789TIP3   OH223330   4.787   1.725   3.725
 7789TIP3    H123331   4.818   1.769   3.805
 7789TIP3    H223332   4.704   1.767   3.706
 7790TIP3   OH223333   4.348   5.242   0.925
 7790TIP3    H123334   4.272   5.297   0.904
 7790TIP3    H223335   4.325   5.156   0.890
 7791TIP3   OH223336   5.666   2.008   4.745
 7791TIP3    H123337   5.606   2.076   4.775
 7791TIP3    H223338   5.752   2.050   4.746
 7792TIP3   OH223339   3.960   0.696   2.509
 7792TIP3    H123340   3.875   0.732   2.535
 7792TIP3    H223341   3.959   0.699   2.413
 7793TIP3   OH223342   0.016   2.087   5.743
 7793TIP3    H123343  -0.008   1.999   5.715
 7793TIP3    H223344  -0.030   2.145   5.681
 7794TIP3   OH223345   0.413   4.214   4.397
 7794TIP3    H123346   0.346   4.169   4.449
 7794TIP3    H223347   0.432   4.294   4.446
 7795TIP3   OH223348   5.346   3.306   1.770
 7795TIP3    H123349   5.261   3.297   1.812
 7795TIP3    H223350   5.385   3.219   1.775
 7796TIP3   OH223351   3.697   4.119   3.446
 7796TIP3    H123352   3.733   4.192   3.396
 7796TIP3    H223353   3.773   4.065   3.466
 7797TIP3   OH223354   0.201   5.798   4.164
 7797TIP3    H123355   0.130   5.792   4.101
 7797TIP3    H223356   0.273   5.837   4.115
 7798TIP3   OH223357   5.667   1.462   2.580
 7798TIP3    H123358   5.725   1.463   2.656
 7798TIP3    H223359   5.721   1.428   2.509
 7799TIP3   OH223360   0.216   6.370   1.962
 7799TIP3    H123361   0.126   6.351   1.987
 7799TIP3    H223362   0.212   6.386   1.868
 7800TIP3   OH223363   6.773   4.155   5.157
 7800TIP3    H123364   6.763   4.206   5.076
 7800TIP3    H223365   6.766   4.064   5.129
 7801TIP3   OH223366   6.509   3.997   5.843
 7801TIP3    H123367   6.594   4.033   5.819
 7801TIP3    H223368   6.527   3.908   5.873
 7802TIP3   OH223369   5.785   6.698   5.799
 7802TIP3    H123370   5.717   6.741   5.747
 7802TIP3    H223371   5.846   6.768   5.822
 7803TIP3   OH223372   1.358   1.310   1.030
 7803TIP3    H123373   1.285   1.322   0.970
 7803TIP3    H223374   1.434   1.347   0.984
 7804TIP3   OH223375   4.219   1.105   2.018
 7804TIP3    H123376   4.197   1.149   2.100
 7804TIP3    H223377   4.232   1.014   2.043
 7805TIP3   OH223378   7.161   6.487   2.848
 7805TIP3    H123379   7.166   6.512   2.756
 7805TIP3    H223380   7.068   6.485   2.868
 7806TIP3   OH223381   1.374   4.999   4.163
 7806TIP3    H123382   1.435   5.013   4.090
 7806TIP3    H223383   1.327   5.083   4.170
 7807TIP3   OH223384   3.337   3.000   3.378
 7807TIP3    H123385   3.320   3.000   3.473
 7807TIP3    H223386   3.356   2.909   3.357
 7808TIP3   OH223387   1.009   6.401   2.461
 7808TIP3    H123388   0.946   6.363   2.400
 7808TIP3    H223389   1.007   6.495   2.443
 7809TIP3   OH223390   0.969   1.014   1.306
 7809TIP3    H123391   1.019   1.066   1.244
 7809TIP3    H223392   1.030   0.945   1.333
 7810TIP3   OH223393   4.111   2.552   2.732
 7810TIP3    H123394   4.031   2.522   2.775
 7810TIP3    H223395   4.104   2.518   2.642
 7811TIP3   OH223396   1.594   6.028   1.722
 7811TIP3    H123397   1.598   6.067   1.810
 7811TIP3    H223398   1.618   6.100   1.663
 7812TIP3   OH223399   5.179   0.120   1.178
 7812TIP3    H123400   5.166   0.037   1.132
 7812TIP3    H223401   5.094   0.141   1.216
 7813TIP3   OH223402   5.993   3.507   5.177
 7813TIP3    H123403   6.042   3.540   5.253
 7813TIP3    H223404   5.949   3.429   5.209
 7814TIP3   OH223405   0.244   4.732   5.524
 7814TIP3    H123406   0.186   4.776   5.585
 7814TIP3    H223407   0.290   4.667   5.576
 7815TIP3   OH223408   0.245   1.447   2.593
 7815TIP3    H123409   0.226   1.541   2.591
 7815TIP3    H223410   0.313   1.435   2.527
 7816TIP3   OH223411   2.392   3.806   1.757
 7816TIP3    H123412   2.360   3.812   1.847
 7816TIP3    H223413   2.487   3.813   1.764
 7817TIP3   OH223414   6.719   0.517   3.962
 7817TIP3    H123415   6.635   0.549   3.994
 7817TIP3    H223416   6.757   0.590   3.914
 7818TIP3   OH223417   4.998   3.557   0.265
 7818TIP3    H123418   4.903   3.566   0.257
 7818TIP3    H223419   5.025   3.510   0.187
 7819TIP3   OH223420   5.640   1.193   2.946
 7819TIP3    H123421   5.605   1.108   2.920
 7819TIP3    H223422   5.718   1.205   2.891
 7820TIP3   OH223423   6.279   4.663   2.437
 7820TIP3    H123424   6.332   4.652   2.516
 7820TIP3    H223425   6.201   4.611   2.454
 7821TIP3   OH223426   0.732   5.140   2.885
 7821TIP3    H123427   0.657   5.177   2.838
 7821TIP3    H223428   0.809   5.175   2.840
 7822TIP3   OH223429   4.822   3.660   3.104
 7822TIP3    H123430   4.912   3.680   3.131
 7822TIP3    H223431   4.780   3.629   3.185
 7823TIP3   OH223432   4.225   3.338   3.632
 7823TIP3    H123433   4.267   3.379   3.707
 7823TIP3    H223434   4.183   3.260   3.668
 7824TIP3   OH223435   0.878   0.310   5.091
 7824TIP3    H123436   0.858   0.241   5.154
 7824TIP3    H223437   0.825   0.289   5.014
 7825TIP3   OH223438   3.253   6.265   4.194
 7825TIP3    H123439   3.274   6.352   4.229
 7825TIP3    H223440   3.157   6.261   4.197
 7826TIP3   OH223441   1.387   4.567   5.538
 7826TIP3    H123442   1.295   4.576   5.566
 7826TIP3    H223443   1.388   4.603   5.449
 7827TIP3   OH223444   6.928   6.528   4.376
 7827TIP3    H123445   7.008   6.525   4.324
 7827TIP3    H223446   6.954   6.495   4.462
 7828TIP3   OH223447   2.713   2.257   5.386
 7828TIP3    H123448   2.738   2.207   5.309
 7828TIP3    H223449   2.620   2.238   5.398
 7829TIP3   OH223450   3.733   1.415   3.907
 7829TIP3    H123451   3.796   1.426   3.979
 7829TIP3    H223452   3.647   1.418   3.949
 7830TIP3   OH223453   3.231   4.663   3.485
 7830TIP3    H123454   3.214   4.599   3.554
 7830TIP3    H223455   3.255   4.610   3.409
 7831TIP3   OH223456   4.315   6.035   2.445
 7831TIP3    H123457   4.300   6.043   2.539
 7831TIP3    H223458   4.410   6.036   2.435
 7832TIP3   OH223459   6.651   1.507   5.851
 7832TIP3    H123460   6.690   1.594   5.843
 7832TIP3    H223461   6.593   1.500   5.775
 7833TIP3   OH223462   0.278   2.998   4.481
 7833TIP3    H123463   0.202   2.964   4.433
 7833TIP3    H223464   0.348   2.935   4.463
 7834TIP3   OH223465   1.518   0.653   4.949
 7834TIP3    H123466   1.500   0.601   4.870
 7834TIP3    H223467   1.601   0.618   4.982
 7835TIP3   OH223468   1.597   1.016   3.583
 7835TIP3    H123469   1.557   1.042   3.666
 7835TIP3    H223470   1.660   0.949   3.607
 7836TIP3   OH223471   7.090   4.954   3.498
 7836TIP3    H123472   7.149   4.964   3.423
 7836TIP3    H223473   7.017   4.903   3.463
 7837TIP3   OH223474   1.043   2.469   1.723
 7837TIP3    H123475   1.021   2.401   1.787
 7837TIP3    H223476   1.048   2.549   1.775
 7838TIP3   OH223477   6.510   1.288   3.350
 7838TIP3    H123478   6.548   1.350   3.413
 7838TIP3    H223479   6.577   1.279   3.282
 7839TIP3   OH223480   3.556   3.992   1.914
 7839TIP3    H123481   3.552   4.010   2.008
 7839TIP3    H223482   3.618   3.920   1.906
 7840TIP3   OH223483   2.425   4.261   0.028
 7840TIP3    H123484   2.418   4.259   0.123
 7840TIP3    H223485   2.351   4.314  -0.001
 7841TIP3   OH223486   1.777   5.145   1.151
 7841TIP3    H123487   1.694   5.152   1.104
 7841TIP3    H223488   1.756   5.092   1.228
 7842TIP3   OH223489   0.141   3.272   0.501
 7842TIP3    H123490   0.152   3.347   0.560
 7842TIP3    H223491   0.128   3.311   0.415
 7843TIP3   OH223492   2.935   5.961   1.017
 7843TIP3    H123493   2.982   5.950   0.934
 7843TIP3    H223494   2.870   5.891   1.018
 7844TIP3   OH223495   4.571   4.284   4.826
 7844TIP3    H123496   4.635   4.298   4.756
 7844TIP3    H223497   4.623   4.256   4.901
 7845TIP3   OH223498   6.896   5.080   1.171
 7845TIP3    H123499   6.834   5.119   1.110
 7845TIP3    H223500   6.919   5.151   1.231
 7846TIP3   OH223501   3.830   5.829   1.109
 7846TIP3    H123502   3.753   5.778   1.083
 7846TIP3    H223503   3.876   5.773   1.172
 7847TIP3   OH223504   5.525   5.589   5.550
 7847TIP3    H123505   5.472   5.624   5.621
 7847TIP3    H223506   5.487   5.503   5.531
 7848TIP3   OH223507   5.871   2.454   3.385
 7848TIP3    H123508   5.916   2.429   3.466
 7848TIP3    H223509   5.917   2.405   3.317
 7849TIP3   OH223510   1.225   4.158   2.830
 7849TIP3    H123511   1.255   4.244   2.802
 7849TIP3    H223512   1.295   4.098   2.804
 7850TIP3   OH223513   1.900   1.742   1.726
 7850TIP3    H123514   1.830   1.697   1.774
 7850TIP3    H223515   1.937   1.674   1.668
 7851TIP3   OH223516   0.686   0.407   1.249
 7851TIP3    H123517   0.598   0.384   1.219
 7851TIP3    H223518   0.678   0.497   1.279
 7852TIP3   OH223519   6.445   0.209   2.464
 7852TIP3    H123520   6.504   0.284   2.464
 7852TIP3    H223521   6.361   0.245   2.435
 7853TIP3   OH223522   0.303   3.469   1.976
 7853TIP3    H123523   0.253   3.546   2.002
 7853TIP3    H223524   0.264   3.397   2.026
 7854TIP3   OH223525   1.276   2.408   2.486
 7854TIP3    H123526   1.238   2.422   2.572
 7854TIP3    H223527   1.366   2.440   2.493
 7855TIP3   OH223528   4.311   5.574   0.968
 7855TIP3    H123529   4.319   5.540   1.057
 7855TIP3    H223530   4.233   5.629   0.970
 7856TIP3   OH223531   7.032   0.466   3.518
 7856TIP3    H123532   6.971   0.474   3.445
 7856TIP3    H223533   7.116   0.496   3.482
 7857TIP3   OH223534   6.027   3.142   1.154
 7857TIP3    H123535   5.976   3.134   1.234
 7857TIP3    H223536   6.042   3.236   1.144
 7858TIP3   OH223537   3.340   4.130   4.878
 7858TIP3    H123538   3.308   4.045   4.849
 7858TIP3    H223539   3.419   4.145   4.827
 7859TIP3   OH223540   6.603   4.221   0.913
 7859TIP3    H123541   6.581   4.306   0.951
 7859TIP3    H223542   6.553   4.218   0.831
 7860TIP3   OH223543   3.412   4.615   0.958
 7860TIP3    H123544   3.497   4.653   0.936
 7860TIP3    H223545   3.351   4.687   0.948
 7861TIP3   OH223546   4.167   3.599   2.439
 7861TIP3    H123547   4.122   3.593   2.355
 7861TIP3    H223548   4.260   3.591   2.417
 7862TIP3   OH223549   3.166   6.665   0.411
 7862TIP3    H123550   3.240   6.725   0.420
 7862TIP3    H223551   3.095   6.706   0.461
 7863TIP3   OH223552   1.106   3.507   1.331
 7863TIP3    H123553   1.016   3.523   1.360
 7863TIP3    H223554   1.160   3.556   1.394
 7864TIP3   OH223555   3.147   6.257   1.373
 7864TIP3    H123556   3.230   6.213   1.390
 7864TIP3    H223557   3.104   6.262   1.459
 7865TIP3   OH223558   6.370   3.446   4.909
 7865TIP3    H123559   6.402   3.523   4.861
 7865TIP3    H223560   6.277   3.464   4.921
 7866TIP3   OH223561   4.657   3.317   1.397
 7866TIP3    H123562   4.618   3.387   1.345
 7866TIP3    H223563   4.638   3.340   1.487
 7867TIP3   OH223564   0.741   2.451   1.646
 7867TIP3    H123565   0.697   2.449   1.731
 7867TIP3    H223566   0.800   2.526   1.650
 7868TIP3   OH223567   5.839   5.462   5.334
 7868TIP3    H123568   5.796   5.538   5.296
 7868TIP3    H223569   5.833   5.394   5.267
 7869TIP3   OH223570   1.624   6.221   0.954
 7869TIP3    H123571   1.578   6.185   1.030
 7869TIP3    H223572   1.569   6.295   0.926
 7870TIP3   OH223573   6.913   0.414   2.382
 7870TIP3    H123574   6.863   0.373   2.312
 7870TIP3    H223575   6.924   0.505   2.355
 7871TIP3   OH223576   4.739   0.493   1.981
 7871TIP3    H123577   4.665   0.503   1.921
 7871TIP3    H223578   4.797   0.565   1.958
 7872TIP3   OH223579   1.420   4.908   3.230
 7872TIP3    H123580   1.419   4.985   3.288
 7872TIP3    H223581   1.331   4.874   3.235
 7873TIP3   OH223582   5.087   0.673   2.077
 7873TIP3    H123583   5.136   0.739   2.125
 7873TIP3    H223584   5.082   0.598   2.136
 7874TIP3   OH223585   2.156   1.700   3.826
 7874TIP3    H123586   2.106   1.695   3.907
 7874TIP3    H223587   2.248   1.701   3.853
 7875TIP3   OH223588   4.140   1.719   0.318
 7875TIP3    H123589   4.155   1.647   0.379
 7875TIP3    H223590   4.046   1.732   0.318
 7876TIP3   OH223591   0.119   2.469   2.987
 7876TIP3    H123592   0.060   2.394   2.986
 7876TIP3    H223593   0.062   2.545   2.985
 7877TIP3   OH223594   1.925   2.589   1.316
 7877TIP3    H123595   1.915   2.642   1.395
 7877TIP3    H223596   1.885   2.505   1.338
 7878TIP3   OH223597   4.383   3.094   4.534
 7878TIP3    H123598   4.379   3.098   4.630
 7878TIP3    H223599   4.321   3.161   4.505
 7879TIP3   OH223600   3.503   2.089   5.760
 7879TIP3    H123601   3.498   2.026   5.688
 7879TIP3    H223602   3.495   2.036   5.839
 7880TIP3   OH223603   6.353   2.991   3.813
 7880TIP3    H123604   6.376   3.078   3.847
 7880TIP3    H223605   6.257   2.989   3.817
 7881TIP3   OH223606   2.340   3.537   5.192
 7881TIP3    H123607   2.356   3.445   5.211
 7881TIP3    H223608   2.382   3.552   5.107
 7882TIP3   OH223609   3.997   5.303   5.289
 7882TIP3    H123610   4.082   5.306   5.245
 7882TIP3    H223611   3.949   5.379   5.256
 7883TIP3   OH223612   4.300   3.467   4.942
 7883TIP3    H123613   4.363   3.436   5.006
 7883TIP3    H223614   4.344   3.539   4.897
 7884TIP3   OH223615   5.583   1.446   2.048
 7884TIP3    H123616   5.661   1.473   2.096
 7884TIP3    H223617   5.524   1.522   2.054
 7885TIP3   OH223618   4.605   1.861   4.192
 7885TIP3    H123619   4.624   1.770   4.170
 7885TIP3    H223620   4.683   1.909   4.165
 7886TIP3   OH223621   5.428   5.665   3.167
 7886TIP3    H123622   5.475   5.747   3.182
 7886TIP3    H223623   5.338   5.692   3.149
 7887TIP3   OH223624   3.022   4.311   0.584
 7887TIP3    H123625   3.076   4.233   0.589
 7887TIP3    H223626   3.064   4.373   0.643
 7888TIP3   OH223627   4.110   6.011   2.252
 7888TIP3    H123628   4.055   5.965   2.315
 7888TIP3    H223629   4.186   6.040   2.302
 7889TIP3   OH223630   2.988   1.700   2.092
 7889TIP3    H123631   3.036   1.625   2.125
 7889TIP3    H223632   3.051   1.747   2.037
 7890TIP3   OH223633   2.770   4.869   3.529
 7890TIP3    H123634   2.864   4.860   3.517
 7890TIP3    H223635   2.741   4.921   3.454
 7891TIP3   OH223636   7.083   2.392   4.571
 7891TIP3    H123637   7.024   2.467   4.560
 7891TIP3    H223638   7.054   2.329   4.504
 7892TIP3   OH223639   0.057   1.494   2.784
 7892TIP3    H123640   0.115   1.466   2.712
 7892TIP3    H223641   0.084   1.440   2.858
 7893TIP3   OH223642   0.156   4.365   1.238
 7893TIP3    H123643   0.221   4.294   1.238
 7893TIP3    H223644   0.198   4.436   1.287
 7894TIP3   OH223645   0.576   4.200   0.907
 7894TIP3    H123646   0.592   4.106   0.910
 7894TIP3    H223647   0.633   4.231   0.836
 7895TIP3   OH223648   2.051   3.583   4.142
 7895TIP3    H123649   2.146   3.583   4.131
 7895TIP3    H223650   2.039   3.599   4.236
 7896TIP3   OH223651   1.387   1.252   4.810
 7896TIP3    H123652   1.375   1.213   4.897
 7896TIP3    H223653   1.330   1.329   4.810
 7897TIP3   OH223654   2.132   3.301   3.386
 7897TIP3    H123655   2.109   3.326   3.297
 7897TIP3    H223656   2.072   3.352   3.441
 7898TIP3   OH223657   4.658   5.353   3.051
 7898TIP3    H123658   4.670   5.439   3.011
 7898TIP3    H223659   4.578   5.319   3.011
 7899TIP3   OH223660   0.436   0.297   0.725
 7899TIP3    H123661   0.455   0.222   0.669
 7899TIP3    H223662   0.377   0.352   0.673
 7900TIP3   OH223663   3.831   0.217   5.759
 7900TIP3    H123664   3.747   0.259   5.740
 7900TIP3    H223665   3.895   0.272   5.715
 7901TIP3   OH223666   0.514   6.731   0.998
 7901TIP3    H123667   0.562   6.764   1.074
 7901TIP3    H223668   0.574   6.742   0.925
 7902TIP3   OH223669   4.732   2.147   4.476
 7902TIP3    H123670   4.670   2.179   4.410
 7902TIP3    H223671   4.756   2.226   4.525
 7903TIP3   OH223672   0.443   6.146   4.694
 7903TIP3    H123673   0.515   6.194   4.735
 7903TIP3    H223674   0.481   6.063   4.668
 7904TIP3   OH223675   5.717   3.151   1.139
 7904TIP3    H123676   5.763   3.223   1.097
 7904TIP3    H223677   5.757   3.144   1.226
 7905TIP3   OH223678   3.360   1.835   1.543
 7905TIP3    H123679   3.304   1.850   1.467
 7905TIP3    H223680   3.447   1.825   1.506
 7906TIP3   OH223681   7.157   3.604   3.606
 7906TIP3    H123682   7.064   3.583   3.618
 7906TIP3    H223683   7.161   3.699   3.613
 7907TIP3   OH223684   4.064   0.492   4.073
 7907TIP3    H123685   4.113   0.574   4.081
 7907TIP3    H223686   4.026   0.477   4.159
 7908TIP3   OH223687   0.904   3.134   0.639
 7908TIP3    H123688   0.936   3.045   0.654
 7908TIP3    H223689   0.922   3.179   0.721
 7909TIP3   OH223690   5.935   6.616   1.553
 7909TIP3    H123691   5.941   6.646   1.644
 7909TIP3    H223692   5.841   6.614   1.535
 7910TIP3   OH223693   5.789   1.584   3.544
 7910TIP3    H123694   5.737   1.582   3.464
 7910TIP3    H223695   5.871   1.627   3.518
 7911TIP3   OH223696   5.372   5.979   0.243
 7911TIP3    H123697   5.325   5.904   0.280
 7911TIP3    H223698   5.457   5.944   0.217
 7912TIP3   OH223699   5.326   4.384   3.387
 7912TIP3    H123700   5.237   4.349   3.378
 7912TIP3    H223701   5.329   4.417   3.477
 7913TIP3   OH223702   2.134   2.527   4.231
 7913TIP3    H123703   2.150   2.568   4.146
 7913TIP3    H223704   2.084   2.592   4.281
 7914TIP3   OH223705   1.359   1.429   2.257
 7914TIP3    H123706   1.385   1.437   2.349
 7914TIP3    H223707   1.263   1.433   2.259
 7915TIP3   OH223708   1.092   2.777   0.286
 7915TIP3    H123709   1.076   2.796   0.378
 7915TIP3    H223710   1.043   2.844   0.239
 7916TIP3   OH223711   7.015   0.532   0.687
 7916TIP3    H123712   6.972   0.480   0.755
 7916TIP3    H223713   6.944   0.574   0.640
 7917TIP3   OH223714   0.951   0.756   0.083
 7917TIP3    H123715   0.976   0.667   0.108
 7917TIP3    H223716   0.905   0.790   0.159
 7918TIP3   OH223717   2.524   1.753   0.188
 7918TIP3    H123718   2.598   1.706   0.150
 7918TIP3    H223719   2.484   1.798   0.113
 7919TIP3   OH223720   3.396   0.537   0.834
 7919TIP3    H123721   3.302   0.521   0.830
 7919TIP3    H223722   3.409   0.583   0.917
 7920TIP3   OH223723   3.507   3.579   0.210
 7920TIP3    H123724   3.477   3.558   0.122
 7920TIP3    H223725   3.525   3.673   0.208
 7921TIP3   OH223726   4.573   3.364   1.642
 7921TIP3    H123727   4.539   3.275   1.649
 7921TIP3    H223728   4.500   3.420   1.672
 7922TIP3   OH223729   1.004   2.999   0.125
 7922TIP3    H123730   1.052   3.080   0.142
 7922TIP3    H223731   0.923   3.029   0.084
 7923TIP3   OH223732   4.749   0.904   0.680
 7923TIP3    H123733   4.717   0.994   0.688
 7923TIP3    H223734   4.672   0.853   0.653
 7924TIP3   OH223735   7.094   5.113   2.374
 7924TIP3    H123736   7.012   5.076   2.408
 7924TIP3    H223737   7.099   5.081   2.284
 7925TIP3   OH223738   6.351   2.486   3.634
 7925TIP3    H123739   6.320   2.432   3.706
 7925TIP3    H223740   6.356   2.575   3.671
 7926TIP3   OH223741   0.404   1.877   1.124
 7926TIP3    H123742   0.345   1.936   1.171
 7926TIP3    H223743   0.486   1.883   1.172
 7927TIP3   OH223744   4.203   3.964   5.770
 7927TIP3    H123745   4.167   3.983   5.857
 7927TIP3    H223746   4.292   4.000   5.772
 7928TIP3   OH223747   6.384   0.200   5.200
 7928TIP3    H123748   6.294   0.232   5.207
 7928TIP3    H223749   6.379   0.128   5.136
 7929TIP3   OH223750   0.987   5.984   0.435
 7929TIP3    H123751   0.910   5.963   0.487
 7929TIP3    H223752   1.014   5.900   0.397
 7930TIP3   OH223753   2.350   3.239   1.539
 7930TIP3    H123754   2.404   3.160   1.536
 7930TIP3    H223755   2.306   3.235   1.624
 7931TIP3   OH223756   4.197   3.267   4.421
 7931TIP3    H123757   4.190   3.295   4.330
 7931TIP3    H223758   4.124   3.310   4.465
 7932TIP3   OH223759   6.981   2.154   1.566
 7932TIP3    H123760   6.957   2.140   1.658
 7932TIP3    H223761   6.922   2.096   1.517
 7933TIP3   OH223762   6.949   1.673   2.281
 7933TIP3    H123763   6.936   1.589   2.325
 7933TIP3    H223764   7.043   1.676   2.263
 7934TIP3   OH223765   3.403   4.351   2.544
 7934TIP3    H123766   3.342   4.408   2.590
 7934TIP3    H223767   3.437   4.405   2.472
 7935TIP3   OH223768   4.739   5.451   3.970
 7935TIP3    H123769   4.762   5.441   4.062
 7935TIP3    H223770   4.683   5.376   3.950
 7936TIP3   OH223771   5.149   2.006   2.806
 7936TIP3    H123772   5.112   1.919   2.806
 7936TIP3    H223773   5.227   1.999   2.751
 7937TIP3   OH223774   2.748   1.894   3.257
 7937TIP3    H123775   2.826   1.886   3.312
 7937TIP3    H223776   2.677   1.859   3.312
 7938TIP3   OH223777   4.999   5.854   3.433
 7938TIP3    H123778   5.013   5.942   3.399
 7938TIP3    H223779   5.074   5.837   3.490
 7939TIP3   OH223780   4.523   0.775   0.345
 7939TIP3    H123781   4.599   0.758   0.401
 7939TIP3    H223782   4.452   0.725   0.386
 7940TIP3   OH223783   0.091   3.307   3.321
 7940TIP3    H123784   0.113   3.361   3.397
 7940TIP3    H223785   0.172   3.261   3.300
 7941TIP3   OH223786   6.298   6.759   5.326
 7941TIP3    H123787   6.294   6.739   5.419
 7941TIP3    H223788   6.208   6.782   5.303
 7942TIP3   OH223789   0.714   0.961   5.729
 7942TIP3    H123790   0.782   0.894   5.728
 7942TIP3    H223791   0.666   0.947   5.647
 7943TIP3   OH223792   3.461   3.331   4.850
 7943TIP3    H123793   3.439   3.400   4.913
 7943TIP3    H223794   3.556   3.323   4.856
 7944TIP3   OH223795   0.736   2.568   5.017
 7944TIP3    H123796   0.733   2.480   5.053
 7944TIP3    H223797   0.796   2.562   4.943
 7945TIP3   OH223798   2.047   1.316   4.533
 7945TIP3    H123799   2.110   1.303   4.604
 7945TIP3    H223800   2.011   1.403   4.549
 7946TIP3   OH223801   0.237   5.981   0.504
 7946TIP3    H123802   0.269   5.893   0.527
 7946TIP3    H223803   0.221   5.976   0.409
 7947TIP3   OH223804   4.678   6.378   2.390
 7947TIP3    H123805   4.615   6.363   2.460
 7947TIP3    H223806   4.624   6.390   2.312
 7948TIP3   OH223807   1.944   1.226   5.657
 7948TIP3    H123808   1.936   1.253   5.749
 7948TIP3    H223809   2.034   1.248   5.633
 7949TIP3   OH223810   6.918   2.126   4.168
 7949TIP3    H123811   6.943   2.145   4.078
 7949TIP3    H223812   6.858   2.196   4.192
 7950TIP3   OH223813   7.077   4.775   2.150
 7950TIP3    H123814   7.112   4.760   2.063
 7950TIP3    H223815   7.083   4.870   2.163
 7951TIP3   OH223816   0.948   0.281   1.779
 7951TIP3    H123817   0.963   0.278   1.684
 7951TIP3    H223818   0.881   0.348   1.790
 7952TIP3   OH223819   3.112   5.685   1.839
 7952TIP3    H123820   3.114   5.755   1.774
 7952TIP3    H223821   3.024   5.689   1.876
 7953TIP3   OH223822   6.226   3.641   1.286
 7953TIP3    H123823   6.210   3.636   1.191
 7953TIP3    H223824   6.282   3.566   1.305
 7954TIP3   OH223825   2.471   5.984   1.517
 7954TIP3    H123826   2.456   5.901   1.473
 7954TIP3    H223827   2.389   6.001   1.565
 7955TIP3   OH223828   1.115   1.392   0.569
 7955TIP3    H123829   1.020   1.382   0.572
 7955TIP3    H223830   1.129   1.480   0.534
 7956TIP3   OH223831   6.797   1.215   5.339
 7956TIP3    H123832   6.853   1.289   5.316
 7956TIP3    H223833   6.794   1.161   5.260
 7957TIP3   OH223834   1.276   6.400   3.491
 7957TIP3    H123835   1.216   6.405   3.565
 7957TIP3    H223836   1.290   6.306   3.479
 7958TIP3   OH223837   4.138   2.074   0.158
 7958TIP3    H123838   4.190   2.087   0.079
 7958TIP3    H223839   4.074   2.006   0.134
 7959TIP3   OH223840   6.951   3.565   1.700
 7959TIP3    H123841   6.870   3.555   1.749
 7959TIP3    H223842   6.958   3.484   1.650
 7960TIP3   OH223843   4.621   6.115   1.861
 7960TIP3    H123844   4.532   6.141   1.837
 7960TIP3    H223845   4.620   6.112   1.957
 7961TIP3   OH223846   3.463   5.743   4.197
 7961TIP3    H123847   3.382   5.725   4.149
 7961TIP3    H223848   3.448   5.828   4.239
 7962TIP3   OH223849   2.977   2.578   0.209
 7962TIP3    H123850   3.039   2.630   0.259
 7962TIP3    H223851   2.894   2.625   0.217
 7963TIP3   OH223852   0.986   6.229   5.693
 7963TIP3    H123853   1.022   6.315   5.713
 7963TIP3    H223854   0.898   6.230   5.730
 7964TIP3   OH223855   5.162  -0.013   4.340
 7964TIP3    H123856   5.109   0.065   4.355
 7964TIP3    H223857   5.206   0.004   4.257
 7965TIP3   OH223858   1.417   1.358   3.401
 7965TIP3    H123859   1.367   1.406   3.335
 7965TIP3    H223860   1.363   1.363   3.480
 7966TIP3   OH223861   1.108   6.080   5.075
 7966TIP3    H123862   1.167   6.126   5.015
 7966TIP3    H223863   1.023   6.081   5.030
 7967TIP3   OH223864   0.557   2.409   4.732
 7967TIP3    H123865   0.464   2.384   4.732
 7967TIP3    H223866   0.561   2.483   4.794
 7968TIP3   OH223867   5.530   6.707   2.538
 7968TIP3    H123868   5.534   6.751   2.453
 7968TIP3    H223869   5.619   6.675   2.553
 7969TIP3   OH223870   2.107   3.593   4.416
 7969TIP3    H123871   2.155   3.676   4.411
 7969TIP3    H223872   2.059   3.599   4.498
 7970TIP3   OH223873   2.586   6.338   5.448
 7970TIP3    H123874   2.643   6.409   5.420
 7970TIP3    H223875   2.505   6.381   5.474
 7971TIP3   OH223876   4.701   0.844   5.342
 7971TIP3    H123877   4.682   0.894   5.263
 7971TIP3    H223878   4.618   0.842   5.390
 7972TIP3   OH223879   6.740   3.373   5.587
 7972TIP3    H123880   6.778   3.360   5.674
 7972TIP3    H223881   6.775   3.456   5.557
 7973TIP3   OH223882   2.963   2.053   4.206
 7973TIP3    H123883   2.883   2.102   4.224
 7973TIP3    H223884   2.936   1.986   4.142
 7974TIP3   OH223885   3.961   0.983   4.703
 7974TIP3    H123886   3.941   1.061   4.652
 7974TIP3    H223887   3.940   0.910   4.645
 7975TIP3   OH223888   1.024   0.882   0.462
 7975TIP3    H123889   1.006   0.916   0.549
 7975TIP3    H223890   0.944   0.900   0.412
 7976TIP3   OH223891   2.500   1.518   2.718
 7976TIP3    H123892   2.542   1.448   2.668
 7976TIP3    H223893   2.523   1.598   2.671
 7977TIP3   OH223894   4.225   3.053   2.237
 7977TIP3    H123895   4.197   3.014   2.319
 7977TIP3    H223896   4.205   3.146   2.246
 7978TIP3   OH223897   6.888   0.680   2.662
 7978TIP3    H123898   6.822   0.728   2.613
 7978TIP3    H223899   6.852   0.673   2.751
 7979TIP3   OH223900   2.948   6.310   1.875
 7979TIP3    H123901   2.937   6.215   1.877
 7979TIP3    H223902   2.918   6.339   1.961
 7980TIP3   OH223903   2.010   5.139   2.924
 7980TIP3    H123904   1.988   5.046   2.926
 7980TIP3    H223905   2.014   5.164   3.016
 7981TIP3   OH223906   4.615   3.891   0.191
 7981TIP3    H123907   4.602   3.875   0.284
 7981TIP3    H223908   4.527   3.891   0.153
 7982TIP3   OH223909   0.640   0.948   0.045
 7982TIP3    H123910   0.601   0.877  -0.005
 7982TIP3    H223911   0.566   1.002   0.073
 7983TIP3   OH223912   4.576   0.720   3.839
 7983TIP3    H123913   4.655   0.669   3.821
 7983TIP3    H223914   4.503   0.661   3.821
 7984TIP3   OH223915   1.344   1.452   3.671
 7984TIP3    H123916   1.249   1.449   3.680
 7984TIP3    H223917   1.371   1.530   3.719
 7985TIP3   OH223918   1.040   0.250   0.083
 7985TIP3    H123919   1.015   0.211   0.167
 7985TIP3    H223920   1.124   0.293   0.100
 7986TIP3   OH223921   6.940   5.857   2.140
 7986TIP3    H123922   6.886   5.903   2.077
 7986TIP3    H223923   6.929   5.906   2.221
 7987TIP3   OH223924   2.622   2.856   3.287
 7987TIP3    H123925   2.645   2.945   3.315
 7987TIP3    H223926   2.704   2.808   3.291
 7988TIP3   OH223927   6.056   1.844   2.362
 7988TIP3    H123928   5.981   1.902   2.358
 7988TIP3    H223929   6.098   1.866   2.445
 7989TIP3   OH223930   2.364   4.051   3.491
 7989TIP3    H123931   2.452   4.014   3.477
 7989TIP3    H223932   2.316   3.981   3.536
 7990TIP3   OH223933   4.151   3.747   3.394
 7990TIP3    H123934   4.204   3.755   3.315
 7990TIP3    H223935   4.148   3.654   3.413
 7991TIP3   OH223936   4.279   0.973   4.192
 7991TIP3    H123937   4.320   0.891   4.220
 7991TIP3    H223938   4.352   1.030   4.170
 7992TIP3   OH223939   3.821   6.096   3.480
 7992TIP3    H123940   3.838   6.185   3.448
 7992TIP3    H223941   3.760   6.109   3.553
 7993TIP3   OH223942   6.373   0.264   1.317
 7993TIP3    H123943   6.316   0.242   1.243
 7993TIP3    H223944   6.319   0.251   1.395
 7994TIP3   OH223945   2.438   0.469   3.465
 7994TIP3    H123946   2.456   0.408   3.536
 7994TIP3    H223947   2.348   0.449   3.438
 7995TIP3   OH223948   0.777   6.027   2.780
 7995TIP3    H123949   0.831   6.098   2.815
 7995TIP3    H223950   0.797   5.952   2.836
 7996TIP3   OH223951   4.431   2.924   5.040
 7996TIP3    H123952   4.443   2.854   4.976
 7996TIP3    H223953   4.444   2.882   5.125
 7997TIP3   OH223954   3.936   4.083   4.972
 7997TIP3    H123955   3.862   4.127   5.015
 7997TIP3    H223956   3.904   3.994   4.955
 7998TIP3   OH223957   4.757   2.784   3.252
 7998TIP3    H123958   4.805   2.720   3.199
 7998TIP3    H223959   4.691   2.732   3.298
 7999TIP3   OH223960   5.074   4.309   3.426
 7999TIP3    H123961   4.999   4.251   3.412
 7999TIP3    H223962   5.041   4.379   3.482
 8000TIP3   OH223963   3.899   5.499   3.156
 8000TIP3    H123964   3.843   5.512   3.079
 8000TIP3    H223965   3.919   5.406   3.155
 8001TIP3   OH223966   2.503   1.323   5.133
 8001TIP3    H123967   2.508   1.239   5.087
 8001TIP3    H223968   2.568   1.378   5.089
 8002TIP3   OH223969   7.183   3.144   2.820
 8002TIP3    H123970   7.221   3.167   2.905
 8002TIP3    H223971   7.259   3.118   2.767
 8003TIP3   OH223972   2.569   2.284   5.128
 8003TIP3    H123973   2.601   2.346   5.063
 8003TIP3    H223974   2.592   2.198   5.092
 8004TIP3   OH223975   3.453   0.659   1.091
 8004TIP3    H123976   3.537   0.641   1.048
 8004TIP3    H223977   3.466   0.629   1.182
 8005TIP3   OH223978   2.950   5.804   5.057
 8005TIP3    H123979   2.892   5.728   5.047
 8005TIP3    H223980   2.947   5.848   4.972
 8006TIP3   OH223981   1.876   2.948   2.713
 8006TIP3    H123982   1.884   3.041   2.735
 8006TIP3    H223983   1.803   2.944   2.651
 8007TIP3   OH223984   6.095   6.100   3.138
 8007TIP3    H123985   6.106   6.006   3.126
 8007TIP3    H223986   6.046   6.130   3.062
 8008TIP3   OH223987   5.342   2.571   4.189
 8008TIP3    H123988   5.286   2.518   4.246
 8008TIP3    H223989   5.374   2.641   4.246
 8009TIP3   OH223990   5.477   3.126   4.820
 8009TIP3    H123991   5.556   3.075   4.809
 8009TIP3    H223992   5.451   3.110   4.911
 8010TIP3   OH223993   6.685   6.189   0.570
 8010TIP3    H123994   6.608   6.245   0.578
 8010TIP3    H223995   6.717   6.179   0.660
 8011TIP3   OH223996   0.637   2.004   1.253
 8011TIP3    H123997   0.605   2.073   1.195
 8011TIP3    H223998   0.723   2.035   1.282
 8012TIP3   OH223999   4.505   0.601   0.044
 8012TIP3    H124000   4.445   0.664   0.004
 8012TIP3    H224001   4.450   0.546   0.098
 8013TIP3   OH224002   7.050   3.346   1.044
 8013TIP3    H124003   7.087   3.360   0.956
 8013TIP3    H224004   6.981   3.412   1.051
 8014TIP3   OH224005   3.282   4.407   5.138
 8014TIP3    H124006   3.277   4.312   5.135
 8014TIP3    H224007   3.274   4.435   5.047
 8015TIP3   OH224008   5.452   1.384   0.133
 8015TIP3    H124009   5.490   1.442   0.067
 8015TIP3    H224010   5.429   1.304   0.085
 8016TIP3   OH224011   3.137   1.453   1.636
 8016TIP3    H124012   3.053   1.469   1.681
 8016TIP3    H224013   3.136   1.514   1.562
 8017TIP3   OH224014   5.678   3.430   1.621
 8017TIP3    H124015   5.641   3.510   1.658
 8017TIP3    H224016   5.767   3.455   1.596
 8018TIP3   OH224017   6.889   0.694   0.117
 8018TIP3    H124018   6.944   0.618   0.097
 8018TIP3    H224019   6.949   0.768   0.114
 8019TIP3   OH224020   4.382   1.891   1.672
 8019TIP3    H124021   4.458   1.918   1.620
 8019TIP3    H224022   4.386   1.796   1.674
 8020TIP3   OH224023   5.781   4.528   5.100
 8020TIP3    H124024   5.860   4.482   5.130
 8020TIP3    H224025   5.786   4.525   5.004
 8021TIP3   OH224026  -0.056   3.713   3.239
 8021TIP3    H124027  -0.023   3.681   3.155
 8021TIP3    H224028   0.023   3.722   3.293
 8022TIP3   OH224029   3.214   5.721   5.136
 8022TIP3    H124030   3.257   5.694   5.054
 8022TIP3    H224031   3.125   5.742   5.109
 8023TIP3   OH224032   4.707   2.436   0.156
 8023TIP3    H124033   4.693   2.531   0.155
 8023TIP3    H224034   4.684   2.410   0.246
 8024TIP3   OH224035   5.302   6.865   2.737
 8024TIP3    H124036   5.395   6.844   2.737
 8024TIP3    H224037   5.266   6.813   2.665
 8025TIP3   OH224038   5.955   6.017   0.978
 8025TIP3    H124039   6.010   6.023   1.057
 8025TIP3    H224040   5.934   5.924   0.971
 8026TIP3   OH224041   2.598   0.683   1.440
 8026TIP3    H124042   2.669   0.668   1.377
 8026TIP3    H224043   2.621   0.629   1.516
 8027TIP3   OH224044   1.649   6.341   5.225
 8027TIP3    H124045   1.636   6.285   5.302
 8027TIP3    H224046   1.740   6.369   5.231
 8028TIP3   OH224047   5.907   1.237   2.108
 8028TIP3    H124048   6.001   1.254   2.111
 8028TIP3    H224049   5.879   1.275   2.025
 8029TIP3   OH224050   3.759   1.972   3.433
 8029TIP3    H124051   3.743   1.888   3.477
 8029TIP3    H224052   3.741   2.037   3.501
 8030TIP3   OH224053   1.758   6.248   1.344
 8030TIP3    H124054   1.821   6.196   1.294
 8030TIP3    H224055   1.761   6.335   1.304
 8031TIP3   OH224056   0.881   6.277   3.395
 8031TIP3    H124057   0.924   6.359   3.372
 8031TIP3    H224058   0.950   6.211   3.387
 8032TIP3   OH224059   0.990   0.665   1.670
 8032TIP3    H124060   1.058   0.723   1.636
 8032TIP3    H224061   1.022   0.577   1.651
 8033TIP3   OH224062   3.064   3.995   0.081
 8033TIP3    H124063   3.147   3.978   0.036
 8033TIP3    H224064   3.009   3.920   0.057
 8034TIP3   OH224065   0.602   1.450   5.633
 8034TIP3    H124066   0.567   1.514   5.695
 8034TIP3    H224067   0.552   1.370   5.650
 8035TIP3   OH224068   0.909   2.798   5.884
 8035TIP3    H124069   0.957   2.880   5.879
 8035TIP3    H224070   0.881   2.792   5.976
 8036TIP3   OH224071   0.052   1.023   1.697
 8036TIP3    H124072  -0.025   1.078   1.701
 8036TIP3    H224073   0.094   1.045   1.614
 8037TIP3   OH224074   1.099   4.883   3.657
 8037TIP3    H124075   1.034   4.914   3.595
 8037TIP3    H224076   1.052   4.819   3.711
 8038TIP3   OH224077   6.499   4.402   0.630
 8038TIP3    H124078   6.409   4.380   0.605
 8038TIP3    H224079   6.535   4.446   0.553
 8039TIP3   OH224080   0.685   1.912   0.238
 8039TIP3    H124081   0.662   1.835   0.187
 8039TIP3    H224082   0.620   1.978   0.211
 8040TIP3   OH224083   6.856   0.758   1.311
 8040TIP3    H124084   6.826   0.667   1.315
 8040TIP3    H224085   6.913   0.761   1.234
 8041TIP3   OH224086   5.753   2.838   4.406
 8041TIP3    H124087   5.839   2.857   4.369
 8041TIP3    H224088   5.765   2.756   4.454
 8042TIP3   OH224089   4.015   4.743   3.129
 8042TIP3    H124090   4.100   4.707   3.105
 8042TIP3    H224091   3.982   4.784   3.048
 8043TIP3   OH224092   3.236   2.901   5.777
 8043TIP3    H124093   3.322   2.934   5.803
 8043TIP3    H224094   3.254   2.819   5.732
 8044TIP3   OH224095   4.561   1.223   3.721
 8044TIP3    H124096   4.602   1.210   3.635
 8044TIP3    H224097   4.512   1.142   3.736
 8045TIP3   OH224098   2.117   5.385   4.220
 8045TIP3    H124099   2.081   5.466   4.185
 8045TIP3    H224100   2.044   5.323   4.217
 8046TIP3   OH224101   1.470   1.365   3.994
 8046TIP3    H124102   1.510   1.420   3.927
 8046TIP3    H224103   1.544   1.324   4.039
 8047TIP3   OH224104   3.761   1.818   4.090
 8047TIP3    H124105   3.797   1.888   4.035
 8047TIP3    H224106   3.809   1.825   4.173
 8048TIP3   OH224107   5.593   1.748   4.609
 8048TIP3    H124108   5.513   1.770   4.562
 8048TIP3    H224109   5.639   1.831   4.619
 8049TIP3   OH224110   0.799   0.232   3.417
 8049TIP3    H124111   0.842   0.199   3.338
 8049TIP3    H224112   0.869   0.233   3.483
 8050TIP3   OH224113   4.897   2.178   3.008
 8050TIP3    H124114   4.818   2.210   2.965
 8050TIP3    H224115   4.875   2.090   3.037
 8051TIP3   OH224116   1.912   3.953   2.121
 8051TIP3    H124117   1.992   3.974   2.169
 8051TIP3    H224118   1.921   4.000   2.038
 8052TIP3   OH224119   5.021   1.599   3.538
 8052TIP3    H124120   4.932   1.629   3.559
 8052TIP3    H224121   5.068   1.603   3.621
 8053TIP3   OH224122   2.565   5.887   4.778
 8053TIP3    H124123   2.491   5.948   4.785
 8053TIP3    H224124   2.528   5.802   4.801
 8054TIP3   OH224125   1.785   3.076   1.303
 8054TIP3    H124126   1.697   3.113   1.300
 8054TIP3    H224127   1.835   3.139   1.356
 8055TIP3   OH224128   6.631   4.964   2.861
 8055TIP3    H124129   6.644   4.874   2.830
 8055TIP3    H224130   6.715   5.007   2.845
 8056TIP3   OH224131   2.705   4.480   5.687
 8056TIP3    H124132   2.640   4.544   5.715
 8056TIP3    H224133   2.784   4.504   5.735
 8057TIP3   OH224134   1.105   2.002   0.903
 8057TIP3    H124135   1.089   2.080   0.955
 8057TIP3    H224136   1.162   1.948   0.957
 8058TIP3   OH224137   6.830   0.962   0.380
 8058TIP3    H124138   6.917   0.953   0.418
 8058TIP3    H224139   6.846   0.972   0.286
 8059TIP3   OH224140   7.166   1.313   1.613
 8059TIP3    H124141   7.233   1.358   1.663
 8059TIP3    H224142   7.084   1.356   1.638
 8060TIP3   OH224143   5.352   5.639   5.768
 8060TIP3    H124144   5.337   5.637   5.862
 8060TIP3    H224145   5.393   5.723   5.751
 8061TIP3   OH224146   2.633   2.173   3.033
 8061TIP3    H124147   2.563   2.233   3.006
 8061TIP3    H224148   2.613   2.154   3.125
 8062TIP3   OH224149   1.892   0.913   5.887
 8062TIP3    H124150   1.915   0.835   5.938
 8062TIP3    H224151   1.946   0.907   5.808
 8063TIP3   OH224152   1.308   1.819   1.194
 8063TIP3    H124153   1.221   1.780   1.188
 8063TIP3    H224154   1.310   1.857   1.282
 8064TIP3   OH224155   3.535   3.767   0.846
 8064TIP3    H124156   3.589   3.696   0.880
 8064TIP3    H224157   3.452   3.726   0.824
 8065TIP3   OH224158   4.750   3.246   5.503
 8065TIP3    H124159   4.802   3.322   5.480
 8065TIP3    H224160   4.663   3.264   5.465
 8066TIP3   OH224161   1.922   4.842   0.373
 8066TIP3    H124162   1.919   4.785   0.450
 8066TIP3    H224163   1.911   4.782   0.299
 8067TIP3   OH224164   2.051   1.034   0.518
 8067TIP3    H124165   2.048   0.939   0.506
 8067TIP3    H224166   2.135   1.060   0.480
 8068TIP3   OH224167   6.313   2.427   3.340
 8068TIP3    H124168   6.329   2.443   3.432
 8068TIP3    H224169   6.400   2.426   3.300
 8069TIP3   OH224170   6.458   1.472   1.361
 8069TIP3    H124171   6.475   1.564   1.381
 8069TIP3    H224172   6.525   1.447   1.299
 8070TIP3   OH224173   2.130   4.511   0.827
 8070TIP3    H124174   2.105   4.444   0.763
 8070TIP3    H224175   2.051   4.522   0.880
 8071TIP3   OH224176   0.308   1.666   3.068
 8071TIP3    H124177   0.338   1.754   3.088
 8071TIP3    H224178   0.248   1.678   2.994
 8072TIP3   OH224179   7.114   2.292   0.997
 8072TIP3    H124180   7.101   2.271   0.905
 8072TIP3    H224181   7.098   2.386   1.003
 8073TIP3   OH224182   1.098   4.790   3.991
 8073TIP3    H124183   1.059   4.853   4.051
 8073TIP3    H224184   1.189   4.784   4.018
 8074TIP3   OH224185   1.952   0.058   4.970
 8074TIP3    H124186   2.020   0.091   5.030
 8074TIP3    H224187   1.942   0.127   4.905
 8075TIP3   OH224188  -0.010   3.147   5.711
 8075TIP3    H124189  -0.035   3.195   5.790
 8075TIP3    H224190   0.064   3.197   5.675
 8076TIP3   OH224191   0.614   5.834   2.994
 8076TIP3    H124192   0.593   5.854   3.085
 8076TIP3    H224193   0.587   5.743   2.982
 8077TIP3   OH224194   0.645   3.606   4.148
 8077TIP3    H124195   0.700   3.528   4.149
 8077TIP3    H224196   0.707   3.679   4.151
 8078TIP3   OH224197   6.925   4.070   3.862
 8078TIP3    H124198   6.932   4.036   3.952
 8078TIP3    H224199   6.992   4.138   3.857
 8079TIP3   OH224200   0.278   0.854   3.962
 8079TIP3    H124201   0.367   0.828   3.986
 8079TIP3    H224202   0.242   0.894   4.041
 8080TIP3   OH224203   4.250   3.415   1.166
 8080TIP3    H124204   4.179   3.456   1.215
 8080TIP3    H224205   4.241   3.322   1.184
 8081TIP3   OH224206   3.370   3.782   1.201
 8081TIP3    H124207   3.345   3.783   1.293
 8081TIP3    H224208   3.388   3.690   1.182
 8082TIP3   OH224209   0.177   5.937   1.075
 8082TIP3    H124210   0.117   5.886   1.130
 8082TIP3    H224211   0.149   6.028   1.087
 8083TIP3   OH224212   0.329   6.349   2.940
 8083TIP3    H124213   0.357   6.428   2.894
 8083TIP3    H224214   0.272   6.304   2.878
 8084TIP3   OH224215   4.625   5.024   4.210
 8084TIP3    H124216   4.632   5.002   4.303
 8084TIP3    H224217   4.531   5.014   4.190
 8085TIP3   OH224218   5.232   3.063   1.954
 8085TIP3    H124219   5.195   3.144   1.989
 8085TIP3    H224220   5.199   2.994   2.013
 8086TIP3   OH224221   3.553   0.911   2.693
 8086TIP3    H124222   3.491   0.847   2.727
 8086TIP3    H224223   3.508   0.995   2.700
 8087TIP3   OH224224   0.963   4.140   2.356
 8087TIP3    H124225   0.940   4.094   2.275
 8087TIP3    H224226   0.879   4.169   2.392
 8088TIP3   OH224227   1.367   1.034   4.191
 8088TIP3    H124228   1.437   1.076   4.142
 8088TIP3    H224229   1.377   1.066   4.281
 8089TIP3   OH224230   0.455   5.270   5.564
 8089TIP3    H124231   0.447   5.242   5.473
 8089TIP3    H224232   0.461   5.366   5.559
 8090TIP3   OH224233   6.532   6.291   1.866
 8090TIP3    H124234   6.570   6.341   1.939
 8090TIP3    H224235   6.452   6.339   1.844
 8091TIP3   OH224236   4.322   2.829   3.397
 8091TIP3    H124237   4.275   2.816   3.315
 8091TIP3    H224238   4.361   2.916   3.388
 8092TIP3   OH224239   6.728   6.546   5.565
 8092TIP3    H124240   6.792   6.487   5.606
 8092TIP3    H224241   6.782   6.613   5.523
 8093TIP3   OH224242   5.141   2.633   3.330
 8093TIP3    H124243   5.065   2.622   3.387
 8093TIP3    H224244   5.136   2.560   3.269
 8094TIP3   OH224245   1.367   1.539   5.719
 8094TIP3    H124246   1.294   1.565   5.773
 8094TIP3    H224247   1.343   1.453   5.685
 8095TIP3   OH224248   1.211   0.776   2.459
 8095TIP3    H124249   1.165   0.778   2.375
 8095TIP3    H224250   1.159   0.832   2.516
 8096TIP3   OH224251   4.441   5.259   4.674
 8096TIP3    H124252   4.354   5.265   4.714
 8096TIP3    H224253   4.427   5.278   4.582
 8097TIP3   OH224254   3.481   2.673   3.023
 8097TIP3    H124255   3.537   2.595   3.021
 8097TIP3    H224256   3.404   2.646   3.073
 8098TIP3   OH224257   4.161   0.607   4.957
 8098TIP3    H124258   4.134   0.670   4.890
 8098TIP3    H224259   4.209   0.539   4.909
 8099TIP3   OH224260   5.678   6.210   2.420
 8099TIP3    H124261   5.682   6.115   2.423
 8099TIP3    H224262   5.760   6.240   2.461
 8100TIP3   OH224263   3.288   3.502   3.213
 8100TIP3    H124264   3.246   3.559   3.277
 8100TIP3    H224265   3.308   3.560   3.139
 8101TIP3   OH224266   1.930   5.171   2.240
 8101TIP3    H124267   1.928   5.193   2.333
 8101TIP3    H224268   2.020   5.189   2.213
 8102TIP3   OH224269   1.104   6.255   4.181
 8102TIP3    H124270   1.033   6.193   4.198
 8102TIP3    H224271   1.164   6.208   4.124
 8103TIP3   OH224272   2.052   6.463   3.003
 8103TIP3    H124273   2.061   6.477   3.098
 8103TIP3    H224274   2.054   6.368   2.994
 8104TIP3   OH224275   1.716   3.833   3.524
 8104TIP3    H124276   1.686   3.746   3.550
 8104TIP3    H224277   1.685   3.844   3.435
 8105TIP3   OH224278   4.078   3.132   5.581
 8105TIP3    H124279   4.037   3.211   5.547
 8105TIP3    H224280   4.132   3.099   5.509
 8106TIP3   OH224281   2.719   5.587   3.514
 8106TIP3    H124282   2.736   5.583   3.420
 8106TIP3    H224283   2.805   5.575   3.555
 8107TIP3   OH224284   1.724   3.859   4.415
 8107TIP3    H124285   1.812   3.895   4.431
 8107TIP3    H224286   1.708   3.801   4.490
 8108TIP3   OH224287   2.670   3.702   0.480
 8108TIP3    H124288   2.632   3.621   0.513
 8108TIP3    H224289   2.628   3.771   0.532
 8109TIP3   OH224290   6.223   4.400   0.576
 8109TIP3    H124291   6.158   4.337   0.605
 8109TIP3    H224292   6.183   4.444   0.501
 8110TIP3   OH224293   1.029   5.588   5.652
 8110TIP3    H124294   1.031   5.682   5.671
 8110TIP3    H224295   1.064   5.581   5.563
 8111TIP3   OH224296   6.217   4.935   5.052
 8111TIP3    H124297   6.259   4.975   4.975
 8111TIP3    H224298   6.285   4.878   5.088
 8112TIP3   OH224299   1.691   6.319   1.973
 8112TIP3    H124300   1.777   6.296   1.936
 8112TIP3    H224301   1.710   6.344   2.063
 8113TIP3   OH224302   2.156   2.599   3.965
 8113TIP3    H124303   2.200   2.514   3.959
 8113TIP3    H224304   2.069   2.584   3.929
 8114TIP3   OH224305   3.483   3.533   5.047
 8114TIP3    H124306   3.470   3.622   5.016
 8114TIP3    H224307   3.558   3.539   5.106
 8115TIP3   OH224308   1.539   4.356   4.426
 8115TIP3    H124309   1.461   4.385   4.472
 8115TIP3    H224310   1.565   4.431   4.372
 8116TIP3   OH224311   3.458   6.317   4.838
 8116TIP3    H124312   3.516   6.393   4.838
 8116TIP3    H224313   3.465   6.281   4.926
 8117TIP3   OH224314   3.665   3.464   2.486
 8117TIP3    H124315   3.601   3.512   2.434
 8117TIP3    H224316   3.712   3.409   2.423
 8118TIP3   OH224317   3.698   2.183   3.580
 8118TIP3    H124318   3.681   2.164   3.673
 8118TIP3    H224319   3.655   2.267   3.564
 8119TIP3   OH224320   5.011   4.697   3.225
 8119TIP3    H124321   4.984   4.708   3.316
 8119TIP3    H224322   4.973   4.773   3.180
 8120TIP3   OH224323   3.630   3.579   5.283
 8120TIP3    H124324   3.547   3.574   5.329
 8120TIP3    H224325   3.668   3.662   5.312
 8121TIP3   OH224326   4.202   0.419   3.143
 8121TIP3    H124327   4.245   0.346   3.189
 8121TIP3    H224328   4.117   0.427   3.187
 8122TIP3   OH224329   6.276   1.950   5.332
 8122TIP3    H124330   6.352   1.942   5.389
 8122TIP3    H224331   6.271   1.866   5.286
 8123TIP3   OH224332  -0.006   0.328   2.272
 8123TIP3    H124333   0.039   0.354   2.352
 8123TIP3    H224334   0.049   0.258   2.236
 8124TIP3   OH224335   3.726   1.000   0.638
 8124TIP3    H124336   3.743   0.906   0.638
 8124TIP3    H224337   3.793   1.037   0.696
 8125TIP3   OH224338   0.997   0.467   2.763
 8125TIP3    H124339   0.922   0.514   2.727
 8125TIP3    H224340   1.053   0.535   2.800
 8126TIP3   OH224341   1.116   2.248   0.475
 8126TIP3    H124342   1.155   2.332   0.501
 8126TIP3    H224343   1.074   2.215   0.554
 8127TIP3   OH224344   6.256   0.505   4.642
 8127TIP3    H124345   6.231   0.478   4.731
 8127TIP3    H224346   6.343   0.543   4.652
 8128TIP3   OH224347   0.942   2.205   4.728
 8128TIP3    H124348   0.933   2.112   4.750
 8128TIP3    H224349   0.999   2.206   4.652
 8129TIP3   OH224350   1.636   4.679   3.249
 8129TIP3    H124351   1.570   4.736   3.209
 8129TIP3    H224352   1.586   4.610   3.291
 8130TIP3   OH224353   1.148   3.485   0.172
 8130TIP3    H124354   1.082   3.553   0.185
 8130TIP3    H224355   1.101   3.416   0.125
 8131TIP3   OH224356   1.650   3.689   1.503
 8131TIP3    H124357   1.711   3.615   1.510
 8131TIP3    H224358   1.655   3.716   1.411
 8132TIP3   OH224359   1.454   0.945   2.551
 8132TIP3    H124360   1.385   0.879   2.557
 8132TIP3    H224361   1.536   0.897   2.564
 8133TIP3   OH224362   1.442   2.264   0.894
 8133TIP3    H124363   1.459   2.171   0.877
 8133TIP3    H224364   1.458   2.307   0.811
 8134TIP3   OH224365   1.606   6.078   4.022
 8134TIP3    H124366   1.683   6.072   3.967
 8134TIP3    H224367   1.611   6.165   4.062
 8135TIP3   OH224368   2.462   0.068   4.154
 8135TIP3    H124369   2.476   0.160   4.131
 8135TIP3    H224370   2.532   0.021   4.108
 8136TIP3   OH224371   4.707   3.014   3.117
 8136TIP3    H124372   4.626   3.055   3.149
 8136TIP3    H224373   4.716   2.934   3.168
 8137TIP3   OH224374   1.707   0.431   2.349
 8137TIP3    H124375   1.630   0.488   2.346
 8137TIP3    H224376   1.760   0.467   2.420
 8138TIP3   OH224377   0.085   3.491   4.652
 8138TIP3    H124378   0.091   3.398   4.628
 8138TIP3    H224379   0.160   3.532   4.608
 8139TIP3   OH224380   2.497   3.311   5.185
 8139TIP3    H124381   2.464   3.222   5.180
 8139TIP3    H224382   2.545   3.315   5.267
 8140TIP3   OH224383   5.338   4.348   1.432
 8140TIP3    H124384   5.257   4.363   1.482
 8140TIP3    H224385   5.312   4.358   1.341
 8141TIP3   OH224386   5.404   0.851   3.126
 8141TIP3    H124387   5.309   0.840   3.130
 8141TIP3    H224388   5.420   0.937   3.166
 8142TIP3   OH224389   1.190   2.406   0.780
 8142TIP3    H124390   1.254   2.374   0.844
 8142TIP3    H224391   1.106   2.402   0.827
 8143TIP3   OH224392   5.009   6.311   2.703
 8143TIP3    H124393   5.064   6.379   2.741
 8143TIP3    H224394   4.987   6.343   2.615
 8144TIP3   OH224395   5.453   0.642   5.785
 8144TIP3    H124396   5.426   0.562   5.830
 8144TIP3    H224397   5.480   0.701   5.855
 8145TIP3   OH224398   4.077   2.695   2.218
 8145TIP3    H124399   4.002   2.743   2.184
 8145TIP3    H224400   4.040   2.618   2.260
 8146TIP3   OH224401   3.805   1.661   3.832
 8146TIP3    H124402   3.877   1.645   3.893
 8146TIP3    H224403   3.745   1.588   3.846
 8147TIP3   OH224404   2.874   4.831   1.485
 8147TIP3    H124405   2.872   4.917   1.525
 8147TIP3    H224406   2.815   4.838   1.410
 8148TIP3   OH224407   3.883   3.001   4.088
 8148TIP3    H124408   3.936   2.953   4.152
 8148TIP3    H224409   3.922   3.088   4.085
 8149TIP3   OH224410   2.058   6.688   3.942
 8149TIP3    H124411   2.109   6.665   3.864
 8149TIP3    H224412   2.060   6.609   3.996
 8150TIP3   OH224413   3.637   0.910   3.724
 8150TIP3    H124414   3.711   0.912   3.662
 8150TIP3    H224415   3.663   0.970   3.793
 8151TIP3   OH224416   6.063   4.252   2.395
 8151TIP3    H124417   6.039   4.168   2.354
 8151TIP3    H224418   5.997   4.314   2.362
 8152TIP3   OH224419   0.197   5.800   1.663
 8152TIP3    H124420   0.234   5.716   1.689
 8152TIP3    H224421   0.225   5.812   1.573
 8153TIP3   OH224422   4.189   0.985   3.002
 8153TIP3    H124423   4.135   1.003   2.926
 8153TIP3    H224424   4.271   0.950   2.966
 8154TIP3   OH224425   1.965   0.630   0.554
 8154TIP3    H124426   1.943   0.704   0.611
 8154TIP3    H224427   1.926   0.652   0.470
 8155TIP3   OH224428   3.038   1.018   2.859
 8155TIP3    H124429   3.026   1.109   2.831
 8155TIP3    H224430   2.989   0.967   2.794
 8156TIP3   OH224431   1.649   5.008   3.127
 8156TIP3    H124432   1.665   5.075   3.194
 8156TIP3    H224433   1.558   4.981   3.142
 8157TIP3   OH224434   2.214   3.442   1.886
 8157TIP3    H124435   2.122   3.466   1.898
 8157TIP3    H224436   2.258   3.475   1.965
 8158TIP3   OH224437   3.908   2.953   2.703
 8158TIP3    H124438   3.996   2.923   2.723
 8158TIP3    H224439   3.852   2.903   2.763
 8159TIP3   OH224440   0.849   5.597   5.104
 8159TIP3    H124441   0.870   5.531   5.038
 8159TIP3    H224442   0.863   5.552   5.187
 8160TIP3   OH224443   5.397   6.357   4.348
 8160TIP3    H124444   5.343   6.299   4.294
 8160TIP3    H224445   5.452   6.298   4.399
 8161TIP3   OH224446   2.944   6.618   5.045
 8161TIP3    H124447   3.025   6.668   5.033
 8161TIP3    H224448   2.878   6.669   4.998
 8162TIP3   OH224449   1.885   5.127   3.257
 8162TIP3    H124450   1.856   5.036   3.261
 8162TIP3    H224451   1.979   5.121   3.242
 8163TIP3   OH224452   4.112   5.823   4.107
 8163TIP3    H124453   4.145   5.734   4.094
 8163TIP3    H224454   4.092   5.827   4.201
 8164TIP3   OH224455   1.476   1.396   2.010
 8164TIP3    H124456   1.430   1.408   1.927
 8164TIP3    H224457   1.420   1.439   2.074
 8165TIP3   OH224458   7.075   4.181   3.099
 8165TIP3    H124459   7.040   4.098   3.131
 8165TIP3    H224460   7.026   4.248   3.145
 8166TIP3   OH224461   3.080   4.264   0.104
 8166TIP3    H124462   3.055   4.173   0.087
 8166TIP3    H224463   3.074   4.307   0.019
 8167TIP3   OH224464   6.316   0.774   3.347
 8167TIP3    H124465   6.338   0.867   3.358
 8167TIP3    H224466   6.221   0.770   3.359
 8168TIP3   OH224467   6.898   1.979   5.888
 8168TIP3    H124468   6.830   1.912   5.886
 8168TIP3    H224469   6.972   1.937   5.932
 8169TIP3   OH224470   5.786   6.780   2.300
 8169TIP3    H124471   5.797   6.704   2.358
 8169TIP3    H224472   5.803   6.745   2.212
 8170TIP3   OH224473   6.566   0.815   0.429
 8170TIP3    H124474   6.514   0.777   0.500
 8170TIP3    H224475   6.623   0.743   0.400
 8171TIP3   OH224476   4.158   2.893   1.982
 8171TIP3    H124477   4.189   2.927   2.065
 8171TIP3    H224478   4.236   2.859   1.939
 8172TIP3   OH224479   3.436   4.153   2.888
 8172TIP3    H124480   3.469   4.227   2.939
 8172TIP3    H224481   3.351   4.181   2.855
 8173TIP3   OH224482   6.449   4.984   1.312
 8173TIP3    H124483   6.536   5.005   1.346
 8173TIP3    H224484   6.423   5.061   1.263
 8174TIP3   OH224485   1.704   5.130   1.765
 8174TIP3    H124486   1.710   5.095   1.854
 8174TIP3    H224487   1.776   5.194   1.760
 8175TIP3   OH224488   3.147   5.796   3.398
 8175TIP3    H124489   3.182   5.726   3.454
 8175TIP3    H224490   3.111   5.749   3.323
 8176TIP3   OH224491   4.348   6.198   1.849
 8176TIP3    H124492   4.354   6.185   1.754
 8176TIP3    H224493   4.311   6.116   1.882
 8177TIP3   OH224494   2.709   6.538   0.305
 8177TIP3    H124495   2.766   6.474   0.345
 8177TIP3    H224496   2.765   6.587   0.244
 8178TIP3   OH224497   3.630   4.214   2.681
 8178TIP3    H124498   3.615   4.258   2.597
 8178TIP3    H224499   3.542   4.198   2.715
 8179TIP3   OH224500   4.388   2.237   2.850
 8179TIP3    H124501   4.318   2.245   2.915
 8179TIP3    H224502   4.393   2.323   2.809
 8180TIP3   OH224503   3.986   2.556   0.104
 8180TIP3    H124504   4.007   2.644   0.135
 8180TIP3    H224505   4.071   2.511   0.099
 8181TIP3   OH224506   2.329   1.242   0.079
 8181TIP3    H124507   2.409   1.270   0.036
 8181TIP3    H224508   2.312   1.308   0.146
 8182TIP3   OH224509   2.048   6.063   4.464
 8182TIP3    H124510   2.048   6.138   4.524
 8182TIP3    H224511   2.002   5.994   4.512
 8183TIP3   OH224512   2.034   5.715   4.909
 8183TIP3    H124513   2.105   5.718   4.972
 8183TIP3    H224514   1.987   5.797   4.921
 8184TIP3   OH224515   3.768   6.436   1.572
 8184TIP3    H124516   3.836   6.494   1.606
 8184TIP3    H224517   3.786   6.429   1.478
 8185TIP3   OH224518   6.670   6.637   4.370
 8185TIP3    H124519   6.647   6.665   4.459
 8185TIP3    H224520   6.759   6.604   4.379
 8186TIP3   OH224521   4.579   5.241   1.191
 8186TIP3    H124522   4.497   5.218   1.147
 8186TIP3    H224523   4.634   5.277   1.121
 8187TIP3   OH224524   1.321   3.666   0.046
 8187TIP3    H124525   1.303   3.629  -0.040
 8187TIP3    H224526   1.277   3.607   0.108
 8188TIP3   OH224527   5.352   3.398   5.469
 8188TIP3    H124528   5.371   3.352   5.550
 8188TIP3    H224529   5.395   3.483   5.480
 8189TIP3   OH224530   4.694   3.887   2.002
 8189TIP3    H124531   4.611   3.931   1.984
 8189TIP3    H224532   4.730   3.934   2.078
 8190TIP3   OH224533   4.623   2.043   0.251
 8190TIP3    H124534   4.543   2.002   0.284
 8190TIP3    H224535   4.610   2.137   0.265
 8191TIP3   OH224536   3.370   3.332   2.111
 8191TIP3    H124537   3.375   3.258   2.172
 8191TIP3    H224538   3.276   3.350   2.104
 8192TIP3   OH224539   2.830   0.181   1.532
 8192TIP3    H124540   2.906   0.236   1.512
 8192TIP3    H224541   2.842   0.157   1.624
 8193TIP3   OH224542   4.717   3.545   3.328
 8193TIP3    H124543   4.632   3.516   3.361
 8193TIP3    H224544   4.767   3.566   3.406
 8194TIP3   OH224545   2.023   1.006   3.594
 8194TIP3    H124546   2.094   0.979   3.652
 8194TIP3    H224547   2.033   1.101   3.586
 8195TIP3   OH224548   0.960  -0.013   1.296
 8195TIP3    H124549   0.997   0.074   1.282
 8195TIP3    H224550   0.868   0.003   1.314
 8196TIP3   OH224551   4.383   0.033   2.759
 8196TIP3    H124552   4.423   0.119   2.767
 8196TIP3    H224553   4.298   0.041   2.803
 8197TIP3   OH224554   2.151   1.547   5.138
 8197TIP3    H124555   2.126   1.617   5.078
 8197TIP3    H224556   2.197   1.483   5.083
 8198TIP3   OH224557   2.790   0.826   0.880
 8198TIP3    H124558   2.696   0.826   0.899
 8198TIP3    H224559   2.826   0.892   0.940
 8199TIP3   OH224560   5.471   1.076   1.758
 8199TIP3    H124561   5.508   1.000   1.802
 8199TIP3    H224562   5.455   1.139   1.829
 8200TIP3   OH224563   5.434   3.967   1.814
 8200TIP3    H124564   5.400   3.893   1.865
 8200TIP3    H224565   5.509   3.932   1.766
 8201TIP3   OH224566   4.930   4.908   4.468
 8201TIP3    H124567   4.846   4.869   4.495
 8201TIP3    H224568   4.968   4.939   4.550
 8202TIP3   OH224569   0.910   0.991   3.973
 8202TIP3    H124570   0.898   1.027   4.061
 8202TIP3    H224571   1.003   1.005   3.954
 8203TIP3   OH224572   0.875   4.727   4.254
 8203TIP3    H124573   0.935   4.784   4.206
 8203TIP3    H224574   0.796   4.780   4.266
 8204TIP3   OH224575   3.346   2.079   2.664
 8204TIP3    H124576   3.343   2.060   2.570
 8204TIP3    H224577   3.276   2.026   2.701
 8205TIP3   OH224578   5.651   0.131   2.796
 8205TIP3    H124579   5.722   0.192   2.815
 8205TIP3    H224580   5.676   0.091   2.713
 8206TIP3   OH224581   6.456   4.122   3.991
 8206TIP3    H124582   6.406   4.145   4.070
 8206TIP3    H224583   6.513   4.197   3.976
 8207TIP3   OH224584   5.896   2.829   1.696
 8207TIP3    H124585   5.827   2.888   1.726
 8207TIP3    H224586   5.974   2.884   1.693
 8208TIP3   OH224587   5.451   4.765   5.764
 8208TIP3    H124588   5.486   4.747   5.851
 8208TIP3    H224589   5.528   4.791   5.713
 8209TIP3   OH224590   2.928   3.715   5.125
 8209TIP3    H124591   2.857   3.753   5.178
 8209TIP3    H224592   2.883   3.673   5.052
 8210TIP3   OH224593   3.776   5.446   1.133
 8210TIP3    H124594   3.788   5.353   1.110
 8210TIP3    H224595   3.725   5.444   1.214
 8211TIP3   OH224596   4.304   4.597   1.087
 8211TIP3    H124597   4.300   4.585   1.181
 8211TIP3    H224598   4.353   4.678   1.075
 8212TIP3   OH224599   1.558   3.876   1.695
 8212TIP3    H124600   1.643   3.911   1.720
 8212TIP3    H224601   1.578   3.804   1.634
 8213TIP3   OH224602   6.233   2.326   3.818
 8213TIP3    H124603   6.230   2.289   3.906
 8213TIP3    H224604   6.203   2.416   3.828
 8214TIP3   OH224605   5.963   3.826   5.391
 8214TIP3    H124606   5.942   3.766   5.463
 8214TIP3    H224607   5.881   3.872   5.374
 8215TIP3   OH224608   4.717   4.715   3.101
 8215TIP3    H124609   4.701   4.692   3.193
 8215TIP3    H224610   4.774   4.792   3.107
 8216TIP3   OH224611   5.983   0.254   3.225
 8216TIP3    H124612   5.958   0.345   3.211
 8216TIP3    H224613   6.004   0.222   3.137
 8217TIP3   OH224614   2.395   0.208   2.644
 8217TIP3    H124615   2.449   0.238   2.571
 8217TIP3    H224616   2.401   0.279   2.708
 8218TIP3   OH224617   0.580   0.243   0.321
 8218TIP3    H124618   0.516   0.209   0.383
 8218TIP3    H224619   0.552   0.209   0.236
 8219TIP3   OH224620   5.961   1.582   2.443
 8219TIP3    H124621   5.980   1.643   2.372
 8219TIP3    H224622   5.953   1.637   2.521
 8220TIP3   OH224623   3.115   0.913  -0.003
 8220TIP3    H124624   3.098   0.820   0.016
 8220TIP3    H224625   3.192   0.934   0.051
 8221TIP3   OH224626   1.612   1.238   3.080
 8221TIP3    H124627   1.561   1.178   3.026
 8221TIP3    H224628   1.703   1.215   3.062
 8222TIP3   OH224629   5.701   6.665   4.802
 8222TIP3    H124630   5.743   6.620   4.730
 8222TIP3    H224631   5.640   6.601   4.839
 8223TIP3   OH224632   3.726   3.333   4.911
 8223TIP3    H124633   3.787   3.315   4.982
 8223TIP3    H224634   3.758   3.415   4.872
 8224TIP3   OH224635   0.078   5.115   5.362
 8224TIP3    H124636   0.140   5.049   5.330
 8224TIP3    H224637   0.089   5.114   5.457
 8225TIP3   OH224638   6.862   1.048   1.401
 8225TIP3    H124639   6.949   1.085   1.392
 8225TIP3    H224640   6.874   0.954   1.388
 8226TIP3   OH224641   0.118   4.020   0.275
 8226TIP3    H124642   0.085   4.084   0.338
 8226TIP3    H224643   0.161   3.954   0.329
 8227TIP3   OH224644   7.000   4.348   3.295
 8227TIP3    H124645   7.054   4.339   3.373
 8227TIP3    H224646   6.911   4.327   3.324
 8228TIP3   OH224647   6.053   2.178   0.067
 8228TIP3    H124648   6.034   2.229   0.146
 8228TIP3    H224649   6.007   2.225  -0.003
 8229TIP3   OH224650   4.308   6.559   0.461
 8229TIP3    H124651   4.213   6.557   0.451
 8229TIP3    H224652   4.328   6.479   0.509
 8230TIP3   OH224653   3.956   3.057   3.388
 8230TIP3    H124654   3.963   2.961   3.388
 8230TIP3    H224655   3.920   3.078   3.474
 8231TIP3   OH224656   4.428   6.589   4.441
 8231TIP3    H124657   4.384   6.642   4.375
 8231TIP3    H224658   4.520   6.591   4.416
 8232TIP3   OH224659   6.250   3.378   3.976
 8232TIP3    H124660   6.165   3.379   4.019
 8232TIP3    H224661   6.292   3.298   4.007
 8233TIP3   OH224662   2.895   5.930   3.321
 8233TIP3    H124663   2.824   5.921   3.257
 8233TIP3    H224664   2.911   5.841   3.352
 8234TIP3   OH224665   4.100   6.118   3.724
 8234TIP3    H124666   4.136   6.081   3.643
 8234TIP3    H224667   4.110   6.212   3.714
 8235TIP3   OH224668   0.297   5.451   0.780
 8235TIP3    H124669   0.311   5.480   0.870
 8235TIP3    H224670   0.202   5.446   0.770
 8236TIP3   OH224671   1.578   5.744   2.872
 8236TIP3    H124672   1.532   5.677   2.822
 8236TIP3    H224673   1.653   5.768   2.818
 8237TIP3   OH224674   0.898   4.893   4.565
 8237TIP3    H124675   0.845   4.939   4.500
 8237TIP3    H224676   0.850   4.904   4.647
 8238TIP3   OH224677   7.176   2.010   1.327
 8238TIP3    H124678   7.166   1.925   1.284
 8238TIP3    H224679   7.102   2.062   1.295
 8239TIP3   OH224680   0.013   5.239   0.945
 8239TIP3    H124681  -0.039   5.161   0.963
 8239TIP3    H224682   0.104   5.211   0.958
 8240TIP3   OH224683   4.924   2.466   2.092
 8240TIP3    H124684   4.873   2.458   2.012
 8240TIP3    H224685   4.875   2.416   2.157
 8241TIP3   OH224686   0.162   1.902   0.729
 8241TIP3    H124687   0.104   1.845   0.678
 8241TIP3    H224688   0.250   1.878   0.700
 8242TIP3   OH224689   0.961   0.211   2.891
 8242TIP3    H124690   0.993   0.296   2.861
 8242TIP3    H224691   0.928   0.168   2.812
 8243TIP3   OH224692   3.897   0.681   2.249
 8243TIP3    H124693   3.976   0.652   2.205
 8243TIP3    H224694   3.830   0.618   2.223
 8244TIP3   OH224695   2.803   5.853   0.662
 8244TIP3    H124696   2.710   5.875   0.669
 8244TIP3    H224697   2.806   5.772   0.612
 8245TIP3   OH224698   5.477   6.426   0.632
 8245TIP3    H124699   5.487   6.493   0.563
 8245TIP3    H224700   5.477   6.476   0.713
 8246TIP3   OH224701   3.812   1.788   2.722
 8246TIP3    H124702   3.734   1.782   2.666
 8246TIP3    H224703   3.811   1.879   2.753
 8247TIP3   OH224704   0.207   0.884   4.225
 8247TIP3    H124705   0.194   0.978   4.236
 8247TIP3    H224706   0.173   0.845   4.305
 8248TIP3   OH224707   6.638  -0.004   4.991
 8248TIP3    H124708   6.638   0.062   5.060
 8248TIP3    H224709   6.597   0.039   4.916
 8249TIP3   OH224710   3.672   0.473   2.178
 8249TIP3    H124711   3.590   0.472   2.227
 8249TIP3    H224712   3.652   0.520   2.098
 8250TIP3   OH224713   2.000   6.484   1.749
 8250TIP3    H124714   2.023   6.563   1.700
 8250TIP3    H224715   1.975   6.420   1.682
 8251TIP3   OH224716   6.755   3.886   5.166
 8251TIP3    H124717   6.701   3.865   5.090
 8251TIP3    H224718   6.841   3.851   5.145
 8252TIP3   OH224719   5.813   0.544   4.287
 8252TIP3    H124720   5.742   0.512   4.343
 8252TIP3    H224721   5.849   0.619   4.334
 8253TIP3   OH224722   6.608   3.875   1.224
 8253TIP3    H124723   6.576   3.797   1.178
 8253TIP3    H224724   6.692   3.848   1.262
 8254TIP3   OH224725   3.094   1.994   1.114
 8254TIP3    H124726   3.067   1.993   1.022
 8254TIP3    H224727   3.031   2.052   1.157
 8255TIP3   OH224728   2.101   0.436   5.106
 8255TIP3    H124729   2.169   0.369   5.113
 8255TIP3    H224730   2.019   0.387   5.112
 8256TIP3   OH224731   0.363   2.764   4.159
 8256TIP3    H124732   0.298   2.833   4.150
 8256TIP3    H224733   0.392   2.769   4.250
 8257TIP3   OH224734   6.285   0.256   0.171
 8257TIP3    H124735   6.275   0.333   0.227
 8257TIP3    H224736   6.196   0.222   0.162
 8258TIP3   OH224737   1.753   1.875   5.272
 8258TIP3    H124738   1.697   1.797   5.277
 8258TIP3    H224739   1.839   1.842   5.248
 8259TIP3   OH224740   5.219   5.582   3.397
 8259TIP3    H124741   5.146   5.609   3.453
 8259TIP3    H224742   5.292   5.637   3.425
 8260TIP3   OH224743   3.106  -0.074   0.173
 8260TIP3    H124744   3.103  -0.101   0.265
 8260TIP3    H224745   3.088   0.020   0.175
 8261TIP3   OH224746   0.076   5.265   1.838
 8261TIP3    H124747   0.100   5.337   1.896
 8261TIP3    H224748   0.095   5.186   1.889
 8262TIP3   OH224749   0.116   1.231   5.364
 8262TIP3    H124750   0.112   1.323   5.393
 8262TIP3    H224751   0.025   1.201   5.367
 8263TIP3   OH224752   2.352   4.159   5.025
 8263TIP3    H124753   2.388   4.187   5.109
 8263TIP3    H224754   2.335   4.065   5.037
 8264TIP3   OH224755   0.810   5.034   4.796
 8264TIP3    H124756   0.900   5.059   4.819
 8264TIP3    H224757   0.782   5.100   4.734
 8265TIP3   OH224758   7.148   4.284   3.516
 8265TIP3    H124759   7.221   4.344   3.534
 8265TIP3    H224760   7.093   4.290   3.594
 8266TIP3   OH224761   2.710   5.666   4.146
 8266TIP3    H124762   2.757   5.670   4.062
 8266TIP3    H224763   2.744   5.740   4.196
 8267TIP3   OH224764   3.088   4.819   0.373
 8267TIP3    H124765   3.153   4.872   0.326
 8267TIP3    H224766   3.048   4.880   0.435
 8268TIP3   OH224767   1.595   3.297   5.856
 8268TIP3    H124768   1.613   3.272   5.765
 8268TIP3    H224769   1.507   3.333   5.854
 8269TIP3   OH224770   1.264   3.882   3.825
 8269TIP3    H124771   1.311   3.950   3.776
 8269TIP3    H224772   1.244   3.815   3.760
 8270TIP3   OH224773   7.034   3.998   4.637
 8270TIP3    H124774   6.979   4.051   4.581
 8270TIP3    H224775   6.977   3.928   4.669
 8271TIP3   OH224776   3.965   6.479   3.800
 8271TIP3    H124777   4.038   6.534   3.772
 8271TIP3    H224778   3.955   6.497   3.893
 8272TIP3   OH224779   6.251   4.857   2.207
 8272TIP3    H124780   6.243   4.821   2.119
 8272TIP3    H224781   6.290   4.787   2.259
 8273TIP3   OH224782   6.314   5.787   3.348
 8273TIP3    H124783   6.396   5.835   3.360
 8273TIP3    H224784   6.250   5.838   3.397
 8274TIP3   OH224785   1.529   4.714   1.381
 8274TIP3    H124786   1.527   4.626   1.343
 8274TIP3    H224787   1.456   4.759   1.338
 8275TIP3   OH224788   0.332   3.685   0.169
 8275TIP3    H124789   0.290   3.599   0.171
 8275TIP3    H224790   0.299   3.730   0.246
 8276TIP3   OH224791   0.595   3.172   0.808
 8276TIP3    H124792   0.570   3.082   0.790
 8276TIP3    H224793   0.559   3.222   0.735
 8277TIP3   OH224794   2.784   1.203   5.361
 8277TIP3    H124795   2.736   1.232   5.438
 8277TIP3    H224796   2.843   1.275   5.340
 8278TIP3   OH224797   1.067   5.776   2.524
 8278TIP3    H124798   1.023   5.702   2.484
 8278TIP3    H224799   1.159   5.768   2.497
 8279TIP3   OH224800   4.260   6.131   3.168
 8279TIP3    H124801   4.197   6.122   3.239
 8279TIP3    H224802   4.207   6.157   3.092
 8280TIP3   OH224803   0.986   6.596   0.512
 8280TIP3    H124804   1.050   6.556   0.571
 8280TIP3    H224805   1.004   6.689   0.517
 8281TIP3   OH224806   7.028   3.776   0.989
 8281TIP3    H124807   6.993   3.861   0.961
 8281TIP3    H224808   7.094   3.798   1.056
 8282TIP3   OH224809   3.751   3.606   4.836
 8282TIP3    H124810   3.700   3.645   4.766
 8282TIP3    H224811   3.754   3.673   4.904
 8283TIP3   OH224812   3.834   1.310   1.298
 8283TIP3    H124813   3.838   1.364   1.219
 8283TIP3    H224814   3.796   1.368   1.364
 8284TIP3   OH224815   1.615   5.493   3.667
 8284TIP3    H124816   1.523   5.486   3.689
 8284TIP3    H224817   1.649   5.404   3.680
 8285TIP3   OH224818   4.860   3.838   4.536
 8285TIP3    H124819   4.839   3.760   4.587
 8285TIP3    H224820   4.845   3.911   4.597
 8286TIP3   OH224821   6.380   0.479   0.014
 8286TIP3    H124822   6.308   0.491  -0.049
 8286TIP3    H224823   6.368   0.390   0.047
 8287TIP3   OH224824   3.693   0.379   3.430
 8287TIP3    H124825   3.714   0.295   3.471
 8287TIP3    H224826   3.619   0.413   3.480
 8288TIP3   OH224827   4.973   1.556   4.548
 8288TIP3    H124828   5.058   1.579   4.585
 8288TIP3    H224829   4.920   1.635   4.561
 8289TIP3   OH224830   4.976   2.227   4.077
 8289TIP3    H124831   5.062   2.246   4.114
 8289TIP3    H224832   4.987   2.238   3.982
 8290TIP3   OH224833   5.701   3.067   0.636
 8290TIP3    H124834   5.755   3.146   0.633
 8290TIP3    H224835   5.720   3.028   0.721
 8291TIP3   OH224836   2.319   2.755   1.728
 8291TIP3    H124837   2.387   2.821   1.717
 8291TIP3    H224838   2.260   2.792   1.795
 8292TIP3   OH224839   1.893   0.822   0.758
 8292TIP3    H124840   1.902   0.744   0.811
 8292TIP3    H224841   1.880   0.893   0.821
 8293TIP3   OH224842   4.758   1.716   2.597
 8293TIP3    H124843   4.670   1.680   2.584
 8293TIP3    H224844   4.792   1.728   2.508
 8294TIP3   OH224845   1.698   2.802   3.458
 8294TIP3    H124846   1.659   2.715   3.467
 8294TIP3    H224847   1.691   2.822   3.365
 8295TIP3   OH224848   2.911   2.483   5.855
 8295TIP3    H124849   2.971   2.543   5.899
 8295TIP3    H224850   2.882   2.423   5.925
 8296TIP3   OH224851   7.043   3.317   1.620
 8296TIP3    H124852   6.990   3.238   1.610
 8296TIP3    H224853   7.073   3.314   1.711
 8297TIP3   OH224854   2.320   1.048   1.991
 8297TIP3    H124855   2.372   1.039   2.070
 8297TIP3    H224856   2.373   1.008   1.922
 8298TIP3   OH224857   4.085   5.546   2.318
 8298TIP3    H124858   4.004   5.520   2.275
 8298TIP3    H224859   4.120   5.465   2.354
 8299TIP3   OH224860   4.507   2.372  -0.022
 8299TIP3    H124861   4.527   2.302  -0.083
 8299TIP3    H224862   4.578   2.369   0.042
 8300TIP3   OH224863   1.353   5.401   3.762
 8300TIP3    H124864   1.399   5.396   3.846
 8300TIP3    H224865   1.303   5.320   3.758
 8301TIP3   OH224866   1.431   4.027   1.318
 8301TIP3    H124867   1.455   3.948   1.269
 8301TIP3    H224868   1.478   4.098   1.274
 8302TIP3   OH224869   3.777   6.490   0.903
 8302TIP3    H124870   3.731   6.413   0.937
 8302TIP3    H224871   3.717   6.563   0.919
 8303TIP3   OH224872   5.568   1.843   4.321
 8303TIP3    H124873   5.617   1.782   4.266
 8303TIP3    H224874   5.540   1.913   4.261
 8304TIP3   OH224875   6.295   0.419   4.266
 8304TIP3    H124876   6.354   0.414   4.341
 8304TIP3    H224877   6.315   0.341   4.214
 8305TIP3   OH224878   2.158   5.735   1.193
 8305TIP3    H124879   2.102   5.751   1.269
 8305TIP3    H224880   2.102   5.751   1.118
 8306TIP3   OH224881   1.791   0.158   3.619
 8306TIP3    H124882   1.739   0.229   3.581
 8306TIP3    H224883   1.753   0.144   3.705
 8307TIP3   OH224884   5.774   2.123   3.357
 8307TIP3    H124885   5.869   2.127   3.366
 8307TIP3    H224886   5.749   2.039   3.395
 8308TIP3   OH224887   4.871   3.574   4.233
 8308TIP3    H124888   4.900   3.487   4.206
 8308TIP3    H224889   4.939   3.604   4.293
 8309TIP3   OH224890   1.168   3.758   4.202
 8309TIP3    H124891   1.120   3.779   4.122
 8309TIP3    H224892   1.102   3.722   4.261
 8310TIP3   OH224893   1.875   3.194   2.819
 8310TIP3    H124894   1.857   3.217   2.910
 8310TIP3    H224895   1.832   3.263   2.768
 8311TIP3   OH224896   6.556   0.710   2.699
 8311TIP3    H124897   6.586   0.732   2.610
 8311TIP3    H224898   6.618   0.753   2.757
 8312TIP3   OH224899   3.824   6.237   3.752
 8312TIP3    H124900   3.897   6.178   3.732
 8312TIP3    H224901   3.867   6.321   3.773
 8313TIP3   OH224902   2.110   4.138   0.538
 8313TIP3    H124903   2.111   4.176   0.625
 8313TIP3    H224904   2.142   4.048   0.550
 8314TIP3   OH224905   4.065   2.227   1.777
 8314TIP3    H124906   4.029   2.202   1.863
 8314TIP3    H224907   3.993   2.274   1.734
 8315TIP3   OH224908   1.430   4.509   1.938
 8315TIP3    H124909   1.488   4.504   2.014
 8315TIP3    H224910   1.484   4.549   1.869
 8316TIP3   OH224911   5.087   2.957   0.995
 8316TIP3    H124912   5.014   2.928   1.050
 8316TIP3    H224913   5.137   2.878   0.976
 8317TIP3   OH224914   5.449   4.493   5.655
 8317TIP3    H124915   5.428   4.437   5.730
 8317TIP3    H224916   5.456   4.581   5.693
 8318TIP3   OH224917   1.843   5.464   2.153
 8318TIP3    H124918   1.829   5.371   2.131
 8318TIP3    H224919   1.865   5.463   2.246
 8319TIP3   OH224920   3.616   3.409   4.213
 8319TIP3    H124921   3.672   3.457   4.274
 8319TIP3    H224922   3.660   3.418   4.129
 8320TIP3   OH224923   3.699   0.071   4.334
 8320TIP3    H124924   3.695  -0.001   4.397
 8320TIP3    H224925   3.739   0.032   4.256
 8321TIP3   OH224926   1.581   6.388   4.364
 8321TIP3    H124927   1.671   6.357   4.373
 8321TIP3    H224928   1.575   6.464   4.422
 8322TIP3   OH224929   5.896   6.569   0.316
 8322TIP3    H124930   5.896   6.497   0.379
 8322TIP3    H224931   5.971   6.623   0.342
 8323TIP3   OH224932   0.583   5.784   5.469
 8323TIP3    H124933   0.667   5.808   5.431
 8323TIP3    H224934   0.589   5.811   5.560
 8324TIP3   OH224935   2.079   0.928   4.255
 8324TIP3    H124936   2.053   0.854   4.309
 8324TIP3    H224937   2.169   0.910   4.230
 8325TIP3   OH224938   6.016   3.897   0.756
 8325TIP3    H124939   6.014   3.810   0.796
 8325TIP3    H224940   6.022   3.957   0.831
 8326TIP3   OH224941   1.339   6.368   1.243
 8326TIP3    H124942   1.342   6.330   1.331
 8326TIP3    H224943   1.251   6.404   1.235
 8327TIP3   OH224944   0.778   1.896   4.647
 8327TIP3    H124945   0.743   1.958   4.582
 8327TIP3    H224946   0.743   1.926   4.730
 8328TIP3   OH224947   2.162   2.856   1.914
 8328TIP3    H124948   2.187   2.937   1.960
 8328TIP3    H224949   2.118   2.804   1.981
 8329TIP3   OH224950   6.099   1.508   2.729
 8329TIP3    H124951   6.195   1.509   2.729
 8329TIP3    H224952   6.074   1.600   2.715
 8330TIP3   OH224953   4.930   4.965   4.990
 8330TIP3    H124954   4.835   4.978   4.992
 8330TIP3    H224955   4.962   5.029   4.926
 8331TIP3   OH224956   2.344   5.124   5.483
 8331TIP3    H124957   2.362   5.031   5.497
 8331TIP3    H224958   2.338   5.132   5.387
 8332TIP3   OH224959   3.306   4.921   5.075
 8332TIP3    H124960   3.377   4.858   5.060
 8332TIP3    H224961   3.256   4.885   5.148
 8333TIP3   OH224962   6.000   2.362   2.943
 8333TIP3    H124963   5.967   2.369   3.033
 8333TIP3    H224964   5.998   2.268   2.925
 8334TIP3   OH224965   0.982   4.390   2.860
 8334TIP3    H124966   1.066   4.427   2.887
 8334TIP3    H224967   0.989   4.381   2.765
 8335TIP3   OH224968   1.504   2.449   0.385
 8335TIP3    H124969   1.454   2.393   0.326
 8335TIP3    H224970   1.443   2.469   0.456
 8336TIP3   OH224971   2.088   2.220   0.206
 8336TIP3    H124972   2.079   2.274   0.128
 8336TIP3    H224973   2.035   2.264   0.272
 8337TIP3   OH224974   6.260   6.041   5.775
 8337TIP3    H124975   6.223   5.976   5.715
 8337TIP3    H224976   6.307   5.989   5.840
 8338TIP3   OH224977   3.144   2.735   0.416
 8338TIP3    H124978   3.125   2.828   0.410
 8338TIP3    H224979   3.138   2.715   0.509
 8339TIP3   OH224980   2.962   2.021   2.679
 8339TIP3    H124981   2.917   2.073   2.745
 8339TIP3    H224982   2.891   1.976   2.632
 8340TIP3   OH224983   5.354   0.193   4.548
 8340TIP3    H124984   5.405   0.196   4.628
 8340TIP3    H224985   5.411   0.150   4.484
 8341TIP3   OH224986   2.433   1.792   2.854
 8341TIP3    H124987   2.513   1.838   2.879
 8341TIP3    H224988   2.463   1.717   2.804
 8342TIP3   OH224989   1.305   3.433   5.711
 8342TIP3    H124990   1.306   3.439   5.806
 8342TIP3    H224991   1.246   3.360   5.692
 8343TIP3   OH224992   4.412   0.700   2.083
 8343TIP3    H124993   4.416   0.664   1.994
 8343TIP3    H224994   4.415   0.795   2.070
 8344TIP3   OH224995   6.105   4.614   3.144
 8344TIP3    H124996   6.074   4.524   3.154
 8344TIP3    H224997   6.185   4.606   3.092
 8345TIP3   OH224998   5.747   3.633   4.463
 8345TIP3    H124999   5.738   3.723   4.495
 8345TIP3    H225000   5.740   3.579   4.542
 8346TIP3   OH225001   6.107   5.045   4.045
 8346TIP3    H125002   6.191   5.042   4.092
 8346TIP3    H225003   6.041   5.047   4.114
 8347TIP3   OH225004   5.273   6.007   3.166
 8347TIP3    H125005   5.273   5.940   3.098
 8347TIP3    H225006   5.294   6.088   3.120
 8348TIP3   OH225007   3.401   5.978   3.072
 8348TIP3    H125008   3.480   5.925   3.074
 8348TIP3    H225009   3.335   5.923   3.030
 8349TIP3   OH225010   2.134   2.347   1.667
 8349TIP3    H125011   2.058   2.308   1.709
 8349TIP3    H225012   2.179   2.394   1.736
 8350TIP3   OH225013   5.651   3.171   5.370
 8350TIP3    H125014   5.686   3.118   5.441
 8350TIP3    H225015   5.566   3.201   5.402
 8351TIP3   OH225016   5.224   5.176   1.911
 8351TIP3    H125017   5.208   5.184   2.005
 8351TIP3    H225018   5.239   5.266   1.882
 8352TIP3   OH225019   7.118   4.264   4.741
 8352TIP3    H125020   7.148   4.173   4.740
 8352TIP3    H225021   7.058   4.269   4.667
 8353TIP3   OH225022   0.329   4.178   5.757
 8353TIP3    H125023   0.377   4.095   5.747
 8353TIP3    H225024   0.307   4.182   5.850
 8354TIP3   OH225025   0.085   4.947   1.114
 8354TIP3    H125026   0.149   4.999   1.065
 8354TIP3    H225027   0.009   4.942   1.056
 8355TIP3   OH225028   3.573   6.740   0.558
 8355TIP3    H125029   3.647   6.775   0.508
 8355TIP3    H225030   3.556   6.654   0.520
 8356TIP3   OH225031   2.227   4.524   4.452
 8356TIP3    H125032   2.299   4.534   4.514
 8356TIP3    H225033   2.254   4.451   4.396
 8357TIP3   OH225034   4.245   5.007   0.345
 8357TIP3    H125035   4.330   5.046   0.368
 8357TIP3    H225036   4.190   5.081   0.321
 8358TIP3   OH225037   3.553   5.064   0.561
 8358TIP3    H125038   3.544   5.124   0.635
 8358TIP3    H225039   3.465   5.029   0.548
 8359TIP3   OH225040   6.729   0.595   0.344
 8359TIP3    H125041   6.794   0.609   0.275
 8359TIP3    H225042   6.673   0.525   0.311
 8360TIP3   OH225043   4.909   5.394   1.508
 8360TIP3    H125044   4.876   5.466   1.561
 8360TIP3    H225045   5.004   5.396   1.521
 8361TIP3   OH225046   3.812   2.158   1.186
 8361TIP3    H125047   3.843   2.248   1.190
 8361TIP3    H225048   3.720   2.166   1.159
 8362TIP3   OH225049   4.013   3.992   4.101
 8362TIP3    H125050   4.075   3.928   4.065
 8362TIP3    H225051   4.046   4.077   4.071
 8363TIP3   OH225052   1.317   2.128   2.976
 8363TIP3    H125053   1.265   2.096   2.902
 8363TIP3    H225054   1.260   2.114   3.052
 8364TIP3   OH225055   0.156   0.417   4.110
 8364TIP3    H125056   0.132   0.504   4.078
 8364TIP3    H225057   0.251   0.419   4.113
 8365TIP3   OH225058   0.090   0.269   3.586
 8365TIP3    H125059   0.138   0.352   3.585
 8365TIP3    H225060   0.051   0.262   3.499
 8366TIP3   OH225061   6.357   1.673   0.502
 8366TIP3    H125062   6.387   1.661   0.592
 8366TIP3    H225063   6.382   1.763   0.480
 8367TIP3   OH225064   3.513   2.550   0.719
 8367TIP3    H125065   3.561   2.473   0.689
 8367TIP3    H225066   3.516   2.610   0.645
 8368TIP3   OH225067  -0.006   4.774   1.901
 8368TIP3    H125068   0.045   4.829   1.961
 8368TIP3    H225069   0.039   4.782   1.817
 8369TIP3   OH225070   2.505   0.215   0.875
 8369TIP3    H125071   2.527   0.267   0.952
 8369TIP3    H225072   2.486   0.281   0.807
 8370TIP3   OH225073   1.832   4.079   3.567
 8370TIP3    H125074   1.820   3.985   3.575
 8370TIP3    H225075   1.926   4.090   3.550
 8371TIP3   OH225076   4.206   0.050   3.229
 8371TIP3    H125077   4.167  -0.034   3.207
 8371TIP3    H225078   4.296   0.045   3.195
 8372TIP3   OH225079   6.552   3.624   2.511
 8372TIP3    H125080   6.473   3.678   2.519
 8372TIP3    H225081   6.548   3.566   2.587
 8373TIP3   OH225082   1.318   0.555   2.627
 8373TIP3    H125083   1.390   0.594   2.676
 8373TIP3    H225084   1.297   0.619   2.559
 8374TIP3   OH225085   4.084   2.273   3.270
 8374TIP3    H125086   4.020   2.343   3.281
 8374TIP3    H225087   4.040   2.194   3.304
 8375TIP3   OH225088   4.035   1.719   1.574
 8375TIP3    H125089   4.090   1.796   1.561
 8375TIP3    H225090   3.962   1.750   1.628
 8376TIP3   OH225091   5.736   1.016   1.131
 8376TIP3    H125092   5.721   0.929   1.169
 8376TIP3    H225093   5.808   1.002   1.069
 8377TIP3   OH225094   4.699   4.358   3.018
 8377TIP3    H125095   4.775   4.411   2.994
 8377TIP3    H225096   4.688   4.298   2.945
 8378TIP3   OH225097   0.021   6.828   1.200
 8378TIP3    H125098   0.112   6.823   1.230
 8378TIP3    H225099  -0.032   6.815   1.278
 8379TIP3   OH225100   1.636   3.619   3.843
 8379TIP3    H125101   1.591   3.553   3.896
 8379TIP3    H225102   1.679   3.568   3.774
 8380TIP3   OH225103   2.866   2.150   2.326
 8380TIP3    H125104   2.782   2.120   2.290
 8380TIP3    H225105   2.846   2.234   2.368
 8381TIP3   OH225106   2.820   1.314   0.016
 8381TIP3    H125107   2.814   1.224   0.047
 8381TIP3    H225108   2.908   1.321  -0.021
 8382TIP3   OH225109   5.133   1.641   1.257
 8382TIP3    H125110   5.049   1.598   1.245
 8382TIP3    H225111   5.166   1.605   1.340
 8383TIP3   OH225112   5.546   0.888   5.082
 8383TIP3    H125113   5.605   0.813   5.070
 8383TIP3    H225114   5.605   0.962   5.096
 8384TIP3   OH225115   6.918   2.552   5.595
 8384TIP3    H125116   6.983   2.620   5.612
 8384TIP3    H225117   6.965   2.470   5.612
 8385TIP3   OH225118   2.513   0.670   3.044
 8385TIP3    H125119   2.527   0.581   3.012
 8385TIP3    H225120   2.503   0.660   3.139
 8386TIP3   OH225121   5.749   0.551   1.197
 8386TIP3    H125122   5.754   0.529   1.290
 8386TIP3    H225123   5.694   0.482   1.159
 8387TIP3   OH225124   3.751   1.203   3.592
 8387TIP3    H125125   3.838   1.194   3.552
 8387TIP3    H225126   3.762   1.169   3.681
 8388TIP3   OH225127   6.357   0.864   4.609
 8388TIP3    H125128   6.383   0.775   4.632
 8388TIP3    H225129   6.296   0.890   4.679
 8389TIP3   OH225130   2.697   6.408   5.137
 8389TIP3    H125131   2.744   6.390   5.218
 8389TIP3    H225132   2.743   6.483   5.099
 8390TIP3   OH225133   5.547   1.409   5.342
 8390TIP3    H125134   5.533   1.403   5.437
 8390TIP3    H225135   5.526   1.321   5.310
 8391TIP3   OH225136   3.875   2.834   4.744
 8391TIP3    H125137   3.808   2.871   4.802
 8391TIP3    H225138   3.958   2.851   4.788
 8392TIP3   OH225139   4.189   6.567   1.301
 8392TIP3    H125140   4.156   6.600   1.218
 8392TIP3    H225141   4.250   6.497   1.277
 8393TIP3   OH225142   5.573   2.939   3.949
 8393TIP3    H125143   5.508   3.005   3.975
 8393TIP3    H225144   5.580   2.882   4.025
 8394TIP3   OH225145   3.738   2.950   4.923
 8394TIP3    H125146   3.644   2.958   4.935
 8394TIP3    H225147   3.776   3.003   4.993
 8395TIP3   OH225148   1.901   1.475   4.896
 8395TIP3    H125149   1.918   1.395   4.946
 8395TIP3    H225150   1.811   1.467   4.867
 8396TIP3   OH225151   6.184   5.904   3.985
 8396TIP3    H125152   6.103   5.853   3.990
 8396TIP3    H225153   6.186   5.936   3.895
 8397TIP3   OH225154   5.360   2.304   2.289
 8397TIP3    H125155   5.282   2.288   2.237
 8397TIP3    H225156   5.417   2.356   2.233
 8398TIP3   OH225157   5.737   3.327   2.314
 8398TIP3    H125158   5.747   3.421   2.296
 8398TIP3    H225159   5.826   3.292   2.309
 8399TIP3   OH225160   1.528   2.651   0.869
 8399TIP3    H125161   1.589   2.725   0.876
 8399TIP3    H225162   1.578   2.582   0.825
 8400TIP3   OH225163   1.923   6.040   5.192
 8400TIP3    H125164   1.943   6.116   5.138
 8400TIP3    H225165   1.879   5.979   5.133
 8401TIP3   OH225166   1.003   4.359   1.025
 8401TIP3    H125167   0.941   4.372   1.097
 8401TIP3    H225168   1.063   4.292   1.058
 8402TIP3   OH225169   2.017   1.428   0.803
 8402TIP3    H125170   1.963   1.411   0.881
 8402TIP3    H225171   1.971   1.384   0.732
 8403TIP3   OH225172   0.058   1.971   0.270
 8403TIP3    H125173   0.031   2.018   0.192
 8403TIP3    H225174   0.153   1.960   0.260
 8404TIP3   OH225175   0.162   2.258   1.073
 8404TIP3    H125176   0.077   2.247   1.032
 8404TIP3    H225177   0.219   2.194   1.030
 8405TIP3   OH225178   0.393   0.624   1.110
 8405TIP3    H125179   0.433   0.562   1.049
 8405TIP3    H225180   0.402   0.581   1.196
 8406TIP3   OH225181   2.257   4.230   2.203
 8406TIP3    H125182   2.216   4.259   2.122
 8406TIP3    H225183   2.277   4.311   2.250
 8407TIP3   OH225184   5.488   5.814   2.029
 8407TIP3    H125185   5.567   5.846   2.072
 8407TIP3    H225186   5.428   5.795   2.100
 8408TIP3   OH225187   2.267   1.476   2.877
 8408TIP3    H125188   2.224   1.392   2.864
 8408TIP3    H225189   2.338   1.477   2.813
 8409TIP3   OH225190   3.122   0.905   3.312
 8409TIP3    H125191   3.154   0.899   3.223
 8409TIP3    H225192   3.042   0.852   3.313
 8410TIP3   OH225193   3.846   3.590   0.829
 8410TIP3    H125194   3.782   3.584   0.900
 8410TIP3    H225195   3.929   3.566   0.868
 8411TIP3   OH225196   4.512   0.124   5.204
 8411TIP3    H125197   4.568   0.070   5.259
 8411TIP3    H225198   4.495   0.070   5.127
 8412TIP3   OH225199   1.484   1.630   3.832
 8412TIP3    H125200   1.495   1.707   3.777
 8412TIP3    H225201   1.503   1.661   3.921
 8413TIP3   OH225202   3.253   4.511   0.045
 8413TIP3    H125203   3.193   4.479  -0.022
 8413TIP3    H225204   3.198   4.526   0.122
 8414TIP3   OH225205   0.558   4.796   3.255
 8414TIP3    H125206   0.618   4.809   3.329
 8414TIP3    H225207   0.474   4.830   3.287
 8415TIP3   OH225208   0.593   5.513   5.369
 8415TIP3    H125209   0.509   5.486   5.333
 8415TIP3    H225210   0.584   5.608   5.383
 8416TIP3   OH225211   6.466   6.107   2.550
 8416TIP3    H125212   6.501   6.101   2.638
 8416TIP3    H225213   6.452   6.017   2.522
 8417TIP3   OH225214   6.793   0.704   5.010
 8417TIP3    H125215   6.801   0.770   5.079
 8417TIP3    H225216   6.879   0.662   5.007
 8418TIP3   OH225217   3.576   1.371   4.896
 8418TIP3    H125218   3.596   1.279   4.877
 8418TIP3    H225219   3.486   1.383   4.865
 8419TIP3   OH225220   1.720   2.735   0.136
 8419TIP3    H125221   1.731   2.643   0.163
 8419TIP3    H225222   1.685   2.778   0.214
 8420TIP3   OH225223   6.570   1.362   4.993
 8420TIP3    H125224   6.644   1.388   5.047
 8420TIP3    H225225   6.526   1.444   4.971
 8421TIP3   OH225226   6.279   5.643   0.698
 8421TIP3    H125227   6.192   5.603   0.705
 8421TIP3    H225228   6.340   5.570   0.708
 8422TIP3   OH225229   2.457   2.004   3.685
 8422TIP3    H125230   2.529   2.034   3.629
 8422TIP3    H225231   2.378   2.040   3.644
 8423TIP3   OH225232   6.729   1.500   0.288
 8423TIP3    H125233   6.783   1.507   0.209
 8423TIP3    H225234   6.692   1.588   0.300
 8424TIP3   OH225235   0.555   0.435   4.970
 8424TIP3    H125236   0.560   0.521   5.013
 8424TIP3    H225237   0.641   0.423   4.930
 8425TIP3   OH225238   5.248   6.607   1.395
 8425TIP3    H125239   5.246   6.688   1.344
 8425TIP3    H225240   5.308   6.550   1.346
 8426TIP3   OH225241   5.637   2.559   4.520
 8426TIP3    H125242   5.597   2.544   4.434
 8426TIP3    H225243   5.685   2.478   4.538
 8427TIP3   OH225244   6.404   1.962   0.499
 8427TIP3    H125245   6.499   1.959   0.491
 8427TIP3    H225246   6.385   2.049   0.534
 8428TIP3   OH225247   6.101   3.980   4.327
 8428TIP3    H125248   6.048   3.991   4.405
 8428TIP3    H225249   6.044   3.936   4.264
 8429TIP3   OH225250   2.056   2.271   4.223
 8429TIP3    H125251   2.083   2.363   4.227
 8429TIP3    H225252   2.007   2.265   4.141
 8430TIP3   OH225253   4.043   2.720   0.530
 8430TIP3    H125254   3.963   2.688   0.489
 8430TIP3    H225255   4.046   2.676   0.615
 8431TIP3   OH225256   4.872   6.701   0.723
 8431TIP3    H125257   4.841   6.791   0.729
 8431TIP3    H225258   4.922   6.687   0.803
 8432TIP3   OH225259   3.152   1.634   1.096
 8432TIP3    H125260   3.079   1.651   1.036
 8432TIP3    H225261   3.182   1.546   1.072
 8433TIP3   OH225262   2.082   4.206   0.794
 8433TIP3    H125263   2.143   4.222   0.865
 8433TIP3    H225264   2.028   4.133   0.824
 8434TIP3   OH225265   3.365   0.189   1.761
 8434TIP3    H125266   3.328   0.277   1.751
 8434TIP3    H225267   3.346   0.165   1.852
 8435TIP3   OH225268   0.457   1.618   4.444
 8435TIP3    H125269   0.504   1.701   4.436
 8435TIP3    H225270   0.373   1.635   4.401
 8436TIP3   OH225271   0.347   4.843   3.418
 8436TIP3    H125272   0.275   4.900   3.390
 8436TIP3    H225273   0.352   4.857   3.513
 8437TIP3   OH225274   4.796   1.117   4.315
 8437TIP3    H125275   4.891   1.119   4.331
 8437TIP3    H225276   4.762   1.190   4.367
 8438TIP3   OH225277   6.569   1.827   1.162
 8438TIP3    H125278   6.523   1.905   1.131
 8438TIP3    H225279   6.519   1.798   1.238
 8439TIP3   OH225280   3.716   4.090   0.512
 8439TIP3    H125281   3.720   4.184   0.528
 8439TIP3    H225282   3.781   4.074   0.444
 8440TIP3   OH225283   3.424   2.034   1.909
 8440TIP3    H125284   3.515   2.012   1.890
 8440TIP3    H225285   3.382   2.041   1.823
 8441TIP3   OH225286   0.933   5.027   1.186
 8441TIP3    H125287   0.850   5.058   1.151
 8441TIP3    H225288   0.912   4.999   1.275
 8442TIP3   OH225289   6.424   5.045   2.723
 8442TIP3    H125290   6.498   5.027   2.782
 8442TIP3    H225291   6.465   5.073   2.641
 8443TIP3   OH225292   1.040   5.253   2.458
 8443TIP3    H125293   1.026   5.213   2.373
 8443TIP3    H225294   0.975   5.323   2.463
 8444TIP3   OH225295   4.030   4.557   2.378
 8444TIP3    H125296   3.991   4.515   2.301
 8444TIP3    H225297   4.123   4.535   2.373
 8445TIP3   OH225298   4.824   4.952   2.314
 8445TIP3    H125299   4.735   4.930   2.287
 8445TIP3    H225300   4.821   5.046   2.332
 8446TIP3   OH225301   2.510   5.742   2.633
 8446TIP3    H125302   2.600   5.752   2.605
 8446TIP3    H225303   2.516   5.723   2.727
 8447TIP3   OH225304   2.279   0.833   0.531
 8447TIP3    H125305   2.341   0.865   0.466
 8447TIP3    H225306   2.331   0.779   0.590
 8448TIP3   OH225307   6.155   5.062   1.058
 8448TIP3    H125308   6.126   5.129   0.996
 8448TIP3    H225309   6.154   4.981   1.008
 8449TIP3   OH225310   3.157   1.793   1.365
 8449TIP3    H125311   3.160   1.700   1.344
 8449TIP3    H225312   3.159   1.838   1.280
 8450TIP3   OH225313   6.769   6.243   5.858
 8450TIP3    H125314   6.816   6.326   5.865
 8450TIP3    H225315   6.720   6.249   5.776
 8451TIP3   OH225316   0.162   3.948   2.150
 8451TIP3    H125317   0.078   3.963   2.105
 8451TIP3    H225318   0.188   4.035   2.180
 8452TIP3   OH225319   2.111   0.330   2.291
 8452TIP3    H125320   2.058   0.309   2.214
 8452TIP3    H225321   2.080   0.270   2.358
 8453TIP3   OH225322   1.742   5.570   5.719
 8453TIP3    H125323   1.702   5.605   5.639
 8453TIP3    H225324   1.715   5.631   5.788
 8454TIP3   OH225325   2.525   0.149   2.226
 8454TIP3    H125326   2.446   0.097   2.209
 8454TIP3    H225327   2.501   0.206   2.299
 8455TIP3   OH225328   1.761   2.832   4.162
 8455TIP3    H125329   1.745   2.892   4.089
 8455TIP3    H225330   1.747   2.886   4.240
 8456TIP3   OH225331   5.495   0.747   4.300
 8456TIP3    H125332   5.505   0.682   4.369
 8456TIP3    H225333   5.574   0.736   4.246
 8457TIP3   OH225334   7.165   6.743   0.868
 8457TIP3    H125335   7.154   6.786   0.783
 8457TIP3    H225336   7.214   6.805   0.921
 8458TIP3   OH225337  -0.028   1.697   2.168
 8458TIP3    H125338   0.048   1.671   2.221
 8458TIP3    H225339   0.009   1.731   2.087
 8459TIP3   OH225340   3.606   4.671   4.273
 8459TIP3    H125341   3.594   4.721   4.354
 8459TIP3    H225342   3.633   4.584   4.303
 8460TIP3   OH225343   1.263   1.769   1.660
 8460TIP3    H125344   1.255   1.696   1.600
 8460TIP3    H225345   1.299   1.731   1.740
 8461TIP3   OH225346   1.262   4.485   3.788
 8461TIP3    H125347   1.286   4.577   3.776
 8461TIP3    H225348   1.222   4.459   3.705
 8462TIP3   OH225349   5.520   6.188   4.528
 8462TIP3    H125350   5.486   6.239   4.601
 8462TIP3    H225351   5.607   6.160   4.556
 8463TIP3   OH225352   1.010   3.669   1.103
 8463TIP3    H125353   1.046   3.752   1.072
 8463TIP3    H225354   1.035   3.665   1.195
 8464TIP3   OH225355   7.231   5.691   1.244
 8464TIP3    H125356   7.180   5.765   1.210
 8464TIP3    H225357   7.188   5.614   1.207
 8465TIP3   OH225358   6.782   0.039   3.335
 8465TIP3    H125359   6.807   0.131   3.342
 8465TIP3    H225360   6.729   0.035   3.255
 8466TIP3   OH225361   4.792   2.642   4.586
 8466TIP3    H125362   4.737   2.669   4.513
 8466TIP3    H225363   4.797   2.720   4.642
 8467TIP3   OH225364   0.551   6.766   2.208
 8467TIP3    H125365   0.639   6.741   2.238
 8467TIP3    H225366   0.536   6.712   2.130
 8468TIP3   OH225367   2.873   4.334   2.111
 8468TIP3    H125368   2.796   4.297   2.068
 8468TIP3    H225369   2.901   4.266   2.173
 8469TIP3   OH225370   0.917   5.411   4.912
 8469TIP3    H125371   0.964   5.328   4.924
 8469TIP3    H225372   0.964   5.455   4.842
 8470TIP3   OH225373   3.165   2.516   2.121
 8470TIP3    H125374   3.114   2.594   2.097
 8470TIP3    H225375   3.115   2.476   2.192
 8471TIP3   OH225376   4.053   5.633   4.948
 8471TIP3    H125377   4.046   5.583   5.030
 8471TIP3    H225378   3.994   5.589   4.888
 8472TIP3   OH225379   2.631   2.804   3.592
 8472TIP3    H125380   2.606   2.843   3.509
 8472TIP3    H225381   2.655   2.714   3.570
 8473TIP3   OH225382   6.593   4.170   2.980
 8473TIP3    H125383   6.546   4.097   2.940
 8473TIP3    H225384   6.677   4.173   2.935
 8474TIP3   OH225385   6.780   1.496   2.596
 8474TIP3    H125386   6.791   1.461   2.508
 8474TIP3    H225387   6.751   1.587   2.582
 8475TIP3   OH225388   2.372   5.456   2.191
 8475TIP3    H125389   2.325   5.535   2.163
 8475TIP3    H225390   2.407   5.420   2.109
 8476TIP3   OH225391   0.659   5.427   4.826
 8476TIP3    H125392   0.601   5.416   4.902
 8476TIP3    H225393   0.747   5.416   4.862
 8477TIP3   OH225394   5.424   5.748   3.505
 8477TIP3    H125395   5.389   5.837   3.505
 8477TIP3    H225396   5.519   5.760   3.501
 8478TIP3   OH225397   2.137   5.550   3.686
 8478TIP3    H125398   2.134   5.628   3.632
 8478TIP3    H225399   2.096   5.576   3.769
 8479TIP3   OH225400   4.826   4.369   0.266
 8479TIP3    H125401   4.837   4.464   0.270
 8479TIP3    H225402   4.879   4.342   0.191
 8480TIP3   OH225403   2.066   6.420   0.041
 8480TIP3    H125404   2.121   6.366   0.098
 8480TIP3    H225405   1.984   6.372   0.034
 8481TIP3   OH225406   4.851   1.456   5.109
 8481TIP3    H125407   4.943   1.430   5.115
 8481TIP3    H225408   4.842   1.491   5.021
 8482TIP3   OH225409   2.985   6.028   5.188
 8482TIP3    H125410   2.969   5.942   5.150
 8482TIP3    H225411   3.034   6.075   5.121
 8483TIP3   OH225412   1.721   3.131   2.057
 8483TIP3    H125413   1.647   3.114   2.116
 8483TIP3    H225414   1.681   3.174   1.981
 8484TIP3   OH225415   6.117   1.948   4.119
 8484TIP3    H125416   6.182   1.881   4.141
 8484TIP3    H225417   6.166   2.013   4.068
 8485TIP3   OH225418   3.044   4.034   4.591
 8485TIP3    H125419   3.046   3.945   4.555
 8485TIP3    H225420   3.064   4.090   4.516
 8486TIP3   OH225421   0.504   4.735   5.252
 8486TIP3    H125422   0.597   4.732   5.232
 8486TIP3    H225423   0.463   4.682   5.184
 8487TIP3   OH225424   5.717   5.711   5.184
 8487TIP3    H125425   5.812   5.713   5.193
 8487TIP3    H225426   5.701   5.744   5.096
 8488TIP3   OH225427   6.880   5.541   2.998
 8488TIP3    H125428   6.799   5.578   2.961
 8488TIP3    H225429   6.923   5.499   2.924
 8489TIP3   OH225430   1.972   1.733   5.717
 8489TIP3    H125431   2.027   1.658   5.694
 8489TIP3    H225432   2.004   1.761   5.802
 8490TIP3   OH225433   3.842   1.305   2.535
 8490TIP3    H125434   3.813   1.375   2.476
 8490TIP3    H225435   3.920   1.341   2.577
 8491TIP3   OH225436   5.751   2.088   4.450
 8491TIP3    H125437   5.667   2.062   4.412
 8491TIP3    H225438   5.734   2.174   4.489
 8492TIP3   OH225439   7.164   2.801   2.143
 8492TIP3    H125440   7.207   2.886   2.137
 8492TIP3    H225441   7.190   2.767   2.229
 8493TIP3   OH225442   6.047   2.327   3.214
 8493TIP3    H125443   6.075   2.236   3.199
 8493TIP3    H225444   6.125   2.369   3.250
 8494TIP3   OH225445   2.671   1.098   4.718
 8494TIP3    H125446   2.730   1.155   4.669
 8494TIP3    H225447   2.663   1.020   4.662
 8495TIP3   OH225448   6.340   0.746   0.160
 8495TIP3    H125449   6.247   0.735   0.142
 8495TIP3    H225450   6.384   0.721   0.079
 8496TIP3   OH225451   1.507   4.640   3.805
 8496TIP3    H125452   1.545   4.695   3.736
 8496TIP3    H225453   1.545   4.553   3.790
 8497TIP3   OH225454   6.648   0.898   0.045
 8497TIP3    H125455   6.589   0.950   0.099
 8497TIP3    H225456   6.729   0.893   0.095
 8498TIP3   OH225457   2.745   4.527   5.427
 8498TIP3    H125458   2.753   4.502   5.519
 8498TIP3    H225459   2.715   4.447   5.384
 8499TIP3   OH225460   0.595   5.458   4.081
 8499TIP3    H125461   0.550   5.375   4.089
 8499TIP3    H225462   0.688   5.435   4.075
 8500TIP3   OH225463   6.302   2.139   2.740
 8500TIP3    H125464   6.382   2.093   2.766
 8500TIP3    H225465   6.302   2.219   2.792
 8501TIP3   OH225466   3.166   5.074   1.188
 8501TIP3    H125467   3.078   5.038   1.194
 8501TIP3    H225468   3.209   5.023   1.119
 8502TIP3   OH225469   5.602   6.236   0.823
 8502TIP3    H125470   5.633   6.191   0.902
 8502TIP3    H225471   5.585   6.326   0.853
 8503TIP3   OH225472   0.638   6.559   2.805
 8503TIP3    H125473   0.615   6.546   2.713
 8503TIP3    H225474   0.553   6.573   2.849
 8504TIP3   OH225475   7.126   3.981   0.592
 8504TIP3    H125476   7.202   3.979   0.651
 8504TIP3    H225477   7.110   4.074   0.577
 8505TIP3   OH225478   0.642   5.689   0.466
 8505TIP3    H125479   0.651   5.639   0.385
 8505TIP3    H225480   0.585   5.635   0.521
 8506TIP3   OH225481   3.785   2.406   4.565
 8506TIP3    H125482   3.729   2.444   4.633
 8506TIP3    H225483   3.769   2.312   4.570
 8507TIP3   OH225484   2.145   6.623   1.572
 8507TIP3    H125485   2.208   6.661   1.633
 8507TIP3    H225486   2.197   6.567   1.515
 8508TIP3   OH225487   0.570   5.004   4.916
 8508TIP3    H125488   0.655   5.044   4.898
 8508TIP3    H225489   0.577   4.915   4.880
 8509TIP3   OH225490   2.108   2.134   0.855
 8509TIP3    H125491   2.040   2.070   0.878
 8509TIP3    H225492   2.178   2.118   0.919
 8510TIP3   OH225493   1.739   4.854   4.405
 8510TIP3    H125494   1.794   4.846   4.483
 8510TIP3    H225495   1.788   4.913   4.347
 8511TIP3   OH225496   3.698   6.435   2.369
 8511TIP3    H125497   3.759   6.363   2.352
 8511TIP3    H225498   3.633   6.429   2.299
 8512TIP3   OH225499   4.862   5.606   1.657
 8512TIP3    H125500   4.851   5.659   1.736
 8512TIP3    H225501   4.839   5.665   1.585
 8513TIP3   OH225502   6.033   1.175  -0.012
 8513TIP3    H125503   5.954   1.159   0.039
 8513TIP3    H225504   6.039   1.270  -0.019
 8514TIP3   OH225505   4.790   5.919   5.499
 8514TIP3    H125506   4.874   5.965   5.500
 8514TIP3    H225507   4.755   5.936   5.412
 8515TIP3   OH225508   5.915   4.161   3.372
 8515TIP3    H125509   5.972   4.084   3.370
 8515TIP3    H225510   5.900   4.178   3.465
 8516TIP3   OH225511   3.521   3.092   1.267
 8516TIP3    H125512   3.470   3.098   1.348
 8516TIP3    H225513   3.486   3.014   1.223
 8517TIP3   OH225514   1.206   3.357   3.095
 8517TIP3    H125515   1.181   3.295   3.026
 8517TIP3    H225516   1.275   3.311   3.144
 8518TIP3   OH225517   5.531   6.400   3.141
 8518TIP3    H125518   5.488   6.461   3.201
 8518TIP3    H225519   5.621   6.394   3.173
 8519TIP3   OH225520   5.411   2.965   2.726
 8519TIP3    H125521   5.396   3.032   2.793
 8519TIP3    H225522   5.460   2.896   2.771
 8520TIP3   OH225523   1.027   0.537   0.213
 8520TIP3    H125524   1.082   0.509   0.287
 8520TIP3    H225525   0.938   0.512   0.238
 8521TIP3   OH225526   3.989   3.889   3.187
 8521TIP3    H125527   4.018   3.930   3.268
 8521TIP3    H225528   3.931   3.818   3.215
 8522TIP3   OH225529   5.150   0.328   0.950
 8522TIP3    H125530   5.122   0.274   1.024
 8522TIP3    H225531   5.071   0.336   0.896
 8523TIP3   OH225532   0.683   3.123   1.259
 8523TIP3    H125533   0.610   3.158   1.207
 8523TIP3    H225534   0.655   3.136   1.350
 8524TIP3   OH225535   3.399   4.908   3.312
 8524TIP3    H125536   3.323   4.954   3.347
 8524TIP3    H225537   3.436   4.969   3.248
 8525TIP3   OH225538   7.169   3.384   0.302
 8525TIP3    H125539   7.094   3.414   0.250
 8525TIP3    H225540   7.157   3.426   0.387
 8526TIP3   OH225541   1.733   6.423   3.066
 8526TIP3    H125542   1.656   6.476   3.042
 8526TIP3    H225543   1.786   6.480   3.121
 8527TIP3   OH225544   1.071   1.725   4.743
 8527TIP3    H125545   1.144   1.755   4.796
 8527TIP3    H225546   1.081   1.773   4.660
 8528TIP3   OH225547   3.522   6.511   0.416
 8528TIP3    H125548   3.482   6.429   0.444
 8528TIP3    H225549   3.603   6.485   0.372
 8529TIP3   OH225550   6.432   3.717   5.231
 8529TIP3    H125551   6.340   3.736   5.217
 8529TIP3    H225552   6.477   3.800   5.214
 8530TIP3   OH225553   2.532   2.493   4.897
 8530TIP3    H125554   2.618   2.506   4.857
 8530TIP3    H225555   2.493   2.580   4.898
 8531TIP3   OH225556   1.900   4.193   4.377
 8531TIP3    H125557   1.981   4.178   4.329
 8531TIP3    H225558   1.899   4.288   4.392
 8532TIP3   OH225559   2.489   5.551   4.275
 8532TIP3    H125560   2.562   5.579   4.220
 8532TIP3    H225561   2.524   5.553   4.364
 8533TIP3   OH225562   7.186   6.524   4.248
 8533TIP3    H125563   7.227   6.503   4.332
 8533TIP3    H225564   7.256   6.510   4.184
 8534TIP3   OH225565   6.468   3.443   1.843
 8534TIP3    H125566   6.421   3.511   1.891
 8534TIP3    H225567   6.460   3.365   1.898
 8535TIP3   OH225568   7.118   4.559   3.870
 8535TIP3    H125569   7.142   4.538   3.780
 8535TIP3    H225570   7.168   4.637   3.891
 8536TIP3   OH225571   0.329   4.189   4.137
 8536TIP3    H125572   0.240   4.155   4.141
 8536TIP3    H225573   0.346   4.222   4.226
 8537TIP3   OH225574   5.251   1.432   1.139
 8537TIP3    H125575   5.237   1.521   1.172
 8537TIP3    H225576   5.345   1.427   1.123
 8538TIP3   OH225577   4.548   2.218   5.597
 8538TIP3    H125578   4.465   2.256   5.624
 8538TIP3    H225579   4.559   2.141   5.653
 8539TIP3   OH225580   0.725   3.854   3.971
 8539TIP3    H125581   0.716   3.763   3.941
 8539TIP3    H225582   0.635   3.883   3.985
 8540TIP3   OH225583   1.228   1.440   1.241
 8540TIP3    H125584   1.287   1.389   1.185
 8540TIP3    H225585   1.175   1.374   1.285
 8541TIP3   OH225586   0.668   3.000   1.967
 8541TIP3    H125587   0.755   3.000   1.926
 8541TIP3    H225588   0.674   2.934   2.036
 8542TIP3   OH225589   5.393   2.668   2.552
 8542TIP3    H125590   5.399   2.573   2.569
 8542TIP3    H225591   5.306   2.692   2.582
 8543TIP3   OH225592   6.417   3.221   0.007
 8543TIP3    H125593   6.466   3.223   0.090
 8543TIP3    H225594   6.485   3.223  -0.060
 8544TIP3   OH225595   0.327   3.176   5.819
 8544TIP3    H125596   0.292   3.199   5.733
 8544TIP3    H225597   0.344   3.082   5.813
 8545TIP3   OH225598   5.822   1.124   5.814
 8545TIP3    H125599   5.727   1.127   5.829
 8545TIP3    H225600   5.836   1.185   5.743
 8546TIP3   OH225601   3.836   3.654   1.503
 8546TIP3    H125602   3.843   3.663   1.408
 8546TIP3    H225603   3.745   3.630   1.519
 8547TIP3   OH225604   3.828   2.795   2.141
 8547TIP3    H125605   3.806   2.837   2.058
 8547TIP3    H225606   3.787   2.851   2.208
 8548TIP3   OH225607   5.079   4.798   1.655
 8548TIP3    H125608   5.080   4.860   1.582
 8548TIP3    H225609   5.142   4.730   1.630
 8549TIP3   OH225610   6.046   1.009   3.190
 8549TIP3    H125611   6.126   1.063   3.190
 8549TIP3    H225612   6.020   1.005   3.282
 8550TIP3   OH225613   5.158   1.236   5.764
 8550TIP3    H125614   5.192   1.208   5.849
 8550TIP3    H225615   5.235   1.248   5.710
 8551TIP3   OH225616   2.891   4.292   4.590
 8551TIP3    H125617   2.962   4.315   4.530
 8551TIP3    H225618   2.864   4.204   4.564
 8552TIP3   OH225619   1.058   5.547   0.949
 8552TIP3    H125620   1.005   5.564   1.027
 8552TIP3    H225621   1.137   5.599   0.961
 8553TIP3   OH225622   4.919   2.533   5.865
 8553TIP3    H125623   4.829   2.513   5.840
 8553TIP3    H225624   4.924   2.628   5.863
 8554TIP3   OH225625   0.694   3.911   2.485
 8554TIP3    H125626   0.669   3.999   2.457
 8554TIP3    H225627   0.615   3.877   2.528
 8555TIP3   OH225628   2.090   3.047   3.509
 8555TIP3    H125629   2.109   3.139   3.488
 8555TIP3    H225630   2.051   3.012   3.429
 8556TIP3   OH225631   4.679   4.916   1.197
 8556TIP3    H125632   4.705   5.008   1.207
 8556TIP3    H225633   4.649   4.909   1.106
 8557TIP3   OH225634   1.172   3.671   5.756
 8557TIP3    H125635   1.217   3.587   5.756
 8557TIP3    H225636   1.204   3.715   5.677
 8558TIP3   OH225637   5.666   4.949   3.927
 8558TIP3    H125638   5.651   5.040   3.954
 8558TIP3    H225639   5.634   4.946   3.837
 8559TIP3   OH225640   5.777   0.606   1.742
 8559TIP3    H125641   5.811   0.522   1.773
 8559TIP3    H225642   5.846   0.639   1.685
 8560TIP3   OH225643   1.013   4.855   5.130
 8560TIP3    H125644   1.086   4.821   5.078
 8560TIP3    H225645   0.936   4.844   5.074
 8561TIP3   OH225646   1.536   5.937   2.304
 8561TIP3    H125647   1.563   6.029   2.308
 8561TIP3    H225648   1.440   5.941   2.303
 8562TIP3   OH225649   0.706   5.758   1.281
 8562TIP3    H125650   0.682   5.834   1.228
 8562TIP3    H225651   0.755   5.701   1.222
 8563TIP3   OH225652   4.114   5.793   0.891
 8563TIP3    H125653   4.038   5.738   0.911
 8563TIP3    H225654   4.100   5.822   0.801
 8564TIP3   OH225655   4.276   2.798   2.479
 8564TIP3    H125656   4.364   2.823   2.452
 8564TIP3    H225657   4.276   2.702   2.477
 8565TIP3   OH225658   6.129   1.976   0.476
 8565TIP3    H125659   6.087   1.926   0.546
 8565TIP3    H225660   6.222   1.970   0.495
 8566TIP3   OH225661   6.147   5.409   0.225
 8566TIP3    H125662   6.227   5.358   0.213
 8566TIP3    H225663   6.082   5.366   0.169
 8567TIP3   OH225664   3.642   4.838   4.992
 8567TIP3    H125665   3.645   4.885   5.075
 8567TIP3    H225666   3.652   4.746   5.015
 8568TIP3   OH225667   2.199   4.371   5.678
 8568TIP3    H125668   2.139   4.305   5.712
 8568TIP3    H225669   2.148   4.418   5.611
 8569TIP3   OH225670   4.159   2.838   2.822
 8569TIP3    H125671   4.251   2.812   2.826
 8569TIP3    H225672   4.117   2.766   2.774
 8570TIP3   OH225673   0.324   6.342   1.286
 8570TIP3    H125674   0.393   6.327   1.222
 8570TIP3    H225675   0.265   6.267   1.276
 8571TIP3   OH225676   5.269   0.949   5.193
 8571TIP3    H125677   5.348   0.910   5.157
 8571TIP3    H225678   5.237   0.884   5.256
 8572TIP3   OH225679   2.742   2.296   2.540
 8572TIP3    H125680   2.647   2.291   2.548
 8572TIP3    H225681   2.775   2.237   2.608
 8573TIP3   OH225682   2.592   2.744   2.434
 8573TIP3    H125683   2.520   2.693   2.473
 8573TIP3    H225684   2.574   2.834   2.460
 8574TIP3   OH225685   3.664   1.932   4.383
 8574TIP3    H125686   3.680   1.845   4.420
 8574TIP3    H225687   3.739   1.984   4.412
 8575TIP3   OH225688   3.792   5.293   4.022
 8575TIP3    H125689   3.885   5.315   4.025
 8575TIP3    H225690   3.747   5.377   4.022
 8576TIP3   OH225691   6.660   4.541   4.798
 8576TIP3    H125692   6.591   4.598   4.832
 8576TIP3    H225693   6.723   4.602   4.759
 8577TIP3   OH225694   5.501   1.502   4.534
 8577TIP3    H125695   5.552   1.583   4.535
 8577TIP3    H225696   5.562   1.435   4.563
 8578TIP3   OH225697   2.044   5.416   2.956
 8578TIP3    H125698   2.036   5.326   2.925
 8578TIP3    H225699   1.997   5.467   2.891
 8579TIP3   OH225700   1.945   4.050   2.714
 8579TIP3    H125701   1.928   4.090   2.800
 8579TIP3    H225702   1.863   4.008   2.691
 8580TIP3   OH225703   0.059   0.798   4.459
 8580TIP3    H125704   0.053   0.714   4.505
 8580TIP3    H225705  -0.024   0.806   4.412
 8581TIP3   OH225706   2.425   0.128   0.456
 8581TIP3    H125707   2.477   0.207   0.443
 8581TIP3    H225708   2.489   0.058   0.467
 8582TIP3   OH225709   3.267   4.272   1.870
 8582TIP3    H125710   3.183   4.318   1.862
 8582TIP3    H225711   3.292   4.253   1.779
 8583TIP3   OH225712   1.947   0.661   5.252
 8583TIP3    H125713   1.937   0.582   5.199
 8583TIP3    H225714   2.008   0.716   5.202
 8584TIP3   OH225715   5.782   4.995   3.022
 8584TIP3    H125716   5.738   4.919   2.983
 8584TIP3    H225717   5.869   4.962   3.046
 8585TIP3   OH225718   5.892   2.924   3.174
 8585TIP3    H125719   5.807   2.959   3.149
 8585TIP3    H225720   5.878   2.830   3.184
 8586TIP3   OH225721   4.504   1.439   0.201
 8586TIP3    H125722   4.577   1.436   0.263
 8586TIP3    H225723   4.539   1.481   0.124
 8587TIP3   OH225724   4.012   5.344   5.550
 8587TIP3    H125725   4.016   5.315   5.459
 8587TIP3    H225726   3.948   5.415   5.550
 8588TIP3   OH225727   5.806   1.246   3.247
 8588TIP3    H125728   5.755   1.198   3.313
 8588TIP3    H225729   5.893   1.207   3.251
 8589TIP3   OH225730   0.605   3.385   2.651
 8589TIP3    H125731   0.524   3.339   2.627
 8589TIP3    H225732   0.664   3.369   2.577
 8590TIP3   OH225733   5.484   1.219   4.283
 8590TIP3    H125734   5.427   1.214   4.361
 8590TIP3    H225735   5.550   1.151   4.298
 8591TIP3   OH225736   6.394   4.033   4.650
 8591TIP3    H125737   6.318   4.059   4.702
 8591TIP3    H225738   6.414   3.944   4.678
 8592TIP3   OH225739   4.789   0.780   3.598
 8592TIP3    H125740   4.822   0.744   3.516
 8592TIP3    H225741   4.711   0.830   3.572
 8593TIP3   OH225742   4.191   4.757   0.377
 8593TIP3    H125743   4.263   4.776   0.437
 8593TIP3    H225744   4.182   4.837   0.324
 8594TIP3   OH225745   0.836   3.965   4.700
 8594TIP3    H125746   0.858   4.057   4.684
 8594TIP3    H225747   0.751   3.952   4.657
 8595TIP3   OH225748   6.299   2.968   2.054
 8595TIP3    H125749   6.330   2.956   2.144
 8595TIP3    H225750   6.289   2.879   2.020
 8596TIP3   OH225751   6.809   3.844   3.501
 8596TIP3    H125752   6.879   3.910   3.509
 8596TIP3    H225753   6.824   3.785   3.574
 8597TIP3   OH225754   2.504   2.289   0.741
 8597TIP3    H125755   2.458   2.344   0.805
 8597TIP3    H225756   2.434   2.243   0.696
 8598TIP3   OH225757   6.216   6.173   4.049
 8598TIP3    H125758   6.194   6.083   4.024
 8598TIP3    H225759   6.312   6.175   4.050
 8599TIP3   OH225760   1.600   5.421   0.353
 8599TIP3    H125761   1.564   5.437   0.266
 8599TIP3    H225762   1.526   5.384   0.403
 8600TIP3   OH225763   2.603   2.781   1.190
 8600TIP3    H125764   2.547   2.780   1.267
 8600TIP3    H225765   2.623   2.874   1.176
 8601TIP3   OH225766   2.841   3.043   2.926
 8601TIP3    H125767   2.895   3.103   2.875
 8601TIP3    H225768   2.753   3.052   2.888
 8602TIP3   OH225769   1.569   5.593   4.465
 8602TIP3    H125770   1.502   5.661   4.452
 8602TIP3    H225771   1.539   5.545   4.542
 8603TIP3   OH225772   3.553   6.157   3.265
 8603TIP3    H125773   3.487   6.108   3.313
 8603TIP3    H225774   3.510   6.239   3.242
 8604TIP3   OH225775   4.508   3.783   1.078
 8604TIP3    H125776   4.594   3.794   1.119
 8604TIP3    H225777   4.525   3.735   0.998
 8605TIP3   OH225778   1.491   0.548   4.706
 8605TIP3    H125779   1.495   0.453   4.703
 8605TIP3    H225780   1.424   0.572   4.642
 8606TIP3   OH225781   1.770   2.856   2.064
 8606TIP3    H125782   1.750   2.944   2.030
 8606TIP3    H225783   1.760   2.798   1.989
 8607TIP3   OH225784   1.584   2.420   1.102
 8607TIP3    H125785   1.567   2.398   1.011
 8607TIP3    H225786   1.655   2.483   1.100
 8608TIP3   OH225787   1.700   5.268   3.414
 8608TIP3    H125788   1.728   5.330   3.481
 8608TIP3    H225789   1.777   5.256   3.358
 8609TIP3   OH225790   2.151   5.002   0.265
 8609TIP3    H125791   2.192   4.941   0.326
 8609TIP3    H225792   2.058   4.998   0.285
 8610TIP3   OH225793   1.825   3.984   0.784
 8610TIP3    H125794   1.832   3.896   0.746
 8610TIP3    H225795   1.776   4.035   0.719
 8611TIP3   OH225796   4.714   2.307   2.852
 8611TIP3    H125797   4.704   2.400   2.873
 8611TIP3    H225798   4.648   2.290   2.786
 8612TIP3   OH225799   6.248   5.200   2.920
 8612TIP3    H125800   6.254   5.189   3.015
 8612TIP3    H225801   6.269   5.113   2.885
 8613TIP3   OH225802   3.269   6.809   2.555
 8613TIP3    H125803   3.347   6.757   2.534
 8613TIP3    H225804   3.214   6.802   2.477
 8614TIP3   OH225805   7.108   5.047   2.122
 8614TIP3    H125806   7.056   5.105   2.066
 8614TIP3    H225807   7.196   5.052   2.086
 8615TIP3   OH225808   3.595   1.924   2.616
 8615TIP3    H125809   3.540   1.846   2.618
 8615TIP3    H225810   3.573   1.967   2.533
 8616TIP3   OH225811   4.050   0.194   4.234
 8616TIP3    H125812   4.077   0.264   4.294
 8616TIP3    H225813   4.028   0.239   4.153
 8617TIP3   OH225814   6.941   5.394   4.110
 8617TIP3    H125815   7.010   5.421   4.171
 8617TIP3    H225816   6.988   5.367   4.032
 8618TIP3   OH225817   6.419   5.541   3.389
 8618TIP3    H125818   6.364   5.603   3.341
 8618TIP3    H225819   6.422   5.576   3.478
 8619TIP3   OH225820   5.375   2.631   3.044
 8619TIP3    H125821   5.439   2.644   2.973
 8619TIP3    H225822   5.291   2.654   3.005
 8620TIP3   OH225823   2.544   5.972   4.381
 8620TIP3    H125824   2.488   5.906   4.339
 8620TIP3    H225825   2.609   5.921   4.429
 8621TIP3   OH225826   1.013   5.002   5.852
 8621TIP3    H125827   0.921   4.977   5.856
 8621TIP3    H225828   1.023   5.071   5.917
 8622TIP3   OH225829   5.770   5.619   3.056
 8622TIP3    H125830   5.836   5.555   3.081
 8622TIP3    H225831   5.723   5.639   3.137
 8623TIP3   OH225832   2.512   1.716   1.967
 8623TIP3    H125833   2.490   1.809   1.966
 8623TIP3    H225834   2.505   1.689   1.875
 8624TIP3   OH225835   5.151   3.182   3.279
 8624TIP3    H125836   5.060   3.150   3.285
 8624TIP3    H225837   5.204   3.105   3.298
 8625TIP3   OH225838   5.669   3.558   0.851
 8625TIP3    H125839   5.708   3.490   0.796
 8625TIP3    H225840   5.621   3.613   0.791
 8626TIP3   OH225841   3.459   3.399   3.705
 8626TIP3    H125842   3.414   3.339   3.765
 8626TIP3    H225843   3.434   3.368   3.617
 8627TIP3   OH225844   5.276   4.033   0.107
 8627TIP3    H125845   5.315   4.033   0.194
 8627TIP3    H225846   5.223   4.113   0.104
 8628TIP3   OH225847   4.754   6.706   5.853
 8628TIP3    H125848   4.737   6.615   5.880
 8628TIP3    H225849   4.741   6.706   5.758
 8629TIP3   OH225850   2.113   0.707   4.695
 8629TIP3    H125851   2.170   0.635   4.667
 8629TIP3    H225852   2.047   0.714   4.625
 8630TIP3   OH225853   6.342   5.527   4.478
 8630TIP3    H125854   6.282   5.549   4.408
 8630TIP3    H225855   6.424   5.506   4.433
 8631TIP3   OH225856   1.134   0.811   3.600
 8631TIP3    H125857   1.206   0.751   3.583
 8631TIP3    H225858   1.160   0.858   3.679
 8632TIP3   OH225859   4.814   2.487   2.640
 8632TIP3    H125860   4.882   2.508   2.576
 8632TIP3    H225861   4.858   2.429   2.702
 8633TIP3   OH225862   1.126   3.118   1.153
 8633TIP3    H125863   1.180   3.039   1.155
 8633TIP3    H225864   1.189   3.190   1.164
 8634TIP3   OH225865   2.834   0.917   3.009
 8634TIP3    H125866   2.889   0.953   2.939
 8634TIP3    H225867   2.767   0.866   2.963
 8635TIP3   OH225868   2.904   0.378   4.223
 8635TIP3    H125869   2.881   0.298   4.271
 8635TIP3    H225870   2.823   0.427   4.219
 8636TIP3   OH225871   3.991   4.951   2.192
 8636TIP3    H125872   4.012   5.044   2.191
 8636TIP3    H225873   4.025   4.920   2.276
 8637TIP3   OH225874   2.534   0.210   5.633
 8637TIP3    H125875   2.562   0.262   5.709
 8637TIP3    H225876   2.549   0.120   5.659
 8638TIP3   OH225877   5.560   0.774   1.828
 8638TIP3    H125878   5.583   0.816   1.910
 8638TIP3    H225879   5.631   0.713   1.811
 8639TIP3   OH225880   4.902   1.399   4.329
 8639TIP3    H125881   4.953   1.319   4.316
 8639TIP3    H225882   4.930   1.433   4.414
 8640TIP3   OH225883   5.831   4.062   2.338
 8640TIP3    H125884   5.748   4.100   2.308
 8640TIP3    H225885   5.843   4.097   2.426
 8641TIP3   OH225886   6.066   3.910   0.450
 8641TIP3    H125887   6.044   3.996   0.413
 8641TIP3    H225888   6.089   3.928   0.541
 8642TIP3   OH225889   6.794   1.969   3.020
 8642TIP3    H125890   6.791   1.930   3.107
 8642TIP3    H225891   6.729   2.039   3.022
 8643TIP3   OH225892   2.503   4.441   1.875
 8643TIP3    H125893   2.469   4.499   1.942
 8643TIP3    H225894   2.597   4.460   1.871
 8644TIP3   OH225895   0.158   3.793   5.798
 8644TIP3    H125896   0.183   3.701   5.797
 8644TIP3    H225897   0.240   3.841   5.803
 8645TIP3   OH225898   1.701   3.478   2.074
 8645TIP3    H125899   1.662   3.433   1.999
 8645TIP3    H225900   1.631   3.535   2.106
 8646TIP3   OH225901   4.376   1.588   4.058
 8646TIP3    H125902   4.469   1.599   4.077
 8646TIP3    H225903   4.374   1.557   3.967
 8647TIP3   OH225904   0.158   5.548   0.068
 8647TIP3    H125905   0.234   5.586   0.025
 8647TIP3    H225906   0.088   5.611   0.054
 8648TIP3   OH225907   4.346   4.611   1.961
 8648TIP3    H125908   4.274   4.659   1.919
 8648TIP3    H225909   4.396   4.574   1.888
 8649TIP3   OH225910   2.978   2.035   5.934
 8649TIP3    H125911   2.961   2.124   5.964
 8649TIP3    H225912   3.035   2.046   5.858
 8650TIP3   OH225913   7.130   4.251   2.689
 8650TIP3    H125914   7.183   4.237   2.610
 8650TIP3    H225915   7.109   4.344   2.686
 8651TIP3   OH225916   0.579   2.288   0.296
 8651TIP3    H125917   0.628   2.353   0.246
 8651TIP3    H225918   0.626   2.281   0.379
 8652TIP3   OH225919   0.567   1.343   3.415
 8652TIP3    H125920   0.492   1.292   3.385
 8652TIP3    H225921   0.536   1.433   3.417
 8653TIP3   OH225922   4.628   1.424   4.411
 8653TIP3    H125923   4.709   1.426   4.361
 8653TIP3    H225924   4.568   1.372   4.357
 8654TIP3   OH225925   1.210   1.136   3.567
 8654TIP3    H125926   1.226   1.094   3.483
 8654TIP3    H225927   1.159   1.214   3.546
 8655TIP3   OH225928   5.217   4.142   4.171
 8655TIP3    H125929   5.214   4.231   4.138
 8655TIP3    H225930   5.175   4.146   4.256
 8656TIP3   OH225931   5.404   6.147   1.976
 8656TIP3    H125932   5.326   6.200   1.959
 8656TIP3    H225933   5.430   6.170   2.065
 8657TIP3   OH225934   7.045   3.653   3.985
 8657TIP3    H125935   7.005   3.705   3.915
 8657TIP3    H225936   7.047   3.564   3.950
 8658TIP3   OH225937   2.371   0.326   4.898
 8658TIP3    H125938   2.333   0.318   4.810
 8658TIP3    H225939   2.393   0.419   4.906
 8659TIP3   OH225940   1.464   1.810   5.151
 8659TIP3    H125941   1.469   1.904   5.169
 8659TIP3    H225942   1.472   1.770   5.238
 8660TIP3   OH225943   0.485   6.282   4.134
 8660TIP3    H125944   0.492   6.196   4.175
 8660TIP3    H225945   0.512   6.268   4.043
 8661TIP3   OH225946   1.672   1.989   5.531
 8661TIP3    H125947   1.692   1.962   5.441
 8661TIP3    H225948   1.758   2.007   5.569
 8662TIP3   OH225949   6.829   6.160   4.748
 8662TIP3    H125950   6.923   6.147   4.759
 8662TIP3    H225951   6.807   6.110   4.669
 8663TIP3   OH225952   2.779   1.945   5.319
 8663TIP3    H125953   2.819   1.921   5.236
 8663TIP3    H225954   2.690   1.911   5.314
 8664TIP3   OH225955   3.318   3.920   4.172
 8664TIP3    H125956   3.295   3.828   4.184
 8664TIP3    H225957   3.305   3.936   4.078
 8665TIP3   OH225958   1.157   0.089   4.221
 8665TIP3    H125959   1.243   0.131   4.220
 8665TIP3    H225960   1.175  -0.001   4.248
 8666TIP3   OH225961   3.790   0.213   0.375
 8666TIP3    H125962   3.855   0.252   0.317
 8666TIP3    H225963   3.737   0.287   0.405
 8667TIP3   OH225964   1.265   0.495   1.922
 8667TIP3    H125965   1.344   0.473   1.973
 8667TIP3    H225966   1.284   0.462   1.834
 8668TIP3   OH225967   6.418   2.778   1.563
 8668TIP3    H125968   6.443   2.761   1.472
 8668TIP3    H225969   6.393   2.692   1.597
 8669TIP3   OH225970   4.224   5.405   3.360
 8669TIP3    H125971   4.152   5.358   3.318
 8669TIP3    H225972   4.299   5.347   3.350
 8670TIP3   OH225973   3.331   4.238   4.406
 8670TIP3    H125974   3.313   4.325   4.443
 8670TIP3    H225975   3.251   4.188   4.422
 8671TIP3   OH225976   4.178   2.697   3.195
 8671TIP3    H125977   4.171   2.777   3.143
 8671TIP3    H225978   4.088   2.675   3.219
 8672TIP3   OH225979   4.135   6.672   2.804
 8672TIP3    H125980   4.103   6.760   2.784
 8672TIP3    H225981   4.229   6.683   2.818
 8673TIP3   OH225982   4.674   1.201   3.435
 8673TIP3    H125983   4.761   1.239   3.428
 8673TIP3    H225984   4.615   1.269   3.400
 8674TIP3   OH225985   1.101   2.847   0.590
 8674TIP3    H125986   1.168   2.894   0.540
 8674TIP3    H225987   1.143   2.827   0.673
 8675TIP3   OH225988   2.912   5.989   2.834
 8675TIP3    H125989   2.822   6.015   2.852
 8675TIP3    H225990   2.953   5.984   2.921
 8676TIP3   OH225991   6.233   5.527   1.538
 8676TIP3    H125992   6.190   5.612   1.542
 8676TIP3    H225993   6.167   5.468   1.502
 8677TIP3   OH225994   0.797   1.305   4.692
 8677TIP3    H125995   0.824   1.391   4.723
 8677TIP3    H225996   0.862   1.245   4.728
 8678TIP3   OH225997   0.877   3.161   3.930
 8678TIP3    H125998   0.946   3.165   3.996
 8678TIP3    H225999   0.923   3.140   3.848
 8679TIP3   OH226000   3.124   4.784   1.342
 8679TIP3    H126001   3.168   4.862   1.375
 8679TIP3    H226002   3.045   4.777   1.395
 8680TIP3   OH226003   1.071   1.475   3.676
 8680TIP3    H126004   1.022   1.437   3.748
 8680TIP3    H226005   1.044   1.566   3.674
 8681TIP3   OH226006   6.502   0.990   3.010
 8681TIP3    H126007   6.563   0.980   3.083
 8681TIP3    H226008   6.454   0.907   3.007
 8682TIP3   OH226009   2.011   5.321   1.037
 8682TIP3    H126010   1.926   5.295   1.073
 8682TIP3    H226011   2.046   5.384   1.101
 8683TIP3   OH226012   3.159   4.187   3.824
 8683TIP3    H126013   3.103   4.191   3.901
 8683TIP3    H226014   3.099   4.199   3.750
 8684TIP3   OH226015   2.445   1.064   2.230
 8684TIP3    H126016   2.525   1.111   2.252
 8684TIP3    H226017   2.446   0.986   2.285
 8685TIP3   OH226018   4.170   3.266   1.534
 8685TIP3    H126019   4.186   3.210   1.610
 8685TIP3    H226020   4.211   3.220   1.461
 8686TIP3   OH226021   1.336   6.162   4.023
 8686TIP3    H126022   1.425   6.130   4.037
 8686TIP3    H226023   1.346   6.232   3.958
 8687TIP3   OH226024   0.880   0.044   0.669
 8687TIP3    H126025   0.831  -0.019   0.616
 8687TIP3    H226026   0.821   0.066   0.741
 8688TIP3   OH226027   1.703   0.505   1.328
 8688TIP3    H126028   1.661   0.535   1.408
 8688TIP3    H226029   1.716   0.411   1.341
 8689TIP3   OH226030   7.189   5.716   2.571
 8689TIP3    H126031   7.125   5.777   2.609
 8689TIP3    H226032   7.137   5.659   2.515
 8690TIP3   OH226033   0.992   4.865   2.545
 8690TIP3    H126034   0.981   4.810   2.623
 8690TIP3    H226035   0.973   4.807   2.472
 8691TIP3   OH226036   1.287   3.083   0.119
 8691TIP3    H126037   1.338   3.017   0.073
 8691TIP3    H226038   1.255   3.141   0.050
 8692TIP3   OH226039   4.788   5.763   2.769
 8692TIP3    H126040   4.781   5.723   2.683
 8692TIP3    H226041   4.727   5.836   2.767
 8693TIP3   OH226042   6.983   0.703   5.649
 8693TIP3    H126043   7.002   0.774   5.588
 8693TIP3    H226044   6.909   0.657   5.608
 8694TIP3   OH226045   1.516   0.420   2.065
 8694TIP3    H126046   1.520   0.461   2.152
 8694TIP3    H226047   1.568   0.340   2.074
 8695TIP3   OH226048   1.290   4.519   5.034
 8695TIP3    H126049   1.320   4.451   5.094
 8695TIP3    H226050   1.333   4.498   4.951
 8696TIP3   OH226051   0.415   5.465   1.928
 8696TIP3    H126052   0.477   5.518   1.878
 8696TIP3    H226053   0.352   5.528   1.962
 8697TIP3   OH226054   1.087   1.391   2.569
 8697TIP3    H126055   1.060   1.415   2.658
 8697TIP3    H226056   1.170   1.438   2.555
 8698TIP3   OH226057   3.107   2.559   3.472
 8698TIP3    H126058   3.134   2.511   3.393
 8698TIP3    H226059   3.079   2.644   3.439
 8699TIP3   OH226060   2.715   1.295   0.535
 8699TIP3    H126061   2.645   1.241   0.571
 8699TIP3    H226062   2.677   1.383   0.530
 8700TIP3   OH226063   3.704   6.687   2.098
 8700TIP3    H126064   3.673   6.707   2.010
 8700TIP3    H226065   3.755   6.606   2.088
 8701TIP3   OH226066   0.469   6.565   2.003
 8701TIP3    H126067   0.384   6.523   1.989
 8701TIP3    H226068   0.462   6.648   1.956
 8702TIP3   OH226069   3.443   6.134   3.869
 8702TIP3    H126070   3.376   6.090   3.922
 8702TIP3    H226071   3.433   6.097   3.782
 8703TIP3   OH226072   5.934   6.610   4.146
 8703TIP3    H126073   6.007   6.549   4.153
 8703TIP3    H226074   5.878   6.590   4.221
 8704TIP3   OH226075   1.655   1.599   1.548
 8704TIP3    H126076   1.717   1.528   1.532
 8704TIP3    H226077   1.599   1.600   1.471
 8705TIP3   OH226078   2.356   3.984   0.839
 8705TIP3    H126079   2.371   3.950   0.927
 8705TIP3    H226080   2.324   4.073   0.854
 8706TIP3   OH226081   0.224   3.698   2.701
 8706TIP3    H126082   0.212   3.699   2.796
 8706TIP3    H226083   0.137   3.716   2.665
 8707TIP3   OH226084   6.386   4.847   0.033
 8707TIP3    H126085   6.448   4.875  -0.033
 8707TIP3    H226086   6.345   4.769  -0.004
 8708TIP3   OH226087   6.615   6.534   3.394
 8708TIP3    H126088   6.586   6.497   3.477
 8708TIP3    H226089   6.560   6.490   3.328
 8709TIP3   OH226090   0.384   0.593   4.293
 8709TIP3    H126091   0.421   0.512   4.259
 8709TIP3    H226092   0.384   0.653   4.218
 8710TIP3   OH226093   0.710   4.970   2.459
 8710TIP3    H126094   0.803   4.992   2.461
 8710TIP3    H226095   0.707   4.878   2.485
 8711TIP3   OH226096   5.720   5.941   2.423
 8711TIP3    H126097   5.703   5.910   2.334
 8711TIP3    H226098   5.815   5.936   2.432
 8712TIP3   OH226099   5.759   0.822   5.354
 8712TIP3    H126100   5.847   0.859   5.350
 8712TIP3    H226101   5.746   0.803   5.447
 8713TIP3   OH226102   4.287   5.030   3.156
 8713TIP3    H126103   4.318   4.943   3.182
 8713TIP3    H226104   4.259   5.018   3.065
 8714TIP3   OH226105   1.752   0.145   2.652
 8714TIP3    H126106   1.740   0.086   2.727
 8714TIP3    H226107   1.665   0.182   2.637
 8715TIP3   OH226108   1.650   4.638   4.041
 8715TIP3    H126109   1.705   4.709   4.009
 8715TIP3    H226110   1.633   4.583   3.965
 8716TIP3   OH226111   5.323   1.117   3.069
 8716TIP3    H126112   5.336   1.205   3.103
 8716TIP3    H226113   5.321   1.127   2.974
 8717TIP3   OH226114   2.679   3.802   5.547
 8717TIP3    H126115   2.613   3.866   5.574
 8717TIP3    H226116   2.704   3.829   5.459
 8718TIP3   OH226117   6.043   2.847   4.314
 8718TIP3    H126118   6.001   2.764   4.340
 8718TIP3    H226119   6.104   2.866   4.385
 8719TIP3   OH226120   5.686   1.678   1.369
 8719TIP3    H126121   5.732   1.723   1.440
 8719TIP3    H226122   5.719   1.588   1.372
 8720TIP3   OH226123   3.249   2.004   4.658
 8720TIP3    H126124   3.246   1.966   4.745
 8720TIP3    H226125   3.334   2.047   4.653
 8721TIP3   OH226126   2.005   5.503   5.494
 8721TIP3    H126127   1.915   5.476   5.476
 8721TIP3    H226128   2.031   5.555   5.418
 8722TIP3   OH226129   5.324   3.816   4.672
 8722TIP3    H126130   5.305   3.898   4.626
 8722TIP3    H226131   5.347   3.754   4.603
 8723TIP3   OH226132   5.682   5.466   0.198
 8723TIP3    H126133   5.629   5.455   0.277
 8723TIP3    H226134   5.685   5.378   0.159
 8724TIP3   OH226135   5.232   1.371   0.477
 8724TIP3    H126136   5.209   1.404   0.564
 8724TIP3    H226137   5.266   1.448   0.431
 8725TIP3   OH226138   1.652   2.240   3.860
 8725TIP3    H126139   1.569   2.286   3.848
 8725TIP3    H226140   1.627   2.149   3.872
 8726TIP3   OH226141   0.901   1.606   0.720
 8726TIP3    H126142   0.925   1.615   0.627
 8726TIP3    H226143   0.806   1.616   0.721
 8727TIP3   OH226144   7.157   0.276   4.030
 8727TIP3    H126145   7.133   0.320   3.949
 8727TIP3    H226146   7.244   0.311   4.052
 8728TIP3   OH226147   1.260   2.293   4.746
 8728TIP3    H126148   1.218   2.370   4.783
 8728TIP3    H226149   1.204   2.267   4.673
 8729TIP3   OH226150   1.215   1.025   3.063
 8729TIP3    H126151   1.140   1.001   3.008
 8729TIP3    H226152   1.180   1.090   3.125
 8730TIP3   OH226153   2.587   1.100   4.973
 8730TIP3    H126154   2.628   1.115   4.888
 8730TIP3    H226155   2.524   1.030   4.957
 8731TIP3   OH226156   6.277   4.370   5.876
 8731TIP3    H126157   6.190   4.333   5.891
 8731TIP3    H226158   6.289   4.365   5.781
 8732TIP3   OH226159   5.892   5.633   3.789
 8732TIP3    H126160   5.810   5.620   3.741
 8732TIP3    H226161   5.961   5.612   3.727
 8733TIP3   OH226162   3.936   1.166   5.536
 8733TIP3    H126163   3.856   1.122   5.507
 8733TIP3    H226164   4.003   1.136   5.474
 8734TIP3   OH226165   3.547   4.174   0.775
 8734TIP3    H126166   3.567   4.153   0.866
 8734TIP3    H226167   3.564   4.268   0.768
 8735TIP3   OH226168   0.618   4.566   5.880
 8735TIP3    H126169   0.694   4.534   5.830
 8735TIP3    H226170   0.552   4.585   5.814
 8736TIP3   OH226171   4.120   2.319   4.504
 8736TIP3    H126172   4.191   2.277   4.553
 8736TIP3    H226173   4.153   2.407   4.485
 8737TIP3   OH226174   5.870   0.590   3.973
 8737TIP3    H126175   5.889   0.683   3.961
 8737TIP3    H226176   5.864   0.579   4.067
 8738TIP3   OH226177   5.528   1.794   5.870
 8738TIP3    H126178   5.446   1.816   5.915
 8738TIP3    H226179   5.504   1.723   5.811
 8739TIP3   OH226180   2.418   0.905   4.850
 8739TIP3    H126181   2.395   0.932   4.761
 8739TIP3    H226182   2.421   0.809   4.846
 8740TIP3   OH226183   3.069   1.853   3.929
 8740TIP3    H126184   2.982   1.886   3.948
 8740TIP3    H226185   3.116   1.856   4.012
 8741TIP3   OH226186   0.529   6.275   3.138
 8741TIP3    H126187   0.604   6.324   3.103
 8741TIP3    H226188   0.462   6.281   3.070
 8742TIP3   OH226189   5.226   2.314   5.415
 8742TIP3    H126190   5.218   2.400   5.372
 8742TIP3    H226191   5.297   2.271   5.369
 8743TIP3   OH226192   2.982   2.819   3.130
 8743TIP3    H126193   2.902   2.767   3.129
 8743TIP3    H226194   3.049   2.761   3.166
 8744TIP3   OH226195   2.114   5.809   3.564
 8744TIP3    H126196   2.081   5.812   3.654
 8744TIP3    H226197   2.166   5.889   3.556
 8745TIP3   OH226198   5.010   2.893   3.575
 8745TIP3    H126199   4.915   2.901   3.579
 8745TIP3    H226200   5.030   2.818   3.630
 8746TIP3   OH226201   2.666   2.536   1.360
 8746TIP3    H126202   2.708   2.565   1.441
 8746TIP3    H226203   2.613   2.461   1.387
 8747TIP3   OH226204   4.147   6.169   2.925
 8747TIP3    H126205   4.102   6.245   2.888
 8747TIP3    H226206   4.084   6.097   2.914
 8748TIP3   OH226207   3.706   0.924   4.408
 8748TIP3    H126208   3.635   0.894   4.352
 8748TIP3    H226209   3.707   0.862   4.481
 8749TIP3   OH226210   6.074   4.985   1.900
 8749TIP3    H126211   6.137   5.049   1.868
 8749TIP3    H226212   5.993   5.005   1.854
 8750TIP3   OH226213   4.500   2.305   1.531
 8750TIP3    H126214   4.531   2.395   1.539
 8750TIP3    H226215   4.454   2.288   1.613
 8751TIP3   OH226216   4.519   6.190   3.116
 8751TIP3    H126217   4.547   6.218   3.029
 8751TIP3    H226218   4.426   6.171   3.107
 8752TIP3   OH226219   4.190   1.599   4.966
 8752TIP3    H126220   4.193   1.595   5.061
 8752TIP3    H226221   4.112   1.550   4.942
 8753TIP3   OH226222   6.542   0.049   1.902
 8753TIP3    H126223   6.558   0.093   1.985
 8753TIP3    H226224   6.524  -0.042   1.927
 8754TIP3   OH226225   2.140   3.477   0.143
 8754TIP3    H126226   2.079   3.406   0.126
 8754TIP3    H226227   2.212   3.461   0.081
 8755TIP3   OH226228   5.401   4.033   0.384
 8755TIP3    H126229   5.422   3.986   0.465
 8755TIP3    H226230   5.403   4.126   0.410
 8756TIP3   OH226231   0.405   4.004   5.017
 8756TIP3    H126232   0.426   4.090   5.052
 8756TIP3    H226233   0.353   3.962   5.086
 8757TIP3   OH226234   4.665   6.440   0.685
 8757TIP3    H126235   4.744   6.494   0.675
 8757TIP3    H226236   4.693   6.368   0.742
 8758TIP3   OH226237   3.121   5.449   2.457
 8758TIP3    H126238   3.181   5.392   2.506
 8758TIP3    H226239   3.034   5.416   2.480
 8759TIP3   OH226240   1.936   1.044   2.869
 8759TIP3    H126241   1.842   1.042   2.886
 8759TIP3    H226242   1.976   1.036   2.956
 8760TIP3   OH226243   5.800   5.644   5.594
 8760TIP3    H126244   5.846   5.565   5.566
 8760TIP3    H226245   5.709   5.630   5.565
 8761TIP3   OH226246   6.626   2.631   3.777
 8761TIP3    H126247   6.696   2.602   3.836
 8761TIP3    H226248   6.553   2.651   3.835
 8762TIP3   OH226249   4.734   6.246   2.782
 8762TIP3    H126250   4.825   6.261   2.758
 8762TIP3    H226251   4.727   6.280   2.871
 8763TIP3   OH226252   4.649   3.873   4.863
 8763TIP3    H126253   4.669   3.849   4.953
 8763TIP3    H226254   4.730   3.913   4.830
 8764TIP3   OH226255   3.424   0.092   3.287
 8764TIP3    H126256   3.423   0.035   3.364
 8764TIP3    H226257   3.462   0.174   3.318
 8765TIP3   OH226258   1.062   6.146   2.120
 8765TIP3    H126259   0.971   6.126   2.145
 8765TIP3    H226260   1.055   6.185   2.033
 8766TIP3   OH226261   4.579   6.471   5.233
 8766TIP3    H126262   4.534   6.410   5.291
 8766TIP3    H226263   4.508   6.523   5.193
 8767TIP3   OH226264   6.581   6.739   2.188
 8767TIP3    H126265   6.518   6.667   2.181
 8767TIP3    H226266   6.644   6.709   2.253
 8768TIP3   OH226267   6.839   3.309   2.585
 8768TIP3    H126268   6.863   3.224   2.623
 8768TIP3    H226269   6.830   3.367   2.661
 8769TIP3   OH226270   0.235   1.610   2.182
 8769TIP3    H126271   0.282   1.604   2.265
 8769TIP3    H226272   0.205   1.521   2.164
 8770TIP3   OH226273   6.717   1.990   2.216
 8770TIP3    H126274   6.701   1.919   2.153
 8770TIP3    H226275   6.762   1.948   2.289
 8771TIP3   OH226276   0.540   4.220   2.193
 8771TIP3    H126277   0.563   4.303   2.150
 8771TIP3    H226278   0.446   4.227   2.210
 8772TIP3   OH226279   3.069   0.135   0.517
 8772TIP3    H126280   2.989   0.189   0.520
 8772TIP3    H226281   3.042   0.055   0.473
 8773TIP3   OH226282   2.218   1.276   5.549
 8773TIP3    H126283   2.281   1.300   5.616
 8773TIP3    H226284   2.265   1.286   5.466
 8774TIP3   OH226285   4.160   3.063   1.057
 8774TIP3    H126286   4.079   3.013   1.065
 8774TIP3    H226287   4.227   2.997   1.038
 8775TIP3   OH226288   6.772   1.496   2.939
 8775TIP3    H126289   6.835   1.437   2.899
 8775TIP3    H226290   6.796   1.583   2.906
 8776TIP3   OH226291   3.393   0.428   5.848
 8776TIP3    H126292   3.405   0.491   5.776
 8776TIP3    H226293   3.334   0.473   5.908
 8777TIP3   OH226294   0.442   5.060   1.706
 8777TIP3    H126295   0.351   5.079   1.682
 8777TIP3    H226296   0.489   5.062   1.623
 8778TIP3   OH226297   5.661   2.366   1.731
 8778TIP3    H126298   5.615   2.369   1.814
 8778TIP3    H226299   5.745   2.409   1.748
 8779TIP3   OH226300   5.822   2.147   3.816
 8779TIP3    H126301   5.745   2.150   3.758
 8779TIP3    H226302   5.794   2.195   3.894
 8780TIP3   OH226303   5.198   2.676   0.497
 8780TIP3    H126304   5.124   2.625   0.467
 8780TIP3    H226305   5.220   2.732   0.422
 8781TIP3   OH226306   0.961   2.233   0.234
 8781TIP3    H126307   1.029   2.247   0.300
 8781TIP3    H226308   1.008   2.192   0.161
 8782TIP3   OH226309   2.427   6.705   1.712
 8782TIP3    H126310   2.499   6.762   1.738
 8782TIP3    H226311   2.440   6.624   1.761
 8783TIP3   OH226312   5.017   1.185   2.606
 8783TIP3    H126313   5.000   1.232   2.524
 8783TIP3    H226314   4.937   1.198   2.657
 8784TIP3   OH226315   4.200   3.092   1.776
 8784TIP3    H126316   4.110   3.076   1.746
 8784TIP3    H226317   4.228   3.008   1.812
 8785TIP3   OH226318   3.637   6.318   5.469
 8785TIP3    H126319   3.699   6.349   5.534
 8785TIP3    H226320   3.691   6.277   5.401
 8786TIP3   OH226321   6.138   5.585   3.651
 8786TIP3    H126322   6.100   5.499   3.636
 8786TIP3    H226323   6.218   5.568   3.699
 8787TIP3   OH226324   2.052   4.153   5.728
 8787TIP3    H126325   2.036   4.149   5.822
 8787TIP3    H226326   2.011   4.073   5.694
 8788TIP3   OH226327   1.295   6.732   2.298
 8788TIP3    H126328   1.390   6.738   2.309
 8788TIP3    H226329   1.282   6.721   2.204
 8789TIP3   OH226330   4.349   1.430   2.901
 8789TIP3    H126331   4.282   1.382   2.853
 8789TIP3    H226332   4.352   1.388   2.987
 8790TIP3   OH226333   6.838   5.100   3.123
 8790TIP3    H126334   6.867   5.181   3.166
 8790TIP3    H226335   6.745   5.115   3.104
 8791TIP3   OH226336   1.963   2.379   4.812
 8791TIP3    H126337   1.953   2.390   4.718
 8791TIP3    H226338   1.873   2.380   4.846
 8792TIP3   OH226339   4.802   2.173   5.487
 8792TIP3    H126340   4.721   2.205   5.526
 8792TIP3    H226341   4.777   2.145   5.399
 8793TIP3   OH226342   0.003   5.567   3.992
 8793TIP3    H126343  -0.027   5.547   4.080
 8793TIP3    H226344  -0.011   5.486   3.942
 8794TIP3   OH226345   5.449   3.456   5.184
 8794TIP3    H126346   5.425   3.390   5.249
 8794TIP3    H226347   5.467   3.535   5.234
 8795TIP3   OH226348   6.732   5.783   5.081
 8795TIP3    H126349   6.707   5.841   5.009
 8795TIP3    H226350   6.726   5.839   5.159
 8796TIP3   OH226351   4.089   4.194   3.313
 8796TIP3    H126352   4.057   4.130   3.376
 8796TIP3    H226353   4.150   4.145   3.257
 8797TIP3   OH226354   1.035   4.607   0.441
 8797TIP3    H126355   1.062   4.607   0.533
 8797TIP3    H226356   1.114   4.582   0.393
 8798TIP3   OH226357   1.672   2.171   0.451
 8798TIP3    H126358   1.621   2.165   0.370
 8798TIP3    H226359   1.606   2.181   0.520
 8799TIP3   OH226360   5.331   2.970   1.515
 8799TIP3    H126361   5.346   2.880   1.487
 8799TIP3    H226362   5.364   2.974   1.604
 8800TIP3   OH226363   1.748   2.523   3.266
 8800TIP3    H126364   1.667   2.555   3.304
 8800TIP3    H226365   1.725   2.499   3.176
 8801TIP3   OH226366   3.459   0.150   2.017
 8801TIP3    H126367   3.508   0.068   2.024
 8801TIP3    H226368   3.527   0.217   2.010
 8802TIP3   OH226369   7.085   5.171   2.948
 8802TIP3    H126370   6.992   5.146   2.941
 8802TIP3    H226371   7.093   5.246   2.889
 8803TIP3   OH226372   0.974   2.109   4.251
 8803TIP3    H126373   0.981   2.049   4.325
 8803TIP3    H226374   0.889   2.090   4.213
 8804TIP3   OH226375   0.102   6.554   3.721
 8804TIP3    H126376   0.150   6.471   3.722
 8804TIP3    H226377   0.070   6.562   3.631
 8805TIP3   OH226378   3.951   2.006   3.827
 8805TIP3    H126379   4.002   2.032   3.904
 8805TIP3    H226380   4.017   1.993   3.758
 8806TIP3   OH226381   5.800   3.375   2.690
 8806TIP3    H126382   5.720   3.360   2.741
 8806TIP3    H226383   5.769   3.401   2.603
 8807TIP3   OH226384   2.586   6.187   2.672
 8807TIP3    H126385   2.659   6.149   2.623
 8807TIP3    H226386   2.509   6.138   2.642
 8808TIP3   OH226387   6.518   5.915   3.473
 8808TIP3    H126388   6.571   5.873   3.540
 8808TIP3    H226389   6.482   5.993   3.515
 8809TIP3   OH226390   2.462   4.811   2.471
 8809TIP3    H126391   2.376   4.823   2.431
 8809TIP3    H226392   2.461   4.722   2.504
 8810TIP3   OH226393   2.264   1.787   1.722
 8810TIP3    H126394   2.225   1.869   1.752
 8810TIP3    H226395   2.313   1.811   1.644
 8811TIP3   OH226396   3.840   0.657   1.538
 8811TIP3    H126397   3.877   0.571   1.515
 8811TIP3    H226398   3.745   0.644   1.530
 8812TIP3   OH226399   5.599   0.363   0.628
 8812TIP3    H126400   5.656   0.375   0.552
 8812TIP3    H226401   5.618   0.273   0.657
 8813TIP3   OH226402   0.334   3.862   2.434
 8813TIP3    H126403   0.317   3.888   2.343
 8813TIP3    H226404   0.249   3.870   2.477
 8814TIP3   OH226405   2.193   4.272   1.921
 8814TIP3    H126406   2.254   4.272   1.847
 8814TIP3    H226407   2.182   4.364   1.943
 8815TIP3   OH226408   6.817   0.872   5.302
 8815TIP3    H126409   6.788   0.941   5.242
 8815TIP3    H226410   6.737   0.845   5.347
 8816TIP3   OH226411   6.619   4.326   2.073
 8816TIP3    H126412   6.590   4.273   1.999
 8816TIP3    H226413   6.542   4.375   2.100
 8817TIP3   OH226414   1.098   5.967   3.995
 8817TIP3    H126415   1.099   5.921   4.078
 8817TIP3    H226416   1.176   6.022   3.996
 8818TIP3   OH226417   3.052   5.331   5.141
 8818TIP3    H126418   3.017   5.345   5.053
 8818TIP3    H226419   2.974   5.326   5.197
 8819TIP3   OH226420   0.924   4.566   3.578
 8819TIP3    H126421   0.954   4.569   3.669
 8819TIP3    H226422   0.835   4.533   3.583
 8820TIP3   OH226423   0.370   2.756   2.642
 8820TIP3    H126424   0.383   2.834   2.588
 8820TIP3    H226425   0.380   2.682   2.581
 8821TIP3   OH226426   3.941   6.049   5.042
 8821TIP3    H126427   3.878   6.033   4.972
 8821TIP3    H226428   3.929   5.976   5.103
 8822TIP3   OH226429   1.109   4.601   5.587
 8822TIP3    H126430   1.054   4.652   5.528
 8822TIP3    H226431   1.060   4.598   5.669
 8823TIP3   OH226432   5.037   0.200   5.077
 8823TIP3    H126433   5.096   0.273   5.061
 8823TIP3    H226434   4.956   0.224   5.033
 8824TIP3   OH226435   3.947   6.344   0.732
 8824TIP3    H126436   3.893   6.407   0.781
 8824TIP3    H226437   4.008   6.310   0.797
 8825TIP3   OH226438   4.807   2.939   0.065
 8825TIP3    H126439   4.783   2.996   0.138
 8825TIP3    H226440   4.900   2.957   0.051
 8826TIP3   OH226441   0.413   5.812   0.706
 8826TIP3    H126442   0.465   5.888   0.678
 8826TIP3    H226443   0.473   5.761   0.760
 8827TIP3   OH226444   3.350   3.180   2.801
 8827TIP3    H126445   3.306   3.097   2.824
 8827TIP3    H226446   3.286   3.225   2.745
 8828TIP3   OH226447   0.207   0.709   0.873
 8828TIP3    H126448   0.155   0.648   0.927
 8828TIP3    H226449   0.298   0.688   0.894
 8829TIP3   OH226450   2.467   0.928   1.784
 8829TIP3    H126451   2.512   0.952   1.703
 8829TIP3    H226452   2.518   0.855   1.819
 8830TIP3   OH226453   5.159   3.019   0.342
 8830TIP3    H126454   5.180   3.111   0.361
 8830TIP3    H226455   5.099   2.993   0.412
 8831TIP3   OH226456   4.389   4.994   3.846
 8831TIP3    H126457   4.415   5.086   3.847
 8831TIP3    H226458   4.417   4.962   3.759
 8832TIP3   OH226459   1.083   5.633   4.769
 8832TIP3    H126460   1.061   5.706   4.827
 8832TIP3    H226461   1.044   5.656   4.685
 8833TIP3   OH226462   0.246   5.934   1.427
 8833TIP3    H126463   0.329   5.964   1.464
 8833TIP3    H226464   0.222   6.002   1.364
 8834TIP3   OH226465   1.860   6.287   2.849
 8834TIP3    H126466   1.818   6.203   2.862
 8834TIP3    H226467   1.824   6.344   2.918
 8835TIP3   OH226468   6.908   6.700   0.981
 8835TIP3    H126469   6.923   6.678   1.073
 8835TIP3    H226470   6.994   6.725   0.948
 8836TIP3   OH226471   3.821   5.563   5.415
 8836TIP3    H126472   3.768   5.486   5.436
 8836TIP3    H226473   3.760   5.624   5.373
 8837TIP3   OH226474   0.932   0.496   5.906
 8837TIP3    H126475   0.968   0.516   5.819
 8837TIP3    H226476   1.005   0.513   5.966
 8838TIP3   OH226477   4.427   4.131   3.525
 8838TIP3    H126478   4.354   4.089   3.569
 8838TIP3    H226479   4.500   4.071   3.536
 8839TIP3   OH226480   0.904   5.281   3.489
 8839TIP3    H126481   0.886   5.336   3.565
 8839TIP3    H226482   0.999   5.276   3.484
 8840TIP3   OH226483   6.585   0.427   2.519
 8840TIP3    H126484   6.545   0.476   2.591
 8840TIP3    H226485   6.599   0.493   2.451
 8841TIP3   OH226486   5.182   0.371   2.632
 8841TIP3    H126487   5.264   0.336   2.598
 8841TIP3    H226488   5.151   0.304   2.693
 8842TIP3   OH226489   4.863   0.605   3.115
 8842TIP3    H126490   4.772   0.628   3.092
 8842TIP3    H226491   4.891   0.546   3.045
 8843TIP3   OH226492   3.063   4.553   2.292
 8843TIP3    H126493   3.076   4.646   2.272
 8843TIP3    H226494   3.139   4.510   2.252
 8844TIP3   OH226495   3.193   3.498   3.951
 8844TIP3    H126496   3.142   3.481   4.031
 8844TIP3    H226497   3.260   3.430   3.952
 8845TIP3   OH226498   3.819   5.813   0.483
 8845TIP3    H126499   3.820   5.897   0.436
 8845TIP3    H226500   3.730   5.779   0.469
 8846TIP3   OH226501   6.911   2.283   4.792
 8846TIP3    H126502   6.871   2.210   4.744
 8846TIP3    H226503   6.962   2.330   4.726
 8847TIP3   OH226504   4.927   4.622   0.329
 8847TIP3    H126505   5.018   4.625   0.358
 8847TIP3    H226506   4.877   4.599   0.407
 8848TIP3   OH226507   2.256   5.218   1.545
 8848TIP3    H126508   2.197   5.259   1.481
 8848TIP3    H226509   2.250   5.124   1.527
 8849TIP3   OH226510   3.583   4.335   1.926
 8849TIP3    H126511   3.555   4.405   1.867
 8849TIP3    H226512   3.502   4.299   1.962
 8850TIP3   OH226513   1.279   4.817   1.060
 8850TIP3    H126514   1.269   4.829   1.155
 8850TIP3    H226515   1.360   4.864   1.038
 8851TIP3   OH226516   4.065   2.143   4.295
 8851TIP3    H126517   4.107   2.175   4.375
 8851TIP3    H226518   4.111   2.188   4.224
 8852TIP3   OH226519   3.384   5.397   2.616
 8852TIP3    H126520   3.435   5.471   2.582
 8852TIP3    H226521   3.450   5.338   2.653
 8853TIP3   OH226522   1.119   3.574   2.459
 8853TIP3    H126523   1.026   3.597   2.447
 8853TIP3    H226524   1.128   3.489   2.415
 8854TIP3   OH226525   5.059   2.181   2.407
 8854TIP3    H126526   5.113   2.105   2.430
 8854TIP3    H226527   5.122   2.249   2.381
 8855TIP3   OH226528   1.804   3.064   0.768
 8855TIP3    H126529   1.833   3.090   0.856
 8855TIP3    H226530   1.794   3.146   0.721
 8856TIP3   OH226531   0.879   5.461   5.383
 8856TIP3    H126532   0.869   5.552   5.410
 8856TIP3    H226533   0.790   5.428   5.374
 8857TIP3   OH226534   3.104   1.173   4.851
 8857TIP3    H126535   3.027   1.127   4.885
 8857TIP3    H226536   3.170   1.104   4.840
 8858TIP3   OH226537   1.833   2.966   4.761
 8858TIP3    H126538   1.761   2.953   4.822
 8858TIP3    H226539   1.802   3.033   4.700
 8859TIP3   OH226540   6.970   4.275   5.561
 8859TIP3    H126541   6.973   4.357   5.512
 8859TIP3    H226542   7.035   4.285   5.630
 8860TIP3   OH226543   5.588   4.412   3.298
 8860TIP3    H126544   5.587   4.479   3.230
 8860TIP3    H226545   5.498   4.407   3.329
 8861TIP3   OH226546   4.334   3.980   1.541
 8861TIP3    H126547   4.247   4.012   1.516
 8861TIP3    H226548   4.394   4.049   1.513
 8862TIP3   OH226549   4.405   0.150   4.018
 8862TIP3    H126550   4.448   0.219   3.967
 8862TIP3    H226551   4.445   0.069   3.985
 8863TIP3   OH226552   4.107   3.663   3.053
 8863TIP3    H126553   4.088   3.740   3.107
 8863TIP3    H226554   4.167   3.695   2.986
 8864TIP3   OH226555   5.811   3.744   2.315
 8864TIP3    H126556   5.756   3.763   2.239
 8864TIP3    H226557   5.827   3.829   2.355
 8865TIP3   OH226558   5.291   0.882   5.917
 8865TIP3    H126559   5.264   0.834   5.995
 8865TIP3    H226560   5.209   0.916   5.880
 8866TIP3   OH226561   4.157   3.616   0.750
 8866TIP3    H126562   4.200   3.612   0.836
 8866TIP3    H226563   4.192   3.696   0.710
 8867TIP3   OH226564   1.772   1.992   4.841
 8867TIP3    H126565   1.691   1.989   4.791
 8867TIP3    H226566   1.765   2.071   4.894
 8868TIP3   OH226567   5.721   5.471   4.104
 8868TIP3    H126568   5.701   5.465   4.197
 8868TIP3    H226569   5.783   5.543   4.097
 8869TIP3   OH226570   6.306   2.913   3.429
 8869TIP3    H126571   6.284   2.861   3.352
 8869TIP3    H226572   6.379   2.867   3.469
 8870TIP3   OH226573   2.935   5.310   1.711
 8870TIP3    H126574   2.973   5.337   1.794
 8870TIP3    H226575   3.005   5.321   1.647
 8871TIP3   OH226576   2.598   3.376   5.464
 8871TIP3    H126577   2.612   3.450   5.405
 8871TIP3    H226578   2.514   3.395   5.507
 8872TIP3   OH226579   6.504   1.682   0.733
 8872TIP3    H126580   6.462   1.768   0.748
 8872TIP3    H226581   6.597   1.700   0.736
 8873TIP3   OH226582   5.667   6.595   3.509
 8873TIP3    H126583   5.718   6.629   3.582
 8873TIP3    H226584   5.699   6.644   3.433
 8874TIP3   OH226585   1.536   6.394   3.322
 8874TIP3    H126586   1.540   6.332   3.250
 8874TIP3    H226587   1.458   6.369   3.372
 8875TIP3   OH226588   6.183   6.486   1.531
 8875TIP3    H126589   6.172   6.424   1.460
 8875TIP3    H226590   6.103   6.538   1.531
 8876TIP3   OH226591   5.096   5.391   4.664
 8876TIP3    H126592   5.075   5.401   4.571
 8876TIP3    H226593   5.059   5.469   4.706
 8877TIP3   OH226594   4.648   2.685   2.718
 8877TIP3    H126595   4.651   2.754   2.653
 8877TIP3    H226596   4.705   2.616   2.682
 8878TIP3   OH226597   2.750   2.692   2.175
 8878TIP3    H126598   2.778   2.665   2.263
 8878TIP3    H226599   2.668   2.740   2.190
 8879TIP3   OH226600   5.984   1.624   1.080
 8879TIP3    H126601   5.960   1.709   1.117
 8879TIP3    H226602   5.902   1.575   1.078
 8880TIP3   OH226603   2.286   5.933   3.164
 8880TIP3    H126604   2.278   5.865   3.231
 8880TIP3    H226605   2.288   5.885   3.081
 8881TIP3   OH226606   0.766   0.762   5.075
 8881TIP3    H126607   0.748   0.833   5.013
 8881TIP3    H226608   0.800   0.691   5.020
 8882TIP3   OH226609   5.146   0.478   2.256
 8882TIP3    H126610   5.099   0.446   2.332
 8882TIP3    H226611   5.238   0.455   2.273
 8883TIP3   OH226612   1.393   4.587   0.457
 8883TIP3    H126613   1.427   4.540   0.534
 8883TIP3    H226614   1.369   4.517   0.396
 8884TIP3   OH226615   5.885   5.301   0.048
 8884TIP3    H126616   5.863   5.276   0.138
 8884TIP3    H226617   5.902   5.219   0.003
 8885TIP3   OH226618   1.643   5.628   4.194
 8885TIP3    H126619   1.665   5.629   4.287
 8885TIP3    H226620   1.642   5.720   4.168
 8886TIP3   OH226621   2.791   4.201   1.315
 8886TIP3    H126622   2.767   4.238   1.400
 8886TIP3    H226623   2.875   4.242   1.294
 8887TIP3   OH226624   6.053   0.110   3.002
 8887TIP3    H126625   6.021   0.182   2.947
 8887TIP3    H226626   6.120   0.067   2.948
 8888TIP3   OH226627   3.761   5.186   0.834
 8888TIP3    H126628   3.669   5.172   0.853
 8888TIP3    H226629   3.766   5.274   0.797
 8889TIP3   OH226630   6.546   6.604   5.811
 8889TIP3    H126631   6.459   6.637   5.790
 8889TIP3    H226632   6.587   6.586   5.726
 8890TIP3   OH226633   5.422   0.654   3.510
 8890TIP3    H126634   5.371   0.692   3.581
 8890TIP3    H226635   5.508   0.637   3.548
 8891TIP3   OH226636   3.483   6.696   0.211
 8891TIP3    H126637   3.391   6.686   0.189
 8891TIP3    H226638   3.492   6.655   0.297
 8892TIP3   OH226639   3.417   1.790   1.027
 8892TIP3    H126640   3.394   1.826   0.941
 8892TIP3    H226641   3.338   1.745   1.057
 8893TIP3   OH226642   4.907   1.425   1.262
 8893TIP3    H126643   4.847   1.366   1.217
 8893TIP3    H226644   4.922   1.384   1.347
 8894TIP3   OH226645   4.822   5.737   0.973
 8894TIP3    H126646   4.899   5.795   0.967
 8894TIP3    H226647   4.859   5.649   0.982
 8895TIP3   OH226648   2.429   5.432   0.183
 8895TIP3    H126649   2.409   5.449   0.091
 8895TIP3    H226650   2.377   5.355   0.205
 8896TIP3   OH226651   2.182   2.005   3.969
 8896TIP3    H126652   2.166   1.958   4.051
 8896TIP3    H226653   2.257   1.960   3.930
 8897TIP3   OH226654   0.272   4.005   2.846
 8897TIP3    H126655   0.289   4.072   2.780
 8897TIP3    H226656   0.225   3.937   2.799
 8898TIP3   OH226657   2.382   3.524   2.853
 8898TIP3    H126658   2.361   3.440   2.893
 8898TIP3    H226659   2.379   3.508   2.759
 8899TIP3   OH226660   0.223   6.080   3.921
 8899TIP3    H126661   0.293   6.018   3.939
 8899TIP3    H226662   0.142   6.031   3.940
 8900TIP3   OH226663   4.965   5.555   4.856
 8900TIP3    H126664   4.915   5.636   4.864
 8900TIP3    H226665   4.904   5.487   4.887
 8901TIP3   OH226666   6.292   6.511   4.731
 8901TIP3    H126667   6.205   6.477   4.750
 8901TIP3    H226668   6.305   6.581   4.795
 8902TIP3   OH226669   7.228   3.720   5.114
 8902TIP3    H126670   7.153   3.780   5.104
 8902TIP3    H226671   7.272   3.723   5.029
 8903TIP3   OH226672   2.764   1.908   2.162
 8903TIP3    H126673   2.811   1.893   2.080
 8903TIP3    H226674   2.810   1.853   2.225
 8904TIP3   OH226675   1.994   2.300   0.650
 8904TIP3    H126676   2.069   2.304   0.591
 8904TIP3    H226677   2.014   2.227   0.709
 8905TIP3   OH226678   4.765   2.045   3.777
 8905TIP3    H126679   4.736   2.135   3.761
 8905TIP3    H226680   4.788   2.010   3.691
 8906TIP3   OH226681   5.128   4.020   2.268
 8906TIP3    H126682   5.195   4.083   2.244
 8906TIP3    H226683   5.158   3.984   2.352
 8907TIP3   OH226684   4.402   4.360   3.659
 8907TIP3    H126685   4.434   4.283   3.614
 8907TIP3    H226686   4.310   4.367   3.634
 8908TIP3   OH226687   6.651   2.761   4.447
 8908TIP3    H126688   6.627   2.854   4.451
 8908TIP3    H226689   6.722   2.753   4.510
 8909TIP3   OH226690   2.420   1.372   4.538
 8909TIP3    H126691   2.363   1.449   4.535
 8909TIP3    H226692   2.396   1.326   4.619
 8910TIP3   OH226693   2.170   2.916   1.353
 8910TIP3    H126694   2.183   2.993   1.298
 8910TIP3    H226695   2.075   2.909   1.362
 8911TIP3   OH226696   6.017   3.248   2.294
 8911TIP3    H126697   6.110   3.247   2.316
 8911TIP3    H226698   6.000   3.338   2.266
 8912TIP3   OH226699   2.452   6.089   1.131
 8912TIP3    H126700   2.434   6.016   1.073
 8912TIP3    H226701   2.545   6.082   1.150
 8913TIP3   OH226702   5.547   2.481   4.013
 8913TIP3    H126703   5.523   2.499   3.922
 8913TIP3    H226704   5.475   2.517   4.064
 8914TIP3   OH226705   0.892   4.235   4.674
 8914TIP3    H126706   0.858   4.280   4.597
 8914TIP3    H226707   0.834   4.261   4.745
 8915TIP3   OH226708   0.207   0.956   0.168
 8915TIP3    H126709   0.248   0.870   0.170
 8915TIP3    H226710   0.144   0.951   0.096
 8916TIP3   OH226711   6.837   3.323   3.832
 8916TIP3    H126712   6.863   3.328   3.925
 8916TIP3    H226713   6.787   3.404   3.818
 8917TIP3   OH226714   2.737   5.986   1.518
 8917TIP3    H126715   2.644   6.002   1.535
 8917TIP3    H226716   2.740   5.953   1.429
 8918TIP3   OH226717   0.771   3.339   2.441
 8918TIP3    H126718   0.781   3.290   2.360
 8918TIP3    H226719   0.730   3.421   2.415
 8919TIP3   OH226720   0.503   1.201   5.691
 8919TIP3    H126721   0.466   1.196   5.603
 8919TIP3    H226722   0.547   1.117   5.703
 8920TIP3   OH226723   5.451   5.778   4.084
 8920TIP3    H126724   5.414   5.697   4.120
 8920TIP3    H226725   5.399   5.848   4.124
 8921TIP3   OH226726   0.547   2.953   5.817
 8921TIP3    H126727   0.622   2.996   5.775
 8921TIP3    H226728   0.534   2.872   5.767
 8922TIP3   OH226729   6.383   5.293   3.322
 8922TIP3    H126730   6.376   5.389   3.314
 8922TIP3    H226731   6.394   5.278   3.416
 8923TIP3   OH226732   5.740   2.894   2.349
 8923TIP3    H126733   5.823   2.916   2.307
 8923TIP3    H226734   5.682   2.867   2.278
 8924TIP3   OH226735   0.103   5.031   1.369
 8924TIP3    H126736   0.086   4.992   1.284
 8924TIP3    H226737   0.165   5.102   1.351
 8925TIP3   OH226738   3.107   0.237   4.452
 8925TIP3    H126739   3.103   0.157   4.399
 8925TIP3    H226740   3.170   0.292   4.407
 8926TIP3   OH226741   5.103   2.397   1.809
 8926TIP3    H126742   5.164   2.330   1.779
 8926TIP3    H226743   5.136   2.423   1.895
 8927TIP3   OH226744   5.361   2.797   4.777
 8927TIP3    H126745   5.300   2.831   4.712
 8927TIP3    H226746   5.361   2.862   4.847
 8928TIP3   OH226747   6.455   2.721   0.597
 8928TIP3    H126748   6.395   2.647   0.599
 8928TIP3    H226749   6.405   2.793   0.636
 8929TIP3   OH226750   5.427   2.508   1.563
 8929TIP3    H126751   5.483   2.468   1.629
 8929TIP3    H226752   5.425   2.445   1.491
 8930TIP3   OH226753   5.430   6.300   5.681
 8930TIP3    H126754   5.469   6.239   5.618
 8930TIP3    H226755   5.458   6.267   5.766
 8931TIP3   OH226756   4.924   0.887   3.989
 8931TIP3    H126757   4.856   0.845   4.042
 8931TIP3    H226758   4.967   0.815   3.943
 8932TIP3   OH226759   6.010   0.250   3.502
 8932TIP3    H126760   6.028   0.268   3.410
 8932TIP3    H226761   6.075   0.301   3.550
 8933TIP3   OH226762   0.810   2.761   3.529
 8933TIP3    H126763   0.806   2.842   3.581
 8933TIP3    H226764   0.758   2.698   3.579
 8934TIP3   OH226765   6.161   5.785   5.568
 8934TIP3    H126766   6.162   5.716   5.502
 8934TIP3    H226767   6.213   5.751   5.641
 8935TIP3   OH226768   5.044   1.482   4.119
 8935TIP3    H126769   5.106   1.544   4.159
 8935TIP3    H226770   4.977   1.469   4.186
 8936TIP3   OH226771   4.148   4.235   3.002
 8936TIP3    H126772   4.077   4.171   2.995
 8936TIP3    H226773   4.114   4.313   2.957
 8937TIP3   OH226774   0.559   3.468   1.687
 8937TIP3    H126775   0.583   3.426   1.604
 8937TIP3    H226776   0.464   3.460   1.691
 8938TIP3   OH226777   3.235   3.608   3.706
 8938TIP3    H126778   3.206   3.589   3.796
 8938TIP3    H226779   3.300   3.541   3.687
 8939TIP3   OH226780   3.578   1.677   4.476
 8939TIP3    H126781   3.578   1.626   4.396
 8939TIP3    H226782   3.645   1.637   4.531
 8940TIP3   OH226783   5.255   4.260   2.171
 8940TIP3    H126784   5.321   4.327   2.190
 8940TIP3    H226785   5.173   4.297   2.203
 8941TIP3   OH226786   3.139   2.082   2.390
 8941TIP3    H126787   3.116   2.135   2.314
 8941TIP3    H226788   3.060   2.032   2.410
 8942TIP3   OH226789   6.589   6.612   1.438
 8942TIP3    H126790   6.604   6.696   1.396
 8942TIP3    H226791   6.592   6.631   1.532
 8943TIP3   OH226792   1.755   3.796   0.477
 8943TIP3    H126793   1.818   3.786   0.405
 8943TIP3    H226794   1.671   3.809   0.433
 8944TIP3   OH226795   1.680   2.464   1.678
 8944TIP3    H126796   1.607   2.428   1.628
 8944TIP3    H226797   1.723   2.388   1.717
 8945TIP3   OH226798   0.981   0.192   5.852
 8945TIP3    H126799   0.911   0.161   5.796
 8945TIP3    H226800   0.993   0.284   5.828
 8946TIP3   OH226801   1.574   3.217   5.555
 8946TIP3    H126802   1.656   3.187   5.516
 8946TIP3    H226803   1.521   3.138   5.564
 8947TIP3   OH226804   3.104   2.721   0.692
 8947TIP3    H126805   3.096   2.800   0.745
 8947TIP3    H226806   3.014   2.696   0.672
 8948TIP3   OH226807   4.819   1.750   2.335
 8948TIP3    H126808   4.912   1.740   2.313
 8948TIP3    H226809   4.773   1.705   2.264
 8949TIP3   OH226810   4.920   1.266   1.548
 8949TIP3    H126811   4.946   1.206   1.617
 8949TIP3    H226812   4.839   1.229   1.513
 8950TIP3   OH226813   4.811   2.433   1.824
 8950TIP3    H126814   4.777   2.344   1.817
 8950TIP3    H226815   4.905   2.424   1.807
 8951TIP3   OH226816   3.398   0.475   1.766
 8951TIP3    H126817   3.327   0.535   1.790
 8951TIP3    H226818   3.455   0.474   1.843
 8952TIP3   OH226819   4.391   4.160   4.615
 8952TIP3    H126820   4.465   4.104   4.594
 8952TIP3    H226821   4.397   4.173   4.710
 8953TIP3   OH226822   2.531   2.139   3.943
 8953TIP3    H126823   2.480   2.075   3.894
 8953TIP3    H226824   2.608   2.156   3.890
 8954TIP3   OH226825   1.467   5.164   1.638
 8954TIP3    H126826   1.434   5.075   1.630
 8954TIP3    H226827   1.553   5.154   1.679
 8955TIP3   OH226828   3.816   1.996   5.443
 8955TIP3    H126829   3.804   1.928   5.509
 8955TIP3    H226830   3.728   2.012   5.409
 8956TIP3   OH226831   2.708   4.986   1.818
 8956TIP3    H126832   2.783   5.031   1.856
 8956TIP3    H226833   2.649   5.056   1.790
 8957TIP3   OH226834   4.068   5.082  -0.014
 8957TIP3    H126835   4.064   5.170  -0.051
 8957TIP3    H226836   4.108   5.094   0.073
 8958TIP3   OH226837   6.990   5.023   3.753
 8958TIP3    H126838   6.910   5.072   3.736
 8958TIP3    H226839   7.022   4.998   3.666
 8959TIP3   OH226840   4.553   4.080   1.259
 8959TIP3    H126841   4.561   4.173   1.238
 8959TIP3    H226842   4.465   4.055   1.231
 8960TIP3   OH226843   0.343   3.726   4.688
 8960TIP3    H126844   0.417   3.706   4.630
 8960TIP3    H226845   0.267   3.728   4.631
 8961TIP3   OH226846   0.016   2.163   1.858
 8961TIP3    H126847  -0.041   2.236   1.835
 8961TIP3    H226848   0.036   2.121   1.775
 8962TIP3   OH226849   5.615   6.322   0.346
 8962TIP3    H126850   5.655   6.406   0.368
 8962TIP3    H226851   5.532   6.345   0.306
 8963TIP3   OH226852   1.554   3.113   0.289
 8963TIP3    H126853   1.623   3.175   0.267
 8963TIP3    H226854   1.473   3.155   0.261
 8964TIP3   OH226855   0.284   2.362   4.765
 8964TIP3    H126856   0.245   2.421   4.700
 8964TIP3    H226857   0.216   2.348   4.830
 8965TIP3   OH226858   0.230   3.899   1.553
 8965TIP3    H126859   0.291   3.826   1.561
 8965TIP3    H226860   0.284   3.977   1.559
 8966TIP3   OH226861   0.589   6.282   5.355
 8966TIP3    H126862   0.612   6.374   5.344
 8966TIP3    H226863   0.659   6.234   5.312
 8967TIP3   OH226864   3.426   5.978   4.345
 8967TIP3    H126865   3.398   6.069   4.337
 8967TIP3    H226866   3.509   5.982   4.392
 8968TIP3   OH226867   6.301   3.278   2.692
 8968TIP3    H126868   6.372   3.329   2.731
 8968TIP3    H226869   6.223   3.302   2.742
 8969TIP3   OH226870   0.822   5.271   1.527
 8969TIP3    H126871   0.786   5.356   1.498
 8969TIP3    H226872   0.765   5.244   1.598
 8970TIP3   OH226873   6.877   4.767   3.836
 8970TIP3    H126874   6.935   4.843   3.830
 8970TIP3    H226875   6.817   4.788   3.907
 8971TIP3   OH226876   4.306   0.679   3.146
 8971TIP3    H126877   4.274   0.595   3.178
 8971TIP3    H226878   4.388   0.658   3.101
 8972TIP3   OH226879   6.696   5.349   0.387
 8972TIP3    H126880   6.762   5.341   0.455
 8972TIP3    H226881   6.686   5.444   0.374
 8973TIP3   OH226882   5.498   0.059   2.236
 8973TIP3    H126883   5.416   0.056   2.286
 8973TIP3    H226884   5.541  -0.025   2.255
 8974TIP3   OH226885   1.419   0.946   0.492
 8974TIP3    H126886   1.355   0.893   0.540
 8974TIP3    H226887   1.471   0.988   0.560
 8975TIP3   OH226888   0.815   5.825   1.861
 8975TIP3    H126889   0.745   5.796   1.920
 8975TIP3    H226890   0.891   5.835   1.917
 8976TIP3   OH226891   4.032   3.601   5.897
 8976TIP3    H126892   4.083   3.583   5.818
 8976TIP3    H226893   4.008   3.694   5.889
 8977TIP3   OH226894   5.318   1.766   5.451
 8977TIP3    H126895   5.299   1.704   5.522
 8977TIP3    H226896   5.345   1.710   5.378
 8978TIP3   OH226897   4.984   6.692   4.532
 8978TIP3    H126898   4.969   6.628   4.601
 8978TIP3    H226899   4.965   6.776   4.572
 8979TIP3   OH226900   3.648   4.824   0.235
 8979TIP3    H126901   3.734   4.830   0.193
 8979TIP3    H226902   3.651   4.888   0.306
 8980TIP3   OH226903   2.209   0.600   4.229
 8980TIP3    H126904   2.255   0.558   4.156
 8980TIP3    H226905   2.264   0.674   4.252
 8981TIP3   OH226906   3.079   4.779   2.141
 8981TIP3    H126907   3.093   4.871   2.162
 8981TIP3    H226908   3.158   4.754   2.092
 8982TIP3   OH226909   2.997   2.402   2.315
 8982TIP3    H126910   2.926   2.461   2.339
 8982TIP3    H226911   3.020   2.358   2.397
 8983TIP3   OH226912   1.528   5.133   3.933
 8983TIP3    H126913   1.568   5.208   3.977
 8983TIP3    H226914   1.568   5.132   3.846
 8984TIP3   OH226915   2.122   6.696   4.999
 8984TIP3    H126916   2.128   6.639   5.075
 8984TIP3    H226917   2.204   6.746   4.999
 8985TIP3   OH226918   0.062   5.460   2.039
 8985TIP3    H126919  -0.018   5.435   2.085
 8985TIP3    H226920   0.088   5.543   2.079
 8986TIP3   OH226921   4.827   5.582   1.300
 8986TIP3    H126922   4.833   5.673   1.331
 8986TIP3    H226923   4.898   5.537   1.346
 8987TIP3   OH226924   0.959   1.216   2.067
 8987TIP3    H126925   0.955   1.309   2.047
 8987TIP3    H226926   0.886   1.201   2.127
 8988TIP3   OH226927   3.044   0.317   2.208
 8988TIP3    H126928   2.962   0.271   2.190
 8988TIP3    H226929   3.081   0.335   2.122
 8989TIP3   OH226930   0.280   2.061   0.933
 8989TIP3    H126931   0.209   2.008   0.898
 8989TIP3    H226932   0.346   1.998   0.960
 8990TIP3   OH226933   4.443   1.414   4.650
 8990TIP3    H126934   4.372   1.478   4.646
 8990TIP3    H226935   4.516   1.455   4.603
 8991TIP3   OH226936   5.241   6.662   0.815
 8991TIP3    H126937   5.162   6.658   0.869
 8991TIP3    H226938   5.226   6.597   0.747
 8992TIP3   OH226939   6.068   4.080   0.972
 8992TIP3    H126940   6.122   4.131   1.033
 8992TIP3    H226941   5.980   4.085   1.007
 8993TIP3   OH226942   5.275   2.746   3.995
 8993TIP3    H126943   5.275   2.831   4.040
 8993TIP3    H226944   5.286   2.682   4.066
 8994TIP3   OH226945   0.878   5.206   5.183
 8994TIP3    H126946   0.916   5.176   5.266
 8994TIP3    H226947   0.951   5.248   5.137
 8995TIP3   OH226948   3.229   3.855   5.071
 8995TIP3    H126949   3.175   3.859   4.992
 8995TIP3    H226950   3.318   3.842   5.038
 8996TIP3   OH226951   5.754   6.027   4.165
 8996TIP3    H126952   5.736   5.974   4.088
 8996TIP3    H226953   5.669   6.037   4.208
 8997TIP3   OH226954   3.450   5.481   0.693
 8997TIP3    H126955   3.374   5.532   0.721
 8997TIP3    H226956   3.524   5.539   0.706
 8998TIP3   OH226957   2.683   2.145   4.242
 8998TIP3    H126958   2.644   2.230   4.264
 8998TIP3    H226959   2.611   2.095   4.203
 8999TIP3   OH226960   5.852   1.904   4.057
 8999TIP3    H126961   5.945   1.918   4.075
 8999TIP3    H226962   5.840   1.928   3.965
 9000TIP3   OH226963   0.628   2.262   1.153
 9000TIP3    H126964   0.662   2.304   1.232
 9000TIP3    H226965   0.558   2.321   1.123
 9001TIP3   OH226966   0.334   3.189   3.215
 9001TIP3    H126967   0.381   3.111   3.244
 9001TIP3    H226968   0.388   3.227   3.147
 9002TIP3   OH226969   0.945   4.270   3.477
 9002TIP3    H126970   0.895   4.188   3.476
 9002TIP3    H226971   0.879   4.338   3.491
 9003TIP3   OH226972   6.975   1.032   1.716
 9003TIP3    H126973   6.934   0.949   1.691
 9003TIP3    H226974   6.923   1.098   1.671
 9004TIP3   OH226975   3.157   0.980   1.996
 9004TIP3    H126976   3.099   0.904   1.993
 9004TIP3    H226977   3.132   1.031   1.919
 9005TIP3   OH226978   2.046   2.804   4.959
 9005TIP3    H126979   1.996   2.725   4.981
 9005TIP3    H226980   1.979   2.873   4.954
 9006TIP3   OH226981   6.655   2.403   5.648
 9006TIP3    H126982   6.727   2.453   5.610
 9006TIP3    H226983   6.697   2.351   5.717
 9007TIP3   OH226984   0.089   6.636   1.965
 9007TIP3    H126985   0.034   6.689   1.907
 9007TIP3    H226986   0.130   6.572   1.907
 9008TIP3   OH226987   3.949   5.604   3.424
 9008TIP3    H126988   3.965   5.601   3.329
 9008TIP3    H226989   3.873   5.662   3.433
 9009TIP3   OH226990   2.023   2.372   2.219
 9009TIP3    H126991   2.062   2.291   2.187
 9009TIP3    H226992   2.081   2.400   2.290
 9010TIP3   OH226993   2.783   0.836   3.306
 9010TIP3    H126994   2.810   0.882   3.226
 9010TIP3    H226995   2.695   0.803   3.285
 9011TIP3   OH226996   1.058   2.689   1.916
 9011TIP3    H126997   1.093   2.778   1.913
 9011TIP3    H226998   1.113   2.643   1.980
 9012TIP3   OH226999   6.310   5.990   5.434
 9012TIP3    H127000   6.298   5.908   5.483
 9012TIP3    H227001   6.391   5.977   5.385
 9013TIP3   OH227002   5.051   6.203   0.410
 9013TIP3    H127003   5.046   6.128   0.468
 9013TIP3    H227004   5.142   6.204   0.380
 9014TIP3   OH227005   2.569   5.595   3.127
 9014TIP3    H127006   2.575   5.520   3.186
 9014TIP3    H227007   2.508   5.567   3.059
 9015TIP3   OH227008   5.119   1.927   1.220
 9015TIP3    H127009   5.109   1.837   1.252
 9015TIP3    H227010   5.176   1.920   1.144
 9016TIP3   OH227011   5.253   2.073   1.448
 9016TIP3    H127012   5.258   2.030   1.363
 9016TIP3    H227013   5.338   2.116   1.458
 9017TIP3   OH227014   6.666   1.797   4.497
 9017TIP3    H127015   6.723   1.841   4.434
 9017TIP3    H227016   6.633   1.720   4.450
 9018TIP3   OH227017   6.745   5.794   0.040
 9018TIP3    H127018   6.806   5.771  -0.030
 9018TIP3    H227019   6.800   5.828   0.110
 9019TIP3   OH227020   5.431   0.536   1.149
 9019TIP3    H127021   5.366   0.499   1.209
 9019TIP3    H227022   5.397   0.622   1.127
 9020TIP3   OH227023   5.453   3.497   1.927
 9020TIP3    H127024   5.474   3.434   1.996
 9020TIP3    H227025   5.422   3.444   1.854
 9021TIP3   OH227026   5.681   1.810   0.773
 9021TIP3    H127027   5.687   1.901   0.802
 9021TIP3    H227028   5.601   1.807   0.721
 9022TIP3   OH227029   0.998   1.956   0.218
 9022TIP3    H127030   0.996   1.918   0.305
 9022TIP3    H227031   0.907   1.954   0.188
 9023TIP3   OH227032   3.521   6.637   5.289
 9023TIP3    H127033   3.568   6.554   5.294
 9023TIP3    H227034   3.567   6.694   5.350
 9024TIP3   OH227035   5.358   1.547   0.324
 9024TIP3    H127036   5.427   1.613   0.317
 9024TIP3    H227037   5.381   1.481   0.259
 9025TIP3   OH227038   1.548   4.883   5.487
 9025TIP3    H127039   1.454   4.899   5.489
 9025TIP3    H227040   1.568   4.850   5.575
 9026TIP3   OH227041   4.516   2.877   5.294
 9026TIP3    H127042   4.552   2.812   5.355
 9026TIP3    H227043   4.581   2.947   5.293
 9027TIP3   OH227044   0.488   2.711   5.679
 9027TIP3    H127045   0.479   2.638   5.740
 9027TIP3    H227046   0.434   2.686   5.603
 9028TIP3   OH227047   1.381   1.771   0.898
 9028TIP3    H127048   1.290   1.741   0.900
 9028TIP3    H227049   1.401   1.790   0.990
 9029TIP3   OH227050   6.516   1.955   5.448
 9029TIP3    H127051   6.593   1.907   5.416
 9029TIP3    H227052   6.543   1.986   5.535
 9030TIP3   OH227053   7.156   2.743   5.572
 9030TIP3    H127054   7.234   2.781   5.612
 9030TIP3    H227055   7.090   2.811   5.579
 9031TIP3   OH227056   5.469   0.887   0.812
 9031TIP3    H127057   5.383   0.874   0.851
 9031TIP3    H227058   5.522   0.925   0.882
 9032TIP3   OH227059   5.247   5.983   1.361
 9032TIP3    H127060   5.270   6.073   1.338
 9032TIP3    H227061   5.319   5.953   1.416
 9033TIP3   OH227062   2.656   6.250   3.442
 9033TIP3    H127063   2.744   6.283   3.458
 9033TIP3    H227064   2.609   6.265   3.524
 9034TIP3   OH227065   4.137   1.955   5.508
 9034TIP3    H127066   4.053   1.943   5.465
 9034TIP3    H227067   4.169   2.040   5.477
 9035TIP3   OH227068   0.456   2.157   2.132
 9035TIP3    H127069   0.522   2.132   2.198
 9035TIP3    H227070   0.408   2.076   2.116
 9036TIP3   OH227071   0.914   1.133   5.455
 9036TIP3    H127072   0.849   1.067   5.478
 9036TIP3    H227073   0.953   1.101   5.374
 9037TIP3   OH227074   3.729   0.670   1.159
 9037TIP3    H127075   3.767   0.672   1.071
 9037TIP3    H227076   3.769   0.743   1.205
 9038TIP3   OH227077   5.894   4.872   1.035
 9038TIP3    H127078   5.975   4.833   1.002
 9038TIP3    H227079   5.874   4.941   0.971
 9039TIP3   OH227080   4.245   2.403   0.374
 9039TIP3    H127081   4.271   2.493   0.356
 9039TIP3    H227082   4.230   2.365   0.288
 9040TIP3   OH227083   1.554   1.514   2.775
 9040TIP3    H127084   1.600   1.592   2.806
 9040TIP3    H227085   1.595   1.442   2.822
 9041TIP3   OH227086   1.390   3.626   1.339
 9041TIP3    H127087   1.330   3.656   1.408
 9041TIP3    H227088   1.392   3.697   1.276
 9042TIP3   OH227089   6.007   1.346   5.487
 9042TIP3    H127090   6.010   1.369   5.394
 9042TIP3    H227091   5.950   1.412   5.526
 9043TIP3   OH227092   3.537   4.401   2.982
 9043TIP3    H127093   3.469   4.467   2.967
 9043TIP3    H227094   3.616   4.440   2.945
 9044TIP3   OH227095   6.580   2.071   1.944
 9044TIP3    H127096   6.650   2.067   2.009
 9044TIP3    H227097   6.523   1.997   1.966
 9045TIP3   OH227098   0.264   6.623   0.393
 9045TIP3    H127099   0.194   6.633   0.457
 9045TIP3    H227100   0.310   6.543   0.419
 9046TIP3   OH227101   6.504   0.358   4.464
 9046TIP3    H127102   6.557   0.304   4.406
 9046TIP3    H227103   6.528   0.329   4.552
 9047TIP3   OH227104   3.101   1.204   5.380
 9047TIP3    H127105   3.088   1.234   5.290
 9047TIP3    H227106   3.161   1.130   5.372
 9048TIP3   OH227107   2.030   3.541   2.190
 9048TIP3    H127108   2.019   3.500   2.276
 9048TIP3    H227109   2.123   3.527   2.169
 9049TIP3   OH227110   6.893   5.858   0.264
 9049TIP3    H127111   6.848   5.831   0.344
 9049TIP3    H227112   6.881   5.953   0.261
 9050TIP3   OH227113   6.883   4.467   1.662
 9050TIP3    H127114   6.868   4.521   1.584
 9050TIP3    H227115   6.840   4.516   1.733
 9051TIP3   OH227116   6.050   2.009   1.248
 9051TIP3    H127117   5.995   1.939   1.213
 9051TIP3    H227118   6.065   2.067   1.174
 9052TIP3   OH227119   0.287   5.985   2.871
 9052TIP3    H127120   0.260   6.073   2.845
 9052TIP3    H227121   0.372   5.973   2.830
 9053TIP3   OH227122   5.369   5.244   3.473
 9053TIP3    H127123   5.370   5.153   3.502
 9053TIP3    H227124   5.422   5.290   3.537
 9054TIP3   OH227125   5.750   2.625   5.735
 9054TIP3    H127126   5.831   2.642   5.687
 9054TIP3    H227127   5.755   2.533   5.759
 9055TIP3   OH227128   0.242   4.922   5.269
 9055TIP3    H127129   0.278   4.902   5.183
 9055TIP3    H227130   0.277   4.854   5.326
 9056TIP3   OH227131   2.934   1.095   5.037
 9056TIP3    H127132   2.839   1.092   5.031
 9056TIP3    H227133   2.952   1.125   5.126
 9057TIP3   OH227134   4.604   6.803   4.006
 9057TIP3    H127135   4.621   6.779   4.097
 9057TIP3    H227136   4.602   6.899   4.007
 9058TIP3   OH227137   0.798   6.058   2.155
 9058TIP3    H127138   0.752   6.018   2.229
 9058TIP3    H227139   0.728   6.086   2.096
 9059TIP3   OH227140   5.230   4.816   5.621
 9059TIP3    H127141   5.202   4.726   5.612
 9059TIP3    H227142   5.273   4.820   5.707
 9060TIP3   OH227143   5.383   1.013   1.323
 9060TIP3    H127144   5.309   1.037   1.380
 9060TIP3    H227145   5.461   1.032   1.375
 9061TIP3   OH227146   4.010   6.668   5.204
 9061TIP3    H127147   4.101   6.695   5.211
 9061TIP3    H227148   4.005   6.621   5.120
 9062TIP3   OH227149   6.726   3.061   1.471
 9062TIP3    H127150   6.667   3.117   1.421
 9062TIP3    H227151   6.700   3.074   1.562
 9063TIP3   OH227152   6.097   1.912   1.489
 9063TIP3    H127153   6.079   1.956   1.406
 9063TIP3    H227154   6.120   1.822   1.464
 9064TIP3   OH227155   4.163   4.689   0.771
 9064TIP3    H127156   4.187   4.682   0.863
 9064TIP3    H227157   4.246   4.699   0.725
 9065TIP3   OH227158   2.351   3.011   0.784
 9065TIP3    H127159   2.310   2.977   0.705
 9065TIP3    H227160   2.300   2.973   0.856
 9066TIP3   OH227161   1.531   6.669   0.744
 9066TIP3    H127162   1.580   6.592   0.714
 9066TIP3    H227163   1.496   6.707   0.664
 9067TIP3   OH227164   5.930   0.418   4.958
 9067TIP3    H127165   5.871   0.460   4.896
 9067TIP3    H227166   5.914   0.324   4.947
 9068TIP3   OH227167   1.473   6.513   1.963
 9068TIP3    H127168   1.563   6.482   1.974
 9068TIP3    H227169   1.465   6.585   2.026
 9069TIP3   OH227170   6.765   1.687   3.802
 9069TIP3    H127171   6.839   1.626   3.806
 9069TIP3    H227172   6.717   1.661   3.723
 9070TIP3   OH227173   4.110   4.159   4.568
 9070TIP3    H127174   4.205   4.155   4.558
 9070TIP3    H227175   4.077   4.093   4.507
 9071TIP3   OH227176   0.904   6.187   5.414
 9071TIP3    H127177   0.888   6.201   5.507
 9071TIP3    H227178   0.960   6.260   5.388
 9072TIP3   OH227179   1.575   1.717   4.918
 9072TIP3    H127180   1.552   1.712   5.011
 9072TIP3    H227181   1.605   1.629   4.895
 9073TIP3   OH227182   2.429   6.849   2.440
 9073TIP3    H127183   2.375   6.835   2.363
 9073TIP3    H227184   2.480   6.769   2.448
 9074TIP3   OH227185   2.458   2.751   4.835
 9074TIP3    H127186   2.546   2.787   4.851
 9074TIP3    H227187   2.449   2.751   4.740
 9075TIP3   OH227188   4.245   4.374   2.088
 9075TIP3    H127189   4.204   4.331   2.013
 9075TIP3    H227190   4.283   4.454   2.052
 9076TIP3   OH227191   2.034   5.133   3.673
 9076TIP3    H127192   2.107   5.188   3.703
 9076TIP3    H227193   2.003   5.090   3.753
 9077TIP3   OH227194   3.677   6.144   2.319
 9077TIP3    H127195   3.605   6.189   2.363
 9077TIP3    H227196   3.751   6.151   2.380
 9078TIP3   OH227197   3.384   0.436   3.335
 9078TIP3    H127198   3.326   0.415   3.262
 9078TIP3    H227199   3.463   0.471   3.294
 9079TIP3   OH227200   6.580   6.277   5.625
 9079TIP3    H127201   6.566   6.183   5.638
 9079TIP3    H227202   6.591   6.287   5.531
 9080TIP3   OH227203   3.872   1.704   4.840
 9080TIP3    H127204   3.923   1.712   4.920
 9080TIP3    H227205   3.917   1.760   4.777
 9081TIP3   OH227206   2.973   1.679   0.894
 9081TIP3    H127207   2.950   1.613   0.828
 9081TIP3    H227208   2.898   1.740   0.894
 9082TIP3   OH227209   6.971   3.252   5.038
 9082TIP3    H127210   6.879   3.227   5.023
 9082TIP3    H227211   6.985   3.234   5.131
 9083TIP3   OH227212   0.488   0.076   0.538
 9083TIP3    H127213   0.555   0.010   0.522
 9083TIP3    H227214   0.405   0.030   0.523
 9084TIP3   OH227215   1.095   1.704   0.877
 9084TIP3    H127216   1.067   1.795   0.889
 9084TIP3    H227217   1.044   1.673   0.803
 9085TIP3   OH227218   3.793   1.097   2.124
 9085TIP3    H127219   3.816   1.019   2.173
 9085TIP3    H227220   3.732   1.144   2.181
 9086TIP3   OH227221   1.887   4.789   1.157
 9086TIP3    H127222   1.897   4.764   1.249
 9086TIP3    H227223   1.929   4.875   1.152
 9087TIP3   OH227224   5.281   4.653   1.535
 9087TIP3    H127225   5.248   4.564   1.520
 9087TIP3    H227226   5.363   4.641   1.583
 9088TIP3   OH227227   2.272   2.566   3.442
 9088TIP3    H127228   2.311   2.647   3.409
 9088TIP3    H227229   2.181   2.568   3.410
 9089TIP3   OH227230   1.204   1.940   5.881
 9089TIP3    H127231   1.213   1.872   5.814
 9089TIP3    H227232   1.117   1.977   5.865
 9090TIP3   OH227233   0.991   6.402   3.030
 9090TIP3    H127234   1.046   6.418   3.107
 9090TIP3    H227235   1.024   6.319   2.994
 9091TIP3   OH227236   0.257   5.586   1.263
 9091TIP3    H127237   0.294   5.619   1.181
 9091TIP3    H227238   0.170   5.626   1.268
 9092TIP3   OH227239   0.668   0.064   1.322
 9092TIP3    H127240   0.579   0.057   1.288
 9092TIP3    H227241   0.661   0.038   1.414
 9093TIP3   OH227242   6.801   2.352   0.660
 9093TIP3    H127243   6.774   2.357   0.568
 9093TIP3    H227244   6.892   2.323   0.656
 9094TIP3   OH227245   2.270   3.208   5.597
 9094TIP3    H127246   2.260   3.303   5.590
 9094TIP3    H227247   2.349   3.196   5.648
 9095TIP3   OH227248   0.395   5.216   2.037
 9095TIP3    H127249   0.415   5.304   2.006
 9095TIP3    H227250   0.462   5.161   1.997
 9096TIP3   OH227251   2.543   5.856   4.041
 9096TIP3    H127252   2.586   5.771   4.030
 9096TIP3    H227253   2.493   5.847   4.123
 9097TIP3   OH227254   7.129   1.211   3.292
 9097TIP3    H127255   7.202   1.204   3.230
 9097TIP3    H227256   7.094   1.122   3.299
 9098TIP3   OH227257   2.782   0.739   5.502
 9098TIP3    H127258   2.710   0.784   5.458
 9098TIP3    H227259   2.753   0.648   5.510
 9099TIP3   OH227260   2.233   6.750   3.722
 9099TIP3    H127261   2.283   6.803   3.784
 9099TIP3    H227262   2.278   6.665   3.722
 9100TIP3   OH227263   4.139   5.508   4.323
 9100TIP3    H127264   4.198   5.575   4.358
 9100TIP3    H227265   4.174   5.425   4.356
 9101TIP3   OH227266   2.110   4.854   0.027
 9101TIP3    H127267   2.107   4.889   0.116
 9101TIP3    H227268   2.032   4.890  -0.016
 9102TIP3   OH227269   1.987   4.426   4.046
 9102TIP3    H127270   1.945   4.374   3.978
 9102TIP3    H227271   2.032   4.496   3.999
 9103TIP3   OH227272   2.673   3.902   4.774
 9103TIP3    H127273   2.747   3.851   4.741
 9103TIP3    H227274   2.598   3.842   4.768
 9104TIP3   OH227275   6.436   4.783   0.975
 9104TIP3    H127276   6.462   4.763   0.885
 9104TIP3    H227277   6.518   4.779   1.025
 9105TIP3   OH227278   2.650   1.134   0.922
 9105TIP3    H127279   2.738   1.164   0.946
 9105TIP3    H227280   2.592   1.200   0.959
 9106TIP3   OH227281   1.438   2.732   4.000
 9106TIP3    H127282   1.360   2.702   4.046
 9106TIP3    H227283   1.499   2.756   4.070
 9107TIP3   OH227284   3.952   4.029   2.956
 9107TIP3    H127285   3.972   3.980   3.036
 9107TIP3    H227286   3.860   4.009   2.938
 9108TIP3   OH227287   6.793   1.879   3.278
 9108TIP3    H127288   6.778   1.941   3.349
 9108TIP3    H227289   6.783   1.793   3.318
 9109TIP3   OH227290   4.551   3.844   5.186
 9109TIP3    H127291   4.576   3.914   5.246
 9109TIP3    H227292   4.482   3.883   5.132
 9110TIP3   OH227293   3.653   1.706   0.937
 9110TIP3    H127294   3.572   1.735   0.979
 9110TIP3    H227295   3.623   1.662   0.857
 9111TIP3   OH227296   5.315   1.999   4.663
 9111TIP3    H127297   5.295   2.091   4.642
 9111TIP3    H227298   5.342   2.001   4.754
 9112TIP3   OH227299   1.487   4.065   4.436
 9112TIP3    H127300   1.436   4.040   4.514
 9112TIP3    H227301   1.503   4.159   4.448
 9113TIP3   OH227302   5.530   0.017   4.971
 9113TIP3    H127303   5.504   0.057   5.054
 9113TIP3    H227304   5.587   0.081   4.929
 9114TIP3   OH227305   2.394   2.914   5.850
 9114TIP3    H127306   2.331   2.855   5.808
 9114TIP3    H227307   2.456   2.936   5.780
 9115TIP3   OH227308   5.595   5.790   0.467
 9115TIP3    H127309   5.626   5.809   0.379
 9115TIP3    H227310   5.611   5.870   0.517
 9116TIP3   OH227311   0.412   4.284   5.089
 9116TIP3    H127312   0.426   4.371   5.126
 9116TIP3    H227313   0.328   4.290   5.044
 9117TIP3   OH227314   4.108   4.641   1.576
 9117TIP3    H127315   4.204   4.637   1.576
 9117TIP3    H227316   4.086   4.700   1.649
 9118TIP3   OH227317   5.371   2.408   3.772
 9118TIP3    H127318   5.388   2.320   3.741
 9118TIP3    H227319   5.276   2.414   3.779
 9119TIP3   OH227320   4.837   0.842   5.020
 9119TIP3    H127321   4.806   0.777   4.956
 9119TIP3    H227322   4.924   0.866   4.989
 9120TIP3   OH227323   3.147   3.809   3.290
 9120TIP3    H127324   3.058   3.790   3.319
 9120TIP3    H227325   3.136   3.836   3.198
 9121TIP3   OH227326   3.396   2.872   2.773
 9121TIP3    H127327   3.439   2.829   2.847
 9121TIP3    H227328   3.460   2.868   2.702
 9122TIP3   OH227329   6.797   4.105   2.579
 9122TIP3    H127330   6.783   4.136   2.489
 9122TIP3    H227331   6.766   4.014   2.578
 9123TIP3   OH227332   6.257   5.389   5.227
 9123TIP3    H127333   6.222   5.302   5.209
 9123TIP3    H227334   6.280   5.424   5.140
 9124TIP3   OH227335   3.913   6.610   4.069
 9124TIP3    H127336   3.823   6.603   4.101
 9124TIP3    H227337   3.966   6.565   4.134
 9125TIP3   OH227338   6.498   6.485   0.161
 9125TIP3    H127339   6.438   6.509   0.090
 9125TIP3    H227340   6.554   6.418   0.123
 9126TIP3   OH227341   0.715   4.099   2.025
 9126TIP3    H127342   0.790   4.158   2.018
 9126TIP3    H227343   0.651   4.146   2.077
 9127TIP3   OH227344   5.940   6.391   2.765
 9127TIP3    H127345   5.997   6.426   2.696
 9127TIP3    H227346   5.858   6.371   2.720
 9128TIP3   OH227347   3.472   1.092   1.426
 9128TIP3    H127348   3.551   1.122   1.471
 9128TIP3    H227349   3.402   1.146   1.462
 9129TIP3   OH227350   6.770   1.720   2.085
 9129TIP3    H127351   6.841   1.726   2.149
 9129TIP3    H227352   6.690   1.710   2.137
 9130TIP3   OH227353   5.189   6.151   3.607
 9130TIP3    H127354   5.190   6.225   3.546
 9130TIP3    H227355   5.237   6.082   3.561
 9131TIP3   OH227356   6.139   5.547   1.017
 9131TIP3    H127357   6.068   5.608   0.993
 9131TIP3    H227358   6.219   5.593   0.992
 9132TIP3   OH227359   6.828   5.850   3.213
 9132TIP3    H127360   6.902   5.863   3.154
 9132TIP3    H227361   6.776   5.781   3.173
 9133TIP3   OH227362   2.601   0.693   5.799
 9133TIP3    H127363   2.580   0.661   5.712
 9133TIP3    H227364   2.647   0.620   5.841
 9134TIP3   OH227365   4.269   4.844   5.366
 9134TIP3    H127366   4.231   4.778   5.308
 9134TIP3    H227367   4.232   4.826   5.452
 9135TIP3   OH227368   6.663   5.526   1.096
 9135TIP3    H127369   6.686   5.436   1.071
 9135TIP3    H227370   6.574   5.538   1.063
 9136TIP3   OH227371   6.046   1.294   3.520
 9136TIP3    H127372   6.128   1.341   3.507
 9136TIP3    H227373   5.979   1.362   3.523
 9137TIP3   OH227374   0.526   3.027   3.010
 9137TIP3    H127375   0.439   2.987   3.022
 9137TIP3    H227376   0.574   3.003   3.089
 9138TIP3   OH227377   6.292   2.718   3.226
 9138TIP3    H127378   6.387   2.727   3.225
 9138TIP3    H227379   6.277   2.624   3.241
 9139TIP3   OH227380   5.063   3.824   1.378
 9139TIP3    H127381   4.997   3.775   1.427
 9139TIP3    H227382   5.145   3.778   1.397
 9140TIP3   OH227383   1.705   4.609   2.289
 9140TIP3    H127384   1.630   4.664   2.308
 9140TIP3    H227385   1.698   4.591   2.195
 9141TIP3   OH227386   1.406   2.931   4.741
 9141TIP3    H127387   1.470   2.992   4.705
 9141TIP3    H227388   1.442   2.906   4.826
 9142TIP3   OH227389   6.018   5.945   4.304
 9142TIP3    H127390   5.959   5.978   4.236
 9142TIP3    H227391   6.066   6.023   4.334
 9143TIP3   OH227392   2.245   0.632   0.313
 9143TIP3    H127393   2.218   0.671   0.230
 9143TIP3    H227394   2.207   0.689   0.380
 9144TIP3   OH227395   4.164   5.229   4.465
 9144TIP3    H127396   4.244   5.183   4.440
 9144TIP3    H227397   4.139   5.190   4.548
 9145TIP3   OH227398   3.708   4.233   5.039
 9145TIP3    H127399   3.680   4.318   5.005
 9145TIP3    H227400   3.688   4.237   5.133
 9146TIP3   OH227401   1.449   2.521   1.343
 9146TIP3    H127402   1.464   2.454   1.410
 9146TIP3    H227403   1.454   2.473   1.260
 9147TIP3   OH227404   5.065   0.939   5.759
 9147TIP3    H127405   5.028   1.025   5.780
 9147TIP3    H227406   5.123   0.955   5.685
 9148TIP3   OH227407   0.238   3.418   2.824
 9148TIP3    H127408   0.268   3.488   2.767
 9148TIP3    H227409   0.304   3.349   2.815
 9149TIP3   OH227410   4.792   6.130   0.185
 9149TIP3    H127411   4.800   6.218   0.148
 9149TIP3    H227412   4.810   6.141   0.278
 9150TIP3   OH227413   6.558   0.748   5.698
 9150TIP3    H127414   6.644   0.707   5.708
 9150TIP3    H227415   6.498   0.674   5.688
 9151TIP3   OH227416   7.011   6.342   4.967
 9151TIP3    H127417   7.083   6.396   4.936
 9151TIP3    H227418   7.011   6.266   4.908
 9152TIP3   OH227419   3.505   5.797   3.347
 9152TIP3    H127420   3.469   5.708   3.344
 9152TIP3    H227421   3.429   5.854   3.357
 9153TIP3   OH227422   3.560   2.476   5.590
 9153TIP3    H127423   3.611   2.496   5.669
 9153TIP3    H227424   3.577   2.384   5.573
 9154TIP3   OH227425   5.046   1.490   0.291
 9154TIP3    H127426   5.135   1.459   0.311
 9154TIP3    H227427   5.027   1.455   0.205
 9155TIP3   OH227428   4.294   3.355   2.278
 9155TIP3    H127429   4.354   3.404   2.222
 9155TIP3    H227430   4.207   3.378   2.246
 9156TIP3   OH227431   5.200   1.056   2.380
 9156TIP3    H127432   5.226   0.971   2.416
 9156TIP3    H227433   5.258   1.119   2.425
 9157TIP3   OH227434   5.062   4.039   1.988
 9157TIP3    H127435   5.084   4.049   2.081
 9157TIP3    H227436   5.038   3.947   1.979
 9158TIP3   OH227437   7.102   6.190   2.810
 9158TIP3    H127438   7.125   6.099   2.827
 9158TIP3    H227439   7.007   6.189   2.796
 9159TIP3   OH227440   2.576   4.697   5.779
 9159TIP3    H127441   2.608   4.770   5.726
 9159TIP3    H227442   2.593   4.723   5.869
 9160TIP3   OH227443   6.931   2.184   2.269
 9160TIP3    H127444   6.963   2.168   2.180
 9160TIP3    H227445   6.861   2.119   2.280
 9161TIP3   OH227446   6.870   4.483   2.419
 9161TIP3    H127447   6.960   4.479   2.453
 9161TIP3    H227448   6.873   4.434   2.337
 9162TIP3   OH227449   1.560   0.005   4.018
 9162TIP3    H127450   1.570  -0.070   3.960
 9162TIP3    H227451   1.631   0.064   3.993
 9163TIP3   OH227452   1.650   0.919   2.981
 9163TIP3    H127453   1.560   0.886   2.980
 9163TIP3    H227454   1.683   0.894   3.067
 9164TIP3   OH227455   0.008   0.786   1.803
 9164TIP3    H127456  -0.001   0.877   1.773
 9164TIP3    H227457   0.014   0.793   1.899
 9165TIP3   OH227458   3.719  -0.056   1.271
 9165TIP3    H127459   3.687   0.033   1.287
 9165TIP3    H227460   3.642  -0.112   1.283
 9166TIP3   OH227461   2.532   0.470   5.168
 9166TIP3    H127462   2.464   0.531   5.140
 9166TIP3    H227463   2.491   0.420   5.239
 9167TIP3   OH227464   5.246   6.311   3.893
 9167TIP3    H127465   5.240   6.253   3.817
 9167TIP3    H227466   5.293   6.388   3.861
 9168TIP3   OH227467   3.802   4.614   5.557
 9168TIP3    H127468   3.840   4.696   5.527
 9168TIP3    H227469   3.876   4.566   5.595
 9169TIP3   OH227470   2.689   4.941   3.795
 9169TIP3    H127471   2.630   5.016   3.803
 9169TIP3    H227472   2.699   4.928   3.701
 9170TIP3   OH227473   2.922   5.800   5.860
 9170TIP3    H127474   2.988   5.772   5.924
 9170TIP3    H227475   2.952   5.885   5.829
 9171TIP3   OH227476   5.701   5.230   2.575
 9171TIP3    H127477   5.688   5.190   2.488
 9171TIP3    H227478   5.779   5.186   2.609
 9172TIP3   OH227479   2.281   1.220   4.109
 9172TIP3    H127480   2.260   1.217   4.015
 9172TIP3    H227481   2.241   1.301   4.140
 9173TIP3   OH227482   0.352   1.626   3.705
 9173TIP3    H127483   0.399   1.548   3.732
 9173TIP3    H227484   0.414   1.698   3.720
 9174TIP3   OH227485   0.073   5.813   3.139
 9174TIP3    H127486   0.100   5.871   3.210
 9174TIP3    H227487   0.155   5.782   3.100
 9175TIP3   OH227488   0.135   4.537   2.845
 9175TIP3    H127489   0.155   4.449   2.878
 9175TIP3    H227490   0.213   4.562   2.795
 9176TIP3   OH227491   0.648   1.274   1.694
 9176TIP3    H127492   0.731   1.234   1.719
 9176TIP3    H227493   0.599   1.204   1.652
 9177TIP3   OH227494   4.627   0.359   3.034
 9177TIP3    H127495   4.641   0.369   2.940
 9177TIP3    H227496   4.703   0.309   3.065
 9178TIP3   OH227497   5.453   3.260   0.681
 9178TIP3    H127498   5.447   3.236   0.589
 9178TIP3    H227499   5.541   3.233   0.708
 9179TIP3   OH227500   2.126   1.882   2.189
 9179TIP3    H127501   2.109   1.821   2.261
 9179TIP3    H227502   2.099   1.835   2.110
 9180TIP3   OH227503   3.153   5.710   5.628
 9180TIP3    H127504   3.105   5.700   5.546
 9180TIP3    H227505   3.154   5.804   5.645
 9181TIP3   OH227506   4.325   6.034   2.745
 9181TIP3    H127507   4.260   6.075   2.802
 9181TIP3    H227508   4.295   5.944   2.734
 9182TIP3   OH227509   2.562   0.545   5.550
 9182TIP3    H127510   2.559   0.450   5.565
 9182TIP3    H227511   2.504   0.559   5.475
 9183TIP3   OH227512   2.095   4.555   3.027
 9183TIP3    H127513   2.011   4.565   3.070
 9183TIP3    H227514   2.078   4.494   2.955
 9184TIP3   OH227515   6.027   0.391   4.325
 9184TIP3    H127516   6.106   0.430   4.287
 9184TIP3    H227517   5.957   0.453   4.305
 9185TIP3   OH227518   6.929   3.920   4.104
 9185TIP3    H127519   6.981   3.862   4.160
 9185TIP3    H227520   6.838   3.899   4.126
 9186TIP3   OH227521   0.143   1.385   3.761
 9186TIP3    H127522   0.108   1.474   3.759
 9186TIP3    H227523   0.134   1.354   3.671
 9187TIP3   OH227524   4.796   0.175   3.134
 9187TIP3    H127525   4.818   0.105   3.072
 9187TIP3    H227526   4.852   0.158   3.210
 9188TIP3   OH227527   3.760   2.930   3.776
 9188TIP3    H127528   3.850   2.900   3.764
 9188TIP3    H227529   3.765   2.994   3.847
 9189TIP3   OH227530   1.042   2.848   1.635
 9189TIP3    H127531   1.074   2.784   1.572
 9189TIP3    H227532   1.110   2.916   1.637
 9190TIP3   OH227533   4.799   5.728   4.420
 9190TIP3    H127534   4.853   5.667   4.471
 9190TIP3    H227535   4.742   5.769   4.485
 9191TIP3   OH227536   4.247   5.863   1.937
 9191TIP3    H127537   4.251   5.832   1.846
 9191TIP3    H227538   4.162   5.834   1.969
 9192TIP3   OH227539   2.243   6.338   0.259
 9192TIP3    H127540   2.330   6.377   0.253
 9192TIP3    H227541   2.257   6.246   0.236
 9193TIP3   OH227542   3.336   3.273   0.187
 9193TIP3    H127543   3.269   3.288   0.254
 9193TIP3    H227544   3.290   3.285   0.104
 9194TIP3   OH227545   1.102   6.467   3.691
 9194TIP3    H127546   1.058   6.549   3.714
 9194TIP3    H227547   1.030   6.408   3.666
 9195TIP3   OH227548   5.726   5.933   5.357
 9195TIP3    H127549   5.677   5.873   5.301
 9195TIP3    H227550   5.815   5.898   5.357
 9196TIP3   OH227551   2.722   0.559   3.785
 9196TIP3    H127552   2.815   0.547   3.804
 9196TIP3    H227553   2.711   0.653   3.773
 9197TIP3   OH227554   5.504   5.401   2.631
 9197TIP3    H127555   5.582   5.346   2.628
 9197TIP3    H227556   5.536   5.490   2.617
 9198TIP3   OH227557   5.664   0.555   0.266
 9198TIP3    H127558   5.716   0.488   0.310
 9198TIP3    H227559   5.598   0.580   0.330
 9199TIP3   OH227560   7.059   2.776   3.447
 9199TIP3    H127561   7.086   2.868   3.445
 9199TIP3    H227562   6.991   2.773   3.515
 9200TIP3   OH227563   6.410   2.678   1.300
 9200TIP3    H127564   6.459   2.754   1.271
 9200TIP3    H227565   6.470   2.605   1.290
 9201TIP3   OH227566   4.365   4.730   2.210
 9201TIP3    H127567   4.378   4.708   2.118
 9201TIP3    H227568   4.270   4.735   2.220
 9202TIP3   OH227569   5.127   1.093   0.995
 9202TIP3    H127570   5.120   1.184   0.965
 9202TIP3    H227571   5.039   1.073   1.029
 9203TIP3   OH227572   6.768   4.096   0.226
 9203TIP3    H127573   6.862   4.082   0.234
 9203TIP3    H227574   6.733   4.008   0.209
 9204TIP3   OH227575   0.565   5.162   1.183
 9204TIP3    H127576   0.605   5.249   1.178
 9204TIP3    H227577   0.599   5.115   1.107
 9205TIP3   OH227578   6.942   6.154   3.478
 9205TIP3    H127579   6.984   6.198   3.551
 9205TIP3    H227580   6.848   6.170   3.490
 9206TIP3   OH227581   2.444   1.025   1.220
 9206TIP3    H127582   2.443   1.108   1.172
 9206TIP3    H227583   2.385   0.968   1.172
 9207TIP3   OH227584   3.805   0.711   0.601
 9207TIP3    H127585   3.846   0.625   0.591
 9207TIP3    H227586   3.711   0.694   0.592
 9208TIP3   OH227587   1.023   3.230   1.394
 9208TIP3    H127588   1.106   3.188   1.413
 9208TIP3    H227589   1.045   3.322   1.379
 9209TIP3   OH227590   6.952   2.882   4.421
 9209TIP3    H127591   6.932   2.940   4.347
 9209TIP3    H227592   7.047   2.888   4.431
 9210TIP3   OH227593   6.510   4.204   3.249
 9210TIP3    H127594   6.534   4.177   3.160
 9210TIP3    H227595   6.550   4.138   3.305
 9211TIP3   OH227596   3.043   2.441   0.948
 9211TIP3    H127597   2.974   2.476   0.892
 9211TIP3    H227598   3.123   2.480   0.914
 9212TIP3   OH227599   3.929   0.412   1.865
 9212TIP3    H127600   3.912   0.506   1.861
 9212TIP3    H227601   4.010   0.403   1.915
 9213TIP3   OH227602   4.633   1.106   3.061
 9213TIP3    H127603   4.681   1.173   3.111
 9213TIP3    H227604   4.615   1.037   3.124
 9214TIP3   OH227605   5.918   5.087   2.692
 9214TIP3    H127606   5.941   5.098   2.784
 9214TIP3    H227607   6.000   5.061   2.650
 9215TIP3   OH227608   0.779   0.920   1.729
 9215TIP3    H127609   0.868   0.885   1.726
 9215TIP3    H227610   0.777   0.974   1.808
 9216TIP3   OH227611   0.971   6.090   4.464
 9216TIP3    H127612   0.883   6.129   4.457
 9216TIP3    H227613   0.983   6.074   4.557
 9217TIP3   OH227614   5.909   5.005   3.378
 9217TIP3    H127615   5.909   4.958   3.461
 9217TIP3    H227616   5.944   4.943   3.314
 9218TIP3   OH227617   3.335   5.116   5.363
 9218TIP3    H127618   3.375   5.029   5.367
 9218TIP3    H227619   3.248   5.100   5.325
 9219TIP3   OH227620   1.870   0.758   2.184
 9219TIP3    H127621   1.930   0.795   2.119
 9219TIP3    H227622   1.785   0.756   2.139
 9220TIP3   OH227623   1.829   1.730   3.554
 9220TIP3    H127624   1.858   1.818   3.530
 9220TIP3    H227625   1.789   1.695   3.474
 9221TIP3   OH227626   4.292   4.033   4.824
 9221TIP3    H127627   4.268   4.090   4.897
 9221TIP3    H227628   4.247   3.951   4.841
 9222TIP3   OH227629   4.956   2.381   3.423
 9222TIP3    H127630   4.865   2.377   3.395
 9222TIP3    H227631   5.006   2.360   3.344
 9223TIP3   OH227632   3.764   0.558   2.972
 9223TIP3    H127633   3.843   0.536   2.922
 9223TIP3    H227634   3.777   0.649   2.997
 9224TIP3   OH227635   6.430   0.023   1.664
 9224TIP3    H127636   6.495   0.059   1.603
 9224TIP3    H227637   6.467   0.041   1.751
 9225TIP3   OH227638   1.227   0.465   1.181
 9225TIP3    H127639   1.271   0.522   1.117
 9225TIP3    H227640   1.150   0.514   1.209
 9226TIP3   OH227641   5.696   3.567   1.171
 9226TIP3    H127642   5.750   3.634   1.215
 9226TIP3    H227643   5.697   3.592   1.079
 9227TIP3   OH227644   3.740   2.650   2.419
 9227TIP3    H127645   3.690   2.592   2.361
 9227TIP3    H227646   3.830   2.645   2.387
 9228TIP3   OH227647   1.872   5.415   1.267
 9228TIP3    H127648   1.821   5.350   1.317
 9228TIP3    H227649   1.807   5.476   1.233
 9229TIP3   OH227650   6.899   0.016   4.887
 9229TIP3    H127651   6.808  -0.014   4.882
 9229TIP3    H227652   6.892   0.109   4.906
 9230TIP3   OH227653   5.613   6.403   4.139
 9230TIP3    H127654   5.570   6.488   4.151
 9230TIP3    H227655   5.608   6.361   4.226
 9231TIP3   OH227656   5.611   4.300   0.282
 9231TIP3    H127657   5.549   4.368   0.311
 9231TIP3    H227658   5.695   4.345   0.278
 9232TIP3   OH227659   2.098   6.188   3.055
 9232TIP3    H127660   2.008   6.157   3.067
 9232TIP3    H227661   2.153   6.117   3.089
 9233TIP3   OH227662   1.796   6.402   3.691
 9233TIP3    H127663   1.758   6.463   3.754
 9233TIP3    H227664   1.726   6.339   3.674
 9234TIP3   OH227665   6.931   6.479   0.809
 9234TIP3    H127666   6.998   6.467   0.742
 9234TIP3    H227667   6.965   6.550   0.864
 9235TIP3   OH227668   5.511   3.693   1.517
 9235TIP3    H127669   5.499   3.695   1.422
 9235TIP3    H227670   5.421   3.690   1.552
 9236TIP3   OH227671   2.114   6.441   4.144
 9236TIP3    H127672   2.199   6.397   4.145
 9236TIP3    H227673   2.101   6.470   4.234
 9237TIP3   OH227674   1.432   1.821   4.495
 9237TIP3    H127675   1.486   1.864   4.561
 9237TIP3    H227676   1.421   1.888   4.427
 9238TIP3   OH227677   1.929   4.016   5.325
 9238TIP3    H127678   1.944   4.049   5.413
 9238TIP3    H227679   1.860   4.072   5.290
 9239TIP3   OH227680   3.809   4.018   1.409
 9239TIP3    H127681   3.808   3.947   1.344
 9239TIP3    H227682   3.764   3.981   1.485
 9240TIP3   OH227683   6.900   4.435   3.057
 9240TIP3    H127684   6.983   4.444   3.103
 9240TIP3    H227685   6.836   4.416   3.126
 9241TIP3   OH227686   7.064   1.886   3.804
 9241TIP3    H127687   7.128   1.956   3.789
 9241TIP3    H227688   7.013   1.883   3.724
 9242TIP3   OH227689   2.875   5.248   2.983
 9242TIP3    H127690   2.872   5.268   3.077
 9242TIP3    H227691   2.968   5.243   2.962
 9243TIP3   OH227692   4.239   4.453   3.886
 9243TIP3    H127693   4.278   4.518   3.945
 9243TIP3    H227694   4.313   4.421   3.834
 9244TIP3   OH227695   2.033   3.945   5.077
 9244TIP3    H127696   2.042   3.853   5.103
 9244TIP3    H227697   2.011   3.990   5.159
 9245TIP3   OH227698   4.323   1.590   3.792
 9245TIP3    H127699   4.234   1.622   3.775
 9245TIP3    H227700   4.333   1.514   3.734
 9246TIP3   OH227701   4.873   5.806   0.333
 9246TIP3    H127702   4.787   5.793   0.293
 9246TIP3    H227703   4.914   5.873   0.279
 9247TIP3   OH227704   4.859   3.945   1.648
 9247TIP3    H127705   4.856   3.935   1.553
 9247TIP3    H227706   4.861   3.855   1.682
 9248TIP3   OH227707   5.351   2.150   4.119
 9248TIP3    H127708   5.440   2.114   4.113
 9248TIP3    H227709   5.294   2.077   4.096
 9249TIP3   OH227710   4.513   2.534   5.320
 9249TIP3    H127711   4.426   2.574   5.330
 9249TIP3    H227712   4.554   2.584   5.249
 9250TIP3   OH227713   4.701   4.070   3.088
 9250TIP3    H127714   4.780   4.092   3.038
 9250TIP3    H227715   4.699   4.134   3.159
 9251TIP3   OH227716   5.813   6.420   3.185
 9251TIP3    H127717   5.859   6.353   3.134
 9251TIP3    H227718   5.827   6.501   3.137
 9252TIP3   OH227719   2.500   4.208   3.768
 9252TIP3    H127720   2.480   4.129   3.818
 9252TIP3    H227721   2.541   4.176   3.687
 9253TIP3   OH227722   1.377   2.768   2.070
 9253TIP3    H127723   1.303   2.807   2.117
 9253TIP3    H227724   1.336   2.709   2.007
 9254TIP3   OH227725   5.401   4.475   0.392
 9254TIP3    H127726   5.393   4.406   0.458
 9254TIP3    H227727   5.444   4.547   0.437
 9255TIP3   OH227728   0.190   1.801   4.583
 9255TIP3    H127729   0.132   1.732   4.616
 9255TIP3    H227730   0.242   1.827   4.659
 9256TIP3   OH227731   3.424   1.681   2.580
 9256TIP3    H127732   3.444   1.625   2.505
 9256TIP3    H227733   3.333   1.707   2.568
 9257TIP3   OH227734   3.950   4.821   5.098
 9257TIP3    H127735   3.937   4.756   5.030
 9257TIP3    H227736   3.979   4.771   5.174
 9258TIP3   OH227737   5.159   4.126   1.114
 9258TIP3    H127738   5.202   4.207   1.088
 9258TIP3    H227739   5.221   4.056   1.090
 9259TIP3   OH227740   3.451   1.605   2.867
 9259TIP3    H127741   3.394   1.677   2.891
 9259TIP3    H227742   3.458   1.610   2.772
 9260TIP3   OH227743   4.600   2.197   2.613
 9260TIP3    H127744   4.581   2.282   2.572
 9260TIP3    H227745   4.679   2.166   2.570
 9261TIP3   OH227746   6.430   5.781   3.933
 9261TIP3    H127747   6.497   5.850   3.936
 9261TIP3    H227748   6.349   5.825   3.957
 9262TIP3   OH227749   1.858   5.646   4.443
 9262TIP3    H127750   1.941   5.617   4.480
 9262TIP3    H227751   1.883   5.699   4.367
 9263TIP3   OH227752   4.415   1.620   1.752
 9263TIP3    H127753   4.458   1.572   1.682
 9263TIP3    H227754   4.330   1.577   1.762
 9264TIP3   OH227755   4.583   2.637   3.405
 9264TIP3    H127756   4.492   2.613   3.419
 9264TIP3    H227757   4.626   2.618   3.489
 9265TIP3   OH227758   3.265   1.549   1.908
 9265TIP3    H127759   3.203   1.582   1.842
 9265TIP3    H227760   3.253   1.606   1.983
 9266TIP3   OH227761   5.323   0.041   3.828
 9266TIP3    H127762   5.310  -0.041   3.781
 9266TIP3    H227763   5.380   0.093   3.770
 9267TIP3   OH227764   6.354   5.899   2.827
 9267TIP3    H127765   6.274   5.951   2.817
 9267TIP3    H227766   6.336   5.840   2.899
 9268TIP3   OH227767   0.130   4.178   4.482
 9268TIP3    H127768   0.112   4.110   4.547
 9268TIP3    H227769   0.063   4.167   4.415
 9269TIP3   OH227770   4.848   6.672   1.475
 9269TIP3    H127771   4.759   6.663   1.440
 9269TIP3    H227772   4.853   6.763   1.503
 9270TIP3   OH227773   2.416   6.136   4.780
 9270TIP3    H127774   2.433   6.164   4.690
 9270TIP3    H227775   2.325   6.160   4.796
 9271TIP3   OH227776   5.176   1.522   2.870
 9271TIP3    H127777   5.256   1.573   2.879
 9271TIP3    H227778   5.166   1.511   2.775
 9272TIP3   OH227779   5.126   0.619   2.696
 9272TIP3    H127780   5.096   0.607   2.786
 9272TIP3    H227781   5.142   0.530   2.664
 9273TIP3   OH227782   1.020   1.509   1.990
 9273TIP3    H127783   1.006   1.474   1.902
 9273TIP3    H227784   0.951   1.573   2.002
 9274TIP3   OH227785   4.079   2.250   0.504
 9274TIP3    H127786   4.119   2.164   0.495
 9274TIP3    H227787   4.134   2.308   0.451
 9275TIP3   OH227788   4.039   3.562   4.397
 9275TIP3    H127789   4.039   3.604   4.311
 9275TIP3    H227790   4.128   3.578   4.431
 9276TIP3   OH227791   4.495   1.590   1.163
 9276TIP3    H127792   4.425   1.640   1.122
 9276TIP3    H227793   4.575   1.634   1.135
 9277TIP3   OH227794   1.947   1.456   1.840
 9277TIP3    H127795   1.894   1.481   1.916
 9277TIP3    H227796   2.018   1.402   1.877
 9278TIP3   OH227797   6.754   5.548   4.241
 9278TIP3    H127798   6.811   5.481   4.204
 9278TIP3    H227799   6.682   5.500   4.281
 9279TIP3   OH227800   3.657   4.413   3.848
 9279TIP3    H127801   3.566   4.386   3.842
 9279TIP3    H227802   3.685   4.387   3.936
 9280TIP3   OH227803   4.669   0.558   1.505
 9280TIP3    H127804   4.584   0.552   1.548
 9280TIP3    H227805   4.721   0.613   1.565
 9281TIP3   OH227806   3.114   3.361   3.045
 9281TIP3    H127807   3.129   3.435   3.104
 9281TIP3    H227808   3.159   3.288   3.086
 9282TIP3   OH227809   1.392   0.568   0.941
 9282TIP3    H127810   1.432   0.606   1.019
 9282TIP3    H227811   1.460   0.512   0.903
 9283TIP3   OH227812   5.196   6.750   1.978
 9283TIP3    H127813   5.229   6.706   2.056
 9283TIP3    H227814   5.102   6.759   1.993
 9284TIP3   OH227815   6.153   5.142   0.127
 9284TIP3    H127816   6.131   5.052   0.103
 9284TIP3    H227817   6.175   5.138   0.220
 9285TIP3   OH227818   2.246   5.394   1.211
 9285TIP3    H127819   2.292   5.449   1.148
 9285TIP3    H227820   2.298   5.400   1.291
 9286TIP3   OH227821   1.552   2.004   0.818
 9286TIP3    H127822   1.516   1.919   0.843
 9286TIP3    H227823   1.644   2.000   0.843
 9287TIP3   OH227824   1.265   3.782   0.532
 9287TIP3    H127825   1.214   3.853   0.494
 9287TIP3    H227826   1.343   3.825   0.568
 9288TIP3   OH227827   4.912   2.304   1.495
 9288TIP3    H127828   4.973   2.247   1.542
 9288TIP3    H227829   4.868   2.246   1.433
 9289TIP3   OH227830   0.552   1.075   4.308
 9289TIP3    H127831   0.579   1.103   4.396
 9289TIP3    H227832   0.606   0.998   4.290
 9290TIP3   OH227833   1.075   5.372   2.043
 9290TIP3    H127834   1.108   5.394   1.956
 9290TIP3    H227835   1.145   5.396   2.103
 9291TIP3   OH227836   4.908   3.344   5.068
 9291TIP3    H127837   4.969   3.289   5.117
 9291TIP3    H227838   4.954   3.428   5.059
 9292TIP3   OH227839   4.105   3.541   5.636
 9292TIP3    H127840   4.054   3.469   5.598
 9292TIP3    H227841   4.196   3.519   5.616
 9293TIP3   OH227842   3.503   6.700   4.998
 9293TIP3    H127843   3.484   6.694   5.092
 9293TIP3    H227844   3.478   6.790   4.974
 9294TIP3   OH227845   0.480   1.313   5.181
 9294TIP3    H127846   0.461   1.375   5.110
 9294TIP3    H227847   0.558   1.266   5.151
 9295TIP3   OH227848   5.193   0.112   5.396
 9295TIP3    H127849   5.105   0.146   5.412
 9295TIP3    H227850   5.243   0.139   5.473
 9296TIP3   OH227851   4.496   1.214   5.767
 9296TIP3    H127852   4.520   1.306   5.763
 9296TIP3    H227853   4.536   1.176   5.688
 9297TIP3   OH227854   1.169   6.348   4.481
 9297TIP3    H127855   1.184   6.281   4.414
 9297TIP3    H227856   1.082   6.383   4.460
 9298TIP3   OH227857   5.865   3.057   4.235
 9298TIP3    H127858   5.915   3.028   4.312
 9298TIP3    H227859   5.845   3.149   4.253
 9299TIP3   OH227860   2.010   6.051   0.069
 9299TIP3    H127861   1.948   6.100   0.015
 9299TIP3    H227862   2.085   6.036   0.012
 9300TIP3   OH227863   0.525   4.009   2.969
 9300TIP3    H127864   0.439   3.997   2.928
 9300TIP3    H227865   0.586   4.016   2.895
 9301TIP3   OH227866   2.682   5.166   1.196
 9301TIP3    H127867   2.637   5.193   1.275
 9301TIP3    H227868   2.699   5.248   1.149
 9302TIP3   OH227869   1.922   1.371   1.052
 9302TIP3    H127870   1.882   1.441   1.103
 9302TIP3    H227871   1.877   1.291   1.079
 9303TIP3   OH227872   1.560   0.644   3.793
 9303TIP3    H127873   1.530   0.694   3.869
 9303TIP3    H227874   1.654   0.661   3.789
 9304TIP3   OH227875   6.428   6.469   2.635
 9304TIP3    H127876   6.411   6.447   2.543
 9304TIP3    H227877   6.433   6.565   2.636
 9305TIP3   OH227878   1.707   5.907   4.955
 9305TIP3    H127879   1.678   5.935   4.868
 9305TIP3    H227880   1.649   5.954   5.016
 9306TIP3   OH227881   2.530   1.903   0.411
 9306TIP3    H127882   2.535   1.847   0.334
 9306TIP3    H227883   2.436   1.909   0.430
 9307TIP3   OH227884   4.678   6.277   1.516
 9307TIP3    H127885   4.696   6.203   1.458
 9307TIP3    H227886   4.605   6.249   1.571
 9308TIP3   OH227887   4.126   4.210   2.611
 9308TIP3    H127888   4.069   4.136   2.588
 9308TIP3    H227889   4.198   4.170   2.660
 9309TIP3   OH227890   5.955   5.357   1.624
 9309TIP3    H127891   5.954   5.411   1.545
 9309TIP3    H227892   5.951   5.267   1.591
 9310TIP3   OH227893   6.465   0.575   1.955
 9310TIP3    H127894   6.382   0.531   1.974
 9310TIP3    H227895   6.446   0.668   1.965
 9311TIP3   OH227896   0.789   2.502   4.463
 9311TIP3    H127897   0.780   2.412   4.493
 9311TIP3    H227898   0.726   2.509   4.391
 9312TIP3   OH227899   2.346   4.856   4.166
 9312TIP3    H127900   2.308   4.942   4.185
 9312TIP3    H227901   2.380   4.826   4.251
 9313TIP3   OH227902   4.687   5.901   1.466
 9313TIP3    H127903   4.624   5.931   1.400
 9313TIP3    H227904   4.773   5.918   1.426
 9314TIP3   OH227905   4.445   3.044   0.323
 9314TIP3    H127906   4.509   3.074   0.258
 9314TIP3    H227907   4.427   2.953   0.299
 9315TIP3   OH227908   5.369   6.453   0.221
 9315TIP3    H127909   5.404   6.481   0.137
 9315TIP3    H227910   5.310   6.524   0.247
 9316TIP3   OH227911   0.123   2.344   1.606
 9316TIP3    H127912   0.038   2.362   1.646
 9316TIP3    H227913   0.114   2.373   1.515
 9317TIP3   OH227914   2.174   1.245   3.080
 9317TIP3    H127915   2.115   1.171   3.097
 9317TIP3    H227916   2.178   1.251   2.984
 9318TIP3   OH227917   6.258   1.397   5.247
 9318TIP3    H127918   6.292   1.457   5.181
 9318TIP3    H227919   6.197   1.450   5.298
 9319TIP3   OH227920   1.983   3.334   0.412
 9319TIP3    H127921   2.032   3.253   0.396
 9319TIP3    H227922   1.912   3.331   0.348
 9320TIP3   OH227923   0.291   1.856   0.203
 9320TIP3    H127924   0.356   1.852   0.274
 9320TIP3    H227925   0.336   1.818   0.128
 9321TIP3   OH227926   0.646   5.893   4.887
 9321TIP3    H127927   0.570   5.852   4.845
 9321TIP3    H227928   0.609   5.942   4.960
 9322TIP3   OH227929   4.179   2.940   3.064
 9322TIP3    H127930   4.231   3.014   3.032
 9322TIP3    H227931   4.141   2.901   2.986
 9323TIP3   OH227932   0.410   3.934   4.277
 9323TIP3    H127933   0.420   4.027   4.297
 9323TIP3    H227934   0.320   3.925   4.248
 9324TIP3   OH227935   0.726   3.020   3.599
 9324TIP3    H127936   0.668   3.074   3.546
 9324TIP3    H227937   0.671   2.989   3.670
 9325TIP3   OH227938   6.875   6.615   1.249
 9325TIP3    H127939   6.795   6.654   1.284
 9325TIP3    H227940   6.857   6.521   1.248
 9326TIP3   OH227941   0.550   1.609   1.764
 9326TIP3    H127942   0.554   1.674   1.834
 9326TIP3    H227943   0.483   1.643   1.704
 9327TIP3   OH227944   0.521   5.087   1.455
 9327TIP3    H127945   0.579   5.060   1.383
 9327TIP3    H227946   0.471   5.159   1.419
 9328TIP3   OH227947   6.218   3.435   3.707
 9328TIP3    H127948   6.301   3.403   3.672
 9328TIP3    H227949   6.230   3.431   3.802
 9329TIP3   OH227950   2.370   1.223   4.771
 9329TIP3    H127951   2.453   1.176   4.778
 9329TIP3    H227952   2.304   1.155   4.783
 9330TIP3   OH227953   2.850   6.097   4.470
 9330TIP3    H127954   2.788   6.170   4.473
 9330TIP3    H227955   2.933   6.136   4.443
 9331TIP3   OH227956   3.367   5.398   0.992
 9331TIP3    H127957   3.283   5.411   1.037
 9331TIP3    H227958   3.355   5.441   0.907
 9332TIP3   OH227959   6.688   2.413   2.770
 9332TIP3    H127960   6.658   2.383   2.856
 9332TIP3    H227961   6.731   2.497   2.788
 9333TIP3   OH227962   3.778   5.420   1.939
 9333TIP3    H127963   3.830   5.406   1.860
 9333TIP3    H227964   3.722   5.494   1.918
 9334TIP3   OH227965   0.717   3.208   4.346
 9334TIP3    H127966   0.639   3.160   4.317
 9334TIP3    H227967   0.683   3.273   4.409
 9335TIP3   OH227968  -0.060   4.551   0.524
 9335TIP3    H127969  -0.031   4.511   0.606
 9335TIP3    H227970   0.019   4.556   0.470
 9336TIP3   OH227971   3.142   5.850   4.783
 9336TIP3    H127972   3.066   5.793   4.794
 9336TIP3    H227973   3.118   5.908   4.711
 9337TIP3   OH227974   1.447   1.260   5.079
 9337TIP3    H127975   1.428   1.188   5.139
 9337TIP3    H227976   1.507   1.316   5.128
 9338TIP3   OH227977   6.126   0.705   1.694
 9338TIP3    H127978   6.191   0.762   1.654
 9338TIP3    H227979   6.070   0.678   1.622
 9339TIP3   OH227980   6.343   3.104   0.895
 9339TIP3    H127981   6.321   3.060   0.977
 9339TIP3    H227982   6.396   3.179   0.922
 9340TIP3   OH227983   3.274   1.828   2.913
 9340TIP3    H127984   3.229   1.779   2.982
 9340TIP3    H227985   3.274   1.919   2.945
 9341TIP3   OH227986   2.906   4.310   1.047
 9341TIP3    H127987   2.820   4.296   1.087
 9341TIP3    H227988   2.901   4.262   0.964
 9342TIP3   OH227989   4.157   1.349   5.171
 9342TIP3    H127990   4.063   1.361   5.183
 9342TIP3    H227991   4.196   1.431   5.200
 9343TIP3   OH227992   3.549   1.795   1.339
 9343TIP3    H127993   3.581   1.707   1.317
 9343TIP3    H227994   3.472   1.806   1.283
 9344TIP3   OH227995   1.981   1.596   0.224
 9344TIP3    H127996   1.962   1.662   0.157
 9344TIP3    H227997   2.070   1.616   0.253
 9345TIP3   OH227998   0.165   4.970   3.667
 9345TIP3    H127999   0.224   5.046   3.662
 9345TIP3    H228000   0.088   4.997   3.618
 9346TIP3   OH228001   3.264   0.349   2.505
 9346TIP3    H128002   3.235   0.258   2.492
 9346TIP3    H228003   3.298   0.350   2.595
 9347TIP3   OH228004   0.869   5.926   1.458
 9347TIP3    H128005   0.876   5.869   1.381
 9347TIP3    H228006   0.845   6.011   1.421
 9348TIP3   OH228007   0.297   1.234   4.520
 9348TIP3    H128008   0.376   1.245   4.572
 9348TIP3    H228009   0.265   1.146   4.542
 9349TIP3   OH228010   5.722   2.865   0.085
 9349TIP3    H128011   5.753   2.956   0.094
 9349TIP3    H228012   5.737   2.827   0.172
 9350TIP3   OH228013   2.711   0.829   3.712
 9350TIP3    H128014   2.630   0.879   3.704
 9350TIP3    H228015   2.774   0.876   3.658
 9351TIP3   OH228016   5.761   0.044   4.384
 9351TIP3    H128017   5.803   0.085   4.459
 9351TIP3    H228018   5.777  -0.050   4.396
 9352TIP3   OH228019   4.892   1.584   0.598
 9352TIP3    H128020   4.903   1.629   0.682
 9352TIP3    H228021   4.963   1.618   0.543
 9353TIP3   OH228022   0.535   1.904   5.206
 9353TIP3    H128023   0.567   1.953   5.282
 9353TIP3    H228024   0.539   1.812   5.234
 9354TIP3   OH228025   5.857   1.284   5.013
 9354TIP3    H128026   5.922   1.227   4.974
 9354TIP3    H228027   5.805   1.226   5.069
 9355TIP3   OH228028   3.028   0.090   2.809
 9355TIP3    H128029   3.099   0.134   2.856
 9355TIP3    H228030   2.978   0.045   2.877
 9356TIP3   OH228031   1.538   0.369   3.957
 9356TIP3    H128032   1.479   0.395   3.886
 9356TIP3    H228033   1.509   0.421   4.032
 9357TIP3   OH228034   3.279   2.868   1.651
 9357TIP3    H128035   3.316   2.912   1.728
 9357TIP3    H228036   3.307   2.921   1.577
 9358TIP3   OH228037   0.886   2.018   2.260
 9358TIP3    H128038   0.925   2.098   2.293
 9358TIP3    H228039   0.956   1.953   2.264
 9359TIP3   OH228040   2.007   6.293   1.503
 9359TIP3    H128041   2.042   6.360   1.444
 9359TIP3    H228042   1.926   6.263   1.462
 9360TIP3   OH228043   3.618   3.289   3.259
 9360TIP3    H128044   3.544   3.263   3.313
 9360TIP3    H228045   3.588   3.276   3.169
 9361TIP3   OH228046   1.174   3.832   1.803
 9361TIP3    H128047   1.257   3.850   1.848
 9361TIP3    H228048   1.119   3.791   1.870
 9362TIP3   OH228049   2.033   2.935   0.096
 9362TIP3    H128050   2.126   2.914   0.104
 9362TIP3    H228051   1.988   2.865   0.143
 9363TIP3   OH228052   0.614   6.237   2.391
 9363TIP3    H128053   0.526   6.251   2.356
 9363TIP3    H228054   0.616   6.144   2.413
 9364TIP3   OH228055   1.915   0.626   4.874
 9364TIP3    H128056   1.859   0.700   4.851
 9364TIP3    H228057   1.999   0.645   4.832
 9365TIP3   OH228058   1.380   2.768   0.634
 9365TIP3    H128059   1.427   2.850   0.648
 9365TIP3    H228060   1.410   2.711   0.705
 9366TIP3   OH228061   1.426   3.473   3.406
 9366TIP3    H128062   1.466   3.548   3.450
 9366TIP3    H228063   1.347   3.509   3.366
 9367TIP3   OH228064   2.671   0.408   2.609
 9367TIP3    H128065   2.748   0.351   2.603
 9367TIP3    H228066   2.688   0.463   2.686
 9368TIP3   OH228067   3.789   2.660   0.434
 9368TIP3    H128068   3.732   2.713   0.490
 9368TIP3    H228069   3.729   2.600   0.389
 9369TIP3   OH228070   1.857   4.582   3.726
 9369TIP3    H128071   1.807   4.521   3.780
 9369TIP3    H228072   1.815   4.667   3.740
 9370TIP3   OH228073   2.046   1.025   3.124
 9370TIP3    H128074   1.977   1.003   3.187
 9370TIP3    H228075   2.126   0.988   3.162
 9371TIP3   OH228076   0.282   4.829   4.400
 9371TIP3    H128077   0.307   4.744   4.436
 9371TIP3    H228078   0.350   4.889   4.429
 9372TIP3   OH228079   5.427   3.523   2.783
 9372TIP3    H128080   5.334   3.502   2.792
 9372TIP3    H228081   5.473   3.449   2.823
 9373TIP3   OH228082   1.745   3.656   5.643
 9373TIP3    H128083   1.791   3.690   5.720
 9373TIP3    H228084   1.693   3.730   5.611
 9374TIP3   OH228085   3.358   2.564   0.458
 9374TIP3    H128086   3.277   2.603   0.427
 9374TIP3    H228087   3.386   2.507   0.387
 9375TIP3   OH228088   3.732   4.764   4.051
 9375TIP3    H128089   3.822   4.733   4.055
 9375TIP3    H228090   3.683   4.702   4.105
 9376TIP3   OH228091   6.898   1.148   0.031
 9376TIP3    H128092   6.931   1.202  -0.041
 9376TIP3    H228093   6.865   1.211   0.095
 9377TIP3   OH228094   4.036   3.305   0.920
 9377TIP3    H128095   4.055   3.319   0.828
 9377TIP3    H228096   4.090   3.229   0.945
 9378TIP3   OH228097   6.983   1.195   5.009
 9378TIP3    H128098   7.005   1.233   5.094
 9378TIP3    H228099   7.043   1.237   4.948
 9379TIP3   OH228100   0.225   1.372   5.028
 9379TIP3    H128101   0.278   1.305   4.986
 9379TIP3    H228102   0.285   1.414   5.091
 9380TIP3   OH228103   5.908   3.550   1.513
 9380TIP3    H128104   5.972   3.482   1.492
 9380TIP3    H228105   5.894   3.597   1.430
 9381TIP3   OH228106   0.258   6.302   3.735
 9381TIP3    H128107   0.237   6.227   3.791
 9381TIP3    H228108   0.305   6.264   3.661
 9382TIP3   OH228109   5.382   4.626   1.920
 9382TIP3    H128110   5.296   4.667   1.926
 9382TIP3    H228111   5.381   4.581   1.836
 9383TIP3   OH228112   2.369   5.156   1.149
 9383TIP3    H128113   2.457   5.194   1.154
 9383TIP3    H228114   2.312   5.231   1.133
 9384TIP3   OH228115   4.501   3.865   3.442
 9384TIP3    H128116   4.461   3.802   3.381
 9384TIP3    H228117   4.594   3.863   3.421
 9385TIP3   OH228118   0.287   6.237   3.442
 9385TIP3    H128119   0.207   6.280   3.473
 9385TIP3    H228120   0.303   6.275   3.356
 9386TIP3   OH228121   6.577   5.296   3.873
 9386TIP3    H128122   6.504   5.353   3.895
 9386TIP3    H228123   6.539   5.209   3.864
 9387TIP3   OH228124   2.783   1.798   0.469
 9387TIP3    H128125   2.807   1.869   0.528
 9387TIP3    H228126   2.704   1.830   0.425
 9388TIP3   OH228127   3.361   0.112   5.382
 9388TIP3    H128128   3.275   0.130   5.419
 9388TIP3    H228129   3.360   0.019   5.360
 9389TIP3   OH228130   2.975   4.211   4.064
 9389TIP3    H128131   2.903   4.255   4.020
 9389TIP3    H228132   2.997   4.268   4.137
 9390TIP3   OH228133   0.660   3.401   4.573
 9390TIP3    H128134   0.576   3.380   4.613
 9390TIP3    H228135   0.677   3.492   4.600
 9391TIP3   OH228136   7.138   2.425   1.783
 9391TIP3    H128137   7.048   2.413   1.754
 9391TIP3    H228138   7.133   2.485   1.857
 9392TIP3   OH228139   3.178   0.201   3.948
 9392TIP3    H128140   3.090   0.174   3.974
 9392TIP3    H228141   3.190   0.286   3.991
 9393TIP3   OH228142   3.198   6.416   2.430
 9393TIP3    H128143   3.227   6.501   2.398
 9393TIP3    H228144   3.205   6.422   2.526
 9394TIP3   OH228145   5.989   5.880   2.375
 9394TIP3    H128146   6.010   5.958   2.323
 9394TIP3    H228147   6.062   5.820   2.360
 9395TIP3   OH228148   2.843   2.990   2.326
 9395TIP3    H128149   2.782   3.031   2.388
 9395TIP3    H228150   2.895   2.930   2.380
 9396TIP3   OH228151   6.479   1.431   2.340
 9396TIP3    H128152   6.496   1.387   2.424
 9396TIP3    H228153   6.541   1.392   2.279
 9397TIP3   OH228154   2.029   3.776   2.415
 9397TIP3    H128155   2.091   3.841   2.382
 9397TIP3    H228156   1.975   3.752   2.340
 9398TIP3   OH228157   4.927   5.691   2.250
 9398TIP3    H128158   4.978   5.623   2.206
 9398TIP3    H228159   4.849   5.702   2.196
 9399TIP3   OH228160   4.912   6.032   1.869
 9399TIP3    H128161   4.839   6.064   1.816
 9399TIP3    H228162   4.978   6.101   1.864
 9400TIP3   OH228163   6.488   6.175   4.023
 9400TIP3    H128164   6.492   6.221   3.939
 9400TIP3    H228165   6.549   6.102   4.013
 9401TIP3   OH228166   0.661   3.303   0.525
 9401TIP3    H128167   0.752   3.274   0.536
 9401TIP3    H228168   0.646   3.298   0.431
 9402TIP3   OH228169   0.906   2.916   1.275
 9402TIP3    H128170   0.993   2.892   1.242
 9402TIP3    H228171   0.857   2.834   1.276
 9403TIP3   OH228172   1.270   0.324   0.660
 9403TIP3    H128173   1.225   0.260   0.714
 9403TIP3    H228174   1.255   0.408   0.704
 9404TIP3   OH228175  -0.029   6.342   3.100
 9404TIP3    H128176  -0.060   6.256   3.130
 9404TIP3    H228177  -0.038   6.339   3.005
 9405TIP3   OH228178   0.296   0.093   4.084
 9405TIP3    H128179   0.300   0.102   3.989
 9405TIP3    H228180   0.331   0.176   4.118
 9406TIP3   OH228181   5.948   0.526   3.265
 9406TIP3    H128182   6.017   0.517   3.199
 9406TIP3    H228183   5.972   0.604   3.314
 9407TIP3   OH228184   4.281   2.547   4.466
 9407TIP3    H128185   4.278   2.558   4.561
 9407TIP3    H228186   4.342   2.614   4.435
 9408TIP3   OH228187   0.202   0.295   1.084
 9408TIP3    H128188   0.136   0.254   1.139
 9408TIP3    H228189   0.243   0.222   1.037
 9409TIP3   OH228190   5.367   4.441   5.368
 9409TIP3    H128191   5.434   4.450   5.436
 9409TIP3    H228192   5.392   4.505   5.301
 9410TIP3   OH228193   3.134   1.745   2.397
 9410TIP3    H128194   3.039   1.756   2.392
 9410TIP3    H228195   3.156   1.761   2.489
 9411TIP3   OH228196   4.915   6.351   0.947
 9411TIP3    H128197   4.982   6.290   0.978
 9411TIP3    H228198   4.833   6.316   0.980
 9412TIP3   OH228199   6.173   0.492   2.871
 9412TIP3    H128200   6.085   0.528   2.882
 9412TIP3    H228201   6.182   0.430   2.943
 9413TIP3   OH228202   4.900   6.745   3.244
 9413TIP3    H128203   4.833   6.718   3.181
 9413TIP3    H228204   4.876   6.699   3.325
 9414TIP3   OH228205   2.445   2.159   5.364
 9414TIP3    H128206   2.427   2.195   5.277
 9414TIP3    H228207   2.382   2.088   5.374
 9415TIP3   OH228208   3.385   3.813   3.447
 9415TIP3    H128209   3.440   3.866   3.390
 9415TIP3    H228210   3.298   3.817   3.407
 9416TIP3   OH228211   2.946   4.140   2.306
 9416TIP3    H128212   3.032   4.179   2.325
 9416TIP3    H228213   2.923   4.094   2.387
 9417TIP3   OH228214   3.387   2.719   3.464
 9417TIP3    H128215   3.338   2.665   3.403
 9417TIP3    H228216   3.362   2.686   3.551
 9418TIP3   OH228217   1.188   5.940   0.944
 9418TIP3    H128218   1.258   5.970   0.885
 9418TIP3    H228219   1.132   5.885   0.889
 9419TIP3   OH228220   7.038   2.726   4.817
 9419TIP3    H128221   7.110   2.771   4.774
 9419TIP3    H228222   7.070   2.707   4.905
 9420TIP3   OH228223   4.778   4.088   0.412
 9420TIP3    H128224   4.873   4.101   0.410
 9420TIP3    H228225   4.745   4.144   0.342
 9421TIP3   OH228226   1.751   2.445   0.799
 9421TIP3    H128227   1.809   2.396   0.857
 9421TIP3    H228228   1.802   2.456   0.719
 9422TIP3   OH228229   5.240   6.362   1.883
 9422TIP3    H128230   5.146   6.379   1.882
 9422TIP3    H228231   5.261   6.333   1.794
 9423TIP3   OH228232   1.264   5.943   2.998
 9423TIP3    H128233   1.293   5.905   2.915
 9423TIP3    H228234   1.299   6.031   2.998
 9424TIP3   OH228235   3.299   3.053   5.151
 9424TIP3    H128236   3.266   2.994   5.218
 9424TIP3    H228237   3.318   3.135   5.197
 9425TIP3   OH228238   4.935   3.173   0.947
 9425TIP3    H128239   4.983   3.255   0.958
 9425TIP3    H228240   5.002   3.108   0.928
 9426TIP3   OH228241   6.416   1.668   5.423
 9426TIP3    H128242   6.507   1.693   5.407
 9426TIP3    H228243   6.374   1.670   5.337
 9427TIP3   OH228244   4.611   0.257   0.116
 9427TIP3    H128245   4.626   0.237   0.024
 9427TIP3    H228246   4.683   0.316   0.139
 9428TIP3   OH228247   0.611   6.458   1.006
 9428TIP3    H128248   0.702   6.466   0.977
 9428TIP3    H228249   0.577   6.547   1.002
 9429TIP3   OH228250   0.461   3.150   2.071
 9429TIP3    H128251   0.532   3.140   2.007
 9429TIP3    H228252   0.440   3.060   2.096
 9430TIP3   OH228253   3.490   5.998   4.966
 9430TIP3    H128254   3.416   5.977   5.023
 9430TIP3    H228255   3.451   6.042   4.891
 9431TIP3   OH228256   3.081   4.367   3.559
 9431TIP3    H128257   3.171   4.382   3.588
 9431TIP3    H228258   3.027   4.397   3.632
 9432TIP3   OH228259   6.182   3.683   0.367
 9432TIP3    H128260   6.120   3.743   0.408
 9432TIP3    H228261   6.195   3.717   0.279
 9433TIP3   OH228262   3.359   2.634   5.495
 9433TIP3    H128263   3.295   2.669   5.558
 9433TIP3    H228264   3.424   2.590   5.550
 9434TIP3   OH228265   0.412   5.297   4.309
 9434TIP3    H128266   0.325   5.292   4.348
 9434TIP3    H228267   0.442   5.387   4.328
 9435TIP3   OH228268   1.797   4.284   3.160
 9435TIP3    H128269   1.835   4.370   3.144
 9435TIP3    H228270   1.847   4.224   3.104
 9436TIP3   OH228271   0.984   3.513   0.561
 9436TIP3    H128272   0.931   3.567   0.620
 9436TIP3    H228273   1.058   3.484   0.614
 9437TIP3   OH228274   1.324   2.264   0.281
 9437TIP3    H128275   1.287   2.260   0.193
 9437TIP3    H228276   1.250   2.250   0.339
 9438TIP3   OH228277   3.401   0.162   4.961
 9438TIP3    H128278   3.374   0.105   4.889
 9438TIP3    H228279   3.318   0.193   4.999
 9439TIP3   OH228280   0.737   1.967   2.054
 9439TIP3    H128281   0.810   1.997   2.108
 9439TIP3    H228282   0.660   1.975   2.110
 9440TIP3   OH228283   2.728   6.357   3.161
 9440TIP3    H128284   2.821   6.376   3.172
 9440TIP3    H228285   2.698   6.333   3.248
 9441TIP3   OH228286   2.965   5.517   0.258
 9441TIP3    H128287   2.949   5.450   0.192
 9441TIP3    H228288   2.884   5.567   0.262
 9442TIP3   OH228289   0.084   4.711   0.912
 9442TIP3    H128290   0.173   4.680   0.931
 9442TIP3    H228291   0.037   4.701   0.994
 9443TIP3   OH228292   0.807   2.592   5.492
 9443TIP3    H128293   0.735   2.609   5.430
 9443TIP3    H228294   0.845   2.510   5.461
 9444TIP3   OH228295   5.805   0.434   0.456
 9444TIP3    H128296   5.872   0.367   0.448
 9444TIP3    H228297   5.846   0.504   0.508
 9445TIP3   OH228298   7.075   0.414   1.830
 9445TIP3    H128299   7.016   0.487   1.849
 9445TIP3    H228300   7.074   0.361   1.909
 9446TIP3   OH228301   3.307   5.990   4.071
 9446TIP3    H128302   3.282   6.052   4.140
 9446TIP3    H228303   3.224   5.962   4.033
 9447TIP3   OH228304   2.627   4.507   2.984
 9447TIP3    H128305   2.535   4.498   3.010
 9447TIP3    H228306   2.623   4.537   2.893
 9448TIP3   OH228307   5.855   2.028   2.356
 9448TIP3    H128308   5.795   2.029   2.430
 9448TIP3    H228309   5.872   2.121   2.337
 9449TIP3   OH228310   3.636   1.307   5.301
 9449TIP3    H128311   3.627   1.322   5.396
 9449TIP3    H228312   3.551   1.271   5.275
 9450TIP3   OH228313   6.475   1.310   4.054
 9450TIP3    H128314   6.413   1.365   4.102
 9450TIP3    H228315   6.502   1.364   3.980
 9451TIP3   OH228316   6.660   5.090   2.168
 9451TIP3    H128317   6.569   5.082   2.141
 9451TIP3    H228318   6.687   5.000   2.189
 9452TIP3   OH228319   4.714   1.743   5.219
 9452TIP3    H128320   4.757   1.784   5.294
 9452TIP3    H228321   4.723   1.649   5.234
 9453TIP3   OH228322   4.097   1.971   5.197
 9453TIP3    H128323   4.032   2.042   5.197
 9453TIP3    H228324   4.157   1.993   5.267
 9454TIP3   OH228325   7.088   0.880   4.290
 9454TIP3    H128326   7.100   0.934   4.211
 9454TIP3    H228327   7.000   0.844   4.281
 9455TIP3   OH228328   0.238   1.622   4.279
 9455TIP3    H128329   0.201   1.562   4.344
 9455TIP3    H228330   0.244   1.570   4.199
 9456TIP3   OH228331   6.040   5.033   1.586
 9456TIP3    H128332   6.015   5.025   1.494
 9456TIP3    H228333   6.135   5.026   1.585
 9457TIP3   OH228334   1.460   0.779   4.012
 9457TIP3    H128335   1.556   0.775   4.015
 9457TIP3    H228336   1.441   0.869   3.985
 9458TIP3   OH228337   3.461   1.247   0.187
 9458TIP3    H128338   3.392   1.275   0.127
 9458TIP3    H228339   3.535   1.225   0.130
 9459TIP3   OH228340   4.722   2.381   4.086
 9459TIP3    H128341   4.630   2.364   4.063
 9459TIP3    H228342   4.760   2.295   4.098
 9460TIP3   OH228343   2.329   4.330   3.334
 9460TIP3    H128344   2.333   4.234   3.334
 9460TIP3    H228345   2.382   4.356   3.409
 9461TIP3   OH228346   3.658   2.791   4.580
 9461TIP3    H128347   3.659   2.790   4.485
 9461TIP3    H228348   3.751   2.788   4.605
 9462TIP3   OH228349   4.873   0.305   1.070
 9462TIP3    H128350   4.820   0.334   0.996
 9462TIP3    H228351   4.873   0.379   1.130
 9463TIP3   OH228352   1.336   0.851   2.112
 9463TIP3    H128353   1.329   0.910   2.187
 9463TIP3    H228354   1.246   0.840   2.081
 9464TIP3   OH228355   2.994   0.592   2.750
 9464TIP3    H128356   3.011   0.545   2.669
 9464TIP3    H228357   3.073   0.578   2.803
 9465TIP3   OH228358   5.656   0.385   3.902
 9465TIP3    H128359   5.596   0.444   3.858
 9465TIP3    H228360   5.734   0.438   3.918
 9466TIP3   OH228361   0.879   5.830   2.938
 9466TIP3    H128362   0.796   5.827   2.986
 9466TIP3    H228363   0.906   5.738   2.931
 9467TIP3   OH228364   7.228   0.798   2.079
 9467TIP3    H128365   7.181   0.780   2.160
 9467TIP3    H228366   7.218   0.893   2.065
 9468TIP3   OH228367   5.420   0.547   2.417
 9468TIP3    H128368   5.497   0.590   2.381
 9468TIP3    H228369   5.428   0.557   2.512
 9469TIP3   OH228370   4.083   1.380   2.610
 9469TIP3    H128371   4.152   1.322   2.641
 9469TIP3    H228372   4.059   1.431   2.688
 9470TIP3   OH228373   3.923   1.896   5.847
 9470TIP3    H128374   3.852   1.924   5.789
 9470TIP3    H228375   3.884   1.826   5.899
 9471TIP3   OH228376   5.845   1.498   2.797
 9471TIP3    H128377   5.805   1.563   2.855
 9471TIP3    H228378   5.939   1.511   2.807
 9472TIP3   OH228379   0.279   3.065   0.833
 9472TIP3    H128380   0.230   3.096   0.757
 9472TIP3    H228381   0.279   2.970   0.825
 9473TIP3   OH228382   6.381   3.761   3.664
 9473TIP3    H128383   6.400   3.848   3.700
 9473TIP3    H228384   6.327   3.719   3.732
 9474TIP3   OH228385   0.375   3.773   2.078
 9474TIP3    H128386   0.376   3.692   2.128
 9474TIP3    H228387   0.309   3.827   2.123
 9475TIP3   OH228388   6.324   6.609   3.267
 9475TIP3    H128389   6.238   6.649   3.279
 9475TIP3    H228390   6.386   6.676   3.297
 9476TIP3   OH228391   0.978   2.937   5.476
 9476TIP3    H128392   0.901   2.892   5.509
 9476TIP3    H228393   1.051   2.900   5.527
 9477TIP3   OH228394   4.168   1.952   3.691
 9477TIP3    H128395   4.260   1.966   3.713
 9477TIP3    H228396   4.169   1.889   3.619
 9478TIP3   OH228397   1.261   1.694   2.863
 9478TIP3    H128398   1.286   1.737   2.781
 9478TIP3    H228399   1.336   1.707   2.921
 9479TIP3   OH228400   1.273   6.574   1.040
 9479TIP3    H128401   1.189   6.619   1.051
 9479TIP3    H228402   1.329   6.613   1.107
 9480TIP3   OH228403   5.916   5.550   2.365
 9480TIP3    H128404   5.975   5.527   2.293
 9480TIP3    H228405   5.974   5.588   2.432
 9481TIP3   OH228406   1.380   1.031   1.008
 9481TIP3    H128407   1.294   0.997   1.030
 9481TIP3    H228408   1.369   1.126   1.007
 9482TIP3   OH228409   2.075   4.911   5.952
 9482TIP3    H128410   2.163   4.876   5.943
 9482TIP3    H228411   2.036   4.901   5.865
 9483TIP3   OH228412   5.218   5.151   5.687
 9483TIP3    H128413   5.249   5.090   5.621
 9483TIP3    H228414   5.209   5.098   5.767
 9484TIP3   OH228415   3.000   2.731   2.070
 9484TIP3    H128416   2.909   2.731   2.099
 9484TIP3    H228417   3.034   2.816   2.098
 9485TIP3   OH228418   3.534   2.852   2.528
 9485TIP3    H128419   3.553   2.945   2.511
 9485TIP3    H228420   3.588   2.805   2.465
 9486TIP3   OH228421   2.852   3.952   1.221
 9486TIP3    H128422   2.832   3.963   1.128
 9486TIP3    H228423   2.844   4.040   1.258
 9487TIP3   OH228424   2.247   6.511   0.703
 9487TIP3    H128425   2.259   6.418   0.683
 9487TIP3    H228426   2.199   6.546   0.628
 9488TIP3   OH228427   3.226   0.212   0.730
 9488TIP3    H128428   3.179   0.233   0.811
 9488TIP3    H228429   3.156   0.192   0.667
 9489TIP3   OH228430   2.529   6.486   1.830
 9489TIP3    H128431   2.504   6.403   1.790
 9489TIP3    H228432   2.475   6.492   1.909
 9490TIP3   OH228433   6.690   6.672   3.128
 9490TIP3    H128434   6.596   6.656   3.134
 9490TIP3    H228435   6.699   6.767   3.129
 9491TIP3   OH228436   6.077   6.819   4.949
 9491TIP3    H128437   6.063   6.798   4.856
 9491TIP3    H228438   6.139   6.752   4.979
 9492TIP3   OH228439   5.938   3.504   2.220
 9492TIP3    H128440   5.959   3.538   2.133
 9492TIP3    H228441   5.913   3.582   2.271
 9493TIP3   OH228442   3.738   2.642   3.616
 9493TIP3    H128443   3.691   2.572   3.663
 9493TIP3    H228444   3.827   2.638   3.650
 9494TIP3   OH228445   0.824   6.451  -0.010
 9494TIP3    H128446   0.790   6.527   0.038
 9494TIP3    H228447   0.866   6.397   0.058
 9495TIP3   OH228448   0.480   4.333   1.112
 9495TIP3    H128449   0.415   4.266   1.135
 9495TIP3    H228450   0.502   4.314   1.020
 9496TIP3   OH228451   6.249   0.243   3.341
 9496TIP3    H128452   6.316   0.223   3.275
 9496TIP3    H228453   6.253   0.169   3.402
 9497TIP3   OH228454   1.132   0.752   1.946
 9497TIP3    H128455   1.072   0.750   1.871
 9497TIP3    H228456   1.161   0.662   1.956
 9498TIP3   OH228457   3.562   5.254   0.369
 9498TIP3    H128458   3.525   5.213   0.291
 9498TIP3    H228459   3.556   5.186   0.436
 9499TIP3   OH228460   5.928   0.750   4.443
 9499TIP3    H128461   5.985   0.694   4.496
 9499TIP3    H228462   5.952   0.839   4.467
 9500TIP3   OH228463   3.640   5.886   5.823
 9500TIP3    H128464   3.720   5.939   5.829
 9500TIP3    H228465   3.589   5.911   5.900
 9501TIP3   OH228466   0.854   5.313   3.998
 9501TIP3    H128467   0.915   5.384   3.983
 9501TIP3    H228468   0.909   5.236   4.015
 9502TIP3   OH228469   4.076   4.475   5.621
 9502TIP3    H128470   4.158   4.429   5.604
 9502TIP3    H228471   4.041   4.432   5.699
 9503TIP3   OH228472   3.554   6.017   5.289
 9503TIP3    H128473   3.554   5.930   5.331
 9503TIP3    H228474   3.461   6.040   5.283
 9504TIP3   OH228475   0.475   1.449   4.673
 9504TIP3    H128476   0.564   1.415   4.676
 9504TIP3    H228477   0.472   1.503   4.595
 9505TIP3   OH228478   2.128   2.273   2.731
 9505TIP3    H128479   2.102   2.194   2.778
 9505TIP3    H228480   2.085   2.344   2.779
 9506TIP3   OH228481   1.755   6.366   4.952
 9506TIP3    H128482   1.740   6.459   4.965
 9506TIP3    H228483   1.711   6.324   5.026
 9507TIP3   OH228484   1.628   5.213   3.673
 9507TIP3    H128485   1.552   5.213   3.615
 9507TIP3    H228486   1.678   5.136   3.647
 9508TIP3   OH228487   6.265   2.700   2.000
 9508TIP3    H128488   6.173   2.673   2.003
 9508TIP3    H228489   6.314   2.619   1.988
 9509TIP3   OH228490   0.939   3.280   0.121
 9509TIP3    H128491   0.967   3.297   0.211
 9509TIP3    H228492   0.843   3.282   0.125
 9510TIP3   OH228493   3.813   3.796   5.360
 9510TIP3    H128494   3.904   3.819   5.341
 9510TIP3    H228495   3.814   3.770   5.452
 9511TIP3   OH228496   2.461   5.242   2.381
 9511TIP3    H128497   2.428   5.307   2.318
 9511TIP3    H228498   2.544   5.212   2.342
 9512TIP3   OH228499   2.945   3.508   1.351
 9512TIP3    H128500   2.871   3.569   1.356
 9512TIP3    H228501   3.013   3.548   1.407
 9513TIP3   OH228502   6.202   6.519   5.215
 9513TIP3    H128503   6.153   6.472   5.282
 9513TIP3    H228504   6.253   6.585   5.263
 9514TIP3   OH228505   3.825   5.598   3.977
 9514TIP3    H128506   3.846   5.681   3.934
 9514TIP3    H228507   3.842   5.615   4.070
 9515TIP3   OH228508   3.824   2.477   2.663
 9515TIP3    H128509   3.852   2.457   2.574
 9515TIP3    H228510   3.731   2.498   2.655
 9516TIP3   OH228511   6.536   4.079   4.961
 9516TIP3    H128512   6.538   4.159   4.909
 9516TIP3    H228513   6.543   4.008   4.896
 9517TIP3   OH228514   2.921   6.334   5.326
 9517TIP3    H128515   2.923   6.301   5.416
 9517TIP3    H228516   3.003   6.304   5.287
 9518TIP3   OH228517   4.740   2.316   5.025
 9518TIP3    H128518   4.722   2.226   4.996
 9518TIP3    H228519   4.820   2.340   4.978
 9519TIP3   OH228520   0.963   0.500   5.640
 9519TIP3    H128521   0.878   0.462   5.619
 9519TIP3    H228522   1.020   0.472   5.567
 9520TIP3   OH228523   0.718   3.215   5.603
 9520TIP3    H128524   0.641   3.177   5.560
 9520TIP3    H228525   0.787   3.150   5.591
 9521TIP3   OH228526   4.844   2.916   4.659
 9521TIP3    H128527   4.920   2.961   4.623
 9521TIP3    H228528   4.816   2.970   4.733
 9522TIP3   OH228529   5.615   4.189   1.428
 9522TIP3    H128530   5.544   4.130   1.455
 9522TIP3    H228531   5.572   4.274   1.417
 9523TIP3   OH228532   0.571   3.910   3.533
 9523TIP3    H128533   0.513   3.918   3.608
 9523TIP3    H228534   0.569   3.816   3.511
 9524TIP3   OH228535   6.630   2.650   2.285
 9524TIP3    H128536   6.636   2.702   2.205
 9524TIP3    H228537   6.545   2.673   2.323
 9525TIP3   OH228538   0.628   6.625   0.553
 9525TIP3    H128539   0.533   6.623   0.562
 9525TIP3    H228540   0.661   6.635   0.643
 9526TIP3   OH228541   2.245   2.280   3.383
 9526TIP3    H128542   2.265   2.373   3.396
 9526TIP3    H228543   2.152   2.278   3.362
 9527TIP3   OH228544   0.293   4.204   2.651
 9527TIP3    H128545   0.345   4.272   2.607
 9527TIP3    H228546   0.213   4.197   2.600
 9528TIP3   OH228547   5.680   6.638   5.197
 9528TIP3    H128548   5.684   6.691   5.117
 9528TIP3    H228549   5.749   6.572   5.185
 9529TIP3   OH228550   1.295   1.286   5.639
 9529TIP3    H128551   1.381   1.247   5.621
 9529TIP3    H228552   1.264   1.242   5.718
 9530TIP3   OH228553   6.505   5.692   0.388
 9530TIP3    H128554   6.414   5.661   0.391
 9530TIP3    H228555   6.529   5.687   0.296
 9531TIP3   OH228556   7.056   6.114   3.242
 9531TIP3    H128557   7.028   6.098   3.332
 9531TIP3    H228558   7.022   6.039   3.192
 9532TIP3   OH228559   5.462   3.870   0.915
 9532TIP3    H128560   5.440   3.911   0.999
 9532TIP3    H228561   5.557   3.881   0.908
 9533TIP3   OH228562   3.979   4.515   4.083
 9533TIP3    H128563   3.922   4.438   4.082
 9533TIP3    H228564   4.005   4.526   3.991
 9534TIP3   OH228565   1.438   2.699   5.005
 9534TIP3    H128566   1.381   2.755   5.058
 9534TIP3    H228567   1.518   2.750   4.994
 9535TIP3   OH228568   3.954   2.470   2.344
 9535TIP3    H128569   3.860   2.461   2.326
 9535TIP3    H228570   3.989   2.381   2.333
 9536TIP3   OH228571   2.478   6.575   3.526
 9536TIP3    H128572   2.430   6.577   3.443
 9536TIP3    H228573   2.456   6.489   3.564
 9537TIP3   OH228574   2.636   3.048   1.083
 9537TIP3    H128575   2.615   3.118   1.021
 9537TIP3    H228576   2.616   3.085   1.169
 9538TIP3   OH228577   6.250   5.922   1.549
 9538TIP3    H128578   6.281   5.987   1.612
 9538TIP3    H228579   6.277   5.957   1.464
 9539TIP3   OH228580   0.303   3.234   1.329
 9539TIP3    H128581   0.221   3.202   1.368
 9539TIP3    H228582   0.332   3.162   1.273
 9540TIP3   OH228583   6.892   0.445   5.345
 9540TIP3    H128584   6.930   0.360   5.365
 9540TIP3    H228585   6.964   0.495   5.308
 9541TIP3   OH228586   5.340   4.944   3.324
 9541TIP3    H128587   5.281   4.997   3.270
 9541TIP3    H228588   5.428   4.976   3.301
 9542TIP3   OH228589   4.447   1.175   0.731
 9542TIP3    H128590   4.445   1.103   0.668
 9542TIP3    H228591   4.462   1.253   0.678
 9543TIP3   OH228592   6.946   5.878   3.469
 9543TIP3    H128593   6.921   5.827   3.392
 9543TIP3    H228594   6.922   5.968   3.448
 9544TIP3   OH228595   4.053   5.836   0.626
 9544TIP3    H128596   3.963   5.836   0.594
 9544TIP3    H228597   4.089   5.752   0.597
 9545TIP3   OH228598   4.232   0.179   1.579
 9545TIP3    H128599   4.157   0.239   1.589
 9545TIP3    H228600   4.205   0.118   1.511
 9546TIP3   OH228601   4.185   0.674   2.738
 9546TIP3    H128602   4.144   0.676   2.824
 9546TIP3    H228603   4.118   0.706   2.678
 9547TIP3   OH228604   1.981   3.153   1.480
 9547TIP3    H128605   2.012   3.225   1.535
 9547TIP3    H228606   1.969   3.080   1.541
 9548TIP3   OH228607   3.292   3.729   2.738
 9548TIP3    H128608   3.270   3.636   2.727
 9548TIP3    H228609   3.217   3.776   2.701
 9549TIP3   OH228610   2.895   2.712   0.972
 9549TIP3    H128611   2.875   2.753   0.887
 9549TIP3    H228612   2.987   2.735   0.988
 9550TIP3   OH228613   5.802   6.384   5.216
 9550TIP3    H128614   5.720   6.339   5.197
 9550TIP3    H228615   5.839   6.337   5.291
 9551TIP3   OH228616   0.674   1.751   1.202
 9551TIP3    H128617   0.732   1.759   1.126
 9551TIP3    H228618   0.659   1.841   1.230
 9552TIP3   OH228619   2.720   6.586   5.403
 9552TIP3    H128620   2.806   6.625   5.415
 9552TIP3    H228621   2.672   6.649   5.349
 9553TIP3   OH228622   2.367   2.645   0.654
 9553TIP3    H128623   2.419   2.634   0.733
 9553TIP3    H228624   2.344   2.556   0.628
 9554TIP3   OH228625   5.853   4.102   1.167
 9554TIP3    H128626   5.845   4.170   1.234
 9554TIP3    H228627   5.922   4.044   1.200
 9555TIP3   OH228628   5.219   1.957   2.455
 9555TIP3    H128629   5.243   1.928   2.543
 9555TIP3    H228630   5.303   1.973   2.412
 9556TIP3   OH228631   6.104   0.220   0.607
 9556TIP3    H128632   6.059   0.168   0.674
 9556TIP3    H228633   6.047   0.214   0.530
 9557TIP3   OH228634   2.348   0.319   2.074
 9557TIP3    H128635   2.388   0.354   2.154
 9557TIP3    H228636   2.290   0.388   2.044
 9558TIP3   OH228637   4.171   1.507   0.511
 9558TIP3    H128638   4.109   1.434   0.506
 9558TIP3    H228639   4.220   1.492   0.592
 9559TIP3   OH228640   7.201   1.533   0.655
 9559TIP3    H128641   7.282   1.560   0.613
 9559TIP3    H228642   7.135   1.538   0.586
 9560TIP3   OH228643   0.154   5.641   2.765
 9560TIP3    H128644   0.121   5.562   2.809
 9560TIP3    H228645   0.110   5.640   2.679
 9561TIP3   OH228646   0.200   2.100   3.364
 9561TIP3    H128647   0.145   2.034   3.322
 9561TIP3    H228648   0.268   2.120   3.300
 9562TIP3   OH228649   4.091   4.497   4.998
 9562TIP3    H128650   4.092   4.542   4.914
 9562TIP3    H228651   4.034   4.421   4.984
 9563TIP3   OH228652   5.014   3.623   2.667
 9563TIP3    H128653   4.958   3.673   2.725
 9563TIP3    H228654   5.077   3.580   2.725
 9564TIP3   OH228655   5.337   1.269   4.972
 9564TIP3    H128656   5.342   1.176   4.993
 9564TIP3    H228657   5.244   1.290   4.977
 9565TIP3   OH228658   3.930   6.022   2.915
 9565TIP3    H128659   3.863   6.053   2.976
 9565TIP3    H228660   3.881   5.981   2.844
 9566TIP3   OH228661   0.422   2.902   5.482
 9566TIP3    H128662   0.459   2.849   5.552
 9566TIP3    H228663   0.497   2.949   5.444
 9567TIP3   OH228664   4.056   2.315   0.952
 9567TIP3    H128665   4.013   2.334   0.869
 9567TIP3    H228666   4.052   2.220   0.960
 9568TIP3   OH228667   3.242   4.033   3.075
 9568TIP3    H128668   3.328   4.048   3.037
 9568TIP3    H228669   3.195   3.981   3.009
 9569TIP3   OH228670   0.923   0.676   3.996
 9569TIP3    H128671   0.892   0.754   3.949
 9569TIP3    H228672   0.843   0.638   4.034
 9570TIP3   OH228673   0.911   6.270   3.656
 9570TIP3    H128674   0.967   6.194   3.674
 9570TIP3    H228675   0.882   6.257   3.565
 9571TIP3   OH228676   5.184   5.767   3.034
 9571TIP3    H128677   5.139   5.828   2.977
 9571TIP3    H228678   5.136   5.685   3.025
 9572TIP3   OH228679   6.894   4.351   1.099
 9572TIP3    H128680   6.833   4.299   1.151
 9572TIP3    H228681   6.914   4.426   1.154
 9573TIP3   OH228682   0.196   1.480   4.051
 9573TIP3    H128683   0.121   1.423   4.068
 9573TIP3    H228684   0.211   1.472   3.957
 9574TIP3   OH228685   6.025   5.834   3.016
 9574TIP3    H128686   5.951   5.786   3.054
 9574TIP3    H228687   6.015   5.823   2.922
 9575TIP3   OH228688   4.795   2.051   2.456
 9575TIP3    H128689   4.773   1.967   2.416
 9575TIP3    H228690   4.891   2.053   2.455
 9576TIP3   OH228691   1.616   6.327   4.090
 9576TIP3    H128692   1.624   6.371   4.175
 9576TIP3    H228693   1.631   6.397   4.026
 9577TIP3   OH228694   1.241   1.209   2.048
 9577TIP3    H128695   1.236   1.257   1.965
 9577TIP3    H228696   1.149   1.194   2.072
 9578TIP3   OH228697   0.437   5.160   4.075
 9578TIP3    H128698   0.393   5.075   4.089
 9578TIP3    H228699   0.427   5.206   4.158
 9579TIP3   OH228700   3.468   1.826   4.228
 9579TIP3    H128701   3.500   1.737   4.213
 9579TIP3    H228702   3.529   1.864   4.291
 9580TIP3   OH228703   1.488   3.193   4.366
 9580TIP3    H128704   1.578   3.225   4.376
 9580TIP3    H228705   1.486   3.158   4.277
 9581TIP3   OH228706   1.937   5.848   1.761
 9581TIP3    H128707   1.925   5.755   1.744
 9581TIP3    H228708   1.971   5.852   1.850
 9582TIP3   OH228709   4.804   3.158   3.914
 9582TIP3    H128710   4.862   3.195   3.848
 9582TIP3    H228711   4.771   3.077   3.875
 9583TIP3   OH228712   4.451   0.812   5.562
 9583TIP3    H128713   4.480   0.824   5.653
 9583TIP3    H228714   4.363   0.850   5.559
 9584TIP3   OH228715   6.072   6.120   4.898
 9584TIP3    H128716   6.114   6.036   4.882
 9584TIP3    H228717   6.043   6.116   4.989
 9585TIP3   OH228718   5.480   6.386   3.626
 9585TIP3    H128719   5.510   6.434   3.703
 9585TIP3    H228720   5.507   6.440   3.552
 9586TIP3   OH228721   4.286   3.620  -0.033
 9586TIP3    H128722   4.244   3.547   0.012
 9586TIP3    H228723   4.214   3.676  -0.062
 9587TIP3   OH228724   0.056   2.349   2.091
 9587TIP3    H128725   0.023   2.432   2.055
 9587TIP3    H228726   0.145   2.341   2.056
 9588TIP3   OH228727   1.530   0.382   0.528
 9588TIP3    H128728   1.525   0.294   0.490
 9588TIP3    H228729   1.456   0.386   0.588
 9589TIP3   OH228730   1.458   5.126   5.831
 9589TIP3    H128731   1.397   5.055   5.813
 9589TIP3    H228732   1.468   5.126   5.927
 9590TIP3   OH228733   2.634   4.022   3.276
 9590TIP3    H128734   2.627   4.076   3.197
 9590TIP3    H228735   2.665   3.937   3.244
 9591TIP3   OH228736   6.639   2.174   4.704
 9591TIP3    H128737   6.695   2.097   4.709
 9591TIP3    H228738   6.550   2.139   4.707
 9592TIP3   OH228739   5.517   5.990   1.112
 9592TIP3    H128740   5.542   6.062   1.169
 9592TIP3    H228741   5.460   5.935   1.166
 9593TIP3   OH228742   6.979   2.756   0.305
 9593TIP3    H128743   7.044   2.778   0.238
 9593TIP3    H228744   6.963   2.663   0.294
 9594TIP3   OH228745   5.544   0.477   1.636
 9594TIP3    H128746   5.585   0.528   1.705
 9594TIP3    H228747   5.467   0.528   1.610
 9595TIP3   OH228748   6.260   2.322   5.547
 9595TIP3    H128749   6.289   2.239   5.585
 9595TIP3    H228750   6.243   2.378   5.623
 9596TIP3   OH228751   5.454   2.690   1.889
 9596TIP3    H128752   5.464   2.767   1.946
 9596TIP3    H228753   5.487   2.617   1.942
 9597TIP3   OH228754   2.182   2.045   1.866
 9597TIP3    H128755   2.129   2.122   1.850
 9597TIP3    H228756   2.129   1.991   1.924
 9598TIP3   OH228757   0.212   4.782   2.173
 9598TIP3    H128758   0.224   4.710   2.235
 9598TIP3    H228759   0.201   4.859   2.229
 9599TIP3   OH228760   2.826   4.490   5.074
 9599TIP3    H128761   2.759   4.526   5.017
 9599TIP3    H228762   2.796   4.401   5.093
 9600TIP3   OH228763   0.926   4.611   4.777
 9600TIP3    H128764   0.915   4.602   4.682
 9600TIP3    H228765   0.931   4.521   4.808
 9601TIP3   OH228766   5.407   4.976   1.801
 9601TIP3    H128767   5.340   4.921   1.842
 9601TIP3    H228768   5.393   5.063   1.838
 9602TIP3   OH228769   6.906   1.358   1.360
 9602TIP3    H128770   6.815   1.344   1.332
 9602TIP3    H228771   6.904   1.440   1.408
 9603TIP3   OH228772   4.251   5.769   5.289
 9603TIP3    H128773   4.196   5.829   5.340
 9603TIP3    H228774   4.338   5.808   5.291
 9604TIP3   OH228775   1.656   2.878   4.964
 9604TIP3    H128776   1.625   2.952   5.015
 9604TIP3    H228777   1.745   2.862   4.996
 9605TIP3   OH228778   1.816   5.552   4.974
 9605TIP3    H128779   1.889   5.610   4.992
 9605TIP3    H228780   1.811   5.547   4.878
 9606TIP3   OH228781   1.608   1.068   4.770
 9606TIP3    H128782   1.532   1.028   4.811
 9606TIP3    H228783   1.579   1.154   4.742
 9607TIP3   OH228784   0.096   2.450   5.745
 9607TIP3    H128785   0.098   2.544   5.764
 9607TIP3    H228786   0.092   2.408   5.830
 9608TIP3   OH228787   4.357   3.082   5.387
 9608TIP3    H128788   4.342   3.141   5.313
 9608TIP3    H228789   4.373   2.997   5.346
 9609TIP3   OH228790   2.079   0.408   2.929
 9609TIP3    H128791   1.994   0.399   2.884
 9609TIP3    H228792   2.056   0.421   3.021
 9610TIP3   OH228793   2.456   2.977   2.470
 9610TIP3    H128794   2.398   3.018   2.535
 9610TIP3    H228795   2.404   2.975   2.390
 9611TIP3   OH228796   4.375   2.020   4.162
 9611TIP3    H128797   4.430   2.078   4.108
 9611TIP3    H228798   4.435   1.953   4.193
 9612TIP3   OH228799   5.722   4.130   4.055
 9612TIP3    H128800   5.716   4.183   3.975
 9612TIP3    H228801   5.631   4.114   4.079
 9613TIP3   OH228802   4.394   4.854   1.003
 9613TIP3    H128803   4.467   4.855   0.941
 9613TIP3    H228804   4.324   4.901   0.959
 9614TIP3   OH228805   1.858   5.355   1.775
 9614TIP3    H128806   1.863   5.427   1.712
 9614TIP3    H228807   1.841   5.398   1.859
 9615TIP3   OH228808   4.717   0.854   1.249
 9615TIP3    H128809   4.639   0.798   1.253
 9615TIP3    H228810   4.723   0.893   1.336
 9616TIP3   OH228811   4.883   2.573   3.125
 9616TIP3    H128812   4.810   2.571   3.063
 9616TIP3    H228813   4.910   2.481   3.133
 9617TIP3   OH228814   4.407   0.357   0.709
 9617TIP3    H128815   4.492   0.314   0.698
 9617TIP3    H228816   4.414   0.404   0.792
 9618TIP3   OH228817   6.462   2.557   4.529
 9618TIP3    H128818   6.473   2.512   4.613
 9618TIP3    H228819   6.549   2.592   4.509
 9619TIP3   OH228820   4.567   3.610  -0.004
 9619TIP3    H128821   4.588   3.666  -0.079
 9619TIP3    H228822   4.472   3.611   0.002
 9620TIP3   OH228823   5.229   5.585   5.152
 9620TIP3    H128824   5.138   5.574   5.181
 9620TIP3    H228825   5.279   5.597   5.233
 9621TIP3   OH228826   3.728   6.393   4.255
 9621TIP3    H128827   3.728   6.317   4.314
 9621TIP3    H228828   3.716   6.356   4.168
 9622TIP3   OH228829   0.863   3.743   2.367
 9622TIP3    H128830   0.813   3.667   2.337
 9622TIP3    H228831   0.798   3.802   2.405
 9623TIP3   OH228832   5.088   0.141   4.600
 9623TIP3    H128833   5.064   0.233   4.611
 9623TIP3    H228834   5.180   0.144   4.571
 9624TIP3   OH228835   3.051   1.172   1.304
 9624TIP3    H128836   3.068   1.167   1.210
 9624TIP3    H228837   2.975   1.229   1.312
 9625TIP3   OH228838   6.730   4.407   4.525
 9625TIP3    H128839   6.679   4.473   4.573
 9625TIP3    H228840   6.804   4.456   4.489
 9626TIP3   OH228841   4.435   5.767   2.976
 9626TIP3    H128842   4.373   5.830   3.014
 9626TIP3    H228843   4.472   5.721   3.051
 9627TIP3   OH228844   4.472   1.114   1.003
 9627TIP3    H128845   4.567   1.122   1.007
 9627TIP3    H228846   4.449   1.145   0.916
 9628TIP3   OH228847   4.089   3.493   1.357
 9628TIP3    H128848   4.060   3.584   1.368
 9628TIP3    H228849   4.123   3.468   1.443
 9629TIP3   OH228850   4.022   5.575   5.240
 9629TIP3    H128851   4.110   5.580   5.277
 9629TIP3    H228852   3.965   5.556   5.314
 9630TIP3   OH228853   6.441   5.291   0.354
 9630TIP3    H128854   6.531   5.317   0.377
 9630TIP3    H228855   6.449   5.253   0.267
 9631TIP3   OH228856   5.578   3.012   0.411
 9631TIP3    H128857   5.628   3.026   0.491
 9631TIP3    H228858   5.521   3.089   0.404
 9632TIP3   OH228859   5.193   5.808   1.152
 9632TIP3    H128860   5.189   5.723   1.195
 9632TIP3    H228861   5.224   5.868   1.220
 9633TIP3   OH228862   1.068   5.154   3.245
 9633TIP3    H128863   1.138   5.215   3.267
 9633TIP3    H228864   1.041   5.179   3.156
 9634TIP3   OH228865   5.545   5.180   4.974
 9634TIP3    H128866   5.467   5.226   5.005
 9634TIP3    H228867   5.543   5.189   4.879
 9635TIP3   OH228868   0.505   4.810   0.654
 9635TIP3    H128869   0.413   4.808   0.628
 9635TIP3    H228870   0.551   4.769   0.581
 9636TIP3   OH228871   0.474   2.516   5.864
 9636TIP3    H128872   0.525   2.469   5.931
 9636TIP3    H228873   0.446   2.447   5.804
 9637TIP3   OH228874   2.944   5.161   4.345
 9637TIP3    H128875   2.958   5.167   4.440
 9637TIP3    H228876   2.877   5.226   4.327
 9638TIP3   OH228877   2.906   0.318   5.505
 9638TIP3    H128878   2.853   0.357   5.436
 9638TIP3    H228879   2.883   0.366   5.584
 9639TIP3   OH228880   3.399   2.601   3.733
 9639TIP3    H128881   3.444   2.686   3.730
 9639TIP3    H228882   3.363   2.598   3.822
 9640TIP3   OH228883   6.106   5.436   5.645
 9640TIP3    H128884   6.173   5.466   5.707
 9640TIP3    H228885   6.059   5.367   5.691
 9641TIP3   OH228886   2.585   2.027   5.004
 9641TIP3    H128887   2.523   1.957   4.983
 9641TIP3    H228888   2.640   2.034   4.927
 9642TIP3   OH228889   2.359   3.252   2.133
 9642TIP3    H128890   2.267   3.255   2.157
 9642TIP3    H228891   2.403   3.303   2.201
 9643TIP3   OH228892   4.992   6.426   1.303
 9643TIP3    H128893   4.897   6.416   1.299
 9643TIP3    H228894   5.009   6.508   1.256
 9644TIP3   OH228895   2.581   1.638   0.674
 9644TIP3    H128896   2.564   1.619   0.582
 9644TIP3    H228897   2.497   1.668   0.709
 9645TIP3   OH228898   5.594   1.364   1.702
 9645TIP3    H128899   5.511   1.399   1.732
 9645TIP3    H228900   5.649   1.360   1.780
 9646TIP3   OH228901   4.270   1.448   5.549
 9646TIP3    H128902   4.201   1.456   5.484
 9646TIP3    H228903   4.350   1.437   5.498
 9647TIP3   OH228904   6.407   5.081   4.534
 9647TIP3    H128905   6.368   5.103   4.619
 9647TIP3    H228906   6.500   5.064   4.554
 9648TIP3   OH228907   1.534   4.363   4.881
 9648TIP3    H128908   1.533   4.459   4.878
 9648TIP3    H228909   1.623   4.340   4.854
 9649TIP3   OH228910   1.619   4.899   0.135
 9649TIP3    H128911   1.688   4.898   0.069
 9649TIP3    H228912   1.659   4.937   0.213
 9650TIP3   OH228913   3.471   4.701   3.687
 9650TIP3    H128914   3.443   4.688   3.596
 9650TIP3    H228915   3.567   4.695   3.683
 9651TIP3   OH228916   4.239   1.573   4.703
 9651TIP3    H128917   4.159   1.524   4.684
 9651TIP3    H228918   4.227   1.605   4.793
 9652TIP3   OH228919   2.126   4.522   1.719
 9652TIP3    H128920   2.194   4.590   1.709
 9652TIP3    H228921   2.144   4.461   1.648
 9653TIP3   OH228922   1.183   5.991   4.297
 9653TIP3    H128923   1.117   6.041   4.344
 9653TIP3    H228924   1.259   6.050   4.292
 9654TIP3   OH228925   0.461   0.785   4.741
 9654TIP3    H128926   0.456   0.819   4.831
 9654TIP3    H228927   0.379   0.814   4.700
 9655TIP3   OH228928   4.762   1.831   5.581
 9655TIP3    H128929   4.801   1.756   5.538
 9655TIP3    H228930   4.825   1.902   5.569
 9656TIP3   OH228931   6.566   4.115   0.593
 9656TIP3    H128932   6.555   4.209   0.588
 9656TIP3    H228933   6.660   4.101   0.581
 9657TIP3   OH228934   6.980   1.581   5.028
 9657TIP3    H128935   7.068   1.567   4.994
 9657TIP3    H228936   6.935   1.631   4.959
 9658TIP3   OH228937   4.913   4.445   5.401
 9658TIP3    H128938   4.879   4.526   5.363
 9658TIP3    H228939   4.955   4.472   5.483
 9659TIP3   OH228940   3.078   1.060   4.490
 9659TIP3    H128941   3.034   0.978   4.466
 9659TIP3    H228942   3.058   1.119   4.417
 9660TIP3   OH228943   1.827   5.173   3.862
 9660TIP3    H128944   1.859   5.255   3.900
 9660TIP3    H228945   1.758   5.199   3.802
 9661TIP3   OH228946   5.837   5.069   4.202
 9661TIP3    H128947   5.805   5.056   4.291
 9661TIP3    H228948   5.758   5.071   4.148
 9662TIP3   OH228949   3.195   1.846   4.189
 9662TIP3    H128950   3.154   1.890   4.264
 9662TIP3    H228951   3.289   1.861   4.201
 9663TIP3   OH228952   5.553   4.751   4.524
 9663TIP3    H128953   5.460   4.760   4.503
 9663TIP3    H228954   5.562   4.794   4.609
 9664TIP3   OH228955   5.578   2.038   3.736
 9664TIP3    H128956   5.564   1.971   3.803
 9664TIP3    H228957   5.491   2.077   3.723
 9665TIP3   OH228958   4.966   6.146   4.154
 9665TIP3    H128959   5.003   6.071   4.106
 9665TIP3    H228960   4.875   6.120   4.172
 9666TIP3   OH228961   5.667   0.802   1.298
 9666TIP3    H128962   5.684   0.717   1.257
 9666TIP3    H228963   5.618   0.781   1.377
 9667TIP3   OH228964   0.761   2.831   5.629
 9667TIP3    H128965   0.784   2.807   5.719
 9667TIP3    H228966   0.746   2.748   5.585
 9668TIP3   OH228967   0.208   5.478   1.695
 9668TIP3    H128968   0.295   5.476   1.733
 9668TIP3    H228969   0.155   5.421   1.751
 9669TIP3   OH228970   5.967   5.321   4.269
 9669TIP3    H128971   5.930   5.268   4.199
 9669TIP3    H228972   5.959   5.411   4.238
 9670TIP3   OH228973   3.364   6.334   5.414
 9670TIP3    H128974   3.354   6.343   5.319
 9670TIP3    H228975   3.454   6.306   5.426
 9671TIP3   OH228976   5.043   1.040   1.924
 9671TIP3    H128977   4.987   1.047   2.001
 9671TIP3    H228978   5.129   1.017   1.959
 9672TIP3   OH228979   0.116   1.477   1.774
 9672TIP3    H128980   0.201   1.434   1.768
 9672TIP3    H228981   0.137   1.565   1.807
 9673TIP3   OH228982   5.962   2.020   4.881
 9673TIP3    H128983   6.008   1.956   4.934
 9673TIP3    H228984   5.914   2.074   4.944
 9674TIP3   OH228985   4.110   1.490   1.722
 9674TIP3    H128986   4.111   1.547   1.645
 9674TIP3    H228987   4.024   1.507   1.762
 9675TIP3   OH228988   6.637   3.765   4.965
 9675TIP3    H128989   6.652   3.671   4.978
 9675TIP3    H228990   6.576   3.770   4.891
 9676TIP3   OH228991   5.198   6.622   0.363
 9676TIP3    H128992   5.149   6.660   0.291
 9676TIP3    H228993   5.132   6.604   0.430
 9677TIP3   OH228994   4.733   1.010   0.180
 9677TIP3    H128995   4.718   0.916   0.168
 9677TIP3    H228996   4.694   1.050   0.103
 9678TIP3   OH228997   2.998   3.025   4.255
 9678TIP3    H128998   2.927   2.973   4.292
 9678TIP3    H228999   3.063   3.030   4.325
 9679TIP3   OH229000   3.513   4.925   1.064
 9679TIP3    H129001   3.548   4.840   1.037
 9679TIP3    H229002   3.559   4.945   1.146
 9680TIP3   OH229003   3.603   1.265   2.291
 9680TIP3    H129004   3.545   1.317   2.235
 9680TIP3    H229005   3.668   1.327   2.324
 9681TIP3   OH229006   5.613   5.011   3.226
 9681TIP3    H129007   5.656   5.012   3.312
 9681TIP3    H229008   5.680   5.042   3.165
 9682TIP3   OH229009   4.788   6.378   4.911
 9682TIP3    H129010   4.838   6.420   4.840
 9682TIP3    H229011   4.855   6.345   4.971
 9683TIP3   OH229012   1.342   5.943   0.421
 9683TIP3    H129013   1.421   5.969   0.374
 9683TIP3    H229014   1.374   5.891   0.494
 9684TIP3   OH229015   5.065   2.727   3.804
 9684TIP3    H129016   5.152   2.729   3.843
 9684TIP3    H229017   5.007   2.700   3.876
 9685TIP3   OH229018   1.125   2.624   1.472
 9685TIP3    H129019   1.115   2.550   1.531
 9685TIP3    H229020   1.218   2.646   1.476
 9686TIP3   OH229021   5.101   2.673   0.130
 9686TIP3    H129022   5.167   2.610   0.100
 9686TIP3    H229023   5.121   2.753   0.082
 9687TIP3   OH229024   6.531   4.414   2.865
 9687TIP3    H129025   6.560   4.348   2.928
 9687TIP3    H229026   6.576   4.391   2.784
 9688TIP3   OH229027   2.922   3.101   1.034
 9688TIP3    H129028   2.958   3.045   1.102
 9688TIP3    H229029   2.828   3.081   1.033
 9689TIP3   OH229030   0.765   0.126   4.604
 9689TIP3    H129031   0.774   0.119   4.509
 9689TIP3    H229032   0.846   0.087   4.638
 9690TIP3   OH229033   5.015   6.046   5.372
 9690TIP3    H129034   5.055   6.131   5.391
 9690TIP3    H229035   5.086   5.982   5.388
 9691TIP3   OH229036   2.452   4.293   0.290
 9691TIP3    H129037   2.490   4.211   0.321
 9691TIP3    H229038   2.388   4.317   0.356
 9692TIP3   OH229039   4.097   6.342   1.636
 9692TIP3    H129040   4.063   6.340   1.726
 9692TIP3    H229041   4.062   6.423   1.599
 9693TIP3   OH229042   5.711   1.921   2.125
 9693TIP3    H129043   5.702   1.997   2.068
 9693TIP3    H229044   5.750   1.956   2.205
 9694TIP3   OH229045   0.112   1.367   2.157
 9694TIP3    H129046   0.114   1.314   2.077
 9694TIP3    H229047   0.020   1.389   2.168
 9695TIP3   OH229048   6.345   1.204   3.670
 9695TIP3    H129049   6.329   1.290   3.631
 9695TIP3    H229050   6.289   1.201   3.748
 9696TIP3   OH229051   2.281   1.933   5.271
 9696TIP3    H129052   2.230   1.962   5.196
 9696TIP3    H229053   2.242   1.849   5.295
 9697TIP3   OH229054   5.165   6.235   3.042
 9697TIP3    H129055   5.228   6.222   2.972
 9697TIP3    H229056   5.131   6.324   3.028
 9698TIP3   OH229057   4.037   0.288   2.351
 9698TIP3    H129058   4.026   0.330   2.436
 9698TIP3    H229059   3.952   0.298   2.308
 9699TIP3   OH229060   5.865   2.400   5.246
 9699TIP3    H129061   5.903   2.380   5.331
 9699TIP3    H229062   5.933   2.451   5.201
 9700TIP3   OH229063   2.904   6.842   2.442
 9700TIP3    H129064   2.830   6.892   2.408
 9700TIP3    H229065   2.868   6.756   2.463
 9701TIP3   OH229066   0.708   3.058   2.324
 9701TIP3    H129067   0.712   2.983   2.265
 9701TIP3    H229068   0.695   3.021   2.411
 9702TIP3   OH229069   6.031   0.891   5.572
 9702TIP3    H129070   6.120   0.902   5.537
 9702TIP3    H229071   6.043   0.884   5.666
 9703TIP3   OH229072   1.771   3.063   1.739
 9703TIP3    H129073   1.700   3.001   1.720
 9703TIP3    H229074   1.851   3.012   1.728
 9704TIP3   OH229075   3.876   2.414   4.144
 9704TIP3    H129076   3.887   2.508   4.162
 9704TIP3    H229077   3.793   2.391   4.186
 9705TIP3   OH229078   3.239   6.590   5.340
 9705TIP3    H129079   3.326   6.618   5.367
 9705TIP3    H229080   3.255   6.536   5.262
 9706TIP3   OH229081   1.525   5.340   4.965
 9706TIP3    H129082   1.455   5.400   4.939
 9706TIP3    H229083   1.482   5.278   5.024
 9707TIP3   OH229084   0.775   4.086   3.439
 9707TIP3    H129085   0.785   4.067   3.346
 9707TIP3    H229086   0.704   4.029   3.468
 9708TIP3   OH229087   2.328   1.261   0.816
 9708TIP3    H129088   2.259   1.327   0.812
 9708TIP3    H229089   2.354   1.258   0.908
 9709TIP3   OH229090   1.577   3.430   1.386
 9709TIP3    H129091   1.662   3.473   1.397
 9709TIP3    H229092   1.518   3.500   1.358
 9710TIP3   OH229093   0.430   1.978   0.425
 9710TIP3    H129094   0.361   2.039   0.449
 9710TIP3    H229095   0.465   2.011   0.343
 9711TIP3   OH229096   0.381   4.546   0.130
 9711TIP3    H129097   0.446   4.499   0.182
 9711TIP3    H229098   0.311   4.566   0.192
 9712TIP3   OH229099   6.217   6.733   4.370
 9712TIP3    H129100   6.295   6.690   4.335
 9712TIP3    H229101   6.167   6.662   4.410
 9713TIP3   OH229102   5.367   1.481   1.820
 9713TIP3    H129103   5.291   1.424   1.830
 9713TIP3    H229104   5.379   1.522   1.906
 9714TIP3   OH229105   5.874   3.124   1.381
 9714TIP3    H129106   5.896   3.186   1.450
 9714TIP3    H229107   5.807   3.067   1.419
 9715TIP3   OH229108   0.333   2.286   0.817
 9715TIP3    H129109   0.332   2.196   0.849
 9715TIP3    H229110   0.242   2.303   0.792
 9716TIP3   OH229111   6.929   6.320   0.273
 9716TIP3    H129112   6.880   6.402   0.283
 9716TIP3    H229113   7.017   6.341   0.305
 9717TIP3   OH229114   1.423   1.761   0.115
 9717TIP3    H129115   1.359   1.815   0.069
 9717TIP3    H229116   1.493   1.746   0.051
 9718TIP3   OH229117   1.740   0.652   0.133
 9718TIP3    H129118   1.789   0.593   0.190
 9718TIP3    H229119   1.659   0.670   0.181
 9719TIP3   OH229120   4.369   2.565   1.872
 9719TIP3    H129121   4.286   2.538   1.914
 9719TIP3    H229122   4.403   2.634   1.929
 9720TIP3   OH229123   6.236   5.326   0.602
 9720TIP3    H129124   6.313   5.331   0.545
 9720TIP3    H229125   6.253   5.251   0.658
 9721TIP3   OH229126   6.196   5.702   2.352
 9721TIP3    H129127   6.242   5.621   2.375
 9721TIP3    H229128   6.222   5.719   2.261
 9722TIP3   OH229129   2.879   3.393   0.203
 9722TIP3    H129130   2.896   3.370   0.112
 9722TIP3    H229131   2.784   3.380   0.213
 9723TIP3   OH229132   1.284   4.096   5.944
 9723TIP3    H129133   1.300   4.147   5.864
 9723TIP3    H229134   1.274   4.006   5.913
 9724TIP3   OH229135   5.611   2.563   3.391
 9724TIP3    H129136   5.558   2.484   3.403
 9724TIP3    H229137   5.700   2.530   3.377
 9725TIP3   OH229138   2.201   0.713   2.567
 9725TIP3    H129139   2.191   0.693   2.660
 9725TIP3    H229140   2.279   0.665   2.540
 9726TIP3   OH229141   3.805   3.037   4.425
 9726TIP3    H129142   3.802   3.130   4.446
 9726TIP3    H229143   3.724   3.020   4.378
 9727TIP3   OH229144   2.702   6.001   5.159
 9727TIP3    H129145   2.682   6.033   5.071
 9727TIP3    H229146   2.797   6.013   5.167
 9728TIP3   OH229147   4.085   5.360   1.849
 9728TIP3    H129148   4.159   5.344   1.791
 9728TIP3    H229149   4.008   5.336   1.797
 9729TIP3   OH229150   3.555   3.674   2.333
 9729TIP3    H129151   3.599   3.749   2.292
 9729TIP3    H229152   3.467   3.706   2.352
 9730TIP3   OH229153   3.049   2.254   3.867
 9730TIP3    H129154   3.076   2.345   3.854
 9730TIP3    H229155   3.057   2.241   3.961
 9731TIP3   OH229156   2.516   2.151   3.260
 9731TIP3    H129157   2.569   2.135   3.338
 9731TIP3    H229158   2.443   2.205   3.291
 9732TIP3   OH229159   0.544   6.556   4.674
 9732TIP3    H129160   0.592   6.478   4.644
 9732TIP3    H229161   0.452   6.536   4.655
 9733TIP3   OH229162   1.810   4.324   2.673
 9733TIP3    H129163   1.770   4.253   2.622
 9733TIP3    H229164   1.802   4.402   2.618
 9734TIP3   OH229165   3.239   1.236   1.496
 9734TIP3    H129166   3.168   1.226   1.432
 9734TIP3    H229167   3.207   1.302   1.557
 9735TIP3   OH229168   4.762   6.362   3.028
 9735TIP3    H129169   4.812   6.380   3.108
 9735TIP3    H229170   4.728   6.447   3.001
 9736TIP3   OH229171   3.871   5.296   1.700
 9736TIP3    H129172   3.777   5.282   1.692
 9736TIP3    H229173   3.903   5.218   1.745
 9737TIP3   OH229174   6.725   2.624   0.876
 9737TIP3    H129175   6.712   2.561   0.806
 9737TIP3    H229176   6.643   2.624   0.925
 9738TIP3   OH229177   2.701   5.846   5.557
 9738TIP3    H129178   2.795   5.845   5.539
 9738TIP3    H229179   2.684   5.935   5.589
 9739TIP3   OH229180   0.865   1.430   2.414
 9739TIP3    H129181   0.920   1.407   2.489
 9739TIP3    H229182   0.835   1.346   2.380
 9740TIP3   OH229183   1.895   0.637   3.010
 9740TIP3    H129184   1.876   0.699   3.080
 9740TIP3    H229185   1.925   0.558   3.056
 9741TIP3   OH229186   0.493   5.496   0.581
 9741TIP3    H129187   0.417   5.464   0.631
 9741TIP3    H229188   0.474   5.469   0.491
 9742TIP3   OH229189   5.180   5.492   5.450
 9742TIP3    H129190   5.100   5.440   5.452
 9742TIP3    H229191   5.157   5.573   5.495
 9743TIP3   OH229192   4.005   2.291   4.778
 9743TIP3    H129193   4.024   2.384   4.763
 9743TIP3    H229194   4.040   2.247   4.701
 9744TIP3   OH229195   6.199   6.371   5.465
 9744TIP3    H129196   6.292   6.393   5.452
 9744TIP3    H229197   6.175   6.419   5.544
 9745TIP3   OH229198   1.565   3.297   3.588
 9745TIP3    H129199   1.630   3.342   3.642
 9745TIP3    H229200   1.529   3.365   3.531
 9746TIP3   OH229201   3.744   4.337   4.102
 9746TIP3    H129202   3.708   4.250   4.123
 9746TIP3    H229203   3.686   4.398   4.149
 9747TIP3   OH229204   0.760   2.837   2.163
 9747TIP3    H129205   0.722   2.769   2.219
 9747TIP3    H229206   0.784   2.791   2.082
 9748TIP3   OH229207   6.582   5.395   5.133
 9748TIP3    H129208   6.589   5.332   5.205
 9748TIP3    H229209   6.673   5.409   5.105
 9749TIP3   OH229210   3.258   5.086   4.357
 9749TIP3    H129211   3.228   5.086   4.266
 9749TIP3    H229212   3.256   5.178   4.383
   7.21531   6.80268   5.89128   0.00000   0.00000  -2.40511   0.00000  -2.40511  -3.40133
