Title
29212
    1ASP      N    1   2.165   2.395   3.582  1.2481  0.4978  0.5702
    1ASP    HT1    2   2.096   2.436   3.648  0.4448  0.1214 -0.0215
    1ASP    HT2    3   2.168   2.292   3.599 -0.2519  0.5520  1.2495
    1ASP    HT3    4   2.121   2.413   3.490 -2.6526 -0.3204  2.0782
    1ASP     CA    5   2.294   2.453   3.589  0.4097  0.6085 -0.3981
    1ASP     HA    6   2.359   2.388   3.532 -1.2687  0.4348 -2.2124
    1ASP     CB    7   2.286   2.603   3.529  0.2099  0.1028  0.4307
    1ASP    HB1    8   2.380   2.658   3.550  1.0145 -0.5027 -1.3894
    1ASP    HB2    9   2.201   2.656   3.576 -0.4096  0.5043 -1.0988
    1ASP     CG   10   2.262   2.598   3.379 -0.2764  0.3740 -0.4208
    1ASP    OD1   11   2.239   2.493   3.319 -0.2652 -0.1303 -0.7152
    1ASP    OD2   12   2.278   2.710   3.322 -0.1758  0.5714  0.3450
    1ASP      C   13   2.346   2.460   3.734  0.3390 -0.8343  0.5093
    1ASP      O   14   2.280   2.432   3.829  1.0200 -0.1391  0.4097
    2GLY      N   15   2.474   2.498   3.753  0.6470  0.1241  1.1638
    2GLY     HN   16   2.531   2.508   3.672 -1.4845  1.4061 -0.2628
    2GLY     CA   17   2.541   2.511   3.880  0.7411 -0.0107 -0.6610
    2GLY    HA1   18   2.611   2.430   3.889 -1.5508 -1.8992  2.4247
    2GLY    HA2   19   2.466   2.515   3.958  0.4352 -0.1976 -0.9466
    2GLY      C   20   2.615   2.640   3.896  0.3031 -0.8665  0.2077
    2GLY      O   21   2.655   2.680   4.001 -0.2689  0.8307 -0.6785
    3ASP      N   22   2.634   2.718   3.788  0.1214 -0.1101 -0.1650
    3ASP     HN   23   2.604   2.692   3.697 -0.0478 -2.9443  0.5813
    3ASP     CA   24   2.692   2.848   3.793 -0.0360 -0.0555  0.1624
    3ASP     HA   25   2.771   2.840   3.866  0.1808 -3.1156 -0.2738
    3ASP     CB   26   2.753   2.878   3.646  0.3800 -0.6173 -0.2625
    3ASP    HB1   27   2.673   2.909   3.575  2.2932  2.2444 -1.3464
    3ASP    HB2   28   2.814   2.793   3.609 -0.0395 -1.9202  1.8588
    3ASP     CG   29   2.853   2.997   3.636  0.2740 -0.0621 -0.1547
    3ASP    OD1   30   2.899   3.032   3.530  0.3784  0.3141  0.4330
    3ASP    OD2   31   2.877   3.061   3.741 -0.4156  0.1559  0.3008
    3ASP      C   32   2.595   2.960   3.845  0.0828 -0.5911  0.3917
    3ASP      O   33   2.471   2.951   3.840 -0.6142 -0.4305  0.4653
    4GLY      N   34   2.656   3.068   3.903  0.0738  0.0669 -0.0080
    4GLY     HN   35   2.754   3.082   3.886 -0.0655  1.7130  0.3658
    4GLY     CA   36   2.596   3.178   3.984  0.0758 -0.0956  0.1193
    4GLY    HA1   37   2.679   3.242   4.009  1.0948 -0.9745 -0.8658
    4GLY    HA2   38   2.555   3.130   4.072 -2.6713  3.6346  1.1113
    4GLY      C   39   2.483   3.259   3.925  0.9916  0.4487  0.4971
    4GLY      O   40   2.450   3.244   3.811 -0.0107  0.1696  0.4209
    5PRO      N   41   2.435   3.363   4.001 -0.1568 -0.3838  0.0560
    5PRO     CD   42   2.491   3.395   4.131  0.6549 -0.1238  0.0755
    5PRO    HD1   43   2.570   3.472   4.132  1.8737 -1.2601 -1.8860
    5PRO    HD2   44   2.521   3.302   4.184  0.4533  1.0448  2.3759
    5PRO     CA   45   2.317   3.446   3.977 -0.0752  0.1654  0.4480
    5PRO     HA   46   2.231   3.380   3.972  1.0763 -1.2744 -2.0368
    5PRO     CB   47   2.308   3.538   4.098  0.3112  0.2592 -0.0878
    5PRO    HB1   48   2.204   3.574   4.115 -0.0399 -0.2930 -1.0290
    5PRO    HB2   49   2.374   3.626   4.089  1.8697 -0.8814 -0.1132
    5PRO     CG   50   2.376   3.457   4.209 -0.8169  0.3419 -0.6129
    5PRO    HG1   51   2.415   3.519   4.292  0.8227 -0.2644 -0.8987
    5PRO    HG2   52   2.318   3.374   4.254 -0.9019  1.7437  2.0536
    5PRO      C   53   2.317   3.525   3.850 -0.1318 -0.1128  0.0178
    5PRO      O   54   2.425   3.575   3.824 -0.1229 -0.2915  0.3641
    6GLY      N   55   2.217   3.517   3.766  0.4027 -0.2234  0.2707
    6GLY     HN   56   2.136   3.472   3.802 -0.4970  1.8875  0.9908
    6GLY     CA   57   2.219   3.567   3.627  0.9666  0.5548  0.3839
    6GLY    HA1   58   2.116   3.556   3.597  0.7089 -0.8737  1.6939
    6GLY    HA2   59   2.292   3.504   3.578 -2.3645 -2.4756 -1.1619
    6GLY      C   60   2.257   3.704   3.597  0.1578 -0.1862 -0.5536
    6GLY      O   61   2.255   3.794   3.686 -0.3603  0.8122  0.2955
    7ASP      N   62   2.284   3.724   3.466  0.0267 -0.0288 -0.1043
    7ASP     HN   63   2.264   3.651   3.401  1.7901  0.7816 -1.6302
    7ASP     CA   64   2.359   3.840   3.422  0.5207 -0.0064  0.2157
    7ASP     HA   65   2.450   3.824   3.479  0.2650 -0.3052  0.5459
    7ASP     CB   66   2.395   3.837   3.272  0.2437  0.4660 -0.9243
    7ASP    HB1   67   2.474   3.915   3.263 -0.0427  0.8487 -0.2002
    7ASP    HB2   68   2.307   3.871   3.213 -1.2094 -1.1162  0.2525
    7ASP     CG   69   2.441   3.709   3.214 -0.1431  0.4829 -0.6240
    7ASP    OD1   70   2.449   3.705   3.087 -0.0104  0.4239 -0.7031
    7ASP    OD2   71   2.480   3.609   3.280 -0.4113  0.1759  0.4017
    7ASP      C   72   2.295   3.973   3.457  0.1597 -0.0383 -0.0212
    7ASP      O   73   2.170   3.981   3.456  0.0795 -0.2595  0.0978
    8PRO      N   74   2.372   4.081   3.501 -0.3925 -0.6993 -0.5373
    8PRO     CD   75   2.502   4.066   3.570  0.5967 -1.3043 -0.2003
    8PRO    HD1   76   2.576   4.033   3.495  1.2755 -2.7079  1.0414
    8PRO    HD2   77   2.499   4.003   3.661  0.9881  0.6503  1.2437
    8PRO     CA   78   2.323   4.219   3.508 -0.2173 -0.2347 -0.5781
    8PRO     HA   79   2.258   4.233   3.593  0.9857  0.6109  0.2329
    8PRO     CB   80   2.453   4.294   3.510 -0.1325  0.2122  0.5182
    8PRO    HB1   81   2.432   4.401   3.533  1.9490  0.5453  1.0826
    8PRO    HB2   82   2.497   4.286   3.408 -1.3691  1.2244 -0.1261
    8PRO     CG   83   2.534   4.213   3.609 -0.1472  0.1584  0.4829
    8PRO    HG1   84   2.641   4.232   3.589 -0.2472  0.0998 -0.1277
    8PRO    HG2   85   2.505   4.244   3.712 -0.1797 -1.7209  1.0684
    8PRO      C   86   2.244   4.270   3.381 -0.2104 -0.0520 -0.4901
    8PRO      O   87   2.302   4.299   3.276 -0.3622 -0.9690  0.2318
    9GLY      N   88   2.115   4.309   3.392 -0.2203 -1.2707  0.3504
    9GLY     HN   89   2.079   4.303   3.485  1.9164 -0.5751  1.2912
    9GLY     CA   90   2.032   4.373   3.290 -0.2087 -0.1271  0.5474
    9GLY    HA1   91   1.929   4.381   3.323 -0.9441  0.2702 -1.6799
    9GLY    HA2   92   2.030   4.311   3.201 -1.8227  1.8668 -0.9091
    9GLY      C   93   2.066   4.509   3.241  0.2770  0.3655  0.3186
    9GLY      O   94   2.141   4.586   3.301  0.2228  0.1873 -0.0745
   10ASP      N   95   1.994   4.548   3.134  0.5122 -0.2894 -0.0223
   10ASP     HN   96   1.923   4.488   3.098  0.3621 -1.1819  1.6368
   10ASP     CA   97   2.008   4.681   3.074 -0.0282  0.0749 -0.1173
   10ASP     HA   98   2.113   4.702   3.060 -0.2925  1.4963 -0.0973
   10ASP     CB   99   1.936   4.689   2.938  0.0686 -0.1940 -0.0172
   10ASP    HB1  100   1.926   4.796   2.910 -1.4749 -0.2144  0.3867
   10ASP    HB2  101   1.834   4.646   2.945  0.2743 -0.5468  0.9748
   10ASP     CG  102   2.001   4.613   2.828 -0.6128 -0.2047  0.0975
   10ASP    OD1  103   2.109   4.549   2.847  0.4508 -0.4032 -0.1846
   10ASP    OD2  104   1.951   4.615   2.712 -0.7065  0.1572  0.5754
   10ASP      C  105   1.947   4.794   3.167  0.2673 -0.3296 -0.5689
   10ASP      O  106   1.836   4.779   3.217 -1.0888  0.1879 -0.0606
   11GLY      N  107   2.016   4.906   3.184 -0.4942 -0.0449 -0.3131
   11GLY     HN  108   2.101   4.923   3.135 -0.0192  0.1982  0.5771
   11GLY     CA  109   1.954   5.018   3.263  0.6084  0.4383  0.1250
   11GLY    HA1  110   2.035   5.082   3.296  1.5298  0.0751 -1.3215
   11GLY    HA2  111   1.891   4.989   3.346  2.2227  1.2358  1.6940
   11GLY      C  112   1.875   5.106   3.171 -0.7508  0.0319 -1.0348
   11GLY    OT1  113   1.816   5.215   3.206 -0.1204 -0.0763  0.3162
   11GLY    OT2  114   1.859   5.069   3.045 -0.1393  0.1799 -0.6340
   12SOD    SOD  115   6.237   4.853   5.261  0.2188  0.0958 -0.0485
   13SOD    SOD  116   1.536   3.188   1.051 -0.2147 -0.1837 -0.2064
   14SOD    SOD  117   1.295   6.683   3.277  0.1354  0.2809  0.4358
   15SOD    SOD  118   6.387   5.463   0.516  0.2921 -0.0601 -1.0814
   16SOD    SOD  119   1.590   1.413   5.817 -0.5516  0.0656  0.2049
   17SOD    SOD  120   2.035   3.469   2.906 -0.5951  0.1777 -0.1219
   18SOD    SOD  121   6.585   0.983   4.735 -0.1905 -0.1402 -0.0347
   19SOD    SOD  122   6.229   0.438   4.872 -0.2158  0.0759 -0.4414
   20SOD    SOD  123   2.720   4.865   2.129  0.1083  0.1767  0.5926
   21SOD    SOD  124   5.606   0.078   5.270  0.0086  0.1194  0.0848
   22SOD    SOD  125   6.043   5.058   1.931 -0.0360  0.0159 -0.3795
   23SOD    SOD  126   7.151   6.193   2.993  0.0967  0.1466 -0.6195
   24SOD    SOD  127   6.811   0.840   5.717  0.3001  0.0420 -0.0947
   25SOD    SOD  128   0.852   4.136   4.512 -0.0807  0.6747  0.2208
   26SOD    SOD  129   4.569   6.346   0.280  0.2062 -0.5351 -0.0042
   27SOD    SOD  130   3.777   5.305   3.335  0.2511  0.0891  0.2424
   28SOD    SOD  131   0.131   3.723   4.716 -0.1132 -0.0360 -0.1955
   29SOD    SOD  132   3.268   3.187   3.343  0.6743  0.5484 -0.3654
   30SOD    SOD  133   7.064   6.002   2.430 -0.2950  0.2828 -0.3620
   31SOD    SOD  134   4.608   1.527   3.847  0.4761  0.3059 -0.1998
   32SOD    SOD  135   3.107   3.320   1.336 -0.2975 -0.0609 -0.2248
   33SOD    SOD  136   0.654   2.206   5.183  0.0715  0.2103 -0.4557
   34SOD    SOD  137   2.253   6.755   1.304  0.0834  0.4420  0.1718
   35SOD    SOD  138   4.449   1.904   4.548 -0.1374  0.2242  0.3696
   36SOD    SOD  139   5.080   2.848   3.775 -0.1553  0.0195 -0.3251
   37SOD    SOD  140   1.047   0.972   3.680  0.1487  0.0086  0.3103
   38SOD    SOD  141   2.399   5.020   4.248  0.0187  0.0028  0.0379
   39SOD    SOD  142   3.581   4.163   2.358  0.2527  0.0002  0.2434
   40SOD    SOD  143   3.651   0.312   1.694 -0.1573 -0.1903 -0.2243
   41SOD    SOD  144   6.367   2.598   1.377  0.3784  0.4726  0.3492
   42SOD    SOD  145   6.426   6.201   2.650  0.1283 -0.1500 -0.0671
   43CLA    CLA  146   3.742   0.064   4.792 -0.0899  0.0331 -0.2464
   44CLA    CLA  147   5.916   2.720   5.800 -0.4893 -0.1247 -0.1370
   45CLA    CLA  148   1.560   0.428   4.699 -0.2546 -0.1887  0.2324
   46CLA    CLA  149   0.594   2.367   1.633 -0.3516 -0.5953  0.1749
   47CLA    CLA  150   2.468   3.919   5.106  0.0089  0.5414 -0.0019
   48CLA    CLA  151   5.523   5.381   4.087 -0.2285 -0.3013  0.3260
   49CLA    CLA  152   1.939   3.348   1.212 -0.0897 -0.0123 -0.0470
   50CLA    CLA  153   2.943   0.943   4.193  0.1465  0.1869 -0.3176
   51CLA    CLA  154   2.156   5.400   1.152  0.2858  0.1216  0.2448
   52CLA    CLA  155   5.306   6.133   4.652  0.2479 -0.3423 -0.3501
   53CLA    CLA  156   1.078   3.662   3.592  0.1655 -0.0602  0.0063
   54CLA    CLA  157   2.423   3.486   0.374  0.7759 -0.2793 -0.0122
   55CLA    CLA  158   4.434   4.566   2.326 -0.1771  0.1898 -0.2382
   56CLA    CLA  159   3.319   3.933   1.296  0.2543 -0.0436  0.5071
   57CLA    CLA  160   6.686   2.090   1.967 -0.7209  0.5406 -0.1102
   58CLA    CLA  161   3.793   3.036   4.615  0.2314 -0.1309 -0.1874
   59CLA    CLA  162   7.148   4.646   1.612  0.2522  0.6229  0.3300
   60CLA    CLA  163   1.777   6.208   0.656 -0.2407  0.0625 -0.0400
   61CLA    CLA  164   5.020   1.709   0.361 -0.1558 -0.0363 -0.3224
   62CLA    CLA  165   2.782   5.348   1.967  0.3150 -0.0354  0.0998
   63CLA    CLA  166   0.500   2.810   0.363  0.0769  0.1399 -0.0064
   64CLA    CLA  167   3.611   6.367   0.082  0.2716 -0.1261  0.0949
   65CLA    CLA  168   2.502   6.255   3.295 -0.0186 -0.2032 -0.1990
   66CLA    CLA  169   0.461   1.049   4.023 -0.0237  0.3327  0.2154
   67CLA    CLA  170   3.311   3.342   4.912 -0.1864 -0.2783  0.2501
   68CLA    CLA  171   1.688   6.266   1.895  0.1031 -0.1403 -0.1909
   69CLA    CLA  172   5.448   2.579   4.779  0.4533 -0.2518 -0.0887
   70TIP3   OH2  173   6.276   5.586   0.685 -0.7306 -0.5758 -0.1805
   70TIP3    H1  174   6.193   5.543   0.662 -1.3001  0.8035 -0.8211
   70TIP3    H2  175   6.266   5.606   0.778  0.0792 -2.9154  0.4693
   71TIP3   OH2  176   7.009   2.925   3.077  0.1725 -0.5826 -0.2911
   71TIP3    H1  177   6.981   2.848   3.127 -1.1167 -0.5109 -0.8628
   71TIP3    H2  178   7.063   2.889   3.006  0.1302 -0.8837 -0.1713
   72TIP3   OH2  179   1.453   1.340   0.756 -0.6054  0.5097  0.1149
   72TIP3    H1  180   1.387   1.339   0.824 -0.3294 -1.2052  0.3949
   72TIP3    H2  181   1.450   1.429   0.720 -0.0505  1.8003  3.0180
   73TIP3   OH2  182   0.603   6.413   5.869  0.4929 -0.3611 -0.0294
   73TIP3    H1  183   0.696   6.426   5.890  0.5294  1.3451 -1.0492
   73TIP3    H2  184   0.597   6.431   5.775 -0.9565  0.0465  0.1219
   74TIP3   OH2  185   3.360   4.819   3.903  0.1580  0.2257 -0.2731
   74TIP3    H1  186   3.373   4.737   3.854  0.7126  1.2207 -1.8608
   74TIP3    H2  187   3.339   4.790   3.992 -1.5849 -1.6836 -1.2145
   75TIP3   OH2  188   5.930   5.669   4.398 -0.1877  0.0398 -0.3567
   75TIP3    H1  189   5.880   5.743   4.432 -1.4201 -1.4731  1.2779
   75TIP3    H2  190   5.864   5.605   4.373  0.8745 -0.8299 -1.0564
   76TIP3   OH2  191   6.131   0.831   4.163 -0.2790 -0.4199 -0.2329
   76TIP3    H1  192   6.128   0.925   4.183  0.9085 -0.7449  1.7431
   76TIP3    H2  193   6.044   0.799   4.185  0.3507 -0.3662  2.6788
   77TIP3   OH2  194   5.945   2.269   3.736  0.6889 -0.0822 -0.3905
   77TIP3    H1  195   5.910   2.181   3.721  1.9584 -0.7746  0.5382
   77TIP3    H2  196   5.992   2.262   3.819 -0.9607  2.0293  0.8144
   78TIP3   OH2  197   2.805   0.714   2.197  0.4289  0.1442 -0.2462
   78TIP3    H1  198   2.737   0.653   2.168 -0.3588  0.4038  1.0059
   78TIP3    H2  199   2.867   0.659   2.246  0.0006  0.2392  0.4188
   79TIP3   OH2  200   5.696   2.728   1.527 -0.0125  0.2260  0.5969
   79TIP3    H1  201   5.680   2.798   1.591 -1.0671  1.3110 -0.8211
   79TIP3    H2  202   5.635   2.658   1.551 -1.1704  1.0685  0.1282
   80TIP3   OH2  203   2.046   4.916   4.252 -0.4468  0.2827  0.0073
   80TIP3    H1  204   1.980   4.963   4.301 -1.2006  0.1780 -0.8714
   80TIP3    H2  205   2.099   4.872   4.318 -0.7619  1.0178  0.7560
   81TIP3   OH2  206   2.117   0.463   2.051 -0.9045 -0.2465 -0.1477
   81TIP3    H1  207   2.033   0.427   2.080 -1.2025 -1.2568 -2.0555
   81TIP3    H2  208   2.093   0.538   1.997 -0.5562 -0.1734 -0.1994
   82TIP3   OH2  209   1.728   2.963   3.236 -0.1053 -0.2624  0.3792
   82TIP3    H1  210   1.744   2.870   3.218  1.2080 -0.3768  1.9141
   82TIP3    H2  211   1.633   2.972   3.232 -0.2622 -1.6717  0.2436
   83TIP3   OH2  212   6.596   1.796   4.324  0.1232 -0.0160  0.4990
   83TIP3    H1  213   6.501   1.784   4.330 -0.0944  1.6727  1.0377
   83TIP3    H2  214   6.607   1.866   4.259  1.1089 -1.2536 -0.7284
   84TIP3   OH2  215   4.236   1.769   1.800 -0.3142 -0.4254  0.3978
   84TIP3    H1  216   4.248   1.743   1.708 -0.5023 -0.3150  0.3407
   84TIP3    H2  217   4.307   1.725   1.847  0.0879 -0.0852  0.1232
   85TIP3   OH2  218   6.531   3.917   1.531 -0.0386  0.1755  0.4014
   85TIP3    H1  219   6.443   3.891   1.503  0.5263  2.0677 -3.8816
   85TIP3    H2  220   6.581   3.835   1.532 -1.0534 -0.4828 -0.7169
   86TIP3   OH2  221   5.463   4.811   3.400 -0.1455  0.1334 -0.1701
   86TIP3    H1  222   5.455   4.763   3.482  1.4057  0.6631  0.3275
   86TIP3    H2  223   5.538   4.770   3.356 -0.1930  0.6628 -0.7529
   87TIP3   OH2  224   1.225   4.555   4.470 -0.5436 -0.1917 -0.1629
   87TIP3    H1  225   1.193   4.479   4.421 -0.3373 -1.1114  1.0659
   87TIP3    H2  226   1.313   4.530   4.498 -0.3948  0.5912  0.0845
   88TIP3   OH2  227   6.815   5.393   0.515 -0.6528 -0.3716  0.7163
   88TIP3    H1  228   6.780   5.334   0.448  0.5732  0.5090 -0.7912
   88TIP3    H2  229   6.739   5.441   0.547 -1.0257  1.3742 -2.3332
   89TIP3   OH2  230   2.166   6.094   2.234 -0.3269 -0.4965 -0.1164
   89TIP3    H1  231   2.186   6.033   2.306  1.2868  1.1212  0.9003
   89TIP3    H2  232   2.231   6.073   2.167  1.8822  1.5358  1.2075
   90TIP3   OH2  233   0.185   2.664   4.249  0.0605 -0.0590  0.0159
   90TIP3    H1  234   0.264   2.716   4.231 -0.4887  1.2655  1.2383
   90TIP3    H2  235   0.202   2.580   4.207  1.3409  0.8186 -1.3283
   91TIP3   OH2  236   1.406   1.739   0.232  0.5113  0.0990  0.0509
   91TIP3    H1  237   1.385   1.670   0.169 -1.4201 -1.3312  2.1114
   91TIP3    H2  238   1.324   1.757   0.277  1.6636  1.5115  1.7286
   92TIP3   OH2  239   0.752   5.354   5.661  0.0998  0.1452  0.2500
   92TIP3    H1  240   0.806   5.384   5.735 -0.4097  2.4159 -0.2442
   92TIP3    H2  241   0.713   5.272   5.693  1.2176  0.1703  1.8487
   93TIP3   OH2  242   5.856   2.148   3.140  0.0758 -0.3805  0.1188
   93TIP3    H1  243   5.894   2.215   3.196 -0.8329  0.9589 -0.8005
   93TIP3    H2  244   5.773   2.126   3.182 -0.3119  0.1665 -0.3406
   94TIP3   OH2  245   3.019   2.176   1.595  0.2924  0.0826 -0.1373
   94TIP3    H1  246   3.038   2.123   1.518 -0.5426 -0.2059 -0.1511
   94TIP3    H2  247   3.037   2.117   1.669 -0.8500 -0.3137 -0.1560
   95TIP3   OH2  248   2.561   5.333   3.991 -0.4866  0.1676 -0.6769
   95TIP3    H1  249   2.595   5.300   3.908  0.7709  0.2878 -0.2321
   95TIP3    H2  250   2.512   5.412   3.967  3.3875  2.7175 -0.9819
   96TIP3   OH2  251   4.953   1.050   3.288 -0.3156 -0.2996  0.2979
   96TIP3    H1  252   5.042   1.086   3.283 -0.2509 -0.5468 -0.3844
   96TIP3    H2  253   4.933   1.050   3.382  0.4479 -0.3430  0.4710
   97TIP3   OH2  254   0.449   0.580   5.523  0.5551 -0.4167  0.0542
   97TIP3    H1  255   0.517   0.570   5.590  2.2319 -1.5470 -1.6899
   97TIP3    H2  256   0.446   0.674   5.506 -0.0299 -0.0905  1.7919
   98TIP3   OH2  257   3.900   0.134   5.755  0.0662 -1.0878  0.2088
   98TIP3    H1  258   3.822   0.158   5.706  0.9574  3.3794  0.6041
   98TIP3    H2  259   3.956   0.089   5.691 -0.5014  0.8464 -1.7419
   99TIP3   OH2  260   5.955   0.465   0.162 -0.3265  0.0792 -0.0687
   99TIP3    H1  261   6.015   0.397   0.192 -0.7053  0.3581  1.4128
   99TIP3    H2  262   6.009   0.526   0.112  0.3358 -0.3889  0.0731
  100TIP3   OH2  263   2.228   5.836   2.975  0.2359  0.7337  0.4130
  100TIP3    H1  264   2.306   5.866   2.928  1.4171 -0.5927  1.4525
  100TIP3    H2  265   2.244   5.862   3.065  0.2667 -0.9881  0.9317
  101TIP3   OH2  266   0.323   1.072   3.247  0.5837 -0.1863  0.1268
  101TIP3    H1  267   0.271   1.093   3.324  0.0079  1.6637 -0.7213
  101TIP3    H2  268   0.414   1.077   3.277  0.7540  5.6882 -0.2160
  102TIP3   OH2  269   3.419   3.450   2.188  0.0362 -0.0480 -0.4505
  102TIP3    H1  270   3.342   3.500   2.216  0.2490  0.8102 -1.3288
  102TIP3    H2  271   3.393   3.359   2.196 -0.9845  0.2245 -0.5070
  103TIP3   OH2  272   5.779   5.438   3.424  0.1363 -0.1911 -0.2820
  103TIP3    H1  273   5.871   5.460   3.434 -0.4610  2.0185  0.8939
  103TIP3    H2  274   5.741   5.513   3.379 -1.4683 -0.1127  1.1388
  104TIP3   OH2  275   6.055   2.609   0.140 -0.4255  0.1910  0.5141
  104TIP3    H1  276   6.014   2.525   0.158  0.5800 -0.4502 -0.1102
  104TIP3    H2  277   6.006   2.645   0.066  0.4314 -0.8108 -0.5754
  105TIP3   OH2  278   1.136   6.479   3.169 -0.2193  0.0783 -0.1737
  105TIP3    H1  279   1.108   6.432   3.090  0.4954 -0.4024 -0.1540
  105TIP3    H2  280   1.169   6.411   3.227 -0.0539  0.5073  0.2437
  106TIP3   OH2  281   6.662   3.018   2.190 -0.0220 -0.2444  0.3291
  106TIP3    H1  282   6.572   2.987   2.201  0.1456 -0.6083  0.7252
  106TIP3    H2  283   6.675   3.021   2.096 -0.5508  0.1128  0.2620
  107TIP3   OH2  284   3.059   6.150   1.037  0.0792  0.3664 -0.1361
  107TIP3    H1  285   3.026   6.132   0.949  1.1058 -0.2740 -0.4143
  107TIP3    H2  286   2.995   6.110   1.095 -0.4441  0.5086 -0.6060
  108TIP3   OH2  287   2.505   0.210   0.001  0.0701  0.4255  0.5588
  108TIP3    H1  288   2.569   0.282   0.004 -0.0416  0.5049  1.1776
  108TIP3    H2  289   2.551   0.136   0.039  0.0117  0.3063  0.3972
  109TIP3   OH2  290   0.210   2.588   4.529  0.1161  0.0057 -0.7002
  109TIP3    H1  291   0.271   2.644   4.576 -2.4347  0.3444  2.5725
  109TIP3    H2  292   0.159   2.649   4.474  0.6104  0.1714 -0.9767
  110TIP3   OH2  293   3.618   4.985   5.657  0.0914  0.2180 -0.3044
  110TIP3    H1  294   3.646   5.042   5.586  0.2118 -0.4468 -0.8004
  110TIP3    H2  295   3.533   5.019   5.684  0.0757  0.5102 -0.7267
  111TIP3   OH2  296   0.696   5.291   0.914 -0.2038  0.6089  0.1079
  111TIP3    H1  297   0.611   5.335   0.917  0.8409  2.8538 -0.6246
  111TIP3    H2  298   0.731   5.313   0.828  1.5865  0.7086  0.8143
  112TIP3   OH2  299   5.257   0.863   4.119  0.0252  0.4680  0.4897
  112TIP3    H1  300   5.332   0.918   4.142  0.8878 -0.3186 -0.3391
  112TIP3    H2  301   5.181   0.917   4.138  0.8241  1.6937  0.3396
  113TIP3   OH2  302   3.469   4.294   5.015  0.5867 -0.2446  0.0011
  113TIP3    H1  303   3.503   4.359   5.077 -0.7163  1.0097 -0.5437
  113TIP3    H2  304   3.381   4.274   5.047  0.1461 -0.0758 -1.0616
  114TIP3   OH2  305   4.673   6.008   1.976 -0.2632  0.2077  0.6641
  114TIP3    H1  306   4.768   6.001   1.986  0.7386 -0.7867 -5.4364
  114TIP3    H2  307   4.639   5.924   2.006  1.1874 -0.4982  0.3804
  115TIP3   OH2  308   4.394   2.778   4.205  0.0085  0.4578 -0.0817
  115TIP3    H1  309   4.382   2.734   4.289  1.5761 -0.9195 -0.5380
  115TIP3    H2  310   4.366   2.714   4.139  3.8104 -0.7061 -0.8487
  116TIP3   OH2  311   2.168   0.445   5.038  0.3362  0.6502 -0.2251
  116TIP3    H1  312   2.152   0.366   4.986  0.7015 -1.6568  2.9297
  116TIP3    H2  313   2.080   0.474   5.064  0.2542  0.7869 -0.6367
  117TIP3   OH2  314   4.106   2.373   1.796  0.3435  0.2362  0.1603
  117TIP3    H1  315   4.030   2.383   1.738 -0.9836 -1.2678  1.5076
  117TIP3    H2  316   4.166   2.317   1.747 -0.2580 -0.1095 -0.1978
  118TIP3   OH2  317   3.814   5.578   0.456  0.5513 -0.0450 -0.2231
  118TIP3    H1  318   3.808   5.649   0.521  0.6408 -0.6159  0.4221
  118TIP3    H2  319   3.764   5.610   0.381  0.1769  0.5001  0.2476
  119TIP3   OH2  320   4.523   4.195   0.527  0.1838 -0.4246 -0.1290
  119TIP3    H1  321   4.508   4.181   0.434  0.5041  1.5279 -0.5116
  119TIP3    H2  322   4.436   4.187   0.567 -0.2433  0.4479 -0.8531
  120TIP3   OH2  323   4.140   0.460   2.076  0.7095  0.0785 -0.7442
  120TIP3    H1  324   4.149   0.368   2.101  1.0490  0.0422 -0.9962
  120TIP3    H2  325   4.082   0.497   2.142  0.1500 -0.4386 -0.9386
  121TIP3   OH2  326   0.807   4.889   3.710 -0.3313 -0.2448 -0.5863
  121TIP3    H1  327   0.833   4.887   3.802 -0.2691 -0.8397 -0.6111
  121TIP3    H2  328   0.716   4.920   3.711 -0.0027  0.7471 -0.4116
  122TIP3   OH2  329   2.918   5.642   5.863 -0.1066  0.2631 -0.0018
  122TIP3    H1  330   2.840   5.621   5.913 -0.6608  3.0462  0.4787
  122TIP3    H2  331   2.888   5.700   5.793  1.2474 -0.2811 -1.0918
  123TIP3   OH2  332   0.669   5.145   4.649 -0.4241  0.1604 -0.5253
  123TIP3    H1  333   0.575   5.143   4.630 -0.2635 -1.5357 -1.3445
  123TIP3    H2  334   0.674   5.158   4.744 -1.5536 -1.4294 -0.2173
  124TIP3   OH2  335   3.240   4.134   5.137 -0.1277  0.2879  0.3232
  124TIP3    H1  336   3.281   4.106   5.219 -2.4784 -0.4682  1.3382
  124TIP3    H2  337   3.147   4.142   5.159 -0.5040  2.4735 -1.6755
  125TIP3   OH2  338   1.584   1.311   2.333 -0.3033  0.5343  0.4541
  125TIP3    H1  339   1.611   1.386   2.280 -1.3740  2.1855  2.1645
  125TIP3    H2  340   1.665   1.282   2.376  0.0820  0.7777 -0.0928
  126TIP3   OH2  341   6.033   5.021   4.395  0.1736  0.0235  0.3885
  126TIP3    H1  342   6.005   5.073   4.320 -1.9491 -2.9379 -1.0681
  126TIP3    H2  343   6.129   5.018   4.387  0.0994  0.9802 -1.2997
  127TIP3   OH2  344   4.087   2.724   2.742  0.5383  0.7491  0.5666
  127TIP3    H1  345   4.094   2.644   2.795 -0.4628  1.0293  1.1404
  127TIP3    H2  346   3.993   2.740   2.734  0.6532  0.7952 -1.1989
  128TIP3   OH2  347   1.009   0.590   5.420  0.0916  0.2073  0.2455
  128TIP3    H1  348   1.093   0.625   5.391 -0.2665  2.0938  1.2994
  128TIP3    H2  349   1.026   0.558   5.509 -0.0320 -0.6159 -0.0155
  129TIP3   OH2  350   0.591   0.828   0.982 -0.4454 -0.1082  0.4605
  129TIP3    H1  351   0.565   0.919   0.971 -1.8474 -0.7312 -2.4437
  129TIP3    H2  352   0.675   0.820   0.938  0.7766  0.1672  2.6267
  130TIP3   OH2  353   1.200   3.855   4.887  0.1235 -0.0458  0.3860
  130TIP3    H1  354   1.222   3.930   4.941 -2.5301  1.2491 -0.2102
  130TIP3    H2  355   1.239   3.875   4.802 -2.2299  1.7465 -0.3718
  131TIP3   OH2  356   0.371   0.816   5.054 -0.4023 -0.4773 -0.2735
  131TIP3    H1  357   0.383   0.723   5.036  0.5240 -0.5200  0.5061
  131TIP3    H2  358   0.289   0.821   5.103  1.4220 -1.3785  3.1421
  132TIP3   OH2  359   0.120   4.039   0.357  0.7814 -0.4358 -0.4066
  132TIP3    H1  360   0.174   4.117   0.347  2.0861 -1.2658 -0.0706
  132TIP3    H2  361   0.143   3.983   0.282 -1.0822 -0.0101 -1.3773
  133TIP3   OH2  362   3.960   2.675   5.018  0.0743  0.4459  0.1299
  133TIP3    H1  363   4.001   2.758   4.991 -0.1997  0.6009  0.1828
  133TIP3    H2  364   4.010   2.608   4.972 -0.5866  0.7167 -1.0399
  134TIP3   OH2  365   4.692   3.805   5.679 -0.3187  0.1751 -0.0029
  134TIP3    H1  366   4.729   3.890   5.656 -0.9528  0.1002 -1.4290
  134TIP3    H2  367   4.765   3.744   5.670 -0.1823  0.3789 -0.3078
  135TIP3   OH2  368   5.481   2.412   2.187 -0.1885 -0.0200  0.0033
  135TIP3    H1  369   5.446   2.472   2.253  0.2645  0.6302 -0.3463
  135TIP3    H2  370   5.426   2.425   2.110  0.1544  0.2312 -0.2000
  136TIP3   OH2  371   3.728   3.480   0.436  0.2180  0.0848  0.1425
  136TIP3    H1  372   3.728   3.551   0.500 -1.8083  2.8600 -2.6505
  136TIP3    H2  373   3.770   3.517   0.359 -1.4318 -1.5023 -1.6215
  137TIP3   OH2  374   0.992   2.452   2.939  0.0376  0.6239  0.2632
  137TIP3    H1  375   0.985   2.393   2.864 -0.0791  0.4790  0.3860
  137TIP3    H2  376   0.966   2.537   2.905  2.7838  1.2038 -0.5995
  138TIP3   OH2  377   1.617   3.259   1.957  0.0436  0.6065  0.4877
  138TIP3    H1  378   1.533   3.285   1.996 -2.1559 -1.4881 -2.4470
  138TIP3    H2  379   1.669   3.340   1.959 -1.2221  1.5384  4.0873
  139TIP3   OH2  380   1.849   1.761   4.762  0.0209 -0.0336  0.1473
  139TIP3    H1  381   1.794   1.684   4.749 -0.4425  0.1212  1.1157
  139TIP3    H2  382   1.797   1.834   4.729  0.8221 -0.2071 -1.6298
  140TIP3   OH2  383   5.203   2.197   4.526  0.2530  0.3311 -0.1918
  140TIP3    H1  384   5.220   2.123   4.468  1.0497  1.2068 -1.0995
  140TIP3    H2  385   5.286   2.243   4.533 -0.3417  1.4234 -0.0376
  141TIP3   OH2  386   4.733   5.466   0.353  0.2461  0.6739 -0.0334
  141TIP3    H1  387   4.784   5.543   0.326  0.1974  1.2648  1.4657
  141TIP3    H2  388   4.653   5.471   0.300  1.5798 -0.1429 -2.2525
  142TIP3   OH2  389   5.903   1.799   1.394 -0.0129  0.0479  0.3792
  142TIP3    H1  390   5.956   1.760   1.463 -0.6632  0.6197  1.2314
  142TIP3    H2  391   5.911   1.894   1.408 -2.0382  0.1627  1.2003
  143TIP3   OH2  392   3.604   3.555   4.974 -0.1451 -0.9522  0.3886
  143TIP3    H1  393   3.606   3.502   4.894 -0.4715 -0.1159 -0.1929
  143TIP3    H2  394   3.568   3.639   4.946  2.1591  0.2915  0.8307
  144TIP3   OH2  395   7.155   2.052   4.953  0.4532  0.7075  0.2098
  144TIP3    H1  396   7.117   2.127   4.906  1.1310  2.1776  1.9116
  144TIP3    H2  397   7.205   2.005   4.886 -2.0437  0.2500 -1.4755
  145TIP3   OH2  398   0.328   2.725   0.606  0.1631  0.0744  0.5768
  145TIP3    H1  399   0.398   2.750   0.546 -1.7773  1.6581 -1.1780
  145TIP3    H2  400   0.321   2.630   0.596  1.1094  0.0681 -0.2724
  146TIP3   OH2  401   6.871   4.915   3.318 -0.5484 -0.3629 -0.1321
  146TIP3    H1  402   6.777   4.922   3.300 -0.5086 -1.5360 -0.8984
  146TIP3    H2  403   6.884   4.823   3.341  0.6811 -0.6243 -1.7565
  147TIP3   OH2  404   6.992   2.076   1.933  0.1099  0.2223 -0.3851
  147TIP3    H1  405   6.899   2.069   1.953  0.5018  0.5402  1.8056
  147TIP3    H2  406   7.019   1.987   1.910 -0.5894 -0.0046 -0.3402
  148TIP3   OH2  407   7.011   0.205   4.970  1.1169  0.3311  0.0839
  148TIP3    H1  408   6.984   0.140   4.906  2.4660 -0.9585  0.7683
  148TIP3    H2  409   7.009   0.288   4.922 -2.4119  0.1802 -0.3312
  149TIP3   OH2  410   2.844   4.507   0.467  0.3667  0.4592 -0.4397
  149TIP3    H1  411   2.933   4.518   0.434  0.6693 -0.8574 -0.1182
  149TIP3    H2  412   2.837   4.414   0.488 -0.9521  0.6172 -0.0598
  150TIP3   OH2  413   1.266   4.434   3.583  0.3073  0.1076 -0.1712
  150TIP3    H1  414   1.320   4.449   3.506 -1.5027  1.3838 -1.2557
  150TIP3    H2  415   1.232   4.520   3.606  1.9359  0.0671  3.0389
  151TIP3   OH2  416   0.907   0.615   0.654 -0.1088 -0.0118  0.6926
  151TIP3    H1  417   0.973   0.589   0.718  0.7661  1.1189  0.2697
  151TIP3    H2  418   0.956   0.657   0.584 -1.2042  0.1339 -0.0154
  152TIP3   OH2  419   3.582   4.920   1.313 -0.5430 -0.0791  1.1145
  152TIP3    H1  420   3.510   4.874   1.356 -0.3915  0.4032  1.8941
  152TIP3    H2  421   3.650   4.928   1.380  0.3254 -0.7042  0.3315
  153TIP3   OH2  422   4.574   2.665   1.597  0.3136 -0.3951  0.2656
  153TIP3    H1  423   4.544   2.612   1.524  1.1603  0.5163 -0.7705
  153TIP3    H2  424   4.597   2.601   1.665 -2.0079 -1.1774  0.3881
  154TIP3   OH2  425   5.001   6.338   2.151  0.0752  0.4820  0.2231
  154TIP3    H1  426   4.906   6.334   2.159  0.1259 -0.0532  0.6100
  154TIP3    H2  427   5.024   6.427   2.180 -0.2827  0.5420  0.3219
  155TIP3   OH2  428   2.548   3.044   1.027 -0.4271 -0.1772  0.1414
  155TIP3    H1  429   2.464   3.090   1.021  1.2880  3.0976 -1.8001
  155TIP3    H2  430   2.563   3.032   1.121 -2.6098 -0.0657  0.5590
  156TIP3   OH2  431   1.691   3.266   3.195  0.3937 -0.0929 -0.3592
  156TIP3    H1  432   1.665   3.308   3.277 -1.7882  0.4836 -1.2933
  156TIP3    H2  433   1.695   3.173   3.216  0.4138  0.0972  0.5251
  157TIP3   OH2  434   0.074   3.897   3.431 -0.2308 -0.3381  0.8981
  157TIP3    H1  435   0.142   3.847   3.386  1.8585  0.2927  3.1218
  157TIP3    H2  436   0.103   3.988   3.427 -1.4901  0.0964  1.0365
  158TIP3   OH2  437   3.832   2.423   0.921 -0.5954  0.3743 -0.7807
  158TIP3    H1  438   3.842   2.517   0.913 -1.7474  0.5579 -0.2891
  158TIP3    H2  439   3.920   2.388   0.909  0.5072  1.7324  2.3772
  159TIP3   OH2  440   6.933   0.385   0.370  0.2862  0.1725  0.2426
  159TIP3    H1  441   6.965   0.470   0.398  0.5159 -0.5013  2.1365
  159TIP3    H2  442   6.845   0.378   0.408  1.9757 -2.2852  4.3235
  160TIP3   OH2  443   5.528   2.769   2.259  0.6709  0.6541  0.2718
  160TIP3    H1  444   5.577   2.843   2.296  1.2869  0.1544  0.4662
  160TIP3    H2  445   5.595   2.706   2.234  0.1524  0.2080 -0.0014
  161TIP3   OH2  446   1.370   2.277   0.615 -0.6465  0.0402 -0.2324
  161TIP3    H1  447   1.396   2.257   0.525  1.7514 -0.0084  0.4079
  161TIP3    H2  448   1.414   2.359   0.635  1.3737 -1.4167  1.8025
  162TIP3   OH2  449   4.384   3.260   0.306 -0.0276 -1.0520  0.0039
  162TIP3    H1  450   4.381   3.344   0.352 -1.5612 -0.0941 -1.7116
  162TIP3    H2  451   4.294   3.228   0.307  0.5544 -2.7493  0.7097
  163TIP3   OH2  452   0.451   3.959   0.977 -0.0724  0.2219 -0.1695
  163TIP3    H1  453   0.464   3.911   1.059  0.2258 -0.5332 -0.6498
  163TIP3    H2  454   0.533   4.008   0.964  0.3348 -0.5542 -0.5925
  164TIP3   OH2  455   0.417   3.587   4.521 -0.6841 -0.3654 -0.0461
  164TIP3    H1  456   0.498   3.553   4.483 -0.7835 -0.7165  0.0509
  164TIP3    H2  457   0.417   3.554   4.611 -1.1539 -0.7627 -0.1801
  165TIP3   OH2  458   5.408   4.594   3.905  0.1948 -0.2338  0.1153
  165TIP3    H1  459   5.490   4.627   3.942  0.9317 -1.7336 -0.1181
  165TIP3    H2  460   5.407   4.501   3.927 -0.2276 -0.7864 -2.0282
  166TIP3   OH2  461   7.040   1.027   0.358  0.5120  0.3345  0.0236
  166TIP3    H1  462   7.096   0.997   0.429  0.9367  2.3037  0.5982
  166TIP3    H2  463   6.996   0.948   0.326 -0.1731 -0.5462  2.8691
  167TIP3   OH2  464   1.048   3.118   3.814 -0.1059  0.3222  0.4205
  167TIP3    H1  465   1.013   3.203   3.787 -0.5027  0.0728  0.1515
  167TIP3    H2  466   1.143   3.129   3.806 -0.2056  0.0239 -1.8658
  168TIP3   OH2  467   0.165   1.340   4.697 -0.2240 -0.1643  0.2599
  168TIP3    H1  468   0.244   1.289   4.715  0.1958  0.0202 -0.9998
  168TIP3    H2  469   0.146   1.323   4.605  0.2500  2.3891 -0.3677
  169TIP3   OH2  470  -0.005   1.249   4.290 -0.0012  0.1403 -0.0508
  169TIP3    H1  471   0.036   1.251   4.204  2.1549 -1.8390  0.8411
  169TIP3    H2  472   0.067   1.267   4.351 -1.4733  1.4764  1.3862
  170TIP3   OH2  473   3.823   2.526   1.922 -0.3617 -0.5233 -0.0850
  170TIP3    H1  474   3.745   2.527   1.866 -0.1901 -0.8469 -0.3397
  170TIP3    H2  475   3.821   2.440   1.964  0.4374 -0.9845 -0.9396
  171TIP3   OH2  476   3.250   3.638   5.500 -0.2622 -0.4230  0.0528
  171TIP3    H1  477   3.213   3.579   5.434 -0.3225 -0.4520  0.1110
  171TIP3    H2  478   3.289   3.709   5.450 -1.2748  0.1181  0.0132
  172TIP3   OH2  479   5.369   3.014   1.111  0.6464 -0.2665  0.0875
  172TIP3    H1  480   5.286   2.967   1.109  0.4751  0.0319  0.0569
  172TIP3    H2  481   5.434   2.948   1.134  0.3812 -0.4751  0.2441
  173TIP3   OH2  482   0.669   2.003   0.147 -0.5427  0.0871 -0.2544
  173TIP3    H1  483   0.610   2.054   0.092 -0.4697  1.0283  0.5042
  173TIP3    H2  484   0.631   1.916   0.150 -0.1625 -0.2121 -2.3739
  174TIP3   OH2  485   0.896   0.145   2.067  0.2695 -0.4293  0.1709
  174TIP3    H1  486   0.890   0.057   2.105  0.6848 -0.7096 -0.4066
  174TIP3    H2  487   0.975   0.143   2.013  0.9888  0.6845  1.1388
  175TIP3   OH2  488   5.024   1.809   2.862 -0.0216  0.1815  0.1180
  175TIP3    H1  489   4.954   1.772   2.808  0.1442 -1.2736  0.8408
  175TIP3    H2  490   4.997   1.899   2.878 -1.1609 -0.0190 -0.5612
  176TIP3   OH2  491   3.078   5.748   5.168  0.1484  0.0451 -0.1795
  176TIP3    H1  492   3.105   5.719   5.081  0.4123 -0.0609 -0.0633
  176TIP3    H2  493   3.022   5.678   5.201  0.3656 -0.0968 -0.1079
  177TIP3   OH2  494   4.998   0.425   0.831  0.0886 -0.0968 -0.0920
  177TIP3    H1  495   5.076   0.391   0.786 -0.1680  0.7660 -1.2050
  177TIP3    H2  496   4.928   0.419   0.767 -0.8851 -1.2121  1.0222
  178TIP3   OH2  497   2.020   4.365   4.410 -0.0685  0.4187 -0.0151
  178TIP3    H1  498   2.055   4.358   4.321  2.8758  0.7342  1.0040
  178TIP3    H2  499   1.982   4.279   4.427 -0.2156  0.1818 -1.3823
  179TIP3   OH2  500   7.158   0.674   5.004 -0.9738  0.2379  0.7400
  179TIP3    H1  501   7.180   0.633   5.087  0.7056  1.3170  0.8717
  179TIP3    H2  502   7.242   0.703   4.968 -1.6341 -0.2407 -1.3757
  180TIP3   OH2  503   5.751   4.373   0.482  0.0246 -0.2834  0.4244
  180TIP3    H1  504   5.707   4.372   0.567 -0.3008 -0.4132  0.2606
  180TIP3    H2  505   5.750   4.281   0.454  1.3715 -0.4632  0.8965
  181TIP3   OH2  506   0.696   5.913   0.814  0.0955  0.1172  0.6395
  181TIP3    H1  507   0.622   5.887   0.869  0.0386 -0.3189  0.3554
  181TIP3    H2  508   0.706   6.007   0.831 -0.6053  0.2088  0.5840
  182TIP3   OH2  509   0.779   1.887   0.615  0.1326 -0.0255  0.1563
  182TIP3    H1  510   0.756   1.949   0.546  0.9203 -1.0671 -1.0972
  182TIP3    H2  511   0.722   1.909   0.688 -0.8175  1.0338 -0.8757
  183TIP3   OH2  512   1.794   0.437   1.097  0.0211 -0.0060 -0.4424
  183TIP3    H1  513   1.726   0.504   1.085  0.0927  0.2218  0.3814
  183TIP3    H2  514   1.876   0.484   1.084  0.1022  0.2492  0.8578
  184TIP3   OH2  515   3.728   5.516   3.253  0.1432  0.6407  0.6213
  184TIP3    H1  516   3.701   5.584   3.315 -2.1695  2.0293 -1.6936
  184TIP3    H2  517   3.658   5.513   3.188  1.9331 -1.4055 -1.4274
  185TIP3   OH2  518   6.609   2.914   3.129 -0.6879  0.4807  0.1679
  185TIP3    H1  519   6.678   2.849   3.144  0.9700  2.0369 -0.3263
  185TIP3    H2  520   6.609   2.927   3.034  0.0109  2.1750  0.3632
  186TIP3   OH2  521   0.460   0.151   5.030  0.0040  0.2396 -0.2161
  186TIP3    H1  522   0.396   0.085   5.055 -0.7410  0.5195 -1.3058
  186TIP3    H2  523   0.539   0.128   5.080 -0.1712 -1.5918 -0.7102
  187TIP3   OH2  524   1.339   3.134   1.400 -0.1976  0.7390 -0.4612
  187TIP3    H1  525   1.410   3.096   1.347 -1.0105 -2.8016  0.7406
  187TIP3    H2  526   1.269   3.150   1.337  0.4590  1.0781 -1.1328
  188TIP3   OH2  527   7.089   0.751   1.428  0.4612 -0.2753 -0.2129
  188TIP3    H1  528   7.165   0.781   1.479  0.8519 -2.9508  0.9501
  188TIP3    H2  529   7.121   0.742   1.339  0.3354  2.4841 -0.6155
  189TIP3   OH2  530   4.389   6.453   5.516  0.5385 -0.7102 -0.3841
  189TIP3    H1  531   4.370   6.542   5.547 -0.0481 -0.9079 -0.1540
  189TIP3    H2  532   4.472   6.461   5.469  0.0556  0.1300 -1.1303
  190TIP3   OH2  533   0.472   2.145   3.657 -1.0176  0.3051  0.2611
  190TIP3    H1  534   0.458   2.235   3.686  2.6968  1.5154 -1.0913
  190TIP3    H2  535   0.484   2.152   3.562 -0.8247 -1.6502  0.0943
  191TIP3   OH2  536   3.520   2.526   3.336  0.2800  0.0001 -0.1998
  191TIP3    H1  537   3.480   2.612   3.341  1.4442  0.6265 -1.1415
  191TIP3    H2  538   3.579   2.522   3.411 -0.9096 -0.6161  0.7369
  192TIP3   OH2  539   0.503   3.453   0.116  0.5863 -1.0474 -0.1239
  192TIP3    H1  540   0.537   3.390   0.053  1.5932  0.4758 -1.1795
  192TIP3    H2  541   0.575   3.465   0.178  0.9848  0.1315 -0.7848
  193TIP3   OH2  542   2.874   4.939   2.605  0.5177 -0.0855 -0.2774
  193TIP3    H1  543   2.874   5.035   2.603 -1.4416 -0.0404 -1.0943
  193TIP3    H2  544   2.889   4.916   2.696 -0.6251  1.0636  0.2298
  194TIP3   OH2  545   6.856   3.605   3.632 -0.3244 -0.5198  0.7764
  194TIP3    H1  546   6.778   3.635   3.677 -0.0469  1.4568  0.0359
  194TIP3    H2  547   6.865   3.663   3.557  2.1719 -0.2991  1.1445
  195TIP3   OH2  548   1.627   3.760   1.700 -0.2517  0.0024 -0.4724
  195TIP3    H1  549   1.540   3.785   1.732 -0.7353 -0.8619 -1.0728
  195TIP3    H2  550   1.611   3.682   1.647  0.8181  0.2036 -1.1034
  196TIP3   OH2  551   5.255   5.622   5.307  0.6797 -0.2213 -0.2601
  196TIP3    H1  552   5.245   5.584   5.220  1.0921 -0.0449 -0.3871
  196TIP3    H2  553   5.168   5.613   5.348 -0.2906  2.0456 -1.6402
  197TIP3   OH2  554   7.197   0.950   3.966 -0.2189  0.1072  0.0781
  197TIP3    H1  555   7.113   0.928   4.006 -0.6918  0.8895 -0.4548
  197TIP3    H2  556   7.195   1.045   3.957  1.5124  0.3607  1.7498
  198TIP3   OH2  557   1.973   5.649   5.156 -0.5177 -0.6967  0.4988
  198TIP3    H1  558   1.933   5.627   5.240  0.6235 -1.9282  0.7517
  198TIP3    H2  559   2.059   5.685   5.180 -0.8133  0.4610 -0.0958
  199TIP3   OH2  560   3.341   5.779   1.449 -0.2277  0.4061 -0.0239
  199TIP3    H1  561   3.426   5.783   1.406 -0.9559 -2.4333 -2.0387
  199TIP3    H2  562   3.342   5.850   1.512  4.1279 -0.3115  0.9906
  200TIP3   OH2  563   3.113   6.710   2.932 -0.4636 -0.3185 -0.0908
  200TIP3    H1  564   3.151   6.757   3.006  2.7060 -0.5633 -1.3752
  200TIP3    H2  565   3.094   6.622   2.965  0.2063 -0.1989  0.6236
  201TIP3   OH2  566   1.775   1.211   2.785  0.6012 -0.2095 -0.5500
  201TIP3    H1  567   1.830   1.252   2.851  0.8370  0.4201 -1.1322
  201TIP3    H2  568   1.791   1.261   2.705  0.3757 -1.0055 -1.1080
  202TIP3   OH2  569   6.109   5.516   2.661 -0.5579 -0.1867 -0.1084
  202TIP3    H1  570   6.091   5.610   2.655 -1.5717 -0.2517  1.2732
  202TIP3    H2  571   6.024   5.475   2.646 -0.2916 -0.8369  0.1419
  203TIP3   OH2  572   3.148   0.702   1.494  0.1998  0.4932 -0.0474
  203TIP3    H1  573   3.221   0.723   1.436  0.6716  0.5061  0.5443
  203TIP3    H2  574   3.127   0.784   1.537  1.9166 -0.1005  2.1165
  204TIP3   OH2  575   5.081   1.343   4.629  0.0178  0.0288  0.1253
  204TIP3    H1  576   5.128   1.261   4.622  1.2305  0.6917  0.2581
  204TIP3    H2  577   5.049   1.346   4.719 -1.4476 -1.0150 -0.3217
  205TIP3   OH2  578   4.780   5.627   4.475  0.5546  0.1628  0.0667
  205TIP3    H1  579   4.808   5.560   4.537  0.1157 -1.3102 -1.2400
  205TIP3    H2  580   4.685   5.617   4.471  0.5640  0.2972 -0.7407
  206TIP3   OH2  581   3.898   4.013   5.003 -0.0652  0.1994  0.1024
  206TIP3    H1  582   3.980   4.057   5.025 -0.1445  0.9389 -0.9854
  206TIP3    H2  583   3.923   3.949   4.936 -0.1263 -0.6857  0.9158
  207TIP3   OH2  584   2.418   5.131   4.720 -0.6336  0.6300 -0.2684
  207TIP3    H1  585   2.350   5.121   4.786 -0.3728  1.1316  0.0857
  207TIP3    H2  586   2.489   5.073   4.750 -0.7474  0.4060 -0.4284
  208TIP3   OH2  587   4.633   5.727   0.511  0.4510  0.5486  0.5206
  208TIP3    H1  588   4.548   5.740   0.469  0.2209 -0.3300  0.6957
  208TIP3    H2  589   4.634   5.634   0.536  2.1292  0.0845 -1.0024
  209TIP3   OH2  590   2.411   6.421  -0.010  0.3456 -0.0960  0.3529
  209TIP3    H1  591   2.423   6.439   0.084 -0.7636 -1.5507  0.8195
  209TIP3    H2  592   2.450   6.497  -0.054 -0.3789  1.3261  2.0220
  210TIP3   OH2  593   1.142   5.478   3.982  0.5603  0.2582  0.2110
  210TIP3    H1  594   1.104   5.554   4.025 -1.6258 -0.4064 -0.4133
  210TIP3    H2  595   1.107   5.403   4.031 -0.2592 -0.4307 -1.3609
  211TIP3   OH2  596   4.994   2.679   4.372 -0.3070 -0.2667 -0.3491
  211TIP3    H1  597   5.080   2.708   4.402  0.0425 -0.2296 -1.3257
  211TIP3    H2  598   4.996   2.583   4.382 -0.5441 -0.1851  0.5753
  212TIP3   OH2  599   6.806   2.648   1.272  0.2809  0.0496  0.3731
  212TIP3    H1  600   6.892   2.645   1.313  1.1226 -0.2693 -1.3312
  212TIP3    H2  601   6.803   2.570   1.217 -1.7560 -0.8266  1.5858
  213TIP3   OH2  602   6.119   2.574   1.285 -0.5564  0.4753  1.0957
  213TIP3    H1  603   6.068   2.653   1.304 -2.5839 -0.0324 -1.6270
  213TIP3    H2  604   6.080   2.506   1.341 -0.1217  0.9438  1.9881
  214TIP3   OH2  605   5.747   5.595   5.255  0.5218  0.1443 -0.3172
  214TIP3    H1  606   5.812   5.617   5.188 -0.5511  2.1629 -0.7644
  214TIP3    H2  607   5.671   5.564   5.205 -0.1616  1.3379 -0.0514
  215TIP3   OH2  608   7.173   1.465   2.928 -0.2210 -0.5847 -0.1467
  215TIP3    H1  609   7.080   1.462   2.952 -0.0405 -1.9825  0.5040
  215TIP3    H2  610   7.214   1.512   3.001 -0.4872  0.6418 -0.7638
  216TIP3   OH2  611   3.784   1.239   5.409 -0.1633 -0.2417 -0.3197
  216TIP3    H1  612   3.788   1.273   5.320  0.4359  0.5666  0.0025
  216TIP3    H2  613   3.696   1.262   5.439 -0.1855 -0.0532 -0.5241
  217TIP3   OH2  614   6.856   2.222   5.126  0.1323 -0.3757  0.6112
  217TIP3    H1  615   6.804   2.224   5.207 -0.6962 -2.1571  0.1871
  217TIP3    H2  616   6.942   2.191   5.154  0.5180  1.0720  1.0942
  218TIP3   OH2  617   2.723   1.498   1.859 -0.2014  0.1958  0.0341
  218TIP3    H1  618   2.633   1.515   1.886 -0.8894 -2.2354 -0.4938
  218TIP3    H2  619   2.762   1.453   1.934  0.4983  0.9442  0.1341
  219TIP3   OH2  620   0.435   5.344   5.859 -0.1539 -0.6678 -0.1102
  219TIP3    H1  621   0.501   5.279   5.836 -1.3992 -1.6761 -1.0326
  219TIP3    H2  622   0.483   5.427   5.863  0.8360 -0.9585 -3.0265
  220TIP3   OH2  623   3.816   3.262   3.567 -0.8978  0.2500  0.1746
  220TIP3    H1  624   3.899   3.301   3.596 -0.4057  0.3485 -1.2756
  220TIP3    H2  625   3.786   3.320   3.497 -2.3488  0.3684  0.8604
  221TIP3   OH2  626   5.221   5.410   3.595  0.2524 -0.4740 -0.2937
  221TIP3    H1  627   5.191   5.497   3.571  0.7462  0.3900  1.9019
  221TIP3    H2  628   5.312   5.424   3.624  0.6882 -1.9081 -0.8953
  222TIP3   OH2  629   4.704   5.832   4.814 -0.4633  0.3685  0.6491
  222TIP3    H1  630   4.797   5.810   4.807 -0.5794  0.1435 -0.2906
  222TIP3    H2  631   4.679   5.801   4.901  0.3476  0.4657  0.9305
  223TIP3   OH2  632   2.379   1.620   5.690  0.4166 -0.3145 -0.0464
  223TIP3    H1  633   2.297   1.661   5.660  1.2198  0.6359 -1.0343
  223TIP3    H2  634   2.351   1.542   5.737 -1.1175  0.6319  0.6886
  224TIP3   OH2  635   1.556   5.506   4.439  0.1430 -0.1238 -1.0542
  224TIP3    H1  636   1.568   5.447   4.513  0.7537 -1.2884 -2.0305
  224TIP3    H2  637   1.461   5.511   4.426  0.0452 -0.0647 -0.3206
  225TIP3   OH2  638   4.859   1.040   1.088  0.6007 -0.7089  0.4935
  225TIP3    H1  639   4.791   1.096   1.127  0.9131  1.2135 -1.5261
  225TIP3    H2  640   4.925   1.031   1.156  0.3409  1.1010  1.0247
  226TIP3   OH2  641   6.847   1.805   1.403  0.5615 -0.1592  0.4122
  226TIP3    H1  642   6.842   1.895   1.370 -1.1067  0.3302  1.8559
  226TIP3    H2  643   6.802   1.753   1.337 -2.4937  0.7641  1.6244
  227TIP3   OH2  644   1.157   2.754   0.256 -0.6389  0.0596  0.1722
  227TIP3    H1  645   1.211   2.711   0.323  1.0141 -0.5973 -1.4865
  227TIP3    H2  646   1.155   2.846   0.283  1.9764  0.2605 -0.0324
  228TIP3   OH2  647   2.910   2.681   1.704 -0.5772  0.3221 -0.1894
  228TIP3    H1  648   2.826   2.638   1.689 -1.2749  0.5672  2.4821
  228TIP3    H2  649   2.969   2.611   1.732  0.5063 -0.0309 -3.0501
  229TIP3   OH2  650   6.228   6.551   1.427  0.0737 -0.4938  0.0258
  229TIP3    H1  651   6.316   6.546   1.463  0.0943 -0.3065  0.0045
  229TIP3    H2  652   6.183   6.614   1.484 -0.1053 -0.7401  0.1590
  230TIP3   OH2  653   5.318   3.843   0.862  0.1472 -0.7364 -0.9137
  230TIP3    H1  654   5.356   3.797   0.787  0.5948  1.3363 -2.0377
  230TIP3    H2  655   5.364   3.926   0.865 -0.4193 -0.4336  1.2163
  231TIP3   OH2  656   4.811   2.128   0.202  0.7418 -0.1222 -0.3675
  231TIP3    H1  657   4.906   2.141   0.197  0.8390 -0.1420  0.9954
  231TIP3    H2  658   4.787   2.165   0.287 -0.1431 -2.0938  0.2851
  232TIP3   OH2  659   1.021   1.504   1.674 -0.2454  0.4261 -0.0850
  232TIP3    H1  660   1.072   1.479   1.751  0.5267  0.6916 -0.5003
  232TIP3    H2  661   1.084   1.503   1.602 -1.3205 -1.7223 -1.1002
  233TIP3   OH2  662   1.397   0.907   5.256  0.3860  0.6353 -0.0442
  233TIP3    H1  663   1.347   0.879   5.332  0.1643  0.3315 -0.2986
  233TIP3    H2  664   1.347   0.980   5.219  1.3890  1.9578  1.0980
  234TIP3   OH2  665   0.023   1.206   3.883  0.2107  0.2350  0.1688
  234TIP3    H1  666   0.018   1.301   3.871  0.1556  0.0301 -1.6342
  234TIP3    H2  667   0.113   1.184   3.862  0.0515 -0.1967 -0.0634
  235TIP3   OH2  668   5.270   2.950   5.684 -0.2149  0.3041 -0.6030
  235TIP3    H1  669   5.334   2.966   5.614 -0.5338  2.3945 -0.4809
  235TIP3    H2  670   5.311   2.989   5.762 -0.9642  0.2705 -0.1913
  236TIP3   OH2  671   6.425   4.841   5.144 -0.4081 -0.0099 -0.0879
  236TIP3    H1  672   6.456   4.864   5.056  0.4678  0.5388  0.3535
  236TIP3    H2  673   6.502   4.850   5.200 -1.3349  1.3203  1.0370
  237TIP3   OH2  674   0.675   3.138   5.149 -0.6465  0.1048 -0.1389
  237TIP3    H1  675   0.640   3.131   5.061 -3.2222 -1.5705  0.8878
  237TIP3    H2  676   0.721   3.055   5.164 -0.3087  0.3345  0.1310
  238TIP3   OH2  677   6.237   4.865   5.820  0.1910  0.1031  0.5327
  238TIP3    H1  678   6.293   4.881   5.896 -0.0597  0.1126  0.7168
  238TIP3    H2  679   6.295   4.876   5.745  0.5708 -0.4776  0.7392
  239TIP3   OH2  680   0.132   2.177   5.169  0.3988  0.0782  0.2289
  239TIP3    H1  681   0.108   2.220   5.087  0.0939  0.5915  0.5843
  239TIP3    H2  682   0.144   2.085   5.145 -0.8544  0.0017 -0.1727
  240TIP3   OH2  683   6.562   1.638   5.527  0.4580 -0.0108 -0.0956
  240TIP3    H1  684   6.499   1.700   5.563 -0.4726 -0.9727 -0.0059
  240TIP3    H2  685   6.605   1.600   5.604 -2.8218 -3.4164  0.3048
  241TIP3   OH2  686   5.842   2.346   4.716 -0.1320 -0.1058 -0.3125
  241TIP3    H1  687   5.810   2.424   4.670 -0.2300 -0.1428 -0.3063
  241TIP3    H2  688   5.815   2.359   4.807  2.0892  1.0974  0.2305
  242TIP3   OH2  689   0.255   0.701   1.175 -0.8296 -0.4717 -0.2954
  242TIP3    H1  690   0.341   0.719   1.215 -0.9121 -0.3286 -0.1831
  242TIP3    H2  691   0.251   0.606   1.170 -1.0351 -0.5110  0.5137
  243TIP3   OH2  692   5.343   2.071   1.446  0.1576 -0.4477 -0.1211
  243TIP3    H1  693   5.394   1.995   1.420  0.1738 -0.5153  0.1085
  243TIP3    H2  694   5.404   2.145   1.436  0.0643 -0.4263 -0.5921
  244TIP3   OH2  695   1.356   5.119   0.016  0.3987 -0.3894 -0.4559
  244TIP3    H1  696   1.284   5.156  -0.034  0.7206 -0.6283 -1.1023
  244TIP3    H2  697   1.319   5.045   0.063 -0.0451  0.2012  0.1469
  245TIP3   OH2  698   3.181   3.448   3.951 -0.1763 -0.6752 -0.2948
  245TIP3    H1  699   3.272   3.476   3.959 -1.0958  2.3546  1.2348
  245TIP3    H2  700   3.164   3.400   4.032 -0.2234 -0.2416 -0.0441
  246TIP3   OH2  701   6.034   6.172   4.604  0.4640  0.2372 -0.1982
  246TIP3    H1  702   6.119   6.216   4.603  0.4603  0.2988  0.7545
  246TIP3    H2  703   5.973   6.239   4.635  0.4957 -0.4426  1.4870
  247TIP3   OH2  704   1.444   2.091   5.253 -0.1730  0.1497 -0.3229
  247TIP3    H1  705   1.518   2.039   5.282  0.0450  1.8840  2.5634
  247TIP3    H2  706   1.368   2.035   5.265  0.1866  0.0104  1.4868
  248TIP3   OH2  707   6.695   5.489   3.451 -0.4331  0.0564 -0.6399
  248TIP3    H1  708   6.764   5.444   3.404 -0.0003  2.0670 -2.1028
  248TIP3    H2  709   6.738   5.526   3.528  0.0246  0.7646 -1.2138
  249TIP3   OH2  710   2.566   1.345   5.809 -0.1607 -0.4014  0.5092
  249TIP3    H1  711   2.477   1.350   5.774  0.5159 -2.9155 -1.9092
  249TIP3    H2  712   2.580   1.252   5.827  2.2198 -0.1725  0.1356
  250TIP3   OH2  713   4.941   5.020   3.406  0.1166 -0.1549  0.3542
  250TIP3    H1  714   4.893   5.103   3.411 -1.6708 -1.2198  2.5482
  250TIP3    H2  715   5.031   5.046   3.387 -0.9910  2.0080 -2.8508
  251TIP3   OH2  716   1.849   0.419   2.102  0.0295  0.5499  0.0764
  251TIP3    H1  717   1.769   0.472   2.107 -0.5903 -0.3875  0.2379
  251TIP3    H2  718   1.819   0.329   2.110  0.9381  0.0749 -1.5631
  252TIP3   OH2  719   4.942   1.017   3.004 -0.4998 -0.3413  0.5984
  252TIP3    H1  720   4.951   1.058   3.090  1.4968  0.7016 -0.0506
  252TIP3    H2  721   4.856   0.975   3.007 -1.3520  1.3586  2.3805
  253TIP3   OH2  722   5.340   3.752   3.436 -0.4170  0.2907  0.4745
  253TIP3    H1  723   5.294   3.673   3.408  0.8076 -0.4758  0.5623
  253TIP3    H2  724   5.280   3.793   3.498 -1.0928 -0.5440  0.4025
  254TIP3   OH2  725   5.599   5.466   5.482  0.1967 -0.0095  0.2998
  254TIP3    H1  726   5.645   5.425   5.555  0.4935 -0.8027 -0.3210
  254TIP3    H2  727   5.669   5.500   5.427 -0.0271  0.5414  0.3494
  255TIP3   OH2  728   1.713   6.733   2.090 -0.6309  0.2911  0.1749
  255TIP3    H1  729   1.658   6.663   2.122  0.0434 -0.1091  0.4726
  255TIP3    H2  730   1.770   6.692   2.025  0.5751  0.3004  1.2034
  256TIP3   OH2  731   6.305   0.721   5.502  0.1064 -0.1309 -0.0671
  256TIP3    H1  732   6.340   0.810   5.505 -1.1005  0.3872 -0.9933
  256TIP3    H2  733   6.273   0.705   5.591  1.5737 -0.1978  0.4916
  257TIP3   OH2  734   3.082   4.661   5.724 -0.1073  0.0464  0.4752
  257TIP3    H1  735   3.142   4.627   5.790  1.4182  1.1843 -0.2838
  257TIP3    H2  736   3.136   4.677   5.647 -1.5789  0.1118 -0.6046
  258TIP3   OH2  737   1.445   0.486   3.922 -0.4688  0.3649  0.3850
  258TIP3    H1  738   1.425   0.413   3.862  1.5608  0.8071 -0.9284
  258TIP3    H2  739   1.538   0.501   3.910 -0.7528  2.9172  0.9644
  259TIP3   OH2  740   2.346   4.845   3.026 -0.6546 -0.5672  0.3192
  259TIP3    H1  741   2.435   4.866   2.996  0.4974 -3.2468  1.5974
  259TIP3    H2  742   2.310   4.930   3.054  2.1023  0.3944  1.2935
  260TIP3   OH2  743   0.108   4.214   2.538  0.4380 -0.0416 -0.4321
  260TIP3    H1  744   0.080   4.274   2.607  2.6607 -0.4679  0.9261
  260TIP3    H2  745   0.121   4.130   2.583 -0.5083 -1.0297 -1.8905
  261TIP3   OH2  746   5.661   1.881   4.694 -0.0611 -0.1215  0.2998
  261TIP3    H1  747   5.721   1.903   4.765 -0.6240 -0.1265  0.7874
  261TIP3    H2  748   5.588   1.941   4.705  0.5027  0.8924 -1.1818
  262TIP3   OH2  749   5.324   5.852   0.467 -0.0620  0.1659 -0.3576
  262TIP3    H1  750   5.331   5.936   0.420  1.1055  0.3077  0.0208
  262TIP3    H2  751   5.232   5.846   0.493 -0.1395  1.3930 -0.2919
  263TIP3   OH2  752   2.917   4.056   4.877  0.2142  0.3463 -0.2943
  263TIP3    H1  753   2.977   4.003   4.929 -1.2991 -0.3489  0.8436
  263TIP3    H2  754   2.897   4.132   4.932 -1.8858 -0.7030  0.5034
  264TIP3   OH2  755   2.380   0.359   5.727 -0.0294 -0.2350  0.6007
  264TIP3    H1  756   2.417   0.414   5.658  1.3221 -1.7033  0.0848
  264TIP3    H2  757   2.413   0.271   5.707 -0.1657 -0.8171  2.7343
  265TIP3   OH2  758   1.034   1.710   4.131 -0.9441  0.4444 -0.1221
  265TIP3    H1  759   0.964   1.710   4.196 -2.3034  0.2899 -1.5127
  265TIP3    H2  760   1.059   1.802   4.122 -1.0958  0.5239  0.2637
  266TIP3   OH2  761   3.608   2.738   3.763  0.2212  0.1968 -0.4139
  266TIP3    H1  762   3.690   2.769   3.726 -0.1285 -1.7669 -3.0922
  266TIP3    H2  763   3.546   2.740   3.690 -1.8339  0.4769  1.2300
  267TIP3   OH2  764   3.684   0.472   0.949  0.0775 -0.6115 -0.0309
  267TIP3    H1  765   3.595   0.446   0.927  0.3924 -1.3187 -0.4954
  267TIP3    H2  766   3.729   0.478   0.865 -0.1290  2.1133 -0.0176
  268TIP3   OH2  767   5.458   0.728   4.545  0.1678 -0.6563 -0.2940
  268TIP3    H1  768   5.517   0.689   4.609 -1.9191 -1.6491  1.1366
  268TIP3    H2  769   5.445   0.659   4.479  0.7250 -0.3711 -0.7089
  269TIP3   OH2  770   1.586   5.989   4.935  0.4900 -0.1825 -0.3402
  269TIP3    H1  771   1.539   6.071   4.949 -0.4143 -0.3705 -2.0034
  269TIP3    H2  772   1.627   5.969   5.019  0.0393  1.5358  0.3143
  270TIP3   OH2  773   3.529   2.073   1.305  0.1273  0.2198  0.0131
  270TIP3    H1  774   3.537   2.154   1.254 -0.3277  0.7840  0.8142
  270TIP3    H2  775   3.444   2.081   1.348  0.2977 -0.4693  0.4851
  271TIP3   OH2  776   0.976   4.424   4.730  0.0276  0.2993 -0.0089
  271TIP3    H1  777   0.977   4.330   4.745 -0.0802  0.4916  1.2945
  271TIP3    H2  778   0.933   4.434   4.644 -1.7930 -0.7402  0.7175
  272TIP3   OH2  779   0.033   0.587   5.719 -0.0488 -0.1824 -0.3406
  272TIP3    H1  780   0.071   0.515   5.669  0.6253  0.3638 -0.6206
  272TIP3    H2  781  -0.018   0.544   5.788  0.5194 -0.9262 -0.3764
  273TIP3   OH2  782   5.989   5.603   0.600 -0.8360 -0.6129  0.3055
  273TIP3    H1  783   6.017   5.683   0.644 -0.1690 -1.2178  1.0015
  273TIP3    H2  784   5.968   5.631   0.511  1.0659  0.0588  0.0237
  274TIP3   OH2  785   3.065   5.176   5.047 -0.0644  0.6485 -0.1303
  274TIP3    H1  786   3.096   5.118   4.977 -0.4417  0.4187 -0.1034
  274TIP3    H2  787   3.124   5.252   5.042 -0.5386  0.9719 -1.1789
  275TIP3   OH2  788   3.408   0.485   5.716 -0.2031 -0.1276 -0.1953
  275TIP3    H1  789   3.472   0.472   5.786 -1.1700 -0.9611  0.5591
  275TIP3    H2  790   3.409   0.403   5.666 -0.9400 -0.2868  0.0430
  276TIP3   OH2  791   3.993   0.944   5.067  0.2049  0.2522 -0.0685
  276TIP3    H1  792   4.032   0.863   5.035 -0.4331  0.6225 -1.9521
  276TIP3    H2  793   3.902   0.921   5.088  0.4289  0.1655  0.8157
  277TIP3   OH2  794   6.285   0.466   2.810  0.3461  0.4265 -0.0170
  277TIP3    H1  795   6.226   0.541   2.798  1.4843  1.4989  0.7702
  277TIP3    H2  796   6.263   0.432   2.896 -0.1547 -0.1439 -0.3652
  278TIP3   OH2  797   4.748   0.905   1.902 -0.2549 -0.2791  0.1209
  278TIP3    H1  798   4.672   0.853   1.879  0.8320 -1.4866 -0.9236
  278TIP3    H2  799   4.805   0.845   1.950  1.7583 -0.6418 -2.5052
  279TIP3   OH2  800   4.294   5.372   4.437  0.6789 -0.2183 -0.4719
  279TIP3    H1  801   4.385   5.356   4.414  0.5934 -0.1053 -0.8984
  279TIP3    H2  802   4.269   5.296   4.490  0.6525 -0.8846 -1.4136
  280TIP3   OH2  803   2.507   4.541   2.246 -0.3986  0.1333  0.7043
  280TIP3    H1  804   2.576   4.475   2.243 -0.8783 -0.3538  0.0253
  280TIP3    H2  805   2.530   4.604   2.178  0.3803  1.0199  1.7505
  281TIP3   OH2  806   2.631   6.405   4.216  0.3585  0.4689 -0.0338
  281TIP3    H1  807   2.635   6.456   4.136  0.2409  1.5016  0.6030
  281TIP3    H2  808   2.670   6.321   4.193  2.3968  1.4988 -0.6024
  282TIP3   OH2  809   0.538   2.803   1.249  0.0985  0.2076 -0.1652
  282TIP3    H1  810   0.487   2.755   1.184 -1.3337  0.5808  0.6411
  282TIP3    H2  811   0.600   2.739   1.283  0.2641 -0.2255 -1.2413
  283TIP3   OH2  812   1.983   5.525   5.675  0.0402  0.2180  0.2240
  283TIP3    H1  813   2.030   5.542   5.757 -2.8256 -0.9099  2.2730
  283TIP3    H2  814   1.928   5.602   5.662 -0.3772 -0.1116  0.0204
  284TIP3   OH2  815   2.234   6.580   1.138 -0.6826  0.7041 -0.1013
  284TIP3    H1  816   2.307   6.583   1.076 -0.2386 -1.2605  0.2671
  284TIP3    H2  817   2.211   6.487   1.143 -0.8309  0.8169  2.5160
  285TIP3   OH2  818   7.150   0.759   0.669  0.3440 -0.2625  0.2694
  285TIP3    H1  819   7.104   0.764   0.753  0.2937 -1.0950  0.3042
  285TIP3    H2  820   7.241   0.743   0.693  0.7070  1.5186  0.2040
  286TIP3   OH2  821   4.376   0.930   4.812 -0.2129 -0.2392 -0.9859
  286TIP3    H1  822   4.400   0.901   4.724  0.7198 -0.4008 -0.6870
  286TIP3    H2  823   4.347   0.850   4.856 -0.2320 -0.2379 -0.9959
  287TIP3   OH2  824   1.270   0.542   5.367  0.3187  0.2123 -0.1807
  287TIP3    H1  825   1.280   0.573   5.277  0.3729 -0.2540 -0.3370
  287TIP3    H2  826   1.332   0.470   5.375  1.7773  1.5103  0.8372
  288TIP3   OH2  827   4.317   1.416   0.144  0.2670  0.4061  0.0089
  288TIP3    H1  828   4.383   1.453   0.086  1.0272  0.2977  0.7781
  288TIP3    H2  829   4.288   1.335   0.101  0.3978  0.6231 -0.4863
  289TIP3   OH2  830   5.370   1.594   3.120  0.2311  0.1792 -1.0249
  289TIP3    H1  831   5.347   1.530   3.188  1.2109  1.3698  0.4774
  289TIP3    H2  832   5.321   1.564   3.043 -1.8137 -0.5913  0.4654
  290TIP3   OH2  833   1.060   1.179   1.301 -0.4812  0.1027  0.3573
  290TIP3    H1  834   0.977   1.188   1.349 -0.1470  0.1144  0.9496
  290TIP3    H2  835   1.048   1.101   1.248 -0.0640 -1.2802  2.1815
  291TIP3   OH2  836   2.625   0.480   5.172 -0.6355  0.0657  0.2358
  291TIP3    H1  837   2.648   0.392   5.202 -1.4384 -0.0372  0.5615
  291TIP3    H2  838   2.623   0.472   5.077  0.2794 -0.0116  0.2089
  292TIP3   OH2  839   3.142   0.300   0.016 -0.0090 -0.1659  0.2137
  292TIP3    H1  840   3.211   0.281   0.079 -1.0070 -1.2320  1.0211
  292TIP3    H2  841   3.116   0.390   0.035  0.7422  0.0388  0.2978
  293TIP3   OH2  842   6.809   0.863   0.072  0.0349 -0.2380  0.1825
  293TIP3    H1  843   6.805   0.884  -0.021 -0.8643 -0.3040  0.2002
  293TIP3    H2  844   6.734   0.805   0.088  0.3790 -0.5149  0.8757
  294TIP3   OH2  845   0.613   2.036   4.902  0.1393  0.5491  0.4993
  294TIP3    H1  846   0.522   2.056   4.926  0.4621  2.9602 -0.0333
  294TIP3    H2  847   0.662   2.043   4.984 -0.1886 -1.2892  0.8892
  295TIP3   OH2  848   3.864   5.576   4.511  0.0881  0.4483 -0.3957
  295TIP3    H1  849   3.856   5.671   4.514  0.7552  0.5922 -2.0454
  295TIP3    H2  850   3.863   5.555   4.418 -1.9231 -1.3459 -0.0532
  296TIP3   OH2  851   2.542   6.091   4.395  0.0510 -0.1344  0.1799
  296TIP3    H1  852   2.493   6.099   4.476  0.5217 -1.4046  0.6067
  296TIP3    H2  853   2.625   6.051   4.420 -0.3666 -1.9242 -1.1025
  297TIP3   OH2  854   5.505   6.203   2.158 -0.4450  0.4044  0.5877
  297TIP3    H1  855   5.456   6.142   2.101 -1.4072  0.4310  1.3579
  297TIP3    H2  856   5.563   6.250   2.098  1.2000 -2.0611  0.0969
  298TIP3   OH2  857   4.049   4.532   3.756 -0.0369 -0.2162 -0.0754
  298TIP3    H1  858   4.084   4.464   3.699  0.7686 -0.8256  1.1001
  298TIP3    H2  859   4.102   4.610   3.736  0.4869 -0.5244  0.0749
  299TIP3   OH2  860   4.263   4.977   4.220 -0.0740  0.3194  0.4322
  299TIP3    H1  861   4.174   4.984   4.254  0.1560  1.6857  0.8119
  299TIP3    H2  862   4.253   4.967   4.126 -0.6441 -0.5894  0.5825
  300TIP3   OH2  863   6.279   2.096   4.727 -0.3397 -0.2145 -0.7073
  300TIP3    H1  864   6.279   2.118   4.820 -2.5403  0.7207 -0.8567
  300TIP3    H2  865   6.230   2.014   4.721 -0.0446 -0.3714 -1.0273
  301TIP3   OH2  866   2.773   6.581   4.378 -0.6941  0.1761  0.0647
  301TIP3    H1  867   2.845   6.532   4.419 -0.6731 -0.4219 -0.6481
  301TIP3    H2  868   2.716   6.513   4.342 -1.1944  0.6657 -0.0677
  302TIP3   OH2  869   5.117   6.696   3.963  0.2393  0.0518 -0.2539
  302TIP3    H1  870   5.107   6.626   4.029  2.3256 -0.1730 -0.1155
  302TIP3    H2  871   5.133   6.775   4.014 -0.0013  0.2325 -0.4573
  303TIP3   OH2  872   5.642   6.572   1.841  0.0332  0.3267 -0.2565
  303TIP3    H1  873   5.641   6.476   1.840 -2.4458  0.2668 -0.2972
  303TIP3    H2  874   5.607   6.595   1.927 -0.8338  1.1302 -0.8021
  304TIP3   OH2  875   1.188   6.448   5.083 -0.0417 -0.4794 -0.5454
  304TIP3    H1  876   1.117   6.410   5.031 -0.9579 -0.6137  0.7681
  304TIP3    H2  877   1.231   6.509   5.023 -1.1486 -0.5328 -1.4350
  305TIP3   OH2  878   5.943   1.188   1.492  0.2089 -0.0243 -0.2300
  305TIP3    H1  879   5.864   1.138   1.511 -1.9639  2.1377 -2.6948
  305TIP3    H2  880   5.942   1.259   1.557  1.5080 -1.2686  1.2182
  306TIP3   OH2  881   6.769   4.799   4.423  0.2809 -0.2149  0.4701
  306TIP3    H1  882   6.804   4.746   4.495 -1.7295 -1.3023  0.7232
  306TIP3    H2  883   6.803   4.758   4.344  1.8015  0.4618  0.7371
  307TIP3   OH2  884   5.981   1.586   5.636  0.4381  0.4215 -0.8386
  307TIP3    H1  885   6.064   1.545   5.662  0.9330  1.6986 -0.3661
  307TIP3    H2  886   6.007   1.668   5.593 -0.5841  2.8546  2.7700
  308TIP3   OH2  887   3.630   0.660   1.665 -0.2786 -0.4455  0.5477
  308TIP3    H1  888   3.631   0.675   1.571 -1.7927  1.3138  0.7519
  308TIP3    H2  889   3.669   0.739   1.702  0.0800 -1.0143  1.4167
  309TIP3   OH2  890   2.999   4.427   3.848  0.0471 -0.3959  0.1547
  309TIP3    H1  891   3.032   4.511   3.880  0.2064 -0.6872  0.7735
  309TIP3    H2  892   3.077   4.376   3.829 -0.0479 -0.6919  0.5572
  310TIP3   OH2  893   7.191   5.474   0.652  0.2042  0.1697 -0.0489
  310TIP3    H1  894   7.194   5.379   0.663 -3.4058 -0.1944 -0.9662
  310TIP3    H2  895   7.132   5.488   0.579  0.6107  3.1617  0.0800
  311TIP3   OH2  896   5.870   3.578   1.948  0.4188  0.6799  0.1315
  311TIP3    H1  897   5.795   3.622   1.909 -0.3866 -1.3100 -0.6851
  311TIP3    H2  898   5.864   3.597   2.041 -1.2842  0.3139  0.1182
  312TIP3   OH2  899   2.431   5.651   2.804  0.3233  0.1021  0.1543
  312TIP3    H1  900   2.513   5.606   2.824  2.1192  2.5476 -1.1467
  312TIP3    H2  901   2.453   5.744   2.810 -2.1713  0.8452 -1.0278
  313TIP3   OH2  902   2.206   2.309   4.068  0.3688 -0.3885 -0.2074
  313TIP3    H1  903   2.223   2.351   3.983 -1.1466  0.8230  0.0434
  313TIP3    H2  904   2.229   2.376   4.132 -0.0948 -0.6836  0.2719
  314TIP3   OH2  905   4.401   2.149   1.170  0.1811 -0.9955  0.6541
  314TIP3    H1  906   4.482   2.172   1.215  0.8288 -2.1155  0.1260
  314TIP3    H2  907   4.366   2.075   1.221 -1.3354  0.4196  1.7650
  315TIP3   OH2  908   0.889   1.157   4.966  0.1475 -0.2010  0.1963
  315TIP3    H1  909   0.898   1.230   4.906 -1.1930 -0.4689 -0.3530
  315TIP3    H2  910   0.826   1.186   5.031 -0.7639 -1.0196 -0.2952
  316TIP3   OH2  911   1.250   3.385   2.819 -0.4041 -0.0959 -0.1599
  316TIP3    H1  912   1.173   3.346   2.779  0.3580  0.3261 -2.1603
  316TIP3    H2  913   1.276   3.454   2.759  2.0899 -0.8690 -0.0871
  317TIP3   OH2  914   1.314   3.798   4.601  1.2402  0.4856 -0.3522
  317TIP3    H1  915   1.405   3.799   4.630  1.3867 -1.6465 -0.5792
  317TIP3    H2  916   1.320   3.801   4.505  1.0717  0.6054 -0.3579
  318TIP3   OH2  917   6.462   0.974   5.273 -0.6400 -0.3134  0.1514
  318TIP3    H1  918   6.522   1.040   5.238 -1.1025  0.0955  0.1173
  318TIP3    H2  919   6.449   0.999   5.365 -1.5033  0.1725 -0.0856
  319TIP3   OH2  920   3.493   5.577   3.851 -0.1164 -0.3956 -0.3942
  319TIP3    H1  921   3.429   5.517   3.813 -0.0308 -1.0950  0.5149
  319TIP3    H2  922   3.442   5.635   3.907  0.0620 -1.1779  0.6056
  320TIP3   OH2  923   4.438   0.857   3.516 -0.7287  0.3544 -0.3055
  320TIP3    H1  924   4.379   0.906   3.573 -3.0136 -1.1798 -1.2016
  320TIP3    H2  925   4.520   0.908   3.517 -1.3545  1.5320  2.5456
  321TIP3   OH2  926   0.791   5.760   1.285  0.5429  0.2612  0.6855
  321TIP3    H1  927   0.837   5.758   1.201 -0.4965  1.6861  0.0468
  321TIP3    H2  928   0.849   5.809   1.343  0.7162  0.3227  0.4617
  322TIP3   OH2  929   3.776   5.434   4.298 -0.0086  0.1444 -0.3724
  322TIP3    H1  930   3.855   5.449   4.246  1.6571  1.5156  2.3060
  322TIP3    H2  931   3.764   5.339   4.297  1.2146 -0.0293 -1.4436
  323TIP3   OH2  932   2.265   5.788   0.382 -0.2305  0.3402  0.1611
  323TIP3    H1  933   2.245   5.732   0.456 -0.0343  1.8644  1.4294
  323TIP3    H2  934   2.183   5.792   0.332 -1.7099  2.4383  2.5130
  324TIP3   OH2  935   2.793   6.432   3.048 -0.3184 -0.0573 -0.5784
  324TIP3    H1  936   2.766   6.461   3.135 -2.0847  1.9955 -1.6965
  324TIP3    H2  937   2.723   6.374   3.019  0.2339 -0.6907 -0.6742
  325TIP3   OH2  938   6.606   4.039   4.937 -0.3837 -0.0986 -0.4216
  325TIP3    H1  939   6.612   3.965   4.997 -3.2082  0.0612  0.1720
  325TIP3    H2  940   6.673   4.100   4.968  0.0928 -1.2037  0.8211
  326TIP3   OH2  941   1.687   0.236   1.720 -0.3246  0.1115 -0.1073
  326TIP3    H1  942   1.695   0.270   1.630  0.8412 -1.2140 -0.5345
  326TIP3    H2  943   1.760   0.275   1.767 -0.8096  0.6351  0.2094
  327TIP3   OH2  944   2.110   2.844   5.472 -0.4120 -0.0947  0.0357
  327TIP3    H1  945   2.156   2.886   5.399  1.6772  1.0615  1.8702
  327TIP3    H2  946   2.180   2.804   5.524 -1.8356 -0.9998  1.3505
  328TIP3   OH2  947   3.596   2.849   2.547  0.2098 -0.1475 -0.0187
  328TIP3    H1  948   3.587   2.944   2.551 -0.0041 -0.1946  0.8638
  328TIP3    H2  949   3.637   2.825   2.630 -0.9003 -0.9489  0.3303
  329TIP3   OH2  950   0.975   2.678   5.175  0.0525 -0.1667  0.1729
  329TIP3    H1  951   0.979   2.633   5.091 -0.1327 -1.5219  0.8566
  329TIP3    H2  952   1.050   2.644   5.225 -0.0114  0.3870  0.6610
  330TIP3   OH2  953   1.758   3.546   0.598 -0.6576 -0.1942  0.2481
  330TIP3    H1  954   1.853   3.547   0.603 -0.5315 -0.8205 -1.3609
  330TIP3    H2  955   1.729   3.564   0.687  0.9532  0.5583  0.6554
  331TIP3   OH2  956   2.009   4.082   4.000 -0.1193  0.4842 -0.5073
  331TIP3    H1  957   2.043   4.060   3.913  2.8825 -0.5988  0.8319
  331TIP3    H2  958   1.954   4.008   4.024  2.4334 -1.3167  0.1484
  332TIP3   OH2  959   6.766   0.021   5.216 -0.1623 -0.1572 -0.2732
  332TIP3    H1  960   6.845   0.064   5.249 -0.4967  0.9433 -0.8267
  332TIP3    H2  961   6.796  -0.064   5.186  0.6154 -0.1657  0.4780
  333TIP3   OH2  962   6.598   3.245   0.018 -0.1607 -0.2897  0.2082
  333TIP3    H1  963   6.578   3.334  -0.012 -3.0447 -1.1190 -0.6873
  333TIP3    H2  964   6.600   3.252   0.113 -2.5071  0.4645  0.2730
  334TIP3   OH2  965   1.444   2.455   1.513 -0.1174 -0.6403  0.4736
  334TIP3    H1  966   1.432   2.526   1.576  0.1560  1.5203 -1.7680
  334TIP3    H2  967   1.369   2.397   1.527 -0.8241  0.5481  1.8020
  335TIP3   OH2  968   1.980   4.413  -0.007  0.6110 -0.1915 -0.1766
  335TIP3    H1  969   2.028   4.442   0.070  0.8008 -0.6230 -0.1324
  335TIP3    H2  970   1.905   4.473  -0.012  2.8578  2.7174 -2.1897
  336TIP3   OH2  971   2.153   1.727   2.791 -0.3458  0.0575  0.7192
  336TIP3    H1  972   2.125   1.635   2.787 -1.0100  0.2595  0.6363
  336TIP3    H2  973   2.243   1.726   2.760 -1.4652 -0.0948 -3.0368
  337TIP3   OH2  974   6.321   5.885   2.892  0.3095 -0.4460  0.0571
  337TIP3    H1  975   6.371   5.851   2.966  0.4985 -1.5466 -0.5566
  337TIP3    H2  976   6.387   5.915   2.830  0.1501  0.6480  0.3855
  338TIP3   OH2  977   2.126   5.935   3.726  0.3016  0.1068  0.1736
  338TIP3    H1  978   2.136   6.023   3.761  0.5170 -0.3863  1.4376
  338TIP3    H2  979   2.214   5.898   3.729  0.1644 -0.2429 -0.0556
  339TIP3   OH2  980   1.704   0.787   2.839 -0.4080 -0.2602  0.5704
  339TIP3    H1  981   1.639   0.817   2.903  0.9987 -0.3363  2.0881
  339TIP3    H2  982   1.705   0.691   2.850 -0.3395 -0.2947  0.2544
  340TIP3   OH2  983   5.847   0.407   2.556 -0.2905 -0.3496  0.5817
  340TIP3    H1  984   5.769   0.456   2.531  0.5276 -0.0133 -1.5745
  340TIP3    H2  985   5.814   0.321   2.584 -1.4886  0.1985  0.8910
  341TIP3   OH2  986   0.377   5.292   3.279  0.1814  0.4817 -0.4491
  341TIP3    H1  987   0.365   5.244   3.197 -2.8439 -1.1902  0.8432
  341TIP3    H2  988   0.326   5.372   3.268  1.2443  1.1282 -0.8096
  342TIP3   OH2  989   5.217   4.751   5.233  0.2630 -0.3360 -0.3979
  342TIP3    H1  990   5.145   4.811   5.216  1.6088  1.6139  0.3460
  342TIP3    H2  991   5.260   4.740   5.148  0.2725  0.1347 -0.4561
  343TIP3   OH2  992   4.468   4.306   4.881  0.1465 -0.1065  0.0433
  343TIP3    H1  993   4.396   4.247   4.861  1.1443 -1.6537  0.7590
  343TIP3    H2  994   4.455   4.382   4.825 -0.0569 -1.9027 -2.4709
  344TIP3   OH2  995   3.555   4.194   1.292  0.2775 -0.4765  0.0033
  344TIP3    H1  996   3.475   4.179   1.241  1.1197  1.0806 -1.9284
  344TIP3    H2  997   3.609   4.117   1.275 -0.7210 -1.4928  1.2414
  345TIP3   OH2  998   4.949   4.511   1.433 -0.2076 -0.3103 -0.3580
  345TIP3    H1  999   4.932   4.417   1.424 -1.2194  0.0419 -3.3429
  345TIP3    H2 1000   5.034   4.524   1.389 -0.3026  0.2241 -0.3882
  346TIP3   OH2 1001   2.401   1.994   2.846  0.3007  0.5029  0.3838
  346TIP3    H1 1002   2.405   2.081   2.888 -2.5932  1.7755 -1.6415
  346TIP3    H2 1003   2.317   1.993   2.801  0.2631 -3.3900  0.2025
  347TIP3   OH2 1004   0.919   5.473   0.655  0.0248  0.2764  0.6872
  347TIP3    H1 1005   0.966   5.517   0.583  1.5219 -0.3560  1.2277
  347TIP3    H2 1006   0.882   5.395   0.614  0.4919  0.1503  0.4911
  348TIP3   OH2 1007   1.980   5.278   3.592 -0.6202  0.1705 -0.3798
  348TIP3    H1 1008   1.963   5.191   3.555 -3.0971  0.4284 -0.0324
  348TIP3    H2 1009   1.937   5.276   3.677  0.8262  1.1935  0.4111
  349TIP3   OH2 1010   0.917   3.402   1.849 -0.1465 -0.1233 -0.0047
  349TIP3    H1 1011   0.921   3.323   1.795 -1.4026 -2.5010  3.0639
  349TIP3    H2 1012   0.823   3.422   1.855  0.0178  0.4515  0.8057
  350TIP3   OH2 1013   4.167   5.566   0.286 -0.2822 -0.5038  0.2358
  350TIP3    H1 1014   4.166   5.519   0.203 -1.0429 -1.3055  0.6763
  350TIP3    H2 1015   4.093   5.627   0.280  0.4280  0.3485 -0.1549
  351TIP3   OH2 1016   1.979   1.531   0.967  0.5954 -0.0111  0.3130
  351TIP3    H1 1017   1.914   1.469   0.934  0.9460 -1.4772  2.1852
  351TIP3    H2 1018   1.959   1.613   0.923  0.4788 -1.5511 -2.7356
  352TIP3   OH2 1019   4.582   6.789   1.652 -0.3713  0.0552  0.0213
  352TIP3    H1 1020   4.659   6.738   1.626  0.0114  1.3607 -1.5465
  352TIP3    H2 1021   4.509   6.728   1.646 -0.1256 -0.1040 -3.0296
  353TIP3   OH2 1022   6.882   0.681   5.546 -0.4949  0.2379 -0.5481
  353TIP3    H1 1023   6.950   0.735   5.507  0.3563  0.4024  1.0971
  353TIP3    H2 1024   6.928   0.603   5.577 -0.9830  0.5058  0.8946
  354TIP3   OH2 1025   5.530   2.560   5.767 -0.2442  0.0767  0.5181
  354TIP3    H1 1026   5.590   2.624   5.806 -1.2941  0.5242  1.4751
  354TIP3    H2 1027   5.555   2.556   5.675  0.4470  1.1814  0.6379
  355TIP3   OH2 1028   1.951   1.732   5.012 -0.3197  0.4161 -0.0948
  355TIP3    H1 1029   2.010   1.807   5.025  0.8945 -0.4675 -0.2801
  355TIP3    H2 1030   1.923   1.738   4.921 -1.5389  1.5419  0.3376
  356TIP3   OH2 1031   2.289   3.858   5.500  0.3857 -0.3141 -0.3137
  356TIP3    H1 1032   2.363   3.917   5.513  0.0707  0.3019 -1.2051
  356TIP3    H2 1033   2.213   3.916   5.495 -0.1517 -0.9288  0.4702
  357TIP3   OH2 1034   2.661   2.191   0.551 -0.4088  0.1273 -0.0971
  357TIP3    H1 1035   2.624   2.272   0.516  1.3100  0.4105 -1.3581
  357TIP3    H2 1036   2.707   2.218   0.630  3.6015  1.2669 -2.5531
  358TIP3   OH2 1037   4.871   4.087   0.028 -0.0048 -0.1189 -0.2886
  358TIP3    H1 1038   4.819   4.118  -0.046  0.7222  0.5923 -0.5107
  358TIP3    H2 1039   4.914   4.165   0.062  2.3042 -0.9302 -1.1998
  359TIP3   OH2 1040   4.707   2.168   3.244 -0.2054 -0.3005 -0.3808
  359TIP3    H1 1041   4.664   2.125   3.318  1.7457  0.3921  1.2435
  359TIP3    H2 1042   4.654   2.246   3.228 -0.0028  0.1990  1.1480
  360TIP3   OH2 1043   0.483   1.193   0.299 -0.3954 -0.7010  0.3694
  360TIP3    H1 1044   0.502   1.133   0.226  3.1291  0.8289 -0.1467
  360TIP3    H2 1045   0.445   1.271   0.256 -0.0246 -0.5106  0.3855
  361TIP3   OH2 1046   2.845   6.100   2.760  0.3154  0.8706  0.1399
  361TIP3    H1 1047   2.813   6.114   2.671  0.0140  1.9852  0.4023
  361TIP3    H2 1048   2.923   6.156   2.766  1.5645 -0.7715 -0.0620
  362TIP3   OH2 1049   1.428   0.911   3.456  0.0092 -0.8994  0.0467
  362TIP3    H1 1050   1.384   0.899   3.541  1.9413 -1.0380  1.0888
  362TIP3    H2 1051   1.470   0.996   3.463 -1.4476  0.0169 -1.6058
  363TIP3   OH2 1052   0.960   4.032   2.035  0.3289  0.9375 -1.0087
  363TIP3    H1 1053   0.883   4.053   1.982 -0.6892 -0.4840 -0.1651
  363TIP3    H2 1054   0.939   3.948   2.076  1.9498  0.9706 -0.0102
  364TIP3   OH2 1055   6.833   2.224   0.306 -0.1281  0.4034 -0.3899
  364TIP3    H1 1056   6.900   2.167   0.343  0.1401  1.5878  1.0292
  364TIP3    H2 1057   6.758   2.214   0.364 -0.5726  0.4390 -0.9451
  365TIP3   OH2 1058   5.737   4.683   3.219  0.1150  0.3935 -0.2130
  365TIP3    H1 1059   5.724   4.674   3.125  0.2856  1.8933 -0.4059
  365TIP3    H2 1060   5.684   4.613   3.258  0.2688 -0.4224 -1.4134
  366TIP3   OH2 1061   0.417   5.117   4.107  0.1420  0.1834 -0.5264
  366TIP3    H1 1062   0.486   5.092   4.045 -1.7472 -4.6441 -1.0995
  366TIP3    H2 1063   0.394   5.207   4.082  2.9631  0.2997 -3.3332
  367TIP3   OH2 1064   5.549   6.648   5.379  0.0521 -0.9737  0.4368
  367TIP3    H1 1065   5.537   6.635   5.473 -2.4580  1.7315  0.6429
  367TIP3    H2 1066   5.485   6.589   5.339 -1.5155  0.4585  0.6963
  368TIP3   OH2 1067   0.461   0.949   5.677 -0.0676  0.0190  0.0683
  368TIP3    H1 1068   0.412   0.991   5.747 -1.8895 -2.5759  0.4906
  368TIP3    H2 1069   0.506   0.876   5.720  2.0749  0.7318 -0.8146
  369TIP3   OH2 1070   5.159   2.356   1.281  0.3375 -0.8932  0.1020
  369TIP3    H1 1071   5.104   2.361   1.203  0.0290 -1.9271  0.2332
  369TIP3    H2 1072   5.225   2.290   1.260  0.4796 -0.9052  0.5689
  370TIP3   OH2 1073   1.198   2.425   3.498  0.0073 -0.2060 -0.1396
  370TIP3    H1 1074   1.266   2.399   3.561  1.5944  2.0087 -0.7838
  370TIP3    H2 1075   1.159   2.343   3.468  1.0480 -1.4420  1.7442
  371TIP3   OH2 1076   4.249   0.889   3.291  0.2028 -0.0437  0.1376
  371TIP3    H1 1077   4.232   0.983   3.278  1.2311  0.2741  0.9403
  371TIP3    H2 1078   4.314   0.886   3.362 -0.0955 -1.3859  0.3794
  372TIP3   OH2 1079   5.181   6.474   1.468  0.3101 -0.1220 -0.4478
  372TIP3    H1 1080   5.198   6.567   1.484 -1.7098  0.2438 -0.2806
  372TIP3    H2 1081   5.267   6.433   1.476  1.4939  1.9015 -1.8505
  373TIP3   OH2 1082   2.952   4.638   4.629 -0.3065  0.4138 -0.1017
  373TIP3    H1 1083   3.014   4.681   4.569  0.9674 -0.1573  0.7704
  373TIP3    H2 1084   2.954   4.691   4.708 -1.3666  0.6999 -0.2553
  374TIP3   OH2 1085   2.943   4.573   1.713 -0.0439  0.2750 -0.9841
  374TIP3    H1 1086   3.006   4.639   1.741  1.1736 -0.9061 -0.8156
  374TIP3    H2 1087   2.857   4.612   1.729  0.6404  1.4576 -0.0795
  375TIP3   OH2 1088   3.446   0.266   5.538  0.1702 -0.3019 -0.1172
  375TIP3    H1 1089   3.362   0.223   5.553  0.0859  0.1573  0.7349
  375TIP3    H2 1090   3.433   0.314   5.456 -0.9898  1.2106  0.9158
  376TIP3   OH2 1091   6.756   5.686   5.218  0.4418  0.1534 -0.2051
  376TIP3    H1 1092   6.710   5.686   5.302 -1.0003  0.3542 -0.9717
  376TIP3    H2 1093   6.843   5.721   5.238 -0.0241  0.5809  1.1186
  377TIP3   OH2 1094   6.417   2.201   4.343 -0.1907  0.1665  0.2730
  377TIP3    H1 1095   6.447   2.138   4.408  0.5069 -0.9626 -1.0867
  377TIP3    H2 1096   6.452   2.285   4.374 -1.0803 -0.0730  2.0793
  378TIP3   OH2 1097   4.973   2.491   1.714  0.0985 -0.3111 -0.3649
  378TIP3    H1 1098   5.015   2.577   1.706  1.5942 -1.0249 -0.4850
  378TIP3    H2 1099   5.016   2.437   1.648  0.3464 -1.6049  0.8074
  379TIP3   OH2 1100   5.717   5.218   1.816  0.2191 -0.2631  0.2952
  379TIP3    H1 1101   5.681   5.130   1.828 -0.4641  0.0129  0.3665
  379TIP3    H2 1102   5.657   5.275   1.865  0.4196  0.2855 -0.0883
  380TIP3   OH2 1103   6.097   5.472   0.216  0.4955 -0.0096 -0.4133
  380TIP3    H1 1104   6.123   5.561   0.189 -1.8475  1.5994  2.1763
  380TIP3    H2 1105   6.022   5.485   0.273 -0.4947 -3.7933 -0.6099
  381TIP3   OH2 1106   1.037   0.773   4.365 -0.1383  0.4422  0.1577
  381TIP3    H1 1107   1.123   0.731   4.364  0.3066  1.3455 -0.0165
  381TIP3    H2 1108   0.979   0.707   4.404  0.5451 -0.3266 -0.0947
  382TIP3   OH2 1109   5.920   0.092   4.919  0.2378  0.2733  0.5316
  382TIP3    H1 1110   5.861   0.111   4.846  0.4647  0.4975  0.4022
  382TIP3    H2 1111   6.007   0.087   4.879  0.2486 -0.5833  0.6374
  383TIP3   OH2 1112   6.130   1.690   1.571  0.2962 -0.4480  0.4427
  383TIP3    H1 1113   6.166   1.650   1.492 -1.6371 -1.0862 -0.1742
  383TIP3    H2 1114   6.130   1.620   1.636 -0.3372 -0.6406  0.2509
  384TIP3   OH2 1115   5.601   4.908   5.602  0.3551 -0.2087  0.1717
  384TIP3    H1 1116   5.626   4.997   5.575  1.9157 -0.3942  0.8884
  384TIP3    H2 1117   5.524   4.921   5.657 -0.1360  0.5838 -0.6630
  385TIP3   OH2 1118   5.509   2.550   4.358  0.4235 -0.3108  0.8642
  385TIP3    H1 1119   5.515   2.646   4.359 -0.4035 -0.1961 -0.9537
  385TIP3    H2 1120   5.583   2.523   4.304 -1.0090 -0.4645 -1.1096
  386TIP3   OH2 1121   6.936   3.495   2.272 -0.0334 -0.4647 -0.5103
  386TIP3    H1 1122   6.976   3.582   2.267  0.6673 -0.7424  0.1183
  386TIP3    H2 1123   6.916   3.473   2.181  1.2475 -0.3127 -0.8396
  387TIP3   OH2 1124   6.089   3.667   1.043  0.1884 -0.6668  0.0999
  387TIP3    H1 1125   6.132   3.748   1.016 -0.5260 -0.2963  0.0660
  387TIP3    H2 1126   6.103   3.607   0.971 -0.8919  0.0192 -0.7102
  388TIP3   OH2 1127   3.497   3.324   5.164 -0.0606  0.3172 -1.0751
  388TIP3    H1 1128   3.583   3.332   5.123  0.1254 -0.9102 -0.9589
  388TIP3    H2 1129   3.435   3.334   5.091  0.1750  1.0591 -1.1818
  389TIP3   OH2 1130   0.631   1.395   1.595 -0.2887 -0.7515  0.0875
  389TIP3    H1 1131   0.670   1.421   1.679  1.5200 -0.8710 -0.6775
  389TIP3    H2 1132   0.539   1.381   1.616 -0.4806  1.8402  1.5082
  390TIP3   OH2 1133   4.198   0.582   3.727 -0.0235 -0.2490 -0.3883
  390TIP3    H1 1134   4.118   0.548   3.688 -1.9652  1.8392  1.5090
  390TIP3    H2 1135   4.174   0.601   3.818  2.5214  0.8194  0.1440
  391TIP3   OH2 1136   0.641   2.431   2.990 -0.0163  0.0527  0.5510
  391TIP3    H1 1137   0.665   2.371   2.919  0.1061  1.2788 -0.4748
  391TIP3    H2 1138   0.591   2.500   2.947 -2.3931 -0.5891  2.0813
  392TIP3   OH2 1139   5.600   4.124   3.450  0.3543 -0.6606 -0.1499
  392TIP3    H1 1140   5.537   4.191   3.477  0.6727  0.3418 -1.7656
  392TIP3    H2 1141   5.683   4.153   3.488  0.8777  0.9506 -2.3264
  393TIP3   OH2 1142   2.297   4.623   1.034 -0.5735 -0.2591 -0.1573
  393TIP3    H1 1143   2.334   4.706   1.062  0.6093 -0.2188 -1.6701
  393TIP3    H2 1144   2.359   4.557   1.067  0.1551 -0.2904 -1.5080
  394TIP3   OH2 1145   4.181   6.089   4.608  0.3501  0.3141 -0.1309
  394TIP3    H1 1146   4.106   6.113   4.661  2.2929  3.8695  1.3410
  394TIP3    H2 1147   4.175   5.993   4.599 -0.8849 -0.4433  5.4051
  395TIP3   OH2 1148   6.229   6.109   0.651  0.5934  0.4412  0.1333
  395TIP3    H1 1149   6.280   6.126   0.730 -1.1464  2.0404  0.9968
  395TIP3    H2 1150   6.273   6.036   0.608  2.4836  0.5651  1.7692
  396TIP3   OH2 1151   2.607   5.050   3.387 -0.3274 -0.0126 -0.5001
  396TIP3    H1 1152   2.566   4.987   3.327  1.2280 -0.2746 -1.3400
  396TIP3    H2 1153   2.546   5.123   3.391 -0.5195 -0.0403 -2.3328
  397TIP3   OH2 1154   0.191   4.916   2.522  0.2077 -0.0184  0.9963
  397TIP3    H1 1155   0.142   4.834   2.524  0.7675 -0.3573  0.9585
  397TIP3    H2 1156   0.135   4.978   2.570 -0.5326 -0.2345  0.4240
  398TIP3   OH2 1157   3.838   4.543   5.593 -0.1355  0.1225 -0.6745
  398TIP3    H1 1158   3.917   4.538   5.539 -0.0346  1.5421 -0.6900
  398TIP3    H2 1159   3.767   4.554   5.530 -0.9105 -4.5605 -0.9713
  399TIP3   OH2 1160   3.585   1.067   4.528  0.1264  0.4614  0.4523
  399TIP3    H1 1161   3.490   1.074   4.525  0.1468  0.8319  0.6817
  399TIP3    H2 1162   3.616   1.157   4.543  0.4156 -0.0039  3.0343
  400TIP3   OH2 1163   6.469   5.288   4.151 -0.0074  0.2737 -0.1139
  400TIP3    H1 1164   6.495   5.305   4.241  0.0309 -1.1617  0.1584
  400TIP3    H2 1165   6.464   5.375   4.111  0.5310  0.8873  1.1082
  401TIP3   OH2 1166   2.761   4.719   3.522  0.0867 -0.1949  0.0765
  401TIP3    H1 1167   2.822   4.780   3.564  1.0664 -1.3865  0.4463
  401TIP3    H2 1168   2.795   4.632   3.544 -1.2355 -0.8844 -0.4892
  402TIP3   OH2 1169   4.067   6.523   5.592  0.4376  0.3475  0.4498
  402TIP3    H1 1170   3.982   6.563   5.608  0.8250  0.4539  2.6004
  402TIP3    H2 1171   4.119   6.592   5.551 -0.8528 -0.1446 -2.2170
  403TIP3   OH2 1172   2.085   1.872   4.154 -0.0248  0.0874  0.1898
  403TIP3    H1 1173   2.162   1.878   4.210 -0.2369  1.9455  0.3614
  403TIP3    H2 1174   2.015   1.841   4.211  0.1394  0.3876  0.5622
  404TIP3   OH2 1175   5.574   4.815   2.584  0.3904 -0.2789  1.1684
  404TIP3    H1 1176   5.614   4.729   2.572  3.1307  1.3260 -3.8005
  404TIP3    H2 1177   5.533   4.834   2.500  0.1282  3.3911  1.9686
  405TIP3   OH2 1178   3.166   0.181   1.797 -0.8854 -0.0358  0.2896
  405TIP3    H1 1179   3.199   0.107   1.748  4.5158  0.1796  2.8333
  405TIP3    H2 1180   3.127   0.239   1.732  1.2499 -1.9384 -2.9275
  406TIP3   OH2 1181   1.089   2.692   2.392  0.8444 -0.6344 -0.0733
  406TIP3    H1 1182   1.129   2.679   2.307  2.3288  0.9283  0.3281
  406TIP3    H2 1183   1.119   2.779   2.420 -1.3454 -0.1613  1.0934
  407TIP3   OH2 1184   6.865   1.729   3.449 -0.1376  0.3150  0.4831
  407TIP3    H1 1185   6.943   1.723   3.393 -0.1168 -1.3015  0.6441
  407TIP3    H2 1186   6.893   1.782   3.523  0.1994  1.4541 -0.4291
  408TIP3   OH2 1187   1.617   4.894   4.577 -0.2564  0.4497  0.1102
  408TIP3    H1 1188   1.688   4.957   4.592  0.5175 -0.2413 -0.5520
  408TIP3    H2 1189   1.546   4.925   4.633  0.2796  1.6193  0.1836
  409TIP3   OH2 1190   3.853   2.159   0.225 -0.0912  0.1794 -0.0670
  409TIP3    H1 1191   3.931   2.114   0.192  1.1630  2.8136 -0.9292
  409TIP3    H2 1192   3.875   2.183   0.315  0.1655  1.0186 -0.3453
  410TIP3   OH2 1193   6.160   0.560   0.665  0.0444  0.3463  0.1686
  410TIP3    H1 1194   6.253   0.538   0.657 -0.1326 -0.0938 -0.8973
  410TIP3    H2 1195   6.154   0.613   0.744  0.9077 -1.2399  1.3459
  411TIP3   OH2 1196   4.106   0.076   5.172 -0.8298 -0.4765  0.5034
  411TIP3    H1 1197   4.017   0.073   5.206 -0.7645 -1.2895  0.6078
  411TIP3    H2 1198   4.157   0.022   5.232  0.3038  2.1548  2.0748
  412TIP3   OH2 1199   5.180   4.987   4.305 -0.1307  0.5483  0.5495
  412TIP3    H1 1200   5.176   5.042   4.227 -0.7559 -0.0082  0.1849
  412TIP3    H2 1201   5.205   4.900   4.272 -3.2187 -0.4437  0.5352
  413TIP3   OH2 1202   4.190   5.377   0.749  0.3223  0.8300  0.3262
  413TIP3    H1 1203   4.151   5.325   0.820  0.3103  0.1712 -0.1489
  413TIP3    H2 1204   4.147   5.462   0.755  2.3463  1.7679  2.8909
  414TIP3   OH2 1205   2.070   0.637   4.559 -0.1639 -0.0549 -0.5425
  414TIP3    H1 1206   2.059   0.708   4.622  3.1223 -0.1092  0.2810
  414TIP3    H2 1207   2.093   0.681   4.477 -0.8355 -0.1067 -0.7641
  415TIP3   OH2 1208   0.378   0.302   0.813 -0.4045 -0.3445 -0.8803
  415TIP3    H1 1209   0.445   0.273   0.752  0.9640 -0.9836  0.8551
  415TIP3    H2 1210   0.425   0.324   0.893 -2.2882 -1.5070  0.6558
  416TIP3   OH2 1211   3.273   1.080   5.426  0.4006  0.6012  0.3374
  416TIP3    H1 1212   3.302   1.098   5.337  0.7818  1.8305  0.6981
  416TIP3    H2 1213   3.351   1.044   5.469 -0.0183 -0.8191 -0.0402
  417TIP3   OH2 1214   6.334   4.058   2.621  0.0915  0.1097 -0.4159
  417TIP3    H1 1215   6.397   4.065   2.549 -0.4674 -0.2888 -0.9532
  417TIP3    H2 1216   6.381   4.093   2.697  0.3417  1.5284 -1.1872
  418TIP3   OH2 1217   6.119   0.510   4.417 -0.4071  0.0621 -0.1398
  418TIP3    H1 1218   6.128   0.437   4.477 -1.3389  0.3634  0.3854
  418TIP3    H2 1219   6.161   0.480   4.336  1.0473 -0.2698  0.6976
  419TIP3   OH2 1220   6.744   0.631   5.294 -0.3282  0.3422  0.2048
  419TIP3    H1 1221   6.819   0.593   5.247 -0.2840  0.0485  0.5125
  419TIP3    H2 1222   6.745   0.589   5.380 -1.5464 -0.5372 -0.1880
  420TIP3   OH2 1223   7.017   3.947   3.139 -0.2230  0.0782 -0.2038
  420TIP3    H1 1224   7.052   3.867   3.178  0.6489  0.5140 -0.0643
  420TIP3    H2 1225   6.942   3.918   3.087 -1.0957 -0.5947  1.3540
  421TIP3   OH2 1226   5.272   4.806   0.581 -0.2648  0.2071  0.2166
  421TIP3    H1 1227   5.257   4.712   0.583  2.2590 -0.4297 -2.6706
  421TIP3    H2 1228   5.326   4.824   0.658 -0.5681 -0.7448  0.6576
  422TIP3   OH2 1229   5.914   5.349   4.962 -0.8539  0.1467  0.2517
  422TIP3    H1 1230   5.879   5.279   5.017  1.4207  0.0666  1.7159
  422TIP3    H2 1231   5.959   5.408   5.023  1.2319  0.4129 -1.4121
  423TIP3   OH2 1232   0.390   5.175   4.918 -0.2042  0.3093  0.2821
  423TIP3    H1 1233   0.340   5.173   4.836  1.1842 -1.3343 -0.6100
  423TIP3    H2 1234   0.354   5.103   4.969  1.6564 -1.4328 -0.7105
  424TIP3   OH2 1235   3.105   1.044   1.276 -0.8982 -0.2957 -0.2451
  424TIP3    H1 1236   3.134   1.073   1.190 -1.3950  0.0794 -0.2958
  424TIP3    H2 1237   3.185   1.030   1.325 -0.5948 -1.1442 -0.9646
  425TIP3   OH2 1238   2.452   4.074   5.568 -0.4615 -0.2354  0.6373
  425TIP3    H1 1239   2.491   4.105   5.486 -0.1309  0.6022  1.0952
  425TIP3    H2 1240   2.384   4.138   5.588 -0.6822 -0.5548  0.9049
  426TIP3   OH2 1241   3.835   4.774   1.009 -0.6149 -0.5973  0.0017
  426TIP3    H1 1242   3.913   4.782   0.953 -0.4403 -0.9294  0.1965
  426TIP3    H2 1243   3.869   4.779   1.098 -0.9520  0.4116  0.0754
  427TIP3   OH2 1244   5.452   3.309   2.094  0.3425  0.2021  0.5724
  427TIP3    H1 1245   5.497   3.375   2.147 -0.6493  2.9639 -1.7253
  427TIP3    H2 1246   5.375   3.355   2.059 -0.1141 -2.0136 -1.6489
  428TIP3   OH2 1247   1.462   5.356   0.672 -0.5518  0.1850  0.5976
  428TIP3    H1 1248   1.452   5.444   0.707 -0.7332  0.4369 -0.0691
  428TIP3    H2 1249   1.373   5.320   0.672 -0.6696  0.4414 -0.2310
  429TIP3   OH2 1250   3.119   2.486   2.471 -0.7506  0.1303 -0.2530
  429TIP3    H1 1251   3.031   2.488   2.510 -0.5647  2.6635  0.1624
  429TIP3    H2 1252   3.171   2.433   2.532 -1.0751  1.9146  1.7001
  430TIP3   OH2 1253   6.030   1.065   0.318  0.4176 -0.6790 -0.2398
  430TIP3    H1 1254   6.040   1.018   0.401 -2.2586  0.9565  1.1378
  430TIP3    H2 1255   6.109   1.119   0.311 -0.2244  0.7823  2.4275
  431TIP3   OH2 1256   5.766   0.076   2.160 -0.0377 -0.0641  0.0721
  431TIP3    H1 1257   5.680   0.066   2.118  0.1108  2.6588 -1.1249
  431TIP3    H2 1258   5.826   0.028   2.103 -0.6651 -1.6888  0.7244
  432TIP3   OH2 1259   3.365   3.343   2.521 -0.3719 -0.7623  0.2504
  432TIP3    H1 1260   3.274   3.324   2.500 -0.1191 -2.9451  0.8952
  432TIP3    H2 1261   3.411   3.260   2.508  1.5800  0.3325 -0.2663
  433TIP3   OH2 1262   1.985   2.514   1.425 -0.2696  0.5360  0.0761
  433TIP3    H1 1263   2.054   2.567   1.466  0.1359  2.1950 -2.5251
  433TIP3    H2 1264   1.905   2.537   1.473  0.3114  1.7105  0.5130
  434TIP3   OH2 1265   3.678   4.044   4.379 -0.4093  0.2491  0.1478
  434TIP3    H1 1266   3.597   4.001   4.406 -0.7109 -0.1325 -1.2905
  434TIP3    H2 1267   3.737   3.971   4.359  0.4355  0.5163  1.4988
  435TIP3   OH2 1268   3.739   5.138   4.695  0.6245  0.6508  0.2416
  435TIP3    H1 1269   3.720   5.230   4.676 -0.5352  0.3042 -0.3835
  435TIP3    H2 1270   3.730   5.131   4.790 -1.0598  0.8359  0.1353
  436TIP3   OH2 1271   0.747   1.791   2.138  0.2315 -0.4541 -0.2482
  436TIP3    H1 1272   0.724   1.873   2.094  1.0388  0.7626  1.4813
  436TIP3    H2 1273   0.674   1.733   2.121 -1.4306  1.3737  0.3183
  437TIP3   OH2 1274   4.909   4.785   3.648  0.0510  0.0519 -0.6928
  437TIP3    H1 1275   4.865   4.831   3.576 -0.0963  1.3209  0.1825
  437TIP3    H2 1276   4.984   4.741   3.606 -0.5208  0.0462 -1.7505
  438TIP3   OH2 1277   3.986   6.055   1.720 -0.0794  0.1989 -0.2962
  438TIP3    H1 1278   4.070   6.015   1.744  0.1568  1.4788  1.1324
  438TIP3    H2 1279   3.926   5.981   1.710  0.8131 -0.6337  0.3243
  439TIP3   OH2 1280   0.947   3.809   2.206 -0.1467 -0.1450 -0.9792
  439TIP3    H1 1281   1.015   3.793   2.272 -0.5377  2.4327  0.1664
  439TIP3    H2 1282   0.906   3.723   2.193  0.9613 -1.0434  0.9749
  440TIP3   OH2 1283   4.031   2.577   1.172 -0.7143 -0.0933 -0.2854
  440TIP3    H1 1284   4.096   2.624   1.225 -1.4059  0.2260  0.2927
  440TIP3    H2 1285   4.079   2.549   1.095  0.8585 -2.2877  1.3543
  441TIP3   OH2 1286   5.035   3.007   2.396 -0.5118 -0.1309 -0.3417
  441TIP3    H1 1287   4.987   3.090   2.393 -1.1576 -0.2458  2.8453
  441TIP3    H2 1288   4.972   2.944   2.431  1.4463 -0.5332  2.9197
  442TIP3   OH2 1289   6.938   2.472   0.216  0.2061 -0.1564 -0.0086
  442TIP3    H1 1290   6.908   2.522   0.292 -1.2674 -0.2985 -0.4796
  442TIP3    H2 1291   6.907   2.383   0.232  0.8736 -0.4382 -0.2501
  443TIP3   OH2 1292   2.522   2.745   2.896 -0.1677  0.5016  0.0016
  443TIP3    H1 1293   2.598   2.694   2.922 -0.9418 -1.5786 -1.5421
  443TIP3    H2 1294   2.460   2.733   2.968 -0.2339 -0.5920 -0.2091
  444TIP3   OH2 1295   1.887   3.293   4.551  0.1120 -0.4782  0.1362
  444TIP3    H1 1296   1.892   3.214   4.605  5.7233 -0.7724 -0.2466
  444TIP3    H2 1297   1.912   3.364   4.610  1.0912  0.0110 -0.8333
  445TIP3   OH2 1298   1.237   1.819   0.572  0.2488  0.2555  0.6873
  445TIP3    H1 1299   1.161   1.832   0.628  2.1963  0.4737  3.4608
  445TIP3    H2 1300   1.232   1.727   0.546 -0.5335  0.0601  1.4901
  446TIP3   OH2 1301   2.914   1.382   2.079 -0.0908 -0.5475  0.6094
  446TIP3    H1 1302   2.971   1.346   2.011 -1.6667  0.0343 -1.0965
  446TIP3    H2 1303   2.929   1.327   2.155  0.4521 -2.3477 -0.7423
  447TIP3   OH2 1304   5.213   5.855   4.729  0.0698 -0.0073 -0.3677
  447TIP3    H1 1305   5.239   5.947   4.720 -2.3213  0.5994 -1.9541
  447TIP3    H2 1306   5.249   5.812   4.652 -0.9297  0.1788 -0.9556
  448TIP3   OH2 1307   0.469   5.582   2.085 -0.3301  0.2021  0.3843
  448TIP3    H1 1308   0.497   5.492   2.066 -0.4184  0.2511  0.0040
  448TIP3    H2 1309   0.501   5.633   2.010 -3.1913 -0.0669 -1.1501
  449TIP3   OH2 1310   6.940   5.562   0.905  0.5542 -0.2851  0.5960
  449TIP3    H1 1311   6.968   5.533   0.992  1.5086  1.2327  0.8198
  449TIP3    H2 1312   7.005   5.626   0.879  2.6429 -3.4964 -3.0127
  450TIP3   OH2 1313   1.222   6.053   0.993 -1.0612 -0.6629  0.2502
  450TIP3    H1 1314   1.300   6.019   1.038 -1.2922 -0.2611  0.9694
  450TIP3    H2 1315   1.249   6.140   0.962 -0.1183 -1.8226 -2.5169
  451TIP3   OH2 1316   7.040   0.202   2.880  0.1056 -0.3992 -0.3478
  451TIP3    H1 1317   7.066   0.119   2.839 -0.9465 -0.5476 -0.7469
  451TIP3    H2 1318   7.014   0.178   2.969  0.4744 -0.3849 -0.2348
  452TIP3   OH2 1319   2.635   0.786   1.288 -1.2137  0.3199  0.1110
  452TIP3    H1 1320   2.659   0.770   1.197 -2.2150 -0.6352 -0.0011
  452TIP3    H2 1321   2.653   0.703   1.332  0.0028  1.0008  0.9638
  453TIP3   OH2 1322   1.472   6.623   4.081  0.2306 -0.1924 -0.3256
  453TIP3    H1 1323   1.549   6.567   4.069 -0.1686 -0.4278 -2.1699
  453TIP3    H2 1324   1.436   6.597   4.165  1.4048 -1.0191 -0.0431
  454TIP3   OH2 1325   6.086   6.486   0.176  0.0927 -0.2790  0.4671
  454TIP3    H1 1326   6.073   6.419   0.109  0.7855 -0.4652  0.5071
  454TIP3    H2 1327   6.076   6.440   0.259 -3.3869  0.4432  0.5895
  455TIP3   OH2 1328   2.967   6.000   0.760 -0.2294  0.3072 -0.2219
  455TIP3    H1 1329   2.950   5.906   0.762 -0.2198  0.3224  1.0493
  455TIP3    H2 1330   2.879   6.039   0.757 -0.3201  0.2853  1.4418
  456TIP3   OH2 1331   5.364   4.754   0.334 -0.0073 -0.1439 -0.0603
  456TIP3    H1 1332   5.282   4.765   0.286  0.2049 -0.0960 -0.4174
  456TIP3    H2 1333   5.347   4.790   0.421  0.3063  1.9219 -0.8015
  457TIP3   OH2 1334   0.341   4.249   0.249  0.1061  0.0959  0.0460
  457TIP3    H1 1335   0.293   4.267   0.168 -0.8775 -0.6565  0.4436
  457TIP3    H2 1336   0.427   4.289   0.235 -0.1527  0.2557 -1.2428
  458TIP3   OH2 1337   1.209   1.003   1.938  0.1636 -0.1248  0.1572
  458TIP3    H1 1338   1.208   1.001   2.033  0.4021 -0.1546  0.1606
  458TIP3    H2 1339   1.138   0.944   1.912  1.5920 -2.0274  0.3156
  459TIP3   OH2 1340   3.373   1.974   3.238 -0.1102 -0.1474  0.0574
  459TIP3    H1 1341   3.333   2.059   3.255  0.7077  0.2793 -0.0865
  459TIP3    H2 1342   3.340   1.948   3.152 -1.1095 -0.4315  0.5198
  460TIP3   OH2 1343   0.330   1.690   1.558 -0.2746 -0.1112  0.1064
  460TIP3    H1 1344   0.353   1.772   1.600  0.2532 -0.4313  0.4390
  460TIP3    H2 1345   0.370   1.695   1.471  2.0964 -1.1317  1.0546
  461TIP3   OH2 1346   6.783   3.757   0.715  0.1376 -0.4280 -0.4448
  461TIP3    H1 1347   6.850   3.741   0.781 -0.7401  0.1532  0.6238
  461TIP3    H2 1348   6.733   3.831   0.750  0.7928  1.1522 -2.6411
  462TIP3   OH2 1349   1.137   0.124   1.812 -0.8440  0.1354  0.4091
  462TIP3    H1 1350   1.232   0.114   1.815 -0.8810 -0.1110  0.8125
  462TIP3    H2 1351   1.122   0.218   1.823 -0.5936  0.3854 -1.1002
  463TIP3   OH2 1352   5.670   4.200   1.137 -0.2882  0.0102 -0.1293
  463TIP3    H1 1353   5.604   4.132   1.153  0.8723 -1.5192 -1.5355
  463TIP3    H2 1354   5.726   4.198   1.215  0.4336 -1.5323 -0.6416
  464TIP3   OH2 1355   6.335   3.490   0.132 -0.3971  0.3964 -0.0968
  464TIP3    H1 1356   6.326   3.506   0.038  0.6979 -0.2495 -0.3408
  464TIP3    H2 1357   6.430   3.494   0.147 -0.5275  0.0341  0.8845
  465TIP3   OH2 1358   2.581   5.669   0.447 -0.2739  0.3989 -0.1741
  465TIP3    H1 1359   2.591   5.577   0.470 -1.6283 -0.5572 -2.9011
  465TIP3    H2 1360   2.486   5.685   0.451 -0.4168  0.6707 -2.7448
  466TIP3   OH2 1361   6.266   5.135   0.928 -0.6724  0.0090 -0.4703
  466TIP3    H1 1362   6.357   5.150   0.903 -1.0241  0.1178 -1.7937
  466TIP3    H2 1363   6.233   5.072   0.864 -1.8239  0.8124 -0.7182
  467TIP3   OH2 1364   4.909   1.948   0.777  0.2816  0.1331 -0.1847
  467TIP3    H1 1365   4.988   1.940   0.831 -0.1626 -0.3793  0.4066
  467TIP3    H2 1366   4.896   2.042   0.768  1.4975  0.2366 -1.0965
  468TIP3   OH2 1367   4.381   6.392   2.928  0.4510 -0.3274 -0.4293
  468TIP3    H1 1368   4.305   6.394   2.871  1.3428  0.1668 -1.6365
  468TIP3    H2 1369   4.440   6.328   2.888  1.8149  1.2504 -1.0576
  469TIP3   OH2 1370   3.390   2.723   1.735  0.2125 -0.4406 -0.0799
  469TIP3    H1 1371   3.347   2.642   1.760  2.1949 -1.6630 -0.4158
  469TIP3    H2 1372   3.374   2.731   1.641  1.2797 -1.3019 -0.3592
  470TIP3   OH2 1373   2.291   5.568   0.546 -0.0955 -0.0729 -0.3751
  470TIP3    H1 1374   2.201   5.576   0.577 -0.7134 -0.4576 -2.0132
  470TIP3    H2 1375   2.327   5.495   0.597 -0.6117  0.2170  0.4349
  471TIP3   OH2 1376   5.329   0.815   5.095 -0.3604  0.3011  0.8278
  471TIP3    H1 1377   5.294   0.871   5.165 -0.8026  1.8393 -0.5468
  471TIP3    H2 1378   5.269   0.828   5.021  0.6466 -0.4650 -0.1685
  472TIP3   OH2 1379   0.637   5.916   4.591  0.2270 -0.5362 -0.4659
  472TIP3    H1 1380   0.619   5.938   4.683 -0.2901 -2.0888 -0.1791
  472TIP3    H2 1381   0.727   5.945   4.578  0.6146 -1.0889  0.7976
  473TIP3   OH2 1382   5.883   0.828   0.824 -0.1119  0.0887 -0.7144
  473TIP3    H1 1383   5.859   0.751   0.876  0.9308 -0.9800 -1.7364
  473TIP3    H2 1384   5.800   0.856   0.784 -0.3488 -1.2023 -1.1971
  474TIP3   OH2 1385   0.727   1.040   5.441 -0.7701 -0.5306  0.3158
  474TIP3    H1 1386   0.768   0.958   5.414  0.7137  0.2098  0.2480
  474TIP3    H2 1387   0.646   1.044   5.390 -0.7787 -1.8542  0.1924
  475TIP3   OH2 1388   6.775   6.235   4.274 -0.4444  0.3214  0.2453
  475TIP3    H1 1389   6.822   6.182   4.339  0.5883  2.4454  1.3114
  475TIP3    H2 1390   6.718   6.172   4.229  2.1107 -2.0797  0.0865
  476TIP3   OH2 1391   4.301   1.449   2.724 -0.3550 -0.1260  0.3742
  476TIP3    H1 1392   4.320   1.494   2.642 -0.9020 -1.2245 -0.3722
  476TIP3    H2 1393   4.207   1.432   2.722 -0.3011 -0.5509  1.0276
  477TIP3   OH2 1394   5.739   1.759   2.683  0.1880  0.6919 -0.2314
  477TIP3    H1 1395   5.731   1.837   2.737  1.5577  0.5219  0.2644
  477TIP3    H2 1396   5.817   1.715   2.717 -1.2324 -1.5560  0.3705
  478TIP3   OH2 1397   4.357   6.566   3.135 -0.1693 -0.5512 -0.1326
  478TIP3    H1 1398   4.362   6.481   3.089  0.6228 -1.2535  1.1791
  478TIP3    H2 1399   4.448   6.585   3.157 -0.3217  0.7714 -0.5859
  479TIP3   OH2 1400   2.300   1.854   4.476 -0.4540 -0.5455  0.1305
  479TIP3    H1 1401   2.377   1.798   4.463 -1.0549 -1.0327 -1.7979
  479TIP3    H2 1402   2.272   1.836   4.565  1.3287 -0.7688  0.6952
  480TIP3   OH2 1403   4.286   5.137   4.594  0.5040 -0.3962  0.4751
  480TIP3    H1 1404   4.199   5.097   4.599  0.1285  0.5302  1.8778
  480TIP3    H2 1405   4.327   5.116   4.678  1.6973 -0.9290 -0.2216
  481TIP3   OH2 1406   0.480   2.216   1.379 -0.0519  0.0702  0.4404
  481TIP3    H1 1407   0.454   2.131   1.414 -0.3830  0.5937  1.5358
  481TIP3    H2 1408   0.510   2.265   1.456 -0.9601  1.3327  0.0293
  482TIP3   OH2 1409   0.896   1.338   4.333 -0.3899 -0.1534 -0.0523
  482TIP3    H1 1410   0.824   1.290   4.294  0.0640  0.5695 -1.8732
  482TIP3    H2 1411   0.940   1.274   4.390 -0.8879 -1.3437 -0.9795
  483TIP3   OH2 1412   6.108   4.581   1.484 -0.0704 -0.3192  0.2769
  483TIP3    H1 1413   6.181   4.597   1.424  1.1877 -1.0138  1.5891
  483TIP3    H2 1414   6.136   4.509   1.539 -0.7311  0.9660  2.4348
  484TIP3   OH2 1415   4.483   3.719   4.499 -0.4716 -0.2077  0.1605
  484TIP3    H1 1416   4.467   3.800   4.450  1.5300 -0.4443 -0.9667
  484TIP3    H2 1417   4.466   3.743   4.590 -1.1651  1.1100 -0.2836
  485TIP3   OH2 1418   5.836   3.422   5.133  0.2300  0.7538 -0.3249
  485TIP3    H1 1419   5.810   3.469   5.054  0.9354  1.2585 -0.2631
  485TIP3    H2 1420   5.906   3.363   5.105  0.0943  0.5274 -0.1889
  486TIP3   OH2 1421   3.254   0.513   2.150 -0.1902 -0.1094 -0.5349
  486TIP3    H1 1422   3.181   0.528   2.091 -0.1314 -1.1722 -0.8859
  486TIP3    H2 1423   3.254   0.590   2.208 -0.6156  0.6533 -1.5153
  487TIP3   OH2 1424   6.255   5.188   1.995  0.3303  0.1513  0.5376
  487TIP3    H1 1425   6.304   5.191   1.913  0.1062 -0.8272  0.3622
  487TIP3    H2 1426   6.292   5.259   2.047  1.6183 -0.2857  0.2475
  488TIP3   OH2 1427   1.232   5.017   4.509 -0.1221 -0.2758 -0.3247
  488TIP3    H1 1428   1.255   5.075   4.582 -1.6243  0.6429 -0.5350
  488TIP3    H2 1429   1.217   4.932   4.549  3.0497 -0.8468 -0.1232
  489TIP3   OH2 1430   2.439   2.503   0.379 -0.1976 -0.0547 -0.4499
  489TIP3    H1 1431   2.437   2.430   0.441  1.5235 -0.4865 -0.8559
  489TIP3    H2 1432   2.429   2.581   0.434  2.7701 -0.3274  0.6485
  490TIP3   OH2 1433   3.442   2.289   2.360  0.2775  0.2377  0.3939
  490TIP3    H1 1434   3.419   2.376   2.392  0.6087  0.2074  0.7254
  490TIP3    H2 1435   3.527   2.270   2.402  1.5128  0.8485 -1.6691
  491TIP3   OH2 1436   4.726   4.533   0.655 -0.7351  0.0384 -0.5583
  491TIP3    H1 1437   4.786   4.557   0.725 -2.9124 -0.0846  1.4675
  491TIP3    H2 1438   4.665   4.472   0.696 -1.6081 -0.7006 -2.8111
  492TIP3   OH2 1439   3.828   4.684   5.337  0.2483  0.2220  0.2830
  492TIP3    H1 1440   3.923   4.692   5.345  0.3166  0.7875 -0.8760
  492TIP3    H2 1441   3.813   4.661   5.245 -0.7700  1.0985  0.2033
  493TIP3   OH2 1442   0.185   4.039   1.903 -0.2537  0.1388 -0.2594
  493TIP3    H1 1443   0.214   4.092   1.828 -2.1343  1.2296 -0.2708
  493TIP3    H2 1444   0.179   4.101   1.975  0.2747 -0.6507  0.4716
  494TIP3   OH2 1445   3.999   6.216   4.791 -0.2382  0.1947 -0.2730
  494TIP3    H1 1446   4.004   6.233   4.885  1.4812 -1.4625  0.0019
  494TIP3    H2 1447   3.967   6.298   4.753 -0.3666  1.1044  1.6794
  495TIP3   OH2 1448   5.913   1.417   1.625  0.0422 -0.1122 -0.2242
  495TIP3    H1 1449   5.994   1.459   1.654 -0.2774  0.9722 -0.8377
  495TIP3    H2 1450   5.870   1.389   1.706  0.2640  0.7752  0.2155
  496TIP3   OH2 1451   6.003   0.965   4.679  0.3523  0.0875 -0.1130
  496TIP3    H1 1452   6.014   0.996   4.769  0.0003  1.0411 -0.3837
  496TIP3    H2 1453   5.996   0.870   4.686 -2.0633  0.2945  1.1311
  497TIP3   OH2 1454   3.506   6.267   3.236  0.3799 -0.6070  0.5191
  497TIP3    H1 1455   3.550   6.313   3.307  0.3356 -0.4602  0.4517
  497TIP3    H2 1456   3.415   6.261   3.263  0.2098  0.1081  0.1475
  498TIP3   OH2 1457   6.606   4.931   4.856 -0.6568 -0.0914 -0.2730
  498TIP3    H1 1458   6.694   4.962   4.880 -0.5201  0.7051 -1.6948
  498TIP3    H2 1459   6.556   5.012   4.842 -1.6602 -0.5404  0.6357
  499TIP3   OH2 1460   4.410   4.819   3.045  0.2314  0.5067  0.0037
  499TIP3    H1 1461   4.328   4.770   3.047  1.2189 -1.2769 -0.6967
  499TIP3    H2 1462   4.426   4.843   3.136  0.7001 -2.3112  0.7722
  500TIP3   OH2 1463   6.471   1.811   5.146  0.8294 -0.1298 -0.1307
  500TIP3    H1 1464   6.488   1.889   5.199 -0.6045  0.4848 -0.5541
  500TIP3    H2 1465   6.384   1.825   5.109 -0.1751 -2.6308  1.0448
  501TIP3   OH2 1466   6.421   3.013   3.884  0.0264 -0.1871 -0.4638
  501TIP3    H1 1467   6.361   3.081   3.852  1.2801  0.4969 -1.4344
  501TIP3    H2 1468   6.505   3.057   3.893  0.5378 -1.2741  0.3168
  502TIP3   OH2 1469   2.080   4.334   5.256  0.1774  0.0012  0.5026
  502TIP3    H1 1470   2.169   4.347   5.288 -0.0431 -0.2418  1.2269
  502TIP3    H2 1471   2.089   4.272   5.184  0.5115 -0.5925  1.0485
  503TIP3   OH2 1472   6.602   1.521   3.070  0.0831 -0.0393 -0.3642
  503TIP3    H1 1473   6.663   1.516   2.997  2.2259 -0.1186  1.3607
  503TIP3    H2 1474   6.633   1.593   3.123 -0.9420 -0.5007  0.9217
  504TIP3   OH2 1475   0.771   2.897   1.000  0.9198 -0.3833  0.0393
  504TIP3    H1 1476   0.802   2.888   0.909 -1.2905 -1.0991 -0.7090
  504TIP3    H2 1477   0.707   2.827   1.010 -1.0670  1.4771  1.1733
  505TIP3   OH2 1478   6.009  -0.019   5.145  0.2314 -0.0725  0.4614
  505TIP3    H1 1479   6.056   0.048   5.193 -0.2368  0.0759  0.7271
  505TIP3    H2 1480   6.000   0.015   5.056  1.6983 -0.6468  0.0766
  506TIP3   OH2 1481   5.118   3.945   1.144  0.1301  0.1205  0.0035
  506TIP3    H1 1482   5.108   3.897   1.062  0.4165 -0.6103  0.3885
  506TIP3    H2 1483   5.029   3.959   1.175  0.0340  0.1225 -0.2751
  507TIP3   OH2 1484   6.049   2.399   1.727 -0.1981  0.1249  0.2231
  507TIP3    H1 1485   6.003   2.315   1.715 -1.2407  0.6427  0.4675
  507TIP3    H2 1486   6.072   2.401   1.820  1.7792 -0.8355 -0.1930
  508TIP3   OH2 1487   2.311   2.363   0.916  0.8540 -0.5702  0.2443
  508TIP3    H1 1488   2.232   2.315   0.889  0.5542 -0.2108  0.4716
  508TIP3    H2 1489   2.363   2.298   0.963  0.5447 -0.7323  0.3667
  509TIP3   OH2 1490   7.144   6.184   5.623  0.2202  0.1215 -0.3081
  509TIP3    H1 1491   7.053   6.212   5.624  0.3858  0.6762 -0.2497
  509TIP3    H2 1492   7.141   6.090   5.604 -0.4483 -0.1825  1.1528
  510TIP3   OH2 1493   2.507   5.349   3.432 -0.3499 -0.1861  0.0157
  510TIP3    H1 1494   2.492   5.433   3.389  0.0860 -1.8727 -3.8479
  510TIP3    H2 1495   2.419   5.315   3.448 -0.5199  0.6175  0.8812
  511TIP3   OH2 1496   2.410   5.026   0.905 -0.4354 -0.0153 -0.2837
  511TIP3    H1 1497   2.474   4.956   0.920  1.1494  1.3197 -0.5626
  511TIP3    H2 1498   2.377   5.009   0.817 -0.0013 -0.3795 -0.3819
  512TIP3   OH2 1499   6.822   2.391   3.189  0.0325  0.0021  0.0919
  512TIP3    H1 1500   6.896   2.431   3.236  0.4356  0.9171 -1.2663
  512TIP3    H2 1501   6.765   2.359   3.259  1.2243  0.1656  1.1915
  513TIP3   OH2 1502   5.255   0.904   1.883  0.2633 -0.2630 -0.5396
  513TIP3    H1 1503   5.241   0.903   1.978  1.6396 -1.1783 -0.3125
  513TIP3    H2 1504   5.180   0.951   1.848 -0.2812  0.0740  1.0059
  514TIP3   OH2 1505   5.695   1.871   2.401 -0.4831 -0.8328 -0.3834
  514TIP3    H1 1506   5.693   1.966   2.402 -0.1438 -0.8277  0.6641
  514TIP3    H2 1507   5.640   1.845   2.476  0.4709 -1.4297  0.1306
  515TIP3   OH2 1508   1.447   4.884   0.685  0.2648  0.2425  0.1431
  515TIP3    H1 1509   1.425   4.924   0.600  0.2771 -0.7254 -0.3344
  515TIP3    H2 1510   1.457   4.958   0.744 -1.7519  0.8639 -0.2177
  516TIP3   OH2 1511   1.930   6.289   1.716  0.0590 -0.1929  0.0311
  516TIP3    H1 1512   1.994   6.333   1.772 -1.2111  4.0610 -1.4958
  516TIP3    H2 1513   1.857   6.268   1.774  0.0293  1.2913  0.5571
  517TIP3   OH2 1514   0.879   0.532   2.626  0.1103  0.0339 -0.3648
  517TIP3    H1 1515   0.941   0.476   2.580  0.3206 -0.0182 -0.0259
  517TIP3    H2 1516   0.810   0.473   2.655  0.5908 -0.1566  0.4463
  518TIP3   OH2 1517   6.790   3.406   0.390 -0.1523  0.0956 -0.2943
  518TIP3    H1 1518   6.763   3.439   0.475  1.0562  1.7329 -0.5041
  518TIP3    H2 1519   6.710   3.368   0.353 -1.3191  1.6283  0.5282
  519TIP3   OH2 1520   3.693   0.631   2.114 -0.0342 -0.1516  0.0970
  519TIP3    H1 1521   3.613   0.609   2.162  0.0357 -1.6890 -0.4468
  519TIP3    H2 1522   3.720   0.549   2.074  3.4848 -0.4024  2.5935
  520TIP3   OH2 1523   4.263   5.820   0.876 -1.0305  0.1085  0.2146
  520TIP3    H1 1524   4.338   5.765   0.901  0.4526  1.4939 -0.9773
  520TIP3    H2 1525   4.260   5.888   0.942 -1.4965 -0.1531  0.4685
  521TIP3   OH2 1526   2.129   2.612   5.191 -0.2563  0.5127 -0.3050
  521TIP3    H1 1527   2.055   2.558   5.220 -0.4844  0.3034 -1.2593
  521TIP3    H2 1528   2.187   2.552   5.146  0.2091  0.7973 -0.0991
  522TIP3   OH2 1529   3.660   3.140   0.763  0.8940  0.1850 -0.1514
  522TIP3    H1 1530   3.732   3.180   0.714  0.1752 -0.0140 -1.4105
  522TIP3    H2 1531   3.656   3.050   0.730  1.6244 -0.5671  1.6788
  523TIP3   OH2 1532   5.302   0.495   2.149 -0.9684 -0.4747  0.4227
  523TIP3    H1 1533   5.333   0.442   2.223 -1.9901 -0.4383  0.8994
  523TIP3    H2 1534   5.381   0.529   2.108 -0.3001 -2.0995  0.3060
  524TIP3   OH2 1535   7.043   2.916   1.087 -0.3849  0.5464 -0.3615
  524TIP3    H1 1536   6.970   2.977   1.086  0.2156  1.3178  0.7928
  524TIP3    H2 1537   7.061   2.900   1.180  1.0269  0.5174 -0.6083
  525TIP3   OH2 1538   6.647   2.971   5.274  0.4927 -0.4875  0.1648
  525TIP3    H1 1539   6.644   2.959   5.179 -0.8736 -0.1070  0.1379
  525TIP3    H2 1540   6.625   2.885   5.310  0.3046 -0.4560  0.1254
  526TIP3   OH2 1541   0.330   4.528   4.678 -0.1654  0.0240  0.3376
  526TIP3    H1 1542   0.292   4.558   4.596 -2.0663 -0.6608  0.8975
  526TIP3    H2 1543   0.401   4.469   4.653 -1.5768 -1.2420 -0.8717
  527TIP3   OH2 1544   5.115   5.222   0.649 -0.7561 -0.5214  0.4224
  527TIP3    H1 1545   5.180   5.207   0.717 -0.2659 -1.4646 -0.2380
  527TIP3    H2 1546   5.154   5.186   0.569 -1.8184 -0.5313 -0.1129
  528TIP3   OH2 1547   1.781   4.183   1.492 -0.2636  0.2628  0.0400
  528TIP3    H1 1548   1.872   4.213   1.498  0.8525 -2.9338  0.6576
  528TIP3    H2 1549   1.753   4.211   1.405  1.3705  1.0886 -0.2770
  529TIP3   OH2 1550   1.946   4.119   0.540 -0.3923 -0.5907  0.0252
  529TIP3    H1 1551   1.986   4.176   0.605  0.0323 -0.2249 -0.5426
  529TIP3    H2 1552   1.941   4.033   0.582  0.1261 -0.4195  0.4371
  530TIP3   OH2 1553   2.346   3.336   4.896 -0.5605  0.1095 -0.1751
  530TIP3    H1 1554   2.338   3.312   4.989  0.2040  3.4653  0.9216
  530TIP3    H2 1555   2.436   3.315   4.873 -0.6771 -0.5028 -0.0779
  531TIP3   OH2 1556   5.225   3.569   3.169  0.2825  0.2984  0.2385
  531TIP3    H1 1557   5.272   3.503   3.220 -0.2223  0.7426  1.3209
  531TIP3    H2 1558   5.201   3.524   3.088  1.4396 -0.3149  0.2124
  532TIP3   OH2 1559   6.323   3.149   0.278  0.5291 -0.5582  0.4615
  532TIP3    H1 1560   6.297   3.151   0.186  0.8969 -0.2118  0.3608
  532TIP3    H2 1561   6.293   3.064   0.310 -1.1059 -0.0098  0.4806
  533TIP3   OH2 1562   6.380   3.497   1.270 -0.5540  0.3536 -0.7300
  533TIP3    H1 1563   6.432   3.576   1.282 -0.3600  0.1796 -0.4226
  533TIP3    H2 1564   6.333   3.487   1.352 -1.7903  1.0217 -1.3194
  534TIP3   OH2 1565   3.141   3.022   0.303  0.2394 -0.7443 -0.1051
  534TIP3    H1 1566   3.100   3.038   0.388  0.8896  1.0713 -0.0998
  534TIP3    H2 1567   3.235   3.017   0.322  0.4428  0.2500 -0.7608
  535TIP3   OH2 1568   4.668   6.723   5.572 -0.0828 -0.1281 -0.2361
  535TIP3    H1 1569   4.752   6.721   5.618 -0.2969 -2.4268  0.1874
  535TIP3    H2 1570   4.664   6.638   5.527 -1.7386  0.3654 -1.0917
  536TIP3   OH2 1571   4.757   0.322   1.042  0.2948 -0.0529  0.1370
  536TIP3    H1 1572   4.725   0.358   1.125  1.0372 -0.2071  0.4980
  536TIP3    H2 1573   4.731   0.387   0.977 -2.2358 -0.9398  0.1411
  537TIP3   OH2 1574   3.269   2.343   2.623 -0.2367 -0.5777 -0.4048
  537TIP3    H1 1575   3.247   2.251   2.606  2.0451 -1.5187  1.0809
  537TIP3    H2 1576   3.351   2.338   2.674  1.6411  2.3502 -2.8085
  538TIP3   OH2 1577   6.165   3.304   4.489  0.6251  0.2650  0.2136
  538TIP3    H1 1578   6.203   3.229   4.535  1.8171  0.5146 -0.3395
  538TIP3    H2 1579   6.238   3.363   4.473  0.0175  0.7375 -0.9434
  539TIP3   OH2 1580   5.558   0.208   2.865  0.1124 -0.2828  0.4443
  539TIP3    H1 1581   5.552   0.115   2.843 -0.7909 -0.1162 -0.0741
  539TIP3    H2 1582   5.646   0.233   2.839 -0.5205 -0.3732 -2.0145
  540TIP3   OH2 1583   0.190   4.381   1.290 -0.0455 -0.0733 -0.4798
  540TIP3    H1 1584   0.098   4.408   1.284  0.4280  1.3412 -1.6091
  540TIP3    H2 1585   0.185   4.292   1.326 -1.8854 -0.2433 -1.0220
  541TIP3   OH2 1586   6.371   2.620   5.700 -0.0820  0.0954 -0.5546
  541TIP3    H1 1587   6.456   2.602   5.739  0.4181  1.1431 -1.1369
  541TIP3    H2 1588   6.308   2.595   5.768  0.7228  0.3423  0.3023
  542TIP3   OH2 1589   5.677   1.845   4.372  0.2499  0.7125  0.3707
  542TIP3    H1 1590   5.683   1.883   4.459  0.5189  0.7652  0.3310
  542TIP3    H2 1591   5.696   1.752   4.384 -0.8072  0.5052  0.5273
  543TIP3   OH2 1592   5.508   2.372   1.737  0.0724 -0.0283  0.0631
  543TIP3    H1 1593   5.465   2.312   1.799 -0.0040 -2.1224 -1.8611
  543TIP3    H2 1594   5.561   2.429   1.792  0.2553 -1.9700  2.0733
  544TIP3   OH2 1595   6.721   0.863   4.911 -0.0050  0.4603  0.5146
  544TIP3    H1 1596   6.721   0.780   4.958  1.6808  0.4949  0.6304
  544TIP3    H2 1597   6.810   0.897   4.921  0.3670  0.6319 -2.3835
  545TIP3   OH2 1598   0.283   6.523   0.023 -0.3817 -0.2408  0.8025
  545TIP3    H1 1599   0.261   6.616   0.021  1.6262  0.2832  1.1108
  545TIP3    H2 1600   0.378   6.520   0.014 -0.4946 -2.3406 -0.5253
  546TIP3   OH2 1601   4.010   5.499   1.350 -0.3142  0.4158  0.2226
  546TIP3    H1 1602   4.039   5.548   1.427 -1.0617 -1.9487  2.1233
  546TIP3    H2 1603   4.026   5.558   1.277  0.0098  2.9525  2.2108
  547TIP3   OH2 1604   5.755   2.787   5.337  0.2161  0.6683  0.2254
  547TIP3    H1 1605   5.765   2.881   5.325  2.1056  0.5763  0.7806
  547TIP3    H2 1606   5.831   2.761   5.390  0.8561 -1.4741 -1.5820
  548TIP3   OH2 1607   1.954   2.047   2.340  0.4580 -0.7410  0.5447
  548TIP3    H1 1608   2.042   2.064   2.307  0.2179  0.3472  0.4067
  548TIP3    H2 1609   1.910   2.001   2.269  0.5524 -0.1824  0.1107
  549TIP3   OH2 1610   2.874   1.804   3.515  1.0751  0.1479  0.2773
  549TIP3    H1 1611   2.928   1.872   3.556 -0.7814  1.1287  1.2193
  549TIP3    H2 1612   2.919   1.722   3.536  2.4415  0.9522  0.6215
  550TIP3   OH2 1613   0.911   2.205   5.604 -0.0517 -0.1789 -0.7014
  550TIP3    H1 1614   0.850   2.141   5.641  0.1901 -0.4679 -0.8022
  550TIP3    H2 1615   0.897   2.284   5.656  1.8831 -1.2198  1.5254
  551TIP3   OH2 1616   4.553   3.250   2.723 -0.0625 -1.0169  0.3170
  551TIP3    H1 1617   4.590   3.272   2.809 -1.1548  2.3093  0.0720
  551TIP3    H2 1618   4.573   3.325   2.668 -4.7040 -0.0602 -0.5343
  552TIP3   OH2 1619  -0.001   4.602   0.991  0.0697 -0.3520 -0.5366
  552TIP3    H1 1620  -0.005   4.644   1.077 -2.3105  0.3774 -0.9043
  552TIP3    H2 1621   0.075   4.545   0.995 -0.6975 -1.3588  2.5335
  553TIP3   OH2 1622   4.563   3.902   0.856 -0.2567  0.1442 -0.1831
  553TIP3    H1 1623   4.567   3.961   0.781 -2.1316  0.4127 -0.1198
  553TIP3    H2 1624   4.650   3.907   0.896  0.4563  0.7634 -1.7373
  554TIP3   OH2 1625   1.266   6.572   0.833  0.3424  0.5822 -0.5286
  554TIP3    H1 1626   1.271   6.592   0.927 -0.3320 -0.4309 -0.2553
  554TIP3    H2 1627   1.346   6.609   0.796  1.8990 -1.1971  0.8708
  555TIP3   OH2 1628   5.967   5.677   5.098  0.1953 -0.1938 -0.0648
  555TIP3    H1 1629   6.022   5.622   5.154  0.2540 -0.2059 -0.1339
  555TIP3    H2 1630   5.979   5.765   5.134 -0.2774 -0.2951  0.3481
  556TIP3   OH2 1631   7.113   2.623   1.617  0.2548 -0.6861  0.2661
  556TIP3    H1 1632   7.209   2.624   1.624  0.2119  1.6376  1.2303
  556TIP3    H2 1633   7.088   2.715   1.612 -1.8319 -1.2920 -2.2137
  557TIP3   OH2 1634   1.235   4.702   3.329  0.3170  0.4126 -0.1948
  557TIP3    H1 1635   1.297   4.629   3.319  0.0609 -0.0465  1.2541
  557TIP3    H2 1636   1.248   4.731   3.420 -1.6792  0.2059  0.2048
  558TIP3   OH2 1637   6.319   3.689   0.438  0.0345  0.3113 -0.9903
  558TIP3    H1 1638   6.231   3.692   0.399  0.6727  0.5193 -2.4794
  558TIP3    H2 1639   6.343   3.597   0.435 -1.0628 -0.1575  1.7087
  559TIP3   OH2 1640   5.361   2.769   5.192  0.1632  0.5927 -0.0667
  559TIP3    H1 1641   5.376   2.854   5.233  1.8450  0.3511 -0.0742
  559TIP3    H2 1642   5.376   2.784   5.099 -1.6441  0.7101 -0.3698
  560TIP3   OH2 1643   6.764   0.619   2.384 -0.4653 -0.1910  1.0301
  560TIP3    H1 1644   6.782   0.565   2.461  1.0034 -1.1379  0.0721
  560TIP3    H2 1645   6.704   0.566   2.331 -1.9507  0.7087  1.7598
  561TIP3   OH2 1646   3.641   1.662   1.819  0.5750  0.1211  0.2134
  561TIP3    H1 1647   3.663   1.597   1.752 -0.1540  0.9165 -0.8351
  561TIP3    H2 1648   3.620   1.741   1.769 -0.8441  0.4944  1.3551
  562TIP3   OH2 1649   4.816   0.738   3.803 -0.2491  0.5545 -0.1689
  562TIP3    H1 1650   4.749   0.678   3.838 -0.3952  0.3068 -0.8512
  562TIP3    H2 1651   4.891   0.681   3.785 -0.1181  0.7065 -0.0992
  563TIP3   OH2 1652   5.996   3.490   2.615  0.2466  0.3089 -0.1728
  563TIP3    H1 1653   6.040   3.405   2.616  0.5989  0.4564 -1.6129
  563TIP3    H2 1654   5.904   3.470   2.594  0.5114  0.3357 -1.4288
  564TIP3   OH2 1655   4.652   3.528   4.655 -0.2891 -0.0668  0.2077
  564TIP3    H1 1656   4.737   3.483   4.651 -0.1017  0.2811  0.2149
  564TIP3    H2 1657   4.674   3.621   4.645 -0.6749  0.0208  0.1655
  565TIP3   OH2 1658   0.151   6.457   1.126 -0.6659  0.8292 -0.3017
  565TIP3    H1 1659   0.068   6.471   1.081 -1.3319 -2.4425 -0.3480
  565TIP3    H2 1660   0.211   6.430   1.057 -0.6133 -0.3999  0.2063
  566TIP3   OH2 1661   5.006   5.834   3.004 -0.0043 -0.3968  0.2110
  566TIP3    H1 1662   4.914   5.849   3.025 -0.4382 -0.0804 -1.6683
  566TIP3    H2 1663   5.027   5.751   3.045 -1.1722 -0.5410  0.5627
  567TIP3   OH2 1664   5.304   4.770   5.495  0.4414  0.0521  0.6956
  567TIP3    H1 1665   5.399   4.776   5.483  0.3108  0.2492 -0.3254
  567TIP3    H2 1666   5.270   4.746   5.409 -0.7128  2.8735  0.2445
  568TIP3   OH2 1667   1.760   2.114   3.250 -0.2022  0.1871 -0.4632
  568TIP3    H1 1668   1.776   2.060   3.173  1.4982  1.4625 -1.0694
  568TIP3    H2 1669   1.840   2.107   3.301 -1.4996 -1.0491  1.5125
  569TIP3   OH2 1670   1.809   3.930   2.788  0.0076  0.3263  0.2892
  569TIP3    H1 1671   1.802   3.931   2.884 -1.3608 -0.3252  0.2180
  569TIP3    H2 1672   1.752   3.858   2.761  1.0432 -0.0587 -0.9788
  570TIP3   OH2 1673   0.207   5.928   2.796 -0.2383 -0.1228 -0.1042
  570TIP3    H1 1674   0.262   5.956   2.724  0.2528 -1.5284 -0.3059
  570TIP3    H2 1675   0.260   5.943   2.874 -1.2168  2.5286  0.1370
  571TIP3   OH2 1676   2.090   0.826   2.684  0.1041  0.5005  0.1825
  571TIP3    H1 1677   2.104   0.761   2.752  1.8506 -1.0612 -1.5450
  571TIP3    H2 1678   2.020   0.790   2.629  0.2971  0.5936 -0.1330
  572TIP3   OH2 1679   5.847   0.035   1.654 -0.0889 -0.2457  0.0763
  572TIP3    H1 1680   5.865   0.071   1.742  1.3661  0.1067 -0.3301
  572TIP3    H2 1681   5.926  -0.014   1.633 -0.1488  0.2237 -1.3068
  573TIP3   OH2 1682   3.673   2.908   1.628 -0.4167 -0.2600 -0.5019
  573TIP3    H1 1683   3.645   2.991   1.590 -0.2271  0.0241 -0.0227
  573TIP3    H2 1684   3.735   2.932   1.696 -0.0444 -0.8182 -0.6357
  574TIP3   OH2 1685   3.164   2.553   5.340  0.6815  0.1799 -0.2219
  574TIP3    H1 1686   3.162   2.506   5.256 -1.1633  0.0947 -0.1616
  574TIP3    H2 1687   3.202   2.491   5.402  1.8892  0.1790 -0.9370
  575TIP3   OH2 1688   4.892   4.902   5.360  0.1134  0.7532  0.0548
  575TIP3    H1 1689   4.907   4.983   5.409  0.3453 -0.0951  1.4319
  575TIP3    H2 1690   4.797   4.888   5.364  0.1089  0.7919  0.0787
  576TIP3   OH2 1691   1.908   1.692   5.463  0.2996 -0.1073 -0.0533
  576TIP3    H1 1692   1.912   1.777   5.420  2.7978 -0.0983  0.0776
  576TIP3    H2 1693   1.900   1.629   5.391 -0.5750  0.1706 -0.2051
  577TIP3   OH2 1694   1.846   2.844   1.108 -0.2419  0.1354 -0.1882
  577TIP3    H1 1695   1.779   2.823   1.173  0.9424 -1.7174  0.5184
  577TIP3    H2 1696   1.861   2.938   1.118 -0.8622  0.0840  1.4893
  578TIP3   OH2 1697   7.035   2.359   1.682 -0.0185 -0.7486 -0.3205
  578TIP3    H1 1698   6.946   2.377   1.711  0.6878 -0.6831  2.0397
  578TIP3    H2 1699   7.073   2.444   1.662  1.1457 -0.0032  4.0841
  579TIP3   OH2 1700   0.012   4.417   4.821  0.3918  0.3648  0.3380
  579TIP3    H1 1701   0.095   4.426   4.774  0.5798  0.2548  0.6535
  579TIP3    H2 1702  -0.023   4.506   4.824 -0.1172  0.2296 -0.9172
  580TIP3   OH2 1703   2.986   2.528   2.964  0.0755 -0.1677  0.6546
  580TIP3    H1 1704   2.892   2.517   2.977  0.1139  0.3776  1.4972
  580TIP3    H2 1705   3.014   2.446   2.922 -0.2921 -1.6558  3.0874
  581TIP3   OH2 1706   6.077   1.352   1.274  0.0063 -0.0215  1.2233
  581TIP3    H1 1707   6.012   1.305   1.327  0.7543 -1.2236  1.1217
  581TIP3    H2 1708   6.051   1.334   1.184 -0.1257  0.3851  1.1785
  582TIP3   OH2 1709   7.177   5.267   4.383 -0.0861  0.0884  0.3722
  582TIP3    H1 1710   7.142   5.335   4.326 -0.4346 -0.4014 -0.0042
  582TIP3    H2 1711   7.271   5.266   4.364 -0.0388  0.6239  0.5560
  583TIP3   OH2 1712   4.891   2.731   3.719 -0.3834  0.0000 -0.7628
  583TIP3    H1 1713   4.848   2.674   3.782  0.4263  0.9823  0.7271
  583TIP3    H2 1714   4.840   2.719   3.638 -2.6428  0.1477  0.5446
  584TIP3   OH2 1715   3.011   0.747   0.830 -0.7002 -0.3984  0.2078
  584TIP3    H1 1716   3.090   0.800   0.841 -1.4039  0.5881  0.6726
  584TIP3    H2 1717   3.029   0.666   0.877 -0.0753 -0.0589  0.5700
  585TIP3   OH2 1718   2.794   6.243   0.123  1.0346  0.2595 -0.2777
  585TIP3    H1 1719   2.734   6.174   0.153  0.5651  0.7318 -0.0989
  585TIP3    H2 1720   2.834   6.276   0.204  1.4955 -0.0121 -0.3917
  586TIP3   OH2 1721   1.711   3.448   0.855  0.2921  0.1150 -0.4943
  586TIP3    H1 1722   1.711   3.525   0.913 -3.1568  0.2654 -0.4581
  586TIP3    H2 1723   1.640   3.393   0.889  1.6159 -2.3515 -1.4977
  587TIP3   OH2 1724   4.032   0.879   0.726 -0.1536 -0.3663  0.3629
  587TIP3    H1 1725   4.006   0.959   0.681 -0.3096 -0.0731  0.9614
  587TIP3    H2 1726   3.950   0.843   0.761 -0.0183 -0.5095  0.5389
  588TIP3   OH2 1727   4.023   0.395   5.772 -0.2201 -0.1978 -0.3971
  588TIP3    H1 1728   3.969   0.316   5.769  0.1535 -0.4303 -1.2798
  588TIP3    H2 1729   3.999   0.437   5.855 -2.3326  0.1271 -1.1271
  589TIP3   OH2 1730   1.707   2.032   5.631 -0.0527  0.2327 -0.1405
  589TIP3    H1 1731   1.657   2.112   5.613  0.2296  0.7481  1.2730
  589TIP3    H2 1732   1.754   2.050   5.712  1.7104 -0.5997 -0.9335
  590TIP3   OH2 1733   4.747   2.822   4.070  0.0018 -0.4121 -0.0343
  590TIP3    H1 1734   4.658   2.787   4.065 -0.0863 -0.2459  0.3338
  590TIP3    H2 1735   4.802   2.745   4.082  0.3094 -0.9467 -3.8003
  591TIP3   OH2 1736   3.300   4.523   1.777 -0.1658  0.4204 -0.3750
  591TIP3    H1 1737   3.360   4.595   1.800  0.9314 -0.4470 -0.4550
  591TIP3    H2 1738   3.291   4.529   1.682  0.2735  0.1976 -0.4339
  592TIP3   OH2 1739   0.187   1.302   2.866 -0.5362 -0.1607 -0.4143
  592TIP3    H1 1740   0.193   1.248   2.944 -0.1834 -1.1768 -1.1276
  592TIP3    H2 1741   0.126   1.372   2.890  1.8548  1.3220  1.7559
  593TIP3   OH2 1742   2.395   5.178   5.607 -1.0383 -0.3120 -0.1661
  593TIP3    H1 1743   2.331   5.230   5.655 -0.3658 -0.2211  0.6505
  593TIP3    H2 1744   2.343   5.113   5.560 -1.6104 -1.9941  2.5593
  594TIP3   OH2 1745   3.338   6.390   5.141 -0.2024 -0.0085 -0.2775
  594TIP3    H1 1746   3.325   6.299   5.116  0.8399 -0.5058  0.9059
  594TIP3    H2 1747   3.254   6.418   5.176  0.3581 -1.6455  2.6735
  595TIP3   OH2 1748   3.518   0.598   2.316  0.0826  0.1698 -1.0474
  595TIP3    H1 1749   3.452   0.665   2.298  0.7310  1.0981 -0.1472
  595TIP3    H2 1750   3.488   0.556   2.397  0.2955  0.2184 -0.9416
  596TIP3   OH2 1751   6.303   6.549   0.810 -0.1254  0.2561  0.1913
  596TIP3    H1 1752   6.320   6.632   0.855  0.6353  0.8139 -1.0624
  596TIP3    H2 1753   6.209   6.537   0.816 -0.5375  2.2719 -1.3229
  597TIP3   OH2 1754   3.341   4.185   2.392  0.2721 -0.2329  0.1502
  597TIP3    H1 1755   3.261   4.145   2.358 -0.4064  1.4050 -0.2946
  597TIP3    H2 1756   3.318   4.212   2.481  0.9308 -1.3665  0.6868
  598TIP3   OH2 1757   7.025   5.819   1.967  0.5900  0.5190 -0.3130
  598TIP3    H1 1758   6.932   5.826   1.989  0.5484 -1.6611  0.4932
  598TIP3    H2 1759   7.039   5.884   1.898 -1.5331  0.8747 -0.4650
  599TIP3   OH2 1760   5.887   3.421   3.967  0.5478  0.0140  0.6256
  599TIP3    H1 1761   5.910   3.329   3.952 -0.6266  0.0692 -1.9787
  599TIP3    H2 1762   5.847   3.422   4.054 -0.0766 -2.0870  0.4191
  600TIP3   OH2 1763   2.822   5.968   1.988  0.5441 -0.0371 -0.2558
  600TIP3    H1 1764   2.824   6.030   2.061  2.6982  0.0523 -0.3179
  600TIP3    H2 1765   2.894   5.908   2.006 -0.0491 -1.1289 -1.3907
  601TIP3   OH2 1766   4.407   1.280   0.360 -0.0786 -0.0761 -0.1246
  601TIP3    H1 1767   4.492   1.319   0.383 -0.5540  0.7294  0.3171
  601TIP3    H2 1768   4.372   1.337   0.292 -0.3954 -0.2424 -0.1024
  602TIP3   OH2 1769   3.976   1.239   2.736  0.2400 -0.0451  0.4743
  602TIP3    H1 1770   4.032   1.286   2.675 -0.7054  1.1420  0.4716
  602TIP3    H2 1771   4.017   1.153   2.746  1.1657  0.2314 -0.7382
  603TIP3   OH2 1772   0.755   3.756   1.197 -0.2487  0.3584 -0.0182
  603TIP3    H1 1773   0.810   3.790   1.127 -0.6993 -0.0314 -0.5717
  603TIP3    H2 1774   0.808   3.766   1.277  0.3137  0.6913 -0.4289
  604TIP3   OH2 1775   5.090   5.356   4.366  0.2284 -0.6755  0.1537
  604TIP3    H1 1776   5.149   5.355   4.290  0.7172 -1.4750  0.5278
  604TIP3    H2 1777   5.075   5.449   4.383 -1.6526 -0.4555 -2.2428
  605TIP3   OH2 1778   5.554   3.146   3.083 -0.4161  0.0530 -0.5173
  605TIP3    H1 1779   5.611   3.128   3.009  1.5816 -1.3745  1.2291
  605TIP3    H2 1780   5.491   3.074   3.084  0.3524 -0.6341 -0.1437
  606TIP3   OH2 1781   2.080   4.331   0.702  0.2144  0.0230  0.3354
  606TIP3    H1 1782   2.150   4.351   0.764  0.1730  1.3345 -0.0128
  606TIP3    H2 1783   2.118   4.350   0.616 -1.2584  3.1220  0.2512
  607TIP3   OH2 1784   4.918   2.404   4.317 -0.5355 -0.5044  0.2193
  607TIP3    H1 1785   4.968   2.405   4.399 -1.0965 -0.2826  0.5659
  607TIP3    H2 1786   4.981   2.377   4.250  1.3109  4.0570 -0.1981
  608TIP3   OH2 1787   2.212   0.547   0.236  0.5504 -0.2115 -1.0247
  608TIP3    H1 1788   2.132   0.581   0.197 -1.6953 -1.5790  1.9789
  608TIP3    H2 1789   2.230   0.466   0.188 -0.7289 -0.6415 -0.7984
  609TIP3   OH2 1790   2.118   5.000   5.546 -0.4229 -0.7011  0.0071
  609TIP3    H1 1791   2.054   4.971   5.611 -2.5928  0.6347 -1.4245
  609TIP3    H2 1792   2.104   5.094   5.538 -0.0225 -0.7730 -2.1476
  610TIP3   OH2 1793   5.947   3.593   2.231  0.5854  0.4243 -0.0077
  610TIP3    H1 1794   6.000   3.672   2.238  2.1166 -0.2119 -2.9126
  610TIP3    H2 1795   6.002   3.524   2.267  1.0972  0.0300 -1.4897
  611TIP3   OH2 1796   2.624   4.133   3.250 -0.3793 -0.3718 -0.3250
  611TIP3    H1 1797   2.655   4.218   3.281 -0.3478 -0.3203 -0.5007
  611TIP3    H2 1798   2.628   4.139   3.155 -2.1585  0.1109 -0.4181
  612TIP3   OH2 1799   3.631   1.692   2.624  0.2482  0.1761 -0.2018
  612TIP3    H1 1800   3.628   1.645   2.708 -0.5520  0.1669 -0.2312
  612TIP3    H2 1801   3.589   1.776   2.641 -1.1092 -0.3279 -0.8937
  613TIP3   OH2 1802   1.840   0.300   1.487 -0.3524  0.8431 -0.0959
  613TIP3    H1 1803   1.901   0.227   1.502 -0.2435  1.0522  0.5078
  613TIP3    H2 1804   1.894   0.367   1.444  0.2013  1.5318  1.5832
  614TIP3   OH2 1805   1.915   3.716   2.033 -0.1795 -0.4867 -0.2578
  614TIP3    H1 1806   1.838   3.773   2.031  0.5165  0.5896  1.4283
  614TIP3    H2 1807   1.922   3.682   1.944 -2.5029 -0.5044 -0.4894
  615TIP3   OH2 1808   1.291   6.103   4.585 -0.1827  0.2376 -0.4476
  615TIP3    H1 1809   1.293   6.145   4.671 -0.8236  1.6273 -1.0819
  615TIP3    H2 1810   1.259   6.014   4.602  1.7346 -0.2437  1.0104
  616TIP3   OH2 1811   1.164   4.688   4.888 -0.4582  0.7156  0.5647
  616TIP3    H1 1812   1.216   4.608   4.889  0.2336  1.1262  2.2202
  616TIP3    H2 1813   1.177   4.725   4.976 -2.7058  1.3840  0.6739
  617TIP3   OH2 1814   3.987   0.559   2.592  0.3547 -0.0892  0.0834
  617TIP3    H1 1815   3.964   0.485   2.649  0.3966  0.2722  0.5781
  617TIP3    H2 1816   3.943   0.540   2.509 -2.1667  0.7848  1.1154
  618TIP3   OH2 1817   1.780   2.062   5.329 -0.6327 -0.2820  0.1264
  618TIP3    H1 1818   1.872   2.039   5.338 -0.7174 -0.3172  1.0059
  618TIP3    H2 1819   1.735   2.004   5.391 -1.3520 -0.9116 -0.9569
  619TIP3   OH2 1820   5.672   1.951   2.868  0.1250  0.0187  0.7574
  619TIP3    H1 1821   5.577   1.939   2.869  0.1699 -0.4645  0.0666
  619TIP3    H2 1822   5.686   2.042   2.897 -0.3833 -0.7043  3.5037
  620TIP3   OH2 1823   3.475   0.397   3.789 -0.2039  0.5499 -0.1272
  620TIP3    H1 1824   3.469   0.400   3.694  0.5150 -0.5462 -0.2227
  620TIP3    H2 1825   3.392   0.432   3.820 -1.6297 -1.6820 -1.1891
  621TIP3   OH2 1826   2.397   2.763  -0.005 -0.2215  0.0709  0.6673
  621TIP3    H1 1827   2.442   2.694  -0.053 -1.7878 -0.6220  0.1328
  621TIP3    H2 1828   2.436   2.760   0.083 -0.4487 -1.6920  0.7416
  622TIP3   OH2 1829   3.306   1.025   0.539  0.4116 -0.5762 -0.0253
  622TIP3    H1 1830   3.273   1.069   0.461  0.6088 -0.8518 -0.2685
  622TIP3    H2 1831   3.358   1.091   0.585  1.6044 -0.8382 -0.9386
  623TIP3   OH2 1832   1.729   3.747   0.362  0.5087  0.7318 -0.2574
  623TIP3    H1 1833   1.787   3.724   0.435 -0.0227  0.4817  0.0986
  623TIP3    H2 1834   1.707   3.663   0.322 -0.6805  0.6723  0.4566
  624TIP3   OH2 1835   0.918   0.643   1.451  0.0067  0.3197  0.2715
  624TIP3    H1 1836   0.943   0.735   1.442  1.2767  0.0223  0.5122
  624TIP3    H2 1837   0.995   0.595   1.421 -0.7032 -0.6753 -0.0147
  625TIP3   OH2 1838   0.068   3.235   2.533  0.6924  0.2750 -0.5883
  625TIP3    H1 1839   0.030   3.282   2.458  0.6356  0.0522 -0.7016
  625TIP3    H2 1840   0.151   3.278   2.550  0.4586  0.6703 -0.4381
  626TIP3   OH2 1841   1.333   5.406   3.597  0.0839  0.1038 -0.4708
  626TIP3    H1 1842   1.278   5.333   3.624  0.7063  0.0461  0.7258
  626TIP3    H2 1843   1.299   5.432   3.511 -0.8647 -0.8495 -0.4021
  627TIP3   OH2 1844   0.980   5.988   1.132 -0.0682  0.6003  0.0168
  627TIP3    H1 1845   1.053   6.005   1.192  0.4384 -0.2327 -0.3421
  627TIP3    H2 1846   1.016   5.927   1.068 -1.1091  0.1168 -0.1242
  628TIP3   OH2 1847   1.818   1.905   0.032  0.9248  0.3622 -0.8516
  628TIP3    H1 1848   1.804   1.847  -0.043 -0.8529  0.7896 -0.8911
  628TIP3    H2 1849   1.867   1.851   0.094  0.1792 -0.8624 -1.2857
  629TIP3   OH2 1850   6.089   5.473   4.752 -0.5439 -0.1550  0.0538
  629TIP3    H1 1851   6.013   5.423   4.782 -0.5566  0.9952  2.1573
  629TIP3    H2 1852   6.068   5.564   4.771  0.3476  0.4724 -1.7176
  630TIP3   OH2 1853   3.918   3.796   4.841 -0.0110  0.1758  0.0288
  630TIP3    H1 1854   3.826   3.773   4.830  0.3707 -1.7081  0.5630
  630TIP3    H2 1855   3.958   3.777   4.757  0.4896 -2.1799  0.7482
  631TIP3   OH2 1856   4.394   5.429   1.026 -0.0822 -0.3054 -0.4284
  631TIP3    H1 1857   4.328   5.412   1.093 -1.3731  1.2098 -1.2454
  631TIP3    H2 1858   4.477   5.430   1.073 -0.4949 -2.8590  0.5348
  632TIP3   OH2 1859   3.006   1.320   0.581  0.2928 -0.5237  0.5239
  632TIP3    H1 1860   3.084   1.373   0.598 -1.3178  1.4501  2.3912
  632TIP3    H2 1861   2.984   1.283   0.666 -0.6595 -1.2824 -0.0403
  633TIP3   OH2 1862   2.178   2.033   2.136 -0.1409 -0.2954 -0.1842
  633TIP3    H1 1863   2.261   2.068   2.170 -0.4098 -1.2514  1.5852
  633TIP3    H2 1864   2.186   2.042   2.041  2.6738 -1.8029 -0.2142
  634TIP3   OH2 1865   0.988   0.493   5.148 -0.3766  0.2948 -0.0239
  634TIP3    H1 1866   1.007   0.488   5.242 -0.6883 -0.2781  0.0127
  634TIP3    H2 1867   1.072   0.477   5.106 -0.4274 -0.4510  0.1504
  635TIP3   OH2 1868   4.434   6.731   2.351 -0.3081  0.0929  0.1371
  635TIP3    H1 1869   4.449   6.688   2.267 -1.0460 -0.4199  0.2582
  635TIP3    H2 1870   4.451   6.663   2.416 -2.4081 -0.3583  0.3055
  636TIP3   OH2 1871   4.795   1.638   2.008  0.3839  0.4732  0.4628
  636TIP3    H1 1872   4.847   1.678   2.079 -1.0738  1.6782  0.8988
  636TIP3    H2 1873   4.766   1.555   2.044  0.5575  0.5903  0.8841
  637TIP3   OH2 1874   6.791   4.621   0.372  0.1275  0.5545  0.0201
  637TIP3    H1 1875   6.858   4.582   0.316  2.3228  0.5955  2.4268
  637TIP3    H2 1876   6.774   4.707   0.335 -0.6579 -0.4651 -2.1528
  638TIP3   OH2 1877   6.027   0.998   5.253  0.4542  0.4009  0.2730
  638TIP3    H1 1878   6.012   0.960   5.340 -1.5838 -1.7758 -0.9344
  638TIP3    H2 1879   5.948   0.978   5.204  1.6193  1.4221 -2.1694
  639TIP3   OH2 1880   6.442   3.747   4.140 -0.2269  0.2737 -0.4118
  639TIP3    H1 1881   6.419   3.804   4.067 -2.3100 -1.3501 -1.1032
  639TIP3    H2 1882   6.375   3.763   4.206 -0.9535 -1.4512 -0.6912
  640TIP3   OH2 1883   5.355   1.597   4.003  0.8929  0.1909  0.3793
  640TIP3    H1 1884   5.404   1.516   4.016  0.4380 -0.6089 -2.1779
  640TIP3    H2 1885   5.418   1.656   3.960  0.7867  0.6398  0.8383
  641TIP3   OH2 1886   0.875   6.644   4.608  0.1745  0.0313 -0.5152
  641TIP3    H1 1887   0.930   6.642   4.530 -0.0230  3.2430 -0.8432
  641TIP3    H2 1888   0.924   6.698   4.670 -1.0525  0.0705  0.4507
  642TIP3   OH2 1889   6.120   0.086   0.691 -0.2645  0.1911 -0.1682
  642TIP3    H1 1890   6.102   0.002   0.734 -0.3743  0.5055  0.4041
  642TIP3    H2 1891   6.073   0.081   0.608  1.8588 -1.3832 -1.3603
  643TIP3   OH2 1892   4.689   1.237   5.828  0.7492 -0.3339  0.2681
  643TIP3    H1 1893   4.665   1.321   5.789 -0.0919 -1.1914 -1.1229
  643TIP3    H2 1894   4.641   1.172   5.777  2.5141 -1.7880  0.3694
  644TIP3   OH2 1895   5.137   3.662   2.712  0.0272 -0.4249  0.2180
  644TIP3    H1 1896   5.143   3.753   2.740 -0.8136 -0.8466  1.9246
  644TIP3    H2 1897   5.051   3.655   2.670  0.2926 -0.3274 -0.3437
  645TIP3   OH2 1898   5.340   0.375   5.015  0.0717 -0.0534 -0.0993
  645TIP3    H1 1899   5.245   0.382   5.000  0.4237  0.7037 -2.4508
  645TIP3    H2 1900   5.353   0.417   5.100 -1.5576  1.1369 -0.3727
  646TIP3   OH2 1901   3.512   6.620   1.480  0.2437 -0.1517  0.1478
  646TIP3    H1 1902   3.550   6.672   1.409 -1.3997  0.4555 -0.3321
  646TIP3    H2 1903   3.582   6.560   1.506  1.8967  1.6541  0.0890
  647TIP3   OH2 1904   3.121   3.907   2.527  0.4363  0.1905 -0.4860
  647TIP3    H1 1905   3.182   3.835   2.512  0.9379  0.2345  1.1764
  647TIP3    H2 1906   3.067   3.879   2.601 -0.6516  0.7477 -1.0305
  648TIP3   OH2 1907   7.090   2.556   1.259  0.2815  0.0832  0.1378
  648TIP3    H1 1908   7.155   2.608   1.213 -1.1339  1.6000 -0.2499
  648TIP3    H2 1909   7.138   2.517   1.333  1.9004  0.0329 -0.9004
  649TIP3   OH2 1910   2.477   1.670   0.658  0.3328  0.6898 -0.2508
  649TIP3    H1 1911   2.416   1.662   0.731  0.5221 -0.9109 -0.2363
  649TIP3    H2 1912   2.503   1.762   0.658 -0.5400  0.9555  0.9868
  650TIP3   OH2 1913   5.192   5.553  -0.011  0.0370  0.2560  0.2368
  650TIP3    H1 1914   5.214   5.588   0.075  0.7682 -2.8495  1.4442
  650TIP3    H2 1915   5.096   5.552  -0.013  0.0055 -0.5248  1.4438
  651TIP3   OH2 1916   5.234   1.792   5.229  0.4571  0.0406  0.0667
  651TIP3    H1 1917   5.322   1.831   5.230 -0.6050  2.6763 -0.4869
  651TIP3    H2 1918   5.217   1.773   5.137  1.0210 -2.1076  0.3395
  652TIP3   OH2 1919   2.445   5.605   4.835 -0.3166  0.3255 -0.0553
  652TIP3    H1 1920   2.444   5.693   4.873 -0.4674  0.5180 -0.4885
  652TIP3    H2 1921   2.368   5.562   4.872 -0.5594  0.5693 -0.2728
  653TIP3   OH2 1922   2.251   2.507   5.516 -0.7512 -0.1222 -0.0761
  653TIP3    H1 1923   2.283   2.552   5.438 -1.7103  1.4252  0.3713
  653TIP3    H2 1924   2.324   2.453   5.544 -0.0226  0.1070 -1.4423
  654TIP3   OH2 1925   6.248   3.430   2.936 -0.7119 -0.0984 -0.1344
  654TIP3    H1 1926   6.294   3.370   2.877  0.6565  1.1259 -0.3612
  654TIP3    H2 1927   6.165   3.386   2.954 -0.5549 -1.1796 -1.8039
  655TIP3   OH2 1928   6.620   6.675   2.904  0.2915 -0.2825  0.1518
  655TIP3    H1 1929   6.644   6.708   2.818 -0.5238  0.1787  0.0916
  655TIP3    H2 1930   6.525   6.665   2.901 -0.2512  2.9323  2.0421
  656TIP3   OH2 1931   6.653   2.221   4.777 -0.5866 -0.7937  0.3016
  656TIP3    H1 1932   6.557   2.224   4.771 -0.5722  0.8357  0.3083
  656TIP3    H2 1933   6.683   2.235   4.687 -0.3751 -0.3237  0.4395
  657TIP3   OH2 1934   3.050   6.684   5.775  0.0178 -0.3432  0.1346
  657TIP3    H1 1935   3.103   6.693   5.696  0.1669 -1.5687  0.0633
  657TIP3    H2 1936   2.973   6.634   5.747 -0.7973  0.7369  0.4053
  658TIP3   OH2 1937   1.263   0.021   4.000  0.0993 -0.2887  0.1673
  658TIP3    H1 1938   1.356   0.046   4.007  0.5333 -2.0083  1.1629
  658TIP3    H2 1939   1.234   0.011   4.091 -0.7519 -0.8812 -0.1622
  659TIP3   OH2 1940   4.081   6.640   4.412 -0.4035 -0.5704 -0.1053
  659TIP3    H1 1941   4.147   6.642   4.480 -0.9501  0.4050  0.4236
  659TIP3    H2 1942   4.123   6.596   4.338  0.8330  0.0512  0.2056
  660TIP3   OH2 1943   4.496   2.012   4.108  0.3127 -0.2605  0.7708
  660TIP3    H1 1944   4.404   1.998   4.083  0.4891 -0.4648  0.2242
  660TIP3    H2 1945   4.496   2.098   4.151  0.1831  0.6446 -0.9443
  661TIP3   OH2 1946   4.109   6.279   0.335 -0.4865 -0.8133 -0.0716
  661TIP3    H1 1947   4.126   6.317   0.421  1.5228  1.3187 -1.3007
  661TIP3    H2 1948   4.037   6.330   0.300  1.4309  1.2655 -1.2389
  662TIP3   OH2 1949   0.423   6.307   4.178 -0.4562  0.1206 -0.7741
  662TIP3    H1 1950   0.485   6.243   4.212 -1.5753 -0.7386 -0.3003
  662TIP3    H2 1951   0.349   6.304   4.239 -1.6135  0.0561 -2.1315
  663TIP3   OH2 1952   1.974   0.237   0.224  0.1010  0.1812  0.0327
  663TIP3    H1 1953   2.060   0.250   0.185 -0.5909  0.8607 -1.3327
  663TIP3    H2 1954   1.990   0.180   0.299  1.7072  0.1655 -0.2869
  664TIP3   OH2 1955   4.588   0.699   5.150  0.1313  0.1629 -0.1741
  664TIP3    H1 1956   4.522   0.700   5.080 -0.6620  2.7225  0.4823
  664TIP3    H2 1957   4.549   0.753   5.219  1.3330 -1.4577  1.8461
  665TIP3   OH2 1958   4.160   5.182   5.645  0.6620  0.0642 -0.8803
  665TIP3    H1 1959   4.074   5.145   5.625 -0.5365  2.3595 -0.2553
  665TIP3    H2 1960   4.160   5.268   5.605  2.6368  0.2068 -0.7037
  666TIP3   OH2 1961   0.380   0.038   1.080 -0.0349 -0.0332 -0.0300
  666TIP3    H1 1962   0.395   0.088   1.160 -0.3185  0.1137 -0.0672
  666TIP3    H2 1963   0.304  -0.016   1.100 -0.7026  0.7072 -0.5198
  667TIP3   OH2 1964   1.412   2.208   0.360  0.3043  0.0197 -0.0029
  667TIP3    H1 1965   1.486   2.152   0.340 -0.8242 -0.8919 -1.8244
  667TIP3    H2 1966   1.380   2.238   0.275  0.1877  2.5902  0.8508
  668TIP3   OH2 1967   3.470   3.404   1.070  0.4450 -0.0524  0.4702
  668TIP3    H1 1968   3.491   3.315   1.041 -0.4176 -0.7553  1.8588
  668TIP3    H2 1969   3.556   3.445   1.085  0.8574 -0.8241  0.2999
  669TIP3   OH2 1970   4.859   6.610   1.631 -0.2510  0.2080 -0.1131
  669TIP3    H1 1971   4.851   6.655   1.715 -0.8720  0.1501 -0.1366
  669TIP3    H2 1972   4.944   6.639   1.596  0.2680 -0.2068  0.7817
  670TIP3   OH2 1973   1.324   6.404   1.500  0.5826  0.1452  0.3551
  670TIP3    H1 1974   1.346   6.450   1.419 -0.3719 -1.4859 -0.8819
  670TIP3    H2 1975   1.229   6.405   1.504  0.6002 -0.2787  1.1529
  671TIP3   OH2 1976   4.288   2.824   3.278  0.0582 -0.1205  0.2735
  671TIP3    H1 1977   4.331   2.803   3.361  1.7434  3.1565  0.3752
  671TIP3    H2 1978   4.251   2.911   3.291 -2.8219 -0.9403 -1.3585
  672TIP3   OH2 1979   2.932   1.311   4.512 -0.2393 -0.3712  0.3604
  672TIP3    H1 1980   2.989   1.235   4.515 -0.5406 -0.6460 -0.6889
  672TIP3    H2 1981   2.891   1.314   4.599 -1.5811 -2.4636 -0.1283
  673TIP3   OH2 1982   2.911   2.860   0.655 -0.1500  0.1566 -0.5259
  673TIP3    H1 1983   2.827   2.893   0.689  0.4569  1.2966 -0.0915
  673TIP3    H2 1984   2.891   2.771   0.627 -1.3895  0.2201  0.0584
  674TIP3   OH2 1985   2.608   1.023   4.635  0.3532 -0.3277  0.1869
  674TIP3    H1 1986   2.623   1.016   4.729  2.2011 -2.9700 -0.1688
  674TIP3    H2 1987   2.675   1.085   4.604  0.0171  0.2209  0.5502
  675TIP3   OH2 1988   4.877   4.267   2.776 -0.0245 -0.1880 -0.2916
  675TIP3    H1 1989   4.961   4.311   2.770 -0.5484  0.7014 -1.6122
  675TIP3    H2 1990   4.877   4.204   2.704  0.6134 -2.2719  1.4202
  676TIP3   OH2 1991   7.111   2.358   0.820  0.1004  0.0830  0.3017
  676TIP3    H1 1992   7.126   2.312   0.902  0.7778  1.1312  0.7874
  676TIP3    H2 1993   7.187   2.416   0.811  0.4560 -0.5810 -1.4570
  677TIP3   OH2 1994   6.782   4.086   0.341  0.5268 -0.0392 -0.4288
  677TIP3    H1 1995   6.725   4.056   0.270  1.3917 -1.9299 -0.3795
  677TIP3    H2 1996   6.870   4.084   0.304  0.9130 -0.3705  0.4668
  678TIP3   OH2 1997   0.231   1.970   3.707  0.1670  0.2091 -0.1866
  678TIP3    H1 1998   0.292   1.934   3.642  0.3871 -0.3758  0.3287
  678TIP3    H2 1999   0.288   2.014   3.770 -0.0697  1.0863 -0.5674
  679TIP3   OH2 2000   3.314   2.435   3.596  0.0034  0.4461 -0.0827
  679TIP3    H1 2001   3.305   2.530   3.592  0.5050  0.4909 -0.2349
  679TIP3    H2 2002   3.409   2.420   3.597 -0.0708 -0.0244  0.6362
  680TIP3   OH2 2003   6.714   4.275   0.810 -0.4606  0.1187  0.7942
  680TIP3    H1 2004   6.775   4.331   0.858 -0.6410  1.3035 -0.3177
  680TIP3    H2 2005   6.726   4.298   0.718  0.4125 -2.6202  0.1208
  681TIP3   OH2 2006   0.745   6.613   4.973 -0.2423  0.5160  0.4120
  681TIP3    H1 2007   0.833   6.594   4.938 -0.3653  1.2794 -0.3432
  681TIP3    H2 2008   0.726   6.701   4.943 -2.0548 -0.3212 -1.0745
  682TIP3   OH2 2009   2.932   4.901   3.659 -0.1475  0.3773 -0.4853
  682TIP3    H1 2010   2.993   4.836   3.694  0.5258  0.3121 -1.7343
  682TIP3    H2 2011   2.924   4.966   3.729  0.8993  0.0879 -0.0760
  683TIP3   OH2 2012   6.152   1.550   2.072 -0.3592  0.1819  0.0489
  683TIP3    H1 2013   6.062   1.522   2.089  0.1229 -1.1151  0.5137
  683TIP3    H2 2014   6.154   1.641   2.102 -1.8909  0.7093 -1.2986
  684TIP3   OH2 2015   6.896   4.216   0.047  0.2667 -0.0618  0.2287
  684TIP3    H1 2016   6.829   4.263   0.097  0.3447  1.0015 -0.6325
  684TIP3    H2 2017   6.963   4.194   0.112 -0.7798 -0.9248  1.0561
  685TIP3   OH2 2018   3.248   5.626   2.990  0.2848  0.3634 -0.4206
  685TIP3    H1 2019   3.300   5.573   2.929 -0.2171 -0.6063 -0.0201
  685TIP3    H2 2020   3.229   5.706   2.941  0.5638 -0.0654 -1.2525
  686TIP3   OH2 2021   4.459   1.703   1.378 -0.9887 -0.9808  0.1842
  686TIP3    H1 2022   4.481   1.620   1.335  1.3074 -0.4291  0.1470
  686TIP3    H2 2023   4.531   1.717   1.440  0.3084  2.3065 -1.7664
  687TIP3   OH2 2024   3.655   5.185   4.293 -0.3566 -0.0289 -0.5273
  687TIP3    H1 2025   3.570   5.221   4.319 -0.6954  0.1778 -1.8551
  687TIP3    H2 2026   3.674   5.118   4.360 -0.0657  2.0259  1.5704
  688TIP3   OH2 2027   1.340   5.589   1.362 -0.2711 -0.4563 -0.1991
  688TIP3    H1 2028   1.291   5.509   1.379 -0.2769 -0.0628  1.9689
  688TIP3    H2 2029   1.285   5.659   1.397  0.7131  0.2461  0.0029
  689TIP3   OH2 2030   4.337   1.434   2.411  0.6223  0.1936 -0.4726
  689TIP3    H1 2031   4.244   1.423   2.430  1.1383 -3.4504  0.6769
  689TIP3    H2 2032   4.342   1.428   2.316 -0.1713 -1.8910 -0.4334
  690TIP3   OH2 2033   5.315   0.680   3.731 -1.0127  0.2332 -0.8816
  690TIP3    H1 2034   5.258   0.743   3.776  0.3474  0.3803  0.7231
  690TIP3    H2 2035   5.305   0.599   3.781  1.1306  0.6156  0.2873
  691TIP3   OH2 2036   6.782   1.354   5.844  0.0944  0.1319 -0.5024
  691TIP3    H1 2037   6.877   1.350   5.839  0.0476  0.3082 -1.5890
  691TIP3    H2 2038   6.763   1.354   5.938  1.1083 -1.0650 -0.2781
  692TIP3   OH2 2039   2.957   6.180   3.372  0.3432 -0.4494 -0.3576
  692TIP3    H1 2040   2.878   6.227   3.401 -0.3721 -0.6817 -1.8175
  692TIP3    H2 2041   2.987   6.134   3.450  0.9444  2.1948  1.0781
  693TIP3   OH2 2042   4.791   5.551   4.188 -0.1721  0.1188  0.6105
  693TIP3    H1 2043   4.721   5.600   4.231  2.1859  1.0600  3.6743
  693TIP3    H2 2044   4.856   5.536   4.256  2.6750 -0.7079 -2.0581
  694TIP3   OH2 2045   4.465   5.739   3.149 -0.2129 -0.2793 -0.7832
  694TIP3    H1 2046   4.408   5.663   3.137  0.6017 -0.9407 -0.5146
  694TIP3    H2 2047   4.537   5.707   3.204  0.3258  0.5916 -0.9670
  695TIP3   OH2 2048   4.406   4.627   5.114  0.1379  0.1653  0.2105
  695TIP3    H1 2049   4.410   4.677   5.032 -1.8872 -1.1554 -0.7733
  695TIP3    H2 2050   4.471   4.557   5.102 -1.9267 -1.6385 -1.5486
  696TIP3   OH2 2051   6.358   2.497   4.990 -0.2625 -0.2674  0.6788
  696TIP3    H1 2052   6.382   2.537   4.906 -0.3552 -0.3805  0.5965
  696TIP3    H2 2053   6.263   2.509   4.996 -0.1776  0.2477  1.0377
  697TIP3   OH2 2054   3.409   1.432   0.441 -0.0637  0.2178  0.0091
  697TIP3    H1 2055   3.407   1.442   0.346  1.0378 -0.1302 -0.0684
  697TIP3    H2 2056   3.350   1.499   0.474  3.0944  3.6256 -0.6797
  698TIP3   OH2 2057   6.800   5.322   0.844 -0.5294 -0.6970 -0.1935
  698TIP3    H1 2058   6.831   5.412   0.833 -2.8019  0.2178  0.2361
  698TIP3    H2 2059   6.879   5.269   0.844  1.2348  1.5817  2.8037
  699TIP3   OH2 2060   5.868   6.172   5.115  0.2154 -0.1620 -0.9314
  699TIP3    H1 2061   5.914   6.236   5.061  0.1107  0.8836  0.1768
  699TIP3    H2 2062   5.815   6.225   5.175  0.9192 -1.2376  0.7157
  700TIP3   OH2 2063   1.777   6.554   3.225 -0.0980  0.2293  0.1897
  700TIP3    H1 2064   1.686   6.584   3.216 -0.0007  0.4846  0.0485
  700TIP3    H2 2065   1.774   6.461   3.202 -0.2640  0.3197 -0.1656
  701TIP3   OH2 2066   6.800   3.906   2.288  0.1674  0.1241  0.6201
  701TIP3    H1 2067   6.777   3.983   2.236  0.7785  1.0133  1.6078
  701TIP3    H2 2068   6.720   3.853   2.290  0.1122  0.1077 -1.1043
  702TIP3   OH2 2069   4.782   3.815   1.676 -0.1878  0.5331  1.1569
  702TIP3    H1 2070   4.692   3.834   1.649  0.1400  0.7577  0.1985
  702TIP3    H2 2071   4.815   3.757   1.608  0.4978  0.6969  1.3484
  703TIP3   OH2 2072   6.221   1.897   3.796 -0.2487 -0.2038  0.2020
  703TIP3    H1 2073   6.239   1.862   3.883 -0.5474  0.3375  0.4839
  703TIP3    H2 2074   6.308   1.917   3.760 -0.0213 -1.9190 -0.2649
  704TIP3   OH2 2075   6.616   2.659   1.475  0.3074  0.1167  0.1047
  704TIP3    H1 2076   6.685   2.650   1.409 -0.1658 -0.9340 -0.2716
  704TIP3    H2 2077   6.658   2.636   1.557  0.5279 -0.0564 -0.0556
  705TIP3   OH2 2078   6.206   0.183   1.937  0.0272  0.7075  0.4718
  705TIP3    H1 2079   6.274   0.129   1.977 -0.6717  0.8126  1.8625
  705TIP3    H2 2080   6.171   0.235   2.009 -0.3315  1.9502 -0.5500
  706TIP3   OH2 2081   0.242   1.304   4.090  0.7197  0.4791 -0.0546
  706TIP3    H1 2082   0.256   1.297   3.996 -0.4012  0.2602 -0.2192
  706TIP3    H2 2083   0.316   1.258   4.129 -0.1278 -1.7380 -0.9022
  707TIP3   OH2 2084   3.404   4.315   1.484  0.0032  1.0154  0.0814
  707TIP3    H1 2085   3.442   4.316   1.572 -0.1948 -0.2791  0.1947
  707TIP3    H2 2086   3.466   4.265   1.431 -0.7626  0.2172 -0.0855
  708TIP3   OH2 2087   3.270   6.412   2.075  0.5296  0.1154  0.1456
  708TIP3    H1 2088   3.273   6.458   1.991 -0.3114  0.9774  0.5641
  708TIP3    H2 2089   3.361   6.404   2.102  0.7462  0.6844 -0.3991
  709TIP3   OH2 2090   5.746   0.780   0.188  0.0855 -0.2432  0.2263
  709TIP3    H1 2091   5.724   0.710   0.249 -0.1091  0.4030  0.9117
  709TIP3    H2 2092   5.841   0.782   0.186  0.0918 -0.7747 -0.0915
  710TIP3   OH2 2093   3.488   2.341   4.199 -0.0846 -0.3554  0.0744
  710TIP3    H1 2094   3.524   2.273   4.142 -0.4486  0.6694 -1.4315
  710TIP3    H2 2095   3.393   2.336   4.186 -0.1772 -0.0785  0.5745
  711TIP3   OH2 2096   6.350   0.667   0.129  0.2547 -0.2558 -0.0324
  711TIP3    H1 2097   6.316   0.636   0.214  0.4675  0.6059  0.3746
  711TIP3    H2 2098   6.273   0.702   0.084  0.1969 -0.4206 -0.0616
  712TIP3   OH2 2099   6.908   1.328   4.216 -0.1134 -0.6124  0.2978
  712TIP3    H1 2100   6.988   1.302   4.261 -0.6782 -0.5649  1.3637
  712TIP3    H2 2101   6.928   1.414   4.179  0.3232 -0.6115  0.5316
  713TIP3   OH2 2102   0.328   1.252   0.866  0.2755 -0.3166 -0.2629
  713TIP3    H1 2103   0.389   1.280   0.797  0.3839  0.7213  0.2277
  713TIP3    H2 2104   0.295   1.334   0.903 -0.7005 -0.8631  0.1215
  714TIP3   OH2 2105   2.038   0.857   0.684 -0.3453 -0.5588 -0.4149
  714TIP3    H1 2106   2.066   0.921   0.618  1.5436 -1.5774 -0.6801
  714TIP3    H2 2107   1.977   0.800   0.639 -0.1344 -0.4101 -0.8937
  715TIP3   OH2 2108   4.082   0.619   0.370  0.0425 -0.1621  0.0021
  715TIP3    H1 2109   4.063   0.707   0.401  0.5510  0.2394 -0.8042
  715TIP3    H2 2110   4.158   0.591   0.421 -0.3941 -0.3278  0.5830
  716TIP3   OH2 2111   5.365   0.284   0.052 -0.2020 -1.1660  0.0419
  716TIP3    H1 2112   5.353   0.310  -0.039  0.4963 -1.7493 -0.2263
  716TIP3    H2 2113   5.334   0.193   0.055  2.4156 -2.1639 -0.3125
  717TIP3   OH2 2114   2.503   2.512   1.458  0.1550 -0.2727  0.2588
  717TIP3    H1 2115   2.536   2.424   1.440  2.0817  0.4148  0.1951
  717TIP3    H2 2116   2.412   2.499   1.482  0.5439 -2.3383  0.7954
  718TIP3   OH2 2117   1.233   6.231   3.245 -0.0921 -0.4033  0.1270
  718TIP3    H1 2118   1.291   6.155   3.255  1.8848  0.7748 -1.5172
  718TIP3    H2 2119   1.148   6.193   3.221  0.7643 -2.1285 -0.4062
  719TIP3   OH2 2120   3.293   0.140   3.080  0.5385  0.0202 -0.0774
  719TIP3    H1 2121   3.372   0.093   3.053 -0.2085 -1.3463  0.0218
  719TIP3    H2 2122   3.283   0.120   3.173  1.6438  2.5698  0.6849
  720TIP3   OH2 2123   4.103   6.593   2.719  0.2855  0.0913 -0.1402
  720TIP3    H1 2124   4.070   6.604   2.630 -0.9414 -2.0512 -0.0287
  720TIP3    H2 2125   4.109   6.498   2.730  0.5224  0.3218  2.0305
  721TIP3   OH2 2126   3.013   2.698   3.900 -0.3340 -0.4746  0.8629
  721TIP3    H1 2127   2.953   2.765   3.868  1.3947  0.1107 -1.4289
  721TIP3    H2 2128   3.066   2.743   3.965 -1.4602 -0.6434  1.9376
  722TIP3   OH2 2129   6.368   3.623   2.161 -0.2156 -0.4570 -0.1062
  722TIP3    H1 2130   6.321   3.601   2.241 -1.3420  0.0041 -0.6214
  722TIP3    H2 2131   6.362   3.544   2.107  0.7401 -0.8472  0.3373
  723TIP3   OH2 2132   6.014   4.681   3.244 -0.2892 -0.0571 -0.0356
  723TIP3    H1 2133   5.954   4.712   3.176 -0.3174 -1.7366 -0.8103
  723TIP3    H2 2134   6.079   4.750   3.252 -1.2073  0.9022 -0.5933
  724TIP3   OH2 2135   3.191   4.459   5.050 -0.2816  0.1746 -0.6440
  724TIP3    H1 2136   3.205   4.398   5.123 -1.4142 -1.3786 -1.6391
  724TIP3    H2 2137   3.252   4.530   5.066 -1.4173  0.6036  2.5538
  725TIP3   OH2 2138   1.958   1.768   1.946  0.2381 -0.0839  0.1079
  725TIP3    H1 2139   2.036   1.824   1.945 -1.2837  2.2377  1.7016
  725TIP3    H2 2140   1.928   1.767   1.854  1.6495 -0.3152 -0.3676
  726TIP3   OH2 2141   4.059   4.492   1.710 -0.1583  0.0896  0.2664
  726TIP3    H1 2142   4.038   4.485   1.803  1.4386 -0.7767  0.5994
  726TIP3    H2 2143   4.154   4.501   1.707 -0.1130 -0.5032 -1.3081
  727TIP3   OH2 2144   3.664   4.837   0.650 -0.1281 -0.0153 -0.2074
  727TIP3    H1 2145   3.747   4.878   0.628 -1.0030  0.2983 -3.5187
  727TIP3    H2 2146   3.598   4.889   0.604 -2.1471 -0.5936  1.8177
  728TIP3   OH2 2147   5.211   5.681   4.203 -0.1731  0.0034 -0.0335
  728TIP3    H1 2148   5.136   5.712   4.151 -1.5401 -1.9759  0.6166
  728TIP3    H2 2149   5.256   5.620   4.145  0.3199  0.3722 -0.0440
  729TIP3   OH2 2150   1.413   0.133   1.827  0.4072 -0.1797  0.6135
  729TIP3    H1 2151   1.445   0.148   1.916  0.9414  0.9860  0.2440
  729TIP3    H2 2152   1.492   0.126   1.773  0.1347  2.6832 -0.2952
  730TIP3   OH2 2153   5.207   1.443   0.941 -0.2511  0.4732 -0.4943
  730TIP3    H1 2154   5.163   1.415   0.860  0.9669 -1.7029 -0.4804
  730TIP3    H2 2155   5.173   1.384   1.008 -1.6603  2.5948  0.7990
  731TIP3   OH2 2156   5.829   6.753   4.214  0.4673  0.1276 -0.0969
  731TIP3    H1 2157   5.779   6.822   4.170 -0.7946  0.7614  2.1413
  731TIP3    H2 2158   5.785   6.672   4.189 -0.9226  0.5666  0.7401
  732TIP3   OH2 2159   4.003   2.162   3.070 -0.5185 -0.1162 -0.5357
  732TIP3    H1 2160   4.012   2.067   3.075  1.1054  0.0817  1.2377
  732TIP3    H2 2161   3.970   2.188   3.155 -1.3436  0.9058 -1.1435
  733TIP3   OH2 2162   0.198   2.442   0.232 -0.0362  0.6393 -0.3788
  733TIP3    H1 2163   0.179   2.412   0.143  0.7953  1.1731 -0.7471
  733TIP3    H2 2164   0.292   2.425   0.243 -0.0716  0.8577  0.2930
  734TIP3   OH2 2165   6.457   0.491   5.744 -0.1119  0.2636 -0.0960
  734TIP3    H1 2166   6.512   0.416   5.766 -0.6519 -0.4301 -1.0450
  734TIP3    H2 2167   6.431   0.527   5.829  0.8280 -0.1093  0.3641
  735TIP3   OH2 2168   5.293   0.404   0.391  0.1968  0.3740 -0.3676
  735TIP3    H1 2169   5.379   0.366   0.374  0.8355  2.4266 -2.2594
  735TIP3    H2 2170   5.293   0.486   0.341 -2.1804  1.3613  1.0730
  736TIP3   OH2 2171   5.319   2.714   3.218 -0.0056 -0.2267 -0.1069
  736TIP3    H1 2172   5.390   2.747   3.273  0.3497 -2.4256  0.8612
  736TIP3    H2 2173   5.241   2.722   3.273 -0.0725 -0.1444 -0.2146
  737TIP3   OH2 2174   4.653   1.054   4.635  1.1439 -0.0680  0.1047
  737TIP3    H1 2175   4.572   1.062   4.585  0.0815  0.3394  1.8095
  737TIP3    H2 2176   4.687   0.967   4.613 -0.0378 -0.4556 -0.2253
  738TIP3   OH2 2177   4.937   0.377   5.559 -0.1445  0.1930  0.1913
  738TIP3    H1 2178   4.898   0.302   5.604  0.0606  1.6948  3.1772
  738TIP3    H2 2179   4.865   0.416   5.510 -1.1671  0.0550  1.5199
  739TIP3   OH2 2180   1.029   4.296   0.119 -0.1970 -0.3982  0.2743
  739TIP3    H1 2181   1.033   4.214   0.168 -0.9094  0.3192  1.6050
  739TIP3    H2 2182   0.972   4.353   0.172  0.5872  1.0763 -0.3953
  740TIP3   OH2 2183   2.846   5.398   1.562 -0.0498  0.5924 -0.1411
  740TIP3    H1 2184   2.814   5.482   1.593  0.8405  1.0464 -0.4283
  740TIP3    H2 2185   2.823   5.337   1.632  0.6754  1.3595  0.7958
  741TIP3   OH2 2186   3.279   5.672   3.507 -0.1589  0.6928 -0.6682
  741TIP3    H1 2187   3.247   5.585   3.528 -0.2748  0.7157 -0.7512
  741TIP3    H2 2188   3.373   5.668   3.525 -0.1282  0.4896 -0.8714
  742TIP3   OH2 2189   4.200   2.763   1.314 -0.2921  0.1149  0.0190
  742TIP3    H1 2190   4.180   2.852   1.288  1.1465  0.5183  0.1908
  742TIP3    H2 2191   4.290   2.749   1.284  0.5531 -0.2460  2.4688
  743TIP3   OH2 2192   5.954   3.017   3.607 -0.0194 -0.2210 -0.2770
  743TIP3    H1 2193   6.037   3.009   3.653 -0.7911 -1.5757  0.9686
  743TIP3    H2 2194   5.934   2.928   3.579 -0.7318  0.2037 -1.1428
  744TIP3   OH2 2195   1.650   3.983   1.259 -0.1814  0.0178 -0.1354
  744TIP3    H1 2196   1.652   4.001   1.165  2.3843 -0.0436 -0.1417
  744TIP3    H2 2197   1.655   3.887   1.264  0.0740  0.0440  0.0802
  745TIP3   OH2 2198   5.042   5.019   3.775  0.3830 -0.7934 -0.0619
  745TIP3    H1 2199   4.998   4.954   3.721  0.3571 -0.5561 -0.3273
  745TIP3    H2 2200   5.096   5.070   3.714 -0.8429  0.4965 -0.1291
  746TIP3   OH2 2201   2.133   6.366   1.903 -0.0302  0.7122  0.2185
  746TIP3    H1 2202   2.216   6.322   1.921 -0.1879  0.0882 -0.5461
  746TIP3    H2 2203   2.075   6.339   1.974 -0.3590 -0.9513 -0.6409
  747TIP3   OH2 2204   2.287   5.683   5.648 -0.0254 -0.1510 -0.4352
  747TIP3    H1 2205   2.381   5.670   5.640  0.0776  1.2000 -1.7125
  747TIP3    H2 2206   2.276   5.776   5.669 -1.0724 -0.2840 -0.3092
  748TIP3   OH2 2207   6.129   2.782   2.455  0.0748  0.7607 -0.2279
  748TIP3    H1 2208   6.058   2.828   2.410 -0.8134 -0.4206 -0.0904
  748TIP3    H2 2209   6.124   2.813   2.546 -1.1246 -0.2468  0.0816
  749TIP3   OH2 2210   4.223   2.335   4.915 -0.0518 -0.6334 -0.1237
  749TIP3    H1 2211   4.208   2.422   4.877 -0.2595 -0.7776 -0.3789
  749TIP3    H2 2212   4.198   2.344   5.007  1.2553 -0.0528  0.2070
  750TIP3   OH2 2213   4.704   0.978   3.717 -0.5761 -0.2286  0.1116
  750TIP3    H1 2214   4.679   1.026   3.796  0.6727  2.0400 -0.7756
  750TIP3    H2 2215   4.728   0.891   3.748  1.4489  1.0561  2.5515
  751TIP3   OH2 2216   4.336   0.309   0.174  0.1054 -0.3064  0.0501
  751TIP3    H1 2217   4.368   0.328   0.086  0.8396 -1.7620 -0.0307
  751TIP3    H2 2218   4.414   0.285   0.223 -0.3798 -0.1111  0.9342
  752TIP3   OH2 2219   7.027   2.033   2.618 -0.0043  0.1205  0.4664
  752TIP3    H1 2220   7.049   1.942   2.596  1.0223  0.3074  0.6782
  752TIP3    H2 2221   7.075   2.051   2.698 -1.8316  0.2094  1.6015
  753TIP3   OH2 2222   2.676   5.892   4.066 -0.0045  0.0849 -0.0613
  753TIP3    H1 2223   2.666   5.843   4.148 -1.6488  0.9362  0.2899
  753TIP3    H2 2224   2.622   5.970   4.078 -1.1134 -0.2419 -2.3117
  754TIP3   OH2 2225   0.727   3.357   3.744  0.1591  0.1931 -0.4827
  754TIP3    H1 2226   0.717   3.452   3.747 -1.3773  0.0287  1.2907
  754TIP3    H2 2227   0.672   3.329   3.671  0.2565  0.6217 -0.7212
  755TIP3   OH2 2228   6.857   4.864   5.742  0.4379  0.4559  0.3087
  755TIP3    H1 2229   6.843   4.782   5.694  1.6174  0.6923 -0.4484
  755TIP3    H2 2230   6.944   4.894   5.716 -0.2634  2.3523  0.0070
  756TIP3   OH2 2231   6.987   0.876   4.923 -0.1703 -0.0134  0.1262
  756TIP3    H1 2232   7.022   0.912   4.842 -1.5111  1.8221  0.3220
  756TIP3    H2 2233   7.040   0.797   4.939  1.5826  0.8101 -1.3313
  757TIP3   OH2 2234   7.081   0.878   0.947  0.7149  0.0758 -0.2104
  757TIP3    H1 2235   7.088   0.954   1.005 -1.1081 -1.2628  1.9053
  757TIP3    H2 2236   7.133   0.811   0.990  2.0808 -0.0360 -1.9192
  758TIP3   OH2 2237   6.975   4.104   1.680  0.4102 -0.1330  0.1561
  758TIP3    H1 2238   6.995   4.043   1.610 -0.3768  1.1433 -1.2496
  758TIP3    H2 2239   7.044   4.170   1.676  0.9481 -0.5926  1.2985
  759TIP3   OH2 2240   5.208   3.376   0.599  0.0190  0.2636  0.2263
  759TIP3    H1 2241   5.289   3.426   0.590 -0.9004  1.8681  0.4018
  759TIP3    H2 2242   5.163   3.387   0.516 -0.4727  0.2539  0.4850
  760TIP3   OH2 2243   6.124   0.504   3.924  0.2739  0.4584 -0.1563
  760TIP3    H1 2244   6.167   0.589   3.922 -3.0240  2.3254  0.1262
  760TIP3    H2 2245   6.075   0.500   3.842 -1.2129 -0.1936  0.7088
  761TIP3   OH2 2246   3.547   6.520   4.160 -0.4331 -0.7713  0.2587
  761TIP3    H1 2247   3.570   6.512   4.067 -0.7111 -0.5480  0.1687
  761TIP3    H2 2248   3.526   6.612   4.171 -0.0311 -0.7247  0.6320
  762TIP3   OH2 2249   3.418   0.793   2.915 -0.3005  0.3023  0.1386
  762TIP3    H1 2250   3.354   0.747   2.861 -2.7797  2.0375  1.4378
  762TIP3    H2 2251   3.416   0.747   2.999 -0.6372  0.9949  0.5173
  763TIP3   OH2 2252   6.739   4.316   1.526 -0.1553  0.6120  0.6888
  763TIP3    H1 2253   6.742   4.243   1.588  0.9486 -0.7663 -0.9047
  763TIP3    H2 2254   6.803   4.294   1.459 -1.5122  1.8836 -1.1344
  764TIP3   OH2 2255   0.399   3.555   1.480  0.2338 -0.2401  0.0679
  764TIP3    H1 2256   0.461   3.581   1.548  0.2225 -0.4972  0.1799
  764TIP3    H2 2257   0.448   3.492   1.427 -0.2763 -1.2774  0.8024
  765TIP3   OH2 2258   6.253   4.022   5.205  0.0028  0.0062  0.7591
  765TIP3    H1 2259   6.159   4.035   5.199 -0.2842 -1.4935  1.6371
  765TIP3    H2 2260   6.283   4.024   5.113 -1.1856 -1.4823  0.2988
  766TIP3   OH2 2261   3.678   3.350   2.273 -0.2176 -0.4318 -0.3316
  766TIP3    H1 2262   3.688   3.265   2.230 -0.4722 -0.5738 -0.1121
  766TIP3    H2 2263   3.598   3.386   2.236 -0.8750 -0.9075  0.6099
  767TIP3   OH2 2264   4.053   4.827   1.660  0.7582 -0.2105  0.2641
  767TIP3    H1 2265   3.982   4.809   1.722  1.2694 -0.1046  0.8986
  767TIP3    H2 2266   4.037   4.916   1.630  0.1077 -0.5140 -0.3062
  768TIP3   OH2 2267   0.596   5.201   1.509  0.1030 -0.6699 -0.5159
  768TIP3    H1 2268   0.679   5.170   1.473  0.4562  0.6380 -0.8813
  768TIP3    H2 2269   0.601   5.296   1.501 -0.2644 -0.3804  2.0208
  769TIP3   OH2 2270   3.757   5.568   1.702  0.1871 -0.2890 -0.6926
  769TIP3    H1 2271   3.824   5.532   1.643  2.5202  1.7671  0.5381
  769TIP3    H2 2272   3.726   5.647   1.657 -1.2271 -1.0212 -1.0729
  770TIP3   OH2 2273   4.275   1.772   5.449 -0.3607 -0.0358 -0.3228
  770TIP3    H1 2274   4.272   1.850   5.394  1.3789 -1.0578 -1.9663
  770TIP3    H2 2275   4.195   1.725   5.428 -0.1262  0.0100 -1.3444
  771TIP3   OH2 2276   0.672   2.248   2.417  0.2686  0.3341 -0.1628
  771TIP3    H1 2277   0.590   2.297   2.405 -0.4943 -0.2162  2.2374
  771TIP3    H2 2278   0.729   2.308   2.464  0.3752 -0.0998  0.2639
  772TIP3   OH2 2279   5.591   0.965   1.917  0.2951 -0.3020  0.2006
  772TIP3    H1 2280   5.590   1.059   1.904 -0.2939 -0.0458  1.7971
  772TIP3    H2 2281   5.503   0.936   1.895  0.2246 -0.3305  0.5042
  773TIP3   OH2 2282   0.608   0.224   0.312  0.1504  0.2774 -0.3244
  773TIP3    H1 2283   0.526   0.228   0.262  0.2763  0.0972 -0.5521
  773TIP3    H2 2284   0.670   0.182   0.251  0.4547  0.5730 -0.2167
  774TIP3   OH2 2285   1.572   4.355   5.281 -0.3280  0.5184 -0.1728
  774TIP3    H1 2286   1.579   4.435   5.229 -0.7669 -1.3194 -3.3407
  774TIP3    H2 2287   1.657   4.346   5.324  0.2398  1.9045 -0.9516
  775TIP3   OH2 2288   1.878   3.249   5.684 -0.4822  0.0299 -0.0898
  775TIP3    H1 2289   1.792   3.217   5.711  0.1337  0.2717  2.4138
  775TIP3    H2 2290   1.902   3.194   5.609 -2.2816 -0.8444 -0.0644
  776TIP3   OH2 2291   4.828   1.972   1.711 -0.1104 -0.0282  0.2832
  776TIP3    H1 2292   4.875   1.890   1.696  0.0380  0.3032 -1.2936
  776TIP3    H2 2293   4.746   1.946   1.753  0.0873 -0.9463  0.1151
  777TIP3   OH2 2294   0.204   3.485   3.811 -0.1083  0.5633 -0.4295
  777TIP3    H1 2295   0.205   3.541   3.734  0.0036  0.5562 -0.4345
  777TIP3    H2 2296   0.289   3.440   3.809  0.1204  0.9674 -0.0077
  778TIP3   OH2 2297   2.829   1.225   3.407 -0.1573  0.2969 -0.1135
  778TIP3    H1 2298   2.800   1.137   3.385  0.1500  0.5326 -1.5284
  778TIP3    H2 2299   2.875   1.214   3.490  0.2686 -0.9623 -0.4868
  779TIP3   OH2 2300   0.234   4.127   3.419  0.0052 -0.8462 -0.3600
  779TIP3    H1 2301   0.243   4.135   3.324 -0.4068  0.1748 -0.3296
  779TIP3    H2 2302   0.290   4.195   3.455 -0.6630 -0.5146  0.0888
  780TIP3   OH2 2303   0.076   3.394   4.213 -0.1450  0.6445  0.8048
  780TIP3    H1 2304   0.140   3.356   4.153 -1.8293  1.5111 -1.6841
  780TIP3    H2 2305   0.120   3.470   4.250  0.6985  0.5045  0.1317
  781TIP3   OH2 2306   2.212   6.183   3.247 -0.0926 -0.8641  0.3163
  781TIP3    H1 2307   2.292   6.213   3.289 -0.4378 -0.7995  0.9357
  781TIP3    H2 2308   2.222   6.210   3.155 -0.2000  0.7989  0.7591
  782TIP3   OH2 2309   3.034   1.471   2.615  0.0817 -0.5044  0.1728
  782TIP3    H1 2310   3.015   1.547   2.560 -0.0683 -0.3315  0.4632
  782TIP3    H2 2311   2.974   1.403   2.584 -0.8497 -0.0398  0.9155
  783TIP3   OH2 2312   6.470   4.097   4.236 -0.6885 -0.1344  0.3598
  783TIP3    H1 2313   6.513   4.172   4.195 -3.5163  0.9753 -0.7920
  783TIP3    H2 2314   6.413   4.061   4.168  0.9999 -3.8433  0.6337
  784TIP3   OH2 2315   6.863   3.171   3.003 -0.2605 -0.4374  0.7285
  784TIP3    H1 2316   6.909   3.095   3.038 -1.5642 -1.1344  0.9935
  784TIP3    H2 2317   6.771   3.155   3.024 -0.8214  0.1762 -1.0656
  785TIP3   OH2 2318   0.875   2.126   4.202 -0.0132  0.3790  0.2036
  785TIP3    H1 2319   0.869   2.213   4.240 -0.1422  0.4524  0.0188
  785TIP3    H2 2320   0.794   2.082   4.228  0.5905 -0.1104  1.3245
  786TIP3   OH2 2321   1.833   4.597   3.866 -0.6012 -0.5628  0.0764
  786TIP3    H1 2322   1.865   4.518   3.910  1.2338 -1.1904 -2.1706
  786TIP3    H2 2323   1.761   4.566   3.811 -0.1666 -0.6503 -0.4667
  787TIP3   OH2 2324   2.816   2.210   2.439  0.6527  0.4966  0.3892
  787TIP3    H1 2325   2.847   2.239   2.525  3.1326 -1.2667  0.2126
  787TIP3    H2 2326   2.881   2.244   2.378  0.5446 -0.6892 -0.4153
  788TIP3   OH2 2327   6.385   3.244   0.661 -0.2631 -0.7117 -0.6347
  788TIP3    H1 2328   6.411   3.168   0.608 -0.6245 -1.8516  0.7637
  788TIP3    H2 2329   6.313   3.212   0.716 -0.6184  0.7299 -0.2064
  789TIP3   OH2 2330   3.193   0.316   5.008 -0.1246  0.5433 -0.1708
  789TIP3    H1 2331   3.186   0.250   4.940 -0.4463  1.7133 -1.3063
  789TIP3    H2 2332   3.141   0.280   5.081  0.5930 -0.9192 -0.3330
  790TIP3   OH2 2333   2.183   0.420   4.673 -0.4162 -0.2534 -0.6500
  790TIP3    H1 2334   2.142   0.494   4.628  0.8736 -0.2076 -1.8298
  790TIP3    H2 2335   2.277   0.439   4.669 -0.0635 -1.9511 -0.9769
  791TIP3   OH2 2336   6.621   3.986   0.798 -0.0554  0.4986  0.4582
  791TIP3    H1 2337   6.635   4.061   0.740 -0.1948 -0.8456 -1.3625
  791TIP3    H2 2338   6.665   4.012   0.880  2.8857  1.2476 -1.1948
  792TIP3   OH2 2339   1.250   0.330   5.726 -0.1128  0.3731 -0.7914
  792TIP3    H1 2340   1.305   0.408   5.718 -0.4593  0.8259  0.9740
  792TIP3    H2 2341   1.282   0.272   5.656  2.3137  0.7954 -0.1336
  793TIP3   OH2 2342   1.363   3.599   2.640  0.3543 -0.4364 -0.3194
  793TIP3    H1 2343   1.337   3.552   2.561 -0.3251 -0.3676 -0.1419
  793TIP3    H2 2344   1.451   3.632   2.620 -0.9894  2.4031 -2.3755
  794TIP3   OH2 2345   3.460   5.015   3.281  0.2318  0.0272 -0.0788
  794TIP3    H1 2346   3.435   5.064   3.359 -2.3137 -2.4027  0.7712
  794TIP3    H2 2347   3.539   4.967   3.308 -0.1470 -0.1628  0.7261
  795TIP3   OH2 2348   3.415   6.756   4.252  0.0719  0.1472 -0.2835
  795TIP3    H1 2349   3.449   6.821   4.315 -1.2500  3.3266 -2.5786
  795TIP3    H2 2350   3.320   6.769   4.253 -0.1038 -0.7964 -1.7838
  796TIP3   OH2 2351   1.150   1.845   4.869  0.7221  0.0508  0.7669
  796TIP3    H1 2352   1.146   1.934   4.905  0.7308  0.7687 -0.8816
  796TIP3    H2 2353   1.243   1.830   4.853  0.5961  0.5308 -0.6562
  797TIP3   OH2 2354   3.583   6.115   1.101 -0.2059  0.0559 -0.8951
  797TIP3    H1 2355   3.601   6.209   1.090 -0.7847  0.1507 -1.0610
  797TIP3    H2 2356   3.497   6.112   1.143  0.0928 -0.3926 -0.2974
  798TIP3   OH2 2357   1.451   4.766   4.069  0.4945 -0.1135  0.2741
  798TIP3    H1 2358   1.409   4.805   4.146 -0.6560 -0.1180 -0.3267
  798TIP3    H2 2359   1.521   4.828   4.047  1.4725 -0.5741  1.8454
  799TIP3   OH2 2360   5.890   1.994   5.731 -0.1597  0.2262 -0.1133
  799TIP3    H1 2361   5.856   1.925   5.674 -1.1762  1.7136 -1.4032
  799TIP3    H2 2362   5.815   2.053   5.744  1.1219  2.0561 -0.6008
  800TIP3   OH2 2363   6.448   6.078   0.194 -0.3869 -0.3025 -0.4165
  800TIP3    H1 2364   6.538   6.051   0.174 -0.5230 -1.2038  0.1416
  800TIP3    H2 2365   6.458   6.164   0.235  0.2236 -0.4140 -0.3131
  801TIP3   OH2 2366   6.286   3.944   3.588 -0.6219  0.1867  0.6544
  801TIP3    H1 2367   6.262   3.900   3.670 -1.3507 -1.7937 -0.5399
  801TIP3    H2 2368   6.335   3.878   3.539  0.5552  1.6269 -0.1663
  802TIP3   OH2 2369   4.790   5.871   4.106  0.5119  0.4355  0.8181
  802TIP3    H1 2370   4.737   5.797   4.135 -1.2221  1.1239 -0.4153
  802TIP3    H2 2371   4.728   5.943   4.098  1.8502  1.5863  0.3841
  803TIP3   OH2 2372   4.747   1.113   5.532  0.1788  0.0633 -0.1938
  803TIP3    H1 2373   4.661   1.079   5.507 -0.3580  0.8649  0.5033
  803TIP3    H2 2374   4.791   1.133   5.449  0.1674 -1.4573 -0.5942
  804TIP3   OH2 2375   1.875   5.120   0.500 -0.2389  0.7608  0.3975
  804TIP3    H1 2376   1.888   5.097   0.592  0.4041  1.4003  0.4704
  804TIP3    H2 2377   1.882   5.037   0.454  1.4225  0.6819  0.7239
  805TIP3   OH2 2378   4.996   5.489   5.587  0.1108 -0.3307  0.5244
  805TIP3    H1 2379   4.998   5.465   5.494  1.7874 -0.3075  0.5245
  805TIP3    H2 2380   4.946   5.419   5.629  1.7882 -1.9327 -0.0108
  806TIP3   OH2 2381   0.757   2.173   4.687 -0.6418  0.5929  0.0792
  806TIP3    H1 2382   0.719   2.118   4.756 -0.1318 -0.2907 -0.3335
  806TIP3    H2 2383   0.847   2.142   4.678 -0.1170  1.9903  0.3338
  807TIP3   OH2 2384   4.977   3.199   0.521 -0.0798  0.0621 -0.4606
  807TIP3    H1 2385   4.957   3.153   0.439  1.8054 -0.1075 -0.8581
  807TIP3    H2 2386   5.013   3.283   0.493  0.4501  0.0600  0.2015
  808TIP3   OH2 2387   3.936   1.177   1.349  0.6773 -0.0590  0.0207
  808TIP3    H1 2388   4.009   1.236   1.328  0.4956  0.0822 -0.2144
  808TIP3    H2 2389   3.867   1.200   1.287 -0.0162  0.6293  1.0119
  809TIP3   OH2 2390   6.259   4.198   0.001 -0.4437  0.0629 -0.2250
  809TIP3    H1 2391   6.268   4.262  -0.069 -0.4140  0.1252 -0.1638
  809TIP3    H2 2392   6.286   4.244   0.080  1.8411 -0.6885 -0.4874
  810TIP3   OH2 2393   7.187   3.858   3.989 -0.6232 -0.0942 -0.0556
  810TIP3    H1 2394   7.275   3.822   3.978  1.0213  2.7034  2.3541
  810TIP3    H2 2395   7.131   3.801   3.937  2.3378 -3.0208 -0.3845
  811TIP3   OH2 2396   3.341   2.781   0.314  0.7345  0.1900 -0.3134
  811TIP3    H1 2397   3.382   2.697   0.293  1.0498  0.2174  0.1566
  811TIP3    H2 2398   3.266   2.757   0.370 -0.6986  0.0403 -2.2130
  812TIP3   OH2 2399   1.984   2.379   0.588 -0.1157 -0.0756 -0.2462
  812TIP3    H1 2400   1.985   2.445   0.658  0.3249  0.1795 -0.4898
  812TIP3    H2 2401   1.945   2.424   0.513  1.2281  0.2853 -0.7627
  813TIP3   OH2 2402   2.843   6.365   3.558 -0.0243 -0.1440  0.1388
  813TIP3    H1 2403   2.766   6.315   3.585 -0.1492 -1.0313 -1.6656
  813TIP3    H2 2404   2.901   6.364   3.634 -1.5561  0.1153  1.3627
  814TIP3   OH2 2405   0.843   0.192   3.426  0.1758 -0.2304  0.4826
  814TIP3    H1 2406   0.858   0.098   3.424  0.3125 -0.2468  1.6818
  814TIP3    H2 2407   0.766   0.203   3.481 -0.0260  0.3475  0.0979
  815TIP3   OH2 2408   1.383   5.661   4.655 -0.2471 -0.0669 -0.4566
  815TIP3    H1 2409   1.368   5.616   4.572  0.3789 -1.7594  0.2977
  815TIP3    H2 2410   1.296   5.668   4.695 -0.3589 -0.6166 -0.5933
  816TIP3   OH2 2411   5.704   5.525   1.096 -0.4844  0.5854  0.0076
  816TIP3    H1 2412   5.768   5.558   1.159  0.4035 -0.9810 -0.0424
  816TIP3    H2 2413   5.625   5.576   1.115 -0.0525  0.6173  1.9548
  817TIP3   OH2 2414   0.405   0.301   3.878  0.1420  1.1165 -0.3873
  817TIP3    H1 2415   0.336   0.322   3.941  0.1898  1.8028 -0.5485
  817TIP3    H2 2416   0.365   0.321   3.793  0.7836  2.2650 -0.4384
  818TIP3   OH2 2417   5.651   2.656   5.116  0.1307  0.6640  0.0251
  818TIP3    H1 2418   5.670   2.703   5.197  1.7368  0.3698 -0.1559
  818TIP3    H2 2419   5.565   2.690   5.089  0.1592  1.7155  1.1466
  819TIP3   OH2 2420   0.533   5.602   4.287  0.0758  0.3046  0.1784
  819TIP3    H1 2421   0.512   5.622   4.196  0.0809  0.7984  0.2874
  819TIP3    H2 2422   0.452   5.567   4.323 -0.0755  0.6094  0.1318
  820TIP3   OH2 2423   6.762   4.447   5.420 -0.1377  0.0817 -0.1986
  820TIP3    H1 2424   6.707   4.445   5.341  0.4000  0.5758 -0.6036
  820TIP3    H2 2425   6.719   4.388   5.481  0.5976 -2.0875 -1.6320
  821TIP3   OH2 2426   6.054   0.969   3.662  0.1959  0.6468  0.0452
  821TIP3    H1 2427   6.144   0.968   3.629 -0.1505 -0.5994 -0.9210
  821TIP3    H2 2428   6.000   0.972   3.583 -0.6278  0.1635  0.5787
  822TIP3   OH2 2429   0.628   3.938   3.459  0.4550 -0.1697  0.3758
  822TIP3    H1 2430   0.661   4.014   3.506  2.4323 -0.2749 -0.7536
  822TIP3    H2 2431   0.699   3.913   3.400 -0.2865 -2.6496  0.4119
  823TIP3   OH2 2432   0.552   4.257   1.155 -0.5668  0.5144  0.0907
  823TIP3    H1 2433   0.609   4.248   1.231  0.0487  1.4602 -0.2429
  823TIP3    H2 2434   0.596   4.207   1.086 -0.6965  0.3561  0.1213
  824TIP3   OH2 2435   2.876   0.521   1.803  0.3188 -0.3474 -0.3879
  824TIP3    H1 2436   2.817   0.588   1.769 -0.6176 -0.2320  1.3535
  824TIP3    H2 2437   2.932   0.568   1.866 -0.1735 -1.1165  0.6500
  825TIP3   OH2 2438   0.952   4.832   1.410  0.2354  0.0777 -0.2369
  825TIP3    H1 2439   0.988   4.763   1.466  0.8743  1.6883  1.4282
  825TIP3    H2 2440   0.957   4.796   1.321  1.9864 -1.4168  0.4109
  826TIP3   OH2 2441   4.016   3.731   2.903  0.2233  0.7424 -0.0189
  826TIP3    H1 2442   4.011   3.825   2.921  1.5561  0.8662 -0.2001
  826TIP3    H2 2443   4.093   3.722   2.846 -0.5130 -0.3340 -0.8710
  827TIP3   OH2 2444   7.057   5.303   4.618 -0.2807  0.2073 -0.2782
  827TIP3    H1 2445   7.109   5.380   4.640 -1.5753  0.9520  0.3157
  827TIP3    H2 2446   7.086   5.279   4.530 -0.3784  1.8521 -0.7957
  828TIP3   OH2 2447   4.996   6.064   0.145  0.5617 -0.2592  0.4417
  828TIP3    H1 2448   5.007   6.148   0.101 -2.2148  0.1616  0.3753
  828TIP3    H2 2449   5.002   6.000   0.074  2.6816 -0.2094  0.4925
  829TIP3   OH2 2450   1.611   0.895   1.148  0.1427 -0.2460 -0.6967
  829TIP3    H1 2451   1.634   0.960   1.081 -0.3279 -0.0624 -0.6870
  829TIP3    H2 2452   1.680   0.830   1.143  2.6487  1.9797  1.6993
  830TIP3   OH2 2453   6.506   5.232   2.602 -0.3143 -0.0491  0.2753
  830TIP3    H1 2454   6.487   5.146   2.641  0.5183 -0.5829 -0.4385
  830TIP3    H2 2455   6.518   5.213   2.509 -1.0012  0.9995 -0.0385
  831TIP3   OH2 2456   4.132   0.994   0.057 -0.1299  0.2177  0.0909
  831TIP3    H1 2457   4.139   0.957  -0.032 -0.7607  0.0900  0.0866
  831TIP3    H2 2458   4.050   0.958   0.091  0.2325  0.0729  0.8220
  832TIP3   OH2 2459   5.567   2.229   1.322  0.4499  0.2239  0.0482
  832TIP3    H1 2460   5.520   2.312   1.323  0.5277  0.2995 -1.0848
  832TIP3    H2 2461   5.528   2.180   1.249 -0.6905 -1.4064  1.6762
  833TIP3   OH2 2462   7.047   5.160   3.997  0.2730 -0.6137  0.2094
  833TIP3    H1 2463   6.983   5.090   4.012  0.2622 -0.9168 -1.1519
  833TIP3    H2 2464   7.059   5.162   3.902  0.6916  0.8746  0.2740
  834TIP3   OH2 2465   0.072   3.619   4.503 -0.3976  0.3651  0.1723
  834TIP3    H1 2466   0.073   3.524   4.496 -2.1413  0.2067  1.2884
  834TIP3    H2 2467   0.024   3.649   4.426 -1.2531  0.1962  0.6248
  835TIP3   OH2 2468   6.040   4.964   0.658 -0.3244 -0.0403 -0.2990
  835TIP3    H1 2469   5.947   4.966   0.635 -0.5831  2.7319  0.5599
  835TIP3    H2 2470   6.041   4.946   0.752  0.0946 -1.0176 -0.4791
  836TIP3   OH2 2471   0.380   0.431   5.874 -0.0164  0.4719  0.0016
  836TIP3    H1 2472   0.350   0.344   5.900  0.5876  0.2294 -0.0839
  836TIP3    H2 2473   0.337   0.447   5.790 -0.7685  0.6055  0.4046
  837TIP3   OH2 2474   2.607   5.094   4.165 -0.8277 -0.0345 -0.2268
  837TIP3    H1 2475   2.644   5.155   4.101 -0.0736 -1.6016 -1.3805
  837TIP3    H2 2476   2.682   5.064   4.216 -0.9769 -0.8761 -0.4819
  838TIP3   OH2 2477   6.875   3.097   5.058 -0.7090 -0.5873 -0.2278
  838TIP3    H1 2478   6.790   3.057   5.039 -0.6219 -1.5962  1.3388
  838TIP3    H2 2479   6.935   3.022   5.066 -0.3486 -0.1395  1.8552
  839TIP3   OH2 2480   6.928   3.016   3.899 -0.1404  0.3442 -0.4567
  839TIP3    H1 2481   6.993   3.052   3.960 -0.0552 -1.1341  0.3682
  839TIP3    H2 2482   6.862   2.976   3.956 -0.8988  0.3404 -1.3188
  840TIP3   OH2 2483   2.676   4.685   5.595  0.5845  0.4123  0.2057
  840TIP3    H1 2484   2.712   4.693   5.683 -0.1763  0.4874  0.5107
  840TIP3    H2 2485   2.749   4.650   5.543  2.2653  3.6635  0.0573
  841TIP3   OH2 2486   5.160   5.659   0.259 -0.3169 -0.0095  0.0401
  841TIP3    H1 2487   5.065   5.666   0.266 -0.1962  0.4958  1.6365
  841TIP3    H2 2488   5.182   5.576   0.302  0.0787  0.8067  1.5149
  842TIP3   OH2 2489   3.729   2.988   1.292 -0.2487  0.9334  0.0331
  842TIP3    H1 2490   3.638   2.986   1.322 -0.4287 -0.8130 -0.5165
  842TIP3    H2 2491   3.725   3.028   1.206 -0.6385  0.0797 -0.3584
  843TIP3   OH2 2492   1.606   3.951   0.754 -0.1271  0.5277  0.1339
  843TIP3    H1 2493   1.584   4.005   0.678  1.3574 -3.3174 -3.3918
  843TIP3    H2 2494   1.526   3.900   0.771  0.9231 -2.3540 -2.5624
  844TIP3   OH2 2495   2.135   3.476   2.672 -0.1171  0.5905  0.6117
  844TIP3    H1 2496   2.143   3.397   2.619  2.9893  0.0413  1.6714
  844TIP3    H2 2497   2.180   3.544   2.620  0.9169  0.5969  1.4801
  845TIP3   OH2 2498   4.439   0.470   0.935  0.3490 -0.3148  0.4975
  845TIP3    H1 2499   4.455   0.497   1.026 -0.7831 -1.1599  0.9838
  845TIP3    H2 2500   4.510   0.509   0.885 -0.3755  2.3100  1.3457
  846TIP3   OH2 2501   4.641   1.733   2.816 -0.1149 -0.8478  0.0740
  846TIP3    H1 2502   4.579   1.764   2.749  0.2386 -0.9871 -0.3245
  846TIP3    H2 2503   4.592   1.668   2.866 -0.8399  0.2918  0.8708
  847TIP3   OH2 2504   1.477   5.262   5.412 -0.6351 -0.4051 -0.2916
  847TIP3    H1 2505   1.488   5.201   5.339 -0.0107  0.8668 -1.3182
  847TIP3    H2 2506   1.553   5.248   5.467 -0.0734 -0.0253 -0.9497
  848TIP3   OH2 2507   2.429   1.951   1.465 -0.0893 -0.8661  0.0215
  848TIP3    H1 2508   2.486   2.003   1.409 -0.6910 -0.6804 -0.4406
  848TIP3    H2 2509   2.404   1.876   1.410 -1.7968  0.0183 -0.5019
  849TIP3   OH2 2510   2.222   3.045   3.879  0.0241  0.1947 -0.8147
  849TIP3    H1 2511   2.202   3.085   3.963 -0.4697  0.0869 -0.8750
  849TIP3    H2 2512   2.317   3.052   3.870  0.0243  0.6440 -0.4727
  850TIP3   OH2 2513   5.677   1.098   3.175 -0.0167  0.0819 -0.3320
  850TIP3    H1 2514   5.674   1.051   3.259  0.4398  1.0679  0.2503
  850TIP3    H2 2515   5.712   1.035   3.113  0.8921 -0.2563  0.5047
  851TIP3   OH2 2516   5.718   6.468   2.650 -0.1587 -0.1716  0.1360
  851TIP3    H1 2517   5.775   6.481   2.574 -2.6170 -1.4679 -2.1175
  851TIP3    H2 2518   5.720   6.374   2.666  1.2579  0.1974  2.5917
  852TIP3   OH2 2519   4.349   1.984   5.249 -0.4444  0.4556  0.1936
  852TIP3    H1 2520   4.287   2.057   5.246  1.1484  1.9251  1.3527
  852TIP3    H2 2521   4.410   2.007   5.318  0.6035 -1.6273  0.0484
  853TIP3   OH2 2522   4.733   0.526   2.072  0.1714 -0.2011  0.7247
  853TIP3    H1 2523   4.721   0.597   2.010 -2.3756 -1.6905 -0.6648
  853TIP3    H2 2524   4.817   0.486   2.049 -0.2023 -0.0137 -1.0571
  854TIP3   OH2 2525   3.766   4.281   4.958 -0.1182 -0.4780  0.0494
  854TIP3    H1 2526   3.819   4.212   4.998  1.8086 -0.0967 -1.7051
  854TIP3    H2 2527   3.725   4.326   5.033  1.3959 -1.2975  1.4416
  855TIP3   OH2 2528   0.293   6.518   4.913 -0.4936  0.3301 -0.1031
  855TIP3    H1 2529   0.260   6.603   4.943  0.2638  0.5018  0.2585
  855TIP3    H2 2530   0.280   6.519   4.819 -0.7131  0.7468 -0.0728
  856TIP3   OH2 2531   3.980   3.361   3.303  0.8417 -0.0315 -0.0906
  856TIP3    H1 2532   3.904   3.350   3.246 -0.1853 -0.0879  1.2518
  856TIP3    H2 2533   4.046   3.403   3.247 -0.7372  1.5687 -0.8388
  857TIP3   OH2 2534   3.697   1.880   5.680  0.4102 -0.0213 -0.1573
  857TIP3    H1 2535   3.619   1.846   5.724 -0.2419 -1.2935 -2.1427
  857TIP3    H2 2536   3.669   1.963   5.642  0.7652  0.7177  1.1362
  858TIP3   OH2 2537   2.718   0.589   3.153  0.0633 -0.0001 -0.1542
  858TIP3    H1 2538   2.736   0.635   3.071 -1.3260  1.0253  0.0976
  858TIP3    H2 2539   2.773   0.510   3.148  0.8007  0.5667 -1.5800
  859TIP3   OH2 2540   1.063   4.782   2.198  1.0681 -0.9625  0.0329
  859TIP3    H1 2541   0.992   4.779   2.135  1.1536 -1.8670 -0.0326
  859TIP3    H2 2542   1.028   4.741   2.277  0.8666  0.4206  0.6941
  860TIP3   OH2 2543   5.072   0.119   0.420 -0.0547 -0.3523  0.6521
  860TIP3    H1 2544   5.087   0.025   0.431  1.0743 -0.2368  0.2091
  860TIP3    H2 2545   5.112   0.158   0.498 -2.9985 -0.3850  2.3421
  861TIP3   OH2 2546   2.986   3.090   0.509  0.8256  0.4578  0.3822
  861TIP3    H1 2547   2.944   3.013   0.548  1.6504  0.4787  1.3202
  861TIP3    H2 2548   3.012   3.144   0.583  1.3090  1.0872 -0.2347
  862TIP3   OH2 2549   1.207   4.960   3.327 -0.0762  0.2286  0.4585
  862TIP3    H1 2550   1.217   4.865   3.314  0.4633  0.4755 -1.1618
  862TIP3    H2 2551   1.131   4.968   3.385  1.1434 -1.2379  2.3885
  863TIP3   OH2 2552   5.892   2.376   3.345 -0.5249 -0.2781 -0.6567
  863TIP3    H1 2553   5.894   2.327   3.427 -0.1593  0.0133 -0.4909
  863TIP3    H2 2554   5.960   2.442   3.354 -1.1322  0.3851 -0.8103
  864TIP3   OH2 2555   5.156   3.992   2.162  0.4063  0.2101 -0.2725
  864TIP3    H1 2556   5.217   4.039   2.104 -1.2540  0.6273 -1.7524
  864TIP3    H2 2557   5.096   4.060   2.194 -0.2611 -0.4383 -0.1248
  865TIP3   OH2 2558   1.288   3.671   2.900 -0.3173  0.3885 -0.5065
  865TIP3    H1 2559   1.301   3.654   2.806 -1.9874  2.2409 -1.1485
  865TIP3    H2 2560   1.327   3.758   2.914  0.0668  0.0567  0.5766
  866TIP3   OH2 2561   1.487   3.725   0.147  0.1965 -0.7097  0.5262
  866TIP3    H1 2562   1.441   3.665   0.207 -0.9927  2.0570  2.6054
  866TIP3    H2 2563   1.574   3.688   0.140 -0.8632 -3.4576  0.4899
  867TIP3   OH2 2564   1.165   1.250   5.701 -0.2946  0.3243  0.0816
  867TIP3    H1 2565   1.194   1.169   5.743  0.9547  0.2257 -0.9204
  867TIP3    H2 2566   1.093   1.222   5.643  0.9064 -0.3154 -1.1626
  868TIP3   OH2 2567   5.147   4.687   3.548 -0.2744  0.5949  0.4398
  868TIP3    H1 2568   5.211   4.713   3.614  0.5883 -0.8828  0.2494
  868TIP3    H2 2569   5.169   4.739   3.471 -2.4371  3.6958  1.7360
  869TIP3   OH2 2570   4.380   6.215   0.326  0.2958  0.3356  0.2278
  869TIP3    H1 2571   4.286   6.227   0.311 -0.4614  0.3937  4.1254
  869TIP3    H2 2572   4.394   6.121   0.310 -0.0820  0.5304 -1.5181
  870TIP3   OH2 2573   1.328   2.137   1.338  0.3532 -0.0711  0.4905
  870TIP3    H1 2574   1.409   2.105   1.377 -0.0008 -0.6935  0.7195
  870TIP3    H2 2575   1.294   2.201   1.402  1.8988  2.0814 -0.6974
  871TIP3   OH2 2576   4.155   6.402   3.442  0.5324  0.0740 -0.0935
  871TIP3    H1 2577   4.117   6.337   3.500 -3.0537  0.5135 -1.7079
  871TIP3    H2 2578   4.137   6.486   3.485  1.8490  0.2343  0.2040
  872TIP3   OH2 2579   2.633   5.323   1.366 -0.3466  0.0782  0.2555
  872TIP3    H1 2580   2.699   5.280   1.311 -1.1068 -0.4060 -0.3041
  872TIP3    H2 2581   2.683   5.385   1.418  0.4332  0.4156 -0.8458
  873TIP3   OH2 2582   0.947   5.256   2.562  0.2335  0.5543 -0.5467
  873TIP3    H1 2583   0.879   5.191   2.582  0.7572  0.5506  1.4036
  873TIP3    H2 2584   1.012   5.208   2.511  0.2221 -0.2355  0.1699
  874TIP3   OH2 2585   0.568   3.385   4.098  0.1995  0.6198 -0.0668
  874TIP3    H1 2586   0.598   3.329   4.027  2.3660  1.9827 -0.3129
  874TIP3    H2 2587   0.626   3.366   4.171 -0.2413  1.2017  0.4581
  875TIP3   OH2 2588   5.663   1.574   2.000 -0.1357  0.1999  0.2551
  875TIP3    H1 2589   5.609   1.581   1.921 -0.7180  1.2655  0.7168
  875TIP3    H2 2590   5.633   1.646   2.055  0.7930 -0.0629  1.1311
  876TIP3   OH2 2591   2.285   0.104   3.527 -0.3204 -0.1240 -0.3667
  876TIP3    H1 2592   2.231   0.157   3.468  1.1393  1.8954 -0.0023
  876TIP3    H2 2593   2.239   0.108   3.611 -0.3996  0.3093 -0.4271
  877TIP3   OH2 2594   2.357   4.553   2.981 -0.2082  0.1425  0.3648
  877TIP3    H1 2595   2.333   4.644   2.961  0.9707  0.6453  1.0916
  877TIP3    H2 2596   2.280   4.502   2.958 -0.3698  1.1405 -1.5053
  878TIP3   OH2 2597   3.217   2.164   4.644  0.0552  0.1314 -0.0465
  878TIP3    H1 2598   3.198   2.093   4.706  0.8407 -0.5040 -0.5056
  878TIP3    H2 2599   3.200   2.125   4.558 -2.5439  1.4664 -0.2366
  879TIP3   OH2 2600   5.646   2.434   2.446  0.0673  0.3881 -0.7719
  879TIP3    H1 2601   5.669   2.345   2.472  2.0847  1.1994  0.4105
  879TIP3    H2 2602   5.550   2.434   2.441 -0.1527 -1.1026  1.9820
  880TIP3   OH2 2603   3.813   0.577   5.028 -0.0053 -0.5634 -0.3749
  880TIP3    H1 2604   3.829   0.484   5.011  0.9260 -0.4196 -0.3777
  880TIP3    H2 2605   3.847   0.591   5.117 -0.5312 -0.3151 -0.2100
  881TIP3   OH2 2606   0.845   5.450   0.101 -0.5310 -0.3050  0.5005
  881TIP3    H1 2607   0.818   5.380   0.160 -0.0173 -0.9313  0.0104
  881TIP3    H2 2608   0.848   5.529   0.156 -0.3989 -0.8062  1.2230
  882TIP3   OH2 2609   3.497   3.248   0.054  0.1241  0.1068  0.0689
  882TIP3    H1 2610   3.409   3.244   0.091 -0.2386  1.4163 -0.6191
  882TIP3    H2 2611   3.517   3.341   0.049  1.9998 -0.1978  1.2260
  883TIP3   OH2 2612   1.117   5.912   4.987 -0.6471  0.0438  0.5905
  883TIP3    H1 2613   1.188   5.848   4.991 -0.8773 -0.2874 -0.3809
  883TIP3    H2 2614   1.049   5.876   5.043 -0.7678 -0.5519  0.0633
  884TIP3   OH2 2615   5.043   3.427   1.432 -0.5247 -0.0193 -0.2066
  884TIP3    H1 2616   4.998   3.357   1.479 -1.2771  0.7804  0.3074
  884TIP3    H2 2617   5.033   3.405   1.340 -2.3484  0.3425 -0.1254
  885TIP3   OH2 2618   3.727   6.183   4.628  0.2390  0.6637 -0.3982
  885TIP3    H1 2619   3.784   6.107   4.637 -1.0291 -0.3686 -0.9237
  885TIP3    H2 2620   3.700   6.203   4.718 -0.6370 -0.4547 -0.4060
  886TIP3   OH2 2621   6.568   3.339   0.818  0.9248 -0.8868 -0.6978
  886TIP3    H1 2622   6.506   3.299   0.758  0.5517  1.0555 -1.6831
  886TIP3    H2 2623   6.516   3.401   0.868  1.6552 -0.9127  0.1126
  887TIP3   OH2 2624   5.103   0.482   4.380  0.0262  0.5799 -0.3092
  887TIP3    H1 2625   5.116   0.425   4.456  0.4224 -0.4985 -1.1466
  887TIP3    H2 2626   5.033   0.542   4.406  2.3560  2.4964  2.1459
  888TIP3   OH2 2627   2.609   4.430   4.557 -0.1189  0.2597  0.0855
  888TIP3    H1 2628   2.549   4.389   4.620  0.5244 -0.0981  0.4771
  888TIP3    H2 2629   2.690   4.380   4.565  0.1855  0.6417 -0.5484
  889TIP3   OH2 2630   4.962   2.082   2.911 -0.1386 -0.3037 -0.1940
  889TIP3    H1 2631   4.896   2.047   2.850  0.0338 -0.2566 -0.4067
  889TIP3    H2 2632   4.989   2.165   2.872 -0.2938 -0.0965  0.1343
  890TIP3   OH2 2633   1.307   2.161   2.101 -0.3257  0.3289 -0.4141
  890TIP3    H1 2634   1.344   2.172   2.014  0.6140 -0.0399 -0.0799
  890TIP3    H2 2635   1.374   2.195   2.160 -0.9656  0.6078  0.1645
  891TIP3   OH2 2636   0.549   5.590   5.861 -0.2431  0.3415  0.4395
  891TIP3    H1 2637   0.627   5.641   5.841 -0.4975  0.1803 -1.0930
  891TIP3    H2 2638   0.504   5.640   5.929  0.0571  1.6174 -0.2669
  892TIP3   OH2 2639   1.336   6.300   0.833  0.2264 -0.1298 -0.6127
  892TIP3    H1 2640   1.325   6.282   0.739  1.9184 -1.0352 -0.6964
  892TIP3    H2 2641   1.349   6.394   0.838  1.5799 -0.2247 -1.5224
  893TIP3   OH2 2642   2.314   4.145   3.035 -0.4377  0.5380 -0.1870
  893TIP3    H1 2643   2.255   4.219   3.019 -0.9057  0.4046  0.8267
  893TIP3    H2 2644   2.315   4.136   3.131  0.3054 -0.2151 -0.2540
  894TIP3   OH2 2645   5.862   3.971   4.869 -0.4120  0.1247  0.0904
  894TIP3    H1 2646   5.908   4.034   4.813 -2.3487  0.8062 -0.8152
  894TIP3    H2 2647   5.928   3.904   4.888  0.4252 -0.0694 -2.8775
  895TIP3   OH2 2648   4.756   5.911   0.376 -0.3565 -0.4360 -0.2454
  895TIP3    H1 2649   4.721   5.848   0.438 -0.1470 -0.8840 -0.5781
  895TIP3    H2 2650   4.681   5.938   0.323 -0.5733  0.0912  0.3172
  896TIP3   OH2 2651   1.244   4.047   5.083  0.7298  0.0066  0.4962
  896TIP3    H1 2652   1.278   4.041   5.172  0.7685 -1.8612  0.4047
  896TIP3    H2 2653   1.157   4.087   5.093  1.2034  0.8874  1.2159
  897TIP3   OH2 2654   4.229   2.758   3.739 -0.5260 -0.4729 -0.3816
  897TIP3    H1 2655   4.161   2.724   3.680  0.4520 -1.2853 -1.0769
  897TIP3    H2 2656   4.198   2.736   3.827 -1.2000 -0.7591 -0.6834
  898TIP3   OH2 2657   0.739   3.991   1.458  0.3659  0.1606  0.1978
  898TIP3    H1 2658   0.786   4.023   1.535 -0.2157  1.1350  0.1702
  898TIP3    H2 2659   0.803   3.938   1.411  0.5657 -0.9644  1.6533
  899TIP3   OH2 2660   0.847   5.539   5.442 -0.3316 -0.0839  0.2734
  899TIP3    H1 2661   0.776   5.599   5.464  0.2873  0.4863  0.7592
  899TIP3    H2 2662   0.867   5.493   5.524 -1.4780 -1.7248 -0.3102
  900TIP3   OH2 2663   1.478   1.937   1.654 -0.2499  0.4034 -0.6617
  900TIP3    H1 2664   1.398   1.982   1.680  0.0959  0.4870  0.2782
  900TIP3    H2 2665   1.449   1.875   1.587 -1.0073  0.8118 -0.7304
  901TIP3   OH2 2666   2.526   3.563   1.895  0.2845  0.5241  0.0540
  901TIP3    H1 2667   2.465   3.559   1.968  0.4960 -0.6627  0.1952
  901TIP3    H2 2668   2.476   3.603   1.824 -0.6522 -0.3667  0.1882
  902TIP3   OH2 2669   5.872   1.713   3.711  0.2167 -0.7745  0.3729
  902TIP3    H1 2670   5.930   1.637   3.708 -1.1149 -1.8159 -0.1851
  902TIP3    H2 2671   5.784   1.676   3.707 -0.4801  0.7941  0.4355
  903TIP3   OH2 2672   3.180   3.130   1.525 -0.6016 -0.8217  0.1776
  903TIP3    H1 2673   3.247   3.145   1.591 -1.1589 -0.1950  0.6109
  903TIP3    H2 2674   3.122   3.064   1.564 -2.3577  1.3259  1.4285
  904TIP3   OH2 2675   2.719   0.607   5.574  0.0638 -0.3610  0.5431
  904TIP3    H1 2676   2.726   0.691   5.619 -1.0101  0.7569 -1.2779
  904TIP3    H2 2677   2.797   0.603   5.518 -0.9455  0.4384 -0.9587
  905TIP3   OH2 2678   4.566   3.564   4.257  0.3205  0.3861  0.2710
  905TIP3    H1 2679   4.533   3.587   4.343 -1.6540  0.3914 -0.4434
  905TIP3    H2 2680   4.510   3.611   4.196 -0.2476 -1.8950 -1.0762
  906TIP3   OH2 2681   0.499   3.008   3.612  0.2748 -0.2013 -0.6676
  906TIP3    H1 2682   0.573   2.975   3.662  1.3730  1.8427 -0.8383
  906TIP3    H2 2683   0.526   3.095   3.583 -2.0419  0.4440 -1.1072
  907TIP3   OH2 2684   2.290   4.304   5.634  0.0809  0.1117  0.1589
  907TIP3    H1 2685   2.287   4.385   5.583 -0.7038 -0.4178 -0.6717
  907TIP3    H2 2686   2.349   4.324   5.706  0.5815  1.1477 -0.5020
  908TIP3   OH2 2687   0.425   6.247   4.866  0.5476  0.4050 -0.5397
  908TIP3    H1 2688   0.373   6.171   4.840  2.0172 -0.1989 -1.8635
  908TIP3    H2 2689   0.368   6.322   4.849 -0.9427 -0.3400  0.8343
  909TIP3   OH2 2690   1.599   6.553   5.032  0.3392  0.0433 -0.2017
  909TIP3    H1 2691   1.619   6.601   4.952  0.2151 -1.3041 -1.0683
  909TIP3    H2 2692   1.661   6.480   5.033 -0.5202 -0.7020  0.2287
  910TIP3   OH2 2693   0.369   0.689   3.412 -0.3909 -0.1357 -0.2439
  910TIP3    H1 2694   0.294   0.739   3.445 -1.3538 -0.4002 -1.9107
  910TIP3    H2 2695   0.402   0.641   3.488 -2.7172 -1.0036  0.2849
  911TIP3   OH2 2696   6.026   6.520   0.846 -0.0147  0.4071 -0.3821
  911TIP3    H1 2697   5.997   6.552   0.761 -1.8651  0.4087  0.2136
  911TIP3    H2 2698   5.967   6.561   0.909 -0.7379 -2.0292  0.6355
  912TIP3   OH2 2699   2.124   3.886   2.408  0.1764  0.3382  0.1571
  912TIP3    H1 2700   2.073   3.908   2.487  0.4911  0.3860  0.3487
  912TIP3    H2 2701   2.131   3.969   2.361 -2.3140 -0.1692 -1.2999
  913TIP3   OH2 2702   0.729   1.778   4.043  0.3946 -0.4800  0.1552
  913TIP3    H1 2703   0.677   1.758   3.965 -0.5954  1.2881  0.3257
  913TIP3    H2 2704   0.809   1.818   4.009  0.7005 -1.1902  0.0034
  914TIP3   OH2 2705   0.633   6.728   3.898  0.0308 -0.0181  0.2419
  914TIP3    H1 2706   0.695   6.690   3.960  0.8344  2.8653  1.4016
  914TIP3    H2 2707   0.655   6.822   3.896 -1.1264  0.3422 -3.0944
  915TIP3   OH2 2708   4.438   1.727   0.805  0.0373 -0.0235  0.4834
  915TIP3    H1 2709   4.511   1.715   0.866  0.7405  0.0462 -0.3349
  915TIP3    H2 2710   4.479   1.738   0.720 -0.9995 -2.3345 -0.3828
  916TIP3   OH2 2711   0.382   0.025   2.431 -0.7103  0.3023 -0.3954
  916TIP3    H1 2712   0.351  -0.065   2.435  0.8367 -0.2183  0.6518
  916TIP3    H2 2713   0.335   0.063   2.357  0.3261 -2.0437 -2.4062
  917TIP3   OH2 2714   1.370   1.771   3.209  0.3132  0.0068  0.0054
  917TIP3    H1 2715   1.400   1.761   3.119  0.9806 -0.6269  0.2914
  917TIP3    H2 2716   1.297   1.710   3.216  0.1603  0.1684 -0.1404
  918TIP3   OH2 2717   0.139   4.867   2.092 -0.3413 -0.5033  0.1645
  918TIP3    H1 2718   0.142   4.850   1.998 -0.9174 -3.9343  0.6522
  918TIP3    H2 2719   0.114   4.784   2.131 -0.9913  1.0292  3.3408
  919TIP3   OH2 2720   2.778   5.020   0.808 -0.1724 -0.4936  0.5069
  919TIP3    H1 2721   2.846   5.015   0.741  0.6293 -2.1365  1.3756
  919TIP3    H2 2722   2.706   5.067   0.766  0.6880 -0.5834 -1.1490
  920TIP3   OH2 2723   0.281   5.195   0.459  0.6255  0.0843 -0.2994
  920TIP3    H1 2724   0.352   5.254   0.433 -0.7498  1.8372 -0.2506
  920TIP3    H2 2725   0.285   5.192   0.555  0.3681  0.5214 -0.2759
  921TIP3   OH2 2726   0.632   0.525   0.292  0.2082 -0.2998  0.2121
  921TIP3    H1 2727   0.574   0.533   0.368  0.2634 -1.1365  0.3515
  921TIP3    H2 2728   0.633   0.431   0.272  0.2890 -0.1016 -0.7524
  922TIP3   OH2 2729   7.160   4.999   1.331 -0.0483  0.4835  0.2344
  922TIP3    H1 2730   7.173   5.093   1.347  0.2874  0.1402  2.2990
  922TIP3    H2 2731   7.139   4.993   1.238  0.0426  2.5912  0.0277
  923TIP3   OH2 2732   0.790   4.268   5.841 -0.0154 -0.0435 -0.3519
  923TIP3    H1 2733   0.845   4.239   5.914 -0.3098  1.0514  0.3432
  923TIP3    H2 2734   0.717   4.313   5.884 -0.2627  0.4979 -1.3209
  924TIP3   OH2 2735   2.688   3.286   5.149 -0.1477  0.8822  0.5330
  924TIP3    H1 2736   2.698   3.377   5.120  2.7981  0.4549 -0.0653
  924TIP3    H2 2737   2.711   3.288   5.242 -0.1923  0.7617  0.5467
  925TIP3   OH2 2738   3.517   0.809   5.008  0.8308 -0.0146 -0.3414
  925TIP3    H1 2739   3.503   0.793   4.915  2.7932  0.1111 -0.6959
  925TIP3    H2 2740   3.431   0.837   5.041  0.3305  0.9809 -2.3287
  926TIP3   OH2 2741   6.884   3.209   0.190  0.1235  0.8469  0.3671
  926TIP3    H1 2742   6.912   3.167   0.270 -0.4890  0.2888  0.2991
  926TIP3    H2 2743   6.863   3.137   0.130 -1.7123  1.1919  0.5153
  927TIP3   OH2 2744   1.682   1.925   3.851  0.0243  0.4234  0.3698
  927TIP3    H1 2745   1.701   2.002   3.796 -2.9740 -0.9193 -2.9014
  927TIP3    H2 2746   1.624   1.959   3.919 -0.6909  1.2395 -0.6033
  928TIP3   OH2 2747   5.893   2.851   1.121 -0.5479  0.4954  0.0782
  928TIP3    H1 2748   5.987   2.860   1.104 -0.3905 -2.4921 -1.2265
  928TIP3    H2 2749   5.887   2.842   1.217  0.9218 -2.3287  0.0003
  929TIP3   OH2 2750   6.188   3.722   3.832  1.0050 -0.6941  0.4152
  929TIP3    H1 2751   6.165   3.777   3.907  1.8057  2.5007 -1.4969
  929TIP3    H2 2752   6.104   3.702   3.790  0.7999  1.1302 -0.1253
  930TIP3   OH2 2753   6.021   5.088   3.003 -0.0115 -0.4036 -0.4850
  930TIP3    H1 2754   6.063   5.162   3.049 -0.4508  0.2073 -1.0461
  930TIP3    H2 2755   6.022   5.114   2.911 -0.0875 -1.1537 -0.7038
  931TIP3   OH2 2756   5.151   2.724   4.932 -0.3900 -0.3286 -0.2406
  931TIP3    H1 2757   5.158   2.640   4.887  1.5243  0.1460 -0.9575
  931TIP3    H2 2758   5.241   2.756   4.937 -0.5728  0.1006  3.1430
  932TIP3   OH2 2759   6.536   1.491   1.270  0.5552  0.4536 -0.0658
  932TIP3    H1 2760   6.612   1.550   1.273  0.9470 -0.0805  0.9355
  932TIP3    H2 2761   6.574   1.403   1.282 -0.1948  0.1535  0.1326
  933TIP3   OH2 2762   5.074   6.212   3.787 -0.3425  0.1372 -0.1703
  933TIP3    H1 2763   5.020   6.287   3.814 -0.9928 -0.6276  0.7121
  933TIP3    H2 2764   5.161   6.249   3.774 -0.6654  1.0580  0.2176
  934TIP3   OH2 2765   1.613   2.410   0.464  0.1470  0.2666  0.1577
  934TIP3    H1 2766   1.614   2.402   0.560  0.5636 -2.2763  0.0273
  934TIP3    H2 2767   1.634   2.321   0.433  2.0009  1.4275 -2.2746
  935TIP3   OH2 2768   6.675   5.910   3.853 -0.2035 -0.2923  0.1125
  935TIP3    H1 2769   6.744   5.955   3.805 -0.2032 -1.8629 -1.4561
  935TIP3    H2 2770   6.716   5.882   3.934  0.8780 -0.7249 -0.5581
  936TIP3   OH2 2771   0.655   6.687   3.230  0.2156 -0.4510 -0.6228
  936TIP3    H1 2772   0.626   6.778   3.241 -0.0684 -0.7831  1.8509
  936TIP3    H2 2773   0.735   6.680   3.282  0.4680 -1.5349 -1.1232
  937TIP3   OH2 2774   2.187   5.905   1.470 -0.3688 -0.0801 -0.2497
  937TIP3    H1 2775   2.158   5.996   1.459 -0.9062 -0.4564 -2.3820
  937TIP3    H2 2776   2.241   5.888   1.392 -1.4861 -2.0172 -0.6452
  938TIP3   OH2 2777   1.812   5.902   3.339  0.7869 -0.2138 -0.1983
  938TIP3    H1 2778   1.889   5.949   3.372  0.6022  0.4948 -0.7370
  938TIP3    H2 2779   1.833   5.809   3.352  1.9384 -0.0590 -0.7521
  939TIP3   OH2 2780   2.256   3.428   4.638  0.9199 -0.1420  0.1115
  939TIP3    H1 2781   2.281   3.402   4.727 -3.0258  0.9523  1.7490
  939TIP3    H2 2782   2.235   3.346   4.594  2.0486 -0.6331  0.4566
  940TIP3   OH2 2783   0.881   4.003   0.169 -0.1442 -0.1521 -0.1512
  940TIP3    H1 2784   0.904   3.912   0.152  0.3217  0.0630 -0.7097
  940TIP3    H2 2785   0.933   4.027   0.246  1.1670  0.1745 -1.0991
  941TIP3   OH2 2786   1.626   4.500   1.098  0.0973  0.0153 -0.2048
  941TIP3    H1 2787   1.556   4.437   1.109  0.9405 -0.8187  0.5644
  941TIP3    H2 2788   1.667   4.507   1.184  0.6202  0.8957 -0.5015
  942TIP3   OH2 2789   1.060   3.470   0.140  0.2444  0.4167 -0.4029
  942TIP3    H1 2790   1.094   3.395   0.188 -1.5969 -0.8977 -1.0389
  942TIP3    H2 2791   1.126   3.486   0.071  1.9246  1.0938  1.2667
  943TIP3   OH2 2792   6.226   3.241   3.853  0.1284  0.3500 -0.1326
  943TIP3    H1 2793   6.217   3.336   3.848  1.7563  0.6794  1.7114
  943TIP3    H2 2794   6.137   3.208   3.862 -0.3269  2.0738  3.1906
  944TIP3   OH2 2795   4.689   1.778   5.631  0.4276  0.2013  0.1911
  944TIP3    H1 2796   4.740   1.855   5.605 -0.5337  0.8266  0.1053
  944TIP3    H2 2797   4.755   1.710   5.646  1.2267  0.6876 -0.9097
  945TIP3   OH2 2798   6.311   2.802   5.043  0.1590 -0.5267  0.1640
  945TIP3    H1 2799   6.332   2.860   5.117  0.5867 -1.8697  1.1295
  945TIP3    H2 2800   6.270   2.726   5.084 -1.4441 -0.4227 -1.1901
  946TIP3   OH2 2801   2.356   3.560   2.112  0.3777 -0.0848 -0.0033
  946TIP3    H1 2802   2.359   3.524   2.200  1.3852 -0.6727 -0.2648
  946TIP3    H2 2803   2.309   3.643   2.122 -1.8733 -1.3450  0.6251
  947TIP3   OH2 2804   6.798   1.485   1.508 -0.0800  0.2322 -0.5723
  947TIP3    H1 2805   6.766   1.558   1.562 -0.7956 -0.3290 -0.2164
  947TIP3    H2 2806   6.837   1.527   1.432  1.2824  1.0676  0.5279
  948TIP3   OH2 2807   2.587   4.849   1.034  0.2262  0.7324 -0.6689
  948TIP3    H1 2808   2.556   4.858   1.124  1.3527  1.5725 -0.3370
  948TIP3    H2 2809   2.682   4.860   1.040  0.1457  2.8027 -2.1938
  949TIP3   OH2 2810   0.886   5.750   4.822 -0.1905  0.0601  0.0995
  949TIP3    H1 2811   0.962   5.708   4.782  0.6875 -1.0674  2.7391
  949TIP3    H2 2812   0.812   5.723   4.768  0.9349 -1.2503 -0.8407
  950TIP3   OH2 2813   4.837   1.493   1.065  0.3200  0.6154 -0.0659
  950TIP3    H1 2814   4.820   1.583   1.035  0.9251  0.6628 -0.2717
  950TIP3    H2 2815   4.786   1.438   1.005 -0.2558  0.8284  0.2169
  951TIP3   OH2 2816   4.040   0.782   2.047  0.1403 -0.2087  0.0769
  951TIP3    H1 2817   4.020   0.717   2.115  0.5812  0.3459  0.7517
  951TIP3    H2 2818   4.024   0.736   1.965 -1.1785 -0.6487  0.5557
  952TIP3   OH2 2819   5.607   4.590   5.504 -0.0481  0.0876  0.5842
  952TIP3    H1 2820   5.601   4.632   5.590  0.3226 -1.2624  1.2876
  952TIP3    H2 2821   5.667   4.646   5.455 -0.5037  1.0496  1.0930
  953TIP3   OH2 2822   1.307   3.023   5.470 -0.2709  0.0968 -0.2731
  953TIP3    H1 2823   1.336   2.933   5.486  1.2821  0.3620 -1.3906
  953TIP3    H2 2824   1.299   3.061   5.558  1.1002 -0.5309  0.1486
  954TIP3   OH2 2825   0.225   4.204   2.122 -0.0935  0.0330  0.0425
  954TIP3    H1 2826   0.304   4.160   2.155  0.0925  0.5800  0.3355
  954TIP3    H2 2827   0.254   4.291   2.097 -0.4538 -0.0278 -0.5909
  955TIP3   OH2 2828   6.748   3.578   5.415 -0.1039 -0.9760 -0.0646
  955TIP3    H1 2829   6.668   3.530   5.436 -0.3055 -1.4200 -1.6976
  955TIP3    H2 2830   6.732   3.667   5.447 -1.3616 -1.0003 -0.5676
  956TIP3   OH2 2831   5.308   2.153   4.204 -0.2220  1.1478  0.0253
  956TIP3    H1 2832   5.273   2.070   4.238  2.2379 -0.6251 -1.4605
  956TIP3    H2 2833   5.383   2.171   4.260  0.9684  0.7807 -1.3968
  957TIP3   OH2 2834   5.620   3.134   1.499 -0.0566  0.0996 -0.2105
  957TIP3    H1 2835   5.541   3.132   1.446  0.6922 -0.0700 -1.3394
  957TIP3    H2 2836   5.611   3.060   1.560 -0.3853 -0.4264 -0.8920
  958TIP3   OH2 2837   5.934   0.053   1.917  0.3926  0.1382  0.0984
  958TIP3    H1 2838   5.962  -0.031   1.955 -1.2009 -0.7292 -0.5776
  958TIP3    H2 2839   6.013   0.107   1.921  1.6422 -1.5664  0.0331
  959TIP3   OH2 2840   0.025   6.653   4.377  0.2007 -0.0211  0.2920
  959TIP3    H1 2841   0.089   6.672   4.446 -1.4042 -0.7275  2.0598
  959TIP3    H2 2842  -0.055   6.631   4.424 -1.1227 -0.0043 -1.8414
  960TIP3   OH2 2843   4.440   5.701   2.697  0.2466  0.0167 -0.2865
  960TIP3    H1 2844   4.419   5.609   2.713 -1.3841  0.5021  0.5585
  960TIP3    H2 2845   4.378   5.727   2.628  0.1773  0.6777  0.0254
  961TIP3   OH2 2846   6.153   0.923   3.127 -0.5915  0.2334 -0.0205
  961TIP3    H1 2847   6.153   0.828   3.135 -0.0100  0.0235 -1.9280
  961TIP3    H2 2848   6.189   0.939   3.039  1.6027  2.2826  1.1368
  962TIP3   OH2 2849   6.080   6.020   0.939  0.6010  0.0039  0.4619
  962TIP3    H1 2850   6.088   6.114   0.925 -0.1343  0.3893  2.3707
  962TIP3    H2 2851   6.152   5.999   0.998  0.3776 -0.5132  0.5530
  963TIP3   OH2 2852   1.631   4.530   2.388  0.8152 -0.2081  0.5255
  963TIP3    H1 2853   1.604   4.597   2.325 -0.3593 -0.0309  1.1961
  963TIP3    H2 2854   1.583   4.551   2.468  0.2233 -1.9735  0.6887
  964TIP3   OH2 2855   2.499   0.290   2.922 -0.0241  0.3336  0.3188
  964TIP3    H1 2856   2.548   0.303   3.003  0.0505 -0.4690  0.4144
  964TIP3    H2 2857   2.538   0.352   2.860  1.4549 -0.5969  0.2568
  965TIP3   OH2 2858   2.051   4.881   1.844 -0.6164 -0.0818 -0.1412
  965TIP3    H1 2859   2.072   4.850   1.756 -0.2071 -0.2847  0.0259
  965TIP3    H2 2860   1.994   4.814   1.880 -1.3925  0.3630 -0.5167
  966TIP3   OH2 2861   6.574   4.249   4.517  0.4270  0.2911 -0.0717
  966TIP3    H1 2862   6.594   4.246   4.424  1.9200  0.9000  0.2061
  966TIP3    H2 2863   6.654   4.220   4.560 -1.2399 -3.3396  0.9929
  967TIP3   OH2 2864   2.892   2.325   1.210  0.0760 -0.0246  0.1300
  967TIP3    H1 2865   2.931   2.354   1.128  1.1783 -2.4007 -0.2948
  967TIP3    H2 2866   2.916   2.392   1.274 -1.1677  2.1040 -1.5009
  968TIP3   OH2 2867   2.159   4.206   4.220 -0.1054 -0.4816 -0.5617
  968TIP3    H1 2868   2.231   4.263   4.190  0.7662 -1.3322 -0.1502
  968TIP3    H2 2869   2.134   4.157   4.142  2.1052 -2.6351 -0.0331
  969TIP3   OH2 2870   5.863   1.884   4.018  0.1499  0.4710  0.5079
  969TIP3    H1 2871   5.848   1.937   3.940 -0.1133  0.8982  0.8413
  969TIP3    H2 2872   5.808   1.924   4.085 -0.2980 -0.4223  0.6891
  970TIP3   OH2 2873   2.112   3.958   2.999 -0.3407  0.1301  0.0263
  970TIP3    H1 2874   2.047   3.991   3.062 -0.5623 -2.6573  1.4231
  970TIP3    H2 2875   2.176   4.029   2.991 -2.4296  2.1736  0.1754
  971TIP3   OH2 2876   2.405   5.955   4.772 -0.5770  0.2676  0.7403
  971TIP3    H1 2877   2.404   5.922   4.682 -1.9975  0.4653  0.6520
  971TIP3    H2 2878   2.478   6.017   4.775 -0.4458  0.1747 -0.2375
  972TIP3   OH2 2879   0.789   3.628   4.977 -0.0513 -0.6351 -0.2098
  972TIP3    H1 2880   0.699   3.604   4.956 -0.0667  0.1832 -1.1328
  972TIP3    H2 2881   0.839   3.547   4.967 -0.4879 -0.8195 -0.8842
  973TIP3   OH2 2882   3.917   3.853   0.047 -0.1664  0.0436  0.2751
  973TIP3    H1 2883   3.856   3.901  -0.008 -0.8480 -0.7774  0.3003
  973TIP3    H2 2884   4.004   3.879   0.016 -0.4197  2.9418  1.6628
  974TIP3   OH2 2885   4.118   2.029   0.165 -0.0446 -0.0282 -0.1777
  974TIP3    H1 2886   4.152   2.109   0.205 -0.1906 -0.7264  1.4397
  974TIP3    H2 2887   4.194   1.969   0.165 -0.4748 -0.6043  0.7086
  975TIP3   OH2 2888   5.715   2.747   4.801 -0.3835 -0.0654 -0.0289
  975TIP3    H1 2889   5.642   2.691   4.774 -0.3469 -0.4045  0.5514
  975TIP3    H2 2890   5.771   2.689   4.853  0.9258 -0.1244 -1.4602
  976TIP3   OH2 2891   6.554   4.540   4.469 -0.1193  0.3363 -0.4792
  976TIP3    H1 2892   6.517   4.462   4.509 -0.8760  0.7639 -0.3250
  976TIP3    H2 2893   6.544   4.527   4.375 -0.1891  0.2229 -0.4555
  977TIP3   OH2 2894   6.458   0.124   3.182 -0.0655 -0.0136 -0.4341
  977TIP3    H1 2895   6.490   0.209   3.150 -1.7339  0.6528 -0.4515
  977TIP3    H2 2896   6.432   0.077   3.103 -0.2640 -0.0596 -0.3415
  978TIP3   OH2 2897   1.437   1.204   1.139  0.4584  0.1052  0.3970
  978TIP3    H1 2898   1.402   1.132   1.191 -1.8023 -0.2369 -1.4109
  978TIP3    H2 2899   1.469   1.162   1.059  2.0610  0.8054  0.6497
  979TIP3   OH2 2900   6.497   5.872   5.156 -0.2954  0.1994  0.2718
  979TIP3    H1 2901   6.585   5.894   5.124 -0.4569  0.9088  0.2818
  979TIP3    H2 2902   6.505   5.783   5.188  0.6642  0.5612  1.1186
  980TIP3   OH2 2903   6.008   1.645   2.700 -0.2364  0.5104  0.2934
  980TIP3    H1 2904   6.059   1.564   2.691  0.7002  1.1108  0.0650
  980TIP3    H2 2905   6.006   1.661   2.795 -1.6008 -0.4903  0.4691
  981TIP3   OH2 2906   2.950   3.835   3.063 -0.1333  0.0314 -0.0207
  981TIP3    H1 2907   2.889   3.826   3.136  0.7829 -1.7035  0.5873
  981TIP3    H2 2908   2.924   3.766   3.001 -0.0237  0.5791 -0.6924
  982TIP3   OH2 2909   7.158   1.619   3.682  0.7460 -0.1889 -0.1456
  982TIP3    H1 2910   7.075   1.577   3.704  0.4058  0.6555  0.2230
  982TIP3    H2 2911   7.141   1.712   3.691  1.1840  0.1158 -2.0174
  983TIP3   OH2 2912   4.741   0.824   5.522  0.1082 -0.0432 -0.2942
  983TIP3    H1 2913   4.809   0.879   5.562 -0.3197 -1.2966  2.3603
  983TIP3    H2 2914   4.781   0.738   5.514 -0.7535 -0.4942  0.1145
  984TIP3   OH2 2915   2.382   0.524   2.526 -0.0076  0.1539 -0.5927
  984TIP3    H1 2916   2.383   0.619   2.537 -0.7782  0.1126 -0.0877
  984TIP3    H2 2917   2.357   0.511   2.435  0.3643  0.4352 -0.7386
  985TIP3   OH2 2918   6.525   1.650   2.111  0.2947  0.3937 -0.1316
  985TIP3    H1 2919   6.563   1.622   2.194  3.9931  0.1286 -1.7087
  985TIP3    H2 2920   6.509   1.743   2.121  0.7418  0.3711  0.8719
  986TIP3   OH2 2921   1.617   6.012   1.178  0.4876  0.1409 -0.7250
  986TIP3    H1 2922   1.594   6.031   1.087 -1.0392 -0.6487 -0.5183
  986TIP3    H2 2923   1.700   5.965   1.172  1.2222  1.4743 -1.5960
  987TIP3   OH2 2924   5.572   2.120   2.228 -0.0124  0.8705  0.0257
  987TIP3    H1 2925   5.497   2.065   2.204 -0.3320  0.0586  2.5700
  987TIP3    H2 2926   5.535   2.208   2.238 -0.2807  0.7986 -0.3101
  988TIP3   OH2 2927   6.771   2.066   3.304  1.1728 -0.3117  0.3009
  988TIP3    H1 2928   6.765   2.077   3.209 -0.7278 -1.1897  0.2646
  988TIP3    H2 2929   6.861   2.088   3.326  1.4146  0.7608 -1.5878
  989TIP3   OH2 2930   1.394   0.630   2.698 -0.1418  0.2835 -0.0768
  989TIP3    H1 2931   1.333   0.686   2.748 -1.6237 -1.1755 -0.1628
  989TIP3    H2 2932   1.410   0.678   2.617  0.9819  1.9251  1.0593
  990TIP3   OH2 2933   4.532   5.759   4.025  0.2652 -0.1961 -0.3292
  990TIP3    H1 2934   4.579   5.735   3.946 -0.3557  0.2342 -0.8363
  990TIP3    H2 2935   4.536   5.854   4.028 -0.6476 -0.1406 -0.4424
  991TIP3   OH2 2936   3.745   2.690   2.738 -0.1626 -0.3372 -0.8613
  991TIP3    H1 2937   3.780   2.601   2.737  0.8640  0.0218  0.2565
  991TIP3    H2 2938   3.666   2.685   2.792 -0.6575 -0.7435 -1.6116
  992TIP3   OH2 2939   3.373   3.909   5.433 -0.1053 -0.3095  0.1174
  992TIP3    H1 2940   3.324   3.944   5.507  0.4845 -1.3207  1.0009
  992TIP3    H2 2941   3.462   3.941   5.446  0.2662 -1.4496  0.5105
  993TIP3   OH2 2942   2.137   6.703   0.067  0.1047 -0.2442  0.1116
  993TIP3    H1 2943   2.042   6.712   0.080 -0.0618 -0.3756 -0.9071
  993TIP3    H2 2944   2.145   6.671  -0.023  1.1539  0.5269 -0.0796
  994TIP3   OH2 2945   5.856   4.926   1.922 -0.2765 -0.2263  0.9913
  994TIP3    H1 2946   5.762   4.938   1.922 -0.2315  0.2300 -0.0468
  994TIP3    H2 2947   5.869   4.835   1.948 -1.0124 -0.3663  0.8735
  995TIP3   OH2 2948   1.102   0.837   0.840 -0.1348 -0.1102  0.4349
  995TIP3    H1 2949   1.147   0.766   0.794 -0.0864 -0.0976  0.4623
  995TIP3    H2 2950   1.143   0.917   0.809 -0.6522 -0.0486 -0.1081
  996TIP3   OH2 2951   1.482   0.733   4.671  0.1780 -0.2363  0.4138
  996TIP3    H1 2952   1.497   0.639   4.667 -0.2371 -0.2470 -2.1114
  996TIP3    H2 2953   1.394   0.745   4.637  0.3947  1.1089  0.2633
  997TIP3   OH2 2954   7.045   3.163   1.593 -0.1053 -0.0725 -0.1786
  997TIP3    H1 2955   7.000   3.164   1.509  0.1973  1.7054 -0.3556
  997TIP3    H2 2956   7.099   3.242   1.592  1.4740 -1.0965  0.8568
  998TIP3   OH2 2957   6.721   0.091   2.039  0.2080 -0.3120  0.7149
  998TIP3    H1 2958   6.754   0.071   2.127  1.9092  1.5689  0.5619
  998TIP3    H2 2959   6.799   0.094   1.984 -0.8577 -1.7202 -0.9616
  999TIP3   OH2 2960   2.895   2.931   0.155  0.5033  0.7490 -0.1594
  999TIP3    H1 2961   2.988   2.943   0.176  0.6234  2.2333 -1.3320
  999TIP3    H2 2962   2.849   2.972   0.229  0.7370 -0.2818  0.5893
 1000TIP3   OH2 2963   4.520   1.639   2.393 -0.1471 -0.2667  0.2679
 1000TIP3    H1 2964   4.466   1.678   2.325 -1.7953 -0.9688  1.1189
 1000TIP3    H2 2965   4.483   1.551   2.405  1.2024 -0.7776  0.8816
 1001TIP3   OH2 2966   2.207   0.986   3.964  0.0550  0.2429 -0.6024
 1001TIP3    H1 2967   2.245   0.960   3.880 -1.0079  0.3064 -1.1102
 1001TIP3    H2 2968   2.269   1.051   3.999  0.3287  0.4727 -1.4883
 1002TIP3   OH2 2969   3.941   3.808   5.220 -1.0051  0.1015  0.1327
 1002TIP3    H1 2970   3.906   3.871   5.158  0.6240  1.6821  0.7386
 1002TIP3    H2 2971   4.014   3.767   5.174  0.7238  1.8535  1.1771
 1003TIP3   OH2 2972   3.500   1.675   0.602  0.4913  0.2747  0.0515
 1003TIP3    H1 2973   3.453   1.592   0.598  1.2946 -0.1738 -0.3404
 1003TIP3    H2 2974   3.442   1.738   0.560 -1.5436  0.6440  3.0355
 1004TIP3   OH2 2975   0.831   6.434   2.477 -0.3222  0.1525 -0.1402
 1004TIP3    H1 2976   0.877   6.393   2.404  0.3993 -0.7230  0.7822
 1004TIP3    H2 2977   0.798   6.516   2.441  0.1125 -0.2092 -1.4177
 1005TIP3   OH2 2978   0.140   3.035   4.149  0.1036 -0.2119  0.8501
 1005TIP3    H1 2979   0.225   3.052   4.110 -0.5559  0.3332 -0.4316
 1005TIP3    H2 2980   0.156   3.031   4.243  1.2167  2.1084  0.8269
 1006TIP3   OH2 2981   1.529   0.054   5.126 -0.0742 -0.1794  0.0101
 1006TIP3    H1 2982   1.471   0.070   5.052  0.0293  1.3778  0.2321
 1006TIP3    H2 2983   1.588  -0.015   5.096 -0.0841  0.3753 -1.3334
 1007TIP3   OH2 2984   6.890   6.090   4.460 -0.2007 -0.1030 -0.2108
 1007TIP3    H1 2985   6.926   6.111   4.546 -0.5822  0.1827 -0.1182
 1007TIP3    H2 2986   6.852   6.003   4.470  1.0413 -0.7058 -0.4895
 1008TIP3   OH2 2987   4.544   2.045   2.040  0.1853  0.6142  0.0191
 1008TIP3    H1 2988   4.616   2.106   2.058 -0.3705  1.8396 -1.6633
 1008TIP3    H2 2989   4.465   2.098   2.053 -0.3111  0.2471 -1.3679
 1009TIP3   OH2 2990   1.149   5.658   2.117 -0.4728  0.2225  1.1624
 1009TIP3    H1 2991   1.220   5.599   2.094 -1.0193  0.5166 -1.5954
 1009TIP3    H2 2992   1.082   5.602   2.157  0.7496 -0.2338  2.6575
 1010TIP3   OH2 2993   5.612   1.464   5.331  0.2699 -0.5443  0.3142
 1010TIP3    H1 2994   5.597   1.516   5.410  0.1690  0.4934 -0.3612
 1010TIP3    H2 2995   5.527   1.424   5.313  0.4076 -1.1457  0.9694
 1011TIP3   OH2 2996   4.252   1.096   2.710  0.5696  0.4240  0.2121
 1011TIP3    H1 2997   4.290   1.139   2.634 -0.0458 -1.2743 -1.1305
 1011TIP3    H2 2998   4.286   1.007   2.707 -0.0129  0.1253  1.5451
 1012TIP3   OH2 2999   1.388   0.321   1.085 -0.1028 -0.3478 -0.8829
 1012TIP3    H1 3000   1.346   0.379   1.149 -0.0713 -1.6587  0.3712
 1012TIP3    H2 3001   1.319   0.262   1.056 -0.2101  0.4801 -2.3991
 1013TIP3   OH2 3002   2.333   1.028   2.004  0.5049  0.2229 -0.2876
 1013TIP3    H1 3003   2.243   0.997   2.012  0.1008  0.9454 -1.6468
 1013TIP3    H2 3004   2.386   0.955   2.033 -0.5289  0.1108  1.4491
 1014TIP3   OH2 3005   7.172   6.349   0.411  0.1827 -0.4695 -0.5377
 1014TIP3    H1 3006   7.121   6.306   0.343  0.5100  1.4110 -2.0946
 1014TIP3    H2 3007   7.246   6.388   0.364  0.4282  0.9065  0.8773
 1015TIP3   OH2 3008   5.417   4.340   0.839  0.1123 -0.1117  0.2628
 1015TIP3    H1 3009   5.353   4.370   0.903 -0.8286  2.7886 -1.8327
 1015TIP3    H2 3010   5.374   4.352   0.755  2.0925 -1.6789 -1.0582
 1016TIP3   OH2 3011   4.159   2.118   3.731  0.4667 -0.0784 -0.1175
 1016TIP3    H1 3012   4.233   2.103   3.672 -0.5979  0.6982 -1.7212
 1016TIP3    H2 3013   4.089   2.149   3.674  0.0178  2.8945  1.7894
 1017TIP3   OH2 3014   1.115   1.887   3.585 -0.5926  0.4563  0.4807
 1017TIP3    H1 3015   1.105   1.824   3.513 -0.1280  1.7075 -0.7385
 1017TIP3    H2 3016   1.207   1.882   3.609 -0.6089  0.4876  0.5501
 1018TIP3   OH2 3017   2.289   5.941   1.956 -0.1739  0.2411 -0.1582
 1018TIP3    H1 3018   2.193   5.947   1.962 -0.1265  3.0552 -0.8606
 1018TIP3    H2 3019   2.306   5.850   1.935 -2.5846 -0.7480  1.6750
 1019TIP3   OH2 3020   0.442   2.177   2.286 -0.3135 -1.2585  0.2546
 1019TIP3    H1 3021   0.408   2.152   2.200  2.7310  0.4401 -1.5972
 1019TIP3    H2 3022   0.537   2.170   2.277  0.1786  0.7409  2.9015
 1020TIP3   OH2 3023   5.731   3.108   1.242  0.4478 -0.4083  0.0379
 1020TIP3    H1 3024   5.825   3.123   1.242  0.4141 -0.0046  1.3941
 1020TIP3    H2 3025   5.706   3.115   1.335 -1.0406  0.3977 -0.3913
 1021TIP3   OH2 3026   4.599   3.314   1.985 -0.1536  0.0386  0.1178
 1021TIP3    H1 3027   4.614   3.408   1.971 -2.9199  0.3681 -1.3898
 1021TIP3    H2 3028   4.604   3.275   1.897 -0.3758 -0.9895  0.5460
 1022TIP3   OH2 3029   4.475   5.087   2.626 -0.1262 -0.0053  0.5159
 1022TIP3    H1 3030   4.563   5.094   2.663 -0.0531  2.1007  0.0560
 1022TIP3    H2 3031   4.487   5.100   2.532 -1.0254  1.4846  0.5793
 1023TIP3   OH2 3032   6.686   4.087   1.688  0.3797  0.0455 -0.0154
 1023TIP3    H1 3033   6.645   4.023   1.630  0.9236 -0.8240  0.5301
 1023TIP3    H2 3034   6.780   4.069   1.680  0.8536  2.9579 -2.3734
 1024TIP3   OH2 3035   2.870   4.809   5.332  0.6046  0.2380  0.6175
 1024TIP3    H1 3036   2.920   4.746   5.384 -0.7791 -2.3696 -0.9792
 1024TIP3    H2 3037   2.797   4.758   5.297 -1.8804  3.2678  0.9169
 1025TIP3   OH2 3038   1.003   5.012   2.422 -0.8038  0.6114 -0.5727
 1025TIP3    H1 3039   0.974   4.931   2.465  0.6119  0.3776 -0.0070
 1025TIP3    H2 3040   0.936   5.029   2.356 -1.4823 -0.6539 -0.2456
 1026TIP3   OH2 3041   5.268   1.369   3.584  0.1300 -1.0509  0.3440
 1026TIP3    H1 3042   5.235   1.287   3.550  0.3426 -0.1859 -2.1887
 1026TIP3    H2 3043   5.330   1.344   3.653 -0.3257 -2.9517  0.1023
 1027TIP3   OH2 3044   4.755   4.969   5.694 -0.1980  0.1320 -0.3601
 1027TIP3    H1 3045   4.741   4.883   5.655 -0.2431  0.6805 -1.6126
 1027TIP3    H2 3046   4.848   4.970   5.716 -0.5191 -0.8310  1.2398
 1028TIP3   OH2 3047   0.558   5.387   1.852 -0.3081  0.4296 -0.3977
 1028TIP3    H1 3048   0.495   5.428   1.793 -2.0372 -0.1534  0.9589
 1028TIP3    H2 3049   0.543   5.293   1.843 -0.4814  0.3221  0.8150
 1029TIP3   OH2 3050   6.306   1.802   1.286 -0.6123  0.0578  0.4023
 1029TIP3    H1 3051   6.290   1.710   1.304 -1.5715 -0.0787 -1.0107
 1029TIP3    H2 3052   6.259   1.819   1.204  1.6649  1.1543 -0.7693
 1030TIP3   OH2 3053   3.310   1.925   1.157 -0.8609 -0.4266  0.1864
 1030TIP3    H1 3054   3.275   1.879   1.233 -0.1149  1.2397  1.6010
 1030TIP3    H2 3055   3.390   1.967   1.189  0.5572 -1.2494 -2.0366
 1031TIP3   OH2 3056   3.416   2.897   2.334 -0.3615  0.4685 -0.0805
 1031TIP3    H1 3057   3.447   2.854   2.413 -0.5854  0.2506 -0.1088
 1031TIP3    H2 3058   3.363   2.831   2.290 -0.9133  0.8435 -0.0005
 1032TIP3   OH2 3059   3.507   1.179   5.060  0.4271 -0.1231  0.5591
 1032TIP3    H1 3060   3.487   1.130   4.980 -0.2009  1.4000 -0.2518
 1032TIP3    H2 3061   3.494   1.115   5.130 -1.3334 -0.8923 -0.3801
 1033TIP3   OH2 3062   2.940   3.590   2.873  0.0930 -0.4529 -0.3133
 1033TIP3    H1 3063   2.873   3.525   2.894 -0.1671 -0.3300 -0.7419
 1033TIP3    H2 3064   3.014   3.567   2.929  1.0279 -2.8093 -2.3258
 1034TIP3   OH2 3065   5.195   1.717   1.396 -0.5496 -0.1577 -0.0123
 1034TIP3    H1 3066   5.205   1.625   1.369 -1.7049 -0.6619  1.1627
 1034TIP3    H2 3067   5.180   1.764   1.313 -0.9165 -1.1850 -0.5560
 1035TIP3   OH2 3068   4.886   2.446   0.118  0.8266  0.0184 -0.1576
 1035TIP3    H1 3069   4.943   2.371   0.134  0.7695 -0.3484 -1.5257
 1035TIP3    H2 3070   4.939   2.522   0.142  0.7195 -0.4600  1.6839
 1036TIP3   OH2 3071   2.009   5.703   3.892 -0.1146  0.2039 -0.3081
 1036TIP3    H1 3072   1.976   5.677   3.807 -0.5170  0.5889 -0.2723
 1036TIP3    H2 3073   1.935   5.746   3.935  0.7350  2.1486 -0.6910
 1037TIP3   OH2 3074   7.015   0.597   1.161  0.2562 -0.0444  0.1264
 1037TIP3    H1 3075   7.013   0.507   1.191 -2.1509 -0.5631 -1.3450
 1037TIP3    H2 3076   7.088   0.601   1.099  1.9947 -0.2467  2.0592
 1038TIP3   OH2 3077   1.227   5.359   4.291  0.0985 -0.1568  0.1940
 1038TIP3    H1 3078   1.136   5.355   4.262 -0.1269  1.2867  0.6318
 1038TIP3    H2 3079   1.273   5.295   4.237 -0.7764  0.6425 -1.5492
 1039TIP3   OH2 3080   1.054   6.210   1.683  0.8747 -0.4057  0.3389
 1039TIP3    H1 3081   1.040   6.228   1.590 -2.0292 -1.4237  0.4688
 1039TIP3    H2 3082   1.096   6.124   1.684 -1.8352 -1.8456 -0.1046
 1040TIP3   OH2 3083   3.406   5.931   5.168 -0.0488 -0.6170  0.2205
 1040TIP3    H1 3084   3.311   5.945   5.178 -0.4712 -2.1449 -1.2091
 1040TIP3    H2 3085   3.446   6.007   5.210 -1.9330  0.3867  0.3064
 1041TIP3   OH2 3086   5.814   0.520   2.889 -0.0407 -0.0190  0.5108
 1041TIP3    H1 3087   5.727   0.544   2.857  0.4807  2.8553  0.9909
 1041TIP3    H2 3088   5.874   0.552   2.821  0.6989 -1.6515  0.3516
 1042TIP3   OH2 3089   0.943   1.671   4.774 -0.0079 -0.4093 -0.3431
 1042TIP3    H1 3090   1.022   1.711   4.811 -0.7851  0.0891  0.8347
 1042TIP3    H2 3091   0.950   1.688   4.680  0.7050  0.6656 -0.1138
 1043TIP3   OH2 3092   1.289   6.499   2.562  0.4245  0.1795  0.4448
 1043TIP3    H1 3093   1.217   6.463   2.613  2.0918 -0.9146  2.1574
 1043TIP3    H2 3094   1.261   6.490   2.470 -0.1810 -3.5348  0.8449
 1044TIP3   OH2 3095   5.551   1.125   5.186  0.2994  0.0576 -0.3718
 1044TIP3    H1 3096   5.568   1.188   5.257  0.8480 -0.7703  0.2622
 1044TIP3    H2 3097   5.458   1.104   5.194  1.0649 -3.1834  2.9114
 1045TIP3   OH2 3098   3.333   3.015   0.504 -0.2462  0.3462  0.0243
 1045TIP3    H1 3099   3.297   2.926   0.510  1.0643 -0.3481 -1.5114
 1045TIP3    H2 3100   3.424   3.002   0.477  0.0681  2.1611  0.0902
 1046TIP3   OH2 3101   0.819   4.838   4.282  0.4798 -0.3785  0.1882
 1046TIP3    H1 3102   0.831   4.856   4.375  0.2117 -0.6679  0.2838
 1046TIP3    H2 3103   0.787   4.921   4.246  0.6205 -0.2546  0.3464
 1047TIP3   OH2 3104   5.766   2.435   4.306  0.6915  0.0893 -0.0310
 1047TIP3    H1 3105   5.850   2.410   4.345 -0.9587 -0.9293  3.2162
 1047TIP3    H2 3106   5.742   2.359   4.252  1.1072 -0.3299  0.3545
 1048TIP3   OH2 3107   4.716   6.334   3.198 -0.6247  0.0426 -0.8898
 1048TIP3    H1 3108   4.660   6.411   3.201 -1.9888 -0.9071 -0.9431
 1048TIP3    H2 3109   4.786   6.353   3.260 -2.4223  0.2301  1.2282
 1049TIP3   OH2 3110   4.270   4.217   0.649 -0.0952  0.2808  0.0174
 1049TIP3    H1 3111   4.225   4.268   0.716  0.5052  0.2990  0.4175
 1049TIP3    H2 3112   4.200   4.174   0.600 -0.5235 -1.3854  1.9426
 1050TIP3   OH2 3113   0.121   1.803   5.237 -0.1480 -0.2503  0.5402
 1050TIP3    H1 3114   0.110   1.859   5.313 -1.4724 -1.4546  1.2830
 1050TIP3    H2 3115   0.034   1.801   5.196  0.5930  0.5660 -1.1493
 1051TIP3   OH2 3116   4.095   6.104   2.899  0.8369  0.0423 -0.4949
 1051TIP3    H1 3117   4.104   6.125   2.992 -3.9097 -0.2465  0.2843
 1051TIP3    H2 3118   4.089   6.009   2.897  0.1240  0.0863 -0.9206
 1052TIP3   OH2 3119   1.834   0.159   5.125  0.2425  0.5663  0.5711
 1052TIP3    H1 3120   1.803   0.235   5.076  0.4509  0.8962  0.9477
 1052TIP3    H2 3121   1.769   0.090   5.107 -0.2639  1.0069  0.6951
 1053TIP3   OH2 3122   6.817   3.735   5.128  0.0536 -0.4297 -0.2786
 1053TIP3    H1 3123   6.721   3.731   5.132  0.0365 -0.3845 -0.6439
 1053TIP3    H2 3124   6.846   3.695   5.210 -0.2657 -1.3675 -0.6046
 1054TIP3   OH2 3125   4.481   4.428   3.673 -0.2496  0.0447  0.6335
 1054TIP3    H1 3126   4.544   4.490   3.636 -0.2669 -0.2934  0.0328
 1054TIP3    H2 3127   4.528   4.388   3.747  0.9091 -1.4719 -0.8390
 1055TIP3   OH2 3128   6.593   4.730   2.172  0.3940 -0.3387  0.0073
 1055TIP3    H1 3129   6.582   4.663   2.240  2.9208 -2.4042 -1.4497
 1055TIP3    H2 3130   6.543   4.696   2.097  0.9172 -0.1360 -0.4422
 1056TIP3   OH2 3131   2.688   1.102   1.938 -0.4783  0.4730 -0.1957
 1056TIP3    H1 3132   2.751   1.109   1.866  0.1054 -0.7996  0.1635
 1056TIP3    H2 3133   2.723   1.033   1.994 -2.5228 -0.7763 -0.3343
 1057TIP3   OH2 3134   3.667   1.825   1.226  0.1002 -0.0437  0.1529
 1057TIP3    H1 3135   3.685   1.918   1.209 -1.0879 -0.1126 -1.7544
 1057TIP3    H2 3136   3.675   1.783   1.140  0.0993 -1.6280  0.8955
 1058TIP3   OH2 3137   1.726   2.827   0.487  0.1825 -0.2556 -0.7571
 1058TIP3    H1 3138   1.812   2.867   0.475 -0.5577  1.2707 -1.2993
 1058TIP3    H2 3139   1.726   2.752   0.428  1.3826 -0.7030 -0.2114
 1059TIP3   OH2 3140   1.351   3.162   5.025 -0.2636 -0.4506  0.2787
 1059TIP3    H1 3141   1.256   3.162   5.009 -0.2735 -0.9212  0.3163
 1059TIP3    H2 3142   1.372   3.254   5.042 -1.0837 -0.5792  2.3706
 1060TIP3   OH2 3143   7.138   1.034   5.891  0.6541  0.6107  1.2774
 1060TIP3    H1 3144   7.097   1.001   5.811  1.6828 -1.4046  1.5152
 1060TIP3    H2 3145   7.139   1.129   5.880  0.1341  0.4286 -0.7751
 1061TIP3   OH2 3146   7.041   2.658   3.167 -0.6606  0.5857 -0.0711
 1061TIP3    H1 3147   7.084   2.582   3.127 -0.0711  0.0481  1.4819
 1061TIP3    H2 3148   7.113   2.708   3.206 -1.2930  0.1124  1.8499
 1062TIP3   OH2 3149   1.320   2.105   5.636 -0.6692 -0.1781 -0.3206
 1062TIP3    H1 3150   1.313   2.012   5.658  0.9197 -0.4903 -0.9959
 1062TIP3    H2 3151   1.263   2.116   5.560  0.0565 -0.9003 -0.9934
 1063TIP3   OH2 3152   4.675   0.469   0.224 -1.0352 -0.0672  0.0802
 1063TIP3    H1 3153   4.636   0.411   0.289 -0.4512 -0.0889  0.4216
 1063TIP3    H2 3154   4.764   0.437   0.213  0.1845  2.2361  2.1930
 1064TIP3   OH2 3155   5.421   6.593   1.290 -0.1548  0.1349 -0.1696
 1064TIP3    H1 3156   5.447   6.640   1.211  1.6724 -0.6731 -0.0936
 1064TIP3    H2 3157   5.453   6.647   1.362 -1.2567  0.5518  0.0265
 1065TIP3   OH2 3158   0.522   4.256   3.989 -0.2266  0.5566  0.0193
 1065TIP3    H1 3159   0.608   4.214   3.987  0.6279  2.2426  0.1594
 1065TIP3    H2 3160   0.539   4.345   4.019 -1.7803  1.4658 -1.5865
 1066TIP3   OH2 3161   3.977   3.793   5.738 -0.1162  0.3373 -0.5542
 1066TIP3    H1 3162   3.987   3.843   5.657 -0.5754  1.4115  0.0259
 1066TIP3    H2 3163   3.922   3.719   5.713  1.9640 -0.8850 -1.8135
 1067TIP3   OH2 3164   1.906   4.170   0.889  0.1940  0.0123  0.3369
 1067TIP3    H1 3165   1.951   4.133   0.965 -0.2120 -2.4138 -0.4941
 1067TIP3    H2 3166   1.976   4.211   0.838  0.6396  0.6819  1.4723
 1068TIP3   OH2 3167   1.472   5.999   5.472 -0.2573 -0.0288 -0.1258
 1068TIP3    H1 3168   1.390   6.039   5.443  0.1744 -0.1315 -1.5700
 1068TIP3    H2 3169   1.524   6.072   5.507  0.0125  0.4927 -1.5489
 1069TIP3   OH2 3170   6.706   1.872   0.134 -0.4232  0.3324  0.3670
 1069TIP3    H1 3171   6.618   1.863   0.100 -0.7683  1.3380  0.9606
 1069TIP3    H2 3172   6.699   1.847   0.226  0.1602 -0.7199  0.1453
 1070TIP3   OH2 3173   3.705   0.343   5.250 -0.0737  0.0311  0.3800
 1070TIP3    H1 3174   3.618   0.355   5.213  0.0208 -0.4140  0.0028
 1070TIP3    H2 3175   3.735   0.431   5.271 -0.8634  0.1441  1.0922
 1071TIP3   OH2 3176   4.187   4.683   2.024  0.4473  0.2348 -0.0233
 1071TIP3    H1 3177   4.128   4.610   2.003  0.0654  0.7004 -0.5976
 1071TIP3    H2 3178   4.181   4.692   2.119  0.2094 -0.2401  0.0097
 1072TIP3   OH2 3179   1.020   5.264   3.463 -0.1496 -0.2248  0.2929
 1072TIP3    H1 3180   1.086   5.319   3.422  0.9120 -1.2053  0.6431
 1072TIP3    H2 3181   0.960   5.241   3.392  0.6217 -0.3945 -0.3061
 1073TIP3   OH2 3182   1.636   1.884   0.343  0.4687  0.3023 -0.2918
 1073TIP3    H1 3183   1.571   1.857   0.278  1.0987  1.1677 -1.3179
 1073TIP3    H2 3184   1.705   1.818   0.336  1.9320  1.9292 -2.6835
 1074TIP3   OH2 3185   1.578   0.633   5.459 -0.0795  0.1210  0.1581
 1074TIP3    H1 3186   1.608   0.687   5.533 -0.4048 -0.8935  1.0582
 1074TIP3    H2 3187   1.490   0.605   5.485  0.3758 -1.4488  0.0570
 1075TIP3   OH2 3188   5.016   4.053   3.438 -0.2716 -0.0401  0.3798
 1075TIP3    H1 3189   5.012   3.996   3.362 -0.7683 -0.1744  0.5027
 1075TIP3    H2 3190   5.045   3.996   3.510  1.3394  0.3378  0.0601
 1076TIP3   OH2 3191   6.740   0.226   1.312  0.4699  0.2398  0.1499
 1076TIP3    H1 3192   6.734   0.153   1.249 -1.1697  0.3593  0.1269
 1076TIP3    H2 3193   6.649   0.248   1.331  0.9464  2.0687  0.4305
 1077TIP3   OH2 3194   4.243   0.954   5.461  0.0551 -0.5920  0.1717
 1077TIP3    H1 3195   4.171   0.982   5.404  0.7903 -0.5099 -0.7311
 1077TIP3    H2 3196   4.213   0.870   5.497 -1.8567  0.8874  2.3421
 1078TIP3   OH2 3197   1.400   3.384   2.108 -0.0519 -0.5998 -0.0971
 1078TIP3    H1 3198   1.416   3.405   2.200 -0.4517 -1.4262  0.1705
 1078TIP3    H2 3199   1.368   3.466   2.070 -2.2719 -0.8448  1.0833
 1079TIP3   OH2 3200   3.125   3.524   5.280  0.4439 -0.2254  0.6444
 1079TIP3    H1 3201   3.081   3.475   5.211 -0.5156  2.3433 -0.6884
 1079TIP3    H2 3202   3.213   3.539   5.247  0.3691 -0.0633  0.5149
 1080TIP3   OH2 3203   4.133   0.676   5.048 -0.9212  0.2647 -0.2125
 1080TIP3    H1 3204   4.146   0.582   5.038 -3.2971 -0.1726  0.0681
 1080TIP3    H2 3205   4.195   0.702   5.116 -0.0433 -1.0359 -0.4886
 1081TIP3   OH2 3206   4.504   4.829   2.209 -0.3099  0.4673 -0.1803
 1081TIP3    H1 3207   4.586   4.786   2.184 -0.8727  0.2345 -1.7083
 1081TIP3    H2 3208   4.460   4.766   2.265 -1.1944 -1.1174 -2.5104
 1082TIP3   OH2 3209   0.262   0.446   2.439 -0.1228  0.1050 -0.4418
 1082TIP3    H1 3210   0.183   0.496   2.416 -0.6597  0.5824  2.1631
 1082TIP3    H2 3211   0.331   0.512   2.446  0.3618 -0.2108 -1.8983
 1083TIP3   OH2 3212   2.233   3.481   1.713 -0.4286 -0.2333  0.1702
 1083TIP3    H1 3213   2.200   3.479   1.623 -0.5721 -1.2856  0.2336
 1083TIP3    H2 3214   2.238   3.574   1.735  0.5362  0.0776 -1.2610
 1084TIP3   OH2 3215   4.327   5.115   5.112 -0.3060  0.1895  0.3584
 1084TIP3    H1 3216   4.317   5.206   5.140  0.4888 -0.0845  1.5888
 1084TIP3    H2 3217   4.356   5.069   5.191 -1.2982 -1.2512 -0.0903
 1085TIP3   OH2 3218   2.378   0.578   5.491 -0.7852  0.0834 -0.0038
 1085TIP3    H1 3219   2.467   0.566   5.524 -1.2282 -0.0436  1.1845
 1085TIP3    H2 3220   2.388   0.583   5.396  0.3625 -1.0978  0.0299
 1086TIP3   OH2 3221   3.607   2.884   4.842 -0.2984  0.0294 -0.2915
 1086TIP3    H1 3222   3.655   2.883   4.926  1.3202 -1.2747 -1.1677
 1086TIP3    H2 3223   3.656   2.946   4.788 -0.5227 -0.1526 -0.7030
 1087TIP3   OH2 3224   5.453   1.836   1.283 -0.1151 -0.2243 -0.4684
 1087TIP3    H1 3225   5.505   1.774   1.335 -1.3773 -0.7043  0.2695
 1087TIP3    H2 3226   5.502   1.845   1.201  1.0859 -0.7103  0.1690
 1088TIP3   OH2 3227   2.364   2.937   4.968  0.1488  0.0530  0.4660
 1088TIP3    H1 3228   2.447   2.969   5.003  0.4369  1.6151 -1.4828
 1088TIP3    H2 3229   2.344   2.996   4.895 -1.7719 -1.3891 -0.2601
 1089TIP3   OH2 3230   5.885   3.605   4.754 -0.2346  0.3879  0.7410
 1089TIP3    H1 3231   5.859   3.514   4.739  0.1939  0.2957  0.5375
 1089TIP3    H2 3232   5.914   3.606   4.846 -2.0649  0.7660  1.3660
 1090TIP3   OH2 3233   0.438   6.070   3.511  0.1749  0.4746 -0.4681
 1090TIP3    H1 3234   0.380   6.112   3.448 -1.2976  0.1179  0.6061
 1090TIP3    H2 3235   0.507   6.031   3.458  0.0229  1.8067 -1.6929
 1091TIP3   OH2 3236   6.819   1.570   1.231 -0.2879  0.5909 -1.1201
 1091TIP3    H1 3237   6.910   1.548   1.247 -0.6821 -0.9698 -0.8437
 1091TIP3    H2 3238   6.822   1.633   1.159  1.0471  1.3838 -0.3937
 1092TIP3   OH2 3239   2.282   4.447   3.883  0.4171  0.6179  0.3047
 1092TIP3    H1 3240   2.205   4.429   3.831 -1.0614  2.0452  1.8874
 1092TIP3    H2 3241   2.334   4.508   3.831  1.4718 -1.7242 -1.5614
 1093TIP3   OH2 3242   7.051   0.332   1.220 -0.2860  0.0472 -0.2448
 1093TIP3    H1 3243   7.061   0.238   1.201  0.4021  0.2414 -0.8928
 1093TIP3    H2 3244   7.043   0.336   1.316 -0.1617 -0.6575 -0.1974
 1094TIP3   OH2 3245   7.074   5.209   2.134  0.1021 -0.2088 -0.2709
 1094TIP3    H1 3246   7.118   5.147   2.192  0.4366  0.3227  0.0570
 1094TIP3    H2 3247   7.116   5.196   2.049  0.4169 -0.1819 -0.1202
 1095TIP3   OH2 3248   5.494   4.347   5.484  0.3793  0.7949 -0.0700
 1095TIP3    H1 3249   5.451   4.373   5.565 -2.1678  0.4837 -1.2255
 1095TIP3    H2 3250   5.537   4.427   5.453 -0.5433  1.5173  0.4546
 1096TIP3   OH2 3251   3.243   3.297   5.564 -0.2043  0.3343  0.0496
 1096TIP3    H1 3252   3.175   3.229   5.559 -0.5707  0.6191  0.8567
 1096TIP3    H2 3253   3.203   3.366   5.617  0.0333  1.3405 -1.0626
 1097TIP3   OH2 3254   2.496   6.729   1.303 -0.4673  0.4310 -0.1300
 1097TIP3    H1 3255   2.550   6.773   1.237 -0.6366  2.2916  0.8969
 1097TIP3    H2 3256   2.556   6.707   1.373 -0.6226  0.2191 -0.0614
 1098TIP3   OH2 3257   5.233   4.157   3.654  0.5154 -0.1037 -0.3982
 1098TIP3    H1 3258   5.283   4.197   3.724 -0.5085 -1.0962  0.9667
 1098TIP3    H2 3259   5.155   4.212   3.645 -0.5994 -1.3480  1.0667
 1099TIP3   OH2 3260   2.780   5.253   2.862 -0.4937  0.3349  0.1206
 1099TIP3    H1 3261   2.867   5.294   2.855 -1.4355  2.1901 -2.1829
 1099TIP3    H2 3262   2.749   5.278   2.949  0.9689  0.2360  0.7061
 1100TIP3   OH2 3263   0.366   1.406   1.654 -0.3575 -0.0514  0.3630
 1100TIP3    H1 3264   0.280   1.371   1.677 -1.0066 -0.3493 -2.1920
 1100TIP3    H2 3265   0.357   1.501   1.664 -1.0420 -0.0700 -0.0062
 1101TIP3   OH2 3266   3.565   4.732   2.380 -0.4383  0.3074 -0.2570
 1101TIP3    H1 3267   3.520   4.815   2.367  1.0905  1.2075 -0.0324
 1101TIP3    H2 3268   3.544   4.708   2.471 -2.4213 -0.5667 -0.8822
 1102TIP3   OH2 3269   6.282   3.354   2.122 -0.0731  0.4494 -0.2602
 1102TIP3    H1 3270   6.224   3.370   2.047  2.4622  3.9039 -1.7466
 1102TIP3    H2 3271   6.323   3.269   2.102 -2.5143 -0.7776 -0.4849
 1103TIP3   OH2 3272   4.078   2.918   4.662  0.3104  0.0093  0.2716
 1103TIP3    H1 3273   4.004   2.977   4.649  0.8820  0.9040  0.9972
 1103TIP3    H2 3274   4.153   2.975   4.674  0.7433 -0.8367  1.8245
 1104TIP3   OH2 3275   0.250   1.288   4.416  0.0278  0.4744 -0.0786
 1104TIP3    H1 3276   0.334   1.328   4.436 -0.1163  0.7357  0.0078
 1104TIP3    H2 3277   0.272   1.199   4.387  0.4079  0.8578 -1.0134
 1105TIP3   OH2 3278   5.585   5.543   1.563 -0.6480 -0.5679 -0.1620
 1105TIP3    H1 3279   5.630   5.459   1.550  0.4054 -0.1290  0.5638
 1105TIP3    H2 3280   5.647   5.596   1.613 -1.3833  0.5833 -0.4451
 1106TIP3   OH2 3281   1.625   2.966   3.574 -0.2153 -0.2681 -0.0106
 1106TIP3    H1 3282   1.669   2.910   3.638  0.3973  1.0409  0.7298
 1106TIP3    H2 3283   1.581   3.033   3.626 -0.1110  0.5281 -0.9293
 1107TIP3   OH2 3284   7.159   2.349   3.955 -0.1771 -0.0326 -0.0765
 1107TIP3    H1 3285   7.128   2.420   4.011 -0.5939 -0.1372 -0.1657
 1107TIP3    H2 3286   7.194   2.284   4.017 -0.5543 -0.1096  0.0644
 1108TIP3   OH2 3287   7.045   4.686   1.293 -0.2895  0.4879 -0.3700
 1108TIP3    H1 3288   6.951   4.671   1.298 -0.4667  1.5522 -0.4273
 1108TIP3    H2 3289   7.074   4.691   1.384 -0.6881  2.4915 -0.3133
 1109TIP3   OH2 3290   4.650   5.019   0.892 -0.4863 -0.0679 -0.8969
 1109TIP3    H1 3291   4.672   5.112   0.901  0.6719 -0.4284  0.2566
 1109TIP3    H2 3292   4.625   5.009   0.800  2.7068  0.7239 -1.9740
 1110TIP3   OH2 3293   2.370   0.532   1.897 -0.1671 -0.0490 -0.1060
 1110TIP3    H1 3294   2.328   0.585   1.829  1.3076 -0.9597 -1.8384
 1110TIP3    H2 3295   2.297   0.493   1.946 -1.3283 -0.0068 -1.7130
 1111TIP3   OH2 3296   6.134   1.711   1.011 -0.3522  0.1226  0.0806
 1111TIP3    H1 3297   6.227   1.689   1.021 -0.3088  0.1713 -0.2155
 1111TIP3    H2 3298   6.093   1.627   0.990 -0.0566  0.4228 -1.9583
 1112TIP3   OH2 3299   0.891   1.011   0.248  0.0371 -0.5530 -0.1766
 1112TIP3    H1 3300   0.850   1.097   0.238  0.1902 -0.0863  2.6588
 1112TIP3    H2 3301   0.818   0.952   0.263  0.0904 -0.5607  0.0437
 1113TIP3   OH2 3302   3.272   6.438   3.329 -0.0937 -0.1278  0.7620
 1113TIP3    H1 3303   3.215   6.380   3.279 -0.0772  0.7193 -0.2836
 1113TIP3    H2 3304   3.219   6.466   3.403 -0.5456 -0.4690  0.5714
 1114TIP3   OH2 3305   7.102   4.189   4.685  0.1110 -0.2496  0.3387
 1114TIP3    H1 3306   7.097   4.137   4.766 -1.6466 -0.9015 -0.1290
 1114TIP3    H2 3307   7.115   4.278   4.715  2.4360 -0.8183  1.1992
 1115TIP3   OH2 3308   5.390   1.384   2.908 -0.0355  0.2690  0.2299
 1115TIP3    H1 3309   5.480   1.414   2.921  0.5204 -0.8352 -0.9011
 1115TIP3    H2 3310   5.389   1.295   2.943 -0.7901  0.3974  0.5485
 1116TIP3   OH2 3311   2.680   5.621   3.410  0.1813 -0.3248 -0.3169
 1116TIP3    H1 3312   2.695   5.607   3.317  0.9048 -0.9499 -0.1137
 1116TIP3    H2 3313   2.585   5.624   3.419  0.0286 -2.5222 -0.7681
 1117TIP3   OH2 3314   4.399   6.145   5.245 -0.3025  0.5889 -0.0200
 1117TIP3    H1 3315   4.347   6.124   5.323 -0.6523 -1.4696 -0.7385
 1117TIP3    H2 3316   4.336   6.179   5.182 -0.9583 -2.1409 -0.9791
 1118TIP3   OH2 3317   4.845   5.757   0.686  0.0715  0.2995 -0.1656
 1118TIP3    H1 3318   4.864   5.676   0.732  0.0636  0.8990  0.9396
 1118TIP3    H2 3319   4.781   5.734   0.620 -0.1740 -0.5344  0.3534
 1119TIP3   OH2 3320   3.795   6.129   0.230  0.6386 -0.4696 -1.2364
 1119TIP3    H1 3321   3.718   6.160   0.181 -0.5662 -1.4458 -0.0414
 1119TIP3    H2 3322   3.838   6.209   0.261 -2.4761  0.2311  1.9341
 1120TIP3   OH2 3323   5.990   0.092   0.435  0.2501  0.7745 -0.1913
 1120TIP3    H1 3324   5.946   0.177   0.427 -0.6132  0.3703  0.1718
 1120TIP3    H2 3325   5.940   0.033   0.379  0.6666  0.4270 -0.2032
 1121TIP3   OH2 3326   0.862   0.578   1.820 -0.0839  0.4449 -0.1650
 1121TIP3    H1 3327   0.825   0.552   1.905  1.4794  0.1888  0.4748
 1121TIP3    H2 3328   0.789   0.570   1.759 -1.4731  1.3533  1.2617
 1122TIP3   OH2 3329   0.521   4.527   1.103 -0.7106  0.5272  0.1831
 1122TIP3    H1 3330   0.493   4.439   1.080 -0.5438  0.9028 -1.6489
 1122TIP3    H2 3331   0.611   4.533   1.070 -0.7206  1.3701  0.2835
 1123TIP3   OH2 3332   2.563   5.109   0.668 -0.3980 -0.1368 -0.2204
 1123TIP3    H1 3333   2.493   5.057   0.630 -1.0869 -0.7705  1.8088
 1123TIP3    H2 3334   2.529   5.199   0.668  0.1956  0.1375 -2.3376
 1124TIP3   OH2 3335   3.871   4.228   0.772 -0.2484 -0.1681  0.5907
 1124TIP3    H1 3336   3.916   4.154   0.812 -0.0609 -1.1358 -1.3160
 1124TIP3    H2 3337   3.854   4.288   0.845  2.8019 -0.4034  1.6323
 1125TIP3   OH2 3338   1.774   2.425   4.821  0.2316  0.4159  0.3417
 1125TIP3    H1 3339   1.852   2.478   4.802  0.3436 -0.0840 -0.6442
 1125TIP3    H2 3340   1.805   2.335   4.818 -0.5162  0.1821 -0.7673
 1126TIP3   OH2 3341   6.288   0.302   5.053  0.2215 -0.4129  0.3639
 1126TIP3    H1 3342   6.215   0.278   5.110  0.5053 -0.4672  0.7049
 1126TIP3    H2 3343   6.329   0.218   5.030  0.2172 -0.3778  0.2259
 1127TIP3   OH2 3344   2.643   2.914   1.580 -0.6815 -0.1879  0.2542
 1127TIP3    H1 3345   2.584   2.850   1.619 -1.9348  1.2115  0.7136
 1127TIP3    H2 3346   2.641   2.894   1.486  1.0530 -2.4941  0.6086
 1128TIP3   OH2 3347   3.331   1.556   5.127 -0.4670 -0.0720 -0.0060
 1128TIP3    H1 3348   3.396   1.563   5.197  1.3011 -0.5370 -1.5215
 1128TIP3    H2 3349   3.351   1.629   5.069 -0.6144 -0.8392 -1.0354
 1129TIP3   OH2 3350   2.216   3.206   5.119  0.5209 -0.0565  0.1278
 1129TIP3    H1 3351   2.267   3.237   5.194  1.1303  0.1890 -0.3779
 1129TIP3    H2 3352   2.239   3.114   5.111  2.0682  0.3798 -0.9972
 1130TIP3   OH2 3353   4.601   6.575   4.359  0.0908 -0.8049 -0.3250
 1130TIP3    H1 3354   4.568   6.493   4.323  1.4286 -0.8098 -1.6531
 1130TIP3    H2 3355   4.666   6.605   4.295  2.0698 -0.4215  1.7346
 1131TIP3   OH2 3356   3.460   0.572   5.177 -0.4718 -0.1266  0.6998
 1131TIP3    H1 3357   3.455   0.513   5.103 -3.5402  1.3043 -0.4303
 1131TIP3    H2 3358   3.492   0.655   5.141 -3.1133  0.9355  0.5691
 1132TIP3   OH2 3359   3.756   2.277   4.933 -0.5988  0.1455 -0.5751
 1132TIP3    H1 3360   3.758   2.349   4.997 -0.0778  0.3623 -0.8290
 1132TIP3    H2 3361   3.828   2.220   4.960 -0.9844 -0.2687 -0.3989
 1133TIP3   OH2 3362   2.038   0.294   2.405  0.5566  0.6477 -0.3221
 1133TIP3    H1 3363   1.963   0.293   2.465  0.0186  0.1491 -0.9758
 1133TIP3    H2 3364   2.114   0.301   2.462  0.3733 -3.6086  0.8494
 1134TIP3   OH2 3365   5.969   4.278   0.102  0.3268 -0.1401 -0.0388
 1134TIP3    H1 3366   6.029   4.205   0.084 -0.1844 -0.5061 -0.2728
 1134TIP3    H2 3367   6.006   4.319   0.180  1.2791  0.0719 -0.5805
 1135TIP3   OH2 3368   5.157   0.652   0.583 -0.1318 -0.1390  0.2282
 1135TIP3    H1 3369   5.085   0.590   0.582 -0.9600  0.7691  0.8902
 1135TIP3    H2 3370   5.162   0.685   0.493 -1.3971  0.6962  0.4270
 1136TIP3   OH2 3371   6.058   5.746   0.168 -0.4747 -0.3890 -0.0312
 1136TIP3    H1 3372   5.974   5.786   0.194 -0.2491  2.1402 -2.5929
 1136TIP3    H2 3373   6.122   5.786   0.226 -0.5549  1.2998 -1.0374
 1137TIP3   OH2 3374   1.572   5.436   3.753 -0.2675  0.3393  0.3690
 1137TIP3    H1 3375   1.496   5.413   3.699 -0.1543 -1.2151  0.8244
 1137TIP3    H2 3376   1.634   5.476   3.692 -1.4328  1.6518 -0.0049
 1138TIP3   OH2 3377   2.822   3.584   3.137  0.2466  0.2986  0.5508
 1138TIP3    H1 3378   2.785   3.566   3.224 -1.1608  0.2075 -0.0317
 1138TIP3    H2 3379   2.891   3.519   3.126  1.9446  1.6298  2.4350
 1139TIP3   OH2 3380   6.130   4.267   2.687  0.4209 -0.1462  0.6494
 1139TIP3    H1 3381   6.200   4.202   2.678  0.5113  0.1033 -0.5100
 1139TIP3    H2 3382   6.056   4.229   2.640 -0.2082 -0.3483  1.7514
 1140TIP3   OH2 3383   1.795  -0.029   4.006 -0.3976  0.6595  0.1022
 1140TIP3    H1 3384   1.806   0.003   3.917  0.4559  1.6195  0.5431
 1140TIP3    H2 3385   1.832   0.039   4.062 -0.0046 -0.3769  1.1441
 1141TIP3   OH2 3386   6.165   6.131   2.874 -0.1138 -0.3882 -0.3326
 1141TIP3    H1 3387   6.201   6.065   2.933  0.9625 -0.0993 -0.6419
 1141TIP3    H2 3388   6.186   6.099   2.786  0.9421  0.6242 -0.4765
 1142TIP3   OH2 3389   4.849   5.451   4.697  0.0531 -0.3304  0.0624
 1142TIP3    H1 3390   4.767   5.419   4.660  0.8694  1.5642 -4.0920
 1142TIP3    H2 3391   4.911   5.378   4.686 -0.2413 -0.5099 -0.4464
 1143TIP3   OH2 3392   4.010   4.849   3.301  0.2535  0.0269 -0.4024
 1143TIP3    H1 3393   4.070   4.794   3.251  0.5027 -0.5605  0.5213
 1143TIP3    H2 3394   3.966   4.789   3.360 -0.9153  0.5235 -0.7371
 1144TIP3   OH2 3395   6.750   0.892   5.227  0.2141  0.0922 -0.6133
 1144TIP3    H1 3396   6.753   0.805   5.269  0.7780  0.3270 -0.1470
 1144TIP3    H2 3397   6.670   0.890   5.174 -0.8232 -0.0362  0.8880
 1145TIP3   OH2 3398   6.337   5.380   4.660  0.7263  0.3853  0.0879
 1145TIP3    H1 3399   6.255   5.417   4.694 -0.3055 -1.7590  0.0569
 1145TIP3    H2 3400   6.404   5.442   4.688 -0.7158  1.3971  1.4693
 1146TIP3   OH2 3401   4.801   6.666   3.459  0.3242  0.0677  0.0689
 1146TIP3    H1 3402   4.724   6.704   3.501 -1.3527  0.5157 -3.1041
 1146TIP3    H2 3403   4.806   6.577   3.494 -0.6483  0.5342  1.5020
 1147TIP3   OH2 3404   0.100   5.986   1.683  0.5413 -0.0946  0.0765
 1147TIP3    H1 3405   0.097   6.070   1.637  0.7008 -1.1172 -1.9318
 1147TIP3    H2 3406   0.070   5.922   1.618 -0.2012 -1.5359  1.7397
 1148TIP3   OH2 3407   0.212   3.741   3.938  0.3329  0.1861 -0.2407
 1148TIP3    H1 3408   0.260   3.660   3.952  1.4026  0.9897  1.0370
 1148TIP3    H2 3409   0.204   3.749   3.843  1.1785 -0.8526 -0.4157
 1149TIP3   OH2 3410   1.629   6.145   2.806  0.7376 -0.3541  0.2282
 1149TIP3    H1 3411   1.715   6.126   2.843  1.2188  0.1588 -0.5885
 1149TIP3    H2 3412   1.593   6.059   2.782  1.5033 -0.4954 -0.4470
 1150TIP3   OH2 3413   1.287   3.968   1.209 -0.3268  0.2381  0.3949
 1150TIP3    H1 3414   1.317   3.940   1.295 -0.7687 -0.1558  0.4282
 1150TIP3    H2 3415   1.248   3.889   1.171  0.2702  0.2887 -0.3458
 1151TIP3   OH2 3416   4.277   5.318   4.063 -0.2895  0.0882 -0.5259
 1151TIP3    H1 3417   4.368   5.289   4.077 -0.6782 -0.3886  1.1899
 1151TIP3    H2 3418   4.285   5.411   4.042  0.5217  0.6279  1.8346
 1152TIP3   OH2 3419   2.871   1.258   2.945  0.0051  0.5113  0.4553
 1152TIP3    H1 3420   2.852   1.203   2.869  1.1615  1.5020 -0.5739
 1152TIP3    H2 3421   2.791   1.310   2.957 -0.1830  0.3571 -0.0848
 1153TIP3   OH2 3422   5.466   1.166   2.170  0.3998 -0.3128  0.5574
 1153TIP3    H1 3423   5.518   1.213   2.236  0.8497  0.9793 -0.6616
 1153TIP3    H2 3424   5.473   1.074   2.195  0.3664  0.1525  2.4267
 1154TIP3   OH2 3425   3.103   2.097   3.297 -0.2191  0.1359  0.1150
 1154TIP3    H1 3426   3.094   2.068   3.387 -1.0326  1.8276  0.6139
 1154TIP3    H2 3427   3.085   2.191   3.300  1.8555  0.6593 -1.4695
 1155TIP3   OH2 3428   3.562   1.554   4.829  0.2048  0.0412  0.0201
 1155TIP3    H1 3429   3.543   1.635   4.875  1.4879  0.4302 -0.0882
 1155TIP3    H2 3430   3.656   1.558   4.812  0.2917 -1.4853  0.0351
 1156TIP3   OH2 3431   4.766   6.451   0.928  0.6508 -0.3588  0.6664
 1156TIP3    H1 3432   4.732   6.416   0.845 -0.5032  0.8731  0.5695
 1156TIP3    H2 3433   4.846   6.403   0.944  0.1796 -1.5803 -0.4757
 1157TIP3   OH2 3434   7.006   2.582   2.438 -0.1455 -0.1774 -0.1586
 1157TIP3    H1 3435   7.043   2.631   2.511  2.6802  0.8424 -2.0801
 1157TIP3    H2 3436   7.022   2.491   2.460 -0.1869  0.0500  0.8816
 1158TIP3   OH2 3437   3.303   2.920   1.956  0.1909 -0.2745 -0.5700
 1158TIP3    H1 3438   3.297   2.993   1.894  0.0740 -0.6174 -0.9671
 1158TIP3    H2 3439   3.394   2.920   1.984  0.2773 -0.2003 -0.8442
 1159TIP3   OH2 3440   0.986   5.397   4.869  0.4589 -0.5663 -0.1066
 1159TIP3    H1 3441   0.941   5.392   4.785 -0.1853 -3.1207  0.3122
 1159TIP3    H2 3442   0.916   5.399   4.934  0.8748  3.2214  0.4741
 1160TIP3   OH2 3443   1.439   5.779   1.792  0.0470  0.2823 -0.2777
 1160TIP3    H1 3444   1.345   5.771   1.801  0.1464 -1.4475 -0.4913
 1160TIP3    H2 3445   1.473   5.773   1.881 -0.0433  0.9769 -0.1943
 1161TIP3   OH2 3446   4.293   2.087   1.751 -0.9542 -0.3245 -0.6959
 1161TIP3    H1 3447   4.252   2.023   1.809  1.1492  0.0760  1.4082
 1161TIP3    H2 3448   4.351   2.138   1.809  0.0140  1.2242 -2.8846
 1162TIP3   OH2 3449   1.165   5.194   2.013 -0.3296  0.3011  1.0772
 1162TIP3    H1 3450   1.208   5.157   1.936 -0.4972 -0.0340  1.1422
 1162TIP3    H2 3451   1.221   5.167   2.086  0.1335  1.0844  1.0287
 1163TIP3   OH2 3452   2.809   3.731   0.361  0.4982  0.2004 -0.2393
 1163TIP3    H1 3453   2.788   3.728   0.454  0.2092  2.1249 -0.2015
 1163TIP3    H2 3454   2.725   3.745   0.318  0.9915  3.7357 -0.3909
 1164TIP3   OH2 3455   2.846   0.145   4.396  0.3649  0.1586  0.0919
 1164TIP3    H1 3456   2.828   0.227   4.441 -1.4329  0.9673 -1.9462
 1164TIP3    H2 3457   2.924   0.111   4.440  1.8170  3.4344  0.4031
 1165TIP3   OH2 3458   2.773   2.316   3.647  0.2455  0.0442  0.3007
 1165TIP3    H1 3459   2.869   2.315   3.643  0.2528 -2.0491 -0.2287
 1165TIP3    H2 3460   2.746   2.330   3.557  0.0431  0.4151  0.4176
 1166TIP3   OH2 3461   4.014   2.163   0.462 -0.0971  0.3630  0.8490
 1166TIP3    H1 3462   4.006   2.077   0.505  0.4806  0.8389  1.9577
 1166TIP3    H2 3463   3.968   2.223   0.520  1.7009  1.2230  1.4852
 1167TIP3   OH2 3464   3.342   2.849   1.466 -0.0785  0.0835  0.0248
 1167TIP3    H1 3465   3.388   2.811   1.392 -0.0040 -0.8492  0.5290
 1167TIP3    H2 3466   3.373   2.940   1.470  0.7505 -0.1710 -0.4109
 1168TIP3   OH2 3467   5.958   4.790   4.147 -0.0360  0.2460 -0.1278
 1168TIP3    H1 3468   5.969   4.755   4.058  0.3692  1.3822 -0.5473
 1168TIP3    H2 3469   5.990   4.880   4.141 -2.2129  1.1388  0.5825
 1169TIP3   OH2 3470   6.774   1.374   4.610  0.1651 -0.1634  0.4042
 1169TIP3    H1 3471   6.758   1.377   4.516 -1.5942 -0.3222  0.6607
 1169TIP3    H2 3472   6.785   1.465   4.636  0.8211 -0.1301  0.0408
 1170TIP3   OH2 3473   5.679   2.422  -0.013  0.5207  0.2899 -0.2533
 1170TIP3    H1 3474   5.767   2.459  -0.020  0.4763  0.4712  0.1204
 1170TIP3    H2 3475   5.636   2.475   0.055  0.0088  0.4305 -0.6824
 1171TIP3   OH2 3476   5.342   2.546   1.987 -0.6264  0.5720  0.1397
 1171TIP3    H1 3477   5.263   2.503   1.956 -0.8607  1.5911 -0.7440
 1171TIP3    H2 3478   5.310   2.617   2.043 -0.3711  1.2582 -0.5675
 1172TIP3   OH2 3479   5.665   2.237   2.872  0.5249 -0.1623  0.3726
 1172TIP3    H1 3480   5.583   2.271   2.836  0.1047 -1.8039 -0.3319
 1172TIP3    H2 3481   5.687   2.297   2.943 -2.0713 -0.4534  1.5587
 1173TIP3   OH2 3482   4.169   2.295   1.398  0.3627  0.2904  0.8069
 1173TIP3    H1 3483   4.132   2.380   1.419 -2.3783 -1.1383  2.3110
 1173TIP3    H2 3484   4.124   2.268   1.318  1.9887  0.6114 -0.2757
 1174TIP3   OH2 3485   0.749   4.204   4.938 -0.8796 -0.3006  0.2083
 1174TIP3    H1 3486   0.722   4.293   4.915  0.0990  0.2823  1.2260
 1174TIP3    H2 3487   0.799   4.175   4.862  1.4553  1.2215  1.0637
 1175TIP3   OH2 3488   1.600   3.337   3.697  0.0935 -0.2016  0.3602
 1175TIP3    H1 3489   1.505   3.347   3.686 -0.0437 -1.7997 -0.2105
 1175TIP3    H2 3490   1.609   3.262   3.755  1.0140 -0.1581  0.2841
 1176TIP3   OH2 3491   4.194   4.357   2.517 -0.2940  0.0579 -0.7743
 1176TIP3    H1 3492   4.100   4.350   2.500 -0.6488 -0.1043  1.0048
 1176TIP3    H2 3493   4.208   4.451   2.533 -0.7654 -0.2251  1.7701
 1177TIP3   OH2 3494   4.172   4.181   3.862 -0.1917  0.1964  0.3636
 1177TIP3    H1 3495   4.137   4.224   3.940 -0.1945  0.4352  0.2288
 1177TIP3    H2 3496   4.150   4.088   3.875 -0.8300  0.3336  0.3019
 1178TIP3   OH2 3497   4.464   1.887   5.013 -0.6960 -0.4350 -0.3004
 1178TIP3    H1 3498   4.538   1.826   5.003  0.0787  0.6542 -1.5718
 1178TIP3    H2 3499   4.475   1.922   5.101  0.4923 -0.0948 -0.5583
 1179TIP3   OH2 3500   4.267   1.968   5.884  0.0631 -0.5634  0.1667
 1179TIP3    H1 3501   4.174   1.947   5.880 -0.0717  0.0215  0.1100
 1179TIP3    H2 3502   4.274   2.053   5.838  0.6028 -0.5534  0.2644
 1180TIP3   OH2 3503   5.021   1.128   0.211 -0.3837 -0.4741  0.7611
 1180TIP3    H1 3504   5.061   1.090   0.290 -0.7815  0.0748  1.2342
 1180TIP3    H2 3505   4.955   1.188   0.245  1.8229  2.5299  0.1339
 1181TIP3   OH2 3506   6.080   0.090   3.709  0.2057  0.0075 -0.5159
 1181TIP3    H1 3507   6.115   0.141   3.782  0.1128 -2.0817  1.1170
 1181TIP3    H2 3508   6.121   0.128   3.631  0.9645  1.8037  0.6886
 1182TIP3   OH2 3509   6.160   0.016   0.072 -0.3628 -0.2204  0.2359
 1182TIP3    H1 3510   6.151   0.027  -0.023  0.0444 -1.5476  0.0168
 1182TIP3    H2 3511   6.175   0.104   0.105 -0.4752  0.2599 -0.9347
 1183TIP3   OH2 3512   3.742   0.937   1.262 -0.1775  0.0493 -0.0836
 1183TIP3    H1 3513   3.813   0.897   1.212 -1.6817 -0.8333 -1.6316
 1183TIP3    H2 3514   3.747   1.030   1.241  1.6317  0.3165  1.3294
 1184TIP3   OH2 3515   4.521   2.281   4.273  0.1966 -0.3973  0.5395
 1184TIP3    H1 3516   4.554   2.345   4.337  1.7032 -0.6047  0.0200
 1184TIP3    H2 3517   4.505   2.332   4.194  0.0784 -0.4366  0.5385
 1185TIP3   OH2 3518   3.423   6.465   5.454  0.2647  0.0476 -0.0447
 1185TIP3    H1 3519   3.398   6.525   5.384 -1.5758 -0.6964 -0.1011
 1185TIP3    H2 3520   3.376   6.497   5.531 -0.8857 -1.3562 -0.1202
 1186TIP3   OH2 3521   2.810   6.342   4.539  0.3687 -0.5599 -0.0838
 1186TIP3    H1 3522   2.830   6.257   4.499 -1.2846 -1.2594  0.4921
 1186TIP3    H2 3523   2.886   6.360   4.595  1.1521 -1.2106 -0.9064
 1187TIP3   OH2 3524   1.568   0.233   0.141 -0.2473  0.5218  0.0863
 1187TIP3    H1 3525   1.473   0.219   0.135 -0.3122  1.1112 -0.3978
 1187TIP3    H2 3526   1.592   0.268   0.055  1.0187 -2.8902 -1.1207
 1188TIP3   OH2 3527   6.647   6.416   0.741 -1.0380 -0.2413  0.5119
 1188TIP3    H1 3528   6.601   6.493   0.708 -0.6775  0.1881  1.0046
 1188TIP3    H2 3529   6.697   6.448   0.816 -1.4452 -1.0921  1.1617
 1189TIP3   OH2 3530   0.978   2.984   0.152  0.3388  0.3134 -0.1729
 1189TIP3    H1 3531   0.945   2.982   0.062  1.2450  0.6134 -0.5267
 1189TIP3    H2 3532   0.940   2.907   0.193 -1.0576  0.8216 -0.4582
 1190TIP3   OH2 3533   5.819   4.715   1.027 -0.8826 -0.5435 -0.2917
 1190TIP3    H1 3534   5.844   4.632   1.067 -2.2431 -0.7056  0.2992
 1190TIP3    H2 3535   5.742   4.744   1.077 -0.0986  1.3703 -0.1135
 1191TIP3   OH2 3536   4.588   5.962   1.017 -0.5775 -0.5389 -0.2819
 1191TIP3    H1 3537   4.677   5.983   0.988 -1.3902  0.5295 -2.1684
 1191TIP3    H2 3538   4.560   6.038   1.067 -0.8801 -0.3132 -0.7891
 1192TIP3   OH2 3539   0.336   5.848   1.715 -0.1117  0.0513 -0.0385
 1192TIP3    H1 3540   0.372   5.876   1.631  0.9211  2.6325  1.1517
 1192TIP3    H2 3541   0.247   5.885   1.717 -0.0726  0.1420  0.0586
 1193TIP3   OH2 3542   1.311   5.500   0.865 -0.4030 -0.6410  0.3529
 1193TIP3    H1 3543   1.373   5.568   0.893  0.8357 -0.2801 -2.8580
 1193TIP3    H2 3544   1.347   5.419   0.900  1.1160 -0.2420 -0.2222
 1194TIP3   OH2 3545   4.917   3.478   1.828  0.3542 -0.5107  0.2574
 1194TIP3    H1 3546   4.986   3.495   1.764 -1.1829  0.6950 -1.1656
 1194TIP3    H2 3547   4.924   3.549   1.891 -0.1789  0.1998 -0.4580
 1195TIP3   OH2 3548   4.026   1.514   0.111  0.1130 -0.6803  0.0290
 1195TIP3    H1 3549   3.996   1.592   0.158  1.6872  1.2263 -1.9143
 1195TIP3    H2 3550   4.119   1.509   0.130  0.4208 -0.9018 -1.4219
 1196TIP3   OH2 3551   2.449   1.095   3.469 -0.1094 -0.3510  0.2007
 1196TIP3    H1 3552   2.356   1.106   3.449  0.1884  1.1254 -0.5295
 1196TIP3    H2 3553   2.477   1.021   3.415 -0.6612 -0.1969 -0.3124
 1197TIP3   OH2 3554   7.061   1.866   5.592  0.4186 -0.0604 -0.2763
 1197TIP3    H1 3555   7.068   1.946   5.644  0.4617  0.3248 -0.8685
 1197TIP3    H2 3556   6.975   1.872   5.550  0.5199 -0.2097 -0.5089
 1198TIP3   OH2 3557   1.942   1.588   1.703  0.0622  0.5214 -0.5168
 1198TIP3    H1 3558   1.863   1.640   1.692  0.4323  0.8364 -1.8677
 1198TIP3    H2 3559   1.910   1.500   1.725 -0.6354  0.8044 -0.3926
 1199TIP3   OH2 3560   0.169   6.757   0.388 -0.8250  0.3946 -0.3621
 1199TIP3    H1 3561   0.190   6.799   0.472  1.5525 -3.5735  1.3383
 1199TIP3    H2 3562   0.230   6.796   0.326  0.8713  0.0520  0.9920
 1200TIP3   OH2 3563   1.079   6.162   4.871 -0.1015  0.3721 -0.0519
 1200TIP3    H1 3564   0.997   6.199   4.904  1.0500  2.7040  0.4266
 1200TIP3    H2 3565   1.088   6.078   4.917 -1.5776  0.6714  0.8581
 1201TIP3   OH2 3566   1.730   4.906   2.069 -0.3335 -0.3189  0.2376
 1201TIP3    H1 3567   1.815   4.910   2.114 -0.3399 -0.0579  0.2322
 1201TIP3    H2 3568   1.708   4.998   2.053 -1.1969 -0.3252  1.3143
 1202TIP3   OH2 3569   6.296   0.432   5.312  0.3290  0.6510 -0.0281
 1202TIP3    H1 3570   6.298   0.506   5.251 -0.9435 -0.2961 -1.2790
 1202TIP3    H2 3571   6.307   0.355   5.256  0.5312 -0.1765  1.1213
 1203TIP3   OH2 3572   6.422   5.539   0.073  0.4772  0.4389  0.2457
 1203TIP3    H1 3573   6.386   5.468   0.020 -1.9468 -0.1601  2.5105
 1203TIP3    H2 3574   6.424   5.614   0.014 -1.4345 -0.3498 -0.8985
 1204TIP3   OH2 3575   0.241   3.820   2.973  0.2062 -0.4760 -0.0890
 1204TIP3    H1 3576   0.262   3.896   3.027 -0.1322  0.1859 -0.8706
 1204TIP3    H2 3577   0.319   3.806   2.919  0.6562 -1.3132  0.7355
 1205TIP3   OH2 3578   7.079   5.955   3.447 -0.0486 -0.5620  0.5496
 1205TIP3    H1 3579   7.162   5.920   3.414  0.4878  1.9995 -1.0587
 1205TIP3    H2 3580   7.080   5.933   3.540  1.4832 -2.3153  0.1760
 1206TIP3   OH2 3581   1.070   4.200   1.374 -0.0273  0.5427 -0.4589
 1206TIP3    H1 3582   1.093   4.249   1.453 -0.9368 -1.1272  0.9153
 1206TIP3    H2 3583   1.082   4.263   1.303 -0.9347  2.7053  1.1680
 1207TIP3   OH2 3584   5.020   4.184   5.586 -0.0937  0.4128  0.1792
 1207TIP3    H1 3585   5.054   4.231   5.511  0.2165  1.3873  0.9101
 1207TIP3    H2 3586   5.084   4.114   5.603  0.1756  0.6056 -0.0517
 1208TIP3   OH2 3587   0.376   6.149   2.114  0.3359 -0.5091  1.0560
 1208TIP3    H1 3588   0.431   6.084   2.158  0.7462 -1.2585 -0.4868
 1208TIP3    H2 3589   0.307   6.097   2.072 -0.0938  0.1855  0.8952
 1209TIP3   OH2 3590   1.821   6.294   1.060  0.1701 -0.2902 -0.5467
 1209TIP3    H1 3591   1.861   6.302   1.147 -1.5177  1.2370  0.1755
 1209TIP3    H2 3592   1.772   6.213   1.064  0.6659 -0.5872 -0.3344
 1210TIP3   OH2 3593   4.433   2.955   5.220 -0.0264  0.8875  0.3847
 1210TIP3    H1 3594   4.361   3.009   5.252 -2.2827 -0.9904 -1.1586
 1210TIP3    H2 3595   4.441   2.977   5.127  0.6568  0.2851  0.2859
 1211TIP3   OH2 3596   2.747   2.742   3.186 -0.2064 -0.1665 -0.0752
 1211TIP3    H1 3597   2.663   2.761   3.227 -0.5956 -1.7005 -0.1035
 1211TIP3    H2 3598   2.798   2.823   3.197 -0.9148  0.0758  1.8623
 1212TIP3   OH2 3599   0.761   1.501   1.836 -0.2054  0.2052  0.1379
 1212TIP3    H1 3600   0.855   1.494   1.818  0.0405  0.9187  1.0349
 1212TIP3    H2 3601   0.737   1.589   1.806 -1.4845 -1.2464 -3.6851
 1213TIP3   OH2 3602   6.007   5.121   4.134 -0.6118 -0.5915  0.8453
 1213TIP3    H1 3603   6.055   5.189   4.087 -0.8581 -0.1347  1.2463
 1213TIP3    H2 3604   6.068   5.047   4.140 -1.0598 -1.2290 -1.4880
 1214TIP3   OH2 3605   5.426   3.259   2.391 -0.1119  0.5589  0.0299
 1214TIP3    H1 3606   5.461   3.338   2.350 -1.2412  1.4810  0.7939
 1214TIP3    H2 3607   5.331   3.273   2.393 -0.6290 -1.8908 -2.0411
 1215TIP3   OH2 3608   5.856   5.722   2.371 -0.1642 -0.3945 -0.0362
 1215TIP3    H1 3609   5.868   5.749   2.280 -1.5450  1.5929  0.2985
 1215TIP3    H2 3610   5.805   5.642   2.366 -0.5952 -0.0747 -1.0326
 1216TIP3   OH2 3611   2.160   3.638   4.410  0.3715  0.4300  0.0695
 1216TIP3    H1 3612   2.238   3.667   4.363  0.5555  0.0723  0.1471
 1216TIP3    H2 3613   2.194   3.597   4.490  0.0713  0.8530  0.4188
 1217TIP3   OH2 3614   2.356   2.182   0.078  0.2198 -0.1650  0.5004
 1217TIP3    H1 3615   2.346   2.277   0.089 -2.0968 -0.4035  1.0010
 1217TIP3    H2 3616   2.407   2.154   0.153  1.9512  0.7828 -0.2478
 1218TIP3   OH2 3617   6.319   2.623   4.009  0.3121  0.0449 -0.1155
 1218TIP3    H1 3618   6.276   2.623   3.923  1.9486  2.0033 -1.0372
 1218TIP3    H2 3619   6.386   2.555   4.003 -0.9771 -1.3302  0.4535
 1219TIP3   OH2 3620   0.093   6.222   1.523  0.3267 -0.3065 -0.1243
 1219TIP3    H1 3621   0.164   6.286   1.531  0.8814 -1.0738  1.2979
 1219TIP3    H2 3622   0.014   6.272   1.543  0.2149  0.8718 -2.9558
 1220TIP3   OH2 3623   6.290   1.953   1.539 -0.0530  0.5308  0.3145
 1220TIP3    H1 3624   6.340   1.908   1.470  1.8910  0.6382  1.5849
 1220TIP3    H2 3625   6.267   1.883   1.600 -0.4258  0.6787  0.3439
 1221TIP3   OH2 3626   2.644   0.923   4.217 -0.3495  0.0918  0.0806
 1221TIP3    H1 3627   2.735   0.923   4.190 -0.7207  1.4048 -1.3362
 1221TIP3    H2 3628   2.622   1.016   4.225 -0.9338 -0.2002  2.7495
 1222TIP3   OH2 3629   6.027   0.463   3.663 -0.1844  0.5985 -0.0581
 1222TIP3    H1 3630   6.057   0.542   3.618  1.1564  1.0590  1.5474
 1222TIP3    H2 3631   6.073   0.391   3.618 -0.9973  0.7454 -1.1744
 1223TIP3   OH2 3632   2.914   0.603   1.384  0.8632  0.3297 -0.1386
 1223TIP3    H1 3633   2.863   0.684   1.392  0.2590 -0.1878  1.6943
 1223TIP3    H2 3634   2.994   0.620   1.435  1.7033  0.4803 -1.4702
 1224TIP3   OH2 3635   0.712   3.879   0.831 -0.5750  0.3730 -0.5160
 1224TIP3    H1 3636   0.670   3.885   0.745 -1.5567 -0.0054 -0.0807
 1224TIP3    H2 3637   0.715   3.969   0.863 -3.3619  0.2102  0.4894
 1225TIP3   OH2 3638   4.625   1.120   0.749  0.3880  0.4825  0.8429
 1225TIP3    H1 3639   4.571   1.122   0.670  0.3541  1.0541  0.8741
 1225TIP3    H2 3640   4.593   1.044   0.798  0.5890 -0.0287  0.1886
 1226TIP3   OH2 3641   3.220   4.036   5.671 -0.6649 -0.3806  0.3095
 1226TIP3    H1 3642   3.198   4.025   5.763 -2.3691 -0.7058 -0.1145
 1226TIP3    H2 3643   3.151   3.991   5.623 -0.9449  1.4852 -1.1907
 1227TIP3   OH2 3644   5.561   6.270   0.374 -0.2864  0.2292  0.5026
 1227TIP3    H1 3645   5.536   6.280   0.466 -1.7358  1.0051  0.0514
 1227TIP3    H2 3646   5.602   6.353   0.352  0.0882  0.0313  0.4445
 1228TIP3   OH2 3647   4.275   4.003   2.284 -0.3073 -0.5143  0.4635
 1228TIP3    H1 3648   4.335   4.076   2.297  0.3017 -0.9883  0.3903
 1228TIP3    H2 3649   4.237   4.018   2.198 -1.4521  0.5940  1.1442
 1229TIP3   OH2 3650   0.467   5.698   2.327  0.1206 -0.2226  0.2822
 1229TIP3    H1 3651   0.449   5.639   2.254 -0.1024  0.4097 -0.1823
 1229TIP3    H2 3652   0.403   5.769   2.316 -1.1162 -0.9863  2.1053
 1230TIP3   OH2 3653   6.125   4.388   5.420  0.0226 -0.3102 -0.0041
 1230TIP3    H1 3654   6.150   4.359   5.508 -2.9313 -0.4575  0.9126
 1230TIP3    H2 3655   6.075   4.469   5.435 -2.2213 -1.3506 -1.2460
 1231TIP3   OH2 3656   3.131   4.791   1.750  0.0114 -0.1227  0.7118
 1231TIP3    H1 3657   3.188   4.853   1.795 -0.6355  0.0917  1.2646
 1231TIP3    H2 3658   3.112   4.832   1.666  0.4773 -0.0884  0.6200
 1232TIP3   OH2 3659   3.041   2.193   5.729 -0.2289 -0.1249  0.0457
 1232TIP3    H1 3660   2.982   2.160   5.796  1.2494  1.1532  2.1159
 1232TIP3    H2 3661   3.109   2.125   5.721 -0.3095 -0.1965 -0.0346
 1233TIP3   OH2 3662   4.153   5.780   0.609  0.3721  1.0801  0.6272
 1233TIP3    H1 3663   4.123   5.862   0.570  0.9877  0.0303 -2.3044
 1233TIP3    H2 3664   4.165   5.801   0.702 -0.8315  3.8838  0.2634
 1234TIP3   OH2 3665   6.561   1.672   4.936 -0.2367 -0.4069 -0.0146
 1234TIP3    H1 3666   6.490   1.692   4.875 -2.0279 -1.2798  1.6901
 1234TIP3    H2 3667   6.529   1.701   5.021  0.0585 -3.5921  1.3364
 1235TIP3   OH2 3668   1.985   5.375   3.339 -0.2884  0.1204  0.7679
 1235TIP3    H1 3669   1.915   5.326   3.295  0.3915  0.1311 -0.3627
 1235TIP3    H2 3670   1.975   5.353   3.432 -2.1703  0.6110  0.7138
 1236TIP3   OH2 3671   0.077   6.213   1.239 -0.0754 -0.0758 -0.6544
 1236TIP3    H1 3672   0.141   6.271   1.197  0.0192 -0.2365 -0.7318
 1236TIP3    H2 3673   0.110   6.201   1.328 -0.3500  0.3785 -0.4883
 1237TIP3   OH2 3674   0.544   0.761   3.632 -0.4488  0.1694 -0.3055
 1237TIP3    H1 3675   0.585   0.802   3.707 -0.0441  1.6230 -1.2755
 1237TIP3    H2 3676   0.580   0.672   3.630 -0.8898 -0.0708  1.4976
 1238TIP3   OH2 3677   0.042   6.706   4.771  1.0832  0.1930  0.0688
 1238TIP3    H1 3678  -0.012   6.743   4.841  1.0672  3.3312 -1.4142
 1238TIP3    H2 3679  -0.019   6.654   4.718  0.9041 -1.4177  1.7632
 1239TIP3   OH2 3680   2.341   3.272   2.811 -0.2294 -0.3425  0.3928
 1239TIP3    H1 3681   2.365   3.294   2.721  0.9064  0.3558  0.8426
 1239TIP3    H2 3682   2.364   3.349   2.862 -1.4409 -0.4865  1.2132
 1240TIP3   OH2 3683   5.011   4.392   3.065  0.3065  0.2236 -0.8789
 1240TIP3    H1 3684   5.053   4.346   3.138  2.3837 -0.2854 -2.3091
 1240TIP3    H2 3685   4.940   4.441   3.106  0.3167 -1.3777  1.2280
 1241TIP3   OH2 3686   3.206   2.447   3.865 -0.3074 -0.1469  0.0728
 1241TIP3    H1 3687   3.205   2.541   3.882 -1.2197  0.1128 -1.2337
 1241TIP3    H2 3688   3.235   2.440   3.774 -0.8722 -1.0764 -0.0520
 1242TIP3   OH2 3689   7.136   1.520   0.248 -0.1668  0.1735 -0.2335
 1242TIP3    H1 3690   7.062   1.578   0.231  0.8037  1.8842  1.0428
 1242TIP3    H2 3691   7.109   1.435   0.213 -1.9593  1.1892 -1.4586
 1243TIP3   OH2 3692   4.619   2.951   1.091 -0.6764  0.0721 -0.2190
 1243TIP3    H1 3693   4.628   2.975   0.999  0.3767  1.3179  0.1791
 1243TIP3    H2 3694   4.709   2.938   1.121 -0.9349  0.7770  0.9059
 1244TIP3   OH2 3695   0.441   1.493   3.024  0.0407  0.0122  0.3747
 1244TIP3    H1 3696   0.515   1.548   3.002 -0.2602  0.6705  1.0028
 1244TIP3    H2 3697   0.469   1.404   3.001  0.2076  0.5003 -1.4864
 1245TIP3   OH2 3698   5.778   0.764   1.447  0.3928 -0.0827  0.1559
 1245TIP3    H1 3699   5.863   0.732   1.417  0.6829  0.1093  0.7426
 1245TIP3    H2 3700   5.798   0.849   1.488 -0.0604 -0.0942  0.4076
 1246TIP3   OH2 3701   5.121   1.075   4.978 -0.2142 -0.0661  0.1782
 1246TIP3    H1 3702   5.111   1.036   5.065  0.5771 -0.8093 -0.0506
 1246TIP3    H2 3703   5.111   1.001   4.917  1.6310 -0.0055 -0.2522
 1247TIP3   OH2 3704   5.429   4.348   3.502 -0.3691 -0.0461 -0.4652
 1247TIP3    H1 3705   5.434   4.421   3.564  0.6932  1.2628 -2.0052
 1247TIP3    H2 3706   5.336   4.331   3.492 -0.5715 -0.3386  1.4928
 1248TIP3   OH2 3707   4.490   1.846   2.550  0.3159 -0.4228 -0.0050
 1248TIP3    H1 3708   4.535   1.778   2.499  2.3469  0.7123  0.1858
 1248TIP3    H2 3709   4.447   1.901   2.484  0.2420 -0.7901 -0.2682
 1249TIP3   OH2 3710   1.520   0.136   2.093  0.7525  0.0271 -0.2614
 1249TIP3    H1 3711   1.602   0.132   2.142  0.4187 -1.3099  0.2486
 1249TIP3    H2 3712   1.452   0.115   2.158 -0.1171  2.0886 -0.4515
 1250TIP3   OH2 3713   3.155   3.108   5.050  0.1307 -0.0627  0.0584
 1250TIP3    H1 3714   3.212   3.174   5.011 -1.7246  1.1683 -0.6977
 1250TIP3    H2 3715   3.149   3.133   5.143  0.1458  0.3051 -0.0380
 1251TIP3   OH2 3716   0.269   1.243   5.753 -0.1580 -0.0212  0.0982
 1251TIP3    H1 3717   0.234   1.201   5.675 -3.3617 -0.1787  1.4487
 1251TIP3    H2 3718   0.260   1.178   5.823 -0.3983  1.1552  1.2192
 1252TIP3   OH2 3719   4.662   3.803   4.151 -0.2198  0.0945  0.6238
 1252TIP3    H1 3720   4.668   3.726   4.207 -2.0035 -1.0621 -0.6939
 1252TIP3    H2 3721   4.752   3.819   4.123  0.8029  0.9148  3.9747
 1253TIP3   OH2 3722   2.044   6.260   2.814  0.7474 -0.3566  0.3837
 1253TIP3    H1 3723   2.092   6.227   2.890  1.2792 -1.4650 -0.3952
 1253TIP3    H2 3724   2.064   6.197   2.745  0.6396  0.8704 -0.7993
 1254TIP3   OH2 3725   1.623   4.810   1.303 -0.5083 -0.0029  0.1563
 1254TIP3    H1 3726   1.558   4.748   1.336 -0.0026 -1.7802 -1.9447
 1254TIP3    H2 3727   1.581   4.851   1.228  0.7921 -1.3305 -1.3573
 1255TIP3   OH2 3728   1.070   3.188   5.050  0.5416 -0.3917 -0.2567
 1255TIP3    H1 3729   1.052   3.099   5.019  1.3860 -0.7814  0.3308
 1255TIP3    H2 3730   1.058   3.185   5.144  0.9865  0.0068 -0.1783
 1256TIP3   OH2 3731   1.573   4.680   1.666 -0.7849 -0.2484 -0.0347
 1256TIP3    H1 3732   1.538   4.606   1.617 -0.0228  0.9155 -2.4933
 1256TIP3    H2 3733   1.531   4.757   1.627 -0.6936  0.7233  1.6707
 1257TIP3   OH2 3734   7.016   5.452   3.485  0.1801 -0.0779 -0.2438
 1257TIP3    H1 3735   6.975   5.432   3.569 -0.5480  0.5816 -0.4242
 1257TIP3    H2 3736   7.080   5.520   3.505 -0.5140  0.6200 -0.3145
 1258TIP3   OH2 3737   4.487   2.137   4.547  0.1181 -0.0180 -0.5077
 1258TIP3    H1 3738   4.475   2.186   4.628 -0.6721  0.2667 -0.7764
 1258TIP3    H2 3739   4.544   2.192   4.494 -0.1657  0.2708 -0.5202
 1259TIP3   OH2 3740   5.588   5.848   3.288  0.0715  0.0829  0.0112
 1259TIP3    H1 3741   5.560   5.801   3.367 -0.9772 -0.2973 -0.5602
 1259TIP3    H2 3742   5.683   5.845   3.291  0.2796  3.1788  3.0974
 1260TIP3   OH2 3743   1.108   0.978   4.694 -0.0637 -0.5089  0.2246
 1260TIP3    H1 3744   1.026   1.008   4.654 -0.3146  0.0693  1.1347
 1260TIP3    H2 3745   1.157   1.058   4.710  0.3111 -0.7860  0.4751
 1261TIP3   OH2 3746   6.398   1.173   4.108 -0.2584 -0.3442  0.0308
 1261TIP3    H1 3747   6.306   1.189   4.085 -0.5342 -0.4032  1.0557
 1261TIP3    H2 3748   6.435   1.259   4.124  0.0549 -0.2676 -1.0314
 1262TIP3   OH2 3749   0.724   4.103   3.922 -0.1352 -0.0178 -0.4311
 1262TIP3    H1 3750   0.666   4.037   3.885  1.0838 -1.1996 -0.3031
 1262TIP3    H2 3751   0.762   4.147   3.846  0.2700 -0.5721 -0.5570
 1263TIP3   OH2 3752   1.820   6.663   1.156  0.1413 -0.0984 -0.2000
 1263TIP3    H1 3753   1.845   6.588   1.210  0.6624 -0.8962 -1.5019
 1263TIP3    H2 3754   1.810   6.627   1.068  0.6862  1.4119 -0.9195
 1264TIP3   OH2 3755   6.396   4.815   0.001 -0.2035 -0.2951  0.2525
 1264TIP3    H1 3756   6.311   4.857   0.004  0.2641  0.6669  0.3246
 1264TIP3    H2 3757   6.384   4.732   0.046 -0.8066  0.3705  1.3429
 1265TIP3   OH2 3758   4.914   5.552   1.383  0.9214 -0.3320 -0.4039
 1265TIP3    H1 3759   4.875   5.588   1.463  0.0034 -0.9513 -0.5613
 1265TIP3    H2 3760   4.987   5.611   1.364  1.3812 -0.3854  1.0869
 1266TIP3   OH2 3761   1.986   2.407   1.839 -0.1246 -0.1408 -0.6302
 1266TIP3    H1 3762   1.913   2.469   1.838 -1.4980 -1.6689  0.1368
 1266TIP3    H2 3763   1.970   2.352   1.916  1.9829 -0.3843 -0.3100
 1267TIP3   OH2 3764   2.837   0.944   2.085  0.2747 -0.2345  0.7361
 1267TIP3    H1 3765   2.828   0.860   2.129 -2.5812  0.6164  2.0208
 1267TIP3    H2 3766   2.868   1.004   2.154  0.1308  0.2223  0.4072
 1268TIP3   OH2 3767   4.144   3.648   0.296  0.1143  0.7298  0.0469
 1268TIP3    H1 3768   4.179   3.691   0.218  1.0411 -1.8226 -1.0716
 1268TIP3    H2 3769   4.056   3.619   0.270  0.2519  0.2734  0.0764
 1269TIP3   OH2 3770   2.011   2.541   3.761  0.0473  1.1430 -0.8279
 1269TIP3    H1 3771   1.999   2.496   3.845  1.5623 -0.8487 -1.6033
 1269TIP3    H2 3772   1.937   2.602   3.756 -1.1298 -0.0168  1.0872
 1270TIP3   OH2 3773   6.086   6.714   4.298 -0.2720  0.4110 -0.3750
 1270TIP3    H1 3774   5.996   6.732   4.272 -0.3457 -0.4976 -0.7846
 1270TIP3    H2 3775   6.081   6.635   4.352  0.0969  1.2766  0.9666
 1271TIP3   OH2 3776   6.900   1.122   1.000 -0.3256  0.3556 -0.4362
 1271TIP3    H1 3777   6.845   1.049   0.973 -0.5837  0.4423 -0.1594
 1271TIP3    H2 3778   6.920   1.104   1.092 -0.1377  0.4763 -0.4520
 1272TIP3   OH2 3779   3.218   4.217   3.895 -0.0052 -0.0853  0.2745
 1272TIP3    H1 3780   3.180   4.130   3.904 -1.9469  0.8832  2.3173
 1272TIP3    H2 3781   3.274   4.227   3.972  1.6693 -0.1458 -0.8807
 1273TIP3   OH2 3782   5.676   3.696   4.583 -0.5490  0.6673 -0.4877
 1273TIP3    H1 3783   5.602   3.734   4.631 -1.6580 -0.5900 -1.1330
 1273TIP3    H2 3784   5.732   3.658   4.651 -0.1270  2.2042  0.0572
 1274TIP3   OH2 3785   0.287   2.568   3.639 -0.0378 -0.4701  0.5635
 1274TIP3    H1 3786   0.316   2.611   3.558 -0.4971 -1.6033 -0.2360
 1274TIP3    H2 3787   0.269   2.640   3.699  0.4143  0.4024 -0.3083
 1275TIP3   OH2 3788   1.070   3.951   3.455  0.4609  0.1195 -0.0748
 1275TIP3    H1 3789   1.107   3.876   3.501 -0.4632  0.1289  0.7164
 1275TIP3    H2 3790   1.119   4.026   3.490  0.8504 -0.0344 -0.2875
 1276TIP3   OH2 3791   3.811   1.324   0.957 -0.2333  0.2091 -0.1429
 1276TIP3    H1 3792   3.755   1.401   0.948  0.6243  1.2496  2.4624
 1276TIP3    H2 3793   3.887   1.343   0.902 -0.2830  0.9824  0.0408
 1277TIP3   OH2 3794   7.091   1.803   0.968  0.1574 -0.1074  0.1996
 1277TIP3    H1 3795   7.156   1.775   0.904  0.8532 -1.5498  1.4909
 1277TIP3    H2 3796   7.123   1.770   1.052 -1.5479  0.3354  1.0743
 1278TIP3   OH2 3797   7.067   1.883   4.645  0.1587  0.4418  0.4445
 1278TIP3    H1 3798   6.998   1.861   4.583  0.1514  0.8507  0.3068
 1278TIP3    H2 3799   7.148   1.873   4.596  0.2169 -0.3245  0.6894
 1279TIP3   OH2 3800   4.947   2.433   3.858  0.4571 -0.0874  0.2142
 1279TIP3    H1 3801   4.913   2.421   3.947  0.0272  1.1267  0.2280
 1279TIP3    H2 3802   5.039   2.457   3.871  0.7448 -1.1751  0.2660
 1280TIP3   OH2 3803   5.498   3.934   2.005  0.1156  0.1614 -0.5187
 1280TIP3    H1 3804   5.444   3.952   1.928 -0.8416  0.8303  0.2892
 1280TIP3    H2 3805   5.445   3.874   2.058  0.1697  0.7907  0.2642
 1281TIP3   OH2 3806   5.513   3.487   1.713  0.2805 -0.1474  0.3302
 1281TIP3    H1 3807   5.435   3.446   1.749 -1.5674  2.1876 -0.7509
 1281TIP3    H2 3808   5.488   3.511   1.623  1.2553  3.0080  0.7817
 1282TIP3   OH2 3809   1.232   2.998   0.409 -0.2521 -0.9388 -0.8098
 1282TIP3    H1 3810   1.313   3.020   0.362  0.4312  1.3900  1.2507
 1282TIP3    H2 3811   1.261   2.980   0.498 -1.9457 -0.8916 -0.2224
 1283TIP3   OH2 3812   0.071   2.395   0.467 -0.0826 -0.0789 -0.1958
 1283TIP3    H1 3813   0.125   2.403   0.388 -0.4889  0.7766 -0.3974
 1283TIP3    H2 3814   0.130   2.417   0.539 -0.1375  0.7685 -0.4087
 1284TIP3   OH2 3815   0.121   1.729   1.137  0.2389 -0.2794 -0.0622
 1284TIP3    H1 3816   0.174   1.763   1.064  0.5113 -0.4881  0.0334
 1284TIP3    H2 3817   0.162   1.645   1.158 -1.1179 -1.2464 -1.0690
 1285TIP3   OH2 3818   2.789   5.311   3.427  0.0630 -0.0761  0.2134
 1285TIP3    H1 3819   2.797   5.385   3.487  0.3485 -0.3239  0.4853
 1285TIP3    H2 3820   2.696   5.289   3.428  0.2747 -1.1053  1.8311
 1286TIP3   OH2 3821   1.858   5.121   3.825  0.0318  0.3277  0.2691
 1286TIP3    H1 3822   1.789   5.088   3.768  0.9171 -0.5416 -0.3403
 1286TIP3    H2 3823   1.901   5.042   3.859  0.7746  0.8466  0.5687
 1287TIP3   OH2 3824   3.070   0.866   1.870  0.3029 -0.2602  0.3233
 1287TIP3    H1 3825   3.000   0.929   1.856 -0.4649 -0.7856  1.6293
 1287TIP3    H2 3826   3.140   0.916   1.911 -0.2627 -0.2000  1.2553
 1288TIP3   OH2 3827   2.454   5.117   1.421 -0.1644 -0.7362 -0.4071
 1288TIP3    H1 3828   2.505   5.196   1.409 -0.9978 -0.1875 -0.4328
 1288TIP3    H2 3829   2.392   5.118   1.348  0.7628 -2.1823 -1.2715
 1289TIP3   OH2 3830   0.110   1.519   5.189  0.2037  0.5218 -0.1652
 1289TIP3    H1 3831   0.111   1.607   5.227  2.5174  0.1154  0.8882
 1289TIP3    H2 3832   0.179   1.520   5.123 -0.6100 -0.1584 -1.0499
 1290TIP3   OH2 3833   5.341   4.963   1.096  0.3932  0.4658  0.4686
 1290TIP3    H1 3834   5.391   4.982   1.176 -1.0513  0.2935  1.4541
 1290TIP3    H2 3835   5.313   5.048   1.064 -0.3097  0.4529  1.0247
 1291TIP3   OH2 3836   2.968   0.697   3.783 -0.6533  0.0155  0.3866
 1291TIP3    H1 3837   2.881   0.683   3.821 -0.5578 -1.3638  0.1368
 1291TIP3    H2 3838   2.997   0.780   3.821 -2.2386  0.7169  0.1497
 1292TIP3   OH2 3839   0.121   0.748   3.831  0.0721  0.3632 -0.1133
 1292TIP3    H1 3840   0.197   0.742   3.890 -0.5908 -0.2870  0.7134
 1292TIP3    H2 3841   0.054   0.792   3.883 -0.2667  0.5118 -0.6690
 1293TIP3   OH2 3842   4.741   2.558   3.116 -0.2265  0.9472 -0.1429
 1293TIP3    H1 3843   4.756   2.527   3.205  0.8827 -1.0878 -0.9855
 1293TIP3    H2 3844   4.668   2.505   3.084 -1.3472  2.4181 -0.1341
 1294TIP3   OH2 3845   1.060   0.425   4.127  0.1467 -0.0886  0.2265
 1294TIP3    H1 3846   1.155   0.413   4.121  0.1309 -0.2804  0.3587
 1294TIP3    H2 3847   1.031   0.434   4.036  0.4396  1.1501  0.2315
 1295TIP3   OH2 3848   4.529   2.201   0.913 -0.2691  0.3655  0.1122
 1295TIP3    H1 3849   4.557   2.286   0.947  0.0320 -0.0518  0.9463
 1295TIP3    H2 3850   4.468   2.167   0.979 -1.8212  0.7113 -1.0758
 1296TIP3   OH2 3851   2.148   4.934   0.274 -0.0401 -0.8890 -0.7161
 1296TIP3    H1 3852   2.235   4.972   0.281 -0.4099 -0.1769  0.2829
 1296TIP3    H2 3853   2.104   4.988   0.208 -0.6876  0.7512  0.9715
 1297TIP3   OH2 3854   7.068   0.041   1.293  0.4999 -0.4186 -0.2414
 1297TIP3    H1 3855   7.073  -0.042   1.246 -1.0856 -0.0832 -1.0673
 1297TIP3    H2 3856   7.000   0.029   1.359  0.2179  0.2176 -0.4021
 1298TIP3   OH2 3857   3.833   6.156   4.292 -0.0693 -0.1353 -0.3544
 1298TIP3    H1 3858   3.847   6.222   4.360  1.6809 -1.1610  0.3307
 1298TIP3    H2 3859   3.870   6.076   4.328 -1.3140 -1.3079 -1.5511
 1299TIP3   OH2 3860   7.150   6.617   1.582  0.0438 -0.4485 -0.0746
 1299TIP3    H1 3861   7.091   6.690   1.603 -0.5897 -0.8845 -0.2951
 1299TIP3    H2 3862   7.093   6.540   1.584  0.4130 -0.7680 -1.2367
 1300TIP3   OH2 3863   3.541   2.688   4.179  0.0386  0.2097  0.0275
 1300TIP3    H1 3864   3.543   2.751   4.108  0.1262 -0.4993 -0.6074
 1300TIP3    H2 3865   3.576   2.736   4.255  0.3051  0.8491 -0.4925
 1301TIP3   OH2 3866   4.414   3.206   0.925  0.0213  0.4377  0.0528
 1301TIP3    H1 3867   4.419   3.260   1.004  0.9403 -0.5085  0.6579
 1301TIP3    H2 3868   4.322   3.177   0.922  0.2185 -0.4394  1.4269
 1302TIP3   OH2 3869   0.931   2.967   4.960  0.3888  0.1701  0.2556
 1302TIP3    H1 3870   0.960   2.881   4.929  0.5472 -0.4512  2.0005
 1302TIP3    H2 3871   0.887   2.948   5.044 -0.1340  1.7267  0.3607
 1303TIP3   OH2 3872   5.808   0.444   3.871 -0.0017 -0.0970 -1.0145
 1303TIP3    H1 3873   5.897   0.434   3.837  1.5190  1.9263  1.9485
 1303TIP3    H2 3874   5.756   0.467   3.794  2.5531  1.2566 -2.4821
 1304TIP3   OH2 3875   2.291   0.695   4.960 -0.5709 -0.1732 -0.0795
 1304TIP3    H1 3876   2.260   0.610   4.929  1.2549 -0.0694 -2.4774
 1304TIP3    H2 3877   2.211   0.746   4.974 -1.6216 -1.2140 -1.9246
 1305TIP3   OH2 3878   5.906   3.649   2.931 -0.5925 -0.0128 -0.1492
 1305TIP3    H1 3879   5.820   3.661   2.891 -0.5009 -0.0061 -0.3431
 1305TIP3    H2 3880   5.968   3.653   2.858 -0.5288 -1.3452 -0.1825
 1306TIP3   OH2 3881   5.896   1.680   3.445  0.0098 -0.1127  0.0579
 1306TIP3    H1 3882   5.802   1.697   3.438  0.2155  0.6021 -1.3899
 1306TIP3    H2 3883   5.926   1.741   3.512 -0.4853 -0.0346  0.2149
 1307TIP3   OH2 3884   5.293   2.895   2.432 -0.0035 -0.2738 -0.3223
 1307TIP3    H1 3885   5.291   2.853   2.518 -1.3852  0.9253  0.2571
 1307TIP3    H2 3886   5.209   2.939   2.424  0.6821  0.8748 -1.6709
 1308TIP3   OH2 3887   0.218   0.813   0.274  0.3849  0.4732  0.4674
 1308TIP3    H1 3888   0.277   0.864   0.329  5.0385 -2.0726 -1.5445
 1308TIP3    H2 3889   0.209   0.865   0.194 -1.0022  1.2675  1.1047
 1309TIP3   OH2 3890   2.876   6.178   2.184 -0.4010 -0.4176  0.6982
 1309TIP3    H1 3891   2.915   6.234   2.117 -0.7894 -1.2331 -0.2490
 1309TIP3    H2 3892   2.946   6.118   2.209 -1.0333 -2.1653 -1.3146
 1310TIP3   OH2 3893   5.558   1.403   2.435  0.5216  0.1889 -0.3192
 1310TIP3    H1 3894   5.598   1.487   2.455 -1.3570  0.5595  2.5030
 1310TIP3    H2 3895   5.619   1.338   2.469  1.0940  0.4704 -0.7882
 1311TIP3   OH2 3896   3.530   4.415   2.313 -0.6082  0.5710  0.0469
 1311TIP3    H1 3897   3.482   4.401   2.395 -2.1956 -0.2402 -0.9663
 1311TIP3    H2 3898   3.525   4.510   2.298 -0.3315  0.7188  0.8715
 1312TIP3   OH2 3899   4.000   4.908   2.320  0.2047 -0.7451  0.2154
 1312TIP3    H1 3900   4.070   4.970   2.338 -0.2414  0.1196 -0.9439
 1312TIP3    H2 3901   3.929   4.934   2.379 -0.6507  1.0467 -1.4986
 1313TIP3   OH2 3902   6.187   3.773   1.869 -0.3882 -0.1461  0.2708
 1313TIP3    H1 3903   6.277   3.794   1.844 -0.1285 -2.2896 -0.8774
 1313TIP3    H2 3904   6.187   3.678   1.878 -2.4136 -0.1255  0.8752
 1314TIP3   OH2 3905   4.042   3.330   0.902  0.6902  0.1189  0.2250
 1314TIP3    H1 3906   4.047   3.399   0.836  1.1978 -0.3918 -0.2761
 1314TIP3    H2 3907   4.076   3.252   0.859 -0.5897 -0.6398  0.5349
 1315TIP3   OH2 3908   4.754   5.921   3.145  0.0872  0.1774  0.2804
 1315TIP3    H1 3909   4.822   5.977   3.182 -0.0022 -0.7805  2.0402
 1315TIP3    H2 3910   4.675   5.976   3.145  0.1270  0.2570  1.4494
 1316TIP3   OH2 3911   6.196   0.537   2.024 -0.3636 -0.1670 -0.6042
 1316TIP3    H1 3912   6.156   0.472   2.082  0.8726 -0.4421 -0.0404
 1316TIP3    H2 3913   6.181   0.621   2.068  2.1823 -0.5257  1.1524
 1317TIP3   OH2 3914   4.188   4.218   5.369  0.1458  0.2617 -0.5627
 1317TIP3    H1 3915   4.128   4.182   5.304 -0.7268  1.4173 -0.4369
 1317TIP3    H2 3916   4.269   4.236   5.321 -0.1519  0.1835 -1.1006
 1318TIP3   OH2 3917   5.803   1.788   3.079 -0.0078  0.2898 -0.1718
 1318TIP3    H1 3918   5.749   1.831   3.014  2.6932  2.3993 -1.2276
 1318TIP3    H2 3919   5.826   1.857   3.141 -0.6796 -1.1687  1.8241
 1319TIP3   OH2 3920   5.461   0.406   1.737 -0.7907 -0.5243  0.3194
 1319TIP3    H1 3921   5.552   0.391   1.763 -0.5224 -1.6123 -1.1131
 1319TIP3    H2 3922   5.443   0.496   1.764  1.0462  0.0769 -0.2927
 1320TIP3   OH2 3923   6.640   6.668   2.173  0.1922 -0.3377  0.8051
 1320TIP3    H1 3924   6.726   6.680   2.135 -0.2192 -1.8631 -0.7377
 1320TIP3    H2 3925   6.580   6.715   2.115 -0.1030  0.1487  1.4862
 1321TIP3   OH2 3926   6.119   2.720   3.143 -0.3415 -0.0026  0.6032
 1321TIP3    H1 3927   6.162   2.710   3.058 -2.9555 -1.0938 -0.7219
 1321TIP3    H2 3928   6.101   2.813   3.150  1.5350  0.3689  0.8771
 1322TIP3   OH2 3929   6.373   2.823   2.327 -0.3740  0.1415 -0.0456
 1322TIP3    H1 3930   6.434   2.785   2.389 -0.3176 -1.3889 -1.0055
 1322TIP3    H2 3931   6.290   2.826   2.374 -0.0209  0.3641  0.5797
 1323TIP3   OH2 3932   5.849   5.655   0.360  0.0238  0.2778  0.2744
 1323TIP3    H1 3933   5.781   5.649   0.426 -0.9723 -2.8092 -0.8811
 1323TIP3    H2 3934   5.802   5.674   0.279  0.6511 -0.5869 -0.3133
 1324TIP3   OH2 3935   6.043   1.968   0.433 -0.0521  0.0215  0.2339
 1324TIP3    H1 3936   6.056   1.999   0.343 -2.3024 -0.6539 -0.3924
 1324TIP3    H2 3937   6.039   1.873   0.425  0.7948 -0.1222  1.2499
 1325TIP3   OH2 3938   4.290   4.949   5.678 -0.0306  0.0887  0.1951
 1325TIP3    H1 3939   4.300   4.954   5.583 -2.1375  0.9632 -0.0288
 1325TIP3    H2 3940   4.252   5.033   5.703 -0.4476 -0.5093  1.6687
 1326TIP3   OH2 3941   1.210   2.915   4.747 -0.3517 -0.1526  0.2553
 1326TIP3    H1 3942   1.237   2.823   4.756  0.6249  0.1588  0.5811
 1326TIP3    H2 3943   1.291   2.965   4.753 -0.6363  0.6482 -1.7873
 1327TIP3   OH2 3944   4.564   1.184   4.232  0.2502  0.6071  0.1902
 1327TIP3    H1 3945   4.471   1.171   4.216  0.1734 -1.1900  1.6813
 1327TIP3    H2 3946   4.567   1.250   4.302  0.1226  0.9726 -0.1477
 1328TIP3   OH2 3947   2.590   0.851   3.809 -0.5244 -0.2291 -0.2548
 1328TIP3    H1 3948   2.577   0.900   3.890 -0.8707  0.1552 -0.5457
 1328TIP3    H2 3949   2.667   0.890   3.769 -0.0886 -0.7047  0.0978
 1329TIP3   OH2 3950   0.059   3.510   0.044 -0.3729  0.0409 -0.5061
 1329TIP3    H1 3951  -0.001   3.571   0.087  0.5899 -0.0085  0.9987
 1329TIP3    H2 3952   0.014   3.426   0.046  0.5051 -0.5033  2.6554
 1330TIP3   OH2 3953   2.752   1.128   5.178  0.5402 -0.0440  0.7858
 1330TIP3    H1 3954   2.826   1.174   5.218  3.4176 -2.2875 -1.5263
 1330TIP3    H2 3955   2.765   1.036   5.202  1.0496 -1.1208 -2.9383
 1331TIP3   OH2 3956   6.253   6.291   5.479 -0.2365  0.0132  0.3699
 1331TIP3    H1 3957   6.163   6.323   5.465 -0.4211 -0.6986 -0.1345
 1331TIP3    H2 3958   6.281   6.261   5.392  0.5403  0.3435  0.5015
 1332TIP3   OH2 3959   1.962   1.000   5.874  0.7492  0.0224 -0.2958
 1332TIP3    H1 3960   1.979   0.907   5.889 -2.7581 -0.8273 -0.7559
 1332TIP3    H2 3961   1.972   1.012   5.780  0.8661  0.0522 -0.2804
 1333TIP3   OH2 3962   4.957   3.361   3.572 -0.5853 -0.6608  0.0079
 1333TIP3    H1 3963   4.956   3.335   3.480 -1.5559 -0.8003  0.0469
 1333TIP3    H2 3964   4.956   3.456   3.571 -0.8323 -0.6666 -0.1205
 1334TIP3   OH2 3965   6.406   6.030   2.077 -0.4148  0.5284  0.1467
 1334TIP3    H1 3966   6.392   5.958   2.016  0.1054  0.8273 -0.3422
 1334TIP3    H2 3967   6.451   6.097   2.025  1.2024  0.2954  1.1660
 1335TIP3   OH2 3968   3.361   4.701   0.380  0.7422  0.2610  0.0434
 1335TIP3    H1 3969   3.357   4.615   0.421 -0.7147 -1.2891 -3.0406
 1335TIP3    H2 3970   3.274   4.739   0.395 -1.5756 -2.2112 -4.8835
 1336TIP3   OH2 3971   0.378   2.117   0.200  0.4673  0.4377  0.6465
 1336TIP3    H1 3972   0.370   2.094   0.292  0.3231 -1.7466  0.1451
 1336TIP3    H2 3973   0.325   2.052   0.154  0.6439  1.3926 -0.9914
 1337TIP3   OH2 3974   2.023   1.683   3.676  0.1362 -0.2885  0.1492
 1337TIP3    H1 3975   2.060   1.595   3.672 -1.0839 -0.7872 -1.7180
 1337TIP3    H2 3976   2.043   1.714   3.764  0.8773 -2.3004  0.7451
 1338TIP3   OH2 3977   3.051   6.336   3.755 -0.5124  0.1533  0.3785
 1338TIP3    H1 3978   3.079   6.250   3.788  0.5415 -0.3976 -1.7944
 1338TIP3    H2 3979   3.099   6.347   3.673 -2.0163  2.0358 -0.3190
 1339TIP3   OH2 3980   1.505   4.515   4.521  0.3563  0.2851 -0.2694
 1339TIP3    H1 3981   1.576   4.571   4.491  1.2178 -0.8579 -0.4305
 1339TIP3    H2 3982   1.523   4.500   4.614  0.5848 -0.3559 -0.4084
 1340TIP3   OH2 3983   5.077   0.479   5.158  0.6610  0.1506  0.3159
 1340TIP3    H1 3984   5.082   0.385   5.172 -0.2040  0.3690  2.4202
 1340TIP3    H2 3985   4.987   0.494   5.129  0.6517  0.3730  0.4582
 1341TIP3   OH2 3986   2.693   3.085   2.844 -0.0115  0.3025  0.4160
 1341TIP3    H1 3987   2.636   3.123   2.777 -0.5721 -0.2342  0.5791
 1341TIP3    H2 3988   2.648   3.004   2.871  1.3262 -0.6728 -0.1792
 1342TIP3   OH2 3989   1.807   5.050   1.217  0.6268 -0.3936 -0.3485
 1342TIP3    H1 3990   1.759   5.029   1.297  1.5400 -1.3948 -0.0300
 1342TIP3    H2 3991   1.796   5.144   1.205 -0.5598 -0.4464  0.2591
 1343TIP3   OH2 3992   1.161   1.148   0.073 -0.1665 -0.1802 -0.5788
 1343TIP3    H1 3993   1.191   1.208   0.004  0.1354  0.2647 -0.0764
 1343TIP3    H2 3994   1.236   1.090   0.088 -0.1179 -0.0782 -0.4185
 1344TIP3   OH2 3995   1.947   6.190   2.404  0.1320 -0.2981  0.1338
 1344TIP3    H1 3996   1.862   6.166   2.367 -0.8103  2.7960  0.0037
 1344TIP3    H2 3997   2.011   6.154   2.342 -1.0343 -2.1839 -0.0739
 1345TIP3   OH2 3998   4.802   2.367   1.415 -0.0606  0.0486 -0.8886
 1345TIP3    H1 3999   4.845   2.452   1.409  0.3514 -0.2019 -1.6327
 1345TIP3    H2 4000   4.859   2.315   1.471 -0.5086  0.3777 -0.1255
 1346TIP3   OH2 4001   7.055   5.860   0.991  0.1646 -0.3059  0.1199
 1346TIP3    H1 4002   7.107   5.835   0.914 -0.6546 -1.8895  0.0285
 1346TIP3    H2 4003   6.991   5.922   0.957 -0.9840 -1.9105 -0.7995
 1347TIP3   OH2 4004   4.881   3.586   0.405 -0.0744 -0.3128  0.2364
 1347TIP3    H1 4005   4.817   3.588   0.334  1.0533  1.8504 -0.8278
 1347TIP3    H2 4006   4.942   3.517   0.379 -1.5350 -1.9354  0.9292
 1348TIP3   OH2 4007   5.086   2.118   4.761  0.2433 -0.1196  1.1401
 1348TIP3    H1 4008   5.123   2.175   4.829 -0.1162 -0.1438  1.3628
 1348TIP3    H2 4009   5.124   2.149   4.679  1.2542 -0.5518  1.4271
 1349TIP3   OH2 4010   6.690   5.505   4.344 -0.1176 -0.0550 -0.0244
 1349TIP3    H1 4011   6.756   5.515   4.276 -0.1486 -0.3912 -0.1027
 1349TIP3    H2 4012   6.607   5.511   4.297 -0.1719  1.4727  0.2122
 1350TIP3   OH2 4013   3.490   5.686   5.792  0.3030 -0.2184  0.3835
 1350TIP3    H1 4014   3.508   5.745   5.865  0.0539 -0.5812  0.7489
 1350TIP3    H2 4015   3.439   5.614   5.832  1.2751 -1.0794  0.1129
 1351TIP3   OH2 4016   1.714   6.039   1.649 -0.0992  0.2457  0.2053
 1351TIP3    H1 4017   1.808   6.020   1.646 -0.0403  0.3471  1.1299
 1351TIP3    H2 4018   1.705   6.105   1.718 -0.3981  3.0937 -2.3596
 1352TIP3   OH2 4019   6.868   5.053   2.193  0.4841  0.4266  0.4131
 1352TIP3    H1 4020   6.949   5.097   2.165  0.8709 -1.3656 -1.5637
 1352TIP3    H2 4021   6.897   4.967   2.223 -0.7168 -0.6041 -1.2172
 1353TIP3   OH2 4022   0.220   2.551   5.775 -0.2753 -0.5408  0.2365
 1353TIP3    H1 4023   0.231   2.558   5.869 -1.5215  0.8033  0.3132
 1353TIP3    H2 4024   0.143   2.605   5.755  0.9233  0.5687 -1.7399
 1354TIP3   OH2 4025   6.244   4.455   4.453  0.6088 -0.1981  0.0425
 1354TIP3    H1 4026   6.312   4.396   4.485  0.6338  0.3520  1.0903
 1354TIP3    H2 4027   6.197   4.482   4.533  1.8309  2.6902 -0.0772
 1355TIP3   OH2 4028   0.119   5.659   2.857 -0.2999 -0.0503  0.7807
 1355TIP3    H1 4029   0.071   5.638   2.777 -0.2173  2.5538 -0.0278
 1355TIP3    H2 4030   0.154   5.746   2.842  1.2026 -0.1889  3.0028
 1356TIP3   OH2 4031   5.758   2.121   0.757 -0.1483 -0.3560 -0.1034
 1356TIP3    H1 4032   5.746   2.197   0.701  0.4111 -1.0294 -1.1871
 1356TIP3    H2 4033   5.834   2.143   0.811 -0.6086  0.2503  0.3042
 1357TIP3   OH2 4034   4.801   2.709   0.621 -0.3133  0.0062  0.2816
 1357TIP3    H1 4035   4.868   2.774   0.598 -1.9856  2.5314  2.0311
 1357TIP3    H2 4036   4.790   2.657   0.541 -0.0772  2.9826 -1.8616
 1358TIP3   OH2 4037   3.282   0.888   0.841 -0.2893 -0.3175  0.1876
 1358TIP3    H1 4038   3.262   0.981   0.833 -1.2184 -0.5326 -0.0904
 1358TIP3    H2 4039   3.350   0.873   0.774 -0.4866  0.0567 -0.1011
 1359TIP3   OH2 4040   4.997   2.036   1.076  0.0802 -0.1775  0.1816
 1359TIP3    H1 4041   5.041   1.981   1.012 -1.1332 -0.9300 -0.0346
 1359TIP3    H2 4042   4.950   1.975   1.132 -0.4130  0.5744  0.6064
 1360TIP3   OH2 4043   1.341   3.352   4.514  0.0415  0.3164 -0.2252
 1360TIP3    H1 4044   1.419   3.304   4.486  0.0458 -0.2133  0.6647
 1360TIP3    H2 4045   1.345   3.351   4.609 -1.3357 -0.1891 -0.1517
 1361TIP3   OH2 4046   6.369   2.973   5.366  0.0018  1.3636 -0.3037
 1361TIP3    H1 4047   6.455   3.006   5.341  0.3793  0.2381 -0.5776
 1361TIP3    H2 4048   6.377   2.952   5.459 -0.8126  3.7388  0.3548
 1362TIP3   OH2 4049   6.144   3.632   3.249  0.1546  0.2959  0.1021
 1362TIP3    H1 4050   6.191   3.642   3.167 -0.8498  0.2367 -0.4979
 1362TIP3    H2 4051   6.055   3.609   3.223  0.4376 -2.4492  1.2290
 1363TIP3   OH2 4052   3.780   0.147   0.881 -0.7947 -0.4546 -0.3342
 1363TIP3    H1 4053   3.802   0.071   0.935  0.7485 -0.9530 -1.6135
 1363TIP3    H2 4054   3.863   0.175   0.842 -0.7613  3.4980  2.0234
 1364TIP3   OH2 4055   4.944   2.792   4.687  0.1197  0.4722  0.0540
 1364TIP3    H1 4056   5.010   2.723   4.689  0.1606  0.5246  1.7269
 1364TIP3    H2 4057   4.986   2.866   4.731 -1.0593  0.4790  1.2252
 1365TIP3   OH2 4058   5.607   0.066   5.499 -0.3953 -0.0696  0.3238
 1365TIP3    H1 4059   5.532   0.124   5.512 -0.2514 -0.1613  1.7881
 1365TIP3    H2 4060   5.682   0.114   5.535  0.0384 -0.4339 -0.0826
 1366TIP3   OH2 4061   5.020   1.753   1.138 -0.2988 -0.2904 -0.5114
 1366TIP3    H1 4062   5.061   1.758   1.052 -0.4235  1.0307 -0.5138
 1366TIP3    H2 4063   4.959   1.680   1.132 -0.7356  0.1634 -1.7237
 1367TIP3   OH2 4064   7.165   0.150   0.431  0.1362 -0.1302  0.2099
 1367TIP3    H1 4065   7.111   0.230   0.435  0.4876  0.1579 -0.5797
 1367TIP3    H2 4066   7.197   0.138   0.520  0.5898  0.9729  0.2051
 1368TIP3   OH2 4067   1.498   4.004   3.725 -0.3396  1.2174 -0.2223
 1368TIP3    H1 4068   1.520   3.912   3.710 -1.3363  0.8971  0.2045
 1368TIP3    H2 4069   1.554   4.031   3.798  1.6802  1.6566 -1.8480
 1369TIP3   OH2 4070   4.056   5.917   3.771  0.2388 -0.1398 -0.7648
 1369TIP3    H1 4071   4.146   5.921   3.804 -0.2307  0.7206  0.4982
 1369TIP3    H2 4072   4.046   5.997   3.720  0.0165  0.0580 -0.4145
 1370TIP3   OH2 4073   3.599   5.243   2.853  0.0112  0.1086 -0.4345
 1370TIP3    H1 4074   3.558   5.157   2.842 -1.4414  0.8688 -1.2605
 1370TIP3    H2 4075   3.693   5.227   2.842 -0.2427 -1.3523 -0.6119
 1371TIP3   OH2 4076   4.615   4.000   4.468 -0.2029 -0.0801  0.0520
 1371TIP3    H1 4077   4.646   4.090   4.478 -1.3130  0.1320  2.0915
 1371TIP3    H2 4078   4.553   4.004   4.395  1.0947  0.4077 -1.0562
 1372TIP3   OH2 4079   6.407   2.113   4.070  0.3373  0.1953  0.1208
 1372TIP3    H1 4080   6.422   2.124   4.164  2.7097  0.4213 -0.2309
 1372TIP3    H2 4081   6.491   2.136   4.029 -0.8282  0.7708 -2.1102
 1373TIP3   OH2 4082   1.371   1.111   0.475 -0.8985  0.1312  0.0135
 1373TIP3    H1 4083   1.365   1.204   0.452 -1.5505  0.5025  1.6093
 1373TIP3    H2 4084   1.299   1.070   0.427 -0.9909  0.5498 -0.2119
 1374TIP3   OH2 4085   1.065   6.353   0.908 -0.3906  0.0288  0.2764
 1374TIP3    H1 4086   1.006   6.408   0.856  1.1708  1.9977  0.4536
 1374TIP3    H2 4087   1.146   6.351   0.858  0.4986  0.2794  1.6560
 1375TIP3   OH2 4088   6.758   4.372   4.294  0.0327  0.0571  0.1312
 1375TIP3    H1 4089   6.782   4.304   4.231  1.2188  1.7777 -1.3891
 1375TIP3    H2 4090   6.736   4.448   4.240 -0.5834  1.1062  1.7762
 1376TIP3   OH2 4091   1.328   0.151   5.554  0.7533  0.6786 -0.7618
 1376TIP3    H1 4092   1.398   0.108   5.504  1.4157  0.0118  0.6688
 1376TIP3    H2 4093   1.269   0.080   5.578  1.4713  0.6139  1.0042
 1377TIP3   OH2 4094   1.494   4.643   2.602  0.0340  0.2157 -0.3837
 1377TIP3    H1 4095   1.470   4.596   2.682  1.9968 -0.4920 -0.1488
 1377TIP3    H2 4096   1.440   4.722   2.604 -1.7869 -0.9573  0.3308
 1378TIP3   OH2 4097   3.742   3.116   3.834  0.2667 -0.5808  0.0455
 1378TIP3    H1 4098   3.773   3.089   3.747 -0.1764 -2.1523  0.3549
 1378TIP3    H2 4099   3.648   3.131   3.822  0.7358  2.7368 -0.5422
 1379TIP3   OH2 4100   2.269   1.593   0.859  0.2408 -0.3909  0.7122
 1379TIP3    H1 4101   2.249   1.528   0.926 -0.8147  0.3076  1.1086
 1379TIP3    H2 4102   2.210   1.571   0.786 -1.6788  1.3228  1.6522
 1380TIP3   OH2 4103   3.336   5.734   0.629 -0.4564 -0.0444 -0.1880
 1380TIP3    H1 4104   3.432   5.740   0.626 -0.4315  3.0506  2.0848
 1380TIP3    H2 4105   3.306   5.787   0.555 -0.2839  1.7306  0.9307
 1381TIP3   OH2 4106   1.799   4.015   5.307  0.2597  0.3543 -0.8496
 1381TIP3    H1 4107   1.868   3.986   5.246  1.4273  1.5951 -0.1796
 1381TIP3    H2 4108   1.753   3.934   5.331  0.3824 -0.2779 -2.6326
 1382TIP3   OH2 4109   0.355   5.173   3.031 -0.3479 -0.7254 -0.5546
 1382TIP3    H1 4110   0.357   5.201   2.940 -3.8616  0.3032 -0.4424
 1382TIP3    H2 4111   0.360   5.078   3.028  0.3035 -0.6673 -1.7412
 1383TIP3   OH2 4112   3.131   5.112   0.461  0.1216  0.3733  0.4909
 1383TIP3    H1 4113   3.185   5.056   0.405 -0.4568  0.2547  0.0477
 1383TIP3    H2 4114   3.063   5.146   0.403  1.5593  3.1208  0.2229
 1384TIP3   OH2 4115   2.458   2.762   1.691 -0.2994  0.5318 -0.4897
 1384TIP3    H1 4116   2.412   2.688   1.731 -0.5237  1.0736  0.2909
 1384TIP3    H2 4117   2.480   2.819   1.765  1.5581  0.3365 -0.8365
 1385TIP3   OH2 4118   2.956   3.722   3.419 -0.4732 -0.4882 -0.1980
 1385TIP3    H1 4119   2.934   3.806   3.378  0.8191 -0.4445 -0.8538
 1385TIP3    H2 4120   2.873   3.674   3.422 -1.2159  0.7550  0.0775
 1386TIP3   OH2 4121   4.513   1.812   0.561 -0.2175  0.0668  1.2537
 1386TIP3    H1 4122   4.504   1.902   0.531 -0.5498  0.1227  1.5282
 1386TIP3    H2 4123   4.608   1.799   0.569 -0.2024  0.7853  2.4067
 1387TIP3   OH2 4124   0.285   2.459   0.633  0.1399 -0.2222  0.0072
 1387TIP3    H1 4125   0.330   2.376   0.652  0.8621  0.4010  1.0778
 1387TIP3    H2 4126   0.239   2.481   0.713  1.9764  1.6616  0.6396
 1388TIP3   OH2 4127   4.383   6.726   4.391 -0.8788  0.2330  0.5541
 1388TIP3    H1 4128   4.458   6.670   4.412 -1.9813 -1.0665  1.1534
 1388TIP3    H2 4129   4.359   6.768   4.473 -1.8521 -0.6960  0.7712
 1389TIP3   OH2 4130   5.450   4.067   0.806 -0.0408 -0.1105 -0.3088
 1389TIP3    H1 4131   5.534   4.049   0.764  0.8324 -1.1983  1.7324
 1389TIP3    H2 4132   5.445   4.163   0.810  0.3545 -0.0091 -1.8070
 1390TIP3   OH2 4133   6.479   4.768   4.631 -0.1755  0.1548  0.3567
 1390TIP3    H1 4134   6.554   4.827   4.642 -0.0599 -0.2708  2.2066
 1390TIP3    H2 4135   6.506   4.706   4.564  0.4815  0.9816 -0.1678
 1391TIP3   OH2 4136   5.184   4.515   0.936  0.6957 -0.3771 -0.1958
 1391TIP3    H1 4137   5.176   4.604   0.970  0.3294 -0.6204  0.3549
 1391TIP3    H2 4138   5.135   4.461   0.997  1.6184 -1.0778 -0.0605
 1392TIP3   OH2 4139   5.312   2.045   3.862 -0.6239  0.3455  0.5566
 1392TIP3    H1 4140   5.259   1.968   3.883 -0.4511  0.3264  0.9410
 1392TIP3    H2 4141   5.328   2.086   3.947  2.0852 -1.0437  0.8425
 1393TIP3   OH2 4142   0.323   5.853   5.047  0.0016  0.0367 -0.0091
 1393TIP3    H1 4143   0.352   5.837   4.957 -0.2527  1.3301 -0.3519
 1393TIP3    H2 4144   0.367   5.786   5.099  0.9043 -0.1468 -0.9752
 1394TIP3   OH2 4145   1.336   0.252   1.524  0.0650  0.3308  0.0420
 1394TIP3    H1 4146   1.245   0.274   1.504 -0.0010  0.7739  0.8237
 1394TIP3    H2 4147   1.356   0.299   1.604  0.3488 -1.3456  1.0066
 1395TIP3   OH2 4148   2.140   6.010   4.762  0.3120 -0.2558  0.3308
 1395TIP3    H1 4149   2.235   6.010   4.777  0.2525  0.3880  0.7446
 1395TIP3    H2 4150   2.110   6.094   4.798  0.0151  1.0534 -2.7067
 1396TIP3   OH2 4151   2.117   4.311   2.964  0.3096  0.4581  0.0079
 1396TIP3    H1 4152   2.056   4.265   2.905  0.5019  0.3052 -0.0700
 1396TIP3    H2 4153   2.104   4.404   2.943  0.4410  0.3986 -0.3382
 1397TIP3   OH2 4154   3.849   4.925   3.874 -0.8061  0.0136  0.1364
 1397TIP3    H1 4155   3.822   4.966   3.956 -1.9533  0.6159 -0.5242
 1397TIP3    H2 4156   3.773   4.933   3.816 -0.6758 -2.0715 -0.3887
 1398TIP3   OH2 4157   0.080   2.566   0.826  0.5238  0.4239  0.5063
 1398TIP3    H1 4158   0.064   2.613   0.907  0.8004  1.0247  0.2161
 1398TIP3    H2 4159   0.029   2.613   0.760 -1.1968 -1.1439  0.6426
 1399TIP3   OH2 4160   0.996   4.634   1.747  0.1391  0.2771 -0.7142
 1399TIP3    H1 4161   0.970   4.726   1.756  0.8744  0.3835  0.8335
 1399TIP3    H2 4162   1.047   4.616   1.827  0.0706 -1.4578 -1.0178
 1400TIP3   OH2 4163   7.221   5.769   0.431  0.2167 -0.6835  0.2808
 1400TIP3    H1 4164   7.142   5.723   0.458  1.5354 -1.6577  2.8807
 1400TIP3    H2 4165   7.193   5.859   0.415 -1.8660 -1.5892 -1.8283
 1401TIP3   OH2 4166   4.855   0.777   3.496 -0.1244  0.5486  0.2170
 1401TIP3    H1 4167   4.831   0.860   3.456  0.3891  0.9895  0.8124
 1401TIP3    H2 4168   4.832   0.787   3.588 -0.1386 -0.0026  0.2772
 1402TIP3   OH2 4169   0.864   1.183   5.815  0.6250  0.1895  0.2209
 1402TIP3    H1 4170   0.898   1.216   5.732  0.1168 -0.1879 -0.1388
 1402TIP3    H2 4171   0.933   1.204   5.879  0.8974  0.7277 -0.2383
 1403TIP3   OH2 4172   4.790   1.766   0.592  0.6252  0.1916  0.2542
 1403TIP3    H1 4173   4.854   1.755   0.522  2.0256  0.8649  1.3769
 1403TIP3    H2 4174   4.829   1.831   0.650  0.1868 -1.3732  2.4118
 1404TIP3   OH2 4175   0.258   2.239   2.015  0.4465 -0.2127 -0.0281
 1404TIP3    H1 4176   0.195   2.169   1.999 -0.2184  0.2584  0.5073
 1404TIP3    H2 4177   0.205   2.315   2.040  1.2361  0.0967  0.7645
 1405TIP3   OH2 4178   0.805   2.119   5.353 -0.6149 -0.2058  0.2188
 1405TIP3    H1 4179   0.877   2.058   5.334  1.2595  1.7445  0.6371
 1405TIP3    H2 4180   0.832   2.163   5.434 -2.2521  0.6543  0.3358
 1406TIP3   OH2 4181   0.391   6.669   3.406  0.5314  0.2587  0.0021
 1406TIP3    H1 4182   0.320   6.703   3.460  1.4010  2.9398 -0.3790
 1406TIP3    H2 4183   0.468   6.673   3.463  1.0131  0.8165 -0.6777
 1407TIP3   OH2 4184   4.332   6.383   2.216 -0.4468  0.0543 -0.0237
 1407TIP3    H1 4185   4.418   6.352   2.189 -1.1098 -0.9919 -1.0132
 1407TIP3    H2 4186   4.273   6.359   2.144 -1.8167 -0.5621  1.2327
 1408TIP3   OH2 4187   1.631   0.231   2.646 -0.1482 -0.2632 -0.6241
 1408TIP3    H1 4188   1.592   0.235   2.559 -0.4082  0.5510 -0.4793
 1408TIP3    H2 4189   1.560   0.205   2.704  0.7559 -4.2416 -1.0688
 1409TIP3   OH2 4190   3.354   1.909   3.592  0.0012  0.4562 -0.2790
 1409TIP3    H1 4191   3.334   1.840   3.530 -1.1228  1.6268 -1.2829
 1409TIP3    H2 4192   3.446   1.897   3.613 -0.0790 -1.1002 -0.7053
 1410TIP3   OH2 4193   1.072   0.528   0.878 -0.1269  0.2018 -0.0661
 1410TIP3    H1 4194   1.095   0.564   0.964 -0.2165  0.6551 -0.2304
 1410TIP3    H2 4195   1.147   0.475   0.853  0.7266  1.5858 -0.5564
 1411TIP3   OH2 4196   5.578   4.453   1.587 -0.2641 -0.4381  0.0735
 1411TIP3    H1 4197   5.502   4.499   1.553 -1.5983 -1.8263  1.0003
 1411TIP3    H2 4198   5.607   4.398   1.515  0.3840  0.6812 -0.5399
 1412TIP3   OH2 4199   4.018   6.693   2.961 -0.8919  0.2669  0.2601
 1412TIP3    H1 4200   4.043   6.649   2.880  1.1240  1.2871  0.2479
 1412TIP3    H2 4201   4.004   6.622   3.024 -0.0305 -0.4741 -0.3547
 1413TIP3   OH2 4202   1.922   0.385   1.780  0.4218 -0.2784  0.4684
 1413TIP3    H1 4203   1.931   0.474   1.813  0.3046 -0.1295  0.1090
 1413TIP3    H2 4204   1.998   0.371   1.724  0.4568 -0.4155  0.5483
 1414TIP3   OH2 4205   3.623   0.760   4.466 -0.0305  0.2742 -0.0383
 1414TIP3    H1 4206   3.638   0.851   4.492  0.8272 -0.1719  1.1207
 1414TIP3    H2 4207   3.528   0.749   4.474 -0.0234  0.7550  0.9429
 1415TIP3   OH2 4208   3.309   1.459   0.822 -0.8081  0.7745 -0.3069
 1415TIP3    H1 4209   3.277   1.473   0.911  0.5937  1.0533  0.1655
 1415TIP3    H2 4210   3.264   1.524   0.769 -0.6030  1.5294  0.4404
 1416TIP3   OH2 4211   1.167   1.239   4.726 -0.2900  0.4433  0.0952
 1416TIP3    H1 4212   1.089   1.269   4.773  0.0569 -2.5669  2.8913
 1416TIP3    H2 4213   1.240   1.283   4.771 -0.1320 -0.0744  0.3463
 1417TIP3   OH2 4214   1.688   6.462   0.498  0.3228 -0.0915 -0.1342
 1417TIP3    H1 4215   1.621   6.412   0.452  1.4653 -0.7523 -1.1212
 1417TIP3    H2 4216   1.726   6.401   0.560 -1.0030  0.7131  1.5449
 1418TIP3   OH2 4217   0.871   1.760   0.364 -0.6484 -0.0719  0.1222
 1418TIP3    H1 4218   0.953   1.799   0.335 -0.9936  0.4679 -0.1533
 1418TIP3    H2 4219   0.864   1.785   0.456 -0.3634 -0.3689  0.2262
 1419TIP3   OH2 4220   6.524   6.625   4.449 -0.2726  0.5017 -0.0638
 1419TIP3    H1 4221   6.541   6.559   4.383 -0.1910  0.6417 -0.1823
 1419TIP3    H2 4222   6.484   6.577   4.522 -0.0011  0.2878 -0.0585
 1420TIP3   OH2 4223   5.929   4.094   4.068  0.4108  0.1006 -0.2017
 1420TIP3    H1 4224   5.846   4.051   4.090  1.4835 -3.1472 -1.8134
 1420TIP3    H2 4225   5.996   4.034   4.099  2.0658  0.9531 -1.9381
 1421TIP3   OH2 4226   3.583   4.528   3.187 -0.5380  0.6018 -0.5784
 1421TIP3    H1 4227   3.522   4.459   3.213 -0.4546  0.4206 -0.8568
 1421TIP3    H2 4228   3.642   4.486   3.124 -0.0570  0.7450 -0.2288
 1422TIP3   OH2 4229   4.110   2.149   5.338 -0.3576 -0.4213 -0.4440
 1422TIP3    H1 4230   4.147   2.110   5.417  0.9516  1.3422 -0.1265
 1422TIP3    H2 4231   4.018   2.165   5.360 -0.5442 -1.8868 -0.0674
 1423TIP3   OH2 4232   1.935   5.306   4.460  0.1953  0.9646 -0.1776
 1423TIP3    H1 4233   2.005   5.319   4.396 -1.3418  1.4525 -1.8378
 1423TIP3    H2 4234   1.893   5.392   4.466 -1.1477  0.3365 -0.3227
 1424TIP3   OH2 4235   3.001   6.409   2.845 -0.2297 -0.3763  0.1693
 1424TIP3    H1 4236   2.929   6.415   2.908 -0.4150 -1.5258  0.0865
 1424TIP3    H2 4237   2.961   6.430   2.761 -0.0449  0.8687  0.3702
 1425TIP3   OH2 4238   6.855   5.582   2.554  0.1873  0.4364  0.6570
 1425TIP3    H1 4239   6.837   5.605   2.645  0.2293 -0.7944  1.0005
 1425TIP3    H2 4240   6.866   5.487   2.555 -1.4283  0.1766 -0.8822
 1426TIP3   OH2 4241   5.124   6.092   2.276  0.1132 -0.0846 -0.6052
 1426TIP3    H1 4242   5.076   6.162   2.233  0.4534 -0.3085 -1.3515
 1426TIP3    H2 4243   5.060   6.022   2.287  0.1531 -0.2139 -1.1933
 1427TIP3   OH2 4244   1.130   5.092   3.102 -0.0684  0.2599 -0.4698
 1427TIP3    H1 4245   1.162   5.037   3.174  0.8602  2.0913  0.5982
 1427TIP3    H2 4246   1.092   5.031   3.040  2.7806 -1.8386 -0.3587
 1428TIP3   OH2 4247   0.801   4.639   4.755 -0.4395 -0.5175 -0.0066
 1428TIP3    H1 4248   0.863   4.566   4.751 -0.2057 -0.2724 -3.0335
 1428TIP3    H2 4249   0.849   4.709   4.800  1.4253 -0.4781 -1.8918
 1429TIP3   OH2 4250   2.294   1.975   2.424  0.1979  0.1484  0.2079
 1429TIP3    H1 4251   2.274   1.931   2.342  1.9944 -0.4113  0.0224
 1429TIP3    H2 4252   2.325   1.906   2.482  0.4314  0.7625  0.8326
 1430TIP3   OH2 4253   0.377   4.307   5.042 -0.3750 -0.8873  0.3593
 1430TIP3    H1 4254   0.454   4.363   5.032  0.1187 -1.6906 -0.5541
 1430TIP3    H2 4255   0.335   4.337   5.122 -1.1638  2.0250 -1.0068
 1431TIP3   OH2 4256   1.416   6.457   3.805 -0.1926  0.3051  0.2163
 1431TIP3    H1 4257   1.378   6.425   3.724  1.0985  1.3390 -0.8465
 1431TIP3    H2 4258   1.502   6.415   3.810 -1.0098 -1.2941  2.1108
 1432TIP3   OH2 4259   6.388   5.313   0.702 -0.1181  0.1560 -0.1373
 1432TIP3    H1 4260   6.453   5.247   0.678 -0.8482 -0.8121  0.4622
 1432TIP3    H2 4261   6.416   5.344   0.788  0.5617  1.0923 -0.6791
 1433TIP3   OH2 4262   1.929   6.278   2.066 -0.0613 -0.8338  0.1654
 1433TIP3    H1 4263   1.846   6.289   2.020  1.2515  1.8063 -1.8666
 1433TIP3    H2 4264   1.918   6.329   2.147 -0.1180  0.4168 -0.6037
 1434TIP3   OH2 4265   3.008   0.639   4.590 -0.1676  0.0964  0.1826
 1434TIP3    H1 4266   2.940   0.578   4.618 -0.1778  0.8280  1.8398
 1434TIP3    H2 4267   2.964   0.722   4.579  0.3696  0.4904  0.9001
 1435TIP3   OH2 4268   3.684   6.147   5.342 -0.8577  0.2253 -0.4401
 1435TIP3    H1 4269   3.759   6.131   5.286 -1.2826 -0.8447 -0.7384
 1435TIP3    H2 4270   3.704   6.229   5.388  0.7736 -0.3851 -0.0083
 1436TIP3   OH2 4271   4.754   1.984   2.761 -0.6794  0.4055  0.2287
 1436TIP3    H1 4272   4.698   2.042   2.812 -2.2767 -0.6233 -0.2863
 1436TIP3    H2 4273   4.726   1.896   2.786 -1.0049 -0.1289 -1.8379
 1437TIP3   OH2 4274   3.224   6.104   2.916  0.1553 -0.1951 -0.1900
 1437TIP3    H1 4275   3.281   6.180   2.931 -0.8524  0.6031 -0.3365
 1437TIP3    H2 4276   3.159   6.108   2.986  0.3347 -1.1928  0.0642
 1438TIP3   OH2 4277   1.143   3.616   3.145 -0.6236 -0.0728  0.0413
 1438TIP3    H1 4278   1.111   3.706   3.133 -0.4513  0.0425  0.4413
 1438TIP3    H2 4279   1.211   3.606   3.079 -1.3932 -0.2843 -0.7501
 1439TIP3   OH2 4280   6.752   0.195   2.727 -0.3166  0.5073  0.3422
 1439TIP3    H1 4281   6.795   0.124   2.775  0.7872  1.8657  1.4584
 1439TIP3    H2 4282   6.719   0.254   2.795 -0.0743  1.7152 -0.5473
 1440TIP3   OH2 4283   1.971   6.497   0.940 -0.0971 -0.3974  0.6621
 1440TIP3    H1 4284   1.993   6.445   0.863  0.5781  0.2805  0.3839
 1440TIP3    H2 4285   1.933   6.434   1.002 -0.0170 -1.0667  0.0382
 1441TIP3   OH2 4286   2.634   0.111   0.617  0.5814 -0.7142  0.0438
 1441TIP3    H1 4287   2.625   0.066   0.701 -1.3182  0.4889  0.5377
 1441TIP3    H2 4288   2.728   0.116   0.602  1.0176  0.0830  2.6796
 1442TIP3   OH2 4289   4.979   1.333   3.074 -0.4314 -0.1531 -0.4346
 1442TIP3    H1 4290   4.904   1.335   3.015 -2.2472 -1.6534  1.6448
 1442TIP3    H2 4291   5.036   1.265   3.038 -0.0811  0.8971 -1.9546
 1443TIP3   OH2 4292   0.396   5.687   3.231 -0.1239  0.2167 -0.3476
 1443TIP3    H1 4293   0.475   5.675   3.179 -0.2029  1.3247 -0.7603
 1443TIP3    H2 4294   0.350   5.759   3.188 -1.4451 -0.5271 -0.2203
 1444TIP3   OH2 4295   7.008   4.956   0.598 -0.0195  0.2707  0.1462
 1444TIP3    H1 4296   7.097   4.955   0.634 -0.2810 -1.3223  0.8543
 1444TIP3    H2 4297   7.016   4.911   0.514 -0.0590  0.6740 -0.0766
 1445TIP3   OH2 4298   1.855   1.795   3.459 -0.3067  0.2358  0.2345
 1445TIP3    H1 4299   1.938   1.773   3.501 -0.2218 -0.1246 -0.1166
 1445TIP3    H2 4300   1.869   1.883   3.422  0.3146 -0.2922 -0.8329
 1446TIP3   OH2 4301   0.130   1.349   5.429 -0.2854 -0.1258 -0.1345
 1446TIP3    H1 4302   0.155   1.259   5.411  0.7288 -0.4202  2.3042
 1446TIP3    H2 4303   0.145   1.395   5.346  0.1947 -1.9763 -1.1331
 1447TIP3   OH2 4304   6.108   6.097   4.852  0.3101 -0.2947 -0.3867
 1447TIP3    H1 4305   6.168   6.034   4.813 -1.0533 -1.4668 -0.6904
 1447TIP3    H2 4306   6.043   6.113   4.784 -1.8461 -1.9975  1.1126
 1448TIP3   OH2 4307   3.185   0.351   4.402  0.4356 -0.2180 -0.1911
 1448TIP3    H1 4308   3.200   0.279   4.340 -0.4052 -0.7099  0.1627
 1448TIP3    H2 4309   3.103   0.392   4.372 -0.1738 -0.6843  0.7951
 1449TIP3   OH2 4310   5.009   5.582   1.055  0.7934 -0.0309  0.0457
 1449TIP3    H1 4311   5.021   5.551   0.966  0.5857  0.3630 -0.1249
 1449TIP3    H2 4312   5.060   5.522   1.109  0.4606 -0.6116 -0.2769
 1450TIP3   OH2 4313   0.276   3.763   4.894 -0.0393 -0.3271 -0.4290
 1450TIP3    H1 4314   0.311   3.843   4.934  3.1889 -0.3000 -2.9195
 1450TIP3    H2 4315   0.296   3.694   4.958  0.7949  0.3286  0.0475
 1451TIP3   OH2 4316   6.689   1.021   0.746 -0.1333  0.1371  0.2556
 1451TIP3    H1 4317   6.600   0.997   0.723  0.9100 -3.1252 -0.8998
 1451TIP3    H2 4318   6.694   1.004   0.840 -0.9712  1.4671  0.5762
 1452TIP3   OH2 4319   0.910   5.376   1.511  0.4572  0.3896  0.4273
 1452TIP3    H1 4320   0.851   5.431   1.563  0.1423  0.0440  0.4403
 1452TIP3    H2 4321   0.901   5.410   1.422 -0.9543 -0.6311  0.1354
 1453TIP3   OH2 4322   5.260   0.598   3.096  0.3205 -0.4585  0.7473
 1453TIP3    H1 4323   5.202   0.528   3.125  0.2976 -0.3420  0.9829
 1453TIP3    H2 4324   5.204   0.658   3.048  0.0049  0.2483  1.9411
 1454TIP3   OH2 4325   2.087   5.520   1.986  0.2958 -0.0249 -0.0063
 1454TIP3    H1 4326   2.108   5.582   2.055 -1.7831  2.7575 -1.6862
 1454TIP3    H2 4327   2.133   5.440   2.011  1.7579  1.6355  3.1549
 1455TIP3   OH2 4328   5.789   1.967   4.924 -0.0116  0.2196  0.6162
 1455TIP3    H1 4329   5.777   1.957   5.018  0.1855 -0.3876  0.5819
 1455TIP3    H2 4330   5.811   2.059   4.912  0.8663  0.0999  1.2606
 1456TIP3   OH2 4331   5.988   6.461   5.754  0.2178  0.0662 -0.4471
 1456TIP3    H1 4332   5.975   6.523   5.826  0.5347 -0.5252  0.1361
 1456TIP3    H2 4333   5.921   6.393   5.770  0.4048 -0.1559 -0.6041
 1457TIP3   OH2 4334   4.185   5.810   4.034  0.2566  0.3035  0.0470
 1457TIP3    H1 4335   4.246   5.855   3.976  1.4866  0.6531  1.5239
 1457TIP3    H2 4336   4.115   5.874   4.049  2.4059  2.3184  2.8114
 1458TIP3   OH2 4337   1.034   3.875   3.030  0.0591  0.1035  0.3692
 1458TIP3    H1 4338   1.001   3.804   2.974  0.3027  0.8620 -0.7877
 1458TIP3    H2 4339   1.096   3.922   2.974  2.5316 -0.7804  2.2154
 1459TIP3   OH2 4340   1.516   1.281   4.750 -0.2639  0.4441  0.0890
 1459TIP3    H1 4341   1.578   1.318   4.687 -1.5251  0.5450 -1.1606
 1459TIP3    H2 4342   1.504   1.190   4.722  1.0295 -0.2743  1.7195
 1460TIP3   OH2 4343   2.938   2.071   0.553  0.3972 -0.4165  0.5773
 1460TIP3    H1 4344   2.847   2.096   0.567  0.2854 -0.2490 -0.4137
 1460TIP3    H2 4345   2.936   1.975   0.548  0.1802 -0.3792 -0.0926
 1461TIP3   OH2 4346   3.092   0.442   1.679  0.2781 -0.5398 -0.3608
 1461TIP3    H1 4347   3.007   0.481   1.698  0.2755 -0.7403  0.0539
 1461TIP3    H2 4348   3.148   0.517   1.655  0.9612  0.1195  2.8170
 1462TIP3   OH2 4349   3.832   1.649   5.707 -0.6307 -0.5251 -0.1927
 1462TIP3    H1 4350   3.805   1.737   5.679 -1.4293 -0.8031 -0.3142
 1462TIP3    H2 4351   3.806   1.645   5.799  0.3788 -0.2596  0.1244
 1463TIP3   OH2 4352   4.114   3.208   0.544 -0.1874 -0.3992  0.8898
 1463TIP3    H1 4353   4.175   3.135   0.560  0.7635  0.4078  1.0340
 1463TIP3    H2 4354   4.150   3.280   0.595 -1.2042  0.1366  0.8619
 1464TIP3   OH2 4355   1.885   6.510   2.220  0.5488  0.2697 -0.2198
 1464TIP3    H1 4356   1.857   6.538   2.307 -0.2874 -0.3143 -0.2860
 1464TIP3    H2 4357   1.962   6.564   2.201  2.2981 -1.2858  1.9131
 1465TIP3   OH2 4358   5.377   1.101   2.975 -0.3900 -0.3067 -0.0951
 1465TIP3    H1 4359   5.435   1.025   2.965  0.4922  0.2080  0.9478
 1465TIP3    H2 4360   5.304   1.070   3.027  0.5028 -0.2054  1.2728
 1466TIP3   OH2 4361   4.810   2.241   3.512 -0.1023  0.2941 -0.0114
 1466TIP3    H1 4362   4.825   2.193   3.431 -1.1205  0.9035 -0.5804
 1466TIP3    H2 4363   4.885   2.219   3.567  0.9883  0.4397 -1.3880
 1467TIP3   OH2 4364   2.035   2.133   3.078 -0.2900  0.1632 -0.0688
 1467TIP3    H1 4365   2.071   2.050   3.046 -0.4436 -0.0641  0.3271
 1467TIP3    H2 4366   1.989   2.170   3.003  3.0171  1.8257 -1.4575
 1468TIP3   OH2 4367   0.416   6.651   1.412  0.0381  0.4230 -0.1107
 1468TIP3    H1 4368   0.431   6.668   1.320  1.5152 -0.4579 -0.0529
 1468TIP3    H2 4369   0.503   6.636   1.449 -0.4432  1.4964  1.5904
 1469TIP3   OH2 4370   5.792   2.600   2.791 -0.0207 -0.1983  0.2170
 1469TIP3    H1 4371   5.774   2.618   2.699 -0.9039 -0.1290  0.3972
 1469TIP3    H2 4372   5.809   2.686   2.829 -3.3536  0.3126  0.8850
 1470TIP3   OH2 4373   4.689   1.701   0.939  0.3844 -0.6995 -0.1454
 1470TIP3    H1 4374   4.703   1.757   0.863  0.4923 -1.1776 -0.4885
 1470TIP3    H2 4375   4.666   1.761   1.010 -1.1144 -0.3286 -0.8917
 1471TIP3   OH2 4376   4.470   6.578   0.716  0.0750 -0.1586  0.3571
 1471TIP3    H1 4377   4.387   6.614   0.685 -0.5241 -1.1357  0.7917
 1471TIP3    H2 4378   4.465   6.581   0.811 -0.3100 -2.0118  0.4435
 1472TIP3   OH2 4379   6.144   3.367   0.345  0.0935 -0.3743  0.5807
 1472TIP3    H1 4380   6.206   3.419   0.395  1.6276  0.6684 -2.1656
 1472TIP3    H2 4381   6.198   3.305   0.296 -1.0335  0.1680 -1.4562
 1473TIP3   OH2 4382   3.654   4.159   3.672  0.8915  0.7840  0.3298
 1473TIP3    H1 4383   3.669   4.105   3.594 -0.7676  0.0720  0.4592
 1473TIP3    H2 4384   3.713   4.122   3.738  0.1238 -0.5952  0.2735
 1474TIP3   OH2 4385   4.931   4.418   2.041  0.3099 -0.6993 -0.2747
 1474TIP3    H1 4386   4.839   4.426   2.064 -0.1417  1.1803 -2.3973
 1474TIP3    H2 4387   4.931   4.381   1.953  1.4655  1.2203 -1.1283
 1475TIP3   OH2 4388   1.188   3.725   0.958  0.2260 -0.1959 -0.2924
 1475TIP3    H1 4389   1.156   3.640   0.926  1.5827 -0.2892 -1.5520
 1475TIP3    H2 4390   1.260   3.746   0.898  0.6840  1.2805  0.7428
 1476TIP3   OH2 4391   5.810   3.895   1.964 -0.0916 -0.2405  0.1214
 1476TIP3    H1 4392   5.787   3.818   1.912 -0.1009 -0.2666  0.1643
 1476TIP3    H2 4393   5.727   3.940   1.978  0.2152  1.1109 -2.0122
 1477TIP3   OH2 4394   5.638   5.873   2.389 -0.0361  0.2576 -0.0969
 1477TIP3    H1 4395   5.595   5.816   2.452 -0.8480  0.2809 -0.6140
 1477TIP3    H2 4396   5.730   5.848   2.392  0.0631  0.7389  1.6067
 1478TIP3   OH2 4397   5.142   3.005   2.691 -0.2203  0.4741  0.1196
 1478TIP3    H1 4398   5.068   3.008   2.751  0.8075  1.9674  1.3871
 1478TIP3    H2 4399   5.102   3.007   2.604 -1.6775  0.4905  0.7581
 1479TIP3   OH2 4400   3.281   1.087   3.920 -0.4216 -0.4431  0.2983
 1479TIP3    H1 4401   3.261   1.115   4.009 -0.4592 -0.0651  0.1760
 1479TIP3    H2 4402   3.371   1.116   3.906  0.4273 -2.5627  1.0154
 1480TIP3   OH2 4403   2.871   3.076   1.507  0.1251 -0.4764  0.3005
 1480TIP3    H1 4404   2.927   3.002   1.531 -0.9489 -1.5336 -0.3482
 1480TIP3    H2 4405   2.783   3.049   1.535  0.1885  2.1745  3.6562
 1481TIP3   OH2 4406   3.989   4.010   2.969 -0.2963  0.3621  0.0435
 1481TIP3    H1 4407   4.029   4.097   2.972 -1.9563  1.1228  1.0292
 1481TIP3    H2 4408   4.019   3.967   3.050 -0.8858  0.6679  0.4264
 1482TIP3   OH2 4409   7.043   5.243   0.605 -0.1156 -0.2102 -0.0913
 1482TIP3    H1 4410   6.960   5.289   0.589 -0.1105 -0.5215 -1.1383
 1482TIP3    H2 4411   7.024   5.152   0.580  1.0901  0.1046 -2.4408
 1483TIP3   OH2 4412   0.280   5.889   2.312  0.2440 -0.4699 -0.2584
 1483TIP3    H1 4413   0.298   5.928   2.397 -0.2156  0.2016 -0.4504
 1483TIP3    H2 4414   0.193   5.922   2.289  0.7012  0.0491 -1.3551
 1484TIP3   OH2 4415   4.961   6.294   5.603 -0.1481 -0.0812  0.0485
 1484TIP3    H1 4416   4.953   6.267   5.512 -1.1661 -0.3603  0.2169
 1484TIP3    H2 4417   4.928   6.220   5.653  3.5215 -1.3999  0.8497
 1485TIP3   OH2 4418   3.121   4.175   2.607 -0.1156  0.8966 -0.4763
 1485TIP3    H1 4419   3.073   4.188   2.689  0.3795  1.1656 -0.2233
 1485TIP3    H2 4420   3.092   4.089   2.575  1.0931 -0.0964  0.9563
 1486TIP3   OH2 4421   2.471   1.125   1.217 -0.2222 -0.0568  0.1901
 1486TIP3    H1 4422   2.503   1.112   1.306  1.9465  1.0846 -0.3739
 1486TIP3    H2 4423   2.519   1.061   1.164 -2.1682 -1.3793 -0.0927
 1487TIP3   OH2 4424   6.885   6.620   2.836  0.3853 -0.6123 -0.0080
 1487TIP3    H1 4425   6.802   6.590   2.873 -0.5834  0.6413 -1.0452
 1487TIP3    H2 4426   6.929   6.665   2.909 -0.5021 -0.0557  0.1941
 1488TIP3   OH2 4427   3.693   1.516   3.897  0.0634 -0.2347  0.2118
 1488TIP3    H1 4428   3.670   1.547   3.984  0.0801  0.9709 -0.2035
 1488TIP3    H2 4429   3.658   1.582   3.837  2.3788  0.3812 -0.5728
 1489TIP3   OH2 4430   5.375   0.216   5.626 -0.3025  0.1933  0.0890
 1489TIP3    H1 4431   5.349   0.289   5.570 -0.6532  0.6443  0.8154
 1489TIP3    H2 4432   5.297   0.161   5.631  0.0100 -0.3230 -0.5829
 1490TIP3   OH2 4433   5.946   4.552   0.765 -0.3007 -0.2854 -0.6129
 1490TIP3    H1 4434   5.884   4.624   0.772 -0.4589 -0.5336  0.9161
 1490TIP3    H2 4435   5.987   4.563   0.679 -1.2067  0.8901 -0.9126
 1491TIP3   OH2 4436   6.962   0.032   3.878 -0.0111  0.5081  0.7263
 1491TIP3    H1 4437   6.884  -0.002   3.921  0.9304 -0.6190  1.6188
 1491TIP3    H2 4438   6.959   0.126   3.894 -2.5272  0.9288 -1.5380
 1492TIP3   OH2 4439   4.003   4.521   3.281  0.0847  0.3453 -0.1908
 1492TIP3    H1 4440   3.933   4.550   3.339  1.6675  1.0375  1.4553
 1492TIP3    H2 4441   3.979   4.431   3.258 -0.5560  0.0246  1.6103
 1493TIP3   OH2 4442   6.553   5.200   4.454 -0.5505  0.5581 -0.7625
 1493TIP3    H1 4443   6.632   5.152   4.430  0.0404  0.9059  0.4126
 1493TIP3    H2 4444   6.581   5.258   4.525 -2.4744 -1.4117  1.7742
 1494TIP3   OH2 4445   2.419   4.365   0.605  0.1124  0.0799 -0.3730
 1494TIP3    H1 4446   2.383   4.310   0.535 -0.0542 -0.4033  0.0848
 1494TIP3    H2 4447   2.367   4.445   0.603  0.9212  0.6036 -1.6228
 1495TIP3   OH2 4448   1.022   2.704   4.825  0.2640  0.3370  0.5507
 1495TIP3    H1 4449   1.027   2.668   4.736  0.0048 -0.6130  0.9147
 1495TIP3    H2 4450   1.113   2.702   4.856  0.1088 -1.0883  0.9781
 1496TIP3   OH2 4451   2.835   5.541   1.335  0.3738 -0.0284 -0.1716
 1496TIP3    H1 4452   2.918   5.589   1.328  0.7099 -0.7627 -1.9004
 1496TIP3    H2 4453   2.850   5.476   1.404  0.5898  1.0087  0.7866
 1497TIP3   OH2 4454   6.826   5.278   2.890  0.3560 -0.1687 -0.3862
 1497TIP3    H1 4455   6.776   5.211   2.938  0.2195  1.7797  2.3868
 1497TIP3    H2 4456   6.917   5.248   2.895  0.4793  0.4122  2.0114
 1498TIP3   OH2 4457   4.043   6.564   0.882 -0.2596 -0.3739  0.5386
 1498TIP3    H1 4458   4.075   6.506   0.951  0.0284 -0.8623 -0.0009
 1498TIP3    H2 4459   4.119   6.614   0.855 -0.0817 -1.0730 -0.2901
 1499TIP3   OH2 4460   6.432   4.599   3.584  0.7488  0.0309 -0.0837
 1499TIP3    H1 4461   6.462   4.514   3.552 -0.5664 -0.6678  0.4597
 1499TIP3    H2 4462   6.350   4.580   3.630  1.8383  1.1646  2.5357
 1500TIP3   OH2 4463   7.070   3.248   4.305 -0.2099 -0.4198 -0.2041
 1500TIP3    H1 4464   7.001   3.234   4.240  1.0905 -0.4134 -1.6397
 1500TIP3    H2 4465   7.129   3.312   4.265 -0.2805  0.9556  1.7317
 1501TIP3   OH2 4466   4.953   4.075   4.738 -0.1731 -0.7663 -0.7517
 1501TIP3    H1 4467   4.969   4.059   4.831  1.6070  3.6011 -0.0611
 1501TIP3    H2 4468   4.858   4.087   4.732 -0.3888 -1.7277  0.3578
 1502TIP3   OH2 4469   4.067   5.001   4.686 -0.0859  0.4229 -0.4516
 1502TIP3    H1 4470   4.073   4.910   4.714  2.3236  0.1560 -1.5976
 1502TIP3    H2 4471   3.975   5.025   4.703 -0.7571 -2.1371 -0.0022
 1503TIP3   OH2 4472   1.476   4.655   1.921  0.5650 -0.2887 -0.1141
 1503TIP3    H1 4473   1.398   4.710   1.924 -0.0474 -1.1146 -0.6350
 1503TIP3    H2 4474   1.512   4.668   1.833  1.8662  1.2073  0.5837
 1504TIP3   OH2 4475   1.729   5.761   1.753  0.0576 -0.4784  0.4536
 1504TIP3    H1 4476   1.762   5.749   1.664  1.1600  1.0867  0.6111
 1504TIP3    H2 4477   1.636   5.778   1.742  0.6758  2.9187 -0.7740
 1505TIP3   OH2 4478   3.742   4.905   1.544  0.1119 -0.1561 -0.0450
 1505TIP3    H1 4479   3.714   4.943   1.627 -0.4583  1.7212 -1.0371
 1505TIP3    H2 4480   3.768   4.815   1.566 -0.3157  0.1880  2.0816
 1506TIP3   OH2 4481   6.869   3.485   2.643  0.1250 -0.4540 -0.1042
 1506TIP3    H1 4482   6.959   3.493   2.675  0.9340 -0.9988 -2.0840
 1506TIP3    H2 4483   6.826   3.428   2.707  1.1236 -0.0121  0.9874
 1507TIP3   OH2 4484   4.541   5.755   2.066 -0.1743 -0.2752 -0.3536
 1507TIP3    H1 4485   4.555   5.686   2.131  1.6433  0.2303 -0.1397
 1507TIP3    H2 4486   4.545   5.711   1.982  1.4358 -0.4209 -0.2363
 1508TIP3   OH2 4487   5.882   0.133   0.968 -0.2371 -0.1629 -0.5198
 1508TIP3    H1 4488   5.970   0.098   0.955  0.4188  0.8402  0.9470
 1508TIP3    H2 4489   5.841   0.129   0.881  0.9535 -1.4087 -1.0514
 1509TIP3   OH2 4490   1.712   1.442   3.630  0.4650 -0.0966  0.7006
 1509TIP3    H1 4491   1.721   1.536   3.640 -2.1872  0.2080  0.9999
 1509TIP3    H2 4492   1.729   1.425   3.538  1.5364  0.5424  0.7601
 1510TIP3   OH2 4493   2.583   0.065   2.766  0.0287 -1.0709 -0.2540
 1510TIP3    H1 4494   2.567   0.159   2.758  0.8777 -0.5217  3.0421
 1510TIP3    H2 4495   2.676   0.054   2.747 -0.0354 -1.2122 -0.4859
 1511TIP3   OH2 4496   6.465   1.181   0.265 -0.2657 -0.0209 -0.8648
 1511TIP3    H1 4497   6.453   1.087   0.277  2.9287 -0.5350 -0.8474
 1511TIP3    H2 4498   6.449   1.195   0.172 -1.5279 -0.4099 -0.7219
 1512TIP3   OH2 4499   5.959   5.797   4.020  0.5756 -0.3449  0.3053
 1512TIP3    H1 4500   5.975   5.875   3.968 -1.9320  0.9055  1.2362
 1512TIP3    H2 4501   5.899   5.744   3.967  1.9406 -1.4979 -0.1447
 1513TIP3   OH2 4502   6.479   0.372   1.347 -0.1654 -0.1554  0.2159
 1513TIP3    H1 4503   6.446   0.429   1.416  0.9107 -2.2234  2.5992
 1513TIP3    H2 4504   6.454   0.284   1.376  2.2560 -1.2800 -0.8942
 1514TIP3   OH2 4505   3.371   4.267   3.661 -0.3019  0.3240  0.6874
 1514TIP3    H1 4506   3.452   4.219   3.679 -1.4836 -2.1501 -0.0719
 1514TIP3    H2 4507   3.319   4.258   3.741 -0.9823 -0.7149  0.1508
 1515TIP3   OH2 4508   1.642   1.583   0.035  0.3322 -0.0734  0.4571
 1515TIP3    H1 4509   1.638   1.498  -0.008 -1.8562  0.5001 -0.5969
 1515TIP3    H2 4510   1.623   1.565   0.127 -0.5809 -0.6776  0.1565
 1516TIP3   OH2 4511   7.042   5.816   5.047  0.0954 -0.3789  0.1065
 1516TIP3    H1 4512   7.001   5.889   5.094 -0.0660  0.6390 -1.5591
 1516TIP3    H2 4513   7.127   5.805   5.091  0.1479  0.8504  0.3579
 1517TIP3   OH2 4514   2.431   0.320   4.323  0.1403 -0.5213  0.5319
 1517TIP3    H1 4515   2.473   0.252   4.270  1.8012  1.1837 -0.4528
 1517TIP3    H2 4516   2.468   0.308   4.410  1.9131  0.2468 -0.0691
 1518TIP3   OH2 4517   4.030   0.058   4.099 -0.2127  0.0294 -0.0868
 1518TIP3    H1 4518   4.034   0.029   4.190 -0.6214 -1.0902 -0.4043
 1518TIP3    H2 4519   3.968  -0.002   4.058 -0.3519  0.7852 -1.0132
 1519TIP3   OH2 4520   3.073   1.948   2.356 -0.2531 -0.1462 -0.1348
 1519TIP3    H1 4521   3.165   1.974   2.357  0.0621 -1.1040  1.9629
 1519TIP3    H2 4522   3.044   1.966   2.267  1.9520  0.1677 -0.8594
 1520TIP3   OH2 4523   5.258   4.181   1.071  0.1000  0.5300 -0.1361
 1520TIP3    H1 4524   5.227   4.098   1.108  0.4856  0.9520  1.1871
 1520TIP3    H2 4525   5.291   4.157   0.985  0.7576 -0.8164  0.4421
 1521TIP3   OH2 4526   5.753   3.064   4.278  0.2849  0.3776 -1.0605
 1521TIP3    H1 4527   5.761   3.094   4.369  0.5693  0.7669 -1.2167
 1521TIP3    H2 4528   5.837   3.086   4.238  0.6999 -1.0666 -1.0458
 1522TIP3   OH2 4529   6.254   4.494   2.580 -0.1441 -0.1717  0.1441
 1522TIP3    H1 4530   6.322   4.433   2.607 -0.5142 -0.6805 -0.0469
 1522TIP3    H2 4531   6.220   4.530   2.662  0.3164  0.0542  0.2418
 1523TIP3   OH2 4532   0.846   5.776   3.190 -0.1580 -0.1539  0.3155
 1523TIP3    H1 4533   0.925   5.723   3.176 -0.3762 -1.5935  3.5179
 1523TIP3    H2 4534   0.864   5.824   3.271 -1.9402  0.7632  0.2081
 1524TIP3   OH2 4535   7.109   3.138   2.767 -0.2612  0.2292  0.4619
 1524TIP3    H1 4536   7.029   3.090   2.744  0.1114 -1.0523  1.6568
 1524TIP3    H2 4537   7.151   3.157   2.683 -0.7354 -1.0222 -0.0847
 1525TIP3   OH2 4538   3.120   5.391   1.506 -0.2123 -0.5452  0.1465
 1525TIP3    H1 4539   3.038   5.376   1.553  0.2399 -0.2226  1.0696
 1525TIP3    H2 4540   3.179   5.426   1.572  0.5740 -0.4584 -0.5840
 1526TIP3   OH2 4541   6.883   5.208   0.108 -0.1696  0.1656 -0.1534
 1526TIP3    H1 4542   6.977   5.227   0.113 -0.1562  0.5268 -1.4681
 1526TIP3    H2 4543   6.852   5.259   0.033 -0.8801 -2.0858 -1.4804
 1527TIP3   OH2 4544   1.036   1.077   3.896  0.3319 -0.5928  0.2132
 1527TIP3    H1 4545   0.941   1.081   3.907  0.3805  1.4496  0.1839
 1527TIP3    H2 4546   1.067   1.034   3.976 -0.5176  0.0968  0.9374
 1528TIP3   OH2 4547   1.722   0.105   0.559 -0.1245 -0.3046 -0.3643
 1528TIP3    H1 4548   1.701   0.168   0.489 -3.7851 -0.2731  0.6010
 1528TIP3    H2 4549   1.708   0.019   0.519  1.3567 -0.4626 -0.6253
 1529TIP3   OH2 4550   1.040   2.273   1.101  0.4527 -0.3065  0.6651
 1529TIP3    H1 4551   0.998   2.188   1.115  0.7474 -0.3347  1.3948
 1529TIP3    H2 4552   0.995   2.332   1.161  0.1260  0.0969  0.0269
 1530TIP3   OH2 4553   6.103   2.133   1.619 -0.3153  0.4094 -0.1458
 1530TIP3    H1 4554   6.169   2.064   1.610  0.2209  0.9855 -0.7875
 1530TIP3    H2 4555   6.025   2.087   1.650 -0.0352 -0.5268 -0.7578
 1531TIP3   OH2 4556   0.139   6.659   4.118 -0.1867 -0.2984  0.6589
 1531TIP3    H1 4557   0.095   6.644   4.202  1.1326  0.0603  1.4494
 1531TIP3    H2 4558   0.079   6.715   4.069 -0.8042 -0.1873  1.5181
 1532TIP3   OH2 4559   4.487   1.322   5.271 -0.2306  0.1155 -0.4155
 1532TIP3    H1 4560   4.534   1.403   5.248 -1.5683  1.3621  1.0272
 1532TIP3    H2 4561   4.400   1.352   5.299 -1.0478 -1.9141 -0.6410
 1533TIP3   OH2 4562   7.144   4.418   5.630 -0.4820  0.1274 -0.5594
 1533TIP3    H1 4563   7.075   4.351   5.637 -0.5530  0.3118  0.6329
 1533TIP3    H2 4564   7.188   4.416   5.715  0.6370  0.4071 -1.1123
 1534TIP3   OH2 4565   5.168   6.706   1.927 -0.3742  0.0431  0.1098
 1534TIP3    H1 4566   5.115   6.639   1.884 -0.9480  0.6148 -0.0908
 1534TIP3    H2 4567   5.111   6.741   1.996 -0.1668  0.4801  0.0672
 1535TIP3   OH2 4568   0.075   1.432   1.181  0.0333  0.1536  0.4177
 1535TIP3    H1 4569   0.145   1.368   1.172 -0.1108 -0.0000  0.3889
 1535TIP3    H2 4570   0.036   1.438   1.094  1.1257  1.5351 -0.0150
 1536TIP3   OH2 4571   1.411   4.197   0.029  0.1453 -0.0546  0.2734
 1536TIP3    H1 4572   1.349   4.247   0.083 -1.0021  0.1218 -1.1312
 1536TIP3    H2 4573   1.400   4.233  -0.059  2.7687  0.4466  0.0715
 1537TIP3   OH2 4574   5.144   2.982   5.361  0.2481  0.0410 -0.0688
 1537TIP3    H1 4575   5.237   2.962   5.346  0.7365  1.2441  1.1738
 1537TIP3    H2 4576   5.110   2.903   5.404  0.4818 -0.7075 -1.2094
 1538TIP3   OH2 4577   3.974   1.157   0.255 -0.1547  0.3769 -0.0819
 1538TIP3    H1 4578   3.996   1.247   0.232  3.3159  0.1561  1.7059
 1538TIP3    H2 4579   3.975   1.110   0.172  0.1439  1.5924 -0.7955
 1539TIP3   OH2 4580   6.916   4.486   4.020 -0.6270 -0.2878  0.1518
 1539TIP3    H1 4581   7.001   4.503   3.980 -1.2654  0.4279 -0.9727
 1539TIP3    H2 4582   6.854   4.497   3.948 -1.6497 -1.1134  0.8736
 1540TIP3   OH2 4583   7.000   6.095   1.516  0.6815 -0.5937  0.1396
 1540TIP3    H1 4584   7.033   6.101   1.426 -1.1689 -0.2174 -0.5612
 1540TIP3    H2 4585   6.957   6.010   1.520  0.3431 -0.4072  0.5259
 1541TIP3   OH2 4586   3.845   0.495   0.445  0.1414 -0.6611  0.4304
 1541TIP3    H1 4587   3.925   0.529   0.406 -0.3265 -1.0506 -0.9197
 1541TIP3    H2 4588   3.848   0.401   0.429 -0.8911 -0.5968 -0.2288
 1542TIP3   OH2 4589   6.789   6.575   1.356 -0.0405 -0.1424  0.1036
 1542TIP3    H1 4590   6.878   6.542   1.343 -0.4664 -1.5250  0.4566
 1542TIP3    H2 4591   6.773   6.632   1.281  1.2664  0.4349  0.2278
 1543TIP3   OH2 4592   4.183   5.792   4.543  0.3000  0.3600 -0.1277
 1543TIP3    H1 4593   4.244   5.775   4.615  0.7650 -1.1468 -0.8337
 1543TIP3    H2 4594   4.237   5.788   4.464 -0.2139  1.9388 -0.5836
 1544TIP3   OH2 4595   1.062   4.613   2.678 -0.4015  0.0372 -0.2931
 1544TIP3    H1 4596   0.999   4.641   2.744 -0.4268  2.7561 -1.3501
 1544TIP3    H2 4597   1.017   4.544   2.629 -1.1265 -0.5981  1.2002
 1545TIP3   OH2 4598   2.425   4.431   5.286 -0.2512  0.2175  0.1967
 1545TIP3    H1 4599   2.408   4.388   5.202 -1.0632  1.0658 -0.0775
 1545TIP3    H2 4600   2.492   4.376   5.327 -0.6142 -0.7993 -0.5394
 1546TIP3   OH2 4601   0.131   0.851   1.489 -0.5476  0.2749  0.0788
 1546TIP3    H1 4602   0.133   0.927   1.547  1.5277  0.7848 -0.5737
 1546TIP3    H2 4603   0.209   0.861   1.433 -0.2721 -2.2476 -0.1262
 1547TIP3   OH2 4604   4.874   6.034   1.019  0.6773 -0.0566 -0.2126
 1547TIP3    H1 4605   4.907   5.956   0.975 -0.2273 -0.6015  0.0354
 1547TIP3    H2 4606   4.929   6.042   1.097  1.1501 -0.1042 -0.5352
 1548TIP3   OH2 4607   0.403   2.659   1.034 -0.0870 -0.3083  0.1850
 1548TIP3    H1 4608   0.407   2.572   0.995  1.7992 -0.0711 -0.2529
 1548TIP3    H2 4609   0.376   2.716   0.962  2.1283 -0.0647 -0.5392
 1549TIP3   OH2 4610   4.231   3.396   2.619 -0.3231  0.2016 -0.3782
 1549TIP3    H1 4611   4.243   3.451   2.541  1.2218 -0.5837 -0.7418
 1549TIP3    H2 4612   4.279   3.315   2.598  0.4862  0.1404  1.5495
 1550TIP3   OH2 4613   5.877   2.374   0.667 -0.6742 -0.0907 -0.2559
 1550TIP3    H1 4614   5.970   2.354   0.658 -0.6862 -1.8598  2.4610
 1550TIP3    H2 4615   5.872   2.426   0.747 -2.1169 -0.9890  0.2617
 1551TIP3   OH2 4616   2.984   0.937   5.029  0.5101 -0.0950  0.0797
 1551TIP3    H1 4617   2.984   0.853   4.984  0.3394  0.1879 -0.4438
 1551TIP3    H2 4618   2.935   0.921   5.110  0.9761 -0.6445  0.2662
 1552TIP3   OH2 4619   5.435   6.647   4.929 -0.0501  0.5187  0.0297
 1552TIP3    H1 4620   5.488   6.700   4.869  1.1953 -0.9457 -0.2346
 1552TIP3    H2 4621   5.346   6.653   4.895  0.3094  1.2591 -0.8340
 1553TIP3   OH2 4622   2.424   1.818   2.015  0.7960  0.3644  0.5253
 1553TIP3    H1 4623   2.379   1.868   1.947  0.2707  0.6858  1.0953
 1553TIP3    H2 4624   2.463   1.885   2.071  2.6038  0.0994 -0.3311
 1554TIP3   OH2 4625   4.362   5.331   1.512  0.0172 -0.0528  0.2151
 1554TIP3    H1 4626   4.383   5.309   1.602 -1.6017 -1.2815  0.3434
 1554TIP3    H2 4627   4.347   5.246   1.469 -0.9766  0.5733 -0.7365
 1555TIP3   OH2 4628   5.241   5.178   5.748  0.5002  0.3645  0.3375
 1555TIP3    H1 4629   5.196   5.098   5.721  0.1389  0.9945 -1.0133
 1555TIP3    H2 4630   5.264   5.221   5.666  0.9267  1.5191  1.0412
 1556TIP3   OH2 4631   4.233   1.522   0.455 -0.4608 -0.1907 -0.1873
 1556TIP3    H1 4632   4.146   1.534   0.417 -0.5798 -0.3725  0.0284
 1556TIP3    H2 4633   4.293   1.562   0.392 -0.6111 -0.9022 -0.7962
 1557TIP3   OH2 4634   3.255   1.000   2.810  0.2094 -0.5366 -0.0577
 1557TIP3    H1 4635   3.311   0.950   2.870  1.1279 -0.4267 -0.7995
 1557TIP3    H2 4636   3.315   1.060   2.765 -0.8219  1.0641  0.6116
 1558TIP3   OH2 4637   4.615   4.049   1.337 -0.3290  0.1073 -0.2194
 1558TIP3    H1 4638   4.607   4.143   1.322 -1.9764 -0.1315 -1.0390
 1558TIP3    H2 4639   4.533   4.025   1.379 -0.5560 -1.1991 -1.3574
 1559TIP3   OH2 4640   5.391   0.886   0.871 -0.1099  0.0725  0.3237
 1559TIP3    H1 4641   5.419   0.893   0.962 -0.3693  0.4023  0.3786
 1559TIP3    H2 4642   5.359   0.973   0.849  2.3813  0.7740 -0.9095
 1560TIP3   OH2 4643   2.234   4.583   4.629 -0.1604 -0.6725  0.2226
 1560TIP3    H1 4644   2.244   4.501   4.580  2.1592 -0.1791 -0.2400
 1560TIP3    H2 4645   2.158   4.626   4.589 -1.7156 -2.7439  0.7843
 1561TIP3   OH2 4646   3.181   0.586   5.249 -0.1280  0.4943 -0.2565
 1561TIP3    H1 4647   3.182   0.496   5.280 -0.2999 -0.9879 -4.0240
 1561TIP3    H2 4648   3.271   0.604   5.223 -0.6929 -0.0170 -2.8470
 1562TIP3   OH2 4649   4.717   2.217   1.718  0.3374 -0.3911 -0.1337
 1562TIP3    H1 4650   4.779   2.145   1.718  0.6358 -0.1421 -1.2054
 1562TIP3    H2 4651   4.740   2.270   1.641 -1.3684 -0.4567 -0.7299
 1563TIP3   OH2 4652   5.606   3.136   2.710  0.5630 -0.2982 -0.1512
 1563TIP3    H1 4653   5.573   3.052   2.741  0.8969 -0.5782 -0.5432
 1563TIP3    H2 4654   5.542   3.163   2.644 -0.5697  0.6650  1.2640
 1564TIP3   OH2 4655   1.713   2.906   4.825 -0.2847  0.1802 -0.3754
 1564TIP3    H1 4656   1.702   2.867   4.912 -0.3383  0.4830 -0.2466
 1564TIP3    H2 4657   1.700   2.832   4.765  0.3351 -0.1500 -0.1143
 1565TIP3   OH2 4658   0.290   4.028   0.036  0.3381  0.2290  0.3701
 1565TIP3    H1 4659   0.203   4.055   0.006  0.3153  0.1259  0.3435
 1565TIP3    H2 4660   0.303   3.942  -0.004  0.9007  0.7048 -0.5015
 1566TIP3   OH2 4661   3.538   3.233   4.525 -0.7412  0.1713 -0.1282
 1566TIP3    H1 4662   3.610   3.172   4.539  1.0218  2.1671  0.0539
 1566TIP3    H2 4663   3.465   3.195   4.572  0.6460 -1.1552  1.0629
 1567TIP3   OH2 4664   5.277   2.612   1.043 -0.0643  0.3971 -0.2382
 1567TIP3    H1 4665   5.326   2.652   0.971  0.0972  1.2664  0.3416
 1567TIP3    H2 4666   5.328   2.535   1.066 -0.3151 -0.1058 -1.2957
 1568TIP3   OH2 4667   1.492   2.176   4.650  0.2093  0.1004  0.1867
 1568TIP3    H1 4668   1.445   2.180   4.733  0.0562 -0.0904  0.1100
 1568TIP3    H2 4669   1.446   2.238   4.593 -1.0524 -1.3559 -0.4416
 1569TIP3   OH2 4670   6.547   6.697   2.477  0.0499 -0.4899 -0.3777
 1569TIP3    H1 4671   6.611   6.661   2.416  1.5127 -0.9994  1.3708
 1569TIP3    H2 4672   6.599   6.748   2.539 -1.2446 -0.8060  1.0247
 1570TIP3   OH2 4673   4.827   2.906   4.452 -0.0616 -0.0763 -0.6618
 1570TIP3    H1 4674   4.835   2.866   4.538 -1.7918 -0.8640 -0.8201
 1570TIP3    H2 4675   4.906   2.879   4.405  0.0810 -1.0847  0.1225
 1571TIP3   OH2 4676   5.314   3.662   5.284 -0.2484 -0.8611  0.0396
 1571TIP3    H1 4677   5.271   3.687   5.366  0.8156  1.4944 -0.0490
 1571TIP3    H2 4678   5.402   3.697   5.291 -1.1928  3.0151 -3.6042
 1572TIP3   OH2 4679   6.041   3.842  -0.015 -0.2453 -0.3315  0.5052
 1572TIP3    H1 4680   6.033   3.752   0.018 -0.6065 -0.4007  0.2302
 1572TIP3    H2 4681   6.077   3.891   0.059 -1.1350 -0.4655  1.0344
 1573TIP3   OH2 4682   3.501   4.038   1.877  0.0535 -0.2899  0.1070
 1573TIP3    H1 4683   3.532   4.115   1.829 -0.8320  0.5855  0.8840
 1573TIP3    H2 4684   3.428   4.005   1.824 -0.8689  0.6249  0.7626
 1574TIP3   OH2 4685   4.755   0.282   0.743 -0.1640 -0.2274 -0.5219
 1574TIP3    H1 4686   4.707   0.209   0.704 -0.1880 -0.7968  0.5300
 1574TIP3    H2 4687   4.769   0.255   0.834  0.7099  0.6501 -0.3851
 1575TIP3   OH2 4688   1.268   1.460   2.297 -0.6509  0.0436 -0.4505
 1575TIP3    H1 4689   1.312   1.545   2.299 -0.5947  0.0176 -0.5470
 1575TIP3    H2 4690   1.309   1.414   2.223 -1.9092  0.5913 -1.5266
 1576TIP3   OH2 4691   4.205   1.423   1.924  0.1344  0.4604  0.1180
 1576TIP3    H1 4692   4.261   1.477   1.980  1.8483  0.3494 -1.4094
 1576TIP3    H2 4693   4.255   1.411   1.844 -1.0067 -1.8146 -0.3368
 1577TIP3   OH2 4694   0.372   4.267   5.550  0.5431 -0.3361 -0.0108
 1577TIP3    H1 4695   0.450   4.232   5.593  0.0378 -0.3846  0.9003
 1577TIP3    H2 4696   0.360   4.354   5.590 -0.6976 -0.9258  0.9536
 1578TIP3   OH2 4697   2.930   4.452   4.927  0.2145 -0.0622  0.0516
 1578TIP3    H1 4698   3.022   4.445   4.952  0.3548 -0.6517 -0.6086
 1578TIP3    H2 4699   2.932   4.461   4.832 -0.3175  1.8187  0.1804
 1579TIP3   OH2 4700   3.048   3.101   5.470 -0.4321 -0.4015 -0.5736
 1579TIP3    H1 4701   2.967   3.052   5.455 -0.0925 -0.9300 -0.7538
 1579TIP3    H2 4702   3.117   3.042   5.438 -0.0125  0.2245 -0.8509
 1580TIP3   OH2 4703   1.683   0.814   2.114 -0.1826  0.6170  0.2877
 1580TIP3    H1 4704   1.601   0.783   2.077 -0.1708 -0.4536  1.0903
 1580TIP3    H2 4705   1.688   0.906   2.090 -1.4337  0.5978 -0.0849
 1581TIP3   OH2 4706   4.724   0.343   5.856  0.2461 -0.1094 -0.0980
 1581TIP3    H1 4707   4.744   0.431   5.824 -0.3509 -0.2621 -0.9133
 1581TIP3    H2 4708   4.672   0.303   5.786 -0.7983 -0.5744  0.9195
 1582TIP3   OH2 4709   3.017   5.475   5.371 -0.7762 -0.4813  0.2360
 1582TIP3    H1 4710   2.929   5.503   5.396 -0.7112 -0.2350  0.1901
 1582TIP3    H2 4711   3.059   5.451   5.454 -0.9313 -0.7396  0.2439
 1583TIP3   OH2 4712   5.749   1.510   0.276  0.3490  0.2848  0.9438
 1583TIP3    H1 4713   5.809   1.569   0.322  2.9184 -1.1014 -0.4274
 1583TIP3    H2 4714   5.770   1.423   0.310  0.9608 -0.5349 -1.3310
 1584TIP3   OH2 4715   2.071   2.598   4.244  0.0973  0.0232  0.4811
 1584TIP3    H1 4716   2.108   2.666   4.188 -1.3012  0.9619  0.6526
 1584TIP3    H2 4717   2.054   2.642   4.327  1.3953 -1.1558  1.4257
 1585TIP3   OH2 4718   4.719   2.122   2.250 -0.2032 -0.0309 -0.2807
 1585TIP3    H1 4719   4.715   2.026   2.255  0.2413 -0.2671 -2.9010
 1585TIP3    H2 4720   4.808   2.141   2.221 -0.6362  1.0899 -0.9608
 1586TIP3   OH2 4721   4.981   1.045   0.559 -0.4901 -0.2298 -0.4951
 1586TIP3    H1 4722   5.051   1.072   0.500 -0.7065  1.9257  0.1507
 1586TIP3    H2 4723   5.017   0.970   0.606  0.6654 -0.3275 -1.4908
 1587TIP3   OH2 4724   5.255   4.268   4.289 -0.2740 -0.7253 -0.0152
 1587TIP3    H1 4725   5.203   4.231   4.361  1.4189 -0.8314  1.2043
 1587TIP3    H2 4726   5.335   4.299   4.330 -0.2524  1.4470 -1.5001
 1588TIP3   OH2 4727   4.922   2.736   2.667 -0.1880  0.1613  0.2695
 1588TIP3    H1 4728   4.927   2.657   2.721  1.9507 -0.9167 -1.3464
 1588TIP3    H2 4729   4.920   2.808   2.730 -0.2202 -1.0979  1.7756
 1589TIP3   OH2 4730   4.878   3.646   1.454 -0.3723  0.1473  0.3622
 1589TIP3    H1 4731   4.930   3.566   1.461 -1.0230 -0.1901  1.9431
 1589TIP3    H2 4732   4.839   3.643   1.367  2.5999  0.6664 -1.1079
 1590TIP3   OH2 4733   6.320   0.576   1.548 -0.2061  0.1159 -0.2919
 1590TIP3    H1 4734   6.299   0.599   1.639 -2.0239 -2.9796  0.2151
 1590TIP3    H2 4735   6.278   0.644   1.496 -2.7563 -0.2598  1.1107
 1591TIP3   OH2 4736   0.472   6.502   3.985  0.4931  0.1526 -0.4431
 1591TIP3    H1 4737   0.563   6.532   3.978  0.4718  0.3998  0.3176
 1591TIP3    H2 4738   0.472   6.442   4.060 -0.5771  2.5289  1.5712
 1592TIP3   OH2 4739   1.796  -0.011   3.690  0.1809  0.1510  0.0832
 1592TIP3    H1 4740   1.809   0.084   3.691 -0.4046  0.2336  0.8076
 1592TIP3    H2 4741   1.708  -0.023   3.724  0.4698 -0.6912  0.5573
 1593TIP3   OH2 4742   3.981   6.714   1.302 -0.0230  0.2863 -0.6055
 1593TIP3    H1 4743   3.926   6.713   1.224 -1.2528  1.2184  0.2143
 1593TIP3    H2 4744   4.051   6.652   1.283 -1.6626 -1.3827 -1.4528
 1594TIP3   OH2 4745   4.790   2.023   5.526  0.2493 -0.1340  0.0715
 1594TIP3    H1 4746   4.811   2.011   5.433  0.8779 -1.2389  0.3327
 1594TIP3    H2 4747   4.846   2.095   5.554  2.2412 -1.6606  0.2415
 1595TIP3   OH2 4748   5.336   6.308   2.837 -0.0301 -0.1819  0.3986
 1595TIP3    H1 4749   5.362   6.275   2.751  0.1064  4.2667 -1.4819
 1595TIP3    H2 4750   5.242   6.293   2.841 -0.1661  0.2783 -0.8681
 1596TIP3   OH2 4751   4.692   1.368   2.944  0.9167 -0.1228  0.0148
 1596TIP3    H1 4752   4.630   1.322   2.888 -0.4694  0.7849  0.7416
 1596TIP3    H2 4753   4.769   1.382   2.888  0.3215 -0.9183 -1.0345
 1597TIP3   OH2 4754   5.836   4.033   0.995 -0.5445 -0.1994  0.3744
 1597TIP3    H1 4755   5.916   4.074   0.963  0.4202 -2.5795 -0.5370
 1597TIP3    H2 4756   5.781   4.106   1.024  2.2426  1.5030  1.8295
 1598TIP3   OH2 4757   4.746   6.692   2.192  0.2309  0.1659 -0.4763
 1598TIP3    H1 4758   4.704   6.777   2.175 -1.4848 -0.4251  0.5343
 1598TIP3    H2 4759   4.748   6.685   2.287 -0.5994 -1.3559 -0.5433
 1599TIP3   OH2 4760   6.581   3.925   4.676  0.1507 -0.3060  0.5157
 1599TIP3    H1 4761   6.610   3.838   4.704 -0.0347 -0.0124  1.6541
 1599TIP3    H2 4762   6.602   3.983   4.749  0.9792  0.7678 -0.5344
 1600TIP3   OH2 4763   2.333   5.050   2.779 -0.3744  0.2725  0.3279
 1600TIP3    H1 4764   2.239   5.033   2.785 -0.1288 -0.7430  2.3047
 1600TIP3    H2 4765   2.370   4.969   2.744 -0.1266  0.2337  0.6737
 1601TIP3   OH2 4766   4.997   0.315   4.924 -0.5099 -0.5889 -0.0252
 1601TIP3    H1 4767   4.939   0.391   4.938 -1.0905 -1.2731  1.4744
 1601TIP3    H2 4768   4.989   0.264   5.004  1.2338 -1.3564 -0.3041
 1602TIP3   OH2 4769   4.140   2.701   5.715  0.1559 -0.3440 -0.8563
 1602TIP3    H1 4770   4.127   2.628   5.655 -0.4881 -0.9029 -0.0535
 1602TIP3    H2 4771   4.059   2.705   5.767  1.0444 -0.4502  0.6005
 1603TIP3   OH2 4772   4.205   0.271   3.671 -0.4883  0.5448  0.1156
 1603TIP3    H1 4773   4.230   0.361   3.691  1.4518  0.2837 -0.9541
 1603TIP3    H2 4774   4.186   0.271   3.577 -0.8810 -0.0714  0.1846
 1604TIP3   OH2 4775   6.792   2.029   4.935  0.5650  0.2566  0.6357
 1604TIP3    H1 4776   6.772   2.090   4.864  2.1595 -1.4675 -1.4575
 1604TIP3    H2 4777   6.813   2.085   5.010  1.5258  2.2745 -1.0277
 1605TIP3   OH2 4778   3.467   2.712   1.261  0.5413 -0.7036  0.0136
 1605TIP3    H1 4779   3.559   2.684   1.270  1.4671  2.0433  0.1410
 1605TIP3    H2 4780   3.462   2.745   1.171 -0.1736 -0.3874  0.1693
 1606TIP3   OH2 4781   0.116   0.895   5.178 -0.2925 -0.5376  0.0229
 1606TIP3    H1 4782   0.111   0.922   5.086 -0.0288  0.9249  0.4174
 1606TIP3    H2 4783   0.026   0.900   5.209  0.0085  2.2593  0.6984
 1607TIP3   OH2 4784   5.963   2.329   2.354 -0.4651 -0.2177 -0.0245
 1607TIP3    H1 4785   5.915   2.249   2.333  0.9492 -1.5566  1.6408
 1607TIP3    H2 4786   5.910   2.372   2.422 -1.7777  0.8977 -1.6537
 1608TIP3   OH2 4787   1.317   0.203   0.077  0.2855  0.2570 -0.1789
 1608TIP3    H1 4788   1.240   0.167   0.121  0.5184 -1.3870 -1.0370
 1608TIP3    H2 4789   1.282   0.245  -0.001 -0.0680  2.6761  1.2092
 1609TIP3   OH2 4790   4.516   2.973   2.696  0.0398  0.6375  0.3552
 1609TIP3    H1 4791   4.540   3.064   2.677 -0.5062  0.6806 -0.1463
 1609TIP3    H2 4792   4.462   2.946   2.621 -1.4539  0.5384  1.4190
 1610TIP3   OH2 4793   5.972   4.844   3.887 -0.0042 -0.4542  0.2048
 1610TIP3    H1 4794   5.980   4.774   3.822  1.0348  0.0941 -0.2843
 1610TIP3    H2 4795   6.040   4.908   3.862 -0.4652  0.3912  1.0502
 1611TIP3   OH2 4796   3.117  -0.006   0.277  0.1943  0.7601 -0.3790
 1611TIP3    H1 4797   3.156   0.040   0.203  2.0809  0.9317  0.6427
 1611TIP3    H2 4798   3.179   0.009   0.349 -0.4651 -1.1904  0.6635
 1612TIP3   OH2 4799   6.231   0.083   2.851  0.0787 -0.1703  0.6862
 1612TIP3    H1 4800   6.296   0.050   2.913 -0.3791 -2.4246  0.0820
 1612TIP3    H2 4801   6.255   0.040   2.768 -1.3830  0.0072  0.1568
 1613TIP3   OH2 4802   1.849   4.149   4.521 -0.0961 -0.4269  0.2888
 1613TIP3    H1 4803   1.799   4.152   4.603 -1.1524  2.0098 -0.3529
 1613TIP3    H2 4804   1.811   4.076   4.473 -1.2575 -0.2862  0.9365
 1614TIP3   OH2 4805   0.486   2.229   0.686 -0.4633 -0.0669  0.2794
 1614TIP3    H1 4806   0.506   2.180   0.607 -1.1767  0.0595  0.0180
 1614TIP3    H2 4807   0.458   2.163   0.749  0.0321 -0.1579  0.4149
 1615TIP3   OH2 4808   1.695   3.355   5.352  1.2000 -0.0771  0.3807
 1615TIP3    H1 4809   1.634   3.428   5.364  1.2345  0.0180 -0.0104
 1615TIP3    H2 4810   1.639   3.279   5.333  1.2175  0.1247 -0.5450
 1616TIP3   OH2 4811   0.957   5.537   5.848 -0.1828  0.1643  0.1688
 1616TIP3    H1 4812   0.982   5.526   5.756 -0.7621  0.1487  0.0082
 1616TIP3    H2 4813   0.965   5.631   5.863  0.4841  0.0926  0.2740
 1617TIP3   OH2 4814   5.296   4.541   1.544  0.0188 -0.7435  0.0334
 1617TIP3    H1 4815   5.248   4.470   1.586 -0.1861 -0.6326 -0.0066
 1617TIP3    H2 4816   5.307   4.606   1.613  0.1218 -0.7745  0.0456
 1618TIP3   OH2 4817   2.164   6.576   0.441  0.0531 -0.2705  0.5313
 1618TIP3    H1 4818   2.208   6.569   0.526  0.3531 -0.8786  0.3300
 1618TIP3    H2 4819   2.226   6.623   0.386  0.4530 -1.1006  0.2563
 1619TIP3   OH2 4820   1.754   6.315   0.082 -0.3122 -0.3657  0.4563
 1619TIP3    H1 4821   1.785   6.343   0.169  1.9358  0.1097 -0.4155
 1619TIP3    H2 4822   1.659   6.308   0.091 -0.1872  0.1080  2.8208
 1620TIP3   OH2 4823   4.945   6.060   3.241 -0.3995 -0.7697  0.2077
 1620TIP3    H1 4824   4.971   5.986   3.296  1.6896  0.3534  0.8448
 1620TIP3    H2 4825   5.026   6.087   3.197 -0.9124  1.5991  0.5853
 1621TIP3   OH2 4826   4.404   0.885   0.606  0.0257  0.0937  0.1015
 1621TIP3    H1 4827   4.472   0.923   0.550  1.3446  2.0643  2.8041
 1621TIP3    H2 4828   4.329   0.943   0.596  0.1971  0.3401  0.2284
 1622TIP3   OH2 4829   5.858   4.281   1.337 -0.0832 -0.2640 -0.3798
 1622TIP3    H1 4830   5.939   4.270   1.286  0.3992 -1.7912  0.6606
 1622TIP3    H2 4831   5.886   4.278   1.428 -1.3018 -0.7154 -0.0035
 1623TIP3   OH2 4832   4.410   4.241   2.348  0.3142  0.3313  0.4776
 1623TIP3    H1 4833   4.348   4.238   2.420 -0.0172  0.5062  0.2046
 1623TIP3    H2 4834   4.432   4.334   2.339 -1.8452  0.7365 -1.4788
 1624TIP3   OH2 4835   4.430   5.876   4.729 -0.2440 -0.2384 -0.0146
 1624TIP3    H1 4836   4.423   5.966   4.759 -0.3457 -0.1244 -0.3741
 1624TIP3    H2 4837   4.524   5.857   4.733  0.0661  0.6247 -2.0216
 1625TIP3   OH2 4838   5.392   5.952   2.742  0.1669  0.6948  0.3090
 1625TIP3    H1 4839   5.485   5.972   2.757 -0.1109  1.3876  1.2112
 1625TIP3    H2 4840   5.360   6.022   2.686  0.2006  0.4374 -0.0302
 1626TIP3   OH2 4841   6.285   2.810   0.735  0.1218  0.0794  0.2813
 1626TIP3    H1 4842   6.261   2.775   0.649 -0.3406 -0.1510  0.5014
 1626TIP3    H2 4843   6.318   2.898   0.717  1.6211 -0.5670 -0.3280
 1627TIP3   OH2 4844   3.110   2.092   4.264 -0.1596 -0.0451 -0.1707
 1627TIP3    H1 4845   3.056   2.107   4.186 -0.0562 -0.3061 -0.2936
 1627TIP3    H2 4846   3.067   2.142   4.333  0.8499  1.8267 -0.8415
 1628TIP3   OH2 4847   0.838   3.812   3.313 -0.2510  0.0425 -0.3739
 1628TIP3    H1 4848   0.878   3.817   3.226 -0.4424 -0.7787 -0.5217
 1628TIP3    H2 4849   0.911   3.794   3.372 -0.3527 -1.2506 -0.6160
 1629TIP3   OH2 4850   2.009   3.885   0.225  0.8235 -0.1946  0.1803
 1629TIP3    H1 4851   2.041   3.796   0.216 -1.4659 -1.0996  0.3043
 1629TIP3    H2 4852   2.046   3.916   0.307 -0.6035 -2.1159  1.6313
 1630TIP3   OH2 4853   2.583   1.319   5.056  0.2115  0.3024  0.5141
 1630TIP3    H1 4854   2.650   1.256   5.085  1.5383  1.2257 -0.4304
 1630TIP3    H2 4855   2.592   1.392   5.118 -1.9142 -0.7149  2.1483
 1631TIP3   OH2 4856   2.726   3.431   0.252  0.4467  0.0281  0.2624
 1631TIP3    H1 4857   2.650   3.449   0.307  0.6952 -1.0134  0.9795
 1631TIP3    H2 4858   2.798   3.476   0.296  0.6541 -0.8426  0.8424
 1632TIP3   OH2 4859   1.290   6.808   2.115 -0.4008  0.6375 -0.0949
 1632TIP3    H1 4860   1.345   6.740   2.077 -0.7232 -1.2587  2.5250
 1632TIP3    H2 4861   1.200   6.778   2.099 -0.5416  0.0286  1.6435
 1633TIP3   OH2 4862   4.647   0.294   4.312  0.0957 -0.3128  0.3922
 1633TIP3    H1 4863   4.705   0.351   4.262 -0.7824 -0.5305 -0.9318
 1633TIP3    H2 4864   4.625   0.223   4.252  0.8210 -1.8620  1.8585
 1634TIP3   OH2 4865   6.878   0.298   4.475 -0.2143  0.1019 -0.4235
 1634TIP3    H1 4866   6.948   0.244   4.439  0.6578  1.5547 -1.0262
 1634TIP3    H2 4867   6.829   0.328   4.399  1.3169  2.7694 -0.4769
 1635TIP3   OH2 4868   2.123   2.883   1.746 -0.1116  0.4135 -0.2860
 1635TIP3    H1 4869   2.193   2.946   1.763 -1.1543  1.6377 -0.3948
 1635TIP3    H2 4870   2.067   2.927   1.682 -0.5279 -0.8923 -0.8436
 1636TIP3   OH2 4871   3.503   5.326   4.032 -0.3261  0.4333 -0.0818
 1636TIP3    H1 4872   3.541   5.382   4.100  0.6158  1.0678 -1.1051
 1636TIP3    H2 4873   3.513   5.376   3.951 -0.6860 -0.6596 -0.8230
 1637TIP3   OH2 4874   3.838   5.157   2.040  0.2070  0.2043  0.7040
 1637TIP3    H1 4875   3.869   5.211   2.113  0.5914 -0.0283  0.7152
 1637TIP3    H2 4876   3.892   5.078   2.044  0.1188  0.1199  0.2667
 1638TIP3   OH2 4877   4.776   4.897   0.628  0.2600 -0.4099  0.3894
 1638TIP3    H1 4878   4.734   4.871   0.709 -1.3256  0.7241 -0.0278
 1638TIP3    H2 4879   4.798   4.990   0.640  1.7816 -0.7070  0.2145
 1639TIP3   OH2 4880   4.615   0.123   4.075  0.3188 -0.5079  0.1332
 1639TIP3    H1 4881   4.685   0.173   4.033  0.1395 -1.1662 -1.0043
 1639TIP3    H2 4882   4.556   0.101   4.003 -0.5246 -0.8219  0.9146
 1640TIP3   OH2 4883   5.113   1.340   4.308 -0.0353 -0.2479  0.1082
 1640TIP3    H1 4884   5.051   1.336   4.380 -0.1076  1.5020  0.2048
 1640TIP3    H2 4885   5.132   1.249   4.286 -0.8861 -0.8058  1.5713
 1641TIP3   OH2 4886   0.082   0.238   5.020  0.0702  0.0161  0.4186
 1641TIP3    H1 4887   0.087   0.143   5.031  0.9801 -0.1644 -1.2897
 1641TIP3    H2 4888  -0.011   0.255   5.005  0.1422 -0.8815 -1.2890
 1642TIP3   OH2 4889   5.374   1.802   5.724 -0.1087  0.0626  0.4798
 1642TIP3    H1 4890   5.382   1.896   5.739 -1.3533  0.5262 -1.4065
 1642TIP3    H2 4891   5.288   1.779   5.760 -0.2577 -0.1339  0.0048
 1643TIP3   OH2 4892   1.521   6.601   4.356  0.6468  0.0960  0.0170
 1643TIP3    H1 4893   1.508   6.685   4.401  0.2369  1.4668 -2.5004
 1643TIP3    H2 4894   1.615   6.585   4.361  0.9468  1.4971 -0.7289
 1644TIP3   OH2 4895   6.492   2.039   3.724  0.0563 -0.0851 -0.0804
 1644TIP3    H1 4896   6.542   2.067   3.647 -0.4624 -0.2588 -0.4922
 1644TIP3    H2 4897   6.546   1.972   3.765  0.3461  0.0170 -0.2892
 1645TIP3   OH2 4898   0.748   5.801   5.073  0.1600  0.3960 -0.0215
 1645TIP3    H1 4899   0.798   5.729   5.034 -1.1540 -1.2203  1.1316
 1645TIP3    H2 4900   0.808   5.841   5.136  0.2103 -1.2382  1.0322
 1646TIP3   OH2 4901   0.713   6.524   0.490  0.3033 -0.2974 -0.1970
 1646TIP3    H1 4902   0.707   6.568   0.575  2.4701 -0.3844  0.0540
 1646TIP3    H2 4903   0.649   6.569   0.435 -2.5001 -1.4049  1.8919
 1647TIP3   OH2 4904   5.508   4.820   1.591  0.7262  0.1796  0.1593
 1647TIP3    H1 4905   5.419   4.831   1.626 -0.3965 -1.4167 -1.9631
 1647TIP3    H2 4906   5.549   4.756   1.648  0.0694  0.0125  0.4531
 1648TIP3   OH2 4907   0.549   3.084   1.265 -0.0488  0.5316 -0.1481
 1648TIP3    H1 4908   0.568   2.991   1.256 -0.0766  0.6120 -1.2714
 1648TIP3    H2 4909   0.462   3.094   1.226 -1.1442  0.6463  2.1974
 1649TIP3   OH2 4910   2.383   1.184   0.950 -0.2852  0.1535 -0.5193
 1649TIP3    H1 4911   2.419   1.153   1.032  1.8589  1.8955 -0.7170
 1649TIP3    H2 4912   2.417   1.124   0.884 -0.0580  0.1504 -0.3974
 1650TIP3   OH2 4913   4.739   2.287   5.769 -0.5350  0.0229 -0.2977
 1650TIP3    H1 4914   4.794   2.336   5.830 -2.1724  1.3220  0.2148
 1650TIP3    H2 4915   4.699   2.218   5.821  1.1753 -1.4471 -0.8512
 1651TIP3   OH2 4916   7.125   1.007   4.708  0.6084 -0.2665 -0.0141
 1651TIP3    H1 4917   7.137   1.088   4.758  0.3455  0.0408 -0.4313
 1651TIP3    H2 4918   7.213   0.978   4.686  0.6828  0.5112 -0.7944
 1652TIP3   OH2 4919   3.795   5.111   5.231 -0.3715 -0.1964 -0.2093
 1652TIP3    H1 4920   3.726   5.130   5.293 -1.4812 -2.1901 -0.7567
 1652TIP3    H2 4921   3.871   5.160   5.264 -1.2842 -0.1012  1.8967
 1653TIP3   OH2 4922   3.491   2.565   2.452  0.4601 -0.0808 -0.0640
 1653TIP3    H1 4923   3.562   2.624   2.426  0.1480 -0.2958 -1.5124
 1653TIP3    H2 4924   3.454   2.605   2.531  0.5331  1.4455 -0.7637
 1654TIP3   OH2 4925   2.615   4.794   3.881  0.0159  0.3187  0.5520
 1654TIP3    H1 4926   2.705   4.800   3.913  0.8173  0.8157 -1.6559
 1654TIP3    H2 4927   2.605   4.867   3.821 -1.1632 -0.9304 -0.8644
 1655TIP3   OH2 4928   5.805   2.270   1.715 -0.1115 -0.6112 -0.0361
 1655TIP3    H1 4929   5.770   2.192   1.671  0.9261 -1.9361  1.3937
 1655TIP3    H2 4930   5.746   2.284   1.789 -1.0845  0.8212 -1.0302
 1656TIP3   OH2 4931   3.383   3.963   1.605  0.2259  0.2903 -0.0444
 1656TIP3    H1 4932   3.301   3.937   1.647 -1.0426  0.0844 -2.4477
 1656TIP3    H2 4933   3.359   3.973   1.512  3.0150 -0.1364 -0.8808
 1657TIP3   OH2 4934   4.464   3.426   1.668 -0.6605  0.3792  0.3116
 1657TIP3    H1 4935   4.501   3.425   1.579  0.6411  0.6386  0.8341
 1657TIP3    H2 4936   4.513   3.494   1.713 -1.4028  0.3326  1.2047
 1658TIP3   OH2 4937   3.762   2.209   3.785 -0.6375  0.4065 -0.2691
 1658TIP3    H1 4938   3.719   2.194   3.869 -0.5764 -1.8271 -0.5758
 1658TIP3    H2 4939   3.842   2.257   3.807 -1.6129  1.6643  0.6751
 1659TIP3   OH2 4940   3.620   6.702   1.255  0.4802 -0.7292  0.1953
 1659TIP3    H1 4941   3.541   6.679   1.207  0.7580 -2.2286  0.4061
 1659TIP3    H2 4942   3.692   6.680   1.196  0.7763 -1.1694  0.7008
 1660TIP3   OH2 4943   3.632   5.012   3.723 -0.1250 -0.4871  0.4649
 1660TIP3    H1 4944   3.678   5.096   3.720 -1.8952  0.5224 -0.2595
 1660TIP3    H2 4945   3.539   5.036   3.726 -0.8917 -2.3790 -2.9800
 1661TIP3   OH2 4946   6.631   1.114   2.444 -0.3931 -0.0675 -0.0108
 1661TIP3    H1 4947   6.634   1.164   2.362 -1.2908 -0.3313 -0.2145
 1661TIP3    H2 4948   6.544   1.130   2.478 -1.4133 -2.9301 -1.0055
 1662TIP3   OH2 4949   2.117   1.816   4.681 -0.6912 -0.2169 -0.2750
 1662TIP3    H1 4950   2.151   1.894   4.725  2.4172 -1.9223  0.6675
 1662TIP3    H2 4951   2.026   1.810   4.710 -0.5050  2.0935  0.9938
 1663TIP3   OH2 4952   5.399   5.160   3.107 -0.1185  0.8774  0.0420
 1663TIP3    H1 4953   5.408   5.142   3.014 -0.5501 -1.4050  0.3897
 1663TIP3    H2 4954   5.489   5.177   3.137  0.4330 -1.0862 -0.3341
 1664TIP3   OH2 4955   5.569   6.109   1.648 -0.8173  0.2832  0.3453
 1664TIP3    H1 4956   5.633   6.076   1.711 -0.3255  2.8141  1.2698
 1664TIP3    H2 4957   5.517   6.173   1.697 -2.9809 -0.4466 -0.8367
 1665TIP3   OH2 4958   6.458   0.491   4.534 -0.1435 -1.0024  0.3923
 1665TIP3    H1 4959   6.495   0.563   4.484  1.9153 -0.6951  2.1903
 1665TIP3    H2 4960   6.527   0.425   4.537 -0.4839 -1.3488  2.0469
 1666TIP3   OH2 4961   4.275   1.179   0.898  0.0713  0.6703  0.3296
 1666TIP3    H1 4962   4.326   1.216   0.826  0.5653  0.6327  0.6501
 1666TIP3    H2 4963   4.305   1.088   0.904 -1.2707  0.1538 -0.5755
 1667TIP3   OH2 4964   4.966   2.574   2.902 -0.4015 -0.4265  0.3060
 1667TIP3    H1 4965   4.912   2.559   2.980  0.0739  0.9065  0.9257
 1667TIP3    H2 4966   5.015   2.654   2.922 -0.4043  0.0491 -1.4384
 1668TIP3   OH2 4967   6.598   3.255   4.139 -0.1244 -0.0724  0.3484
 1668TIP3    H1 4968   6.502   3.264   4.145 -0.0863  0.4936  0.2176
 1668TIP3    H2 4969   6.613   3.225   4.049 -0.1909 -0.3062  0.4164
 1669TIP3   OH2 4970   2.500   6.726   4.080  0.1633 -0.4102  0.3008
 1669TIP3    H1 4971   2.479   6.702   4.170 -0.7270  0.7909  0.4378
 1669TIP3    H2 4972   2.595   6.712   4.073  0.1561 -1.0531  1.2352
 1670TIP3   OH2 4973   4.712   0.165   1.434  0.2092 -0.2683  0.0234
 1670TIP3    H1 4974   4.648   0.230   1.406 -0.9603 -1.3290  0.1686
 1670TIP3    H2 4975   4.691   0.149   1.526 -0.0542 -1.4397 -0.2270
 1671TIP3   OH2 4976   6.637   0.311   4.632 -0.2358  0.1949  0.2700
 1671TIP3    H1 4977   6.641   0.247   4.561 -0.3313 -0.6304  0.9947
 1671TIP3    H2 4978   6.661   0.261   4.711  0.0878  1.1437  0.7863
 1672TIP3   OH2 4979   7.133   4.059   4.956  0.0449  0.2445 -0.5106
 1672TIP3    H1 4980   7.215   4.039   5.001 -0.6000  1.4141  1.2939
 1672TIP3    H2 4981   7.093   4.128   5.009 -3.2239 -1.8743  0.0773
 1673TIP3   OH2 4982   6.032   0.823   1.726  0.2688  0.2546 -0.1220
 1673TIP3    H1 4983   5.979   0.877   1.785 -0.4212 -1.2086  0.6560
 1673TIP3    H2 4984   6.003   0.734   1.743  0.6627 -0.2897 -2.1009
 1674TIP3   OH2 4985   3.289   3.676   5.034  0.4136  0.7214  0.1005
 1674TIP3    H1 4986   3.331   3.653   5.117 -0.3108  0.9291  0.5301
 1674TIP3    H2 4987   3.283   3.593   4.986 -1.3073  0.1342  1.2381
 1675TIP3   OH2 4988   2.062   1.216   2.542  0.0589  0.2122 -0.0754
 1675TIP3    H1 4989   2.157   1.204   2.534  0.0558  0.9817 -1.4081
 1675TIP3    H2 4990   2.048   1.308   2.523 -0.9372  0.1821  0.4648
 1676TIP3   OH2 4991   2.528   6.424   5.194 -0.1859  0.2640  0.2754
 1676TIP3    H1 4992   2.474   6.479   5.137  0.7942  1.5872  0.5589
 1676TIP3    H2 4993   2.504   6.451   5.283 -0.8215 -0.9160  0.4845
 1677TIP3   OH2 4994   4.452   5.027   4.401  0.1664  0.2415  0.3539
 1677TIP3    H1 4995   4.404   4.991   4.327  1.0586 -1.4201  0.5252
 1677TIP3    H2 4996   4.385   5.045   4.467 -0.5419  1.0026 -0.5391
 1678TIP3   OH2 4997   1.527   0.920   4.936 -0.0427  0.0505 -0.3328
 1678TIP3    H1 4998   1.536   0.828   4.960  1.4486  0.1213 -0.5481
 1678TIP3    H2 4999   1.477   0.918   4.854 -0.0500 -0.5558 -0.3172
 1679TIP3   OH2 5000   5.287   5.295   2.315 -0.1620 -0.2128 -0.2093
 1679TIP3    H1 5001   5.312   5.235   2.386 -0.1539  1.4714  1.2855
 1679TIP3    H2 5002   5.211   5.254   2.275  0.2623 -1.5632  0.3078
 1680TIP3   OH2 5003   5.754   3.361   2.401  0.7430 -0.2472 -0.3709
 1680TIP3    H1 5004   5.784   3.302   2.332  0.5286 -0.4136 -0.3237
 1680TIP3    H2 5005   5.768   3.312   2.482  1.6751  0.2255 -0.2308
 1681TIP3   OH2 5006   1.512   5.196   3.901  0.2250  0.5331 -0.2467
 1681TIP3    H1 5007   1.528   5.291   3.894  0.0332  0.6665  0.9363
 1681TIP3    H2 5008   1.519   5.164   3.811  0.7419  1.6026 -0.6083
 1682TIP3   OH2 5009   6.430   3.001   0.533  0.7380  0.4767  0.1469
 1682TIP3    H1 5010   6.365   2.959   0.478  0.5534  1.6838 -0.5848
 1682TIP3    H2 5011   6.514   2.969   0.499  0.6394  1.4249 -1.0479
 1683TIP3   OH2 5012   6.518   5.743   4.525  0.3283  0.0034  0.0585
 1683TIP3    H1 5013   6.509   5.679   4.596  2.0857 -0.4081 -0.0356
 1683TIP3    H2 5014   6.428   5.763   4.499 -0.3032 -1.1700  1.2066
 1684TIP3   OH2 5015   2.217   1.018   0.120 -0.2720 -0.2178  0.1120
 1684TIP3    H1 5016   2.166   0.957   0.067  0.3765 -1.6411  1.0743
 1684TIP3    H2 5017   2.253   1.081   0.057 -1.0524 -0.7528 -0.8864
 1685TIP3   OH2 5018   1.183   1.654   4.522 -0.5166  0.1007  0.4304
 1685TIP3    H1 5019   1.204   1.601   4.445  0.2387 -0.1666  0.8209
 1685TIP3    H2 5020   1.229   1.737   4.508  1.0930 -0.5935  1.4260
 1686TIP3   OH2 5021   5.772   1.604   5.169  0.3303 -0.2219  0.1147
 1686TIP3    H1 5022   5.723   1.550   5.231  1.3137 -0.1242  1.0042
 1686TIP3    H2 5023   5.862   1.602   5.201  0.7435  0.3689 -0.9464
 1687TIP3   OH2 5024   3.329   6.397   1.353  0.2431 -0.3590  0.4376
 1687TIP3    H1 5025   3.377   6.478   1.369  1.2964 -1.2525  2.0557
 1687TIP3    H2 5026   3.255   6.424   1.298 -0.1586  1.9232  1.9586
 1688TIP3   OH2 5027   1.677   4.602   4.915  0.1454  0.0398  1.0884
 1688TIP3    H1 5028   1.684   4.532   4.851  0.5588 -1.4137  2.6289
 1688TIP3    H2 5029   1.755   4.592   4.970  0.4289  1.9922  1.1136
 1689TIP3   OH2 5030   4.067   2.493   5.523 -0.4000  0.1963  0.3163
 1689TIP3    H1 5031   3.986   2.504   5.473 -0.9911  2.9654  1.7022
 1689TIP3    H2 5032   4.133   2.473   5.456 -1.9938 -1.1594 -0.9535
 1690TIP3   OH2 5033   0.528   0.480   3.570  0.8537 -0.5944  0.1430
 1690TIP3    H1 5034   0.441   0.465   3.608  0.0770 -0.8799 -1.6354
 1690TIP3    H2 5035   0.580   0.405   3.600 -0.3302 -1.9228 -1.0052
 1691TIP3   OH2 5036   6.999   3.966   3.479  0.0697  0.3242 -0.5739
 1691TIP3    H1 5037   7.088   3.932   3.480 -0.6233 -1.6223  0.9438
 1691TIP3    H2 5038   6.993   4.021   3.558 -0.0184  0.5819 -0.7599
 1692TIP3   OH2 5039   2.077   1.252   1.976  0.3951 -0.4011  0.0546
 1692TIP3    H1 5040   2.003   1.261   1.916  0.8080 -0.5906 -0.4885
 1692TIP3    H2 5041   2.038   1.222   2.058 -0.3156  0.9540  0.2359
 1693TIP3   OH2 5042   1.379   1.894   3.675 -0.0740  0.1512 -0.2122
 1693TIP3    H1 5043   1.471   1.894   3.647 -0.3594  1.9588 -1.3664
 1693TIP3    H2 5044   1.363   1.806   3.708  2.0141 -0.2595 -0.1953
 1694TIP3   OH2 5045   2.119   6.327   5.040  0.1282  0.2448  0.2343
 1694TIP3    H1 5046   2.131   6.407   5.090  0.1206 -0.3288  1.1830
 1694TIP3    H2 5047   2.153   6.258   5.097 -3.2524 -0.9074  1.0949
 1695TIP3   OH2 5048   0.179   0.638   4.621 -0.0680 -0.5083 -0.1932
 1695TIP3    H1 5049   0.106   0.635   4.559 -0.4430 -0.9143  0.2618
 1695TIP3    H2 5050   0.186   0.549   4.654  1.7097 -0.8754 -1.4444
 1696TIP3   OH2 5051   4.615   3.755   3.271 -0.0224  0.2310  0.0944
 1696TIP3    H1 5052   4.687   3.812   3.245  0.0821 -0.2962 -0.7930
 1696TIP3    H2 5053   4.576   3.800   3.347 -0.0505  1.5776 -0.6835
 1697TIP3   OH2 5054   0.550   0.209   4.367 -0.0139  0.0110  0.1130
 1697TIP3    H1 5055   0.638   0.219   4.331 -0.4159 -2.7004 -1.8752
 1697TIP3    H2 5056   0.559   0.145   4.437 -0.6951 -2.4138 -1.8823
 1698TIP3   OH2 5057   6.915   0.201   5.543  0.8495 -0.5236  0.4870
 1698TIP3    H1 5058   6.939   0.196   5.636  0.0957 -1.0713  0.6577
 1698TIP3    H2 5059   6.960   0.128   5.502  0.4968 -0.7964  0.5810
 1699TIP3   OH2 5060   3.138   5.504   5.620 -0.2551 -0.3185  0.5785
 1699TIP3    H1 5061   3.061   5.464   5.661 -0.3704  0.6132  1.3037
 1699TIP3    H2 5062   3.205   5.501   5.688 -0.4326  1.2056  0.8503
 1700TIP3   OH2 5063   2.087   2.310   2.538  0.1500  0.5500  0.2341
 1700TIP3    H1 5064   2.109   2.394   2.580  0.7444  0.1902  0.6667
 1700TIP3    H2 5065   2.125   2.316   2.451  1.2475  0.2833  0.6714
 1701TIP3   OH2 5066   0.160   0.692   5.450 -0.1374  0.6045 -0.2483
 1701TIP3    H1 5067   0.181   0.642   5.529 -0.7690  0.0830 -0.4012
 1701TIP3    H2 5068   0.243   0.730   5.423  0.3354 -0.2419 -0.0383
 1702TIP3   OH2 5069   3.395   5.205   1.048 -0.5719  0.0835  0.3091
 1702TIP3    H1 5070   3.385   5.125   0.996  0.8975  0.8681 -1.2765
 1702TIP3    H2 5071   3.374   5.276   0.988 -0.8630  0.9601  1.4107
 1703TIP3   OH2 5072   1.221   3.187   2.190  0.3945  0.3021 -0.4098
 1703TIP3    H1 5073   1.247   3.096   2.199 -0.1981  0.2768  1.5360
 1703TIP3    H2 5074   1.303   3.236   2.194  0.6063 -0.0787  0.1304
 1704TIP3   OH2 5075   5.656   3.890   3.978 -0.4564 -0.2348 -0.2238
 1704TIP3    H1 5076   5.686   3.940   3.902 -0.2417  1.6329  1.0355
 1704TIP3    H2 5077   5.722   3.821   3.989  2.1618  2.2623  0.9791
 1705TIP3   OH2 5078   4.765   2.435   4.705 -0.4634 -0.2219 -0.1776
 1705TIP3    H1 5079   4.730   2.435   4.616  0.6966 -0.8532 -0.6502
 1705TIP3    H2 5080   4.859   2.445   4.694 -0.5089  2.6415  1.1055
 1706TIP3   OH2 5081   7.066   3.730   0.247 -0.8110  0.5376  0.0844
 1706TIP3    H1 5082   6.974   3.752   0.262 -1.8223 -1.9498 -1.6370
 1706TIP3    H2 5083   7.082   3.752   0.155 -1.0771 -2.7610 -0.9039
 1707TIP3   OH2 5084   2.700   3.790   1.952  0.0672 -0.1877 -0.0699
 1707TIP3    H1 5085   2.626   3.796   2.012  0.1568  1.2260 -0.0600
 1707TIP3    H2 5086   2.684   3.710   1.902 -1.0341 -0.3398  0.4886
 1708TIP3   OH2 5087   1.665   0.329   4.154 -0.0799 -0.2008 -0.0099
 1708TIP3    H1 5088   1.658   0.391   4.082 -0.0526 -1.0120 -0.7144
 1708TIP3    H2 5089   1.739   0.273   4.131 -0.1209 -0.5181  0.6081
 1709TIP3   OH2 5090   4.288   4.622   5.402 -0.2902 -0.3219 -0.5071
 1709TIP3    H1 5091   4.293   4.715   5.424  1.6710 -0.6108  0.5037
 1709TIP3    H2 5092   4.361   4.607   5.342  0.8244 -1.5928  1.0772
 1710TIP3   OH2 5093   3.678   6.358   1.870 -0.6030 -0.5157 -0.5641
 1710TIP3    H1 5094   3.614   6.313   1.814 -1.3747 -1.0234  0.6716
 1710TIP3    H2 5095   3.632   6.370   1.953  0.0901  1.3198 -0.4009
 1711TIP3   OH2 5096   7.144   4.822   4.188 -0.0930  0.6759 -0.1042
 1711TIP3    H1 5097   7.190   4.822   4.104  0.1521  0.0015  0.0262
 1711TIP3    H2 5098   7.055   4.795   4.167  0.2044 -0.3851 -0.0255
 1712TIP3   OH2 5099   3.863   6.257   5.668  0.9476 -0.0834  0.2876
 1712TIP3    H1 5100   3.909   6.252   5.584 -0.6189 -1.3072 -0.5578
 1712TIP3    H2 5101   3.776   6.290   5.645 -0.4993 -3.0971  0.9055
 1713TIP3   OH2 5102   3.018   3.591   1.988 -0.0309  0.2402 -0.1770
 1713TIP3    H1 5103   2.935   3.548   2.004 -0.5498  0.1759 -2.7012
 1713TIP3    H2 5104   2.996   3.684   1.979 -0.1083  0.0417 -2.3658
 1714TIP3   OH2 5105   6.542   4.197   2.450  0.0176  0.4416  0.2367
 1714TIP3    H1 5106   6.634   4.209   2.427  0.2112  1.4970  1.4592
 1714TIP3    H2 5107   6.520   4.274   2.502 -1.5857  0.2333 -0.0850
 1715TIP3   OH2 5108   0.470   1.251   5.523 -0.3004  0.3378  0.6188
 1715TIP3    H1 5109   0.461   1.183   5.456 -2.0681  0.8468  0.2716
 1715TIP3    H2 5110   0.437   1.209   5.603 -1.1400  0.6818  0.4623
 1716TIP3   OH2 5111   4.102   0.562   4.082 -0.2396 -0.4656  0.2297
 1716TIP3    H1 5112   4.178   0.608   4.119 -1.7125  1.8060  0.6426
 1716TIP3    H2 5113   4.102   0.477   4.126  1.3893 -0.0718  1.0813
 1717TIP3   OH2 5114   2.529   3.982   3.021  0.0293 -0.3225  0.1507
 1717TIP3    H1 5115   2.508   3.902   3.068 -0.2479 -0.0192  0.5531
 1717TIP3    H2 5116   2.457   4.042   3.041  0.1661 -0.0154 -0.2463
 1718TIP3   OH2 5117   6.550   4.138   0.485 -0.1602  0.3759  0.8524
 1718TIP3    H1 5118   6.517   4.049   0.497  0.0069  0.3136  0.8415
 1718TIP3    H2 5119   6.641   4.127   0.459 -0.8498  0.4475 -1.8741
 1719TIP3   OH2 5120   0.697   5.979   4.844  0.1626 -0.3660  0.0681
 1719TIP3    H1 5121   0.706   6.074   4.838 -2.2893 -0.1385 -1.0923
 1719TIP3    H2 5122   0.783   5.949   4.873  1.1348  2.1477  0.0529
 1720TIP3   OH2 5123   5.407   1.975   2.955  0.4810  0.0304  0.3799
 1720TIP3    H1 5124   5.359   1.939   3.029  0.4366 -1.5314 -0.3651
 1720TIP3    H2 5125   5.350   1.959   2.879  0.0476  2.5326  0.0866
 1721TIP3   OH2 5126   2.231   3.351   1.963  0.3327  0.1534  0.0129
 1721TIP3    H1 5127   2.251   3.404   1.885 -1.3238  0.6352 -0.1249
 1721TIP3    H2 5128   2.270   3.400   2.035  1.4441 -0.0352 -0.4295
 1722TIP3   OH2 5129   1.637   1.405   4.062  0.5940  0.4210  0.1893
 1722TIP3    H1 5130   1.696   1.356   4.118  2.1655  1.7701 -0.2170
 1722TIP3    H2 5131   1.677   1.491   4.054 -1.7583  1.6100  0.3897
 1723TIP3   OH2 5132   2.313   4.829   5.441 -0.1240  0.4981 -0.3931
 1723TIP3    H1 5133   2.245   4.875   5.491 -1.2791 -0.0995 -1.3563
 1723TIP3    H2 5134   2.275   4.819   5.353  1.1066 -0.1029 -0.8687
 1724TIP3   OH2 5135   4.215   5.103   1.360 -0.3112  0.4479  0.0599
 1724TIP3    H1 5136   4.286   5.051   1.322  0.8848  0.4891  2.0747
 1724TIP3    H2 5137   4.136   5.054   1.341  0.4989 -0.7185 -0.4222
 1725TIP3   OH2 5138   3.927   6.168   5.246 -0.1237 -0.1915 -0.1319
 1725TIP3    H1 5139   3.956   6.079   5.264  0.3038 -0.1241 -0.5001
 1725TIP3    H2 5140   3.961   6.220   5.319  0.8206 -0.0830 -0.6468
 1726TIP3   OH2 5141   6.157   1.477   4.877  0.0580 -0.2914 -0.0588
 1726TIP3    H1 5142   6.096   1.458   4.805 -0.3453  0.5699  0.0378
 1726TIP3    H2 5143   6.211   1.549   4.844  0.0983 -0.1232  0.3714
 1727TIP3   OH2 5144   3.175   3.678   4.437  0.2879  0.5193  0.5033
 1727TIP3    H1 5145   3.184   3.698   4.530 -0.1396 -0.9008  0.8735
 1727TIP3    H2 5146   3.211   3.590   4.428 -2.6146 -0.7021 -0.0326
 1728TIP3   OH2 5147   4.797   0.734   5.872 -0.4671  0.0115  0.6483
 1728TIP3    H1 5148   4.787   0.828   5.857  2.8743  0.2013 -1.4242
 1728TIP3    H2 5149   4.743   0.694   5.805 -0.3350  0.4996  0.2427
 1729TIP3   OH2 5150   2.621   3.581   4.786  0.4160  0.5348 -0.1779
 1729TIP3    H1 5151   2.712   3.610   4.775  1.2020 -1.2571  1.1348
 1729TIP3    H2 5152   2.626   3.485   4.782 -1.3490  0.3827  0.4952
 1730TIP3   OH2 5153   5.959   3.895   5.284  0.2626  0.1393 -0.3769
 1730TIP3    H1 5154   6.034   3.850   5.245  0.8072  0.5936  0.1247
 1730TIP3    H2 5155   5.942   3.969   5.226  0.9809  0.7322  0.1551
 1731TIP3   OH2 5156   0.860   3.900   4.538  0.1976  0.2101  0.5996
 1731TIP3    H1 5157   0.921   3.840   4.494 -0.4075 -0.7106  0.9846
 1731TIP3    H2 5158   0.881   3.892   4.631 -0.4132 -0.0110  0.7253
 1732TIP3   OH2 5159   5.775   2.928   2.089 -0.3124 -0.3796 -0.2388
 1732TIP3    H1 5160   5.700   2.877   2.059 -0.2281 -0.9964  0.5549
 1732TIP3    H2 5161   5.843   2.910   2.024 -0.9146  0.3890 -1.1023
 1733TIP3   OH2 5162   3.545   6.141   1.749 -0.4188  0.0373  0.7197
 1733TIP3    H1 5163   3.463   6.148   1.797 -0.7116  2.2640 -0.0239
 1733TIP3    H2 5164   3.521   6.154   1.658  0.6745 -0.0039  0.4077
 1734TIP3   OH2 5165   6.277   0.277   0.436 -0.2880  0.1990 -0.4170
 1734TIP3    H1 5166   6.185   0.250   0.446 -0.5137  0.4157 -1.6982
 1734TIP3    H2 5167   6.327   0.204   0.472 -0.9544  0.5636  1.3633
 1735TIP3   OH2 5168   5.019   3.112   1.093 -0.2460 -0.1599  0.2074
 1735TIP3    H1 5169   4.961   3.101   1.168 -0.1128 -0.1701  0.3099
 1735TIP3    H2 5170   4.999   3.038   1.036 -1.1493  0.4588 -0.3051
 1736TIP3   OH2 5171   5.025   2.897   0.620 -0.0026 -0.1250  0.3433
 1736TIP3    H1 5172   5.118   2.877   0.621 -0.1779 -0.9802  1.4255
 1736TIP3    H2 5173   5.018   2.976   0.567  1.0623 -1.2825 -1.6268
 1737TIP3   OH2 5174   1.086   5.367   5.408 -1.1583  0.1575 -0.4074
 1737TIP3    H1 5175   1.171   5.393   5.372 -0.8886  1.1563  0.8979
 1737TIP3    H2 5176   1.042   5.450   5.430 -1.7822 -0.3913  0.4828
 1738TIP3   OH2 5177   6.529   5.925   2.660 -0.2118  0.3611  0.0139
 1738TIP3    H1 5178   6.588   5.880   2.722 -2.3025 -2.4301  0.1630
 1738TIP3    H2 5179   6.560   5.898   2.574 -0.0822  0.5156  0.0111
 1739TIP3   OH2 5180   4.629   0.896   2.462  0.0237  0.2997  0.0821
 1739TIP3    H1 5181   4.603   0.906   2.554 -0.3641 -2.5647  0.3679
 1739TIP3    H2 5182   4.722   0.875   2.465 -0.0372 -0.0103 -0.1593
 1740TIP3   OH2 5183   3.547   0.368   4.977  0.8105 -0.2018 -0.3942
 1740TIP3    H1 5184   3.533   0.355   4.883  1.3950  0.8682 -0.6511
 1740TIP3    H2 5185   3.642   0.357   4.988  1.0202  1.4611 -0.2689
 1741TIP3   OH2 5186   6.377   1.425   2.025 -1.3922  0.0159  1.0720
 1741TIP3    H1 5187   6.298   1.477   2.038 -0.7105  1.2813  0.2850
 1741TIP3    H2 5188   6.449   1.487   2.033 -0.4597 -1.1304  1.8438
 1742TIP3   OH2 5189   1.254   5.949   0.181  0.2398 -0.0516  0.6213
 1742TIP3    H1 5190   1.194   5.991   0.119  1.0033 -0.1403 -0.1971
 1742TIP3    H2 5191   1.231   5.988   0.265 -0.2273  0.7366  0.1511
 1743TIP3   OH2 5192   3.128   5.470   1.821  0.1570  0.1830  0.4450
 1743TIP3    H1 5193   3.079   5.448   1.900  0.8038 -1.4799  0.4183
 1743TIP3    H2 5194   3.100   5.559   1.799 -2.6033 -0.5627  0.5874
 1744TIP3   OH2 5195   5.243   4.034   4.694  0.4037 -0.0893 -0.0411
 1744TIP3    H1 5196   5.304   4.105   4.712  1.7253 -1.0629 -0.4868
 1744TIP3    H2 5197   5.168   4.050   4.752  0.2388  2.1445 -0.7677
 1745TIP3   OH2 5198   3.555   5.291   3.379  0.1827  0.3827  0.5551
 1745TIP3    H1 5199   3.503   5.351   3.325 -0.7412 -0.3618  0.5835
 1745TIP3    H2 5200   3.499   5.270   3.453  0.8108  0.1215  0.9639
 1746TIP3   OH2 5201   6.185   4.859   1.970  0.0948  1.1083  0.2002
 1746TIP3    H1 5202   6.208   4.786   2.028 -0.9318  1.5054  1.1315
 1746TIP3    H2 5203   6.143   4.817   1.895 -1.4938  0.7659  1.2263
 1747TIP3   OH2 5204   0.552   0.491   1.790  0.9322 -0.6735 -0.3210
 1747TIP3    H1 5205   0.561   0.523   1.700  1.0740  0.9186  0.2334
 1747TIP3    H2 5206   0.458   0.490   1.806  0.9347 -0.4274 -0.2972
 1748TIP3   OH2 5207   0.863   4.862   2.016  0.0032 -0.4946 -0.7474
 1748TIP3    H1 5208   0.859   4.884   2.109  1.9614 -1.1415 -0.4647
 1748TIP3    H2 5209   0.874   4.946   1.972  0.9653 -0.3339 -0.2233
 1749TIP3   OH2 5210   2.016   4.623   5.769  0.2897  0.2744  0.1313
 1749TIP3    H1 5211   1.981   4.545   5.726 -0.4190  0.4565  0.3645
 1749TIP3    H2 5212   1.940   4.680   5.782  0.7687  0.9227  0.1406
 1750TIP3   OH2 5213   5.124   4.106   1.534 -0.0926  0.4956  0.6730
 1750TIP3    H1 5214   5.208   4.097   1.580 -0.4689  2.0532  1.7490
 1750TIP3    H2 5215   5.060   4.069   1.596 -0.4153  1.0990  0.7024
 1751TIP3   OH2 5216   2.011   6.633   1.922 -0.0901  0.2301  0.1571
 1751TIP3    H1 5217   2.069   6.557   1.930  0.6172  0.6234 -0.8973
 1751TIP3    H2 5218   2.032   6.687   1.998 -0.9354 -0.8341  1.1683
 1752TIP3   OH2 5219   4.142   4.571   5.186  0.6349  0.5242  0.0917
 1752TIP3    H1 5220   4.173   4.626   5.258  1.5262  2.0511 -1.3739
 1752TIP3    H2 5221   4.212   4.575   5.122 -0.8891  0.7802 -1.6524
 1753TIP3   OH2 5222   0.339   1.025   0.464 -0.8708  0.7600 -0.8179
 1753TIP3    H1 5223   0.399   1.096   0.442  0.1823  0.0390 -0.3831
 1753TIP3    H2 5224   0.376   0.986   0.544 -2.3929  0.8149 -0.0514
 1754TIP3   OH2 5225   3.692   6.399   5.473  0.2289  0.1861  0.0326
 1754TIP3    H1 5226   3.599   6.421   5.467  0.2590  0.0160 -1.1649
 1754TIP3    H2 5227   3.736   6.484   5.481  0.0349  0.3055 -0.1703
 1755TIP3   OH2 5228   0.558   3.899   4.490 -0.7342  0.2964 -0.3077
 1755TIP3    H1 5229   0.616   3.971   4.467 -2.2967  0.9028 -2.8414
 1755TIP3    H2 5230   0.593   3.824   4.442 -0.9815  0.1999 -0.3403
 1756TIP3   OH2 5231   2.980   0.466   4.272  0.5329  0.4542  0.2379
 1756TIP3    H1 5232   2.989   0.523   4.196 -0.0181  1.8273  1.1527
 1756TIP3    H2 5233   2.901   0.497   4.316  0.1858 -1.0754  0.7489
 1757TIP3   OH2 5234   2.873   0.322   2.000  0.1199  0.2978  0.2704
 1757TIP3    H1 5235   2.901   0.379   1.928  0.2541 -0.9862 -0.7439
 1757TIP3    H2 5236   2.794   0.364   2.034  0.5961  1.4364  0.0041
 1758TIP3   OH2 5237   2.058   4.151   5.682 -0.5286  0.2123 -0.0019
 1758TIP3    H1 5238   2.051   4.108   5.596 -0.8922 -1.1223  0.6683
 1758TIP3    H2 5239   2.139   4.202   5.677  0.3737 -1.2052 -0.5691
 1759TIP3   OH2 5240   3.698   1.204   1.199  0.4293 -0.5704 -0.3307
 1759TIP3    H1 5241   3.610   1.235   1.217  0.4099 -0.3122 -0.8542
 1759TIP3    H2 5242   3.724   1.248   1.118  1.4856  0.2428  0.4097
 1760TIP3   OH2 5243   1.535   6.241   4.987 -0.2830 -0.0284 -0.4019
 1760TIP3    H1 5244   1.507   6.286   5.066  0.7206 -0.2885  0.1136
 1760TIP3    H2 5245   1.458   6.243   4.930 -0.5308  1.5786 -0.0606
 1761TIP3   OH2 5246   0.457   1.844   3.572  0.5992 -0.3080 -0.1679
 1761TIP3    H1 5247   0.547   1.868   3.551  1.0322 -0.6138  1.2353
 1761TIP3    H2 5248   0.442   1.763   3.523 -0.1561  1.5022 -3.2040
 1762TIP3   OH2 5249   1.060   3.443   1.466 -0.5640 -0.0991  0.2536
 1762TIP3    H1 5250   0.976   3.481   1.440  0.1854  0.6371 -1.2082
 1762TIP3    H2 5251   1.077   3.375   1.401  0.3965  0.3943 -0.0362
 1763TIP3   OH2 5252   4.117   3.059   5.854  0.3011  0.3934 -0.0844
 1763TIP3    H1 5253   4.057   3.043   5.781  0.6826 -1.4442 -0.0275
 1763TIP3    H2 5254   4.063   3.100   5.921 -0.8087 -0.8550 -0.1840
 1764TIP3   OH2 5255   6.745   5.302   2.182  0.0296  0.1109 -0.2785
 1764TIP3    H1 5256   6.780   5.214   2.167  1.4216  0.9040 -1.9656
 1764TIP3    H2 5257   6.796   5.336   2.256 -1.1492 -0.7883  1.0013
 1765TIP3   OH2 5258   2.515   4.173   5.317  0.7571  0.5008  0.0532
 1765TIP3    H1 5259   2.606   4.185   5.287  0.3031 -0.0440 -1.6304
 1765TIP3    H2 5260   2.469   4.138   5.241 -0.7617  0.2466  1.0502
 1766TIP3   OH2 5261   1.420   1.330   1.500  0.0256  0.5296  0.2112
 1766TIP3    H1 5262   1.382   1.251   1.460  0.7023  0.0186  0.5639
 1766TIP3    H2 5263   1.510   1.333   1.466 -0.2339  1.5927 -0.4225
 1767TIP3   OH2 5264   0.478   2.579   4.678 -0.3897 -0.5151  0.3073
 1767TIP3    H1 5265   0.505   2.491   4.649  1.0690 -0.7083  2.0941
 1767TIP3    H2 5266   0.551   2.636   4.654  0.0732 -0.3784  1.9529
 1768TIP3   OH2 5267   0.515   5.176   1.237 -0.5148 -0.2184 -0.2616
 1768TIP3    H1 5268   0.565   5.236   1.182 -1.2342 -0.1107 -0.8098
 1768TIP3    H2 5269   0.536   5.203   1.327 -1.1501  1.1323 -0.4904
 1769TIP3   OH2 5270   2.736   4.212   4.697  0.5852  0.4802 -0.8411
 1769TIP3    H1 5271   2.661   4.170   4.741 -0.6492  2.3437 -1.0568
 1769TIP3    H2 5272   2.810   4.196   4.756 -0.5424  0.8528  0.7407
 1770TIP3   OH2 5273   3.070   0.618   1.950 -0.5727  0.3788 -0.7536
 1770TIP3    H1 5274   3.058   0.713   1.954  0.6602  0.6810 -2.7167
 1770TIP3    H2 5275   3.141   0.606   1.887 -3.0612 -1.9705 -3.4209
 1771TIP3   OH2 5276   2.555   2.042   4.535  0.2059 -0.2076 -0.3355
 1771TIP3    H1 5277   2.551   1.952   4.502 -0.5758  0.2647 -1.5800
 1771TIP3    H2 5278   2.490   2.089   4.484 -0.0756  0.8680  0.9745
 1772TIP3   OH2 5279   1.933   1.679   4.290  0.0042  0.3581 -0.0523
 1772TIP3    H1 5280   1.949   1.635   4.207 -1.5846 -0.5415  0.0688
 1772TIP3    H2 5281   1.930   1.608   4.355  0.6009  0.9859  0.6775
 1773TIP3   OH2 5282   2.401   0.594   1.508  0.1398 -1.1581 -0.7805
 1773TIP3    H1 5283   2.488   0.555   1.502 -0.0056 -1.4649 -0.9264
 1773TIP3    H2 5284   2.378   0.616   1.418 -0.0351 -1.3010 -0.7704
 1774TIP3   OH2 5285   3.140   2.894   1.250 -0.0269  0.0254 -1.0091
 1774TIP3    H1 5286   3.192   2.870   1.327 -0.0997  0.7075 -0.7436
 1774TIP3    H2 5287   3.049   2.889   1.280 -0.0362  0.8977 -0.8635
 1775TIP3   OH2 5288   3.811   1.244   2.432  0.2437 -0.3136  0.3157
 1775TIP3    H1 5289   3.743   1.311   2.430  1.7732  1.3041 -0.5172
 1775TIP3    H2 5290   3.818   1.215   2.341 -0.4415 -1.7178  0.6724
 1776TIP3   OH2 5291   2.082   5.680   1.227  0.2708 -0.2239 -0.4893
 1776TIP3    H1 5292   2.109   5.589   1.215  2.1608  0.4203 -1.3359
 1776TIP3    H2 5293   1.999   5.674   1.275  1.5309 -2.3299  1.6272
 1777TIP3   OH2 5294   3.971   5.754   1.468 -0.5498  0.3388  0.0564
 1777TIP3    H1 5295   3.974   5.727   1.560  0.1657  0.2084 -0.0014
 1777TIP3    H2 5296   3.913   5.830   1.468  1.6907  2.1961  1.1149
 1778TIP3   OH2 5297   1.002   3.007   4.594 -0.1486  0.0768 -0.0972
 1778TIP3    H1 5298   1.040   3.009   4.506 -0.3716  1.4821 -0.1791
 1778TIP3    H2 5299   1.073   2.973   4.649 -0.1832 -1.3577 -0.8672
 1779TIP3   OH2 5300   5.949   1.388   3.307  0.4153  0.4536  0.0159
 1779TIP3    H1 5301   5.910   1.365   3.223 -1.5793  0.4928  0.8701
 1779TIP3    H2 5302   5.909   1.472   3.330  0.2094  0.0168  1.3855
 1780TIP3   OH2 5303   3.692   3.600   5.419  0.0396 -0.3699 -0.3559
 1780TIP3    H1 5304   3.734   3.562   5.341  0.1573 -0.3981 -0.2786
 1780TIP3    H2 5305   3.740   3.681   5.436 -2.2567  1.6003 -2.4847
 1781TIP3   OH2 5306   5.765   2.574   3.743 -0.0433 -0.2767 -0.0471
 1781TIP3    H1 5307   5.823   2.603   3.813 -1.2101  1.0657  0.4362
 1781TIP3    H2 5308   5.770   2.479   3.744  0.6884 -0.2414  1.2290
 1782TIP3   OH2 5309   0.029   5.164   0.397  0.0906  0.1121  0.4952
 1782TIP3    H1 5310   0.122   5.164   0.419  0.0117  1.7532  0.9339
 1782TIP3    H2 5311  -0.015   5.182   0.479 -0.5040  1.0856 -0.0230
 1783TIP3   OH2 5312   5.160   1.456   5.864 -0.0104 -0.1940 -0.9417
 1783TIP3    H1 5313   5.074   1.433   5.902  1.0269  0.0283  1.7605
 1783TIP3    H2 5314   5.168   1.550   5.877  1.6381 -0.5621  1.2309
 1784TIP3   OH2 5315   2.184   1.059   3.363 -0.2808 -0.5122  0.7131
 1784TIP3    H1 5316   2.205   1.035   3.272  0.6347 -0.7760  0.9907
 1784TIP3    H2 5317   2.120   1.130   3.354  0.4464  0.0565 -0.1542
 1785TIP3   OH2 5318   3.979   0.898   4.144 -0.5012  0.7684 -0.6148
 1785TIP3    H1 5319   3.922   0.975   4.154  0.2073  1.3549 -1.0038
 1785TIP3    H2 5320   3.918   0.826   4.126 -1.0836  1.5641 -2.0279
 1786TIP3   OH2 5321   6.673   5.137   3.894  0.4765 -1.1894  0.1042
 1786TIP3    H1 5322   6.740   5.079   3.931 -0.7104 -1.7897  1.3981
 1786TIP3    H2 5323   6.696   5.144   3.801  2.3721 -1.2842  0.5427
 1787TIP3   OH2 5324   2.447   1.414   5.509 -0.0810 -1.1804  0.3922
 1787TIP3    H1 5325   2.485   1.444   5.427 -1.2983  0.1100  0.2683
 1787TIP3    H2 5326   2.456   1.489   5.568  1.3770 -2.2951  1.6915
 1788TIP3   OH2 5327   1.844   6.398   5.078 -0.0067  0.2705  0.4519
 1788TIP3    H1 5328   1.826   6.307   5.053 -0.2977  0.4411  0.0149
 1788TIP3    H2 5329   1.876   6.393   5.167  1.7620 -0.4349 -0.1897
 1789TIP3   OH2 5330   7.025   5.058   4.706 -0.7817  0.2430 -0.0396
 1789TIP3    H1 5331   7.018   5.140   4.658  0.9227  0.3746 -0.1486
 1789TIP3    H2 5332   7.042   4.992   4.639 -0.5757  0.0727  0.1766
 1790TIP3   OH2 5333   2.827   2.615   4.897  0.5225 -0.0199 -0.1521
 1790TIP3    H1 5334   2.828   2.626   4.802  0.9721  2.8302  0.1099
 1790TIP3    H2 5335   2.903   2.663   4.929 -0.9701  1.2657  1.7831
 1791TIP3   OH2 5336   4.897   2.975   2.822  0.3195 -0.3393  0.3461
 1791TIP3    H1 5337   4.832   2.934   2.879  1.3754  1.0429  2.6817
 1791TIP3    H2 5338   4.846   3.024   2.757 -0.9498 -0.0572  1.5220
 1792TIP3   OH2 5339   4.472   3.133   3.365  0.0787 -0.2899  0.0089
 1792TIP3    H1 5340   4.519   3.183   3.432 -0.7481 -1.9046  1.9013
 1792TIP3    H2 5341   4.542   3.087   3.317  0.6450  0.1744  0.3779
 1793TIP3   OH2 5342   0.092   1.159   2.039  0.4319 -0.1371  0.8844
 1793TIP3    H1 5343   0.072   1.251   2.020  0.7412  0.2510  2.2965
 1793TIP3    H2 5344   0.184   1.149   2.014  0.0208 -0.4692 -0.5909
 1794TIP3   OH2 5345   5.068   0.652   0.936  0.2161 -0.7741 -0.2478
 1794TIP3    H1 5346   5.003   0.662   1.006  0.5248 -0.7422  0.0378
 1794TIP3    H2 5347   5.041   0.574   0.888 -0.3884 -0.4041 -0.5129
 1795TIP3   OH2 5348   6.847   1.252   0.441  0.1325  0.4570 -0.2632
 1795TIP3    H1 5349   6.936   1.229   0.470  0.5999  0.4364 -1.6674
 1795TIP3    H2 5350   6.839   1.212   0.355 -0.9288  1.2258 -0.5271
 1796TIP3   OH2 5351   3.748   1.271   1.887 -0.4994 -0.1332  0.7859
 1796TIP3    H1 5352   3.826   1.306   1.843 -0.9465  1.0509  0.8953
 1796TIP3    H2 5353   3.685   1.256   1.817 -1.3221  2.0430  0.9673
 1797TIP3   OH2 5354   3.976   1.622   0.405  0.8960  0.4383  0.1050
 1797TIP3    H1 5355   3.966   1.695   0.343  1.7443  0.2072 -0.3312
 1797TIP3    H2 5356   3.921   1.645   0.479  0.3663  1.0377 -0.4648
 1798TIP3   OH2 5357   0.250   6.278   2.366 -0.2244 -0.3886  0.1071
 1798TIP3    H1 5358   0.287   6.364   2.346  1.1762 -0.7436  0.9888
 1798TIP3    H2 5359   0.272   6.224   2.290 -3.2836  0.5569 -1.6288
 1799TIP3   OH2 5360   0.522   6.265   2.936  0.2965 -0.3751  0.4183
 1799TIP3    H1 5361   0.529   6.318   3.015 -0.7376 -0.6109  0.6735
 1799TIP3    H2 5362   0.484   6.324   2.870  0.8124 -0.2866  0.1931
 1800TIP3   OH2 5363   0.615   6.289   1.640  0.1154 -0.3583 -0.1290
 1800TIP3    H1 5364   0.521   6.290   1.624 -0.0759 -0.7777  0.9110
 1800TIP3    H2 5365   0.650   6.232   1.571 -0.7465 -2.5337  1.1426
 1801TIP3   OH2 5366   6.734   0.747   2.926 -0.0526 -0.4551 -0.3394
 1801TIP3    H1 5367   6.673   0.742   2.999  0.4814  1.1102  0.2557
 1801TIP3    H2 5368   6.816   0.776   2.964  0.7943 -1.5262 -1.2854
 1802TIP3   OH2 5369   6.588   2.614   2.706 -0.2873  0.1079  0.9743
 1802TIP3    H1 5370   6.666   2.578   2.664 -0.7658 -0.1308  0.2896
 1802TIP3    H2 5371   6.556   2.679   2.644 -1.5173 -0.8836  0.5440
 1803TIP3   OH2 5372   7.012   1.887   3.654  1.0095 -1.0349 -0.2451
 1803TIP3    H1 5373   7.057   1.906   3.736  0.2367  4.0433 -0.6727
 1803TIP3    H2 5374   7.061   1.935   3.588 -1.6510 -0.1333 -1.7046
 1804TIP3   OH2 5375   7.070   1.417   5.069  0.2406  0.0707 -0.2958
 1804TIP3    H1 5376   7.138   1.464   5.118 -0.6453  0.1624  0.8870
 1804TIP3    H2 5377   6.998   1.480   5.061  0.0821 -0.1966 -1.0820
 1805TIP3   OH2 5378   5.177   6.181   1.360  0.0347  0.5669 -0.3370
 1805TIP3    H1 5379   5.202   6.233   1.436 -0.8735 -0.0562  0.4103
 1805TIP3    H2 5380   5.213   6.229   1.285  0.9175  1.2035  0.4715
 1806TIP3   OH2 5381   6.399   0.887   2.676 -0.0346  0.5398 -0.6078
 1806TIP3    H1 5382   6.482   0.922   2.708 -0.6103  0.5092  1.0181
 1806TIP3    H2 5383   6.423   0.832   2.602  1.3257  0.9870 -0.5347
 1807TIP3   OH2 5384   3.883   2.184   3.323 -0.0240 -0.2424  0.1084
 1807TIP3    H1 5385   3.913   2.162   3.411  0.1214  0.7572  0.3259
 1807TIP3    H2 5386   3.802   2.135   3.312  0.0636 -0.5318  0.7196
 1808TIP3   OH2 5387   7.115   2.543   5.540  0.2899  0.3694  0.0745
 1808TIP3    H1 5388   7.086   2.537   5.449 -0.1601 -2.5348  0.2894
 1808TIP3    H2 5389   7.197   2.591   5.537 -0.0288  0.8664 -1.7704
 1809TIP3   OH2 5390   5.317   2.937   0.230  0.2309  0.4171 -0.0645
 1809TIP3    H1 5391   5.236   2.885   0.237  1.4619 -1.7893 -1.0991
 1809TIP3    H2 5392   5.330   2.948   0.136  1.6459 -0.1881  0.0324
 1810TIP3   OH2 5393   1.395   6.470   3.296 -0.2483  0.2713  0.2426
 1810TIP3    H1 5394   1.440   6.410   3.356 -1.2575 -1.3887 -0.6040
 1810TIP3    H2 5395   1.354   6.413   3.231 -0.9324  1.9167 -0.8225
 1811TIP3   OH2 5396   2.714   5.251   2.369 -0.3720 -0.0618  0.7967
 1811TIP3    H1 5397   2.653   5.192   2.413 -1.1367 -0.3504 -0.5975
 1811TIP3    H2 5398   2.667   5.334   2.363 -0.9874 -0.5043 -0.9976
 1812TIP3   OH2 5399   7.059   3.600   5.761 -0.2102 -0.0079  0.0614
 1812TIP3    H1 5400   7.053   3.618   5.667 -0.8776 -1.2617 -0.1700
 1812TIP3    H2 5401   7.035   3.507   5.768 -1.1305  0.3209  1.5769
 1813TIP3   OH2 5402   1.391   6.338   5.238  0.4787  0.5683 -0.3517
 1813TIP3    H1 5403   1.341   6.289   5.303  0.7025  1.5344  0.5705
 1813TIP3    H2 5404   1.325   6.380   5.183  0.2872 -0.4256 -0.9114
 1814TIP3   OH2 5405   6.430   5.116   0.143  0.1921 -0.7938  0.1295
 1814TIP3    H1 5406   6.505   5.078   0.098  1.1388 -0.6283  1.5056
 1814TIP3    H2 5407   6.411   5.055   0.214 -0.1525 -0.1936  0.5661
 1815TIP3   OH2 5408   6.152   0.265   3.506 -0.4451  0.2068 -0.0215
 1815TIP3    H1 5409   6.107   0.243   3.424 -0.0521  2.4191 -0.8842
 1815TIP3    H2 5410   6.242   0.281   3.480 -0.3926  1.2808  0.7892
 1816TIP3   OH2 5411   5.966   6.692   2.686 -0.0808  0.5724 -0.0447
 1816TIP3    H1 5412   5.964   6.703   2.591 -2.7410  0.2340 -0.1042
 1816TIP3    H2 5413   5.988   6.599   2.699  1.5495  0.8990 -0.2326
 1817TIP3   OH2 5414   5.421   5.613   1.803  0.0473  0.1021 -0.3606
 1817TIP3    H1 5415   5.430   5.590   1.710 -0.9890  0.4730 -0.5762
 1817TIP3    H2 5416   5.342   5.668   1.805  0.2684  0.3830  0.6910
 1818TIP3   OH2 5417   5.448   3.418   4.728  0.5025  0.5500 -0.2750
 1818TIP3    H1 5418   5.436   3.445   4.637 -0.9126 -1.1943 -0.6544
 1818TIP3    H2 5419   5.363   3.435   4.770  1.0561  1.0817  0.6601
 1819TIP3   OH2 5420   3.057   0.710   3.127 -0.7746 -0.2258  0.3109
 1819TIP3    H1 5421   2.991   0.779   3.126  0.4364  1.0232 -1.9701
 1819TIP3    H2 5422   3.139   0.756   3.144  0.0893 -0.9908 -1.4836
 1820TIP3   OH2 5423   3.384   6.023   4.210  0.0060  0.1414  0.0205
 1820TIP3    H1 5424   3.445   6.088   4.244  0.3652 -0.7788  1.2104
 1820TIP3    H2 5425   3.437   5.968   4.152  0.2496 -0.4486  0.7854
 1821TIP3   OH2 5426   5.563   0.420   2.667  0.3077  0.0442  0.6221
 1821TIP3    H1 5427   5.489   0.406   2.726  0.3867 -0.7039  0.5617
 1821TIP3    H2 5428   5.597   0.331   2.650  0.5999  0.2923 -0.1390
 1822TIP3   OH2 5429   3.807   6.767   2.577  0.3622 -0.2030 -0.1426
 1822TIP3    H1 5430   3.734   6.705   2.582 -1.0070  1.3328 -0.2813
 1822TIP3    H2 5431   3.876   6.720   2.530 -0.7236 -1.5153 -0.4727
 1823TIP3   OH2 5432   4.026   6.678   2.444 -0.0944 -0.6328 -0.4421
 1823TIP3    H1 5433   4.067   6.636   2.368  1.3542  0.1034 -0.0962
 1823TIP3    H2 5434   4.088   6.745   2.471 -1.6013  0.6152  0.0476
 1824TIP3   OH2 5435   3.620   2.668   5.044  0.0387 -0.0085  0.3528
 1824TIP3    H1 5436   3.695   2.624   5.004  0.2009  1.2287 -0.7797
 1824TIP3    H2 5437   3.559   2.597   5.063  0.4108 -0.7812 -1.1372
 1825TIP3   OH2 5438   0.441   4.772   4.759  0.4653 -0.7472 -0.4593
 1825TIP3    H1 5439   0.400   4.688   4.742 -0.9030 -0.3993  0.8542
 1825TIP3    H2 5440   0.456   4.772   4.854 -1.1351  1.1212 -0.1414
 1826TIP3   OH2 5441   1.838   5.850   2.210 -0.2280 -0.3693 -0.4957
 1826TIP3    H1 5442   1.787   5.915   2.161 -1.3811 -0.8152  0.0590
 1826TIP3    H2 5443   1.775   5.781   2.231 -0.3900  0.6662  3.2803
 1827TIP3   OH2 5444   0.305   4.884   3.064 -0.0627 -0.4374  0.4411
 1827TIP3    H1 5445   0.227   4.899   3.009  0.3093  0.7054  0.1904
 1827TIP3    H2 5446   0.276   4.906   3.152 -0.8547 -2.9247  0.8724
 1828TIP3   OH2 5447   6.395   4.147   2.889  0.1846  0.0969  0.5485
 1828TIP3    H1 5448   6.379   4.209   2.959 -1.1054 -0.4731  0.7817
 1828TIP3    H2 5449   6.436   4.072   2.932  0.3194  0.1488  0.5135
 1829TIP3   OH2 5450   3.466   4.063   0.876 -0.3532 -0.4100  0.0254
 1829TIP3    H1 5451   3.548   4.109   0.857  0.7139 -1.4889  1.7002
 1829TIP3    H2 5452   3.419   4.123   0.934 -1.7111  1.0603 -2.4575
 1830TIP3   OH2 5453   3.206   3.578   2.717  0.7281  0.2774  0.0342
 1830TIP3    H1 5454   3.111   3.577   2.731  0.1474  1.0470 -3.1174
 1830TIP3    H2 5455   3.232   3.486   2.723 -0.4130 -0.0613 -0.0504
 1831TIP3   OH2 5456   4.380   5.686   3.664 -0.2556 -0.3281 -0.6390
 1831TIP3    H1 5457   4.455   5.743   3.678 -0.3095 -0.3075 -0.4240
 1831TIP3    H2 5458   4.406   5.628   3.592  0.6317 -1.4618  0.5331
 1832TIP3   OH2 5459   4.062   0.915   1.446  0.0702 -0.3136  0.1154
 1832TIP3    H1 5460   4.005   0.992   1.445 -1.9024 -1.6692  1.4273
 1832TIP3    H2 5461   4.135   0.940   1.502  0.4428  1.2061 -0.9817
 1833TIP3   OH2 5462   6.696   4.354   1.208 -0.2283  0.1435 -0.0398
 1833TIP3    H1 5463   6.644   4.403   1.144  1.2163  2.9854  0.8115
 1833TIP3    H2 5464   6.738   4.421   1.261  1.7875 -2.0739  1.3454
 1834TIP3   OH2 5465   6.888   3.217   4.530 -0.3457  0.1259 -0.2640
 1834TIP3    H1 5466   6.953   3.214   4.460  0.9474 -2.5664  0.9126
 1834TIP3    H2 5467   6.922   3.280   4.593 -0.7097  1.3519 -1.2493
 1835TIP3   OH2 5468   7.115   5.501   2.754 -0.2333  0.4271 -0.2083
 1835TIP3    H1 5469   7.108   5.417   2.799  2.3223  0.9858  1.4530
 1835TIP3    H2 5470   7.040   5.551   2.786 -1.0570 -0.7496 -0.2177
 1836TIP3   OH2 5471   2.422   0.254   1.784 -0.2454  0.7242  0.1547
 1836TIP3    H1 5472   2.513   0.230   1.801  0.0147  1.2782 -0.4047
 1836TIP3    H2 5473   2.413   0.342   1.822 -0.6260  0.5555  0.4582
 1837TIP3   OH2 5474   3.078   4.573   2.935  0.2664  0.0507 -0.7197
 1837TIP3    H1 5475   3.109   4.523   2.860  1.1339 -0.1326 -0.2625
 1837TIP3    H2 5476   3.158   4.613   2.972 -0.4251  2.0065 -1.2272
 1838TIP3   OH2 5477   4.628   6.260   5.453 -0.2264 -0.1620 -0.5142
 1838TIP3    H1 5478   4.581   6.263   5.370 -1.3585  1.0493  0.1100
 1838TIP3    H2 5479   4.654   6.169   5.464 -1.1855 -0.5846 -1.5955
 1839TIP3   OH2 5480   2.344   2.446   0.122 -0.0331  0.0412 -1.0867
 1839TIP3    H1 5481   2.389   2.518   0.078 -0.4846  0.7241 -0.4711
 1839TIP3    H2 5482   2.364   2.459   0.215 -3.4795  1.9376 -0.4204
 1840TIP3   OH2 5483   4.492   6.079   2.564  0.0399 -0.3873 -0.6486
 1840TIP3    H1 5484   4.509   6.159   2.613  0.1452 -0.4510 -0.5799
 1840TIP3    H2 5485   4.548   6.013   2.606  0.1974 -0.4213 -0.9112
 1841TIP3   OH2 5486   6.954   1.807   4.897  0.1427  0.3546 -0.2345
 1841TIP3    H1 5487   6.882   1.870   4.897 -0.2227 -0.0389 -1.0066
 1841TIP3    H2 5488   7.021   1.848   4.842 -0.0021  0.1825 -0.5452
 1842TIP3   OH2 5489   6.804   1.777   1.040 -0.0727 -0.0675 -0.0698
 1842TIP3    H1 5490   6.890   1.813   1.017 -0.8111  0.3461 -2.4604
 1842TIP3    H2 5491   6.760   1.849   1.084 -0.5091  1.0997 -2.2753
 1843TIP3   OH2 5492   2.941   5.303   5.671  0.0069  0.2585  0.6819
 1843TIP3    H1 5493   2.943   5.215   5.633  0.5552  0.8714 -0.7555
 1843TIP3    H2 5494   2.848   5.325   5.676 -0.0766  0.8501 -2.0377
 1844TIP3   OH2 5495   0.211   2.513   2.312 -0.6679 -0.1788 -0.4864
 1844TIP3    H1 5496   0.128   2.518   2.265 -0.9825 -1.4029 -0.0826
 1844TIP3    H2 5497   0.220   2.421   2.335  0.3810  0.0952  0.2431
 1845TIP3   OH2 5498   2.784   3.833   5.540 -0.0484 -0.1524 -0.6767
 1845TIP3    H1 5499   2.736   3.874   5.612 -1.5407  1.1233 -2.3038
 1845TIP3    H2 5500   2.773   3.739   5.555  2.5636 -0.1118  2.5509
 1846TIP3   OH2 5501   5.724   2.435   3.053 -0.1823  0.1219 -0.0519
 1846TIP3    H1 5502   5.638   2.468   3.028 -0.4842 -1.8679 -2.0264
 1846TIP3    H2 5503   5.712   2.399   3.141 -1.4856 -0.4436 -0.4395
 1847TIP3   OH2 5504   6.915   2.239   3.820 -0.3704  0.1132  0.0816
 1847TIP3    H1 5505   6.899   2.318   3.768  1.6496  1.8916  1.9563
 1847TIP3    H2 5506   6.992   2.260   3.873 -1.7601 -1.8541  3.1762
 1848TIP3   OH2 5507   4.244   3.317   2.887 -0.0697  0.9947  0.1316
 1848TIP3    H1 5508   4.224   3.341   2.797  0.4981 -1.4755 -0.7113
 1848TIP3    H2 5509   4.334   3.284   2.885  0.3133  1.7671  1.8158
 1849TIP3   OH2 5510   5.802   2.442   1.491  0.3972  0.2556  0.5861
 1849TIP3    H1 5511   5.777   2.396   1.570  1.5130  1.2310  1.5566
 1849TIP3    H2 5512   5.737   2.512   1.482 -0.1231 -0.2621  0.2408
 1850TIP3   OH2 5513   1.896   2.501   3.451 -0.0710  0.2541  0.8079
 1850TIP3    H1 5514   1.872   2.475   3.362 -1.2977  0.9986  0.9056
 1850TIP3    H2 5515   1.913   2.595   3.445  1.0712  0.0828  1.1216
 1851TIP3   OH2 5516   1.971   3.683   3.857  0.5408 -0.1619  0.0278
 1851TIP3    H1 5517   2.015   3.678   3.941 -0.1785 -1.2887  0.3637
 1851TIP3    H2 5518   2.028   3.737   3.802  0.3701  1.7448  1.6206
 1852TIP3   OH2 5519   2.475   1.731   0.218  0.3513  0.2284 -1.0206
 1852TIP3    H1 5520   2.565   1.760   0.204  0.2504  1.2593  0.3206
 1852TIP3    H2 5521   2.481   1.669   0.290 -0.0888  0.7885 -0.4981
 1853TIP3   OH2 5522   1.937   6.498   4.814 -0.2089 -0.1003  0.2081
 1853TIP3    H1 5523   1.921   6.421   4.759 -2.2098 -0.4139  1.1372
 1853TIP3    H2 5524   1.921   6.468   4.903 -1.7788  1.5198  0.5352
 1854TIP3   OH2 5525   1.239   6.368   1.846 -0.8040  0.7525  0.3559
 1854TIP3    H1 5526   1.308   6.327   1.794 -0.6088 -0.1824  1.3077
 1854TIP3    H2 5527   1.158   6.327   1.815 -0.7853  0.8461  0.1822
 1855TIP3   OH2 5528   0.732   4.244   3.144 -0.0802  0.0151 -0.2428
 1855TIP3    H1 5529   0.691   4.206   3.065  0.2092 -0.2497 -0.2676
 1855TIP3    H2 5530   0.817   4.201   3.149  1.1099  2.0692 -1.3789
 1856TIP3   OH2 5531   1.077   2.330   1.767  0.1488 -0.3488 -0.3366
 1856TIP3    H1 5532   1.004   2.270   1.775 -0.8521  1.0657  2.7255
 1856TIP3    H2 5533   1.037   2.416   1.754  1.2628  0.3371  0.5074
 1857TIP3   OH2 5534   3.115   6.472   1.213 -0.0566 -0.0925  0.0714
 1857TIP3    H1 5535   3.158   6.444   1.132 -0.3881  1.4560 -0.6762
 1857TIP3    H2 5536   3.028   6.501   1.185  0.0970  1.2030  0.8432
 1858TIP3   OH2 5537   1.308   3.004   3.627 -0.0764 -0.1489 -0.2995
 1858TIP3    H1 5538   1.318   3.098   3.638 -2.3105  0.2132 -0.8115
 1858TIP3    H2 5539   1.298   2.970   3.716  0.0647  0.1864 -0.1536
 1859TIP3   OH2 5540   3.143   1.745   1.918  0.3744 -0.3611 -0.5209
 1859TIP3    H1 5541   3.225   1.706   1.887 -0.0428 -0.2640 -1.7977
 1859TIP3    H2 5542   3.075   1.707   1.863 -0.3157  0.3639 -0.1962
 1860TIP3   OH2 5543   1.865   0.033   2.664 -0.7730 -0.6080  0.5834
 1860TIP3    H1 5544   1.803   0.103   2.683  0.0187  0.8168 -1.6812
 1860TIP3    H2 5545   1.951   0.075   2.670 -0.1462 -1.8984  1.0606
 1861TIP3   OH2 5546   4.769   3.533   1.200  0.9185  0.4042  0.0370
 1861TIP3    H1 5547   4.837   3.471   1.173  0.8675  0.1463  0.4852
 1861TIP3    H2 5548   4.738   3.572   1.119  1.0903 -0.0134 -0.2310
 1862TIP3   OH2 5549   0.864   1.022   2.751  0.0045 -0.2317  0.3923
 1862TIP3    H1 5550   0.939   1.078   2.728  0.4299 -1.1280 -0.5232
 1862TIP3    H2 5551   0.895   0.933   2.731 -1.4767 -0.5783 -0.5000
 1863TIP3   OH2 5552   5.112   0.615   1.484  0.2084 -0.0863  0.1289
 1863TIP3    H1 5553   5.167   0.566   1.422 -1.0893 -0.4251 -0.8073
 1863TIP3    H2 5554   5.160   0.697   1.499  1.5202 -0.8617  0.2694
 1864TIP3   OH2 5555   6.566   2.278   5.719  0.6628  0.6061  0.1415
 1864TIP3    H1 5556   6.483   2.242   5.751  1.4851 -0.9710  0.6411
 1864TIP3    H2 5557   6.588   2.222   5.644 -0.3814  3.1721 -2.2710
 1865TIP3   OH2 5558   2.353   3.920   0.116 -0.2860 -0.3130  0.2994
 1865TIP3    H1 5559   2.273   3.944   0.068 -1.1307  0.6524  2.1053
 1865TIP3    H2 5560   2.339   3.828   0.141 -1.1146  0.0105  1.0853
 1866TIP3   OH2 5561   0.791   3.614   0.701  0.3728 -0.0758  0.1709
 1866TIP3    H1 5562   0.745   3.697   0.716  0.7202  0.2129 -0.3250
 1866TIP3    H2 5563   0.721   3.549   0.690 -0.0390  0.6752 -2.5107
 1867TIP3   OH2 5564   4.659   0.028   2.628  0.3075 -0.1531  0.0843
 1867TIP3    H1 5565   4.748  -0.005   2.638  0.6727  0.6678 -0.4145
 1867TIP3    H2 5566   4.626   0.037   2.717  1.7951  2.4243  0.4670
 1868TIP3   OH2 5567   1.510   2.713   0.042 -0.0424  0.0035  0.2433
 1868TIP3    H1 5568   1.545   2.677  -0.040 -0.9640 -0.3025 -0.0221
 1868TIP3    H2 5569   1.436   2.767   0.015 -0.1604  0.1545  0.8518
 1869TIP3   OH2 5570   2.134   1.659   2.501  0.0525 -0.0643 -0.0931
 1869TIP3    H1 5571   2.104   1.712   2.575  1.6461 -0.2587  0.7324
 1869TIP3    H2 5572   2.138   1.720   2.427  3.3212  1.5055  1.1523
 1870TIP3   OH2 5573   6.797   1.516   0.435 -0.2623 -0.6692 -0.6061
 1870TIP3    H1 5574   6.706   1.527   0.460 -0.1795  0.0624 -0.6168
 1870TIP3    H2 5575   6.811   1.421   0.438 -0.3512 -0.6577  1.7594
 1871TIP3   OH2 5576   4.369   0.186   3.310 -0.1784 -0.1418 -0.5078
 1871TIP3    H1 5577   4.413   0.269   3.330 -0.9175  0.2257 -0.3508
 1871TIP3    H2 5578   4.432   0.138   3.256 -0.4617  1.3357 -2.2671
 1872TIP3   OH2 5579   3.311   1.990   4.404 -0.6404  0.0432 -0.0828
 1872TIP3    H1 5580   3.249   2.026   4.341 -0.6377 -0.4201 -0.3515
 1872TIP3    H2 5581   3.263   1.923   4.451 -0.1018 -0.9393 -0.8999
 1873TIP3   OH2 5582   1.149   5.123   4.832 -0.0332 -0.4444  0.0497
 1873TIP3    H1 5583   1.173   5.194   4.772  0.1443 -0.3416  0.2400
 1873TIP3    H2 5584   1.136   5.167   4.916  0.6948 -0.7184  0.3142
 1874TIP3   OH2 5585   2.382   4.328   1.771 -0.6160 -0.4324  0.1643
 1874TIP3    H1 5586   2.474   4.303   1.767  0.5061  2.8830  1.1499
 1874TIP3    H2 5587   2.361   4.326   1.865 -1.4638 -0.8497 -0.0275
 1875TIP3   OH2 5588   5.109   2.726   1.846 -0.0574 -0.1739 -0.1753
 1875TIP3    H1 5589   5.014   2.741   1.840  0.2581  2.0057 -0.7027
 1875TIP3    H2 5590   5.133   2.761   1.932  0.2808 -0.6314 -0.0845
 1876TIP3   OH2 5591   4.180   0.474   5.262 -0.3207  0.3815  0.0756
 1876TIP3    H1 5592   4.147   0.457   5.174  2.1492  0.1633 -0.8943
 1876TIP3    H2 5593   4.110   0.446   5.321 -2.0507  0.5793 -1.8012
 1877TIP3   OH2 5594   0.094   0.642   1.820 -0.1781 -0.1699  0.1459
 1877TIP3    H1 5595   0.062   0.732   1.809  0.6376  0.0233 -0.8729
 1877TIP3    H2 5596   0.057   0.594   1.745  0.4369 -0.3628 -0.0418
 1878TIP3   OH2 5597   1.089   0.569   3.610 -0.6673  0.1146 -0.1906
 1878TIP3    H1 5598   1.048   0.501   3.558  1.2770 -3.3568  2.3902
 1878TIP3    H2 5599   1.176   0.580   3.571 -0.4218 -0.0338  0.3021
 1879TIP3   OH2 5600   6.820   0.795   1.491  0.2265 -0.1493  0.1568
 1879TIP3    H1 5601   6.916   0.794   1.498  0.1714 -1.2555  0.9849
 1879TIP3    H2 5602   6.790   0.750   1.570 -0.9875  0.2288 -0.0717
 1880TIP3   OH2 5603   6.852   4.742   1.706 -0.3599  0.0073  0.1518
 1880TIP3    H1 5604   6.820   4.654   1.722  0.0516  0.0361  1.2047
 1880TIP3    H2 5605   6.939   4.730   1.668  0.3769 -0.0599  1.7745
 1881TIP3   OH2 5606   4.032   0.060   1.216  0.5699  0.5612  0.1390
 1881TIP3    H1 5607   4.086  -0.012   1.184  0.7349  1.2158 -1.0938
 1881TIP3    H2 5608   4.087   0.138   1.206  0.6927  0.8118  2.1764
 1882TIP3   OH2 5609   6.025   3.837   1.405  0.0937 -0.3984 -0.0322
 1882TIP3    H1 5610   5.956   3.888   1.364 -0.4719 -1.0945  0.0331
 1882TIP3    H2 5611   6.006   3.843   1.499  0.7631  0.3092  0.0649
 1883TIP3   OH2 5612   2.713   4.362   5.027  0.6230  0.5130  1.1069
 1883TIP3    H1 5613   2.647   4.413   4.979  0.0104 -0.7085  0.6136
 1883TIP3    H2 5614   2.796   4.407   5.008  0.0457  1.5827  1.0552
 1884TIP3   OH2 5615   4.584   3.573   0.955  0.2670 -0.1345 -0.0002
 1884TIP3    H1 5616   4.496   3.541   0.976 -0.0878  1.1279  0.4777
 1884TIP3    H2 5617   4.575   3.610   0.867  0.0850  0.8612  0.4327
 1885TIP3   OH2 5618   4.551   3.765   1.940 -0.4022 -0.2003 -0.3717
 1885TIP3    H1 5619   4.582   3.809   2.019 -0.2391 -0.4020 -0.3229
 1885TIP3    H2 5620   4.481   3.707   1.970 -1.2677  0.7130 -0.5700
 1886TIP3   OH2 5621   4.253   1.390   5.406 -0.2182  0.1154  0.2714
 1886TIP3    H1 5622   4.200   1.425   5.334  0.8979  2.9110  0.6630
 1886TIP3    H2 5623   4.190   1.353   5.467 -1.4038  0.1592 -0.8944
 1887TIP3   OH2 5624   1.676   6.299   4.275  0.2745 -0.1999  0.4052
 1887TIP3    H1 5625   1.660   6.213   4.236 -0.6033  0.9893 -2.0718
 1887TIP3    H2 5626   1.621   6.301   4.353  0.0179 -1.7271  0.2847
 1888TIP3   OH2 5627   5.393   3.626   5.007 -0.0952  0.3851 -0.6015
 1888TIP3    H1 5628   5.332   3.574   4.955  1.0164 -0.5158 -1.0452
 1888TIP3    H2 5629   5.375   3.601   5.097  0.3264 -0.6923 -0.7999
 1889TIP3   OH2 5630   2.293   5.521   4.144  0.0612 -0.3485  0.7681
 1889TIP3    H1 5631   2.351   5.560   4.078  1.1865 -0.5851  1.5975
 1889TIP3    H2 5632   2.235   5.464   4.093 -0.8145  1.4187 -0.3156
 1890TIP3   OH2 5633   3.507   5.793   4.084 -0.2286  0.2481  0.0763
 1890TIP3    H1 5634   3.585   5.740   4.072  1.0720  1.5946  1.9325
 1890TIP3    H2 5635   3.486   5.785   4.177 -1.7397  0.6816 -0.1940
 1891TIP3   OH2 5636   1.665   3.121   4.143  1.0649 -0.1171  0.0098
 1891TIP3    H1 5637   1.748   3.102   4.099  1.5442 -0.1686  0.9224
 1891TIP3    H2 5638   1.660   3.058   4.215  0.0090 -0.4162 -0.3021
 1892TIP3   OH2 5639   3.215   0.627   3.965 -0.1606 -0.3069 -0.6725
 1892TIP3    H1 5640   3.259   0.712   3.974 -1.2970  0.3173 -0.6802
 1892TIP3    H2 5641   3.124   0.646   3.989 -0.4926 -1.4647 -0.9843
 1893TIP3   OH2 5642   0.739   2.432   5.262  0.0069 -0.0577  0.3806
 1893TIP3    H1 5643   0.690   2.508   5.294  1.1253  0.5719  0.6365
 1893TIP3    H2 5644   0.775   2.461   5.179 -2.4805 -1.5249 -1.3287
 1894TIP3   OH2 5645   6.762   4.076   5.272 -0.2681  0.0174  0.3547
 1894TIP3    H1 5646   6.750   4.102   5.363 -0.0073  2.0844 -0.1389
 1894TIP3    H2 5647   6.675   4.087   5.232 -0.3420 -0.7172  0.2944
 1895TIP3   OH2 5648   5.566   4.578   4.665 -0.0043 -0.1612 -0.5370
 1895TIP3    H1 5649   5.521   4.663   4.662 -0.2676 -0.2316  0.9875
 1895TIP3    H2 5650   5.617   4.581   4.746 -0.2882 -1.5956 -0.2882
 1896TIP3   OH2 5651   0.815   5.075   1.422 -0.2864 -0.5070 -0.0034
 1896TIP3    H1 5652   0.836   4.982   1.419 -0.7848 -0.6285  0.0504
 1896TIP3    H2 5653   0.888   5.118   1.378 -0.3623 -0.9797 -0.6015
 1897TIP3   OH2 5654   1.393   3.934   2.861 -0.2177  0.0742 -0.1789
 1897TIP3    H1 5655   1.424   3.993   2.931 -0.0808  0.1298 -0.2843
 1897TIP3    H2 5656   1.352   3.992   2.798  2.3562  0.4475 -1.6530
 1898TIP3   OH2 5657   1.757   6.089   4.639  0.6806 -0.0110  0.3039
 1898TIP3    H1 5658   1.817   6.034   4.590  0.1936 -0.3949  0.1300
 1898TIP3    H2 5659   1.694   6.028   4.677 -1.2331  0.5424 -1.7449
 1899TIP3   OH2 5660   2.547   6.742   2.082  0.4271 -0.1029 -0.1515
 1899TIP3    H1 5661   2.480   6.764   2.147  0.8607 -0.9203  0.5863
 1899TIP3    H2 5662   2.618   6.803   2.099 -0.8298  2.0746 -2.1737
 1900TIP3   OH2 5663   6.421   5.988   3.811 -0.0131 -0.4736 -0.0619
 1900TIP3    H1 5664   6.397   6.071   3.852  1.2095 -0.3416  0.4339
 1900TIP3    H2 5665   6.511   5.973   3.839 -0.0690 -1.7502 -0.5094
 1901TIP3   OH2 5666   1.832   6.185   5.712  0.1213  0.1592  0.3514
 1901TIP3    H1 5667   1.861   6.113   5.768 -0.7037  0.1556  0.7990
 1901TIP3    H2 5668   1.845   6.154   5.623  0.6091 -0.1923  0.5422
 1902TIP3   OH2 5669   1.953   0.778   2.253 -0.5409  0.3203 -0.1271
 1902TIP3    H1 5670   1.865   0.804   2.226 -0.6541 -0.3639 -0.4253
 1902TIP3    H2 5671   1.942   0.691   2.290 -0.1931  0.7407  1.0411
 1903TIP3   OH2 5672   1.377   0.121   2.773 -0.0948  0.1309 -0.0641
 1903TIP3    H1 5673   1.287   0.141   2.747 -0.4805  0.7946  1.6539
 1903TIP3    H2 5674   1.410   0.065   2.703 -1.8666 -0.2030 -0.6930
 1904TIP3   OH2 5675   6.651   5.616   0.213  0.1725 -0.3799 -0.1354
 1904TIP3    H1 5676   6.607   5.531   0.215 -1.5680  0.3940 -1.9382
 1904TIP3    H2 5677   6.668   5.632   0.120  0.4124  1.2738  0.1642
 1905TIP3   OH2 5678   1.914   4.510   2.188 -0.1989  0.4368  0.1781
 1905TIP3    H1 5679   1.937   4.523   2.280  0.8354  0.0529 -0.0086
 1905TIP3    H2 5680   1.898   4.598   2.154 -0.0895  0.6200  0.5925
 1906TIP3   OH2 5681   1.491   5.427   5.075  0.0700 -0.0531 -0.1792
 1906TIP3    H1 5682   1.510   5.513   5.038  2.2674 -0.2520  0.3748
 1906TIP3    H2 5683   1.463   5.445   5.164 -1.0186  0.1535 -0.5454
 1907TIP3   OH2 5684   3.544   4.432   5.236 -0.2535  1.2095 -0.4134
 1907TIP3    H1 5685   3.570   4.522   5.218 -1.5968  1.7110  0.0654
 1907TIP3    H2 5686   3.508   4.434   5.324 -0.1277  0.1577 -0.3259
 1908TIP3   OH2 5687   6.279   4.565   1.817  0.0326 -0.0185 -0.4226
 1908TIP3    H1 5688   6.190   4.598   1.832 -0.5483 -1.5882 -0.1638
 1908TIP3    H2 5689   6.285   4.487   1.873  1.0256 -0.8201 -1.5839
 1909TIP3   OH2 5690   3.219   1.159   1.057  0.5459 -0.3954 -0.1196
 1909TIP3    H1 5691   3.249   1.147   0.966 -0.4038  0.3637 -0.5463
 1909TIP3    H2 5692   3.227   1.253   1.073 -0.3809 -0.3595  0.1819
 1910TIP3   OH2 5693   1.934   5.321   2.949  0.2443 -0.0128 -0.3026
 1910TIP3    H1 5694   1.885   5.286   3.024 -1.8013  1.3542 -0.9031
 1910TIP3    H2 5695   1.916   5.260   2.878  1.1860 -0.6403 -0.0297
 1911TIP3   OH2 5696   2.495   3.520   2.798  0.3832 -0.0730  0.3536
 1911TIP3    H1 5697   2.423   3.582   2.804  0.6413  0.2010  0.6700
 1911TIP3    H2 5698   2.569   3.565   2.839  1.0360  0.0877 -0.9385
 1912TIP3   OH2 5699   1.213   5.702   3.495  0.6367 -0.2058  0.2615
 1912TIP3    H1 5700   1.188   5.621   3.451  0.5324  0.2014 -0.4453
 1912TIP3    H2 5701   1.182   5.692   3.584 -0.6103 -0.3828 -0.1745
 1913TIP3   OH2 5702   4.780   5.241   3.366 -0.4433  0.0117 -0.1600
 1913TIP3    H1 5703   4.784   5.328   3.404 -1.1272 -0.2828  0.6249
 1913TIP3    H2 5704   4.740   5.254   3.280  0.0295  0.5442 -0.3027
 1914TIP3   OH2 5705   6.802   1.686   5.754  0.3306 -0.4769  0.1694
 1914TIP3    H1 5706   6.778   1.693   5.846  0.3562 -2.8286  0.4245
 1914TIP3    H2 5707   6.823   1.594   5.742  0.8746 -0.1214 -2.0768
 1915TIP3   OH2 5708   3.718   1.002   0.659 -0.2577  0.0496  0.5596
 1915TIP3    H1 5709   3.810   1.027   0.651 -0.5248  0.9563  0.1359
 1915TIP3    H2 5710   3.670   1.085   0.649 -1.1169 -0.4131  0.7603
 1916TIP3   OH2 5711   3.651   0.945   2.327  0.2794  0.3012 -0.5725
 1916TIP3    H1 5712   3.672   0.865   2.375 -2.2617 -0.1271 -0.0268
 1916TIP3    H2 5713   3.736   0.984   2.308  1.5177 -1.2385  1.3403
 1917TIP3   OH2 5714   6.432   3.477   5.287 -0.2048  0.0943  0.0868
 1917TIP3    H1 5715   6.459   3.487   5.196 -2.4322  0.6306 -0.5745
 1917TIP3    H2 5716   6.368   3.406   5.286 -1.9062  1.5297  0.8029
 1918TIP3   OH2 5717   5.964   4.402   5.695 -0.3397  0.0836  0.6108
 1918TIP3    H1 5718   5.912   4.325   5.672 -1.3843  1.0415 -0.3514
 1918TIP3    H2 5719   5.957   4.459   5.619 -0.4360  1.5719  1.6959
 1919TIP3   OH2 5720   4.942   0.200   2.733  0.1426 -0.4472 -0.6447
 1919TIP3    H1 5721   4.866   0.167   2.781  0.4984 -2.0518 -1.1457
 1919TIP3    H2 5722   5.016   0.155   2.772  0.8201  0.7428 -0.4884
 1920TIP3   OH2 5723   1.183   0.839   4.102 -0.5614 -0.2423  0.2656
 1920TIP3    H1 5724   1.218   0.779   4.036  1.2850  0.3189  0.6655
 1920TIP3    H2 5725   1.123   0.786   4.153 -1.1744 -0.9803 -1.1607
 1921TIP3   OH2 5726   4.134   6.021   0.235 -0.3619 -0.6668 -0.2387
 1921TIP3    H1 5727   4.181   6.019   0.152 -0.3584 -1.8768 -0.2283
 1921TIP3    H2 5728   4.119   6.114   0.252  1.2705 -0.2909 -0.6611
 1922TIP3   OH2 5729   6.439   4.327   3.101  0.3843 -0.4511 -0.1046
 1922TIP3    H1 5730   6.369   4.384   3.133  0.3266 -0.9470  0.6883
 1922TIP3    H2 5731   6.464   4.274   3.177  2.5768  0.6466  0.0198
 1923TIP3   OH2 5732   2.964   2.684   5.467  0.3170  0.2270  0.1552
 1923TIP3    H1 5733   3.039   2.666   5.411 -1.7596  0.4654 -2.9323
 1923TIP3    H2 5734   2.945   2.600   5.509  1.0739 -0.3501 -0.6157
 1924TIP3   OH2 5735   2.487   0.223   3.748 -0.5306  0.1988 -0.1970
 1924TIP3    H1 5736   2.500   0.234   3.654 -0.9634 -0.4965 -0.3388
 1924TIP3    H2 5737   2.412   0.279   3.768 -0.3468  0.4623 -0.2324
 1925TIP3   OH2 5738   5.324   3.409   1.495  0.1689  0.4181  0.2969
 1925TIP3    H1 5739   5.356   3.334   1.446  0.0575  1.2047 -1.0140
 1925TIP3    H2 5740   5.229   3.407   1.484  0.2671  1.6323 -1.1176
 1926TIP3   OH2 5741   1.182   3.725   1.224 -0.4691  0.0371  0.2864
 1926TIP3    H1 5742   1.224   3.645   1.257  3.3392  1.5602 -0.3000
 1926TIP3    H2 5743   1.174   3.711   1.129 -1.3029 -0.2273  0.3894
 1927TIP3   OH2 5744   2.088   3.284   0.942 -0.3230 -0.0512 -0.3253
 1927TIP3    H1 5745   2.097   3.371   0.904  1.1631 -0.1485 -0.2459
 1927TIP3    H2 5746   2.041   3.298   1.024  0.9592  0.8664  0.2833
 1928TIP3   OH2 5747   1.070   6.620   4.421 -0.5718 -0.0592  0.1155
 1928TIP3    H1 5748   1.105   6.706   4.399  0.1167 -0.5833 -0.9189
 1928TIP3    H2 5749   1.144   6.574   4.461 -0.0987 -1.0664 -1.8008
 1929TIP3   OH2 5750   1.431   3.494   0.286  0.4274  0.0846  0.9883
 1929TIP3    H1 5751   1.511   3.441   0.285 -0.2329 -0.9364  1.3096
 1929TIP3    H2 5752   1.368   3.441   0.334 -0.1387  1.3482  1.6880
 1930TIP3   OH2 5753   0.072   0.181   4.731 -0.1962 -0.2143  0.0729
 1930TIP3    H1 5754   0.159   0.203   4.695  1.5560 -2.9433  2.2077
 1930TIP3    H2 5755   0.079   0.205   4.824 -2.3575  0.9057  0.0023
 1931TIP3   OH2 5756   6.860   6.621   4.288 -0.1119  0.8182 -0.5678
 1931TIP3    H1 5757   6.775   6.610   4.245 -0.5313  3.0605 -0.4021
 1931TIP3    H2 5758   6.840   6.660   4.373  1.0572  1.0610 -0.3856
 1932TIP3   OH2 5759   2.483   2.413   1.937  0.6252  0.1961  0.1909
 1932TIP3    H1 5760   2.450   2.482   1.879 -1.1381 -1.0298 -0.3511
 1932TIP3    H2 5761   2.468   2.332   1.888 -0.4338 -0.8485  2.1548
 1933TIP3   OH2 5762   3.253   0.350   3.958  0.3310 -0.5160 -0.0439
 1933TIP3    H1 5763   3.231   0.443   3.964  0.8923 -0.1456 -2.4131
 1933TIP3    H2 5764   3.184   0.313   3.903  0.1405 -1.5046  0.8403
 1934TIP3   OH2 5765   4.491   6.603   2.085  0.4061  0.1292  0.5766
 1934TIP3    H1 5766   4.490   6.615   1.990  1.9047  2.0764  0.7403
 1934TIP3    H2 5767   4.575   6.639   2.113 -0.1687 -0.0295  2.7000
 1935TIP3   OH2 5768   3.373   4.082   0.341  0.2632  0.4837  0.1012
 1935TIP3    H1 5769   3.312   4.153   0.362  1.4354  1.2227  1.1519
 1935TIP3    H2 5770   3.396   4.045   0.427  0.3541 -0.5950 -0.3744
 1936TIP3   OH2 5771   6.089   4.432   2.111  0.3383 -0.0426 -0.1478
 1936TIP3    H1 5772   6.133   4.390   2.184  0.7023  0.5211 -0.0341
 1936TIP3    H2 5773   6.071   4.361   2.049  1.3842 -0.2828 -0.1858
 1937TIP3   OH2 5774   2.995   6.703   1.782  0.2204 -0.9817  0.2253
 1937TIP3    H1 5775   3.042   6.771   1.831 -0.6532 -0.0818 -0.1508
 1937TIP3    H2 5776   2.987   6.739   1.694  0.5127 -1.9690 -0.2212
 1938TIP3   OH2 5777   0.548   0.930   1.785  0.1807 -0.4669 -0.1590
 1938TIP3    H1 5778   0.559   0.944   1.878 -0.6924 -2.1763  0.2537
 1938TIP3    H2 5779   0.633   0.951   1.747  1.0944 -1.4451  1.2597
 1939TIP3   OH2 5780   1.394   1.954   4.953 -0.5953 -0.3222  0.3644
 1939TIP3    H1 5781   1.376   2.048   4.956 -0.5556 -0.3348  2.4286
 1939TIP3    H2 5782   1.433   1.935   5.039  0.4162 -2.0224 -0.4330
 1940TIP3   OH2 5783   5.117   0.142   2.179 -0.5211  0.3588 -0.1351
 1940TIP3    H1 5784   5.033   0.186   2.184 -0.9043 -0.3897  0.0750
 1940TIP3    H2 5785   5.154   0.151   2.267 -0.2888  0.8528 -0.2781
 1941TIP3   OH2 5786   2.250   6.625   1.506 -0.5388 -0.1372 -0.1876
 1941TIP3    H1 5787   2.267   6.675   1.586  1.1551 -0.6238 -0.2029
 1941TIP3    H2 5788   2.238   6.535   1.536 -0.5882 -0.2065 -0.4177
 1942TIP3   OH2 5789   3.433   1.322   1.273  0.1711 -0.2371  0.1200
 1942TIP3    H1 5790   3.369   1.268   1.319  0.7010 -0.4065  0.6647
 1942TIP3    H2 5791   3.387   1.405   1.258 -0.6149 -0.7883 -0.6530
 1943TIP3   OH2 5792   1.294   1.912   2.244  0.0565 -0.0913  0.1647
 1943TIP3    H1 5793   1.330   1.960   2.318 -0.8541  0.3907  0.3013
 1943TIP3    H2 5794   1.254   1.979   2.189 -1.0643 -0.6526  0.2635
 1944TIP3   OH2 5795   4.824   1.890   4.937 -0.6640  0.5303  0.2421
 1944TIP3    H1 5796   4.749   1.947   4.951 -1.1023  0.2411 -0.8506
 1944TIP3    H2 5797   4.895   1.932   4.984 -1.2471  1.3894  0.3717
 1945TIP3   OH2 5798   6.780   2.778   5.853  0.0472 -0.1485  0.3050
 1945TIP3    H1 5799   6.715   2.831   5.900 -0.7133  0.8015 -1.6825
 1945TIP3    H2 5800   6.754   2.688   5.871 -0.1516  0.1580  1.7318
 1946TIP3   OH2 5801   5.011   2.248   5.607 -0.5239 -0.0422  0.6032
 1946TIP3    H1 5802   5.090   2.242   5.660 -1.1095 -1.1708  1.3934
 1946TIP3    H2 5803   4.972   2.332   5.631 -1.0398 -0.7515  2.3852
 1947TIP3   OH2 5804   4.250   3.480   5.181  0.3310  0.0011  0.6454
 1947TIP3    H1 5805   4.166   3.522   5.161  0.4865 -0.2954 -0.7349
 1947TIP3    H2 5806   4.298   3.547   5.231  0.7426  1.7372 -1.8714
 1948TIP3   OH2 5807   6.474   2.134   1.603  0.0189  0.0349 -0.3604
 1948TIP3    H1 5808   6.496   2.094   1.687 -0.4865  1.0757  0.3024
 1948TIP3    H2 5809   6.405   2.078   1.567  1.4731 -1.4386 -0.9672
 1949TIP3   OH2 5810   5.352   5.541   5.790  0.0192  0.5890  0.3035
 1949TIP3    H1 5811   5.276   5.498   5.829  0.1521  0.3900  0.3498
 1949TIP3    H2 5812   5.375   5.610   5.852  0.6095 -0.1302  0.9005
 1950TIP3   OH2 5813   2.941   4.470   2.648  0.2429 -0.9802  0.0824
 1950TIP3    H1 5814   2.983   4.429   2.572 -1.1949 -2.5118  0.0597
 1950TIP3    H2 5815   2.933   4.399   2.712 -0.6713 -0.2753  0.7751
 1951TIP3   OH2 5816   2.960   1.957   1.087  0.1039 -0.0113  0.4538
 1951TIP3    H1 5817   2.873   1.960   1.047 -0.0495 -1.8841  0.5699
 1951TIP3    H2 5818   3.017   2.001   1.024 -0.3879 -1.6404 -1.2009
 1952TIP3   OH2 5819   5.408   4.991   4.571  0.3150  0.4532 -0.1605
 1952TIP3    H1 5820   5.420   5.077   4.610 -0.3902  0.9020 -0.9027
 1952TIP3    H2 5821   5.458   4.994   4.490  1.6559 -0.4272  0.5801
 1953TIP3   OH2 5822   1.766   2.389   3.193  0.4649  0.1362 -0.4872
 1953TIP3    H1 5823   1.752   2.388   3.099  1.4032  0.2042 -0.6401
 1953TIP3    H2 5824   1.787   2.298   3.215  0.6885  0.2039 -0.4173
 1954TIP3   OH2 5825   0.278   3.558   5.583 -0.2461  0.4303 -0.4724
 1954TIP3    H1 5826   0.260   3.627   5.648  0.1981  0.5331 -0.4567
 1954TIP3    H2 5827   0.256   3.477   5.629 -2.1055  0.6207 -0.9424
 1955TIP3   OH2 5828   1.097   1.828   2.906  0.2069  0.1357 -0.3274
 1955TIP3    H1 5829   1.010   1.841   2.944  0.3600 -0.2915  0.1800
 1955TIP3    H2 5830   1.097   1.737   2.876  0.8693 -0.2267  0.7307
 1956TIP3   OH2 5831   1.150   4.152   1.065 -0.0677  0.3395  0.6181
 1956TIP3    H1 5832   1.212   4.101   1.118  1.8071 -0.2767 -1.9532
 1956TIP3    H2 5833   1.086   4.087   1.035  0.4137  0.1187  0.0311
 1957TIP3   OH2 5834   6.400   1.512   3.336 -0.3007  0.1089  0.1123
 1957TIP3    H1 5835   6.442   1.451   3.398 -1.4962 -0.4198  0.4324
 1957TIP3    H2 5836   6.471   1.570   3.308  0.4238 -0.0505  1.4857
 1958TIP3   OH2 5837   4.865   0.713   4.150 -0.4339  0.2565  0.6293
 1958TIP3    H1 5838   4.846   0.785   4.210 -0.5373  0.8107 -0.0528
 1958TIP3    H2 5839   4.933   0.747   4.092 -1.8486  0.5252 -0.9585
 1959TIP3   OH2 5840   6.908   3.080   1.869 -0.2007 -0.0882  0.2995
 1959TIP3    H1 5841   6.980   3.018   1.878  1.5143  1.8541  0.7525
 1959TIP3    H2 5842   6.899   3.094   1.775  1.3285  1.0346  0.2834
 1960TIP3   OH2 5843   3.382   0.654   0.221  0.2337  0.4033 -0.1478
 1960TIP3    H1 5844   3.420   0.737   0.249 -0.9348 -0.1936  3.7875
 1960TIP3    H2 5845   3.450   0.589   0.240 -0.3945  0.0292  0.8723
 1961TIP3   OH2 5846   2.493   6.019   1.524 -0.0969  0.0735 -0.0254
 1961TIP3    H1 5847   2.550   6.051   1.593 -0.0289  1.1669 -0.5720
 1961TIP3    H2 5848   2.408   6.058   1.541  0.3285  1.7521 -1.4854
 1962TIP3   OH2 5849   0.567   4.877   2.938  0.1655 -0.1555  0.2888
 1962TIP3    H1 5850   0.506   4.830   2.995  0.5763 -0.9469  0.0947
 1962TIP3    H2 5851   0.524   4.879   2.852 -0.1227  0.3775  0.4402
 1963TIP3   OH2 5852   1.831   2.448   4.095 -0.4694  0.0034  0.6814
 1963TIP3    H1 5853   1.908   2.490   4.133  2.1744 -3.6967  0.0025
 1963TIP3    H2 5854   1.765   2.450   4.165  0.8986  1.6097  2.0054
 1964TIP3   OH2 5855   6.998   0.145   2.191  0.0898 -0.1188 -0.2649
 1964TIP3    H1 5856   6.993   0.119   2.283 -4.1529  0.2112 -0.2336
 1964TIP3    H2 5857   6.972   0.237   2.190  2.1023  0.5159 -1.6968
 1965TIP3   OH2 5858   4.542   0.332   5.609  0.3021  0.2501 -0.1198
 1965TIP3    H1 5859   4.568   0.249   5.569 -2.4318  0.0753 -1.7733
 1965TIP3    H2 5860   4.494   0.378   5.541 -1.1168  1.7249  1.7534
 1966TIP3   OH2 5861   5.610   0.429   3.661 -0.1258  0.3363 -0.4583
 1966TIP3    H1 5862   5.576   0.350   3.704 -1.0880  0.3019 -1.2284
 1966TIP3    H2 5863   5.536   0.461   3.609 -0.2194  2.5731  0.9245
 1967TIP3   OH2 5864   0.721   4.298   2.429  0.0273  0.2463  0.4071
 1967TIP3    H1 5865   0.671   4.258   2.358  1.4809  0.7728 -0.9733
 1967TIP3    H2 5866   0.776   4.227   2.463  1.7588  0.6999 -1.2708
 1968TIP3   OH2 5867   5.418   2.986   5.332 -0.2626 -0.1878  0.1346
 1968TIP3    H1 5868   5.463   3.056   5.284 -0.2636  0.3088  0.8390
 1968TIP3    H2 5869   5.467   2.977   5.413  0.0980 -1.4368 -0.2022
 1969TIP3   OH2 5870   3.793   2.646   3.419 -0.1194  0.6279  0.3461
 1969TIP3    H1 5871   3.706   2.673   3.447  0.2843  0.7612  1.5089
 1969TIP3    H2 5872   3.818   2.711   3.353 -0.3604  1.3870  0.9872
 1970TIP3   OH2 5873   4.310   5.333   5.280 -0.2183 -0.0487  0.3770
 1970TIP3    H1 5874   4.366   5.313   5.355 -1.4725  0.5514  1.5102
 1970TIP3    H2 5875   4.325   5.425   5.262 -2.4623  0.7684  2.1883
 1971TIP3   OH2 5876   3.678   2.707   2.118 -0.2269  0.0943 -0.2332
 1971TIP3    H1 5877   3.621   2.768   2.071  0.1340  0.3701 -0.3119
 1971TIP3    H2 5878   3.665   2.623   2.073  0.6231  0.4988 -1.2624
 1972TIP3   OH2 5879   3.975   3.034   1.414  0.0760  0.4324  0.0407
 1972TIP3    H1 5880   3.887   3.001   1.393  0.1533 -0.9501  1.6324
 1972TIP3    H2 5881   3.998   3.089   1.340 -2.5353  1.6547  0.0076
 1973TIP3   OH2 5882   4.046   4.944   5.192 -0.0831 -0.1505  0.4523
 1973TIP3    H1 5883   4.040   4.996   5.112  1.2195 -2.7808 -1.5075
 1973TIP3    H2 5884   3.960   4.903   5.201  0.0920 -0.7234 -0.3128
 1974TIP3   OH2 5885   4.274   1.739   3.980 -0.5873 -0.3148  0.3775
 1974TIP3    H1 5886   4.254   1.742   3.886  1.1804  0.5117 -0.0042
 1974TIP3    H2 5887   4.220   1.667   4.013 -2.8399  0.7061 -0.8446
 1975TIP3   OH2 5888   0.918   3.537   4.575  0.2177 -0.6420  0.3287
 1975TIP3    H1 5889   0.845   3.596   4.558  1.1492  0.1782 -0.9939
 1975TIP3    H2 5890   0.877   3.451   4.586 -0.9117 -0.3277 -1.0715
 1976TIP3   OH2 5891   1.373   2.332   0.931 -0.0492 -0.6341  0.1729
 1976TIP3    H1 5892   1.344   2.249   0.894  1.2950 -1.4817  0.9444
 1976TIP3    H2 5893   1.360   2.323   1.025  0.3389 -0.0742  0.2871
 1977TIP3   OH2 5894   4.156   6.581   2.213  0.0225  0.5927 -0.2989
 1977TIP3    H1 5895   4.220   6.634   2.165 -0.6363 -0.0318 -1.9407
 1977TIP3    H2 5896   4.204   6.503   2.240 -0.2377 -0.4036 -2.4925
 1978TIP3   OH2 5897   0.574   3.639   1.714 -0.1779  0.8941  0.4826
 1978TIP3    H1 5898   0.534   3.723   1.692  0.7410  1.0552 -0.6728
 1978TIP3    H2 5899   0.668   3.656   1.708  0.0072 -0.3480 -0.2540
 1979TIP3   OH2 5900   3.641   3.105   2.196 -0.0968 -0.3804  0.6934
 1979TIP3    H1 5901   3.710   3.061   2.247 -0.1636  0.2607  1.3482
 1979TIP3    H2 5902   3.595   3.033   2.153  0.7008 -0.8563  0.5979
 1980TIP3   OH2 5903   0.078   4.670   3.095  0.1410 -0.1814 -0.0984
 1980TIP3    H1 5904   0.075   4.733   3.023 -1.0502 -1.1352 -0.8969
 1980TIP3    H2 5905   0.074   4.584   3.054  0.4758 -0.7751  1.0499
 1981TIP3   OH2 5906   2.119   1.888   3.549  0.1518 -0.3383 -0.1756
 1981TIP3    H1 5907   2.069   1.835   3.611 -3.1328  0.5956 -1.8538
 1981TIP3    H2 5908   2.195   1.833   3.527 -0.1389 -1.9062  2.3212
 1982TIP3   OH2 5909   4.376   6.229   0.917  0.6649  0.2867  0.7805
 1982TIP3    H1 5910   4.354   6.250   0.826  0.1038  1.4350  1.1711
 1982TIP3    H2 5911   4.469   6.252   0.924  1.4598 -2.1834 -0.1565
 1983TIP3   OH2 5912   4.208   4.895   5.404 -0.1341 -0.3147 -0.6849
 1983TIP3    H1 5913   4.174   4.901   5.315  0.0117 -0.6495 -0.7657
 1983TIP3    H2 5914   4.132   4.912   5.461 -0.0616  0.6724 -0.8777
 1984TIP3   OH2 5915   0.819   5.994   3.589  0.1992  0.3999  0.1648
 1984TIP3    H1 5916   0.903   6.022   3.552  0.0359  0.0673 -0.4686
 1984TIP3    H2 5917   0.766   6.074   3.590 -0.1789  0.2122 -1.3968
 1985TIP3   OH2 5918   0.046   0.910  -0.008 -0.3150  0.3397 -0.1829
 1985TIP3    H1 5919  -0.006   0.977   0.036 -1.3992 -1.0145  0.6684
 1985TIP3    H2 5920   0.134   0.919   0.029 -0.3110  1.6091 -0.4675
 1986TIP3   OH2 5921   4.846   4.926   4.689 -0.8961  0.6909  0.0212
 1986TIP3    H1 5922   4.821   4.848   4.639 -0.5049  0.4590  0.1817
 1986TIP3    H2 5923   4.932   4.951   4.654 -0.0531 -0.1789  1.3696
 1987TIP3   OH2 5924   2.091   6.685   2.219 -0.1052 -0.5309 -0.1890
 1987TIP3    H1 5925   2.097   6.779   2.199 -0.8229 -0.6981 -1.3137
 1987TIP3    H2 5926   2.175   6.664   2.261  0.2533  0.5212 -0.3393
 1988TIP3   OH2 5927   5.330   3.930   0.266  0.2819 -0.6250 -0.7021
 1988TIP3    H1 5928   5.259   3.894   0.214 -0.7239 -0.2739  0.3812
 1988TIP3    H2 5929   5.314   3.898   0.354  0.5021  0.8013 -0.1089
 1989TIP3   OH2 5930   7.045   1.631   0.490 -0.6719 -0.1213  0.5407
 1989TIP3    H1 5931   7.108   1.583   0.436  0.6467  0.0648  1.8485
 1989TIP3    H2 5932   6.960   1.607   0.455  0.0645 -1.3825 -0.4714
 1990TIP3   OH2 5933   2.455   2.138   2.123 -0.2172  0.6441  0.3858
 1990TIP3    H1 5934   2.449   2.231   2.142  1.5416  0.7919  0.2899
 1990TIP3    H2 5935   2.473   2.133   2.029 -0.0560  0.2213  0.4367
 1991TIP3   OH2 5936   2.952   3.344   2.670  0.1884 -0.0973  0.1503
 1991TIP3    H1 5937   2.885   3.390   2.620  0.2154  0.1388  0.3289
 1991TIP3    H2 5938   2.922   3.350   2.761  0.3404 -0.1777  0.2063
 1992TIP3   OH2 5939   0.050   6.597   2.758  0.2817  0.5280  0.1092
 1992TIP3    H1 5940   0.103   6.622   2.683 -2.2963  3.3301 -1.0184
 1992TIP3    H2 5941   0.082   6.651   2.830  1.5133 -0.7616  0.5585
 1993TIP3   OH2 5942   1.334   6.639   1.706 -0.0605 -0.2594 -0.0085
 1993TIP3    H1 5943   1.374   6.602   1.784  0.5725 -0.7024 -0.5263
 1993TIP3    H2 5944   1.344   6.571   1.639  0.3111  0.4832 -0.7378
 1994TIP3   OH2 5945   4.825   5.267   4.377 -0.4046 -0.3529 -0.5177
 1994TIP3    H1 5946   4.915   5.274   4.408 -0.4487 -0.9687 -0.2205
 1994TIP3    H2 5947   4.832   5.221   4.294 -0.5169 -1.3566  0.0086
 1995TIP3   OH2 5948   0.457   4.822   5.031 -0.1179 -0.1158  0.0287
 1995TIP3    H1 5949   0.486   4.896   5.084 -0.1799 -0.1771  0.1489
 1995TIP3    H2 5950   0.373   4.796   5.071 -0.3126  0.0304 -0.2854
 1996TIP3   OH2 5951   6.733   3.089   4.729  0.0426  0.3228  0.0772
 1996TIP3    H1 5952   6.772   3.143   4.661  0.3635 -0.9615 -0.7959
 1996TIP3    H2 5953   6.680   3.025   4.682  0.2872 -0.6053  1.0164
 1997TIP3   OH2 5954   3.360   5.477   1.596  0.2380  0.2684  0.3167
 1997TIP3    H1 5955   3.395   5.521   1.519 -2.9127  1.2906 -0.6594
 1997TIP3    H2 5956   3.373   5.540   1.667  1.4761  0.0909  0.2652
 1998TIP3   OH2 5957   5.360   1.377   5.300 -0.1666 -0.7698 -0.2735
 1998TIP3    H1 5958   5.293   1.364   5.367  0.9341 -1.9528  0.6666
 1998TIP3    H2 5959   5.312   1.398   5.221 -1.5953 -0.7647  0.5694
 1999TIP3   OH2 5960   4.400   4.493   4.681 -0.6467 -0.5335 -0.0996
 1999TIP3    H1 5961   4.306   4.512   4.671 -0.9119 -1.4099  0.5314
 1999TIP3    H2 5962   4.424   4.447   4.601 -0.3812  0.9664 -0.9225
 2000TIP3   OH2 5963   0.172   0.329   1.042  0.1322 -0.1621  0.2666
 2000TIP3    H1 5964   0.118   0.253   1.065  2.6263 -2.2962 -0.4230
 2000TIP3    H2 5965   0.212   0.305   0.959  2.2489  1.2014  0.8207
 2001TIP3   OH2 5966   2.581   1.748   2.279  0.2279  0.0196  0.5011
 2001TIP3    H1 5967   2.510   1.737   2.342 -0.0216 -0.3981  0.1535
 2001TIP3    H2 5968   2.602   1.841   2.282 -1.3761  0.4498 -0.4857
 2002TIP3   OH2 5969   0.501   4.481   2.279 -0.5158 -0.3111 -0.2444
 2002TIP3    H1 5970   0.587   4.481   2.321 -1.0819 -0.1075  0.9645
 2002TIP3    H2 5971   0.516   4.522   2.193  0.8111 -1.4030 -0.5655
 2003TIP3   OH2 5972   6.461   6.462   1.587 -0.4843 -0.2030  0.6737
 2003TIP3    H1 5973   6.533   6.483   1.646 -0.0190  0.1631 -0.0080
 2003TIP3    H2 5974   6.484   6.378   1.548 -0.4987 -0.1579  0.5662
 2004TIP3   OH2 5975   6.820   1.241   2.936  0.1000 -0.1429 -0.5560
 2004TIP3    H1 5976   6.812   1.304   2.865 -1.8953 -2.0191 -2.1119
 2004TIP3    H2 5977   6.805   1.156   2.895 -0.9924 -1.3187  2.0578
 2005TIP3   OH2 5978   3.056   1.706   1.135 -0.3974 -0.3637 -0.0864
 2005TIP3    H1 5979   3.034   1.796   1.110  1.8058  0.1019 -0.5380
 2005TIP3    H2 5980   3.043   1.704   1.230  0.6982  0.8072  0.1113
 2006TIP3   OH2 5981   2.750   3.896   4.704 -0.4282 -0.5408 -0.7675
 2006TIP3    H1 5982   2.801   3.940   4.772  0.0003 -0.9753 -0.8089
 2006TIP3    H2 5983   2.813   3.846   4.654 -1.0481 -2.3385  0.1364
 2007TIP3   OH2 5984   2.077   2.634   2.009 -0.1809  0.4185  0.3386
 2007TIP3    H1 5985   2.107   2.711   2.058  2.3448  0.1954 -0.6914
 2007TIP3    H2 5986   2.084   2.562   2.072  1.3512  0.4152  0.1945
 2008TIP3   OH2 5987   4.620   5.016   4.176  0.3177  0.1282 -0.1668
 2008TIP3    H1 5988   4.641   4.926   4.152  1.0664  0.5675 -1.2348
 2008TIP3    H2 5989   4.616   5.015   4.271 -0.8709 -1.2829 -0.2015
 2009TIP3   OH2 5990   3.018   2.913   2.016 -0.2577 -0.0585  0.0214
 2009TIP3    H1 5991   3.027   2.967   2.095 -0.7941  0.4784 -0.2873
 2009TIP3    H2 5992   3.105   2.917   1.975 -0.1173  0.0611  0.3261
 2010TIP3   OH2 5993   3.326   2.145   1.746 -0.2195 -0.4681  0.1670
 2010TIP3    H1 5994   3.403   2.118   1.797  1.1899  1.3657 -0.8727
 2010TIP3    H2 5995   3.259   2.082   1.771  1.2741 -1.4886  1.9683
 2011TIP3   OH2 5996   0.683   5.652   2.704 -0.3097  0.3931  0.1446
 2011TIP3    H1 5997   0.742   5.599   2.648  0.7005 -0.7590  2.1740
 2011TIP3    H2 5998   0.742   5.711   2.750 -0.8988  0.1557  1.2182
 2012TIP3   OH2 5999   0.989   5.239   5.148  0.5964 -0.1022  0.2010
 2012TIP3    H1 6000   1.062   5.298   5.166  0.8032 -0.3078  0.0269
 2012TIP3    H2 6001   1.018   5.154   5.180 -0.1097  0.0903  1.4347
 2013TIP3   OH2 6002   0.175   3.282   1.330 -0.1548 -0.0217 -0.0054
 2013TIP3    H1 6003   0.221   3.357   1.292 -1.7356  0.0287 -1.9755
 2013TIP3    H2 6004   0.127   3.244   1.256 -2.2425 -0.8330  1.6761
 2014TIP3   OH2 6005   7.003   4.686   1.940 -0.1722  0.0130 -0.3865
 2014TIP3    H1 6006   7.035   4.652   1.856 -3.2050 -1.1911 -1.2082
 2014TIP3    H2 6007   7.006   4.781   1.930  1.8709 -0.0609 -0.8268
 2015TIP3   OH2 6008   5.810   3.841   0.216  0.5835  0.2126 -0.2256
 2015TIP3    H1 6009   5.733   3.893   0.194 -0.3858  0.3268  3.0039
 2015TIP3    H2 6010   5.784   3.751   0.200 -0.8116  0.1343  2.1134
 2016TIP3   OH2 6011   2.098   1.751   3.237 -0.1983 -0.2242  0.1051
 2016TIP3    H1 6012   2.012   1.721   3.264 -1.1519  2.3769  0.2464
 2016TIP3    H2 6013   2.158   1.715   3.303 -1.3636 -0.8887  0.8320
 2017TIP3   OH2 6014   0.594   1.943   1.271 -0.5391  0.2076  0.0196
 2017TIP3    H1 6015   0.512   1.895   1.264 -0.1483 -0.5104  0.3098
 2017TIP3    H2 6016   0.645   1.895   1.336 -0.1310  1.0070  0.3027
 2018TIP3   OH2 6017   1.345   3.944   1.943  0.2332  0.0812  0.0960
 2018TIP3    H1 6018   1.384   3.978   2.023 -2.2134  0.8660  1.0470
 2018TIP3    H2 6019   1.303   4.020   1.903  0.3878 -0.5497 -1.3276
 2019TIP3   OH2 6020   5.332   4.063   1.816  0.0646 -0.4232 -0.1686
 2019TIP3    H1 6021   5.379   4.119   1.754  0.8318  0.6559  1.3298
 2019TIP3    H2 6022   5.321   4.118   1.894 -0.2333 -1.9642  0.9142
 2020TIP3   OH2 6023   3.944   1.446   3.502  0.2437 -0.1933  0.1158
 2020TIP3    H1 6024   3.923   1.511   3.435  0.1223  1.2794  1.5038
 2020TIP3    H2 6025   3.896   1.367   3.476 -0.6917  0.6896 -0.9239
 2021TIP3   OH2 6026   6.471   5.441   3.700  0.1607 -0.0673  0.4635
 2021TIP3    H1 6027   6.414   5.504   3.657  0.8689 -0.0126 -0.4201
 2021TIP3    H2 6028   6.532   5.494   3.751  1.5123  0.0661 -1.2088
 2022TIP3   OH2 6029   1.249   6.484   2.286 -0.0480 -0.5757  0.0954
 2022TIP3    H1 6030   1.157   6.486   2.259 -0.2318 -2.3434  0.4642
 2022TIP3    H2 6031   1.288   6.413   2.235  0.8314 -0.5977  0.7721
 2023TIP3   OH2 6032   3.310   0.811   2.242  0.0305 -0.6076  0.3424
 2023TIP3    H1 6033   3.241   0.875   2.255  0.7169  0.4997 -1.1852
 2023TIP3    H2 6034   3.388   0.863   2.220  0.6398 -1.9230 -0.8148
 2024TIP3   OH2 6035   5.484   6.114   1.249  0.6390  0.4611  0.1060
 2024TIP3    H1 6036   5.532   6.070   1.178 -0.7636  0.2604 -0.7736
 2024TIP3    H2 6037   5.425   6.175   1.203 -2.5882 -1.8549  0.7585
 2025TIP3   OH2 6038   3.056   4.752   0.946  0.1533 -0.5101 -0.2051
 2025TIP3    H1 6039   3.017   4.665   0.936 -0.6596 -0.1270 -0.5387
 2025TIP3    H2 6040   3.149   4.739   0.929 -0.0450 -1.2219 -0.8091
 2026TIP3   OH2 6041   6.608   4.474   2.310 -1.1204  0.0068 -0.3413
 2026TIP3    H1 6042   6.670   4.430   2.251 -1.2264  0.1659 -0.5715
 2026TIP3    H2 6043   6.647   4.465   2.397 -0.6705  0.2821 -0.5110
 2027TIP3   OH2 6044   6.852   3.376   5.653 -0.0127 -0.0860  0.5739
 2027TIP3    H1 6045   6.781   3.311   5.646 -1.0418  0.9475  1.0260
 2027TIP3    H2 6046   6.807   3.460   5.651  1.3716  0.6769 -1.0716
 2028TIP3   OH2 6047   3.530   6.663   4.627  0.2800 -0.1398 -0.0941
 2028TIP3    H1 6048   3.482   6.635   4.705 -0.7914 -0.2240 -0.7640
 2028TIP3    H2 6049   3.550   6.582   4.580  1.8211 -0.1783  0.5744
 2029TIP3   OH2 6050   4.695   2.194   3.894  0.5604 -0.3065 -0.0244
 2029TIP3    H1 6051   4.714   2.257   3.824 -0.8445 -0.8369 -0.9340
 2029TIP3    H2 6052   4.721   2.109   3.857  2.2061 -0.3397  1.0961
 2030TIP3   OH2 6053   0.489   2.476   2.362  0.4279  0.5754 -0.3792
 2030TIP3    H1 6054   0.408   2.479   2.312  0.1964 -0.6649 -0.1124
 2030TIP3    H2 6055   0.553   2.523   2.309 -0.1357  0.3877 -1.2343
 2031TIP3   OH2 6056   0.835   2.868   2.217 -0.3068  0.4533  0.5359
 2031TIP3    H1 6057   0.849   2.785   2.172 -0.3255  0.1432  1.0909
 2031TIP3    H2 6058   0.857   2.934   2.152  0.2469  0.0098  0.2624
 2032TIP3   OH2 6059   2.596   1.186   2.168  0.2481  0.5415  0.1155
 2032TIP3    H1 6060   2.613   1.166   2.076  1.6395  2.3147 -0.0761
 2032TIP3    H2 6061   2.591   1.282   2.171 -0.7586  0.4717  1.7424
 2033TIP3   OH2 6062   0.323   3.009   5.163 -0.9915 -0.0614 -0.2872
 2033TIP3    H1 6063   0.284   3.082   5.211  1.6957  2.2825 -1.3681
 2033TIP3    H2 6064   0.397   2.981   5.218  1.0055  1.4590 -2.0106
 2034TIP3   OH2 6065   2.525   1.440   1.607 -0.1895 -0.8789 -0.2017
 2034TIP3    H1 6066   2.494   1.452   1.697  0.3597 -0.2529 -0.0905
 2034TIP3    H2 6067   2.471   1.369   1.573 -0.6134 -0.9177  0.5228
 2035TIP3   OH2 6068   5.093   6.483   4.174  0.1499 -0.2859 -0.0864
 2035TIP3    H1 6069   5.052   6.418   4.231 -2.3180  0.4772 -0.8497
 2035TIP3    H2 6070   5.165   6.519   4.226  0.2398 -2.1041  1.1304
 2036TIP3   OH2 6071   1.446   0.914   1.726  0.2098  0.2526 -0.0193
 2036TIP3    H1 6072   1.380   0.966   1.679 -1.2368 -1.1623  0.3217
 2036TIP3    H2 6073   1.417   0.916   1.817 -0.1087 -1.3982 -0.0525
 2037TIP3   OH2 6074   2.576   2.548   2.144 -0.1452  0.3701 -0.1644
 2037TIP3    H1 6075   2.614   2.610   2.081  0.9029 -0.1456 -0.0608
 2037TIP3    H2 6076   2.542   2.478   2.089  2.9383 -1.3013 -0.1624
 2038TIP3   OH2 6077   5.672   4.403   0.766 -0.5048 -0.0780 -0.0439
 2038TIP3    H1 6078   5.685   4.494   0.793  0.8571  0.1176 -1.2485
 2038TIP3    H2 6079   5.578   4.387   0.778 -0.9223  1.7601 -0.6315
 2039TIP3   OH2 6080   6.170   4.361   3.960  0.2793 -0.4722  0.0733
 2039TIP3    H1 6081   6.143   4.447   3.927  2.2350  0.4209  0.6535
 2039TIP3    H2 6082   6.127   4.354   4.045 -2.3416 -1.4788 -1.1944
 2040TIP3   OH2 6083   7.090   2.044   0.699 -0.3653  0.5663  1.0145
 2040TIP3    H1 6084   7.134   2.129   0.704  0.1091  0.2995  1.4398
 2040TIP3    H2 6085   7.144   1.986   0.752 -0.1334 -0.2510 -0.0972
 2041TIP3   OH2 6086   0.096   3.710   5.880 -0.7031  0.1565 -0.1122
 2041TIP3    H1 6087   0.058   3.786   5.836  1.6463  0.8286 -1.1627
 2041TIP3    H2 6088   0.022   3.666   5.920 -2.5156  1.4645 -1.8268
 2042TIP3   OH2 6089   3.049   5.418   2.133 -0.0367 -0.5469  0.4023
 2042TIP3    H1 6090   2.961   5.414   2.096  0.2803 -2.2464 -0.2323
 2042TIP3    H2 6091   3.064   5.331   2.169  1.8883 -0.7427 -0.7251
 2043TIP3   OH2 6092   0.812   2.948   5.453  1.0320  0.0181 -0.4912
 2043TIP3    H1 6093   0.860   3.004   5.513  1.8340 -0.7131 -0.4397
 2043TIP3    H2 6094   0.810   2.863   5.496  0.2774 -0.1306 -0.8085
 2044TIP3   OH2 6095   4.239   4.425   1.456 -0.1615 -0.4003 -0.0633
 2044TIP3    H1 6096   4.196   4.510   1.455  1.5024  0.4653 -0.7653
 2044TIP3    H2 6097   4.211   4.383   1.374  0.1650  0.0681 -0.4153
 2045TIP3   OH2 6098   6.294   2.648   0.268  0.0969 -0.4264  0.2045
 2045TIP3    H1 6099   6.362   2.616   0.209  0.0048  0.5135 -0.4400
 2045TIP3    H2 6100   6.212   2.615   0.230  0.0120  0.4508 -0.3849
 2046TIP3   OH2 6101   3.135   2.108   0.932 -0.2404 -0.1427  0.2620
 2046TIP3    H1 6102   3.178   2.078   0.852  0.1682  1.2193 -0.0412
 2046TIP3    H2 6103   3.198   2.167   0.973 -0.5639 -0.5802  1.4518
 2047TIP3   OH2 6104   3.669   2.172   5.615 -0.0173 -0.4062  0.5275
 2047TIP3    H1 6105   3.620   2.214   5.686 -1.0229 -0.2328 -0.2494
 2047TIP3    H2 6106   3.615   2.185   5.537  1.2089 -0.3234 -0.3420
 2048TIP3   OH2 6107   4.739   6.407   2.241 -0.0122  0.3832  0.8713
 2048TIP3    H1 6108   4.713   6.491   2.202  1.4528  0.3268 -0.3424
 2048TIP3    H2 6109   4.730   6.421   2.335 -1.8579  1.1698  0.6222
 2049TIP3   OH2 6110   3.936   1.520   2.061  0.6166  0.7059 -0.2910
 2049TIP3    H1 6111   3.851   1.485   2.037  0.7901  1.5131 -2.3312
 2049TIP3    H2 6112   3.998   1.474   2.004  1.2519  1.7356 -0.4681
 2050TIP3   OH2 6113   2.519   2.225   4.952 -0.4219  0.6469  0.2547
 2050TIP3    H1 6114   2.469   2.277   4.889 -0.5644  0.0037 -0.1775
 2050TIP3    H2 6115   2.519   2.136   4.915 -0.0231  0.3792  0.8781
 2051TIP3   OH2 6116   1.285   1.574   0.485  0.3172  0.2807  0.0136
 2051TIP3    H1 6117   1.375   1.577   0.516  0.9294 -1.7638 -1.3130
 2051TIP3    H2 6118   1.289   1.520   0.406 -1.4079  3.7188 -2.6640
 2052TIP3   OH2 6119   4.338   1.994   2.341 -0.5432 -0.3864  0.3762
 2052TIP3    H1 6120   4.246   2.001   2.366  0.1273  0.2969  2.8726
 2052TIP3    H2 6121   4.353   2.068   2.281 -1.3118  0.2635  0.9762
 2053TIP3   OH2 6122   5.892   3.432   5.752  0.1171  0.0805  0.1481
 2053TIP3    H1 6123   5.920   3.524   5.755  1.4598 -0.2938 -0.3407
 2053TIP3    H2 6124   5.878   3.414   5.659  1.2708 -0.6014  0.0884
 2054TIP3   OH2 6125   7.102   6.001   0.433 -0.0135 -0.1536  0.8286
 2054TIP3    H1 6126   7.090   6.040   0.519 -1.3893 -0.4060  0.7612
 2054TIP3    H2 6127   7.026   6.030   0.382  0.3223 -0.7337 -0.0282
 2055TIP3   OH2 6128   6.152   1.588   3.225 -0.1636 -0.1327  0.1214
 2055TIP3    H1 6129   6.235   1.596   3.272  0.7295 -1.2539 -1.1677
 2055TIP3    H2 6130   6.126   1.497   3.236 -0.0244 -0.3790 -1.3338
 2056TIP3   OH2 6131   4.646   4.703   4.091 -0.0835  0.2319 -0.1412
 2056TIP3    H1 6132   4.739   4.698   4.113 -0.5000 -0.6532  1.6634
 2056TIP3    H2 6133   4.612   4.616   4.114 -1.4867  0.7946 -0.0067
 2057TIP3   OH2 6134   6.089   2.098   0.172  0.0668 -0.0106  0.4497
 2057TIP3    H1 6135   6.141   2.095   0.092 -0.1008  0.2764  0.3287
 2057TIP3    H2 6136   6.148   2.135   0.238  0.8610 -2.0727  0.9713
 2058TIP3   OH2 6137   1.841   1.912   4.373  0.2967  0.0940  0.1195
 2058TIP3    H1 6138   1.767   1.877   4.423  0.0610  0.7083  0.2092
 2058TIP3    H2 6139   1.867   1.840   4.316 -0.6656  0.0105 -0.2427
 2059TIP3   OH2 6140   4.251   3.267   5.601 -0.2946 -0.0865  0.3244
 2059TIP3    H1 6141   4.231   3.175   5.585  0.3787 -0.1487 -0.2220
 2059TIP3    H2 6142   4.335   3.281   5.556 -0.7844  0.9945 -0.2968
 2060TIP3   OH2 6143   5.104   4.878   0.290 -0.4990 -0.2060  0.9450
 2060TIP3    H1 6144   5.009   4.891   0.281 -0.4860 -0.9730 -0.6899
 2060TIP3    H2 6145   5.130   4.936   0.361 -1.8711  1.6369  0.0197
 2061TIP3   OH2 6146   2.079   3.615   1.429 -0.0275  0.5969  0.0076
 2061TIP3    H1 6147   2.086   3.589   1.338  1.4303 -1.5983  0.6613
 2061TIP3    H2 6148   1.991   3.586   1.456 -0.2931  0.8599 -0.5656
 2062TIP3   OH2 6149   1.796   0.199   4.531  0.1238 -0.2229  0.0620
 2062TIP3    H1 6150   1.706   0.232   4.529  0.6205  1.2196  0.3763
 2062TIP3    H2 6151   1.849   0.275   4.508  1.1456 -1.5927 -2.4070
 2063TIP3   OH2 6152   6.817   4.550   4.576 -0.0124 -0.5822 -0.3233
 2063TIP3    H1 6153   6.823   4.564   4.670 -0.9574  0.9644 -0.4645
 2063TIP3    H2 6154   6.731   4.508   4.564  0.3878 -1.3937 -0.4562
 2064TIP3   OH2 6155   6.962   0.458   5.673  0.1970  0.1139 -0.5346
 2064TIP3    H1 6156   6.951   0.405   5.595 -1.7117 -0.3138 -0.0321
 2064TIP3    H2 6157   6.968   0.395   5.745 -2.1129  0.4659  0.0698
 2065TIP3   OH2 6158   2.746   0.607   3.909  0.7958 -0.3357 -0.2586
 2065TIP3    H1 6159   2.723   0.515   3.920  0.1409 -0.1862 -0.3180
 2065TIP3    H2 6160   2.684   0.640   3.844  2.6585 -0.4748 -2.2149
 2066TIP3   OH2 6161   3.077   1.523   1.582 -0.1467  0.2487  0.2156
 2066TIP3    H1 6162   3.167   1.506   1.552 -0.2005  0.8535 -0.3025
 2066TIP3    H2 6163   3.031   1.440   1.569  0.6731 -0.5010  1.7976
 2067TIP3   OH2 6164   1.492   6.283   0.311 -0.3348 -0.4335 -0.0243
 2067TIP3    H1 6165   1.435   6.328   0.249 -0.9156 -0.2118  0.6605
 2067TIP3    H2 6166   1.483   6.190   0.290  0.7701 -0.2790 -1.3589
 2068TIP3   OH2 6167   1.454   4.917   3.425  0.4804  0.2789  0.6050
 2068TIP3    H1 6168   1.521   4.927   3.357  0.9004  1.3323  1.1588
 2068TIP3    H2 6169   1.375   4.955   3.386  0.7925  1.1464  0.7997
 2069TIP3   OH2 6170   4.843   4.886   4.958  0.3810  0.4394  0.6278
 2069TIP3    H1 6171   4.830   4.926   4.872  2.0437  1.7024  0.9117
 2069TIP3    H2 6172   4.852   4.793   4.940  1.3916  0.7593 -0.6787
 2070TIP3   OH2 6173   7.012   6.398   4.210  0.0351  0.4487 -0.4117
 2070TIP3    H1 6174   6.978   6.476   4.254  0.4158  0.4473 -0.1010
 2070TIP3    H2 6175   6.944   6.331   4.223 -0.2615  0.7078 -0.6212
 2071TIP3   OH2 6176   6.995   6.199   0.260  0.0880  0.0590 -0.1513
 2071TIP3    H1 6177   6.903   6.211   0.236 -0.1083 -0.8446  0.0862
 2071TIP3    H2 6178   7.038   6.178   0.177  0.1079  0.5858 -0.2804
 2072TIP3   OH2 6179   0.582   5.600   3.018 -0.2731  0.7502 -0.4246
 2072TIP3    H1 6180   0.552   5.547   2.944  1.1165 -0.0334 -0.4526
 2072TIP3    H2 6181   0.623   5.677   2.978  3.2019 -1.0719 -0.6899
 2073TIP3   OH2 6182   1.541   1.309   4.326  0.2431  0.0296 -0.1218
 2073TIP3    H1 6183   1.539   1.321   4.231 -1.9730 -0.4394 -0.2058
 2073TIP3    H2 6184   1.518   1.217   4.339  2.4198 -0.4262  0.8571
 2074TIP3   OH2 6185   5.942   3.171   5.409  0.2858  0.6266  0.0424
 2074TIP3    H1 6186   5.930   3.143   5.500  0.4102  1.7074  0.4030
 2074TIP3    H2 6187   5.883   3.114   5.359 -0.0723  0.2730  0.8458
 2075TIP3   OH2 6188   4.290   0.505   4.417  0.3191 -0.2693 -0.7649
 2075TIP3    H1 6189   4.272   0.448   4.342  0.1512  0.5024 -1.3180
 2075TIP3    H2 6190   4.228   0.577   4.409 -0.7862 -0.9538  0.9958
 2076TIP3   OH2 6191   3.046   3.048   4.694 -0.4183 -0.4436  0.5523
 2076TIP3    H1 6192   2.979   3.077   4.756  0.3540  1.5994  0.5231
 2076TIP3    H2 6193   3.105   2.993   4.745  0.5556  1.6930  1.8986
 2077TIP3   OH2 6194   6.019   1.355   2.294 -0.7420 -0.6862  0.6462
 2077TIP3    H1 6195   5.961   1.393   2.228 -1.4218 -2.4397  0.1770
 2077TIP3    H2 6196   6.107   1.361   2.255 -1.0447 -1.0456 -0.1158
 2078TIP3   OH2 6197   0.882   1.108   2.334 -0.0446  0.3911 -0.2226
 2078TIP3    H1 6198   0.804   1.158   2.359 -0.7961 -0.0704 -1.5484
 2078TIP3    H2 6199   0.853   1.017   2.333  1.2962 -0.1549  2.0902
 2079TIP3   OH2 6200   4.652   4.830   1.639 -0.6037  0.7067 -0.1738
 2079TIP3    H1 6201   4.707   4.756   1.665 -0.1282  1.4065  0.8595
 2079TIP3    H2 6202   4.662   4.834   1.544  2.4176  1.7430  0.0765
 2080TIP3   OH2 6203   5.791   0.454   4.901  0.2100 -0.1061 -0.0587
 2080TIP3    H1 6204   5.737   0.461   4.980  0.5686 -0.1772  0.1925
 2080TIP3    H2 6205   5.738   0.495   4.833  0.5915  1.5031  0.5648
 2081TIP3   OH2 6206   0.851   4.661   2.860 -0.3450  0.0990 -0.2747
 2081TIP3    H1 6207   0.762   4.645   2.828 -0.9848  1.9121  0.4548
 2081TIP3    H2 6208   0.847   4.641   2.953 -0.2194  1.0025 -0.0730
 2082TIP3   OH2 6209   5.813   4.872   2.970  0.3710 -0.2894  0.1656
 2082TIP3    H1 6210   5.802   4.919   2.887  0.7138  0.6082  0.6190
 2082TIP3    H2 6211   5.876   4.924   3.019 -0.7154 -0.1504  1.4791
 2083TIP3   OH2 6212   4.881   5.197   4.116 -0.8042 -0.4450  0.5633
 2083TIP3    H1 6213   4.866   5.264   4.050 -1.7465 -1.1348  0.0636
 2083TIP3    H2 6214   4.969   5.163   4.096 -1.0388 -0.5808 -0.2804
 2084TIP3   OH2 6215   5.568   6.229   4.483  0.5007  0.7566 -0.6411
 2084TIP3    H1 6216   5.520   6.149   4.500 -0.6404  1.4062 -0.7230
 2084TIP3    H2 6217   5.504   6.299   4.493  1.8117  1.8058  0.9790
 2085TIP3   OH2 6218   5.895   5.683   2.061  0.2378  0.0279 -0.2384
 2085TIP3    H1 6219   5.850   5.632   1.993 -1.2502 -0.1769  0.8634
 2085TIP3    H2 6220   5.857   5.770   2.055  0.5950  0.1964 -0.0978
 2086TIP3   OH2 6221   5.409   5.767   2.112  0.6569  0.1857 -0.5700
 2086TIP3    H1 6222   5.499   5.777   2.081  0.4207  0.0631 -1.3082
 2086TIP3    H2 6223   5.416   5.708   2.187  1.1180 -0.3412 -1.0209
 2087TIP3   OH2 6224   3.157   5.950   5.772 -0.2351 -1.0550 -0.3906
 2087TIP3    H1 6225   3.178   5.991   5.856  0.8395 -1.2962 -0.5296
 2087TIP3    H2 6226   3.242   5.934   5.731 -0.6893 -2.2316 -0.9107
 2088TIP3   OH2 6227   3.492   2.277   2.090 -0.0748 -0.1076  0.5712
 2088TIP3    H1 6228   3.419   2.216   2.080 -1.0810  0.9401  1.3029
 2088TIP3    H2 6229   3.505   2.283   2.185  0.1798  0.6338  0.4914
 2089TIP3   OH2 6230   1.930   3.537   5.747  0.1158  0.0290 -0.0744
 2089TIP3    H1 6231   1.938   3.442   5.755 -0.5604  0.1189  3.3902
 2089TIP3    H2 6232   2.008   3.572   5.790 -1.0814  0.9678  1.4590
 2090TIP3   OH2 6233   4.087   1.290   4.620  0.0387 -0.1090 -0.2118
 2090TIP3    H1 6234   4.040   1.222   4.668 -2.5518  1.5460 -0.2562
 2090TIP3    H2 6235   4.059   1.280   4.530  1.9602 -0.7871 -0.7934
 2091TIP3   OH2 6236   5.329   5.041  -0.020  0.0800 -0.0650  0.0385
 2091TIP3    H1 6237   5.242   5.054   0.016  0.6075  0.3691  1.2310
 2091TIP3    H2 6238   5.360   4.960   0.022 -0.2596 -1.0016 -1.4498
 2092TIP3   OH2 6239   2.554   2.178   3.154 -0.3242 -0.5355  0.0075
 2092TIP3    H1 6240   2.499   2.223   3.090 -1.2815  1.2962  1.9949
 2092TIP3    H2 6241   2.522   2.088   3.154 -0.5549 -0.4972 -1.7410
 2093TIP3   OH2 6242   1.662   5.184   2.304 -0.3031  0.0295 -0.1036
 2093TIP3    H1 6243   1.659   5.191   2.209 -0.4628  1.2367 -0.0175
 2093TIP3    H2 6244   1.611   5.105   2.324  0.2676 -0.5936 -1.0434
 2094TIP3   OH2 6245   3.820   2.514   5.414  0.1403  0.0117  0.5238
 2094TIP3    H1 6246   3.824   2.606   5.390 -0.1719 -0.6301 -2.3546
 2094TIP3    H2 6247   3.749   2.509   5.479 -0.8809  1.5769 -0.4198
 2095TIP3   OH2 6248   7.007   3.914   1.484 -0.1111  0.4782 -0.5946
 2095TIP3    H1 6249   7.030   3.828   1.519  0.5073  1.3264  1.2533
 2095TIP3    H2 6250   6.926   3.900   1.436 -0.4940 -1.0026  0.4113
 2096TIP3   OH2 6251   1.672   2.426   2.933  0.2659 -0.0608  0.0296
 2096TIP3    H1 6252   1.681   2.408   2.839  0.0417 -2.5247  0.4229
 2096TIP3    H2 6253   1.611   2.500   2.937  0.6340  0.3913 -1.7723
 2097TIP3   OH2 6254   3.368   5.134   3.543  0.5502 -0.1391 -0.0997
 2097TIP3    H1 6255   3.348   5.127   3.637  0.9022 -0.9432 -0.0793
 2097TIP3    H2 6256   3.282   5.130   3.501  0.4961 -1.7173  0.0930
 2098TIP3   OH2 6257   0.308   6.329   3.477 -0.1924 -0.2361  0.1117
 2098TIP3    H1 6258   0.219   6.299   3.495 -0.4487  0.0556 -0.6177
 2098TIP3    H2 6259   0.315   6.412   3.524 -0.1854 -0.4241  0.4467
 2099TIP3   OH2 6260   5.853   1.647   4.193  0.3117  0.0599  0.2535
 2099TIP3    H1 6261   5.769   1.623   4.233  0.8347 -1.7396  0.3519
 2099TIP3    H2 6262   5.831   1.720   4.135 -1.0338  0.6411  1.4389
 2100TIP3   OH2 6263   5.318   3.142   1.776  0.3985  0.3462 -0.1255
 2100TIP3    H1 6264   5.334   3.236   1.786 -1.9073  0.8240 -0.4359
 2100TIP3    H2 6265   5.391   3.101   1.823  0.1781  2.3161  2.1964
 2101TIP3   OH2 6266   1.037   0.518   5.715  0.0984 -0.5497 -0.6774
 2101TIP3    H1 6267   1.114   0.461   5.713  2.1994  2.0748 -0.3382
 2101TIP3    H2 6268   1.014   0.525   5.808 -0.3998 -1.0842 -0.7513
 2102TIP3   OH2 6269   5.799   6.442   4.125 -0.7281 -0.0767 -0.0207
 2102TIP3    H1 6270   5.806   6.396   4.209 -0.0937  0.1710  0.0623
 2102TIP3    H2 6271   5.780   6.373   4.062 -1.9404 -0.1759  0.4283
 2103TIP3   OH2 6272   5.755   6.527   3.668  0.3828  0.1939 -0.2078
 2103TIP3    H1 6273   5.803   6.607   3.689  0.5557  0.0232  0.0569
 2103TIP3    H2 6274   5.716   6.500   3.751  2.1008 -1.1684  0.2114
 2104TIP3   OH2 6275   2.369   1.434   3.857  0.8555 -0.1399  0.0180
 2104TIP3    H1 6276   2.430   1.476   3.797 -0.1376  1.0631 -0.2057
 2104TIP3    H2 6277   2.366   1.342   3.830 -1.7692  0.8439 -3.8291
 2105TIP3   OH2 6278   2.674   6.299   1.439  0.4513 -0.0335 -0.2142
 2105TIP3    H1 6279   2.766   6.309   1.464  0.4126  2.3598 -0.7304
 2105TIP3    H2 6280   2.626   6.356   1.499 -0.0921  2.4799 -2.7845
 2106TIP3   OH2 6281   3.588   0.131   0.683  0.4074 -0.4805 -0.3145
 2106TIP3    H1 6282   3.539   0.051   0.697  1.5447 -0.9780  1.1312
 2106TIP3    H2 6283   3.634   0.146   0.766  0.0884  1.7728 -0.4783
 2107TIP3   OH2 6284   6.260   2.040   0.625 -0.0597  0.3801 -0.5531
 2107TIP3    H1 6285   6.285   1.998   0.707 -0.3041  0.5215 -0.4035
 2107TIP3    H2 6286   6.193   1.983   0.589 -0.5766  0.7644 -0.2240
 2108TIP3   OH2 6287   6.494   6.063   3.363  0.3010  0.3552  0.4351
 2108TIP3    H1 6288   6.423   5.999   3.359 -0.3643  1.0547  0.6994
 2108TIP3    H2 6289   6.529   6.066   3.274  0.1069 -0.1164  0.3413
 2109TIP3   OH2 6290   4.902   2.271   2.401 -0.0065  0.0802 -0.0224
 2109TIP3    H1 6291   4.822   2.224   2.424 -0.5456  0.9010 -0.1657
 2109TIP3    H2 6292   4.873   2.341   2.343  0.8683  0.1746 -0.3646
 2110TIP3   OH2 6293   4.902   5.664   0.274  0.3309  0.2325 -0.0219
 2110TIP3    H1 6294   4.837   5.733   0.288 -0.1917  0.1391 -1.7540
 2110TIP3    H2 6295   4.904   5.652   0.179  1.4856 -1.1203  0.1422
 2111TIP3   OH2 6296   5.418   0.284   0.988 -0.0413 -0.4499 -0.0117
 2111TIP3    H1 6297   5.331   0.302   1.025  0.6085  1.3372  0.7284
 2111TIP3    H2 6298   5.477   0.286   1.063  0.8931  0.1915 -0.7459
 2112TIP3   OH2 6299   4.463   0.955   0.894 -0.2961 -0.3476 -0.7832
 2112TIP3    H1 6300   4.487   0.925   0.982  1.1622  0.6914 -0.7881
 2112TIP3    H2 6301   4.426   0.877   0.851  0.2281 -1.2174  0.2998
 2113TIP3   OH2 6302   4.123   0.325   3.394  0.6083 -0.6104  0.4025
 2113TIP3    H1 6303   4.153   0.416   3.393 -0.7627 -0.0987  1.8269
 2113TIP3    H2 6304   4.171   0.283   3.323  0.0725  1.6036 -1.3629
 2114TIP3   OH2 6305   4.297   5.545   3.204 -0.4420 -0.4570  0.3398
 2114TIP3    H1 6306   4.362   5.489   3.245 -0.1197  0.4067  1.0422
 2114TIP3    H2 6307   4.250   5.487   3.144 -0.0055 -1.4255  0.9057
 2115TIP3   OH2 6308   2.704   3.347   5.712  0.0648  0.2110 -0.1886
 2115TIP3    H1 6309   2.716   3.261   5.751 -0.9726 -0.3161 -0.9750
 2115TIP3    H2 6310   2.638   3.389   5.768  1.6768  1.1320  1.1145
 2116TIP3   OH2 6311   1.980   5.603   4.162 -0.1617  0.4559  0.1013
 2116TIP3    H1 6312   1.961   5.539   4.094 -1.6056  1.0217 -0.0523
 2116TIP3    H2 6313   2.052   5.656   4.127  0.0606 -0.1533 -0.3724
 2117TIP3   OH2 6314  -0.010   0.868   4.356  0.2637  0.2532 -0.5440
 2117TIP3    H1 6315   0.050   0.874   4.282  1.9649  0.0707  0.7568
 2117TIP3    H2 6316   0.035   0.914   4.427 -1.4937  0.7762  0.2730
 2118TIP3   OH2 6317   6.233   5.271   5.523 -0.3272  0.4650  0.3401
 2118TIP3    H1 6318   6.150   5.299   5.561 -0.8218  0.3034 -0.6036
 2118TIP3    H2 6319   6.281   5.352   5.508 -1.0840  0.7222 -0.8360
 2119TIP3   OH2 6320   1.906   3.055   2.365 -0.4252  0.0327  0.1316
 2119TIP3    H1 6321   1.936   3.110   2.293 -0.1112  0.3679  0.5172
 2119TIP3    H2 6322   1.921   3.107   2.444  0.1590 -0.7129  0.5289
 2120TIP3   OH2 6323   1.628   0.554   2.265  0.3101  0.0703  0.6702
 2120TIP3    H1 6324   1.677   0.636   2.274  0.4631  0.2008 -1.0937
 2120TIP3    H2 6325   1.683   0.489   2.311 -0.0881  1.0047  2.5729
 2121TIP3   OH2 6326   4.404   0.732   5.654  0.0737 -0.7659 -0.2388
 2121TIP3    H1 6327   4.327   0.676   5.659  0.9788 -2.0462 -0.0461
 2121TIP3    H2 6328   4.423   0.755   5.745 -0.3427 -0.0700 -0.3245
 2122TIP3   OH2 6329   0.578   4.750   2.447  0.0904  0.0030  0.1852
 2122TIP3    H1 6330   0.534   4.675   2.407  1.4500  0.2470 -1.9243
 2122TIP3    H2 6331   0.617   4.715   2.527  0.5351 -1.5036 -0.6592
 2123TIP3   OH2 6332   6.693   4.673   0.625  0.4293 -0.3646 -0.4519
 2123TIP3    H1 6333   6.771   4.660   0.678  0.8284  0.7364 -0.7311
 2123TIP3    H2 6334   6.723   4.659   0.535  0.2107 -0.3410 -0.5287
 2124TIP3   OH2 6335   2.702   0.177   1.791 -0.1098  0.1199 -0.4013
 2124TIP3    H1 6336   2.724   0.215   1.875 -0.2950  1.1213 -0.7916
 2124TIP3    H2 6337   2.754   0.226   1.727 -1.7930  1.0806 -1.1111
 2125TIP3   OH2 6338   6.715   4.130   2.116 -0.7281  0.0858 -0.0519
 2125TIP3    H1 6339   6.634   4.169   2.148 -0.6967 -0.2464  0.4530
 2125TIP3    H2 6340   6.784   4.189   2.148 -0.5161 -1.3028  2.3845
 2126TIP3   OH2 6341   7.080   2.827   0.142  0.2269  0.3897 -0.3645
 2126TIP3    H1 6342   7.122   2.744   0.165 -0.9912 -0.0787  0.2269
 2126TIP3    H2 6343   7.122   2.892   0.199  0.2884 -0.0403  0.0888
 2127TIP3   OH2 6344   1.198   5.749   1.606  0.2610  0.2313  0.5271
 2127TIP3    H1 6345   1.165   5.748   1.696 -0.1523 -1.1841  0.3778
 2127TIP3    H2 6346   1.253   5.828   1.602 -0.3252  0.7356  1.7851
 2128TIP3   OH2 6347   2.387   1.217   2.930  0.0325  0.5693 -0.0626
 2128TIP3    H1 6348   2.368   1.158   3.003  0.3948  0.6862  0.1302
 2128TIP3    H2 6349   2.468   1.261   2.956 -0.1044  0.9698 -0.3155
 2129TIP3   OH2 6350   6.277   5.064   5.332 -0.8183  0.3254  0.1765
 2129TIP3    H1 6351   6.360   5.099   5.300  0.2911 -1.3897  1.0129
 2129TIP3    H2 6352   6.248   5.127   5.398  0.3266  0.4615  0.5668
 2130TIP3   OH2 6353   1.561   3.111   1.703 -0.3113  0.1176  0.1032
 2130TIP3    H1 6354   1.634   3.135   1.760  0.9461 -1.4479 -0.7590
 2130TIP3    H2 6355   1.486   3.100   1.762  1.1003 -2.1790  1.6524
 2131TIP3   OH2 6356   3.098   2.188   3.788 -0.9662 -0.4959 -0.4426
 2131TIP3    H1 6357   3.174   2.151   3.832 -0.6643 -1.1187 -1.4829
 2131TIP3    H2 6358   3.120   2.281   3.777 -0.7413 -0.4849  0.0416
 2132TIP3   OH2 6359   2.347   2.660   0.594  0.2067  0.3841  0.3135
 2132TIP3    H1 6360   2.364   2.711   0.674 -0.5357  1.6501 -0.2952
 2132TIP3    H2 6361   2.265   2.697   0.560  0.1455 -0.6125 -0.6690
 2133TIP3   OH2 6362   3.707   1.485   4.213  0.2603 -0.4157 -0.1442
 2133TIP3    H1 6363   3.633   1.543   4.195  0.5630  0.0684  0.1496
 2133TIP3    H2 6364   3.668   1.398   4.219 -0.1249 -0.3161 -1.1004
 2134TIP3   OH2 6365   1.500   1.172   3.980  0.2002 -0.5148  0.4918
 2134TIP3    H1 6366   1.431   1.233   4.005  0.0480 -0.9401  1.1481
 2134TIP3    H2 6367   1.581   1.224   3.984  0.0133 -0.2260  0.5316
 2135TIP3   OH2 6368   2.391   3.021   4.276  0.2984 -0.4664  0.3023
 2135TIP3    H1 6369   2.429   2.963   4.210 -0.6306 -2.2478  1.2392
 2135TIP3    H2 6370   2.464   3.044   4.334  0.9786  0.5616 -0.9187
 2136TIP3   OH2 6371   0.399   2.407   5.549 -0.7597 -0.1724 -0.2109
 2136TIP3    H1 6372   0.368   2.352   5.621  2.8999 -1.9841  0.2366
 2136TIP3    H2 6373   0.382   2.355   5.471  2.0641 -1.9330  0.1581
 2137TIP3   OH2 6374   3.862   5.354   1.566 -0.0952  0.3446  0.3356
 2137TIP3    H1 6375   3.861   5.387   1.476  0.4753  2.3838  1.0311
 2137TIP3    H2 6376   3.806   5.276   1.563 -1.8041  1.5375 -1.3387
 2138TIP3   OH2 6377   6.868   4.204   4.089  0.2205 -0.3789  0.7691
 2138TIP3    H1 6378   6.933   4.257   4.043 -0.6782  0.4619  0.4124
 2138TIP3    H2 6379   6.906   4.117   4.095  0.9368 -0.1523 -0.3414
 2139TIP3   OH2 6380   2.705   6.083   4.960 -0.0099  0.5463  0.4378
 2139TIP3    H1 6381   2.694   6.077   4.865  0.8418  0.6961  0.3204
 2139TIP3    H2 6382   2.681   6.173   4.982 -1.8970  0.0462  0.6277
 2140TIP3   OH2 6383   0.454   5.984   2.907  0.0130  0.4952 -0.1799
 2140TIP3    H1 6384   0.512   6.059   2.891  0.2769  0.3015 -0.1366
 2140TIP3    H2 6385   0.513   5.911   2.924 -0.2002 -0.0401 -1.5966
 2141TIP3   OH2 6386   1.526   6.226   4.495  0.1308  0.3607 -0.5314
 2141TIP3    H1 6387   1.566   6.139   4.497  1.1479  0.8015 -0.8080
 2141TIP3    H2 6388   1.432   6.210   4.486  0.4868 -0.7388 -3.8453
 2142TIP3   OH2 6389   4.825   6.102   3.811 -0.0795 -0.1491  0.1373
 2142TIP3    H1 6390   4.919   6.100   3.795 -0.2124 -0.5247 -0.6804
 2142TIP3    H2 6391   4.815   6.157   3.888  0.6133  2.4241 -1.4578
 2143TIP3   OH2 6392   5.318   5.319   1.421  0.3714  0.0826  0.2892
 2143TIP3    H1 6393   5.368   5.377   1.478  2.2895  0.9740 -2.0893
 2143TIP3    H2 6394   5.230   5.319   1.457  0.8002  2.8512  1.5822
 2144TIP3   OH2 6395   6.734   4.994   2.986  0.4366 -0.4827 -0.4569
 2144TIP3    H1 6396   6.665   5.061   2.987 -0.2995 -1.2187  0.7574
 2144TIP3    H2 6397   6.689   4.913   3.008  1.5020 -1.1989 -0.8602
 2145TIP3   OH2 6398   1.143   4.877   0.415 -0.0062 -0.0077 -0.4855
 2145TIP3    H1 6399   1.168   4.785   0.425 -1.5113 -0.3375  0.6181
 2145TIP3    H2 6400   1.047   4.876   0.418 -0.0262  1.7135  0.6559
 2146TIP3   OH2 6401   6.341   6.641   2.877 -0.3527 -0.0675 -0.0635
 2146TIP3    H1 6402   6.309   6.695   2.804  1.7412 -0.6527 -1.5017
 2146TIP3    H2 6403   6.271   6.645   2.942 -1.3222  2.3546 -1.1349
 2147TIP3   OH2 6404   1.818   3.643   1.016 -0.3148  0.3876  0.0738
 2147TIP3    H1 6405   1.837   3.716   1.075  1.3060  0.3711 -0.4074
 2147TIP3    H2 6406   1.851   3.565   1.061 -0.4684  0.1669 -0.1835
 2148TIP3   OH2 6407   5.000   5.957   5.904 -0.0631 -0.1233 -0.2649
 2148TIP3    H1 6408   5.012   5.895   5.833 -1.8253 -1.8166  0.8418
 2148TIP3    H2 6409   5.055   6.032   5.879  1.4693 -1.7274 -2.0613
 2149TIP3   OH2 6410   2.689   4.656   0.824  0.4178  0.6952  0.5156
 2149TIP3    H1 6411   2.618   4.717   0.845  0.1548  0.3884  0.5306
 2149TIP3    H2 6412   2.713   4.618   0.909 -2.0364 -2.0763  0.1367
 2150TIP3   OH2 6413   7.084   4.185   1.013  0.5938 -0.3094  0.0630
 2150TIP3    H1 6414   7.173   4.163   0.986  0.1752 -2.4706  0.2307
 2150TIP3    H2 6415   7.081   4.160   1.106  0.4616  1.9895  0.7389
 2151TIP3   OH2 6416   3.182   5.047   4.638  0.5235 -0.2168  0.4840
 2151TIP3    H1 6417   3.111   4.990   4.607  0.2714  0.0109  0.6280
 2151TIP3    H2 6418   3.253   5.034   4.576 -0.4433  1.2385 -0.9956
 2152TIP3   OH2 6419   6.652   4.543   3.004  0.1108 -0.1256  0.2120
 2152TIP3    H1 6420   6.583   4.477   3.007 -0.2685  0.3042  1.8619
 2152TIP3    H2 6421   6.673   4.561   3.096  1.2035  1.0147 -0.2243
 2153TIP3   OH2 6422  -0.005   1.905   3.855  0.3829 -0.4192 -0.0831
 2153TIP3    H1 6423   0.076   1.934   3.812  0.8571 -0.9022  0.4749
 2153TIP3    H2 6424   0.023   1.874   3.941 -0.5853  0.7785  0.6941
 2154TIP3   OH2 6425   5.684   2.320   4.017 -0.1011  0.0170 -0.5106
 2154TIP3    H1 6426   5.756   2.258   4.023  0.4750  0.7494  0.5417
 2154TIP3    H2 6427   5.727   2.405   4.007 -0.7282  0.6660  1.7626
 2155TIP3   OH2 6428   4.639   4.126   5.358  0.0075  0.1909 -0.2803
 2155TIP3    H1 6429   4.615   4.120   5.266  3.0037 -2.2329 -1.0922
 2155TIP3    H2 6430   4.709   4.191   5.361  1.3532 -1.2068 -0.1649
 2156TIP3   OH2 6431   6.867   3.744   4.342  0.8924 -0.1483 -0.4297
 2156TIP3    H1 6432   6.855   3.837   4.320  1.0947 -0.4350 -1.8750
 2156TIP3    H2 6433   6.798   3.699   4.294  0.8043 -0.7615  0.2538
 2157TIP3   OH2 6434   0.351   3.946   0.687 -0.8268  0.4211  1.1167
 2157TIP3    H1 6435   0.377   3.921   0.775  0.5920 -2.2957  0.0292
 2157TIP3    H2 6436   0.265   3.987   0.698  0.2605  2.2777  3.9398
 2158TIP3   OH2 6437   3.678   0.902   2.851 -0.5531  0.1480 -0.6059
 2158TIP3    H1 6438   3.672   0.943   2.764  0.3130 -1.7094 -1.6058
 2158TIP3    H2 6439   3.587   0.890   2.877 -0.8767  3.1611  0.0408
 2159TIP3   OH2 6440   2.163   3.748   2.149  0.0883 -0.1414 -0.1076
 2159TIP3    H1 6441   2.136   3.795   2.229 -1.1050 -2.6936  1.1184
 2159TIP3    H2 6442   2.081   3.736   2.100  0.4606 -0.4588 -0.6571
 2160TIP3   OH2 6443   3.310   6.107   1.195  0.5442 -0.3417 -0.2145
 2160TIP3    H1 6444   3.302   6.194   1.235  3.4658 -0.1877  0.2380
 2160TIP3    H2 6445   3.266   6.049   1.256  1.6898  0.3969  1.4047
 2161TIP3   OH2 6446   6.432   5.893   5.710 -0.0514  0.1992  0.6511
 2161TIP3    H1 6447   6.484   5.848   5.776  2.5109  0.5163 -1.0300
 2161TIP3    H2 6448   6.485   5.967   5.683 -1.5878  0.8370 -0.8451
 2162TIP3   OH2 6449   3.867   3.144   5.743 -0.3585  0.6668 -0.3652
 2162TIP3    H1 6450   3.835   3.188   5.665 -1.6141  0.7222  0.1604
 2162TIP3    H2 6451   3.866   3.211   5.812  1.9042  0.9568 -0.5289
 2163TIP3   OH2 6452   6.836   0.410   2.537 -0.5557  0.0375 -0.0726
 2163TIP3    H1 6453   6.909   0.381   2.591 -1.3736  0.5390  1.3625
 2163TIP3    H2 6454   6.766   0.347   2.555 -0.5080 -0.4374 -1.4236
 2164TIP3   OH2 6455   4.958   6.196   4.868 -0.3594 -0.3040  0.5736
 2164TIP3    H1 6456   4.955   6.208   4.773  1.4887 -1.8167  0.2609
 2164TIP3    H2 6457   5.028   6.255   4.896 -1.4033  0.7086  1.1558
 2165TIP3   OH2 6458   4.305   3.478   0.953  0.5039 -0.4733 -0.9827
 2165TIP3    H1 6459   4.239   3.409   0.941 -0.8302  0.4392  0.7363
 2165TIP3    H2 6460   4.254   3.556   0.974  2.1093  0.4404 -0.3570
 2166TIP3   OH2 6461   4.529   0.251   0.343 -0.6081 -0.5551  0.2170
 2166TIP3    H1 6462   4.470   0.208   0.405  0.3657  1.2061  2.5758
 2166TIP3    H2 6463   4.611   0.203   0.351 -0.5246 -0.4162  0.2087
 2167TIP3   OH2 6464   1.723   4.416   1.911 -0.1193 -0.1774  1.1871
 2167TIP3    H1 6465   1.770   4.449   1.988  1.3254  0.7785 -0.0322
 2167TIP3    H2 6466   1.670   4.490   1.882  0.6631  0.0546  0.2988
 2168TIP3   OH2 6467   6.758   1.580   1.924  0.2047  0.3861  0.0053
 2168TIP3    H1 6468   6.768   1.617   1.836  0.1057  1.7783  0.5574
 2168TIP3    H2 6469   6.704   1.644   1.971  0.3056 -0.3137  1.0979
 2169TIP3   OH2 6470   5.940   3.024   5.642  0.0900 -0.2430  0.0427
 2169TIP3    H1 6471   5.922   2.934   5.672  0.4548  0.3316  2.1623
 2169TIP3    H2 6472   6.010   3.055   5.699  0.9381  0.9519 -1.5694
 2170TIP3   OH2 6473   3.314   3.335   2.813 -0.4439 -0.2979  0.2425
 2170TIP3    H1 6474   3.328   3.317   2.720  0.8124  0.4194  0.2728
 2170TIP3    H2 6475   3.398   3.369   2.844 -0.3384 -1.9632  2.0029
 2171TIP3   OH2 6476   6.744   1.134   0.205 -0.3328 -0.2305 -0.6938
 2171TIP3    H1 6477   6.759   1.040   0.195  0.3265 -0.1009 -0.9751
 2171TIP3    H2 6478   6.650   1.145   0.193 -0.5833 -0.9906  0.4117
 2172TIP3   OH2 6479   6.470   6.154   5.208  0.1702  0.8259 -0.1007
 2172TIP3    H1 6480   6.457   6.064   5.180 -2.3270  0.9253  0.4425
 2172TIP3    H2 6481   6.435   6.207   5.136  1.9377  1.4117 -0.5749
 2173TIP3   OH2 6482   5.553   4.379   1.856 -0.6836 -0.0647 -0.1144
 2173TIP3    H1 6483   5.569   4.400   1.764 -2.6944  0.2189 -0.4416
 2173TIP3    H2 6484   5.564   4.462   1.902  1.3437 -0.3991  0.1061
 2174TIP3   OH2 6485   2.814   2.008   3.315  0.1089  0.3613  0.0618
 2174TIP3    H1 6486   2.781   2.036   3.401  0.5253 -2.1949  1.1514
 2174TIP3    H2 6487   2.893   2.059   3.302 -1.5745  3.0885 -0.3550
 2175TIP3   OH2 6488   1.460   4.923   1.559 -0.4665 -0.0855 -0.1950
 2175TIP3    H1 6489   1.401   4.879   1.497 -0.1332 -2.5202  1.0981
 2175TIP3    H2 6490   1.526   4.964   1.503 -1.0739 -0.8320 -1.5193
 2176TIP3   OH2 6491   2.958   1.275   0.844 -0.0958  0.2842 -0.3265
 2176TIP3    H1 6492   2.952   1.196   0.898 -2.8585  0.6341  0.0519
 2176TIP3    H2 6493   2.949   1.347   0.907  0.0541  0.8099 -0.9043
 2177TIP3   OH2 6494   3.029   0.947   3.303 -0.3978  0.7978 -0.1380
 2177TIP3    H1 6495   3.074   0.898   3.372 -1.0080  0.1915 -0.1502
 2177TIP3    H2 6496   3.098   0.996   3.259  0.4632 -0.9909 -0.9065
 2178TIP3   OH2 6497   2.536   2.072   5.523  0.1980 -0.1969  0.2795
 2178TIP3    H1 6498   2.577   1.985   5.528  2.0159  0.5252 -1.1244
 2178TIP3    H2 6499   2.495   2.074   5.436 -2.4780 -0.6891  1.4352
 2179TIP3   OH2 6500   6.169   0.257   4.484 -0.3528 -0.2709 -0.7463
 2179TIP3    H1 6501   6.217   0.184   4.446  0.1093  0.0795 -0.8313
 2179TIP3    H2 6502   6.078   0.226   4.487  0.2676 -2.3144  2.5496
 2180TIP3   OH2 6503   7.069   2.168   3.133 -0.0335  0.2645 -0.0778
 2180TIP3    H1 6504   7.142   2.111   3.156  0.9111  1.3664 -0.1986
 2180TIP3    H2 6505   7.037   2.200   3.217  0.0349  0.2575 -0.0484
 2181TIP3   OH2 6506   6.052   5.819   0.740  0.3052 -0.2414 -0.4063
 2181TIP3    H1 6507   6.087   5.908   0.745 -1.6486  0.5766 -0.3302
 2181TIP3    H2 6508   6.083   5.776   0.819 -1.4283  1.4693  1.3173
 2182TIP3   OH2 6509   3.694   5.441   1.938 -0.1356  0.3933  0.1218
 2182TIP3    H1 6510   3.710   5.488   1.856 -0.6387  1.1109  0.4255
 2182TIP3    H2 6511   3.776   5.396   1.957 -0.2570 -0.4302 -1.1848
 2183TIP3   OH2 6512   7.038   0.036   5.319  0.6441  0.2088 -0.1900
 2183TIP3    H1 6513   7.058  -0.030   5.386  0.0778  0.0281 -0.1922
 2183TIP3    H2 6514   7.095   0.013   5.246 -0.0635 -0.7411 -0.4681
 2184TIP3   OH2 6515   2.144   3.863   1.025  0.0108 -0.2976 -0.2528
 2184TIP3    H1 6516   2.121   3.787   1.079  1.5925  0.6630  1.9159
 2184TIP3    H2 6517   2.108   3.938   1.072 -0.2628  0.4442 -1.5959
 2185TIP3   OH2 6518   1.097   5.580   5.614 -0.1522 -0.2639  0.0677
 2185TIP3    H1 6519   1.091   5.660   5.666  2.5529 -1.0135  1.7175
 2185TIP3    H2 6520   1.167   5.599   5.550  0.2264 -1.1422  0.2062
 2186TIP3   OH2 6521   5.853   1.340   3.052  0.0778 -0.1492 -0.1674
 2186TIP3    H1 6522   5.810   1.409   3.002 -0.1187 -0.8541 -1.0125
 2186TIP3    H2 6523   5.922   1.307   2.993  1.3247  0.4852  0.8913
 2187TIP3   OH2 6524   0.730   0.246   4.670  0.3964 -0.1955 -0.4319
 2187TIP3    H1 6525   0.821   0.270   4.688  0.3610 -1.1882  1.2775
 2187TIP3    H2 6526   0.699   0.205   4.751 -1.6447  0.2964 -0.8931
 2188TIP3   OH2 6527   1.727   2.028   4.745 -0.1335  0.3452 -0.0142
 2188TIP3    H1 6528   1.735   2.051   4.837  1.1874  0.9056 -0.2356
 2188TIP3    H2 6529   1.651   2.077   4.714  0.4231  1.5057  0.3998
 2189TIP3   OH2 6530   6.133   2.505   5.818 -0.2167  0.5334 -0.1846
 2189TIP3    H1 6531   6.070   2.572   5.793 -1.3293  0.5380  2.3232
 2189TIP3    H2 6532   6.130   2.503   5.914  0.4877 -2.4072 -0.1109
 2190TIP3   OH2 6533   4.647   4.144   4.732  0.0379 -0.1407 -0.1442
 2190TIP3    H1 6534   4.601   4.185   4.806  0.0380 -0.9701  0.3274
 2190TIP3    H2 6535   4.647   4.051   4.753 -0.1610 -0.4129 -1.3103
 2191TIP3   OH2 6536   2.649   5.081   1.624  0.3263 -0.3225 -0.2945
 2191TIP3    H1 6537   2.579   5.095   1.687 -0.2442 -1.3531 -0.6755
 2191TIP3    H2 6538   2.616   5.117   1.542  0.3798 -0.5044 -0.3959
 2192TIP3   OH2 6539   6.123   5.156   2.382 -0.3635  0.1076  0.1129
 2192TIP3    H1 6540   6.139   5.250   2.393  0.9858 -0.2699  1.9944
 2192TIP3    H2 6541   6.194   5.127   2.325  0.2795 -0.0265  0.9550
 2193TIP3   OH2 6542   5.024   6.625   0.796 -0.0313  0.5450  0.0706
 2193TIP3    H1 6543   5.073   6.562   0.744  0.7227  0.7031  0.5576
 2193TIP3    H2 6544   5.024   6.588   0.885 -1.6404  0.0817 -0.1083
 2194TIP3   OH2 6545   0.216   4.938   4.120  0.3307 -0.4734 -0.0041
 2194TIP3    H1 6546   0.195   4.897   4.204 -0.0745 -2.0046 -0.8175
 2194TIP3    H2 6547   0.306   4.967   4.129  0.8336 -2.0692  0.4341
 2195TIP3   OH2 6548   3.000   0.710   5.403 -0.0739  0.2277  0.2729
 2195TIP3    H1 6549   3.069   0.647   5.380 -0.7187  0.0180 -1.1994
 2195TIP3    H2 6550   3.045   0.777   5.456  0.6427 -1.3718  1.7727
 2196TIP3   OH2 6551   1.293   4.936   2.136  0.2100  0.3453  0.4169
 2196TIP3    H1 6552   1.337   4.868   2.084 -1.1574  1.8202 -3.0336
 2196TIP3    H2 6553   1.214   4.894   2.168 -0.2989  0.0273 -1.1343
 2197TIP3   OH2 6554   0.600   2.561   3.858  0.2449 -0.3496  0.5521
 2197TIP3    H1 6555   0.555   2.642   3.882  0.3937 -0.3434  0.8066
 2197TIP3    H2 6556   0.672   2.553   3.921 -0.2969 -1.1370  1.0936
 2198TIP3   OH2 6557   7.015   5.546   5.372 -0.7663  0.2326 -0.1191
 2198TIP3    H1 6558   6.977   5.616   5.425 -2.4128  0.2327 -1.2538
 2198TIP3    H2 6559   7.072   5.592   5.309 -1.2875  0.4996 -0.3986
 2199TIP3   OH2 6560   5.424   3.475   0.336  0.0710  0.7224  0.5862
 2199TIP3    H1 6561   5.434   3.473   0.431 -1.3221 -0.9648  0.7381
 2199TIP3    H2 6562   5.431   3.384   0.309 -0.3550  1.0863 -0.8415
 2200TIP3   OH2 6563   0.615   2.508   4.363 -0.2227 -0.1285 -0.3539
 2200TIP3    H1 6564   0.635   2.593   4.401 -0.8289  0.7645 -1.9268
 2200TIP3    H2 6565   0.700   2.472   4.337 -0.1061  2.4093 -4.4674
 2201TIP3   OH2 6566   2.468   1.729   5.325  0.2806  0.2265  0.5631
 2201TIP3    H1 6567   2.413   1.751   5.401  0.9619 -1.1074  1.4799
 2201TIP3    H2 6568   2.450   1.799   5.262 -3.1471 -0.6033  0.4236
 2202TIP3   OH2 6569   6.461   2.420   2.408  0.3796  0.3165 -0.5487
 2202TIP3    H1 6570   6.409   2.478   2.464  0.1961 -0.2698 -0.1044
 2202TIP3    H2 6571   6.406   2.343   2.396  1.5062 -0.7268  0.6973
 2203TIP3   OH2 6572   1.061   5.606   0.855  0.1946 -0.2744 -0.8661
 2203TIP3    H1 6573   1.016   5.549   0.792  1.0631 -1.2623 -0.6179
 2203TIP3    H2 6574   1.154   5.589   0.840  0.4192 -0.5086  0.6528
 2204TIP3   OH2 6575   2.825   4.955   4.304  0.0779 -0.0698 -0.7898
 2204TIP3    H1 6576   2.893   5.009   4.265 -1.5929  1.8634 -1.2174
 2204TIP3    H2 6577   2.800   5.001   4.384 -1.1740 -0.3593 -0.9946
 2205TIP3   OH2 6578   1.043   0.232   3.229 -0.5915 -0.6014  0.0029
 2205TIP3    H1 6579   0.994   0.194   3.302 -0.7210  0.3938  0.4534
 2205TIP3    H2 6580   0.976   0.277   3.176 -0.3696 -0.4849 -0.1814
 2206TIP3   OH2 6581   1.256   6.356   3.613 -0.1205 -0.3911  0.6861
 2206TIP3    H1 6582   1.283   6.268   3.640 -0.6625 -1.1951 -1.2157
 2206TIP3    H2 6583   1.162   6.357   3.628 -0.0248  0.0897  1.2624
 2207TIP3   OH2 6584   6.526   5.460   3.224 -0.1318  0.7816  0.5163
 2207TIP3    H1 6585   6.441   5.427   3.253 -0.4561  0.9698 -0.1927
 2207TIP3    H2 6586   6.582   5.454   3.301  0.2407 -2.6906  0.1576
 2208TIP3   OH2 6587   3.138   6.509   4.944  0.6294 -0.0216 -0.0181
 2208TIP3    H1 6588   3.143   6.485   5.037 -0.1745  0.0571  0.0485
 2208TIP3    H2 6589   3.057   6.469   4.913  0.8730 -0.0129 -0.6800
 2209TIP3   OH2 6590   2.830   4.755   0.611  0.1811 -0.6635  0.2297
 2209TIP3    H1 6591   2.838   4.665   0.580  0.3596 -1.4399  2.3515
 2209TIP3    H2 6592   2.797   4.746   0.700 -0.5342  1.4243  0.2152
 2210TIP3   OH2 6593   2.658   4.675   5.253 -0.5711  0.5505  0.6040
 2210TIP3    H1 6594   2.612   4.666   5.336  0.4451  0.2448  1.1551
 2210TIP3    H2 6595   2.605   4.626   5.190 -0.4721 -0.6475  1.4242
 2211TIP3   OH2 6596   4.561   2.627   2.382  0.1608  0.4253  0.3876
 2211TIP3    H1 6597   4.484   2.574   2.402 -1.1425  1.6417 -1.0970
 2211TIP3    H2 6598   4.625   2.565   2.347 -0.1998 -0.5811  1.4629
 2212TIP3   OH2 6599   3.970   1.680   3.671 -0.1290  0.0236 -0.0976
 2212TIP3    H1 6600   4.020   1.640   3.742 -0.5156  0.4346  0.4147
 2212TIP3    H2 6601   3.963   1.611   3.605  1.8850  0.2367 -0.5888
 2213TIP3   OH2 6602   3.414   3.438   0.320 -0.4569  0.2289 -0.7274
 2213TIP3    H1 6603   3.352   3.410   0.253  0.3765  0.3770 -1.5883
 2213TIP3    H2 6604   3.470   3.501   0.276  1.0027 -0.7133 -0.3139
 2214TIP3   OH2 6605   5.348   4.239   5.877 -0.5677 -0.1143 -0.2390
 2214TIP3    H1 6606   5.385   4.192   5.802  0.2292 -0.0955  0.1282
 2214TIP3    H2 6607   5.343   4.330   5.849  0.3428  0.0056 -0.0622
 2215TIP3   OH2 6608   0.679   5.200   3.677  0.5701  0.0222  0.5822
 2215TIP3    H1 6609   0.612   5.249   3.629  0.7421  0.6734  0.9965
 2215TIP3    H2 6610   0.761   5.240   3.651  0.7179 -0.0827  0.8789
 2216TIP3   OH2 6611   6.930   0.649   0.478  0.2273  0.1592  0.1919
 2216TIP3    H1 6612   6.944   0.687   0.392  0.4013  0.5223  0.3792
 2216TIP3    H2 6613   6.994   0.692   0.535  0.3857 -0.3667  0.4212
 2217TIP3   OH2 6614   1.075   3.917   1.726  0.3216  0.5676  0.2254
 2217TIP3    H1 6615   1.109   3.882   1.809  0.2124  1.2307  0.5591
 2217TIP3    H2 6616   1.126   3.874   1.658  1.2385  0.9007  0.6882
 2218TIP3   OH2 6617   2.084   4.821   0.739  0.3420  0.1689  0.9139
 2218TIP3    H1 6618   2.069   4.796   0.830 -0.2024  1.4573  1.2093
 2218TIP3    H2 6619   2.031   4.900   0.727  1.3380  0.7060 -0.1718
 2219TIP3   OH2 6620   1.898   2.288   2.876  0.1823  0.5872  0.1912
 2219TIP3    H1 6621   1.831   2.347   2.913  1.4343  2.4277 -0.3386
 2219TIP3    H2 6622   1.869   2.272   2.787 -0.5339 -0.2357  0.5524
 2220TIP3   OH2 6623   2.776   2.006   5.346 -0.6750  0.3922  0.5536
 2220TIP3    H1 6624   2.736   1.966   5.268 -0.6600  1.1175  0.1735
 2220TIP3    H2 6625   2.765   1.939   5.414 -0.0698 -0.5435 -0.2289
 2221TIP3   OH2 6626   1.293   6.373   4.040  0.2408  0.5153  0.0577
 2221TIP3    H1 6627   1.369   6.404   3.991 -0.7711  3.7417  0.3274
 2221TIP3    H2 6628   1.266   6.293   3.993  1.1720  1.6990 -2.7316
 2222TIP3   OH2 6629   3.769   3.625   2.820 -0.1101  0.0766 -0.1342
 2222TIP3    H1 6630   3.856   3.647   2.854  0.3969  0.2801 -1.4915
 2222TIP3    H2 6631   3.754   3.689   2.750 -1.2483 -0.1129 -0.0790
 2223TIP3   OH2 6632   0.707   0.701   5.610 -0.0008  0.1436  0.4659
 2223TIP3    H1 6633   0.709   0.728   5.518 -0.6765  0.5290  0.5528
 2223TIP3    H2 6634   0.769   0.759   5.654  0.2401  0.0342  0.2721
 2224TIP3   OH2 6635   1.641   3.816   4.204  0.5705 -0.0019  0.8959
 2224TIP3    H1 6636   1.572   3.868   4.243 -0.0416  0.1802 -0.3699
 2224TIP3    H2 6637   1.595   3.744   4.159  1.0974  0.6324 -0.7373
 2225TIP3   OH2 6638   1.444   2.703   0.690 -0.5659  0.2655 -0.1090
 2225TIP3    H1 6639   1.450   2.671   0.600 -0.7349  1.0870 -0.4276
 2225TIP3    H2 6640   1.515   2.768   0.696  0.7265 -1.1646  0.9631
 2226TIP3   OH2 6641   1.867   6.273   3.498 -0.4842 -0.0696  0.2171
 2226TIP3    H1 6642   1.914   6.206   3.448 -0.8225 -0.0174 -0.1724
 2226TIP3    H2 6643   1.909   6.355   3.474  1.6855 -0.3445  2.6571
 2227TIP3   OH2 6644   5.016   6.003   1.239  0.2048  0.4089  0.4619
 2227TIP3    H1 6645   5.069   6.074   1.275  0.0175  0.2719  1.0146
 2227TIP3    H2 6646   5.081   5.939   1.209  0.3794 -0.0803  1.7831
 2228TIP3   OH2 6647   5.036   6.605   5.423 -0.4827  0.5462 -0.1778
 2228TIP3    H1 6648   4.971   6.545   5.460  1.4114 -1.2771  0.3589
 2228TIP3    H2 6649   5.018   6.689   5.465 -0.6050 -0.6349  2.2641
 2229TIP3   OH2 6650   4.313   2.909   5.732 -0.0096 -0.6301  0.6305
 2229TIP3    H1 6651   4.235   2.955   5.764 -0.1440 -0.4410  0.0472
 2229TIP3    H2 6652   4.279   2.826   5.698 -0.3581  0.4712 -1.9475
 2230TIP3   OH2 6653   2.862   3.328   3.730 -0.3081 -0.3576 -0.2808
 2230TIP3    H1 6654   2.780   3.372   3.711 -0.4230 -0.5151 -0.1548
 2230TIP3    H2 6655   2.843   3.235   3.718 -0.5592 -0.5192  1.2204
 2231TIP3   OH2 6656   1.342   4.414   5.618  0.2212  0.5375  0.0087
 2231TIP3    H1 6657   1.251   4.387   5.628  0.6167 -1.0617 -0.4712
 2231TIP3    H2 6658   1.338   4.495   5.567 -0.9403  0.6623  0.2851
 2232TIP3   OH2 6659   1.929   4.508   5.054 -0.1554 -0.4801 -0.2176
 2232TIP3    H1 6660   1.973   4.471   5.130 -0.4658  0.6649  0.5394
 2232TIP3    H2 6661   1.999   4.552   5.005 -0.2841  0.6190  0.5472
 2233TIP3   OH2 6662   0.867   3.191   4.785 -0.1615 -0.2047  0.5407
 2233TIP3    H1 6663   0.903   3.166   4.700  1.0752  1.5791  0.4901
 2233TIP3    H2 6664   0.888   3.118   4.842  0.0578 -0.9001 -0.3970
 2234TIP3   OH2 6665   7.040   1.021   2.822  0.2121 -0.1459  0.2040
 2234TIP3    H1 6666   6.989   1.042   2.743  1.2193  2.6336  0.1777
 2234TIP3    H2 6667   7.117   1.076   2.815  0.8708 -0.6658  2.6294
 2235TIP3   OH2 6668   3.567   0.760   1.112 -0.1590 -0.2442  0.1429
 2235TIP3    H1 6669   3.622   0.747   1.035 -1.6110  0.7467 -1.1172
 2235TIP3    H2 6670   3.613   0.826   1.164  1.4671 -1.8342  0.8210
 2236TIP3   OH2 6671   3.345   5.216   0.044 -0.4316  0.0730 -0.0754
 2236TIP3    H1 6672   3.409   5.286   0.049  0.3379 -0.7256  2.7456
 2236TIP3    H2 6673   3.276   5.242   0.105 -2.6806  0.6834 -2.6892
 2237TIP3   OH2 6674   5.149   5.169   5.241 -0.8865  0.0250  0.0345
 2237TIP3    H1 6675   5.111   5.247   5.200 -0.6322  0.1517  0.0347
 2237TIP3    H2 6676   5.091   5.098   5.216 -0.3030 -0.0419 -1.2220
 2238TIP3   OH2 6677   3.695   6.103   3.133 -0.6691 -0.0132 -0.3334
 2238TIP3    H1 6678   3.663   6.020   3.167 -1.9513  0.0637 -1.3006
 2238TIP3    H2 6679   3.628   6.167   3.160  0.8150  0.9424  1.3439
 2239TIP3   OH2 6680   2.436   2.329   5.473  0.2703 -0.1190  0.1228
 2239TIP3    H1 6681   2.450   2.244   5.515  0.1949  0.1765  0.7559
 2239TIP3    H2 6682   2.517   2.347   5.425 -0.0404 -0.9519 -0.7409
 2240TIP3   OH2 6683   0.972   0.863   0.048 -0.2596 -0.3198 -0.2133
 2240TIP3    H1 6684   0.953   0.934   0.109  0.6040  0.4983 -0.8704
 2240TIP3    H2 6685   0.930   0.890  -0.034 -0.3209 -0.7932 -0.3412
 2241TIP3   OH2 6686   2.519   6.539   0.231 -0.3830 -0.1815 -0.1493
 2241TIP3    H1 6687   2.539   6.586   0.312 -1.1293 -0.3163  0.1301
 2241TIP3    H2 6688   2.602   6.533   0.184 -0.3008  1.5930 -0.2836
 2242TIP3   OH2 6689   3.228   1.189   5.803 -0.3064  0.5400 -0.1031
 2242TIP3    H1 6690   3.141   1.209   5.770  0.1036 -0.5417 -1.9651
 2242TIP3    H2 6691   3.227   1.094   5.818  0.1699  0.7052  1.1343
 2243TIP3   OH2 6692   6.506   6.634   0.474 -0.0115 -0.2351 -0.3142
 2243TIP3    H1 6693   6.582   6.591   0.435  0.5675 -0.3197  0.8797
 2243TIP3    H2 6694   6.449   6.562   0.502  1.7266 -0.4397  3.2512
 2244TIP3   OH2 6695   6.988   5.277   5.478  0.0029 -0.2380  0.5026
 2244TIP3    H1 6696   6.978   5.353   5.422 -0.8914 -1.4714 -1.0985
 2244TIP3    H2 6697   7.033   5.310   5.556  2.1875  1.3597 -1.3190
 2245TIP3   OH2 6698   5.134   5.867   2.759  0.1116  0.2804  0.0452
 2245TIP3    H1 6699   5.112   5.838   2.847 -0.9120  0.2734 -0.2062
 2245TIP3    H2 6700   5.218   5.912   2.769  0.1352  0.0474  0.9728
 2246TIP3   OH2 6701   6.677   2.938   3.682  0.2306  0.1153  0.0292
 2246TIP3    H1 6702   6.685   3.007   3.748  2.0562  0.2304 -0.2586
 2246TIP3    H2 6703   6.670   2.857   3.732 -0.7934  0.3998  0.3628
 2247TIP3   OH2 6704   6.435   4.992   2.667 -0.2020 -0.1110 -0.0772
 2247TIP3    H1 6705   6.434   4.952   2.581 -0.5367  0.6504 -0.4379
 2247TIP3    H2 6706   6.470   4.924   2.725  0.3396 -0.5156 -0.8615
 2248TIP3   OH2 6707   5.779   2.118   1.473  0.4448  0.1092 -0.0223
 2248TIP3    H1 6708   5.848   2.113   1.408 -2.0358 -0.3289 -2.8370
 2248TIP3    H2 6709   5.709   2.168   1.430 -0.4870  1.9058  3.2182
 2249TIP3   OH2 6710   1.554   5.615   1.517 -0.2940 -0.1915 -0.5233
 2249TIP3    H1 6711   1.496   5.614   1.593  0.3974  1.6705  0.0610
 2249TIP3    H2 6712   1.495   5.597   1.443 -1.0534 -1.5119  0.3428
 2250TIP3   OH2 6713   4.940   6.354   3.354 -0.1772  0.7822 -0.3229
 2250TIP3    H1 6714   4.931   6.297   3.430 -1.1660  0.7128 -0.4748
 2250TIP3    H2 6715   4.982   6.299   3.287  0.4817  0.7744  0.0888
 2251TIP3   OH2 6716   1.733   0.283   0.326  0.0589 -0.3200 -0.0953
 2251TIP3    H1 6717   1.819   0.270   0.286 -0.3765 -0.4382 -1.0096
 2251TIP3    H2 6718   1.671   0.252   0.260 -0.7057  0.1727  0.3825
 2252TIP3   OH2 6719   1.213   6.109   5.470 -0.2460 -0.4234 -0.1034
 2252TIP3    H1 6720   1.169   6.175   5.415 -0.3411 -1.1708 -0.9502
 2252TIP3    H2 6721   1.227   6.153   5.553 -0.6283  0.5563 -0.5391
 2253TIP3   OH2 6722   0.388   4.126   4.591 -0.2303 -0.6015 -0.0788
 2253TIP3    H1 6723   0.340   4.160   4.666  1.1925  0.1672  0.5180
 2253TIP3    H2 6724   0.320   4.103   4.527 -1.5381 -2.3221  1.8306
 2254TIP3   OH2 6725   5.194   0.059   2.805  0.6593  0.3134 -0.2980
 2254TIP3    H1 6726   5.202   0.031   2.896 -3.0655  1.0973  0.4173
 2254TIP3    H2 6727   5.211  -0.020   2.754  2.2642 -0.2804  1.0580
 2255TIP3   OH2 6728   3.270   3.402   0.084  0.5142  0.3283  0.1739
 2255TIP3    H1 6729   3.258   3.488   0.043  0.7776 -0.6122 -1.9753
 2255TIP3    H2 6730   3.217   3.342   0.031 -0.1904 -0.7703  2.0284
 2256TIP3   OH2 6731   0.405   4.285   3.096  0.4565  0.1728  0.4046
 2256TIP3    H1 6732   0.343   4.310   3.027  0.4112  0.3867  0.5216
 2256TIP3    H2 6733   0.406   4.360   3.155  1.7740  0.7111 -0.2571
 2257TIP3   OH2 6734   3.756   2.661   2.373 -0.0259  0.2738  0.1586
 2257TIP3    H1 6735   3.731   2.690   2.285  0.8183  0.7845  0.0800
 2257TIP3    H2 6736   3.720   2.727   2.432 -0.3694  0.0709  0.1748
 2258TIP3   OH2 6737   4.334   3.755   3.690  0.1314  0.6423  0.0378
 2258TIP3    H1 6738   4.345   3.813   3.614  2.2661 -0.5920 -0.6722
 2258TIP3    H2 6739   4.415   3.704   3.693 -0.9898 -1.1598  1.6251
 2259TIP3   OH2 6740   2.942   4.154   3.380 -0.3216 -0.2795 -0.7661
 2259TIP3    H1 6741   3.013   4.202   3.423  1.9431 -2.4857 -1.7722
 2259TIP3    H2 6742   2.878   4.221   3.358  0.2477  1.4805  2.3980
 2260TIP3   OH2 6743   6.357   1.635   2.953  0.3600 -0.3727 -0.1265
 2260TIP3    H1 6744   6.432   1.606   3.004  0.1073 -1.6432 -0.4436
 2260TIP3    H2 6745   6.283   1.629   3.013  0.1203 -1.5362 -0.5066
 2261TIP3   OH2 6746   2.510   1.002   2.670 -0.0446  0.5064  0.2370
 2261TIP3    H1 6747   2.423   1.042   2.660  0.3799  1.2797 -0.5091
 2261TIP3    H2 6748   2.555   1.023   2.588  0.3241 -1.2387 -0.0459
 2262TIP3   OH2 6749   3.640   5.592   2.185  0.3235  0.2421 -0.4167
 2262TIP3    H1 6750   3.650   5.559   2.096 -1.4562  1.3297 -1.0660
 2262TIP3    H2 6751   3.573   5.535   2.224 -1.9549  2.2319 -1.1867
 2263TIP3   OH2 6752   0.456   6.149   5.727  0.1830 -0.2445 -0.1959
 2263TIP3    H1 6753   0.478   6.099   5.649  1.0071  0.2006 -0.2631
 2263TIP3    H2 6754   0.522   6.219   5.730 -0.5221  0.4144  0.2742
 2264TIP3   OH2 6755   4.758   4.315   4.056 -0.1838 -0.2812 -0.2056
 2264TIP3    H1 6756   4.808   4.393   4.079 -0.3939 -0.2919  0.3032
 2264TIP3    H2 6757   4.790   4.290   3.969  0.3464 -0.0108 -0.0866
 2265TIP3   OH2 6758   2.701   3.773   5.270 -0.2130  0.3841 -0.2899
 2265TIP3    H1 6759   2.643   3.825   5.214  1.7647  2.0069 -0.9877
 2265TIP3    H2 6760   2.697   3.817   5.356 -1.1050 -0.3924  0.0742
 2266TIP3   OH2 6761   2.383   5.596   3.380 -0.0145  0.4788  0.4968
 2266TIP3    H1 6762   2.348   5.683   3.400 -1.8743 -0.1868  0.2688
 2266TIP3    H2 6763   2.375   5.588   3.285 -0.3402 -0.1448  0.5758
 2267TIP3   OH2 6764   1.821   3.207   0.722 -0.8131 -0.4524 -0.0686
 2267TIP3    H1 6765   1.905   3.249   0.699 -1.5783 -0.1491 -2.6498
 2267TIP3    H2 6766   1.781   3.267   0.784  0.7199 -0.4330  0.9666
 2268TIP3   OH2 6767   3.329   2.090   3.977  0.1651  0.3212 -0.5961
 2268TIP3    H1 6768   3.421   2.098   4.001 -0.0731  1.9924 -0.1315
 2268TIP3    H2 6769   3.282   2.139   4.045 -0.9155  1.1398 -1.8868
 2269TIP3   OH2 6770   3.112   6.261   3.161  0.2261  0.6627  0.4948
 2269TIP3    H1 6771   3.054   6.204   3.213 -0.2841  0.2655 -0.4852
 2269TIP3    H2 6772   3.053   6.314   3.108  0.7331  1.3735  0.6279
 2270TIP3   OH2 6773   4.446   2.866   2.437 -0.3368 -0.1405 -0.4889
 2270TIP3    H1 6774   4.364   2.833   2.401  0.2943 -0.8171 -1.3236
 2270TIP3    H2 6775   4.507   2.793   2.431  0.3268  0.3374  0.1757
 2271TIP3   OH2 6776   2.871   5.004   3.414  0.1647  0.0757  0.7235
 2271TIP3    H1 6777   2.892   4.965   3.499  0.2412 -0.7921  0.3220
 2271TIP3    H2 6778   2.778   5.024   3.419  0.1313 -0.1268  0.9524
 2272TIP3   OH2 6779   3.717   4.277   5.631 -0.4230 -0.0252  0.3833
 2272TIP3    H1 6780   3.785   4.343   5.616 -1.5891  0.8555 -1.4884
 2272TIP3    H2 6781   3.733   4.246   5.720  3.2651 -0.9131 -0.3986
 2273TIP3   OH2 6782   1.847   6.691   3.986  0.1216 -0.3219 -0.1003
 2273TIP3    H1 6783   1.795   6.767   4.013 -0.6964 -0.5073 -1.0866
 2273TIP3    H2 6784   1.818   6.621   4.044 -0.9975 -0.5043 -0.8462
 2274TIP3   OH2 6785   1.706   3.259   5.033  0.0326  0.0015  0.2393
 2274TIP3    H1 6786   1.633   3.313   5.063  0.5960 -0.3830  2.4587
 2274TIP3    H2 6787   1.679   3.169   5.052  0.6661 -0.2246  0.0989
 2275TIP3   OH2 6788   6.642   1.616   0.896 -0.6401  0.1200 -0.6064
 2275TIP3    H1 6789   6.688   1.536   0.873 -0.4163  0.6985 -2.3072
 2275TIP3    H2 6790   6.707   1.671   0.940 -0.5175 -0.2134 -0.3711
 2276TIP3   OH2 6791   1.787   2.400   0.904  0.0882 -0.0784 -0.3394
 2276TIP3    H1 6792   1.756   2.454   0.976  0.1492 -0.3066 -0.1403
 2276TIP3    H2 6793   1.748   2.439   0.826  1.1193  0.9904 -0.3449
 2277TIP3   OH2 6794   7.026   1.424   3.407 -0.1374 -0.9734 -0.2558
 2277TIP3    H1 6795   6.980   1.419   3.323 -0.7709 -2.7917  0.1570
 2277TIP3    H2 6796   6.955   1.431   3.471  0.2841 -1.0675  0.2200
 2278TIP3   OH2 6797   0.329   0.882   3.043  0.2366 -0.4483 -0.1225
 2278TIP3    H1 6798   0.312   0.797   3.083  1.5204 -0.5311  0.3120
 2278TIP3    H2 6799   0.305   0.946   3.110  1.3786 -0.5550  0.4089
 2279TIP3   OH2 6800   1.956   5.626   0.039  0.3510 -0.0576  0.1347
 2279TIP3    H1 6801   1.930   5.562   0.105  0.2013  2.3074  2.5280
 2279TIP3    H2 6802   1.882   5.631  -0.021  0.5458 -2.3576 -0.4002
 2280TIP3   OH2 6803   1.662   4.322   0.815  0.3744  0.1649  0.1034
 2280TIP3    H1 6804   1.676   4.398   0.871  0.0950 -0.3477  0.8975
 2280TIP3    H2 6805   1.748   4.282   0.806  0.3691  0.0870  0.4057
 2281TIP3   OH2 6806   5.499   4.822   0.091  0.7885  0.4272  0.1412
 2281TIP3    H1 6807   5.470   4.788   0.175  0.1676 -0.6096 -0.4824
 2281TIP3    H2 6808   5.578   4.771   0.071  0.3280 -0.0795 -0.4025
 2282TIP3   OH2 6809   3.805   0.559   4.440 -0.4579  0.2640 -0.5576
 2282TIP3    H1 6810   3.747   0.634   4.454 -0.2052  0.4583 -0.5431
 2282TIP3    H2 6811   3.881   0.595   4.396  0.3304  0.2891  0.7694
 2283TIP3   OH2 6812   2.279   4.867   1.148 -0.3585 -0.2425 -0.5490
 2283TIP3    H1 6813   2.189   4.874   1.180  0.1565 -1.5612  1.4023
 2283TIP3    H2 6814   2.312   4.956   1.150 -0.7550 -0.0915  1.6180
 2284TIP3   OH2 6815   6.245   3.170   1.521 -0.5541 -0.1650 -0.2256
 2284TIP3    H1 6816   6.319   3.183   1.462  1.1618 -2.6966  1.1660
 2284TIP3    H2 6817   6.250   3.243   1.582  1.4147 -0.7110  0.3493
 2285TIP3   OH2 6818   2.384   2.385   0.635 -0.1791  0.3019  0.0701
 2285TIP3    H1 6819   2.374   2.479   0.618  1.8732  0.3227 -1.4995
 2285TIP3    H2 6820   2.359   2.375   0.727  2.0868  2.9038  1.1358
 2286TIP3   OH2 6821   5.909   1.314   3.779 -0.0301  0.5453 -0.4615
 2286TIP3    H1 6822   5.899   1.296   3.686  2.0826  1.1096 -0.8408
 2286TIP3    H2 6823   5.962   1.393   3.783 -0.9804  1.1610  1.2351
 2287TIP3   OH2 6824   5.239   0.555   2.611 -0.2861  0.2566  0.1913
 2287TIP3    H1 6825   5.276   0.506   2.685 -0.3976 -0.3717 -0.1607
 2287TIP3    H2 6826   5.147   0.529   2.610  0.0020 -0.7992 -0.9911
 2288TIP3   OH2 6827   1.587   3.212   5.758  0.6399 -0.2277  0.0258
 2288TIP3    H1 6828   1.492   3.206   5.758  0.6880 -1.2288  0.3865
 2288TIP3    H2 6829   1.606   3.304   5.740 -0.3519 -0.5888 -3.8249
 2289TIP3   OH2 6830   3.798   4.313   5.240 -0.1052 -0.1609 -0.3023
 2289TIP3    H1 6831   3.714   4.359   5.250  0.6305  0.7955  2.2931
 2289TIP3    H2 6832   3.775   4.220   5.245 -1.2716 -0.0589 -2.5376
 2290TIP3   OH2 6833   6.593   0.399   5.169 -0.1747  0.3197  0.0039
 2290TIP3    H1 6834   6.612   0.363   5.256 -1.1732  0.1832  0.1731
 2290TIP3    H2 6835   6.663   0.462   5.154 -0.6929  1.3062  1.4628
 2291TIP3   OH2 6836   2.328   5.846   2.281 -0.3266  0.1110 -0.4969
 2291TIP3    H1 6837   2.240   5.849   2.242  0.3329  0.4660 -2.0507
 2291TIP3    H2 6838   2.385   5.825   2.207  0.9338  0.2138  0.4282
 2292TIP3   OH2 6839   2.355   0.729   3.737 -0.0163 -0.2188 -0.7446
 2292TIP3    H1 6840   2.319   0.671   3.804 -0.0897 -1.3661 -1.7347
 2292TIP3    H2 6841   2.425   0.777   3.781  0.0638 -1.0795  0.0957
 2293TIP3   OH2 6842   1.120   0.435   0.400 -0.5175  0.0010 -0.1229
 2293TIP3    H1 6843   1.030   0.443   0.432 -0.5404 -1.8735  0.4127
 2293TIP3    H2 6844   1.166   0.387   0.469  0.6565  0.1120 -0.7990
 2294TIP3   OH2 6845   6.464   6.144   2.890  0.3398  0.2552 -0.2467
 2294TIP3    H1 6846   6.446   6.189   2.973  0.3875 -2.1088  1.1388
 2294TIP3    H2 6847   6.550   6.103   2.902 -0.0129 -0.8079 -1.1293
 2295TIP3   OH2 6848   4.216   6.366   4.460 -0.1914 -0.2624 -0.1696
 2295TIP3    H1 6849   4.252   6.400   4.542  0.5271 -0.4280 -0.4112
 2295TIP3    H2 6850   4.177   6.282   4.485 -1.0761  0.2533  0.2321
 2296TIP3   OH2 6851   6.082   2.728   2.107  0.0094  0.2511 -0.8017
 2296TIP3    H1 6852   6.173   2.756   2.097  0.1910 -0.5437 -1.4273
 2296TIP3    H2 6853   6.036   2.769   2.034 -0.3361  1.4127  0.0340
 2297TIP3   OH2 6854   0.454   3.016   4.669 -0.5487  0.5099 -0.2377
 2297TIP3    H1 6855   0.473   3.099   4.626 -0.0570  2.0718  2.6831
 2297TIP3    H2 6856   0.538   2.971   4.672 -1.1817 -1.1763 -3.6309
 2298TIP3   OH2 6857   5.177   1.693   2.500  0.1624  0.4002  0.4106
 2298TIP3    H1 6858   5.121   1.623   2.467  2.1271 -0.1308 -2.1617
 2298TIP3    H2 6859   5.171   1.761   2.432  1.7070  0.7953  0.6496
 2299TIP3   OH2 6860   4.723   2.250   4.914  0.1274 -0.3596 -0.0231
 2299TIP3    H1 6861   4.715   2.298   4.832  0.9652 -0.7986 -0.3828
 2299TIP3    H2 6862   4.781   2.304   4.968  0.5823 -0.6621 -0.2001
 2300TIP3   OH2 6863   5.348   5.599   2.999  0.2210  0.3937  0.0757
 2300TIP3    H1 6864   5.337   5.536   3.069  0.1901 -0.3136 -0.5486
 2300TIP3    H2 6865   5.259   5.624   2.974  0.2111  0.0772 -0.2094
 2301TIP3   OH2 6866   5.679   5.155   5.814 -0.2059  0.1418  0.1786
 2301TIP3    H1 6867   5.766   5.147   5.854 -0.4571  1.4153  1.0107
 2301TIP3    H2 6868   5.664   5.249   5.809 -0.7158  0.0015 -1.7921
 2302TIP3   OH2 6869   2.481   3.752   1.681 -0.0320  0.0182 -0.1136
 2302TIP3    H1 6870   2.415   3.815   1.712 -0.0483 -0.5761  1.1320
 2302TIP3    H2 6871   2.561   3.803   1.675 -0.4025  0.5422 -0.7789
 2303TIP3   OH2 6872   2.781   6.031   4.495  0.2673 -0.0331 -0.2980
 2303TIP3    H1 6873   2.813   5.976   4.566  1.1376  0.1693 -0.5229
 2303TIP3    H2 6874   2.805   5.984   4.415  0.1037  0.1750 -0.4693
 2304TIP3   OH2 6875   5.508   0.233   3.811  0.5746  0.3726 -0.1603
 2304TIP3    H1 6876   5.451   0.166   3.774  1.0181 -0.1658  0.1247
 2304TIP3    H2 6877   5.525   0.204   3.900 -0.8228  1.8618  0.6544
 2305TIP3   OH2 6878   0.742   2.233   2.109  0.1115 -0.2521 -0.9236
 2305TIP3    H1 6879   0.755   2.288   2.032 -2.7298  1.3411 -0.3862
 2305TIP3    H2 6880   0.737   2.295   2.183  0.3186 -1.5233  0.1979
 2306TIP3   OH2 6881   4.183   1.266   0.577  0.5500 -0.0772  0.0881
 2306TIP3    H1 6882   4.217   1.327   0.511  0.8622 -0.5180 -0.1615
 2306TIP3    H2 6883   4.221   1.182   0.554 -0.7361 -0.5930 -0.2225
 2307TIP3   OH2 6884   0.211   5.128   1.732 -0.7864  0.3462 -0.1116
 2307TIP3    H1 6885   0.231   5.214   1.693  0.3823 -0.5046 -1.5026
 2307TIP3    H2 6886   0.160   5.084   1.665 -0.1547 -0.5580 -0.0093
 2308TIP3   OH2 6887   4.996   6.519   5.085  0.4794 -0.2701 -0.1693
 2308TIP3    H1 6888   5.038   6.506   5.170 -0.0653 -0.4793  0.0701
 2308TIP3    H2 6889   5.062   6.491   5.021  0.8218 -0.2877  0.1892
 2309TIP3   OH2 6890   4.974   3.200   2.979 -0.6439 -0.4534 -0.1678
 2309TIP3    H1 6891   4.938   3.254   2.909  1.3386 -0.6388 -1.3872
 2309TIP3    H2 6892   4.991   3.115   2.938  0.3708 -0.6379  0.5933
 2310TIP3   OH2 6893   5.497   5.703   5.409 -0.0538  0.0256 -0.2049
 2310TIP3    H1 6894   5.518   5.611   5.422  1.0152  0.4943  1.6911
 2310TIP3    H2 6895   5.413   5.702   5.363 -0.3053 -1.8832  0.2272
 2311TIP3   OH2 6896   3.825   0.643   2.889 -0.1889 -0.6582 -0.3428
 2311TIP3    H1 6897   3.799   0.613   2.802  0.0233  0.0556 -0.6604
 2311TIP3    H2 6898   3.776   0.724   2.901 -0.2176 -0.7545  0.2117
 2312TIP3   OH2 6899   7.188   1.785   5.862  0.0409  0.4247 -0.3973
 2312TIP3    H1 6900   7.127   1.738   5.805  0.0791 -1.9648  1.3934
 2312TIP3    H2 6901   7.143   1.868   5.882 -2.2782 -0.8706  0.1401
 2313TIP3   OH2 6902   0.928   1.507   3.468  0.4152 -0.1124 -0.3014
 2313TIP3    H1 6903   1.018   1.526   3.494  0.4788 -1.0943  0.2396
 2313TIP3    H2 6904   0.937   1.455   3.387  0.3848 -0.9646  0.2261
 2314TIP3   OH2 6905   7.151   2.315   1.971 -0.3525  0.2241  0.3226
 2314TIP3    H1 6906   7.111   2.234   1.940 -1.7472  0.9391  0.1868
 2314TIP3    H2 6907   7.141   2.377   1.899  3.1571 -0.1523 -0.6902
 2315TIP3   OH2 6908   2.400   3.287   5.297  0.0302 -0.6289  0.0938
 2315TIP3    H1 6909   2.457   3.364   5.299  1.1633 -1.4375 -0.1982
 2315TIP3    H2 6910   2.344   3.296   5.374 -1.9452  2.0155 -1.5017
 2316TIP3   OH2 6911   0.184   3.359   5.753 -0.2356 -0.1745 -0.2584
 2316TIP3    H1 6912   0.181   3.383   5.846 -0.1356  0.9445 -0.5266
 2316TIP3    H2 6913   0.092   3.359   5.726 -0.3617 -1.6231  0.0931
 2317TIP3   OH2 6914   3.476   2.453   4.936 -0.4820 -0.7799  0.3960
 2317TIP3    H1 6915   3.434   2.530   4.898 -1.7079 -1.7536 -0.3218
 2317TIP3    H2 6916   3.489   2.394   4.862  3.3967 -0.0885  0.3305
 2318TIP3   OH2 6917   5.205   6.644   4.384 -0.2082  0.5113  0.6372
 2318TIP3    H1 6918   5.248   6.726   4.408 -0.4061  1.2863 -1.4343
 2318TIP3    H2 6919   5.112   6.663   4.388 -0.2604  0.3024  0.4590
 2319TIP3   OH2 6920   5.804   2.776   3.557  0.0468  0.9183 -0.0166
 2319TIP3    H1 6921   5.803   2.704   3.619  0.5254  1.3738  0.5339
 2319TIP3    H2 6922   5.775   2.737   3.474 -0.4521  0.2745  0.4514
 2320TIP3   OH2 6923   2.989   5.997   5.424  0.2043 -0.1244  0.3737
 2320TIP3    H1 6924   3.021   5.921   5.473 -0.1975 -0.2713  0.4124
 2320TIP3    H2 6925   2.905   5.969   5.388 -0.5388  0.6902  1.4060
 2321TIP3   OH2 6926   6.457   0.153   2.050 -0.3606 -0.0463  0.3528
 2321TIP3    H1 6927   6.478   0.246   2.047  1.2202 -0.3353  1.1409
 2321TIP3    H2 6928   6.537   0.110   2.020 -2.3565 -1.1062 -4.3175
 2322TIP3   OH2 6929   0.308   0.569   1.663 -0.1679 -0.4586 -0.0156
 2322TIP3    H1 6930   0.356   0.647   1.636  1.9076 -1.2924  0.9441
 2322TIP3    H2 6931   0.246   0.601   1.729  1.7122  0.2530  1.5182
 2323TIP3   OH2 6932   6.753   5.822   1.232  0.2431  0.0651 -0.3918
 2323TIP3    H1 6933   6.700   5.764   1.177 -1.5613  0.1778  1.1194
 2323TIP3    H2 6934   6.843   5.789   1.222 -0.3246 -1.2188 -1.7190
 2324TIP3   OH2 6935   3.719   0.482   3.949  0.0851 -0.2952 -0.3507
 2324TIP3    H1 6936   3.715   0.443   4.037 -0.4229  1.6409  0.5359
 2324TIP3    H2 6937   3.637   0.454   3.907  0.4143 -1.3836 -0.3137
 2325TIP3   OH2 6938   6.171   1.802   2.243 -0.3818 -0.0824  0.0149
 2325TIP3    H1 6939   6.197   1.878   2.190 -0.5075 -1.6092 -2.3629
 2325TIP3    H2 6940   6.123   1.841   2.316  0.7542  2.2140 -0.3396
 2326TIP3   OH2 6941   2.598   5.728   0.164 -0.2067 -0.0755 -0.0549
 2326TIP3    H1 6942   2.517   5.775   0.143 -0.5317 -0.1634  0.9322
 2326TIP3    H2 6943   2.611   5.745   0.257 -0.0707 -1.5402  0.2097
 2327TIP3   OH2 6944   3.921   1.717   2.834  0.1315  0.0365 -0.1856
 2327TIP3    H1 6945   3.905   1.650   2.900 -1.1785 -0.7497 -1.2430
 2327TIP3    H2 6946   3.919   1.670   2.751  1.3165  1.0647 -0.8349
 2328TIP3   OH2 6947   3.954   1.944   5.780 -0.4303 -0.2404  0.0186
 2328TIP3    H1 6948   3.865   1.954   5.745 -0.7144  0.5701  0.9299
 2328TIP3    H2 6949   3.947   1.875   5.845 -1.2851  2.2656  2.7999
 2329TIP3   OH2 6950   5.659   6.085   1.031 -0.6346  0.1238 -0.5631
 2329TIP3    H1 6951   5.638   6.134   0.951 -2.0500  1.0395  0.3200
 2329TIP3    H2 6952   5.715   6.013   1.001 -0.7179  0.7299 -2.2987
 2330TIP3   OH2 6953   1.496   2.259   2.274  0.4242 -0.0467 -0.0324
 2330TIP3    H1 6954   1.487   2.217   2.360  0.7004 -1.2117 -0.5552
 2330TIP3    H2 6955   1.549   2.337   2.291  0.0553  0.0037  0.9352
 2331TIP3   OH2 6956   5.805   2.409   5.744 -0.1104  0.2258  0.0859
 2331TIP3    H1 6957   5.840   2.498   5.737  0.5139 -0.0897 -0.9805
 2331TIP3    H2 6958   5.855   2.358   5.681  0.3436 -1.1619  1.5016
 2332TIP3   OH2 6959   3.002   6.736   5.295 -0.1127  0.1254 -0.2392
 2332TIP3    H1 6960   2.947   6.701   5.225 -0.9552  0.2079  0.3722
 2332TIP3    H2 6961   2.944   6.793   5.345 -0.0018 -1.2271  1.5198
 2333TIP3   OH2 6962   6.661   3.664   4.714 -0.8189 -0.1811 -0.5384
 2333TIP3    H1 6963   6.726   3.627   4.773 -1.2870  0.1956  0.2154
 2333TIP3    H2 6964   6.654   3.599   4.644  0.7698  0.0231 -0.9434
 2334TIP3   OH2 6965   2.506   0.290   2.623 -0.3840 -0.1800  0.1354
 2334TIP3    H1 6966   2.449   0.352   2.669  2.0173  0.8845  1.9170
 2334TIP3    H2 6967   2.547   0.342   2.554  0.0380 -0.3492  0.2561
 2335TIP3   OH2 6968   1.420   1.307   5.674  0.0168 -0.0861 -0.1954
 2335TIP3    H1 6969   1.423   1.212   5.684  0.4023 -0.0769 -0.2000
 2335TIP3    H2 6970   1.327   1.329   5.673 -0.1024 -0.1507  2.7230
 2336TIP3   OH2 6971   1.542   2.732   2.367  0.8066 -0.9750 -0.2562
 2336TIP3    H1 6972   1.615   2.785   2.335  1.0058 -0.7881  0.4820
 2336TIP3    H2 6973   1.564   2.643   2.342 -0.3390 -0.5861 -3.0313
 2337TIP3   OH2 6974   6.837   5.078   4.907 -0.2813  0.0989 -0.1837
 2337TIP3    H1 6975   6.843   5.147   4.840  0.5031  0.3518  0.1393
 2337TIP3    H2 6976   6.906   5.016   4.884  0.0913  0.2616  0.4625
 2338TIP3   OH2 6977   4.353   4.501   0.314 -0.5282 -0.0342  0.1648
 2338TIP3    H1 6978   4.397   4.423   0.280 -0.3656  0.8871 -1.8749
 2338TIP3    H2 6979   4.264   4.496   0.278 -0.8317  0.2104  0.8632
 2339TIP3   OH2 6980   1.219   6.456   0.294 -0.1371  0.0762 -0.0441
 2339TIP3    H1 6981   1.225   6.503   0.211  1.0894 -1.9563 -1.2006
 2339TIP3    H2 6982   1.279   6.503   0.352 -0.5121  1.1477 -0.5098
 2340TIP3   OH2 6983   3.500   5.505   1.326  0.3883 -1.2215  0.2742
 2340TIP3    H1 6984   3.552   5.499   1.246 -0.4194 -0.7827 -0.2999
 2340TIP3    H2 6985   3.411   5.483   1.299 -0.1812  0.3681  0.7136
 2341TIP3   OH2 6986   3.226   5.730   5.400  0.4234 -0.1040 -0.7157
 2341TIP3    H1 6987   3.151   5.719   5.458  0.8345  1.1005  0.0842
 2341TIP3    H2 6988   3.188   5.749   5.314 -0.2089  1.2436 -0.1639
 2342TIP3   OH2 6989   2.519   3.796   0.421 -0.2885 -0.1149 -0.2161
 2342TIP3    H1 6990   2.481   3.714   0.388 -1.0965  0.4006 -0.6047
 2342TIP3    H2 6991   2.447   3.838   0.468  0.3082  0.0746  0.5446
 2343TIP3   OH2 6992   1.762   4.384   3.033 -0.2358 -0.7759 -0.2610
 2343TIP3    H1 6993   1.740   4.293   3.012  0.8086 -1.2973  0.7830
 2343TIP3    H2 6994   1.701   4.408   3.102 -1.0030 -0.4197 -1.0488
 2344TIP3   OH2 6995   7.192   0.887   1.813 -0.2264  0.2590 -0.5761
 2344TIP3    H1 6996   7.106   0.853   1.836 -0.3828  1.4343  0.6308
 2344TIP3    H2 6997   7.214   0.949   1.882  1.1503  0.7409 -1.3936
 2345TIP3   OH2 6998   0.575   3.628   4.815  0.1381 -0.3319 -0.8689
 2345TIP3    H1 6999   0.592   3.704   4.759  0.6897 -0.2024 -0.5224
 2345TIP3    H2 7000   0.479   3.626   4.824  0.1995  1.4945  0.7379
 2346TIP3   OH2 7001   2.602   1.113   3.101  0.0759  0.3470  0.7052
 2346TIP3    H1 7002   2.658   1.084   3.172 -0.0812  0.5110  0.8950
 2346TIP3    H2 7003   2.627   1.204   3.085 -0.8648  0.7592  1.5042
 2347TIP3   OH2 7004   6.271   2.233   2.383 -0.2900  0.0317  0.1108
 2347TIP3    H1 7005   6.268   2.155   2.437 -2.4831 -0.0653 -0.0749
 2347TIP3    H2 7006   6.185   2.274   2.395 -0.7341  0.2181 -2.9295
 2348TIP3   OH2 7007   0.849   0.138   0.135  0.5445 -0.8065  0.4451
 2348TIP3    H1 7008   0.853   0.129   0.039  1.0205  0.8567  0.2695
 2348TIP3    H2 7009   0.921   0.198   0.156 -0.5939  0.2080  1.6324
 2349TIP3   OH2 7010   5.996   3.748   2.674  0.1311  0.2224  0.6010
 2349TIP3    H1 7011   6.023   3.660   2.650  0.3973  0.4206  0.1618
 2349TIP3    H2 7012   5.939   3.776   2.603  1.5529  1.1100 -0.2311
 2350TIP3   OH2 7013   6.928   6.055   5.141  0.0594  0.0865 -0.1610
 2350TIP3    H1 7014   6.851   6.014   5.101  0.1059  0.1771 -0.3457
 2350TIP3    H2 7015   6.893   6.103   5.216  0.0972 -0.8638  0.4775
 2351TIP3   OH2 7016   4.756   2.497   0.455  0.1813  0.6045  0.2941
 2351TIP3    H1 7017   4.819   2.429   0.430 -2.1535 -1.4122 -0.6378
 2351TIP3    H2 7018   4.716   2.523   0.372 -1.5263  0.3929  1.0123
 2352TIP3   OH2 7019   6.035   0.170   3.272  0.9711 -0.5075  0.0812
 2352TIP3    H1 7020   6.059   0.093   3.221  0.3138  0.9944 -2.6363
 2352TIP3    H2 7021   5.939   0.170   3.272  0.9415 -0.6861  1.7378
 2353TIP3   OH2 7022   1.019   1.467   5.100 -0.5466  0.2125 -0.0036
 2353TIP3    H1 7023   0.938   1.487   5.053 -0.7559  0.5364  0.4847
 2353TIP3    H2 7024   0.993   1.466   5.192  0.0405  0.4899  0.1679
 2354TIP3   OH2 7025   1.926   3.092   3.992  0.0604 -0.0040  0.1125
 2354TIP3    H1 7026   1.954   3.016   3.941 -0.3020 -0.0182 -0.0629
 2354TIP3    H2 7027   2.001   3.111   4.048 -0.4546 -1.5597  1.4218
 2355TIP3   OH2 7028   1.881   1.051   0.434  0.3484  0.2892  0.4597
 2355TIP3    H1 7029   1.794   1.091   0.431  0.0150 -0.3891  0.9080
 2355TIP3    H2 7030   1.936   1.118   0.474 -0.0209  0.6228  0.4201
 2356TIP3   OH2 7031   2.404   5.042   0.218  0.2486 -0.1389  0.0061
 2356TIP3    H1 7032   2.413   5.086   0.134  1.7883 -0.2494  0.0907
 2356TIP3    H2 7033   2.422   5.111   0.283 -2.4070  0.3464  0.3783
 2357TIP3   OH2 7034   3.637   4.859   4.085  0.3629 -0.0140 -0.0708
 2357TIP3    H1 7035   3.680   4.937   4.118 -2.1392  1.0168  0.9958
 2357TIP3    H2 7036   3.587   4.889   4.009  1.0279 -1.0737 -0.9791
 2358TIP3   OH2 7037   2.398   5.259   0.386  0.1469  0.7868  0.3097
 2358TIP3    H1 7038   2.477   5.304   0.358 -0.6790  0.6955 -2.4284
 2358TIP3    H2 7039   2.373   5.303   0.468  1.9741  2.0413  0.2397
 2359TIP3   OH2 7040   6.002   2.160   0.875 -0.0793  0.0860 -0.2135
 2359TIP3    H1 7041   6.075   2.137   0.932  0.3011 -0.1180 -0.7765
 2359TIP3    H2 7042   6.042   2.182   0.791 -0.5005  1.9434  0.0361
 2360TIP3   OH2 7043   6.480   6.465   2.250  0.1998  0.0294  0.0002
 2360TIP3    H1 7044   6.435   6.507   2.177  0.7859 -1.7893 -1.4943
 2360TIP3    H2 7045   6.561   6.515   2.262  0.5983 -0.2738 -1.3243
 2361TIP3   OH2 7046   1.540   4.551   2.895 -0.6267 -0.0228  0.4765
 2361TIP3    H1 7047   1.607   4.497   2.855 -0.4859 -0.3926  1.2028
 2361TIP3    H2 7048   1.476   4.489   2.931  0.1832  0.2017  2.4514
 2362TIP3   OH2 7049   4.327   3.788   0.735  0.7640  0.1079  0.3216
 2362TIP3    H1 7050   4.296   3.839   0.660 -0.2233 -0.0420  0.6235
 2362TIP3    H2 7051   4.388   3.847   0.780 -0.2054  0.9526  0.5503
 2363TIP3   OH2 7052   0.915   5.541   4.344  0.2868  0.0106 -0.1008
 2363TIP3    H1 7053   0.842   5.566   4.401  0.9070  1.7338 -0.0111
 2363TIP3    H2 7054   0.989   5.593   4.375  0.7419  0.7295 -2.2181
 2364TIP3   OH2 7055   4.838   3.683   2.036 -0.2144  0.1453  0.1321
 2364TIP3    H1 7056   4.894   3.747   1.993  0.3682 -0.2666  0.2641
 2364TIP3    H2 7057   4.774   3.736   2.084 -1.5327  0.6109 -2.0221
 2365TIP3   OH2 7058   5.949   3.689   0.660  0.2425  0.4646 -0.1794
 2365TIP3    H1 7059   5.855   3.686   0.675 -0.0214  1.3122 -1.4945
 2365TIP3    H2 7060   5.988   3.655   0.741 -1.1725  0.4920  0.5315
 2366TIP3   OH2 7061   2.713   4.701   1.697  0.2552 -0.0163  0.4776
 2366TIP3    H1 7062   2.619   4.691   1.714  0.2662 -0.4946  0.2610
 2366TIP3    H2 7063   2.724   4.677   1.605  0.3597  1.5424  0.0450
 2367TIP3   OH2 7064   1.445   2.737   1.018  0.0714  0.2609 -0.1765
 2367TIP3    H1 7065   1.370   2.742   1.076 -0.1776  1.8052 -0.5903
 2367TIP3    H2 7066   1.426   2.663   0.960 -0.5863 -0.0627  0.4414
 2368TIP3   OH2 7067   5.859   4.825   1.636  0.1449  0.1821 -0.3406
 2368TIP3    H1 7068   5.902   4.907   1.610 -0.3327 -0.0967 -2.1211
 2368TIP3    H2 7069   5.864   4.770   1.558  0.1845 -1.3867  0.7367
 2369TIP3   OH2 7070   6.972   0.797   4.036 -0.0352  0.4312  0.3356
 2369TIP3    H1 7071   6.981   0.708   4.072 -0.1324  1.0613  2.0099
 2369TIP3    H2 7072   6.880   0.819   4.050 -0.2065  0.5100 -0.8312
 2370TIP3   OH2 7073   0.616   3.243   5.413 -0.1275  0.9547  0.2485
 2370TIP3    H1 7074   0.627   3.203   5.327  2.0266  1.4783  0.2260
 2370TIP3    H2 7075   0.661   3.183   5.473 -0.2870  1.3689  0.7889
 2371TIP3   OH2 7076   2.179   0.471   1.144  0.2360  0.5142 -0.4290
 2371TIP3    H1 7077   2.242   0.540   1.126  0.4360  0.5658  0.4474
 2371TIP3    H2 7078   2.107   0.488   1.083  1.0483  0.4671 -1.4179
 2372TIP3   OH2 7079   0.195   5.929   0.944 -0.3464  0.1173  0.1900
 2372TIP3    H1 7080   0.178   5.878   0.865  0.1127  1.0265 -0.5261
 2372TIP3    H2 7081   0.166   6.018   0.921 -0.4361  0.3380  1.1292
 2373TIP3   OH2 7082   4.828   4.284   0.556 -0.2107  0.3385  0.7428
 2373TIP3    H1 7083   4.740   4.251   0.539  0.6857 -2.9226  1.7343
 2373TIP3    H2 7084   4.814   4.371   0.593 -3.0138  0.0013  0.7049
 2374TIP3   OH2 7085   4.931   1.303   5.624 -0.8046 -0.7753  0.5166
 2374TIP3    H1 7086   4.855   1.259   5.586 -0.5700 -1.4659  0.8300
 2374TIP3    H2 7087   4.924   1.286   5.718 -0.0679 -1.1797  0.5101
 2375TIP3   OH2 7088   5.471   0.123   1.957 -0.3815  0.0058  0.2762
 2375TIP3    H1 7089   5.384   0.152   1.985  0.2927  1.5387  0.8579
 2375TIP3    H2 7090   5.513   0.202   1.924  0.9481 -0.6350  0.3969
 2376TIP3   OH2 7091   6.862   2.109   4.503 -0.2952 -0.1202 -0.1071
 2376TIP3    H1 7092   6.950   2.090   4.471 -0.3589  0.1790 -0.4667
 2376TIP3    H2 7093   6.825   2.024   4.526  1.0193 -0.0806  2.5352
 2377TIP3   OH2 7094   5.652   3.599   0.772 -0.4844 -0.3578 -0.2250
 2377TIP3    H1 7095   5.589   3.555   0.830 -0.3166 -0.8638 -0.4210
 2377TIP3    H2 7096   5.683   3.673   0.823 -2.1548  0.6476 -0.5721
 2378TIP3   OH2 7097   4.620   5.539   4.955 -0.1183  0.1588 -0.1563
 2378TIP3    H1 7098   4.662   5.467   4.909  2.0710 -0.1209  2.0644
 2378TIP3    H2 7099   4.692   5.596   4.981 -1.6785  2.6269 -0.8387
 2379TIP3   OH2 7100   4.159   0.267   3.084  1.3529  0.0865 -0.1116
 2379TIP3    H1 7101   4.107   0.228   3.013  1.3929 -0.8143  0.3386
 2379TIP3    H2 7102   4.161   0.200   3.152 -0.9010  1.8554  1.8954
 2380TIP3   OH2 7103   4.521   4.914   4.679  0.4910  0.1846  0.3298
 2380TIP3    H1 7104   4.534   4.955   4.594  2.2087 -1.0628 -0.0566
 2380TIP3    H2 7105   4.506   4.988   4.739 -1.5651  1.0194 -1.1436
 2381TIP3   OH2 7106   0.232   4.574   0.470  0.3259 -0.3576  0.0644
 2381TIP3    H1 7107   0.273   4.554   0.554 -0.5841  1.2954  0.9534
 2381TIP3    H2 7108   0.138   4.572   0.488  0.0684 -1.2518 -1.2406
 2382TIP3   OH2 7109   5.750   1.058   1.617  0.3898 -0.0750 -0.0812
 2382TIP3    H1 7110   5.695   1.133   1.638 -0.4920 -0.3144 -1.4003
 2382TIP3    H2 7111   5.775   1.021   1.702  0.0008  1.0944  0.5633
 2383TIP3   OH2 7112   3.235   5.879   4.817  0.2474 -0.1826 -0.1623
 2383TIP3    H1 7113   3.327   5.873   4.841 -0.2016  1.0999  2.2281
 2383TIP3    H2 7114   3.234   5.921   4.732  1.8648 -0.4260 -0.3163
 2384TIP3   OH2 7115   6.622   3.519   0.127 -0.0226  0.7412 -0.4138
 2384TIP3    H1 7116   6.673   3.492   0.203  1.3002  0.6407 -1.3074
 2384TIP3    H2 7117   6.683   3.569   0.074 -0.6515  0.0334 -1.8614
 2385TIP3   OH2 7118   0.445   5.683   4.027  0.1772 -0.1636  0.5433
 2385TIP3    H1 7119   0.354   5.702   4.052 -0.2434 -0.1616 -0.9217
 2385TIP3    H2 7120   0.465   5.748   3.960  1.3348 -0.0586  0.9737
 2386TIP3   OH2 7121   6.419   3.118   2.359  0.3461 -0.7630  0.1881
 2386TIP3    H1 7122   6.383   3.113   2.271  1.5991 -0.3085 -0.3655
 2386TIP3    H2 7123   6.496   3.174   2.351  0.9247 -1.3373  1.4187
 2387TIP3   OH2 7124  -0.001   2.855   2.859  0.4214  0.0970 -0.5228
 2387TIP3    H1 7125   0.001   2.915   2.784  0.9823  0.2372 -0.4016
 2387TIP3    H2 7126   0.091   2.838   2.878  0.2987 -1.7920 -1.3548
 2388TIP3   OH2 7127   6.582   0.842   2.208 -0.2196 -0.0596 -0.1307
 2388TIP3    H1 7128   6.591   0.931   2.243  1.6929 -0.3495  0.2176
 2388TIP3    H2 7129   6.671   0.811   2.198 -0.7927 -1.1686 -2.3554
 2389TIP3   OH2 7130   6.425   3.507   0.994 -0.0317 -0.0248  0.1504
 2389TIP3    H1 7131   6.433   3.483   1.086  0.6944 -1.7151 -0.3213
 2389TIP3    H2 7132   6.448   3.600   0.991 -0.4938  0.1632  1.7193
 2390TIP3   OH2 7133   4.478   5.138   0.619  0.3222 -0.2182 -0.0017
 2390TIP3    H1 7134   4.446   5.198   0.685 -1.3837 -3.0437  1.9174
 2390TIP3    H2 7135   4.421   5.151   0.544  0.1080  0.6569  0.3101
 2391TIP3   OH2 7136   6.782   5.438   1.959 -0.3140 -0.5155 -0.7018
 2391TIP3    H1 7137   6.719   5.506   1.935 -0.4578 -0.4040 -0.0382
 2391TIP3    H2 7138   6.744   5.398   2.038 -0.7227 -2.0004 -1.6067
 2392TIP3   OH2 7139   5.278   4.206   3.058 -0.3230 -0.7059  0.2351
 2392TIP3    H1 7140   5.217   4.170   3.122 -0.8856 -1.3292 -0.6288
 2392TIP3    H2 7141   5.364   4.174   3.085 -0.4583 -0.4000  1.0554
 2393TIP3   OH2 7142   2.163   4.033   5.176 -0.1910  0.0984  0.2103
 2393TIP3    H1 7143   2.255   4.009   5.160  0.2921 -0.0734  2.8286
 2393TIP3    H2 7144   2.114   3.952   5.162  0.1777 -0.0612 -0.1973
 2394TIP3   OH2 7145   6.002   2.057   1.301 -0.2337  0.2788  0.4424
 2394TIP3    H1 7146   6.023   2.034   1.210  0.8167 -0.0301  0.7457
 2394TIP3    H2 7147   6.073   2.116   1.327 -0.7244  0.6492  0.9556
 2395TIP3   OH2 7148   4.508   2.154   0.236 -0.4814  0.5186 -0.5031
 2395TIP3    H1 7149   4.600   2.128   0.243 -0.6368 -0.9929 -2.8599
 2395TIP3    H2 7150   4.510   2.245   0.207  0.2402  0.7358  0.2066
 2396TIP3   OH2 7151   3.609   1.854   3.667 -0.6085 -0.3992 -0.0245
 2396TIP3    H1 7152   3.680   1.869   3.605  1.7350 -1.2226  2.2826
 2396TIP3    H2 7153   3.591   1.760   3.660  0.2071 -0.6457  1.0469
 2397TIP3   OH2 7154   6.078   6.529   4.079  0.0816  0.3683 -0.7055
 2397TIP3    H1 7155   6.100   6.594   4.146  2.3391  1.8073 -2.6928
 2397TIP3    H2 7156   5.984   6.542   4.064 -0.2444  0.7515  1.3579
 2398TIP3   OH2 7157   6.956   0.966   4.485 -0.0896 -0.0311  1.1054
 2398TIP3    H1 7158   6.987   1.014   4.562 -1.4794  2.0711  0.4424
 2398TIP3    H2 7159   7.036   0.951   4.434  0.5240  0.8262  1.7666
 2399TIP3   OH2 7160   4.095   0.306   1.681 -0.5256  0.5934 -0.2101
 2399TIP3    H1 7161   4.097   0.214   1.706 -0.3695  0.4898 -0.5913
 2399TIP3    H2 7162   4.131   0.308   1.592 -2.2532  0.7823 -0.9311
 2400TIP3   OH2 7163   0.261   6.584   3.053  0.1363  0.0198 -0.1274
 2400TIP3    H1 7164   0.284   6.511   3.111 -0.4315 -0.6841 -0.7559
 2400TIP3    H2 7165   0.277   6.550   2.965 -0.1524  0.6507 -0.4272
 2401TIP3   OH2 7166   3.971   1.939   4.532 -0.2244  0.5222 -0.7107
 2401TIP3    H1 7167   3.923   1.931   4.450 -0.2091  1.9980 -0.8912
 2401TIP3    H2 7168   3.923   2.005   4.581  1.2772  1.6444 -0.6719
 2402TIP3   OH2 7169   3.995   5.921   5.188 -0.1924 -0.2339  0.3251
 2402TIP3    H1 7170   4.037   5.836   5.199 -0.4896 -0.6056 -1.1783
 2402TIP3    H2 7171   3.904   5.906   5.212 -0.2836 -0.3836 -0.1173
 2403TIP3   OH2 7172   6.325   6.006   1.054  0.0880 -0.1367 -0.2873
 2403TIP3    H1 7173   6.364   5.934   1.003 -1.6621 -0.1940 -1.6376
 2403TIP3    H2 7174   6.349   6.084   1.004  2.2947  0.3549  1.3686
 2404TIP3   OH2 7175   3.840   2.861   3.740 -0.0210 -0.0676 -0.3318
 2404TIP3    H1 7176   3.841   2.870   3.835 -0.3528 -0.7203 -0.2618
 2404TIP3    H2 7177   3.907   2.923   3.709 -0.2062  0.4579  0.2940
 2405TIP3   OH2 7178   1.916   3.116   4.350 -0.0564 -0.0096  0.4329
 2405TIP3    H1 7179   1.858   3.045   4.323  1.1254 -1.8112  2.3299
 2405TIP3    H2 7180   1.858   3.184   4.384 -1.1503 -0.5589 -0.3099
 2406TIP3   OH2 7181   6.099   3.868   4.102  0.4013  0.0586 -0.3266
 2406TIP3    H1 7182   6.143   3.830   4.178  3.1708 -0.1857 -1.9355
 2406TIP3    H2 7183   6.048   3.796   4.065  1.9278 -0.8520 -0.7264
 2407TIP3   OH2 7184   0.945   5.527   2.624 -0.2901 -0.0490  0.2094
 2407TIP3    H1 7185   1.030   5.559   2.655 -0.1406  0.2832 -0.5211
 2407TIP3    H2 7186   0.953   5.431   2.627 -0.1271 -0.0237  0.7548
 2408TIP3   OH2 7187   0.310   4.921   5.362 -0.0697  0.3696  0.3821
 2408TIP3    H1 7188   0.326   4.833   5.328  1.8477  0.1043  1.8203
 2408TIP3    H2 7189   0.367   4.978   5.311 -3.0116  1.2685 -2.1996
 2409TIP3   OH2 7190   0.910   2.558   1.691 -0.3393  0.6948  0.1940
 2409TIP3    H1 7191   0.837   2.496   1.689  0.1334  0.1246 -1.4398
 2409TIP3    H2 7192   0.905   2.604   1.607  2.0522 -0.4787 -0.6892
 2410TIP3   OH2 7193   0.151   4.927   3.291 -0.1253  0.1084 -0.0297
 2410TIP3    H1 7194   0.183   4.999   3.345  0.5508  0.4702 -0.8704
 2410TIP3    H2 7195   0.063   4.953   3.265  0.1159  0.6475 -0.3292
 2411TIP3   OH2 7196   0.567   1.764   3.816 -0.0646  0.0268 -0.1215
 2411TIP3    H1 7197   0.598   1.722   3.736  0.8681  0.1002  0.1826
 2411TIP3    H2 7198   0.509   1.834   3.787  3.0721  2.5099 -1.0118
 2412TIP3   OH2 7199   0.636   3.177   3.939 -0.0775 -0.0605 -0.0904
 2412TIP3    H1 7200   0.694   3.103   3.955  0.6193  0.5760  0.3833
 2412TIP3    H2 7201   0.665   3.212   3.855 -0.6494 -0.5309 -0.4979
 2413TIP3   OH2 7202   5.552   0.570   2.065  0.6538  0.1730 -0.6882
 2413TIP3    H1 7203   5.615   0.498   2.068  0.5881  0.0368 -2.0418
 2413TIP3    H2 7204   5.606   0.649   2.056  0.7300  0.3409  0.8750
 2414TIP3   OH2 7205   2.653   4.356   1.479  0.0426 -0.0645  0.4137
 2414TIP3    H1 7206   2.715   4.293   1.517  0.8538  0.0207 -0.7057
 2414TIP3    H2 7207   2.709   4.420   1.435 -0.8374  0.0221 -0.6166
 2415TIP3   OH2 7208   1.892   4.809   0.493  0.4458 -0.4943 -0.5175
 2415TIP3    H1 7209   1.956   4.777   0.557 -0.8598 -2.8771 -0.2644
 2415TIP3    H2 7210   1.808   4.772   0.523 -0.9996  2.0272 -1.1612
 2416TIP3   OH2 7211   0.065   6.519   0.226 -0.2353 -0.5241 -0.5841
 2416TIP3    H1 7212   0.100   6.522   0.137 -0.3834 -0.1074 -0.6311
 2416TIP3    H2 7213   0.091   6.602   0.265 -0.6964 -0.4427 -0.4410
 2417TIP3   OH2 7214   2.578   5.515   2.152 -0.1893  0.9494  0.2062
 2417TIP3    H1 7215   2.504   5.475   2.198 -1.0875  2.9499  0.6074
 2417TIP3    H2 7216   2.620   5.442   2.106 -0.3805 -0.8313  2.6371
 2418TIP3   OH2 7217   4.698   6.571   4.610  0.1657 -0.2125  0.1957
 2418TIP3    H1 7218   4.652   6.581   4.527 -1.7996 -1.6994  1.0409
 2418TIP3    H2 7219   4.745   6.488   4.602  0.3685 -0.1173  0.3872
 2419TIP3   OH2 7220   5.821   0.249   4.087  0.0709  0.1997  0.1067
 2419TIP3    H1 7221   5.827   0.299   4.006  0.8108 -0.1530 -0.0630
 2419TIP3    H2 7222   5.735   0.207   4.083  0.9628 -1.6123 -1.5749
 2420TIP3   OH2 7223   2.708   4.293   4.242 -0.7522 -0.0088  0.3067
 2420TIP3    H1 7224   2.663   4.296   4.157  2.9082  0.2706 -1.8383
 2420TIP3    H2 7225   2.733   4.384   4.258 -0.4505 -0.2353  1.1283
 2421TIP3   OH2 7226   3.854   4.739   4.544 -0.2442  0.7782 -0.0407
 2421TIP3    H1 7227   3.911   4.710   4.473 -0.1150  0.6814  0.1055
 2421TIP3    H2 7228   3.799   4.663   4.564  0.0841  0.6390  0.3316
 2422TIP3   OH2 7229   0.952   4.248   0.653 -0.5527 -0.3508  0.0653
 2422TIP3    H1 7230   0.986   4.161   0.633 -0.7641 -0.7984  1.5422
 2422TIP3    H2 7231   0.860   4.244   0.625 -1.1129 -1.2899  1.8619
 2423TIP3   OH2 7232   5.497   4.649   1.983 -0.1294  0.1780 -0.0266
 2423TIP3    H1 7233   5.567   4.663   1.919  0.5910  0.1882  0.7439
 2423TIP3    H2 7234   5.492   4.731   2.031 -1.7478  0.7347 -1.0748
 2424TIP3   OH2 7235   6.655   3.811   3.635 -0.2041  0.1883  0.4316
 2424TIP3    H1 7236   6.586   3.764   3.683 -1.5092 -0.6169 -2.0861
 2424TIP3    H2 7237   6.608   3.876   3.583  1.2614  1.6682  0.8888
 2425TIP3   OH2 7238   2.426   4.532   3.259  0.5256 -0.2063 -0.2617
 2425TIP3    H1 7239   2.368   4.458   3.276  1.3667 -0.3081  2.7187
 2425TIP3    H2 7240   2.425   4.543   3.164 -0.1144 -3.6435 -0.7568
 2426TIP3   OH2 7241   7.175   3.010   3.720  0.4810 -0.6842 -0.3322
 2426TIP3    H1 7242   7.211   3.099   3.722  2.9705 -1.5808 -0.9626
 2426TIP3    H2 7243   7.153   2.991   3.811 -3.2551  1.6309 -0.5311
 2427TIP3   OH2 7244   6.903   5.304   2.606  0.2579 -0.8740 -0.1908
 2427TIP3    H1 7245   6.874   5.324   2.695  1.9833 -0.2487  0.2841
 2427TIP3    H2 7246   6.857   5.223   2.583 -2.0241  0.2232  0.3258
 2428TIP3   OH2 7247   6.605   5.647   3.838 -0.4927  0.6834  0.0634
 2428TIP3    H1 7248   6.567   5.734   3.854 -0.7345  0.6619 -0.3530
 2428TIP3    H2 7249   6.690   5.649   3.882  0.2626  1.7384 -1.3477
 2429TIP3   OH2 7250   2.915   3.730   4.482 -0.1531  0.5545  0.8698
 2429TIP3    H1 7251   3.009   3.725   4.462 -0.3634 -2.2915  0.1282
 2429TIP3    H2 7252   2.878   3.781   4.410  0.6933  0.8583  0.6371
 2430TIP3   OH2 7253   6.372   0.391   3.698 -0.0208  0.2884 -0.1577
 2430TIP3    H1 7254   6.320   0.471   3.704 -0.7043 -0.2007  0.5875
 2430TIP3    H2 7255   6.458   0.421   3.668  0.1563  1.4731  1.4238
 2431TIP3   OH2 7256   6.285   1.113   1.150  0.1010 -0.3930  0.6339
 2431TIP3    H1 7257   6.243   1.190   1.113  2.2174  0.3635 -0.3732
 2431TIP3    H2 7258   6.236   1.095   1.230 -0.3638  2.1170  1.0053
 2432TIP3   OH2 7259   1.988   3.943   3.267  0.4732 -0.0398  0.7316
 2432TIP3    H1 7260   1.935   3.867   3.291 -0.5479  0.8439  1.3648
 2432TIP3    H2 7261   2.058   3.946   3.333  0.6405 -0.5414  0.5797
 2433TIP3   OH2 7262   5.645   0.513   5.143  0.0588 -0.1330  0.2214
 2433TIP3    H1 7263   5.559   0.544   5.168  0.1321  0.5752 -0.3986
 2433TIP3    H2 7264   5.706   0.563   5.197  0.2208  1.4303 -1.3410
 2434TIP3   OH2 7265   5.703   4.641   1.796 -0.3888 -0.1224  0.0130
 2434TIP3    H1 7266   5.751   4.715   1.759 -0.8692 -0.2023 -0.7803
 2434TIP3    H2 7267   5.692   4.580   1.723  1.9615 -2.0537  1.1122
 2435TIP3   OH2 7268   3.518   1.214   3.956  0.0544 -0.3801  0.2891
 2435TIP3    H1 7269   3.575   1.198   4.032  0.4281 -3.4046 -0.4967
 2435TIP3    H2 7270   3.493   1.306   3.964  2.4147  0.1965  2.4600
 2436TIP3   OH2 7271   7.127   5.868   4.489 -0.4378  0.5830 -0.3166
 2436TIP3    H1 7272   7.109   5.895   4.579 -0.1663  0.8006 -0.3272
 2436TIP3    H2 7273   7.043   5.874   4.445 -0.9490 -1.1494  0.3297
 2437TIP3   OH2 7274   6.053   2.454   1.994 -0.1216  0.3143  0.0424
 2437TIP3    H1 7275   6.117   2.423   2.058  0.8786 -0.9410 -1.5116
 2437TIP3    H2 7276   6.007   2.525   2.039  1.1996  0.1174  1.7978
 2438TIP3   OH2 7277   2.794   5.861   3.589 -0.0172 -0.2081  0.0999
 2438TIP3    H1 7278   2.736   5.914   3.535 -1.7890 -1.2473  0.8894
 2438TIP3    H2 7279   2.827   5.794   3.530 -0.3582 -0.1506 -0.1601
 2439TIP3   OH2 7280   0.593   1.759   2.959 -0.6609  0.1554  0.1760
 2439TIP3    H1 7281   0.681   1.725   2.977 -0.3457 -0.5185 -2.2961
 2439TIP3    H2 7282   0.608   1.835   2.902 -1.6796 -1.0721 -1.8541
 2440TIP3   OH2 7283   0.549   1.166   4.932  0.3044 -0.4593 -0.1748
 2440TIP3    H1 7284   0.586   1.248   4.966 -0.2073 -0.1390 -0.3762
 2440TIP3    H2 7285   0.585   1.098   4.989  0.4980 -0.0625  0.1809
 2441TIP3   OH2 7286   5.539   3.014   2.374 -0.4323  0.3326 -0.3042
 2441TIP3    H1 7287   5.457   2.964   2.377 -0.7279  0.3870 -3.6617
 2441TIP3    H2 7288   5.513   3.103   2.400 -1.9306  0.7335 -2.7408
 2442TIP3   OH2 7289   2.166   3.763   1.719  0.5310 -0.0934  0.5995
 2442TIP3    H1 7290   2.195   3.841   1.766  1.2744 -0.1935  0.3088
 2442TIP3    H2 7291   2.070   3.766   1.725  0.5256  1.1317  0.1264
 2443TIP3   OH2 7292   6.855   5.641   2.268  0.2267  0.2276 -0.5581
 2443TIP3    H1 7293   6.828   5.620   2.357  0.6777  1.5839 -0.0797
 2443TIP3    H2 7294   6.913   5.569   2.243 -0.1681 -0.3370  0.1009
 2444TIP3   OH2 7295   2.781   1.283   4.753 -0.1127 -0.1985 -0.4401
 2444TIP3    H1 7296   2.790   1.192   4.782 -2.1396 -0.2308  0.2945
 2444TIP3    H2 7297   2.788   1.335   4.833 -1.7101  0.0291 -0.4030
 2445TIP3   OH2 7298   0.086   6.796   3.086 -0.6055  0.1925  0.1272
 2445TIP3    H1 7299   0.115   6.847   3.011 -0.1791  1.1674  0.9350
 2445TIP3    H2 7300   0.148   6.723   3.090  1.0423  1.5730  1.0766
 2446TIP3   OH2 7301   2.980   5.907   2.999  0.3030  0.3047  0.0885
 2446TIP3    H1 7302   2.953   5.816   2.990  0.4634  0.2116  0.5124
 2446TIP3    H2 7303   2.899   5.957   2.989  0.1861  0.1043  0.0254
 2447TIP3   OH2 7304   0.693   1.259   2.551  0.0027 -0.5224 -0.2054
 2447TIP3    H1 7305   0.603   1.241   2.523  0.3381  0.2344 -1.8268
 2447TIP3    H2 7306   0.700   1.214   2.636 -2.0626 -0.1321  0.2337
 2448TIP3   OH2 7307   1.919   0.922   0.193 -0.9846 -1.2378  0.3437
 2448TIP3    H1 7308   1.825   0.936   0.185 -1.0145 -0.1037  2.2872
 2448TIP3    H2 7309   1.940   0.945   0.283  1.4896  0.4867 -0.5663
 2449TIP3   OH2 7310   4.230   5.393   1.244 -0.1298  0.4965 -0.2569
 2449TIP3    H1 7311   4.236   5.308   1.286  2.5498  1.7248  2.1977
 2449TIP3    H2 7312   4.159   5.438   1.289 -0.2056  0.2741 -0.1534
 2450TIP3   OH2 7313   1.751   5.181   4.130 -0.7793 -0.5314  0.7008
 2450TIP3    H1 7314   1.693   5.256   4.145 -2.3276 -1.4739 -0.2340
 2450TIP3    H2 7315   1.791   5.200   4.045 -0.7126 -0.4823  0.7433
 2451TIP3   OH2 7316   5.913   0.342   0.424  0.1402  0.2029  0.1105
 2451TIP3    H1 7317   5.906   0.416   0.364 -1.1514 -0.4167 -0.5635
 2451TIP3    H2 7318   5.858   0.365   0.499  1.4332  0.8063  0.8915
 2452TIP3   OH2 7319   6.480   1.272   0.757 -0.1878 -0.2094  0.4890
 2452TIP3    H1 7320   6.439   1.348   0.799  0.4992 -0.0496  0.8806
 2452TIP3    H2 7321   6.416   1.202   0.768 -1.5892  0.7013 -1.3754
 2453TIP3   OH2 7322   1.233   3.215   4.315  0.2214  0.3719 -0.1847
 2453TIP3    H1 7323   1.166   3.274   4.281  1.4120  1.8277 -0.1387
 2453TIP3    H2 7324   1.264   3.257   4.395  1.1221 -0.3133 -0.1584
 2454TIP3   OH2 7325   4.901   4.119   3.049 -0.3592 -0.1176 -0.3139
 2454TIP3    H1 7326   4.887   4.185   2.981 -1.9453 -0.1281 -0.0258
 2454TIP3    H2 7327   4.821   4.119   3.101 -0.7625 -2.8377 -0.7739
 2455TIP3   OH2 7328   4.263   4.381   2.080 -0.0705  0.1658  0.0017
 2455TIP3    H1 7329   4.268   4.457   2.138 -0.2504  0.3035 -0.1630
 2455TIP3    H2 7330   4.310   4.312   2.127 -0.4838  0.1857  0.4522
 2456TIP3   OH2 7331   4.606   3.115   2.409  0.1871 -0.3597  0.0041
 2456TIP3    H1 7332   4.577   3.027   2.434 -2.0740  0.4468  0.4177
 2456TIP3    H2 7333   4.530   3.171   2.425  1.6411  1.7363 -0.0132
 2457TIP3   OH2 7334   0.345   1.874   4.252 -0.6352  0.0376  0.8295
 2457TIP3    H1 7335   0.402   1.944   4.221 -1.0472 -0.4952 -1.2812
 2457TIP3    H2 7336   0.404   1.799   4.264 -0.6577 -0.1235 -0.0010
 2458TIP3   OH2 7337   7.022   5.581   1.482 -0.0685  0.0574  0.6472
 2458TIP3    H1 7338   7.063   5.513   1.535 -0.8360  0.3782  1.6782
 2458TIP3    H2 7339   6.952   5.616   1.537 -0.1506  1.1932 -0.1377
 2459TIP3   OH2 7340   5.829   5.894   0.946 -0.1498  0.4976 -0.9448
 2459TIP3    H1 7341   5.867   5.810   0.920  0.1306 -0.1313  1.2505
 2459TIP3    H2 7342   5.904   5.953   0.955 -0.3056  0.9015 -2.0464
 2460TIP3   OH2 7343   3.060   0.430   1.222 -0.7361  0.4521 -0.0667
 2460TIP3    H1 7344   3.063   0.451   1.129  0.1593  1.5032  0.1723
 2460TIP3    H2 7345   3.002   0.495   1.260 -0.4372  0.5530  0.2262
 2461TIP3   OH2 7346   3.952   4.119   4.218  0.7153 -0.0217 -0.4418
 2461TIP3    H1 7347   3.978   4.052   4.155  0.1235 -0.7313  0.0448
 2461TIP3    H2 7348   3.961   4.076   4.303  0.3363  0.5150 -0.1254
 2462TIP3   OH2 7349   6.190   2.912   1.189 -0.5932 -0.2798 -0.3446
 2462TIP3    H1 7350   6.190   3.002   1.158  0.6721 -0.5226 -1.1092
 2462TIP3    H2 7351   6.212   2.860   1.112 -1.4721 -1.2677  0.0497
 2463TIP3   OH2 7352   0.809   0.241   4.333  1.0743 -0.6451  0.1881
 2463TIP3    H1 7353   0.848   0.214   4.250  1.6822 -0.4631  0.4086
 2463TIP3    H2 7354   0.859   0.319   4.358 -0.3780  0.4541 -0.2318
 2464TIP3   OH2 7355   4.963   5.767   5.647  0.2766  0.0751 -0.3234
 2464TIP3    H1 7356   4.963   5.677   5.679  2.9223 -1.3044 -3.6900
 2464TIP3    H2 7357   4.928   5.761   5.558  1.9015  2.0784 -1.1798
 2465TIP3   OH2 7358   1.488   3.484   3.371 -0.6391 -0.0385 -0.3031
 2465TIP3    H1 7359   1.433   3.407   3.388 -1.5462  0.6745  0.1130
 2465TIP3    H2 7360   1.426   3.557   3.369  0.1085  0.5899 -1.4944
 2466TIP3   OH2 7361   3.317   4.643   3.034 -0.5183 -0.1319 -0.6535
 2466TIP3    H1 7362   3.347   4.616   3.121  0.7228  0.8329 -0.7424
 2466TIP3    H2 7363   3.305   4.738   3.041 -0.3193 -0.0299 -1.5488
 2467TIP3   OH2 7364   0.191   4.131   1.406 -0.1172 -0.5080  0.0790
 2467TIP3    H1 7365   0.157   4.071   1.473 -0.2144  0.3810  0.8514
 2467TIP3    H2 7366   0.286   4.114   1.405 -0.0064 -0.0108  0.9906
 2468TIP3   OH2 7367   3.159   6.211   0.692 -0.2397 -0.2754 -0.2352
 2468TIP3    H1 7368   3.098   6.141   0.667 -0.0164 -0.2376 -0.8998
 2468TIP3    H2 7369   3.244   6.169   0.697 -0.0828 -0.0267 -0.7627
 2469TIP3   OH2 7370   5.348   2.748   1.714  0.2618  0.0154 -0.5381
 2469TIP3    H1 7371   5.254   2.752   1.733  0.2966  1.2498 -0.5314
 2469TIP3    H2 7372   5.384   2.690   1.781 -0.3840  0.1479 -0.0678
 2470TIP3   OH2 7373   6.157   5.872   5.772  0.0241 -0.3345 -0.0781
 2470TIP3    H1 7374   6.246   5.887   5.740 -0.0479 -1.3971 -0.8218
 2470TIP3    H2 7375   6.101   5.908   5.704 -0.1243 -0.3521  0.0349
 2471TIP3   OH2 7376   3.679   0.130   0.418 -0.0620 -0.2476 -0.0618
 2471TIP3    H1 7377   3.636   0.113   0.502  1.3014 -3.6137  0.1106
 2471TIP3    H2 7378   3.764   0.166   0.442 -0.2597  0.2300 -0.0767
 2472TIP3   OH2 7379   6.459   0.220   2.339  0.0028  0.0021 -0.5414
 2472TIP3    H1 7380   6.503   0.161   2.401  1.3071  0.5813 -0.8641
 2472TIP3    H2 7381   6.423   0.162   2.272  1.0727 -0.4695 -0.7372
 2473TIP3   OH2 7382   0.969   6.741   4.060  0.1656 -0.1984 -0.4946
 2473TIP3    H1 7383   0.909   6.666   4.062  1.3320 -1.1655  1.5419
 2473TIP3    H2 7384   1.050   6.705   4.024  0.9238 -0.1209  1.0671
 2474TIP3   OH2 7385   5.756   0.923   5.164 -0.2195  0.4259  0.3421
 2474TIP3    H1 7386   5.706   0.862   5.110  0.4322  0.5526 -0.4259
 2474TIP3    H2 7387   5.700   1.001   5.171  0.2837  0.9793 -1.4005
 2475TIP3   OH2 7388   3.579   4.212   0.675 -0.0856  0.4421 -0.6524
 2475TIP3    H1 7389   3.510   4.270   0.708 -0.0048  1.1011 -1.5874
 2475TIP3    H2 7390   3.661   4.253   0.704 -0.0503  0.3493 -0.6194
 2476TIP3   OH2 7391   5.376   4.462   2.658 -0.9052 -0.2116  0.2715
 2476TIP3    H1 7392   5.380   4.370   2.632 -1.3031  0.3084 -1.7900
 2476TIP3    H2 7393   5.310   4.464   2.727 -0.8771 -1.4522  0.3666
 2477TIP3   OH2 7394   5.211   6.677   4.777 -0.0387  0.0924  0.4184
 2477TIP3    H1 7395   5.243   6.704   4.691 -1.9285  1.8119  0.1838
 2477TIP3    H2 7396   5.159   6.599   4.760  0.2182 -0.0175  0.1315
 2478TIP3   OH2 7397   3.119   6.009   1.409 -0.0582  0.4157 -0.4240
 2478TIP3    H1 7398   3.061   6.081   1.386  0.5726  0.6490 -1.3262
 2478TIP3    H2 7399   3.063   5.931   1.404 -0.4804  0.7178 -0.5240
 2479TIP3   OH2 7400   1.062   4.639   0.159  0.1757  0.3443 -0.4956
 2479TIP3    H1 7401   1.113   4.628   0.239 -0.0727  3.1320  0.1416
 2479TIP3    H2 7402   1.119   4.690   0.101 -0.6031  0.5316 -1.1154
 2480TIP3   OH2 7403   4.864   3.658   4.030  0.4402  0.2597 -0.6905
 2480TIP3    H1 7404   4.863   3.562   4.037 -0.1726  0.0925 -2.5305
 2480TIP3    H2 7405   4.938   3.677   3.973 -0.4826  0.7270 -1.7689
 2481TIP3   OH2 7406   3.423   6.310   4.305 -0.4438  0.0614 -0.4629
 2481TIP3    H1 7407   3.330   6.331   4.309 -0.5090 -0.4019  1.3804
 2481TIP3    H2 7408   3.454   6.352   4.224 -2.0275  1.1136 -0.5650
 2482TIP3   OH2 7409   1.931   5.639   3.349  0.1946  0.0912  0.5816
 2482TIP3    H1 7410   1.926   5.544   3.341  0.6922  0.2129 -1.8134
 2482TIP3    H2 7411   2.014   5.655   3.393  1.5338 -0.5444 -1.6004
 2483TIP3   OH2 7412   2.608   1.415   0.805 -0.1197 -0.3293  0.0524
 2483TIP3    H1 7413   2.550   1.468   0.750  1.1047  2.5427  1.3187
 2483TIP3    H2 7414   2.556   1.396   0.883 -0.3956 -0.5423 -0.1816
 2484TIP3   OH2 7415   2.180   6.309   4.609  0.2721 -0.2903 -0.3711
 2484TIP3    H1 7416   2.110   6.246   4.627 -0.8634  0.8979 -0.5199
 2484TIP3    H2 7417   2.150   6.356   4.532 -0.4499  2.5380  1.4692
 2485TIP3   OH2 7418   3.374   6.553   1.842 -0.1147 -0.3226 -0.0040
 2485TIP3    H1 7419   3.318   6.561   1.765 -1.5721 -2.2812  0.7787
 2485TIP3    H2 7420   3.420   6.637   1.847 -1.2606  0.4915 -1.9903
 2486TIP3   OH2 7421   3.928   1.173   4.421  0.1465  0.2211  0.2769
 2486TIP3    H1 7422   3.953   1.184   4.329 -0.2757 -1.0881 -0.0053
 2486TIP3    H2 7423   3.838   1.140   4.418 -0.1350  0.8469  1.1933
 2487TIP3   OH2 7424   6.724   6.521   5.842 -0.5566 -0.5521  0.0977
 2487TIP3    H1 7425   6.658   6.473   5.892 -1.0111 -0.3336 -0.2894
 2487TIP3    H2 7426   6.696   6.512   5.751 -0.2858 -0.1037 -0.0302
 2488TIP3   OH2 7427   0.031   1.270   3.308  0.3587 -0.2725 -0.1856
 2488TIP3    H1 7428   0.113   1.252   3.353  0.3658 -0.5974 -0.3253
 2488TIP3    H2 7429  -0.015   1.331   3.366  0.9936  0.4661 -0.4441
 2489TIP3   OH2 7430   1.518   2.696   4.211 -0.0175 -0.1481  0.1208
 2489TIP3    H1 7431   1.460   2.642   4.156  0.1377 -0.6012  0.3912
 2489TIP3    H2 7432   1.582   2.633   4.246 -0.3406  0.0595  1.1215
 2490TIP3   OH2 7433   6.889   0.439   1.839 -0.2021  0.5301 -0.1990
 2490TIP3    H1 7434   6.932   0.448   1.754 -0.8049 -0.7033 -0.6738
 2490TIP3    H2 7435   6.912   0.351   1.868  0.2212  1.0405  1.0620
 2491TIP3   OH2 7436   0.090   3.120   4.406  0.2903 -0.2409  0.2466
 2491TIP3    H1 7437   0.022   3.160   4.352  1.0057 -2.5170 -2.5852
 2491TIP3    H2 7438   0.148   3.192   4.429 -1.1447  1.1519 -0.2980
 2492TIP3   OH2 7439   5.872   2.877   2.798  0.3547 -0.0056  0.4396
 2492TIP3    H1 7440   5.965   2.874   2.776  0.1458  0.3366 -0.5388
 2492TIP3    H2 7441   5.827   2.878   2.713 -0.5688 -0.7797  0.8945
 2493TIP3   OH2 7442   0.658   6.635   1.548  0.2584  0.1173  0.0285
 2493TIP3    H1 7443   0.636   6.577   1.620  0.6076 -0.1662 -0.0862
 2493TIP3    H2 7444   0.750   6.658   1.563 -0.1559  1.4748  0.6402
 2494TIP3   OH2 7445   5.143   3.591   1.682  0.3623  0.6361  0.4380
 2494TIP3    H1 7446   5.220   3.634   1.645  1.0660 -1.8830 -1.3000
 2494TIP3    H2 7447   5.069   3.636   1.640  1.0579  0.2990 -1.2541
 2495TIP3   OH2 7448   5.145   6.392   4.832 -0.0926  0.1882 -0.4643
 2495TIP3    H1 7449   5.236   6.391   4.863  0.2862  1.1631 -1.5069
 2495TIP3    H2 7450   5.146   6.338   4.754  0.0571  1.8364 -1.6525
 2496TIP3   OH2 7451   0.004   2.577   2.630 -0.8828  0.0118 -0.1355
 2496TIP3    H1 7452   0.032   2.486   2.628  0.7990  0.4817  0.1792
 2496TIP3    H2 7453  -0.007   2.597   2.723  0.1066  0.4884 -0.1053
 2497TIP3   OH2 7454   6.527   2.089   5.237  0.2176  0.3212 -0.4507
 2497TIP3    H1 7455   6.488   2.176   5.240 -0.8916 -0.1058 -1.5310
 2497TIP3    H2 7456   6.548   2.076   5.144 -1.1349 -1.1802 -0.5936
 2498TIP3   OH2 7457   6.574   1.232   5.413 -0.1506  0.0628 -0.1685
 2498TIP3    H1 7458   6.639   1.266   5.474 -0.1136 -0.7586  0.2490
 2498TIP3    H2 7459   6.604   1.262   5.327  1.0791 -0.7517 -0.0381
 2499TIP3   OH2 7460   3.507   3.237   5.422  0.2573 -0.0601  0.5974
 2499TIP3    H1 7461   3.507   3.245   5.327  1.0197  0.5046  0.6320
 2499TIP3    H2 7462   3.418   3.260   5.448  0.2926  0.7163  0.0755
 2500TIP3   OH2 7463   2.514   1.770   2.561  0.0072 -0.1137  0.0960
 2500TIP3    H1 7464   2.603   1.804   2.570 -0.6919  1.9036 -0.1164
 2500TIP3    H2 7465   2.487   1.749   2.651 -0.4241  2.4014  0.6108
 2501TIP3   OH2 7466   4.260   6.139   4.100  0.0514  0.0831 -0.0863
 2501TIP3    H1 7467   4.190   6.076   4.120 -0.6407  1.1024  0.8055
 2501TIP3    H2 7468   4.213   6.219   4.076  0.9282  0.5950 -0.1000
 2502TIP3   OH2 7469   1.995   3.058   1.527  0.0938 -0.1181 -0.4745
 2502TIP3    H1 7470   2.005   3.019   1.440  0.3348  1.1382 -1.0346
 2502TIP3    H2 7471   2.060   3.128   1.529  0.0095 -0.0555  0.6880
 2503TIP3   OH2 7472   2.143   3.175   4.787 -0.1441  0.4371  0.0573
 2503TIP3    H1 7473   2.205   3.208   4.853  1.0993 -1.5821 -0.0294
 2503TIP3    H2 7474   2.057   3.194   4.825  0.5242 -0.6293  2.3104
 2504TIP3   OH2 7475   2.000   4.989   3.589 -0.1569  0.4827  0.2540
 2504TIP3    H1 7476   1.982   4.957   3.678 -1.6033 -0.0457 -0.2103
 2504TIP3    H2 7477   2.053   4.920   3.550  0.7321  0.8458  0.7792
 2505TIP3   OH2 7478   4.692   2.355   5.440  0.5512  0.3054 -0.5595
 2505TIP3    H1 7479   4.710   2.447   5.418 -2.0215  0.6215 -1.7545
 2505TIP3    H2 7480   4.697   2.352   5.535 -0.0775  1.9136 -0.4400
 2506TIP3   OH2 7481   0.124   1.829   4.088 -0.2742 -0.4202  0.3007
 2506TIP3    H1 7482   0.201   1.840   4.145  0.3559  1.3262 -0.8019
 2506TIP3    H2 7483   0.138   1.745   4.045  1.1851 -0.0073 -0.0803
 2507TIP3   OH2 7484   5.634   2.015   3.832  0.3794 -0.0480  0.2861
 2507TIP3    H1 7485   5.597   2.013   3.921 -1.8830  2.7852 -0.4214
 2507TIP3    H2 7486   5.643   2.108   3.812  0.7398 -0.5875 -2.5039
 2508TIP3   OH2 7487   0.059   1.606   3.170  0.1155  0.0697 -0.8368
 2508TIP3    H1 7488   0.140   1.638   3.130  0.8845 -0.9605 -0.1474
 2508TIP3    H2 7489   0.086   1.573   3.256 -1.4843  2.0961  0.5142
 2509TIP3   OH2 7490   0.448   4.678   4.254  0.2440  0.0923 -0.2911
 2509TIP3    H1 7491   0.495   4.716   4.180  2.8003 -0.4365  0.9606
 2509TIP3    H2 7492   0.470   4.735   4.328  0.0466 -0.9679  0.6082
 2510TIP3   OH2 7493   0.680   0.838   0.323  0.3610 -0.1539  0.1962
 2510TIP3    H1 7494   0.670   0.885   0.406 -0.3899  0.1611 -0.0610
 2510TIP3    H2 7495   0.640   0.753   0.338  2.2217 -0.9572  0.8367
 2511TIP3   OH2 7496   6.106   1.721   0.131 -0.5437 -0.0627 -0.0989
 2511TIP3    H1 7497   6.058   1.670   0.066 -0.8105  0.5462 -0.3956
 2511TIP3    H2 7498   6.147   1.791   0.080 -0.3121  0.1023  0.3139
 2512TIP3   OH2 7499   5.134   5.640   2.078  0.6463 -0.0150 -0.2114
 2512TIP3    H1 7500   5.057   5.696   2.081  0.0781 -0.6716 -1.7416
 2512TIP3    H2 7501   5.208   5.701   2.083  0.0806  0.5788  1.9032
 2513TIP3   OH2 7502   3.787   2.568   0.530 -0.3977  0.3557  0.2343
 2513TIP3    H1 7503   3.705   2.605   0.564 -0.9002 -0.0940 -0.4658
 2513TIP3    H2 7504   3.761   2.524   0.449  0.2055 -1.4791  1.0114
 2514TIP3   OH2 7505   5.253   5.395   0.379  0.1015 -0.2952  0.3616
 2514TIP3    H1 7506   5.197   5.431   0.448  0.0676 -0.4487  0.4141
 2514TIP3    H2 7507   5.205   5.320   0.345  0.3430 -0.5168  0.5084
 2515TIP3   OH2 7508   0.684   3.603   4.400  0.0601  0.4119  1.2364
 2515TIP3    H1 7509   0.678   3.507   4.393 -1.1695  0.4308  1.7179
 2515TIP3    H2 7510   0.679   3.634   4.310  1.5400  0.0003  0.9804
 2516TIP3   OH2 7511   5.466   3.467   0.602 -0.0411 -0.0235  0.5143
 2516TIP3    H1 7512   5.511   3.392   0.640  1.1054 -0.2185 -1.1401
 2516TIP3    H2 7513   5.522   3.542   0.622 -1.1729  0.4365  2.1471
 2517TIP3   OH2 7514   5.857   0.223   1.244 -0.1208  0.5837 -0.5097
 2517TIP3    H1 7515   5.832   0.198   1.155 -1.2160 -1.1545  0.2299
 2517TIP3    H2 7516   5.951   0.242   1.239  0.1039 -0.7372 -1.7727
 2518TIP3   OH2 7517   4.090   6.292   0.638  0.1708  0.4597 -0.0404
 2518TIP3    H1 7518   4.165   6.249   0.597 -1.1677  0.1590 -2.3687
 2518TIP3    H2 7519   4.078   6.247   0.721  3.5770  1.6669  1.3276
 2519TIP3   OH2 7520   3.212   6.198   5.618  1.0066  0.5624  0.4077
 2519TIP3    H1 7521   3.183   6.107   5.608  0.9011  0.6738 -0.3671
 2519TIP3    H2 7522   3.290   6.205   5.563  0.4421  1.1900 -0.3358
 2520TIP3   OH2 7523   6.769   6.377   2.308 -0.4611 -0.2294  0.0709
 2520TIP3    H1 7524   6.699   6.357   2.370 -0.9518  0.3494 -0.2881
 2520TIP3    H2 7525   6.790   6.469   2.323 -0.8029  0.0076 -0.8274
 2521TIP3   OH2 7526   4.163   6.746   5.412  0.7769  0.1462  0.2301
 2521TIP3    H1 7527   4.226   6.756   5.341 -0.1451  0.2723 -0.5987
 2521TIP3    H2 7528   4.132   6.834   5.430  0.4952  0.0325  0.3134
 2522TIP3   OH2 7529   7.092   5.252   3.731  0.2434  0.8150 -0.5168
 2522TIP3    H1 7530   7.078   5.204   3.650  0.0011 -1.1976  0.6520
 2522TIP3    H2 7531   7.187   5.259   3.739  0.3562 -0.8208 -0.0125
 2523TIP3   OH2 7532   7.125   2.187   5.502  0.2543  0.2220 -0.3535
 2523TIP3    H1 7533   7.070   2.210   5.577  1.2662 -0.5833  0.6754
 2523TIP3    H2 7534   7.102   2.251   5.434  0.6234  2.1634  1.2656
 2524TIP3   OH2 7535   5.846   0.206   2.962 -0.3314 -0.1461  0.5791
 2524TIP3    H1 7536   5.857   0.125   2.913 -1.7927 -0.3824  0.5940
 2524TIP3    H2 7537   5.904   0.268   2.919  1.0336 -1.2571  0.7488
 2525TIP3   OH2 7538   0.923   2.294   2.714  0.6353  0.1775  0.1977
 2525TIP3    H1 7539   0.928   2.198   2.720 -0.7804  0.0625 -0.0795
 2525TIP3    H2 7540   0.946   2.314   2.624  2.7653  0.2780  0.7223
 2526TIP3   OH2 7541   5.757   0.376   0.652 -0.3649  0.3513 -0.3054
 2526TIP3    H1 7542   5.845   0.383   0.690 -0.0451 -0.5023 -0.8784
 2526TIP3    H2 7543   5.699   0.370   0.728  0.3239 -1.9524  0.1055
 2527TIP3   OH2 7544   2.964   0.665   4.079  0.6945 -0.8129 -0.4775
 2527TIP3    H1 7545   2.952   0.752   4.118  2.5083 -0.1480 -1.3082
 2527TIP3    H2 7546   2.886   0.652   4.026  1.5694  1.5359 -2.5026
 2528TIP3   OH2 7547   6.015   0.945   2.710 -0.0033 -0.3800  0.3292
 2528TIP3    H1 7548   5.924   0.970   2.699  0.4952  1.4865  0.1545
 2528TIP3    H2 7549   6.050   0.936   2.621  0.1525 -0.4335  0.3937
 2529TIP3   OH2 7550   4.512   5.817   5.068 -0.2807  0.6783  0.2594
 2529TIP3    H1 7551   4.599   5.783   5.090  0.5571  1.9455 -0.9410
 2529TIP3    H2 7552   4.496   5.884   5.134 -1.2938 -0.9409  1.7351
 2530TIP3   OH2 7553   4.468   1.195   2.519  0.0568  0.5488  0.5288
 2530TIP3    H1 7554   4.429   1.279   2.496 -0.0392  0.7036  1.2513
 2530TIP3    H2 7555   4.562   1.214   2.526  0.4448  0.0012 -2.0592
 2531TIP3   OH2 7556   3.937   2.123   3.588 -0.4559 -0.3113  0.4467
 2531TIP3    H1 7557   3.853   2.155   3.622 -1.3983 -1.0455 -1.0673
 2531TIP3    H2 7558   3.922   2.030   3.571  1.1002 -0.7656  1.3558
 2532TIP3   OH2 7559   6.389   1.033   5.529 -0.0264 -0.3193  0.2647
 2532TIP3    H1 7560   6.414   1.103   5.588 -1.0576  0.3728 -0.0923
 2532TIP3    H2 7561   6.294   1.026   5.539 -0.4998  0.9252 -2.4541
 2533TIP3   OH2 7562   5.587   1.247   0.869 -0.6841  0.0362  0.0669
 2533TIP3    H1 7563   5.622   1.172   0.915  0.0900  0.5093  0.2594
 2533TIP3    H2 7564   5.515   1.278   0.924 -0.5948 -0.1734  0.3012
 2534TIP3   OH2 7565   1.577   1.170   3.436 -0.4001 -0.2223  0.1008
 2534TIP3    H1 7566   1.508   1.208   3.490 -0.8021  0.3312 -0.7635
 2534TIP3    H2 7567   1.569   1.215   3.352  1.1397 -0.0222  0.0278
 2535TIP3   OH2 7568   0.984   5.870   0.316  0.5989  0.6734 -0.3776
 2535TIP3    H1 7569   0.990   5.873   0.412  1.9329 -0.3460 -0.4027
 2535TIP3    H2 7570   1.023   5.786   0.292 -0.0806  0.7416 -1.8013
 2536TIP3   OH2 7571   0.619   5.572   0.905 -0.5186 -0.6224 -0.5303
 2536TIP3    H1 7572   0.611   5.561   0.810 -1.6510 -0.2548 -0.4887
 2536TIP3    H2 7573   0.564   5.504   0.942 -2.7276  1.2301 -0.2031
 2537TIP3   OH2 7574   4.597   2.725   0.040  0.0137 -0.0677 -0.5013
 2537TIP3    H1 7575   4.684   2.760   0.019 -0.2837  0.5156 -0.8030
 2537TIP3    H2 7576   4.546   2.737  -0.040 -0.7118  0.8149  0.0644
 2538TIP3   OH2 7577   0.353   1.802   0.158  0.1788 -0.4290 -0.1129
 2538TIP3    H1 7578   0.406   1.737   0.111  2.8230  0.4490  1.4052
 2538TIP3    H2 7579   0.308   1.751   0.225 -1.4139 -1.2741 -1.7485
 2539TIP3   OH2 7580   6.682   0.278   5.392  0.1462 -0.3397 -0.2534
 2539TIP3    H1 7581   6.763   0.260   5.440 -0.7448 -0.7617  1.1528
 2539TIP3    H2 7582   6.648   0.358   5.432 -1.4656 -1.6029  1.0366
 2540TIP3   OH2 7583   2.484   5.388   1.775 -0.2692  0.9842  0.0324
 2540TIP3    H1 7584   2.549   5.437   1.726  0.3883 -1.0475 -1.2416
 2540TIP3    H2 7585   2.529   5.308   1.803 -2.2591 -0.7528 -1.3652
 2541TIP3   OH2 7586   3.203   2.687   2.941 -0.5353  0.0601  0.2585
 2541TIP3    H1 7587   3.133   2.623   2.956 -1.0660  0.9061  1.5928
 2541TIP3    H2 7588   3.193   2.713   2.850 -1.1084 -0.8211  0.0575
 2542TIP3   OH2 7589   4.205   0.217   3.958  0.0176  0.4607 -0.1020
 2542TIP3    H1 7590   4.179   0.256   3.874 -0.2310  0.0114 -0.2379
 2542TIP3    H2 7591   4.123   0.183   3.994  0.2524 -0.0549 -0.0484
 2543TIP3   OH2 7592   5.075   2.257   0.231 -0.1261  0.4625 -0.3377
 2543TIP3    H1 7593   5.083   2.163   0.245  1.3957  0.3620 -1.6112
 2543TIP3    H2 7594   5.109   2.296   0.312 -2.4058 -0.0309  0.9236
 2544TIP3   OH2 7595   2.876   3.793   2.681  0.3766  0.2224 -0.0301
 2544TIP3    H1 7596   2.904   3.727   2.744  2.0376  2.0547  1.2853
 2544TIP3    H2 7597   2.835   3.862   2.735  1.4683  1.6504 -0.9443
 2545TIP3   OH2 7598   0.285   2.042   3.338  0.5186 -0.0312  0.5554
 2545TIP3    H1 7599   0.354   1.998   3.288  0.5153  2.1355 -1.5471
 2545TIP3    H2 7600   0.328   2.119   3.376 -0.6114  1.2323 -0.6085
 2546TIP3   OH2 7601   1.345   2.085   2.469 -0.4317 -0.4237 -0.1335
 2546TIP3    H1 7602   1.318   2.130   2.548 -1.4722 -0.1583 -0.6171
 2546TIP3    H2 7603   1.438   2.067   2.481 -0.4162  0.2636  0.8243
 2547TIP3   OH2 7604   6.524   2.949   1.309  0.1811 -0.2260 -0.4851
 2547TIP3    H1 7605   6.457   2.899   1.355  0.0173  0.4579  0.0428
 2547TIP3    H2 7606   6.482   3.034   1.292  0.7976  0.0818 -0.4736
 2548TIP3   OH2 7607   3.112   3.241   2.976 -0.2334 -0.4819 -0.4052
 2548TIP3    H1 7608   3.076   3.321   3.013 -1.1894  0.4855 -3.1366
 2548TIP3    H2 7609   3.162   3.270   2.900 -0.1240 -2.4090 -1.1374
 2549TIP3   OH2 7610   1.678   6.299   3.828  0.0094 -0.6969  0.1573
 2549TIP3    H1 7611   1.710   6.371   3.775  0.7912 -0.4095  0.9948
 2549TIP3    H2 7612   1.735   6.225   3.805 -0.3864 -0.8922 -0.2303
 2550TIP3   OH2 7613   3.023   5.645   3.782  0.0443 -0.2146  0.1487
 2550TIP3    H1 7614   3.053   5.702   3.710  0.1478 -0.3920  0.0506
 2550TIP3    H2 7615   3.034   5.698   3.861  0.8968 -0.3805  0.1503
 2551TIP3   OH2 7616   5.545   4.098   3.101 -0.2516 -0.1948  0.0172
 2551TIP3    H1 7617   5.536   4.047   3.182  1.3775 -1.4954 -0.5475
 2551TIP3    H2 7618   5.605   4.046   3.048 -0.6249  1.0613 -1.6905
 2552TIP3   OH2 7619   7.020   0.108   0.092 -0.0887 -0.1696  0.1529
 2552TIP3    H1 7620   6.994   0.033   0.038 -0.0093  0.2240 -0.4338
 2552TIP3    H2 7621   6.961   0.178   0.067  0.8750  0.4417 -0.4807
 2553TIP3   OH2 7622   6.483   1.989   3.315  0.0329  0.1439  0.2833
 2553TIP3    H1 7623   6.565   2.027   3.347  0.2835  0.0665 -0.2677
 2553TIP3    H2 7624   6.484   2.003   3.221 -0.1657 -0.6639  0.1541
 2554TIP3   OH2 7625   6.352   5.860   0.596 -0.5517  0.1348 -0.6168
 2554TIP3    H1 7626   6.431   5.836   0.548  0.1727  0.9920  0.1282
 2554TIP3    H2 7627   6.297   5.781   0.592  0.2782 -0.4297 -1.2344
 2555TIP3   OH2 7628   2.829   6.732   3.052  0.2780  0.9491 -0.3018
 2555TIP3    H1 7629   2.906   6.744   3.106  1.6805  0.9873 -2.2021
 2555TIP3    H2 7630   2.833   6.640   3.024 -1.3437  0.4512  0.9481
 2556TIP3   OH2 7631   4.173   1.037   0.450 -0.0596  0.2176 -0.3495
 2556TIP3    H1 7632   4.110   1.084   0.396 -1.1715 -0.4451  0.3290
 2556TIP3    H2 7633   4.218   0.978   0.388  0.5347  1.2914 -0.9869
 2557TIP3   OH2 7634   5.859   1.008   1.861 -0.1896  0.6262 -0.3232
 2557TIP3    H1 7635   5.776   1.044   1.893 -0.9114 -0.2435 -1.1566
 2557TIP3    H2 7636   5.926   1.049   1.916 -1.2913  0.0939  1.4936
 2558TIP3   OH2 7637   3.965   3.721   3.548  0.1014 -0.0950  0.1499
 2558TIP3    H1 7638   3.927   3.704   3.462  0.8562  0.6565 -0.3505
 2558TIP3    H2 7639   3.897   3.769   3.595 -0.4197 -0.7471  0.0834
 2559TIP3   OH2 7640   0.960   3.943   0.653 -0.2235  0.2189  0.0307
 2559TIP3    H1 7641   0.998   3.870   0.605 -0.3657 -0.7051  1.2701
 2559TIP3    H2 7642   0.867   3.920   0.662 -0.6229  1.3223 -0.9162
 2560TIP3   OH2 7643   3.427   0.652   2.587  0.1153 -0.1285 -0.1216
 2560TIP3    H1 7644   3.345   0.626   2.630  0.1559 -0.1334 -0.0474
 2560TIP3    H2 7645   3.430   0.747   2.596 -0.0193 -0.0990 -0.3687
 2561TIP3   OH2 7646   4.375   3.652   1.413  0.5167 -0.2860 -0.3925
 2561TIP3    H1 7647   4.429   3.696   1.479  1.4802  0.8572 -1.8583
 2561TIP3    H2 7648   4.425   3.573   1.391  0.1943 -0.6682  0.2330
 2562TIP3   OH2 7649   2.491   6.151   5.270 -0.2207  0.4818 -0.5462
 2562TIP3    H1 7650   2.473   6.236   5.229 -1.6054  0.6592  0.3681
 2562TIP3    H2 7651   2.419   6.095   5.240 -0.2030  0.0834  0.1453
 2563TIP3   OH2 7652   0.203   5.754   4.140  0.2434 -0.0796 -0.0119
 2563TIP3    H1 7653   0.192   5.754   4.235  1.1226  2.3748  0.1593
 2563TIP3    H2 7654   0.176   5.667   4.112  3.0559 -2.0724  2.8376
 2564TIP3   OH2 7655   0.874   5.516   3.615 -0.3040 -0.6314 -0.3464
 2564TIP3    H1 7656   0.913   5.489   3.532  0.9593  1.4232 -0.4779
 2564TIP3    H2 7657   0.933   5.583   3.649 -1.5081 -0.4653  1.5682
 2565TIP3   OH2 7658   2.698   2.020   0.977 -0.8289 -0.1683  0.2223
 2565TIP3    H1 7659   2.686   2.113   0.957 -1.1619 -0.7568 -2.7269
 2565TIP3    H2 7660   2.621   1.997   1.029 -0.8286  1.1205  0.8535
 2566TIP3   OH2 7661   2.538   2.337   3.384 -0.1750  0.0647 -0.2199
 2566TIP3    H1 7662   2.523   2.291   3.301 -0.3254 -0.9328  0.3501
 2566TIP3    H2 7663   2.597   2.409   3.360  2.3726 -2.0037 -0.7219
 2567TIP3   OH2 7664   1.886   0.726   3.728 -0.3624  0.0023 -0.0276
 2567TIP3    H1 7665   1.827   0.801   3.740 -0.2242  0.2906 -1.0715
 2567TIP3    H2 7666   1.872   0.698   3.638 -0.2438 -1.1037  0.2819
 2568TIP3   OH2 7667   4.243   2.366   2.540 -0.2783 -0.2740  0.0879
 2568TIP3    H1 7668   4.153   2.341   2.520 -0.4731  0.6421 -0.2079
 2568TIP3    H2 7669   4.284   2.377   2.454 -0.4708  1.3742  0.1915
 2569TIP3   OH2 7670   5.131   2.701   3.962 -0.5831 -0.1146  0.1613
 2569TIP3    H1 7671   5.204   2.646   3.990 -0.4044  0.4156  0.7957
 2569TIP3    H2 7672   5.065   2.690   4.031 -0.8427 -0.0988 -0.0818
 2570TIP3   OH2 7673   3.066   1.053   4.433 -0.1003  0.0262  0.3491
 2570TIP3    H1 7674   3.023   1.019   4.355 -0.3112  1.5102 -0.2016
 2570TIP3    H2 7675   3.010   1.024   4.505 -0.0836 -1.0687 -0.0520
 2571TIP3   OH2 7676   2.220   0.200   4.464  0.2891 -0.2544  0.2823
 2571TIP3    H1 7677   2.291   0.229   4.407  1.5081 -0.2668  1.7558
 2571TIP3    H2 7678   2.194   0.278   4.513  1.1193 -0.8066  1.6527
 2572TIP3   OH2 7679   3.295   2.394   1.401  0.3567  0.7979  0.2338
 2572TIP3    H1 7680   3.258   2.475   1.366 -0.9142  0.2258  0.2274
 2572TIP3    H2 7681   3.367   2.373   1.341  0.0794  1.4008 -0.3226
 2573TIP3   OH2 7682   0.742   1.784   1.803 -0.5963 -0.1037  0.6812
 2573TIP3    H1 7683   0.708   1.866   1.838 -0.0932 -0.5837  2.3960
 2573TIP3    H2 7684   0.837   1.793   1.811 -0.4416 -0.1042 -0.9237
 2574TIP3   OH2 7685   3.025   5.459   0.616  0.0881  0.2961 -0.1643
 2574TIP3    H1 7686   3.063   5.470   0.529 -1.1274  2.9160 -0.4805
 2574TIP3    H2 7687   3.074   5.519   0.672  1.7937 -2.3553  1.3962
 2575TIP3   OH2 7688   6.928   4.205   1.338  0.2474  0.5382 -0.3290
 2575TIP3    H1 7689   7.017   4.176   1.318  0.3894  0.6082  0.1878
 2575TIP3    H2 7690   6.874   4.128   1.322  0.5158  0.2294  0.2270
 2576TIP3   OH2 7691   5.488   0.651   2.465 -0.5735  0.2005  0.0139
 2576TIP3    H1 7692   5.447   0.572   2.429  0.9442 -0.2301 -0.8833
 2576TIP3    H2 7693   5.556   0.618   2.524  1.9030  0.6520 -2.3748
 2577TIP3   OH2 7694   0.378   3.146   2.659  0.2257  0.2974  0.4521
 2577TIP3    H1 7695   0.450   3.173   2.602  0.6925  0.6858  1.2210
 2577TIP3    H2 7696   0.367   3.219   2.720 -1.3942  0.6256 -0.1895
 2578TIP3   OH2 7697   3.505   0.830   0.699  0.2666 -0.2906  0.1750
 2578TIP3    H1 7698   3.554   0.751   0.676 -0.7996 -0.4616 -1.6530
 2578TIP3    H2 7699   3.563   0.902   0.676  0.2173 -0.5090 -0.6449
 2579TIP3   OH2 7700  -0.033   2.386   4.552  0.0681 -0.1248  0.0868
 2579TIP3    H1 7701  -0.005   2.317   4.613 -0.6698 -0.7819 -0.2978
 2579TIP3    H2 7702   0.045   2.439   4.539  1.0773 -1.6802 -0.6484
 2580TIP3   OH2 7703   3.257   1.210   0.299  0.2231 -0.4979 -0.7741
 2580TIP3    H1 7704   3.250   1.222   0.204  0.4977  2.4593 -0.5231
 2580TIP3    H2 7705   3.277   1.297   0.332 -1.1830 -1.1739  2.1513
 2581TIP3   OH2 7706   4.925   0.326   2.236  0.0631 -0.0696  0.0687
 2581TIP3    H1 7707   4.911   0.421   2.247  1.7072  0.3761 -1.2402
 2581TIP3    H2 7708   4.900   0.289   2.320  0.1207  1.6301  0.8875
 2582TIP3   OH2 7709   1.712   5.713   1.326 -0.0797  0.2062  0.0156
 2582TIP3    H1 7710   1.663   5.698   1.407 -0.0988  0.0632 -0.0221
 2582TIP3    H2 7711   1.795   5.751   1.354 -0.1939  0.4029  0.0835
 2583TIP3   OH2 7712   0.854   0.650   4.577  0.3264  0.1952 -0.2922
 2583TIP3    H1 7713   0.783   0.599   4.539  0.7606 -0.6112 -0.0404
 2583TIP3    H2 7714   0.901   0.588   4.633  0.5823  0.9896  0.3892
 2584TIP3   OH2 7715   1.463   3.666   0.545 -0.1364  0.6761 -0.4237
 2584TIP3    H1 7716   1.494   3.583   0.507  1.6454  1.2478 -0.3219
 2584TIP3    H2 7717   1.514   3.733   0.500 -2.0310  1.8205 -0.9878
 2585TIP3   OH2 7718   2.774   6.657   4.093  0.2692  0.6317  0.0715
 2585TIP3    H1 7719   2.848   6.637   4.036 -0.0143 -0.7662  0.1601
 2585TIP3    H2 7720   2.801   6.625   4.179  0.0490  1.2255  0.3621
 2586TIP3   OH2 7721   2.076   0.540   3.584 -0.1204  0.0329  0.6110
 2586TIP3    H1 7722   2.109   0.625   3.558 -1.1270  0.5556  0.9688
 2586TIP3    H2 7723   1.981   0.547   3.572 -0.5589 -0.0193  3.3914
 2587TIP3   OH2 7724   6.531   1.826   2.419  0.2264  0.6020 -0.7376
 2587TIP3    H1 7725   6.479   1.835   2.339 -2.5332 -0.3988  0.7865
 2587TIP3    H2 7726   6.586   1.904   2.420 -1.7827  2.1745 -2.1826
 2588TIP3   OH2 7727   2.301   1.338   2.701 -0.4475 -0.1116  0.2686
 2588TIP3    H1 7728   2.371   1.348   2.636  0.1836  2.9533  1.2521
 2588TIP3    H2 7729   2.344   1.298   2.776 -0.2614 -0.2104  0.1101
 2589TIP3   OH2 7730   3.341   3.208   2.151  0.3431  0.0707 -0.2407
 2589TIP3    H1 7731   3.303   3.171   2.231  0.5894 -3.7171 -1.6591
 2589TIP3    H2 7732   3.274   3.195   2.085  1.8868 -1.5075 -1.6057
 2590TIP3   OH2 7733   4.557   5.860   5.666  0.0325 -0.4068 -0.3121
 2590TIP3    H1 7734   4.472   5.831   5.699  0.2532 -0.2908  0.3726
 2590TIP3    H2 7735   4.557   5.955   5.678 -0.9515  0.0590 -3.1466
 2591TIP3   OH2 7736   1.769   0.935   4.768 -0.6239  0.0013  0.4148
 2591TIP3    H1 7737   1.785   1.028   4.755 -1.7440 -0.0043 -1.1931
 2591TIP3    H2 7738   1.692   0.931   4.826 -0.4104  0.0610  0.7057
 2592TIP3   OH2 7739   0.457   5.691   2.588  0.0957 -0.4780 -0.2692
 2592TIP3    H1 7740   0.540   5.690   2.636 -0.0474 -0.3833 -0.0154
 2592TIP3    H2 7741   0.481   5.671   2.498  0.5459  0.6726 -0.4230
 2593TIP3   OH2 7742   3.825   2.423   2.746  0.0782 -0.2178 -0.3718
 2593TIP3    H1 7743   3.887   2.460   2.809 -1.7299  0.6966  0.9415
 2593TIP3    H2 7744   3.783   2.350   2.792 -0.2822 -0.4337 -1.0208
 2594TIP3   OH2 7745   6.219   4.619   5.647  0.4245  0.2471 -0.0274
 2594TIP3    H1 7746   6.157   4.557   5.686 -1.0520  0.5537 -1.6977
 2594TIP3    H2 7747   6.177   4.704   5.657  0.4041  0.4305 -1.4436
 2595TIP3   OH2 7748   1.251   6.068   2.303  0.3087  0.2812  0.2288
 2595TIP3    H1 7749   1.316   6.132   2.332 -2.2313  2.4326  1.5484
 2595TIP3    H2 7750   1.284   5.984   2.336  2.2688  1.3089  1.0318
 2596TIP3   OH2 7751   6.549   1.877   1.366 -0.1302  0.1992  0.3568
 2596TIP3    H1 7752   6.554   1.818   1.441 -1.5553 -0.0093  0.3104
 2596TIP3    H2 7753   6.472   1.848   1.318 -0.8353  2.0559  0.2921
 2597TIP3   OH2 7754   1.833   5.541   0.435 -0.4509 -0.6037 -0.0971
 2597TIP3    H1 7755   1.873   5.624   0.461 -0.2532 -0.8271  0.3200
 2597TIP3    H2 7756   1.843   5.485   0.511  0.1300 -1.2678 -0.6488
 2598TIP3   OH2 7757   4.542   5.675   1.620 -0.4086 -0.1258 -0.1361
 2598TIP3    H1 7758   4.622   5.721   1.647 -0.0880  0.3345 -1.7810
 2598TIP3    H2 7759   4.564   5.582   1.628  0.4758 -0.0043 -1.0427
 2599TIP3   OH2 7760   4.617   3.056   0.826 -0.4016 -0.0112 -0.0175
 2599TIP3    H1 7761   4.547   3.101   0.873  1.7135  2.0072  1.4463
 2599TIP3    H2 7762   4.672   3.127   0.791  0.0597 -1.4881 -2.5854
 2600TIP3   OH2 7763   5.666   4.707   3.946 -0.2537  0.0507  0.4082
 2600TIP3    H1 7764   5.707   4.646   4.007 -1.7263  2.6430  4.3994
 2600TIP3    H2 7765   5.740   4.752   3.904  0.8070 -2.3507 -0.4658
 2601TIP3   OH2 7766   2.059   1.166   0.935  0.7397  0.3418 -0.3340
 2601TIP3    H1 7767   2.132   1.204   0.984  1.3606  0.8153 -1.5974
 2601TIP3    H2 7768   2.067   1.202   0.847 -2.1409  2.0019 -0.0699
 2602TIP3   OH2 7769   1.848   5.328   1.200  0.6272 -0.6905  0.2435
 2602TIP3    H1 7770   1.798   5.406   1.174  0.0844  0.2484  3.6895
 2602TIP3    H2 7771   1.931   5.337   1.153  0.6268  2.0547  0.6264
 2603TIP3   OH2 7772   1.293   3.988   5.836 -0.3386 -0.4431 -0.1171
 2603TIP3    H1 7773   1.364   4.046   5.806 -0.7328 -0.3682 -0.9329
 2603TIP3    H2 7774   1.238   3.976   5.759 -2.1586  0.8414  0.9102
 2604TIP3   OH2 7775   0.804   5.962   5.533 -0.2407  0.4049 -0.4514
 2604TIP3    H1 7776   0.828   6.014   5.610  1.1072  1.0838 -1.2952
 2604TIP3    H2 7777   0.887   5.937   5.494 -0.8969  0.2233 -1.7979
 2605TIP3   OH2 7778   0.379   1.607   1.171 -0.2167 -0.5136  0.2993
 2605TIP3    H1 7779   0.367   1.648   1.256 -1.2056 -2.0647  0.9463
 2605TIP3    H2 7780   0.464   1.564   1.176  0.2288  0.3315  0.0883
 2606TIP3   OH2 7781   4.515   1.035   5.742 -0.2166 -0.2144  0.1359
 2606TIP3    H1 7782   4.475   1.056   5.657  0.5207 -0.1287 -0.1913
 2606TIP3    H2 7783   4.462   0.962   5.775 -0.6602 -0.0916 -0.2806
 2607TIP3   OH2 7784   5.160   0.088   2.469 -0.0622 -0.5728  0.1328
 2607TIP3    H1 7785   5.073   0.113   2.497 -0.0394  0.9408 -0.9893
 2607TIP3    H2 7786   5.152  -0.004   2.442 -0.8707 -0.9665  1.6345
 2608TIP3   OH2 7787   3.618   1.511   0.879  0.3231 -0.0969 -0.7195
 2608TIP3    H1 7788   3.604   1.602   0.905 -0.3149  0.3060 -2.3895
 2608TIP3    H2 7789   3.531   1.478   0.857  0.3477 -1.5545  1.1122
 2609TIP3   OH2 7790   6.402   2.380   1.328  0.5579 -0.5643  0.1538
 2609TIP3    H1 7791   6.490   2.353   1.300  0.7072 -0.4161  0.4741
 2609TIP3    H2 7792   6.352   2.299   1.329  1.3676 -1.1125  2.4735
 2610TIP3   OH2 7793   4.197   4.362   4.299  0.0039  0.0482  0.2576
 2610TIP3    H1 7794   4.139   4.436   4.317 -1.4229 -1.0830  0.5518
 2610TIP3    H2 7795   4.182   4.341   4.207 -0.7982 -0.8449  0.5804
 2611TIP3   OH2 7796   3.387   1.452   3.017 -0.0909  0.0515 -0.5812
 2611TIP3    H1 7797   3.321   1.472   2.950  0.2828 -0.1563 -1.0219
 2611TIP3    H2 7798   3.358   1.499   3.095  0.3513  1.6692 -1.3513
 2612TIP3   OH2 7799   6.474   2.381   1.733  0.2386  0.5271  0.7432
 2612TIP3    H1 7800   6.425   2.443   1.679 -0.0983  1.0860  1.6737
 2612TIP3    H2 7801   6.481   2.302   1.678 -1.2820  0.5920  0.3985
 2613TIP3   OH2 7802   0.991   6.267   1.426  0.1112  0.2856  0.3662
 2613TIP3    H1 7803   0.900   6.239   1.439  0.5133 -0.2063  2.4715
 2613TIP3    H2 7804   1.003   6.264   1.331 -1.9598  0.0494  0.0486
 2614TIP3   OH2 7805   4.563   0.241   3.622  0.6323  0.1703 -0.0612
 2614TIP3    H1 7806   4.475   0.204   3.618  0.6651  0.0240  0.4984
 2614TIP3    H2 7807   4.583   0.265   3.532  0.9212 -1.9019 -0.6022
 2615TIP3   OH2 7808   5.170   0.305   0.657  0.2578 -0.0274  0.2484
 2615TIP3    H1 7809   5.221   0.356   0.594 -0.8138  1.7515  0.7423
 2615TIP3    H2 7810   5.221   0.225   0.671  2.7121  1.5028  0.4476
 2616TIP3   OH2 7811   6.595   5.773   0.436 -0.1823 -0.2573 -0.1671
 2616TIP3    H1 7812   6.604   5.722   0.355  1.5782  0.5780 -0.5516
 2616TIP3    H2 7813   6.653   5.848   0.423 -1.6358  1.1267  0.9532
 2617TIP3   OH2 7814   2.563   0.326   0.436  0.2230 -0.2074 -0.3135
 2617TIP3    H1 7815   2.619   0.363   0.368 -0.6299  1.1937 -0.2986
 2617TIP3    H2 7816   2.623   0.279   0.494  1.1884  0.0770 -1.0502
 2618TIP3   OH2 7817   4.700   2.519   1.789  0.4863  0.3763 -0.5195
 2618TIP3    H1 7818   4.670   2.486   1.874 -1.6843 -2.0225 -2.0611
 2618TIP3    H2 7819   4.789   2.483   1.780 -0.0299 -1.0957 -0.0802
 2619TIP3   OH2 7820   0.335   0.062   0.291 -0.3982 -0.5372  0.1213
 2619TIP3    H1 7821   0.337   0.155   0.270 -1.6684 -0.3730  0.6734
 2619TIP3    H2 7822   0.303   0.058   0.381 -0.9036 -1.5329 -0.0899
 2620TIP3   OH2 7823   0.969   1.181   5.531  0.6520 -0.1097  0.1360
 2620TIP3    H1 7824   1.014   1.206   5.450 -0.0170 -0.1089 -0.2430
 2620TIP3    H2 7825   0.889   1.137   5.502  0.6753 -0.6122  0.8015
 2621TIP3   OH2 7826   1.637   2.053   2.821  0.0757  0.3616 -0.3224
 2621TIP3    H1 7827   1.716   2.000   2.827  1.2185  2.1373  2.2068
 2621TIP3    H2 7828   1.586   2.030   2.898 -2.3834 -1.2890 -2.2781
 2622TIP3   OH2 7829   0.528   4.317   1.652  0.1529  0.2472 -0.0771
 2622TIP3    H1 7830   0.553   4.330   1.743 -1.3909  0.2548  0.3623
 2622TIP3    H2 7831   0.583   4.379   1.603  1.9689 -0.7110  0.6786
 2623TIP3   OH2 7832   6.720   4.891   5.170 -0.5133 -0.3009  0.2838
 2623TIP3    H1 7833   6.767   4.971   5.193 -2.6433  1.1438 -0.1516
 2623TIP3    H2 7834   6.783   4.841   5.118  0.3798  1.8126 -0.7857
 2624TIP3   OH2 7835   2.387   5.608   4.390  0.2850  0.1596 -0.0545
 2624TIP3    H1 7836   2.339   5.594   4.309 -0.9540  0.2878  0.6315
 2624TIP3    H2 7837   2.470   5.562   4.378 -0.4994 -1.0889 -0.8266
 2625TIP3   OH2 7838   6.072   3.598   0.145  0.4559  0.1273  0.2670
 2625TIP3    H1 7839   6.161   3.564   0.148  0.7328  0.8483  0.2914
 2625TIP3    H2 7840   6.048   3.612   0.237  0.6577  0.8054  0.2189
 2626TIP3   OH2 7841   1.925   2.927   2.615 -0.2506 -0.2718  0.2102
 2626TIP3    H1 7842   1.916   2.911   2.521  0.3767  0.3984  0.0246
 2626TIP3    H2 7843   2.012   2.893   2.636 -1.7994 -4.0810  1.3873
 2627TIP3   OH2 7844   2.816   3.145   0.928  0.4252 -0.9588  0.1585
 2627TIP3    H1 7845   2.860   3.098   0.998 -0.2044  0.7952  1.8376
 2627TIP3    H2 7846   2.886   3.171   0.868  1.9304  2.0084  2.8834
 2628TIP3   OH2 7847   2.538   2.119   0.313 -0.5308  0.6537 -0.2303
 2628TIP3    H1 7848   2.540   2.024   0.324  2.1676  0.2163 -2.9061
 2628TIP3    H2 7849   2.597   2.152   0.380  1.0831  0.0106 -1.2579
 2629TIP3   OH2 7850   3.715   5.527   0.757 -0.0594 -0.1510  0.3954
 2629TIP3    H1 7851   3.680   5.599   0.809  0.3431  0.9714 -0.8206
 2629TIP3    H2 7852   3.690   5.448   0.804  0.2448  0.8058  2.2336
 2630TIP3   OH2 7853   5.142   3.991   4.973  0.0451 -0.0667  0.8497
 2630TIP3    H1 7854   5.100   3.911   5.006  1.1698 -1.7454 -1.4529
 2630TIP3    H2 7855   5.235   3.968   4.969  0.4282  1.4978  0.4366
 2631TIP3   OH2 7856   3.100   3.291   4.533 -0.5913 -0.0075  0.4431
 2631TIP3    H1 7857   3.097   3.224   4.602  0.5573 -1.0793 -0.4969
 2631TIP3    H2 7858   3.025   3.269   4.477 -0.1129 -0.6672  0.0347
 2632TIP3   OH2 7859   3.710   0.112   1.590  0.2773  0.2291  0.1406
 2632TIP3    H1 7860   3.798   0.140   1.565  0.4046  0.0688  0.4008
 2632TIP3    H2 7861   3.716   0.017   1.598  0.4481  0.3294  1.5210
 2633TIP3   OH2 7862   4.273   6.737   4.664  0.6421 -0.0950  0.0379
 2633TIP3    H1 7863   4.272   6.827   4.697 -0.3711  0.0377 -0.3063
 2633TIP3    H2 7864   4.285   6.683   4.742 -1.2715  0.2357  0.6357
 2634TIP3   OH2 7865   5.026   4.647   4.607 -0.3693 -0.6595  0.8819
 2634TIP3    H1 7866   5.012   4.552   4.606  0.6292 -0.8166  1.0878
 2634TIP3    H2 7867   5.101   4.661   4.550 -0.6180  0.0297  0.7200
 2635TIP3   OH2 7868   4.189   6.336   2.759 -0.2278 -0.2148  0.4196
 2635TIP3    H1 7869   4.167   6.245   2.779 -0.2582 -0.5582 -1.0833
 2635TIP3    H2 7870   4.208   6.336   2.665 -2.4892  1.7408 -0.1267
 2636TIP3   OH2 7871   4.977   5.092   1.378 -0.0638 -0.5907 -0.0710
 2636TIP3    H1 7872   4.980   5.009   1.331 -2.0141 -1.1242  0.6540
 2636TIP3    H2 7873   4.916   5.146   1.327  1.3077  0.4819 -0.6252
 2637TIP3   OH2 7874   3.751   0.637   0.250  0.0672  0.4037 -0.1927
 2637TIP3    H1 7875   3.686   0.687   0.298 -1.8619 -2.0624 -0.0682
 2637TIP3    H2 7876   3.751   0.550   0.290  1.8874 -0.3262 -1.5835
 2638TIP3   OH2 7877   5.125   4.600   1.979  0.1703  0.6079  0.5311
 2638TIP3    H1 7878   5.054   4.539   1.998  0.1510  0.3722 -0.2519
 2638TIP3    H2 7879   5.204   4.548   1.988  0.0774 -0.2765 -2.5199
 2639TIP3   OH2 7880   4.035   2.088   2.527  0.8147 -0.0909 -0.1705
 2639TIP3    H1 7881   4.028   2.157   2.461 -1.0172  0.9624  1.0202
 2639TIP3    H2 7882   3.944   2.063   2.545  1.3156 -1.0184  1.2698
 2640TIP3   OH2 7883   3.645   0.512   3.449 -0.0035  0.2627 -0.2153
 2640TIP3    H1 7884   3.651   0.590   3.504 -0.9023  0.7254 -0.7499
 2640TIP3    H2 7885   3.673   0.542   3.362  0.4354 -0.2189 -0.2480
 2641TIP3   OH2 7886   2.016   4.171   2.055 -0.4382  0.0620  0.2755
 2641TIP3    H1 7887   2.062   4.136   1.979 -0.8137  0.6809 -0.2432
 2641TIP3    H2 7888   1.927   4.188   2.024 -1.0893 -1.2563  1.3079
 2642TIP3   OH2 7889   3.237   0.983   3.656  0.0393 -0.4628  0.7722
 2642TIP3    H1 7890   3.241   1.046   3.584  0.7626 -1.0597  0.2827
 2642TIP3    H2 7891   3.289   1.023   3.726 -0.2942 -0.0889  0.8128
 2643TIP3   OH2 7892   3.184   2.498   0.376 -0.0767  0.2911  0.1763
 2643TIP3    H1 7893   3.251   2.519   0.441  1.2483 -3.0535  0.0400
 2643TIP3    H2 7894   3.139   2.421   0.411 -0.3110 -0.7259 -2.1632
 2644TIP3   OH2 7895   6.678   2.158   3.537  0.2785 -0.0657 -0.3047
 2644TIP3    H1 7896   6.697   2.251   3.547 -1.9093  0.3898 -0.0029
 2644TIP3    H2 7897   6.718   2.135   3.453  0.5892  1.2117 -0.5331
 2645TIP3   OH2 7898   1.120   4.067   4.466  0.5984 -0.5910 -0.4092
 2645TIP3    H1 7899   1.082   4.083   4.379  0.8969  0.2148 -0.3979
 2645TIP3    H2 7900   1.124   3.972   4.473  0.5211 -0.6657 -1.2579
 2646TIP3   OH2 7901   6.156   4.916   3.210 -0.3928 -0.2886 -0.0208
 2646TIP3    H1 7902   6.097   4.934   3.136 -1.4359 -0.2104  0.8023
 2646TIP3    H2 7903   6.146   4.993   3.267  1.1052  0.0812 -0.2211
 2647TIP3   OH2 7904   5.381   4.442   2.947 -0.0817 -0.5562 -0.0266
 2647TIP3    H1 7905   5.340   4.369   2.994 -0.9396 -0.1584 -0.1376
 2647TIP3    H2 7906   5.454   4.402   2.900 -0.7612 -1.4239 -0.3739
 2648TIP3   OH2 7907   2.106   5.887   5.032  0.2535 -0.1860  0.0829
 2648TIP3    H1 7908   2.014   5.882   5.006  0.2840  0.9070 -0.2802
 2648TIP3    H2 7909   2.152   5.916   4.953  0.8471 -0.2704  0.3899
 2649TIP3   OH2 7910   2.844   2.957   1.206  0.4403 -0.2251 -0.4016
 2649TIP3    H1 7911   2.826   2.862   1.204 -0.1158 -0.1397  0.1304
 2649TIP3    H2 7912   2.761   2.996   1.233  1.3734  0.1979  2.1098
 2650TIP3   OH2 7913   3.979   3.720   4.581 -0.4784 -0.6559  0.1232
 2650TIP3    H1 7914   3.925   3.652   4.540 -0.3966  0.1522 -1.4234
 2650TIP3    H2 7915   4.063   3.676   4.597 -1.0769 -1.4825  1.0992
 2651TIP3   OH2 7916   3.274   2.930   5.408 -0.0327  0.5357  0.1066
 2651TIP3    H1 7917   3.289   2.847   5.363 -1.9261 -0.4831  1.2632
 2651TIP3    H2 7918   3.351   2.941   5.465  0.0046 -0.6792  0.3052
 2652TIP3   OH2 7919   1.868   3.464   4.063 -0.1824 -0.0886 -0.3265
 2652TIP3    H1 7920   1.912   3.435   4.143  0.5132 -0.9223 -0.9918
 2652TIP3    H2 7921   1.874   3.560   4.066 -1.3364 -0.0292  1.2456
 2653TIP3   OH2 7922   4.861   0.632   1.821 -0.2788 -0.7113 -0.0043
 2653TIP3    H1 7923   4.921   0.667   1.755 -1.9109 -0.2834 -1.3298
 2653TIP3    H2 7924   4.823   0.554   1.780 -2.0314  0.0904  0.0126
 2654TIP3   OH2 7925   0.377   4.312   3.564  0.1706 -0.1747 -0.4286
 2654TIP3    H1 7926   0.472   4.307   3.553  0.2111  0.3198 -0.2880
 2654TIP3    H2 7927   0.363   4.387   3.621 -0.2879 -0.4264 -0.2110
 2655TIP3   OH2 7928   2.643   0.226   5.353  1.1228 -0.5413  0.4051
 2655TIP3    H1 7929   2.560   0.253   5.390  0.5307 -0.1999 -1.1049
 2655TIP3    H2 7930   2.639   0.130   5.352  1.1206 -0.5515  1.1357
 2656TIP3   OH2 7931   3.483   1.936   2.589 -0.2742  0.2183 -0.3038
 2656TIP3    H1 7932   3.468   1.964   2.499  3.2022  0.5866 -0.9015
 2656TIP3    H2 7933   3.513   2.014   2.634  0.8749 -0.5864  0.3733
 2657TIP3   OH2 7934   6.299   6.350   2.754  0.0798 -0.1008  0.0329
 2657TIP3    H1 7935   6.297   6.442   2.779  1.9871 -0.1954  0.7419
 2657TIP3    H2 7936   6.249   6.306   2.823  1.4343  0.1584  1.2475
 2658TIP3   OH2 7937   0.457   6.047   0.974  0.0969  0.5655 -0.5711
 2658TIP3    H1 7938   0.475   6.048   0.880  2.0972  0.1000 -0.2378
 2658TIP3    H2 7939   0.369   6.010   0.981  0.0495  0.2769 -2.2384
 2659TIP3   OH2 7940   5.353   2.422   2.557 -0.1493  0.3058  0.1293
 2659TIP3    H1 7941   5.350   2.494   2.494  1.9605 -2.2293 -3.2183
 2659TIP3    H2 7942   5.272   2.374   2.542  0.0837  0.0284 -0.2602
 2660TIP3   OH2 7943   0.022   4.854   5.160  0.3883 -0.8634  0.6063
 2660TIP3    H1 7944   0.076   4.803   5.221  1.2131  1.9073  2.3318
 2660TIP3    H2 7945  -0.042   4.897   5.215  0.6719  1.1420 -0.5411
 2661TIP3   OH2 7946   2.914   2.265   5.323 -0.1573  0.0562 -0.6238
 2661TIP3    H1 7947   2.871   2.188   5.360  4.5594 -1.9908  1.3430
 2661TIP3    H2 7948   2.961   2.233   5.247 -0.6416  1.8252 -1.7403
 2662TIP3   OH2 7949   6.574   0.152   5.090  0.4489 -0.0374 -0.2771
 2662TIP3    H1 7950   6.651   0.123   5.139 -0.7030 -1.0319  1.0021
 2662TIP3    H2 7951   6.570   0.247   5.105  1.4743  0.0433 -0.4700
 2663TIP3   OH2 7952   6.584   0.441   3.520 -0.0019 -0.2297 -0.5205
 2663TIP3    H1 7953   6.584   0.499   3.444 -0.8367  0.9706  0.3631
 2663TIP3    H2 7954   6.675   0.439   3.549  0.2396 -0.3340 -1.2735
 2664TIP3   OH2 7955   1.593   6.630   5.626 -0.1641  0.1036  0.3431
 2664TIP3    H1 7956   1.672   6.585   5.655 -0.4468 -0.4512  0.2609
 2664TIP3    H2 7957   1.550   6.568   5.567 -0.7736  0.3130  0.5572
 2665TIP3   OH2 7958   5.527   5.532   5.077  0.1369  0.2625  0.2318
 2665TIP3    H1 7959   5.464   5.460   5.073  0.3042  0.1211  0.1194
 2665TIP3    H2 7960   5.590   5.513   5.007  0.0728  0.6218  0.0706
 2666TIP3   OH2 7961   2.463   6.218   1.256  0.0373  0.5727 -0.6131
 2666TIP3    H1 7962   2.518   6.225   1.334 -0.0382 -0.9169 -0.3860
 2666TIP3    H2 7963   2.522   6.181   1.189 -0.4162 -0.0613 -0.6670
 2667TIP3   OH2 7964   1.736   5.367   5.025 -0.5754  0.1027 -0.3496
 2667TIP3    H1 7965   1.740   5.298   5.091  0.8460 -0.0740 -0.5848
 2667TIP3    H2 7966   1.643   5.385   5.014 -0.8689 -0.2146  1.3299
 2668TIP3   OH2 7967   3.989   1.917   3.809  0.7747  0.1171  0.0951
 2668TIP3    H1 7968   3.989   1.846   3.744  1.4472 -1.3606  1.6389
 2668TIP3    H2 7969   4.060   1.975   3.780 -0.0139  0.3855 -1.3869
 2669TIP3   OH2 7970   6.080   5.908   1.276 -0.1517 -0.3150 -0.1192
 2669TIP3    H1 7971   6.036   5.947   1.352  1.0784 -0.0079  0.4512
 2669TIP3    H2 7972   6.046   5.957   1.201 -0.4869  0.1679  0.3420
 2670TIP3   OH2 7973   5.573   5.016   4.351  0.5309  0.1145 -0.1864
 2670TIP3    H1 7974   5.654   4.983   4.389  0.8572  0.0225 -0.9350
 2670TIP3    H2 7975   5.534   4.939   4.307  0.9084  0.5239 -1.2809
 2671TIP3   OH2 7976   6.636   0.526   5.515  0.2555 -0.2621  0.2318
 2671TIP3    H1 7977   6.545   0.544   5.541 -0.2346  0.2693 -1.7173
 2671TIP3    H2 7978   6.686   0.598   5.554 -0.0228 -0.8664  1.8030
 2672TIP3   OH2 7979   3.357   1.427   4.073 -0.2709  0.3024 -0.2635
 2672TIP3    H1 7980   3.297   1.363   4.111  0.1204  0.2377  0.2395
 2672TIP3    H2 7981   3.361   1.498   4.137  0.9485 -0.1327  0.1565
 2673TIP3   OH2 7982   0.361   6.468   0.609 -0.3593 -0.2638  0.2104
 2673TIP3    H1 7983   0.376   6.514   0.527 -2.4584 -0.6569 -0.4513
 2673TIP3    H2 7984   0.430   6.401   0.612  0.6645  0.7271 -0.4469
 2674TIP3   OH2 7985   2.465   5.936   0.484 -0.2923 -0.2483 -0.0868
 2674TIP3    H1 7986   2.477   5.901   0.572  1.1159 -2.2106 -0.9852
 2674TIP3    H2 7987   2.402   5.876   0.443 -0.2736  0.1313 -0.6781
 2675TIP3   OH2 7988   4.302   4.445   3.115 -0.3728 -0.2116  1.0549
 2675TIP3    H1 7989   4.315   4.407   3.202 -0.8235 -0.9091  0.8236
 2675TIP3    H2 7990   4.278   4.536   3.132 -3.5754 -1.0856  1.8217
 2676TIP3   OH2 7991   0.131   4.715   3.980 -0.3355  0.3112  0.3030
 2676TIP3    H1 7992   0.172   4.638   4.021  1.1861 -0.3780 -2.3002
 2676TIP3    H2 7993   0.168   4.790   4.027  2.1641 -0.4023 -0.3896
 2677TIP3   OH2 7994   5.407   4.918   0.810  0.2483  0.1381  0.2575
 2677TIP3    H1 7995   5.402   4.863   0.888  0.5904 -0.3415 -0.0568
 2677TIP3    H2 7996   5.419   5.007   0.844 -1.0800  0.1418  0.7869
 2678TIP3   OH2 7997   2.181   1.203   1.181 -0.4740 -0.1709 -0.2458
 2678TIP3    H1 7998   2.107   1.169   1.230 -1.5670  0.6484 -1.2411
 2678TIP3    H2 7999   2.256   1.153   1.211 -0.9880  0.5379  2.5211
 2679TIP3   OH2 8000   5.796   3.779   0.923  0.1350  0.5029  0.7738
 2679TIP3    H1 8001   5.823   3.871   0.926  0.1473  0.5317  0.0040
 2679TIP3    H2 8002   5.799   3.750   1.014  0.1035  1.2715  1.0252
 2680TIP3   OH2 8003   4.984   1.646   4.934  0.4181  0.2519 -0.3381
 2680TIP3    H1 8004   4.941   1.606   4.859 -0.0239 -0.4141  0.2461
 2680TIP3    H2 8005   4.946   1.733   4.941  0.1662  0.1665 -0.6480
 2681TIP3   OH2 8006   6.305   5.415   3.388 -0.2295  0.0475 -0.0934
 2681TIP3    H1 8007   6.365   5.482   3.422  1.1330 -2.1484  2.2182
 2681TIP3    H2 8008   6.234   5.412   3.453 -0.5356 -0.4202 -0.4436
 2682TIP3   OH2 8009   3.262   4.332   2.888 -0.5491 -1.1729 -0.1908
 2682TIP3    H1 8010   3.293   4.273   2.957 -0.8698  0.1987  1.1746
 2682TIP3    H2 8011   3.174   4.299   2.867 -0.3932 -1.6879 -0.0647
 2683TIP3   OH2 8012   2.938   4.388   0.168  0.4154 -0.8167  0.0663
 2683TIP3    H1 8013   2.967   4.442   0.242  1.8399 -1.1182 -0.2478
 2683TIP3    H2 8014   2.938   4.448   0.093 -1.4348 -0.4030  0.3409
 2684TIP3   OH2 8015   1.941   0.211   5.651  0.1272  0.1731 -0.0838
 2684TIP3    H1 8016   1.992   0.228   5.571 -0.6098 -0.7843 -0.7713
 2684TIP3    H2 8017   1.850   0.224   5.624 -0.1113  0.1077  0.6843
 2685TIP3   OH2 8018   7.105   1.014   3.264  0.3535 -0.0615 -0.0231
 2685TIP3    H1 8019   7.153   1.092   3.293 -1.3523  1.1538 -0.2627
 2685TIP3    H2 8020   7.014   1.031   3.290 -0.0479 -2.0570  0.0329
 2686TIP3   OH2 8021   0.083   0.142   0.718  0.3756  0.3930  0.3955
 2686TIP3    H1 8022   0.108   0.096   0.799 -0.3871  1.0874  1.0430
 2686TIP3    H2 8023   0.073   0.233   0.745  0.5212  0.7008 -0.5854
 2687TIP3   OH2 8024   2.114   2.841   0.657 -0.0187 -0.2762  0.4559
 2687TIP3    H1 8025   2.075   2.757   0.632 -0.0864  0.1488 -0.9266
 2687TIP3    H2 8026   2.141   2.828   0.748 -0.2757 -1.7071  0.3565
 2688TIP3   OH2 8027   3.760   3.267   5.520  0.0586 -0.2506  0.0195
 2688TIP3    H1 8028   3.676   3.258   5.476  1.2002  0.8832 -2.5470
 2688TIP3    H2 8029   3.822   3.291   5.451  2.8455 -2.5372  1.5061
 2689TIP3   OH2 8030   5.399   3.092   5.885  0.2139  0.6643 -0.1583
 2689TIP3    H1 8031   5.357   3.146   5.818 -0.3798  0.3532 -0.0389
 2689TIP3    H2 8032   5.483   3.135   5.900 -0.2792  1.6085 -0.0114
 2690TIP3   OH2 8033   2.967   3.756   1.626  0.4802 -0.3705  0.2736
 2690TIP3    H1 8034   2.963   3.849   1.601 -4.0542  0.3255  2.5545
 2690TIP3    H2 8035   3.029   3.754   1.699 -0.5789  1.2916  1.2935
 2691TIP3   OH2 8036   4.579   4.565   2.704  0.8879 -0.1906 -0.0821
 2691TIP3    H1 8037   4.495   4.524   2.728  0.2034  1.0275 -0.3072
 2691TIP3    H2 8038   4.613   4.600   2.786  1.1209 -0.5892 -0.0091
 2692TIP3   OH2 8039   1.895   5.930   5.243  0.4300 -0.1799 -0.3460
 2692TIP3    H1 8040   1.812   5.964   5.209  1.3351  1.2847 -1.1889
 2692TIP3    H2 8041   1.947   5.912   5.165  0.8238 -1.3917  0.1639
 2693TIP3   OH2 8042   4.302   4.988   3.603 -0.4830  1.0449  0.2363
 2693TIP3    H1 8043   4.342   4.933   3.670 -0.8868  1.4001  0.7713
 2693TIP3    H2 8044   4.375   5.041   3.570  0.1253 -0.4355 -0.9584
 2694TIP3   OH2 8045   3.545   1.535   5.295  0.3803  0.5335  0.4817
 2694TIP3    H1 8046   3.525   1.567   5.383 -0.3029  0.8161  0.2277
 2694TIP3    H2 8047   3.624   1.583   5.270  0.3154  0.7895  0.7640
 2695TIP3   OH2 8048   1.865   4.845   2.638  0.2745  0.5604  0.1728
 2695TIP3    H1 8049   1.810   4.874   2.710  1.8258  1.5125  1.0326
 2695TIP3    H2 8050   1.899   4.760   2.666  0.1853  0.5257  0.1739
 2696TIP3   OH2 8051   6.620   6.467   4.230  0.1726 -0.0893 -0.2835
 2696TIP3    H1 8052   6.667   6.384   4.228  0.9912  0.3759 -0.8257
 2696TIP3    H2 8053   6.580   6.476   4.144  0.5470  0.3364 -0.4162
 2697TIP3   OH2 8054   2.824   0.823   4.443 -0.0075  0.2571  0.5529
 2697TIP3    H1 8055   2.856   0.876   4.370 -0.9377  1.3389  0.9124
 2697TIP3    H2 8056   2.773   0.754   4.401 -1.1047  1.2698  0.1931
 2698TIP3   OH2 8057   4.386   5.175   0.348 -0.0410 -0.2775  0.7082
 2698TIP3    H1 8058   4.379   5.241   0.279  2.1769 -0.4424  0.2605
 2698TIP3    H2 8059   4.296   5.143   0.360 -0.6862  0.6954 -1.1433
 2699TIP3   OH2 8060   6.654   4.962   1.203 -0.2197 -0.0435  0.0754
 2699TIP3    H1 8061   6.717   4.947   1.274  1.7208  0.8076 -1.3639
 2699TIP3    H2 8062   6.657   4.881   1.151  0.4062  0.3249 -0.4851
 2700TIP3   OH2 8063   6.108   2.674   0.505 -0.1189 -0.4146 -0.6912
 2700TIP3    H1 8064   6.050   2.747   0.489  1.3307  0.8966 -0.2438
 2700TIP3    H2 8065   6.158   2.664   0.424 -0.4758 -1.0634 -0.8334
 2701TIP3   OH2 8066   5.769   5.190   3.579  0.2091  0.6697  0.2583
 2701TIP3    H1 8067   5.761   5.259   3.513 -2.1678  0.3782  0.1441
 2701TIP3    H2 8068   5.789   5.237   3.660 -0.0587  1.3753 -0.0743
 2702TIP3   OH2 8069   4.855   2.922   1.284 -0.1680 -0.0837 -0.2381
 2702TIP3    H1 8070   4.901   2.851   1.238 -1.0448 -1.7147  1.2631
 2702TIP3    H2 8071   4.776   2.880   1.318 -0.2614  1.4074  1.4859
 2703TIP3   OH2 8072   6.459   0.792   4.694 -0.6143 -0.1174 -0.0123
 2703TIP3    H1 8073   6.531   0.736   4.665 -1.0478 -1.0106  0.5675
 2703TIP3    H2 8074   6.385   0.732   4.704 -0.9427  0.4667  1.2007
 2704TIP3   OH2 8075   2.651   6.059   1.749  0.1573  0.2541 -0.3644
 2704TIP3    H1 8076   2.670   6.038   1.841 -1.4186  1.0614  0.1739
 2704TIP3    H2 8077   2.737   6.066   1.708  0.8994  0.1131  1.0991
 2705TIP3   OH2 8078   4.615   4.853   0.139  0.3596 -0.5348  0.0110
 2705TIP3    H1 8079   4.550   4.902   0.090 -0.2653  0.1910  1.4969
 2705TIP3    H2 8080   4.625   4.770   0.092  1.0987  0.7793 -2.3115
 2706TIP3   OH2 8081   1.651   1.689   3.306 -0.0586  0.2159  0.6456
 2706TIP3    H1 8082   1.693   1.760   3.355  1.9150  0.4684 -1.2545
 2706TIP3    H2 8083   1.601   1.733   3.238  3.8961  0.0731 -2.7816
 2707TIP3   OH2 8084   6.400   5.072   3.893  0.1172  0.4094  0.6028
 2707TIP3    H1 8085   6.490   5.105   3.890 -0.4678  2.1685  1.2677
 2707TIP3    H2 8086   6.364   5.108   3.974 -1.2017 -0.2396  0.3277
 2708TIP3   OH2 8087   0.250   0.576   3.207 -0.3270 -0.3445 -0.2659
 2708TIP3    H1 8088   0.213   0.495   3.240 -0.9443  0.5195  1.2739
 2708TIP3    H2 8089   0.278   0.624   3.285  1.6790  0.1734 -1.2283
 2709TIP3   OH2 8090   5.311   2.469   0.088  0.1799 -0.1701  0.5810
 2709TIP3    H1 8091   5.246   2.434   0.149  0.1399 -1.5200 -0.2101
 2709TIP3    H2 8092   5.262   2.530   0.033 -0.2048 -0.4613  0.5973
 2710TIP3   OH2 8093   4.726   3.664   4.979  0.4956 -0.1459  0.3678
 2710TIP3    H1 8094   4.727   3.684   5.072  1.3549 -1.5965  0.6832
 2710TIP3    H2 8095   4.654   3.602   4.969  1.2492 -1.0274  0.3051
 2711TIP3   OH2 8096   0.576   0.290   5.569  0.2191 -0.4357 -0.3124
 2711TIP3    H1 8097   0.658   0.340   5.568 -0.0765  0.1120  1.1461
 2711TIP3    H2 8098   0.527   0.322   5.493  0.6755  0.3967 -0.2631
 2712TIP3   OH2 8099   4.378   6.411   4.028  0.1403  0.1646  0.0841
 2712TIP3    H1 8100   4.425   6.445   3.952 -0.0205 -0.8280 -0.4679
 2712TIP3    H2 8101   4.328   6.337   3.995  0.0355 -0.2618  1.1497
 2713TIP3   OH2 8102   5.417   1.885   1.803 -0.4454  0.6049  0.1131
 2713TIP3    H1 8103   5.439   1.844   1.719 -0.5061  0.4115  0.1900
 2713TIP3    H2 8104   5.324   1.905   1.795 -0.4923  0.4275  0.1984
 2714TIP3   OH2 8105   1.111   6.651   1.396 -0.5894  0.1493  0.3370
 2714TIP3    H1 8106   1.166   6.724   1.367 -0.9182  0.3761  0.2828
 2714TIP3    H2 8107   1.021   6.683   1.387 -0.7770 -0.5983 -0.6288
 2715TIP3   OH2 8108   3.257   1.315   5.280  0.5195 -0.1649 -0.2092
 2715TIP3    H1 8109   3.210   1.295   5.199  1.9169  1.2091 -1.4416
 2715TIP3    H2 8110   3.303   1.397   5.261  1.9641 -0.5060  1.5168
 2716TIP3   OH2 8111   1.551   3.009   2.686 -0.4128 -0.3672 -0.2274
 2716TIP3    H1 8112   1.621   3.019   2.750  0.0713  0.6180 -0.8909
 2716TIP3    H2 8113   1.519   2.919   2.700 -1.3892  0.3058  2.4178
 2717TIP3   OH2 8114   3.244   6.353   0.987  0.2988  0.3438  0.1206
 2717TIP3    H1 8115   3.190   6.276   1.007 -1.3724  1.7014  1.1800
 2717TIP3    H2 8116   3.323   6.341   1.039 -0.9462  0.4095  2.1207
 2718TIP3   OH2 8117   3.035   1.647   0.830  0.2161 -0.3806  0.0380
 2718TIP3    H1 8118   3.036   1.598   0.912 -2.9227  0.2115  0.5614
 2718TIP3    H2 8119   2.942   1.650   0.806  0.8375  1.2667 -2.4418
 2719TIP3   OH2 8120   2.235   2.952   0.030  0.8070  0.4402 -0.0030
 2719TIP3    H1 8121   2.265   2.991   0.112  0.4555  0.0789  0.3004
 2719TIP3    H2 8122   2.294   2.878   0.016  0.4634  0.1146  0.2605
 2720TIP3   OH2 8123   2.038   0.817   5.017  0.0618 -0.2336  0.1364
 2720TIP3    H1 8124   1.997   0.749   4.964  0.5694 -0.2670 -0.2168
 2720TIP3    H2 8125   1.966   0.875   5.041 -0.1640 -0.1876 -0.6345
 2721TIP3   OH2 8126   0.386   1.978   0.472 -0.6773 -0.1594 -0.7007
 2721TIP3    H1 8127   0.466   2.031   0.474 -1.2209  0.6839  0.8902
 2721TIP3    H2 8128   0.417   1.887   0.473  0.2671  0.1560  0.0992
 2722TIP3   OH2 8129   2.574   3.069   1.299 -0.3450  0.0285 -0.0576
 2722TIP3    H1 8130   2.583   3.110   1.385 -0.1516 -1.1234  0.4847
 2722TIP3    H2 8131   2.492   3.020   1.304 -0.9424  0.8768 -0.9424
 2723TIP3   OH2 8132   2.667   0.710   1.805  0.0176  0.1357 -0.0187
 2723TIP3    H1 8133   2.592   0.744   1.756 -0.4717 -2.2420 -1.0775
 2723TIP3    H2 8134   2.628   0.661   1.878  0.5950  0.0310  0.2264
 2724TIP3   OH2 8135   5.925   5.860   2.941  0.5423  0.2022 -0.6129
 2724TIP3    H1 8136   5.988   5.791   2.924 -0.1253 -0.5523 -0.1344
 2724TIP3    H2 8137   5.959   5.905   3.019 -0.0584 -0.9347  0.3500
 2725TIP3   OH2 8138   5.338   2.819   4.304  0.4351  0.1483  0.2786
 2725TIP3    H1 8139   5.326   2.836   4.398 -0.6864 -1.4386  0.4677
 2725TIP3    H2 8140   5.432   2.827   4.291  0.6034  0.4959  1.5320
 2726TIP3   OH2 8141   3.906   1.670   2.562 -0.1253 -0.1563  0.0968
 2726TIP3    H1 8142   3.812   1.681   2.574 -0.0894 -0.4145  0.6738
 2726TIP3    H2 8143   3.931   1.739   2.501 -0.3879  1.0704  1.3264
 2727TIP3   OH2 8144   4.845   5.144   0.668  0.1230 -0.2390 -0.3977
 2727TIP3    H1 8145   4.937   5.169   0.661  0.3171  0.2749  2.5782
 2727TIP3    H2 8146   4.796   5.226   0.659 -0.0455 -0.4630 -1.6428
 2728TIP3   OH2 8147   6.716   0.995   0.477 -0.5514 -0.3334 -0.4934
 2728TIP3    H1 8148   6.707   1.020   0.569 -0.8212 -0.4683 -0.4833
 2728TIP3    H2 8149   6.745   1.075   0.434 -0.3996 -0.2754 -0.2883
 2729TIP3   OH2 8150   4.371   3.936   4.343  0.2392 -0.2099 -0.0280
 2729TIP3    H1 8151   4.332   3.869   4.287 -0.1824 -0.5990  0.7274
 2729TIP3    H2 8152   4.435   3.979   4.286 -0.7675 -0.0327 -1.0677
 2730TIP3   OH2 8153   3.757   3.149   1.045 -0.1446  0.6427 -0.2246
 2730TIP3    H1 8154   3.757   3.244   1.056 -0.2552  0.6339 -0.1539
 2730TIP3    H2 8155   3.722   3.135   0.957 -3.3661  0.5141  0.9574
 2731TIP3   OH2 8156   0.737   5.626   0.294  0.9419 -0.7060 -0.4103
 2731TIP3    H1 8157   0.726   5.701   0.236  0.7069 -0.9916 -0.7378
 2731TIP3    H2 8158   0.763   5.664   0.378 -2.2647  0.0626  0.3948
 2732TIP3   OH2 8159   5.815   1.797   5.564  0.0340  0.2676  0.1161
 2732TIP3    H1 8160   5.838   1.715   5.608 -0.2876  0.4052  0.5526
 2732TIP3    H2 8161   5.736   1.777   5.514 -0.0578  0.3105  0.2407
 2733TIP3   OH2 8162   5.041   4.391   3.861 -0.2372 -0.1140 -0.2142
 2733TIP3    H1 8163   5.050   4.315   3.919 -0.6675  0.0457  0.0691
 2733TIP3    H2 8164   5.016   4.463   3.918  2.7501  0.9210 -0.0814
 2734TIP3   OH2 8165   0.764   2.306   0.638  0.4860  0.2168 -0.6315
 2734TIP3    H1 8166   0.669   2.302   0.631  0.5029  0.0029 -0.7587
 2734TIP3    H2 8167   0.796   2.267   0.556  0.6792 -0.6351 -0.1635
 2735TIP3   OH2 8168   0.790   3.259   2.231 -0.4888  0.4224 -0.3997
 2735TIP3    H1 8169   0.845   3.222   2.162 -0.1717  1.9077 -0.9980
 2735TIP3    H2 8170   0.705   3.272   2.190 -1.1589 -1.3066  0.3509
 2736TIP3   OH2 8171   3.899   5.216   0.748  0.7745 -0.1905  0.1291
 2736TIP3    H1 8172   3.816   5.211   0.796  0.2826  0.4141 -0.6325
 2736TIP3    H2 8173   3.966   5.211   0.816  0.1094 -0.2738  0.7931
 2737TIP3   OH2 8174   1.609   0.536   2.902 -0.1667 -0.5008 -0.1535
 2737TIP3    H1 8175   1.567   0.474   2.960 -3.0405  1.8771  0.5412
 2737TIP3    H2 8176   1.539   0.570   2.846  1.0306  2.5908 -0.0147
 2738TIP3   OH2 8177   6.454   3.664   3.746 -0.0473 -0.5949 -0.4700
 2738TIP3    H1 8178   6.398   3.673   3.669 -1.8240 -1.7587  0.6071
 2738TIP3    H2 8179   6.394   3.640   3.816  1.5214  0.4111  1.2992
 2739TIP3   OH2 8180   0.781   5.807   0.110 -0.3738 -0.3944 -0.2355
 2739TIP3    H1 8181   0.765   5.826   0.017  1.6615 -1.6742 -0.9422
 2739TIP3    H2 8182   0.828   5.883   0.142 -1.6574  0.3416 -0.0400
 2740TIP3   OH2 8183   4.284   3.074   4.761  0.1082 -0.1308  0.7683
 2740TIP3    H1 8184   4.332   3.015   4.818 -0.3434 -0.3297  0.9504
 2740TIP3    H2 8185   4.308   3.162   4.792  2.2841 -0.1269 -0.7311
 2741TIP3   OH2 8186   6.296   2.830   4.500 -0.5450 -0.0292 -0.4985
 2741TIP3    H1 8187   6.372   2.831   4.442 -0.9000  1.7240 -0.9758
 2741TIP3    H2 8188   6.271   2.737   4.505  2.0278 -0.7611  0.2532
 2742TIP3   OH2 8189   6.290   0.754   3.909  0.6387 -0.0091 -0.3150
 2742TIP3    H1 8190   6.231   0.808   3.962  1.1110  0.8449 -0.6352
 2742TIP3    H2 8191   6.355   0.722   3.971  0.1330 -0.5493 -0.0512
 2743TIP3   OH2 8192   0.293   5.933   3.166  0.1694  0.2437 -0.0591
 2743TIP3    H1 8193   0.256   6.021   3.157  1.1691  0.8585  1.5123
 2743TIP3    H2 8194   0.386   5.944   3.147  0.7613  0.0320  2.4214
 2744TIP3   OH2 8195   4.166   3.848   0.515  0.8796  0.0690  0.1640
 2744TIP3    H1 8196   4.142   3.794   0.440 -1.3993  1.5393 -0.2519
 2744TIP3    H2 8197   4.128   3.934   0.497  0.5851  0.6012  2.8194
 2745TIP3   OH2 8198   4.148   0.059   3.246 -0.6288  0.6422 -0.0453
 2745TIP3    H1 8199   4.104  -0.002   3.305 -0.2877 -0.6739 -1.1154
 2745TIP3    H2 8200   4.220   0.094   3.298 -0.8391  0.1580  0.5895
 2746TIP3   OH2 8201   2.193   1.475   1.112 -0.5923 -0.0004 -0.1049
 2746TIP3    H1 8202   2.110   1.491   1.066 -1.2170  0.5812  1.1691
 2746TIP3    H2 8203   2.192   1.381   1.131 -2.2219  0.4157  2.1649
 2747TIP3   OH2 8204   0.904   5.316   3.896 -0.0314  0.0595 -0.5724
 2747TIP3    H1 8205   0.900   5.407   3.866 -1.3290 -0.1055 -0.9905
 2747TIP3    H2 8206   0.820   5.302   3.939  0.1506 -0.9433 -0.5254
 2748TIP3   OH2 8207   4.120   1.451   3.125  0.1525 -0.3713  0.1292
 2748TIP3    H1 8208   4.138   1.365   3.087  1.2871  0.0801 -0.4238
 2748TIP3    H2 8209   4.200   1.474   3.172  0.5292  1.0868 -1.1379
 2749TIP3   OH2 8210   0.798   0.432   5.595 -0.3783  0.1338 -0.3223
 2749TIP3    H1 8211   0.880   0.439   5.645  0.1011  1.2499 -1.2133
 2749TIP3    H2 8212   0.757   0.517   5.605 -3.1047 -1.3431  2.7650
 2750TIP3   OH2 8213   3.723   5.427   4.717 -0.4881  0.3037 -0.1220
 2750TIP3    H1 8214   3.755   5.465   4.635 -2.3135  0.4055 -0.8179
 2750TIP3    H2 8215   3.629   5.444   4.717 -0.8128 -1.2785  1.1517
 2751TIP3   OH2 8216   6.734   4.576   3.255  0.1891 -0.8662 -0.0145
 2751TIP3    H1 8217   6.676   4.606   3.326  0.6378  0.0178 -0.0051
 2751TIP3    H2 8218   6.795   4.516   3.297 -0.6965 -1.8047 -0.0206
 2752TIP3   OH2 8219   0.605   5.062   3.909 -0.0699 -0.6053  0.1550
 2752TIP3    H1 8220   0.655   5.103   3.838 -0.5828 -0.1708  0.0390
 2752TIP3    H2 8221   0.558   4.990   3.868 -0.0544 -0.6063  0.1391
 2753TIP3   OH2 8222   3.022   4.823   3.266  0.3790  0.3036  0.4854
 2753TIP3    H1 8223   2.985   4.898   3.313  0.3963  1.8079 -1.7206
 2753TIP3    H2 8224   3.090   4.861   3.210  1.9883 -1.7354  0.9639
 2754TIP3   OH2 8225   5.733   4.079   4.284  0.1686 -0.0928 -0.6046
 2754TIP3    H1 8226   5.705   4.068   4.375 -0.0944  0.1252 -0.6584
 2754TIP3    H2 8227   5.763   3.993   4.257 -0.1452 -0.2531 -0.4424
 2755TIP3   OH2 8228   3.959   6.071   0.009  0.5701  0.3549 -0.1961
 2755TIP3    H1 8229   3.928   6.150  -0.036 -1.0062 -0.2211 -0.2072
 2755TIP3    H2 8230   3.938   6.086   0.101 -0.2407 -0.2441 -0.2682
 2756TIP3   OH2 8231   1.417   0.183   4.342 -0.2574  0.1445 -0.4147
 2756TIP3    H1 8232   1.366   0.106   4.366 -0.9754 -0.7546 -4.1321
 2756TIP3    H2 8233   1.497   0.148   4.303 -0.3311  1.2601 -1.6446
 2757TIP3   OH2 8234   0.734   0.576   1.264  0.0335  0.2641 -0.0680
 2757TIP3    H1 8235   0.711   0.484   1.278 -0.9683  0.4182 -0.5868
 2757TIP3    H2 8236   0.822   0.585   1.300 -0.0126 -0.8052  0.3368
 2758TIP3   OH2 8237   0.286   1.717   5.834 -0.5269  0.0169 -0.3082
 2758TIP3    H1 8238   0.204   1.675   5.858 -0.1248 -0.3457  0.4675
 2758TIP3    H2 8239   0.261   1.803   5.801 -1.2822 -0.4264 -0.9204
 2759TIP3   OH2 8240   1.698   1.239   5.450  0.1707  0.2051  0.0447
 2759TIP3    H1 8241   1.699   1.282   5.536 -0.7174  0.2189  0.0598
 2759TIP3    H2 8242   1.705   1.145   5.470 -0.6753  0.1662  0.1730
 2760TIP3   OH2 8243   0.084   1.600   4.727 -0.4360 -0.3665  0.3352
 2760TIP3    H1 8244   0.019   1.630   4.663 -0.0822  1.7326  0.8902
 2760TIP3    H2 8245   0.084   1.504   4.717 -1.4151 -0.2170 -1.7771
 2761TIP3   OH2 8246   3.983   5.935   5.725  0.0419 -0.3255 -0.2579
 2761TIP3    H1 8247   4.031   5.896   5.651  1.1476  0.6086 -0.0569
 2761TIP3    H2 8248   3.992   5.871   5.795  1.5213  0.0783 -0.0451
 2762TIP3   OH2 8249   4.284   6.132   5.515 -0.1872  0.2402  0.1107
 2762TIP3    H1 8250   4.364   6.130   5.567 -0.1102 -1.1682 -0.0163
 2762TIP3    H2 8251   4.251   6.042   5.519 -1.0606  0.4956 -0.9011
 2763TIP3   OH2 8252   4.077   1.391   5.625  0.6442  0.0451  0.0079
 2763TIP3    H1 8253   4.072   1.402   5.720  0.6042 -0.9630  0.1276
 2763TIP3    H2 8254   4.029   1.467   5.590  0.6525  0.4171  0.7847
 2764TIP3   OH2 8255   1.966   5.987   0.722 -0.0890 -0.1994  0.1653
 2764TIP3    H1 8256   2.005   6.021   0.641  1.7964 -0.6531  0.8239
 2764TIP3    H2 8257   1.920   6.062   0.759 -1.5530 -0.1431 -1.6054
 2765TIP3   OH2 8258   3.561   6.399   4.538 -0.4585  0.2949  0.4893
 2765TIP3    H1 8259   3.527   6.396   4.448  1.0920  0.5621 -0.1265
 2765TIP3    H2 8260   3.618   6.323   4.545  0.0945  0.7483  0.9659
 2766TIP3   OH2 8261   6.299   6.788   5.394  0.1269  0.1058 -0.0828
 2766TIP3    H1 8262   6.350   6.825   5.322 -0.7855 -0.7341 -1.1993
 2766TIP3    H2 8263   6.229   6.739   5.351  0.1781 -1.3098  1.3696
 2767TIP3   OH2 8264   2.876   4.123   2.234 -0.2286 -0.3806  0.3698
 2767TIP3    H1 8265   2.867   4.135   2.140  1.3183  0.0855  0.2609
 2767TIP3    H2 8266   2.943   4.055   2.244  0.0532 -0.0049  1.1357
 2768TIP3   OH2 8267   6.211   2.218   0.392  0.0311 -0.3557 -0.2869
 2768TIP3    H1 8268   6.257   2.288   0.439 -1.3444  0.3710  0.0537
 2768TIP3    H2 8269   6.185   2.156   0.460 -1.5378  0.4521 -0.1059
 2769TIP3   OH2 8270   3.699   4.349   2.985  0.7118 -0.2904 -0.6841
 2769TIP3    H1 8271   3.745   4.393   2.914  0.1570  0.2550 -0.7103
 2769TIP3    H2 8272   3.658   4.273   2.944  0.2432  0.1214 -0.9847
 2770TIP3   OH2 8273   6.129   4.048   0.487  0.1328  0.4119 -0.5581
 2770TIP3    H1 8274   6.206   3.993   0.500 -0.5435 -0.6952 -1.0525
 2770TIP3    H2 8275   6.164   4.133   0.462  1.2448  0.6039  1.4738
 2771TIP3   OH2 8276   0.262   2.322   4.445  0.0382 -0.1522 -0.0518
 2771TIP3    H1 8277   0.270   2.411   4.479 -0.0050 -0.7657  1.6414
 2771TIP3    H2 8278   0.186   2.326   4.387 -0.1220  0.8537  0.2027
 2772TIP3   OH2 8279   1.892   3.187   5.392  0.6754  0.1438 -0.3799
 2772TIP3    H1 8280   1.834   3.263   5.387  1.5989  0.8543 -0.5845
 2772TIP3    H2 8281   1.862   3.130   5.321  0.9179  1.0119 -1.2088
 2773TIP3   OH2 8282   1.149   5.215   3.696  0.3688  0.4939 -0.5951
 2773TIP3    H1 8283   1.114   5.202   3.608 -0.7275 -2.1378  0.1226
 2773TIP3    H2 8284   1.071   5.235   3.749  1.2115  3.9268 -0.4050
 2774TIP3   OH2 8285   3.119   0.226   2.305  0.1457 -0.2491 -0.4647
 2774TIP3    H1 8286   3.056   0.176   2.357 -0.8487  0.3567 -1.0517
 2774TIP3    H2 8287   3.127   0.176   2.224  2.5057 -1.7755  0.5768
 2775TIP3   OH2 8288   2.616   3.215   2.610  0.1415  0.3755  0.1334
 2775TIP3    H1 8289   2.657   3.299   2.587 -1.0767  0.8301 -0.4358
 2775TIP3    H2 8290   2.523   3.227   2.590 -0.4140 -0.4182  2.0006
 2776TIP3   OH2 8291   2.557   4.145   4.414 -0.5084 -0.0319  0.4677
 2776TIP3    H1 8292   2.604   4.062   4.416  0.3716  0.4660  1.2235
 2776TIP3    H2 8293   2.605   4.198   4.350 -1.0072 -0.0647  0.0613
 2777TIP3   OH2 8294   0.558   6.281   0.547 -0.3145  0.1833  0.1971
 2777TIP3    H1 8295   0.576   6.216   0.479 -1.1929 -1.1611  1.2172
 2777TIP3    H2 8296   0.632   6.342   0.542  0.6398 -1.0110 -0.6486
 2778TIP3   OH2 8297   0.583   5.453   0.650 -0.5451  0.7814  0.1345
 2778TIP3    H1 8298   0.499   5.490   0.624 -0.9625  0.3236  0.7983
 2778TIP3    H2 8299   0.621   5.420   0.569 -0.7412  1.5108 -0.2596
 2779TIP3   OH2 8300   2.026   5.228   5.684  0.2011 -0.3139 -0.1683
 2779TIP3    H1 8301   1.973   5.271   5.751 -0.3147 -0.5707 -0.4057
 2779TIP3    H2 8302   2.097   5.289   5.667 -0.8673  0.7695 -0.9691
 2780TIP3   OH2 8303   2.630   1.578   3.259  0.0351  0.4422  0.7740
 2780TIP3    H1 8304   2.714   1.578   3.214  1.7304 -0.7382  3.6357
 2780TIP3    H2 8305   2.603   1.670   3.260  0.9333  0.7544 -0.7609
 2781TIP3   OH2 8306   7.000   3.117   4.798  0.7046 -0.2462 -0.1945
 2781TIP3    H1 8307   6.925   3.092   4.745  0.6595  1.0932 -0.8083
 2781TIP3    H2 8308   6.964   3.132   4.886  0.6807 -1.8918  0.1052
 2782TIP3   OH2 8309   0.514   0.304   2.647  0.0328  0.6478 -0.1260
 2782TIP3    H1 8310   0.447   0.258   2.597 -0.6699  1.6497 -0.1313
 2782TIP3    H2 8311   0.486   0.297   2.738  1.4978 -1.4872  0.2413
 2783TIP3   OH2 8312   1.438   6.239   1.716  0.0138  0.0280 -0.0184
 2783TIP3    H1 8313   1.432   6.298   1.641  0.7155  0.0057 -0.1000
 2783TIP3    H2 8314   1.518   6.266   1.761 -1.2483  1.1258  1.6598
 2784TIP3   OH2 8315   4.244   2.365   1.078  0.3868  0.2139  0.3218
 2784TIP3    H1 8316   4.321   2.420   1.065 -0.4336  1.2374 -0.4039
 2784TIP3    H2 8317   4.279   2.282   1.109  1.8214  0.4749 -0.5001
 2785TIP3   OH2 8318   1.510   4.078   3.069 -0.3652 -0.6292  0.4397
 2785TIP3    H1 8319   1.593   4.033   3.060 -0.4767 -0.9861  1.1652
 2785TIP3    H2 8320   1.484   4.065   3.160 -1.0478 -0.2331  0.3149
 2786TIP3   OH2 8321   3.116   1.295   5.020 -0.6168 -0.5670  0.0715
 2786TIP3    H1 8322   3.099   1.229   4.952  0.9560  0.5904 -1.5404
 2786TIP3    H2 8323   3.195   1.340   4.990  0.7397 -0.6355  3.2025
 2787TIP3   OH2 8324   5.773   0.845   3.021  0.3508 -0.5060  0.2129
 2787TIP3    H1 8325   5.786   0.844   2.926  0.9604 -0.6752  0.2912
 2787TIP3    H2 8326   5.861   0.856   3.057  0.2154 -1.2098  0.7790
 2788TIP3   OH2 8327   4.254   3.749   1.166  0.3409  0.3856 -0.2218
 2788TIP3    H1 8328   4.257   3.723   1.258  2.2031  1.9933  0.2200
 2788TIP3    H2 8329   4.333   3.801   1.153  1.2836 -1.5670 -3.2858
 2789TIP3   OH2 8330   5.886   5.785   3.592  0.8081 -0.9890  0.4491
 2789TIP3    H1 8331   5.830   5.757   3.664  0.2829  0.9243  0.8444
 2789TIP3    H2 8332   5.906   5.877   3.611  1.2395 -0.6360 -1.4773
 2790TIP3   OH2 8333   6.298   5.869   4.897 -0.7780  0.2867  0.5706
 2790TIP3    H1 8334   6.234   5.813   4.942 -0.1389 -1.4092 -0.5235
 2790TIP3    H2 8335   6.377   5.862   4.949  0.3016 -2.5562 -1.1978
 2791TIP3   OH2 8336   1.542   5.995   0.267  0.2683  0.2034  0.3135
 2791TIP3    H1 8337   1.580   5.927   0.211  0.4143  0.9592 -0.5370
 2791TIP3    H2 8338   1.455   5.963   0.288  0.4485 -0.3875  0.1767
 2792TIP3   OH2 8339   7.127   3.583   2.731  0.2540 -0.2267 -1.0041
 2792TIP3    H1 8340   7.222   3.586   2.740  0.1872 -0.8386 -0.0375
 2792TIP3    H2 8341   7.105   3.661   2.679  1.0697  1.1616  0.6535
 2793TIP3   OH2 8342   0.890   0.506   4.333  0.0897  0.5678 -0.1279
 2793TIP3    H1 8343   0.962   0.463   4.287  0.0480 -0.2718  0.5557
 2793TIP3    H2 8344   0.834   0.541   4.263 -1.1003 -2.4978 -0.8512
 2794TIP3   OH2 8345   4.528   1.381   4.009  0.3010 -0.0912 -0.0412
 2794TIP3    H1 8346   4.439   1.390   4.043 -0.0242 -0.3485 -0.7957
 2794TIP3    H2 8347   4.566   1.310   4.061  0.0526 -0.0176  0.2459
 2795TIP3   OH2 8348   5.259   0.614   4.737 -0.3835 -0.4401  0.2146
 2795TIP3    H1 8349   5.255   0.690   4.678 -0.6966 -1.2775 -0.8790
 2795TIP3    H2 8350   5.195   0.552   4.701 -0.1542 -1.2157  1.1003
 2796TIP3   OH2 8351   6.723   5.755   4.731 -0.1643  0.8444 -0.3067
 2796TIP3    H1 8352   6.632   5.725   4.734 -0.4736  1.7507 -0.4686
 2796TIP3    H2 8353   6.737   5.779   4.639 -0.4284  2.7005  0.1102
 2797TIP3   OH2 8354   0.782   1.873   3.573 -0.1820 -0.0362 -0.4510
 2797TIP3    H1 8355   0.846   1.853   3.641 -0.4467  1.3507  0.2310
 2797TIP3    H2 8356   0.820   1.948   3.526  0.3559 -1.4160 -2.3491
 2798TIP3   OH2 8357   3.828   3.104   4.098  0.2340  0.0171  0.4879
 2798TIP3    H1 8358   3.839   3.009   4.091 -0.6868 -0.1145  0.6525
 2798TIP3    H2 8359   3.798   3.131   4.011 -2.4600 -0.3141  1.2156
 2799TIP3   OH2 8360   3.570   2.418   3.063 -0.5925  0.0516  0.2310
 2799TIP3    H1 8361   3.550   2.481   3.132 -0.0774  0.0407  0.3949
 2799TIP3    H2 8362   3.644   2.366   3.098  0.5186  0.8736 -0.8179
 2800TIP3   OH2 8363   4.398   0.288   1.365  0.6684  0.0598  0.0759
 2800TIP3    H1 8364   4.398   0.269   1.272 -0.5486  1.3163 -0.2151
 2800TIP3    H2 8365   4.353   0.214   1.405 -3.4497  1.7817 -0.9462
 2801TIP3   OH2 8366   2.592   5.775   2.104 -0.7526 -0.3811 -0.5888
 2801TIP3    H1 8367   2.589   5.683   2.129 -0.0040 -0.3108 -0.2171
 2801TIP3    H2 8368   2.610   5.773   2.010  1.8885 -0.6358 -0.1695
 2802TIP3   OH2 8369   3.875   4.645   1.498  0.2922  0.5577  0.1695
 2802TIP3    H1 8370   3.855   4.553   1.483  2.2016  0.0031  0.7437
 2802TIP3    H2 8371   3.931   4.646   1.576  0.4680  2.1751  0.0668
 2803TIP3   OH2 8372   4.524   5.562   3.459  0.2804  0.2463  0.5050
 2803TIP3    H1 8373   4.513   5.480   3.411  3.7769  0.1077 -0.3283
 2803TIP3    H2 8374   4.580   5.615   3.403 -0.0964  2.3428  2.0142
 2804TIP3   OH2 8375   2.332   4.180   0.414 -0.0706  0.3641  0.4422
 2804TIP3    H1 8376   2.338   4.107   0.476  1.4017  0.0285 -0.0350
 2804TIP3    H2 8377   2.255   4.160   0.360  2.1298 -2.7921 -1.9313
 2805TIP3   OH2 8378   1.917   1.157   0.037  0.0461 -0.4412 -0.1015
 2805TIP3    H1 8379   1.889   1.129  -0.050  1.4464 -0.6048 -0.5231
 2805TIP3    H2 8380   1.971   1.084   0.069 -1.5675 -1.0139  1.5157
 2806TIP3   OH2 8381   6.356   6.516   0.258 -0.1591  0.0974  0.2359
 2806TIP3    H1 8382   6.263   6.514   0.233 -0.1196 -0.8185  0.1336
 2806TIP3    H2 8383   6.367   6.601   0.300 -1.4912 -0.5305  1.9764
 2807TIP3   OH2 8384   3.379   4.680   0.949  0.0923 -0.0889 -0.0339
 2807TIP3    H1 8385   3.435   4.668   0.872  0.5487 -2.4615  0.5852
 2807TIP3    H2 8386   3.413   4.760   0.991  0.9169  0.2998 -1.3701
 2808TIP3   OH2 8387   5.468   0.519   2.930  0.4337  0.1049  0.1300
 2808TIP3    H1 8388   5.382   0.484   2.907  0.1372  0.9963 -0.1733
 2808TIP3    H2 8389   5.452   0.571   3.009  0.2431  2.0290 -1.1130
 2809TIP3   OH2 8390   3.599   5.941   3.740  0.0474 -0.3585  0.2349
 2809TIP3    H1 8391   3.587   5.907   3.652 -2.3632 -1.7414  0.9990
 2809TIP3    H2 8392   3.540   6.017   3.744 -1.7091 -1.7014  1.2888
 2810TIP3   OH2 8393   2.957   5.253   4.686  0.3343 -0.0966  0.5251
 2810TIP3    H1 8394   2.930   5.270   4.777  0.1435 -0.3066  0.5084
 2810TIP3    H2 8395   3.025   5.186   4.693  0.9992  0.5776  0.5811
 2811TIP3   OH2 8396   6.004   6.706   5.655  0.2382  0.0741  0.1347
 2811TIP3    H1 8397   5.915   6.722   5.686  0.6531  0.8938  0.9393
 2811TIP3    H2 8398   6.022   6.615   5.678 -0.6403 -0.3228 -0.6906
 2812TIP3   OH2 8399   0.391   0.656   4.424 -0.0496  0.1199 -0.3373
 2812TIP3    H1 8400   0.462   0.624   4.478 -1.0643  1.1472  1.7168
 2812TIP3    H2 8401   0.314   0.652   4.480 -1.0379  1.8861 -1.4527
 2813TIP3   OH2 8402   4.093   4.607   4.387  0.6941  0.0867 -0.4432
 2813TIP3    H1 8403   4.145   4.642   4.315  1.2260  1.2954  0.4915
 2813TIP3    H2 8404   4.150   4.613   4.463  0.5900 -2.2940 -0.0871
 2814TIP3   OH2 8405   2.786   3.336   2.914  0.2168  0.6864 -0.1991
 2814TIP3    H1 8406   2.759   3.258   2.865  0.3944  1.0217 -0.8379
 2814TIP3    H2 8407   2.709   3.358   2.966 -0.3827  0.9771 -1.1692
 2815TIP3   OH2 8408   4.013   3.974   4.433  1.0564 -0.1050 -0.1513
 2815TIP3    H1 8409   4.103   3.992   4.460  0.4171  0.7974  1.5364
 2815TIP3    H2 8410   3.985   3.903   4.491  0.5909 -0.1643 -0.4460
 2816TIP3   OH2 8411   6.152   0.209   1.233  0.1943 -0.3029  0.9501
 2816TIP3    H1 8412   6.119   0.121   1.253 -1.0176 -0.4435 -1.2442
 2816TIP3    H2 8413   6.228   0.193   1.176  0.4118  0.0624  1.1365
 2817TIP3   OH2 8414   2.003   0.053   1.437 -0.5484  0.6614  0.0436
 2817TIP3    H1 8415   2.056   0.094   1.368 -0.6196  0.0239 -0.4117
 2817TIP3    H2 8416   1.945  -0.007   1.389  0.2423 -0.7060  0.7411
 2818TIP3   OH2 8417   2.925   4.301   1.711 -0.0110 -0.0127  0.6583
 2818TIP3    H1 8418   2.999   4.262   1.665  0.3588 -0.5332  1.6494
 2818TIP3    H2 8419   2.953   4.391   1.729  0.2495 -0.1054  0.7262
 2819TIP3   OH2 8420   2.792   1.855   2.581  0.3684 -0.7149  0.0908
 2819TIP3    H1 8421   2.861   1.789   2.574 -1.6036 -2.8343 -0.7184
 2819TIP3    H2 8422   2.780   1.886   2.491 -0.4886 -1.1968  0.0355
 2820TIP3   OH2 8423   3.716   6.725   3.131  0.3672 -0.7213 -0.7455
 2820TIP3    H1 8424   3.640   6.667   3.145  0.7162 -1.1773 -0.7132
 2820TIP3    H2 8425   3.747   6.702   3.043 -0.2679  0.3280 -1.2581
 2821TIP3   OH2 8426   0.838   4.519   2.256 -0.1989 -0.2106  0.4735
 2821TIP3    H1 8427   0.833   4.425   2.236 -0.8751  0.0020 -0.4114
 2821TIP3    H2 8428   0.775   4.560   2.197 -0.8433  0.6753  1.7196
 2822TIP3   OH2 8429   3.042   1.594   4.754 -0.2063  0.7675  0.1700
 2822TIP3    H1 8430   3.095   1.519   4.727 -0.8160  0.3812  0.0018
 2822TIP3    H2 8431   3.045   1.592   4.850 -2.4186 -1.1707  0.3016
 2823TIP3   OH2 8432   2.572   5.760   1.799 -0.2454 -0.2142  0.0944
 2823TIP3    H1 8433   2.594   5.829   1.736 -0.9936  0.8747  0.9877
 2823TIP3    H2 8434   2.477   5.752   1.794 -0.1242 -1.6873 -0.4760
 2824TIP3   OH2 8435   5.842   1.440   0.574  0.0753 -0.0758 -0.1239
 2824TIP3    H1 8436   5.875   1.393   0.650  0.5593  0.2888 -0.1068
 2824TIP3    H2 8437   5.823   1.371   0.510 -1.2376 -0.4725  0.6451
 2825TIP3   OH2 8438   6.848   4.732   4.143  0.1331 -0.2086  0.2797
 2825TIP3    H1 8439   6.871   4.641   4.125 -1.4184 -0.1776 -2.3430
 2825TIP3    H2 8440   6.771   4.749   4.088 -1.4490  1.8481  2.8470
 2826TIP3   OH2 8441   1.502   1.511   2.964  0.4119  0.2331  0.2316
 2826TIP3    H1 8442   1.451   1.431   2.955  0.2906  0.2299  0.9086
 2826TIP3    H2 8443   1.531   1.531   2.875 -0.1329 -0.1814 -0.0455
 2827TIP3   OH2 8444   5.453   5.079   4.001 -0.1299  0.4609  0.2903
 2827TIP3    H1 8445   5.410   5.076   3.916 -0.7469 -1.0511  0.6255
 2827TIP3    H2 8446   5.505   5.159   3.999 -0.0065  0.3673 -1.5576
 2828TIP3   OH2 8447   2.575   1.237   3.691  0.1198 -0.0015  0.3455
 2828TIP3    H1 8448   2.557   1.200   3.604 -2.8742  0.5864  0.5894
 2828TIP3    H2 8449   2.637   1.176   3.730  1.1366 -0.5764 -1.9887
 2829TIP3   OH2 8450   2.808   0.960   3.678  0.0661  0.2578 -0.2575
 2829TIP3    H1 8451   2.880   1.023   3.673  0.7619 -0.6124 -2.4084
 2829TIP3    H2 8452   2.826   0.897   3.608 -1.0851 -1.8360  1.2018
 2830TIP3   OH2 8453   0.826   2.973   2.487  0.1758 -0.3735  0.4149
 2830TIP3    H1 8454   0.792   2.937   2.405  0.3466 -0.5646  0.4264
 2830TIP3    H2 8455   0.917   2.996   2.467  0.0510  0.1046  0.3935
 2831TIP3   OH2 8456   3.435   3.754   3.141 -0.0850  0.1981  0.3685
 2831TIP3    H1 8457   3.494   3.828   3.145  0.7811 -0.4862  0.4785
 2831TIP3    H2 8458   3.488   3.682   3.108 -0.6827 -0.5904  1.0710
 2832TIP3   OH2 8459   5.478   2.513   0.534  0.3068 -0.2379  0.3504
 2832TIP3    H1 8460   5.527   2.587   0.570 -0.0231  0.6861 -1.0348
 2832TIP3    H2 8461   5.545   2.461   0.488  0.4067 -0.3589  0.6327
 2833TIP3   OH2 8462   0.088   1.540   3.921 -0.1532 -0.0235 -0.6119
 2833TIP3    H1 8463   0.071   1.546   3.827  1.0284 -0.6313 -0.8754
 2833TIP3    H2 8464   0.179   1.513   3.928 -0.5713 -1.2223  0.6994
 2834TIP3   OH2 8465   3.853   4.114   3.881  0.4784  0.1264 -0.5431
 2834TIP3    H1 8466   3.945   4.134   3.862  0.6556 -1.9851 -2.3337
 2834TIP3    H2 8467   3.856   4.030   3.927 -0.5129  0.6858  0.5904
 2835TIP3   OH2 8468   6.701   2.998   2.504  0.0008  0.2894 -0.0100
 2835TIP3    H1 8469   6.790   2.964   2.514  0.5443  1.5737 -0.3258
 2835TIP3    H2 8470   6.711   3.079   2.454 -1.5245 -0.3475 -1.4144
 2836TIP3   OH2 8471   4.330   1.284   3.429 -0.1977 -0.0755 -0.1595
 2836TIP3    H1 8472   4.418   1.258   3.404 -0.2644  0.0773 -0.5600
 2836TIP3    H2 8473   4.315   1.367   3.383 -0.3333  0.1967  0.3687
 2837TIP3   OH2 8474   3.070   3.726   0.268 -0.2074 -0.0301  0.0258
 2837TIP3    H1 8475   2.976   3.744   0.266 -0.0793  0.7823  0.7129
 2837TIP3    H2 8476   3.081   3.666   0.342 -0.3136 -1.0008 -0.7286
 2838TIP3   OH2 8477   5.922   6.407   4.847 -0.1148 -0.6102  0.3110
 2838TIP3    H1 8478   5.854   6.420   4.913 -0.9089 -0.5547 -0.4992
 2838TIP3    H2 8479   5.878   6.362   4.775  0.9283 -1.3980  0.1398
 2839TIP3   OH2 8480   1.604   1.822   5.423  0.3311 -0.2204  0.2696
 2839TIP3    H1 8481   1.586   1.742   5.374  0.9473  0.2580 -0.7652
 2839TIP3    H2 8482   1.521   1.844   5.465  0.4326 -2.0275  1.5480
 2840TIP3   OH2 8483   3.000   0.542   3.365  0.2753  0.5477  0.3134
 2840TIP3    H1 8484   3.025   0.572   3.278  2.0920 -1.1446  0.1656
 2840TIP3    H2 8485   2.954   0.459   3.350  1.8731 -0.5137  0.9484
 2841TIP3   OH2 8486   1.212   0.865   2.832  0.0143  0.0209 -0.1255
 2841TIP3    H1 8487   1.250   0.930   2.774 -0.0922  0.3466  0.1649
 2841TIP3    H2 8488   1.180   0.915   2.907  0.3546 -0.4122  0.3239
 2842TIP3   OH2 8489   0.988   1.617   0.728  0.1596 -0.4758  0.4758
 2842TIP3    H1 8490   1.049   1.586   0.795  2.2552  0.9472 -0.6310
 2842TIP3    H2 8491   0.972   1.709   0.752 -1.4189 -0.7645  0.6168
 2843TIP3   OH2 8492   3.941   1.623   4.097  0.4585  0.0273 -0.1078
 2843TIP3    H1 8493   3.985   1.597   4.016 -1.4567  0.6460 -1.4141
 2843TIP3    H2 8494   3.866   1.563   4.103 -1.9838  2.7438 -1.2581
 2844TIP3   OH2 8495   2.491   2.425   4.391 -0.2282 -0.4744  0.4116
 2844TIP3    H1 8496   2.585   2.434   4.404 -0.2963 -1.1256  1.3935
 2844TIP3    H2 8497   2.462   2.513   4.366  0.8576 -0.5937 -1.4243
 2845TIP3   OH2 8498   5.710   3.170   5.002  0.2835  1.0109 -0.2341
 2845TIP3    H1 8499   5.802   3.170   4.975  0.4383  1.9063  0.2620
 2845TIP3    H2 8500   5.665   3.119   4.935  1.2258  0.0896 -0.1815
 2846TIP3   OH2 8501   2.482   1.603   4.064  0.0694  0.8869 -0.3737
 2846TIP3    H1 8502   2.387   1.597   4.055 -0.1129  1.5340  0.9367
 2846TIP3    H2 8503   2.513   1.513   4.055 -0.5942  0.7490 -1.4265
 2847TIP3   OH2 8504   7.085   1.788   3.291  0.0074  0.2215  1.0067
 2847TIP3    H1 8505   7.130   1.872   3.295 -0.2135  0.5908 -2.1068
 2847TIP3    H2 8506   7.152   1.725   3.267 -0.5996  0.3863 -1.3575
 2848TIP3   OH2 8507   3.167   1.537   0.028  0.0919  0.1797 -0.4710
 2848TIP3    H1 8508   3.247   1.509   0.071 -0.9817  1.6877  2.7850
 2848TIP3    H2 8509   3.197   1.597  -0.041  1.7674 -0.1844 -0.1041
 2849TIP3   OH2 8510   6.111   3.376   2.348 -0.2938 -0.0423 -0.1633
 2849TIP3    H1 8511   6.164   3.378   2.268 -0.2431  0.9032 -0.1206
 2849TIP3    H2 8512   6.045   3.309   2.330  0.8173 -1.1549 -0.2596
 2850TIP3   OH2 8513   5.055   1.199   1.619 -0.3160 -0.0362  0.2003
 2850TIP3    H1 8514   5.077   1.264   1.686 -0.0376  0.3399 -0.2512
 2850TIP3    H2 8515   5.139   1.175   1.580 -0.5855  0.7937 -0.9645
 2851TIP3   OH2 8516   2.238   0.327   0.096 -0.3597  0.2622 -0.2747
 2851TIP3    H1 8517   2.311   0.265   0.094 -0.4350  0.1903 -0.9833
 2851TIP3    H2 8518   2.237   0.366   0.009 -0.3884  1.1799  0.1165
 2852TIP3   OH2 8519   0.283   1.870   0.967  0.3031 -0.0175  0.5265
 2852TIP3    H1 8520   0.308   1.940   1.027  2.1641 -0.3836  0.2561
 2852TIP3    H2 8521   0.366   1.831   0.940 -0.4900 -0.1322 -1.9875
 2853TIP3   OH2 8522   1.491   0.359   3.422 -0.1610 -0.3955 -0.2842
 2853TIP3    H1 8523   1.557   0.353   3.354 -0.9752 -0.8676 -1.0510
 2853TIP3    H2 8524   1.408   0.350   3.376 -0.8077  0.8509  0.5678
 2854TIP3   OH2 8525   2.434   3.532   5.493 -0.6154  0.3710 -0.0509
 2854TIP3    H1 8526   2.445   3.585   5.572 -0.1963  0.9703 -0.5021
 2854TIP3    H2 8527   2.515   3.482   5.485 -1.0171 -0.3779  0.3854
 2855TIP3   OH2 8528   5.885   4.560   5.483  0.5582  0.9382  0.3871
 2855TIP3    H1 8529   5.806   4.516   5.451  1.1681 -1.0843  1.4881
 2855TIP3    H2 8530   5.853   4.626   5.544 -0.3292 -0.8444  1.9809
 2856TIP3   OH2 8531   4.232   3.729   2.260  0.4583  0.1220  0.3075
 2856TIP3    H1 8532   4.139   3.719   2.243  0.4614  0.8672 -0.1793
 2856TIP3    H2 8533   4.254   3.816   2.225  1.9937 -1.2639 -2.5146
 2857TIP3   OH2 8534   5.606   3.295   3.830  0.2141  0.2513 -0.0339
 2857TIP3    H1 8535   5.675   3.230   3.811  0.5163  0.3720  0.6217
 2857TIP3    H2 8536   5.585   3.333   3.745  0.4946 -0.2528 -0.3353
 2858TIP3   OH2 8537   5.394   3.702   2.618 -0.1361  0.0157  0.2669
 2858TIP3    H1 8538   5.411   3.742   2.533 -1.6148 -0.0636 -0.0941
 2858TIP3    H2 8539   5.299   3.688   2.620  0.0451 -1.3279  1.3306
 2859TIP3   OH2 8540   3.909   1.518   4.416 -0.4127 -0.0241  0.2680
 2859TIP3    H1 8541   3.857   1.524   4.335  1.2947  2.1805 -0.7882
 2859TIP3    H2 8542   3.846   1.539   4.485 -1.6753 -0.8263 -0.5849
 2860TIP3   OH2 8543   6.391   1.755   5.704 -0.7375 -0.1523 -0.1335
 2860TIP3    H1 8544   6.457   1.799   5.757  0.0700 -0.2529 -1.0355
 2860TIP3    H2 8545   6.321   1.734   5.766 -0.1782  0.4496  0.7263
 2861TIP3   OH2 8546   1.689   4.444   1.390  0.5570 -0.1093 -0.4921
 2861TIP3    H1 8547   1.773   4.485   1.367  0.5811  0.1471  0.0365
 2861TIP3    H2 8548   1.685   4.450   1.485 -0.6711  1.1192 -0.5909
 2862TIP3   OH2 8549   4.297   2.200   0.690 -0.0920 -0.3299 -1.0878
 2862TIP3    H1 8550   4.333   2.137   0.627  0.3094 -1.2975  0.0794
 2862TIP3    H2 8551   4.362   2.203   0.760 -1.5094 -0.8785  0.2848
 2863TIP3   OH2 8552   2.048   2.187   5.556  0.4867  0.4460 -0.0111
 2863TIP3    H1 8553   1.999   2.114   5.594  1.1277  0.1614  0.2675
 2863TIP3    H2 8554   2.012   2.265   5.600  0.1592  0.2596  0.0592
 2864TIP3   OH2 8555   1.370   5.039   0.487  0.0682 -0.0429 -0.1746
 2864TIP3    H1 8556   1.365   5.135   0.494  2.0533  0.3573 -2.6110
 2864TIP3    H2 8557   1.282   5.012   0.459 -0.5842  1.0048  0.7703
 2865TIP3   OH2 8558   3.985   2.735   1.981 -0.5823  0.1742  0.0173
 2865TIP3    H1 8559   3.993   2.762   2.072 -1.0824  2.2651 -0.5096
 2865TIP3    H2 8560   3.933   2.654   1.984 -1.3773  0.7089  1.5116
 2866TIP3   OH2 8561   1.028   3.223   1.661  0.2568 -0.0131  0.1454
 2866TIP3    H1 8562   1.121   3.216   1.684  0.4656  0.7138 -0.4451
 2866TIP3    H2 8563   1.026   3.283   1.586 -0.2937 -2.7905 -2.2817
 2867TIP3   OH2 8564   5.356   0.491   5.588 -0.3368  0.0163  0.2329
 2867TIP3    H1 8565   5.302   0.498   5.509 -0.3205  1.8110  0.3444
 2867TIP3    H2 8566   5.293   0.485   5.660 -0.3582 -2.4554  0.0761
 2868TIP3   OH2 8567   3.818   6.140   0.677 -0.1335 -0.7157  0.2083
 2868TIP3    H1 8568   3.739   6.099   0.711 -0.8108  1.1556  1.0381
 2868TIP3    H2 8569   3.822   6.225   0.721  0.7782  0.4464 -1.9587
 2869TIP3   OH2 8570   2.813   5.622   0.303 -0.1088  0.2932 -0.2511
 2869TIP3    H1 8571   2.744   5.655   0.360 -1.5852 -0.6865 -1.3958
 2869TIP3    H2 8572   2.767   5.567   0.240  1.8545 -1.3864 -0.3227
 2870TIP3   OH2 8573   2.644   1.690   1.653 -0.2824 -0.2110 -0.5312
 2870TIP3    H1 8574   2.651   1.628   1.726  1.0886 -0.0159 -0.4680
 2870TIP3    H2 8575   2.629   1.636   1.576  1.6989 -0.7262 -0.5982
 2871TIP3   OH2 8576   3.010   3.067   5.804 -0.5693 -0.2000  0.2923
 2871TIP3    H1 8577   2.983   3.009   5.733  0.8825  0.8524 -1.1799
 2871TIP3    H2 8578   2.930   3.114   5.827 -0.6367  1.1815 -2.3580
 2872TIP3   OH2 8579   4.220   4.494   5.655 -0.2785  0.1770 -0.0743
 2872TIP3    H1 8580   4.223   4.502   5.559 -0.4117 -1.1948 -0.2170
 2872TIP3    H2 8581   4.205   4.583   5.686  0.5600  0.7651 -1.2919
 2873TIP3   OH2 8582   3.678   3.504   3.475 -0.0841  0.1309  0.3718
 2873TIP3    H1 8583   3.593   3.520   3.434 -0.6231  2.2160  2.1502
 2873TIP3    H2 8584   3.742   3.529   3.409 -0.8419 -0.7062 -0.7082
 2874TIP3   OH2 8585   6.310   4.256   4.696  0.3725  0.7269 -0.3362
 2874TIP3    H1 8586   6.351   4.339   4.720  2.1910 -0.7482  2.1244
 2874TIP3    H2 8587   6.379   4.208   4.651  0.4656 -0.6505  1.1838
 2875TIP3   OH2 8588   0.083   1.071   0.521 -0.5951 -0.1409  0.3014
 2875TIP3    H1 8589   0.071   1.022   0.602  0.9474 -2.2255 -0.6465
 2875TIP3    H2 8590   0.177   1.076   0.509 -0.7739  0.9543 -0.9002
 2876TIP3   OH2 8591   1.670   1.491   0.511 -0.5021 -0.4652  0.2856
 2876TIP3    H1 8592   1.762   1.494   0.538 -0.3929 -0.7123 -0.0549
 2876TIP3    H2 8593   1.629   1.565   0.557  0.1420  0.4587 -0.5744
 2877TIP3   OH2 8594   5.409   1.531   5.560  0.3753  0.2577  0.4851
 2877TIP3    H1 8595   5.425   1.623   5.582  0.1031  0.3503  0.2973
 2877TIP3    H2 8596   5.461   1.482   5.623  2.3251  0.5732 -0.7675
 2878TIP3   OH2 8597   4.898   3.187   0.785  0.0132 -0.2533 -0.5852
 2878TIP3    H1 8598   4.915   3.227   0.700 -0.0174  3.3893  0.9407
 2878TIP3    H2 8599   4.879   3.261   0.843 -1.9256 -2.6845  2.1855
 2879TIP3   OH2 8600   4.327   4.101   3.540 -0.3862  0.7255  0.5447
 2879TIP3    H1 8601   4.319   4.098   3.445 -1.4079  0.1890  0.6323
 2879TIP3    H2 8602   4.321   4.194   3.562  1.6420  1.0371 -0.0239
 2880TIP3   OH2 8603   0.209   0.609   4.188 -0.1244  0.1893 -0.5996
 2880TIP3    H1 8604   0.266   0.648   4.255 -1.3000  0.7315  0.1067
 2880TIP3    H2 8605   0.181   0.683   4.134 -2.6092  0.4613  0.9305
 2881TIP3   OH2 8606   3.933   5.818   0.898  0.5224 -0.2712  0.5947
 2881TIP3    H1 8607   3.870   5.792   0.966  1.0097 -0.8756  0.8288
 2881TIP3    H2 8608   3.984   5.739   0.882  1.0813  0.1541  0.2536
 2882TIP3   OH2 8609   0.342   4.401   5.317 -0.0308 -0.1638 -0.0549
 2882TIP3    H1 8610   0.350   4.334   5.385  0.4523 -0.9766 -0.9023
 2882TIP3    H2 8611   0.252   4.433   5.326  0.0378 -0.2151  0.9946
 2883TIP3   OH2 8612   1.055   4.115   0.352  0.3758  0.1939 -0.2892
 2883TIP3    H1 8613   1.040   4.186   0.414 -2.2556 -0.9913  0.5923
 2883TIP3    H2 8614   1.135   4.072   0.384  0.4417  1.0880  0.8164
 2884TIP3   OH2 8615   6.926   3.079   3.585 -0.1420 -0.9106  0.1329
 2884TIP3    H1 8616   6.948   3.087   3.678 -0.3435 -0.5418  0.1524
 2884TIP3    H2 8617   6.849   3.023   3.583 -2.9131  2.5223  0.6010
 2885TIP3   OH2 8618   3.000   0.308   0.264  0.1580 -1.0217  0.1121
 2885TIP3    H1 8619   3.090   0.337   0.252 -0.2900 -0.1637 -1.4007
 2885TIP3    H2 8620   2.962   0.307   0.176 -2.5261  2.8987  0.9353
 2886TIP3   OH2 8621   7.051   2.823   5.556 -0.1780  0.1527  0.1101
 2886TIP3    H1 8622   7.052   2.737   5.513  0.5194  0.0848  0.2559
 2886TIP3    H2 8623   7.022   2.884   5.489  3.0030  0.4248 -1.1786
 2887TIP3   OH2 8624   4.013   3.522   4.354  0.3391 -0.3740 -0.1225
 2887TIP3    H1 8625   4.102   3.491   4.337  0.5485  0.3037 -0.2733
 2887TIP3    H2 8626   3.957   3.452   4.319  0.8055 -0.7236 -0.1868
 2888TIP3   OH2 8627   0.094   0.614   3.592 -0.7835 -0.4212  0.0231
 2888TIP3    H1 8628   0.086   0.678   3.521  0.4229 -1.0588 -0.7078
 2888TIP3    H2 8629   0.108   0.667   3.671 -0.0838  0.2226 -0.5260
 2889TIP3   OH2 8630   1.682   4.920   5.013  0.5437  0.1116 -0.1773
 2889TIP3    H1 8631   1.710   4.831   5.036 -0.8004 -0.3065 -0.0133
 2889TIP3    H2 8632   1.730   4.977   5.073  1.4496 -0.4928 -0.3104
 2890TIP3   OH2 8633   1.733   5.970   1.953  0.2351  0.7790  0.2633
 2890TIP3    H1 8634   1.735   6.061   1.923  3.7177  0.5597 -0.5280
 2890TIP3    H2 8635   1.748   5.918   1.873  1.8019 -0.2719  1.1987
 2891TIP3   OH2 8636   6.894   2.924   4.563 -0.0222  0.1269  0.2079
 2891TIP3    H1 8637   6.839   2.852   4.533  0.4776  0.1307 -0.7840
 2891TIP3    H2 8638   6.871   2.997   4.505  1.6851 -0.1422 -0.9031
 2892TIP3   OH2 8639   3.076   1.982   1.791 -0.0511  0.2658  0.6019
 2892TIP3    H1 8640   3.118   1.896   1.802  1.2266  0.7875  0.0869
 2892TIP3    H2 8641   3.009   1.986   1.858 -0.8283 -1.5521 -0.0121
 2893TIP3   OH2 8642   0.966   4.532   1.242 -0.0425  0.5480 -0.1289
 2893TIP3    H1 8643   0.924   4.594   1.182  0.0227  0.8168  0.1006
 2893TIP3    H2 8644   1.060   4.542   1.224  0.0943  1.7572  1.0789
 2894TIP3   OH2 8645   0.420   5.572   1.671 -0.1596 -0.0105  0.3317
 2894TIP3    H1 8646   0.469   5.592   1.591  0.5627 -0.3148  0.6950
 2894TIP3    H2 8647   0.402   5.657   1.710  1.1998  0.0554  0.8567
 2895TIP3   OH2 8648   1.216   4.408   4.846  0.1093  0.4351 -0.6969
 2895TIP3    H1 8649   1.134   4.436   4.805  0.4078  0.8689 -0.9985
 2895TIP3    H2 8650   1.265   4.367   4.775  0.7893  1.5299 -0.8847
 2896TIP3   OH2 8651   4.272   2.183   3.473  0.0382  0.4717  0.3810
 2896TIP3    H1 8652   4.219   2.235   3.413  0.9179 -0.2566 -1.0849
 2896TIP3    H2 8653   4.296   2.243   3.543 -0.7537  1.4304 -0.1479
 2897TIP3   OH2 8654   3.382   6.092   2.062 -0.2485 -0.6490 -0.0462
 2897TIP3    H1 8655   3.402   6.182   2.039 -0.9876 -0.8194 -1.4347
 2897TIP3    H2 8656   3.464   6.057   2.097  0.2191  0.3598 -0.1197
 2898TIP3   OH2 8657   1.665   2.954   5.292 -0.1730  0.1775  0.7875
 2898TIP3    H1 8658   1.596   3.019   5.299  0.2767  0.8311 -0.5163
 2898TIP3    H2 8659   1.660   2.904   5.374 -1.7067  0.6614  1.0125
 2899TIP3   OH2 8660   6.308   0.270   4.734 -0.0552 -0.3488 -0.2669
 2899TIP3    H1 8661   6.267   0.270   4.647 -0.1885  1.0415 -0.2252
 2899TIP3    H2 8662   6.400   0.248   4.716  0.1150  0.7880 -0.8836
 2900TIP3   OH2 8663   5.650   1.540   4.330 -0.2575  0.4221 -0.2681
 2900TIP3    H1 8664   5.566   1.495   4.333  0.0342 -0.2439 -1.3673
 2900TIP3    H2 8665   5.709   1.486   4.382 -0.0522 -0.1625 -1.0935
 2901TIP3   OH2 8666   2.336   5.140   1.166 -0.0171 -0.2320 -0.2377
 2901TIP3    H1 8667   2.279   5.218   1.171 -0.5859 -0.6379 -0.2731
 2901TIP3    H2 8668   2.418   5.173   1.130 -0.7017  0.1289 -1.5558
 2902TIP3   OH2 8669   4.108   2.988   0.055 -0.1142  0.4335  0.1682
 2902TIP3    H1 8670   4.089   2.909   0.106  1.2143 -1.1786 -1.6801
 2902TIP3    H2 8671   4.023   3.015   0.020 -0.6994  0.3009  1.4176
 2903TIP3   OH2 8672   1.717   4.093   4.762 -0.2618  0.0966  0.2975
 2903TIP3    H1 8673   1.651   4.099   4.831  0.5644  0.1681  1.1107
 2903TIP3    H2 8674   1.799   4.075   4.809  0.6452  1.9166 -0.4996
 2904TIP3   OH2 8675   3.366   4.686   5.113  0.1290 -0.6850  0.6629
 2904TIP3    H1 8676   3.386   4.732   5.195 -1.6483  0.4156  0.5262
 2904TIP3    H2 8677   3.437   4.712   5.054 -0.0846  0.8394  1.0174
 2905TIP3   OH2 8678   1.905   2.752   2.947 -0.1019  0.2778 -0.1361
 2905TIP3    H1 8679   1.819   2.714   2.930  0.5068 -1.2867  0.0889
 2905TIP3    H2 8680   1.945   2.694   3.011  1.1301  0.9616 -0.2466
 2906TIP3   OH2 8681   2.683   0.419   5.821 -0.2392  0.1921 -0.0142
 2906TIP3    H1 8682   2.667   0.482   5.752  1.1368  1.3004  0.6290
 2906TIP3    H2 8683   2.772   0.389   5.807 -0.1403 -0.0094  0.9247
 2907TIP3   OH2 8684   3.193   0.571   4.895  0.0733 -0.2187  0.0537
 2907TIP3    H1 8685   3.238   0.538   4.817 -0.0141 -0.9592  0.3066
 2907TIP3    H2 8686   3.176   0.493   4.947  0.9753  0.3607  1.2704
 2908TIP3   OH2 8687   2.313   2.699   4.514 -0.0075  0.0211 -0.1649
 2908TIP3    H1 8688   2.396   2.680   4.471  0.2372  2.0993 -0.7202
 2908TIP3    H2 8689   2.331   2.774   4.571 -1.7163  1.4290 -1.3178
 2909TIP3   OH2 8690   7.156   6.239   0.965  0.1672 -0.2709 -0.7061
 2909TIP3    H1 8691   7.196   6.229   1.052  0.6978  0.2408 -0.8819
 2909TIP3    H2 8692   7.209   6.183   0.908  1.3040  1.1857 -1.1339
 2910TIP3   OH2 8693   1.331   4.362   2.525 -0.4240  0.4871 -0.1658
 2910TIP3    H1 8694   1.353   4.446   2.485  0.0045 -0.1543 -1.3094
 2910TIP3    H2 8695   1.415   4.322   2.544 -0.6227 -0.0245 -0.3564
 2911TIP3   OH2 8696   6.226   5.083   4.892  0.6567  0.3470 -0.3555
 2911TIP3    H1 8697   6.294   5.090   4.826 -1.5267 -1.3537 -3.0255
 2911TIP3    H2 8698   6.145   5.108   4.847 -1.4684 -3.8809  0.5346
 2912TIP3   OH2 8699   7.072   3.690   1.649  0.1651 -0.0704  0.6540
 2912TIP3    H1 8700   7.121   3.608   1.648  0.8703  0.3424  0.0515
 2912TIP3    H2 8701   7.110   3.740   1.722  0.9871  0.4378 -0.1017
 2913TIP3   OH2 8702   4.527   1.630   3.472  0.1718  0.2392  0.4109
 2913TIP3    H1 8703   4.575   1.653   3.552  0.1340 -2.7742  1.4320
 2913TIP3    H2 8704   4.555   1.540   3.452 -2.4982 -0.4225 -0.8668
 2914TIP3   OH2 8705   4.394   1.679   4.613 -0.3711 -0.1845 -0.5876
 2914TIP3    H1 8706   4.315   1.638   4.579 -0.9091 -0.6529  1.1426
 2914TIP3    H2 8707   4.443   1.608   4.654 -0.7689  0.6338  1.4503
 2915TIP3   OH2 8708   6.504   2.468   3.237  0.3808 -0.4571 -0.1571
 2915TIP3    H1 8709   6.452   2.410   3.182  0.2592 -1.2122  0.7385
 2915TIP3    H2 8710   6.548   2.527   3.175  0.4640 -1.4615 -1.0727
 2916TIP3   OH2 8711   3.324   4.419   0.418  0.4508 -0.1230 -0.2512
 2916TIP3    H1 8712   3.268   4.360   0.367  1.3113 -1.1674 -0.0130
 2916TIP3    H2 8713   3.302   4.399   0.510  0.0156  0.6659 -0.1723
 2917TIP3   OH2 8714   0.505   0.507   2.173  0.0726 -0.2176  0.0996
 2917TIP3    H1 8715   0.567   0.436   2.159 -0.8898 -1.4034  1.5923
 2917TIP3    H2 8716   0.498   0.514   2.268 -0.0906  1.6972 -0.0145
 2918TIP3   OH2 8717   6.987   4.346   1.908  0.6373 -0.1594  0.3541
 2918TIP3    H1 8718   7.056   4.409   1.885  1.4347 -1.3940 -0.7440
 2918TIP3    H2 8719   6.983   4.286   1.834  0.4754 -1.9189  1.7248
 2919TIP3   OH2 8720   3.546   6.276   1.459 -0.0783  0.2233  0.4101
 2919TIP3    H1 8721   3.615   6.313   1.404 -0.1984  0.8324  0.6621
 2919TIP3    H2 8722   3.465   6.310   1.422 -0.4507 -2.0971 -1.1667
 2920TIP3   OH2 8723   6.575   2.605   0.154  0.0552  0.4225 -0.6621
 2920TIP3    H1 8724   6.632   2.541   0.112 -2.0573 -1.1575 -1.3063
 2920TIP3    H2 8725   6.615   2.621   0.240  1.0311 -1.2366 -0.7680
 2921TIP3   OH2 8726   2.363   6.705   1.743 -0.3581  0.0626  0.3433
 2921TIP3    H1 8727   2.337   6.782   1.792  1.2266  1.6410 -1.1494
 2921TIP3    H2 8728   2.416   6.654   1.804  0.5265  1.3574  0.6938
 2922TIP3   OH2 8729   2.102   6.397   2.484  0.5991 -0.1969 -0.0078
 2922TIP3    H1 8730   2.144   6.391   2.398 -0.6984 -1.6943 -0.6005
 2922TIP3    H2 8731   2.022   6.345   2.475 -0.4778  1.0795  1.5924
 2923TIP3   OH2 8732   5.075   4.137   2.469  0.5322  0.5274  0.3155
 2923TIP3    H1 8733   5.102   4.194   2.397  0.2122 -0.1877 -0.3800
 2923TIP3    H2 8734   4.979   4.136   2.465  0.5303  0.1017  0.4536
 2924TIP3   OH2 8735   1.027   3.419   3.874  0.3842  0.0790 -0.1803
 2924TIP3    H1 8736   1.068   3.485   3.817  0.8618  1.0682  1.2689
 2924TIP3    H2 8737   0.984   3.470   3.942  0.0888 -1.1040  0.5345
 2925TIP3   OH2 8738   4.747   6.314   4.495 -0.4939  0.2998  0.0415
 2925TIP3    H1 8739   4.703   6.317   4.410 -1.8519 -1.7503  0.6016
 2925TIP3    H2 8740   4.837   6.289   4.474 -0.5677  0.7157 -0.8437
 2926TIP3   OH2 8741   1.312   6.257   4.293  0.2601 -0.1133 -0.8629
 2926TIP3    H1 8742   1.310   6.322   4.222  2.0446  1.6287  0.5612
 2926TIP3    H2 8743   1.388   6.202   4.272  0.0785 -0.3577 -0.8913
 2927TIP3   OH2 8744   1.639   6.429   4.658 -0.0047 -0.7838 -0.1400
 2927TIP3    H1 8745   1.599   6.367   4.597 -0.9294  0.2347 -0.6163
 2927TIP3    H2 8746   1.630   6.388   4.744  1.3130 -2.2410 -0.6484
 2928TIP3   OH2 8747   2.023   3.258   2.181  0.2563  0.1166  0.9476
 2928TIP3    H1 8748   2.108   3.239   2.142  0.4635 -2.5738  2.4385
 2928TIP3    H2 8749   2.036   3.339   2.230  0.6844  2.1447 -2.2206
 2929TIP3   OH2 8750   1.373   1.005   2.322  0.4608  0.1267  0.0151
 2929TIP3    H1 8751   1.302   0.973   2.266 -1.0330  1.4234  1.0376
 2929TIP3    H2 8752   1.331   1.072   2.376  2.9254  2.4300 -0.7198
 2930TIP3   OH2 8753   1.999   0.131   0.913 -0.2361 -0.4218 -0.0661
 2930TIP3    H1 8754   2.003   0.163   0.823  0.8216  0.6533  0.3252
 2930TIP3    H2 8755   1.906   0.118   0.931 -0.4995 -0.0071 -1.1000
 2931TIP3   OH2 8756   0.622   2.478   1.932 -0.0998  0.7080 -0.5567
 2931TIP3    H1 8757   0.530   2.461   1.952  0.0279  1.5190  0.8626
 2931TIP3    H2 8758   0.625   2.485   1.836 -1.3142 -0.3465 -0.6966
 2932TIP3   OH2 8759   1.768   1.084   1.428 -0.9273 -0.6573 -0.0486
 2932TIP3    H1 8760   1.723   1.168   1.438  0.3377  0.0746 -0.3509
 2932TIP3    H2 8761   1.776   1.051   1.518 -1.4849 -0.4961  0.0657
 2933TIP3   OH2 8762   1.819   0.273   3.700  0.0801  0.1636  0.1728
 2933TIP3    H1 8763   1.863   0.331   3.763  1.0295 -0.6968  0.3240
 2933TIP3    H2 8764   1.744   0.325   3.669  0.7701  1.3901  0.4609
 2934TIP3   OH2 8765   1.651   5.289   4.630  0.1812 -0.0137 -0.0761
 2934TIP3    H1 8766   1.693   5.218   4.581  1.0347  0.8654 -0.6641
 2934TIP3    H2 8767   1.702   5.295   4.711 -0.0280 -0.2119  0.0705
 2935TIP3   OH2 8768   4.002   3.216   1.162  0.2223 -0.2793 -0.1170
 2935TIP3    H1 8769   4.022   3.277   1.090  0.0922 -0.8043 -0.6022
 2935TIP3    H2 8770   3.936   3.157   1.126 -1.5221  0.8117  1.1590
 2936TIP3   OH2 8771   4.285   1.103   4.220 -0.0087  0.0959  0.0725
 2936TIP3    H1 8772   4.225   1.092   4.294  0.5431 -0.0117  0.5087
 2936TIP3    H2 8773   4.257   1.038   4.156 -0.7306  0.4457  0.0244
 2937TIP3   OH2 8774   4.637   1.467   3.209 -0.2650  0.0283 -0.1670
 2937TIP3    H1 8775   4.705   1.428   3.265 -0.8773 -1.2047 -0.2614
 2937TIP3    H2 8776   4.643   1.419   3.127 -0.7593  0.4388 -0.4475
 2938TIP3   OH2 8777   0.841   0.809   0.856  0.1620  0.0912  0.5828
 2938TIP3    H1 8778   0.833   0.739   0.791  0.6445  0.2195  0.3823
 2938TIP3    H2 8779   0.935   0.830   0.858 -0.1602  1.7564 -0.4453
 2939TIP3   OH2 8780   4.727   4.228   1.026  0.0243 -0.4493 -0.0179
 2939TIP3    H1 8781   4.669   4.292   0.986  0.0562 -0.9347 -0.8698
 2939TIP3    H2 8782   4.779   4.193   0.953  0.8294 -0.5982  0.6079
 2940TIP3   OH2 8783   1.759   1.798   1.684 -0.2331 -0.3177  0.2645
 2940TIP3    H1 8784   1.803   1.841   1.611 -1.1943 -0.5143 -0.4416
 2940TIP3    H2 8785   1.685   1.856   1.704  0.4310  0.1178  1.5726
 2941TIP3   OH2 8786   3.075   5.685   1.382 -0.7051 -0.0473  0.0174
 2941TIP3    H1 8787   3.055   5.718   1.470  1.0856 -0.3378  0.5678
 2941TIP3    H2 8788   3.164   5.714   1.365 -0.7844 -0.5797 -1.4403
 2942TIP3   OH2 8789   1.641   2.341   0.039  0.3856  0.8572  0.1762
 2942TIP3    H1 8790   1.715   2.288   0.069  0.6557  0.6216 -0.8821
 2942TIP3    H2 8791   1.567   2.308   0.090  0.8335  0.4738  0.5926
 2943TIP3   OH2 8792   6.530   3.778   0.298 -0.0578 -0.4639  0.0167
 2943TIP3    H1 8793   6.490   3.816   0.220  0.2340  0.4187  0.2944
 2943TIP3    H2 8794   6.456   3.738   0.345 -0.2621 -0.8271 -0.5977
 2944TIP3   OH2 8795   5.190   3.925   2.552  0.1721 -0.3050  0.1651
 2944TIP3    H1 8796   5.229   3.888   2.473  1.0579 -1.2110  1.0001
 2944TIP3    H2 8797   5.152   4.008   2.524 -1.5628 -1.6322 -1.7070
 2945TIP3   OH2 8798   2.625   1.727   4.845  0.2892 -0.3756  0.1895
 2945TIP3    H1 8799   2.696   1.758   4.788  0.6004 -0.3097  0.6089
 2945TIP3    H2 8800   2.655   1.641   4.875  0.9659  0.3443  1.6841
 2946TIP3   OH2 8801   3.021   2.868   3.082 -0.5671 -0.2618  0.9685
 2946TIP3    H1 8802   2.988   2.780   3.098 -0.9386 -0.1424  0.8739
 2946TIP3    H2 8803   3.096   2.855   3.024 -1.7575 -0.3953 -0.6378
 2947TIP3   OH2 8804   2.518   3.794   2.144  0.2102  0.3665 -0.2001
 2947TIP3    H1 8805   2.446   3.857   2.151 -1.6444 -1.2362 -2.6964
 2947TIP3    H2 8806   2.502   3.730   2.214 -0.4027  0.4258 -0.2798
 2948TIP3   OH2 8807   5.071   2.594   2.383 -0.1452  0.2958 -0.0987
 2948TIP3    H1 8808   5.084   2.642   2.466  0.5499  1.1551 -0.6798
 2948TIP3    H2 8809   5.008   2.647   2.335  1.1184  1.0253 -1.0186
 2949TIP3   OH2 8810   4.031   2.724   0.130 -0.7360 -0.1568  0.3852
 2949TIP3    H1 8811   4.086   2.677   0.193 -1.3579 -0.4649  0.7031
 2949TIP3    H2 8812   3.956   2.666   0.115 -0.9977  0.2769 -0.0140
 2950TIP3   OH2 8813   6.699   0.158   4.842  0.4141  0.7216 -0.0055
 2950TIP3    H1 8814   6.787   0.159   4.880  0.2603  1.4751  0.3596
 2950TIP3    H2 8815   6.641   0.162   4.918  0.0143 -1.4278 -0.1491
 2951TIP3   OH2 8816   6.206   5.348   0.444  0.8161 -0.0921 -0.4503
 2951TIP3    H1 8817   6.166   5.385   0.365 -0.2163  0.5611  0.3581
 2951TIP3    H2 8818   6.186   5.254   0.438 -0.5397  0.1647 -0.2531
 2952TIP3   OH2 8819   3.607   2.987   0.473 -0.1296 -0.1346 -0.3567
 2952TIP3    H1 8820   3.689   2.946   0.445  0.6667  0.1859  1.3552
 2952TIP3    H2 8821   3.609   3.074   0.434 -0.8861 -0.9658 -2.3741
 2953TIP3   OH2 8822   1.131   1.621   3.222  0.2474  0.1057 -0.7719
 2953TIP3    H1 8823   1.048   1.667   3.208  1.1176  1.4177 -1.9570
 2953TIP3    H2 8824   1.115   1.533   3.189 -1.1378 -0.1561  0.5259
 2954TIP3   OH2 8825   6.069   5.491   5.265 -0.6201  0.3336  0.0517
 2954TIP3    H1 8826   6.087   5.505   5.358 -1.3056  0.6420  0.1421
 2954TIP3    H2 8827   6.131   5.422   5.239 -1.3105 -0.7122  1.0518
 2955TIP3   OH2 8828   4.351   0.636   0.519  1.1329  0.2889  0.0012
 2955TIP3    H1 8829   4.406   0.566   0.555  0.5752  0.3891  1.1200
 2955TIP3    H2 8830   4.386   0.716   0.557  0.9096  0.4619 -0.1551
 2956TIP3   OH2 8831   4.001   6.013   4.113  0.3024  0.3180 -0.1876
 2956TIP3    H1 8832   3.952   6.034   4.034 -0.3284  0.7261  0.3068
 2956TIP3    H2 8833   3.953   6.055   4.184  1.2032  0.4909  0.3446
 2957TIP3   OH2 8834   6.417   5.124   4.698  0.0552  0.4758  0.2027
 2957TIP3    H1 8835   6.395   5.216   4.686  3.5847  1.2458 -1.7633
 2957TIP3    H2 8836   6.441   5.093   4.611  0.0987 -1.9963  1.0102
 2958TIP3   OH2 8837   4.893   6.052   5.648  0.6592  0.1142  0.2975
 2958TIP3    H1 8838   4.826   6.043   5.580 -0.9622  0.8293  1.7298
 2958TIP3    H2 8839   4.960   5.988   5.624  0.8824  1.3459 -2.7756
 2959TIP3   OH2 8840   0.656   0.618   1.561  0.2791 -0.1834  0.1710
 2959TIP3    H1 8841   0.700   0.630   1.477 -1.9147  0.3098 -0.9565
 2959TIP3    H2 8842   0.595   0.691   1.568  0.8791  0.1955  2.5653
 2960TIP3   OH2 8843   5.809   3.718   5.057  0.4774  0.0348 -0.0589
 2960TIP3    H1 8844   5.783   3.774   4.984 -1.6446  0.1912  0.7471
 2960TIP3    H2 8845   5.756   3.749   5.131  0.4053 -2.0091  0.8101
 2961TIP3   OH2 8846   5.834   1.535   4.888 -0.6124 -0.1271 -0.1466
 2961TIP3    H1 8847   5.753   1.496   4.921 -1.1583  0.2424 -1.0290
 2961TIP3    H2 8848   5.887   1.549   4.967 -0.4922 -2.3553  0.2554
 2962TIP3   OH2 8849   4.125   2.406   5.217  0.0989  0.1246 -0.6694
 2962TIP3    H1 8850   4.220   2.414   5.209 -0.0561  0.9836 -1.9627
 2962TIP3    H2 8851   4.112   2.327   5.270  1.5292  0.0423 -0.4017
 2963TIP3   OH2 8852   2.943   4.075   4.562  0.0579 -0.5890  0.3803
 2963TIP3    H1 8853   2.899   4.039   4.485  0.5540 -0.1045 -0.1402
 2963TIP3    H2 8854   2.872   4.100   4.621 -0.3064 -1.7720  0.4593
 2964TIP3   OH2 8855   4.525   0.428   4.495  0.1963  0.5877 -0.4808
 2964TIP3    H1 8856   4.567   0.369   4.433  0.7634  0.6253 -0.1369
 2964TIP3    H2 8857   4.437   0.441   4.459  0.7425  1.1877 -1.6681
 2965TIP3   OH2 8858   4.217   4.161   2.770  0.2578  0.1251  0.1909
 2965TIP3    H1 8859   4.168   4.199   2.843 -1.9935  0.8053 -1.5508
 2965TIP3    H2 8860   4.229   4.233   2.709  2.1616 -0.4144 -0.1248
 2966TIP3   OH2 8861   5.733   6.191   2.744  0.8173 -0.1050 -0.0526
 2966TIP3    H1 8862   5.721   6.155   2.656 -0.6659  0.1890 -0.0074
 2966TIP3    H2 8863   5.717   6.117   2.803 -0.6314  0.2205  0.0017
 2967TIP3   OH2 8864   4.650   4.050   0.195  0.3920 -0.2282  0.2881
 2967TIP3    H1 8865   4.656   3.964   0.237  0.9667  0.0827  0.8558
 2967TIP3    H2 8866   4.732   4.058   0.146  0.9177  0.5239  1.2690
 2968TIP3   OH2 8867   5.757   3.942   2.943  0.2957 -0.7198  0.3565
 2968TIP3    H1 8868   5.754   3.866   2.885  2.1967 -0.0112 -0.7368
 2968TIP3    H2 8869   5.761   3.904   3.031 -1.6344 -1.8163  0.0197
 2969TIP3   OH2 8870   4.490   5.849   0.078 -0.1794  0.4805 -0.2650
 2969TIP3    H1 8871   4.541   5.907   0.023  1.9199 -1.8839 -1.0120
 2969TIP3    H2 8872   4.497   5.763   0.035 -1.9655 -0.6277  1.4716
 2970TIP3   OH2 8873   4.465   4.760   5.793  0.2333  0.0985  0.0806
 2970TIP3    H1 8874   4.411   4.835   5.769  0.1884 -0.0217 -0.1953
 2970TIP3    H2 8875   4.403   4.695   5.825  0.3324  0.4159  0.9312
 2971TIP3   OH2 8876   2.281   1.348   1.835  0.5933  0.2040  0.0808
 2971TIP3    H1 8877   2.246   1.401   1.764  0.5632 -0.7418 -0.6289
 2971TIP3    H2 8878   2.208   1.294   1.864  0.4633  0.9402  1.2001
 2972TIP3   OH2 8879   4.434   6.511   1.832 -0.0052 -0.0550  0.3324
 2972TIP3    H1 8880   4.353   6.562   1.836  0.0259 -0.0024  0.3074
 2972TIP3    H2 8881   4.408   6.422   1.852  0.0703  0.1099  1.1754
 2973TIP3   OH2 8882   4.444   2.544   1.388 -0.1110 -0.7491  0.4006
 2973TIP3    H1 8883   4.465   2.452   1.370 -3.3777 -1.6962  0.7840
 2973TIP3    H2 8884   4.357   2.541   1.428 -0.5307  2.5899 -0.0159
 2974TIP3   OH2 8885   0.704   0.065   0.638 -0.2818 -0.2377 -0.1566
 2974TIP3    H1 8886   0.636   0.128   0.615 -0.0385  0.3298  0.6300
 2974TIP3    H2 8887   0.678   0.034   0.725 -0.3346 -1.1401 -0.4895
 2975TIP3   OH2 8888   5.024   6.493   5.791  0.0854 -0.0440  0.1340
 2975TIP3    H1 8889   4.975   6.414   5.769  1.1920 -0.4784 -0.8851
 2975TIP3    H2 8890   4.957   6.560   5.804 -1.0063 -1.5321  2.9567
 2976TIP3   OH2 8891   5.045   2.974   4.896 -0.6763 -0.9340 -0.2825
 2976TIP3    H1 8892   5.042   2.992   4.990  3.2992  0.8942 -0.3206
 2976TIP3    H2 8893   5.092   2.891   4.888 -2.6182 -2.0599 -0.7091
 2977TIP3   OH2 8894   4.951   1.896   2.473  0.2691 -0.2053  0.2653
 2977TIP3    H1 8895   4.862   1.931   2.478  0.2838  0.0734 -1.0680
 2977TIP3    H2 8896   4.958   1.837   2.548 -0.6657  0.5975  1.0135
 2978TIP3   OH2 8897   1.412   2.624   1.302 -0.6237 -0.0274  0.8830
 2978TIP3    H1 8898   1.372   2.598   1.219  1.7433  0.4276 -0.4629
 2978TIP3    H2 8899   1.420   2.543   1.351 -1.9678 -0.3131  0.6842
 2979TIP3   OH2 8900   0.958   5.677   4.096  0.3626  0.4258  0.2126
 2979TIP3    H1 8901   0.872   5.662   4.058  0.5126 -0.4938  0.2252
 2979TIP3    H2 8902   0.957   5.629   4.179  1.2659 -0.5368 -0.3060
 2980TIP3   OH2 8903   4.013   4.264   4.507  0.1604  0.0995  0.5283
 2980TIP3    H1 8904   4.102   4.286   4.479 -0.0905  0.1010 -0.2825
 2980TIP3    H2 8905   3.978   4.210   4.437 -0.9201  1.1348  0.2257
 2981TIP3   OH2 8906   3.011   4.416   0.888  0.3340 -0.7863 -0.1085
 2981TIP3    H1 8907   2.919   4.419   0.864 -0.0039  1.8381  1.1329
 2981TIP3    H2 8908   3.024   4.328   0.923 -1.2830 -1.7129 -1.6943
 2982TIP3   OH2 8909   2.188   2.956   3.338  0.5385 -0.5988 -0.1883
 2982TIP3    H1 8910   2.177   2.973   3.431  2.4656  0.0370 -0.0229
 2982TIP3    H2 8911   2.212   2.864   3.332 -1.6984 -1.2267 -0.3017
 2983TIP3   OH2 8912   2.456   4.709   1.784 -0.3051 -0.0686 -0.2910
 2983TIP3    H1 8913   2.386   4.774   1.777 -0.6314 -0.3447  0.3478
 2983TIP3    H2 8914   2.432   4.640   1.722 -0.1262  0.2542 -0.7304
 2984TIP3   OH2 8915   2.297   0.979   3.715  0.1662 -0.0373  0.4908
 2984TIP3    H1 8916   2.354   1.041   3.669 -0.1653 -0.1472 -0.0836
 2984TIP3    H2 8917   2.319   0.894   3.676  0.7546 -0.3230  1.4057
 2985TIP3   OH2 8918   3.445   1.068   2.229 -0.2071 -0.3479 -0.3393
 2985TIP3    H1 8919   3.452   1.162   2.245  0.5549 -0.6917  1.5763
 2985TIP3    H2 8920   3.505   1.028   2.292  0.4645 -2.0706 -1.9701
 2986TIP3   OH2 8921   4.708   5.177   4.661 -0.6204 -0.0329  0.2426
 2986TIP3    H1 8922   4.742   5.088   4.674 -1.8737 -0.3405  1.8557
 2986TIP3    H2 8923   4.748   5.207   4.580 -0.7934 -2.3863 -0.7956
 2987TIP3   OH2 8924   2.157   4.830   2.671 -0.0402  0.5145 -0.7123
 2987TIP3    H1 8925   2.145   4.756   2.729 -1.0820  2.5742  1.8831
 2987TIP3    H2 8926   2.069   4.856   2.645  0.1414  2.0855  0.1353
 2988TIP3   OH2 8927   0.472   2.388   0.250  0.3760  0.3785 -0.3298
 2988TIP3    H1 8928   0.487   2.293   0.245  1.0827  0.4111  0.8184
 2988TIP3    H2 8929   0.504   2.413   0.336  0.0964  1.6585 -0.5739
 2989TIP3   OH2 8930   6.827   0.956   3.754  0.1579  0.3064  0.5841
 2989TIP3    H1 8931   6.783   0.920   3.831 -0.3740  1.6665  0.9352
 2989TIP3    H2 8932   6.853   1.044   3.780  0.3768  0.6222 -0.6462
 2990TIP3   OH2 8933   6.386   5.632   1.129 -0.2509 -0.3000 -0.6268
 2990TIP3    H1 8934   6.359   5.544   1.156  2.7542 -1.5849 -1.3287
 2990TIP3    H2 8935   6.478   5.622   1.105  0.0068  2.9265 -1.4532
 2991TIP3   OH2 8936   5.713   0.359   1.755 -0.1253 -0.2220  0.0789
 2991TIP3    H1 8937   5.777   0.288   1.766 -1.1384 -1.0764  0.6466
 2991TIP3    H2 8938   5.714   0.378   1.661  0.1380 -1.0225 -0.0913
 2992TIP3   OH2 8939   0.116   2.034   1.920 -0.0457  0.0374 -0.4104
 2992TIP3    H1 8940   0.103   1.948   1.961  0.8062  0.8567  1.7449
 2992TIP3    H2 8941   0.087   2.022   1.829 -0.6169 -2.3166  0.0073
 2993TIP3   OH2 8942   5.741   0.148   4.738 -0.4414  0.1001  0.3726
 2993TIP3    H1 8943   5.687   0.069   4.737  0.2974 -0.4491  1.3319
 2993TIP3    H2 8944   5.679   0.220   4.731 -1.1831 -0.5470  0.1195
 2994TIP3   OH2 8945   1.582   3.361   4.226 -0.0780  0.0840  0.1921
 2994TIP3    H1 8946   1.626   3.363   4.311 -0.3488 -1.6647  0.4062
 2994TIP3    H2 8947   1.589   3.270   4.198 -2.8471 -0.0920 -0.1605
 2995TIP3   OH2 8948   2.093   5.736   2.167 -0.5663 -0.3553 -0.1703
 2995TIP3    H1 8949   2.006   5.776   2.176  0.2538  1.2694  0.8647
 2995TIP3    H2 8950   2.099   5.674   2.240  0.1182  1.4702  1.3835
 2996TIP3   OH2 8951   3.712   5.822   2.938  0.1660 -0.1902  0.5697
 2996TIP3    H1 8952   3.677   5.866   2.860 -0.8176 -0.0053  1.0968
 2996TIP3    H2 8953   3.647   5.840   3.006 -0.0964 -2.1606  0.8980
 2997TIP3   OH2 8954   1.854   1.363   0.194 -0.7652 -0.3721 -0.1947
 2997TIP3    H1 8955   1.931   1.371   0.250 -1.5630  2.9009  0.6227
 2997TIP3    H2 8956   1.872   1.286   0.140  1.5224 -1.6960  2.2473
 2998TIP3   OH2 8957   3.744   6.220   2.876  0.0424 -0.0366 -0.3686
 2998TIP3    H1 8958   3.736   6.165   2.954 -0.9344  0.1480 -0.3237
 2998TIP3    H2 8959   3.818   6.277   2.894 -0.0566 -0.1204  0.3442
 2999TIP3   OH2 8960   2.427   1.949   3.766  0.1619  0.3953 -0.0048
 2999TIP3    H1 8961   2.390   1.871   3.807 -3.1156  0.0135 -3.2207
 2999TIP3    H2 8962   2.506   1.918   3.721 -0.5795 -0.8923 -0.4651
 3000TIP3   OH2 8963   4.270   6.035   1.050  0.4925 -0.4184 -0.8826
 3000TIP3    H1 8964   4.341   6.007   1.109  0.5985 -1.0923 -1.3172
 3000TIP3    H2 8965   4.306   6.112   1.005  0.3454  0.2125  0.0378
 3001TIP3   OH2 8966   5.869   3.429   5.490 -0.4689 -0.6294  0.1111
 3001TIP3    H1 8967   5.842   3.501   5.433  0.9137  0.7637  1.1371
 3001TIP3    H2 8968   5.832   3.351   5.449 -1.2241  0.5522 -1.5604
 3002TIP3   OH2 8969   3.173   3.978   1.784 -0.0813  0.0527  0.5379
 3002TIP3    H1 8970   3.205   4.026   1.861  2.3836 -0.4001 -0.1387
 3002TIP3    H2 8971   3.082   3.957   1.806 -0.1142  1.8066  2.4029
 3003TIP3   OH2 8972   6.437   6.189   1.573 -0.4516  0.3811 -0.5019
 3003TIP3    H1 8973   6.412   6.151   1.488 -0.4942 -1.9085  0.4560
 3003TIP3    H2 8974   6.528   6.162   1.585 -0.5607  0.3571  0.3276
 3004TIP3   OH2 8975   0.862   1.114   4.545  0.8837  0.2262  0.5648
 3004TIP3    H1 8976   0.802   1.179   4.581  1.5911  0.7431  0.8545
 3004TIP3    H2 8977   0.813   1.032   4.546 -0.2226  0.8609 -0.3580
 3005TIP3   OH2 8978   3.033   4.336   4.680 -0.0676  0.2569 -0.1702
 3005TIP3    H1 8979   3.042   4.358   4.587  0.4579  0.4601 -0.0739
 3005TIP3    H2 8980   3.075   4.250   4.688  1.1807  0.8692  0.1372
 3006TIP3   OH2 8981   6.581   6.246   1.892 -0.1256  0.2515 -0.0439
 3006TIP3    H1 8982   6.622   6.203   1.818 -1.6781 -0.6658 -0.4222
 3006TIP3    H2 8983   6.653   6.269   1.950  1.0370  0.2109 -1.4271
 3007TIP3   OH2 8984   2.205   0.037   5.417 -0.2317  0.3296 -0.0806
 3007TIP3    H1 8985   2.198  -0.057   5.434  1.5319 -0.0633 -1.3331
 3007TIP3    H2 8986   2.114   0.068   5.421 -0.8679 -1.4400  0.2268
 3008TIP3   OH2 8987   3.481   4.575   0.716 -0.4157 -0.0256  0.0335
 3008TIP3    H1 8988   3.456   4.487   0.742  1.4278 -0.4452  0.5203
 3008TIP3    H2 8989   3.561   4.563   0.663  0.7107  1.4171  1.3121
 3009TIP3   OH2 8990   2.668   3.440   1.326 -0.5022 -0.3871 -0.2593
 3009TIP3    H1 8991   2.600   3.464   1.390  0.3257 -1.1727  0.9639
 3009TIP3    H2 8992   2.717   3.521   1.312 -2.1167  0.3869 -1.7460
 3010TIP3   OH2 8993   5.297   1.067   1.547 -1.0951 -0.3308  0.3867
 3010TIP3    H1 8994   5.314   0.973   1.555 -0.7867 -0.3948 -0.7816
 3010TIP3    H2 8995   5.344   1.093   1.467 -1.9357  0.6301  0.1816
 3011TIP3   OH2 8996   3.077   1.542   4.448 -0.2045  0.2133  0.0247
 3011TIP3    H1 8997   3.013   1.557   4.377  1.4846 -0.6217 -1.7772
 3011TIP3    H2 8998   3.034   1.478   4.505 -1.2428  0.1441 -0.7997
 3012TIP3   OH2 8999   3.388   5.025   5.155 -0.1797 -0.2878 -0.1104
 3012TIP3    H1 9000   3.433   4.974   5.221  0.4489 -0.5437 -0.7199
 3012TIP3    H2 9001   3.407   5.116   5.177  2.5015 -0.3928 -1.5567
 3013TIP3   OH2 9002   2.577   3.441   3.069 -0.1368  0.1099  0.2901
 3013TIP3    H1 9003   2.547   3.504   3.135 -0.6534 -0.4569  0.6027
 3013TIP3    H2 9004   2.528   3.465   2.990 -1.4702 -0.8156  0.7993
 3014TIP3   OH2 9005   1.331   0.610   5.754 -0.1633  0.1249  0.0758
 3014TIP3    H1 9006   1.286   0.671   5.696  0.6422 -1.0796 -1.9040
 3014TIP3    H2 9007   1.346   0.660   5.834 -1.1662  1.9025 -0.7834
 3015TIP3   OH2 9008   6.394   1.644   1.045  0.3666  0.2316 -0.4049
 3015TIP3    H1 9009   6.463   1.676   0.985  0.0402  1.8142  0.0073
 3015TIP3    H2 9010   6.437   1.576   1.096  1.3209  0.4304 -0.9011
 3016TIP3   OH2 9011   2.557   0.288   4.986  0.1209  0.7862  0.5938
 3016TIP3    H1 9012   2.561   0.284   4.890 -0.1932  2.5915  0.4661
 3016TIP3    H2 9013   2.484   0.231   5.009  1.1968 -0.9188 -0.1003
 3017TIP3   OH2 9014   2.764   6.283   0.440  0.2559 -0.0595 -0.9451
 3017TIP3    H1 9015   2.769   6.188   0.433 -0.0358 -0.1317 -0.2559
 3017TIP3    H2 9016   2.851   6.310   0.471 -0.2425 -0.3009  0.7638
 3018TIP3   OH2 9017   0.114   6.226   3.759  0.2617 -0.7544 -0.0701
 3018TIP3    H1 9018   0.019   6.231   3.748  0.2459 -0.0646  0.2831
 3018TIP3    H2 9019   0.133   6.288   3.830  1.0826 -0.1347 -0.8064
 3019TIP3   OH2 9020   0.099   6.098   0.773 -0.1184 -0.7959  1.4266
 3019TIP3    H1 9021   0.169   6.116   0.711 -0.6992 -1.3137  0.6024
 3019TIP3    H2 9022   0.019   6.129   0.730 -0.2528  1.3803  3.0477
 3020TIP3   OH2 9023   1.645   4.954   4.045 -0.2270  0.3885 -0.5019
 3020TIP3    H1 9024   1.672   5.017   4.112 -0.9681 -0.4936  0.6378
 3020TIP3    H2 9025   1.623   5.009   3.969 -0.9851  1.5300  0.5032
 3021TIP3   OH2 9026   3.136   1.757   2.808  0.3337 -0.2955  0.0138
 3021TIP3    H1 9027   3.127   1.663   2.825  2.6308 -0.5888 -0.0416
 3021TIP3    H2 9028   3.175   1.762   2.721  0.3409  0.6904  0.0670
 3022TIP3   OH2 9029   5.516   0.273   5.858  0.0936 -0.3073 -0.3105
 3022TIP3    H1 9030   5.569   0.322   5.795 -0.7531  1.6178  0.4023
 3022TIP3    H2 9031   5.459   0.218   5.803  1.4792 -0.9977 -1.1111
 3023TIP3   OH2 9032   0.665   0.319   1.348 -0.3768 -0.1119  0.3100
 3023TIP3    H1 9033   0.722   0.299   1.422  1.1034 -2.1109 -1.2521
 3023TIP3    H2 9034   0.605   0.244   1.343 -0.7242  0.1959 -0.2595
 3024TIP3   OH2 9035   2.848   1.258   2.523  0.0997  0.3469  0.1301
 3024TIP3    H1 9036   2.842   1.212   2.607 -0.7340  1.2023  0.5530
 3024TIP3    H2 9037   2.767   1.308   2.516 -0.5310 -0.8224 -1.8745
 3025TIP3   OH2 9038   6.654   5.649   1.037  0.0837  0.1799 -0.3005
 3025TIP3    H1 9039   6.677   5.712   0.968 -0.8612  0.4760 -0.3537
 3025TIP3    H2 9040   6.696   5.568   1.009 -0.3429  0.2792 -1.2682
 3026TIP3   OH2 9041   3.392   1.028   4.844  0.2286  0.2169 -0.2430
 3026TIP3    H1 9042   3.340   0.962   4.892 -0.1669  0.7152  0.0222
 3026TIP3    H2 9043   3.376   1.008   4.752  0.9427 -0.7105 -0.1744
 3027TIP3   OH2 9044   3.728   1.864   4.823  0.1810  0.1202 -0.9352
 3027TIP3    H1 9045   3.816   1.830   4.813  0.1983  0.4003 -1.8309
 3027TIP3    H2 9046   3.719   1.928   4.752 -0.3475  0.9145 -0.1737
 3028TIP3   OH2 9047   2.593   6.150   4.690 -0.0639  0.3711 -0.3206
 3028TIP3    H1 9048   2.668   6.131   4.633 -0.8133 -0.0415 -1.2095
 3028TIP3    H2 9049   2.564   6.237   4.664  0.5550  0.8420  0.5438
 3029TIP3   OH2 9050   5.573   4.964   1.925  0.3210 -0.5764  0.5789
 3029TIP3    H1 9051   5.483   4.990   1.908  0.5171 -0.1510  0.1615
 3029TIP3    H2 9052   5.570   4.922   2.011 -0.0300  0.7834  1.2672
 3030TIP3   OH2 9053   4.830   2.479   5.080  0.2718 -0.0378  0.4120
 3030TIP3    H1 9054   4.784   2.524   5.150  0.9584  0.7935  0.3427
 3030TIP3    H2 9055   4.873   2.405   5.123  1.8351  1.2442  1.1727
 3031TIP3   OH2 9056   3.387   6.771   2.437 -0.1887 -0.5254  0.2076
 3031TIP3    H1 9057   3.337   6.826   2.377 -0.0121  0.4101  0.9149
 3031TIP3    H2 9058   3.338   6.688   2.438  0.5032 -1.0602 -2.2257
 3032TIP3   OH2 9059   2.781   5.183   1.181 -0.7219  0.0237  0.3947
 3032TIP3    H1 9060   2.796   5.096   1.144 -1.3294  0.5963 -1.3246
 3032TIP3    H2 9061   2.716   5.222   1.123  0.3284  2.0120  0.4690
 3033TIP3   OH2 9062   6.173   2.203   2.895  0.1924  0.1662  0.2178
 3033TIP3    H1 9063   6.107   2.141   2.867 -1.2960  1.0730  1.5781
 3033TIP3    H2 9064   6.124   2.281   2.922  1.5642  0.0587  3.4663
 3034TIP3   OH2 9065   3.070   6.008   2.335 -0.3314 -0.0517  0.3798
 3034TIP3    H1 9066   3.077   5.961   2.418 -0.1681 -1.5130 -0.4217
 3034TIP3    H2 9067   2.989   5.975   2.296 -1.0940  1.5878  0.5138
 3035TIP3   OH2 9068   0.114   3.212   1.761  0.3653  0.1653  0.2890
 3035TIP3    H1 9069   0.053   3.139   1.753  0.7500 -0.0162 -1.7268
 3035TIP3    H2 9070   0.186   3.189   1.703  1.3648  1.3244  1.0273
 3036TIP3   OH2 9071   0.274   5.839   1.427 -0.2307 -0.0129  0.1281
 3036TIP3    H1 9072   0.271   5.852   1.332  0.3105  1.3552  0.2819
 3036TIP3    H2 9073   0.182   5.824   1.451 -0.1522 -2.7126 -0.8675
 3037TIP3   OH2 9074   0.385   1.401   2.715 -0.0013 -0.0027  0.2834
 3037TIP3    H1 9075   0.338   1.467   2.664 -0.9684 -1.2192 -0.4496
 3037TIP3    H2 9076   0.322   1.373   2.781 -0.6007 -2.0949 -1.0863
 3038TIP3   OH2 9077   1.397   1.761   1.418 -0.3647 -0.0410  0.0568
 3038TIP3    H1 9078   1.434   1.798   1.338 -1.1057 -0.4599 -0.4948
 3038TIP3    H2 9079   1.306   1.792   1.418 -0.6231 -0.7844  0.2654
 3039TIP3   OH2 9080   3.001   1.681   2.440  0.0474 -0.1164  0.0291
 3039TIP3    H1 9081   3.048   1.764   2.434  0.4246 -0.3804 -0.9229
 3039TIP3    H2 9082   2.979   1.660   2.349  0.2647 -1.2336  0.2231
 3040TIP3   OH2 9083   2.642   0.324   3.975 -1.1548 -0.1435 -0.1912
 3040TIP3    H1 9084   2.703   0.259   4.009 -0.1883  0.2607 -1.1074
 3040TIP3    H2 9085   2.595   0.279   3.904  0.2695  0.4267 -1.5521
 3041TIP3   OH2 9086   6.931   0.281   1.508 -0.0679  0.4729 -0.3600
 3041TIP3    H1 9087   6.908   0.222   1.580  0.4675  0.7978  0.0909
 3041TIP3    H2 9088   6.864   0.265   1.442 -0.7521  0.3902  0.3311
 3042TIP3   OH2 9089   2.890   1.023   0.959 -0.4949  0.1193  0.6722
 3042TIP3    H1 9090   2.913   0.939   0.999 -0.1314  0.0978  0.4228
 3042TIP3    H2 9091   2.821   1.003   0.897  1.5662 -0.5244 -1.5797
 3043TIP3   OH2 9092   0.099   5.814   0.074 -0.0368  0.1179  0.0784
 3043TIP3    H1 9093   0.143   5.883   0.024 -1.6734  0.7968 -0.4933
 3043TIP3    H2 9094   0.167   5.781   0.133  1.3926  0.6988 -1.1606
 3044TIP3   OH2 9095   6.829   5.205   3.679  0.0701  0.0603  0.4060
 3044TIP3    H1 9096   6.919   5.206   3.711  0.6542 -0.1929 -1.1323
 3044TIP3    H2 9097   6.835   5.167   3.591 -1.4538  0.6000  0.0314
 3045TIP3   OH2 9098   5.804   4.124   0.368 -0.0796 -0.0310 -0.3659
 3045TIP3    H1 9099   5.839   4.045   0.409  0.5479  0.6880  0.5119
 3045TIP3    H2 9100   5.785   4.097   0.278  0.7109 -1.0199 -0.2587
 3046TIP3   OH2 9101   0.547   5.977   2.238  0.6721 -0.0412 -0.0972
 3046TIP3    H1 9102   0.528   5.892   2.278 -0.7885  1.1037  1.8379
 3046TIP3    H2 9103   0.610   6.018   2.297  0.0705  0.8722 -0.0709
 3047TIP3   OH2 9104   3.478   5.776   4.360  0.4823 -0.0087  0.0715
 3047TIP3    H1 9105   3.509   5.768   4.450  3.5724  2.0569 -0.6573
 3047TIP3    H2 9106   3.453   5.868   4.351 -0.3357 -0.3190 -1.0606
 3048TIP3   OH2 9107   4.417   2.335   3.956 -0.6313  0.0395 -0.2621
 3048TIP3    H1 9108   4.419   2.241   3.974  0.4097  0.2215  0.6570
 3048TIP3    H2 9109   4.508   2.359   3.937 -0.9862  0.7463 -1.1414
 3049TIP3   OH2 9110   2.816   5.086   2.152  0.1731  0.1998 -0.2730
 3049TIP3    H1 9111   2.782   5.117   2.236  1.4905  1.2183 -0.0732
 3049TIP3    H2 9112   2.802   5.160   2.092 -0.5639 -0.4393 -0.9034
 3050TIP3   OH2 9113   5.629   6.387   2.923  0.5076  0.1918  0.5549
 3050TIP3    H1 9114   5.537   6.361   2.923  0.6576 -0.3530  0.7907
 3050TIP3    H2 9115   5.667   6.340   2.849  1.2624 -2.0637  2.2942
 3051TIP3   OH2 9116   5.796   4.802   4.935 -0.0414 -0.1005 -0.0962
 3051TIP3    H1 9117   5.874   4.826   4.985 -1.8586  1.9046  2.0067
 3051TIP3    H2 9118   5.830   4.768   4.852  3.0490 -0.3478  1.1252
 3052TIP3   OH2 9119   2.404   1.440   3.420  0.1044  0.3792 -0.2677
 3052TIP3    H1 9120   2.436   1.379   3.486 -0.7075  1.3403  1.0765
 3052TIP3    H2 9121   2.480   1.462   3.367  0.5743 -1.1446 -0.2791
 3053TIP3   OH2 9122   3.066   1.099   4.840  0.1247 -0.4411 -0.5852
 3053TIP3    H1 9123   3.039   1.041   4.912 -3.1188  0.7722 -0.6782
 3053TIP3    H2 9124   3.034   1.056   4.761  0.8717 -0.2171 -1.0223
 3054TIP3   OH2 9125   0.958   1.657   2.086 -0.0419  0.0311 -0.4141
 3054TIP3    H1 9126   0.872   1.698   2.086 -0.7663 -1.4247 -0.2526
 3054TIP3    H2 9127   0.999   1.689   2.167 -0.4261  0.7304 -0.4894
 3055TIP3   OH2 9128   2.148   3.174   4.482 -0.2240  0.2017  0.6168
 3055TIP3    H1 9129   2.120   3.119   4.555 -1.4631 -0.7887 -0.5493
 3055TIP3    H2 9130   2.069   3.183   4.428  0.8226  0.3598 -0.9387
 3056TIP3   OH2 9131   4.378   0.681   2.161  0.2507  0.1790  0.5478
 3056TIP3    H1 9132   4.286   0.657   2.170  0.2809 -0.1892 -0.0683
 3056TIP3    H2 9133   4.404   0.710   2.249 -0.3036 -0.2346  0.8554
 3057TIP3   OH2 9134   5.132   5.555   0.571  0.6896 -0.1861 -0.1127
 3057TIP3    H1 9135   5.137   5.641   0.530 -0.0849  1.1658  2.3893
 3057TIP3    H2 9136   5.056   5.560   0.629  0.9509 -2.3694  0.5278
 3058TIP3   OH2 9137   6.917   3.811   5.857 -0.3529 -0.6231 -0.6255
 3058TIP3    H1 9138   6.964   3.728   5.846  0.5552 -0.2789  0.4480
 3058TIP3    H2 9139   6.976   3.864   5.910 -1.8251 -0.0516  0.4963
 3059TIP3   OH2 9140   6.603   1.522   3.730  0.2272  0.1495 -0.5510
 3059TIP3    H1 9141   6.610   1.581   3.806 -1.1223 -0.6820  0.2756
 3059TIP3    H2 9142   6.518   1.545   3.691  0.4576 -0.1188 -1.2035
 3060TIP3   OH2 9143   0.344   3.209   5.577 -0.0525 -0.0139  0.1136
 3060TIP3    H1 9144   0.306   3.231   5.662  1.6177 -3.0248  1.8053
 3060TIP3    H2 9145   0.433   3.180   5.597  1.2781  1.4797 -3.0204
 3061TIP3   OH2 9146   5.382   1.682   0.570  0.7247  0.3799  0.0330
 3061TIP3    H1 9147   5.290   1.687   0.595  0.5033 -2.3848  0.1035
 3061TIP3    H2 9148   5.421   1.762   0.605 -1.4212  1.0933  0.9553
 3062TIP3   OH2 9149   5.332   6.027   2.063  0.4035 -0.7709 -0.4120
 3062TIP3    H1 9150   5.259   6.028   2.125 -0.7673  1.0458 -1.7181
 3062TIP3    H2 9151   5.350   5.934   2.048 -1.0570 -1.2455  0.5958
 3063TIP3   OH2 9152   6.144   5.283   3.151 -0.1285  0.3194  0.2839
 3063TIP3    H1 9153   6.152   5.378   3.160  0.1176  0.1503  2.2869
 3063TIP3    H2 9154   6.113   5.253   3.237  0.1869 -1.4559 -0.1745
 3064TIP3   OH2 9155   4.884   1.179   1.398  0.0054  0.1359 -0.8558
 3064TIP3    H1 9156   4.837   1.096   1.392 -0.3769  0.4224 -2.1010
 3064TIP3    H2 9157   4.938   1.170   1.477 -0.0927 -1.2605 -0.9166
 3065TIP3   OH2 9158   0.256   5.283   5.384  0.0735 -0.4036  0.5487
 3065TIP3    H1 9159   0.346   5.266   5.356 -0.0166 -0.8735  0.5358
 3065TIP3    H2 9160   0.208   5.296   5.302  0.1363 -0.1062  0.5573
 3066TIP3   OH2 9161   0.828   5.390   4.641 -0.2624 -0.2002  0.1160
 3066TIP3    H1 9162   0.790   5.304   4.622 -1.1899  0.0833  0.6265
 3066TIP3    H2 9163   0.778   5.451   4.587  0.0408  0.0838  0.1552
 3067TIP3   OH2 9164   1.270   6.153   2.627  0.2642  0.3713  0.0535
 3067TIP3    H1 9165   1.290   6.060   2.627 -0.9035  0.1127 -0.1352
 3067TIP3    H2 9166   1.327   6.190   2.560 -0.2354 -0.4243 -0.8262
 3068TIP3   OH2 9167   5.742   5.109   2.342  0.2721  0.3301 -0.4956
 3068TIP3    H1 9168   5.665   5.122   2.288  0.4768  1.5521 -0.5299
 3068TIP3    H2 9169   5.718   5.145   2.428  0.2983 -0.6456 -0.0708
 3069TIP3   OH2 9170   1.155   6.634   0.061  0.1102 -0.3874  0.1393
 3069TIP3    H1 9171   1.118   6.710   0.015  0.3462 -0.2198  0.2263
 3069TIP3    H2 9172   1.229   6.607   0.007  1.0210  0.4326  0.9336
 3070TIP3   OH2 9173   0.978   6.459   4.905 -0.0007  0.1626 -0.3569
 3070TIP3    H1 9174   1.044   6.492   4.844 -0.2780  1.6654  0.1246
 3070TIP3    H2 9175   0.913   6.416   4.850  1.4528 -1.5815 -0.8307
 3071TIP3   OH2 9176   0.711   4.256   1.380  0.0834  0.4915 -0.1622
 3071TIP3    H1 9177   0.703   4.179   1.436 -0.8343 -0.6739 -1.8485
 3071TIP3    H2 9178   0.805   4.275   1.379  0.5373 -1.5990 -1.0127
 3072TIP3   OH2 9179   4.667   4.315   3.286 -0.1073  0.5140 -0.8837
 3072TIP3    H1 9180   4.707   4.351   3.365  0.2796  0.1963 -0.9354
 3072TIP3    H2 9181   4.683   4.381   3.219  4.2281 -1.4010 -2.0422
 3073TIP3   OH2 9182   7.120   6.135   2.046 -0.6273 -0.0280 -0.1630
 3073TIP3    H1 9183   7.085   6.145   1.957  0.4532  0.5764 -0.5432
 3073TIP3    H2 9184   7.043   6.137   2.102 -1.3374 -0.5105 -1.0906
 3074TIP3   OH2 9185   3.314   3.677   1.699 -0.1749  0.1849  0.1381
 3074TIP3    H1 9186   3.402   3.658   1.731 -0.1739  0.6191  0.4039
 3074TIP3    H2 9187   3.329   3.727   1.618 -0.1559 -2.1684 -1.4269
 3075TIP3   OH2 9188   2.281   0.536   3.990 -0.0083 -0.0186 -0.0865
 3075TIP3    H1 9189   2.207   0.551   4.048  0.0544  3.4062 -0.6814
 3075TIP3    H2 9190   2.353   0.512   4.049 -0.7419  0.1539  0.9050
 3076TIP3   OH2 9191   4.863   4.617   5.412 -0.6348 -0.3758  0.0742
 3076TIP3    H1 9192   4.796   4.666   5.459 -0.3300  0.0834  0.0387
 3076TIP3    H2 9193   4.930   4.682   5.390 -2.0988  0.1491 -3.5859
 3077TIP3   OH2 9194   5.025   0.223   1.406  0.2353 -0.1566 -0.4993
 3077TIP3    H1 9195   4.995   0.298   1.355  1.0794  0.0462 -0.7026
 3077TIP3    H2 9196   4.947   0.167   1.414 -0.6354  1.1221  0.3702
 3078TIP3   OH2 9197   2.442   3.282   0.102 -0.7789  0.3742 -0.4470
 3078TIP3    H1 9198   2.414   3.351   0.162 -3.7871 -2.1113  1.2976
 3078TIP3    H2 9199   2.490   3.221   0.157  0.5461  0.3054 -1.6439
 3079TIP3   OH2 9200   3.998   1.106   1.021 -0.4549  0.0046 -0.4808
 3079TIP3    H1 9201   3.918   1.155   0.999 -0.3065 -0.6273 -2.6038
 3079TIP3    H2 9202   4.061   1.133   0.955  0.7926 -0.3062  0.5512
 3080TIP3   OH2 9203   6.015   2.976   3.272 -0.1795  0.0522  0.2296
 3080TIP3    H1 9204   6.059   2.963   3.356 -0.5719 -1.8625  0.1907
 3080TIP3    H2 9205   6.000   3.070   3.267  2.7360  0.6434  0.8194
 3081TIP3   OH2 9206   2.615   5.971   2.584  0.2326 -0.1041  0.0509
 3081TIP3    H1 9207   2.540   6.027   2.605  0.8957  1.3203 -1.1588
 3081TIP3    H2 9208   2.651   6.008   2.503  2.3970 -0.5860  0.7189
 3082TIP3   OH2 9209   5.302   0.473   1.354 -0.1587  0.2363 -0.7570
 3082TIP3    H1 9210   5.388   0.501   1.386 -0.7544 -0.2171  1.4109
 3082TIP3    H2 9211   5.301   0.378   1.368 -0.8677  0.1866 -1.1134
 3083TIP3   OH2 9212   4.264   4.613   2.578  0.4699 -0.7084 -0.5668
 3083TIP3    H1 9213   4.283   4.673   2.650  0.6070 -1.0361 -0.3249
 3083TIP3    H2 9214   4.337   4.624   2.517  0.2635 -0.3021 -0.7400
 3084TIP3   OH2 9215   5.919   0.936   3.434  0.3384 -0.2829 -0.6002
 3084TIP3    H1 9216   5.960   0.855   3.404  0.2026 -0.3178 -0.6936
 3084TIP3    H2 9217   5.827   0.926   3.410 -0.0402 -0.8814  0.9567
 3085TIP3   OH2 9218   3.135   2.260   0.587  0.4667 -0.3612  0.1057
 3085TIP3    H1 9219   3.210   2.212   0.550  0.5554  0.2755 -0.5592
 3085TIP3    H2 9220   3.062   2.199   0.579  0.5637 -0.3786 -0.8006
 3086TIP3   OH2 9221   1.276   4.122   3.611  0.1049  0.1046  0.2003
 3086TIP3    H1 9222   1.368   4.105   3.631  1.3258  1.5464 -3.4021
 3086TIP3    H2 9223   1.251   4.191   3.672  2.2827  1.5282 -0.3988
 3087TIP3   OH2 9224   2.916   0.615   2.484 -0.7241 -0.6752  0.1032
 3087TIP3    H1 9225   2.942   0.550   2.419  3.2691  1.4027 -0.7268
 3087TIP3    H2 9226   2.968   0.593   2.562 -0.8936  0.2792  0.5065
 3088TIP3   OH2 9227   3.352   1.081   1.418 -0.5731 -0.7088  0.4237
 3088TIP3    H1 9228   3.336   1.167   1.458  0.0069 -0.2460 -0.3201
 3088TIP3    H2 9229   3.445   1.063   1.435 -0.5510 -0.9277  0.0761
 3089TIP3   OH2 9230   1.809   4.719   1.853 -0.6093 -0.0296  0.7615
 3089TIP3    H1 9231   1.771   4.783   1.912  0.7860  1.8530 -0.2724
 3089TIP3    H2 9232   1.768   4.736   1.768  0.7365  0.4436  0.1741
 3090TIP3   OH2 9233   4.918   6.757   5.661 -0.1770  0.1053  0.3457
 3090TIP3    H1 9234   4.902   6.752   5.755  2.3394 -1.2733  0.7809
 3090TIP3    H2 9235   4.999   6.808   5.653 -1.7144  2.5155 -1.3260
 3091TIP3   OH2 9236   4.156   1.300   3.635 -0.3825 -0.2285 -0.2527
 3091TIP3    H1 9237   4.091   1.341   3.577 -0.7763  0.0280  0.3562
 3091TIP3    H2 9238   4.229   1.279   3.577  0.5643  2.8181 -0.3780
 3092TIP3   OH2 9239   5.034   3.409   1.148  0.0070  0.2385 -0.2227
 3092TIP3    H1 9240   5.062   3.322   1.121  0.4785  0.8229 -1.7434
 3092TIP3    H2 9241   5.108   3.466   1.128 -0.7941  1.1981 -0.5751
 3093TIP3   OH2 9242   0.885   1.254   1.595 -0.0022 -0.2085 -0.1180
 3093TIP3    H1 9243   0.938   1.332   1.615 -1.4319  1.0244 -0.9167
 3093TIP3    H2 9244   0.802   1.289   1.564 -0.8528 -2.0842 -0.1010
 3094TIP3   OH2 9245   5.789   2.094   3.528 -0.0866  0.4836 -0.3049
 3094TIP3    H1 9246   5.833   2.058   3.605  1.4208  0.5344 -1.1057
 3094TIP3    H2 9247   5.817   2.037   3.456 -1.7949  0.1810 -0.7894
 3095TIP3   OH2 9248   2.850   3.186   4.316 -0.2897 -0.5450 -0.8542
 3095TIP3    H1 9249   2.894   3.114   4.270 -2.0536 -1.2274 -1.5709
 3095TIP3    H2 9250   2.876   3.264   4.268  1.8600 -0.6128  0.0890
 3096TIP3   OH2 9251   2.459   1.122   0.680 -0.5830 -0.1602 -0.3359
 3096TIP3    H1 9252   2.455   1.070   0.600 -1.2966 -2.5628  1.1348
 3096TIP3    H2 9253   2.551   1.118   0.707 -0.6494 -0.7961 -0.1812
 3097TIP3   OH2 9254   5.350   0.766   1.550 -0.0171  0.0011  0.2970
 3097TIP3    H1 9255   5.361   0.713   1.629 -2.3757  1.2092  1.5447
 3097TIP3    H2 9256   5.426   0.745   1.496  0.8563 -2.0653  2.1858
 3098TIP3   OH2 9257   4.175   1.777   0.901 -0.0908  0.1772  0.8696
 3098TIP3    H1 9258   4.267   1.789   0.924 -0.3449  2.3778  0.9947
 3098TIP3    H2 9259   4.174   1.780   0.805  0.0392 -0.4617  0.8491
 3099TIP3   OH2 9260   7.191   3.379   2.084  0.0751 -0.3702 -0.1482
 3099TIP3    H1 9261   7.234   3.293   2.084  0.2256 -0.3469  1.9393
 3099TIP3    H2 9262   7.100   3.360   2.062  0.0861 -1.1087  0.3851
 3100TIP3   OH2 9263   1.751   6.605   1.833 -0.2387 -0.0958 -0.6741
 3100TIP3    H1 9264   1.748   6.514   1.802 -0.2255 -0.6906  0.9493
 3100TIP3    H2 9265   1.842   6.617   1.861 -0.6716 -0.2464  0.8888
 3101TIP3   OH2 9266   1.510   1.496   3.806  0.4078 -0.3464 -0.6895
 3101TIP3    H1 9267   1.584   1.492   3.746  0.9911 -2.2704  0.0644
 3101TIP3    H2 9268   1.545   1.465   3.890  0.0288  3.6720  1.1681
 3102TIP3   OH2 9269   0.708   2.593   0.987 -0.0005  0.0735 -0.1665
 3102TIP3    H1 9270   0.614   2.583   1.002  0.1967 -0.4793  0.8543
 3102TIP3    H2 9271   0.733   2.516   0.936  0.0161 -0.2047  0.2468
 3103TIP3   OH2 9272   7.159   4.315   2.761  0.6418 -0.0662 -0.0166
 3103TIP3    H1 9273   7.193   4.363   2.836 -1.3064  3.2490 -1.0650
 3103TIP3    H2 9274   7.097   4.252   2.800 -1.7218  2.8022  1.2488
 3104TIP3   OH2 9275   4.524   1.207   2.796 -0.3394  0.2604  0.1877
 3104TIP3    H1 9276   4.455   1.222   2.731  0.4797  0.3290 -0.6791
 3104TIP3    H2 9277   4.533   1.112   2.801  0.9517  0.2599 -1.2964
 3105TIP3   OH2 9278   1.509   3.950   0.378 -0.2441  0.3306 -0.0849
 3105TIP3    H1 9279   1.579   4.009   0.406  1.2055 -1.2941 -0.1193
 3105TIP3    H2 9280   1.555   3.877   0.336 -1.7245 -2.3589  2.6483
 3106TIP3   OH2 9281   5.986   4.412   1.802 -0.9691 -0.0100  0.2719
 3106TIP3    H1 9282   6.050   4.351   1.765 -0.1437  0.3263  1.1045
 3106TIP3    H2 9283   5.946   4.363   1.874  0.3313  0.6898  1.5226
 3107TIP3   OH2 9284   1.244   3.921   0.429 -0.4437 -0.0592  0.3275
 3107TIP3    H1 9285   1.255   3.960   0.516  0.6695  0.0285  0.1647
 3107TIP3    H2 9286   1.331   3.926   0.390 -0.5777 -1.5233 -0.2011
 3108TIP3   OH2 9287   0.854   1.642   0.119  0.0789  0.6709 -0.0655
 3108TIP3    H1 9288   0.871   1.670   0.210  0.7101  0.2049 -0.0344
 3108TIP3    H2 9289   0.774   1.590   0.125  0.0466  0.7480  0.2093
 3109TIP3   OH2 9290   4.605   5.491   1.908  0.3792 -0.4760 -0.1849
 3109TIP3    H1 9291   4.559   5.408   1.919 -0.3549 -0.0510  0.0907
 3109TIP3    H2 9292   4.638   5.489   1.818  0.2375 -1.0051 -0.2275
 3110TIP3   OH2 9293   0.574   0.535   3.913  0.4168 -0.9483 -0.2250
 3110TIP3    H1 9294   0.522   0.459   3.887  2.3388 -2.8894  1.2847
 3110TIP3    H2 9295   0.636   0.547   3.841  0.2829 -0.9495 -0.3422
 3111TIP3   OH2 9296   2.232   4.546   0.583 -0.1591  0.0920  0.4228
 3111TIP3    H1 9297   2.215   4.590   0.499 -0.2198  0.1313  0.4555
 3111TIP3    H2 9298   2.194   4.605   0.648 -0.2153  0.0032  0.4690
 3112TIP3   OH2 9299   5.520   3.010   5.586 -0.7747  0.2776 -0.0985
 3112TIP3    H1 9300   5.557   3.062   5.658 -1.8145  0.8967  0.0001
 3112TIP3    H2 9301   5.562   2.924   5.595 -0.4243  0.5371  0.8641
 3113TIP3   OH2 9302   5.946   4.178   5.402 -0.4144 -0.0946  0.7366
 3113TIP3    H1 9303   6.009   4.248   5.419  0.0279 -0.0227 -1.0298
 3113TIP3    H2 9304   5.997   4.097   5.412  0.8130 -0.0201 -3.2545
 3114TIP3   OH2 9305   0.650   2.559   5.586 -0.2572 -0.7114 -0.2184
 3114TIP3    H1 9306   0.621   2.574   5.496 -0.6043  0.1545  0.0298
 3114TIP3    H2 9307   0.586   2.498   5.621 -1.4215  0.6345  0.1015
 3115TIP3   OH2 9308   4.663   4.738   2.952 -0.1908 -0.0705  0.5331
 3115TIP3    H1 9309   4.686   4.828   2.930 -0.0044 -0.5902 -1.6443
 3115TIP3    H2 9310   4.571   4.742   2.977 -0.2557  0.6689  0.1911
 3116TIP3   OH2 9311   4.260   0.455   1.846 -0.3051 -0.4952  0.0938
 3116TIP3    H1 9312   4.226   0.477   1.933 -0.8008 -0.4429 -0.1138
 3116TIP3    H2 9313   4.192   0.401   1.806 -0.4053  0.1015 -0.5498
 3117TIP3   OH2 9314   1.019   0.811   3.508 -0.9581 -0.1066 -0.3614
 3117TIP3    H1 9315   1.032   0.721   3.539 -2.2184  0.1385  0.9659
 3117TIP3    H2 9316   0.995   0.801   3.416 -2.6609 -1.2548  0.1739
 3118TIP3   OH2 9317   4.332   5.577   4.008 -0.0624  0.0537 -0.3764
 3118TIP3    H1 9318   4.262   5.642   4.003  1.4627  1.6950 -1.3772
 3118TIP3    H2 9319   4.412   5.629   4.012  1.2340 -1.7868 -1.4413
 3119TIP3   OH2 9320   3.833   4.773   1.822  0.6341 -0.3875 -0.1509
 3119TIP3    H1 9321   3.784   4.803   1.898 -0.4147  1.2944 -1.4364
 3119TIP3    H2 9322   3.842   4.678   1.835 -1.9453 -0.5759  0.6955
 3120TIP3   OH2 9323   1.800   3.896   3.052  0.0652 -0.2798  0.1155
 3120TIP3    H1 9324   1.759   3.814   3.078  1.7996 -1.9274 -1.9792
 3120TIP3    H2 9325   1.872   3.907   3.115  0.2357 -0.7272  0.0025
 3121TIP3   OH2 9326   6.091   6.761   1.537  0.1131  0.2374 -0.4851
 3121TIP3    H1 9327   6.113   6.850   1.509 -0.6734  1.2403  1.7538
 3121TIP3    H2 9328   6.126   6.755   1.626  0.5721 -1.8931 -0.7642
 3122TIP3   OH2 9329   6.803   5.321   5.786 -0.0048 -0.0190  0.1916
 3122TIP3    H1 9330   6.752   5.244   5.809  0.0836  0.1897  1.1191
 3122TIP3    H2 9331   6.893   5.289   5.777  0.2155  0.1393  1.6182
 3123TIP3   OH2 9332   3.490   2.258   4.705  0.0558 -0.1307 -0.2992
 3123TIP3    H1 9333   3.567   2.227   4.657  0.1929  0.4746 -0.4736
 3123TIP3    H2 9334   3.416   2.221   4.657  0.2032  0.2308 -0.8153
 3124TIP3   OH2 9335   3.430   3.595   3.388  0.3754 -0.0913  0.0740
 3124TIP3    H1 9336   3.449   3.676   3.341 -0.1403 -0.1485 -0.2453
 3124TIP3    H2 9337   3.418   3.623   3.479  1.5024  0.0011  0.2044
 3125TIP3   OH2 9338   2.734   3.388   1.039  0.4417  0.5940 -0.4216
 3125TIP3    H1 9339   2.761   3.307   0.996 -1.0264  0.1902 -0.6476
 3125TIP3    H2 9340   2.721   3.363   1.130 -0.7522  0.3630 -0.6364
 3126TIP3   OH2 9341   3.563   2.878   1.934  0.0727 -0.6228 -0.0914
 3126TIP3    H1 9342   3.639   2.927   1.903 -1.0568  0.7639 -0.7827
 3126TIP3    H2 9343   3.530   2.833   1.856 -0.6036 -0.1033 -0.1163
 3127TIP3   OH2 9344   0.225   2.231   5.412 -0.0445  0.8125  0.1633
 3127TIP3    H1 9345   0.194   2.215   5.323 -2.3868 -0.4919  1.1412
 3127TIP3    H2 9346   0.146   2.231   5.466  1.4230 -0.2676  2.4932
 3128TIP3   OH2 9347   0.063   6.763   2.039 -0.1720 -0.9603  0.2877
 3128TIP3    H1 9348   0.052   6.737   1.948  3.6001 -3.5472  0.3352
 3128TIP3    H2 9349   0.039   6.684   2.089 -3.6866  0.8608  1.8485
 3129TIP3   OH2 9350   3.309   2.440   1.692 -0.0501  0.1185 -0.1625
 3129TIP3    H1 9351   3.318   2.423   1.598 -2.9930  0.0929 -0.5226
 3129TIP3    H2 9352   3.320   2.355   1.733 -0.1730 -0.1211 -0.6204
 3130TIP3   OH2 9353   3.774   6.773   4.484 -0.3811 -0.1208 -0.7756
 3130TIP3    H1 9354   3.799   6.701   4.427 -1.0228 -0.9959  0.0261
 3130TIP3    H2 9355   3.712   6.735   4.546 -0.8049  1.1397 -0.3903
 3131TIP3   OH2 9356   3.766   2.713   4.679  0.1612  0.1833 -0.1058
 3131TIP3    H1 9357   3.784   2.798   4.640 -2.3690  0.8226 -0.0748
 3131TIP3    H2 9358   3.699   2.731   4.745 -1.0665 -1.9127 -0.6871
 3132TIP3   OH2 9359   1.186   0.950   5.435 -0.1738  0.4517  0.6218
 3132TIP3    H1 9360   1.157   0.966   5.346 -0.7218  0.1753  0.7470
 3132TIP3    H2 9361   1.119   0.892   5.472  0.0619  0.5461  1.2028
 3133TIP3   OH2 9362   7.027   6.357   1.534  0.4339  0.3155  0.3132
 3133TIP3    H1 9363   7.038   6.263   1.548 -1.0589  0.0681 -0.0594
 3133TIP3    H2 9364   7.041   6.369   1.440  0.3180  0.4085  0.3076
 3134TIP3   OH2 9365   2.706   3.563   4.354  0.0638 -0.1375  0.0739
 3134TIP3    H1 9366   2.642   3.581   4.422  0.5884 -1.8403  1.0813
 3134TIP3    H2 9367   2.789   3.594   4.389  0.0250  0.8865 -0.6903
 3135TIP3   OH2 9368   0.539   3.210   3.128  0.6362  0.3828 -0.3763
 3135TIP3    H1 9369   0.469   3.148   3.109 -0.8756  2.2180 -1.0329
 3135TIP3    H2 9370   0.553   3.257   3.046 -0.3295  2.8767  0.7786
 3136TIP3   OH2 9371   3.150   1.708   5.361 -0.1005  0.6468  0.0530
 3136TIP3    H1 9372   3.104   1.792   5.361 -0.1764  0.6129  0.8214
 3136TIP3    H2 9373   3.242   1.732   5.347 -0.2715  0.7560 -0.9337
 3137TIP3   OH2 9374   3.947   4.998   1.350  0.4088 -0.0676 -0.1140
 3137TIP3    H1 9375   3.937   4.912   1.311  0.7022  0.4117 -1.2753
 3137TIP3    H2 9376   3.890   4.997   1.427 -3.2226  0.2006 -2.5769
 3138TIP3   OH2 9377   2.515   3.086   5.141  0.4602  0.2998 -0.4102
 3138TIP3    H1 9378   2.479   3.152   5.200 -0.0588  0.0088 -0.3943
 3138TIP3    H2 9379   2.598   3.123   5.112  1.3341 -0.0804  1.4551
 3139TIP3   OH2 9380   3.298   0.325   0.253  0.5349 -0.2602  0.2415
 3139TIP3    H1 9381   3.366   0.389   0.273  0.0264  0.3229  0.1606
 3139TIP3    H2 9382   3.314   0.253   0.313 -0.4275  1.0568  2.1812
 3140TIP3   OH2 9383   5.554   3.078   4.815  0.5105  0.0940  0.0462
 3140TIP3    H1 9384   5.477   3.133   4.831 -1.7389 -2.3324 -1.5669
 3140TIP3    H2 9385   5.565   3.078   4.720  1.4122 -1.0140  0.1271
 3141TIP3   OH2 9386   4.332   3.233   2.411  0.0749  0.4519  0.6183
 3141TIP3    H1 9387   4.289   3.150   2.393  0.4125  0.0264  1.6679
 3141TIP3    H2 9388   4.345   3.273   2.325 -2.1470  0.4855  0.2607
 3142TIP3   OH2 9389   4.087   6.202   3.631  0.8337  0.2467 -0.2960
 3142TIP3    H1 9390   4.087   6.233   3.722  0.7793  1.1282 -0.5866
 3142TIP3    H2 9391   4.175   6.165   3.619  0.4292 -1.0326  0.4780
 3143TIP3   OH2 9392   6.325   3.959   3.094  0.0357  0.0028  0.4614
 3143TIP3    H1 9393   6.278   3.875   3.099 -0.7562  0.4899  1.9046
 3143TIP3    H2 9394   6.256   4.025   3.095  0.6247  0.7077 -1.1877
 3144TIP3   OH2 9395   0.126   4.743   0.107 -0.3970 -0.1325 -0.2116
 3144TIP3    H1 9396   0.038   4.773   0.085 -0.2452 -0.2868 -1.0726
 3144TIP3    H2 9397   0.130   4.653   0.074 -0.8723 -1.1963  2.3941
 3145TIP3   OH2 9398   5.646   1.338   3.580 -0.1554 -0.3423  0.0644
 3145TIP3    H1 9399   5.711   1.272   3.604 -0.4204 -1.0249 -1.0026
 3145TIP3    H2 9400   5.658   1.351   3.486 -0.9515  0.1986  0.0233
 3146TIP3   OH2 9401   2.952   6.471   0.745  0.4259  0.1503  0.3297
 3146TIP3    H1 9402   3.036   6.448   0.783  1.4035  0.5696 -1.4434
 3146TIP3    H2 9403   2.919   6.389   0.708 -1.5769 -0.7841  3.7301
 3147TIP3   OH2 9404   0.993   2.349   5.386 -0.2935  0.6651 -0.0909
 3147TIP3    H1 9405   0.980   2.378   5.476  0.6872 -0.6212  0.4953
 3147TIP3    H2 9406   0.905   2.346   5.348 -1.1378 -1.7399  1.7958
 3148TIP3   OH2 9407   4.521   3.453   1.331 -0.0915  0.6355  0.2478
 3148TIP3    H1 9408   4.602   3.489   1.292  0.5756  0.3007  1.2869
 3148TIP3    H2 9409   4.494   3.385   1.269  1.0394  0.0034  0.4109
 3149TIP3   OH2 9410   1.643   3.636   2.473  0.5346 -0.5137 -0.0604
 3149TIP3    H1 9411   1.725   3.588   2.486  0.1345 -0.8986  1.1937
 3149TIP3    H2 9412   1.670   3.728   2.464  1.2684 -0.8615 -2.0415
 3150TIP3   OH2 9413   1.481   2.047   4.376  0.1744  0.0242 -0.2122
 3150TIP3    H1 9414   1.531   2.060   4.457  1.0875  1.3327 -0.9613
 3150TIP3    H2 9415   1.430   2.128   4.366  0.1994 -0.0520 -1.0286
 3151TIP3   OH2 9416   4.951   3.840   5.540 -0.4343 -0.4758 -0.2442
 3151TIP3    H1 9417   5.016   3.888   5.592 -1.0158  2.7121 -2.2151
 3151TIP3    H2 9418   4.999   3.764   5.507  2.6233  2.0089 -2.0766
 3152TIP3   OH2 9419   3.670   4.940   4.469 -0.0283 -0.1387 -0.5829
 3152TIP3    H1 9420   3.713   4.856   4.454  0.9986  0.8141 -3.6914
 3152TIP3    H2 9421   3.720   4.981   4.540 -0.0574 -1.7588  0.4243
 3153TIP3   OH2 9422   3.664   0.606   0.629  0.2559 -0.4185  0.0453
 3153TIP3    H1 9423   3.614   0.525   0.623 -0.6996  0.2399 -1.7123
 3153TIP3    H2 9424   3.735   0.595   0.566  1.1289 -0.5253  1.0229
 3154TIP3   OH2 9425   3.491   4.468   5.536 -0.1660  0.2169  0.0248
 3154TIP3    H1 9426   3.519   4.548   5.581  0.2868  0.5012 -0.7402
 3154TIP3    H2 9427   3.548   4.399   5.572 -0.6176  0.2199  0.7491
 3155TIP3   OH2 9428   0.513   3.496   5.461  0.4112 -0.2069  0.3219
 3155TIP3    H1 9429   0.532   3.403   5.476 -0.2136 -0.7699 -1.9846
 3155TIP3    H2 9430   0.419   3.504   5.479  0.6519  0.2202  1.4567
 3156TIP3   OH2 9431   4.872   0.234   2.481  0.3994  0.3666  0.6798
 3156TIP3    H1 9432   4.795   0.290   2.481 -0.2442 -0.1971 -3.3047
 3156TIP3    H2 9433   4.902   0.234   2.572 -4.9148 -0.3260  2.8269
 3157TIP3   OH2 9434   6.821   1.228   5.569  0.8676 -0.4735 -0.1357
 3157TIP3    H1 9435   6.767   1.246   5.646 -0.4550  1.4338 -1.4370
 3157TIP3    H2 9436   6.874   1.307   5.558  1.4859 -0.9784 -0.8280
 3158TIP3   OH2 9437   1.326   2.284   4.462 -0.2344  0.5727  0.2176
 3158TIP3    H1 9438   1.294   2.374   4.471  0.3121  0.6244  1.9537
 3158TIP3    H2 9439   1.260   2.240   4.409 -1.6525  1.4370  1.1998
 3159TIP3   OH2 9440   4.390   4.979   0.003 -0.2767 -0.0309  0.1719
 3159TIP3    H1 9441   4.376   4.884   0.005 -0.6844 -0.0652 -1.7021
 3159TIP3    H2 9442   4.302   5.016   0.005 -0.1017  0.5418  4.3271
 3160TIP3   OH2 9443   0.069   1.556   2.692 -0.5047  0.0545 -0.2952
 3160TIP3    H1 9444   0.101   1.481   2.641  0.0784  0.2409 -0.2112
 3160TIP3    H2 9445   0.020   1.516   2.764  0.9647 -0.3266  0.5500
 3161TIP3   OH2 9446   4.486   4.638   0.806 -0.2480  0.1632 -0.1917
 3161TIP3    H1 9447   4.477   4.559   0.753 -1.1899  0.3800 -0.3871
 3161TIP3    H2 9448   4.482   4.709   0.742 -0.6372  0.4031  0.0944
 3162TIP3   OH2 9449   3.889   6.234   3.277 -0.3427 -0.3532  0.3877
 3162TIP3    H1 9450   3.881   6.329   3.289 -1.3303 -0.7149  3.3970
 3162TIP3    H2 9451   3.805   6.207   3.240 -1.7478 -0.4410  3.3561
 3163TIP3   OH2 9452   7.063   5.855   2.248 -0.3937  0.2382  0.0287
 3163TIP3    H1 9453   6.987   5.797   2.246 -1.6394  1.7971  0.3268
 3163TIP3    H2 9454   7.083   5.872   2.156 -1.5337  1.1749 -0.0782
 3164TIP3   OH2 9455   5.729   5.742   3.808  0.5458 -0.4288  0.1553
 3164TIP3    H1 9456   5.709   5.686   3.884 -1.1285 -0.5720 -0.3532
 3164TIP3    H2 9457   5.653   5.800   3.800  2.4027  2.3340  0.9519
 3165TIP3   OH2 9458   5.650   5.279   4.596  0.4703 -0.3362 -0.4417
 3165TIP3    H1 9459   5.599   5.277   4.515 -2.0054 -0.7232  1.0238
 3165TIP3    H2 9460   5.586   5.260   4.665  2.6983 -1.2089  1.5209
 3166TIP3   OH2 9461   4.838   0.283   3.695 -0.0906  0.1875  0.3131
 3166TIP3    H1 9462   4.849   0.234   3.776 -0.9257  0.8321  0.8338
 3166TIP3    H2 9463   4.767   0.345   3.713  0.3421  0.9934 -0.6058
 3167TIP3   OH2 9464   4.299   3.726   3.307  0.2147  0.1728  0.2520
 3167TIP3    H1 9465   4.354   3.725   3.229 -0.3116  0.7750 -0.1390
 3167TIP3    H2 9466   4.274   3.635   3.321 -0.1116  0.1346 -0.5831
 3168TIP3   OH2 9467   5.976   3.311   4.909  0.2091 -0.1163 -0.1526
 3168TIP3    H1 9468   6.059   3.270   4.936  0.5001  1.1621  1.0410
 3168TIP3    H2 9469   5.994   3.346   4.822  1.8985  2.5135  1.1235
 3169TIP3   OH2 9470   6.979   3.953   4.130  0.4771 -0.1493  0.5874
 3169TIP3    H1 9471   7.033   3.954   4.209  0.8932 -0.4777  0.3099
 3169TIP3    H2 9472   7.036   3.916   4.062 -0.4572 -1.5819  0.5457
 3170TIP3   OH2 9473   3.095   2.718   4.817 -0.2671 -0.1598  0.1841
 3170TIP3    H1 9474   3.112   2.643   4.761  0.5629 -0.3550  0.6864
 3170TIP3    H2 9475   3.174   2.771   4.810 -0.0323 -0.3351  1.4042
 3171TIP3   OH2 9476   3.241   1.307   2.371 -0.0134 -0.2344 -0.1993
 3171TIP3    H1 9477   3.329   1.311   2.333  0.3254 -1.2799  0.4250
 3171TIP3    H2 9478   3.251   1.347   2.457  0.3187 -2.0442  0.6458
 3172TIP3   OH2 9479   3.490   0.508   1.319 -0.1199  0.4459  0.4334
 3172TIP3    H1 9480   3.528   0.595   1.337  0.2791  0.3682  0.0076
 3172TIP3    H2 9481   3.402   0.512   1.356  0.3232  0.6149  1.5068
 3173TIP3   OH2 9482   6.769   5.732   3.173  0.0448  0.1512  0.1043
 3173TIP3    H1 9483   6.792   5.640   3.155 -1.0567 -0.3425  1.0717
 3173TIP3    H2 9484   6.853   5.775   3.188  0.6470 -0.4944 -1.1701
 3174TIP3   OH2 9485   2.114   0.363   1.385 -0.3840 -0.0712  0.5737
 3174TIP3    H1 9486   2.096   0.426   1.315  0.0635 -0.0120  0.5094
 3174TIP3    H2 9487   2.199   0.326   1.362 -0.7759 -0.9187  0.4550
 3175TIP3   OH2 9488  -0.017   6.068   0.100  0.5229 -0.5390 -0.2335
 3175TIP3    H1 9489   0.031   5.994   0.064  2.1763  0.0380  0.6890
 3175TIP3    H2 9490   0.008   6.142   0.044 -2.1252 -0.8120 -1.9765
 3176TIP3   OH2 9491   6.308   1.451   0.862  0.2629  0.0299  0.2012
 3176TIP3    H1 9492   6.230   1.422   0.911 -1.3816  0.8993 -1.7652
 3176TIP3    H2 9493   6.334   1.532   0.906 -2.3128  1.8217 -1.2858
 3177TIP3   OH2 9494   1.551   5.658   4.879  0.1389  0.3046  0.1373
 3177TIP3    H1 9495   1.637   5.668   4.839  1.0887 -2.1370  1.4127
 3177TIP3    H2 9496   1.491   5.651   4.805  1.1726  0.8147 -0.7740
 3178TIP3   OH2 9497   1.436   3.656   5.041  0.5470  0.0002  0.2545
 3178TIP3    H1 9498   1.344   3.665   5.015  0.6851  0.8412  0.0026
 3178TIP3    H2 9499   1.449   3.726   5.105  1.4376  0.9851 -0.9655
 3179TIP3   OH2 9500   3.013   6.588   0.216  0.0746  0.2813 -0.5657
 3179TIP3    H1 9501   3.042   6.501   0.190 -0.6304 -0.7730  1.9030
 3179TIP3    H2 9502   3.090   6.644   0.202  0.7437 -0.8417 -1.5565
 3180TIP3   OH2 9503   4.559   3.317   5.238  0.0403  0.2201  0.1298
 3180TIP3    H1 9504   4.499   3.275   5.300 -0.0159 -0.9656 -0.6788
 3180TIP3    H2 9505   4.583   3.399   5.279 -0.0571 -0.4953  1.6757
 3181TIP3   OH2 9506   6.005   1.030   4.938  0.4746 -0.3615 -0.0393
 3181TIP3    H1 9507   6.072   1.075   4.988  1.1332  1.0205 -2.0335
 3181TIP3    H2 9508   5.926   1.084   4.947  0.7988  0.3091 -1.0423
 3182TIP3   OH2 9509   5.476   6.651   5.684 -0.4502 -0.5462 -0.1774
 3182TIP3    H1 9510   5.391   6.613   5.663 -1.2288 -0.4553  2.4333
 3182TIP3    H2 9511   5.517   6.587   5.742  0.1817  0.5252  0.5878
 3183TIP3   OH2 9512   1.191   5.604   3.736 -0.3223  0.0758 -0.1467
 3183TIP3    H1 9513   1.239   5.535   3.690 -0.4581  0.0562 -0.2639
 3183TIP3    H2 9514   1.163   5.564   3.818 -1.2850 -0.3511 -0.6572
 3184TIP3   OH2 9515   5.346   2.590   2.342  0.2169 -0.1705  0.5462
 3184TIP3    H1 9516   5.251   2.592   2.347  0.1977  0.0113  0.1425
 3184TIP3    H2 9517   5.372   2.682   2.345  0.2772 -0.1152 -1.1155
 3185TIP3   OH2 9518   2.251   4.634   2.181 -0.1104  0.1743  0.2518
 3185TIP3    H1 9519   2.320   4.612   2.243  1.9615  0.0369 -1.9927
 3185TIP3    H2 9520   2.226   4.550   2.142 -0.2129  0.4422 -0.2693
 3186TIP3   OH2 9521   4.637   3.869   2.186  0.2504 -0.3237 -0.0663
 3186TIP3    H1 9522   4.642   3.964   2.174  0.5017 -0.4048 -0.6026
 3186TIP3    H2 9523   4.610   3.859   2.278  0.2300  0.2629 -0.0005
 3187TIP3   OH2 9524   4.558   5.970   0.730 -0.0304 -0.0996  0.6083
 3187TIP3    H1 9525   4.609   5.907   0.679  1.0924  0.9189  0.3984
 3187TIP3    H2 9526   4.538   5.925   0.812 -0.6589 -1.2753 -0.1642
 3188TIP3   OH2 9527   2.487   5.783   3.149  0.7535  0.7062 -0.1602
 3188TIP3    H1 9528   2.418   5.837   3.186  0.9345  1.1468 -0.4487
 3188TIP3    H2 9529   2.441   5.717   3.096  0.4922 -0.0198  0.9481
 3189TIP3   OH2 9530   5.933   5.315   4.447 -0.2515  0.7006  0.0962
 3189TIP3    H1 9531   5.873   5.292   4.376 -0.9608  3.4350 -0.2898
 3189TIP3    H2 9532   5.885   5.295   4.527 -0.5515  0.2439 -0.1949
 3190TIP3   OH2 9533   5.644   1.832   3.414 -0.2801  0.1543 -0.0228
 3190TIP3    H1 9534   5.583   1.892   3.458  0.3174  0.4059  0.4717
 3190TIP3    H2 9535   5.670   1.878   3.334 -2.1422 -0.7148 -1.2186
 3191TIP3   OH2 9536   2.562   1.795   5.773  0.3315  0.8549  0.3955
 3191TIP3    H1 9537   2.593   1.733   5.839  0.1413  0.4586  0.1087
 3191TIP3    H2 9538   2.487   1.752   5.733  1.0600  0.6621 -0.7855
 3192TIP3   OH2 9539   3.753   4.364   3.929  0.2703 -0.2924 -0.6615
 3192TIP3    H1 9540   3.804   4.299   3.881  0.4626 -0.7025  0.0815
 3192TIP3    H2 9541   3.677   4.316   3.961 -0.4774  0.2609 -1.5580
 3193TIP3   OH2 9542   5.293   2.138   5.122  0.2210  0.7969 -0.1675
 3193TIP3    H1 9543   5.301   2.202   5.193 -0.0107  1.1368 -0.4500
 3193TIP3    H2 9544   5.341   2.061   5.154 -0.3447  0.7508  0.5857
 3194TIP3   OH2 9545   4.710   1.088   3.989 -0.3063  0.2305  0.1304
 3194TIP3    H1 9546   4.664   1.013   4.026 -0.7936 -0.0713 -1.0409
 3194TIP3    H2 9547   4.741   1.137   4.065  0.0885 -1.1874  0.9185
 3195TIP3   OH2 9548   3.467   1.372   2.242 -0.3230  0.7367 -0.2997
 3195TIP3    H1 9549   3.496   1.429   2.314  0.8854 -0.9140  0.5893
 3195TIP3    H2 9550   3.526   1.395   2.169  0.6892  0.1004  0.2989
 3196TIP3   OH2 9551   6.450   0.456   2.009 -0.5480 -0.5846 -0.0343
 3196TIP3    H1 9552   6.366   0.490   2.038  0.7101  1.4510  1.5717
 3196TIP3    H2 9553   6.436   0.429   1.918 -2.5953  0.9517 -0.2415
 3197TIP3   OH2 9554   1.316   5.967   2.963  0.5075  0.5282  0.4438
 3197TIP3    H1 9555   1.385   5.967   2.898  2.7707  0.1479  2.6730
 3197TIP3    H2 9556   1.307   6.059   2.990  1.3915  0.3875  1.3009
 3198TIP3   OH2 9557   0.231   4.049   5.371  0.2992 -0.1223  0.3775
 3198TIP3    H1 9558   0.181   3.988   5.425 -1.4644  0.5909 -0.3772
 3198TIP3    H2 9559   0.273   4.108   5.434 -1.5050  0.5294  1.0401
 3199TIP3   OH2 9560   1.049   1.237   1.937 -0.4314 -0.1161 -0.0701
 3199TIP3    H1 9561   1.105   1.170   1.898  0.3737 -0.6641  1.9050
 3199TIP3    H2 9562   1.053   1.220   2.032 -1.4994  1.7332  0.3614
 3200TIP3   OH2 9563   0.947   3.752   0.115  1.2094 -0.1422  0.1939
 3200TIP3    H1 9564   0.869   3.714   0.073  1.1410 -0.0905  0.2732
 3200TIP3    H2 9565   1.015   3.686   0.103  0.7602 -0.8723  1.4416
 3201TIP3   OH2 9566   0.628   3.277   1.656 -0.3779  0.1184  0.1892
 3201TIP3    H1 9567   0.532   3.272   1.658 -0.4558 -2.2731 -2.9928
 3201TIP3    H2 9568   0.646   3.360   1.611 -0.8981  0.5317  0.7070
 3202TIP3   OH2 9569   2.803   3.479   2.265 -0.4581  0.1548  0.0080
 3202TIP3    H1 9570   2.859   3.408   2.296 -2.3052 -1.2494  0.3020
 3202TIP3    H2 9571   2.780   3.455   2.176 -0.0659  1.0675 -0.3502
 3203TIP3   OH2 9572   6.927   5.744   0.609  0.0409 -0.8485 -0.4857
 3203TIP3    H1 9573   6.945   5.681   0.540  0.9840 -1.8970  0.6865
 3203TIP3    H2 9574   7.007   5.748   0.661 -0.8222 -0.5016  0.8853
 3204TIP3   OH2 9575   4.591   6.202   1.800 -0.3551 -0.0364  0.2834
 3204TIP3    H1 9576   4.616   6.117   1.835 -0.0456  0.4132  1.1792
 3204TIP3    H2 9577   4.552   6.248   1.875 -0.5669  0.5870 -0.2031
 3205TIP3   OH2 9578   6.755   1.309   1.891 -0.2254  0.2327 -0.1936
 3205TIP3    H1 9579   6.764   1.403   1.906  1.2333  0.1578 -0.4614
 3205TIP3    H2 9580   6.720   1.302   1.802 -1.1604  0.5161  0.1372
 3206TIP3   OH2 9581   0.150   5.429   1.015 -0.2680 -0.0135  0.1237
 3206TIP3    H1 9582   0.147   5.349   1.068 -0.6673  0.9340  1.5696
 3206TIP3    H2 9583   0.102   5.494   1.066 -0.5144  0.9985 -1.3272
 3207TIP3   OH2 9584   3.673   4.535   4.593 -0.5516 -0.3862  0.1764
 3207TIP3    H1 9585   3.646   4.538   4.684  4.0366 -1.7649  1.8743
 3207TIP3    H2 9586   3.717   4.451   4.584  1.4433  0.7923 -2.5090
 3208TIP3   OH2 9587   1.827   5.427   3.959 -0.0404  0.1534 -0.0511
 3208TIP3    H1 9588   1.789   5.399   3.875 -0.1473  0.1431  0.0002
 3208TIP3    H2 9589   1.759   5.479   4.000  0.8706  2.2033 -1.0192
 3209TIP3   OH2 9590   4.400   4.679   1.627  0.3786 -0.1885  0.1473
 3209TIP3    H1 9591   4.411   4.606   1.688  2.4659 -0.7220 -0.7514
 3209TIP3    H2 9592   4.489   4.699   1.598 -0.3355  1.4990 -1.0601
 3210TIP3   OH2 9593   1.588   5.130   3.640 -0.2196 -0.4319 -0.2917
 3210TIP3    H1 9594   1.556   5.043   3.615  1.9348 -1.1376 -0.7979
 3210TIP3    H2 9595   1.597   5.177   3.557 -0.1591 -0.1545 -0.1299
 3211TIP3   OH2 9596   4.659   0.580   5.668  0.0029  0.3216 -0.3961
 3211TIP3    H1 9597   4.601   0.512   5.632 -0.6590  0.3921  0.4977
 3211TIP3    H2 9598   4.611   0.661   5.656  1.0766  0.7476 -2.0618
 3212TIP3   OH2 9599   1.649   1.588   2.200 -0.4201  0.0259  0.0960
 3212TIP3    H1 9600   1.740   1.569   2.178 -0.2440  0.5431  0.3839
 3212TIP3    H2 9601   1.606   1.601   2.115 -0.2054 -0.1197 -0.0351
 3213TIP3   OH2 9602   1.431   5.534   3.965 -0.4340  0.0972 -0.4658
 3213TIP3    H1 9603   1.347   5.492   3.980 -0.7203  0.8318  0.0690
 3213TIP3    H2 9604   1.472   5.483   3.895 -0.8703 -0.8998 -0.0132
 3214TIP3   OH2 9605   1.844   4.866   5.754 -0.4909 -0.4856 -0.0824
 3214TIP3    H1 9606   1.806   4.952   5.739  0.2343 -0.3637 -1.3709
 3214TIP3    H2 9607   1.854   4.860   5.849 -2.1052  0.1526  0.1454
 3215TIP3   OH2 9608   0.284   1.258   3.820 -0.8392  0.2361  0.2901
 3215TIP3    H1 9609   0.357   1.195   3.817  0.1456  1.2262  1.9803
 3215TIP3    H2 9610   0.283   1.297   3.733  0.7320  0.2461  0.2424
 3216TIP3   OH2 9611   0.521   6.001   5.502  0.3961  0.4942  0.3212
 3216TIP3    H1 9612   0.521   5.954   5.419 -0.5317  1.0501 -0.0133
 3216TIP3    H2 9613   0.606   5.981   5.542  1.6714  1.7238 -1.6226
 3217TIP3   OH2 9614   1.661   4.371   1.649 -0.0725 -0.2560  0.3652
 3217TIP3    H1 9615   1.701   4.290   1.614  0.2235  0.2446 -0.5029
 3217TIP3    H2 9616   1.672   4.364   1.744 -2.8684 -2.7012  0.6263
 3218TIP3   OH2 9617   3.407   5.458   4.861  0.1357 -0.2964 -0.0103
 3218TIP3    H1 9618   3.382   5.527   4.923 -0.4597 -0.6958  0.1998
 3218TIP3    H2 9619   3.376   5.377   4.902 -1.1787 -0.4713 -1.3069
 3219TIP3   OH2 9620   3.398   1.607   1.222 -0.0040 -0.0814  0.4856
 3219TIP3    H1 9621   3.482   1.645   1.198 -0.2355 -0.3807 -0.8334
 3219TIP3    H2 9622   3.375   1.651   1.304  1.3297  0.1480  0.7564
 3220TIP3   OH2 9623   5.762   0.118   3.277  0.0931 -0.0033  0.0905
 3220TIP3    H1 9624   5.723   0.176   3.211  1.2306  0.3333 -0.2952
 3220TIP3    H2 9625   5.778   0.036   3.231  0.4705  0.0825  0.0705
 3221TIP3   OH2 9626   3.450   2.344   1.171  0.3153  0.2602 -0.3428
 3221TIP3    H1 9627   3.506   2.420   1.189 -0.0232  0.4070  0.1160
 3221TIP3    H2 9628   3.433   2.349   1.077  0.4178  0.6713 -0.3433
 3222TIP3   OH2 9629   0.001   2.417   3.071 -0.0484  0.4689  0.0202
 3222TIP3    H1 9630  -0.026   2.330   3.102  1.3943 -0.4636 -1.1778
 3222TIP3    H2 9631   0.039   2.459   3.148  0.6893 -0.6168  0.2771
 3223TIP3   OH2 9632   6.143   6.287   0.922  0.6119 -0.3378 -0.6696
 3223TIP3    H1 9633   6.233   6.284   0.890  1.9586 -0.2527  2.6314
 3223TIP3    H2 9634   6.118   6.379   0.914  0.7987 -0.3656 -1.6248
 3224TIP3   OH2 9635   3.018   5.147   4.234  0.1614 -0.3625  0.9343
 3224TIP3    H1 9636   3.016   5.225   4.289  0.3615 -0.5147  1.1601
 3224TIP3    H2 9637   2.976   5.174   4.153  1.0013  0.2354  0.6832
 3225TIP3   OH2 9638   3.807   1.956   2.261  0.0160  0.0703  0.4931
 3225TIP3    H1 9639   3.898   1.949   2.233  0.3297 -0.9097  1.6698
 3225TIP3    H2 9640   3.757   1.920   2.188  0.5141  1.1159 -0.3884
 3226TIP3   OH2 9641   1.944   5.478   1.459  0.1528  0.2026 -0.4093
 3226TIP3    H1 9642   1.922   5.415   1.390  0.9391  1.8459 -2.2799
 3226TIP3    H2 9643   1.951   5.426   1.538 -4.2513 -1.3570 -0.7727
 3227TIP3   OH2 9644   2.625   4.674   2.005 -0.3518  0.1217 -0.5729
 3227TIP3    H1 9645   2.564   4.694   1.934 -0.5913  0.8684 -0.1676
 3227TIP3    H2 9646   2.682   4.606   1.969  0.2366  1.2582 -1.8651
 3228TIP3   OH2 9647   5.895   5.297   5.395  0.3093 -0.4591  0.1130
 3228TIP3    H1 9648   5.863   5.361   5.332  1.4843 -0.8686 -0.9485
 3228TIP3    H2 9649   5.957   5.346   5.450  1.1793 -0.6319 -0.6743
 3229TIP3   OH2 9650   0.066   2.329   4.262  0.3608  0.3244 -0.4857
 3229TIP3    H1 9651   0.037   2.239   4.251  0.3449  0.1815  0.6555
 3229TIP3    H2 9652  -0.009   2.382   4.236 -0.2096 -0.0176  0.4512
 3230TIP3   OH2 9653   2.611   1.580   3.754 -0.1783 -0.0368  0.2765
 3230TIP3    H1 9654   2.670   1.544   3.688 -0.2425  0.3267  0.0184
 3230TIP3    H2 9655   2.625   1.675   3.750 -0.2759 -0.0019  0.6938
 3231TIP3   OH2 9656   2.095   4.372   2.440  0.1873 -0.2000 -0.8271
 3231TIP3    H1 9657   2.149   4.412   2.509 -0.0419  2.0950 -1.8889
 3231TIP3    H2 9658   2.022   4.432   2.428 -3.5495 -3.7476  1.4112
 3232TIP3   OH2 9659   3.501   1.291   3.587 -0.6485 -0.1066  0.4519
 3232TIP3    H1 9660   3.578   1.241   3.615 -1.8235 -0.8107  2.6908
 3232TIP3    H2 9661   3.449   1.229   3.536  0.6118  0.6297 -1.8488
 3233TIP3   OH2 9662   6.550   0.894   0.272 -0.0592 -0.0442 -0.1297
 3233TIP3    H1 9663   6.543   0.799   0.265 -2.0695 -0.0310  0.9250
 3233TIP3    H2 9664   6.591   0.909   0.358 -1.7133  0.0177  0.6865
 3234TIP3   OH2 9665   3.443   2.259   5.764  0.3949  0.0406 -0.6082
 3234TIP3    H1 9666   3.368   2.316   5.782  0.0603 -0.2270 -1.1314
 3234TIP3    H2 9667   3.432   2.186   5.825 -0.3439 -0.5081 -1.3800
 3235TIP3   OH2 9668   1.356   2.900   1.650  0.3928 -0.3840  0.0584
 3235TIP3    H1 9669   1.278   2.934   1.605  1.2576  1.9802  0.2327
 3235TIP3    H2 9670   1.430   2.934   1.600  1.3755  1.7071  2.6771
 3236TIP3   OH2 9671   1.113   0.608   3.245  0.0018  0.3361  0.3487
 3236TIP3    H1 9672   1.092   0.562   3.164 -0.7702  0.4507  0.4763
 3236TIP3    H2 9673   1.028   0.634   3.281  0.3630  0.7550  0.9226
 3237TIP3   OH2 9674   7.166   6.584   0.951 -0.0235 -0.7711  0.3732
 3237TIP3    H1 9675   7.124   6.669   0.937  0.0473 -0.9804 -1.2876
 3237TIP3    H2 9676   7.171   6.545   0.864  0.3558 -2.2959  1.0496
 3238TIP3   OH2 9677   6.751   6.617   4.717 -0.7000  0.0138 -0.2228
 3238TIP3    H1 9678   6.734   6.677   4.644  1.0591 -0.0622 -0.7607
 3238TIP3    H2 9679   6.763   6.532   4.676  0.0735 -0.0743  0.1584
 3239TIP3   OH2 9680   2.819   2.670   4.626  0.5553  0.0081 -0.1160
 3239TIP3    H1 9681   2.905   2.649   4.590 -0.7530 -1.0196 -2.8934
 3239TIP3    H2 9682   2.799   2.758   4.594  0.4635  0.1381  0.2933
 3240TIP3   OH2 9683   0.391   0.830   5.427 -0.9974  0.1242 -0.4258
 3240TIP3    H1 9684   0.401   0.858   5.518  0.4896 -0.8404 -0.2600
 3240TIP3    H2 9685   0.428   0.902   5.375 -2.5526  1.0309 -0.3641
 3241TIP3   OH2 9686   3.129   4.455   1.978 -0.0232 -0.2660 -0.0382
 3241TIP3    H1 9687   3.168   4.489   1.897  1.6074  0.3551  0.9611
 3241TIP3    H2 9688   3.191   4.389   2.008  0.2675  0.6755  1.5483
 3242TIP3   OH2 9689   4.972   6.407   0.044  0.2830 -0.0223 -0.0559
 3242TIP3    H1 9690   4.878   6.421   0.032  0.2692 -0.8115 -0.9259
 3242TIP3    H2 9691   4.998   6.353  -0.030  0.8616 -2.2094  1.6370
 3243TIP3   OH2 9692   0.546   1.100   2.730 -0.0789 -0.0796 -0.5187
 3243TIP3    H1 9693   0.463   1.067   2.696 -0.8168  1.9862 -0.8149
 3243TIP3    H2 9694   0.600   1.021   2.741 -2.1783 -1.5142  0.0559
 3244TIP3   OH2 9695   3.127   6.105   2.657 -0.3212  0.0839 -0.0624
 3244TIP3    H1 9696   3.095   6.018   2.635 -0.9797  0.5500 -1.0309
 3244TIP3    H2 9697   3.156   6.098   2.748 -0.0660 -1.2188 -0.2203
 3245TIP3   OH2 9698   6.573   3.421   3.697 -0.2618 -0.4440  0.0859
 3245TIP3    H1 9699   6.527   3.505   3.708  2.2754  1.3591 -1.7238
 3245TIP3    H2 9700   6.639   3.440   3.631  1.5230 -3.4840  0.8474
 3246TIP3   OH2 9701   0.194   6.713   0.854 -0.0967  0.0721 -0.1424
 3246TIP3    H1 9702   0.165   6.625   0.832 -2.8317  1.3263 -2.0810
 3246TIP3    H2 9703   0.178   6.721   0.949 -0.0466 -1.3919  0.0075
 3247TIP3   OH2 9704  -0.010   3.283   3.810 -0.1754 -0.3296  0.0232
 3247TIP3    H1 9705   0.079   3.314   3.794 -0.5620  2.0912  1.9706
 3247TIP3    H2 9706  -0.060   3.311   3.734  0.8228 -2.6031 -1.5752
 3248TIP3   OH2 9707   6.393   0.410   0.030 -0.9502  0.6589 -0.3301
 3248TIP3    H1 9708   6.379   0.505   0.038 -1.5920  0.6073 -0.7649
 3248TIP3    H2 9709   6.412   0.397  -0.063 -2.2812  0.1946 -0.5559
 3249TIP3   OH2 9710   6.965   1.964   0.112  0.3437  0.0446 -0.1696
 3249TIP3    H1 9711   6.984   1.971   0.206 -0.9015 -0.2788  0.1157
 3249TIP3    H2 9712   6.890   1.905   0.106  0.2520  0.2479 -1.3574
 3250TIP3   OH2 9713   5.008   4.256   1.343  0.6721  0.2296  0.8065
 3250TIP3    H1 9714   5.070   4.207   1.397  1.2333  0.3574  0.2956
 3250TIP3    H2 9715   4.951   4.190   1.305  1.7136 -0.1032 -0.2460
 3251TIP3   OH2 9716   3.833   5.054   0.325 -0.9422 -0.4354  0.0121
 3251TIP3    H1 9717   3.780   5.111   0.381  0.4498  1.7769 -0.7886
 3251TIP3    H2 9718   3.797   5.067   0.237 -0.5011 -0.6491 -0.2016
 3252TIP3   OH2 9719   2.857   1.631   3.130 -0.1021  0.0741 -0.0158
 3252TIP3    H1 9720   2.904   1.704   3.170 -2.1045  1.2040  0.3832
 3252TIP3    H2 9721   2.896   1.553   3.170  1.3658  0.9436  0.3233
 3253TIP3   OH2 9722   4.425   3.709   4.768 -0.4807  0.8150  0.0665
 3253TIP3    H1 9723   4.457   3.625   4.802 -2.9778 -0.3629 -0.2382
 3253TIP3    H2 9724   4.393   3.755   4.846  2.2225  2.2237  0.4488
 3254TIP3   OH2 9725   1.191   5.566   2.782 -0.0912 -0.0763  0.1212
 3254TIP3    H1 9726   1.269   5.561   2.838  0.1305 -0.6681 -0.2287
 3254TIP3    H2 9727   1.118   5.552   2.842 -0.1410  2.7857  0.8825
 3255TIP3   OH2 9728   4.960   1.720   2.213 -0.4402 -0.2978 -0.4527
 3255TIP3    H1 9729   4.988   1.640   2.257 -3.5452 -0.4320  1.5963
 3255TIP3    H2 9730   4.987   1.791   2.272 -1.3591 -0.1866 -0.1546
 3256TIP3   OH2 9731   2.035   3.039   1.205 -0.2281 -0.2075 -0.4259
 3256TIP3    H1 9732   2.027   3.032   1.110 -1.4017  0.7514 -0.4282
 3256TIP3    H2 9733   2.006   3.128   1.225 -0.0926 -0.4283  0.8348
 3257TIP3   OH2 9734   6.458   4.170   2.210 -0.5981 -0.4852  0.1770
 3257TIP3    H1 9735   6.454   4.075   2.205  1.1939 -0.5381 -1.4151
 3257TIP3    H2 9736   6.475   4.189   2.303  0.2357 -1.7755  0.3016
 3258TIP3   OH2 9737   5.321   1.686   0.307 -0.0357  0.3340  0.1842
 3258TIP3    H1 9738   5.226   1.692   0.310 -0.4045 -2.4109 -2.2215
 3258TIP3    H2 9739   5.345   1.634   0.384 -1.0533 -2.9156 -1.5641
 3259TIP3   OH2 9740   6.599   2.729   2.462 -0.2446 -0.2623  0.1181
 3259TIP3    H1 9741   6.660   2.680   2.406  0.7988  0.1845  0.8289
 3259TIP3    H2 9742   6.631   2.819   2.459 -0.4324 -0.1527  1.0789
 3260TIP3   OH2 9743   1.943   1.900   0.552 -0.0242 -0.8728  0.0432
 3260TIP3    H1 9744   2.034   1.873   0.567  0.3108  0.8645  1.5422
 3260TIP3    H2 9745   1.949   1.991   0.523 -1.2830 -0.6590  0.3682
 3261TIP3   OH2 9746   7.150   1.304   0.489 -0.1111 -0.4357 -0.1345
 3261TIP3    H1 9747   7.185   1.215   0.487  0.9119 -0.0335 -0.8079
 3261TIP3    H2 9748   7.125   1.322   0.399 -0.0980  0.0416 -0.0450
 3262TIP3   OH2 9749   0.022   4.478   1.886  0.8925  0.1779  0.5919
 3262TIP3    H1 9750   0.088   4.421   1.846 -0.3154 -1.1383  0.4032
 3262TIP3    H2 9751   0.003   4.544   1.820  2.1307  0.6794  0.7152
 3263TIP3   OH2 9752   3.127   4.699   3.726 -0.3843  0.0521 -0.3411
 3263TIP3    H1 9753   3.192   4.754   3.682 -2.2376  1.8155 -1.0216
 3263TIP3    H2 9754   3.178   4.650   3.791  1.9098 -0.1561 -2.1620
 3264TIP3   OH2 9755   0.383   2.093   1.129  0.1195 -0.0710  0.4090
 3264TIP3    H1 9756   0.469   2.083   1.168 -0.5184  1.2130  2.2631
 3264TIP3    H2 9757   0.344   2.168   1.175 -1.8461 -0.3960 -0.6209
 3265TIP3   OH2 9758   4.612   6.769   3.616 -0.0036 -0.0213 -0.1826
 3265TIP3    H1 9759   4.525   6.745   3.584 -0.5306  0.4193  0.8609
 3265TIP3    H2 9760   4.601   6.779   3.711  0.7937  1.6010 -0.2187
 3266TIP3   OH2 9761   3.769   6.314   2.604 -0.5008  0.0696  0.0348
 3266TIP3    H1 9762   3.853   6.309   2.559 -1.4317 -1.6114 -1.6421
 3266TIP3    H2 9763   3.784   6.271   2.688  0.4151  0.1620 -0.0795
 3267TIP3   OH2 9764   4.181   3.439   5.795 -0.1104 -0.4234 -0.0085
 3267TIP3    H1 9765   4.086   3.432   5.803 -0.2975  0.5801 -1.0303
 3267TIP3    H2 9766   4.205   3.375   5.728 -0.3993  0.8161 -1.3780
 3268TIP3   OH2 9767   6.276   4.638   3.906  0.5545  0.4635 -0.2107
 3268TIP3    H1 9768   6.299   4.650   3.998 -2.8226 -1.6426  1.0986
 3268TIP3    H2 9769   6.333   4.567   3.876  0.2046 -0.3358  0.9633
 3269TIP3   OH2 9770   5.970   1.099   4.436 -0.0913  0.5022 -0.2861
 3269TIP3    H1 9771   6.049   1.152   4.425  1.0501 -1.0988 -0.2281
 3269TIP3    H2 9772   5.987   1.045   4.513 -0.8474 -0.5068 -0.7871
 3270TIP3   OH2 9773   4.154   6.042   5.001 -0.3527  0.0155  0.3828
 3270TIP3    H1 9774   4.092   5.994   5.055  1.0629  1.4416  3.5191
 3270TIP3    H2 9775   4.218   5.977   4.974 -1.8753 -1.0029 -0.9126
 3271TIP3   OH2 9776   5.707   3.075   3.425 -0.2692  0.1818 -0.0679
 3271TIP3    H1 9777   5.758   3.109   3.500 -2.0622  1.1734  0.7667
 3271TIP3    H2 9778   5.760   3.004   3.391 -0.2309 -1.6956  3.4179
 3272TIP3   OH2 9779   4.544   4.451   4.126  0.4499  0.1338 -0.0113
 3272TIP3    H1 9780   4.625   4.403   4.110  0.2245 -0.2645  0.0070
 3272TIP3    H2 9781   4.486   4.424   4.054  0.2714  0.2625  0.0822
 3273TIP3   OH2 9782   6.817   1.046   3.324  0.4044 -0.0605  0.2033
 3273TIP3    H1 9783   6.762   1.091   3.259  1.5624  2.7632  1.0167
 3273TIP3    H2 9784   6.828   1.110   3.394  2.3298 -1.6021  1.4118
 3274TIP3   OH2 9785   2.676   4.926   5.054 -0.2257  0.1514 -0.1654
 3274TIP3    H1 9786   2.763   4.891   5.037 -0.3104 -0.1660  0.0569
 3274TIP3    H2 9787   2.678   4.955   5.145 -0.0723  0.9788 -0.4195
 3275TIP3   OH2 9788   5.224   2.453   3.818  0.0741  0.1753  0.5195
 3275TIP3    H1 9789   5.244   2.410   3.901 -0.9632 -1.6719 -0.1071
 3275TIP3    H2 9790   5.263   2.395   3.751  1.8723  2.2003 -0.2874
 3276TIP3   OH2 9791   4.551   6.088   1.537 -0.2142  0.1297  0.5204
 3276TIP3    H1 9792   4.610   6.018   1.563  2.1064  1.2691 -1.2565
 3276TIP3    H2 9793   4.545   6.145   1.614  2.1050  0.6316  0.3983
 3277TIP3   OH2 9794   6.757   0.256   0.725  0.4787  0.2829 -0.7431
 3277TIP3    H1 9795   6.830   0.316   0.736  0.1718  0.5478 -0.0867
 3277TIP3    H2 9796   6.732   0.265   0.633  2.6628 -1.4417 -1.5928
 3278TIP3   OH2 9797   5.097   4.427   3.599 -0.1083  1.1087  0.3168
 3278TIP3    H1 9798   5.056   4.418   3.685 -0.9309  2.4587  0.0964
 3278TIP3    H2 9799   5.108   4.522   3.587  1.3650  0.8791 -0.4438
 3279TIP3   OH2 9800   6.735   2.678   1.711  0.1355 -0.0004 -0.2599
 3279TIP3    H1 9801   6.829   2.697   1.721  0.1102  0.6831 -1.1821
 3279TIP3    H2 9802   6.704   2.665   1.800  1.0903 -0.1353  0.0712
 3280TIP3   OH2 9803   4.968   5.937   4.988  0.0857  0.3139  0.1400
 3280TIP3    H1 9804   4.963   6.028   4.961  0.2917  0.6931  1.3178
 3280TIP3    H2 9805   4.972   5.887   4.906 -0.4000  1.3290 -0.5147
 3281TIP3   OH2 9806   5.909   5.082   1.147 -0.2397  0.5996  0.3071
 3281TIP3    H1 9807   5.890   5.087   1.241 -1.2137  0.0722  0.1586
 3281TIP3    H2 9808   5.829   5.116   1.105 -0.4201 -0.5922 -0.3472
 3282TIP3   OH2 9809   1.814   3.551   5.217 -0.1399 -0.3082 -0.5907
 3282TIP3    H1 9810   1.908   3.543   5.201  0.1366  1.8647 -0.2598
 3282TIP3    H2 9811   1.791   3.468   5.261  1.4835 -1.1111 -1.1645
 3283TIP3   OH2 9812   1.179   3.817   2.654  0.5422 -0.4571  0.5165
 3283TIP3    H1 9813   1.232   3.740   2.633 -0.0628 -1.1507  1.4616
 3283TIP3    H2 9814   1.242   3.889   2.656  1.1203 -0.9222 -0.3594
 3284TIP3   OH2 9815   3.447   3.185   3.520 -0.3627  0.3298 -0.0444
 3284TIP3    H1 9816   3.511   3.216   3.584 -1.0359 -1.5783  1.6488
 3284TIP3    H2 9817   3.492   3.116   3.471 -0.3887  0.6191 -0.4840
 3285TIP3   OH2 9818   5.541   3.386   5.711  0.5906  0.1725 -0.0848
 3285TIP3    H1 9819   5.603   3.326   5.752 -1.1307 -0.2030  2.1524
 3285TIP3    H2 9820   5.584   3.472   5.716  0.6896  0.0369  2.0494
 3286TIP3   OH2 9821   0.095   2.341   3.449 -0.6315  0.4790  0.3815
 3286TIP3    H1 9822   0.119   2.366   3.538  1.9181 -0.0440 -0.1000
 3286TIP3    H2 9823   0.109   2.420   3.397 -1.6297  0.6376  0.3296
 3287TIP3   OH2 9824   2.860   0.725   0.572  0.4720  0.1879  0.3603
 3287TIP3    H1 9825   2.897   0.640   0.550 -0.3952 -1.1302  3.4876
 3287TIP3    H2 9826   2.934   0.776   0.603  0.5098 -0.7286  1.8825
 3288TIP3   OH2 9827   5.192   6.459   0.602 -0.0321 -0.1464 -0.1185
 3288TIP3    H1 9828   5.250   6.499   0.537 -1.6973  1.6597 -0.5682
 3288TIP3    H2 9829   5.105   6.466   0.564 -0.8076 -0.9549  1.4310
 3289TIP3   OH2 9830   4.066   3.125   1.914 -0.2174 -0.6854  0.1895
 3289TIP3    H1 9831   4.150   3.121   1.959 -0.0404 -1.1581 -0.1729
 3289TIP3    H2 9832   4.003   3.147   1.983  0.1644 -0.5810  0.5092
 3290TIP3   OH2 9833   4.705   0.541   0.871 -0.2097 -0.2710 -0.0814
 3290TIP3    H1 9834   4.756   0.523   0.792  0.4822 -0.4966  0.4119
 3290TIP3    H2 9835   4.727   0.632   0.893 -1.3139  0.1950 -0.8067
 3291TIP3   OH2 9836   0.162   2.637   1.679 -0.2372  0.3694 -0.1373
 3291TIP3    H1 9837   0.184   2.623   1.772 -1.1108  2.5536  0.4415
 3291TIP3    H2 9838   0.247   2.636   1.634  0.3335  0.7169  0.8958
 3292TIP3   OH2 9839   6.042   3.849   2.095 -0.0987 -0.2164 -0.2133
 3292TIP3    H1 9840   6.099   3.815   2.027 -0.0026 -1.1495  0.3106
 3292TIP3    H2 9841   5.959   3.866   2.051  0.6164  1.3612 -1.0266
 3293TIP3   OH2 9842   3.997   3.058   4.375 -0.4704 -0.3513 -0.2289
 3293TIP3    H1 9843   4.022   3.141   4.416  0.2098 -0.2549 -0.8374
 3293TIP3    H2 9844   3.910   3.040   4.411  0.7759 -1.1760  2.6679
 3294TIP3   OH2 9845   6.290   6.269   5.022  0.1489  0.3308  0.5047
 3294TIP3    H1 9846   6.229   6.303   5.087 -0.3914 -1.0435  0.7379
 3294TIP3    H2 9847   6.235   6.226   4.956  0.8472 -1.7388  1.1855
 3295TIP3   OH2 9848   4.113   6.502   1.652 -0.3342  0.3221 -0.1698
 3295TIP3    H1 9849   4.166   6.423   1.641 -2.4268 -1.5182  1.9745
 3295TIP3    H2 9850   4.023   6.473   1.638 -1.2596  2.0582  1.6824
 3296TIP3   OH2 9851   3.185   3.464   1.798  0.6643  0.0629  0.2013
 3296TIP3    H1 9852   3.122   3.498   1.862 -1.2477  1.1080 -2.0618
 3296TIP3    H2 9853   3.233   3.542   1.768  0.1020 -0.0518 -1.0620
 3297TIP3   OH2 9854   5.863   1.627   2.449  0.7156  0.4289 -0.2437
 3297TIP3    H1 9855   5.933   1.633   2.513  0.7728 -0.6311 -0.2007
 3297TIP3    H2 9856   5.812   1.707   2.463  0.8061  0.2863  1.0179
 3298TIP3   OH2 9857   6.820   3.572   4.897 -0.2265  0.1129 -0.7125
 3298TIP3    H1 9858   6.844   3.639   4.959  2.1732  2.3633 -3.7590
 3298TIP3    H2 9859   6.857   3.491   4.932  2.5372  1.5961  0.0111
 3299TIP3   OH2 9860   7.161   2.895   2.561 -0.5472 -0.2773 -0.1007
 3299TIP3    H1 9861   7.249   2.913   2.593 -0.1187 -0.5293 -1.1022
 3299TIP3    H2 9862   7.151   2.952   2.485 -2.1147  1.4569  1.2962
 3300TIP3   OH2 9863   6.029   3.374   1.641  0.4394  0.1009 -0.8115
 3300TIP3    H1 9864   6.053   3.409   1.555 -0.1525 -0.6825 -1.3133
 3300TIP3    H2 9865   5.934   3.358   1.634  0.3574  0.1922  0.0466
 3301TIP3   OH2 9866   0.649   0.159   2.305 -0.0284 -0.3006 -0.2201
 3301TIP3    H1 9867   0.667   0.192   2.217 -1.0176  1.6121  0.2454
 3301TIP3    H2 9868   0.590   0.084   2.291 -0.3060  0.0816 -1.1804
 3302TIP3   OH2 9869   5.139   3.276   4.551 -0.1712 -0.8759  0.2448
 3302TIP3    H1 9870   5.174   3.360   4.522  0.0724 -1.1498 -0.2677
 3302TIP3    H2 9871   5.177   3.262   4.638 -1.1060  0.0700  0.8238
 3303TIP3   OH2 9872   5.130   0.827   2.656  0.1656  0.5937  0.1178
 3303TIP3    H1 9873   5.196   0.892   2.680  2.8141 -2.1504  1.0822
 3303TIP3    H2 9874   5.181   0.747   2.639 -2.6555 -0.8380 -2.8083
 3304TIP3   OH2 9875   6.945   1.351   3.147  0.3236  0.0465 -0.2719
 3304TIP3    H1 9876   6.928   1.437   3.106 -1.2382 -0.2690 -0.3496
 3304TIP3    H2 9877   6.922   1.288   3.079  0.2414 -0.4454  0.2077
 3305TIP3   OH2 9878   0.640   6.823   5.826  0.0385  0.5033  0.3483
 3305TIP3    H1 9879   0.693   6.750   5.793  2.5661  1.7044  1.4633
 3305TIP3    H2 9880   0.621   6.799   5.917  0.8484  1.1924  0.7059
 3306TIP3   OH2 9881   1.380   0.689   3.160 -0.4354  0.0698  0.6172
 3306TIP3    H1 9882   1.295   0.654   3.185 -0.4044  0.8537  1.9144
 3306TIP3    H2 9883   1.443   0.627   3.197 -0.4033 -0.6448 -0.5502
 3307TIP3   OH2 9884   4.034   5.357   4.183  0.2545  0.1264 -0.7447
 3307TIP3    H1 9885   4.128   5.341   4.185  0.0141 -1.3607  1.0957
 3307TIP3    H2 9886   4.006   5.328   4.096  1.0862 -2.1525 -0.3121
 3308TIP3   OH2 9887   2.366   5.066   2.299 -0.5045 -0.2435 -0.2244
 3308TIP3    H1 9888   2.280   5.105   2.315 -1.0471 -0.7911 -1.6663
 3308TIP3    H2 9889   2.369   4.990   2.357  0.1805  1.3197  1.9081
 3309TIP3   OH2 9890   5.268   5.056   4.997  0.3229 -0.5503 -0.0818
 3309TIP3    H1 9891   5.176   5.057   5.022  0.0093 -1.2968 -1.1176
 3309TIP3    H2 9892   5.298   4.968   5.018  1.2845  0.1742  1.7887
 3310TIP3   OH2 9893   5.238   1.839   3.132 -0.3394 -0.4132 -0.5427
 3310TIP3    H1 9894   5.150   1.847   3.169  0.2441 -1.2086  1.1376
 3310TIP3    H2 9895   5.245   1.746   3.108 -0.1248 -0.2508 -1.1093
 3311TIP3   OH2 9896   4.469   4.062   3.791 -0.0600 -0.3215  0.3364
 3311TIP3    H1 9897   4.438   4.012   3.867 -0.6844  0.4849  0.6332
 3311TIP3    H2 9898   4.396   4.061   3.730  0.1732 -0.3490  0.0562
 3312TIP3   OH2 9899   5.660   3.395   1.194 -0.5243  0.3948 -0.1179
 3312TIP3    H1 9900   5.634   3.445   1.272  3.8843  2.0476  0.5481
 3312TIP3    H2 9901   5.688   3.310   1.229  0.9295  0.9380  0.0815
 3313TIP3   OH2 9902   2.919   1.477   1.030 -0.7500 -0.3042 -0.2151
 3313TIP3    H1 9903   2.904   1.572   1.027 -1.2931 -0.4147 -1.6989
 3313TIP3    H2 9904   2.874   1.448   1.110 -0.1029  0.7499  0.5574
 3314TIP3   OH2 9905   3.955   1.113   4.787  0.3292 -0.4936  0.0434
 3314TIP3    H1 9906   3.882   1.053   4.770  1.6193 -1.3979 -2.7776
 3314TIP3    H2 9907   4.005   1.070   4.857  0.9651 -2.5635 -1.5929
 3315TIP3   OH2 9908   4.781   5.822   1.321  0.1922  0.2606 -0.0124
 3315TIP3    H1 9909   4.836   5.898   1.303 -0.0488  0.3984 -0.1761
 3315TIP3    H2 9910   4.777   5.817   1.416 -0.0129  0.6211  0.0025
 3316TIP3   OH2 9911   1.465   2.633   0.418  0.0294  0.4209 -0.0607
 3316TIP3    H1 9912   1.522   2.700   0.380 -0.7878  0.7852 -0.6937
 3316TIP3    H2 9913   1.508   2.550   0.398  0.8739  0.7348  0.4153
 3317TIP3   OH2 9914   6.452   5.857   4.141 -0.0395  0.4474 -0.3855
 3317TIP3    H1 9915   6.385   5.877   4.076 -0.7148  2.4393  0.8043
 3317TIP3    H2 9916   6.419   5.897   4.222  1.8770  0.1539  0.6051
 3318TIP3   OH2 9917   6.940   1.588   3.010  0.6827  0.0253 -0.1075
 3318TIP3    H1 9918   6.938   1.626   2.922 -0.3330  1.1389  0.3761
 3318TIP3    H2 9919   6.977   1.656   3.066 -0.6473  0.1496  0.6757
 3319TIP3   OH2 9920   5.724   0.903   2.372 -0.2899  0.0264  0.1786
 3319TIP3    H1 9921   5.773   0.985   2.360  1.2218 -0.5489  1.9222
 3319TIP3    H2 9922   5.634   0.932   2.384  0.3205  1.5866  1.5925
 3320TIP3   OH2 9923   5.320   2.606   5.444  0.1082  0.4627  0.3020
 3320TIP3    H1 9924   5.236   2.639   5.474  0.7407  1.1861  1.3734
 3320TIP3    H2 9925   5.343   2.661   5.370 -0.1430  0.5743  0.3061
 3321TIP3   OH2 9926   2.998   1.637   2.133 -0.6138  0.4696 -0.4395
 3321TIP3    H1 9927   3.034   1.550   2.152 -1.4512  0.1252 -0.4223
 3321TIP3    H2 9928   3.022   1.655   2.042 -0.7501  0.0706 -0.5521
 3322TIP3   OH2 9929   5.339   4.468   2.085 -0.5407  0.7586  0.6013
 3322TIP3    H1 9930   5.385   4.544   2.049 -0.8726  0.0506 -1.4534
 3322TIP3    H2 9931   5.385   4.448   2.166  0.6618  2.0746  0.2755
 3323TIP3   OH2 9932   4.450   1.663   0.339  0.2595  0.5256 -0.4127
 3323TIP3    H1 9933   4.535   1.623   0.324  0.3535 -0.1626  1.5937
 3323TIP3    H2 9934   4.461   1.713   0.420 -0.7655  1.9235 -1.1020
 3324TIP3   OH2 9935   0.287   2.074   4.572 -0.0514 -0.1725  0.5173
 3324TIP3    H1 9936   0.285   2.147   4.510 -0.4383 -0.0135  0.7140
 3324TIP3    H2 9937   0.378   2.072   4.603  0.3153 -0.6761 -0.5402
 3325TIP3   OH2 9938   2.442   0.030   3.938 -0.0754 -0.0546  0.1638
 3325TIP3    H1 9939   2.458   0.096   3.870 -0.1176  0.1513  0.3566
 3325TIP3    H2 9940   2.349   0.011   3.932 -0.1803  0.3445  0.5146
 3326TIP3   OH2 9941   5.289   5.948   5.402  0.1127 -0.7251  0.2041
 3326TIP3    H1 9942   5.278   6.013   5.472  0.1459 -0.1808 -0.2887
 3326TIP3    H2 9943   5.335   5.875   5.444  0.4517 -0.2533  0.6672
 3327TIP3   OH2 9944   4.674   6.238   1.118 -0.3777 -0.1704 -0.5171
 3327TIP3    H1 9945   4.674   6.289   1.037  1.5996  1.5170  0.4300
 3327TIP3    H2 9946   4.750   6.179   1.109 -0.7020 -0.6341 -0.2587
 3328TIP3   OH2 9947   4.393   5.941   3.319 -0.6902  0.3153 -0.6560
 3328TIP3    H1 9948   4.408   5.872   3.255  0.8791  0.4973 -0.5253
 3328TIP3    H2 9949   4.455   6.010   3.295  1.1777 -0.2802  1.9992
 3329TIP3   OH2 9950   2.047   6.329   0.725  0.1227 -0.2828  0.4457
 3329TIP3    H1 9951   1.959   6.301   0.700 -0.4751  0.5239  1.5790
 3329TIP3    H2 9952   2.105   6.279   0.668 -1.0669 -0.8102 -0.3359
 3330TIP3   OH2 9953   5.768   1.183   4.987  0.2424  0.1338  0.0210
 3330TIP3    H1 9954   5.693   1.171   4.928 -0.4981  1.1831  0.7131
 3330TIP3    H2 9955   5.731   1.221   5.067  1.2556 -1.0875  1.1166
 3331TIP3   OH2 9956   3.244   4.335   1.265  0.3496 -0.0825 -0.3213
 3331TIP3    H1 9957   3.253   4.427   1.240 -0.4809  0.4598  1.2764
 3331TIP3    H2 9958   3.291   4.327   1.348 -0.4113 -0.8538  0.0545
 3332TIP3   OH2 9959   3.610   0.990   1.490 -0.0325  0.6743 -0.6425
 3332TIP3    H1 9960   3.658   0.972   1.410 -0.5477 -2.0308 -0.4240
 3332TIP3    H2 9961   3.677   0.998   1.557  0.2737  0.2079 -0.8893
 3333TIP3   OH2 9962   1.534   2.836   3.952  0.1560 -0.7906 -0.4996
 3333TIP3    H1 9963   1.543   2.790   4.035 -2.4529 -1.1376 -0.3239
 3333TIP3    H2 9964   1.575   2.779   3.887  2.3879 -0.4301  0.5026
 3334TIP3   OH2 9965   5.991   3.801   3.651 -0.3018 -0.2838 -0.2800
 3334TIP3    H1 9966   5.995   3.708   3.676 -2.0344  0.1238  1.7341
 3334TIP3    H2 9967   5.977   3.799   3.556 -1.3855 -2.1273 -0.1340
 3335TIP3   OH2 9968   0.673   4.175   4.660  0.3091  0.1291  0.4162
 3335TIP3    H1 9969   0.624   4.100   4.693 -2.2772  0.7485 -1.6389
 3335TIP3    H2 9970   0.639   4.249   4.711  0.3357  0.3315  0.1422
 3336TIP3   OH2 9971   2.714   6.012   5.579  0.3549 -0.3360 -0.0939
 3336TIP3    H1 9972   2.801   6.051   5.593  0.5042  0.0476 -1.8469
 3336TIP3    H2 9973   2.713   5.935   5.635  0.8650  0.9858  1.8737
 3337TIP3   OH2 9974   2.032   2.586   3.170 -0.1770 -0.2890  0.0648
 3337TIP3    H1 9975   2.100   2.568   3.234 -0.2585  0.4506  0.3773
 3337TIP3    H2 9976   1.979   2.655   3.210 -0.1229  0.3155 -0.8727
 3338TIP3   OH2 9977   1.447   1.502   1.742 -0.5454  0.3773 -0.2001
 3338TIP3    H1 9978   1.416   1.428   1.690 -1.9544 -0.0378  1.1492
 3338TIP3    H2 9979   1.515   1.543   1.688  0.9683 -2.4209 -0.5852
 3339TIP3   OH2 9980   2.575   1.443   2.518 -0.6724 -0.3374 -0.3671
 3339TIP3    H1 9981   2.508   1.400   2.465 -0.5810  0.2112 -0.9433
 3339TIP3    H2 9982   2.592   1.526   2.473 -1.8049  0.9503  1.4425
 3340TIP3   OH2 9983   5.191   5.180   0.217 -0.2726  0.5391 -0.3537
 3340TIP3    H1 9984   5.095   5.181   0.217 -0.3146 -1.0344 -0.7870
 3340TIP3    H2 9985   5.214   5.124   0.291  0.2619 -0.5456 -1.3261
 3341TIP3   OH2 9986   2.766   1.774   0.890  0.4786  0.3403 -0.0502
 3341TIP3    H1 9987   2.749   1.866   0.911 -2.0013  0.1866 -0.9715
 3341TIP3    H2 9988   2.768   1.771   0.794 -0.3273 -0.6638 -0.0535
 3342TIP3   OH2 9989   6.383   5.630   3.521  0.0614 -0.6686 -0.0117
 3342TIP3    H1 9990   6.306   5.664   3.568  0.0693 -1.9496  0.9874
 3342TIP3    H2 9991   6.430   5.708   3.494 -0.2209  0.1512  1.7030
 3343TIP3   OH2 9992   2.137   2.553   2.691  0.0415  0.0118 -0.1133
 3343TIP3    H1 9993   2.134   2.526   2.782  1.3250  2.3162  0.6879
 3343TIP3    H2 9994   2.160   2.646   2.694  0.5269  0.0572 -2.7992
 3344TIP3   OH2 9995   3.598   3.613   3.737 -0.2901 -0.2914 -0.2369
 3344TIP3    H1 9996   3.642   3.564   3.668 -0.2647  1.0802 -1.2357
 3344TIP3    H2 9997   3.510   3.630   3.703 -0.4509 -0.0282  0.2895
 3345TIP3   OH2 9998   6.536   4.983   1.768 -0.3341 -0.4745 -0.0545
 3345TIP3    H1 9999   6.511   4.894   1.743  2.3392 -1.3325  0.0221
 3345TIP3    H210000   6.572   4.974   1.857 -2.2231  1.1440  0.9662
 3346TIP3   OH210001   2.737   0.997   3.299 -0.0917 -0.5316 -0.2700
 3346TIP3    H110002   2.820   0.966   3.334 -0.2026 -0.6493 -0.1134
 3346TIP3    H210003   2.676   0.926   3.315 -0.5525  0.0907  0.8803
 3347TIP3   OH210004   3.185   3.874   3.206  0.2411  0.0824  0.3066
 3347TIP3    H110005   3.234   3.797   3.177  0.1962 -0.2152  1.0199
 3347TIP3    H210006   3.095   3.857   3.180  0.3817  0.3009 -0.3427
 3348TIP3   OH210007   5.478   0.281   5.302 -0.0058 -0.2710  0.1567
 3348TIP3    H110008   5.502   0.364   5.261  0.9587  0.7685  2.6300
 3348TIP3    H210009   5.389   0.295   5.334 -0.3071 -0.6507 -0.4993
 3349TIP3   OH210010   0.156   3.665   3.178 -0.0554  0.5028 -0.0735
 3349TIP3    H110011   0.244   3.630   3.169  0.8150  2.3229  0.8105
 3349TIP3    H210012   0.151   3.735   3.113 -0.5878  0.8821  0.3621
 3350TIP3   OH210013   3.153   6.732   4.279  0.2572 -0.2415  0.3270
 3350TIP3    H110014   3.119   6.772   4.359  0.5885  0.5951  0.0594
 3350TIP3    H210015   3.127   6.641   4.285 -0.4020 -0.0163  1.0204
 3351TIP3   OH210016   0.386   3.229   4.958  0.2197 -0.2219 -0.1823
 3351TIP3    H110017   0.399   3.303   5.016  1.4207  0.6979 -1.5481
 3351TIP3    H210018   0.410   3.152   5.010 -0.0231  0.4364  0.9218
 3352TIP3   OH210019   1.136   0.963   2.195  1.0422 -0.0660  0.3475
 3352TIP3    H110020   1.069   1.030   2.213  0.8665  0.3283 -1.5509
 3352TIP3    H210021   1.086   0.884   2.178  1.0388  0.1691 -0.8229
 3353TIP3   OH210022   5.334   0.961   5.324  0.3063 -0.4027 -0.8132
 3353TIP3    H110023   5.380   0.886   5.363  0.9342  0.7191  0.7045
 3353TIP3    H210024   5.277   0.993   5.394  1.2123  1.4655 -0.8839
 3354TIP3   OH210025   3.776   1.956   2.788 -0.0630 -0.6719 -0.4672
 3354TIP3    H110026   3.779   1.950   2.692  0.9699 -1.2963 -0.4052
 3354TIP3    H210027   3.829   1.882   2.818  0.1611 -0.0871  0.5846
 3355TIP3   OH210028   3.355   5.367   2.899 -0.2560 -0.1972 -0.1753
 3355TIP3    H110029   3.345   5.298   2.965 -0.4943  0.0558  0.0527
 3355TIP3    H210030   3.444   5.356   2.867  0.2002  0.2677  0.8648
 3356TIP3   OH210031   1.642   1.841   4.559  0.0768 -0.2481 -0.2826
 3356TIP3    H110032   1.581   1.779   4.600  0.6442  0.1691  1.2684
 3356TIP3    H210033   1.654   1.910   4.624  2.4243 -0.4740 -0.3805
 3357TIP3   OH210034   6.468   2.436   4.498 -0.2853 -0.1990 -0.1795
 3357TIP3    H110035   6.488   2.511   4.441 -0.9607 -0.9047 -1.3970
 3357TIP3    H210036   6.553   2.411   4.535 -0.0534  1.1319  0.2020
 3358TIP3   OH210037   6.616   0.386   3.120  0.1344  0.3893  0.0198
 3358TIP3    H110038   6.644   0.455   3.180 -0.9311  0.3819  0.5395
 3358TIP3    H210039   6.602   0.432   3.037 -1.6874  1.0524  0.6427
 3359TIP3   OH210040   4.134   1.000   4.444  0.2814 -0.0366 -0.2531
 3359TIP3    H110041   4.124   0.961   4.531  1.8730 -0.8598 -0.4061
 3359TIP3    H210042   4.066   1.068   4.441  1.5990  1.6136  2.5503
 3360TIP3   OH210043   3.589   2.453   1.760 -0.5344  0.4318 -0.3692
 3360TIP3    H110044   3.527   2.474   1.830 -2.3570  1.1026 -2.0745
 3360TIP3    H210045   3.574   2.361   1.741 -0.8439  0.5351 -0.6261
 3361TIP3   OH210046   2.441   5.918   2.839  0.5746  0.1271  0.0288
 3361TIP3    H110047   2.391   5.963   2.771  0.1660 -0.7811 -0.2854
 3361TIP3    H210048   2.511   5.980   2.862 -2.1188  2.6215  2.3712
 3362TIP3   OH210049   4.180   2.055   4.935 -0.1990 -0.0334  0.2500
 3362TIP3    H110050   4.259   2.007   4.911 -0.9858 -0.6562 -1.2834
 3362TIP3    H210051   4.201   2.146   4.916  0.2625 -0.1622  0.1312
 3363TIP3   OH210052   5.504   0.317   4.781 -0.7606  0.1792  0.0081
 3363TIP3    H110053   5.445   0.336   4.854 -1.7945  0.3789 -0.8691
 3363TIP3    H210054   5.453   0.262   4.722 -0.8446  2.1126 -1.8039
 3364TIP3   OH210055   6.934   6.379   5.306  0.3340  0.7216  0.5721
 3364TIP3    H110056   7.012   6.328   5.329  0.5899  1.4452  1.3293
 3364TIP3    H210057   6.903   6.415   5.389  0.3358  2.0515  0.0220
 3365TIP3   OH210058   1.736   0.182   1.161 -0.0445  0.2764  0.1039
 3365TIP3    H110059   1.770   0.269   1.140 -0.0456  0.4863  0.9484
 3365TIP3    H210060   1.675   0.197   1.233 -1.0706 -0.2473 -0.6293
 3366TIP3   OH210061   2.174   2.193   5.032  0.1827 -0.1633 -0.0437
 3366TIP3    H110062   2.185   2.283   5.004 -0.5793  0.3836  1.3528
 3366TIP3    H210063   2.181   2.196   5.127 -2.1593 -1.2090  0.2315
 3367TIP3   OH210064   2.425   2.417   4.739  0.4763  0.3984  0.0135
 3367TIP3    H110065   2.354   2.416   4.675 -0.5768 -0.7646  1.1392
 3367TIP3    H210066   2.421   2.505   4.778  0.1753  0.6063 -0.4795
 3368TIP3   OH210067   5.953   3.117   1.734 -0.5316  0.0277  0.1078
 3368TIP3    H110068   5.991   3.199   1.702  1.7159 -0.8918  0.2495
 3368TIP3    H210069   5.906   3.142   1.814  1.4930  0.9722  1.0550
 3369TIP3   OH210070   3.563   3.864   0.235  0.2416 -0.1177 -0.2592
 3369TIP3    H110071   3.520   3.949   0.236 -0.3955 -0.4201  1.4173
 3369TIP3    H210072   3.537   3.823   0.317  1.9831 -1.2119 -0.2027
 3370TIP3   OH210073   2.816   3.656   1.234 -0.0427 -0.0400 -0.6313
 3370TIP3    H110074   2.845   3.747   1.235  1.4914 -0.4690  2.2513
 3370TIP3    H210075   2.871   3.615   1.167  3.5904  0.0268  2.0043
 3371TIP3   OH210076   0.672   4.794   1.080 -0.1709 -0.1785 -0.6625
 3371TIP3    H110077   0.691   4.702   1.063  1.1935 -0.0409 -0.0102
 3371TIP3    H210078   0.592   4.811   1.030 -0.6960 -1.8088 -0.4519
 3372TIP3   OH210079   4.686   5.692   3.752 -0.0345  0.1435  0.4349
 3372TIP3    H110080   4.651   5.743   3.679 -0.1248  0.7434  0.8833
 3372TIP3    H210081   4.674   5.601   3.726 -0.5593  0.3469 -0.0657
 3373TIP3   OH210082   0.298   6.421   2.032  0.5034 -0.2713  0.9326
 3373TIP3    H110083   0.340   6.421   1.946 -1.7881 -0.6604 -0.2660
 3373TIP3    H210084   0.313   6.332   2.065  2.2074  0.1596  1.4069
 3374TIP3   OH210085   6.446   6.260   3.568 -0.0480 -0.3170 -0.4188
 3374TIP3    H110086   6.428   6.181   3.516  1.2379 -1.1770  0.3674
 3374TIP3    H210087   6.372   6.266   3.628 -0.1362 -0.9780 -0.4456
 3375TIP3   OH210088   4.216   5.136   2.749  0.2977 -0.1212  0.5270
 3375TIP3    H110089   4.196   5.228   2.732  1.4159  0.1160  0.4641
 3375TIP3    H210090   4.266   5.108   2.673  1.5491 -0.2684  1.3773
 3376TIP3   OH210091   7.122   3.721   3.288 -0.2410  0.3568  0.1310
 3376TIP3    H110092   7.200   3.685   3.246 -0.9584  0.3217 -1.2486
 3376TIP3    H210093   7.153   3.799   3.335  0.4647  0.9785 -1.3093
 3377TIP3   OH210094   3.951   6.377   2.953  0.5458 -0.2170 -0.5628
 3377TIP3    H110095   4.023   6.331   2.910  1.0223 -0.3086  0.3167
 3377TIP3    H210096   3.980   6.389   3.043 -0.9242 -1.0985  0.0674
 3378TIP3   OH210097   3.946   5.947   4.424  0.2568  0.0480  0.1456
 3378TIP3    H110098   3.882   5.910   4.485 -1.5530  1.3204 -0.8983
 3378TIP3    H210099   4.031   5.915   4.456 -0.9730 -3.2711  0.4625
 3379TIP3   OH210100   6.328   3.367   3.300 -0.7099  0.2893 -0.4996
 3379TIP3    H110101   6.421   3.354   3.319 -0.3497 -0.0347 -2.3113
 3379TIP3    H210102   6.308   3.453   3.336  0.0916  0.0657  0.5347
 3380TIP3   OH210103   0.903   3.434   5.271 -0.7745  0.3700 -0.0418
 3380TIP3    H110104   0.828   3.391   5.312 -0.7788  0.2666 -0.1576
 3380TIP3    H210105   0.886   3.428   5.177  0.7017 -2.1956 -0.2469
 3381TIP3   OH210106   4.079   2.060   1.521  0.1229 -0.0083  0.4076
 3381TIP3    H110107   4.061   2.093   1.609  2.1866  0.2096  0.8133
 3381TIP3    H210108   4.133   2.128   1.481 -0.5958 -0.2143 -0.9679
 3382TIP3   OH210109   0.649   5.026   0.881  0.1892  0.1582  0.5830
 3382TIP3    H110110   0.699   4.974   0.944 -0.4161 -0.7052  0.3554
 3382TIP3    H210111   0.670   5.117   0.905  1.1485 -0.1720  1.0609
 3383TIP3   OH210112   3.467   0.190   1.461 -0.8118  0.2720  0.0340
 3383TIP3    H110113   3.540   0.138   1.495 -1.3837 -0.6593 -0.0996
 3383TIP3    H210114   3.506   0.272   1.433 -0.0082  0.2675  1.0775
 3384TIP3   OH210115   7.061   1.311   5.319  0.3827 -0.6155 -0.6691
 3384TIP3    H110116   7.058   1.356   5.235  0.4000  1.3781  0.3341
 3384TIP3    H210117   7.153   1.316   5.346 -0.0027  1.0184  0.5501
 3385TIP3   OH210118   6.063   1.248   0.052 -0.1945  0.5233 -0.0813
 3385TIP3    H110119   6.109   1.230   0.135 -0.9972  2.0897  0.7417
 3385TIP3    H210120   6.005   1.173   0.041  0.6229 -0.1806  0.2555
 3386TIP3   OH210121   5.756   2.693   3.294 -0.3014 -0.1870  0.3262
 3386TIP3    H110122   5.798   2.637   3.228 -0.4119  0.5456 -0.3804
 3386TIP3    H210123   5.722   2.767   3.244 -0.5377  0.2987  1.1923
 3387TIP3   OH210124   6.140   0.389   3.035  0.3327 -0.6775 -0.2422
 3387TIP3    H110125   6.093   0.356   2.959  0.2990 -3.1027  0.7299
 3387TIP3    H210126   6.141   0.315   3.096  1.9490  0.5853  1.3706
 3388TIP3   OH210127   4.333   0.680   1.711  0.0454  0.0176  1.1738
 3388TIP3    H110128   4.382   0.620   1.655  0.4272  1.1339  0.2792
 3388TIP3    H210129   4.275   0.623   1.762 -0.2956 -1.0337 -0.3211
 3389TIP3   OH210130   0.290   1.394   3.597  0.7476  0.0368 -0.1317
 3389TIP3    H110131   0.220   1.436   3.548 -0.0154 -1.3331 -0.2614
 3389TIP3    H210132   0.366   1.396   3.538  0.5731  0.7207 -0.3388
 3390TIP3   OH210133   1.043   6.428   4.215  0.9432  0.1100 -0.3462
 3390TIP3    H110134   1.067   6.505   4.267 -0.7002  0.5791 -0.2428
 3390TIP3    H210135   1.127   6.392   4.187  1.7724  1.6614  0.0006
 3391TIP3   OH210136   4.943   1.970   5.889 -0.2616 -0.5429  0.2705
 3391TIP3    H110137   4.911   2.025   5.818  2.2971  0.6882 -0.0495
 3391TIP3    H210138   5.015   1.920   5.849  0.6774 -0.4431  1.7611
 3392TIP3   OH210139   2.346   5.215   4.128  0.3628  0.4864 -0.0228
 3392TIP3    H110140   2.271   5.209   4.069 -1.1755  0.7883  1.7978
 3392TIP3    H210141   2.412   5.263   4.079 -0.2486 -0.6377 -2.0280
 3393TIP3   OH210142   2.563   0.730   4.587 -0.3046  0.2732 -0.0742
 3393TIP3    H110143   2.594   0.818   4.609 -1.9831  0.7963  0.3430
 3393TIP3    H210144   2.521   0.740   4.502  0.2614 -0.3288 -0.4350
 3394TIP3   OH210145   2.824   2.286   3.190 -0.3561  0.2895 -0.1459
 3394TIP3    H110146   2.747   2.233   3.169  0.9498 -1.4787 -0.7403
 3394TIP3    H210147   2.893   2.251   3.134  1.1274  1.1462  1.0765
 3395TIP3   OH210148   3.077   3.127   3.233 -1.0809  0.4742  0.1123
 3395TIP3    H110149   3.048   3.130   3.142 -0.2623  1.0092 -0.1334
 3395TIP3    H210150   2.998   3.150   3.284 -2.2558 -2.3013 -0.2696
 3396TIP3   OH210151   4.963   4.059   5.857 -0.2979 -0.5607 -0.6973
 3396TIP3    H110152   4.892   4.069   5.793 -2.0674 -0.1467  1.2352
 3396TIP3    H210153   4.960   4.139   5.909 -0.0242 -1.5749  0.9502
 3397TIP3   OH210154   3.017   3.969   5.488  0.2819  0.0188  0.6104
 3397TIP3    H110155   3.012   3.958   5.393 -1.2227  0.1490  0.6394
 3397TIP3    H210156   2.951   3.908   5.522  0.3021  0.4890  1.5153
 3398TIP3   OH210157   4.780   3.169   4.436 -0.6131 -0.1352 -1.0028
 3398TIP3    H110158   4.800   3.172   4.342 -0.4558 -1.5941 -1.0395
 3398TIP3    H210159   4.790   3.077   4.460  2.0335  0.5346  1.0424
 3399TIP3   OH210160   5.362   0.575   4.332  0.3649 -0.3088  0.3463
 3399TIP3    H110161   5.273   0.541   4.329  0.0411  0.4930  0.6352
 3399TIP3    H210162   5.380   0.602   4.241 -0.4603  1.4259  0.6582
 3400TIP3   OH210163   2.299   1.250   2.165  0.1157  0.4447 -0.6910
 3400TIP3    H110164   2.368   1.185   2.149 -0.9642 -0.6783 -0.8786
 3400TIP3    H210165   2.234   1.234   2.097 -0.6953  0.9778 -0.0625
 3401TIP3   OH210166   6.824   4.213   4.624 -0.3469  0.4896 -0.1711
 3401TIP3    H110167   6.905   4.162   4.626  0.6281  1.9861  1.0250
 3401TIP3    H210168   6.845   4.289   4.569 -1.1049  0.6610 -0.2331
 3402TIP3   OH210169   2.750   3.969   2.879 -0.3323  0.0688  0.4320
 3402TIP3    H110170   2.820   3.975   2.944  0.7100  1.8099 -0.7695
 3402TIP3    H210171   2.670   3.962   2.931  0.5538  0.2633  1.8797
 3403TIP3   OH210172   0.157   0.009   1.243  0.4226  0.6351 -0.1966
 3403TIP3    H110173   0.115  -0.027   1.322  0.2832  1.5213  0.1465
 3403TIP3    H210174   0.085   0.029   1.184  0.1269  3.7657  1.0605
 3404TIP3   OH210175   4.781   2.738   4.930  0.2092  0.4430 -0.4201
 3404TIP3    H110176   4.796   2.649   4.964 -1.6723  0.5891  0.9107
 3404TIP3    H210177   4.856   2.754   4.873  0.2765 -2.2574 -1.2349
 3405TIP3   OH210178   3.082   4.147   0.917 -0.7906  0.7488  0.6444
 3405TIP3    H110179   3.036   4.114   0.840  2.0759  0.1197 -0.9562
 3405TIP3    H210180   3.123   4.070   0.956  1.5280  1.6036  0.0524
 3406TIP3   OH210181   0.149   1.015   4.557 -0.1403 -0.3313  0.0823
 3406TIP3    H110182   0.192   1.034   4.473  0.5644  2.0769  0.9065
 3406TIP3    H210183   0.212   1.043   4.623  0.5634 -4.8218  1.6576
 3407TIP3   OH210184   0.221   5.588   5.378  0.0066 -0.7021  0.4085
 3407TIP3    H110185   0.195   5.564   5.467 -0.3123  1.0738  0.8176
 3407TIP3    H210186   0.312   5.559   5.371 -0.2896 -1.8249  0.9159
 3408TIP3   OH210187   0.398   4.324   0.525 -0.7107  0.0976  0.3928
 3408TIP3    H110188   0.351   4.311   0.607  0.1916 -1.2784  0.7273
 3408TIP3    H210189   0.354   4.267   0.462 -0.1151 -0.4708  0.4725
 3409TIP3   OH210190   5.363   4.794   4.984  0.3627  0.7192 -0.1369
 3409TIP3    H110191   5.436   4.856   4.980 -0.4135  1.7526  0.8541
 3409TIP3    H210192   5.358   4.758   4.895  0.8521  2.0779 -0.7608
 3410TIP3   OH210193   3.519   0.463   0.349 -0.3371 -0.0835 -0.1939
 3410TIP3    H110194   3.507   0.447   0.443 -1.4327 -1.2221 -0.5047
 3410TIP3    H210195   3.601   0.420   0.327  0.5816  1.2445  0.4560
 3411TIP3   OH210196   5.279   2.150   2.169 -0.0388  0.4626  0.6132
 3411TIP3    H110197   5.262   2.243   2.183 -2.0039  0.0825  1.1433
 3411TIP3    H210198   5.231   2.106   2.240 -1.5106 -1.0458 -1.1807
 3412TIP3   OH210199   7.021   6.343   3.651  0.1941  0.0671  0.3997
 3412TIP3    H110200   7.087   6.411   3.664  1.1917 -0.4039 -1.8351
 3412TIP3    H210201   6.949   6.389   3.607 -0.4920  0.3043  1.7097
 3413TIP3   OH210202   6.437   1.455   2.762 -0.8539  0.0254 -0.3512
 3413TIP3    H110203   6.408   1.531   2.814 -0.6740 -0.2153  0.1078
 3413TIP3    H210204   6.531   1.450   2.778 -1.1534 -1.4993  1.2695
 3414TIP3   OH210205   5.433   1.242   3.748  0.1070  0.3105  0.6152
 3414TIP3    H110206   5.457   1.169   3.805 -1.2426 -0.4499  0.2561
 3414TIP3    H210207   5.512   1.258   3.695  0.1914 -1.3930  0.1814
 3415TIP3   OH210208   3.941   3.775   1.365  0.1885  0.0665 -0.2256
 3415TIP3    H110209   3.880   3.807   1.432 -2.5063 -0.0156 -2.4495
 3415TIP3    H210210   3.974   3.693   1.400  0.2203  0.8520  1.7122
 3416TIP3   OH210211   5.338   6.442   0.875 -0.0985 -0.3918 -0.0407
 3416TIP3    H110212   5.425   6.469   0.846 -0.1955  0.8760  0.8165
 3416TIP3    H210213   5.283   6.453   0.798  0.1633  0.4365 -0.1113
 3417TIP3   OH210214   2.776   4.155   2.680 -0.2639  0.0583 -0.1067
 3417TIP3    H110215   2.767   4.121   2.591 -1.3828  0.1707 -0.0518
 3417TIP3    H210216   2.760   4.080   2.737  2.5833 -0.5521  0.0636
 3418TIP3   OH210217   6.899   4.368   0.999 -0.6452 -0.1634  0.2144
 3418TIP3    H110218   6.965   4.298   1.000 -1.3792 -0.8644  0.4870
 3418TIP3    H210219   6.843   4.350   1.074 -0.5349  1.0369  0.6023
 3419TIP3   OH210220   1.007   4.655   4.188 -0.1139 -0.4077  0.1906
 3419TIP3    H110221   0.931   4.710   4.207  0.5589  0.6495 -0.0907
 3419TIP3    H210222   1.063   4.664   4.266  0.3227 -0.1171 -0.1535
 3420TIP3   OH210223   2.109   0.796   3.474 -1.1714 -0.2355 -0.3092
 3420TIP3    H110224   2.164   0.870   3.451 -1.4012  0.4079  1.1329
 3420TIP3    H210225   2.048   0.789   3.401 -0.2775  0.1188 -1.1087
 3421TIP3   OH210226   4.464   5.720   1.049 -0.5641 -0.2123  0.2899
 3421TIP3    H110227   4.477   5.696   1.141 -0.6891  1.5299  0.8059
 3421TIP3    H210228   4.520   5.797   1.036  0.8630 -1.4960 -1.6407
 3422TIP3   OH210229   6.934   6.240   3.028  0.2120 -0.2338 -0.0906
 3422TIP3    H110230   6.877   6.203   2.960  0.3184  2.3151 -1.6811
 3422TIP3    H210231   6.875   6.293   3.082  0.6405  0.2496 -0.0944
 3423TIP3   OH210232   1.199   5.350   1.155  0.0451 -0.0598  0.8629
 3423TIP3    H110233   1.182   5.328   1.247  2.1983  1.4315  1.7172
 3423TIP3    H210234   1.137   5.421   1.135 -0.6418 -0.5985  1.0360
 3424TIP3   OH210235   7.173   3.424   2.369  0.2713  0.4355  0.9497
 3424TIP3    H110236   7.097   3.479   2.386 -0.0393  0.2149  0.2767
 3424TIP3    H210237   7.179   3.418   2.274 -1.4747 -3.0801  0.9011
 3425TIP3   OH210238   6.284   0.429   0.919  0.2003 -0.1249 -0.2468
 3425TIP3    H110239   6.281   0.525   0.925  0.6654  0.0609 -2.2579
 3425TIP3    H210240   6.350   0.411   0.852  0.4014 -1.8877  0.3732
 3426TIP3   OH210241   3.434   2.174   3.560  0.0775  0.8708 -0.3923
 3426TIP3    H110242   3.358   2.205   3.609 -0.4303  0.5428 -0.9459
 3426TIP3    H210243   3.424   2.079   3.559  0.5114  0.8231 -0.4554
 3427TIP3   OH210244   7.176   0.467   3.104  0.0561 -0.2108 -0.0490
 3427TIP3    H110245   7.096   0.480   3.154  0.8994  1.1693  1.0316
 3427TIP3    H210246   7.176   0.537   3.038 -0.1815 -0.9214 -0.8155
 3428TIP3   OH210247   0.863   1.479   5.340  0.2676  0.2853 -0.2052
 3428TIP3    H110248   0.901   1.507   5.423 -1.7286 -0.5634  1.0804
 3428TIP3    H210249   0.768   1.486   5.353 -0.1178 -0.0398 -2.3696
 3429TIP3   OH210250   6.720   0.910   1.001  0.3996 -0.4526 -0.2570
 3429TIP3    H110251   6.640   0.858   0.987 -0.9187  1.3231  0.2772
 3429TIP3    H210252   6.739   0.898   1.094  1.1549 -1.3673 -0.5133
 3430TIP3   OH210253   0.069   1.999   3.196  0.6243 -0.0129 -0.3201
 3430TIP3    H110254   0.110   2.007   3.110  1.6186  0.7251  0.2085
 3430TIP3    H210255   0.141   1.999   3.258 -0.1361  0.9467  0.6108
 3431TIP3   OH210256   1.006   4.415   5.068 -0.9922 -0.4076 -0.1607
 3431TIP3    H110257   1.015   4.436   4.975  0.6827  0.0087  0.0628
 3431TIP3    H210258   0.948   4.484   5.102  0.0837  0.6970 -0.5009
 3432TIP3   OH210259   1.131   1.891   0.031 -0.6882  0.0226 -0.0346
 3432TIP3    H110260   1.075   1.854  -0.037 -0.0589 -0.2963 -0.3890
 3432TIP3    H210261   1.139   1.821   0.096  2.5830 -1.6004 -1.8862
 3433TIP3   OH210262   0.303   4.441   2.021 -0.0416  0.7200  0.5852
 3433TIP3    H110263   0.211   4.463   2.003  0.0934  0.9578  0.1662
 3433TIP3    H210264   0.350   4.524   2.014  0.6969  0.1867 -2.4983
 3434TIP3   OH210265   2.195   2.014   1.864  0.2730 -0.4947 -0.4822
 3434TIP3    H110266   2.236   1.962   1.794  0.0636 -2.3221  0.6769
 3434TIP3    H210267   2.120   2.056   1.822  1.7311  0.7189 -1.9980
 3435TIP3   OH210268   6.706   6.082   1.669  0.7811  0.1177 -0.1802
 3435TIP3    H110269   6.728   6.148   1.603  0.2354  1.2810  0.7767
 3435TIP3    H210270   6.732   5.999   1.628  3.2638  1.0476 -0.6647
 3436TIP3   OH210271   2.357   1.823   3.988 -0.4574  0.2538  0.3582
 3436TIP3    H110272   2.335   1.869   4.069 -0.2991 -0.2158  0.6740
 3436TIP3    H210273   2.411   1.749   4.017 -0.7467 -0.1530 -0.1354
 3437TIP3   OH210274   5.398   5.780   5.639  0.3220  0.1525 -0.1840
 3437TIP3    H110275   5.460   5.737   5.581 -0.7772  0.0128 -1.2889
 3437TIP3    H210276   5.348   5.709   5.679 -0.6364  0.3177 -1.0402
 3438TIP3   OH210277   6.395   1.741   0.759 -0.1673 -0.2442 -0.7381
 3438TIP3    H110278   6.400   1.648   0.740  1.0920 -0.2068 -0.6924
 3438TIP3    H210279   6.484   1.765   0.785 -0.6731  0.7914  0.1049
 3439TIP3   OH210280   4.252   3.041   3.508  0.2713  0.6354 -0.0748
 3439TIP3    H110281   4.338   3.061   3.471  1.2148  1.9784  2.6286
 3439TIP3    H210282   4.219   3.125   3.539 -2.1335  0.1693 -1.1493
 3440TIP3   OH210283   4.999   4.994   0.910  0.1206  0.7205  0.1117
 3440TIP3    H110284   4.911   5.031   0.902  0.5340  1.9215  0.8074
 3440TIP3    H210285   5.057   5.068   0.892  1.0020 -0.1380 -0.6698
 3441TIP3   OH210286   1.382   0.765   0.039 -0.2747 -0.2917 -0.3041
 3441TIP3    H110287   1.362   0.701   0.108 -0.5577 -0.2332 -0.3314
 3441TIP3    H210288   1.478   0.767   0.035 -0.2641 -0.9863 -0.5501
 3442TIP3   OH210289   1.568   5.946   4.431 -0.1316 -0.2659  0.4010
 3442TIP3    H110290   1.479   5.968   4.405  0.6130  1.1387 -1.1795
 3442TIP3    H210291   1.562   5.925   4.524 -1.9693  0.6042  0.5183
 3443TIP3   OH210292   5.529   6.105   3.176 -0.5717  0.5886  0.2333
 3443TIP3    H110293   5.537   6.019   3.216  1.8470  0.0609 -1.1388
 3443TIP3    H210294   5.460   6.095   3.110 -0.4421 -0.2575  0.2148
 3444TIP3   OH210295   1.182   4.941   4.005  0.7491  0.1711  0.1187
 3444TIP3    H110296   1.241   5.016   4.009  1.5139 -0.4162  0.1912
 3444TIP3    H210297   1.236   4.867   4.035 -0.0871 -0.3424  0.3859
 3445TIP3   OH210298   3.881   3.524   5.681 -0.2227  0.4364  0.0726
 3445TIP3    H110299   3.939   3.516   5.606  0.0500 -1.6258  0.4466
 3445TIP3    H210300   3.813   3.459   5.666 -0.8638  0.8768  1.0000
 3446TIP3   OH210301   1.821   5.060   4.707 -0.2392  0.1940 -0.2754
 3446TIP3    H110302   1.860   5.106   4.781 -0.1655 -0.8895  0.3883
 3446TIP3    H210303   1.870   4.978   4.701 -0.6127  0.0241 -1.1839
 3447TIP3   OH210304   6.791   4.502   2.054 -0.0711  0.3747 -0.3472
 3447TIP3    H110305   6.865   4.493   1.994 -1.4657 -0.7407 -1.9863
 3447TIP3    H210306   6.761   4.593   2.042  1.8389  1.3302  1.4264
 3448TIP3   OH210307   0.808   4.957   3.101 -0.3717 -0.3192 -0.1320
 3448TIP3    H110308   0.720   4.966   3.065 -0.2836 -1.6102 -0.7211
 3448TIP3    H210309   0.860   4.922   3.029  0.1411 -1.5805  0.7978
 3449TIP3   OH210310   4.729   2.608   5.375 -0.1729  0.3981  0.4018
 3449TIP3    H110311   4.710   2.676   5.310 -0.2483  0.3247  0.3483
 3449TIP3    H210312   4.748   2.657   5.455  3.2457  0.7060 -0.4492
 3450TIP3   OH210313   0.650   0.916   3.438 -0.1035 -0.1873 -0.1466
 3450TIP3    H110314   0.725   0.864   3.408  0.5257  0.2951  0.5546
 3450TIP3    H210315   0.578   0.853   3.441  0.8451 -1.3039  1.6023
 3451TIP3   OH210316   3.644   3.636   4.296 -0.0235 -0.1100  0.0456
 3451TIP3    H110317   3.620   3.618   4.387 -1.1958  0.7630 -0.0650
 3451TIP3    H210318   3.682   3.555   4.264  0.8538 -0.2867  1.4515
 3452TIP3   OH210319   0.325   3.524   2.194 -0.3113 -0.7448  0.2643
 3452TIP3    H110320   0.288   3.566   2.271 -0.3201  1.8816 -1.0700
 3452TIP3    H210321   0.417   3.549   2.194 -0.1778 -1.2045 -0.2594
 3453TIP3   OH210322   0.044   5.656   1.136  0.1938 -0.1610  0.3931
 3453TIP3    H110323   0.128   5.685   1.172  0.3576  0.1661 -0.2403
 3453TIP3    H210324   0.020   5.724   1.073  0.1459 -0.9510 -0.4717
 3454TIP3   OH210325   0.738   1.000   0.592  0.7390  0.0721 -0.2073
 3454TIP3    H110326   0.753   1.075   0.649  0.2948  0.6729 -0.8799
 3454TIP3    H210327   0.826   0.972   0.566  0.9617 -0.2995  0.8654
 3455TIP3   OH210328   3.526   5.003   2.372 -0.4796 -0.1968 -0.4908
 3455TIP3    H110329   3.530   5.031   2.280  0.8659 -0.1600 -0.4413
 3455TIP3    H210330   3.450   5.048   2.408 -1.0314 -0.2213 -1.5872
 3456TIP3   OH210331   0.965   0.423   4.700  0.5544  0.0916  0.2915
 3456TIP3    H110332   1.059   0.439   4.706  0.0160  4.3451  0.0532
 3456TIP3    H210333   0.936   0.414   4.790  1.2789 -3.0809  0.3309
 3457TIP3   OH210334   4.491   2.993   5.543  0.1042 -0.3783 -0.3440
 3457TIP3    H110335   4.419   2.976   5.605  0.0443 -1.6591 -0.7264
 3457TIP3    H210336   4.453   3.050   5.476  0.0971  0.8104  0.6354
 3458TIP3   OH210337   5.227   6.416   1.985  0.3421 -0.1504 -0.0983
 3458TIP3    H110338   5.168   6.375   2.048 -1.2093  3.2882  0.9376
 3458TIP3    H210339   5.172   6.433   1.908  0.5708  1.0130 -0.0214
 3459TIP3   OH210340   2.968   0.403   3.108 -0.3506 -0.6434 -0.3394
 3459TIP3    H110341   3.033   0.334   3.097 -1.4904 -1.6212 -1.2199
 3459TIP3    H210342   3.005   0.479   3.063  0.8462 -0.6898  0.5072
 3460TIP3   OH210343   1.078   1.195   3.304 -0.2095  0.2762 -0.0843
 3460TIP3    H110344   1.121   1.109   3.296  0.5325  0.6760 -0.4788
 3460TIP3    H210345   1.080   1.214   3.398  0.1788  0.1313 -0.0581
 3461TIP3   OH210346   6.216   5.673   2.445  0.4375  0.8780  0.1908
 3461TIP3    H110347   6.285   5.652   2.508 -0.2915 -1.1561  0.3860
 3461TIP3    H210348   6.135   5.643   2.487  0.1007 -2.2592 -2.3490
 3462TIP3   OH210349   2.960   5.782   1.047 -0.4433  0.0728 -0.5138
 3462TIP3    H110350   2.976   5.743   1.133 -0.6003 -0.2053 -0.6090
 3462TIP3    H210351   3.036   5.756   0.994  0.1829  1.1419 -0.1587
 3463TIP3   OH210352   3.710   1.054   3.218  0.5708  0.0909  0.0721
 3463TIP3    H110353   3.751   0.973   3.188  0.1411  0.2541 -0.9719
 3463TIP3    H210354   3.658   1.085   3.144 -1.9750 -0.4102  1.5287
 3464TIP3   OH210355   3.988   5.589   0.757 -0.7530 -0.6807  0.1565
 3464TIP3    H110356   4.002   5.665   0.699 -1.0248  0.0237  0.9962
 3464TIP3    H210357   3.895   5.568   0.747 -1.2483  0.5860  1.6589
 3465TIP3   OH210358   3.418   2.274   3.307 -0.1157  0.4422  0.0092
 3465TIP3    H110359   3.464   2.358   3.312 -1.2623  1.0837 -0.0128
 3465TIP3    H210360   3.405   2.248   3.398 -2.1036  1.6166  0.1017
 3466TIP3   OH210361   0.533   2.500   0.519  0.0686  0.8534  0.1616
 3466TIP3    H110362   0.444   2.509   0.554  0.5778  0.7761  1.5609
 3466TIP3    H210363   0.551   2.584   0.477 -0.9298  0.5984 -0.7943
 3467TIP3   OH210364   2.411   1.872   1.712  0.4347  0.0009  0.4354
 3467TIP3    H110365   2.484   1.812   1.725  0.4670  0.1111  0.7676
 3467TIP3    H210366   2.432   1.918   1.630 -0.1127 -1.1797 -0.3882
 3468TIP3   OH210367   5.811   3.669   5.346 -0.1240  0.5040  0.7962
 3468TIP3    H110368   5.853   3.618   5.277 -1.4174 -0.0470  0.3924
 3468TIP3    H210369   5.871   3.742   5.361  0.4924  0.2864 -0.4530
 3469TIP3   OH210370   7.170   5.542   4.714  0.2744  0.3714 -0.1578
 3469TIP3    H110371   7.095   5.520   4.770  0.6342 -0.9833 -0.1746
 3469TIP3    H210372   7.152   5.632   4.685 -0.3933  0.7611  1.3434
 3470TIP3   OH210373   0.502   3.695   1.091  0.7514 -0.1831  0.2300
 3470TIP3    H110374   0.522   3.651   1.008 -1.0881 -0.7631  0.0488
 3470TIP3    H210375   0.586   3.726   1.123  1.5403 -0.2098 -1.7132
 3471TIP3   OH210376   3.015   0.161   2.997 -0.5870  0.2851 -0.5195
 3471TIP3    H110377   3.093   0.111   3.022 -0.0581  0.9605 -0.7737
 3471TIP3    H210378   2.942   0.111   3.032 -0.1786 -1.4412 -1.9597
 3472TIP3   OH210379   0.492   5.511   5.310 -0.3239  0.5270  0.3911
 3472TIP3    H110380   0.528   5.424   5.298 -2.3083 -0.1933 -0.8622
 3472TIP3    H210381   0.495   5.526   5.405  1.8845 -0.0046  0.4640
 3473TIP3   OH210382   3.234   1.923   4.797 -0.0500  0.1061 -0.2576
 3473TIP3    H110383   3.258   1.895   4.708 -1.4182  3.6017 -1.9077
 3473TIP3    H210384   3.155   1.872   4.816  0.7613 -1.3587 -0.5873
 3474TIP3   OH210385   3.063   5.383   3.899  0.0769  0.0141 -0.0117
 3474TIP3    H110386   3.088   5.473   3.877  1.5680 -0.5274 -0.6244
 3474TIP3    H210387   3.076   5.377   3.994  1.6964 -0.0473 -0.2127
 3475TIP3   OH210388   0.859   4.623   5.190  0.0283  0.2486 -0.3743
 3475TIP3    H110389   0.873   4.599   5.282 -1.0182 -1.5932 -0.6377
 3475TIP3    H210390   0.899   4.710   5.181  0.2247  0.4353  1.7869
 3476TIP3   OH210391   5.406   1.735   1.575 -0.2321  0.2302  0.8803
 3476TIP3    H110392   5.325   1.743   1.525  0.9985  1.2508 -1.0995
 3476TIP3    H210393   5.465   1.687   1.516  1.7115  2.6697  0.6892
 3477TIP3   OH210394   3.237   5.995   4.571 -0.6731  0.3896  0.2727
 3477TIP3    H110395   3.328   6.013   4.546 -0.4550 -1.3839 -0.3211
 3477TIP3    H210396   3.192   5.979   4.488 -1.0186 -0.9059  0.6923
 3478TIP3   OH210397   6.346   2.444   0.830  0.3556 -0.6629 -0.0362
 3478TIP3    H110398   6.294   2.434   0.909  0.7981 -2.5172  0.0470
 3478TIP3    H210399   6.411   2.511   0.853  0.0242 -0.6588  0.9194
 3479TIP3   OH210400   4.618   4.288   2.881 -0.1414  0.8443  0.0061
 3479TIP3    H110401   4.710   4.294   2.853  0.4502  0.3916  1.7580
 3479TIP3    H210402   4.608   4.198   2.911 -0.5957  1.4049  1.6310
 3480TIP3   OH210403   2.126   4.096   3.758  0.1560  0.3434  0.3876
 3480TIP3    H110404   2.089   4.165   3.703 -0.3950 -0.2621 -0.0067
 3480TIP3    H210405   2.179   4.043   3.698  0.8861  0.6354  0.7617
 3481TIP3   OH210406   1.796   6.658   2.457  0.2517 -0.4416 -0.3111
 3481TIP3    H110407   1.793   6.753   2.440 -0.3500 -0.6842 -1.6714
 3481TIP3    H210408   1.872   6.647   2.514  0.1946  0.8863  0.0651
 3482TIP3   OH210409   0.006   5.612   5.204 -0.2520 -0.1540 -0.4802
 3482TIP3    H110410   0.050   5.607   5.119  0.7455  0.5711 -0.0240
 3482TIP3    H210411   0.074   5.588   5.268 -1.1873 -1.4327  0.0705
 3483TIP3   OH210412   0.803   6.319   3.266  0.0727 -0.3645  0.4084
 3483TIP3    H110413   0.866   6.248   3.274  0.9752  0.0576 -2.0846
 3483TIP3    H210414   0.839   6.390   3.319  0.8132 -0.6996  0.3530
 3484TIP3   OH210415   0.685   5.059   4.215  0.1039 -0.2716 -0.1885
 3484TIP3    H110416   0.715   5.147   4.238  0.6766 -0.4390 -0.2842
 3484TIP3    H210417   0.620   5.073   4.147 -1.3444  0.2153  1.2235
 3485TIP3   OH210418   6.764   4.551   5.888  0.6795 -0.0218 -0.6753
 3485TIP3    H110419   6.681   4.502   5.881  1.5611 -1.4603 -1.5091
 3485TIP3    H210420   6.798   4.553   5.798  1.5530  0.5700 -0.3416
 3486TIP3   OH210421   1.294   2.012   2.963  0.2823  0.2443  0.2887
 3486TIP3    H110422   1.357   1.952   3.003  0.1712 -0.1125 -0.0696
 3486TIP3    H210423   1.224   1.956   2.931 -0.2211  0.6431  0.6905
 3487TIP3   OH210424   6.876   1.155   5.189  0.1392  0.1464  0.1518
 3487TIP3    H110425   6.938   1.200   5.247 -0.2461 -0.0609  0.7229
 3487TIP3    H210426   6.806   1.125   5.246 -0.1318 -0.2641 -0.3852
 3488TIP3   OH210427   3.162   3.880   4.234  0.3971  0.0756  0.3595
 3488TIP3    H110428   3.212   3.935   4.294 -0.6591  0.6665  0.7454
 3488TIP3    H210429   3.148   3.798   4.281 -0.8809  0.7260  1.1925
 3489TIP3   OH210430   3.988   5.578   2.514 -0.3885  0.0462 -0.3138
 3489TIP3    H110431   3.897   5.589   2.542 -0.4445 -1.1119 -0.0168
 3489TIP3    H210432   3.985   5.589   2.419 -0.8303  0.0486 -0.2989
 3490TIP3   OH210433   6.901   4.994   1.462  1.1481  0.2683  0.4196
 3490TIP3    H110434   6.884   4.923   1.523  2.5231  1.3539  2.1642
 3490TIP3    H210435   6.974   4.964   1.409 -0.7038 -1.1035 -1.5306
 3491TIP3   OH210436   6.187   6.251   3.714  0.3831 -0.3183  0.0172
 3491TIP3    H110437   6.192   6.337   3.673  3.6452  0.8700  2.4757
 3491TIP3    H210438   6.151   6.267   3.801 -0.2339 -1.6803  0.0448
 3492TIP3   OH210439   3.029   2.875   4.320 -0.1422 -0.3165 -0.6450
 3492TIP3    H110440   3.081   2.802   4.354  0.8259  1.1369  1.1320
 3492TIP3    H210441   3.064   2.891   4.233  0.6717 -0.9808 -0.4449
 3493TIP3   OH210442   3.232   0.074   0.619 -0.2213  0.0989 -0.2983
 3493TIP3    H110443   3.312   0.021   0.625  0.8193  1.5660 -0.6572
 3493TIP3    H210444   3.163   0.016   0.652  1.0101 -1.1382  0.2413
 3494TIP3   OH210445   0.156   3.988   2.695  0.2828 -0.0164  0.0957
 3494TIP3    H110446   0.210   3.915   2.664 -0.5740 -0.1791 -1.0710
 3494TIP3    H210447   0.075   3.946   2.726  1.3386  0.0464  3.3663
 3495TIP3   OH210448   2.307   6.461   4.790 -0.7046 -0.2593 -0.0124
 3495TIP3    H110449   2.242   6.410   4.838 -0.6924 -0.5487 -0.2968
 3495TIP3    H210450   2.313   6.417   4.705  0.1859 -0.4978  0.1636
 3496TIP3   OH210451   3.812   3.884   4.025  0.1806  0.1711 -0.2677
 3496TIP3    H110452   3.717   3.894   4.034 -0.1577 -1.4178 -1.4356
 3496TIP3    H210453   3.840   3.844   4.107 -0.2738  0.1196 -0.1359
 3497TIP3   OH210454   6.798   1.124   4.715 -0.0070  0.0453  0.2794
 3497TIP3    H110455   6.866   1.156   4.774  2.0835  0.6413 -2.3115
 3497TIP3    H210456   6.772   1.200   4.663 -1.2625 -0.6177 -0.1307
 3498TIP3   OH210457   2.291   3.125   0.972 -0.2833 -0.2780 -0.1234
 3498TIP3    H110458   2.307   3.102   0.880  1.8936  0.4089  0.0390
 3498TIP3    H210459   2.209   3.174   0.970  0.5702  1.2120 -1.9878
 3499TIP3   OH210460   1.691   2.971   0.729  0.2897 -0.4738  0.2783
 3499TIP3    H110461   1.716   2.916   0.654  0.7479 -2.5123  1.8252
 3499TIP3    H210462   1.742   3.051   0.718  0.5119 -0.8120 -1.4573
 3500TIP3   OH210463   1.626   1.175   0.597 -0.2063 -0.1163 -0.1735
 3500TIP3    H110464   1.602   1.267   0.591 -2.0179 -0.4945  0.8382
 3500TIP3    H210465   1.552   1.128   0.559  0.5818 -1.1846 -0.4417
 3501TIP3   OH210466   4.391   6.159   4.793  0.7884  0.7959  0.1947
 3501TIP3    H110467   4.451   6.232   4.777 -0.6288  1.7666 -0.9190
 3501TIP3    H210468   4.317   6.176   4.736  0.3516 -1.4848  0.0117
 3502TIP3   OH210469   7.147   5.627   3.063 -0.2745  0.0780 -0.1384
 3502TIP3    H110470   7.234   5.607   3.028  0.0769  1.1764  0.0560
 3502TIP3    H210471   7.162   5.700   3.124 -1.2955  0.1137  0.0889
 3503TIP3   OH210472   6.586   0.623   3.977 -0.6560 -1.0814  0.1028
 3503TIP3    H110473   6.609   0.715   3.964  0.0254 -1.5026 -2.2465
 3503TIP3    H210474   6.529   0.623   4.053  0.3956  1.1050  0.9877
 3504TIP3   OH210475   6.811   1.836   5.521 -0.1250 -0.3275  0.4401
 3504TIP3    H110476   6.791   1.795   5.605 -0.3031 -0.1268  0.4984
 3504TIP3    H210477   6.800   1.766   5.456 -2.1241  0.0124  0.3469
 3505TIP3   OH210478   3.096   5.128   3.467  0.0240 -0.0554 -0.4897
 3505TIP3    H110479   3.012   5.143   3.424 -0.2054  0.6203  0.1753
 3505TIP3    H210480   3.078   5.136   3.561  0.9824  1.0184 -0.3643
 3506TIP3   OH210481   5.468   5.334   3.772 -0.0768  0.2313  0.2725
 3506TIP3    H110482   5.455   5.241   3.791  0.3741 -0.0021 -0.5166
 3506TIP3    H210483   5.485   5.373   3.858 -1.3825 -0.2100  0.7572
 3507TIP3   OH210484   1.876   0.455   4.453  0.1093 -0.1160  0.3714
 3507TIP3    H110485   1.839   0.528   4.404  0.7902 -0.3555 -0.5368
 3507TIP3    H210486   1.908   0.493   4.534 -0.2443  0.4515  0.2488
 3508TIP3   OH210487   0.444   2.271   5.087  0.4772 -0.1326  0.3292
 3508TIP3    H110488   0.388   2.205   5.045  0.8018 -0.0042 -0.3145
 3508TIP3    H210489   0.383   2.340   5.113  0.3363  0.0501 -0.4495
 3509TIP3   OH210490   3.631   6.024   0.835 -0.1677 -0.0002  0.1941
 3509TIP3    H110491   3.638   6.054   0.925  0.6486  0.3167  0.0353
 3509TIP3    H210492   3.599   5.933   0.842 -0.1086  0.0210  0.7921
 3510TIP3   OH210493   3.131   0.468   5.682  0.2466  0.0734 -0.0728
 3510TIP3    H110494   3.226   0.475   5.679  0.2377  0.2173 -0.0567
 3510TIP3    H210495   3.102   0.551   5.721  0.0223  0.7774 -1.6512
 3511TIP3   OH210496   1.499   4.269   4.396 -0.6112  0.2625  0.1836
 3511TIP3    H110497   1.490   4.355   4.437 -2.5504  0.5015 -0.6546
 3511TIP3    H210498   1.534   4.287   4.309  1.5684 -0.0764  0.9307
 3512TIP3   OH210499   4.508   0.361   1.885 -0.0316 -0.3804 -0.0291
 3512TIP3    H110500   4.424   0.393   1.851  1.3323  2.1253 -1.3096
 3512TIP3    H210501   4.501   0.373   1.980 -1.0187  0.0363 -0.1344
 3513TIP3   OH210502   0.730   4.096   0.999  0.2152  0.4165  0.2643
 3513TIP3    H110503   0.808   4.044   1.020 -0.0648 -1.8503 -3.4852
 3513TIP3    H210504   0.766   4.181   0.971  1.2569 -0.0780  0.0213
 3514TIP3   OH210505   1.813   2.572   5.253 -0.0541  0.0824 -0.2053
 3514TIP3    H110506   1.855   2.582   5.338 -0.0270  0.6230 -0.2818
 3514TIP3    H210507   1.758   2.494   5.263 -2.0783  1.5773  1.1495
 3515TIP3   OH210508   1.579   4.167   5.017  0.0990  0.0252 -0.0286
 3515TIP3    H110509   1.605   4.148   5.107 -0.0693 -0.3570 -0.0594
 3515TIP3    H210510   1.501   4.114   5.003  1.6687 -2.1480 -1.3014
 3516TIP3   OH210511   3.456   0.321   3.293  0.4154 -0.2935 -0.2868
 3516TIP3    H110512   3.427   0.407   3.262  1.2969 -0.3775 -1.3614
 3516TIP3    H210513   3.505   0.340   3.373  1.5137  0.3173 -1.0911
 3517TIP3   OH210514   3.413   0.745   4.744  0.7670 -0.0496 -0.1008
 3517TIP3    H110515   3.446   0.656   4.750  1.1888 -0.0152 -1.5240
 3517TIP3    H210516   3.368   0.748   4.659 -0.2827  0.7611  0.4560
 3518TIP3   OH210517   4.235   0.158   2.432 -0.0054 -0.9275  0.2004
 3518TIP3    H110518   4.305   0.223   2.429 -0.4594 -0.4090  0.6545
 3518TIP3    H210519   4.155   0.209   2.448 -0.9996 -1.1225 -3.3558
 3519TIP3   OH210520   0.898   6.726   5.728  0.0539 -0.0426 -0.3189
 3519TIP3    H110521   0.925   6.770   5.646  0.4572  2.2866  0.9681
 3519TIP3    H210522   0.955   6.764   5.795  1.0737 -3.3204  0.8358
 3520TIP3   OH210523   3.525   3.299   4.088  0.0125 -0.0218  0.0010
 3520TIP3    H110524   3.566   3.375   4.046 -0.0506  0.6662  1.1360
 3520TIP3    H210525   3.432   3.323   4.094  0.1940  0.3842  1.5161
 3521TIP3   OH210526   6.112   0.364   2.510  0.4725  0.0938  0.2143
 3521TIP3    H110527   6.023   0.397   2.521 -0.2779 -1.6444 -0.3493
 3521TIP3    H210528   6.101   0.273   2.483  2.4389 -0.4632  1.1164
 3522TIP3   OH210529   3.734   2.209   1.432  0.6686  0.0612  0.4415
 3522TIP3    H110530   3.741   2.266   1.356  1.1795 -0.2667  0.2404
 3522TIP3    H210531   3.666   2.145   1.409  0.0366  0.6223  0.6988
 3523TIP3   OH210532   1.766   3.892   4.431  1.0014 -0.1222 -0.2428
 3523TIP3    H110533   1.712   3.866   4.357  0.2456  0.1707  0.1984
 3523TIP3    H210534   1.770   3.814   4.487  2.8428 -0.8533 -1.2982
 3524TIP3   OH210535   6.750   1.163   4.073  0.2279 -0.1899  0.2837
 3524TIP3    H110536   6.823   1.191   4.129 -1.0990  0.7549  1.6071
 3524TIP3    H210537   6.744   1.230   4.005 -0.4499  0.6496  1.1536
 3525TIP3   OH210538   1.247   1.368   5.379  0.0075  0.1851  0.8958
 3525TIP3    H110539   1.227   1.286   5.335  1.7034 -1.5529  3.1101
 3525TIP3    H210540   1.342   1.368   5.386  0.0182  2.2233  1.2306
 3526TIP3   OH210541   2.540   2.934   1.893 -0.3565  0.2392 -0.4071
 3526TIP3    H110542   2.513   3.024   1.913  1.5596  0.2669  2.8365
 3526TIP3    H210543   2.624   2.944   1.848  0.8013  0.1726  1.6187
 3527TIP3   OH210544   2.197   0.334   2.620 -0.0921  0.1922  0.0168
 3527TIP3    H110545   2.242   0.417   2.606 -0.5439  0.3488 -0.5418
 3527TIP3    H210546   2.203   0.318   2.714 -1.5876  1.7614  0.4124
 3528TIP3   OH210547   5.261   6.487   3.101  0.6798  0.2109  0.4160
 3528TIP3    H110548   5.258   6.579   3.128 -0.0496  0.1964  0.4043
 3528TIP3    H210549   5.277   6.490   3.007  2.6770  0.2745  0.7140
 3529TIP3   OH210550   7.173   3.318   3.250 -0.3846 -0.1837 -0.1854
 3529TIP3    H110551   7.269   3.308   3.253 -0.2484  1.0969  1.4794
 3529TIP3    H210552   7.154   3.335   3.158  1.0279 -0.2513 -0.5195
 3530TIP3   OH210553   6.242   4.275   5.659  0.6187  0.1185 -0.4793
 3530TIP3    H110554   6.239   4.297   5.752 -3.1952  1.5591 -0.7564
 3530TIP3    H210555   6.205   4.187   5.654 -0.6924  0.6581 -0.6880
 3531TIP3   OH210556   4.059   2.924   4.963 -0.6439 -0.1603 -0.2269
 3531TIP3    H110557   3.987   2.974   4.926  0.2957  0.0303 -1.8626
 3531TIP3    H210558   4.137   2.977   4.947  0.2712 -1.7446 -1.3074
 3532TIP3   OH210559   0.388   4.849   2.713  0.1426  0.1467 -0.5675
 3532TIP3    H110560   0.374   4.940   2.741  0.9489  1.1327 -3.0620
 3532TIP3    H210561   0.322   4.834   2.646  2.5161  0.3988 -3.1402
 3533TIP3   OH210562   6.503   0.361   2.650  0.3445 -0.7034 -0.0708
 3533TIP3    H110563   6.465   0.380   2.565 -0.3159 -1.4506  0.0510
 3533TIP3    H210564   6.433   0.379   2.713  0.7049 -0.5255  0.2873
 3534TIP3   OH210565   4.804   3.097   4.168 -0.2536 -0.2165 -0.0286
 3534TIP3    H110566   4.718   3.138   4.173 -0.0491  0.1133  1.2038
 3534TIP3    H210567   4.785   3.003   4.162 -0.7070 -0.1629  0.4507
 3535TIP3   OH210568   2.406   1.227   2.433 -0.4215  0.3697 -0.5218
 3535TIP3    H110569   2.443   1.139   2.435  0.6959  0.7400 -2.3259
 3535TIP3    H210570   2.349   1.228   2.357 -1.0658  0.9807 -0.0489
 3536TIP3   OH210571   0.567   4.526   3.987  0.5179  0.2908 -0.1131
 3536TIP3    H110572   0.605   4.604   4.026  1.0443 -0.0245  0.0128
 3536TIP3    H210573   0.603   4.522   3.899 -0.2414  0.6987 -0.4552
 3537TIP3   OH210574   6.522   3.700   4.467 -0.0490  0.0830 -0.0104
 3537TIP3    H110575   6.614   3.677   4.460 -0.1828 -0.5507  0.1998
 3537TIP3    H210576   6.519   3.767   4.535  0.2324 -0.0422  0.1275
 3538TIP3   OH210577   0.930   3.865   4.799 -0.1758 -0.1060  0.1767
 3538TIP3    H110578   1.019   3.865   4.835 -0.6522  0.5038  1.3839
 3538TIP3    H210579   0.880   3.807   4.857 -0.4691 -0.8606 -0.7982
 3539TIP3   OH210580   6.076   6.123   4.287 -0.6048 -0.7756  0.2392
 3539TIP3    H110581   6.105   6.046   4.237  0.8323 -0.6128  0.7724
 3539TIP3    H210582   6.140   6.130   4.359 -0.9838  0.6527  0.4590
 3540TIP3   OH210583   0.115   0.294   3.249 -0.0957  0.2915  0.2733
 3540TIP3    H110584   0.065   0.365   3.208 -1.3790  0.8246  2.5476
 3540TIP3    H210585   0.082   0.292   3.339  2.7861 -0.5379  1.3976
 3541TIP3   OH210586   5.443   3.186   0.667 -0.5968 -0.0649 -0.2084
 3541TIP3    H110587   5.423   3.119   0.603 -1.5350 -0.7260  0.7443
 3541TIP3    H210588   5.383   3.169   0.740  0.4121  0.6639  0.8416
 3542TIP3   OH210589   2.510   3.594   0.980 -0.0626 -0.8475  0.6085
 3542TIP3    H110590   2.578   3.527   0.989  0.3548 -0.3479  1.2809
 3542TIP3    H210591   2.472   3.601   1.067 -1.0091 -1.1396  0.2274
 3543TIP3   OH210592   0.523   2.155   3.967 -0.2487  0.0121 -0.1640
 3543TIP3    H110593   0.504   2.231   4.022 -0.8981  0.3664 -0.8626
 3543TIP3    H210594   0.512   2.187   3.878 -0.2558 -0.8344 -0.4724
 3544TIP3   OH210595   7.048   1.798   5.191  0.2989 -0.4124  0.3896
 3544TIP3    H110596   7.008   1.798   5.104  1.3469 -1.0204 -0.1083
 3544TIP3    H210597   7.043   1.889   5.219 -0.9340 -0.3827  0.1169
 3545TIP3   OH210598   7.086   4.206   3.238 -0.5562 -0.5348 -0.4763
 3545TIP3    H110599   7.043   4.120   3.239 -1.4035 -0.1206  0.2387
 3545TIP3    H210600   7.081   4.237   3.329  2.3856 -0.9854 -0.0453
 3546TIP3   OH210601   4.225   0.093   4.923 -0.0482 -0.5264  0.3483
 3546TIP3    H110602   4.165   0.029   4.884 -1.2862  1.4000 -1.0723
 3546TIP3    H210603   4.201   0.094   5.016 -1.9600 -0.1596 -0.0910
 3547TIP3   OH210604   0.192   2.527   3.257 -0.0246  0.4476 -0.4337
 3547TIP3    H110605   0.229   2.603   3.302 -0.5598  0.2056  0.4271
 3547TIP3    H210606   0.265   2.493   3.206  0.6527  0.6247  0.3845
 3548TIP3   OH210607   0.830   3.589   2.059  0.0672  0.1294  0.1529
 3548TIP3    H110608   0.789   3.665   2.019 -0.5805  0.8534  2.0665
 3548TIP3    H210609   0.773   3.516   2.038  0.3045  0.2843 -1.0882
 3549TIP3   OH210610   6.248   1.538   4.128 -0.1443 -0.5769  0.5446
 3549TIP3    H110611   6.223   1.465   4.071 -0.6307  0.4952 -0.6729
 3549TIP3    H210612   6.205   1.615   4.089  0.1829  0.3346  1.9015
 3550TIP3   OH210613   6.257   1.529   1.355  0.3444 -0.2233 -0.0412
 3550TIP3    H110614   6.342   1.495   1.325  0.1630 -2.4091  1.6162
 3550TIP3    H210615   6.193   1.470   1.315 -0.3094  0.5595 -0.1700
 3551TIP3   OH210616   7.203   3.964   5.819  0.2745  0.3976  0.2453
 3551TIP3    H110617   7.155   4.023   5.761  2.9782  1.0607 -1.4994
 3551TIP3    H210618   7.226   4.019   5.894  0.4760  0.8199 -0.1170
 3552TIP3   OH210619   5.796   1.845   0.872 -0.6206  0.2362  0.2415
 3552TIP3    H110620   5.795   1.843   0.968  1.5093  1.3261  0.3617
 3552TIP3    H210621   5.773   1.935   0.850 -2.6336 -0.3876 -0.3878
 3553TIP3   OH210622   5.482   2.705   2.659 -0.6881  0.2599  0.6559
 3553TIP3    H110623   5.424   2.762   2.711 -0.1071  0.8522  0.6712
 3553TIP3    H210624   5.547   2.765   2.622 -0.2397 -0.3603  0.4244
 3554TIP3   OH210625   3.445   2.078   4.914 -0.5210 -0.0638  0.0548
 3554TIP3    H110626   3.474   2.142   4.849 -0.9869 -0.1394 -0.2349
 3554TIP3    H210627   3.393   2.015   4.863  0.8417 -1.3041  0.1178
 3555TIP3   OH210628   1.011   5.048   0.166 -0.0865 -0.0358 -0.4360
 3555TIP3    H110629   1.031   5.142   0.168 -1.4477  0.2721  1.4088
 3555TIP3    H210630   0.937   5.041   0.105 -0.8060  0.3022  0.3767
 3556TIP3   OH210631   6.141   3.500   1.890 -0.5049  0.4565  0.2410
 3556TIP3    H110632   6.115   3.458   1.808 -0.9291 -0.5484  0.8678
 3556TIP3    H210633   6.059   3.523   1.933 -0.3839 -1.1607  1.4340
 3557TIP3   OH210634   0.089   2.414   5.026  0.2196  0.1309  0.0785
 3557TIP3    H110635   0.031   2.490   5.028  0.6319  0.4351  0.8189
 3557TIP3    H210636   0.123   2.412   4.937  0.1169  0.7448  0.0210
 3558TIP3   OH210637   6.000   3.161   1.334 -0.0203  0.0611 -0.6394
 3558TIP3    H110638   6.062   3.233   1.325 -0.2556  0.4329  0.5126
 3558TIP3    H210639   6.040   3.103   1.399 -2.2158  1.9149  2.7053
 3559TIP3   OH210640   5.922   3.185   0.525 -0.1167 -0.4490 -0.0626
 3559TIP3    H110641   5.864   3.236   0.469 -1.3375 -0.0407  1.5092
 3559TIP3    H210642   5.924   3.233   0.608  3.3514  0.1620 -0.3275
 3560TIP3   OH210643   5.627   1.556   3.115 -0.2696 -0.1112  0.6657
 3560TIP3    H110644   5.537   1.587   3.106  0.3784  1.7853  0.3288
 3560TIP3    H210645   5.681   1.632   3.095  1.4623 -1.6329 -0.8398
 3561TIP3   OH210646   1.360   4.510   0.756  0.8329  0.3272  0.1101
 3561TIP3    H110647   1.377   4.421   0.723  2.7139  0.7512 -0.2274
 3561TIP3    H210648   1.266   4.522   0.747  0.7085 -1.1923 -1.0095
 3562TIP3   OH210649   4.980   5.974   4.412  0.3112  0.8050  0.3335
 3562TIP3    H110650   4.889   5.963   4.440  1.0720  0.4439  2.9162
 3562TIP3    H210651   5.008   5.887   4.387 -0.4187  1.1543 -1.9260
 3563TIP3   OH210652   3.852   3.026   2.360  0.1760  0.0058 -0.0572
 3563TIP3    H110653   3.917   2.962   2.333 -0.1629 -1.0419  1.4369
 3563TIP3    H210654   3.861   3.030   2.455  0.2582  2.3037 -0.1123
 3564TIP3   OH210655   6.584   3.489   2.946  0.0426 -0.5418  0.1820
 3564TIP3    H110656   6.655   3.444   2.992 -0.2742 -0.0737  1.1607
 3564TIP3    H210657   6.516   3.423   2.937  0.2125 -0.7114  0.1251
 3565TIP3   OH210658   6.925   2.166   5.718  0.0703 -0.0551 -0.3883
 3565TIP3    H110659   6.840   2.155   5.675 -0.2229 -0.0921  0.1931
 3565TIP3    H210660   6.907   2.223   5.793  0.7163  0.6433 -0.7442
 3566TIP3   OH210661   1.035   5.879   3.374 -0.0008  0.2979 -0.1832
 3566TIP3    H110662   1.075   5.930   3.445 -1.4902 -1.1929  1.8698
 3566TIP3    H210663   1.108   5.832   3.334  0.7119 -0.1744  1.5699
 3567TIP3   OH210664   6.926   2.944   2.189  0.5201 -0.0333  0.0899
 3567TIP3    H110665   6.857   3.010   2.200 -0.5574 -1.0759 -0.1279
 3567TIP3    H210666   6.881   2.861   2.204  1.8251 -0.7322  0.2742
 3568TIP3   OH210667   1.148   1.450   3.009  0.0095  0.5244 -0.0612
 3568TIP3    H110668   1.125   1.493   2.927 -0.6269  2.1914  0.9378
 3568TIP3    H210669   1.240   1.425   2.998 -0.1812  0.3292 -1.4225
 3569TIP3   OH210670   1.928   4.560   1.257 -0.1064 -0.2518  0.2271
 3569TIP3    H110671   1.942   4.574   1.164 -0.5941 -0.0259  0.1826
 3569TIP3    H210672   2.016   4.556   1.295  0.0884 -0.0866 -0.2028
 3570TIP3   OH210673   0.321   4.914   1.273  0.2633  0.1481 -0.3780
 3570TIP3    H110674   0.320   5.010   1.265  1.5086  0.2428  0.4233
 3570TIP3    H210675   0.408   4.893   1.306  0.3167 -1.3462 -1.3704
 3571TIP3   OH210676   2.058   3.478   2.382 -0.0958 -0.5538 -0.1672
 3571TIP3    H110677   1.969   3.477   2.419  0.0627  0.2411  0.2650
 3571TIP3    H210678   2.076   3.570   2.367  0.4180 -0.7603 -0.8745
 3572TIP3   OH210679   3.157   0.369   5.424 -0.1035  0.2704  0.2556
 3572TIP3    H110680   3.099   0.295   5.412  0.0853 -0.2530  2.2568
 3572TIP3    H210681   3.124   0.414   5.502  0.6902  1.4292 -0.0373
 3573TIP3   OH210682   6.968   3.466   5.280  0.0972 -0.1806 -0.2325
 3573TIP3    H110683   7.019   3.406   5.335 -0.3503 -0.7282 -0.4178
 3573TIP3    H210684   6.891   3.487   5.333  0.3680  0.4240 -0.0702
 3574TIP3   OH210685   3.159   6.093   1.902 -0.5575  0.0761 -0.6686
 3574TIP3    H110686   3.245   6.109   1.941 -0.8030  2.7993 -1.0612
 3574TIP3    H210687   3.097   6.099   1.975 -0.4757 -2.2118 -0.3256
 3575TIP3   OH210688   3.199   4.109   2.013 -0.1553 -0.3527  0.3262
 3575TIP3    H110689   3.203   4.045   2.084  1.3634  1.7642  2.3389
 3575TIP3    H210690   3.261   4.177   2.039  1.4503 -0.0056 -3.7053
 3576TIP3   OH210691   6.517   6.220   4.641  1.0780  0.3603  0.2344
 3576TIP3    H110692   6.488   6.230   4.731 -1.7120  0.0435 -0.5374
 3576TIP3    H210693   6.492   6.130   4.618  2.5913  0.1224 -0.6024
 3577TIP3   OH210694   3.149   1.493   2.860 -0.0317 -0.3692  0.3683
 3577TIP3    H110695   3.130   1.424   2.923 -0.5120 -1.1356 -0.5975
 3577TIP3    H210696   3.111   1.463   2.778  0.8549  0.4607 -0.3822
 3578TIP3   OH210697   4.830   1.511   1.767  0.0473  0.3071 -0.3026
 3578TIP3    H110698   4.769   1.455   1.816 -0.2741  0.6392 -0.3204
 3578TIP3    H210699   4.828   1.594   1.813  2.7249 -0.4985  1.5089
 3579TIP3   OH210700   1.440   3.872   3.473 -0.1911  0.2835 -0.1212
 3579TIP3    H110701   1.374   3.813   3.438 -1.5471  1.8319 -0.2694
 3579TIP3    H210702   1.470   3.830   3.554 -1.7770 -0.1585  0.2583
 3580TIP3   OH210703   3.630   5.734   1.444 -0.0211  0.5346  0.1624
 3580TIP3    H110704   3.604   5.648   1.410  0.1674  0.4694  0.1793
 3580TIP3    H210705   3.619   5.794   1.370 -1.7942  0.8237  0.6180
 3581TIP3   OH210706   3.192   5.878   3.685 -0.0512 -0.5780 -0.5367
 3581TIP3    H110707   3.220   5.856   3.774 -0.0740 -0.8779 -0.6057
 3581TIP3    H210708   3.235   5.814   3.629  1.0000  0.3774 -0.8783
 3582TIP3   OH210709   1.656   6.415   0.870 -0.3565  0.4262 -0.0817
 3582TIP3    H110710   1.720   6.385   0.934  0.1597  1.8749  0.1099
 3582TIP3    H210711   1.673   6.362   0.792 -1.4796 -1.9027  1.1373
 3583TIP3   OH210712   2.074   3.252   2.898 -0.6597 -0.2459 -0.4057
 3583TIP3    H110713   2.169   3.262   2.905 -0.8054  0.6172  0.5872
 3583TIP3    H210714   2.052   3.191   2.969 -0.7039 -1.5649 -1.5144
 3584TIP3   OH210715   4.796   4.234   3.793  0.4287  0.1626  0.3006
 3584TIP3    H110716   4.764   4.228   3.703 -2.0895  1.7727  0.9619
 3584TIP3    H210717   4.836   4.149   3.811  0.5938 -0.3518 -2.1697
 3585TIP3   OH210718   1.566   6.587   2.732  0.0146 -0.0360 -0.0356
 3585TIP3    H110719   1.645   6.534   2.740 -1.4117 -1.9919  2.9118
 3585TIP3    H210720   1.504   6.531   2.685 -0.1595  0.8736 -0.9355
 3586TIP3   OH210721   0.719   2.898   3.964  0.3766 -0.4614 -0.0141
 3586TIP3    H110722   0.796   2.878   3.911  0.6456 -2.3611  0.9947
 3586TIP3    H210723   0.646   2.860   3.916  0.6147 -2.1419  0.8705
 3587TIP3   OH210724   3.790   6.394   2.211  0.3925 -0.1853 -0.1770
 3587TIP3    H110725   3.885   6.399   2.198  0.6099 -0.0124  1.3092
 3587TIP3    H210726   3.772   6.301   2.225  0.3639 -0.1915 -0.2520
 3588TIP3   OH210727   5.677   4.719   3.618 -0.3233  0.3857 -0.0721
 3588TIP3    H110728   5.748   4.720   3.554 -1.7251  1.6390 -1.7532
 3588TIP3    H210729   5.653   4.812   3.627 -1.2037  0.0645  1.0689
 3589TIP3   OH210730   5.954   4.504   2.740  0.5886  0.0052 -0.4182
 3589TIP3    H110731   5.988   4.418   2.766  1.2050  0.6768  1.0459
 3589TIP3    H210732   6.023   4.566   2.761  0.0152  0.9245 -1.1368
 3590TIP3   OH210733   1.603   1.608   1.543  0.0135 -0.7215  0.0910
 3590TIP3    H110734   1.525   1.653   1.511 -1.6034 -1.3695  2.7431
 3590TIP3    H210735   1.658   1.677   1.579 -1.2924 -0.5184  1.8593
 3591TIP3   OH210736   5.716   6.763   5.602 -0.0659  0.3973 -0.1452
 3591TIP3    H110737   5.718   6.835   5.539  0.1174  0.7780  0.2868
 3591TIP3    H210738   5.625   6.756   5.630 -0.1643  0.1654 -0.5193
 3592TIP3   OH210739   6.584   5.439   5.658 -0.2634 -0.8333  0.1869
 3592TIP3    H110740   6.588   5.410   5.567 -1.5975 -0.6484  0.0502
 3592TIP3    H210741   6.662   5.400   5.699  0.4836 -0.7168 -1.0720
 3593TIP3   OH210742   6.443   5.615   2.633 -0.5772 -0.2201 -0.4592
 3593TIP3    H110743   6.465   5.563   2.711 -0.3251 -0.2914 -0.5757
 3593TIP3    H210744   6.479   5.702   2.652 -1.9611  0.2436  0.2134
 3594TIP3   OH210745   4.903   5.261   1.949 -0.4270 -0.2384  0.1425
 3594TIP3    H110746   4.855   5.318   2.008 -1.3909 -0.6494 -0.2279
 3594TIP3    H210747   4.891   5.173   1.984 -1.8017 -0.5999 -1.1581
 3595TIP3   OH210748   1.202   5.369   4.581  0.9307 -0.4842 -0.5328
 3595TIP3    H110749   1.183   5.338   4.492 -0.0634  0.1184 -0.5401
 3595TIP3    H210750   1.255   5.299   4.619  0.9639 -0.9731 -1.4368
 3596TIP3   OH210751   2.902   2.440   3.924  0.3081 -0.4642  0.3628
 3596TIP3    H110752   2.949   2.523   3.916  2.6585 -1.6210  1.0052
 3596TIP3    H210753   2.862   2.426   3.839 -0.5517  1.5122  0.3839
 3597TIP3   OH210754   5.274   4.603   4.468  0.3253 -0.4067 -0.4295
 3597TIP3    H110755   5.263   4.661   4.393  0.9547 -0.7668 -0.7990
 3597TIP3    H210756   5.322   4.527   4.435 -0.6598 -1.2494  0.0016
 3598TIP3   OH210757   6.944   1.812   2.353 -0.0164  0.0160 -0.8727
 3598TIP3    H110758   6.867   1.866   2.372  0.9732  1.3848 -0.5975
 3598TIP3    H210759   7.004   1.871   2.307  1.4621 -0.5859  0.2022
 3599TIP3   OH210760   4.472   1.214   3.764  0.0751 -0.1125  0.9457
 3599TIP3    H110761   4.443   1.221   3.855 -0.8444  0.1461  0.6441
 3599TIP3    H210762   4.548   1.272   3.758  2.1517 -2.4857  2.3219
 3600TIP3   OH210763   6.208   4.356   3.587  0.1785 -0.1362  0.0520
 3600TIP3    H110764   6.258   4.309   3.521 -0.5836 -1.1404  0.1726
 3600TIP3    H210765   6.143   4.406   3.538  0.1941 -0.1771 -0.0100
 3601TIP3   OH210766   1.032   0.447   3.850  0.0871  0.6163 -0.1636
 3601TIP3    H110767   0.946   0.422   3.815 -1.1410  2.6434  1.2224
 3601TIP3    H210768   1.067   0.509   3.786  0.0434  0.6150 -0.1884
 3602TIP3   OH210769   1.898   3.018   5.089 -0.1270  0.8632  0.5265
 3602TIP3    H110770   1.962   2.947   5.083  1.3840  2.0218  2.0173
 3602TIP3    H210771   1.834   2.987   5.154 -0.0289  0.4848  0.4466
 3603TIP3   OH210772   0.903   2.447   2.195  0.3173  0.1751 -0.5017
 3603TIP3    H110773   0.990   2.427   2.159  1.1254  0.1940  1.2951
 3603TIP3    H210774   0.871   2.520   2.142  1.1060 -0.2521 -1.6043
 3604TIP3   OH210775   0.076   5.664   3.503  0.2043  0.4600 -0.1705
 3604TIP3    H110776   0.021   5.716   3.562  0.7258  0.8613 -0.0394
 3604TIP3    H210777   0.109   5.593   3.558  0.3359  0.5858 -0.0854
 3605TIP3   OH210778   5.870   5.628   0.875  0.1101  0.0348 -0.4036
 3605TIP3    H110779   5.939   5.569   0.844 -2.0158 -2.1671 -1.2724
 3605TIP3    H210780   5.838   5.588   0.956 -0.4450  0.7641 -0.2539
 3606TIP3   OH210781   1.024   1.694   1.052 -0.8673  0.4625 -0.4033
 3606TIP3    H110782   0.986   1.645   1.125  0.0458  1.0235  0.4698
 3606TIP3    H210783   1.068   1.627   0.998 -0.7067  0.1673  0.0906
 3607TIP3   OH210784   4.107   4.751   5.755 -0.3987 -0.3630  0.1426
 3607TIP3    H110785   4.054   4.767   5.677  0.6426 -0.5700 -0.6433
 3607TIP3    H210786   4.182   4.809   5.745  0.3041 -1.1972  0.4136
 3608TIP3   OH210787   3.245   3.093   4.073  0.0293  0.2795  0.0478
 3608TIP3    H110788   3.330   3.091   4.117 -0.0976 -2.2663  0.3151
 3608TIP3    H210789   3.205   3.176   4.102  2.1191  1.2137  0.4231
 3609TIP3   OH210790   0.087   4.925   0.656  0.4653 -0.1169 -0.4978
 3609TIP3    H110791   0.176   4.931   0.622  0.7978 -2.4929 -0.2382
 3609TIP3    H210792   0.097   4.889   0.744 -0.7195 -0.0475 -0.3204
 3610TIP3   OH210793   2.849   1.159   1.296 -0.6276  0.0807 -0.1743
 3610TIP3    H110794   2.808   1.237   1.259  0.3693  0.0206 -1.5139
 3610TIP3    H210795   2.924   1.142   1.238  1.0589 -0.0379  1.9035
 3611TIP3   OH210796   6.558   6.388   4.894  0.2859 -0.0113 -0.8121
 3611TIP3    H110797   6.501   6.393   4.971  0.4814  0.3924 -0.6935
 3611TIP3    H210798   6.641   6.357   4.928  0.8979  1.8044 -0.5721
 3612TIP3   OH210799   0.403   5.681   3.531  0.1046  0.3491  0.3264
 3612TIP3    H110800   0.319   5.721   3.553  0.2868  1.0325 -0.2045
 3612TIP3    H210801   0.414   5.696   3.438  0.0006 -1.3073  0.0207
 3613TIP3   OH210802   3.342   6.517  -0.019 -0.0781  0.0728  0.2028
 3613TIP3    H110803   3.323   6.581   0.049 -0.1381 -0.5917  0.8263
 3613TIP3    H210804   3.424   6.476   0.008 -1.0942 -1.5726  0.9519
 3614TIP3   OH210805   4.773   4.098   5.639  0.1092 -0.2353  0.5441
 3614TIP3    H110806   4.728   4.129   5.560  1.5702  2.9751  0.8096
 3614TIP3    H210807   4.865   4.120   5.625  1.2325 -3.8219  1.3045
 3615TIP3   OH210808   0.980   3.695   2.818 -0.3924 -0.5627  0.1140
 3615TIP3    H110809   0.910   3.677   2.755  1.1501 -0.9445 -1.5586
 3615TIP3    H210810   1.041   3.753   2.771  0.4211 -0.2053  1.5382
 3616TIP3   OH210811   6.990   1.170   4.922 -0.2733  0.1338  0.0439
 3616TIP3    H110812   7.001   1.255   4.964 -1.8621  0.1862  0.4143
 3616TIP3    H210813   6.935   1.120   4.982  0.2292 -0.9873 -0.4045
 3617TIP3   OH210814   5.627   6.657   0.210 -0.4644 -0.0914  0.6187
 3617TIP3    H110815   5.679   6.733   0.185  0.3985 -0.4699  1.2209
 3617TIP3    H210816   5.631   6.599   0.134 -1.5898  0.6782 -0.0611
 3618TIP3   OH210817   3.121   3.060   0.964  0.5107 -0.0493  0.0719
 3618TIP3    H110818   3.096   2.980   0.917  2.6012 -1.7054  1.5439
 3618TIP3    H210819   3.181   3.105   0.905  1.4902 -1.0294  0.2983
 3619TIP3   OH210820   2.912   2.680   0.357 -0.9634 -0.3360 -0.4975
 3619TIP3    H110821   2.845   2.747   0.369 -2.4126 -1.3917 -2.1482
 3619TIP3    H210822   2.870   2.598   0.385 -0.2217 -0.9565 -1.1457
 3620TIP3   OH210823   0.659   1.210   4.227  0.0795  0.0793 -0.3866
 3620TIP3    H110824   0.623   1.191   4.141 -1.5501 -1.4817  0.5848
 3620TIP3    H210825   0.653   1.128   4.275  0.4617  1.0401  1.3973
 3621TIP3   OH210826   5.612   6.340   5.236  0.6334 -0.0556 -0.1333
 3621TIP3    H110827   5.615   6.359   5.329  0.7238  0.3792 -0.2251
 3621TIP3    H210828   5.535   6.285   5.225 -0.6718  1.7091 -0.1319
 3622TIP3   OH210829   2.851   4.034   4.022  0.0465  0.0630  0.1275
 3622TIP3    H110830   2.880   3.976   3.952 -0.8376 -2.1384  1.4674
 3622TIP3    H210831   2.843   4.119   3.981 -3.5236 -1.6495 -3.3580
 3623TIP3   OH210832   6.301   3.079   4.573 -0.2158 -0.4625 -0.2905
 3623TIP3    H110833   6.390   3.112   4.582 -0.6085  0.0372  3.2020
 3623TIP3    H210834   6.310   2.984   4.574  0.3458 -0.4357 -1.5258
 3624TIP3   OH210835   7.025   4.493   3.207 -0.1345 -0.1163 -0.2625
 3624TIP3    H110836   7.084   4.452   3.144  1.0546 -1.4109  1.5896
 3624TIP3    H210837   6.981   4.420   3.249 -1.8537  0.7728 -0.4217
 3625TIP3   OH210838   4.044   2.671   0.598 -0.4768  0.3504  0.5603
 3625TIP3    H110839   3.958   2.691   0.561  0.0593 -0.7597 -1.4912
 3625TIP3    H210840   4.050   2.576   0.595  1.0431  0.4300  0.0550
 3626TIP3   OH210841   6.956   0.047   4.188  0.3153  0.2441  0.4035
 3626TIP3    H110842   6.877   0.030   4.240 -0.1786 -0.5492 -0.5641
 3626TIP3    H210843   6.932   0.121   4.132 -0.6353 -1.4003 -1.5401
 3627TIP3   OH210844   4.480   3.090   2.958 -0.4182  0.2161 -0.0031
 3627TIP3    H110845   4.500   3.037   2.881  1.5948  1.4256 -0.3685
 3627TIP3    H210846   4.393   3.060   2.985 -0.9165 -0.6902 -2.3417
 3628TIP3   OH210847   0.181   2.958   2.690  0.2259 -0.2738 -0.6099
 3628TIP3    H110848   0.247   2.899   2.727  0.3433 -0.2619 -0.7992
 3628TIP3    H210849   0.222   3.044   2.695 -1.3048  0.4595  3.1487
 3629TIP3   OH210850   3.921   6.348   4.443 -0.3372 -0.3227 -0.1649
 3629TIP3    H110851   3.931   6.373   4.535 -0.0891  2.1184 -0.7771
 3629TIP3    H210852   3.979   6.407   4.395 -3.1386  1.1108 -2.1631
 3630TIP3   OH210853   6.618   2.250   0.809 -0.1001 -0.0266  0.3228
 3630TIP3    H110854   6.680   2.201   0.863 -1.8698  0.3482  2.8554
 3630TIP3    H210855   6.607   2.334   0.855 -1.3399  0.5084 -0.8792
 3631TIP3   OH210856   2.651   0.518   1.385 -0.1619 -0.3325  0.0276
 3631TIP3    H110857   2.747   0.517   1.386 -0.1212  0.7323 -0.7699
 3631TIP3    H210858   2.625   0.430   1.413  1.0360 -0.4648  0.7938
 3632TIP3   OH210859   6.815   4.048   1.026 -0.3937 -0.1521 -0.0361
 3632TIP3    H110860   6.872   4.119   0.995 -1.5173  1.4085  1.3010
 3632TIP3    H210861   6.872   3.971   1.029  0.8433  0.6552 -1.6330
 3633TIP3   OH210862   2.721   6.339   5.025 -0.1509 -0.5915  0.2917
 3633TIP3    H110863   2.704   6.408   4.960 -0.9302 -0.1259  0.9689
 3633TIP3    H210864   2.661   6.359   5.097  0.3155 -1.4154  0.9232
 3634TIP3   OH210865   0.897   0.310   2.989 -0.3527 -0.4255 -0.9820
 3634TIP3    H110866   0.968   0.372   2.970  1.2867 -2.1879 -0.9500
 3634TIP3    H210867   0.819   0.350   2.951  0.1647  2.6637  0.8864
 3635TIP3   OH210868   2.074   1.233   1.635  0.7988  0.3448  0.7917
 3635TIP3    H110869   2.000   1.238   1.695  0.3463 -1.3522  0.4518
 3635TIP3    H210870   2.065   1.310   1.580 -0.8903  0.0658  0.5999
 3636TIP3   OH210871   3.680   6.353   0.809  0.2180 -0.3139  0.1635
 3636TIP3    H110872   3.730   6.423   0.766  0.8318 -0.7156  0.2097
 3636TIP3    H210873   3.621   6.321   0.740 -0.4673  0.6095  0.2978
 3637TIP3   OH210874   6.430   6.210   0.847 -0.3112 -0.2751  0.5416
 3637TIP3    H110875   6.483   6.142   0.805 -1.3148  0.9301 -3.0573
 3637TIP3    H210876   6.489   6.285   0.852 -0.7963  0.2452 -0.9351
 3638TIP3   OH210877   6.382   4.527   4.747 -0.0391  0.0024 -0.1605
 3638TIP3    H110878   6.405   4.614   4.715 -0.6933  0.0861 -0.4104
 3638TIP3    H210879   6.396   4.532   4.842  2.4907 -0.4237 -0.4386
 3639TIP3   OH210880   5.693   4.108   2.325 -0.2896 -0.3586  0.3410
 3639TIP3    H110881   5.766   4.062   2.286 -1.0165 -1.5107  0.2903
 3639TIP3    H210882   5.722   4.199   2.332  0.8457 -0.6543 -0.3692
 3640TIP3   OH210883   0.846   2.242   0.372 -0.2703  0.2180  0.3646
 3640TIP3    H110884   0.821   2.295   0.297 -0.0440 -1.2650 -0.8116
 3640TIP3    H210885   0.936   2.216   0.354  0.1815  0.7526  1.7242
 3641TIP3   OH210886   1.149   2.136   5.424 -0.3036 -0.3639 -0.7314
 3641TIP3    H110887   1.103   2.122   5.507 -0.2386 -0.4209 -0.7057
 3641TIP3    H210888   1.125   2.225   5.399 -2.0066 -1.0447 -1.6948
 3642TIP3   OH210889   5.129   1.088   3.576 -0.3124 -0.2477  0.2406
 3642TIP3    H110890   5.162   1.048   3.656  0.6671 -0.3531 -0.2040
 3642TIP3    H210891   5.179   1.047   3.506 -1.2701 -0.2794 -0.4492
 3643TIP3   OH210892   1.887   3.659   1.759  0.0117  0.4929 -0.6201
 3643TIP3    H110893   1.893   3.594   1.689 -1.3358 -1.3497  0.8512
 3643TIP3    H210894   1.808   3.709   1.740 -0.5480 -0.2360 -0.2928
 3644TIP3   OH210895   6.098   4.263   1.198 -0.3254 -0.3506 -0.0682
 3644TIP3    H110896   6.145   4.317   1.135 -2.6195  1.3749 -0.3963
 3644TIP3    H210897   6.167   4.213   1.243  1.7973  1.9192 -0.6172
 3645TIP3   OH210898   6.348   5.587   5.103 -0.8069  0.0179  0.4333
 3645TIP3    H110899   6.293   5.509   5.113 -0.5932 -0.2362 -0.2984
 3645TIP3    H210900   6.435   5.553   5.084 -0.7362  0.4268 -0.0036
 3646TIP3   OH210901   4.548   3.938   1.726  0.2275  0.2667  0.6260
 3646TIP3    H110902   4.488   4.000   1.768 -0.4030 -0.5632  0.9750
 3646TIP3    H210903   4.559   3.869   1.790 -0.7481 -1.0267 -0.5309
 3647TIP3   OH210904   4.912   2.614   4.120 -0.0393  0.1573  0.1392
 3647TIP3    H110905   4.947   2.634   4.207  2.6113 -2.2187 -0.2554
 3647TIP3    H210906   4.875   2.526   4.129  1.4105 -0.6557 -1.3691
 3648TIP3   OH210907   6.090   5.359   3.600 -0.3971  0.1949 -0.7836
 3648TIP3    H110908   6.026   5.317   3.658 -1.5759  0.3208 -1.9472
 3648TIP3    H210909   6.094   5.450   3.630 -0.0152 -0.0350 -0.1007
 3649TIP3   OH210910   6.542   4.876   0.824 -0.2451 -0.0381  0.0859
 3649TIP3    H110911   6.451   4.850   0.811 -0.3105  0.9618 -1.8905
 3649TIP3    H210912   6.537   4.961   0.868 -0.3453  0.4747 -0.8732
 3650TIP3   OH210913   4.375   4.867   2.762 -0.3326  0.2070 -0.0711
 3650TIP3    H110914   4.415   4.857   2.849 -0.2034 -0.3670 -0.1960
 3650TIP3    H210915   4.417   4.946   2.726 -0.7321  0.7211  0.5711
 3651TIP3   OH210916   7.036   5.543   0.433 -0.0611  0.2143 -0.3049
 3651TIP3    H110917   7.053   5.565   0.341 -2.6713 -0.1586 -0.9696
 3651TIP3    H210918   6.958   5.487   0.430  0.8379 -1.3097  2.0374
 3652TIP3   OH210919   4.633   5.152   1.638 -0.7161  0.1361  0.3162
 3652TIP3    H110920   4.651   5.152   1.544  1.6596  0.9284  0.7111
 3652TIP3    H210921   4.664   5.067   1.669  0.5333  0.7057  0.6857
 3653TIP3   OH210922   3.049   4.458   3.201  0.4098 -0.5025  0.2033
 3653TIP3    H110923   3.041   4.489   3.111  0.1275  1.8053  0.9710
 3653TIP3    H210924   3.081   4.533   3.250 -3.0092 -0.4783  2.7258
 3654TIP3   OH210925   3.730   5.552   2.876  0.4938 -0.6436 -0.0549
 3654TIP3    H110926   3.753   5.635   2.917 -2.0687  0.5756 -0.8888
 3654TIP3    H210927   3.643   5.566   2.840  0.8746 -2.9916 -2.2028
 3655TIP3   OH210928   7.004   4.714   5.057 -0.0515  0.0796  0.2373
 3655TIP3    H110929   7.090   4.755   5.052 -0.3360  0.5462 -1.2997
 3655TIP3    H210930   7.009   4.657   5.134  1.6720  0.0069  0.1092
 3656TIP3   OH210931   4.466   6.640   1.393 -0.7897  0.3669  0.0289
 3656TIP3    H110932   4.485   6.561   1.442 -1.5098  1.0527  1.4769
 3656TIP3    H210933   4.402   6.687   1.447 -0.5445  1.8294 -0.8952
 3657TIP3   OH210934   1.270   3.664   3.388 -0.6138  0.1424  0.4038
 3657TIP3    H110935   1.224   3.618   3.317  1.2747 -3.7791  1.4593
 3657TIP3    H210936   1.201   3.685   3.451 -1.7634 -0.0063 -0.7605
 3658TIP3   OH210937   0.296   3.625   0.163 -0.7206 -0.1262  0.5666
 3658TIP3    H110938   0.375   3.572   0.154 -0.5908 -0.0347  1.1208
 3658TIP3    H210939   0.225   3.567   0.134 -0.2687  0.4530 -1.9023
 3659TIP3   OH210940   3.711   4.288   4.506  0.2656  0.0639 -0.2528
 3659TIP3    H110941   3.732   4.197   4.484  1.2793  0.1640  0.2133
 3659TIP3    H210942   3.777   4.340   4.460  0.1924  0.4978  0.1206
 3660TIP3   OH210943   0.940   2.533   5.623  0.6292  0.2507 -0.5089
 3660TIP3    H110944   0.845   2.544   5.624  0.2376 -1.9811 -2.1769
 3660TIP3    H210945   0.972   2.601   5.564 -0.0584  0.4867 -0.6133
 3661TIP3   OH210946   1.746   3.591   0.078  0.3850 -0.3020  0.1110
 3661TIP3    H110947   1.782   3.657   0.019 -0.4108 -2.5207 -3.1849
 3661TIP3    H210948   1.820   3.562   0.131  1.3277  1.3002 -0.2723
 3662TIP3   OH210949   5.115   5.304   3.840 -0.1516 -0.3106  0.0782
 3662TIP3    H110950   5.134   5.380   3.895 -1.8757  0.7124 -0.6555
 3662TIP3    H210951   5.138   5.331   3.752  2.5310 -1.9276  0.1875
 3663TIP3   OH210952   0.072   4.896   2.901  0.1519 -0.2665 -0.1631
 3663TIP3    H110953   0.059   4.822   2.841 -2.0353  0.5078 -0.7397
 3663TIP3    H210954  -0.017   4.919   2.930  0.9998  0.6203  1.8869
 3664TIP3   OH210955   6.801   3.783   0.298 -0.2345 -0.4027 -0.7231
 3664TIP3    H110956   6.713   3.748   0.286 -0.6210  0.1064  0.4959
 3664TIP3    H210957   6.787   3.874   0.325  0.6490 -0.4032 -0.2200
 3665TIP3   OH210958   2.380   3.972   2.299 -0.0094  0.4589 -0.1369
 3665TIP3    H110959   2.434   3.955   2.376  1.3066  1.2458 -0.8542
 3665TIP3    H210960   2.317   4.039   2.328 -0.8654 -0.7125  0.7978
 3666TIP3   OH210961   1.228   1.104   4.186  0.4675  0.5751  0.4926
 3666TIP3    H110962   1.220   1.012   4.163  0.0599  0.3840  1.3459
 3666TIP3    H210963   1.159   1.119   4.251  1.4226  1.1133  1.4255
 3667TIP3   OH210964   0.828   3.806   3.648 -0.3732 -0.3152  0.3281
 3667TIP3    H110965   0.769   3.733   3.667 -1.7479  0.0170 -2.2474
 3667TIP3    H210966   0.910   3.764   3.624 -0.1913 -0.8513  1.7514
 3668TIP3   OH210967   4.797   6.713   4.188 -0.2493  0.4467  0.6543
 3668TIP3    H110968   4.716   6.764   4.185 -1.0813 -0.8576 -2.2931
 3668TIP3    H210969   4.822   6.702   4.096  0.7373 -3.0950  1.1990
 3669TIP3   OH210970   0.259   1.566   4.218 -0.0480 -0.1618 -0.3920
 3669TIP3    H110971   0.229   1.475   4.215 -0.2553 -0.2017  1.5191
 3669TIP3    H210972   0.325   1.571   4.149  0.3464 -1.9041 -0.2017
 3670TIP3   OH210973   4.151   5.746   3.524  0.4414 -0.0148  0.1227
 3670TIP3    H110974   4.221   5.751   3.589  0.0418  1.4163  0.4852
 3670TIP3    H210975   4.112   5.660   3.538  1.3495 -0.3538  0.7202
 3671TIP3   OH210976   5.412   2.356   4.051  0.0165 -0.3211  0.3041
 3671TIP3    H110977   5.502   2.338   4.024  0.7418  0.3561  2.0851
 3671TIP3    H210978   5.393   2.290   4.117 -0.4999  0.0268  0.5117
 3672TIP3   OH210979   6.904   3.163   1.347 -0.0336  0.0462 -0.1760
 3672TIP3    H110980   6.853   3.097   1.300 -1.0924 -0.8009  2.0267
 3672TIP3    H210981   6.893   3.243   1.296  1.3427 -1.4058 -2.9697
 3673TIP3   OH210982   5.362   3.786   2.364  0.0067 -0.2590  0.5403
 3673TIP3    H110983   5.364   3.713   2.302 -2.6609  0.3144 -0.3548
 3673TIP3    H210984   5.445   3.831   2.351  0.7474 -1.8288 -0.5039
 3674TIP3   OH210985   1.151   3.345   3.110  0.2339 -0.5316  0.0210
 3674TIP3    H110986   1.174   3.341   3.017  1.5928 -0.3651  0.3291
 3674TIP3    H210987   1.160   3.437   3.133 -0.2900 -0.5414  0.2839
 3675TIP3   OH210988   4.818   5.773   1.029 -0.2248 -0.1851  0.3386
 3675TIP3    H110989   4.892   5.712   1.038 -0.8571 -1.1854 -0.9298
 3675TIP3    H210990   4.784   5.783   1.118 -0.2979 -1.9393  0.5371
 3676TIP3   OH210991   6.435   4.381   0.938 -0.1866 -0.4674 -0.2699
 3676TIP3    H110992   6.472   4.430   0.865  0.5784 -0.4772  0.0983
 3676TIP3    H210993   6.470   4.293   0.928  0.3871 -0.3316  0.4102
 3677TIP3   OH210994   7.114   0.813   5.460 -0.3602 -0.6758  0.0452
 3677TIP3    H110995   7.202   0.777   5.473  0.1523  0.5894  0.1912
 3677TIP3    H210996   7.106   0.824   5.365  0.5295  1.3003  0.1609
 3678TIP3   OH210997   1.219   5.460   1.631 -0.5784 -0.3171  0.2933
 3678TIP3    H110998   1.185   5.548   1.615 -1.7658 -1.2426 -2.9459
 3678TIP3    H210999   1.183   5.436   1.717 -1.7254  1.6478  0.4259
 3679TIP3   OH211000   0.191   4.561   0.728  1.0570 -0.4790  0.1427
 3679TIP3    H111001   0.150   4.590   0.809  1.0479  1.2623 -0.4433
 3679TIP3    H211002   0.203   4.466   0.739  0.9250 -0.2978  2.0903
 3680TIP3   OH211003   5.787   4.430   4.351  0.2921 -0.6743  0.5907
 3680TIP3    H111004   5.805   4.365   4.419  0.1106 -1.5557 -0.1828
 3680TIP3    H211005   5.844   4.504   4.372  0.6772 -1.1781  1.3500
 3681TIP3   OH211006   1.427   0.665   1.584  0.0849 -0.4591  0.0400
 3681TIP3    H111007   1.441   0.725   1.657 -1.9597 -0.2829  0.3473
 3681TIP3    H211008   1.447   0.578   1.620 -0.7946 -0.3601  0.7774
 3682TIP3   OH211009   5.591   3.703   3.069 -0.7311 -0.7382  0.1758
 3682TIP3    H111010   5.517   3.764   3.057  0.3811  0.6322 -0.0016
 3682TIP3    H211011   5.599   3.659   2.984 -0.8890 -0.3428 -0.0527
 3683TIP3   OH211012   4.826   5.352   1.211  0.5624 -0.8363  0.1003
 3683TIP3    H111013   4.875   5.427   1.244 -0.2189 -0.0373 -0.5173
 3683TIP3    H211014   4.736   5.367   1.241  0.4426 -1.6295  0.1482
 3684TIP3   OH211015   6.456   4.415   3.924  0.2833  0.0299  0.6242
 3684TIP3    H111016   6.370   4.373   3.929  0.1149  0.4440  1.3205
 3684TIP3    H211017   6.518   4.342   3.923 -0.0400 -0.2568  1.0481
 3685TIP3   OH211018   3.609   1.508   2.830  0.1188  0.4976  0.3878
 3685TIP3    H111019   3.534   1.479   2.883  0.5579  0.1320  0.8180
 3685TIP3    H211020   3.685   1.495   2.887  0.8286 -1.5694 -0.8971
 3686TIP3   OH211021   3.789   1.706   0.594 -0.1939  0.5712  0.3709
 3686TIP3    H111022   3.696   1.684   0.599 -0.1383 -0.3904 -1.6107
 3686TIP3    H211023   3.830   1.653   0.662 -0.9696  0.0062  0.4073
 3687TIP3   OH211024   1.966   3.243   2.653  0.0600  0.4342 -0.1817
 3687TIP3    H111025   1.998   3.260   2.741 -0.4147  0.3631  0.0105
 3687TIP3    H211026   2.000   3.156   2.632  0.7522  0.7380 -0.3477
 3688TIP3   OH211027   5.435   6.431   1.586  1.0855 -0.3521 -0.8537
 3688TIP3    H111028   5.464   6.516   1.619  1.0039 -1.3699  2.1350
 3688TIP3    H211029   5.506   6.401   1.530  2.1235  0.7067 -0.1344
 3689TIP3   OH211030   1.540   5.515   0.185 -0.1414 -0.1111 -0.0170
 3689TIP3    H111031   1.497   5.486   0.266 -0.3577  1.9137  0.6347
 3689TIP3    H211032   1.488   5.476   0.115  0.2143 -2.1357  0.7773
 3690TIP3   OH211033   1.230   0.468   4.683  0.1342  0.1790 -0.5251
 3690TIP3    H111034   1.312   0.422   4.671  0.4489  0.5955 -0.0217
 3690TIP3    H211035   1.253   0.561   4.676 -0.0426  0.3611  0.8994
 3691TIP3   OH211036   5.589   3.986   0.160 -0.0419  0.1223  0.3578
 3691TIP3    H111037   5.556   4.041   0.089  0.4929 -1.8852 -1.5452
 3691TIP3    H211038   5.515   3.975   0.219 -0.6111  1.5406 -0.0511
 3692TIP3   OH211039   4.384   0.606   4.138 -0.3390  0.3157  0.0364
 3692TIP3    H111040   4.416   0.581   4.051 -0.0841  0.3011  0.1320
 3692TIP3    H211041   4.400   0.529   4.192 -1.4201 -0.0365 -0.1285
 3693TIP3   OH211042   5.514   0.911   5.845 -0.0526 -0.0882 -0.0696
 3693TIP3    H111043   5.521   0.933   5.752  0.5419  0.5165  0.1023
 3693TIP3    H211044   5.552   0.987   5.889  1.6380 -1.2569  0.5746
 3694TIP3   OH211045   3.261   1.315   1.519  0.1894  0.5246  0.0828
 3694TIP3    H111046   3.294   1.324   1.608 -0.3815  0.1578  0.3408
 3694TIP3    H211047   3.166   1.315   1.528  0.1252  0.3454 -0.5088
 3695TIP3   OH211048   1.221   5.223   0.667  0.2112 -0.2947  0.1700
 3695TIP3    H111049   1.180   5.199   0.584  2.8734 -2.3030 -0.7002
 3695TIP3    H211050   1.161   5.191   0.734 -0.5138 -1.4788 -0.9960
 3696TIP3   OH211051   3.832   2.515   0.143 -0.1778  0.6753  0.1203
 3696TIP3    H111052   3.798   2.513   0.053 -0.1920 -0.0484  0.1368
 3696TIP3    H211053   3.918   2.474   0.137  0.1466  1.3171  0.3102
 3697TIP3   OH211054   2.642   2.763   0.451 -0.3964 -0.3380 -0.0897
 3697TIP3    H111055   2.630   2.855   0.430  0.8695 -0.3666 -1.0535
 3697TIP3    H211056   2.615   2.755   0.543 -1.8110  0.6948 -0.3836
 3698TIP3   OH211057   2.339   4.922   0.641 -0.0852  0.2015 -0.2149
 3698TIP3    H111058   2.405   4.858   0.614  0.6304  1.0496 -0.5447
 3698TIP3    H211059   2.268   4.870   0.676  0.2490 -0.8029 -0.9812
 3699TIP3   OH211060   5.043   6.783   2.146 -0.1373 -0.3638  0.1846
 3699TIP3    H111061   4.983   6.838   2.196 -0.5366 -1.4282  0.9140
 3699TIP3    H211062   5.056   6.706   2.201  0.5144 -0.9427 -0.7513
 3700TIP3   OH211063   5.392   3.176   1.335 -0.5755  0.6272 -0.7234
 3700TIP3    H111064   5.321   3.135   1.384 -1.2618  1.2916 -1.1488
 3700TIP3    H211065   5.397   3.125   1.254  0.5080 -0.4219 -0.0448
 3701TIP3   OH211066   1.785   4.691   5.230  0.2057 -0.4294 -0.4132
 3701TIP3    H111067   1.799   4.672   5.322 -0.0273  0.5191 -0.1764
 3701TIP3    H211068   1.861   4.651   5.186  1.0218  0.2536  0.3329
 3702TIP3   OH211069   4.509   5.633   4.451  0.0956 -0.5392 -0.1382
 3702TIP3    H111070   4.440   5.567   4.457 -1.7745  1.3823  0.6981
 3702TIP3    H211071   4.466   5.710   4.414  1.3218  1.2853  1.9487
 3703TIP3   OH211072   4.970   6.042   1.694  0.4429  0.3333  0.0612
 3703TIP3    H111073   4.934   6.111   1.637 -0.6452 -1.4885 -1.5860
 3703TIP3    H211074   5.062   6.035   1.669  0.6859  1.4706  0.5740
 3704TIP3   OH211075   3.347   6.177   4.945 -0.5509  0.0488  0.5175
 3704TIP3    H111076   3.360   6.254   4.890 -2.2564  0.5060  0.6741
 3704TIP3    H211077   3.265   6.139   4.913 -0.1330 -1.2748  0.9504
 3705TIP3   OH211078   6.332   5.021   2.227 -0.4876 -0.0730 -0.4923
 3705TIP3    H111079   6.289   4.962   2.288  0.8144 -1.5443 -0.9156
 3705TIP3    H211080   6.312   4.985   2.141  0.0837  0.2692 -0.7739
 3706TIP3   OH211081   6.562   3.738   3.370  0.3587  0.1601 -0.2242
 3706TIP3    H111082   6.650   3.752   3.404  0.7911 -1.7317 -0.4580
 3706TIP3    H211083   6.573   3.738   3.275  0.5996 -2.4904 -0.2677
 3707TIP3   OH211084   6.250   5.174   2.772  0.1437 -0.1720  0.5633
 3707TIP3    H111085   6.265   5.178   2.678  0.7836  0.0649  0.6678
 3707TIP3    H211086   6.288   5.091   2.800 -1.5155 -1.0330  0.3767
 3708TIP3   OH211087   6.505   4.111   3.287  0.4460 -0.1354  0.1059
 3708TIP3    H111088   6.594   4.087   3.262 -0.0481 -2.5161  0.3631
 3708TIP3    H211089   6.450   4.045   3.246 -1.0255  0.1120  1.5567
 3709TIP3   OH211090   5.978   3.164   3.921 -0.1013 -1.1384 -0.1064
 3709TIP3    H111091   5.907   3.113   3.882 -0.2314 -0.9066 -0.1767
 3709TIP3    H211092   5.983   3.133   4.012 -0.1756 -1.2794 -0.1495
 3710TIP3   OH211093   3.838   6.668   0.293  0.0228 -0.6709 -0.2172
 3710TIP3    H111094   3.903   6.735   0.311  1.1423 -1.6418 -0.5138
 3710TIP3    H211095   3.794   6.697   0.214 -0.7598  0.5985  0.6504
 3711TIP3   OH211096   5.233   2.303   3.567 -0.1050 -0.1159  0.3188
 3711TIP3    H111097   5.233   2.286   3.472  1.2806  1.1507  0.0636
 3711TIP3    H211098   5.147   2.272   3.596 -1.1055  0.7042 -1.5829
 3712TIP3   OH211099   0.012   6.421   3.048  0.2847  0.5743 -0.3065
 3712TIP3    H111100   0.056   6.499   3.014  0.0539  1.0023  0.3533
 3712TIP3    H211101  -0.011   6.444   3.138  1.2284 -0.6722  0.2799
 3713TIP3   OH211102   1.121   1.243   2.722  0.0968  0.1606 -0.7360
 3713TIP3    H111103   1.124   1.279   2.811 -1.4376 -1.3562 -0.0090
 3713TIP3    H211104   1.153   1.313   2.667 -0.9073  1.9196  0.8076
 3714TIP3   OH211105   5.385   6.685   1.746  0.3605 -0.4719 -0.3120
 3714TIP3    H111106   5.472   6.673   1.784  0.0229 -1.5155  0.1820
 3714TIP3    H211107   5.326   6.685   1.822 -0.2422 -1.6870 -0.7595
 3715TIP3   OH211108   4.832   1.630   4.705 -0.1600  0.4482  0.1454
 3715TIP3    H111109   4.775   1.554   4.712 -0.1319  0.5369  1.4701
 3715TIP3    H211110   4.872   1.622   4.618 -3.5773  1.3627 -1.7479
 3716TIP3   OH211111   0.301   4.881   5.766  0.0546  0.2321  0.2547
 3716TIP3    H111112   0.303   4.847   5.855  0.3641 -0.9549 -0.1723
 3716TIP3    H211113   0.278   4.973   5.775 -2.5447 -0.4497  1.3720
 3717TIP3   OH211114   1.207   1.930   4.144 -0.3928 -0.0599  0.4880
 3717TIP3    H111115   1.295   1.900   4.168 -0.5944 -1.8834 -0.8129
 3717TIP3    H211116   1.213   1.951   4.051 -1.5846 -1.4570  0.0492
 3718TIP3   OH211117   4.009   1.076   1.796 -0.7562 -0.2412 -0.3701
 3718TIP3    H111118   3.986   1.118   1.879 -0.3193 -1.2877  0.2948
 3718TIP3    H211119   4.092   1.032   1.814  0.2176  0.8924 -1.8437
 3719TIP3   OH211120   2.632   3.720   2.554  0.3482 -0.3852 -0.2153
 3719TIP3    H111121   2.708   3.742   2.607  0.2907  0.2718 -0.4017
 3719TIP3    H211122   2.565   3.784   2.578 -0.5244 -1.6125  0.7260
 3720TIP3   OH211123   1.278   4.746   2.943  0.0900  0.3559 -0.3282
 3720TIP3    H111124   1.260   4.652   2.935  0.2166  0.4490 -2.2199
 3720TIP3    H211125   1.370   4.750   2.970 -0.0976 -0.0426  0.4204
 3721TIP3   OH211126   6.558   2.899   4.649 -0.6425 -0.4763  0.2698
 3721TIP3    H111127   6.599   2.844   4.582 -0.9295 -0.7117  0.2846
 3721TIP3    H211128   6.469   2.865   4.656 -0.5863 -0.5100  0.8373
 3722TIP3   OH211129   2.343   4.902   4.053 -0.5867 -0.6367  0.5761
 3722TIP3    H111130   2.350   4.930   3.962 -0.8398 -0.8422  0.4931
 3722TIP3    H211131   2.285   4.826   4.051 -2.4866  0.7248  1.1674
 3723TIP3   OH211132   2.984   3.799   0.871  0.5412  0.1005 -0.1260
 3723TIP3    H111133   2.950   3.733   0.931 -0.6435  1.2915  0.5544
 3723TIP3    H211134   3.063   3.831   0.913  0.8246 -0.4993 -0.1951
 3724TIP3   OH211135   1.071   4.322   5.692 -0.1039  0.8568  0.0453
 3724TIP3    H111136   1.094   4.278   5.610 -0.2609  1.4628 -0.3227
 3724TIP3    H211137   0.999   4.270   5.728  0.9421 -0.2941  0.5557
 3725TIP3   OH211138   0.908   0.154   3.765  0.6394 -0.4192  0.1685
 3725TIP3    H111139   0.934   0.210   3.692  1.0688 -1.5599 -0.5842
 3725TIP3    H211140   0.817   0.130   3.745 -0.0313  1.1004  1.2184
 3726TIP3   OH211141   3.483   6.069   4.482 -0.3770  0.4999  0.4097
 3726TIP3    H111142   3.478   6.149   4.429  2.4911  0.6681  0.2166
 3726TIP3    H211143   3.569   6.073   4.524 -1.0976 -1.3925  2.2452
 3727TIP3   OH211144   1.491   4.049   5.619  0.0219 -0.1027  0.9251
 3727TIP3    H111145   1.582   4.022   5.621  0.7938  2.2133  0.3151
 3727TIP3    H211146   1.485   4.119   5.684 -1.3460 -0.2501  0.9999
 3728TIP3   OH211147   0.278   2.473   5.256  0.4525  0.2193  0.0422
 3728TIP3    H111148   0.258   2.407   5.322  0.1749 -0.3853 -0.6302
 3728TIP3    H211149   0.211   2.460   5.188  1.1484  0.3613 -0.6908
 3729TIP3   OH211150   4.683   2.078   5.123  0.0939 -0.2497 -0.4243
 3729TIP3    H111151   4.710   2.137   5.052 -0.6979 -0.5842 -1.0039
 3729TIP3    H211152   4.642   2.136   5.188 -1.4417 -0.2299 -1.3658
 3730TIP3   OH211153   0.794   3.378   0.109  0.0306  0.1862 -0.0246
 3730TIP3    H111154   0.759   3.350   0.024  0.9812 -0.7010 -0.1375
 3730TIP3    H211155   0.884   3.405   0.090  0.8190 -1.5890  0.9374
 3731TIP3   OH211156   1.125   5.606   4.744 -0.5340  0.3399  0.4131
 3731TIP3    H111157   1.093   5.556   4.819  1.0522 -0.4158  0.6287
 3731TIP3    H211158   1.139   5.540   4.676 -0.9191  0.8698 -0.1809
 3732TIP3   OH211159   2.165   6.489   5.270 -0.1780  0.0833 -0.3155
 3732TIP3    H111160   2.198   6.533   5.348  0.9374  1.0837 -1.3166
 3732TIP3    H211161   2.143   6.559   5.210 -0.7267 -0.6839 -1.0337
 3733TIP3   OH211162   3.057   2.568   0.152 -0.2735 -0.1605  0.0797
 3733TIP3    H111163   2.978   2.618   0.171 -2.1017 -3.0514  0.8374
 3733TIP3    H211164   3.092   2.545   0.238  1.1344  0.6261 -0.2522
 3734TIP3   OH211165   1.257   4.835   1.831 -0.4236  0.1975 -0.1930
 3734TIP3    H111166   1.190   4.840   1.762 -0.2785  0.2705 -0.3266
 3734TIP3    H211167   1.283   4.925   1.846 -0.8674  0.2421  0.3624
 3735TIP3   OH211168   2.042   4.740   1.014  0.2486  0.8865  0.1027
 3735TIP3    H111169   2.014   4.788   1.092 -1.0955 -0.8721  0.7558
 3735TIP3    H211170   2.134   4.718   1.031 -0.1234  0.2379  1.3474
 3736TIP3   OH211171   3.315   3.726   2.389  0.4802  0.2262  0.4893
 3736TIP3    H111172   3.364   3.654   2.429 -0.2666 -0.2002  0.6620
 3736TIP3    H211173   3.281   3.689   2.307  0.6636  0.5971  0.2442
 3737TIP3   OH211174   6.549   5.980   1.325  0.0886 -0.0759 -0.1316
 3737TIP3    H111175   6.612   5.924   1.279 -0.6113 -1.8898  0.9936
 3737TIP3    H211176   6.471   5.926   1.334 -0.3691  0.8057  1.6905
 3738TIP3   OH211177   0.610   0.923   5.053  0.0290  0.1574 -0.5337
 3738TIP3    H111178   0.669   0.852   5.030 -0.1589  0.5788 -2.5078
 3738TIP3    H211179   0.523   0.889   5.034 -0.1931  0.3318  0.1496
 3739TIP3   OH211180   3.882   0.618   1.195  0.2684  0.0504  0.1032
 3739TIP3    H111181   3.908   0.688   1.135 -1.1911  0.8840  0.4044
 3739TIP3    H211182   3.831   0.558   1.141  0.5736 -0.2128  0.1010
 3740TIP3   OH211183   6.275   3.985   1.033  0.1009  0.1652  0.5407
 3740TIP3    H111184   6.259   4.008   1.125 -1.2378  0.4573  0.2508
 3740TIP3    H211185   6.200   4.021   0.986  0.1446 -1.0481 -0.5046
 3741TIP3   OH211186   7.015   2.613   5.281  1.0426 -0.3879 -0.1336
 3741TIP3    H111187   6.998   2.595   5.189  1.6940  1.1044 -0.5633
 3741TIP3    H211188   6.951   2.681   5.305 -0.9105 -2.5352  1.2746
 3742TIP3   OH211189   5.145   1.520   2.080  0.1229  0.1026  0.2031
 3742TIP3    H111190   5.170   1.612   2.079 -0.6610  0.3327  0.6535
 3742TIP3    H211191   5.226   1.473   2.100  0.5795  0.6692 -0.2879
 3743TIP3   OH211192   0.717   6.158   2.353  0.0723 -0.0543 -0.8329
 3743TIP3    H111193   0.718   6.231   2.292 -0.6546 -0.0280 -0.8215
 3743TIP3    H211194   0.797   6.109   2.333 -1.0772 -1.1506 -3.1470
 3744TIP3   OH211195   3.693   1.900   3.924  0.2758  0.5178  0.2212
 3744TIP3    H111196   3.626   1.906   3.856 -2.0310 -2.4326  1.9955
 3744TIP3    H211197   3.758   1.838   3.889 -1.5066 -1.9257  1.0025
 3745TIP3   OH211198   1.017   1.445   4.043  0.0810 -0.2695 -0.3818
 3745TIP3    H111199   1.007   1.531   4.084 -0.2856 -0.2265 -0.5626
 3745TIP3    H211200   0.950   1.391   4.084  0.3654 -0.4948 -0.2074
 3746TIP3   OH211201   5.643   4.169   2.024  0.1311 -0.3287 -0.1772
 3746TIP3    H111202   5.587   4.092   2.015 -1.5414  1.0078 -2.1862
 3746TIP3    H211203   5.587   4.242   1.998  2.3981  1.2807 -0.8273
 3747TIP3   OH211204   4.991   3.731   4.464  0.1645 -0.2765 -0.3945
 3747TIP3    H111205   4.971   3.652   4.414  0.2415 -0.6340  0.1220
 3747TIP3    H211206   5.034   3.789   4.402 -2.0123  0.3351 -1.4264
 3748TIP3   OH211207   6.492   1.030   2.964  0.1785 -0.4345  0.1452
 3748TIP3    H111208   6.542   1.028   2.882  0.3948  0.4794  0.2389
 3748TIP3    H211209   6.419   0.969   2.950 -1.3064  1.6202 -1.7270
 3749TIP3   OH211210   7.082   2.535   4.145 -0.2857 -0.4152  0.0518
 3749TIP3    H111211   7.027   2.580   4.081  0.6099 -0.7126 -0.9543
 3749TIP3    H211212   7.092   2.597   4.217  0.3802  0.7635 -1.0129
 3750TIP3   OH211213   1.232   6.595   2.842  0.1261 -0.1862  0.2378
 3750TIP3    H111214   1.277   6.590   2.757 -0.4686 -1.4358 -0.0221
 3750TIP3    H211215   1.145   6.559   2.825 -0.6123  1.1650  0.9995
 3751TIP3   OH211216   0.558   5.796   1.894 -0.2033  0.2888 -0.2118
 3751TIP3    H111217   0.606   5.776   1.814  0.2631  0.5866 -0.0151
 3751TIP3    H211218   0.485   5.850   1.866 -0.7336 -0.6166 -0.5824
 3752TIP3   OH211219   3.253   0.457   1.433  0.3075  0.1876 -0.0800
 3752TIP3    H111220   3.203   0.429   1.356  1.0923  0.6022 -0.7549
 3752TIP3    H211221   3.215   0.541   1.457 -0.0558 -0.0260  0.0993
 3753TIP3   OH211222   3.802   4.846   0.104 -0.6679 -0.1052  0.0242
 3753TIP3    H111223   3.714   4.879   0.121 -0.9191 -0.9536  0.4592
 3753TIP3    H211224   3.798   4.754   0.129  0.3735 -0.1312  0.1514
 3754TIP3   OH211225   3.640   6.487   5.161  0.1678  0.2575 -0.1329
 3754TIP3    H111226   3.555   6.486   5.205 -1.0420  0.3033 -2.3256
 3754TIP3    H211227   3.674   6.575   5.176 -0.6825  0.5929 -0.1321
 3755TIP3   OH211228   1.633   2.788   1.271  0.7155 -0.1176  0.4201
 3755TIP3    H111229   1.679   2.749   1.345 -0.9283 -3.6734 -0.2492
 3755TIP3    H211230   1.543   2.757   1.279  0.0453  0.9209 -2.0718
 3756TIP3   OH211231   2.205   1.467   3.239  0.4200 -0.1680  0.4966
 3756TIP3    H111232   2.253   1.471   3.156 -0.1442  0.9655  0.2061
 3756TIP3    H211233   2.273   1.456   3.306  0.9987  0.3540  0.0064
 3757TIP3   OH211234   5.061   4.715   1.622 -0.0755 -0.2559 -0.1772
 3757TIP3    H111235   4.995   4.703   1.554 -0.0423 -1.4642 -0.0069
 3757TIP3    H211236   5.074   4.628   1.659  0.1736  0.3164  1.1385
 3758TIP3   OH211237   2.727   5.620   2.376  0.0198  0.1482 -0.3880
 3758TIP3    H111238   2.662   5.632   2.445  0.6386 -2.9915  0.9121
 3758TIP3    H211239   2.675   5.602   2.297 -0.6952  0.3887  0.0197
 3759TIP3   OH211240   7.006   0.468   2.791  0.2395 -0.2252 -0.2153
 3759TIP3    H111241   6.910   0.464   2.783  0.2863 -0.2287 -0.8232
 3759TIP3    H211242   7.028   0.394   2.846 -0.1553  0.0735  0.3553
 3760TIP3   OH211243   3.431   3.111   3.835  0.1370 -0.4840  0.3085
 3760TIP3    H111244   3.371   3.106   3.910 -0.6169 -2.4820 -0.3607
 3760TIP3    H211245   3.378   3.150   3.766 -0.2752 -1.7869 -0.1372
 3761TIP3   OH211246   3.576   4.545   4.307 -0.2642 -0.0338  0.2756
 3761TIP3    H111247   3.589   4.550   4.401 -0.5010  3.0916  0.2565
 3761TIP3    H211248   3.660   4.570   4.270 -0.4003 -0.4339 -0.3132
 3762TIP3   OH211249   1.360   5.449   2.112  0.5368  0.5394  0.0516
 3762TIP3    H111250   1.366   5.366   2.159  0.7013 -0.1003 -1.0860
 3762TIP3    H211251   1.366   5.426   2.020 -2.0256  1.5666 -0.4352
 3763TIP3   OH211252   1.742   2.421   2.659 -0.1341 -0.1832 -0.3459
 3763TIP3    H111253   1.762   2.352   2.596 -0.5790 -0.8086  0.1836
 3763TIP3    H211254   1.791   2.497   2.628 -1.0742 -0.2031 -1.9682
 3764TIP3   OH211255   4.428   0.254   2.959  0.2686 -0.3949 -0.2400
 3764TIP3    H111256   4.337   0.276   2.977  0.1391 -1.1898  0.1376
 3764TIP3    H211257   4.429   0.158   2.955  1.1367 -0.4034  0.0294
 3765TIP3   OH211258   3.436  -0.015   5.033 -0.6032  0.0640 -0.2113
 3765TIP3    H111259   3.448  -0.009   4.938  0.7018 -0.5664 -0.0996
 3765TIP3    H211260   3.419   0.075   5.060 -1.4725  0.1857 -1.0931
 3766TIP3   OH211261   4.721   4.834   1.379 -0.0984 -0.3449 -0.0723
 3766TIP3    H111262   4.683   4.836   1.291 -0.1779 -2.9883 -0.1682
 3766TIP3    H211263   4.814   4.815   1.366 -0.0364 -0.4158  0.4225
 3767TIP3   OH211264   5.534   5.283   2.206 -0.5585  0.1072 -0.1127
 3767TIP3    H111265   5.443   5.285   2.233 -0.3690  2.8800  0.6405
 3767TIP3    H211266   5.531   5.276   2.111 -1.5825  0.6708 -0.1350
 3768TIP3   OH211267   4.740   4.713   0.434 -0.6042 -0.1323  0.2623
 3768TIP3    H111268   4.774   4.790   0.480 -0.1475 -0.1236 -0.0783
 3768TIP3    H211269   4.746   4.642   0.498 -0.7813  0.0636  0.4949
 3769TIP3   OH211270   5.512   6.355   5.494 -0.8566  0.0777  0.0189
 3769TIP3    H111271   5.417   6.355   5.482 -0.6905  0.4602 -1.5628
 3769TIP3    H211272   5.533   6.264   5.515 -1.5176 -0.1382 -0.2182
 3770TIP3   OH211273   1.534   1.053   2.110 -0.4862  0.0180 -0.3750
 3770TIP3    H111274   1.536   1.146   2.131  0.3858 -0.3640  1.4917
 3770TIP3    H211275   1.493   1.012   2.186 -0.9435 -1.1177 -1.2084
 3771TIP3   OH211276   0.963   4.794   1.135  0.0417  0.1591  0.5956
 3771TIP3    H111277   0.876   4.806   1.097  1.2424  1.1348 -2.1082
 3771TIP3    H211278   1.003   4.881   1.133  0.8097 -0.0729  2.6818
 3772TIP3   OH211279   3.264   4.598   1.528 -0.0822 -0.6169 -0.0875
 3772TIP3    H111280   3.194   4.537   1.507  0.6373 -1.3374 -0.4630
 3772TIP3    H211281   3.229   4.684   1.504 -0.0950 -1.1808 -2.2622
 3773TIP3   OH211282   2.414   0.145   4.637  0.3160  0.0302 -0.2136
 3773TIP3    H111283   2.324   0.142   4.604 -0.3544  1.5611  1.3175
 3773TIP3    H211284   2.437   0.054   4.656 -0.5101 -0.4901 -1.5750
 3774TIP3   OH211285   5.632   6.187   3.456 -0.2432 -0.3555  0.0298
 3774TIP3    H111286   5.595   6.154   3.374 -1.3004 -0.8487  0.6881
 3774TIP3    H211287   5.687   6.261   3.429 -0.1172 -0.8524 -1.1737
 3775TIP3   OH211288   1.642   5.720   3.632  0.1106 -0.5718  0.3820
 3775TIP3    H111289   1.727   5.765   3.641  0.1235 -0.6631  0.7691
 3775TIP3    H211290   1.658   5.649   3.570  0.6742 -1.4259  1.4663
 3776TIP3   OH211291   3.136   1.829   4.548  0.1708 -0.5427  0.1846
 3776TIP3    H111292   3.068   1.820   4.482 -0.6956 -1.5261  1.1737
 3776TIP3    H211293   3.170   1.741   4.560  2.5408  0.0837 -1.1699
 3777TIP3   OH211294   6.727   5.043   0.603 -0.4708  0.4236 -0.6793
 3777TIP3    H111295   6.691   5.039   0.692  0.8161  0.2775 -0.1448
 3777TIP3    H211296   6.814   5.003   0.610  0.2789  1.7672 -1.6752
 3778TIP3   OH211297  -0.020   5.873   5.703  0.0601  0.5012  0.2463
 3778TIP3    H111298  -0.015   5.813   5.777  0.5160  1.1722  0.7607
 3778TIP3    H211299   0.057   5.852   5.650 -1.1709 -1.1761 -0.9774
 3779TIP3   OH211300   4.170   1.544   4.712  0.1070 -0.3872  0.0385
 3779TIP3    H111301   4.186   1.528   4.805 -0.7360  0.7866  0.4167
 3779TIP3    H211302   4.129   1.464   4.681  2.6598 -1.8086  0.0299
 3780TIP3   OH211303   5.125   1.706   0.673 -0.2526 -0.0684 -0.4151
 3780TIP3    H111304   5.086   1.722   0.587  0.5877 -2.0857 -1.2197
 3780TIP3    H211305   5.092   1.621   0.699  0.6813 -0.1451  0.5830
 3781TIP3   OH211306   3.288   6.380   2.799 -0.2727  0.0232  0.8177
 3781TIP3    H111307   3.192   6.388   2.802 -0.5841 -1.6027 -1.8096
 3781TIP3    H211308   3.312   6.412   2.713  1.4865 -0.3456  1.1356
 3782TIP3   OH211309   2.683   3.980   0.513  0.7338  0.0665  0.0944
 3782TIP3    H111310   2.628   3.912   0.474  0.0469  1.4432 -1.4442
 3782TIP3    H211311   2.737   4.011   0.440  2.3459 -0.0538  1.1829
 3783TIP3   OH211312   5.338   3.303   3.904  0.0776  0.0759 -0.1720
 3783TIP3    H111313   5.296   3.275   3.823 -0.2320  0.2811 -0.0826
 3783TIP3    H211314   5.432   3.300   3.885  0.0225 -0.2974 -0.3987
 3784TIP3   OH211315   5.327   5.650   1.024 -0.3840 -0.0647  0.6252
 3784TIP3    H111316   5.417   5.669   1.050 -0.3345  0.9864 -0.2447
 3784TIP3    H211317   5.334   5.578   0.961 -0.2915 -0.9097  1.5735
 3785TIP3   OH211318   1.381   3.791   0.766  0.0822  0.2745 -0.1411
 3785TIP3    H111319   1.385   3.714   0.709  0.5658  0.5710 -0.5221
 3785TIP3    H211320   1.348   3.861   0.709 -1.1782  0.1701  0.4188
 3786TIP3   OH211321   1.961   1.142   4.479 -0.7085  0.4769  0.1094
 3786TIP3    H111322   2.018   1.102   4.545 -0.5317  0.5779  0.0172
 3786TIP3    H211323   2.008   1.130   4.396 -1.2013 -0.1800 -0.0824
 3787TIP3   OH211324   6.791   5.067   4.366  0.1422  0.0265  0.6191
 3787TIP3    H111325   6.885   5.073   4.348  0.1206  1.5281  0.8735
 3787TIP3    H211326   6.776   4.974   4.381  1.6448 -0.2168  0.8437
 3788TIP3   OH211327   6.819   0.301   0.137  0.1861  0.3596  0.7781
 3788TIP3    H111328   6.869   0.318   0.217  1.4026  1.1431 -0.1148
 3788TIP3    H211329   6.825   0.382   0.087  0.8491 -0.6372 -0.8427
 3789TIP3   OH211330   2.907   0.288   4.939  0.4820 -0.0633  0.7023
 3789TIP3    H111331   2.924   0.373   4.981  0.3961  0.6363 -0.6382
 3789TIP3    H211332   2.812   0.277   4.946  0.3519  0.4771 -0.0619
 3790TIP3   OH211333   3.842   0.640   5.287 -0.3813  0.2252 -0.3634
 3790TIP3    H111334   3.798   0.720   5.256 -2.0027 -0.1691  0.7699
 3790TIP3    H211335   3.906   0.670   5.350 -1.3119  0.6285  0.4121
 3791TIP3   OH211336   2.519   4.083   0.239  0.0224 -0.2744 -0.1628
 3791TIP3    H111337   2.466   4.015   0.198  0.9277 -0.7958 -0.5104
 3791TIP3    H211338   2.462   4.124   0.304 -1.4841  0.6009 -1.9469
 3792TIP3   OH211339   5.636   0.901   0.736  0.4091 -0.0301  0.3786
 3792TIP3    H111340   5.563   0.865   0.785  0.5912 -0.9136  0.0234
 3792TIP3    H211341   5.596   0.964   0.676 -0.0935 -0.6513  0.0502
 3793TIP3   OH211342   3.043   2.728   2.718 -0.0825 -0.3228 -0.0731
 3793TIP3    H111343   2.971   2.672   2.689  0.1917 -0.7253  0.0063
 3793TIP3    H211344   3.001   2.804   2.757 -0.5438  1.3042 -3.3431
 3794TIP3   OH211345   1.374   6.119   3.722 -0.0521 -0.2714 -0.5636
 3794TIP3    H111346   1.399   6.034   3.759  0.1993 -0.9007 -2.1111
 3794TIP3    H211347   1.454   6.152   3.682 -0.2320  0.5700 -0.2568
 3795TIP3   OH211348   6.156   0.467   1.324  0.2745 -0.3322  0.2455
 3795TIP3    H111349   6.250   0.461   1.341  0.2625  0.4086  0.5948
 3795TIP3    H211350   6.134   0.385   1.280  1.5563  0.4933 -2.0622
 3796TIP3   OH211351   2.725   4.124   5.125  0.4068 -0.0930  0.4334
 3796TIP3    H111352   2.707   4.209   5.085  1.8070  0.1710  0.3286
 3796TIP3    H211353   2.661   4.065   5.085  0.4587  0.5819 -0.6889
 3797TIP3   OH211354   3.907   4.345   0.013  0.3468  0.3370  0.1300
 3797TIP3    H111355   3.882   4.330   0.104 -0.6116  0.8448 -0.0314
 3797TIP3    H211356   3.830   4.386  -0.026  1.0088  0.8044 -0.7254
 3798TIP3   OH211357   2.820   0.946   1.470 -0.1050  0.3924 -0.2903
 3798TIP3    H111358   2.827   1.033   1.432  0.3508  0.4894  0.0100
 3798TIP3    H211359   2.755   0.901   1.416 -1.1074  1.2498  0.1540
 3799TIP3   OH211360   4.693   3.942   2.675 -0.2321 -0.1297 -0.6856
 3799TIP3    H111361   4.610   3.966   2.632  0.2269  0.1768 -1.4190
 3799TIP3    H211362   4.689   3.984   2.761 -0.1724  1.1974 -1.3063
 3800TIP3   OH211363   4.028   6.649   3.575 -0.3820  0.0240 -0.2087
 3800TIP3    H111364   4.008   6.723   3.632  0.2390  1.0954 -1.3208
 3800TIP3    H211365   3.977   6.666   3.495 -1.6141 -1.6888  0.1512
 3801TIP3   OH211366   2.197   1.015   3.105  0.2136  0.5794  0.1654
 3801TIP3    H111367   2.209   0.920   3.099  1.5537  0.7719 -0.7705
 3801TIP3    H211368   2.139   1.036   3.032  0.6380  0.5628 -0.1873
 3802TIP3   OH211369   5.716   5.130   2.802 -0.0137 -0.1666  0.2984
 3802TIP3    H111370   5.793   5.187   2.811  0.7709 -0.8665 -1.5263
 3802TIP3    H211371   5.745   5.059   2.745 -2.1725 -0.1323 -0.9630
 3803TIP3   OH211372   5.208   5.880   1.063  0.0365  0.2999  0.4180
 3803TIP3    H111373   5.279   5.936   1.034 -0.2058  0.1979 -0.3960
 3803TIP3    H211374   5.227   5.794   1.025 -0.6726  0.3451 -0.0579
 3804TIP3   OH211375   3.443   5.639   1.804  0.4022 -0.2873  0.4260
 3804TIP3    H111376   3.525   5.672   1.769  0.2719  0.2865  0.6531
 3804TIP3    H211377   3.421   5.698   1.876 -1.0335  0.5832 -0.6648
 3805TIP3   OH211378   3.647   6.683   2.140 -0.9064  0.3058  0.1561
 3805TIP3    H111379   3.739   6.671   2.118 -1.0075  0.6645 -0.4876
 3805TIP3    H211380   3.644   6.679   2.235 -0.5036 -1.6762  0.1280
 3806TIP3   OH211381   2.040   1.234   0.572  0.0477 -0.2396  0.4782
 3806TIP3    H111382   2.123   1.252   0.616  0.2749 -0.3424  0.1004
 3806TIP3    H211383   1.992   1.317   0.577  1.4584  0.8462 -2.0501
 3807TIP3   OH211384   4.722   5.910   4.482  0.7188 -0.6207  0.7932
 3807TIP3    H111385   4.687   5.939   4.566  0.2560 -0.9129  0.7056
 3807TIP3    H211386   4.725   5.814   4.489 -2.3675 -0.9138 -0.6617
 3808TIP3   OH211387   0.588   1.146   3.323  0.3035 -0.0165  0.2131
 3808TIP3    H111388   0.608   1.066   3.371  0.6731  0.6719  1.2255
 3808TIP3    H211389   0.659   1.155   3.260  0.6523 -0.0978  0.5938
 3809TIP3   OH211390   3.860   1.428   2.947 -0.2024  0.3337 -0.0439
 3809TIP3    H111391   3.939   1.392   2.987 -0.1019  0.5298 -0.0621
 3809TIP3    H211392   3.844   1.372   2.871 -1.2064 -0.9232  1.0533
 3810TIP3   OH211393   3.270   0.413   2.988  0.1780 -0.4067 -0.3166
 3810TIP3    H111394   3.331   0.460   3.044 -0.7392 -1.4445  1.6487
 3810TIP3    H211395   3.263   0.326   3.027 -1.9969 -0.5519 -0.8724
 3811TIP3   OH211396   1.747   4.004   5.651 -0.2267  0.2534 -0.0954
 3811TIP3    H111397   1.782   3.919   5.627  0.0339  0.6945 -1.3450
 3811TIP3    H211398   1.823   4.053   5.684  0.1913  0.8413 -1.7922
 3812TIP3   OH211399   1.464   0.813   2.499  0.4436 -0.3125 -0.1196
 3812TIP3    H111400   1.551   0.841   2.528  0.5934 -1.4546  0.6119
 3812TIP3    H211401   1.431   0.886   2.447  1.2852  0.6903  0.7176
 3813TIP3   OH211402   3.287   5.859   0.337  0.0731 -0.0068  0.2016
 3813TIP3    H111403   3.197   5.842   0.311 -0.3415 -1.7929  2.4756
 3813TIP3    H211404   3.286   5.949   0.370 -1.4903 -0.6960  2.2554
 3814TIP3   OH211405   1.901   1.728   0.277 -0.1572 -0.2781 -0.4310
 3814TIP3    H111406   1.918   1.759   0.365  0.7177  0.6937 -0.9170
 3814TIP3    H211407   1.977   1.674   0.255  0.1535  0.3385 -0.9438
 3815TIP3   OH211408   6.088   5.615   3.683 -0.1366  0.3940  0.2633
 3815TIP3    H111409   6.122   5.679   3.745 -0.8281  0.1419  0.9098
 3815TIP3    H211410   6.028   5.664   3.627  1.3756  0.8863 -1.0132
 3816TIP3   OH211411   7.162   5.355   2.538  0.5609 -0.5932  0.2610
 3816TIP3    H111412   7.196   5.424   2.595  0.2211 -0.6327  0.5190
 3816TIP3    H211413   7.070   5.347   2.563  0.5390 -0.9781  0.0703
 3817TIP3   OH211414   6.658   3.212   1.549  0.4206 -0.4095  0.2175
 3817TIP3    H111415   6.636   3.218   1.642  0.5604  1.0644  0.1696
 3817TIP3    H211416   6.677   3.119   1.535 -0.8000 -0.8617  1.3807
 3818TIP3   OH211417   3.781   4.209   1.928 -0.2776 -0.6119 -0.1996
 3818TIP3    H111418   3.791   4.293   1.973 -0.6445 -0.4823 -0.3637
 3818TIP3    H211419   3.785   4.144   1.999  0.2153 -0.4729 -0.0954
 3819TIP3   OH211420   4.608   0.407   4.750  0.0188 -0.0528  0.2707
 3819TIP3    H111421   4.540   0.351   4.787 -1.2669  0.7367 -0.8225
 3819TIP3    H211422   4.581   0.421   4.660  1.6916  0.2315 -0.2198
 3820TIP3   OH211423   0.134   4.708   1.200  0.5442 -0.7350  0.0733
 3820TIP3    H111424   0.166   4.791   1.235 -0.3774 -0.1035 -0.5458
 3820TIP3    H211425   0.063   4.682   1.260 -1.7615  0.8800 -1.7803
 3821TIP3   OH211426   4.540   2.507   1.020 -0.5528  0.1515  0.2777
 3821TIP3    H111427   4.565   2.506   0.928  0.5694 -3.2743  0.4706
 3821TIP3    H211428   4.622   2.526   1.066 -1.0983  1.8002  0.6242
 3822TIP3   OH211429   6.012   0.338   0.759 -0.0643  0.0025 -0.6509
 3822TIP3    H111430   6.065   0.265   0.726  0.8281  0.6483 -0.6906
 3822TIP3    H211431   6.050   0.415   0.717 -1.0460  0.4892 -0.6706
 3823TIP3   OH211432   1.842   1.236   4.086 -0.3230 -0.2696  1.0758
 3823TIP3    H111433   1.858   1.206   3.997 -0.1905  0.0907  0.9769
 3823TIP3    H211434   1.898   1.181   4.141  0.8780  0.6249  0.7874
 3824TIP3   OH211435   0.746   6.116   2.983  0.1435 -0.0118 -0.7021
 3824TIP3    H111436   0.671   6.175   2.971 -0.3880 -0.6115 -0.4247
 3824TIP3    H211437   0.823   6.172   2.972 -0.3363  0.4493 -1.8954
 3825TIP3   OH211438   2.636   0.248   0.994  0.0905 -0.1931  0.1527
 3825TIP3    H111439   2.602   0.188   0.928  0.6073  0.4307 -0.6959
 3825TIP3    H211440   2.710   0.201   1.033  1.0794  0.2423 -1.1543
 3826TIP3   OH211441   6.263   0.798   1.349  0.5618 -0.3650  0.1507
 3826TIP3    H111442   6.228   0.874   1.395 -0.1462 -0.6491  0.0854
 3826TIP3    H211443   6.358   0.807   1.356  0.4698 -0.3460  1.5587
 3827TIP3   OH211444   0.622   5.846   3.440 -0.0191 -0.5281 -0.1773
 3827TIP3    H111445   0.670   5.870   3.519 -0.9516 -2.3205  1.0010
 3827TIP3    H211446   0.600   5.754   3.452 -0.1945 -0.8578 -2.5584
 3828TIP3   OH211447   2.124   5.273   2.676  0.1328  0.1072 -0.2600
 3828TIP3    H111448   2.105   5.218   2.753 -1.3671  2.2427  1.0027
 3828TIP3    H211449   2.044   5.271   2.625  0.9334 -0.8278 -1.5435
 3829TIP3   OH211450   0.542   6.385   0.263  0.3864 -0.4235 -0.0522
 3829TIP3    H111451   0.554   6.392   0.168 -0.6132  0.1332 -0.1489
 3829TIP3    H211452   0.544   6.475   0.294  0.2628 -0.5758  0.4025
 3830TIP3   OH211453   6.183   5.129   1.190 -0.0890 -0.0835  0.5581
 3830TIP3    H111454   6.092   5.110   1.168 -0.6878  3.4494 -0.6416
 3830TIP3    H211455   6.224   5.150   1.107  0.6666  2.3789  1.4726
 3831TIP3   OH211456   1.013   0.918   5.182  0.1332 -0.1942 -0.2143
 3831TIP3    H111457   1.059   0.898   5.100 -0.9049 -1.7502 -0.4523
 3831TIP3    H211458   0.998   1.012   5.178  3.5865  0.5275  0.0561
 3832TIP3   OH211459   6.474   1.915   2.157  0.1570 -0.2788  0.3899
 3832TIP3    H111460   6.386   1.952   2.152  0.1409 -0.0210  1.9718
 3832TIP3    H211461   6.531   1.980   2.117  0.2541  2.0607  3.8489
 3833TIP3   OH211462   3.962   3.783   2.008 -0.1458 -0.0532 -0.4419
 3833TIP3    H111463   3.880   3.735   1.995 -0.6281 -0.4604  3.1239
 3833TIP3    H211464   4.024   3.740   1.950 -1.4648 -2.6014 -0.1152
 3834TIP3   OH211465   0.998   6.088   3.873  0.2214 -0.1074  0.3834
 3834TIP3    H111466   1.025   6.054   3.959  0.8552 -1.7253 -0.4289
 3834TIP3    H211467   0.941   6.021   3.838 -1.7060  1.4722  0.3528
 3835TIP3   OH211468   0.727   3.434   3.199 -0.3027 -0.2499 -0.0293
 3835TIP3    H111469   0.720   3.498   3.270  0.0901  0.3931 -0.5594
 3835TIP3    H211470   0.658   3.371   3.217 -0.3189 -0.0016  0.8293
 3836TIP3   OH211471   3.718   4.813   2.090  0.1113 -0.0015 -0.1676
 3836TIP3    H111472   3.789   4.854   2.141 -0.5223 -0.5038  1.1801
 3836TIP3    H211473   3.640   4.861   2.117 -0.4563 -1.2618  0.5051
 3837TIP3   OH211474   0.586   0.994   0.123 -0.2209  0.2121  0.0256
 3837TIP3    H111475   0.594   0.971   0.215 -0.0596 -0.2137 -0.0917
 3837TIP3    H211476   0.604   0.913   0.076 -0.8581  0.2917 -0.3690
 3838TIP3   OH211477   6.147   2.901   3.776 -0.1961  0.9809 -0.3758
 3838TIP3    H111478   6.209   2.931   3.843 -0.4177  0.7400 -0.0582
 3838TIP3    H211479   6.154   2.805   3.778 -0.8366  0.9359 -0.0896
 3839TIP3   OH211480   1.551   1.968   0.003 -0.1568 -0.0705  0.1390
 3839TIP3    H111481   1.497   1.988   0.080  1.3105  0.7797  1.0036
 3839TIP3    H211482   1.634   1.937   0.040  0.8780  1.1706 -1.0720
 3840TIP3   OH211483   1.566   3.849   4.706  0.8384 -0.3232 -0.3672
 3840TIP3    H111484   1.648   3.802   4.690  0.4302 -1.5372  0.8894
 3840TIP3    H211485   1.593   3.937   4.729  2.0786 -1.3863  2.8462
 3841TIP3   OH211486   5.664   6.438   4.940 -0.6445  0.5558 -0.5159
 3841TIP3    H111487   5.627   6.521   4.970 -0.8994  0.4827 -0.6220
 3841TIP3    H211488   5.589   6.390   4.904 -0.6194  0.0111  0.1386
 3842TIP3   OH211489   1.684   1.731   3.659  0.2909  0.1828  0.1411
 3842TIP3    H111490   1.759   1.745   3.601  2.0216 -2.2802  1.5936
 3842TIP3    H211491   1.691   1.802   3.723  1.3601  0.0111  0.2304
 3843TIP3   OH211492   3.255   5.851   2.843 -0.5446  0.2046  0.0293
 3843TIP3    H111493   3.253   5.941   2.878  1.1901  0.0710  0.5715
 3843TIP3    H211494   3.230   5.860   2.752  1.3797  1.5621 -0.4438
 3844TIP3   OH211495   7.173   4.405   5.127  0.3767 -0.3719 -0.1920
 3844TIP3    H111496   7.177   4.391   5.033 -1.2028 -1.1051 -0.1815
 3844TIP3    H211497   7.092   4.363   5.155 -0.0925  1.3309  1.2296
 3845TIP3   OH211498   4.516   2.085   0.500 -0.1765 -0.3187  0.1888
 3845TIP3    H111499   4.559   2.162   0.535  0.1780 -0.6350  0.4594
 3845TIP3    H211500   4.492   2.109   0.410 -1.3519  0.5884  0.7223
 3846TIP3   OH211501   6.382   0.321   3.370  0.8619  0.4042 -0.8462
 3846TIP3    H111502   6.453   0.330   3.434  0.5954 -0.5021 -0.4034
 3846TIP3    H211503   6.419   0.268   3.300  0.3715 -0.8908 -0.1693
 3847TIP3   OH211504   1.982   1.400   4.730  0.5341 -0.2608  0.6680
 3847TIP3    H111505   1.928   1.427   4.804 -1.2475 -1.2179 -0.2383
 3847TIP3    H211506   2.070   1.433   4.752 -0.4040  1.4651  2.1013
 3848TIP3   OH211507   2.895   6.204   1.685 -0.8171  0.3088  0.0498
 3848TIP3    H111508   2.958   6.277   1.678 -0.9852  0.5905  1.2879
 3848TIP3    H211509   2.913   6.150   1.608  1.2631  0.1289  0.6196
 3849TIP3   OH211510   3.557   6.782   2.850 -0.5935 -0.6092  0.5567
 3849TIP3    H111511   3.509   6.705   2.819 -0.2512 -1.2336  1.5328
 3849TIP3    H211512   3.642   6.776   2.806 -0.6299 -0.7021  0.4971
 3850TIP3   OH211513   3.077   6.437   1.787  0.1986 -0.5966 -0.3030
 3850TIP3    H111514   3.142   6.443   1.717  1.7750 -1.2070  1.0452
 3850TIP3    H211515   3.053   6.528   1.805  2.5796 -0.1034  0.8324
 3851TIP3   OH211516   0.573   4.913   2.074 -0.3505  0.3052 -0.1922
 3851TIP3    H111517   0.534   4.945   2.156 -0.0299 -1.6994  0.8072
 3851TIP3    H211518   0.584   4.992   2.021 -2.0102  1.4667  1.0623
 3852TIP3   OH211519   0.629   2.737   3.360  0.1259 -0.4333 -0.4147
 3852TIP3    H111520   0.670   2.664   3.314  0.2048 -0.4483 -0.3201
 3852TIP3    H211521   0.696   2.806   3.360  0.4614 -0.7541  0.4954
 3853TIP3   OH211522   2.166   4.157   2.658 -0.1898  0.1514  0.1374
 3853TIP3    H111523   2.202   4.237   2.620  0.4885  0.8424  2.0672
 3853TIP3    H211524   2.238   4.122   2.711 -0.5746 -1.5965 -0.4338
 3854TIP3   OH211525   6.459   3.884   5.364  0.2702  0.3303  0.2041
 3854TIP3    H111526   6.390   3.825   5.333  0.9136  0.4022 -1.4324
 3854TIP3    H211527   6.421   3.971   5.360  0.5556  0.4051 -1.0242
 3855TIP3   OH211528   6.826   1.217   3.535 -0.2654 -0.2250 -0.3228
 3855TIP3    H111529   6.822   1.309   3.507 -1.2960  0.3450  1.5246
 3855TIP3    H211530   6.861   1.221   3.624  0.2884 -1.6922 -0.4662
 3856TIP3   OH211531   2.704   0.523   3.547 -0.0768 -0.0075 -0.1531
 3856TIP3    H111532   2.702   0.432   3.518  0.4009 -0.8413  2.2104
 3856TIP3    H211533   2.613   0.552   3.543 -0.6561 -1.4441  1.4271
 3857TIP3   OH211534   2.861   4.706   2.229 -0.6763  0.4447  0.2268
 3857TIP3    H111535   2.880   4.727   2.321 -0.4762  0.1769  0.2468
 3857TIP3    H211536   2.947   4.687   2.190 -0.7225  0.8896 -0.1017
 3858TIP3   OH211537   6.085   0.154   4.159 -0.6144 -0.3733 -0.6055
 3858TIP3    H111538   6.079   0.077   4.215  0.7660 -0.8458 -1.0602
 3858TIP3    H211539   6.001   0.158   4.114 -0.3364 -2.2783 -1.3878
 3859TIP3   OH211540   3.918   5.811  -0.022  0.1537 -0.0807  0.1332
 3859TIP3    H111541   3.922   5.905  -0.008 -0.5742 -0.0979  0.5188
 3859TIP3    H211542   3.939   5.773   0.063  3.6077 -0.3735 -0.6767
 3860TIP3   OH211543   3.904   5.672   3.670  0.4241 -0.5924  0.6447
 3860TIP3    H111544   3.979   5.700   3.722  1.5775 -2.5172  0.0808
 3860TIP3    H211545   3.858   5.610   3.726  0.0398 -0.5007  0.4381
 3861TIP3   OH211546   2.953   2.076   4.021  0.4501 -0.9292  0.3949
 3861TIP3    H111547   2.963   2.133   3.945  0.3928 -2.1924 -0.5942
 3861TIP3    H211548   2.868   2.099   4.058 -0.3043 -1.4423 -0.9472
 3862TIP3   OH211549   1.767   3.165   1.012 -0.7512 -0.0005 -0.3134
 3862TIP3    H111550   1.837   3.138   0.953 -0.8324  0.3022 -0.5474
 3862TIP3    H211551   1.811   3.219   1.078 -0.3335 -1.7945  0.9719
 3863TIP3   OH211552   1.978   0.164   5.356  0.2031 -0.0299  0.3584
 3863TIP3    H111553   2.020   0.248   5.334 -0.2286 -0.0509 -0.6065
 3863TIP3    H211554   1.919   0.148   5.283 -2.5939  0.6730  2.3154
 3864TIP3   OH211555   5.735   1.543   1.082  0.0636  0.2587 -0.2704
 3864TIP3    H111556   5.762   1.634   1.074  0.4578  0.4619  2.5111
 3864TIP3    H211557   5.640   1.547   1.095  0.4836  0.7764  4.1109
 3865TIP3   OH211558   2.056   6.085   3.447 -0.8002  0.1396 -0.2931
 3865TIP3    H111559   2.110   6.055   3.521  1.0339 -1.0121 -1.9931
 3865TIP3    H211560   2.118   6.129   3.388 -2.0060  0.1016 -1.6585
 3866TIP3   OH211561   0.098   1.837   0.740  0.6725  0.3105  0.3624
 3866TIP3    H111562   0.172   1.870   0.790  1.4256 -1.4246  0.4687
 3866TIP3    H211563   0.132   1.827   0.651 -0.4800  2.7856 -0.4535
 3867TIP3   OH211564   6.750   3.481   1.868  0.4945  0.5105 -0.0922
 3867TIP3    H111565   6.754   3.575   1.854  0.5813  0.4907 -0.1996
 3867TIP3    H211566   6.768   3.443   1.782  1.2535  0.3892  0.1102
 3868TIP3   OH211567   3.206   1.747   5.863  0.5923  0.0719 -0.3375
 3868TIP3    H111568   3.131   1.799   5.892  1.0370 -0.1009  1.2246
 3868TIP3    H211569   3.168   1.660   5.846  0.7675 -0.8060  3.0771
 3869TIP3   OH211570   2.156   5.724   0.963  0.1537 -0.0273  0.1524
 3869TIP3    H111571   2.175   5.701   1.053 -0.6171 -0.6601  0.1692
 3869TIP3    H211572   2.072   5.682   0.945 -0.0747  0.7300 -0.6180
 3870TIP3   OH211573   5.483   2.879   3.390 -0.3293 -0.3118 -0.2496
 3870TIP3    H111574   5.563   2.919   3.355 -0.3418  1.6547  1.7530
 3870TIP3    H211575   5.512   2.833   3.469 -0.6335 -2.8940 -1.5305
 3871TIP3   OH211576   3.599   6.621   2.527  0.4208 -0.0094  0.0887
 3871TIP3    H111577   3.512   6.651   2.504 -0.2884 -0.3274  2.1232
 3871TIP3    H211578   3.601   6.529   2.501  0.4906  0.2434 -0.8069
 3872TIP3   OH211579   2.726   4.382   2.218 -0.2788 -0.0514 -0.2444
 3872TIP3    H111580   2.726   4.377   2.314  0.7440  1.4390 -0.1347
 3872TIP3    H211581   2.704   4.293   2.189 -0.0844 -0.6533  1.3603
 3873TIP3   OH211582   5.294   1.373   2.459 -0.0715 -0.8701  0.6947
 3873TIP3    H111583   5.388   1.378   2.476  0.4352  1.1485 -1.9479
 3873TIP3    H211584   5.257   1.333   2.537  2.6332  0.8297  3.0233
 3874TIP3   OH211585   5.528   6.559   4.655 -0.0773  0.3930 -0.2350
 3874TIP3    H111586   5.538   6.546   4.749 -0.7472 -2.1253 -0.4423
 3874TIP3    H211587   5.616   6.551   4.620  0.0352  0.2695  0.0706
 3875TIP3   OH211588   4.683   5.628   5.671  0.0506  0.1193  0.3806
 3875TIP3    H111589   4.667   5.723   5.670  1.2585  0.3300 -0.7859
 3875TIP3    H211590   4.721   5.611   5.757 -1.1042  0.5128  0.9909
 3876TIP3   OH211591   0.319   6.376   3.199  0.0432 -0.2243  0.4690
 3876TIP3    H111592   0.289   6.381   3.289  0.7529 -2.0591  0.8534
 3876TIP3    H211593   0.405   6.418   3.200 -0.6408  1.2476  0.2564
 3877TIP3   OH211594   3.504   3.133   2.449  0.3323 -0.4996 -0.0754
 3877TIP3    H111595   3.473   3.052   2.408 -0.3689  0.6947 -2.0223
 3877TIP3    H211596   3.568   3.168   2.388  1.1441  0.1007  1.0788
 3878TIP3   OH211597   3.040   5.512   3.158 -0.4877  0.1009  0.7637
 3878TIP3    H111598   3.111   5.520   3.094  0.3671 -3.2839  1.0588
 3878TIP3    H211599   2.963   5.547   3.113  0.7623  1.0470 -0.7571
 3879TIP3   OH211600   5.469   2.483   3.184 -0.4224 -0.1999  0.2618
 3879TIP3    H111601   5.409   2.555   3.205 -1.6880 -1.5182  1.4086
 3879TIP3    H211602   5.411   2.413   3.153  0.5582 -1.3739  0.9962
 3880TIP3   OH211603   4.283   0.876   0.259  0.1839 -0.0999  0.3954
 3880TIP3    H111604   4.246   0.910   0.177  2.7969  2.5529  0.1500
 3880TIP3    H211605   4.337   0.802   0.232  0.6414  0.4548 -0.2373
 3881TIP3   OH211606   6.188   3.452   5.648 -0.5779 -0.2598  0.2311
 3881TIP3    H111607   6.212   3.504   5.725  0.8145 -0.6059  0.0581
 3881TIP3    H211608   6.120   3.504   5.605  0.8189  1.5214  0.0134
 3882TIP3   OH211609   3.351   2.029   2.345 -0.1346  0.0959 -0.0037
 3882TIP3    H111610   3.333   2.123   2.338 -0.4679  0.0597  0.3195
 3882TIP3    H211611   3.360   1.999   2.254 -2.9061 -0.1027 -0.2926
 3883TIP3   OH211612   1.807   3.158   4.798 -0.3375  0.2116 -0.0353
 3883TIP3    H111613   1.809   3.195   4.887  0.5559  2.1774 -0.8194
 3883TIP3    H211614   1.803   3.064   4.812  0.2689  0.4432  2.1073
 3884TIP3   OH211615   7.006   2.152   1.075  0.4257 -0.3688  0.0837
 3884TIP3    H111616   7.095   2.188   1.081  0.6282 -1.1007  2.2385
 3884TIP3    H211617   6.979   2.139   1.166 -1.7272 -0.5958 -0.5439
 3885TIP3   OH211618   0.394   0.284   2.881 -0.0374 -0.2661  0.5074
 3885TIP3    H111619   0.392   0.297   2.976 -0.4179  0.4631  0.4040
 3885TIP3    H211620   0.307   0.251   2.859 -0.3296  0.6332  0.2720
 3886TIP3   OH211621   6.946   1.648   0.087 -0.1919 -0.0312  1.0630
 3886TIP3    H111622   6.913   1.730   0.050  3.0457 -0.1800 -2.9047
 3886TIP3    H211623   6.872   1.587   0.077 -1.1679  1.2898 -0.4787
 3887TIP3   OH211624   5.172   2.501   1.516 -0.2208  0.1789  0.1131
 3887TIP3    H111625   5.142   2.591   1.506 -0.8677 -0.0646 -0.1600
 3887TIP3    H211626   5.192   2.472   1.427  0.6723  0.2826  0.2717
 3888TIP3   OH211627   7.158   6.072   5.356  0.3622 -0.0755 -0.0156
 3888TIP3    H111628   7.198   6.002   5.305  1.5694 -1.5146  2.6898
 3888TIP3    H211629   7.231   6.122   5.391 -0.4467  1.4198 -0.3798
 3889TIP3   OH211630   2.153   2.807   1.248  0.3382 -0.7597 -0.4047
 3889TIP3    H111631   2.124   2.899   1.247  1.9355 -0.2233 -0.7911
 3889TIP3    H211632   2.190   2.795   1.335  0.0877 -1.0624 -0.3387
 3890TIP3   OH211633   2.430   6.704   0.931 -0.5894  0.2255 -0.0185
 3890TIP3    H111634   2.441   6.624   0.879  0.2226  0.2483  0.1069
 3890TIP3    H211635   2.512   6.751   0.920 -0.7006  0.5958  0.6741
 3891TIP3   OH211636   2.965   5.035   0.027  0.4844  0.1808  0.2172
 3891TIP3    H111637   2.998   4.956  -0.016  1.2527 -1.0014  2.8021
 3891TIP3    H211638   2.870   5.029   0.018  0.5619 -0.6669 -0.2052
 3892TIP3   OH211639   0.258   0.029   0.558 -0.0691 -0.6483 -0.5677
 3892TIP3    H111640   0.237  -0.064   0.553  0.2150 -0.7097 -0.6623
 3892TIP3    H211641   0.194   0.066   0.619 -0.0083 -0.9557 -0.3173
 3893TIP3   OH211642   4.706   6.261   4.928 -0.3836  0.1435  0.4360
 3893TIP3    H111643   4.652   6.249   4.850 -0.2518  0.7013  0.2559
 3893TIP3    H211644   4.795   6.242   4.899 -0.3053  0.5686  0.3953
 3894TIP3   OH211645   6.121   5.684   2.884  0.0303  0.1259 -0.0802
 3894TIP3    H111646   6.148   5.616   2.823 -2.3737  0.2470 -1.4172
 3894TIP3    H211647   6.179   5.758   2.866  1.4259 -0.9127  0.0651
 3895TIP3   OH211648   0.617   3.117   5.668 -0.0117  0.5273 -0.0929
 3895TIP3    H111649   0.559   3.045   5.689  0.5627  0.0386 -0.1636
 3895TIP3    H211650   0.697   3.099   5.717  0.2409  0.9649 -0.3334
 3896TIP3   OH211651   0.605   0.205   3.596  0.1348 -0.0408  0.1522
 3896TIP3    H111652   0.586   0.145   3.524 -0.9456 -0.3389  0.6601
 3896TIP3    H211653   0.580   0.157   3.675  0.5285  0.5792  0.6715
 3897TIP3   OH211654   1.685   2.698   4.660 -0.3399  0.2142  0.2306
 3897TIP3    H111655   1.697   2.681   4.567 -0.2629  1.3513  0.0190
 3897TIP3    H211656   1.691   2.612   4.701 -0.8493 -0.3665 -0.8591
 3898TIP3   OH211657   0.172   5.598   4.951  0.5787  0.1603  0.5657
 3898TIP3    H111658   0.138   5.532   4.891 -0.4812  0.7540  0.4835
 3898TIP3    H211659   0.240   5.553   5.000  1.6509 -0.2664 -1.2332
 3899TIP3   OH211660   6.809   4.272   0.542 -0.2790 -0.9771  0.0304
 3899TIP3    H111661   6.847   4.204   0.487  1.5211  0.2333 -0.2985
 3899TIP3    H211662   6.881   4.333   0.558 -1.1087 -0.5369  2.5530
 3900TIP3   OH211663   6.747   6.481   0.439 -0.1687  0.8102  0.4009
 3900TIP3    H111664   6.812   6.483   0.370 -0.4189  4.5442  0.0253
 3900TIP3    H211665   6.798   6.489   0.520  0.0068  2.8116  0.1590
 3901TIP3   OH211666   1.509   3.727   5.651  0.1109 -0.4001  0.2115
 3901TIP3    H111667   1.414   3.725   5.642  0.0435  1.7499 -0.2640
 3901TIP3    H211668   1.538   3.783   5.579  1.6976 -0.6743  0.5997
 3902TIP3   OH211669   0.594   4.690   4.571  0.9064  0.4783 -0.6073
 3902TIP3    H111670   0.536   4.748   4.620  1.8327  1.9597 -1.2101
 3902TIP3    H211671   0.677   4.693   4.619  0.9132 -0.5425 -0.5248
 3903TIP3   OH211672   0.628   4.442   4.791 -0.2868  0.0633 -0.3958
 3903TIP3    H111673   0.599   4.477   4.875  1.4013 -0.3526  0.3991
 3903TIP3    H211674   0.680   4.513   4.752  0.3774 -0.3449 -0.2787
 3904TIP3   OH211675   5.045   5.547   2.418 -0.0329  0.3311 -0.0355
 3904TIP3    H111676   4.999   5.466   2.442  0.2405 -0.5388 -2.1985
 3904TIP3    H211677   5.078   5.530   2.330  0.6720  2.5575 -0.2550
 3905TIP3   OH211678   5.549   0.594   4.803 -0.3607 -0.2092  0.1398
 3905TIP3    H111679   5.537   0.512   4.756  1.3938 -1.0613  1.0880
 3905TIP3    H211680   5.463   0.635   4.802 -0.6743 -0.7165 -2.7517
 3906TIP3   OH211681   0.335   2.331   2.735 -0.2229  0.2982 -0.0530
 3906TIP3    H111682   0.382   2.411   2.711  0.6962 -0.4179 -0.6707
 3906TIP3    H211683   0.401   2.262   2.732 -0.8757 -0.4102  1.0363
 3907TIP3   OH211684   5.595   0.008   5.059 -0.5870 -0.0992  0.4184
 3907TIP3    H111685   5.678   0.011   5.013  0.0970 -2.0756  1.4363
 3907TIP3    H211686   5.531  -0.018   4.993 -0.2642  0.5362 -0.1573
 3908TIP3   OH211687   5.722   0.668   0.600 -0.1965 -0.4937 -0.0591
 3908TIP3    H111688   5.706   0.736   0.665  3.1776  0.7551 -0.3547
 3908TIP3    H211689   5.722   0.586   0.650 -2.3146 -0.1388  0.6281
 3909TIP3   OH211690   7.131   0.200   4.463  0.1720  0.4034 -0.0729
 3909TIP3    H111691   7.201   0.156   4.510 -1.5385  0.4335  2.7425
 3909TIP3    H211692   7.176   0.259   4.403  2.5069 -1.1589  0.0070
 3910TIP3   OH211693   5.864   6.464   3.424  0.1155  0.1888 -0.1771
 3910TIP3    H111694   5.776   6.459   3.388  0.2256 -0.6500 -0.3501
 3910TIP3    H211695   5.851   6.465   3.519 -0.1669  2.2721 -0.1941
 3911TIP3   OH211696   3.582   2.738   0.650  0.8844 -0.1722 -0.3083
 3911TIP3    H111697   3.607   2.813   0.597 -1.6453  0.2968 -0.9643
 3911TIP3    H211698   3.617   2.757   0.737  0.1409  1.8705 -0.4050
 3912TIP3   OH211699   2.571   3.663   5.695  0.6128  0.1142 -0.1254
 3912TIP3    H111700   2.599   3.743   5.741 -0.8789  0.0026  1.0069
 3912TIP3    H211701   2.579   3.594   5.760  0.7678 -0.4727 -0.7638
 3913TIP3   OH211702   1.473   0.284   0.444  0.2042  0.3756  0.2009
 3913TIP3    H111703   1.562   0.312   0.425  0.2115 -0.1829 -0.5971
 3913TIP3    H211704   1.419   0.327   0.378  0.0266 -0.2216 -0.0505
 3914TIP3   OH211705   3.954   5.009   4.252  0.1869  0.1251 -0.2573
 3914TIP3    H111706   3.959   5.071   4.325  1.0180 -0.3175  0.0819
 3914TIP3    H211707   3.886   5.044   4.195 -1.0362  0.0669  1.1055
 3915TIP3   OH211708   6.926   2.222   0.006 -0.1399 -0.2510 -0.0823
 3915TIP3    H111709   7.003   2.270  -0.025 -0.3256 -0.6031 -1.1275
 3915TIP3    H211710   6.950   2.193   0.094  0.2934  1.0359  0.2531
 3916TIP3   OH211711   1.999   0.661   0.100 -0.1331  0.1372  0.1462
 3916TIP3    H111712   1.960   0.745   0.124  1.5603  1.5168 -1.5666
 3916TIP3    H211713   1.925   0.602   0.088 -1.3458  1.2495  1.8263
 3917TIP3   OH211714   3.602   2.214   2.610  0.3753 -0.1512  0.0206
 3917TIP3    H111715   3.588   2.272   2.685 -0.0806  0.0526 -0.2168
 3917TIP3    H211716   3.667   2.259   2.556 -0.5373  0.5103 -0.5426
 3918TIP3   OH211717   4.013   2.316   2.076 -0.2667  0.2888  0.3950
 3918TIP3    H111718   3.921   2.292   2.067  0.2766 -2.0217  0.4188
 3918TIP3    H211719   4.043   2.334   1.987  0.0505 -2.3894 -0.1229
 3919TIP3   OH211720   5.845   3.336   0.992  0.0708 -0.4691  0.4623
 3919TIP3    H111721   5.759   3.355   1.030 -0.5299 -2.2168  0.0379
 3919TIP3    H211722   5.829   3.330   0.898  1.0786  1.2859  0.1356
 3920TIP3   OH211723   4.168   3.082   0.859  0.1103 -0.0509 -0.5388
 3920TIP3    H111724   4.102   3.036   0.911 -2.0035  1.0414 -2.0830
 3920TIP3    H211725   4.185   3.022   0.785  1.3885 -0.6034  0.1685
 3921TIP3   OH211726   2.830   1.181   5.548  0.2436  0.1833  0.0761
 3921TIP3    H111727   2.883   1.195   5.627  3.3222 -2.8226 -1.1817
 3921TIP3    H211728   2.864   1.243   5.485  1.7695 -1.0874 -0.4295
 3922TIP3   OH211729   2.171   3.683   0.256  0.3275 -0.0692  0.4921
 3922TIP3    H111730   2.098   3.626   0.230 -0.9273  1.0935  1.2913
 3922TIP3    H211731   2.234   3.624   0.297 -1.2875 -0.8106  2.0393
 3923TIP3   OH211732   0.028   4.691   2.440  0.5509  0.4467  0.4703
 3923TIP3    H111733  -0.039   4.681   2.373  0.1701  0.4246  0.8531
 3923TIP3    H211734   0.104   4.644   2.406  0.8766  1.7077 -0.6483
 3924TIP3   OH211735   5.323   6.541   3.349  0.0746 -0.2088  0.4418
 3924TIP3    H111736   5.304   6.490   3.270  0.1688 -0.0721  0.3320
 3924TIP3    H211737   5.289   6.628   3.330  1.0344  0.1129  0.1495
 3925TIP3   OH211738   1.817   1.883   2.162  0.0089  0.0192  0.3247
 3925TIP3    H111739   1.861   1.827   2.098 -1.5700 -0.7255 -0.1715
 3925TIP3    H211740   1.772   1.821   2.220 -0.7609  0.7374  0.5093
 3926TIP3   OH211741   7.065   5.215   0.893  0.1627 -0.1557 -0.4515
 3926TIP3    H111742   7.137   5.160   0.923  1.6317  0.9987 -1.6953
 3926TIP3    H211743   7.078   5.224   0.799 -1.2821  0.5532 -0.6231
 3927TIP3   OH211744   3.841   6.719   1.060  0.2816 -0.5384  0.6162
 3927TIP3    H111745   3.859   6.660   0.986 -1.8164 -1.4480  0.7784
 3927TIP3    H211746   3.869   6.805   1.028  0.1740 -1.0452 -0.9338
 3928TIP3   OH211747   1.401   3.170   2.896 -0.7340  0.1883 -0.1308
 3928TIP3    H111748   1.417   3.127   2.812 -1.8188 -1.2980  0.3733
 3928TIP3    H211749   1.375   3.259   2.873  1.7386  0.7302 -1.2064
 3929TIP3   OH211750   1.245   0.909   1.163  0.0886  0.0617  0.2199
 3929TIP3    H111751   1.241   0.834   1.103  0.2970  0.1019  0.1533
 3929TIP3    H211752   1.317   0.888   1.222 -0.2285 -0.0557  0.5654
 3930TIP3   OH211753   4.667   4.709   5.620  0.1591 -0.1710  0.1588
 3930TIP3    H111754   4.679   4.614   5.615  0.8851 -0.0824  0.0159
 3930TIP3    H211755   4.592   4.721   5.677  0.4218 -0.8164  0.6601
 3931TIP3   OH211756   6.449   5.174   3.339 -0.3481 -0.0502 -0.1015
 3931TIP3    H111757   6.359   5.175   3.306 -1.4101 -1.3864  2.4571
 3931TIP3    H211758   6.439   5.180   3.434  2.4599  3.8689  0.2124
 3932TIP3   OH211759   3.141   3.933   2.233  0.2336  0.3517  0.1205
 3932TIP3    H111760   3.132   3.918   2.327 -0.0622  1.6503  0.3146
 3932TIP3    H211761   3.217   3.880   2.207 -0.5613 -1.1697  0.7910
 3933TIP3   OH211762   5.805   4.206   3.597 -0.1333 -0.5130 -0.3179
 3933TIP3    H111763   5.847   4.169   3.674  1.1724  0.5864 -0.4499
 3933TIP3    H211764   5.796   4.299   3.618 -1.5476 -0.5391 -0.7361
 3934TIP3   OH211765   5.709   5.270   5.099 -0.4887 -0.1156  0.0600
 3934TIP3    H111766   5.681   5.183   5.129  1.1177  0.1151  2.5394
 3934TIP3    H211767   5.627   5.320   5.092 -1.3527 -1.5609 -0.5883
 3935TIP3   OH211768   6.979   2.566   5.010 -0.2850  0.1057 -0.3662
 3935TIP3    H111769   7.010   2.589   4.923 -0.1447 -0.6349 -0.5174
 3935TIP3    H211770   6.889   2.536   4.996 -1.5623  3.2579  0.1990
 3936TIP3   OH211771   4.115   3.256   0.257  0.2362  0.1953 -0.1789
 3936TIP3    H111772   4.036   3.222   0.217  1.0343 -1.9975 -0.0625
 3936TIP3    H211773   4.099   3.250   0.351 -0.3229  2.0488 -0.1147
 3937TIP3   OH211774   7.030   0.881   5.204 -0.7482  0.3889  0.2662
 3937TIP3    H111775   6.948   0.914   5.241  0.2197  1.6001  1.4581
 3937TIP3    H211776   7.008   0.857   5.114 -1.8269  3.2399 -0.3357
 3938TIP3   OH211777   5.421   2.750   0.858  0.6435 -0.2217  0.2915
 3938TIP3    H111778   5.510   2.779   0.878  0.3408  1.1280 -0.2086
 3938TIP3    H211779   5.433   2.666   0.813  1.7291  0.4136 -0.6628
 3939TIP3   OH211780   6.269   1.459   5.677 -0.6937 -0.1829  0.0902
 3939TIP3    H111781   6.355   1.457   5.719 -0.9715 -1.1009  0.6548
 3939TIP3    H211782   6.284   1.425   5.589 -0.5976 -1.0905  0.4463
 3940TIP3   OH211783   6.928   0.845   2.373  0.1562 -0.6033  0.2819
 3940TIP3    H111784   6.849   0.791   2.366  0.5115 -1.0346 -0.5135
 3940TIP3    H211785   7.000   0.785   2.351  0.6490 -0.0531  0.3716
 3941TIP3   OH211786   5.919   1.480   4.651  0.3809  0.5033 -0.0139
 3941TIP3    H111787   5.840   1.452   4.605  0.2311 -0.7043  0.9450
 3941TIP3    H211788   5.893   1.483   4.743  2.1279 -2.5328  0.6806
 3942TIP3   OH211789   1.341   4.601   2.311  0.5633 -0.1392  0.2995
 3942TIP3    H111790   1.410   4.657   2.276  0.4445 -0.2214 -0.0695
 3942TIP3    H211791   1.272   4.662   2.339  0.2859 -0.1114 -0.4243
 3943TIP3   OH211792   1.434   4.235   5.810 -0.2950 -0.1800 -0.3873
 3943TIP3    H111793   1.513   4.281   5.840  0.1205 -1.2580  0.2514
 3943TIP3    H211794   1.380   4.303   5.769  0.5824  0.7357 -0.0643
 3944TIP3   OH211795   3.291   5.800   3.937 -0.3121  0.1715  0.1798
 3944TIP3    H111796   3.270   5.730   3.999 -0.5511 -1.6033 -1.7847
 3944TIP3    H211797   3.378   5.830   3.965 -0.3481 -0.6725  1.2943
 3945TIP3   OH211798   6.788   3.157   0.505 -0.1510 -0.2196  0.2534
 3945TIP3    H111799   6.816   3.242   0.471  1.7793 -0.2768  1.5638
 3945TIP3    H211800   6.710   3.178   0.557  0.1223  0.7070  0.3201
 3946TIP3   OH211801   4.516   0.764   1.909 -0.0172 -0.0907 -0.2921
 3946TIP3    H111802   4.453   0.775   1.980  0.8046 -1.1174  0.6470
 3946TIP3    H211803   4.470   0.709   1.845 -0.4890  0.1804 -0.1922
 3947TIP3   OH211804   5.649   1.651   1.386  0.2260  0.4049  0.4285
 3947TIP3    H111805   5.667   1.560   1.412  0.8853  0.5024  0.3307
 3947TIP3    H211806   5.735   1.690   1.376 -0.0589  1.0668  0.5336
 3948TIP3   OH211807   6.126   1.505   1.769  0.6562 -0.5999 -0.3978
 3948TIP3    H111808   6.079   1.578   1.809  1.7448  1.8932 -3.2697
 3948TIP3    H211809   6.115   1.433   1.831 -0.2066  2.0332  2.8139
 3949TIP3   OH211810   5.791   1.037   1.112  0.5943  0.1453  0.3928
 3949TIP3    H111811   5.711   0.991   1.140  0.8437  0.5402  1.8391
 3949TIP3    H211812   5.862   0.977   1.134  0.7224 -0.2264 -0.9390
 3950TIP3   OH211813   3.107   4.807   4.479 -0.0003 -0.1437 -0.2667
 3950TIP3    H111814   3.178   4.744   4.492  0.5431  0.3553 -0.8006
 3950TIP3    H211815   3.103   4.820   4.384 -1.3225 -0.7578 -0.3183
 3951TIP3   OH211816   2.485   1.778   1.033 -0.3187 -0.2544  0.0498
 3951TIP3    H111817   2.461   1.685   1.028 -2.3500  0.1348  1.3249
 3951TIP3    H211818   2.572   1.782   0.994 -0.7888 -2.4419 -1.4654
 3952TIP3   OH211819   0.154   4.802   3.683 -0.1073 -0.2459  0.0885
 3952TIP3    H111820   0.184   4.747   3.610 -1.8111 -0.2205 -0.6725
 3952TIP3    H211821   0.108   4.742   3.741 -2.3057  0.3573 -0.9314
 3953TIP3   OH211822   3.455   6.613   5.750 -0.0851 -0.4286  0.1810
 3953TIP3    H111823   3.531   6.582   5.799 -0.8113  0.7439  2.1837
 3953TIP3    H211824   3.384   6.554   5.775 -0.5220  0.3311  0.7948
 3954TIP3   OH211825   1.698   0.834   3.322 -0.0276  0.2566  0.0117
 3954TIP3    H111826   1.749   0.912   3.344  0.0079  0.9521 -2.2321
 3954TIP3    H211827   1.617   0.843   3.373  0.4149  1.2177  0.5778
 3955TIP3   OH211828   2.206   5.970   4.052 -0.7270  0.4814 -0.0062
 3955TIP3    H111829   2.231   5.971   4.145 -2.3417 -1.5042  0.5488
 3955TIP3    H211830   2.138   6.037   4.045 -0.9242  0.3242  0.3688
 3956TIP3   OH211831   1.600   6.212   3.528  0.2181 -0.2211 -0.1925
 3956TIP3    H111832   1.566   6.215   3.439  1.6319 -0.6341 -0.7753
 3956TIP3    H211833   1.695   6.214   3.518  0.4362 -1.1799  1.2500
 3957TIP3   OH211834   0.865   4.034   2.861  0.0138  0.9620  0.0941
 3957TIP3    H111835   0.899   4.003   2.945 -0.5426  0.3279  0.0908
 3957TIP3    H211836   0.900   4.122   2.852 -0.1535  1.1436  1.1249
 3958TIP3   OH211837   3.292   2.210   0.339  0.5065  0.2127 -0.4877
 3958TIP3    H111838   3.339   2.283   0.299  1.7416 -0.7534 -0.8832
 3958TIP3    H211839   3.345   2.133   0.318 -0.7313 -0.8001 -0.0536
 3959TIP3   OH211840   7.128   6.370   4.605  0.1088 -0.0639  0.4094
 3959TIP3    H111841   7.219   6.354   4.632  0.1785 -0.5163 -0.0709
 3959TIP3    H211842   7.083   6.288   4.624  0.0686 -0.2479 -0.4416
 3960TIP3   OH211843   6.999   1.324   2.423 -0.1151 -0.3570 -0.3081
 3960TIP3    H111844   7.069   1.389   2.412  0.8449 -1.5534 -1.5993
 3960TIP3    H211845   7.043   1.240   2.410 -1.8921 -1.1156 -1.7883
 3961TIP3   OH211846   6.258   0.629   3.161 -0.0747  0.9750  0.5272
 3961TIP3    H111847   6.227   0.567   3.096  1.7421 -1.0751  1.5156
 3961TIP3    H211848   6.251   0.583   3.244 -0.0062  2.6336  1.5027
 3962TIP3   OH211849   1.673   2.484   1.818  0.1825 -0.2186 -0.2042
 3962TIP3    H111850   1.623   2.433   1.882 -0.1490  0.0641 -0.2352
 3962TIP3    H211851   1.608   2.542   1.778  0.7110  0.9258  0.5174
 3963TIP3   OH211852   4.268   6.033   1.786 -0.4732 -0.3485 -0.0617
 3963TIP3    H111853   4.307   6.018   1.872 -1.4182  1.4227  0.7413
 3963TIP3    H211854   4.283   5.952   1.738 -2.0501 -2.3418  2.5797
 3964TIP3   OH211855   6.339   3.649   3.017 -0.5873  0.0650 -0.2190
 3964TIP3    H111856   6.416   3.648   3.074  0.0826  1.6757 -1.0294
 3964TIP3    H211857   6.326   3.557   2.993  0.4615 -0.3599  0.7473
 3965TIP3   OH211858   4.674   0.974   3.332 -0.4612  0.2937 -0.5742
 3965TIP3    H111859   4.641   0.936   3.250 -1.4609 -0.8442  0.3330
 3965TIP3    H211860   4.705   1.061   3.306 -1.9084  0.4542 -1.9454
 3966TIP3   OH211861   0.498   3.256   4.559  0.0141 -0.1666  0.6113
 3966TIP3    H111862   0.578   3.305   4.577  0.8238 -1.1033 -0.3201
 3966TIP3    H211863   0.453   3.308   4.492 -0.7628  0.9691  1.9803
 3967TIP3   OH211864   5.972   3.683   5.705 -0.7653 -0.0501 -0.2160
 3967TIP3    H111865   6.046   3.713   5.653 -1.6359  0.1282 -1.3769
 3967TIP3    H211866   5.947   3.760   5.757  0.0685 -0.2134  0.4400
 3968TIP3   OH211867   3.647   2.403   3.588  0.1774 -0.3959 -0.1312
 3968TIP3    H111868   3.665   2.310   3.602 -0.5529 -0.7416 -1.3677
 3968TIP3    H211869   3.683   2.446   3.665  1.5106 -1.5904 -0.0398
 3969TIP3   OH211870   3.841   5.810   0.649 -0.0728 -0.0582 -0.4055
 3969TIP3    H111871   3.920   5.850   0.613  1.3926 -3.1102 -0.8496
 3969TIP3    H211872   3.842   5.835   0.742  1.3721  0.0422 -0.4238
 3970TIP3   OH211873   5.013   2.559   5.733  0.2366 -0.4357 -0.0407
 3970TIP3    H111874   5.105   2.584   5.725  0.5609 -1.6049 -0.1222
 3970TIP3    H211875   4.967   2.641   5.752  1.2693  0.1838 -0.1703
 3971TIP3   OH211876   1.353   3.157   1.894 -0.4083 -0.3923  0.0644
 3971TIP3    H111877   1.265   3.162   1.932 -0.0322  0.3225  0.8799
 3971TIP3    H211878   1.369   3.246   1.861  0.3485 -0.2776  0.7156
 3972TIP3   OH211879   3.190   3.166   1.868  0.5413  0.2006  0.5407
 3972TIP3    H111880   3.151   3.235   1.814 -0.7444 -0.4171  0.6406
 3972TIP3    H211881   3.243   3.116   1.807  0.0953  0.2551  0.0950
 3973TIP3   OH211882   0.405   5.490   5.074  0.0146 -0.3980 -0.1249
 3973TIP3    H111883   0.370   5.403   5.094  1.4696 -0.8701  0.5115
 3973TIP3    H211884   0.451   5.515   5.154  2.8996 -0.7351 -1.5616
 3974TIP3   OH211885   0.628   0.972   4.364  0.4283 -0.0790 -0.7422
 3974TIP3    H111886   0.635   0.896   4.306 -1.0362 -0.7272 -0.1272
 3974TIP3    H211887   0.650   0.938   4.451 -1.9383 -0.2703 -0.1607
 3975TIP3   OH211888   1.699   0.519   3.936 -0.2476 -0.0084  0.2586
 3975TIP3    H111889   1.699   0.614   3.951 -2.0175  0.5329 -2.5519
 3975TIP3    H211890   1.775   0.504   3.880 -0.5754 -0.0853 -0.1653
 3976TIP3   OH211891   2.998   5.773   4.071 -0.3168 -0.1826  0.0740
 3976TIP3    H111892   2.908   5.747   4.053 -1.0088  1.3467  1.1327
 3976TIP3    H211893   2.991   5.859   4.114  1.5328 -0.7546  1.7038
 3977TIP3   OH211894   5.898   4.560   2.442 -0.1266  0.6930 -0.2906
 3977TIP3    H111895   5.862   4.557   2.531 -1.4724 -0.3568 -0.8275
 3977TIP3    H211896   5.888   4.652   2.416  1.4309  1.2848  1.0561
 3978TIP3   OH211897   3.681   5.279   1.363  0.2390 -0.0005  0.0750
 3978TIP3    H111898   3.611   5.216   1.344  0.4007  0.0468 -0.7136
 3978TIP3    H211899   3.636   5.363   1.370  0.3560  0.2685 -1.8844
 3979TIP3   OH211900   3.428   4.032   3.990 -0.2533 -0.3422 -0.2404
 3979TIP3    H111901   3.469   3.956   4.033  0.3424  0.7240  1.1604
 3979TIP3    H211902   3.338   4.004   3.972 -0.9613 -0.4509  2.9380
 3980TIP3   OH211903   6.813   0.367   3.661 -0.1213  0.2272  0.1124
 3980TIP3    H111904   6.798   0.275   3.638  1.8086  0.0066 -0.4372
 3980TIP3    H211905   6.770   0.377   3.746 -1.5152 -0.7909 -0.4172
 3981TIP3   OH211906   6.332   1.653   4.752 -0.2156  0.5328  0.2169
 3981TIP3    H111907   6.298   1.730   4.707  1.2799  2.1691  1.7447
 3981TIP3    H211908   6.404   1.622   4.696 -0.3644  0.6500 -0.0412
 3982TIP3   OH211909   2.989   4.319   2.404  0.5370 -0.3872  0.8856
 3982TIP3    H111910   3.030   4.258   2.466 -0.1745  0.5101  2.3139
 3982TIP3    H211911   2.930   4.265   2.352  0.8518 -1.1109  1.2661
 3983TIP3   OH211912   4.617   2.399   0.159  0.0325 -1.1276 -0.1064
 3983TIP3    H111913   4.586   2.490   0.158 -1.7061 -1.6545 -1.9863
 3983TIP3    H211914   4.710   2.405   0.138  0.3095  0.2920  1.3485
 3984TIP3   OH211915   6.023   3.848   3.103  0.3580 -0.3438  0.1541
 3984TIP3    H111916   6.053   3.931   3.065 -0.2861  0.1740  0.7270
 3984TIP3    H211917   6.002   3.793   3.028 -1.0792  0.7263 -0.2910
 3985TIP3   OH211918   4.670   1.124   3.082  0.1869  0.4201 -0.2270
 3985TIP3    H111919   4.650   1.211   3.046  2.7085  0.4259 -1.8818
 3985TIP3    H211920   4.587   1.077   3.078 -0.9302  2.3007 -0.6154
 3986TIP3   OH211921   2.681   4.044   5.680  0.2983  0.0349 -0.0067
 3986TIP3    H111922   2.712   4.126   5.642  2.1564 -0.4761  0.3054
 3986TIP3    H211923   2.590   4.036   5.651  0.5995  1.3721 -1.4019
 3987TIP3   OH211924   3.840   0.755   4.820 -0.1348  0.1506  0.2313
 3987TIP3    H111925   3.843   0.693   4.893 -2.5567 -0.6550 -0.2584
 3987TIP3    H211926   3.815   0.838   4.860 -0.4008 -0.0299  0.4374
 3988TIP3   OH211927   5.551   3.117   1.946  0.3068  0.1246 -0.3205
 3988TIP3    H111928   5.533   3.190   2.006  3.0708 -1.1720  2.3352
 3988TIP3    H211929   5.557   3.040   2.003 -0.4700 -1.8868 -2.7740
 3989TIP3   OH211930   5.780   6.757   5.278  0.1460  0.9178  0.1606
 3989TIP3    H111931   5.787   6.828   5.342  3.0523 -0.3252  1.4408
 3989TIP3    H211932   5.702   6.708   5.304 -0.3765  2.1141  0.9033
 3990TIP3   OH211933   1.406   4.462   3.340  0.5064 -0.0076 -0.2135
 3990TIP3    H111934   1.359   4.428   3.263 -0.5152 -0.2222  0.4912
 3990TIP3    H211935   1.498   4.457   3.315  0.3716 -2.3917 -0.5247
 3991TIP3   OH211936   6.025   0.738   4.537 -0.1766  0.6505  0.1602
 3991TIP3    H111937   6.052   0.663   4.484 -2.3059  0.1889 -0.3627
 3991TIP3    H211938   6.080   0.810   4.506 -0.6593  0.1674 -2.0066
 3992TIP3   OH211939   0.587   3.193   0.775  0.5543  0.5228 -0.0021
 3992TIP3    H111940   0.678   3.166   0.760  0.1456 -0.8816 -0.1265
 3992TIP3    H211941   0.538   3.153   0.703 -0.2526  0.7292  0.4206
 3993TIP3   OH211942   3.362   6.077   3.592 -0.2248  0.5561 -0.8702
 3993TIP3    H111943   3.297   6.023   3.637 -0.6814  1.4393 -0.4503
 3993TIP3    H211944   3.339   6.069   3.499  0.1715 -0.5480 -0.8945
 3994TIP3   OH211945   5.873   2.722   4.514  0.3843  0.2394  0.0273
 3994TIP3    H111946   5.799   2.668   4.542 -0.6489  0.7053 -1.6761
 3994TIP3    H211947   5.847   2.811   4.538  1.6280  0.1586  1.8862
 3995TIP3   OH211948   0.502   0.096   1.351 -0.1749  0.2646 -0.1720
 3995TIP3    H111949   0.574   0.063   1.404  0.9443 -0.8897 -2.2786
 3995TIP3    H211950   0.424   0.054   1.386  0.7346 -1.6772 -0.3610
 3996TIP3   OH211951   0.344   4.968   4.619 -0.1975 -0.5383  0.1123
 3996TIP3    H111952   0.384   4.940   4.537 -0.5752  0.9449 -0.6277
 3996TIP3    H211953   0.366   4.900   4.682  0.3953 -1.5388 -1.1380
 3997TIP3   OH211954   5.950   6.293   0.325 -0.1982  0.1047  0.3833
 3997TIP3    H111955   5.870   6.344   0.339 -0.5598 -0.3361 -0.0233
 3997TIP3    H211956   6.011   6.325   0.391 -0.4071  1.0863  0.1176
 3998TIP3   OH211957   2.196   6.493   2.864  0.0684 -0.5644  0.1429
 3998TIP3    H111958   2.160   6.419   2.816  0.3403 -1.3940  1.1804
 3998TIP3    H211959   2.136   6.505   2.939 -0.7535  1.1474 -0.7119
 3999TIP3   OH211960   2.202   0.390   5.321  0.6901 -0.6607 -0.4918
 3999TIP3    H111961   2.214   0.470   5.372 -1.2307 -0.7450  0.1774
 3999TIP3    H211962   2.208   0.419   5.230 -1.7259  0.6590 -0.3266
 4000TIP3   OH211963   3.949   2.915   5.632 -0.2287  0.2353  0.2802
 4000TIP3    H111964   3.918   3.006   5.637  2.0930  1.0993  0.2925
 4000TIP3    H211965   3.906   2.871   5.705 -1.3136  1.3501  0.3401
 4001TIP3   OH211966   6.763   5.859   4.446  0.1223 -0.3783  0.5217
 4001TIP3    H111967   6.798   5.836   4.360 -0.4370  1.5717 -0.2985
 4001TIP3    H211968   6.676   5.820   4.448 -0.2416  0.3688 -0.2161
 4002TIP3   OH211969   0.210   5.505   3.098 -0.4736  0.4828 -0.0274
 4002TIP3    H111970   0.253   5.552   3.169  0.2988 -0.8848  0.4540
 4002TIP3    H211971   0.236   5.551   3.018 -1.6087  2.2394  0.5438
 4003TIP3   OH211972   1.402   2.902   2.016  0.6177  0.2578  0.5721
 4003TIP3    H111973   1.496   2.882   2.013  0.6646  0.1318  2.1587
 4003TIP3    H211974   1.392   2.977   1.957  1.6021 -0.1083 -0.0968
 4004TIP3   OH211975   6.262   2.665   5.470  0.2315 -0.0365  0.1084
 4004TIP3    H111976   6.339   2.700   5.424  0.7185 -1.3866 -0.1549
 4004TIP3    H211977   6.289   2.662   5.562 -0.5190  2.0759  0.4374
 4005TIP3   OH211978   1.064   1.277   2.205  0.2484 -0.1482 -0.4115
 4005TIP3    H111979   0.992   1.242   2.257 -0.9181  2.0155 -0.4783
 4005TIP3    H211980   1.091   1.356   2.251  0.3430  0.8802 -2.1599
 4006TIP3   OH211981   0.395   2.656   0.102 -0.1793  0.0066  0.6926
 4006TIP3    H111982   0.462   2.613   0.155  2.4001  2.8121 -0.0185
 4006TIP3    H211983   0.375   2.737   0.149 -1.4364  0.2762 -0.2508
 4007TIP3   OH211984   4.083   1.843   1.147  0.3200 -0.4096 -0.3533
 4007TIP3    H111985   4.173   1.863   1.174  0.6276  0.9183 -2.1766
 4007TIP3    H211986   4.088   1.836   1.052 -1.2756 -1.7243 -0.3645
 4008TIP3   OH211987   0.222   6.467   1.519 -0.3974  0.3749 -0.2314
 4008TIP3    H111988   0.276   6.534   1.476 -2.2086  3.1307  1.4871
 4008TIP3    H211989   0.147   6.515   1.554 -0.9397 -2.2902  2.7002
 4009TIP3   OH211990   4.621   1.115   1.995  0.0156  0.5457 -0.2250
 4009TIP3    H111991   4.674   1.039   1.971 -1.1449  0.2352 -1.9959
 4009TIP3    H211992   4.560   1.082   2.062 -0.8117 -0.2699 -1.3294
 4010TIP3   OH211993   4.025   4.666   0.385  0.0309  0.0440 -0.1198
 4010TIP3    H111994   3.947   4.679   0.331 -0.8736 -2.5801  0.4044
 4010TIP3    H211995   4.083   4.739   0.361 -1.9874  1.2952 -1.5453
 4011TIP3   OH211996   2.739   1.375   1.213  0.5159  0.4661  0.5701
 4011TIP3    H111997   2.645   1.360   1.198  0.5967 -0.2652  0.7619
 4011TIP3    H211998   2.742   1.445   1.277  0.0685 -0.2174  1.3600
 4012TIP3   OH211999   3.363   5.523   4.600  0.1833  0.3945 -0.3506
 4012TIP3    H112000   3.349   5.521   4.695 -1.3493 -1.0746 -0.5589
 4012TIP3    H212001   3.401   5.438   4.579  0.1774  0.5694 -1.0945
 4013TIP3   OH212002   4.093   2.705   5.261 -0.1606 -0.2327  0.1329
 4013TIP3    H112003   4.022   2.718   5.198  0.1551  0.7291 -0.0352
 4013TIP3    H212004   4.106   2.610   5.262  1.8947 -0.1750 -3.5840
 4014TIP3   OH212005   3.404   5.730   2.075  0.4137 -0.4024  0.0877
 4014TIP3    H112006   3.474   5.692   2.127  0.4536 -0.0184  0.3201
 4014TIP3    H212007   3.323   5.700   2.118  0.4476  0.4954  0.8178
 4015TIP3   OH212008   7.182   1.532   2.316  0.4036 -0.0231  0.1489
 4015TIP3    H112009   7.253   1.573   2.267  0.0286  2.0819  1.2478
 4015TIP3    H212010   7.106   1.537   2.257  0.1069  1.9340  0.6142
 4016TIP3   OH212011   4.900   1.353   2.748 -0.0355 -0.1174 -0.1659
 4016TIP3    H112012   4.992   1.365   2.725 -0.3780  2.2686 -0.6016
 4016TIP3    H212013   4.885   1.259   2.742  1.9907 -0.4079 -1.5595
 4017TIP3   OH212014   4.541   1.748   3.956  0.3149  0.3222 -0.8312
 4017TIP3    H112015   4.568   1.821   3.899  0.7695  0.8603  0.0562
 4017TIP3    H212016   4.446   1.747   3.950  0.3539  0.3779 -1.5880
 4018TIP3   OH212017   2.143   4.189   4.675 -0.4783 -0.7904  0.6377
 4018TIP3    H112018   2.113   4.215   4.588  0.0149  0.3534  0.7824
 4018TIP3    H212019   2.232   4.156   4.661  0.0330  0.4474  0.8284
 4019TIP3   OH212020   6.224   2.533   2.557  0.0119  0.2325 -0.5987
 4019TIP3    H112021   6.192   2.605   2.502 -0.0986  0.9530  0.3833
 4019TIP3    H212022   6.149   2.473   2.562 -1.0437  1.6045  1.1647
 4020TIP3   OH212023   5.381   4.697   1.182 -0.1283  0.1767  0.8590
 4020TIP3    H112024   5.340   4.757   1.120  1.5444 -0.6894 -1.2331
 4020TIP3    H212025   5.459   4.744   1.212  0.2984 -0.2879  0.4956
 4021TIP3   OH212026   5.924   6.621   0.615  0.3570  0.7665 -0.3956
 4021TIP3    H112027   5.988   6.611   0.544 -0.4064 -0.5746 -0.9490
 4021TIP3    H212028   5.844   6.583   0.579  0.4143 -1.7607  1.8089
 4022TIP3   OH212029   2.310   6.237   0.857 -0.3513 -0.2728 -0.1195
 4022TIP3    H112030   2.220   6.270   0.860 -0.9055 -1.6073 -1.3742
 4022TIP3    H212031   2.302   6.146   0.831  1.4180 -0.2519 -0.8956
 4023TIP3   OH212032   3.377   2.315   5.172  0.5987 -0.9680 -0.0679
 4023TIP3    H112033   3.311   2.383   5.154  0.3437 -0.5525  2.1284
 4023TIP3    H212034   3.438   2.320   5.098  0.4348  1.4815 -0.1121
 4024TIP3   OH212035   0.134   6.472   0.730  0.3647 -0.1510  0.2823
 4024TIP3    H112036   0.219   6.490   0.689  0.1073  0.2462 -0.0885
 4024TIP3    H212037   0.097   6.400   0.679  1.0713 -1.2664  1.3035
 4025TIP3   OH212038   2.412   2.612   0.945  0.1389 -0.0657  0.5046
 4025TIP3    H112039   2.486   2.631   0.889 -0.0499 -0.5849  0.0751
 4025TIP3    H212040   2.400   2.517   0.939  0.0427 -0.1148  1.3220
 4026TIP3   OH212041   6.343   4.358   0.216 -0.0172  0.4733  0.6843
 4026TIP3    H112042   6.354   4.354   0.311  0.9797 -1.2997  0.5429
 4026TIP3    H212043   6.396   4.434   0.189  0.7401  0.2228  1.4262
 4027TIP3   OH212044   4.877   4.026   1.259 -0.2516  0.1808  0.9018
 4027TIP3    H112045   4.807   4.043   1.322 -2.2128 -0.2274 -1.0523
 4027TIP3    H212046   4.832   4.008   1.177  2.1896  1.3125 -0.8311
 4028TIP3   OH212047   6.268   2.641   1.862  0.2832  0.5532 -0.6989
 4028TIP3    H112048   6.312   2.681   1.937 -0.7450 -0.3178  0.4226
 4028TIP3    H212049   6.232   2.559   1.897  0.9469 -0.5754 -2.4960
 4029TIP3   OH212050   3.297   0.990   1.953  0.8863  0.6235 -0.3737
 4029TIP3    H112051   3.372   0.998   2.012  0.7330 -0.4051 -0.0212
 4029TIP3    H212052   3.334   0.961   1.870  1.0128  1.3639 -0.5915
 4030TIP3   OH212053   3.251   4.490   4.779  0.1368 -0.2304  0.1209
 4030TIP3    H112054   3.235   4.461   4.869  1.6366 -2.6183 -0.3120
 4030TIP3    H212055   3.189   4.439   4.727  1.9882 -1.9481 -0.5328
 4031TIP3   OH212056   5.199   4.943   1.508 -0.0380 -0.5677  0.4831
 4031TIP3    H112057   5.133   5.003   1.472 -0.7294 -0.7867  1.3574
 4031TIP3    H212058   5.152   4.861   1.523  0.2390 -0.4941  1.8473
 4032TIP3   OH212059   4.338   2.509   0.490 -0.3596 -0.1515  0.0181
 4032TIP3    H112060   4.310   2.427   0.448 -0.0194 -0.9796  1.3377
 4032TIP3    H212061   4.364   2.566   0.417 -0.4401 -1.2854 -0.9238
 4033TIP3   OH212062   6.685   5.614   5.853  0.1864  0.2110 -0.3537
 4033TIP3    H112063   6.759   5.555   5.864 -0.7052 -0.8025  0.4011
 4033TIP3    H212064   6.638   5.581   5.776 -0.8194 -0.6492  0.6031
 4034TIP3   OH212065   0.227   1.824   2.390  0.2111  0.3386  0.0872
 4034TIP3    H112066   0.131   1.828   2.384  0.2867  0.4960 -1.1605
 4034TIP3    H212067   0.252   1.910   2.424 -0.1398 -0.0382  1.3569
 4035TIP3   OH212068   4.277   3.922   4.624  0.0052 -0.4496 -0.5836
 4035TIP3    H112069   4.321   3.895   4.704  0.6220 -1.3014 -1.1881
 4035TIP3    H212070   4.347   3.948   4.565 -0.3933 -0.5304 -1.1002
 4036TIP3   OH212071   4.519   5.410   3.823  0.0798  0.0031 -0.7553
 4036TIP3    H112072   4.459   5.468   3.870  0.1102 -0.7422  0.2421
 4036TIP3    H212073   4.532   5.335   3.882 -0.5182 -1.3761 -2.2846
 4037TIP3   OH212074   2.283   4.070   4.439  0.0109  0.1098 -0.0214
 4037TIP3    H112075   2.373   4.100   4.431  0.5531 -1.1822  0.8473
 4037TIP3    H212076   2.233   4.127   4.381  1.3937  0.8053 -0.5675
 4038TIP3   OH212077   2.499   3.551   4.531  0.1282  0.2804  0.0381
 4038TIP3    H112078   2.429   3.489   4.550  0.5388 -0.3589 -0.4641
 4038TIP3    H212079   2.559   3.544   4.605 -0.4803  1.0483  0.6117
 4039TIP3   OH212080   0.053   3.461   5.366 -0.0788 -0.3433 -0.3742
 4039TIP3    H112081   0.127   3.481   5.423  0.3512  0.6001 -1.2484
 4039TIP3    H212082   0.064   3.368   5.344 -0.6641 -0.9379  1.6475
 4040TIP3   OH212083   1.606   5.418   4.149  0.0783  0.1524 -0.1956
 4040TIP3    H112084   1.573   5.452   4.233 -1.8492 -0.6106 -0.6000
 4040TIP3    H212085   1.545   5.452   4.084  0.0730 -1.3199 -0.9906
 4041TIP3   OH212086   4.121   3.560   1.439 -0.1280 -0.1545 -0.5420
 4041TIP3    H112087   4.211   3.592   1.427 -1.0044  3.1649  0.7653
 4041TIP3    H212088   4.116   3.539   1.533 -0.4359 -1.4467 -0.8290
 4042TIP3   OH212089   2.919   0.225   5.434 -0.5142 -0.1297 -0.3445
 4042TIP3    H112090   2.833   0.262   5.411 -1.4558 -1.7226  0.4141
 4042TIP3    H212091   2.900   0.163   5.505  1.1541 -1.1176 -0.6999
 4043TIP3   OH212092   3.950   1.402   1.777 -0.0522 -1.1574  0.1135
 4043TIP3    H112093   4.043   1.416   1.790 -0.4959  2.5419  0.4593
 4043TIP3    H212094   3.935   1.427   1.685 -0.7448 -1.2900  0.1830
 4044TIP3   OH212095   4.323   4.432   1.728  0.0206  0.4350  0.0347
 4044TIP3    H112096   4.349   4.355   1.778 -2.5787  0.7684  2.0745
 4044TIP3    H212097   4.302   4.398   1.641  0.4077 -0.8733  0.4268
 4045TIP3   OH212098   4.729   6.406   5.147 -0.1790 -0.3408  0.0375
 4045TIP3    H112099   4.787   6.479   5.127  0.1109  0.2103  2.5263
 4045TIP3    H212100   4.715   6.363   5.063  0.6867  1.7937 -1.2946
 4046TIP3   OH212101   6.905   2.834   2.675 -0.6798 -0.2436  0.2140
 4046TIP3    H112102   6.917   2.743   2.700  1.8082  0.3684  1.5319
 4046TIP3    H212103   6.989   2.859   2.635 -1.6626  1.2139 -1.0685
 4047TIP3   OH212104   1.486   1.086   0.889 -0.2490 -0.2083  0.0234
 4047TIP3    H112105   1.422   1.030   0.845  0.0632  0.0044 -0.7233
 4047TIP3    H212106   1.515   1.148   0.821  0.8677 -0.4069  0.2869
 4048TIP3   OH212107   5.025   1.413   0.466 -0.1898 -0.3116  0.1061
 4048TIP3    H112108   4.939   1.431   0.504 -0.1777  0.6804 -0.2988
 4048TIP3    H212109   5.062   1.500   0.449  1.2650 -0.7066  1.0705
 4049TIP3   OH212110   3.501   2.864   1.029 -0.2271  0.1362 -0.6190
 4049TIP3    H112111   3.508   2.945   1.081 -1.1007  0.0308 -0.3258
 4049TIP3    H212112   3.579   2.865   0.974  0.9881  0.0083  1.0286
 4050TIP3   OH212113   6.577   1.045   3.566  0.8031 -0.2829  0.8946
 4050TIP3    H112114   6.609   0.956   3.546  1.3987  0.0545  0.2843
 4050TIP3    H212115   6.657   1.095   3.584  1.0074  1.2301 -3.1749
 4051TIP3   OH212116   2.710   5.600   3.125  0.2184  0.3364 -0.0492
 4051TIP3    H112117   2.639   5.664   3.116 -0.4573 -0.5141 -1.0080
 4051TIP3    H212118   2.735   5.578   3.035 -0.6909 -1.9378  0.1818
 4052TIP3   OH212119   0.367   2.880   0.826  0.1420  0.0635 -0.0794
 4052TIP3    H112120   0.341   2.814   0.761  1.7260 -1.8002  1.0608
 4052TIP3    H212121   0.460   2.895   0.809  0.1163  0.9976  0.5431
 4053TIP3   OH212122   1.788   0.656   4.696 -0.2174  0.0842 -0.2592
 4053TIP3    H112123   1.740   0.737   4.710 -0.1283  0.8287 -3.3932
 4053TIP3    H212124   1.721   0.588   4.696 -1.0831  0.8373 -2.3863
 4054TIP3   OH212125   3.979   5.724   4.883  0.3634 -0.5976  0.1660
 4054TIP3    H112126   4.056   5.747   4.934 -0.6617  1.4867  0.9001
 4054TIP3    H212127   4.013   5.672   4.810  2.4905  0.4292  0.3473
 4055TIP3   OH212128   3.378   0.547   4.351  0.4034  0.0203 -0.3871
 4055TIP3    H112129   3.452   0.486   4.352 -0.4682 -1.1470 -1.7858
 4055TIP3    H212130   3.301   0.492   4.369 -0.6684  0.1837 -3.6886
 4056TIP3   OH212131   4.641   3.565   5.450  0.4538 -0.0307 -0.0632
 4056TIP3    H112132   4.665   3.636   5.390  0.4021 -1.0374 -1.3124
 4056TIP3    H212133   4.711   3.564   5.515  1.7065 -0.3269 -1.3582
 4057TIP3   OH212134   2.792   2.508   3.345 -0.1642  0.1392 -0.3691
 4057TIP3    H112135   2.865   2.564   3.318  1.0452 -0.5471  1.2328
 4057TIP3    H212136   2.799   2.431   3.289  1.5154 -0.7125  0.9069
 4058TIP3   OH212137   0.020   0.824   1.197 -0.3574 -0.1175 -0.0916
 4058TIP3    H112138   0.058   0.747   1.156 -0.4649 -0.7563  0.9568
 4058TIP3    H212139   0.076   0.842   1.272 -0.3458  0.8185 -0.3151
 4059TIP3   OH212140   0.992   2.020   2.713  0.1848 -0.2815  0.2168
 4059TIP3    H112141   1.025   1.942   2.758  0.9104 -1.8395 -2.7456
 4059TIP3    H212142   1.019   2.008   2.622 -3.3098  1.3393 -1.2343
 4060TIP3   OH212143   5.002   5.384   3.214  0.1390  0.0085 -0.0447
 4060TIP3    H112144   5.059   5.308   3.219  0.2864  0.0463 -0.9462
 4060TIP3    H212145   4.991   5.413   3.305 -0.8675 -1.7775  0.4432
 4061TIP3   OH212146   1.203   4.708   3.613  0.1895  0.2598 -0.5017
 4061TIP3    H112147   1.182   4.801   3.621  3.9042  1.4483 -2.2881
 4061TIP3    H212148   1.253   4.688   3.692 -0.6560 -0.2999 -0.0893
 4062TIP3   OH212149   0.283   0.133   5.863  0.0878 -0.3932 -0.0903
 4062TIP3    H112150   0.299   0.092   5.947 -1.8930 -1.0973 -0.0083
 4062TIP3    H212151   0.361   0.114   5.812  1.8837  1.1177  1.9255
 4063TIP3   OH212152   0.111   5.344   4.865  0.0288  0.8931  0.1393
 4063TIP3    H112153   0.137   5.279   4.800 -0.7072  0.6364  0.1004
 4063TIP3    H212154   0.035   5.388   4.827  0.4986  1.7600  0.1768
 4064TIP3   OH212155   6.716   6.311   1.501  0.4960  0.4697  0.2213
 4064TIP3    H112156   6.704   6.345   1.412 -0.0581 -0.0797  0.0794
 4064TIP3    H212157   6.772   6.375   1.544 -0.2019  1.3604 -0.1612
 4065TIP3   OH212158   0.615   0.017   3.366  0.3179 -0.4232 -0.6082
 4065TIP3    H112159   0.553   0.023   3.293  2.1411  3.1386 -2.1549
 4065TIP3    H212160   0.700   0.001   3.323  1.1659 -0.1266  0.9070
 4066TIP3   OH212161   5.767   1.328   4.023  0.3453 -0.0160  0.3563
 4066TIP3    H112162   5.833   1.364   4.082  0.9860  0.5649 -0.6845
 4066TIP3    H212163   5.806   1.336   3.935 -0.9233 -0.0643 -0.2342
 4067TIP3   OH212164   6.152   5.763   4.591 -0.1443 -0.1611 -0.2571
 4067TIP3    H112165   6.093   5.700   4.549  0.1243 -0.3586 -0.3397
 4067TIP3    H212166   6.109   5.785   4.673 -0.4354 -0.1444 -0.4130
 4068TIP3   OH212167   5.556   1.412   4.983 -0.0173  0.3486  0.1112
 4068TIP3    H112168   5.493   1.344   5.006 -0.3835  0.7156  0.2019
 4068TIP3    H212169   5.597   1.435   5.067 -0.7796  1.1160  0.2847
 4069TIP3   OH212170   4.459   1.115   5.485 -0.4036  0.1223 -0.5141
 4069TIP3    H112171   4.457   1.175   5.411  0.8329 -0.6368 -1.2075
 4069TIP3    H212172   4.400   1.044   5.460  0.4213 -0.4006 -1.0511
 4070TIP3   OH212173   2.577   3.288   4.755  0.0230 -0.4241 -0.3367
 4070TIP3    H112174   2.508   3.291   4.688  0.3376 -0.8444 -0.6809
 4070TIP3    H212175   2.650   3.243   4.713  0.9236  0.9745 -0.3472
 4071TIP3   OH212176   1.710   4.325   3.462  0.1571  0.1152 -0.6576
 4071TIP3    H112177   1.699   4.302   3.370 -0.6548 -0.8681 -0.3424
 4071TIP3    H212178   1.734   4.242   3.504  1.0364  0.6571 -0.0536
 4072TIP3   OH212179   1.279   1.656   3.802  0.3581  0.1303  0.6489
 4072TIP3    H112180   1.339   1.589   3.834 -0.1650  0.0966  1.5956
 4072TIP3    H212181   1.199   1.608   3.781  0.4890  0.2457 -0.1492
 4073TIP3   OH212182   3.038   0.547   0.469 -0.0124  0.0614 -0.1393
 4073TIP3    H112183   3.106   0.607   0.438 -0.1958  0.3506  0.0177
 4073TIP3    H212184   3.077   0.460   0.459  1.9061  0.3280  3.3677
 4074TIP3   OH212185   0.992   4.300   3.553 -0.3372 -0.2828 -0.2057
 4074TIP3    H112186   0.981   4.302   3.458  0.3220 -3.0657 -0.4365
 4074TIP3    H212187   1.082   4.329   3.568 -0.4654  0.2323 -0.3981
 4075TIP3   OH212188   2.265   5.204   3.565 -0.3368  0.2282 -0.5286
 4075TIP3    H112189   2.171   5.217   3.553 -0.0728  0.2937 -3.1308
 4075TIP3    H212190   2.284   5.244   3.649 -2.5645  0.5654 -0.1174
 4076TIP3   OH212191   1.264   5.124   0.992 -0.2839 -0.5071  0.6131
 4076TIP3    H112192   1.256   5.200   1.049 -2.1822 -1.4413  1.7002
 4076TIP3    H212193   1.357   5.119   0.970  0.0383  1.4848  1.3813
 4077TIP3   OH212194   4.061   3.659   1.787 -0.0573 -0.2315  0.6586
 4077TIP3    H112195   4.095   3.580   1.744  0.6827 -0.0335  0.8668
 4077TIP3    H212196   3.991   3.689   1.729 -0.9012 -1.4831  0.9838
 4078TIP3   OH212197   4.083   2.322   4.213 -0.0688  0.4055 -0.0606
 4078TIP3    H112198   4.089   2.301   4.119 -0.4477  0.0414 -0.0013
 4078TIP3    H212199   4.155   2.273   4.253 -0.8928 -0.7281  0.0667
 4079TIP3   OH212200   6.847   6.507   5.555 -0.3390  0.3489 -0.1353
 4079TIP3    H112201   6.922   6.552   5.594  0.0459  0.8133 -1.3590
 4079TIP3    H212202   6.779   6.575   5.552 -0.3420  0.3368 -0.3346
 4080TIP3   OH212203   1.751   5.812   0.638  1.1497 -0.6003  0.0364
 4080TIP3    H112204   1.820   5.874   0.660  1.3309 -0.2850 -1.3384
 4080TIP3    H212205   1.760   5.742   0.703  2.8675 -0.6477 -0.1987
 4081TIP3   OH212206   2.040   4.601   5.398  0.5524  0.1746 -0.5989
 4081TIP3    H112207   1.958   4.638   5.432  0.3560  1.5678 -2.4433
 4081TIP3    H212208   2.092   4.583   5.476 -0.4913  1.7095  0.5077
 4082TIP3   OH212209   0.873   2.868   3.379 -0.6640  0.3395  1.0324
 4082TIP3    H112210   0.954   2.864   3.429  0.3676  1.7873 -0.4163
 4082TIP3    H212211   0.902   2.876   3.288 -2.4518  0.2758  0.4239
 4083TIP3   OH212212   3.895   0.824   3.183  0.3141 -0.1136  0.3453
 4083TIP3    H112213   3.920   0.804   3.274  1.3359 -1.5851 -0.2180
 4083TIP3    H212214   3.979   0.837   3.138 -0.2064  1.1407 -0.2920
 4084TIP3   OH212215   2.661   3.006   4.246  0.6123 -0.6444 -0.0626
 4084TIP3    H112216   2.705   2.925   4.221  3.3600  1.2592 -1.7962
 4084TIP3    H212217   2.731   3.069   4.261 -1.4061  1.4225  1.4606
 4085TIP3   OH212218   3.873   5.271   2.305  0.6444  0.6495  0.6466
 4085TIP3    H112219   3.794   5.266   2.359  0.3120  1.3873  0.2353
 4085TIP3    H212220   3.887   5.365   2.292  1.0590  0.4890 -0.0638
 4086TIP3   OH212221   3.473   5.243   0.647  0.2915 -0.4307 -0.0544
 4086TIP3    H112222   3.522   5.275   0.723  2.8318  1.3262 -2.2367
 4086TIP3    H212223   3.511   5.290   0.573 -2.8389 -1.1721 -2.3254
 4087TIP3   OH212224   4.941   0.232   1.681 -0.1335  0.7651 -0.3317
 4087TIP3    H112225   5.000   0.211   1.608  0.7797  1.1421  0.2771
 4087TIP3    H212226   5.000   0.260   1.752 -1.0752  1.5280  0.1710
 4088TIP3   OH212227   2.738   2.309   0.784 -0.0474  0.3074 -0.3209
 4088TIP3    H112228   2.666   2.345   0.836  1.1764 -0.3793  1.9519
 4088TIP3    H212229   2.816   2.328   0.835  1.1465 -1.1644 -1.5277
 4089TIP3   OH212230   1.991   2.750   4.487 -0.1337  0.0372 -0.0379
 4089TIP3    H112231   1.984   2.772   4.580 -1.9233  0.6351 -0.2732
 4089TIP3    H212232   2.051   2.815   4.451 -1.9595  1.9374  0.1236
 4090TIP3   OH212233   3.898   6.452   0.690  0.3525 -0.0068  0.1580
 4090TIP3    H112234   3.971   6.396   0.665 -0.2844 -0.6341 -0.3655
 4090TIP3    H212235   3.933   6.510   0.758  1.8552  1.0119 -1.3950
 4091TIP3   OH212236   4.985   4.785   1.310 -0.0172  0.1958 -0.7613
 4091TIP3    H112237   5.055   4.723   1.328 -1.2563 -0.9676  0.2846
 4091TIP3    H212238   4.966   4.774   1.216 -0.2503 -1.0580 -0.5808
 4092TIP3   OH212239   1.484   5.076   5.227 -0.2772 -0.1329 -0.1196
 4092TIP3    H112240   1.466   4.987   5.255 -0.9800 -0.4293 -1.4331
 4092TIP3    H212241   1.547   5.066   5.155 -0.2073  0.4524 -0.1486
 4093TIP3   OH212242   2.913   6.117   5.735 -0.5185 -0.1471  0.2206
 4093TIP3    H112243   2.897   6.085   5.824  1.8914 -2.1158  0.0549
 4093TIP3    H212244   3.001   6.084   5.713  0.0596  2.4534 -1.9416
 4094TIP3   OH212245   3.990   3.232   5.252 -0.2503 -0.2376  0.5245
 4094TIP3    H112246   4.030   3.241   5.166 -0.7347 -1.4399  0.1439
 4094TIP3    H212247   3.897   3.219   5.234 -0.5317  0.6275  1.2993
 4095TIP3   OH212248   5.917   4.136   2.567 -0.3183  0.1391  0.3662
 4095TIP3    H112249   5.959   4.152   2.483 -0.7058  0.0377  0.1516
 4095TIP3    H212250   5.855   4.065   2.550 -0.5406  0.2538  0.6902
 4096TIP3   OH212251   2.652   4.705   4.612 -0.1164  0.1239 -0.1542
 4096TIP3    H112252   2.614   4.617   4.618 -0.7021  0.3489 -0.4656
 4096TIP3    H212253   2.746   4.692   4.625 -0.3240 -0.4193  0.9150
 4097TIP3   OH212254   1.806   1.608   2.673  0.3907  0.0159 -0.6332
 4097TIP3    H112255   1.798   1.696   2.709  2.5258  1.3723 -3.0808
 4097TIP3    H212256   1.882   1.571   2.717  0.6614  0.1800 -0.9528
 4098TIP3   OH212257   3.635   4.614   3.911  0.0106 -0.1055 -0.0833
 4098TIP3    H112258   3.675   4.655   3.988  0.2360 -1.4908  0.5747
 4098TIP3    H212259   3.692   4.540   3.892 -0.6823 -0.4405 -0.8986
 4099TIP3   OH212260   5.221   0.288   1.975  0.0367 -0.3743  0.6110
 4099TIP3    H112261   5.244   0.371   2.017  0.5075 -0.7539  1.1139
 4099TIP3    H212262   5.177   0.237   2.044 -0.2657 -0.5393  0.3010
 4100TIP3   OH212263   5.295   4.863   1.802 -0.3106  0.1145  0.0374
 4100TIP3    H112264   5.277   4.946   1.846  1.5504  0.8894 -0.5805
 4100TIP3    H212265   5.224   4.854   1.739 -3.5927 -1.4666  3.5774
 4101TIP3   OH212266   2.612   2.651   5.508 -0.2480 -0.0380 -0.4708
 4101TIP3    H112267   2.642   2.569   5.469  1.6755  0.0988  0.5855
 4101TIP3    H212268   2.632   2.718   5.442  1.2596 -0.0432 -0.0604
 4102TIP3   OH212269   0.216   3.721   2.357 -0.8232  0.0932  0.0290
 4102TIP3    H112270   0.262   3.783   2.413  2.2467 -1.5501 -0.4129
 4102TIP3    H212271   0.200   3.768   2.275  2.0199  0.2672 -0.5358
 4103TIP3   OH212272   5.738   0.883   2.680  0.2188 -0.0876  0.0149
 4103TIP3    H112273   5.646   0.857   2.691 -0.4108  1.2698 -1.5818
 4103TIP3    H212274   5.768   0.830   2.606  0.9341 -0.9378  0.8843
 4104TIP3   OH212275   3.795   0.023   3.461  0.4804 -0.6384  0.2426
 4104TIP3    H112276   3.727   0.089   3.475 -0.0633 -1.0081 -0.5882
 4104TIP3    H212277   3.871   0.057   3.509  0.1169  0.4347  0.0883
 4105TIP3   OH212278   5.259   4.826   2.110 -0.1227  0.1637  0.6881
 4105TIP3    H112279   5.259   4.789   2.022 -1.6467  1.2888  0.1556
 4105TIP3    H212280   5.194   4.775   2.158  0.6472 -0.3962  1.1481
 4106TIP3   OH212281   1.821   1.098   3.358  0.2710  0.1345  0.0130
 4106TIP3    H112282   1.873   1.178   3.364  0.5321 -0.0573  0.3307
 4106TIP3    H212283   1.738   1.120   3.400  0.7438 -0.0856  1.1019
 4107TIP3   OH212284   2.907   5.047   5.540 -0.8067  0.4565  0.6638
 4107TIP3    H112285   2.839   4.982   5.521 -0.4317 -0.0317  0.9901
 4107TIP3    H212286   2.957   5.054   5.459 -1.2862  0.8717  0.3988
 4108TIP3   OH212287   2.347   5.121   4.441  0.2536 -0.2511  0.3449
 4108TIP3    H112288   2.389   5.118   4.527 -0.4113  1.2803  0.7464
 4108TIP3    H212289   2.270   5.064   4.450 -0.8986  1.3732  1.4221
 4109TIP3   OH212290   4.219   1.673   1.517 -0.2133  0.1663  0.1547
 4109TIP3    H112291   4.243   1.590   1.559 -0.6846 -0.6448 -1.1094
 4109TIP3    H212292   4.291   1.691   1.457 -0.6953 -0.0000 -0.4866
 4110TIP3   OH212293   0.063   0.367   2.797  0.8440  0.9998 -0.5085
 4110TIP3    H112294   0.094   0.428   2.863  1.8173 -0.3424  0.3303
 4110TIP3    H212295  -0.012   0.324   2.837  0.1350  1.6412 -1.1113
 4111TIP3   OH212296   3.475   5.772   2.502  0.0623 -0.5368 -0.4747
 4111TIP3    H112297   3.474   5.860   2.464 -0.5457 -0.4001 -0.1601
 4111TIP3    H212298   3.384   5.744   2.498  0.0447 -0.6685  0.5243
 4112TIP3   OH212299   3.295   5.534   2.534  0.2936 -0.7551 -0.5146
 4112TIP3    H112300   3.217   5.482   2.514 -0.0888 -0.3735 -0.0237
 4112TIP3    H212301   3.356   5.511   2.464  0.0738 -1.7305 -0.4110
 4113TIP3   OH212302   2.641   0.466   2.302 -0.8250 -0.3079  0.1165
 4113TIP3    H112303   2.680   0.520   2.371  1.6115  0.1812 -1.5341
 4113TIP3    H212304   2.665   0.377   2.326  1.5345 -0.0141 -0.8861
 4114TIP3   OH212305   6.621   1.710   3.298 -0.3168 -0.3929 -0.8040
 4114TIP3    H112306   6.571   1.790   3.312 -1.4917 -1.3608  0.9786
 4114TIP3    H212307   6.703   1.723   3.344  0.9241  0.9614 -3.2129
 4115TIP3   OH212308   5.325   3.348   3.342  0.0625 -0.3024 -0.0221
 4115TIP3    H112309   5.418   3.364   3.326  0.1534  0.2547  1.0005
 4115TIP3    H212310   5.317   3.253   3.350  0.1437 -0.5739 -2.4433
 4116TIP3   OH212311   4.760   0.104   2.924 -0.0063 -0.0576 -0.4721
 4116TIP3    H112312   4.830   0.060   2.972  1.1532  0.6498 -1.4534
 4116TIP3    H212313   4.691   0.038   2.918  1.1871 -1.3302 -0.8153
 4117TIP3   OH212314   1.181   4.178   1.888 -0.4970 -0.2597  0.2055
 4117TIP3    H112315   1.128   4.219   1.818 -2.0600  1.1133  2.0702
 4117TIP3    H212316   1.116   4.134   1.943  0.7112 -1.3155  0.8160
 4118TIP3   OH212317   7.041   6.697   2.599  0.1428  0.4245  0.5497
 4118TIP3    H112318   7.086   6.653   2.671  0.4368  1.6757  1.1536
 4118TIP3    H212319   7.109   6.748   2.555 -0.4407  1.4550  0.7913
 4119TIP3   OH212320   3.532   6.422   2.113 -0.0345 -0.6023 -0.2291
 4119TIP3    H112321   3.533   6.515   2.093 -1.2876 -0.4036  0.5322
 4119TIP3    H212322   3.620   6.404   2.146 -0.0866  0.5473  0.6003
 4120TIP3   OH212323   5.228   6.185   0.589 -0.6604  0.0155 -0.3198
 4120TIP3    H112324   5.151   6.145   0.549 -0.9440 -1.0898  1.2810
 4120TIP3    H212325   5.206   6.278   0.596 -1.3262 -0.0827 -1.0283
 4121TIP3   OH212326   1.536   1.039   4.601 -0.0915 -0.3217 -0.0562
 4121TIP3    H112327   1.586   0.957   4.594 -0.8271 -0.8991  1.1025
 4121TIP3    H212328   1.495   1.050   4.514 -1.4624 -2.1914  0.2844
 4122TIP3   OH212329   7.172   2.468   3.699  0.2381 -0.1212  0.3524
 4122TIP3    H112330   7.246   2.526   3.714 -1.0036  0.8536  3.3580
 4122TIP3    H212331   7.176   2.405   3.771 -1.3082 -0.6818 -0.0170
 4123TIP3   OH212332   1.262   3.371   4.799 -0.3984  0.3534  0.2223
 4123TIP3    H112333   1.344   3.396   4.841 -0.8876  1.6899  0.4687
 4123TIP3    H212334   1.216   3.455   4.787 -0.9841 -0.1752 -1.4841
 4124TIP3   OH212335   5.317   0.705   0.313  0.4487  0.4446 -0.0251
 4124TIP3    H112336   5.266   0.753   0.247 -1.9161  1.5095  2.3843
 4124TIP3    H212337   5.373   0.772   0.353  2.1029 -0.2555 -1.0472
 4125TIP3   OH212338   0.785   5.151   3.305  0.3189  0.0507  0.5806
 4125TIP3    H112339   0.700   5.142   3.348 -0.0981  1.1773  0.0355
 4125TIP3    H212340   0.793   5.074   3.250  0.3801 -0.8761  1.8422
 4126TIP3   OH212341   6.836   6.386   3.855 -0.2862 -0.0971  0.1470
 4126TIP3    H112342   6.804   6.331   3.783  0.3502  1.3745 -1.3179
 4126TIP3    H212343   6.928   6.362   3.865 -0.2610  0.0163  0.1854
 4127TIP3   OH212344   6.053   3.019   4.442 -0.0802  0.0878 -0.9419
 4127TIP3    H112345   5.992   2.956   4.479 -1.0918 -0.1108 -2.7837
 4127TIP3    H212346   6.112   3.042   4.513 -0.5293 -1.9087  0.1257
 4128TIP3   OH212347   3.412   4.716   1.990  0.2316  0.4692 -0.4668
 4128TIP3    H112348   3.344   4.681   2.047 -0.0132  0.2187 -0.9076
 4128TIP3    H212349   3.374   4.796   1.954 -0.0874 -0.0020 -1.2065
 4129TIP3   OH212350   4.642   4.380   2.484 -0.5339 -0.5183  0.3096
 4129TIP3    H112351   4.665   4.422   2.567 -0.5267 -1.7273  0.9312
 4129TIP3    H212352   4.583   4.443   2.441 -0.2941  0.2522  1.0832
 4130TIP3   OH212353   2.033   3.347   0.628 -0.0208 -0.3634 -0.4020
 4130TIP3    H112354   2.049   3.440   0.642  1.8598 -0.1443 -3.1904
 4130TIP3    H212355   2.105   3.318   0.572 -1.0117 -3.3191 -0.3409
 4131TIP3   OH212356   4.002   6.738   4.679 -0.2086  0.2592 -0.1709
 4131TIP3    H112357   3.955   6.721   4.597 -0.8102 -1.0530  0.4336
 4131TIP3    H212358   4.090   6.762   4.650 -0.7893  1.2511 -1.2498
 4132TIP3   OH212359   4.832   3.053   1.708 -0.0500 -0.2793  0.0440
 4132TIP3    H112360   4.819   2.960   1.726 -1.4111 -0.5971 -2.1323
 4132TIP3    H212361   4.752   3.095   1.739 -0.3332 -0.1602 -0.8159
 4133TIP3   OH212362   1.243   0.425   5.021  0.1353 -0.6702  0.4259
 4133TIP3    H112363   1.272   0.419   4.930  0.6088  1.6291  0.3545
 4133TIP3    H212364   1.274   0.511   5.050 -0.9148 -0.9126  2.4391
 4134TIP3   OH212365   2.710   2.000   1.364 -0.1632 -0.7960 -0.2174
 4134TIP3    H112366   2.736   1.970   1.451 -1.0404 -1.3141 -0.1306
 4134TIP3    H212367   2.791   1.996   1.313  0.2277 -1.0760  0.4048
 4135TIP3   OH212368   2.661   3.392   0.569  0.0408 -0.4422  0.0518
 4135TIP3    H112369   2.731   3.457   0.576  0.2940 -0.7286  0.2334
 4135TIP3    H212370   2.585   3.442   0.540  0.0101  0.0932  0.9960
 4136TIP3   OH212371   0.913   2.199   3.053  0.2952  0.1175 -0.3670
 4136TIP3    H112372   0.992   2.203   3.107 -0.1879  2.5470  0.3134
 4136TIP3    H212373   0.893   2.291   3.033 -2.9032 -0.3146  0.3119
 4137TIP3   OH212374   5.286   0.794   5.740 -0.8824 -0.1842  0.1156
 4137TIP3    H112375   5.231   0.747   5.803  0.4471 -1.3078  0.4745
 4137TIP3    H212376   5.332   0.860   5.791  0.0997 -1.0121  0.3354
 4138TIP3   OH212377   4.791   3.950   1.003 -0.1103  0.1832 -0.0020
 4138TIP3    H112378   4.823   3.867   0.966 -0.4835 -0.0063  0.0941
 4138TIP3    H212379   4.830   4.018   0.949  0.4601 -0.0476  0.1167
 4139TIP3   OH212380   1.266   0.922   3.686  0.2881  0.3145  0.0309
 4139TIP3    H112381   1.290   0.849   3.742 -1.7315  0.6749  1.4568
 4139TIP3    H212382   1.325   0.993   3.713 -0.1740  0.2672  1.2476
 4140TIP3   OH212383   4.632   1.404   2.013  0.3825 -0.3683  0.2443
 4140TIP3    H112384   4.726   1.390   2.026  0.4945  0.2594  0.1336
 4140TIP3    H212385   4.595   1.315   2.011  0.9405 -0.6137  0.5011
 4141TIP3   OH212386   3.391   1.753   1.646 -0.2186 -0.7465 -0.3461
 4141TIP3    H112387   3.459   1.817   1.624 -0.6252 -0.0020  0.5214
 4141TIP3    H212388   3.316   1.777   1.592 -1.3532  1.3247  1.9268
 4142TIP3   OH212389   3.055   2.531   4.541 -0.5779 -0.5927 -0.0939
 4142TIP3    H112390   3.042   2.440   4.517  0.6217 -0.9728  0.6161
 4142TIP3    H212391   3.116   2.565   4.476  0.1689 -0.7369  0.5125
 4143TIP3   OH212392   3.101   2.129   2.571 -0.1770  0.2106 -0.2303
 4143TIP3    H112393   3.029   2.110   2.631 -1.2668  0.5419 -1.4016
 4143TIP3    H212394   3.103   2.053   2.512 -1.9819  1.7592 -2.4656
 4144TIP3   OH212395   1.116   3.639   1.895 -0.3469  0.2895 -0.0264
 4144TIP3    H112396   1.027   3.646   1.931  0.1357 -1.0430  1.5406
 4144TIP3    H212397   1.135   3.545   1.898  1.4822  0.6497  0.6050
 4145TIP3   OH212398   1.379   2.531   4.035 -0.2082  0.2636  0.6960
 4145TIP3    H112399   1.368   2.563   3.945 -0.1102  0.2659  0.6838
 4145TIP3    H212400   1.449   2.465   4.027  0.9925  1.4444  1.0358
 4146TIP3   OH212401   5.584   6.423   0.770  0.3413 -0.4856  0.2691
 4146TIP3    H112402   5.654   6.414   0.835 -0.6518 -1.0725  1.2826
 4146TIP3    H212403   5.560   6.334   0.748 -1.0919 -0.3222  1.0612
 4147TIP3   OH212404   4.791   2.524   1.149 -0.0169  0.1131  0.3190
 4147TIP3    H112405   4.828   2.594   1.095  3.1171 -0.8554  0.9856
 4147TIP3    H212406   4.812   2.549   1.238 -0.8449 -0.6213  0.7342
 4148TIP3   OH212407   3.749   3.265   2.594  0.2671 -0.3560  0.1938
 4148TIP3    H112408   3.713   3.264   2.505 -0.5228 -1.8550  0.4945
 4148TIP3    H212409   3.809   3.338   2.594 -0.2879  0.1553 -1.3571
 4149TIP3   OH212410   6.840   1.805   4.082  0.0052 -0.8323 -0.5308
 4149TIP3    H112411   6.845   1.863   4.007 -2.4999  0.0915 -0.0685
 4149TIP3    H212412   6.869   1.859   4.156 -1.3128 -0.4639 -0.2633
 4150TIP3   OH212413   6.096   2.593   3.380  0.3584 -0.4471 -0.1105
 4150TIP3    H112414   6.119   2.677   3.421 -2.9639  1.1076 -1.0764
 4150TIP3    H212415   6.092   2.612   3.287 -0.5488 -1.6251 -0.3402
 4151TIP3   OH212416   1.284   5.206   5.068 -0.3223 -0.2984  0.0106
 4151TIP3    H112417   1.300   5.301   5.069 -2.0132  0.0215 -0.3442
 4151TIP3    H212418   1.348   5.171   5.130 -0.0769  1.1474  0.6266
 4152TIP3   OH212419   0.133   3.904   5.571  0.6030 -0.3784 -0.2485
 4152TIP3    H112420   0.088   3.933   5.650  0.8981  1.3213 -0.6671
 4152TIP3    H212421   0.221   3.878   5.601  0.1448 -1.4612  0.2140
 4153TIP3   OH212422   0.601   6.119   2.581 -0.0252 -0.0457 -0.7848
 4153TIP3    H112423   0.643   6.126   2.496  2.2573  0.9780  0.3305
 4153TIP3    H212424   0.654   6.174   2.639 -0.6242 -1.7871  1.5985
 4154TIP3   OH212425   5.369   5.349   0.104 -0.0998  0.0084 -0.0628
 4154TIP3    H112426   5.307   5.412   0.067  0.8914  1.3693  0.4982
 4154TIP3    H212427   5.314   5.279   0.139 -1.2809  0.8701 -0.1339
 4155TIP3   OH212428   4.395   1.517   3.738  0.5292  0.0990 -0.0582
 4155TIP3    H112429   4.335   1.444   3.727  0.6078  0.3224 -2.5233
 4155TIP3    H212430   4.347   1.594   3.706  1.5544  0.5465 -0.5989
 4156TIP3   OH212431   5.807   3.394   0.672  0.1906 -0.3078 -0.3395
 4156TIP3    H112432   5.790   3.416   0.581 -0.1524 -0.6656 -0.3639
 4156TIP3    H212433   5.773   3.469   0.722 -0.7982 -0.6893 -0.4326
 4157TIP3   OH212434   4.234   0.228   1.111  0.2968 -0.0919  0.0166
 4157TIP3    H112435   4.230   0.218   1.016 -0.4738  0.8405 -0.0635
 4157TIP3    H212436   4.200   0.316   1.127 -1.1768 -0.8443  1.2757
 4158TIP3   OH212437   5.681   5.931   5.369 -0.1987  0.1146 -0.2586
 4158TIP3    H112438   5.626   5.853   5.363 -1.4236  0.9735 -0.7183
 4158TIP3    H212439   5.728   5.934   5.285 -1.6996  0.9322 -1.1284
 4159TIP3   OH212440   3.213   5.583   4.108 -0.2102 -0.6891 -0.6053
 4159TIP3    H112441   3.233   5.578   4.201 -0.0469  0.0500 -0.5958
 4159TIP3    H212442   3.118   5.595   4.105 -0.0830  0.5260 -0.4731
 4160TIP3   OH212443   0.303   4.692   5.242  0.6201 -0.2940 -0.2161
 4160TIP3    H112444   0.223   4.647   5.268  0.7027 -0.7271 -0.6866
 4160TIP3    H212445   0.374   4.635   5.272  0.7686  0.2398  0.4787
 4161TIP3   OH212446   5.350   2.002   3.343 -0.5547 -0.1367  0.4171
 4161TIP3    H112447   5.372   2.001   3.436 -1.8352  0.1826  0.7411
 4161TIP3    H212448   5.312   1.915   3.326 -0.3972 -0.1669  0.2052
 4162TIP3   OH212449   4.907   2.862   5.820  0.4662  0.0841 -0.5285
 4162TIP3    H112450   4.898   2.950   5.783  0.9208  0.5658  0.4587
 4162TIP3    H212451   4.963   2.874   5.897 -0.1314 -0.9356  0.0934
 4163TIP3   OH212452   2.461   5.563   3.908  0.3428 -0.4308 -0.2264
 4163TIP3    H112453   2.550   5.590   3.883  0.5705 -1.2361 -0.3033
 4163TIP3    H212454   2.407   5.639   3.887  0.8452 -0.3263 -1.2261
 4164TIP3   OH212455   6.376   4.407   2.011 -0.0603 -0.4579  0.4685
 4164TIP3    H112456   6.436   4.377   1.942  0.6384  0.0149  0.8521
 4164TIP3    H212457   6.392   4.347   2.084 -0.0385 -0.3205  0.5768
 4165TIP3   OH212458   0.084   4.540   5.331 -0.3292 -0.0036  0.6566
 4165TIP3    H112459   0.043   4.492   5.403 -1.0751  0.0607  0.2865
 4165TIP3    H212460   0.055   4.495   5.252 -0.6921  0.7957  0.3240
 4166TIP3   OH212461   1.132   1.859   0.318 -0.4239  0.3299  0.2604
 4166TIP3    H112462   1.175   1.864   0.403 -2.0162 -0.7004  1.1726
 4166TIP3    H212463   1.110   1.950   0.297  0.4859  0.6540  0.6514
 4167TIP3   OH212464   4.364   6.708   5.614 -0.4378  0.2418  0.2771
 4167TIP3    H112465   4.368   6.748   5.527 -0.9801  2.4359  1.1875
 4167TIP3    H212466   4.405   6.772   5.672 -0.2985 -1.0654  1.6835
 4168TIP3   OH212467   2.067   3.695   5.395  0.4373 -0.3957 -0.5233
 4168TIP3    H112468   2.138   3.752   5.423  0.3656 -0.1291 -0.8705
 4168TIP3    H212469   2.110   3.623   5.350  0.4958 -0.3075 -0.6082
 4169TIP3   OH212470   2.888   2.442   0.564 -0.0507 -0.3308  0.0113
 4169TIP3    H112471   2.877   2.374   0.630  0.2103  0.1676  0.5701
 4169TIP3    H212472   2.815   2.428   0.503 -0.3557 -0.7226  0.4632
 4170TIP3   OH212473   5.861   6.669   1.714 -0.1136  0.7402 -0.3645
 4170TIP3    H112474   5.773   6.657   1.749 -1.1207  2.2217 -2.1903
 4170TIP3    H212475   5.879   6.762   1.728  0.4642  0.8088 -1.5105
 4171TIP3   OH212476   4.066   5.019   3.045 -0.7182 -0.5862  0.4321
 4171TIP3    H112477   3.993   4.973   3.086 -0.6365 -1.1206 -0.0184
 4171TIP3    H212478   4.103   4.956   2.983 -0.4605  0.0017 -0.0215
 4172TIP3   OH212479   3.181   4.229   1.611  0.9011  0.0891 -0.3288
 4172TIP3    H112480   3.255   4.244   1.553  1.1437 -1.2327 -0.3892
 4172TIP3    H212481   3.188   4.137   1.636 -1.4844 -0.4834 -1.4366
 4173TIP3   OH212482   5.760   0.413   1.492  0.7759 -0.4277  0.1254
 4173TIP3    H112483   5.756   0.326   1.452  1.5836 -0.6655  0.5461
 4173TIP3    H212484   5.854   0.433   1.497  0.5751  0.8293 -0.7271
 4174TIP3   OH212485   0.765   6.026   2.019 -0.1742  0.6544  0.4775
 4174TIP3    H112486   0.686   6.059   2.062 -0.7322 -0.0992  0.0493
 4174TIP3    H212487   0.819   5.993   2.091 -0.5688  0.5148  0.7141
 4175TIP3   OH212488   5.124   0.805   4.890  0.1736 -0.2574 -0.5034
 4175TIP3    H112489   5.151   0.714   4.874  1.1877 -0.4714  1.8661
 4175TIP3    H212490   5.040   0.797   4.934  0.7022 -0.1511  0.5690
 4176TIP3   OH212491   1.687   0.108   0.908 -0.0654  0.2088  0.4428
 4176TIP3    H112492   1.679   0.146   0.995  0.3526  0.5790  0.3268
 4176TIP3    H212493   1.604   0.063   0.893 -1.4442  2.7570 -0.2029
 4177TIP3   OH212494   2.180   5.344   4.343  0.3034 -0.3869 -0.1112
 4177TIP3    H112495   2.268   5.313   4.364  0.8022  1.0057 -0.0204
 4177TIP3    H212496   2.193   5.403   4.268 -0.6076 -0.4879 -0.3639
 4178TIP3   OH212497   1.600   3.229   2.500 -0.5380  0.3040  0.4933
 4178TIP3    H112498   1.630   3.160   2.442 -1.2424  1.5962 -1.4886
 4178TIP3    H212499   1.548   3.183   2.567 -1.5388 -1.0268 -1.1280
 4179TIP3   OH212500   2.722   0.895   0.373 -0.6290 -0.0851  0.1787
 4179TIP3    H112501   2.775   0.836   0.427 -0.5745 -0.2149 -0.0172
 4179TIP3    H212502   2.775   0.975   0.368 -1.1723  0.3701  1.3247
 4180TIP3   OH212503   5.133   4.813   2.798  0.4891 -0.3925 -0.4574
 4180TIP3    H112504   5.142   4.899   2.757 -0.3075 -0.1187 -0.0811
 4180TIP3    H212505   5.223   4.786   2.817  0.9043 -0.5051 -2.3051
 4181TIP3   OH212506   3.244   4.601   1.165  0.1347  0.4260 -0.4241
 4181TIP3    H112507   3.272   4.608   1.074  0.7924  1.2226 -0.1749
 4181TIP3    H212508   3.155   4.635   1.165  1.2318  3.6601 -0.2677
 4182TIP3   OH212509   3.706   5.115   4.950  0.2478  0.0564  0.0704
 4182TIP3    H112510   3.633   5.175   4.939 -0.1228 -0.2653  0.6977
 4182TIP3    H212511   3.722   5.114   5.044  0.3222 -0.7307  0.0551
 4183TIP3   OH212512   2.441   2.166   1.071 -0.2039  0.4546  0.6800
 4183TIP3    H112513   2.364   2.110   1.071  0.7333 -0.9004  1.0922
 4183TIP3    H212514   2.427   2.227   1.144 -1.0272  0.4400  0.5364
 4184TIP3   OH212515   1.253   6.015   0.473  0.4455  0.5818  0.0648
 4184TIP3    H112516   1.221   5.936   0.516 -0.4485  2.6818  3.6908
 4184TIP3    H212517   1.333   6.038   0.520  1.3697  1.2377 -1.7377
 4185TIP3   OH212518   2.344   6.428   2.636 -0.0385 -0.1217 -0.0409
 4185TIP3    H112519   2.260   6.452   2.599  0.5348  0.5650 -0.9254
 4185TIP3    H212520   2.355   6.486   2.711 -1.0684 -1.3163  1.0824
 4186TIP3   OH212521   4.764   1.948   3.767  0.4157  0.4414 -0.0295
 4186TIP3    H112522   4.803   1.928   3.682  1.6414  2.3159  0.0380
 4186TIP3    H212523   4.816   1.897   3.830  0.3953  0.1132 -0.2760
 4187TIP3   OH212524   3.234   3.409   3.347  0.1684  0.2425 -0.2604
 4187TIP3    H112525   3.171   3.439   3.412  1.4817 -0.9723  1.6600
 4187TIP3    H212526   3.309   3.468   3.356  0.7904 -0.5822  0.1216
 4188TIP3   OH212527   5.728   4.773   0.359  0.3698  0.4705  0.3689
 4188TIP3    H112528   5.718   4.780   0.454 -0.1059 -0.0550  0.3626
 4188TIP3    H212529   5.822   4.781   0.344  0.2776  2.6620  0.6986
 4189TIP3   OH212530   0.632   3.618   3.390  0.2236  0.3107  0.4993
 4189TIP3    H112531   0.692   3.688   3.363  1.6285 -1.2925 -0.7161
 4189TIP3    H212532   0.683   3.565   3.451 -0.9377  0.4697  1.6666
 4190TIP3   OH212533   1.903   0.540   2.367  0.2210 -0.0338  0.0849
 4190TIP3    H112534   1.951   0.476   2.314  2.2802  0.5740  1.1178
 4190TIP3    H212535   1.865   0.488   2.438 -2.3985 -0.8258 -1.7380
 4191TIP3   OH212536   0.233   5.223   4.307 -0.4784  0.2316  0.7708
 4191TIP3    H112537   0.192   5.224   4.220 -1.0634 -0.7315  1.0151
 4191TIP3    H212538   0.315   5.174   4.294 -0.4138  0.3567  0.7026
 4192TIP3   OH212539   2.474   1.018   0.428  0.2363 -0.2516 -0.3445
 4192TIP3    H112540   2.556   0.973   0.413 -0.5094 -1.8956  0.2630
 4192TIP3    H212541   2.408   0.963   0.387 -0.5650  1.0874 -0.9096
 4193TIP3   OH212542   3.913   0.129   1.950 -0.4991 -0.5261 -0.2161
 4193TIP3    H112543   3.940   0.054   2.002  3.5139  1.2480  0.5941
 4193TIP3    H212544   3.941   0.107   1.861  0.8998  0.0587  0.0648
 4194TIP3   OH212545   4.434   4.123  -0.005  0.1524  0.1907  0.7327
 4194TIP3    H112546   4.505   4.095   0.054 -0.0193 -1.4612  0.2006
 4194TIP3    H212547   4.364   4.060   0.010 -0.3124  0.4021 -0.4423
 4195TIP3   OH212548   2.595  -0.033   3.643  0.3079 -0.0159  0.3529
 4195TIP3    H112549   2.534   0.031   3.606  0.1612 -0.5191 -0.2785
 4195TIP3    H212550   2.655   0.020   3.696 -0.3871  0.5312  0.6021
 4196TIP3   OH212551   2.879   5.162   1.718  0.2552 -0.3562  0.5347
 4196TIP3    H112552   2.844   5.176   1.807 -1.1191 -1.4558  0.1937
 4196TIP3    H212553   2.806   5.124   1.670  2.1088 -3.4298 -0.0568
 4197TIP3   OH212554   6.732   3.519   4.507  0.4262 -0.4046  0.1446
 4197TIP3    H112555   6.825   3.542   4.509  0.6721 -1.3634  0.6238
 4197TIP3    H212556   6.708   3.525   4.415  0.7800  0.5271  0.1015
 4198TIP3   OH212557   2.279   1.323   4.274  0.0859  0.5442 -0.3710
 4198TIP3    H112558   2.246   1.393   4.217  0.7937  0.6456 -0.6731
 4198TIP3    H212559   2.281   1.361   4.361 -0.7373  0.4837 -0.3249
 4199TIP3   OH212560   0.546   5.442  -0.010  0.7772  0.3504  0.1349
 4199TIP3    H112561   0.497   5.454   0.072  0.9371 -1.6566  0.5782
 4199TIP3    H212562   0.638   5.448   0.016  0.8246 -0.0269  0.0536
 4200TIP3   OH212563   2.230   4.661   0.326  0.3808 -0.6181 -0.0595
 4200TIP3    H112564   2.306   4.683   0.273 -0.1244  0.1591 -0.4758
 4200TIP3    H212565   2.172   4.737   0.319  1.5557  0.9119  4.0200
 4201TIP3   OH212566   2.172   2.470   4.594  0.2666 -0.0534 -0.2331
 4201TIP3    H112567   2.134   2.435   4.513 -0.2894  0.9810 -0.4402
 4201TIP3    H212568   2.223   2.546   4.565  1.1881 -0.4887  0.2324
 4202TIP3   OH212569   3.940   0.271   2.388  0.1621  0.0854  0.5718
 4202TIP3    H112570   3.934   0.211   2.462  1.0829 -1.3587 -0.4652
 4202TIP3    H212571   3.854   0.264   2.345  0.2826 -0.5579  0.4236
 4203TIP3   OH212572   7.029   5.946   1.260  0.1321 -0.3414 -0.2888
 4203TIP3    H112573   6.969   6.018   1.241  0.7282  0.1060 -0.4717
 4203TIP3    H212574   7.053   5.911   1.175  3.4933  2.2216 -0.6038
 4204TIP3   OH212575   0.345   2.697   2.145 -0.0237  0.2041  0.1948
 4204TIP3    H112576   0.303   2.663   2.224 -0.7568  1.2131  0.2699
 4204TIP3    H212577   0.424   2.740   2.176 -0.0180  0.1083  0.3130
 4205TIP3   OH212578   2.322   0.153   2.218 -0.0039  0.1315  0.1411
 4205TIP3    H112579   2.375   0.115   2.148 -1.1138  1.6610 -1.6579
 4205TIP3    H212580   2.253   0.089   2.234  0.0344 -0.0765 -0.4879
 4206TIP3   OH212581   2.970   5.427   4.466 -0.0446 -0.6822 -0.4397
 4206TIP3    H112582   2.969   5.403   4.559  3.0802 -2.6032 -0.7599
 4206TIP3    H212583   2.884   5.400   4.434 -1.1458 -0.1267  1.7997
 4207TIP3   OH212584   0.468   2.811   3.874  0.0286  0.5732  0.2288
 4207TIP3    H112585   0.395   2.815   3.812  0.3252 -0.2710 -0.1864
 4207TIP3    H212586   0.429   2.779   3.956  0.0822 -0.8768 -0.2763
 4208TIP3   OH212587   5.474   0.005   0.919 -0.0650  0.2536  0.0021
 4208TIP3    H112588   5.474   0.101   0.925 -0.2277  0.2846 -0.4396
 4208TIP3    H212589   5.497  -0.024   1.007 -0.4859  0.6919  0.2663
 4209TIP3   OH212590   1.064   0.307   0.114  0.4022  0.8031 -0.6615
 4209TIP3    H112591   1.035   0.388   0.072 -0.7588  0.5904 -0.3099
 4209TIP3    H212592   1.058   0.326   0.208 -0.2936  0.1768 -0.5748
 4210TIP3   OH212593   1.600   4.545   5.625 -0.3922  0.0124 -0.6578
 4210TIP3    H112594   1.543   4.579   5.555 -0.7010 -0.2969 -0.5579
 4210TIP3    H212595   1.553   4.469   5.659 -0.0158 -0.1193 -0.4312
 4211TIP3   OH212596   3.494   0.360   0.594  0.0455 -0.1646 -0.3781
 4211TIP3    H112597   3.447   0.381   0.674  1.7906  0.8537  0.4312
 4211TIP3    H212598   3.532   0.274   0.610 -0.6352 -0.5146 -0.6162
 4212TIP3   OH212599   0.355   0.963   1.371 -0.3555  0.1709  0.2580
 4212TIP3    H112600   0.405   0.917   1.303  0.1886 -0.5712  1.1409
 4212TIP3    H212601   0.379   1.055   1.360  2.1623 -0.2677  1.3711
 4213TIP3   OH212602   1.285   4.461   5.117 -0.1905  0.0469  0.2497
 4213TIP3    H112603   1.310   4.381   5.162  0.1565  0.0967  0.1481
 4213TIP3    H212604   1.243   4.431   5.036  1.5717 -0.0397 -0.6783
 4214TIP3   OH212605   3.570   5.763   0.931 -0.0001  0.7284 -0.1863
 4214TIP3    H112606   3.486   5.809   0.928 -0.7504 -0.4861  0.9859
 4214TIP3    H212607   3.557   5.694   0.996  1.0389 -1.2095 -1.9106
 4215TIP3   OH212608   0.454   3.715   2.828 -0.0167  0.3203 -0.2332
 4215TIP3    H112609   0.533   3.768   2.842 -0.6241  1.2419 -0.2226
 4215TIP3    H212610   0.488   3.628   2.807  1.0144  0.7720 -0.5440
 4216TIP3   OH212611   6.222   6.138   5.720  0.3607  0.2064 -0.2647
 4216TIP3    H112612   6.215   6.193   5.642  0.1347  1.6501  0.7395
 4216TIP3    H212613   6.306   6.162   5.758  1.2512 -1.6900 -0.8983
 4217TIP3   OH212614   6.200   5.650   0.948 -0.1199 -0.0629  0.1430
 4217TIP3    H112615   6.258   5.654   1.024  0.0004  1.7712 -0.0088
 4217TIP3    H212616   6.115   5.624   0.984  0.4815 -1.5864  0.5326
 4218TIP3   OH212617   6.113   4.344   2.397  0.0569  0.4226 -0.6135
 4218TIP3    H112618   6.150   4.382   2.477 -1.5003 -2.5265  1.7195
 4218TIP3    H212619   6.026   4.385   2.390 -0.0902  0.1736 -0.3208
 4219TIP3   OH212620   5.668   3.639   3.706  0.1664  0.7208  0.4458
 4219TIP3    H112621   5.643   3.730   3.693  1.6964  1.0290 -0.4642
 4219TIP3    H212622   5.726   3.618   3.633  0.4520 -0.7625  1.0494
 4220TIP3   OH212623   0.278   3.515   1.137 -0.6560 -0.3046 -0.4688
 4220TIP3    H112624   0.348   3.573   1.167  3.9920 -3.6915 -3.4508
 4220TIP3    H212625   0.242   3.557   1.059 -0.4012  0.4724 -0.1715
 4221TIP3   OH212626   1.292   3.145   1.053 -0.0710 -0.1060  0.0320
 4221TIP3    H112627   1.231   3.218   1.047 -0.1300 -0.2708 -1.9190
 4221TIP3    H212628   1.237   3.067   1.043  0.3103 -0.3078 -0.4923
 4222TIP3   OH212629   1.501   0.865   2.992  0.2791  0.1542 -0.1231
 4222TIP3    H112630   1.425   0.856   2.934  0.4162 -0.0699 -0.2715
 4222TIP3    H212631   1.473   0.823   3.073  0.4382 -0.4405 -0.3655
 4223TIP3   OH212632   7.075   2.080   5.215  0.1247 -0.1743  0.0068
 4223TIP3    H112633   7.127   2.056   5.138 -0.7036  0.1631 -0.6702
 4223TIP3    H212634   7.126   2.150   5.257 -0.5244  1.3205 -1.5603
 4224TIP3   OH212635   0.624   1.258   2.013 -0.6975 -0.4313  0.4527
 4224TIP3    H112636   0.691   1.269   1.945  0.2051 -2.1001  1.0084
 4224TIP3    H212637   0.670   1.272   2.095 -1.3242 -0.4118  0.8052
 4225TIP3   OH212638   2.587   1.089   5.700 -0.2865  0.1319 -0.4769
 4225TIP3    H112639   2.542   1.024   5.646  1.9754 -1.2395 -0.8860
 4225TIP3    H212640   2.633   1.145   5.638  0.0933  0.3056 -0.0491
 4226TIP3   OH212641   0.405   2.305   5.816 -0.0394  0.2336 -0.5200
 4226TIP3    H112642   0.360   2.293   5.900  0.5720 -1.0686 -0.3542
 4226TIP3    H212643   0.441   2.393   5.821 -0.1260  0.2259  0.5408
 4227TIP3   OH212644   4.838   4.541   4.248  0.2368  0.1608  0.0662
 4227TIP3    H112645   4.763   4.549   4.307  0.3003 -1.3246  0.3975
 4227TIP3    H212646   4.888   4.466   4.282  1.2787  0.4298 -0.7894
 4228TIP3   OH212647   2.836   4.474   1.974 -0.3134  0.0903  0.4083
 4228TIP3    H112648   2.931   4.460   1.964 -0.5096 -0.7816 -0.2826
 4228TIP3    H212649   2.821   4.462   2.068 -0.0394 -1.7616  0.2450
 4229TIP3   OH212650   1.453   2.642   1.724 -0.2797 -0.0630 -0.1904
 4229TIP3    H112651   1.398   2.618   1.798 -0.9115 -0.0591 -0.6496
 4229TIP3    H212652   1.432   2.734   1.706 -0.1316 -0.0628 -0.3743
 4230TIP3   OH212653   4.991   6.155   3.530  0.7683  0.1515 -0.1148
 4230TIP3    H112654   5.058   6.168   3.596  0.7628 -0.3940  0.0030
 4230TIP3    H212655   5.014   6.071   3.488 -0.2475 -0.4150  0.4284
 4231TIP3   OH212656   6.406   6.242   3.953  0.6024 -0.1274  0.2078
 4231TIP3    H112657   6.310   6.250   3.949  0.6981  1.0122 -0.4380
 4231TIP3    H212658   6.438   6.330   3.931  1.7905 -0.2003  1.4957
 4232TIP3   OH212659   1.525   1.765   2.708 -0.1111 -0.1990 -0.6239
 4232TIP3    H112660   1.494   1.819   2.635 -1.5845 -1.7406 -1.1792
 4232TIP3    H212661   1.516   1.675   2.678 -1.0731 -0.9124  1.5747
 4233TIP3   OH212662   5.375   1.688   4.965  0.7552  0.4592  0.6368
 4233TIP3    H112663   5.457   1.662   4.922 -0.8611 -1.7416 -1.4088
 4233TIP3    H212664   5.330   1.741   4.899 -0.6446 -0.7803  0.5404
 4234TIP3   OH212665   3.308   4.000   0.071  0.4196  0.2783  0.3672
 4234TIP3    H112666   3.235   3.939   0.061  0.8949 -0.3664  0.7555
 4234TIP3    H212667   3.307   4.026   0.163  0.7609  0.1587  0.4080
 4235TIP3   OH212668   2.691   3.170   0.202  0.0608 -0.0600 -0.0773
 4235TIP3    H112669   2.701   3.145   0.110 -1.3085  0.5207 -0.3954
 4235TIP3    H212670   2.711   3.264   0.204  0.8231 -0.2205  0.3593
 4236TIP3   OH212671   4.779   0.803   0.913 -0.2758 -0.6226  0.0124
 4236TIP3    H112672   4.831   0.836   0.840 -1.2920  0.3197 -0.3085
 4236TIP3    H212673   4.783   0.873   0.979  0.0037 -1.1387  0.5475
 4237TIP3   OH212674   2.202   1.538   4.777 -0.8681 -0.0779  0.0133
 4237TIP3    H112675   2.196   1.615   4.720 -1.3920 -0.3973 -0.3618
 4237TIP3    H212676   2.258   1.567   4.850 -0.6637  0.5060 -0.3687
 4238TIP3   OH212677   0.890   3.068   2.013 -0.0919 -0.0469 -0.1287
 4238TIP3    H112678   0.890   3.137   1.947  1.2225 -0.1952 -0.2989
 4238TIP3    H212679   0.976   3.027   2.006 -0.9055 -1.8878 -0.2153
 4239TIP3   OH212680   4.053   1.407   2.516 -0.1466  0.0864  0.2611
 4239TIP3    H112681   4.004   1.488   2.530 -0.0452  0.2627 -0.3573
 4239TIP3    H212682   3.987   1.342   2.494 -0.0198  0.7312 -2.3843
 4240TIP3   OH212683   3.603   0.048   2.536  0.5706  0.0711  0.0225
 4240TIP3    H112684   3.668   0.009   2.478  1.6263  0.6569  0.7717
 4240TIP3    H212685   3.519   0.022   2.499  1.2274 -1.1910 -0.6450
 4241TIP3   OH212686   4.823   1.272   0.646 -0.4933 -0.1361 -0.6009
 4241TIP3    H112687   4.768   1.207   0.691  1.3721 -0.7679  0.8844
 4241TIP3    H212688   4.890   1.221   0.601  0.5998  0.6871  0.0349
 4242TIP3   OH212689   6.456   4.339   2.709  0.1254  0.0293 -0.2626
 4242TIP3    H112690   6.537   4.374   2.747 -0.3077 -0.1886  0.8997
 4242TIP3    H212691   6.421   4.281   2.776  0.9909 -2.9703 -2.2285
 4243TIP3   OH212692   6.140   6.804   2.276 -0.1261  0.6358  0.8543
 4243TIP3    H112693   6.187   6.721   2.287  1.6438  0.6701 -4.1177
 4243TIP3    H212694   6.065   6.781   2.220  0.5233  2.3046 -0.7975
 4244TIP3   OH212695   6.069   2.958   1.530  0.1212 -0.2429  0.1774
 4244TIP3    H112696   6.146   3.008   1.557 -0.6407  0.4252  1.1568
 4244TIP3    H212697   5.994   3.005   1.567 -0.7527 -1.0375 -0.5083
 4245TIP3   OH212698   7.046   4.422   2.518 -0.2374  0.2133  0.0271
 4245TIP3    H112699   7.057   4.408   2.612  1.5353  3.4217  0.4430
 4245TIP3    H212700   6.967   4.475   2.510 -0.2493  0.1528 -0.2821
 4246TIP3   OH212701   0.570   3.384   1.302  0.2341  0.6340 -0.4990
 4246TIP3    H112702   0.584   3.289   1.307  1.9094  0.7948 -1.7324
 4246TIP3    H212703   0.536   3.399   1.214  1.0157  1.2931 -0.6993
 4247TIP3   OH212704   2.918   4.793   4.965 -0.3229 -0.3142  0.0702
 4247TIP3    H112705   2.995   4.850   4.963 -2.3280  2.6461  0.2866
 4247TIP3    H212706   2.949   4.712   5.005  2.9119  0.2541 -0.9945
 4248TIP3   OH212707   5.375   0.967   1.147 -0.1786  0.0946  0.1765
 4248TIP3    H112708   5.452   0.910   1.152 -0.3136 -0.0530  0.7257
 4248TIP3    H212709   5.410   1.055   1.161  0.0694  0.1895 -0.9589
 4249TIP3   OH212710   5.579   6.650   2.101 -0.4542 -0.3740 -0.5594
 4249TIP3    H112711   5.611   6.706   2.172 -0.9489 -1.1483  0.2967
 4249TIP3    H212712   5.484   6.655   2.108 -0.5159  0.2727 -1.7664
 4250TIP3   OH212713   3.188   5.588   4.378 -0.0699  0.0731  0.2265
 4250TIP3    H112714   3.110   5.548   4.417 -0.2512  1.1500  1.0060
 4250TIP3    H212715   3.253   5.585   4.449  0.6833 -1.0002 -0.4770
 4251TIP3   OH212716   1.968   1.377   5.456  0.4551 -0.0524 -0.3829
 4251TIP3    H112717   2.015   1.424   5.387  0.9681  0.2479  0.1623
 4251TIP3    H212718   1.956   1.289   5.421 -2.2229  0.9240 -2.2227
 4252TIP3   OH212719   6.394   3.615   2.662  0.8719 -0.0295 -0.2963
 4252TIP3    H112720   6.476   3.567   2.651  1.6196  1.4619 -1.8657
 4252TIP3    H212721   6.345   3.565   2.727  2.3268 -1.8770 -0.5259
 4253TIP3   OH212722   3.000   4.261   5.557 -0.2308 -0.6613 -0.6864
 4253TIP3    H112723   3.006   4.170   5.527 -1.2637 -0.6904 -0.8557
 4253TIP3    H212724   2.906   4.278   5.562 -0.0556  0.0239  0.5193
 4254TIP3   OH212725   1.401   4.648   5.464 -0.1709 -0.0172  0.4693
 4254TIP3    H112726   1.438   4.661   5.377  0.0251  0.7795  0.6620
 4254TIP3    H212727   1.388   4.737   5.498  0.7161 -0.3204  1.6479
 4255TIP3   OH212728   5.784   1.321   4.462  1.0704 -0.3652 -0.4170
 4255TIP3    H112729   5.732   1.272   4.526 -0.3686  1.0348 -0.4515
 4255TIP3    H212730   5.847   1.257   4.429 -0.0786 -1.9200  0.2375
 4256TIP3   OH212731   0.817   2.655   3.614  0.1334 -0.3549  0.2011
 4256TIP3    H112732   0.822   2.728   3.552  1.1440 -1.1747 -0.7246
 4256TIP3    H212733   0.733   2.666   3.658  0.1593  1.2092 -0.1026
 4257TIP3   OH212734   1.815   1.894   1.376 -0.6161  0.0562 -0.6678
 4257TIP3    H112735   1.897   1.935   1.350 -0.8133 -0.5719 -2.4535
 4257TIP3    H212736   1.758   1.966   1.401 -0.2914  0.6894 -1.7263
 4258TIP3   OH212737   4.513   2.721   5.587  0.4383 -0.1612 -0.0088
 4258TIP3    H112738   4.472   2.696   5.504  3.2508 -0.3883 -1.4555
 4258TIP3    H212739   4.499   2.815   5.594 -1.3293 -0.4035  0.2178
 4259TIP3   OH212740   0.099   0.352   4.343 -0.2674  0.5490  0.0956
 4259TIP3    H112741   0.189   0.344   4.375 -0.4782  1.0888  0.8608
 4259TIP3    H212742   0.079   0.445   4.352 -0.5794  0.5915 -0.9791
 4260TIP3   OH212743   5.018   1.844   4.554  0.1866  0.1474 -0.0023
 4260TIP3    H112744   5.070   1.767   4.574  1.2933  0.9733  0.4299
 4260TIP3    H212745   4.934   1.810   4.524 -0.6312 -1.2471  3.4397
 4261TIP3   OH212746   1.688   4.486   3.674  0.7891  0.3162  0.0860
 4261TIP3    H112747   1.631   4.555   3.640 -1.8822 -1.3351  0.8909
 4261TIP3    H212748   1.698   4.425   3.601 -0.1238 -0.3345  0.4787
 4262TIP3   OH212749   3.542   0.062   3.276  0.2891  0.0114  0.1511
 4262TIP3    H112750   3.500   0.035   3.358  0.6691  0.0254  0.3561
 4262TIP3    H212751   3.493   0.138   3.247 -0.8249 -0.8964 -0.4471
 4263TIP3   OH212752   6.986  -0.026   0.338  0.0857 -0.6748 -0.1971
 4263TIP3    H112753   6.996   0.026   0.259 -0.8764 -2.2609 -1.4346
 4263TIP3    H212754   7.053   0.007   0.398  2.4376 -0.9421 -2.5054
 4264TIP3   OH212755   0.977   1.972   1.988  0.3818 -0.6182  0.1202
 4264TIP3    H112756   0.973   1.967   1.893 -1.2290 -0.9076  0.1834
 4264TIP3    H212757   0.930   1.895   2.019  0.2066 -0.1227  1.1421
 4265TIP3   OH212758   5.359   1.380   1.825 -0.3482 -0.0337  0.2440
 4265TIP3    H112759   5.266   1.369   1.809 -0.5674  1.1136  0.6697
 4265TIP3    H212760   5.367   1.394   1.919  0.2674 -0.1778  0.2235
 4266TIP3   OH212761   4.871   3.377   4.065 -0.3124 -0.5377 -0.6318
 4266TIP3    H112762   4.796   3.340   4.111  0.0963 -0.4594  0.1042
 4266TIP3    H212763   4.934   3.306   4.060  0.2236 -0.1351  0.2347
 4267TIP3   OH212764   4.834   4.566   2.345  0.0554  0.0435 -0.0964
 4267TIP3    H112765   4.801   4.476   2.339 -1.8299  0.6822  0.1466
 4267TIP3    H212766   4.813   4.594   2.434  2.0781  0.2326  0.3834
 4268TIP3   OH212767   2.912   3.629   4.745  0.5954  0.1282  0.2927
 4268TIP3    H112768   2.998   3.592   4.766  1.0008  1.1633  0.5302
 4268TIP3    H212769   2.922   3.664   4.656 -0.0683 -1.1335 -0.3089
 4269TIP3   OH212770   7.050   4.334   4.311  0.1718  0.1187 -0.0061
 4269TIP3    H112771   6.962   4.340   4.273  0.4333 -0.3864 -0.7146
 4269TIP3    H212772   7.052   4.247   4.351 -0.1416  0.6957  1.2894
 4270TIP3   OH212773   5.352   2.953   3.087 -0.3189 -0.1747 -0.1325
 4270TIP3    H112774   5.302   3.001   3.153  0.1753 -1.3362  1.1228
 4270TIP3    H212775   5.329   2.861   3.100 -0.2511 -0.4326 -1.6282
 4271TIP3   OH212776   6.392   5.757   5.388 -0.0594 -0.7354 -0.4254
 4271TIP3    H112777   6.386   5.823   5.319 -0.2690  1.0692  1.2311
 4271TIP3    H212778   6.304   5.753   5.425  0.1763 -1.2883  0.0883
 4272TIP3   OH212779   1.498   2.885   4.570 -0.7257  0.2107 -0.0503
 4272TIP3    H112780   1.491   2.955   4.634  1.3173  0.1328  0.3160
 4272TIP3    H212781   1.535   2.811   4.618 -2.5032 -1.0467 -0.5124
 4273TIP3   OH212782   2.387   0.597   5.204 -0.1678 -0.4159 -0.3683
 4273TIP3    H112783   2.352   0.592   5.115  1.0581  1.5085 -1.0323
 4273TIP3    H212784   2.478   0.569   5.195 -0.1267 -0.5306  0.3490
 4274TIP3   OH212785   2.984   2.280   4.439 -0.3554 -0.3704 -0.3157
 4274TIP3    H112786   2.918   2.272   4.507  0.0937  1.3491  0.3919
 4274TIP3    H212787   2.939   2.324   4.367 -0.3499 -0.4648 -0.3759
 4275TIP3   OH212788   5.655   6.333   1.472 -0.1053 -0.2718 -0.3196
 4275TIP3    H112789   5.606   6.258   1.507 -2.6839  1.2046 -0.4877
 4275TIP3    H212790   5.694   6.301   1.391 -0.2021 -1.7140  0.1689
 4276TIP3   OH212791   1.258   0.276   0.634  0.1257 -0.0087  0.1357
 4276TIP3    H112792   1.231   0.186   0.649  1.9545 -0.5598  0.3808
 4276TIP3    H212793   1.329   0.270   0.569 -2.9552  1.7181 -3.8177
 4277TIP3   OH212794   2.579   5.137   1.886  0.1806  0.3540 -0.2352
 4277TIP3    H112795   2.531   5.100   1.960 -1.2749  1.8423 -0.3957
 4277TIP3    H212796   2.630   5.209   1.923  0.1222  0.5524 -0.5334
 4278TIP3   OH212797   6.677   2.371   0.080  0.3515  0.4111  0.4991
 4278TIP3    H112798   6.770   2.355   0.065  0.3378  1.1410 -0.5449
 4278TIP3    H212799   6.645   2.292   0.124  1.3244 -0.1271  0.2694
 4279TIP3   OH212800   7.117   6.541   3.270 -0.1756  0.2325 -0.2359
 4279TIP3    H112801   7.081   6.555   3.358 -0.5184 -1.3563 -0.1021
 4279TIP3    H212802   7.052   6.581   3.212 -1.3005 -1.0161  0.1068
 4280TIP3   OH212803   6.008   0.437   1.022 -0.5229  0.0992 -0.1883
 4280TIP3    H112804   5.994   0.374   0.951 -0.0091 -1.8948  1.3544
 4280TIP3    H212805   6.103   0.448   1.026 -0.4248 -0.9759  1.0792
 4281TIP3   OH212806   5.855   4.646   1.421  0.1339 -0.2143  0.0133
 4281TIP3    H112807   5.946   4.625   1.441  0.2876  0.9137  0.5730
 4281TIP3    H212808   5.820   4.566   1.381  1.6221 -0.3315 -1.1097
 4282TIP3   OH212809   0.291   1.851   5.555  0.3227  0.3176 -0.4695
 4282TIP3    H112810   0.204   1.882   5.528 -0.7319 -0.7240  1.4749
 4282TIP3    H212811   0.325   1.921   5.611 -0.0398 -0.0132  0.1745
 4283TIP3   OH212812   6.895   2.514   5.705 -0.6366 -0.2915  0.3182
 4283TIP3    H112813   6.971   2.530   5.649 -0.2644 -0.5160  0.7526
 4283TIP3    H212814   6.933   2.494   5.791 -1.1906 -0.3229  0.5559
 4284TIP3   OH212815   3.943   6.303   1.829  0.0580  0.6427  0.3015
 4284TIP3    H112816   3.852   6.329   1.838  0.1492  0.8781  0.5421
 4284TIP3    H212817   3.939   6.210   1.806 -0.2821  0.9442 -0.9597
 4285TIP3   OH212818   6.653   5.692   5.490 -0.3798 -0.2073  0.4586
 4285TIP3    H112819   6.687   5.735   5.569  0.5870 -0.7423  0.3485
 4285TIP3    H212820   6.560   5.716   5.488 -0.0012  1.3483  0.7300
 4286TIP3   OH212821   5.268   3.142   4.759 -0.0593  0.1933  0.4227
 4286TIP3    H112822   5.198   3.109   4.816 -2.0109  1.7482 -0.9591
 4286TIP3    H212823   5.294   3.224   4.799 -1.1578  1.0909 -0.6345
 4287TIP3   OH212824   6.528   4.130   3.665  0.1109  0.2886  0.0627
 4287TIP3    H112825   6.441   4.129   3.624  0.5250  1.4873 -0.9455
 4287TIP3    H212826   6.517   4.081   3.746 -1.2690 -0.4089 -0.5069
 4288TIP3   OH212827   3.735   0.353   0.200 -0.4322  0.2485 -0.2014
 4288TIP3    H112828   3.722   0.258   0.201 -0.4868  0.2117  2.2203
 4288TIP3    H212829   3.798   0.368   0.129 -0.7348 -1.5350 -0.9060
 4289TIP3   OH212830   5.059   4.581   0.352  0.2431 -0.2237 -0.2114
 4289TIP3    H112831   5.091   4.650   0.410  0.0014  0.7982 -1.2792
 4289TIP3    H212832   5.093   4.603   0.266 -1.9945  0.0304 -1.0802
 4290TIP3   OH212833   0.297   3.169   0.903  0.0821  0.1907  0.2190
 4290TIP3    H112834   0.291   3.135   0.993 -0.9244  0.3427  0.2132
 4290TIP3    H212835   0.354   3.107   0.858  0.3333 -0.0662  0.8745
 4291TIP3   OH212836   4.181   3.425   1.706 -0.2882 -0.6468  0.3568
 4291TIP3    H112837   4.150   3.335   1.692  0.8925 -1.0961  0.5156
 4291TIP3    H212838   4.274   3.415   1.728  0.4322  0.7378 -1.7342
 4292TIP3   OH212839   5.881   6.095   2.231  0.3008  0.0551 -0.0604
 4292TIP3    H112840   5.889   6.183   2.195  0.1315 -0.6164 -1.8819
 4292TIP3    H212841   5.963   6.052   2.206 -0.1970 -0.7023 -0.4294
 4293TIP3   OH212842   5.083   4.965   0.033  0.1369  0.1996 -0.3285
 4293TIP3    H112843   5.057   4.882  -0.006  0.6697 -0.8133  1.3437
 4293TIP3    H212844   5.097   4.944   0.125  2.5820  1.6271 -0.2985
 4294TIP3   OH212845   1.637   4.093   3.936  0.1090  0.2067  0.1188
 4294TIP3    H112846   1.639   4.150   4.013 -0.5854 -0.5207  0.6948
 4294TIP3    H212847   1.701   4.024   3.956 -0.0972 -0.0013  0.0664
 4295TIP3   OH212848   3.381   0.967   0.235  0.1140  0.2728 -0.6333
 4295TIP3    H112849   3.348   0.935   0.152  0.8462  2.8180 -2.0030
 4295TIP3    H212850   3.324   1.041   0.257  1.4079  1.1532 -0.1383
 4296TIP3   OH212851   4.104   0.472   1.087  0.1715  0.2739  0.2451
 4296TIP3    H112852   4.091   0.447   1.179  1.3874  0.4868  0.4944
 4296TIP3    H212853   4.123   0.566   1.090  3.5091 -0.2671  0.1856
 4297TIP3   OH212854   4.242   6.341   5.733  0.3042  0.6767  0.9498
 4297TIP3    H112855   4.167   6.391   5.699 -0.6102 -0.9683  0.4583
 4297TIP3    H212856   4.303   6.335   5.660 -1.1225 -1.8089 -0.1746
 4298TIP3   OH212857   5.357   2.007   0.784 -0.3380 -0.3238 -0.0398
 4298TIP3    H112858   5.319   2.078   0.731  0.1070 -0.1915 -0.1871
 4298TIP3    H212859   5.423   1.968   0.727 -1.2871 -1.5412 -0.3522
 4299TIP3   OH212860   2.277   4.725   4.290 -0.2694 -0.2433 -0.5547
 4299TIP3    H112861   2.333   4.654   4.322 -1.5434 -0.2799  1.9023
 4299TIP3    H212862   2.210   4.680   4.238 -0.0485 -0.6505 -0.4953
 4300TIP3   OH212863   3.354   4.830   3.568 -0.0382  0.2261  0.3642
 4300TIP3    H112864   3.359   4.915   3.525 -0.9654 -0.9487 -2.2784
 4300TIP3    H212865   3.420   4.776   3.524  0.4287 -0.5199  1.8758
 4301TIP3   OH212866   6.096   3.476   1.389 -0.1596  0.0622 -0.0707
 4301TIP3    H112867   6.096   3.567   1.361  2.1563  0.1981  0.1875
 4301TIP3    H212868   6.094   3.425   1.308 -1.1322  0.3123 -0.2196
 4302TIP3   OH212869   0.671   1.948   5.146 -0.4711  0.3161 -0.2437
 4302TIP3    H112870   0.608   1.878   5.128  0.1996 -0.4110  0.2155
 4302TIP3    H212871   0.753   1.903   5.164  0.0103  1.2300 -0.1005
 4303TIP3   OH212872   1.086   2.982   1.532 -0.5015  0.3087 -0.4966
 4303TIP3    H112873   1.065   2.995   1.440  2.0722  1.9321 -0.9737
 4303TIP3    H212874   1.038   3.050   1.578 -1.3754 -0.1700 -0.6902
 4304TIP3   OH212875   3.664   5.464   5.762 -0.0147 -0.4351 -0.2371
 4304TIP3    H112876   3.583   5.515   5.750  0.1550  0.0183  0.4652
 4304TIP3    H212877   3.639   5.395   5.823  0.0028 -0.6098 -0.4264
 4305TIP3   OH212878   0.697   1.628   3.431 -0.0611  0.1944  0.3812
 4305TIP3    H112879   0.778   1.578   3.445 -0.9841 -1.2086  0.9952
 4305TIP3    H212880   0.679   1.669   3.516  0.7309  1.6960 -0.1393
 4306TIP3   OH212881   6.430   0.676   4.178  0.2446  0.1125  0.2460
 4306TIP3    H112882   6.368   0.737   4.218  0.4406  1.1378 -0.9679
 4306TIP3    H212883   6.512   0.691   4.225 -0.3754 -1.3096  1.9192
 4307TIP3   OH212884   2.520   0.076   3.350  0.4658  0.5454 -0.2877
 4307TIP3    H112885   2.438   0.078   3.399  0.1149 -1.6140 -0.6675
 4307TIP3    H212886   2.493   0.061   3.259  1.2555  0.2999 -0.4871
 4308TIP3   OH212887   0.177   3.801   4.212 -0.1799 -0.6356  0.6235
 4308TIP3    H112888   0.095   3.753   4.227  0.4008 -1.6334  0.7326
 4308TIP3    H212889   0.185   3.807   4.117 -0.7557  0.1390  0.6225
 4309TIP3   OH212890   1.120   3.655   5.039  0.1880  0.4362 -0.2822
 4309TIP3    H112891   1.072   3.579   5.009 -1.5008  1.2819  0.1611
 4309TIP3    H212892   1.142   3.703   4.959  1.1433 -0.4225 -0.5516
 4310TIP3   OH212893   3.300   2.664   2.257  0.5256 -0.2778  0.4234
 4310TIP3    H112894   3.303   2.596   2.324  0.5235  0.2906  1.0185
 4310TIP3    H212895   3.285   2.617   2.175  2.4758 -1.1818  0.5294
 4311TIP3   OH212896   4.813   0.152   5.627  0.3998  0.0284 -0.0031
 4311TIP3    H112897   4.843   0.061   5.627  1.0220  0.2259 -0.7485
 4311TIP3    H212898   4.807   0.175   5.720  0.4654 -0.7029  0.1857
 4312TIP3   OH212899   1.560   0.547   1.353 -0.1378 -0.1432 -0.5004
 4312TIP3    H112900   1.574   0.453   1.343  0.5171 -0.0346 -0.6491
 4312TIP3    H212901   1.648   0.583   1.365 -0.3698  0.4733 -0.6198
 4313TIP3   OH212902   2.815   0.826   5.771 -0.4386 -0.1418  0.5191
 4313TIP3    H112903   2.804   0.905   5.718  0.0229  0.2463  0.9980
 4313TIP3    H212904   2.754   0.838   5.844 -1.5209 -0.9504 -0.2154
 4314TIP3   OH212905   2.037   6.796   0.991 -0.5673  0.1513  0.1402
 4314TIP3    H112906   2.101   6.851   1.037 -0.2711  1.1673 -1.3891
 4314TIP3    H212907   2.078   6.710   0.987  0.7081  0.7649 -0.7310
 4315TIP3   OH212908   2.359   2.207   4.448  0.2298  0.2591  0.5888
 4315TIP3    H112909   2.412   2.285   4.429 -0.4104  0.6506  0.3773
 4315TIP3    H212910   2.269   2.235   4.432  0.1256 -1.1647 -1.7825
 4316TIP3   OH212911   3.287   1.189   0.788  0.0515  0.4766  0.0820
 4316TIP3    H112912   3.381   1.178   0.806  0.3670  2.7113  0.0932
 4316TIP3    H212913   3.276   1.284   0.779 -1.9669  0.1638 -1.3134
 4317TIP3   OH212914   1.862   1.760   0.784  0.5551 -0.3630  0.1622
 4317TIP3    H112915   1.780   1.799   0.814 -0.1160 -2.0321  0.5743
 4317TIP3    H212916   1.878   1.802   0.699  0.9034  2.2080  1.3979
 4318TIP3   OH212917   0.428   2.796   1.737 -0.0851  0.1840 -0.4988
 4318TIP3    H112918   0.476   2.863   1.785 -0.2209 -0.2368  0.2464
 4318TIP3    H212919   0.423   2.829   1.648 -0.5842  1.4060 -0.0397
 4319TIP3   OH212920   3.999   2.349   5.747 -0.7125 -0.0402  0.6006
 4319TIP3    H112921   3.915   2.383   5.776 -1.8130 -2.4116  0.4608
 4319TIP3    H212922   4.017   2.394   5.665 -1.1781  1.4057  1.2518
 4320TIP3   OH212923   0.995   1.030   1.074  0.3111 -0.8080  0.3675
 4320TIP3    H112924   1.072   0.977   1.092  1.9960  1.8840  1.6911
 4320TIP3    H212925   1.029   1.108   1.029 -1.9831 -0.5660 -1.1555
 4321TIP3   OH212926   4.948   6.233   4.292 -0.5808  0.2452  0.0669
 4321TIP3    H112927   5.026   6.255   4.342  0.7983  0.4399 -2.0714
 4321TIP3    H212928   4.935   6.139   4.307  0.3267  0.1187  0.0717
 4322TIP3   OH212929   6.572   3.044   3.460 -0.7535  0.3206 -0.1158
 4322TIP3    H112930   6.607   3.030   3.548 -0.0316  1.1711 -0.2526
 4322TIP3    H212931   6.514   2.969   3.445  0.0945 -0.4994  0.5847
 4323TIP3   OH212932   6.777   6.195   0.121 -0.3671 -0.3235 -0.1427
 4323TIP3    H112933   6.720   6.249   0.176  0.6689  1.0857 -0.3978
 4323TIP3    H212934   6.762   6.228   0.032  2.1283  1.3617 -0.0272
 4324TIP3   OH212935   1.981   3.326   4.994 -0.1545  0.7420  0.3222
 4324TIP3    H112936   1.898   3.294   5.029 -0.4878 -0.3530 -1.3782
 4324TIP3    H212937   2.048   3.271   5.036 -0.5852 -0.9490 -1.1020
 4325TIP3   OH212938   0.346   0.175   3.338  0.2083  0.0652 -0.4635
 4325TIP3    H112939   0.325   0.082   3.325  0.4552  0.2540 -2.5865
 4325TIP3    H212940   0.268   0.222   3.307  0.3293  0.5873  0.0054
 4326TIP3   OH212941   0.601   6.621   1.201 -0.1796 -0.1391 -0.2359
 4326TIP3    H112942   0.670   6.644   1.263 -0.1753 -0.6200 -0.0579
 4326TIP3    H212943   0.624   6.532   1.171  0.0591  0.2433 -1.2558
 4327TIP3   OH212944   5.427   0.545   3.530  0.6872  0.0606 -0.0984
 4327TIP3    H112945   5.365   0.559   3.602  2.2237  0.2911  1.2324
 4327TIP3    H212946   5.413   0.619   3.472  0.1641  0.4672  0.5230
 4328TIP3   OH212947   2.548   4.820   2.740 -0.6316 -0.3018 -0.6834
 4328TIP3    H112948   2.558   4.731   2.708 -0.5375  0.3692 -2.6419
 4328TIP3    H212949   2.636   4.848   2.764 -0.2464  0.0602 -2.4027
 4329TIP3   OH212950   0.179   0.791   4.853 -0.2317  0.3953 -0.1804
 4329TIP3    H112951   0.196   0.744   4.771 -0.5520  0.4089 -0.2550
 4329TIP3    H212952   0.264   0.796   4.896 -0.4471 -1.7638  0.6193
 4330TIP3   OH212953   6.593   3.306   3.375 -0.0716 -0.4650 -0.2815
 4330TIP3    H112954   6.579   3.224   3.421  1.2733 -0.2654  0.5239
 4330TIP3    H212955   6.687   3.321   3.379 -0.4991  2.5831  2.2319
 4331TIP3   OH212956   5.637   0.624   3.184  0.7462  0.2459 -0.3337
 4331TIP3    H112957   5.655   0.675   3.105 -1.5549 -1.2602 -1.9604
 4331TIP3    H212958   5.701   0.552   3.182 -0.2774 -0.6726 -1.7507
 4332TIP3   OH212959   2.422   6.488   4.387 -0.5309  0.6349 -0.1111
 4332TIP3    H112960   2.463   6.457   4.468 -0.5318  3.7055  1.1835
 4332TIP3    H212961   2.471   6.444   4.317  1.3447  0.0439  1.4906
 4333TIP3   OH212962   4.134   1.155   3.261 -0.8437 -1.0420  0.2792
 4333TIP3    H112963   4.196   1.211   3.308 -0.1721 -1.4762 -0.0597
 4333TIP3    H212964   4.048   1.183   3.291 -0.7718  2.3563 -2.1715
 4334TIP3   OH212965   1.419   1.117   3.734 -0.0502  0.4241 -0.1012
 4334TIP3    H112966   1.411   1.197   3.682  0.8051  0.2495 -0.5097
 4334TIP3    H212967   1.443   1.148   3.821  0.3397  0.6135 -0.2721
 4335TIP3   OH212968   1.992   2.585   5.474  0.0193 -0.3613  0.4798
 4335TIP3    H112969   2.000   2.680   5.463  2.0160 -0.5864 -0.4115
 4335TIP3    H212970   2.080   2.556   5.499 -0.2074 -2.1542 -0.6558
 4336TIP3   OH212971   5.479   5.522   0.580 -0.0752 -0.1751 -0.8111
 4336TIP3    H112972   5.388   5.499   0.564 -0.2078 -1.0842  0.9898
 4336TIP3    H212973   5.500   5.587   0.512 -2.1659  0.3488 -1.0193
 4337TIP3   OH212974   5.452  -0.000   1.518  0.1918 -0.0825  0.0622
 4337TIP3    H112975   5.383   0.006   1.452  0.9993 -1.0275 -0.9101
 4337TIP3    H212976   5.517   0.064   1.490  0.8502 -0.9661 -0.4691
 4338TIP3   OH212977   7.050   1.051   2.117  0.6305 -0.5827 -0.2286
 4338TIP3    H112978   7.049   1.071   2.211  2.4107  1.1649 -0.5007
 4338TIP3    H212979   7.141   1.067   2.091 -0.6353  3.8597 -3.1445
 4339TIP3   OH212980   0.492   0.924   0.676  0.1685 -0.1832 -0.4423
 4339TIP3    H112981   0.476   0.835   0.707  0.4286 -1.2428 -3.0375
 4339TIP3    H212982   0.587   0.932   0.673  0.1829  0.9811  1.7069
 4340TIP3   OH212983   0.058   2.057   1.371  0.6299 -0.6143 -0.1228
 4340TIP3    H112984   0.067   2.139   1.419 -1.5138 -0.0379 -0.5938
 4340TIP3    H212985   0.017   2.081   1.288 -1.7201 -2.2857  0.4402
 4341TIP3   OH212986   0.229   4.477   1.021 -0.0179  0.1853  0.4032
 4341TIP3    H112987   0.261   4.387   1.030 -1.2674 -0.3539 -0.2739
 4341TIP3    H212988   0.238   4.514   1.109  1.1328 -0.3804  0.5397
 4342TIP3   OH212989   7.169   1.178   0.862 -0.1054 -0.4929  0.1362
 4342TIP3    H112990   7.083   1.150   0.893 -0.9369  1.5799 -0.0778
 4342TIP3    H212991   7.156   1.271   0.840  2.0005 -0.3401 -0.6265
 4343TIP3   OH212992   1.343   2.460   3.086  0.3416  0.6712 -0.8871
 4343TIP3    H112993   1.404   2.476   3.159  1.3180 -2.1719 -0.9604
 4343TIP3    H212994   1.324   2.547   3.052  0.4574  2.0728  2.2432
 4344TIP3   OH212995   5.104   3.752   0.957  0.4135 -0.3991 -0.1668
 4344TIP3    H112996   5.170   3.810   0.919  1.2028  0.0870  1.8601
 4344TIP3    H212997   5.153   3.685   1.003 -0.5018 -0.5654  0.6025
 4345TIP3   OH212998   4.271   2.765   1.976  0.5461  0.5494 -0.1388
 4345TIP3    H112999   4.182   2.752   1.942 -0.0226  1.9251  0.6987
 4345TIP3    H213000   4.309   2.678   1.979 -0.2713  0.0956 -1.8504
 4346TIP3   OH213001   6.339   3.952   0.117 -0.3753 -0.1742 -0.5183
 4346TIP3    H113002   6.329   4.024   0.056  0.0380 -0.1335 -0.5452
 4346TIP3    H213003   6.253   3.941   0.156 -1.0274 -1.1445 -2.1397
 4347TIP3   OH213004   2.981   3.270   2.322 -0.1905 -0.1761 -0.9290
 4347TIP3    H113005   2.994   3.205   2.253  1.4792 -0.3443 -0.4962
 4347TIP3    H213006   3.043   3.246   2.390 -0.9454  0.7153  0.1105
 4348TIP3   OH213007   5.065   5.597   3.866 -0.2823  0.1245 -0.2506
 4348TIP3    H113008   5.050   5.657   3.939  1.5627 -1.2984  1.4311
 4348TIP3    H213009   4.991   5.537   3.869 -1.4475  1.4494 -1.1131
 4349TIP3   OH213010   2.266   2.553   2.379 -0.5673  0.2202 -0.0759
 4349TIP3    H113011   2.287   2.591   2.293 -0.3562  0.3227  0.0196
 4349TIP3    H213012   2.289   2.461   2.370 -0.6037  0.2181 -0.1498
 4350TIP3   OH213013   2.213   3.587   0.588 -0.1983 -0.1942 -0.3204
 4350TIP3    H113014   2.277   3.546   0.529  1.0803  1.4114 -0.1279
 4350TIP3    H213015   2.264   3.613   0.665 -1.7984 -2.0423  1.4567
 4351TIP3   OH213016   5.593   2.461   3.454 -0.1300 -0.1188  0.5049
 4351TIP3    H113017   5.677   2.467   3.408 -0.0055  1.4048  0.8608
 4351TIP3    H213018   5.529   2.449   3.384  0.1319  1.4147 -0.0547
 4352TIP3   OH213019   5.604   5.336   3.119 -0.2583  0.2314 -0.0602
 4352TIP3    H113020   5.645   5.421   3.134 -0.4538  0.4585 -0.7695
 4352TIP3    H213021   5.675   5.273   3.127  0.3560  0.6562 -1.7605
 4353TIP3   OH213022   4.468   2.281   4.797  0.5383  0.3335  0.3767
 4353TIP3    H113023   4.522   2.252   4.870  0.6869 -1.2630 -0.3316
 4353TIP3    H213024   4.380   2.289   4.834  0.4996 -1.0348  0.6163
 4354TIP3   OH213025   5.572   1.770   5.456 -0.6695  0.2310 -0.6805
 4354TIP3    H113026   5.532   1.848   5.494 -1.8947 -1.5604  2.0551
 4354TIP3    H213027   5.522   1.754   5.375 -2.3294  0.7159  0.1986
 4355TIP3   OH213028   4.149   2.896   5.447 -0.0011  0.5989 -0.3024
 4355TIP3    H113029   4.089   2.892   5.521 -0.1187  0.4047 -0.4098
 4355TIP3    H213030   4.138   2.813   5.402  1.4080 -0.0691  0.5051
 4356TIP3   OH213031   6.612   1.662   3.961  0.4167  0.6468  0.3919
 4356TIP3    H113032   6.548   1.733   3.955  1.5854  1.7389  0.4160
 4356TIP3    H213033   6.693   1.706   3.987  1.5885 -0.4494 -1.2573
 4357TIP3   OH213034   3.688   5.265   3.109  0.1384 -0.0239 -0.2646
 4357TIP3    H113035   3.615   5.244   3.051  0.5069 -1.2273 -0.3144
 4357TIP3    H213036   3.745   5.322   3.056 -1.6168  2.4943  0.3791
 4358TIP3   OH213037   3.039   5.780   5.599  0.4756 -0.1375 -0.5475
 4358TIP3    H113038   3.056   5.817   5.685 -2.0567 -1.1281  0.4640
 4358TIP3    H213039   3.059   5.687   5.607 -0.5971 -0.3993 -0.7499
 4359TIP3   OH213040   3.068   2.888   1.579  0.0682 -0.4198  0.4538
 4359TIP3    H113041   3.032   2.811   1.623  0.3165  0.5649  2.4974
 4359TIP3    H213042   3.139   2.853   1.525  0.4529 -1.6028  1.6496
 4360TIP3   OH213043   5.284   1.262   0.120  0.4387 -0.0271  0.4083
 4360TIP3    H113044   5.196   1.297   0.131  0.6218  0.3410  0.7534
 4360TIP3    H213045   5.330   1.289   0.200  0.4756 -1.3942  0.8719
 4361TIP3   OH213046   1.770   4.127   3.290 -0.4672 -0.2469 -0.0868
 4361TIP3    H113047   1.735   4.061   3.350  0.1444 -1.6955 -1.2653
 4361TIP3    H213048   1.859   4.097   3.271 -0.3485  0.6526 -1.0465
 4362TIP3   OH213049   2.040   5.557   3.645 -0.2470  0.4662  0.2552
 4362TIP3    H113050   1.970   5.502   3.610  0.2101 -1.2378  1.8333
 4362TIP3    H213051   2.081   5.503   3.713  0.1245  2.8196  2.0591
 4363TIP3   OH213052   4.433   5.109   4.845  0.5457 -0.4892  0.1965
 4363TIP3    H113053   4.404   5.199   4.830 -1.1772 -0.8127  1.2477
 4363TIP3    H213054   4.395   5.085   4.930  1.7877 -1.8861  0.4018
 4364TIP3   OH213055   2.503   3.977   2.555 -0.1040  0.6476 -0.0540
 4364TIP3    H113056   2.482   4.053   2.609  0.8018  1.5532 -0.9465
 4364TIP3    H213057   2.593   3.991   2.527  0.5624 -1.4231  0.8418
 4365TIP3   OH213058   4.847   4.895   0.240 -0.2429 -0.0199 -0.1821
 4365TIP3    H113059   4.811   4.809   0.263 -0.3234 -0.1012 -0.6022
 4365TIP3    H213060   4.773   4.943   0.204 -0.0544  0.0042 -0.5403
 4366TIP3   OH213061   4.209   6.541   3.796 -0.1384 -0.0211  0.4490
 4366TIP3    H113062   4.290   6.503   3.763  0.6653  1.4160  0.6993
 4366TIP3    H213063   4.173   6.588   3.721 -1.0119 -1.0449  0.2031
 4367TIP3   OH213064   2.940   0.323   2.793 -0.2138 -0.0966  0.2997
 4367TIP3    H113065   2.983   0.272   2.861  1.9272 -0.4672 -1.2266
 4367TIP3    H213066   2.961   0.277   2.712 -1.9048  0.8413 -0.7332
 4368TIP3   OH213067   5.412   1.325   4.553  0.0988  0.4700 -0.1244
 4368TIP3    H113068   5.356   1.247   4.551 -1.8636  1.7460  1.2260
 4368TIP3    H213069   5.433   1.341   4.461 -0.1957 -1.1380 -0.5044
 4369TIP3   OH213070   5.401   0.576   5.216  0.3789 -0.1551 -0.4253
 4369TIP3    H113071   5.376   0.613   5.301 -0.4808 -0.7043 -0.4232
 4369TIP3    H213072   5.376   0.643   5.153 -0.9147 -0.5767 -0.3980
 4370TIP3   OH213073   7.057   1.309   4.594 -0.4420 -0.2070 -0.1390
 4370TIP3    H113074   7.106   1.242   4.546  0.4520 -0.6693  1.3527
 4370TIP3    H213075   6.969   1.272   4.602 -1.5612  1.1226 -3.8430
 4371TIP3   OH213076   0.042   0.582   1.008  0.6756 -0.1441  0.3295
 4371TIP3    H113077   0.103   0.513   1.033  2.6555  2.0383  2.0147
 4371TIP3    H213078   0.054   0.592   0.913  0.8600 -1.5775  0.1819
 4372TIP3   OH213079   1.364   0.545   2.266 -0.1906  0.1688 -0.2743
 4372TIP3    H113080   1.332   0.610   2.203 -0.7656 -0.7396 -0.9509
 4372TIP3    H213081   1.459   0.558   2.268 -0.1654  0.2782 -1.2835
 4373TIP3   OH213082   0.737   0.664   2.963 -0.0888  0.3780  0.2630
 4373TIP3    H113083   0.665   0.711   2.920 -0.0245  0.7160  0.5248
 4373TIP3    H213084   0.815   0.692   2.917 -0.0772  0.3312  0.2539
 4374TIP3   OH213085   5.231   5.699   2.545  0.1388 -0.1616 -0.0819
 4374TIP3    H113086   5.204   5.754   2.618  0.6998 -2.0748  1.6590
 4374TIP3    H213087   5.154   5.646   2.524  1.0268 -2.3705  1.8238
 4375TIP3   OH213088   2.490   1.036   5.052  0.6431  0.7847 -0.0485
 4375TIP3    H113089   2.420   1.101   5.061 -0.2606 -0.3201  1.2024
 4375TIP3    H213090   2.560   1.069   5.108 -0.4154 -0.0670  1.8358
 4376TIP3   OH213091   5.706   1.101   3.781  0.5734  0.5965  0.5567
 4376TIP3    H113092   5.796   1.132   3.795  1.1889 -1.2195  0.9647
 4376TIP3    H213093   5.716   1.010   3.752 -1.1034  0.8875 -1.0925
 4377TIP3   OH213094   6.169   4.734   3.568 -0.0869 -0.2074  0.5746
 4377TIP3    H113095   6.263   4.716   3.567 -0.5045 -2.6565  0.5621
 4377TIP3    H213096   6.156   4.789   3.646  1.2719 -0.3171  0.8959
 4378TIP3   OH213097   0.181   6.505   5.819 -0.0074 -0.5570  0.1202
 4378TIP3    H113098   0.142   6.583   5.858 -0.2547 -0.3747 -0.4900
 4378TIP3    H213099   0.129   6.488   5.741  1.0615 -0.3620 -0.6687
 4379TIP3   OH213100   0.944   5.540   2.339  0.2652 -0.2613  0.3801
 4379TIP3    H113101   0.876   5.521   2.274 -0.3998 -0.9786  1.2590
 4379TIP3    H213102   0.917   5.491   2.417  0.2359  1.7746  1.7082
 4380TIP3   OH213103   6.422   0.529   4.973 -0.1715  0.3141 -0.0296
 4380TIP3    H113104   6.450   0.615   5.005  1.4916  0.0544 -0.6537
 4380TIP3    H213105   6.466   0.467   5.031 -2.3262 -0.1592  1.1873
 4381TIP3   OH213106   0.591   4.904   3.294 -0.2022 -0.2382  0.1922
 4381TIP3    H113107   0.548   4.868   3.216 -0.8889 -0.8772  0.8461
 4381TIP3    H213108   0.657   4.838   3.316 -0.7890 -0.6295  0.8121
 4382TIP3   OH213109   2.455   3.223   4.519 -0.4199  0.5207  0.2789
 4382TIP3    H113110   2.486   3.133   4.520 -0.0584  0.6292 -0.3470
 4382TIP3    H213111   2.361   3.217   4.506 -0.6719  0.1858  2.0333
 4383TIP3   OH213112   2.636   2.120   3.505  0.2346 -0.1793  0.2867
 4383TIP3    H113113   2.581   2.179   3.453  1.4656  1.0808  0.3362
 4383TIP3    H213114   2.672   2.176   3.574  0.9851 -1.1367  0.6956
 4384TIP3   OH213115   4.944   6.707   4.408 -0.2244  0.2939 -0.1868
 4384TIP3    H113116   4.893   6.720   4.328 -1.0755 -1.8837 -0.0703
 4384TIP3    H213117   4.880   6.718   4.479  0.0682  0.1987  0.0913
 4385TIP3   OH213118   0.556   0.891   2.081  0.8072 -0.0650 -0.5763
 4385TIP3    H113119   0.622   0.940   2.130  0.8541  0.5382 -1.2273
 4385TIP3    H213120   0.606   0.824   2.034  0.6522 -1.2973  0.9570
 4386TIP3   OH213121   2.174   1.769   2.229  0.2648 -0.2520 -0.2111
 4386TIP3    H113122   2.184   1.853   2.184  0.1394 -0.1562 -0.0571
 4386TIP3    H213123   2.195   1.704   2.162 -1.3169 -0.1672 -0.8266
 4387TIP3   OH213124   0.148   1.892   4.824  0.1359  0.0599  0.0614
 4387TIP3    H113125   0.199   1.925   4.750  0.7431 -1.2012 -0.1052
 4387TIP3    H213126   0.113   1.808   4.794 -2.4325  1.0232  0.0161
 4388TIP3   OH213127   1.823   5.978   4.320  0.2418  0.0250 -0.0636
 4388TIP3    H113128   1.740   5.974   4.368 -0.4265 -1.5019 -1.2883
 4388TIP3    H213129   1.890   5.961   4.387 -0.6542 -1.7188  0.4625
 4389TIP3   OH213130   5.850   3.563   3.509  0.4426 -0.0401 -0.2771
 4389TIP3    H113131   5.931   3.518   3.487  2.8261  3.5437  0.1805
 4389TIP3    H213132   5.819   3.599   3.426  0.3025 -0.0099 -0.2122
 4390TIP3   OH213133   4.359   5.707   0.424 -0.6236  0.0892  0.0039
 4390TIP3    H113134   4.298   5.726   0.495 -1.9739 -0.1102 -1.0788
 4390TIP3    H213135   4.309   5.655   0.362  0.7170 -0.2684 -0.8209
 4391TIP3   OH213136   6.968   3.340   3.646 -0.3122  0.0387  0.1958
 4391TIP3    H113137   6.962   3.284   3.569 -4.3601  0.0623  0.2851
 4391TIP3    H213138   6.933   3.424   3.618  0.2711  0.7375  1.4824
 4392TIP3   OH213139   2.281   5.765   3.891 -0.0826  0.1679 -0.3127
 4392TIP3    H113140   2.191   5.732   3.895  0.3842 -1.1508 -0.0083
 4392TIP3    H213141   2.284   5.834   3.957 -0.2164 -1.5436  1.5907
 4393TIP3   OH213142   5.991   3.040   0.086  0.4606  0.0836  0.3543
 4393TIP3    H113143   6.061   3.006   0.030 -0.9385 -0.0556 -1.4222
 4393TIP3    H213144   6.007   3.134   0.090  0.6013  0.0939 -0.2982
 4394TIP3   OH213145   1.566   1.614   4.745  0.6243  0.8221 -0.9101
 4394TIP3    H113146   1.611   1.579   4.822 -1.6949 -0.5964 -0.1067
 4394TIP3    H213147   1.563   1.541   4.683 -1.6124  0.4107 -0.4155
 4395TIP3   OH213148   5.748   4.307   3.161  0.2678  1.0105  0.9972
 4395TIP3    H113149   5.806   4.248   3.209 -0.9348  1.5015  3.2092
 4395TIP3    H213150   5.676   4.251   3.132  0.7977  0.7909  0.0565
 4396TIP3   OH213151   4.433   0.162   0.748 -0.7001  0.1590 -0.3692
 4396TIP3    H113152   4.443   0.091   0.811  2.7921 -0.1602 -1.0562
 4396TIP3    H213153   4.372   0.223   0.789  0.3784 -0.6583  2.6995
 4397TIP3   OH213154   2.439   3.007   3.556  0.3597  0.2302 -0.3434
 4397TIP3    H113155   2.345   2.995   3.571  0.4100  0.2352 -0.0157
 4397TIP3    H213156   2.479   2.998   3.643  0.4208  2.7608 -0.0462
 4398TIP3   OH213157   4.353   1.092   1.213 -0.0089 -0.4071 -0.9988
 4398TIP3    H113158   4.283   1.039   1.176 -1.9199  1.0209  0.3389
 4398TIP3    H213159   4.323   1.183   1.201  0.9898  0.2067  0.7587
 4399TIP3   OH213160   0.366   4.772   1.043  0.2633  0.3383  0.4308
 4399TIP3    H113161   0.337   4.809   1.126  0.5864  1.9397 -0.1446
 4399TIP3    H213162   0.420   4.697   1.068 -1.2958 -0.4436  1.5872
 4400TIP3   OH213163   0.501   5.693   1.434 -0.3602 -0.5508 -0.2374
 4400TIP3    H113164   0.570   5.758   1.423 -1.2438  0.6808  1.2097
 4400TIP3    H213165   0.420   5.744   1.437 -1.1143 -1.7430  0.5249
 4401TIP3   OH213166   1.963   6.345   3.208  0.3129  0.2139 -0.1210
 4401TIP3    H113167   2.021   6.270   3.191  2.0117  1.6148 -0.8477
 4401TIP3    H213168   1.875   6.311   3.194  0.9963 -1.7722  0.0821
 4402TIP3   OH213169   1.480   4.933   4.833 -0.1336 -0.0274 -0.4315
 4402TIP3    H113170   1.420   4.901   4.901 -0.5565  0.9985 -0.3058
 4402TIP3    H213171   1.566   4.928   4.873 -0.3079 -0.0650 -0.0559
 4403TIP3   OH213172   4.218   5.075   3.950  0.0009  0.5540  0.1796
 4403TIP3    H113173   4.238   5.163   3.982  1.2015 -0.2356  1.7310
 4403TIP3    H213174   4.299   5.047   3.907 -0.6216  0.4470 -0.9827
 4404TIP3   OH213175   6.067   5.197   3.400  0.4814 -0.2334 -0.1325
 4404TIP3    H113176   5.991   5.158   3.441 -0.5062  0.9309 -0.7762
 4404TIP3    H213177   6.100   5.260   3.464  1.8536 -1.7702  0.7567
 4405TIP3   OH213178   5.291   4.207   2.054 -0.4595 -0.6359  0.2785
 4405TIP3    H113179   5.344   4.192   2.132  2.6962 -0.0270 -1.5576
 4405TIP3    H213180   5.280   4.302   2.051  0.7588 -0.4936 -0.7141
 4406TIP3   OH213181   1.516   4.729   3.627  0.1901  0.3108 -0.5852
 4406TIP3    H113182   1.458   4.683   3.688  1.0513 -1.9308 -1.3333
 4406TIP3    H213183   1.458   4.781   3.572 -0.6451  2.0678  1.7935
 4407TIP3   OH213184   6.184   1.995   1.068 -0.2457 -0.0960 -0.2289
 4407TIP3    H113185   6.160   1.918   1.017  0.5566  0.6192 -1.7787
 4407TIP3    H213186   6.262   2.029   1.024 -1.1861  2.2002 -0.3026
 4408TIP3   OH213187   7.072   6.447   1.994  0.2307 -0.0057 -0.2963
 4408TIP3    H113188   7.129   6.464   2.069 -1.9016 -0.0793  1.4180
 4408TIP3    H213189   7.127   6.468   1.918  2.7250 -0.6453  1.1935
 4409TIP3   OH213190   2.095   5.347   4.012  0.5504 -0.0385  0.1505
 4409TIP3    H113191   2.103   5.252   4.023 -2.2169 -0.4752 -0.9081
 4409TIP3    H213192   2.004   5.361   3.988  1.1375  2.8090 -0.7869
 4410TIP3   OH213193   3.602   3.101   3.218  0.2078 -0.1740  1.1601
 4410TIP3    H113194   3.633   3.029   3.162  0.5382 -1.7314  3.2416
 4410TIP3    H213195   3.515   3.122   3.183  0.5508 -0.8215 -0.1714
 4411TIP3   OH213196   2.896   2.349   4.186  0.4098  0.0223  0.0856
 4411TIP3    H113197   2.914   2.389   4.101 -0.7951  1.0571  0.2759
 4411TIP3    H213198   2.827   2.285   4.168 -0.9956  1.3444  0.4657
 4412TIP3   OH213199   6.636   0.505   4.815 -0.3918 -0.8759 -0.1029
 4412TIP3    H113200   6.558   0.502   4.870 -1.2359  2.4149 -0.9048
 4412TIP3    H213201   6.608   0.463   4.733 -1.1106 -0.3296 -0.1482
 4413TIP3   OH213202   4.729   5.393   2.126  0.1305 -0.0113  0.5593
 4413TIP3    H113203   4.676   5.441   2.062 -0.5932  0.7167  1.6572
 4413TIP3    H213204   4.665   5.357   2.187  0.7679 -1.2027  0.5616
 4414TIP3   OH213205   1.656   0.813   5.709 -0.7288  0.0184 -0.1835
 4414TIP3    H113206   1.617   0.885   5.758  0.6758 -0.3172  1.5144
 4414TIP3    H213207   1.659   0.740   5.771 -0.2006 -0.8729 -1.2150
 4415TIP3   OH213208   5.280   0.077   0.717 -0.0428 -0.6400  0.3213
 4415TIP3    H113209   5.359   0.058   0.767 -0.2112 -1.1236  0.4047
 4415TIP3    H213210   5.282   0.014   0.645 -0.6096 -0.9929  0.6077
 4416TIP3   OH213211   3.067   6.261   2.427 -0.5186 -0.0865  0.0803
 4416TIP3    H113212   3.100   6.218   2.507  0.7078  0.4306 -0.1267
 4416TIP3    H213213   3.059   6.189   2.364  1.0155 -0.1362 -0.1031
 4417TIP3   OH213214   0.075   0.220   3.768  0.3372 -0.1218 -0.2415
 4417TIP3    H113215   0.084   0.136   3.814  0.7337  0.6550  1.1737
 4417TIP3    H213216   0.060   0.196   3.677 -0.4765 -1.7506  0.2706
 4418TIP3   OH213217   1.461   5.832   0.752 -0.0092  0.3166 -0.0254
 4418TIP3    H113218   1.378   5.816   0.706  0.0155  0.9844 -0.3202
 4418TIP3    H213219   1.506   5.896   0.697  0.3220  0.6159  0.5859
 4419TIP3   OH213220   3.865   3.920   0.326 -0.4526  0.5346 -0.6724
 4419TIP3    H113221   3.800   3.850   0.333 -0.6313  0.7936  0.5872
 4419TIP3    H213222   3.862   3.948   0.235  0.6520 -2.0590 -1.6163
 4420TIP3   OH213223   4.163   3.974   4.043  0.8990  0.7873  0.2420
 4420TIP3    H113224   4.256   3.958   4.033  0.7145  0.6512 -1.5517
 4420TIP3    H213225   4.124   3.887   4.050  0.9680  0.8547  2.2135
 4421TIP3   OH213226   1.109   5.733   1.277  0.3145 -0.0416 -0.1108
 4421TIP3    H113227   1.142   5.809   1.327  2.3978 -0.2989 -0.9773
 4421TIP3    H213228   1.140   5.749   1.188 -0.7485 -1.0759 -0.6764
 4422TIP3   OH213229   1.360   5.176   2.241 -0.2615 -0.1456 -0.0213
 4422TIP3    H113230   1.326   5.095   2.204  1.2279 -0.7382 -0.1459
 4422TIP3    H213231   1.425   5.149   2.305 -0.2022  0.9462  0.4122
 4423TIP3   OH213232   5.738   6.318   5.754  0.2464 -0.3237  0.2196
 4423TIP3    H113233   5.679   6.277   5.817 -0.0728 -0.4548 -0.1599
 4423TIP3    H213234   5.730   6.264   5.675  0.4433 -0.0103 -0.0179
 4424TIP3   OH213235   6.660   1.362   4.361 -0.3362 -0.1949 -0.1058
 4424TIP3    H113236   6.596   1.387   4.294  0.3157 -0.4513 -0.8361
 4424TIP3    H213237   6.737   1.337   4.311  0.6663  1.0077  0.7842
 4425TIP3   OH213238   0.985   2.123   2.216  0.0150 -0.0430  0.0715
 4425TIP3    H113239   0.909   2.176   2.192 -0.2128 -0.5096 -0.2431
 4425TIP3    H213240   1.007   2.074   2.137 -0.3818 -1.1624  0.6292
 4426TIP3   OH213241   5.038   2.108   3.992  0.3837 -0.1273 -0.1707
 4426TIP3    H113242   4.948   2.100   4.024 -0.2676  1.5892 -1.4113
 4426TIP3    H213243   5.067   2.195   4.022  1.7851 -0.7947  0.5214
 4427TIP3   OH213244   7.127   4.316   1.600 -0.4246 -0.1162  0.6056
 4427TIP3    H113245   7.163   4.398   1.633  0.7393 -0.7387  0.9237
 4427TIP3    H213246   7.116   4.330   1.506  2.1137 -0.3951  0.2086
 4428TIP3   OH213247   1.029   2.778   1.790 -0.0205  0.6440  0.2405
 4428TIP3    H113248   0.996   2.839   1.724 -0.5530  0.0758 -0.0326
 4428TIP3    H213249   1.008   2.692   1.755 -1.0310  0.3381  1.5157
 4429TIP3   OH213250   1.431   5.846   3.724  0.0835 -0.6855 -0.0853
 4429TIP3    H113251   1.521   5.825   3.699 -0.5838  0.3920 -4.1247
 4429TIP3    H213252   1.390   5.760   3.738  1.6672 -1.1837  1.9971
 4430TIP3   OH213253   0.890   2.116  -0.013  0.1018 -0.0457 -0.5070
 4430TIP3    H113254   0.859   2.042   0.040 -0.1967  0.4282 -0.0073
 4430TIP3    H213255   0.834   2.189   0.013  0.5638  0.4249 -0.8090
 4431TIP3   OH213256   4.525   6.295   4.294  0.5589 -0.3426 -0.7123
 4431TIP3    H113257   4.483   6.319   4.212  1.2491  0.1975 -0.9179
 4431TIP3    H213258   4.460   6.242   4.340  0.2567 -0.8536 -1.7081
 4432TIP3   OH213259   2.004   3.955   4.290 -0.0332  0.1122 -0.5270
 4432TIP3    H113260   1.999   4.050   4.280  1.1656  0.5432  1.9414
 4432TIP3    H213261   1.926   3.932   4.340  0.6247  0.1541  0.5671
 4433TIP3   OH213262   1.781   0.154   2.097 -0.5112  0.1477  0.1984
 4433TIP3    H113263   1.744   0.098   2.028 -0.6497  0.7186 -0.1927
 4433TIP3    H213264   1.875   0.136   2.094 -0.1912  1.7896 -1.6596
 4434TIP3   OH213265   0.917   5.891   2.672  0.0847 -0.5686  0.2204
 4434TIP3    H113266   0.957   5.979   2.668  0.9003 -0.9658 -0.8097
 4434TIP3    H213267   0.869   5.883   2.590 -0.4852 -0.8698  0.5804
 4435TIP3   OH213268   1.184   3.613   0.582  0.5672  0.1671  0.3175
 4435TIP3    H113269   1.128   3.630   0.507  0.3295 -0.7694  0.2667
 4435TIP3    H213270   1.273   3.613   0.545  0.4854  0.1639  0.1178
 4436TIP3   OH213271   2.680   2.402   0.387  0.3077 -0.4387  0.4737
 4436TIP3    H113272   2.617   2.472   0.368 -1.7416 -1.8313  1.7526
 4436TIP3    H213273   2.707   2.370   0.300 -0.4699  0.4356 -0.1076
 4437TIP3   OH213274   5.236   1.259   0.542  0.2410  0.2721 -0.2676
 4437TIP3    H113275   5.302   1.315   0.581  0.2920  1.1296 -1.5357
 4437TIP3    H213276   5.176   1.319   0.498 -2.1914 -0.3357  1.9059
 4438TIP3   OH213277   4.383   4.951   1.653 -0.0913  0.3704  0.3022
 4438TIP3    H113278   4.357   4.863   1.626  1.2037  0.2546 -0.6811
 4438TIP3    H213279   4.472   4.940   1.686 -0.7615  0.9344  2.4653
 4439TIP3   OH213280   0.600  -0.018   2.617  0.0660  0.0664 -0.2478
 4439TIP3    H113281   0.669   0.048   2.629  0.3616  0.0403 -1.6809
 4439TIP3    H213282   0.533   0.027   2.566 -0.6705 -0.1315  0.5258
 4440TIP3   OH213283   4.302   6.702   1.613  0.2398  0.1002 -0.0365
 4440TIP3    H113284   4.219   6.657   1.631 -0.2993  1.0181 -0.1809
 4440TIP3    H213285   4.291   6.790   1.649 -0.0328  1.2629 -2.7391
 4441TIP3   OH213286   6.380   0.353   1.766  0.7393 -0.1966  0.1820
 4441TIP3    H113287   6.383   0.394   1.679 -0.3453  1.1224  0.7416
 4441TIP3    H213288   6.288   0.331   1.779  1.2898 -3.2120 -0.2196
 4442TIP3   OH213289   2.761   4.669   3.213  0.3781  0.3210 -0.6213
 4442TIP3    H113290   2.700   4.742   3.221 -0.2089 -0.3320  1.3990
 4442TIP3    H213291   2.821   4.679   3.287  1.2541 -0.3975 -1.2084
 4443TIP3   OH213292   3.955   6.424   5.896  0.2647 -0.4977  0.0456
 4443TIP3    H113293   3.936   6.371   5.819 -0.1642  0.1832 -0.3214
 4443TIP3    H213294   4.014   6.492   5.865  1.3249 -1.1122  0.6512
 4444TIP3   OH213295   5.267   2.684   5.730  0.1929  0.2850  0.4293
 4444TIP3    H113296   5.287   2.777   5.727  2.7885 -0.0719  2.6272
 4444TIP3    H213297   5.342   2.642   5.687 -0.4814 -0.8339  0.2997
 4445TIP3   OH213298   3.131   3.870   4.727 -0.4620 -0.1223  0.2418
 4445TIP3    H113299   3.078   3.927   4.672 -2.4223  0.2096  2.3235
 4445TIP3    H213300   3.186   3.929   4.778 -1.4725 -0.1354  1.3848
 4446TIP3   OH213301   0.193   3.627   1.926 -0.1017 -0.0762  0.2827
 4446TIP3    H113302   0.132   3.689   1.965  1.2581  2.5560 -1.4021
 4446TIP3    H213303   0.276   3.643   1.971  0.5988  0.3938 -1.0950
 4447TIP3   OH213304   1.375   3.536   1.781 -0.1252 -0.6152 -0.2883
 4447TIP3    H113305   1.328   3.453   1.784  0.9816 -1.2791 -0.9773
 4447TIP3    H213306   1.310   3.601   1.808 -0.9633 -1.7112  0.3970
 4448TIP3   OH213307   0.384   2.559   1.472 -0.5466  0.3748 -0.1225
 4448TIP3    H113308   0.450   2.603   1.418 -0.4163 -1.0947 -1.2226
 4448TIP3    H213309   0.435   2.504   1.531 -0.7598 -0.2630 -0.5262
 4449TIP3   OH213310   2.791   3.193   4.603 -0.1148  0.3227 -0.2108
 4449TIP3    H113311   2.776   3.207   4.510 -0.6277 -1.1116 -0.3694
 4449TIP3    H213312   2.811   3.100   4.610  1.6423  0.7507  0.9150
 4450TIP3   OH213313   2.723   1.864   5.576  0.1023 -0.0667  0.4353
 4450TIP3    H113314   2.810   1.833   5.601 -0.1901 -0.7632  0.6127
 4450TIP3    H213315   2.671   1.855   5.656 -0.1968  0.1051  0.2618
 4451TIP3   OH213316   6.687   4.662   4.932  0.4746  0.3841  0.7063
 4451TIP3    H113317   6.631   4.630   4.862  0.2293 -0.5898  1.3372
 4451TIP3    H213318   6.661   4.754   4.943 -1.5681 -0.2433  1.5076
 4452TIP3   OH213319   2.206   6.390   3.536 -0.1390 -0.2697 -0.4283
 4452TIP3    H113320   2.298   6.410   3.547  0.1736 -1.0761 -1.4077
 4452TIP3    H213321   2.188   6.411   3.444 -0.4056 -2.0080 -0.8114
 4453TIP3   OH213322   1.254   4.988   1.368 -0.6032 -0.6058 -0.0240
 4453TIP3    H113323   1.181   4.995   1.306 -0.9922 -0.5364  0.4328
 4453TIP3    H213324   1.280   5.078   1.385 -1.2984 -0.5504  0.8342
 4454TIP3   OH213325   3.895   4.964   0.586 -0.3141 -0.2310 -0.6133
 4454TIP3    H113326   3.905   4.972   0.491  1.2300 -1.3800 -0.5903
 4454TIP3    H213327   3.909   5.053   0.618 -3.1176  0.6551 -1.5575
 4455TIP3   OH213328   3.332   2.864   4.722  0.4185  0.4167 -0.0902
 4455TIP3    H113329   3.412   2.886   4.770  0.6258  1.4187 -0.8489
 4455TIP3    H213330   3.359   2.864   4.630 -0.7530  2.3499 -0.4937
 4456TIP3   OH213331   1.449   1.618   3.502 -0.4747 -0.7449 -0.3575
 4456TIP3    H113332   1.516   1.635   3.435 -0.4079 -1.3310 -0.4500
 4456TIP3    H213333   1.488   1.650   3.583 -0.4533 -0.2547 -0.5579
 4457TIP3   OH213334   1.667   4.714   0.646 -0.2652 -0.8126 -0.2874
 4457TIP3    H113335   1.684   4.668   0.728 -1.4715 -0.4128  0.1995
 4457TIP3    H213336   1.618   4.792   0.672  1.8982  0.9324 -1.0514
 4458TIP3   OH213337   2.576   5.817   5.050  0.2549  0.4958  0.0481
 4458TIP3    H113338   2.492   5.824   5.095 -0.8771 -0.3222 -1.8292
 4458TIP3    H213339   2.615   5.904   5.060 -0.1035  0.4819  2.1847
 4459TIP3   OH213340   7.011   2.181   3.402  0.1190  0.3075 -0.5231
 4459TIP3    H113341   7.031   2.272   3.428  1.6507 -0.0117 -0.4614
 4459TIP3    H213342   7.072   2.128   3.454 -1.8447 -0.9232  0.6713
 4460TIP3   OH213343   0.808   0.321   4.932  0.0644  0.2545  0.7278
 4460TIP3    H113344   0.860   0.242   4.948  1.3631  1.1105  0.9431
 4460TIP3    H213345   0.782   0.350   5.019 -1.0864 -0.3470  0.6006
 4461TIP3   OH213346   5.004   0.272   1.130  0.0339 -0.9512  0.1306
 4461TIP3    H113347   5.064   0.332   1.086  1.1280 -0.9048  1.6251
 4461TIP3    H213348   4.918   0.294   1.093  0.3795  1.6371  0.6776
 4462TIP3   OH213349   0.934   1.950   3.964  0.0139 -0.1804  0.2544
 4462TIP3    H113350   0.934   1.999   4.046  2.2411 -1.0507  0.8606
 4462TIP3    H213351   0.939   2.017   3.896 -2.4262  0.5768  0.7335
 4463TIP3   OH213352   2.807   2.990   3.285 -0.0642 -0.6377  0.3148
 4463TIP3    H113353   2.847   2.996   3.372 -0.4500 -0.0179  0.4504
 4463TIP3    H213354   2.744   3.062   3.282  1.1535  0.4217 -1.1084
 4464TIP3   OH213355   3.229   4.672   5.476  0.3197 -0.3790  0.3819
 4464TIP3    H113356   3.220   4.579   5.460  0.0069 -0.0684 -1.4242
 4464TIP3    H213357   3.234   4.712   5.389  2.4965  1.1150  1.1056
 4465TIP3   OH213358   1.588   4.144   0.559 -0.0377  0.2029 -0.2230
 4465TIP3    H113359   1.628   4.211   0.615  2.5721 -1.0728 -0.4485
 4465TIP3    H213360   1.518   4.191   0.513  1.1074  2.5603  0.2872
 4466TIP3   OH213361   4.294   6.256   1.611 -0.1542  0.1338  0.1396
 4466TIP3    H113362   4.277   6.235   1.519  3.0396  0.7380 -0.7085
 4466TIP3    H213363   4.294   6.172   1.656  0.6673 -0.4457 -0.9095
 4467TIP3   OH213364   1.382   2.173   2.742  0.9529  0.2361  0.3377
 4467TIP3    H113365   1.472   2.142   2.754  0.5940 -1.1362 -0.3393
 4467TIP3    H213366   1.334   2.135   2.816  0.6713 -0.1079 -0.0249
 4468TIP3   OH213367   4.638   3.582   3.623  0.2304 -0.3044  0.2230
 4468TIP3    H113368   4.592   3.590   3.707  0.9055 -0.1125  0.5820
 4468TIP3    H213369   4.729   3.599   3.645  0.9242 -3.2964  0.0222
 4469TIP3   OH213370   4.006   0.836   2.611  0.0344 -0.0693  0.0101
 4469TIP3    H113371   4.012   0.742   2.630  2.1033  0.0976  0.4262
 4469TIP3    H213372   3.987   0.876   2.695 -0.3746 -0.0668 -0.0810
 4470TIP3   OH213373   6.800   2.947   1.207  0.6630 -0.1017 -0.4237
 4470TIP3    H113374   6.705   2.954   1.218  0.6348  1.9723 -1.5465
 4470TIP3    H213375   6.817   2.853   1.208 -1.6760 -0.6338 -2.3096
 4471TIP3   OH213376   2.102   2.078   0.077  0.3103  0.2681  0.1083
 4471TIP3    H113377   2.111   2.021   0.153 -0.8446  0.4448  0.4114
 4471TIP3    H213378   2.191   2.106   0.056  0.7807 -0.8425  0.5645
 4472TIP3   OH213379   2.885   0.238   1.595 -0.1624 -0.0066 -0.2250
 4472TIP3    H113380   2.879   0.217   1.502 -0.2287 -1.4566  0.0793
 4472TIP3    H213381   2.946   0.311   1.599  0.2439 -0.2613 -1.3700
 4473TIP3   OH213382   6.716   0.406   5.851  0.2481  0.0736  0.5009
 4473TIP3    H113383   6.731   0.451   5.934  2.8564 -0.8905  0.6496
 4473TIP3    H213384   6.750   0.465   5.784 -1.5164  0.6906  0.0894
 4474TIP3   OH213385   5.027   3.351   5.638 -0.1210  0.4891 -0.0507
 4474TIP3    H113386   5.002   3.258   5.636  1.1127  0.1470 -0.4415
 4474TIP3    H213387   4.943   3.398   5.635 -0.7444 -0.5751 -2.8814
 4475TIP3   OH213388   0.938   1.397   3.176  0.2139 -0.1097 -0.4102
 4475TIP3    H113389   1.001   1.429   3.111  1.1515  1.6351  1.2720
 4475TIP3    H213390   0.972   1.311   3.202  1.3797  0.3834 -0.2490
 4476TIP3   OH213391   4.709   1.364   3.728  0.2337 -0.3629  0.2261
 4476TIP3    H113392   4.730   1.277   3.694  1.2660 -0.0174 -0.0457
 4476TIP3    H213393   4.767   1.423   3.681 -1.1097  0.6072 -0.2787
 4477TIP3   OH213394   4.899   5.342   2.953  0.1207 -0.7992 -0.3499
 4477TIP3    H113395   4.935   5.359   3.040  0.2875 -0.3478 -0.5077
 4477TIP3    H213396   4.975   5.327   2.897  0.0230 -0.8258 -0.4772
 4478TIP3   OH213397   6.510   1.564   5.247  0.2224  0.0393 -0.1950
 4478TIP3    H113398   6.473   1.651   5.232 -1.7914 -1.0716 -2.4464
 4478TIP3    H213399   6.545   1.568   5.336  0.3855  3.1737 -0.2849
 4479TIP3   OH213400   0.388   4.726   0.321 -0.2529  0.0044  0.0073
 4479TIP3    H113401   0.334   4.657   0.358  0.1058 -0.6298 -0.6282
 4479TIP3    H213402   0.330   4.774   0.262 -0.1057 -0.7453 -0.7595
 4480TIP3   OH213403   4.037   4.305   4.035 -0.0839 -0.4465 -0.0110
 4480TIP3    H113404   3.985   4.260   4.101 -0.4345 -0.6541 -0.4232
 4480TIP3    H213405   3.978   4.372   4.000  0.0111 -0.5046 -0.2897
 4481TIP3   OH213406   5.079   4.300   3.338 -0.3660 -0.3696 -0.4882
 4481TIP3    H113407   5.051   4.210   3.355  3.7753 -1.5887  1.0231
 4481TIP3    H213408   5.090   4.338   3.426  1.5067  0.2810 -0.9614
 4482TIP3   OH213409   5.900   4.739   4.685 -0.1348 -0.3496  0.2983
 4482TIP3    H113410   5.990   4.766   4.704  0.5393 -2.0297 -0.2897
 4482TIP3    H213411   5.910   4.661   4.630 -1.9560 -0.5892  0.2623
 4483TIP3   OH213412   2.744   1.489   3.510  0.1764 -0.4678  0.4748
 4483TIP3    H113413   2.697   1.482   3.427  0.2007 -2.8730  0.6153
 4483TIP3    H213414   2.767   1.399   3.534  0.5771  0.1813  2.8736
 4484TIP3   OH213415   6.174   1.390   3.483  0.0822 -0.1140  0.1546
 4484TIP3    H113416   6.095   1.369   3.433  0.4400 -0.7223 -0.1733
 4484TIP3    H213417   6.243   1.399   3.417  0.3981 -0.1458  0.4736
 4485TIP3   OH213418   6.206   1.701   0.555 -0.2764  0.1536  0.1941
 4485TIP3    H113419   6.251   1.726   0.636 -1.5617  0.1610  0.9311
 4485TIP3    H213420   6.122   1.746   0.559 -0.3141  0.2693 -1.2336
 4486TIP3   OH213421   1.886   1.540   2.090  0.2509 -0.1892  0.5746
 4486TIP3    H113422   1.952   1.499   2.145  2.5874  1.1437 -1.0404
 4486TIP3    H213423   1.935   1.604   2.038 -2.0403 -0.2549 -1.8829
 4487TIP3   OH213424   4.128   2.900   1.633  0.3806 -0.3945  0.4025
 4487TIP3    H113425   4.079   2.907   1.551  0.8876 -1.0189  0.0387
 4487TIP3    H213426   4.093   2.822   1.676 -0.3023  0.2622  1.0829
 4488TIP3   OH213427   4.415   2.101   5.625  0.3559  0.3137 -0.0710
 4488TIP3    H113428   4.454   2.123   5.541  2.0738  0.3109  0.6867
 4488TIP3    H213429   4.488   2.074   5.679 -0.9907 -2.1954  0.6725
 4489TIP3   OH213430   0.057   3.488   1.676  0.5797  0.3331 -0.3890
 4489TIP3    H113431   0.076   3.394   1.683 -0.7839  0.0297 -0.4193
 4489TIP3    H213432   0.090   3.526   1.758 -0.1789 -0.4319  0.2951
 4490TIP3   OH213433   5.106   1.734   5.834 -0.2532  0.2581 -0.0118
 4490TIP3    H113434   5.055   1.693   5.764 -0.1485  0.5758 -0.2778
 4490TIP3    H213435   5.066   1.703   5.915 -0.4903  0.0325 -0.2150
 4491TIP3   OH213436   4.396   0.594   2.694  0.0633  0.1885 -0.1352
 4491TIP3    H113437   4.314   0.563   2.731 -1.1843  2.1300 -1.0928
 4491TIP3    H213438   4.464   0.542   2.737 -1.5267 -0.1245  2.1294
 4492TIP3   OH213439   0.883   0.221   5.405  0.3577  0.3077  0.6414
 4492TIP3    H113440   0.858   0.277   5.479 -0.1688  2.0193 -0.7693
 4492TIP3    H213441   0.856   0.270   5.327 -2.3364 -2.8998 -0.7077
 4493TIP3   OH213442   1.007   1.721   3.797 -0.1021  0.4581 -0.3484
 4493TIP3    H113443   1.060   1.781   3.745  0.8963  0.4751  0.6428
 4493TIP3    H213444   1.038   1.734   3.887 -1.3456 -0.0112  0.1716
 4494TIP3   OH213445   5.392   1.720   3.385 -0.5915  0.2347  0.4100
 4494TIP3    H113446   5.487   1.736   3.383 -0.5660  0.1158  0.5661
 4494TIP3    H213447   5.364   1.726   3.294 -0.1041 -1.6700  0.0781
 4495TIP3   OH213448   0.423   3.863   1.944 -0.7775 -0.2006  0.4233
 4495TIP3    H113449   0.350   3.923   1.957 -0.8836 -0.2618  0.1287
 4495TIP3    H213450   0.443   3.871   1.851 -1.1841 -1.0605  0.2526
 4496TIP3   OH213451   1.481   0.357   5.419 -0.2250  0.5471  0.3722
 4496TIP3    H113452   1.548   0.343   5.485 -0.1670  2.8300  0.8507
 4496TIP3    H213453   1.406   0.306   5.450  0.3100  0.3444  1.3634
 4497TIP3   OH213454   4.091   4.884   2.789 -0.4004 -0.0626 -0.0959
 4497TIP3    H113455   4.170   4.829   2.784 -0.2821  0.2122 -2.4760
 4497TIP3    H213456   4.122   4.972   2.767 -1.1119  0.3775  0.6169
 4498TIP3   OH213457   6.794   3.734   0.014  0.0612  0.1700 -0.9770
 4498TIP3    H113458   6.787   3.761  -0.077 -1.9137 -0.3656 -1.0229
 4498TIP3    H213459   6.745   3.800   0.063  0.2340 -0.1012 -0.4269
 4499TIP3   OH213460   5.074   0.855   0.775 -0.6380 -0.2061  0.4264
 4499TIP3    H113461   5.094   0.793   0.845 -1.1621 -0.0222  0.7457
 4499TIP3    H213462   5.123   0.822   0.699  1.9570  0.9480  1.4861
 4500TIP3   OH213463   0.541   1.165   1.274  0.2548 -0.4730  0.6279
 4500TIP3    H113464   0.474   1.219   1.316 -1.1387 -0.7396 -1.1018
 4500TIP3    H213465   0.496   1.126   1.199  2.7849  0.8319 -1.7703
 4501TIP3   OH213466   4.222   5.856   1.346 -0.1221  0.2220  0.4308
 4501TIP3    H113467   4.311   5.828   1.368 -0.5220 -1.5681 -0.0768
 4501TIP3    H213468   4.166   5.805   1.405 -0.9179 -0.5013 -0.9104
 4502TIP3   OH213469   0.923   5.295   3.109  0.0893 -0.4538 -0.1284
 4502TIP3    H113470   1.009   5.255   3.096  0.2432 -0.3573  0.5982
 4502TIP3    H213471   0.887   5.252   3.186  1.4530  2.7157  2.5125
 4503TIP3   OH213472   5.392   5.981   4.068  0.0639 -0.4161 -0.2919
 4503TIP3    H113473   5.407   5.927   4.146 -1.4915 -2.2326 -1.1456
 4503TIP3    H213474   5.301   6.008   4.075 -0.1149 -0.6475 -1.4670
 4504TIP3   OH213475   4.060   2.682   4.551  0.1873  0.0368 -0.4970
 4504TIP3    H113476   4.106   2.760   4.582  0.8141 -0.0739 -1.1322
 4504TIP3    H213477   3.971   2.692   4.583 -0.0114  1.5262 -1.4470
 4505TIP3   OH213478   3.932   0.674   1.825 -0.4619  0.0433 -0.2037
 4505TIP3    H113479   3.959   0.681   1.733  2.3188  1.2730  0.6225
 4505TIP3    H213480   3.905   0.583   1.835  1.4910 -0.7693 -1.7049
 4506TIP3   OH213481   7.051   1.301   5.836  0.1779 -0.0382 -0.0042
 4506TIP3    H113482   7.088   1.347   5.761  0.1685  0.2030  0.1388
 4506TIP3    H213483   7.111   1.320   5.908  0.1885 -0.2727  0.0478
 4507TIP3   OH213484   1.085   5.194   0.427  0.1345 -0.1148  0.1245
 4507TIP3    H113485   0.993   5.198   0.451  0.2665  0.8384  0.5195
 4507TIP3    H213486   1.094   5.256   0.354  0.6363  0.5334  0.7205
 4508TIP3   OH213487   3.443   3.568   5.251  0.9209  0.2617  0.0404
 4508TIP3    H113488   3.475   3.480   5.229  2.0985  0.2437  1.6498
 4508TIP3    H213489   3.513   3.606   5.304 -0.5358  1.3251  1.2639
 4509TIP3   OH213490   6.341   4.749   0.708 -0.0288 -0.4198 -0.6948
 4509TIP3    H113491   6.377   4.661   0.699  0.4634 -0.3952  0.7181
 4509TIP3    H213492   6.255   4.744   0.666  0.4503 -1.2512 -1.6249
 4510TIP3   OH213493   6.216   3.747   5.034  0.1056  0.1140 -0.2641
 4510TIP3    H113494   6.248   3.686   4.967  0.6790 -0.1354  0.2312
 4510TIP3    H213495   6.237   3.834   5.000  0.8417 -0.0302 -0.1801
 4511TIP3   OH213496   7.180   2.118   2.851  0.0060 -0.0313 -0.1257
 4511TIP3    H113497   7.263   2.082   2.882  1.0298  0.1913 -2.4291
 4511TIP3    H213498   7.124   2.117   2.928  2.1578 -0.0988  1.5431
 4512TIP3   OH213499   0.087   5.239   3.071 -0.9173 -0.8248  0.6808
 4512TIP3    H113500   0.123   5.324   3.098  1.1218 -0.4359 -2.7143
 4512TIP3    H213501   0.157   5.176   3.090 -2.2623 -1.7929  2.8051
 4513TIP3   OH213502   5.338   4.248   4.862 -0.3804 -0.0430  0.4028
 4513TIP3    H113503   5.419   4.260   4.912 -0.0797 -2.4015  0.5714
 4513TIP3    H213504   5.315   4.337   4.834  1.2309  0.9372  1.9232
 4514TIP3   OH213505   5.205   5.615   3.385 -0.5348  0.3794  0.1973
 4514TIP3    H113506   5.285   5.659   3.415 -0.1985  0.0215 -0.1629
 4514TIP3    H213507   5.236   5.541   3.333 -1.0990  0.8686 -0.8805
 4515TIP3   OH213508   0.598   6.438   3.134  0.2720  0.4053 -0.4455
 4515TIP3    H113509   0.625   6.529   3.148  1.7272  0.1001 -1.0611
 4515TIP3    H213510   0.668   6.386   3.174 -0.8336 -0.4627  0.4225
 4516TIP3   OH213511   1.063   4.351   3.932 -0.4424  0.6780 -0.2924
 4516TIP3    H113512   1.147   4.329   3.893 -0.2499 -1.6326  1.2525
 4516TIP3    H213513   0.999   4.335   3.863  0.1360 -0.4026 -0.5878
 4517TIP3   OH213514   1.297   6.657   5.748 -0.0782  0.1934  0.2289
 4517TIP3    H113515   1.230   6.687   5.687  0.4535  0.8021 -0.0557
 4517TIP3    H213516   1.365   6.724   5.746 -0.7999  1.1344  2.7788
 4518TIP3   OH213517   2.560   6.420   4.626  0.4946  0.2118 -0.3934
 4518TIP3    H113518   2.570   6.489   4.692  1.8934 -0.4832  0.1482
 4518TIP3    H213519   2.641   6.423   4.575  0.4865 -0.8960 -0.4875
 4519TIP3   OH213520   6.399   2.804   2.069 -0.1965  0.4451 -0.2264
 4519TIP3    H113521   6.378   2.811   2.162  1.1522  1.0709  0.0405
 4519TIP3    H213522   6.465   2.734   2.064 -0.6862  0.0057 -0.7987
 4520TIP3   OH213523   7.205   2.103   4.111 -0.1535  0.1564 -0.0123
 4520TIP3    H113524   7.120   2.060   4.117  0.2562 -0.5663  0.7984
 4520TIP3    H213525   7.268   2.031   4.109  0.4240  0.6683 -1.1188
 4521TIP3   OH213526   4.393   0.480   5.430  0.2915  0.4406  0.3707
 4521TIP3    H113527   4.352   0.503   5.513  1.7292 -0.1627  1.2793
 4521TIP3    H213528   4.322   0.486   5.366 -1.4838 -1.5451  2.0199
 4522TIP3   OH213529   0.090   3.539   4.840  0.4291  0.1591  0.5205
 4522TIP3    H113530   0.077   3.558   4.933  1.0081  0.5812  0.5230
 4522TIP3    H213531   0.067   3.447   4.831  1.3852 -0.1802  1.3025
 4523TIP3   OH213532   3.054   1.617   5.015  0.7998 -0.5113 -0.5894
 4523TIP3    H113533   3.106   1.569   5.079 -2.1833 -0.4730  2.1385
 4523TIP3    H213534   3.043   1.704   5.052  0.1872 -0.0056 -1.8886
 4524TIP3   OH213535   6.220   0.122   1.660 -0.2420  0.3849 -0.2369
 4524TIP3    H113536   6.190   0.031   1.661  0.5705  0.0953 -1.0211
 4524TIP3    H213537   6.210   0.151   1.750  1.0998 -1.0266  0.4250
 4525TIP3   OH213538   1.630   3.357   0.456  0.3768 -0.6463 -0.1006
 4525TIP3    H113539   1.584   3.308   0.524 -0.8484  0.6916  0.0947
 4525TIP3    H213540   1.678   3.425   0.503  1.3065 -1.0557 -0.4316
 4526TIP3   OH213541   3.215   6.510   4.510 -0.0811 -0.0527  0.0112
 4526TIP3    H113542   3.201   6.421   4.543 -0.1844  0.0747  0.3083
 4526TIP3    H213543   3.197   6.503   4.416 -2.7874  0.2205  0.4205
 4527TIP3   OH213544   5.978   6.122   5.854 -0.1376  0.1406 -0.3662
 4527TIP3    H113545   6.063   6.119   5.810  0.5149 -1.2551  0.9157
 4527TIP3    H213546   5.980   6.202   5.906  0.7424 -0.3126  0.3107
 4528TIP3   OH213547   2.161   0.102   5.777 -0.0497  0.0941  0.2104
 4528TIP3    H113548   2.174   0.186   5.823 -0.0270  0.1028  0.1883
 4528TIP3    H213549   2.072   0.108   5.742 -0.5083 -0.3947  1.2550
 4529TIP3   OH213550   0.419   5.385   3.983 -0.0425 -0.1278  0.0240
 4529TIP3    H113551   0.514   5.393   3.993 -0.0306  1.0815 -0.8513
 4529TIP3    H213552   0.391   5.470   3.950 -1.0790 -1.2424 -2.2036
 4530TIP3   OH213553   5.128   4.791   1.008 -0.2426  0.0993 -0.7561
 4530TIP3    H113554   5.185   4.856   1.049 -0.7071  0.2704 -0.3767
 4530TIP3    H213555   5.059   4.843   0.966 -0.5778 -0.1442 -0.5127
 4531TIP3   OH213556   2.837   5.935   4.738  0.0623 -0.5605 -0.2620
 4531TIP3    H113557   2.783   5.871   4.784  1.7753 -2.9437 -1.3380
 4531TIP3    H213558   2.874   5.989   4.807 -1.4605 -0.6687  0.6938
 4532TIP3   OH213559   3.707   5.638   2.470 -0.2763  0.0059 -0.2242
 4532TIP3    H113560   3.693   5.617   2.378 -0.6667  1.6842 -0.5839
 4532TIP3    H213561   3.621   5.665   2.502  0.0329  0.2896  0.3893
 4533TIP3   OH213562   3.159   5.761   1.743 -0.1412 -0.7415  0.1866
 4533TIP3    H113563   3.183   5.825   1.676 -2.1849  0.1376  0.2191
 4533TIP3    H213564   3.243   5.728   1.775  1.0292  1.9897  0.2252
 4534TIP3   OH213565   0.383   6.818   3.177  0.0559  0.5978 -0.2087
 4534TIP3    H113566   0.340   6.750   3.125  1.2348 -0.0358 -0.3958
 4534TIP3    H213567   0.402   6.775   3.261 -1.3136  1.4350  0.5589
 4535TIP3   OH213568   6.216   2.485   4.599 -0.2148  0.1128 -0.2239
 4535TIP3    H113569   6.192   2.402   4.640 -1.0107  1.4068  2.1167
 4535TIP3    H213570   6.306   2.473   4.570  0.3938 -0.9344  1.9339
 4536TIP3   OH213571   5.512   5.678   4.001 -0.1476  0.1188  0.6263
 4536TIP3    H113572   5.513   5.591   4.040  1.3789  0.3157  1.1265
 4536TIP3    H213573   5.522   5.737   4.076 -1.3597  0.7582  0.3153
 4537TIP3   OH213574   1.504   1.902   0.600 -0.0461  0.0454  0.1925
 4537TIP3    H113575   1.409   1.896   0.585 -0.0617  1.4013 -0.3355
 4537TIP3    H213576   1.542   1.892   0.513  0.1874  1.5348  0.1075
 4538TIP3   OH213577   3.195   3.713   2.985 -0.2658  0.1099 -0.0909
 4538TIP3    H113578   3.184   3.773   2.912 -1.6511  0.4708  0.3612
 4538TIP3    H213579   3.288   3.716   3.006 -0.5030  3.5772  1.0965
 4539TIP3   OH213580   3.564   2.055   0.278  0.2192 -0.1095  0.1506
 4539TIP3    H113581   3.648   2.081   0.241 -0.1561  0.6407 -0.1922
 4539TIP3    H213582   3.568   1.959   0.283  0.7173 -0.1442 -0.7689
 4540TIP3   OH213583   3.326   6.165   0.418 -0.0666 -0.1757  0.0843
 4540TIP3    H113584   3.386   6.123   0.356 -0.5972  0.0928 -0.6230
 4540TIP3    H213585   3.338   6.258   0.403 -0.8199 -0.1268 -0.2064
 4541TIP3   OH213586   1.977   2.813   4.755 -0.0280 -0.3082  0.1821
 4541TIP3    H113587   2.009   2.827   4.844  0.2093 -0.3472  0.1054
 4541TIP3    H213588   1.887   2.843   4.756 -0.1223 -0.5994  0.5164
 4542TIP3   OH213589   5.115   4.457   2.759 -0.0975 -0.4490 -0.3651
 4542TIP3    H113590   5.034   4.502   2.735  0.7342  1.3175 -0.0345
 4542TIP3    H213591   5.101   4.428   2.849  0.0044  0.7738  0.0545
 4543TIP3   OH213592   2.801   1.703   2.869 -0.0641  0.3129  0.3225
 4543TIP3    H113593   2.887   1.744   2.857  0.2099  0.1260  1.5135
 4543TIP3    H213594   2.798   1.681   2.962 -0.8987 -0.8354  0.0424
 4544TIP3   OH213595   7.097   5.247   1.433 -0.2126 -1.1177 -0.1030
 4544TIP3    H113596   7.090   5.300   1.513 -0.5064 -0.2202 -0.7051
 4544TIP3    H213597   7.023   5.186   1.438 -0.6322 -0.6134 -0.0067
 4545TIP3   OH213598   3.350   6.385   4.725 -0.4146  0.2048 -0.4697
 4545TIP3    H113599   3.384   6.456   4.780 -0.8072  0.7364 -0.9151
 4545TIP3    H213600   3.416   6.374   4.657  0.2872 -0.7453  0.3277
 4546TIP3   OH213601   5.286   3.840   3.126  0.1439  0.2139  0.0513
 4546TIP3    H113602   5.271   3.747   3.142 -1.4953  0.4127 -0.0985
 4546TIP3    H213603   5.354   3.865   3.188 -0.2051 -0.8454  0.8873
 4547TIP3   OH213604   6.828   0.886   2.089  0.1816 -0.1312 -0.0817
 4547TIP3    H113605   6.753   0.933   2.054 -0.6889 -1.3736  0.0316
 4547TIP3    H213606   6.897   0.952   2.098 -0.2024  0.6231 -2.2239
 4548TIP3   OH213607   4.249   6.421   4.732  0.1545 -0.0975  0.0311
 4548TIP3    H113608   4.160   6.456   4.744  0.9445  2.4935 -0.8270
 4548TIP3    H213609   4.297   6.449   4.809  0.8563  0.9610 -0.7549
 4549TIP3   OH213610   0.071   1.551   3.453  0.3594 -0.1328  0.0103
 4549TIP3    H113611  -0.016   1.516   3.433  0.9881 -2.8054  1.3940
 4549TIP3    H213612   0.058   1.609   3.528 -0.3547  0.3492 -0.4775
 4550TIP3   OH213613   6.053   0.119   2.393 -0.0437  0.1275  0.0787
 4550TIP3    H113614   6.109   0.059   2.443  0.6214 -0.4921 -1.3394
 4550TIP3    H213615   5.973   0.069   2.377  0.0687  0.0241 -0.1638
 4551TIP3   OH213616   5.727   4.557   5.227 -0.2811 -0.4601  0.1364
 4551TIP3    H113617   5.736   4.648   5.254 -0.6989 -0.3007 -0.2559
 4551TIP3    H213618   5.639   4.551   5.190 -0.2243 -1.0023  0.0784
 4552TIP3   OH213619   1.269   1.490   4.296  0.1535  0.1678  0.1902
 4552TIP3    H113620   1.324   1.416   4.269  2.0989  1.5147  0.2351
 4552TIP3    H213621   1.180   1.464   4.273  1.0911 -0.9851 -2.4991
 4553TIP3   OH213622   6.001   6.188   3.254  0.3749  0.1447 -0.0646
 4553TIP3    H113623   5.942   6.218   3.185  0.9789  1.3491 -0.0873
 4553TIP3    H213624   6.014   6.264   3.310 -0.4123 -0.9040  1.6396
 4554TIP3   OH213625   5.001   1.859   3.239  1.1075  0.2998 -0.1462
 4554TIP3    H113626   4.919   1.828   3.200 -0.5009  0.7923  2.5986
 4554TIP3    H213627   4.995   1.954   3.232  1.7049  0.3189 -0.3973
 4555TIP3   OH213628   4.916   2.923   0.891 -0.1451 -0.1879  0.0111
 4555TIP3    H113629   4.950   2.885   0.810  0.2669 -0.0236  0.1011
 4555TIP3    H213630   4.901   3.015   0.871 -1.0120 -0.3663 -0.1667
 4556TIP3   OH213631   3.002   0.226   3.881  0.3190 -0.0404  0.3292
 4556TIP3    H113632   2.994   0.316   3.851 -0.0061 -0.0976  0.2396
 4556TIP3    H213633   2.941   0.219   3.955 -0.9572 -0.6392 -0.7300
 4557TIP3   OH213634   6.703   3.166   5.466  0.3071  0.7825  0.3069
 4557TIP3    H113635   6.641   3.239   5.469  0.1971  0.6644  1.2387
 4557TIP3    H213636   6.676   3.114   5.390 -2.1973 -0.5170  1.9402
 4558TIP3   OH213637   0.745   3.031   1.558 -0.4907 -0.2782 -0.5445
 4558TIP3    H113638   0.715   3.119   1.583  1.0524 -0.1076  0.9175
 4558TIP3    H213639   0.675   2.973   1.586 -0.4676  0.2941  0.8141
 4559TIP3   OH213640   3.985   0.365   5.439  0.4118  1.1342  0.6425
 4559TIP3    H113641   3.995   0.270   5.439  2.4439  1.2897 -0.7627
 4559TIP3    H213642   3.898   0.380   5.477 -0.5537 -1.3297 -0.3665
 4560TIP3   OH213643   2.144   2.820   2.756 -0.0783 -0.4739 -0.5849
 4560TIP3    H113644   2.212   2.866   2.805  0.7940 -2.4392  0.1763
 4560TIP3    H213645   2.065   2.833   2.807  0.3856 -0.7340  0.2184
 4561TIP3   OH213646   0.153   6.002   1.983 -0.1470  0.3551  0.2215
 4561TIP3    H113647   0.142   5.979   1.891 -0.5743 -0.8852  0.5656
 4561TIP3    H213648   0.071   6.043   2.008  0.2985  1.5329 -0.1653
 4562TIP3   OH213649   6.744   5.177   3.368 -0.2787  0.0953 -0.0051
 4562TIP3    H113650   6.773   5.087   3.355  1.1546  0.5603 -0.2610
 4562TIP3    H213651   6.648   5.172   3.370 -0.4124 -1.0601 -3.0867
 4563TIP3   OH213652   5.687   0.679   4.325 -0.0002 -0.4112  0.4369
 4563TIP3    H113653   5.747   0.626   4.273 -0.3889 -0.0101 -0.4396
 4563TIP3    H213654   5.707   0.769   4.300 -0.7032 -0.2565  0.4163
 4564TIP3   OH213655   4.223   6.286   1.907 -0.1198  0.2906  0.0434
 4564TIP3    H113656   4.142   6.319   1.867 -1.4141 -0.1672  2.1180
 4564TIP3    H213657   4.229   6.195   1.877 -1.8310 -0.4857  1.8428
 4565TIP3   OH213658   4.655   0.397   2.511 -0.0166  0.3922 -0.1049
 4565TIP3    H113659   4.564   0.372   2.494 -0.0707  0.5271 -0.0174
 4565TIP3    H213660   4.656   0.421   2.604  0.0411  0.6835 -0.1782
 4566TIP3   OH213661   5.292   6.507   2.581 -0.1828 -0.3318  0.7711
 4566TIP3    H113662   5.342   6.437   2.623  1.5011  0.7842  0.6804
 4566TIP3    H213663   5.312   6.585   2.632  0.6741  0.7443 -1.1472
 4567TIP3   OH213664   2.265   1.140   5.579 -0.0106 -0.2895  0.1717
 4567TIP3    H113665   2.322   1.075   5.537  1.5404  0.7234  0.6102
 4567TIP3    H213666   2.198   1.088   5.623 -0.4686 -1.4596 -1.7905
 4568TIP3   OH213667   4.754   6.003   5.435  0.7036  0.0506  0.5590
 4568TIP3    H113668   4.765   5.909   5.424 -0.2054 -0.0586  0.5331
 4568TIP3    H213669   4.722   6.033   5.349  0.8596  0.3596  0.6081
 4569TIP3   OH213670   6.052   3.707   4.555  0.0982 -0.2397  0.1842
 4569TIP3    H113671   5.983   3.672   4.612 -0.2349 -1.6453 -1.0347
 4569TIP3    H213672   6.011   3.783   4.513 -0.1204 -0.0457  0.7349
 4570TIP3   OH213673   4.405   6.108   4.443 -0.5307 -0.2724 -0.5126
 4570TIP3    H113674   4.325   6.147   4.477  0.3631  1.3978 -0.2251
 4570TIP3    H213675   4.456   6.086   4.521 -0.5820 -1.1018 -0.6996
 4571TIP3   OH213676   4.420   1.785   2.175  0.0494  0.6016  0.7101
 4571TIP3    H113677   4.503   1.828   2.155 -0.2602  0.3306 -1.3350
 4571TIP3    H213678   4.375   1.846   2.234  1.3998  1.0508  1.3200
 4572TIP3   OH213679   3.172   4.611   3.404  0.5566 -0.0011  0.3099
 4572TIP3    H113680   3.108   4.681   3.394  0.5614 -0.2251 -1.8054
 4572TIP3    H213681   3.252   4.656   3.432 -0.3464  0.3242  2.6030
 4573TIP3   OH213682   2.387   1.742   1.302 -0.2259  0.2986  0.0087
 4573TIP3    H113683   2.416   1.747   1.211 -0.7758 -2.3225 -0.3921
 4573TIP3    H213684   2.304   1.696   1.298 -0.0812 -0.1945  1.8593
 4574TIP3   OH213685   3.188   4.927   4.962 -0.0264  0.3048  0.2967
 4574TIP3    H113686   3.254   4.959   5.023  0.2998  0.2741 -0.0368
 4574TIP3    H213687   3.236   4.871   4.901 -0.2359  0.8577 -0.3858
 4575TIP3   OH213688   1.082   1.765   2.309 -0.2832  0.3603 -0.5617
 4575TIP3    H113689   1.147   1.807   2.253  2.1306  1.4032  2.6614
 4575TIP3    H213690   1.049   1.836   2.364  0.7255 -1.0956  2.1468
 4576TIP3   OH213691   5.578   5.808   4.267 -0.5452 -0.3369 -0.1280
 4576TIP3    H113692   5.627   5.734   4.301  0.5985  0.5900  0.3134
 4576TIP3    H213693   5.507   5.821   4.329 -0.8373 -1.1266 -0.2839
 4577TIP3   OH213694   1.765   5.173   5.247  0.9656 -0.4647  0.1290
 4577TIP3    H113695   1.747   5.110   5.317 -1.3167  0.4491  0.4796
 4577TIP3    H213696   1.785   5.255   5.293 -1.2576  0.3302 -0.1547
 4578TIP3   OH213697   1.762   5.399   2.463  0.0635 -0.4268 -0.1090
 4578TIP3    H113698   1.753   5.469   2.398 -1.3139  0.1069  0.5997
 4578TIP3    H213699   1.732   5.320   2.418  1.9505 -0.6662 -1.0219
 4579TIP3   OH213700   6.928   4.648   2.999 -0.0454  1.1943 -0.3944
 4579TIP3    H113701   6.957   4.603   3.078  0.7276  1.7466 -0.3580
 4579TIP3    H213702   6.839   4.615   2.985 -0.0298  0.7539  0.4471
 4580TIP3   OH213703   4.455   5.329   3.280 -0.4113  0.2312 -0.1736
 4580TIP3    H113704   4.487   5.317   3.191  1.5105 -0.2480  0.5250
 4580TIP3    H213705   4.392   5.259   3.293 -0.7779  0.3650 -1.1821
 4581TIP3   OH213706   4.453   0.314   3.872 -0.3811 -0.1036  0.1345
 4581TIP3    H113707   4.491   0.287   3.788  0.3983  0.5295  0.2684
 4581TIP3    H213708   4.410   0.236   3.905  1.6052 -1.1590  0.4071
 4582TIP3   OH213709   5.826   6.305   0.855 -0.1650  0.6235  0.0132
 4582TIP3    H113710   5.900   6.323   0.913 -0.8916  0.5369  0.9879
 4582TIP3    H213711   5.867   6.272   0.775  0.8785  1.1108  0.3215
 4583TIP3   OH213712   5.074   3.830   1.939 -0.3366 -0.0182  0.2486
 4583TIP3    H113713   5.157   3.782   1.940 -0.6911 -0.6242  1.1497
 4583TIP3    H213714   5.086   3.900   2.003 -0.0253  0.7804 -0.6542
 4584TIP3   OH213715   6.654   2.310   1.230  0.1099 -0.8107  0.2894
 4584TIP3    H113716   6.708   2.304   1.309 -0.6163  1.5437  1.0418
 4584TIP3    H213717   6.715   2.337   1.162  0.2196  0.0292  0.7157
 4585TIP3   OH213718   5.035   6.728   3.283 -0.5943 -0.5860 -0.2869
 4585TIP3    H113719   4.960   6.714   3.340 -0.1047  0.1726  0.5608
 4585TIP3    H213720   5.046   6.645   3.237 -2.6070 -0.3959 -1.2412
 4586TIP3   OH213721   5.683   2.514   4.578 -0.5228  0.1319  0.4008
 4586TIP3    H113722   5.599   2.535   4.620  0.4904 -0.8002  3.0783
 4586TIP3    H213723   5.657   2.478   4.493 -2.9117 -0.6539  1.3484
 4587TIP3   OH213724   1.652   4.315   0.298  0.5249  0.0765 -0.4063
 4587TIP3    H113725   1.699   4.232   0.303 -1.6669 -1.1758  1.1526
 4587TIP3    H213726   1.563   4.294   0.326 -0.6076  2.6190 -1.7445
 4588TIP3   OH213727   6.166   3.215   5.759  0.3784  0.3882 -0.0033
 4588TIP3    H113728   6.158   3.307   5.735 -1.7829  0.0886 -0.6564
 4588TIP3    H213729   6.260   3.196   5.752  0.5819  1.8564 -2.4595
 4589TIP3   OH213730   2.236   3.025   5.810 -0.4322  0.2473 -0.2648
 4589TIP3    H113731   2.184   2.967   5.865 -0.9310  0.0971 -0.8813
 4589TIP3    H213732   2.264   2.970   5.737 -0.3976  0.6321 -0.5431
 4590TIP3   OH213733   5.518   5.691   0.348  0.4531  0.2489  0.2947
 4590TIP3    H113734   5.542   5.755   0.281  0.2205 -0.8585 -0.9036
 4590TIP3    H213735   5.442   5.729   0.392  0.1488  0.6743 -0.5818
 4591TIP3   OH213736   0.081   2.696   5.118  0.4922  0.2270  0.3958
 4591TIP3    H113737   0.043   2.724   5.035  0.5446  0.0499  0.3107
 4591TIP3    H213738   0.175   2.692   5.101  0.3010 -3.0878 -0.5803
 4592TIP3   OH213739   0.233   1.150   3.483 -0.1253  0.4872  0.3457
 4592TIP3    H113740   0.256   1.228   3.534  2.7791 -0.5723  0.8399
 4592TIP3    H213741   0.245   1.077   3.544 -1.3241 -0.4788 -0.5315
 4593TIP3   OH213742   1.913   5.415   0.200 -0.2308  0.3023  0.0001
 4593TIP3    H113743   2.002   5.401   0.233 -0.4445  0.1456  0.5066
 4593TIP3    H213744   1.862   5.438   0.277 -0.0028  3.5454 -0.6878
 4594TIP3   OH213745   2.952   3.218   2.002  0.8566  0.3260 -0.2215
 4594TIP3    H113746   3.020   3.204   1.936 -1.0921 -0.5290 -2.1303
 4594TIP3    H213747   2.936   3.312   2.000  1.0607  0.3537 -0.6805
 4595TIP3   OH213748   0.495   4.835   3.815 -0.2478  0.1338  0.0617
 4595TIP3    H113749   0.476   4.842   3.722  0.2554  1.6166  0.0509
 4595TIP3    H213750   0.495   4.741   3.832  2.7081 -0.3799 -2.0658
 4596TIP3   OH213751   1.053   4.913   1.662 -0.0986  0.2064 -0.1885
 4596TIP3    H113752   1.023   4.911   1.571 -1.4793  1.5486  0.2001
 4596TIP3    H213753   1.029   5.000   1.693 -1.5384 -0.9161  2.0735
 4597TIP3   OH213754   4.576   0.111   5.361 -0.5710 -0.0777  0.5209
 4597TIP3    H113755   4.492   0.136   5.401 -0.4949  0.4641  0.3586
 4597TIP3    H213756   4.591   0.021   5.389 -2.0459 -0.7951 -0.7940
 4598TIP3   OH213757   4.655   6.116   5.188  0.1762 -0.1004  0.3418
 4598TIP3    H113758   4.560   6.130   5.190  0.3517  1.2142  0.4986
 4598TIP3    H213759   4.684   6.170   5.114  1.0143  1.0669  1.4817
 4599TIP3   OH213760   4.849   0.499   0.605  0.3425  0.7566 -1.2534
 4599TIP3    H113761   4.811   0.412   0.606 -1.2567  1.4252 -0.6905
 4599TIP3    H213762   4.907   0.499   0.529  0.3179 -0.7634 -1.2973
 4600TIP3   OH213763   3.440   2.912   2.926  0.2737 -0.1879 -0.2333
 4600TIP3    H113764   3.349   2.936   2.907  0.8994  2.1674 -0.6787
 4600TIP3    H213765   3.450   2.824   2.889 -1.4366  0.0802 -1.4772
 4601TIP3   OH213766   0.003   4.134   3.900 -0.5927 -0.1346  0.0406
 4601TIP3    H113767   0.088   4.169   3.927 -0.7856  0.4281 -0.0737
 4601TIP3    H213768   0.001   4.045   3.936  0.4791 -0.5387 -0.8480
 4602TIP3   OH213769   6.396   5.713   2.223 -0.0681  0.1446 -0.2360
 4602TIP3    H113770   6.343   5.703   2.302  0.2412 -1.7075 -0.2034
 4602TIP3    H213771   6.332   5.729   2.154 -0.3761  1.3292  0.2941
 4603TIP3   OH213772   2.946   2.422   5.589  0.2037  0.5027  0.1692
 4603TIP3    H113773   2.980   2.385   5.507 -0.9773 -0.3682  0.0581
 4603TIP3    H213774   2.966   2.356   5.655 -0.8115  0.1913  0.1826
 4604TIP3   OH213775   4.112   2.835   4.253  0.2062  0.1462 -0.5078
 4604TIP3    H113776   4.189   2.867   4.204  1.2538 -0.7691  0.4779
 4604TIP3    H213777   4.101   2.899   4.323  1.2566 -0.6922  0.4594
 4605TIP3   OH213778   6.155   3.012   4.891 -0.1643 -0.3306  0.1142
 4605TIP3    H113779   6.127   2.975   4.807  0.0130  1.7325 -0.9361
 4605TIP3    H213780   6.223   2.953   4.922  0.9522 -0.2896 -2.0549
 4606TIP3   OH213781   6.516   1.455   5.804  0.0817  0.1531 -0.2858
 4606TIP3    H113782   6.487   1.519   5.870  1.5612  1.3207 -0.7286
 4606TIP3    H213783   6.592   1.413   5.844 -0.2272 -0.5884 -0.4555
 4607TIP3   OH213784   2.845   3.317   4.888  0.3222  0.1766 -0.4544
 4607TIP3    H113785   2.812   3.292   4.801 -1.1271 -1.1182  0.4056
 4607TIP3    H213786   2.786   3.386   4.917  0.7079  0.4965 -0.4299
 4608TIP3   OH213787   5.404   5.267   5.100  0.1044  0.2873 -0.6142
 4608TIP3    H113788   5.345   5.343   5.097  1.0625  1.0724 -0.1415
 4608TIP3    H213789   5.349   5.193   5.072 -0.6326  1.2774 -1.9404
 4609TIP3   OH213790   5.109   6.473   3.596 -0.5439  0.2726 -0.4093
 4609TIP3    H113791   5.145   6.540   3.537  0.1562  0.0157 -0.2820
 4609TIP3    H213792   5.086   6.400   3.538 -0.7287  0.3821 -0.4745
 4610TIP3   OH213793   6.027   6.000   3.832 -0.1076  0.4543 -0.2004
 4610TIP3    H113794   5.958   6.030   3.774 -0.8643  1.5962  1.2213
 4610TIP3    H213795   6.089   6.073   3.836  0.5878 -0.1062 -0.5540
 4611TIP3   OH213796   7.081   1.575   4.522  0.3510  0.2854 -0.4091
 4611TIP3    H113797   7.056   1.485   4.544 -1.1693  0.8031  0.1084
 4611TIP3    H213798   7.103   1.572   4.429 -0.4892 -0.4756 -0.6040
 4612TIP3   OH213799   3.487   5.797   4.926 -0.1295 -0.5573  0.0592
 4612TIP3    H113800   3.576   5.764   4.932 -0.1595 -0.6920 -0.2551
 4612TIP3    H213801   3.470   5.834   5.013 -0.1286 -1.4302  0.4402
 4613TIP3   OH213802   3.352   5.077   3.821 -0.1015 -0.3374  0.3115
 4613TIP3    H113803   3.359   5.101   3.914 -1.2470 -0.2678  0.3929
 4613TIP3    H213804   3.341   4.982   3.822 -0.6083 -0.2787  0.2741
 4614TIP3   OH213805   1.017   4.949   5.111 -0.0236  0.0218 -0.2977
 4614TIP3    H113806   0.996   4.895   5.187 -0.9475  1.5740  0.6173
 4614TIP3    H213807   0.948   4.929   5.047 -0.0772 -0.2422 -0.1590
 4615TIP3   OH213808   0.702   6.802   4.423 -0.0125  0.1920  0.2014
 4615TIP3    H113809   0.786   6.771   4.392 -0.6617 -0.6387 -0.7842
 4615TIP3    H213810   0.646   6.724   4.426 -1.0346  0.8833 -0.1604
 4616TIP3   OH213811   2.154   1.866   1.588 -0.3225 -0.1671  0.2105
 4616TIP3    H113812   2.136   1.922   1.513 -1.1026  2.2422  2.0734
 4616TIP3    H213813   2.248   1.848   1.583 -0.1856  0.7386 -0.8197
 4617TIP3   OH213814   5.443   2.613   3.941  0.0676  0.3041 -0.0853
 4617TIP3    H113815   5.425   2.531   3.987  0.6767  0.7099  0.9130
 4617TIP3    H213816   5.450   2.588   3.849  2.1782 -1.1019  0.4053
 4618TIP3   OH213817   5.805   5.964   4.219 -0.0015 -0.1044 -0.0612
 4618TIP3    H113818   5.847   5.912   4.150  0.4241  0.1177  0.0325
 4618TIP3    H213819   5.720   5.922   4.231 -0.0701 -0.1624 -0.7065
 4619TIP3   OH213820   1.017   2.590   3.806  0.2391  0.0530 -0.4016
 4619TIP3    H113821   1.010   2.671   3.857  0.7011 -0.6512  0.8157
 4619TIP3    H213822   0.955   2.602   3.735 -0.1496  1.2246  0.0994
 4620TIP3   OH213823   2.701   6.402   2.530 -0.0549  0.5614 -0.3962
 4620TIP3    H113824   2.632   6.337   2.519  0.3750 -0.0618  0.4477
 4620TIP3    H213825   2.705   6.447   2.446 -0.1561 -0.7133 -1.1168
 4621TIP3   OH213826   0.325   3.519   5.030  0.6970 -0.8317 -0.2480
 4621TIP3    H113827   0.359   3.497   5.116  0.1412  2.2192  0.8710
 4621TIP3    H213828   0.232   3.538   5.044  0.7158  0.2848 -1.3526
 4622TIP3   OH213829   4.562   1.766   1.633 -0.4658  0.2487  0.0097
 4622TIP3    H113830   4.559   1.671   1.633 -1.9566  0.2755 -0.1701
 4622TIP3    H213831   4.580   1.790   1.724  2.0869 -0.1946 -0.2903
 4623TIP3   OH213832   5.407   3.922   5.041 -0.2056 -0.6661  0.4094
 4623TIP3    H113833   5.494   3.958   5.056 -0.0163 -0.7618 -0.4072
 4623TIP3    H213834   5.399   3.852   5.106  0.5140 -0.9643  0.1911
 4624TIP3   OH213835   4.193   3.853   1.659  0.0654 -0.1314  0.3721
 4624TIP3    H113836   4.186   3.804   1.741 -0.4235 -0.9762 -0.1756
 4624TIP3    H213837   4.143   3.933   1.675  0.0454 -0.2519  0.9285
 4625TIP3   OH213838   2.088   6.471   4.007  0.1496  0.0635 -0.2778
 4625TIP3    H113839   2.112   6.521   3.930  0.9292  0.6315  0.3175
 4625TIP3    H213840   2.041   6.395   3.973  0.0585  0.5489 -1.2675
 4626TIP3   OH213841   6.405   3.923   0.569  0.2408 -0.2832 -0.9758
 4626TIP3    H113842   6.419   3.848   0.510  1.9084 -0.1814 -0.7652
 4626TIP3    H213843   6.418   3.887   0.656 -0.0683  0.0258 -0.8024
 4627TIP3   OH213844   4.414   6.646   3.502  0.4039 -0.6265  0.7871
 4627TIP3    H113845   4.361   6.657   3.422  0.5742 -0.8894  0.6372
 4627TIP3    H213846   4.446   6.556   3.497  1.8909 -0.0975  0.2391
 4628TIP3   OH213847   6.054   6.552   3.647 -0.6729 -0.4023  0.6192
 4628TIP3    H113848   6.009   6.636   3.651  0.3462  0.3011 -1.3971
 4628TIP3    H213849   6.116   6.554   3.720 -0.2646  0.8566  0.2529
 4629TIP3   OH213850   6.035   4.099   5.097 -0.0621  0.3568 -0.0794
 4629TIP3    H113851   6.109   4.107   5.038 -0.6395 -1.7319 -1.1929
 4629TIP3    H213852   5.974   4.167   5.069  0.7083  0.9878 -0.2506
 4630TIP3   OH213853   6.584   4.789   3.727 -0.0268 -0.3558  0.5555
 4630TIP3    H113854   6.538   4.733   3.664  1.0900 -0.1065 -0.5255
 4630TIP3    H213855   6.603   4.869   3.678 -0.9970  0.7446  1.8732
 4631TIP3   OH213856   4.132   2.561   4.805 -0.0949  0.2444 -0.4611
 4631TIP3    H113857   4.171   2.604   4.729  0.8386 -0.9735 -0.6827
 4631TIP3    H213858   4.060   2.510   4.769 -0.1101  0.2428 -0.4288
 4632TIP3   OH213859   4.367   6.649   2.754  0.0165  0.2937 -0.2002
 4632TIP3    H113860   4.275   6.627   2.739  0.1657  0.2113 -1.0508
 4632TIP3    H213861   4.377   6.649   2.849 -0.5327 -1.0598 -0.1219
 4633TIP3   OH213862   5.679   3.935   1.649  0.2191 -0.0669 -0.6264
 4633TIP3    H113863   5.656   3.958   1.559  1.2813 -1.8594 -1.4186
 4633TIP3    H213864   5.716   4.015   1.686 -1.3830  1.0639 -1.3213
 4634TIP3   OH213865   0.991   6.161   2.640  0.1188  0.2379 -0.1632
 4634TIP3    H113866   0.995   6.154   2.545  1.8628  0.6054 -0.1429
 4634TIP3    H213867   1.081   6.175   2.668 -0.1700 -1.1394  1.6721
 4635TIP3   OH213868   4.091   2.243   3.949  0.1244 -0.2297 -0.0287
 4635TIP3    H113869   4.151   2.191   3.895 -0.9620 -1.8763  0.2874
 4635TIP3    H213870   4.089   2.329   3.906  2.3407 -0.2545 -0.2949
 4636TIP3   OH213871   2.148   0.430   3.170  0.0710 -0.0090 -0.0542
 4636TIP3    H113872   2.234   0.433   3.213 -0.4715  2.5388  1.0971
 4636TIP3    H213873   2.168   0.420   3.077  1.5285 -1.0128  0.3311
 4637TIP3   OH213874   5.581   4.162   4.065  0.1659  0.2594 -0.1035
 4637TIP3    H113875   5.599   4.080   4.019 -1.0395  0.2407 -0.5685
 4637TIP3    H213876   5.626   4.153   4.149  0.7659 -0.5124 -0.4980
 4638TIP3   OH213877   1.442   6.738   1.055 -0.1154 -0.2969 -0.6730
 4638TIP3    H113878   1.497   6.790   1.113 -0.2370 -0.4820 -0.3870
 4638TIP3    H213879   1.477   6.649   1.061 -0.3172 -0.3769 -0.6409
 4639TIP3   OH213880   3.526   2.795   3.485 -0.6080 -0.2878  0.6373
 4639TIP3    H113881   3.580   2.874   3.493 -0.6942 -0.3063  1.6200
 4639TIP3    H213882   3.456   2.819   3.425  0.8805 -0.4884 -1.2642
 4640TIP3   OH213883   2.115   5.069   4.034  0.0435 -0.0586 -0.5075
 4640TIP3    H113884   2.092   4.998   4.095  2.7294 -1.3341 -0.8397
 4640TIP3    H213885   2.116   5.028   3.948  0.6585  0.6457 -0.8451
 4641TIP3   OH213886   5.711   0.794   2.106  0.3271  0.0361  0.1607
 4641TIP3    H113887   5.688   0.819   2.195 -3.5017 -1.3721 -0.2174
 4641TIP3    H213888   5.661   0.854   2.050 -0.3252 -1.3948 -0.8866
 4642TIP3   OH213889   2.226   6.319   0.287  0.3374  0.0606  0.0670
 4642TIP3    H113890   2.180   6.326   0.203  1.1298 -1.1170 -0.4963
 4642TIP3    H213891   2.211   6.403   0.330  0.8680  1.1492 -1.7575
 4643TIP3   OH213892   7.053   0.379   0.671  0.1257 -0.5110  0.0195
 4643TIP3    H113893   7.146   0.399   0.661  0.4805 -1.5152  0.9912
 4643TIP3    H213894   7.029   0.418   0.755 -1.0803  2.1302 -1.4578
 4644TIP3   OH213895   5.007   1.304   5.205 -0.4143 -0.1719 -0.2655
 4644TIP3    H113896   5.065   1.286   5.278 -1.1835  1.7718  0.9069
 4644TIP3    H213897   5.019   1.398   5.187 -1.5931 -0.2002 -1.3950
 4645TIP3   OH213898   2.117   0.049   4.109 -0.6834 -0.2940 -0.2174
 4645TIP3    H113899   2.137   0.003   4.028  1.0997  0.6373 -0.3361
 4645TIP3    H213900   2.127  -0.017   4.177  0.3440 -0.4707 -0.5299
 4646TIP3   OH213901   7.093   6.206   4.962 -0.0678 -0.1144  0.1376
 4646TIP3    H113902   7.137   6.287   4.984 -0.8618  0.4846 -0.4053
 4646TIP3    H213903   7.044   6.182   5.041 -0.9735  0.7213 -0.1431
 4647TIP3   OH213904   3.995   1.024   5.360  0.1903  0.0536 -0.3207
 4647TIP3    H113905   3.914   1.073   5.374  0.9084  1.1285  0.1416
 4647TIP3    H213906   3.990   0.996   5.268 -0.4171  0.6420 -0.4775
 4648TIP3   OH213907   1.238   3.698   5.590 -0.0315  0.1615  0.7656
 4648TIP3    H113908   1.196   3.783   5.595 -0.2208  0.1783 -0.7108
 4648TIP3    H213909   1.190   3.651   5.521  0.3873 -0.9590  1.2027
 4649TIP3   OH213910   5.556   5.926   0.609 -0.2097 -0.2935 -0.0128
 4649TIP3    H113911   5.474   5.890   0.575 -0.8566  0.3008  0.8454
 4649TIP3    H213912   5.609   5.850   0.631  0.0330 -0.6842 -1.8498
 4650TIP3   OH213913   1.958   5.343   1.710  0.5587 -0.1501 -0.1820
 4650TIP3    H113914   1.919   5.414   1.763 -1.2457 -2.0275  1.1903
 4650TIP3    H213915   1.976   5.274   1.774 -0.1015 -1.8670 -1.7887
 4651TIP3   OH213916   6.641   1.288   1.630 -0.2100 -0.1291 -0.2946
 4651TIP3    H113917   6.691   1.355   1.582  1.1278 -1.6968 -1.2260
 4651TIP3    H213918   6.588   1.246   1.562 -0.5134 -0.4651  0.1518
 4652TIP3   OH213919   2.409   2.396   2.750  0.2041 -0.5164 -0.4260
 4652TIP3    H113920   2.328   2.420   2.704  0.2805 -1.1986 -0.9365
 4652TIP3    H213921   2.476   2.394   2.681  0.5129 -0.6434 -0.1251
 4653TIP3   OH213922   4.262   6.772   3.303 -0.3288  0.2566  0.7733
 4653TIP3    H113923   4.191   6.829   3.274 -0.8746 -0.1119  1.3611
 4653TIP3    H213924   4.288   6.725   3.223 -0.4889  0.6692  0.4759
 4654TIP3   OH213925   2.075   4.440   0.257  0.8531 -0.2955 -0.1146
 4654TIP3    H113926   2.146   4.500   0.280  1.2486 -0.4888 -0.8187
 4654TIP3    H213927   1.998   4.478   0.299  1.4341 -0.2939  0.9884
 4655TIP3   OH213928   6.664   2.676   4.847 -0.0198  0.4876  0.3998
 4655TIP3    H113929   6.585   2.636   4.811  0.3640  0.8970 -0.9358
 4655TIP3    H213930   6.689   2.618   4.920 -1.7464  0.5633  1.1129
 4656TIP3   OH213931   0.715   2.903   4.679  0.8092 -0.6002 -0.5140
 4656TIP3    H113932   0.797   2.943   4.708  0.7302 -1.3700  0.8125
 4656TIP3    H213933   0.743   2.827   4.628  0.9322 -1.5894  0.9920
 4657TIP3   OH213934   5.974   4.592   3.757 -0.2993 -0.2086  0.4260
 4657TIP3    H113935   6.014   4.579   3.671  1.6479  1.9572  0.8900
 4657TIP3    H213936   5.882   4.567   3.745 -0.1800  0.3835 -2.3966
 4658TIP3   OH213937   3.815   0.005   4.510 -0.1418 -0.1396 -0.1094
 4658TIP3    H113938   3.782   0.008   4.599 -1.0766  0.0152 -0.4492
 4658TIP3    H213939   3.738   0.016   4.455  0.1173 -2.2159 -0.9924
 4659TIP3   OH213940   1.149   2.423   4.769  0.3468 -0.2049 -0.2157
 4659TIP3    H113941   1.133   2.329   4.767  0.0384 -0.1645  0.1221
 4659TIP3    H213942   1.180   2.441   4.857 -3.6095  0.5899  1.2570
 4660TIP3   OH213943   5.337   0.416   2.400 -0.5465 -0.4358 -0.1556
 4660TIP3    H113944   5.297   0.465   2.472 -1.4537 -0.8998 -0.3229
 4660TIP3    H213945   5.366   0.334   2.439  0.6577  0.0777  0.0533
 4661TIP3   OH213946   4.147   5.704   2.704 -0.1951 -0.8466  0.0713
 4661TIP3    H113947   4.086   5.682   2.633  0.5186  0.5177 -1.0308
 4661TIP3    H213948   4.092   5.745   2.770 -0.7974 -1.6303  0.0652
 4662TIP3   OH213949   5.025   6.069   0.418 -0.2202 -0.1473  0.5229
 4662TIP3    H113950   4.931   6.076   0.438 -0.3550 -1.4636  0.4498
 4662TIP3    H213951   5.028   6.053   0.323 -0.1135 -2.6774  0.8817
 4663TIP3   OH213952   1.708   4.978   0.976 -0.3687 -0.1608  0.6584
 4663TIP3    H113953   1.629   4.945   1.018  0.2311 -1.1046  1.0734
 4663TIP3    H213954   1.764   5.006   1.049  0.1249 -0.5339  0.4251
 4664TIP3   OH213955   2.167   6.585   3.762  0.2293 -0.8830 -0.0418
 4664TIP3    H113956   2.263   6.584   3.770  0.3588 -2.3329 -1.3366
 4664TIP3    H213957   2.149   6.532   3.684 -1.6874 -1.3247  0.6611
 4665TIP3   OH213958   3.679   5.909   1.233  0.1299  0.4181 -0.3294
 4665TIP3    H113959   3.638   5.976   1.178 -0.4432 -0.5546 -1.1202
 4665TIP3    H213960   3.696   5.953   1.316 -0.9940  1.3203 -0.5511
 4666TIP3   OH213961   1.770   2.674   4.353 -0.1146 -0.2557  0.2779
 4666TIP3    H113962   1.853   2.716   4.376  0.6394 -1.9368  0.7377
 4666TIP3    H213963   1.770   2.591   4.400 -1.5517 -0.8079 -0.6070
 4667TIP3   OH213964   6.387   0.081   3.711 -0.1512  0.2557 -0.0608
 4667TIP3    H113965   6.388   0.015   3.781  1.1712  0.5444  0.2239
 4667TIP3    H213966   6.339   0.155   3.748 -0.3348  0.0268  0.1650
 4668TIP3   OH213967   4.799   4.541   3.156  0.1628 -0.1246 -0.1417
 4668TIP3    H113968   4.808   4.597   3.233  0.4207 -1.2857  0.6921
 4668TIP3    H213969   4.756   4.597   3.091  2.0778  1.6697 -0.0034
 4669TIP3   OH213970   1.031   4.202   5.218 -0.1865  0.0770 -0.3029
 4669TIP3    H113971   0.940   4.174   5.224 -0.2164 -0.5190 -2.6943
 4669TIP3    H213972   1.031   4.271   5.152  1.1640 -0.2191 -0.6372
 4670TIP3   OH213973   2.665   4.289   2.481  0.4762 -0.5574 -0.6665
 4670TIP3    H113974   2.593   4.347   2.508  0.3708 -0.9367 -0.1351
 4670TIP3    H213975   2.722   4.284   2.557  1.1859 -0.0916 -1.1540
 4671TIP3   OH213976   3.138   3.225   3.795 -0.0045  0.2359  0.0489
 4671TIP3    H113977   3.048   3.201   3.773 -0.2169  0.4333  0.6748
 4671TIP3    H213978   3.129   3.299   3.855  0.5458 -0.1792  0.6624
 4672TIP3   OH213979   3.209   6.684   4.741 -0.3168  0.6935  0.6944
 4672TIP3    H113980   3.225   6.618   4.809  0.0512 -0.1555 -0.2030
 4672TIP3    H213981   3.223   6.638   4.659  0.7138  2.0883  0.0539
 4673TIP3   OH213982   3.487   6.158   3.883 -0.4577 -0.2724  0.2115
 4673TIP3    H113983   3.489   6.253   3.871  1.5567 -0.5712 -2.7241
 4673TIP3    H213984   3.532   6.143   3.966  1.5383  1.2461 -0.5389
 4674TIP3   OH213985   3.808   3.769   2.555  0.0277 -0.2951  0.5426
 4674TIP3    H113986   3.836   3.860   2.540 -1.0772  0.1363  0.9915
 4674TIP3    H213987   3.815   3.727   2.470  2.6579 -0.4148  0.7332
 4675TIP3   OH213988   4.579   1.003   1.709  0.6051 -0.0168  0.1037
 4675TIP3    H113989   4.495   0.964   1.734  0.8603 -1.3777 -1.0530
 4675TIP3    H213990   4.624   1.018   1.793 -0.3162 -0.3558  0.6760
 4676TIP3   OH213991   1.149   6.024   3.568 -0.0943 -0.1836 -0.4750
 4676TIP3    H113992   1.218   6.035   3.632 -1.7684 -1.1935  1.6145
 4676TIP3    H213993   1.099   6.106   3.572 -2.1764 -1.4351  2.1283
 4677TIP3   OH213994   3.620   6.666   3.892  0.2198  0.4809  0.3633
 4677TIP3    H113995   3.650   6.729   3.827  0.3390 -1.1364 -1.2154
 4677TIP3    H213996   3.675   6.589   3.878 -2.0038 -1.1407  0.0693
 4678TIP3   OH213997   0.798   1.576   3.725 -0.3078  0.1954  0.2083
 4678TIP3    H113998   0.857   1.561   3.651 -1.1212  0.1405 -0.4388
 4678TIP3    H213999   0.843   1.640   3.779  1.1660 -1.1500  0.6561
 4679TIP3   OH214000   6.512   5.214   1.179 -0.0229  0.1035 -0.5108
 4679TIP3    H114001   6.472   5.227   1.266 -1.4174  1.0297 -1.2449
 4679TIP3    H214002   6.580   5.149   1.194  0.0200  0.4975  1.3566
 4680TIP3   OH214003   2.326   1.052   4.519  0.4178  0.3195  0.4024
 4680TIP3    H114004   2.316   1.145   4.538  0.0763  0.3782 -0.0510
 4680TIP3    H214005   2.401   1.024   4.571  0.7351  0.9217  0.2633
 4681TIP3   OH214006   4.575   0.042   3.202  0.3306  0.0130 -0.2064
 4681TIP3    H114007   4.603  -0.048   3.221  0.7035  0.1216 -0.2346
 4681TIP3    H214008   4.556   0.042   3.108  2.1119  0.4173 -0.6074
 4682TIP3   OH214009   5.541   0.264   1.261 -0.3019 -0.1085  0.0251
 4682TIP3    H114010   5.594   0.217   1.326  0.6004  1.7004  0.6430
 4682TIP3    H214011   5.452   0.260   1.297 -0.0150 -0.1814  0.7622
 4683TIP3   OH214012   0.526   3.683   5.245  0.0972  0.2440 -0.2373
 4683TIP3    H114013   0.548   3.615   5.309 -1.4659 -0.5053 -0.4362
 4683TIP3    H214014   0.432   3.673   5.232  0.3738  0.3161 -2.7085
 4684TIP3   OH214015   0.671   6.639   2.370  0.5348  0.4000  0.2224
 4684TIP3    H114016   0.647   6.644   2.277  0.5925  0.0710  0.1905
 4684TIP3    H214017   0.588   6.622   2.415  0.1016  2.7791  0.4586
 4685TIP3   OH214018   1.240   3.821   4.147  0.2875 -0.0073  0.2360
 4685TIP3    H114019   1.307   3.757   4.170 -0.7360 -0.8467  1.0029
 4685TIP3    H214020   1.287   3.888   4.096  1.2192 -1.8351 -1.4578
 4686TIP3   OH214021   5.895   1.552   2.172 -0.0829 -0.2451  0.4865
 4686TIP3    H114022   5.890   1.588   2.260 -0.3814 -0.8914  0.7392
 4686TIP3    H214023   5.819   1.589   2.127  0.2557  0.3508  0.3924
 4687TIP3   OH214024   0.937   1.937   0.988 -0.4786 -0.1307 -0.2346
 4687TIP3    H114025   1.032   1.950   0.989 -0.4173 -0.5570  0.8392
 4687TIP3    H214026   0.926   1.844   1.009 -1.1605  0.1869  0.8829
 4688TIP3   OH214027   1.335   1.632   2.571 -0.2605  0.6173  0.6183
 4688TIP3    H114028   1.332   1.641   2.476  1.4971  2.0402  0.6540
 4688TIP3    H214029   1.264   1.689   2.602 -1.6885 -0.8260  0.1848
 4689TIP3   OH214030   1.158   0.564   1.571 -0.2481  0.1791 -0.3380
 4689TIP3    H114031   1.085   0.607   1.614 -0.4403  0.4845 -0.9556
 4689TIP3    H214032   1.236   0.607   1.606 -0.4320  0.9553 -0.8512
 4690TIP3   OH214033   3.374   0.746   3.748  0.6164  0.3094  0.6161
 4690TIP3    H114034   3.309   0.801   3.704  0.9274  0.5794  0.4848
 4690TIP3    H214035   3.323   0.682   3.797  0.2347 -0.9350 -1.2862
 4691TIP3   OH214036   6.230   3.090   1.837  0.0494  0.4864  0.3216
 4691TIP3    H114037   6.280   3.025   1.788 -1.4730  0.4497 -1.2971
 4691TIP3    H214038   6.139   3.060   1.831 -0.4188  1.5234  1.5854
 4692TIP3   OH214039   6.244   2.168   1.869 -0.0383  0.2378  0.1891
 4692TIP3    H114040   6.196   2.237   1.914 -0.3602 -0.1618  0.4716
 4692TIP3    H214041   6.217   2.175   1.777  0.7337  1.1492  0.0226
 4693TIP3   OH214042   0.045   0.542   5.254  0.1396  0.2790  0.2192
 4693TIP3    H114043  -0.005   0.467   5.286  2.9519 -2.1053 -0.5574
 4693TIP3    H214044   0.093   0.573   5.331  1.1618 -0.6228 -0.0319
 4694TIP3   OH214045   4.195   0.569   5.624 -0.5378  0.1718 -0.4603
 4694TIP3    H114046   4.138   0.628   5.575 -1.7815  0.2525  1.0093
 4694TIP3    H214047   4.141   0.492   5.642  0.1702 -0.2286  0.0324
 4695TIP3   OH214048   2.857   5.217   2.596  0.1637  0.3102 -0.0561
 4695TIP3    H114049   2.831   5.247   2.683  2.3207  0.0743  0.7433
 4695TIP3    H214050   2.776   5.215   2.545 -0.7579  3.0771  1.1289
 4696TIP3   OH214051   5.075   2.797   0.283 -0.4488  0.0146 -0.1835
 4696TIP3    H114052   4.981   2.804   0.297 -0.8477 -1.3716 -1.9120
 4696TIP3    H214053   5.099   2.713   0.322 -0.1782 -0.2730 -0.9701
 4697TIP3   OH214054   1.811   5.249   2.699 -0.4320  0.2160  0.1045
 4697TIP3    H114055   1.722   5.222   2.721 -0.6715  0.5536 -0.4478
 4697TIP3    H214056   1.802   5.298   2.618  0.2416  0.3722  0.1213
 4698TIP3   OH214057   6.769   1.431   0.118  0.2301  0.8350 -0.2437
 4698TIP3    H114058   6.768   1.336   0.122 -0.8421  0.8339 -0.3479
 4698TIP3    H214059   6.731   1.459   0.201  0.5324  1.1775 -0.2171
 4699TIP3   OH214060   5.331   0.152   4.592 -0.2611 -0.1367 -0.5174
 4699TIP3    H114061   5.272   0.106   4.531 -0.4807 -0.1314 -0.3092
 4699TIP3    H214062   5.394   0.196   4.535 -0.7682  0.2801 -0.7599
 4700TIP3   OH214063   0.218   5.281   5.118  0.4505  0.1385  1.0069
 4700TIP3    H114064   0.176   5.296   5.033  2.1432  0.8748  0.2439
 4700TIP3    H214065   0.274   5.204   5.104  0.2087 -0.1560  1.6572
 4701TIP3   OH214066   4.720   4.271   4.511 -0.3827  0.5208  0.0520
 4701TIP3    H114067   4.634   4.299   4.481  0.0764  2.0419  0.0698
 4701TIP3    H214068   4.707   4.245   4.603 -1.0726 -0.6708 -0.3526
 4702TIP3   OH214069   4.537   3.418   5.796 -0.3292  0.0722  0.2061
 4702TIP3    H114070   4.550   3.340   5.850 -0.7320 -0.4743 -0.4737
 4702TIP3    H214071   4.493   3.386   5.718 -1.2734  1.1176  0.2824
 4703TIP3   OH214072   1.477   4.255   1.107  0.3286  0.0399 -0.3789
 4703TIP3    H114073   1.553   4.197   1.102 -0.2754 -0.8279  0.2496
 4703TIP3    H214074   1.424   4.220   1.179 -0.4299  0.9200 -0.4821
 4704TIP3   OH214075   5.297   0.199   1.367  0.2726  0.6540  0.3224
 4704TIP3    H114076   5.288   0.200   1.462  0.0519 -0.9198  0.3313
 4704TIP3    H214077   5.209   0.182   1.334 -0.0204  2.9814 -0.2664
 4705TIP3   OH214078   1.325   5.781   4.074  0.2343  0.4844 -0.6343
 4705TIP3    H114079   1.408   5.780   4.121  0.8462  1.6067 -1.6614
 4705TIP3    H214080   1.333   5.712   4.008  0.8874  1.4334 -1.5841
 4706TIP3   OH214081   4.698   5.666   3.277 -0.0896 -0.4846  1.0531
 4706TIP3    H114082   4.712   5.750   3.232  0.3954 -1.1685 -0.1266
 4706TIP3    H214083   4.786   5.639   3.305 -0.2609 -0.5469  1.5507
 4707TIP3   OH214084   3.624   1.967   5.330  0.1906 -0.3564  0.4452
 4707TIP3    H114085   3.635   1.958   5.235 -0.4564  0.1501  0.3158
 4707TIP3    H214086   3.641   2.059   5.348  0.1934 -0.4263  0.8075
 4708TIP3   OH214087   5.446   1.941   3.636  0.0599 -0.1301  0.0555
 4708TIP3    H114088   5.377   1.948   3.702  0.3653  1.6502  0.2295
 4708TIP3    H214089   5.525   1.972   3.680  1.0097 -2.0825 -0.1573
 4709TIP3   OH214090   3.339   1.587   1.857  0.8367 -0.4604 -0.2476
 4709TIP3    H114091   3.365   1.634   1.778  0.5229  0.3980  0.1350
 4709TIP3    H214092   3.357   1.495   1.839  2.1011 -0.1274 -0.7812
 4710TIP3   OH214093   0.650   3.771   0.253  0.0710  0.4950 -0.3858
 4710TIP3    H114094   0.566   3.816   0.257 -1.9213 -2.8509 -0.0011
 4710TIP3    H214095   0.659   3.745   0.162  1.1670  1.5352 -0.5965
 4711TIP3   OH214096   2.499   6.574   3.588 -0.2665 -0.0525 -0.0154
 4711TIP3    H114097   2.470   6.618   3.669 -0.2928 -0.1747  0.0413
 4711TIP3    H214098   2.579   6.621   3.564  0.7427 -1.1571  1.0613
 4712TIP3   OH214099   0.817   2.129   1.440 -0.0610  0.3836  0.7749
 4712TIP3    H114100   0.723   2.145   1.444 -0.3993 -0.9563 -0.8531
 4712TIP3    H214101   0.837   2.082   1.522 -1.0300 -0.3154  0.6275
 4713TIP3   OH214102   4.769   4.565   4.514  0.3580 -0.0736 -0.3596
 4713TIP3    H114103   4.778   4.470   4.509 -0.0787 -0.1229 -0.2490
 4713TIP3    H214104   4.761   4.584   4.607  0.2552  0.0539 -0.3933
 4714TIP3   OH214105   1.890   6.381   0.314 -0.1224  0.0803 -0.0492
 4714TIP3    H114106   1.956   6.322   0.350  0.2866 -1.3079 -2.7636
 4714TIP3    H214107   1.822   6.386   0.381  0.8613 -1.7610  1.1565
 4715TIP3   OH214108   1.433   2.289   3.722 -0.4148  0.2603 -0.1982
 4715TIP3    H114109   1.449   2.208   3.673 -0.4956 -0.7019  1.2900
 4715TIP3    H214110   1.506   2.346   3.699 -0.4483 -0.1491 -1.4026
 4716TIP3   OH214111   0.334   3.315   2.885  0.3472 -0.4423  0.1871
 4716TIP3    H114112   0.416   3.343   2.925  0.1048 -0.4621  0.6993
 4716TIP3    H214113   0.316   3.229   2.923  0.8479 -1.1144 -1.0311
 4717TIP3   OH214114   3.770   2.009   2.518 -0.4237 -0.6753  0.7336
 4717TIP3    H114115   3.767   1.993   2.424  1.7091  3.4511 -0.3183
 4717TIP3    H214116   3.690   2.057   2.538  0.2113  0.5909  0.3787
 4718TIP3   OH214117   1.127   2.946   1.973  0.4467  0.0573  0.1815
 4718TIP3    H114118   1.199   2.909   2.024 -1.3250 -0.4060  2.5312
 4718TIP3    H214119   1.103   2.878   1.911  1.3576 -0.1670  0.0642
 4719TIP3   OH214120   4.609   2.930   3.546  0.2769  0.0214 -0.1129
 4719TIP3    H114121   4.615   3.011   3.596 -0.1276  0.8079 -1.2852
 4719TIP3    H214122   4.697   2.916   3.512  0.2373  0.2372 -0.3059
 4720TIP3   OH214123   4.130   5.358   0.483  0.4021 -0.5847 -0.1261
 4720TIP3    H114124   4.137   5.377   0.577  1.0424 -2.2712  0.1964
 4720TIP3    H214125   4.144   5.443   0.441  0.4542  0.1454  1.2915
 4721TIP3   OH214126   3.637   4.261   4.210  0.3929 -0.2767  0.1143
 4721TIP3    H114127   3.649   4.178   4.255  0.2888 -0.3528  0.0010
 4721TIP3    H214128   3.691   4.323   4.259 -0.4357 -0.1555  0.9113
 4722TIP3   OH214129   3.225   1.989   5.729  0.3719 -0.3404  0.0457
 4722TIP3    H114130   3.216   1.895   5.748  1.2841 -0.0115  2.4925
 4722TIP3    H214131   3.290   2.020   5.792 -0.1297  2.0263 -0.4956
 4723TIP3   OH214132   6.075   5.390   1.611  0.1931  0.4538  0.0151
 4723TIP3    H114133   6.029   5.346   1.682 -1.6546  1.7451 -0.3166
 4723TIP3    H214134   6.147   5.331   1.589 -1.2380 -1.6233  0.6047
 4724TIP3   OH214135   2.538   5.413   4.671 -0.4827 -0.4527 -0.2069
 4724TIP3    H114136   2.502   5.334   4.711 -1.7890  0.1354 -0.1684
 4724TIP3    H214137   2.511   5.484   4.729  0.6530  0.0394 -0.2517
 4725TIP3   OH214138   0.965   0.076   4.996  0.0787 -0.6579  0.7153
 4725TIP3    H114139   1.053   0.092   4.964  0.3720  0.3213  1.9149
 4725TIP3    H214140   0.978   0.040   5.084 -0.7179 -1.1368  0.6471
 4726TIP3   OH214141   1.712   6.418   5.751  0.1544 -0.3235 -0.1210
 4726TIP3    H114142   1.766   6.473   5.807  0.3856 -1.4774  0.8378
 4726TIP3    H214143   1.745   6.329   5.765 -0.0096 -0.7042 -1.8322
 4727TIP3   OH214144   0.065   4.444   0.262  0.2264 -0.0804 -0.1332
 4727TIP3    H114145   0.137   4.499   0.295 -0.3477  0.4191  0.3028
 4727TIP3    H214146   0.097   4.410   0.179  1.6129 -1.1657  0.7925
 4728TIP3   OH214147   6.691   3.147   5.843  0.3369 -0.1071  0.4339
 4728TIP3    H114148   6.776   3.109   5.821  1.8219  1.0067  3.7194
 4728TIP3    H214149   6.635   3.071   5.860  0.5981 -0.8604 -1.7256
 4729TIP3   OH214150   2.473   5.323   2.741 -0.2232  0.0369 -0.4853
 4729TIP3    H114151   2.446   5.237   2.774  0.6196 -0.2231 -0.4429
 4729TIP3    H214152   2.403   5.382   2.768 -0.5933 -0.5582 -0.1176
 4730TIP3   OH214153   3.030   4.067   0.627  0.2466  0.2323 -0.1687
 4730TIP3    H114154   2.973   4.059   0.551  0.3621 -0.2017 -0.2106
 4730TIP3    H214155   3.108   4.017   0.604  1.4264  2.2721 -0.8542
 4731TIP3   OH214156   3.932   2.480   4.396 -0.1074  0.3712 -0.0850
 4731TIP3    H114157   3.974   2.547   4.450  0.0659 -0.8114  1.3023
 4731TIP3    H214158   4.002   2.446   4.340  0.4614 -0.5221  1.1326
 4732TIP3   OH214159   4.422   4.129   0.905  0.0858  0.2637  0.2709
 4732TIP3    H114160   4.328   4.136   0.921 -0.0948 -0.6897 -0.2960
 4732TIP3    H214161   4.444   4.041   0.935  0.6891  0.2830 -0.1093
 4733TIP3   OH214162   3.087   6.107   4.210 -0.2547 -0.0239  0.3591
 4733TIP3    H114163   3.182   6.096   4.208 -0.1703  0.7037  0.0890
 4733TIP3    H214164   3.055   6.035   4.264  0.4554 -0.2469  0.4815
 4734TIP3   OH214165   6.033   4.118   1.656  0.6843  0.2793  0.6119
 4734TIP3    H114166   6.029   4.023   1.655  1.6305  0.2325  0.5684
 4734TIP3    H214167   5.943   4.146   1.676  0.4719 -0.6197  0.9449
 4735TIP3   OH214168   3.803   1.556   4.706  0.5270  0.0922  0.1194
 4735TIP3    H114169   3.827   1.487   4.768 -1.0393  1.0413  1.8832
 4735TIP3    H214170   3.858   1.630   4.731 -1.0882  0.9262  1.3819
 4736TIP3   OH214171   5.982   5.010   5.713 -0.4252  0.4790  0.2265
 4736TIP3    H114172   5.929   5.051   5.780  0.1284  0.8217  0.4594
 4736TIP3    H214173   6.065   4.989   5.757 -0.3261  0.0489 -0.1559
 4737TIP3   OH214174   6.648   0.966   2.766 -0.3297 -0.8033 -0.2542
 4737TIP3    H114175   6.727   1.016   2.744  0.9185 -1.6042  2.0889
 4737TIP3    H214176   6.680   0.891   2.815 -2.6241 -0.5489  1.8329
 4738TIP3   OH214177   3.576   3.595   0.103 -0.1334  0.8636 -0.2449
 4738TIP3    H114178   3.582   3.664   0.169  0.8944  0.2743  0.2910
 4738TIP3    H214179   3.613   3.634   0.024 -0.5903  1.2860 -0.2596
 4739TIP3   OH214180   6.376   5.483   5.399 -0.2057 -0.2258  0.9335
 4739TIP3    H114181   6.368   5.569   5.357 -0.2973  0.3566  2.1156
 4739TIP3    H214182   6.470   5.466   5.400  0.0552  1.0158  2.8940
 4740TIP3   OH214183   5.663   6.455   0.033 -0.4069 -0.0120 -0.5061
 4740TIP3    H114184   5.701   6.380  -0.013 -0.5120 -1.3111  1.4050
 4740TIP3    H214185   5.576   6.465  -0.005 -0.8647 -1.6564  0.0153
 4741TIP3   OH214186   3.194   2.982   2.807 -0.0134  0.5358  0.0511
 4741TIP3    H114187   3.203   3.044   2.734 -2.1616  2.1993  1.0628
 4741TIP3    H214188   3.103   2.953   2.802  1.2265 -3.9288 -1.2668
 4742TIP3   OH214189   0.893   2.424   2.459  0.5891  0.7048 -0.1188
 4742TIP3    H114190   0.890   2.428   2.363  3.0661  0.5229 -0.2538
 4742TIP3    H214191   0.885   2.515   2.487  0.3356  0.8090 -0.5183
 4743TIP3   OH214192   1.942   5.504   4.925 -0.7737  0.1025 -0.1178
 4743TIP3    H114193   1.874   5.452   4.966 -1.2417  0.7793 -0.0111
 4743TIP3    H214194   1.954   5.579   4.984 -1.3182  0.9919 -1.0991
 4744TIP3   OH214195   0.447   5.483   4.755 -0.1997 -0.3863 -0.0885
 4744TIP3    H114196   0.462   5.416   4.822 -0.9010 -0.2415  0.2171
 4744TIP3    H214197   0.483   5.564   4.793 -0.8634 -0.2426  0.2394
 4745TIP3   OH214198   0.678   2.024   1.949 -0.3960 -0.2712 -0.2918
 4745TIP3    H114199   0.686   2.097   2.010 -1.4999  1.0902 -1.6922
 4745TIP3    H214200   0.590   1.990   1.963 -0.9003  0.4621 -1.5036
 4746TIP3   OH214201   2.340   0.172   0.401  0.1367  0.0442  0.0616
 4746TIP3    H114202   2.410   0.230   0.431 -0.9656  0.9485  0.9678
 4746TIP3    H214203   2.371   0.084   0.423  1.4577  0.3288 -0.5571
 4747TIP3   OH214204   3.587   1.622   3.354 -0.1759  0.5123  0.0938
 4747TIP3    H114205   3.674   1.585   3.334 -0.4162  0.2002 -0.3955
 4747TIP3    H214206   3.543   1.627   3.269 -1.1470 -0.6333  0.5107
 4748TIP3   OH214207   5.945   0.001   5.551  0.2012 -0.0960  0.1506
 4748TIP3    H114208   5.944   0.091   5.583 -2.4581 -0.6589  1.9033
 4748TIP3    H214209   5.899  -0.049   5.618 -1.2967 -2.2071 -2.2797
 4749TIP3   OH214210   3.808   1.142   1.608 -0.4884 -0.3255  0.5313
 4749TIP3    H114211   3.874   1.132   1.676  0.6448 -1.3569 -0.6529
 4749TIP3    H214212   3.848   1.203   1.545 -1.0660 -0.2226  0.2579
 4750TIP3   OH214213   3.198   4.670   2.166 -0.0057  0.4139  0.3000
 4750TIP3    H114214   3.145   4.608   2.116 -1.7785  1.6659  0.5399
 4750TIP3    H214215   3.210   4.628   2.251 -2.0397  0.7479  0.8094
 4751TIP3   OH214216   0.208   6.097   4.808  0.4728 -0.2745 -0.0104
 4751TIP3    H114217   0.145   6.138   4.868  0.2089 -0.8133  0.0873
 4751TIP3    H214218   0.184   6.005   4.807  1.5423 -0.5711  0.3643
 4752TIP3   OH214219   0.645   4.195   0.209  0.1580 -0.2342 -0.0716
 4752TIP3    H114220   0.652   4.238   0.123  1.7913  0.0682  0.1869
 4752TIP3    H214221   0.696   4.115   0.200  0.5723 -0.0626  0.7069
 4753TIP3   OH214222   6.885   2.908   0.551  0.5557  0.3123  0.4745
 4753TIP3    H114223   6.876   3.002   0.538  1.5518  0.3265 -0.2073
 4753TIP3    H214224   6.919   2.899   0.640 -1.1312  0.4818  1.1921
 4754TIP3   OH214225   4.813   1.868   5.277  0.4777 -0.3452 -0.1093
 4754TIP3    H114226   4.728   1.832   5.304  0.9567 -2.1380 -0.8208
 4754TIP3    H214227   4.794   1.914   5.195 -0.0679  0.6805  0.5730
 4755TIP3   OH214228   2.236   0.693   1.702  0.0613 -0.2389  0.2995
 4755TIP3    H114229   2.155   0.717   1.657 -0.4419 -1.1847  0.6715
 4755TIP3    H214230   2.286   0.645   1.637  0.7328  1.0982 -0.2067
 4756TIP3   OH214231   2.209   2.044   4.789 -0.3461  0.5614  0.0619
 4756TIP3    H114232   2.303   2.058   4.773 -0.3940 -0.0346 -0.8338
 4756TIP3    H214233   2.190   2.097   4.866  0.8303  0.3156  0.5441
 4757TIP3   OH214234   5.939   5.413   5.805  0.4816  0.2848  0.2950
 4757TIP3    H114235   5.917   5.501   5.836  0.2901  0.7318 -1.0488
 4757TIP3    H214236   5.985   5.428   5.722  0.2419 -0.8849 -0.0631
 4758TIP3   OH214237   5.858   3.193   2.208  0.3614  0.2253  0.2044
 4758TIP3    H114238   5.863   3.236   2.122  0.7989 -0.6520 -0.2239
 4758TIP3    H214239   5.816   3.109   2.189 -2.7351  1.3551  1.3855
 4759TIP3   OH214240   5.686   3.598   1.408 -0.1863 -0.1598 -0.6211
 4759TIP3    H114241   5.751   3.577   1.474 -0.6663  1.6701  0.5129
 4759TIP3    H214242   5.737   3.624   1.331  0.4205  0.1050 -0.1374
 4760TIP3   OH214243   1.314   4.125   1.599  0.0039  0.2794 -0.7132
 4760TIP3    H114244   1.257   4.052   1.573  0.3097 -0.4060  0.4820
 4760TIP3    H214245   1.276   4.158   1.680  1.0018  0.1225 -0.1549
 4761TIP3   OH214246   5.217   5.330   4.119 -0.0763  0.6361 -0.4502
 4761TIP3    H114247   5.184   5.270   4.052 -0.9869  1.0090 -0.3484
 4761TIP3    H214248   5.302   5.359   4.086 -0.6303  1.0209 -1.5785
 4762TIP3   OH214249   0.077   3.592   5.101 -0.4287  0.3614  0.0356
 4762TIP3    H114250   0.121   3.668   5.138  0.7305 -0.8107  1.1560
 4762TIP3    H214251   0.024   3.557   5.172  0.9354 -1.2559  0.3132
 4763TIP3   OH214252   6.311   0.715   3.645  0.4321  0.0414  0.1704
 4763TIP3    H114253   6.316   0.740   3.738  0.8835 -0.5094  0.2989
 4763TIP3    H214254   6.307   0.799   3.598  5.3439  0.6747  0.3496
 4764TIP3   OH214255   5.815   5.326   0.331 -0.6322  0.1232  0.0809
 4764TIP3    H114256   5.831   5.233   0.314 -1.1065 -0.1509  1.0696
 4764TIP3    H214257   5.721   5.332   0.347 -0.5170  0.6796  0.5922
 4765TIP3   OH214258   4.100   1.793   3.255 -0.1410  0.5791  0.4222
 4765TIP3    H114259   4.117   1.812   3.163 -2.2697 -0.8848 -0.3584
 4765TIP3    H214260   4.186   1.780   3.293  0.8018 -2.6895 -2.3047
 4766TIP3   OH214261   6.106   2.917   5.311  0.1983 -0.2004  0.1854
 4766TIP3    H114262   6.077   2.982   5.375  0.3632  0.3926 -0.3187
 4766TIP3    H214263   6.202   2.920   5.316  0.4260  2.4339 -2.4576
 4767TIP3   OH214264   5.949   2.659   5.511 -0.2580 -0.0089 -0.4476
 4767TIP3    H114265   6.040   2.646   5.483  0.0308  0.8580  0.0530
 4767TIP3    H214266   5.956   2.692   5.601 -1.1010 -0.7650 -0.0870
 4768TIP3   OH214267   5.796   5.546   3.179 -0.1410  0.0018 -0.2707
 4768TIP3    H114268   5.887   5.535   3.150 -0.1335  0.6206 -0.5047
 4768TIP3    H214269   5.796   5.630   3.225 -1.0226  1.0519 -2.0919
 4769TIP3   OH214270   2.456   2.772   0.256 -0.5936 -0.0992 -0.4662
 4769TIP3    H114271   2.512   2.706   0.297 -2.3105 -0.5028  1.4200
 4769TIP3    H214272   2.472   2.852   0.307 -1.8553 -0.2883  0.2760
 4770TIP3   OH214273   6.629   0.598   3.307 -0.0497 -0.5261  0.4350
 4770TIP3    H114274   6.708   0.648   3.327  0.5737 -1.4486  0.3708
 4770TIP3    H214275   6.582   0.652   3.244  1.2568 -0.5886 -0.6504
 4771TIP3   OH214276   0.298   6.299   0.959  0.3375  0.1348 -0.0703
 4771TIP3    H114277   0.371   6.240   0.939 -0.9911 -1.7537  0.3432
 4771TIP3    H214278   0.252   6.309   0.876 -0.1474 -0.4637  0.1180
 4772TIP3   OH214279   2.215   6.165   0.570 -0.2693 -0.7191  0.0673
 4772TIP3    H114280   2.296   6.206   0.541 -0.1160 -0.4817  0.8049
 4772TIP3    H214281   2.151   6.188   0.502  0.0784 -0.1993 -0.0895
 4773TIP3   OH214282   6.871   2.936   3.335 -0.2040  0.4358 -0.5389
 4773TIP3    H114283   6.946   2.979   3.293 -0.4650 -0.7848 -2.3222
 4773TIP3    H214284   6.794   2.978   3.297 -0.4646  0.7490  0.2968
 4774TIP3   OH214285   0.026   1.432   5.671 -0.7399  0.3237 -0.7374
 4774TIP3    H114286   0.098   1.449   5.731 -1.8613  0.7560  0.5397
 4774TIP3    H214287   0.067   1.395   5.593  0.5252 -3.0379  1.3496
 4775TIP3   OH214288   3.467   2.971   5.640 -0.0234  0.6131  0.1942
 4775TIP3    H114289   3.541   2.988   5.699  0.5859  2.1667 -0.9412
 4775TIP3    H214290   3.451   3.055   5.597 -0.1767 -0.5244 -2.1396
 4776TIP3   OH214291   6.169   0.714   5.211 -0.0833  0.5340  0.4008
 4776TIP3    H114292   6.230   0.684   5.279  0.8188 -0.4615 -0.7869
 4776TIP3    H214293   6.125   0.790   5.249 -0.0342 -0.3380  2.2976
 4777TIP3   OH214294   0.420   2.136   2.981  0.3508  0.2635  0.0693
 4777TIP3    H114295   0.435   2.159   2.890  0.8375  0.9130  0.3028
 4777TIP3    H214296   0.492   2.077   3.003  1.4500  1.7368  0.5997
 4778TIP3   OH214297   0.611   3.820   0.595  0.0153 -0.4296 -0.0139
 4778TIP3    H114298   0.632   3.821   0.502  1.4840 -0.0585  0.3000
 4778TIP3    H214299   0.516   3.827   0.598  0.0403  1.1780 -1.4639
 4779TIP3   OH214300   3.548   3.828   1.105 -0.4319  0.4186 -0.1433
 4779TIP3    H114301   3.482   3.854   1.169  0.6936  1.0091  0.8148
 4779TIP3    H214302   3.608   3.903   1.101 -0.0365  0.0586 -1.2962
 4780TIP3   OH214303   2.555   6.467   0.692  0.2494  0.0940 -0.2127
 4780TIP3    H114304   2.553   6.376   0.661 -0.0020  0.1488 -0.3594
 4780TIP3    H214305   2.503   6.466   0.772 -1.3881  0.4753 -1.2207
 4781TIP3   OH214306   4.709   5.425   1.658  0.0056 -0.0673 -0.0169
 4781TIP3    H114307   4.802   5.415   1.638 -0.2383 -0.6346 -0.9386
 4781TIP3    H214308   4.674   5.336   1.653 -0.5890  0.1363  0.3571
 4782TIP3   OH214309   5.116   3.468   2.922  0.6818 -0.1744  0.1144
 4782TIP3    H114310   5.060   3.487   2.847  0.1582 -1.1128  0.2454
 4782TIP3    H214311   5.111   3.372   2.932  2.4498 -0.3238  0.0204
 4783TIP3   OH214312   3.583   3.755   1.758 -0.2646 -0.3243 -0.3111
 4783TIP3    H114313   3.538   3.838   1.741 -0.5338 -0.2366  0.7494
 4783TIP3    H214314   3.579   3.745   1.853 -0.4798 -1.6929 -0.4467
 4784TIP3   OH214315   0.597   4.949   5.238 -0.6759  0.5971 -0.0799
 4784TIP3    H114316   0.611   4.967   5.331  0.2571  2.9387 -0.5881
 4784TIP3    H214317   0.660   4.881   5.216 -1.6038 -0.7194  1.1796
 4785TIP3   OH214318   4.229   5.832   5.515  0.4055  0.1928 -0.2539
 4785TIP3    H114319   4.245   5.812   5.607  2.0147  0.3573 -0.4711
 4785TIP3    H214320   4.154   5.778   5.491 -0.7744  0.9872  1.4349
 4786TIP3   OH214321   7.201   2.913   4.558 -0.0932 -0.4228 -0.1853
 4786TIP3    H114322   7.114   2.952   4.565 -0.4991 -1.2753 -0.3497
 4786TIP3    H214323   7.252   2.976   4.507 -1.1073 -0.6833 -1.5761
 4787TIP3   OH214324   6.702   3.972   3.070 -0.3444 -0.0723 -0.4511
 4787TIP3    H114325   6.649   3.892   3.066 -0.3746 -0.0433 -0.6301
 4787TIP3    H214326   6.719   3.994   2.979  0.1907 -0.2222 -0.3929
 4788TIP3   OH214327   0.671   1.574   1.046  0.1832 -0.6641 -0.1449
 4788TIP3    H114328   0.709   1.500   0.997 -1.9369 -2.1317  0.3070
 4788TIP3    H214329   0.710   1.566   1.133  0.8276 -0.5471 -0.4160
 4789TIP3   OH214330   2.584   5.648   1.222  0.4441  0.0077  0.3776
 4789TIP3    H114331   2.542   5.654   1.308 -1.2985 -1.3556 -0.3023
 4789TIP3    H214332   2.662   5.594   1.236 -0.5179 -1.2921  0.9124
 4790TIP3   OH214333   6.267   1.133   5.114  0.3686  0.5219 -0.4235
 4790TIP3    H114334   6.353   1.096   5.135  0.8261 -0.1607 -3.1174
 4790TIP3    H214335   6.205   1.068   5.145  0.8044  0.7615  1.0507
 4791TIP3   OH214336   1.773   1.387   0.898  0.6606  0.4627 -0.0626
 4791TIP3    H114337   1.723   1.401   0.817  0.0666  1.1095  0.4088
 4791TIP3    H214338   1.759   1.295   0.919  2.3042 -0.2264 -1.6669
 4792TIP3   OH214339   1.033   0.696   2.225 -0.1093  0.0095  0.8219
 4792TIP3    H114340   1.069   0.700   2.314  0.4604  0.9360  0.5680
 4792TIP3    H214341   1.009   0.604   2.213 -3.3264  0.3793  3.1110
 4793TIP3   OH214342   4.081   6.719   5.844 -0.1669  0.1203  0.3221
 4793TIP3    H114343   4.073   6.783   5.915  0.3591 -0.4567  0.9110
 4793TIP3    H214344   4.170   6.686   5.850  0.3245  0.9886 -1.4358
 4794TIP3   OH214345   6.438   0.925   0.738  0.1064 -0.3595  0.0987
 4794TIP3    H114346   6.444   0.931   0.833 -1.0752 -0.8918  0.2241
 4794TIP3    H214347   6.361   0.978   0.715 -0.4389 -1.3424 -0.4096
 4795TIP3   OH214348   0.223   3.165   3.221 -0.4102 -0.1794  0.0623
 4795TIP3    H114349   0.199   3.079   3.257  1.1612 -0.9972 -0.7310
 4795TIP3    H214350   0.165   3.176   3.146 -0.5746 -0.5870  0.1246
 4796TIP3   OH214351   1.465   6.080   2.002 -0.1052  0.5649 -0.8574
 4796TIP3    H114352   1.411   6.066   1.924 -0.4814 -1.2095 -0.3240
 4796TIP3    H214353   1.546   6.117   1.969 -0.2741 -0.1188 -2.0923
 4797TIP3   OH214354   6.021   6.473   2.869  0.1565 -0.2877 -0.4883
 4797TIP3    H114355   6.058   6.540   2.927  0.4749 -1.1014  0.2652
 4797TIP3    H214356   5.932   6.459   2.902 -1.7093  2.9960 -3.3958
 4798TIP3   OH214357   3.975   3.457   3.843  0.2063 -0.0026 -0.1063
 4798TIP3    H114358   4.000   3.493   3.758  0.7240  1.3600  0.5979
 4798TIP3    H214359   3.898   3.507   3.869  1.5678  1.4784  1.3773
 4799TIP3   OH214360   2.145   6.661   4.750  0.0362 -0.1096  0.2590
 4799TIP3    H114361   2.212   6.592   4.754  0.0429 -0.0893  0.5235
 4799TIP3    H214362   2.062   6.614   4.756  0.0338 -0.1154  0.1765
 4800TIP3   OH214363   1.502   3.143   0.600  0.2248  0.3343  0.1004
 4800TIP3    H114364   1.538   3.067   0.645  0.2155  1.1253  1.5196
 4800TIP3    H214365   1.513   3.124   0.507 -0.2685 -1.6236  0.4008
 4801TIP3   OH214366   1.466   1.809   4.235 -0.0873  0.0681  0.0691
 4801TIP3    H114367   1.460   1.879   4.301 -1.8645 -0.8424  0.9506
 4801TIP3    H214368   1.458   1.728   4.286 -1.9700 -0.6527 -1.2689
 4802TIP3   OH214369   2.531   0.781   3.335  0.6590  0.1902  0.4422
 4802TIP3    H114370   2.475   0.728   3.392  1.0458  0.2368  0.8683
 4802TIP3    H214371   2.594   0.718   3.298 -0.1695 -0.0150 -0.6836
 4803TIP3   OH214372   4.698   0.269   5.175  0.0935 -0.1132 -0.3558
 4803TIP3    H114373   4.612   0.276   5.133  0.4666 -2.3204 -1.6541
 4803TIP3    H214374   4.686   0.202   5.242  0.0447  1.9059  1.7723
 4804TIP3   OH214375   3.459   3.804   0.490  0.5928  0.1096 -0.0924
 4804TIP3    H114376   3.493   3.865   0.556  1.2383  2.2479 -2.2632
 4804TIP3    H214377   3.375   3.774   0.525  1.3553  0.3594  2.1150
 4805TIP3   OH214378   5.660   5.970   2.887  0.3683 -0.0713 -0.5510
 4805TIP3    H114379   5.745   5.935   2.911  0.3177  0.3670  0.3000
 4805TIP3    H214380   5.600   5.937   2.954  0.2184  1.1572 -0.0482
 4806TIP3   OH214381   6.584   5.748   3.370  0.1925 -0.1438 -0.6425
 4806TIP3    H114382   6.637   5.772   3.293 -0.7105  0.1601 -1.1885
 4806TIP3    H214383   6.612   5.659   3.392  0.9450  0.0204 -0.9014
 4807TIP3   OH214384   4.440   4.983   5.363  0.1068  0.0734 -0.3432
 4807TIP3    H114385   4.467   5.045   5.430  0.0745 -0.1321 -0.1368
 4807TIP3    H214386   4.356   4.949   5.394  0.7440 -1.0504  0.2184
 4808TIP3   OH214387   3.006   1.847   3.224  0.6384 -0.4778 -0.0473
 4808TIP3    H114388   2.936   1.892   3.270  0.3500  0.2141 -1.1252
 4808TIP3    H214389   3.081   1.906   3.230  0.9142 -0.8681  0.4370
 4809TIP3   OH214390   3.000   6.277   5.412 -0.4860 -0.2534  0.2464
 4809TIP3    H114391   3.020   6.288   5.505  1.5154 -3.2795  0.3247
 4809TIP3    H214392   2.968   6.187   5.404 -0.3231 -0.1863 -2.0142
 4810TIP3   OH214393   5.964   4.656   4.379  0.3409  0.2041  0.1179
 4810TIP3    H114394   5.953   4.704   4.297 -1.7406  1.2726  0.9547
 4810TIP3    H214395   6.034   4.702   4.425  1.8295 -0.6596 -1.1723
 4811TIP3   OH214396   3.272   0.720   1.059  0.5311 -0.1491 -0.2534
 4811TIP3    H114397   3.263   0.781   0.985  0.4959 -1.1823 -1.1401
 4811TIP3    H214398   3.365   0.699   1.062  0.5782  0.1293  0.1956
 4812TIP3   OH214399   5.923   3.344   4.615  0.2893 -0.1735 -0.2409
 4812TIP3    H114400   5.998   3.322   4.560 -0.6524 -2.3228 -0.7879
 4812TIP3    H214401   5.853   3.365   4.553  0.1268  0.7159  0.2335
 4813TIP3   OH214402   3.806   5.979   3.910 -0.0933  0.4781  0.2801
 4813TIP3    H114403   3.723   5.958   3.869  0.3935  0.1665 -0.5572
 4813TIP3    H214404   3.872   5.958   3.845  0.7238 -0.3181  1.3248
 4814TIP3   OH214405   4.020   0.455   4.745 -0.0891 -0.6644 -0.2784
 4814TIP3    H114406   3.950   0.457   4.810  0.0353 -1.6696 -0.0943
 4814TIP3    H214407   3.998   0.381   4.689 -0.1381  0.1334 -1.3315
 4815TIP3   OH214408   6.871   1.096   2.594 -0.5956 -0.1130 -0.0762
 4815TIP3    H114409   6.800   1.079   2.531 -1.3905 -1.4083  1.1255
 4815TIP3    H214410   6.912   1.177   2.562 -0.9528 -0.7194 -2.2628
 4816TIP3   OH214411   0.693   4.540   1.629 -0.6308  0.3871  0.2416
 4816TIP3    H114412   0.673   4.563   1.538  0.7756  0.8856  0.0361
 4816TIP3    H214413   0.681   4.621   1.678  0.9985  0.7508  0.0793
 4817TIP3   OH214414   5.743   1.146   2.821  0.3214  0.0401  0.1755
 4817TIP3    H114415   5.714   1.158   2.912  0.7858 -1.5710  0.5615
 4817TIP3    H214416   5.834   1.174   2.821 -0.0256  1.2646 -0.1237
 4818TIP3   OH214417   3.377   3.866   2.117  0.2986 -0.1404  0.8066
 4818TIP3    H114418   3.429   3.794   2.080 -0.6748 -0.4242 -0.0704
 4818TIP3    H214419   3.432   3.943   2.109  0.4627 -0.3690 -0.4399
 4819TIP3   OH214420   5.988   3.850   1.666 -0.0347  0.3481 -0.6122
 4819TIP3    H114421   6.048   3.834   1.739  1.0129 -3.1672 -2.0525
 4819TIP3    H214422   5.902   3.823   1.698  0.3638 -0.8817 -0.5625
 4820TIP3   OH214423   5.132   0.081   3.775  0.7122  0.5457  0.0849
 4820TIP3    H114424   5.174   0.008   3.729  1.7741  0.7562  0.6876
 4820TIP3    H214425   5.163   0.159   3.730 -1.1082  0.6305 -1.1133
 4821TIP3   OH214426   2.667   2.839   5.724 -0.7943  0.3274  0.1480
 4821TIP3    H114427   2.658   2.783   5.647  0.9334 -1.7644  1.3323
 4821TIP3    H214428   2.761   2.856   5.731 -0.9502  0.7283  1.6005
 4822TIP3   OH214429   2.532   6.507   5.443 -0.0590 -0.4158 -0.3825
 4822TIP3    H114430   2.531   6.546   5.530  0.0007 -0.3041 -0.4307
 4822TIP3    H214431   2.532   6.413   5.458  1.7534 -0.4156 -0.2218
 4823TIP3   OH214432   1.273   4.930   5.035 -0.3027  0.1844 -0.2238
 4823TIP3    H114433   1.270   5.002   4.971  0.7598  2.8958  2.5488
 4823TIP3    H214434   1.189   4.936   5.081 -0.8137 -1.3670 -0.8938
 4824TIP3   OH214435   6.135   5.802   4.236  0.2708  0.0922  0.2358
 4824TIP3    H114436   6.081   5.784   4.159  2.6471  0.5875 -1.6803
 4824TIP3    H214437   6.083   5.772   4.310 -1.3255 -2.2904 -1.7176
 4825TIP3   OH214438   1.177   6.609   3.946 -0.0650  0.4120  0.2288
 4825TIP3    H114439   1.204   6.540   4.006 -0.8522  0.1030  0.2435
 4825TIP3    H214440   1.248   6.616   3.883  1.0039  1.0712  1.4538
 4826TIP3   OH214441   4.839   3.318   0.076  0.4642 -0.0824  0.1901
 4826TIP3    H114442   4.749   3.345   0.058  0.4684  0.0098  0.3070
 4826TIP3    H214443   4.889   3.400   0.078  0.7423 -0.2067 -0.9344
 4827TIP3   OH214444   5.407   4.136   1.524  0.3285 -0.4811 -0.7950
 4827TIP3    H114445   5.394   4.202   1.456 -1.8823 -0.6600 -0.6162
 4827TIP3    H214446   5.459   4.068   1.482  1.6881  0.8135 -1.3166
 4828TIP3   OH214447   0.045   6.289   4.274  0.1505 -0.4249 -0.2022
 4828TIP3    H114448   0.107   6.342   4.324  1.0644 -1.1186 -0.5712
 4828TIP3    H214449  -0.036   6.339   4.276  0.6359  0.3583  0.5525
 4829TIP3   OH214450   4.502   5.413   0.753 -0.0303  0.3374 -0.0441
 4829TIP3    H114451   4.415   5.425   0.792 -0.1926  1.9384 -0.7851
 4829TIP3    H214452   4.558   5.474   0.801  0.3385  0.4247 -0.5756
 4830TIP3   OH214453   3.229   0.082   5.424  0.1327 -0.2651 -0.4491
 4830TIP3    H114454   3.174   0.005   5.440 -0.0563 -0.2017 -0.7909
 4830TIP3    H214455   3.182   0.132   5.357  0.4116 -0.0103 -0.4578
 4831TIP3   OH214456   4.310   5.120   3.135 -0.2459  0.5696  0.5988
 4831TIP3    H114457   4.360   5.046   3.170 -0.8682  0.6312  1.6464
 4831TIP3    H214458   4.229   5.081   3.103 -0.0190  0.6285 -0.0695
 4832TIP3   OH214459   4.572   5.115   5.548 -0.8628  0.2320  0.1720
 4832TIP3    H114460   4.622   5.046   5.590 -3.0082 -1.4177  0.2184
 4832TIP3    H214461   4.550   5.175   5.618  1.4210  1.3122  0.0501
 4833TIP3   OH214462   0.357   0.038   5.273  0.1329  0.0611  0.5424
 4833TIP3    H114463   0.355  -0.052   5.306 -0.6288  0.1987  0.8978
 4833TIP3    H214464   0.450   0.057   5.260  0.3606 -0.4383  1.3991
 4834TIP3   OH214465   2.577   6.036   0.258  0.4435  0.3762  0.4227
 4834TIP3    H114466   2.551   5.984   0.334  0.6050  0.1363  0.3143
 4834TIP3    H214467   2.495   6.061   0.217  0.3647  0.2172  0.4833
 4835TIP3   OH214468   2.271   5.379   3.768 -0.3665  0.2024 -0.4657
 4835TIP3    H114469   2.341   5.427   3.812 -1.6724  0.6722  1.2034
 4835TIP3    H214470   2.207   5.360   3.837 -3.1705  2.0738 -2.3262
 4836TIP3   OH214471   6.741   2.712   4.447 -0.3241  0.0689 -0.5616
 4836TIP3    H114472   6.815   2.651   4.450  0.5255  1.0690  1.9281
 4836TIP3    H214473   6.676   2.668   4.393  0.7126 -2.4934  0.1237
 4837TIP3   OH214474   5.854   5.966   4.484 -0.0792  0.1863  0.5480
 4837TIP3    H114475   5.847   5.962   4.389 -2.9662  1.0291  0.6334
 4837TIP3    H214476   5.906   6.044   4.501 -2.0593  1.8194 -0.4024
 4838TIP3   OH214477   4.121   5.086   1.630  0.5332 -0.0474  0.5099
 4838TIP3    H114478   4.209   5.048   1.635 -0.3465 -2.3356 -0.2686
 4838TIP3    H214479   4.103   5.093   1.537  0.3017  1.5361  0.6427
 4839TIP3   OH214480   5.717   6.401   2.361 -0.3454  0.2548  0.4134
 4839TIP3    H114481   5.639   6.455   2.377 -0.7575 -0.2640  0.1884
 4839TIP3    H214482   5.684   6.311   2.363  0.4292 -0.0225  1.3620
 4840TIP3   OH214483   4.478   5.131   2.910  0.2364 -0.3475  0.4780
 4840TIP3    H114484   4.457   5.126   2.817  0.4695 -0.3887  0.4285
 4840TIP3    H214485   4.394   5.148   2.952 -0.0481 -1.3890  0.3568
 4841TIP3   OH214486   4.012   3.398   4.902 -0.7195 -0.1511  0.0108
 4841TIP3    H114487   4.094   3.348   4.900 -0.9487 -0.6463  1.5093
 4841TIP3    H214488   3.943   3.331   4.904 -1.1348  0.2538 -0.5015
 4842TIP3   OH214489   5.383   5.988   0.864 -0.1545 -0.0556 -1.1078
 4842TIP3    H114490   5.351   5.969   0.776  0.1884 -1.3192 -0.9869
 4842TIP3    H214491   5.460   5.932   0.874 -0.2241  0.0254  0.0216
 4843TIP3   OH214492   2.173   6.058   1.085  0.0610  0.2018 -0.5369
 4843TIP3    H114493   2.180   6.024   0.996 -1.1732 -0.4867 -0.3931
 4843TIP3    H214494   2.256   6.035   1.127  0.0795 -0.7650 -1.0855
 4844TIP3   OH214495   1.217   4.761   1.511 -0.1976  0.3984 -0.4395
 4844TIP3    H114496   1.195   4.809   1.590 -0.4434 -0.8988  0.2988
 4844TIP3    H214497   1.220   4.828   1.442  1.1401  1.7275  0.8434
 4845TIP3   OH214498   0.524   5.435   2.796 -0.0802  0.4297  0.1034
 4845TIP3    H114499   0.434   5.429   2.764 -0.0505 -1.0730  0.2280
 4845TIP3    H214500   0.556   5.519   2.762 -1.6816  1.2526  0.5107
 4846TIP3   OH214501   1.310   5.607   4.372 -0.3578 -0.1562  0.4348
 4846TIP3    H114502   1.294   5.526   4.323  0.9960  0.1890 -0.6480
 4846TIP3    H214503   1.224   5.649   4.377 -0.9664 -1.3521  0.4769
 4847TIP3   OH214504   1.092   3.586   5.387  0.4073  0.3528 -0.3489
 4847TIP3    H114505   1.107   3.660   5.328 -0.0828 -0.0317 -0.9785
 4847TIP3    H214506   1.019   3.538   5.347 -0.6174  0.6357  1.1051
 4848TIP3   OH214507   4.285   1.766   3.664 -0.2037  0.3667 -0.5615
 4848TIP3    H114508   4.369   1.811   3.650  0.3625 -0.8095 -1.1160
 4848TIP3    H214509   4.221   1.818   3.616 -0.2692  2.6105  1.7342
 4849TIP3   OH214510   3.718   5.652   4.899 -0.5995  0.1509 -0.4946
 4849TIP3    H114511   3.708   5.575   4.843 -2.3166  1.3375 -1.9345
 4849TIP3    H214512   3.806   5.685   4.878 -0.9138  0.1334 -1.9687
 4850TIP3   OH214513   1.646   1.879   1.048  0.4216  0.4456 -0.3956
 4850TIP3    H114514   1.650   1.908   0.957 -2.6241  1.3523 -0.3451
 4850TIP3    H214515   1.668   1.957   1.099  0.4591  0.4042 -0.3486
 4851TIP3   OH214516   1.358   1.159   5.103 -0.2768 -1.0109 -0.0644
 4851TIP3    H114517   1.342   1.242   5.059  1.2430  0.7394  2.3890
 4851TIP3    H214518   1.450   1.138   5.083  0.2943 -0.4326  1.7033
 4852TIP3   OH214519   4.571   5.858   3.554  0.2280  0.1394 -0.1022
 4852TIP3    H114520   4.611   5.943   3.538 -0.4425  0.2556 -1.3576
 4852TIP3    H214521   4.492   5.858   3.500 -0.1526 -1.0143  0.4084
 4853TIP3   OH214522   2.475   2.185   3.951 -0.2798  0.5239 -0.0048
 4853TIP3    H114523   2.390   2.194   3.994  0.2551  0.6849  1.0352
 4853TIP3    H214524   2.465   2.109   3.894 -1.0293  0.3607  0.3366
 4854TIP3   OH214525   3.397   5.957   5.652  0.2379 -0.0012  0.0558
 4854TIP3    H114526   3.490   5.979   5.661  0.3818 -0.7338  0.4919
 4854TIP3    H214527   3.376   5.978   5.561  0.3738  1.7777  0.3972
 4855TIP3   OH214528   6.387   6.387   0.551  0.3251  0.1202  0.5403
 4855TIP3    H114529   6.357   6.438   0.627 -1.3376 -0.6965  0.4941
 4855TIP3    H214530   6.422   6.306   0.589  0.1518  0.0187  0.4885
 4856TIP3   OH214531   5.587   3.549   3.952  0.0290 -0.2157  0.5669
 4856TIP3    H114532   5.627   3.596   3.877  0.4193 -1.2352  0.1194
 4856TIP3    H214533   5.586   3.458   3.925  0.6652 -0.6824  2.0276
 4857TIP3   OH214534   1.991   5.129   1.919  0.1447 -0.4912 -0.1536
 4857TIP3    H114535   2.006   5.052   1.864 -1.4306 -1.2216  0.3644
 4857TIP3    H214536   2.029   5.107   2.004  0.6072 -0.2701 -0.3015
 4858TIP3   OH214537   1.746   3.634   3.161 -0.1606  0.3666 -0.2106
 4858TIP3    H114538   1.823   3.585   3.131  1.1797  0.9656  2.0470
 4858TIP3    H214539   1.672   3.576   3.143  1.1032 -1.3906  0.0168
 4859TIP3   OH214540   4.311   2.454   2.304 -0.5574  0.3139  0.4178
 4859TIP3    H114541   4.273   2.438   2.218  0.4974  1.5494 -0.3033
 4859TIP3    H214542   4.385   2.394   2.309 -0.6396  0.2169  0.4907
 4860TIP3   OH214543   5.865   0.619   5.266 -0.1355  0.4419 -0.1656
 4860TIP3    H114544   5.924   0.554   5.304 -0.4300 -0.9580 -1.9232
 4860TIP3    H214545   5.917   0.660   5.196 -0.6877  0.4104 -0.6013
 4861TIP3   OH214546   2.481   2.913   2.166 -0.4993  1.2989  0.5080
 4861TIP3    H114547   2.514   2.907   2.077 -0.4612  2.3934  0.4298
 4861TIP3    H214548   2.555   2.889   2.221 -0.9603 -0.9180  0.2370
 4862TIP3   OH214549   4.221   0.342   0.848  0.9189  0.2475  0.1217
 4862TIP3    H114550   4.151   0.399   0.815 -0.2047 -1.5324 -0.7155
 4862TIP3    H214551   4.280   0.401   0.895 -0.7316  1.9331  0.1856
 4863TIP3   OH214552   5.793   2.960   4.608  0.2120 -0.1176 -0.0177
 4863TIP3    H114553   5.719   3.020   4.603 -0.7446 -1.3578 -2.1094
 4863TIP3    H214554   5.784   2.918   4.694 -0.4318  1.0188  0.4990
 4864TIP3   OH214555   1.171   4.203   5.466  0.4313  0.1247  0.2473
 4864TIP3    H114556   1.262   4.204   5.436  0.6310  1.6982  0.8319
 4864TIP3    H214557   1.120   4.214   5.386  0.8170  0.5800  0.0571
 4865TIP3   OH214558   3.931   5.525   2.205 -0.2590  0.0567  0.4092
 4865TIP3    H114559   3.854   5.582   2.209 -0.3701 -0.1140  0.7069
 4865TIP3    H214560   3.932   5.493   2.115  1.1308  2.3575 -0.5029
 4866TIP3   OH214561   1.560   6.234   5.582  0.2129  0.0167 -0.5847
 4866TIP3    H114562   1.631   6.285   5.621  0.7728  0.6373 -2.3226
 4866TIP3    H214563   1.487   6.296   5.578 -1.0867 -1.0802  2.7439
 4867TIP3   OH214564   5.767   6.284   3.131  0.4569  0.0438 -0.4748
 4867TIP3    H114565   5.738   6.194   3.146 -0.2229  0.2294 -0.6351
 4867TIP3    H214566   5.718   6.312   3.053  2.2297 -0.1595 -1.7262
 4868TIP3   OH214567   3.736   3.339   4.282 -0.1592 -0.2227 -0.0395
 4868TIP3    H114568   3.711   3.278   4.212  1.6277 -0.9590 -0.0792
 4868TIP3    H214569   3.726   3.288   4.362  2.5864 -1.1096 -0.1555
 4869TIP3   OH214570   6.851   2.558   2.703  0.1874 -0.1345 -0.1037
 4869TIP3    H114571   6.865   2.493   2.633  3.4217  0.8809 -0.5600
 4869TIP3    H214572   6.889   2.517   2.781  1.9765  1.0258 -0.3281
 4870TIP3   OH214573   6.737   4.015   4.309  0.5059  0.2584 -0.1150
 4870TIP3    H114574   6.768   4.050   4.226  0.2871 -0.5129 -0.5271
 4870TIP3    H214575   6.642   4.030   4.308  0.5596  0.6441  0.1944
 4871TIP3   OH214576   2.960   3.268   0.729  0.0115  0.4513 -0.4071
 4871TIP3    H114577   3.054   3.277   0.744  0.1400  0.3938 -1.1634
 4871TIP3    H214578   2.927   3.358   0.725  0.0606  0.4732 -0.3255
 4872TIP3   OH214579   6.366   0.249   4.274  0.1544  0.1777 -0.4407
 4872TIP3    H114580   6.285   0.199   4.268  1.0636 -1.3577 -0.5610
 4872TIP3    H214581   6.340   0.339   4.258 -1.5874 -0.2105 -0.0351
 4873TIP3   OH214582   3.070   5.160   2.242 -0.1265  0.4654  0.2689
 4873TIP3    H114583   2.979   5.140   2.223 -0.0060  1.5746 -1.7549
 4873TIP3    H214584   3.119   5.084   2.208 -0.1665  0.7849 -0.5098
 4874TIP3   OH214585   1.666   0.263   5.593 -0.1026  0.0486 -0.1465
 4874TIP3    H114586   1.681   0.327   5.663 -0.9221  1.0431 -0.8544
 4874TIP3    H214587   1.650   0.181   5.639 -1.4306  0.8378  0.8907
 4875TIP3   OH214588   1.233   4.899   0.132 -0.2883  0.2096 -0.0531
 4875TIP3    H114589   1.252   4.880   0.223  0.5598  0.5847 -0.1384
 4875TIP3    H214590   1.156   4.956   0.134  0.1970  0.8596  0.4787
 4876TIP3   OH214591   1.185   3.802   5.282  0.4450 -0.3207  0.4888
 4876TIP3    H114592   1.276   3.832   5.293 -0.0065  1.1197  0.4765
 4876TIP3    H214593   1.178   3.785   5.188  0.0513  1.9682  0.0293
 4877TIP3   OH214594   2.235   2.198   1.251  0.6275 -0.2185 -0.0948
 4877TIP3    H114595   2.178   2.244   1.190  2.3961  1.4803 -0.5963
 4877TIP3    H214596   2.243   2.110   1.214 -0.0574  0.1243 -1.1153
 4878TIP3   OH214597   4.289   3.126   3.835  0.2568 -0.2690 -0.4699
 4878TIP3    H114598   4.270   3.066   3.763 -0.9025 -0.3254 -0.1355
 4878TIP3    H214599   4.203   3.153   3.868  0.7341 -0.7557  1.3175
 4879TIP3   OH214600   0.650   3.899   5.114  0.1224  0.3242  0.4093
 4879TIP3    H114601   0.734   3.861   5.086 -1.6085 -1.1861 -3.3770
 4879TIP3    H214602   0.600   3.824   5.147 -0.5114  0.8075  0.5655
 4880TIP3   OH214603   3.573  -0.011   5.528 -0.3761 -0.2901  0.5143
 4880TIP3    H114604   3.571  -0.029   5.435 -2.1002 -1.5921  0.7408
 4880TIP3    H214605   3.563   0.085   5.535 -2.2433 -0.3427 -0.6484
 4881TIP3   OH214606   4.128   0.922   2.361  0.9161  0.6824  0.0310
 4881TIP3    H114607   4.081   0.892   2.439 -0.1803  0.1505 -0.8137
 4881TIP3    H214608   4.172   0.844   2.328  0.6608  0.7127 -0.3811
 4882TIP3   OH214609   6.043   6.211   1.156 -0.0563  0.1316  0.4945
 4882TIP3    H114610   6.070   6.284   1.213 -0.1502  0.7868 -0.2722
 4882TIP3    H214611   6.088   6.228   1.073  2.5560 -2.4908  1.2579
 4883TIP3   OH214612   3.303   5.266   4.314  0.1691  0.1806  0.1049
 4883TIP3    H114613   3.361   5.341   4.297 -1.6681  1.3781 -1.2775
 4883TIP3    H214614   3.215   5.299   4.296 -0.9809 -1.6220  1.9671
 4884TIP3   OH214615   2.774   3.994   2.457  0.2509  0.1928 -0.3981
 4884TIP3    H114616   2.787   3.899   2.448 -0.4505 -0.1650  1.8117
 4884TIP3    H214617   2.803   4.030   2.373  0.3033 -1.9906 -1.3831
 4885TIP3   OH214618   0.084   4.035   2.297  0.0180 -0.2682 -0.2463
 4885TIP3    H114619   0.068   4.074   2.383 -2.3308  0.3816 -0.8987
 4885TIP3    H214620   0.113   4.108   2.242 -2.7987  0.3920 -1.0485
 4886TIP3   OH214621   4.123   1.101   5.685 -0.3763 -0.6223 -0.3210
 4886TIP3    H114622   4.128   1.191   5.654  0.5477 -0.3377  0.5915
 4886TIP3    H214623   4.157   1.049   5.612  2.5215  0.1046  0.3947
 4887TIP3   OH214624   5.598   6.123   5.551  0.0310 -0.0455  0.3446
 4887TIP3    H114625   5.558   6.069   5.618 -0.2450 -0.8541 -0.4522
 4887TIP3    H214626   5.635   6.060   5.488 -0.2389  0.6704 -0.5636
 4888TIP3   OH214627   5.576   2.838   1.163 -0.2590 -0.2183  0.1799
 4888TIP3    H114628   5.622   2.756   1.144 -1.0306 -0.5045 -0.5238
 4888TIP3    H214629   5.646   2.900   1.185  0.3440 -1.0271  0.6027
 4889TIP3   OH214630   6.682   1.102   2.058  1.2612  0.7781 -0.2007
 4889TIP3    H114631   6.699   1.165   1.988 -0.2826  2.1038  0.5516
 4889TIP3    H214632   6.721   1.142   2.136  0.7017  0.5729  0.1898
 4890TIP3   OH214633   4.573   1.788   5.370  0.0241  0.0592 -0.2871
 4890TIP3    H114634   4.478   1.779   5.383  0.1122 -2.0971 -0.7125
 4890TIP3    H214635   4.609   1.789   5.458 -0.3502 -0.1597 -0.1253
 4891TIP3   OH214636   6.583   5.768   2.913 -0.3659  0.1398 -0.0059
 4891TIP3    H114637   6.636   5.742   2.988 -0.9648  2.5594  1.3820
 4891TIP3    H214638   6.523   5.695   2.899 -0.1745 -0.4216  1.8275
 4892TIP3   OH214639   4.391   5.855   4.331  0.1022  0.6997 -0.4129
 4892TIP3    H114640   4.379   5.942   4.368  1.6947  0.8481 -0.1755
 4892TIP3    H214641   4.416   5.870   4.240  2.9660  0.6698  0.2819
 4893TIP3   OH214642   3.727   2.627   1.605 -0.0737 -0.1419  0.4304
 4893TIP3    H114643   3.693   2.710   1.638 -1.1253 -0.8096  1.0875
 4893TIP3    H214644   3.666   2.561   1.639 -0.2001 -1.0329 -1.3939
 4894TIP3   OH214645   5.525   6.757   1.482 -0.1566 -0.2671  0.1165
 4894TIP3    H114646   5.512   6.796   1.569 -1.3806  0.1425 -0.2309
 4894TIP3    H214647   5.620   6.760   1.469  0.2510 -1.9615  2.1719
 4895TIP3   OH214648   5.947   2.583   2.299  0.4428 -0.8497 -0.5095
 4895TIP3    H114649   6.014   2.632   2.253 -0.2017 -1.3919 -2.0693
 4895TIP3    H214650   5.978   2.492   2.299  0.5127 -0.8345  0.2815
 4896TIP3   OH214651   1.365   0.432   0.817  0.2705 -0.5114  0.5000
 4896TIP3    H114652   1.330   0.367   0.756 -2.7085  1.7061 -0.3593
 4896TIP3    H214653   1.391   0.380   0.894 -1.2241 -2.8134 -0.4411
 4897TIP3   OH214654   4.141   5.360   3.043 -0.5062  0.8228 -0.2919
 4897TIP3    H114655   4.088   5.378   2.965  1.6315  1.3539 -1.7056
 4897TIP3    H214656   4.172   5.270   3.031 -0.5541  0.7431  0.1814
 4898TIP3   OH214657   3.621   3.783   4.832  0.1834 -0.0719 -0.8009
 4898TIP3    H114658   3.554   3.763   4.767 -2.1819 -1.9713  1.9590
 4898TIP3    H214659   3.629   3.878   4.829 -3.4076  0.3855 -0.7182
 4899TIP3   OH214660   5.766   2.955   0.240  0.1390  0.5203 -0.1686
 4899TIP3    H114661   5.840   2.968   0.181  0.0774  2.8512  0.1755
 4899TIP3    H214662   5.744   2.862   0.232  2.4783 -0.0171 -0.9833
 4900TIP3   OH214663   1.144   4.154   2.929 -0.0416  0.5394  0.0518
 4900TIP3    H114664   1.085   4.222   2.896  0.5902  1.0659 -0.0128
 4900TIP3    H214665   1.202   4.200   2.990  1.4627  0.4351 -1.2174
 4901TIP3   OH214666   4.480   2.028   1.537 -0.3255  0.3397  0.2861
 4901TIP3    H114667   4.511   1.945   1.572  0.5349  0.9647  1.0485
 4901TIP3    H214668   4.409   2.053   1.595 -0.2223  0.4034  0.3846
 4902TIP3   OH214669   1.864   3.082   2.029  0.5197  0.2682 -0.0961
 4902TIP3    H114670   1.921   3.090   1.952 -0.0151 -0.6755 -0.6188
 4902TIP3    H214671   1.896   3.148   2.090  0.5448  1.4935 -1.3854
 4903TIP3   OH214672   1.877   1.287   5.085 -0.2245  0.3076  0.4964
 4903TIP3    H114673   1.943   1.356   5.094  0.9805 -0.8021  0.3667
 4903TIP3    H214674   1.892   1.230   5.160 -1.3119  0.2442  0.6821
 4904TIP3   OH214675   4.750   3.907   4.868  0.3227 -0.0284  0.1244
 4904TIP3    H114676   4.759   3.872   4.779 -0.5260 -0.5629  0.2385
 4904TIP3    H214677   4.759   3.830   4.925 -3.3750 -0.5017  0.3073
 4905TIP3   OH214678   4.308   1.921   1.296 -0.0006  0.0640  0.4681
 4905TIP3    H114679   4.264   1.947   1.378 -0.5471 -1.0042  0.5239
 4905TIP3    H214680   4.387   1.875   1.325  0.7675  1.2732  0.3684
 4906TIP3   OH214681   4.766   4.727   2.138  0.5094  0.4507 -0.4633
 4906TIP3    H114682   4.744   4.657   2.076  1.3905  1.1145 -1.5798
 4906TIP3    H214683   4.798   4.682   2.216  2.6047 -0.4458 -1.7373
 4907TIP3   OH214684   4.030   3.454   5.472 -0.1242 -0.4180 -0.4209
 4907TIP3    H114685   4.121   3.463   5.499 -0.0065  2.4953 -1.4876
 4907TIP3    H214686   4.034   3.410   5.387  0.5991  2.2342 -1.8430
 4908TIP3   OH214687   6.763   1.332   0.860 -0.3283 -0.3932 -0.2761
 4908TIP3    H114688   6.675   1.300   0.839 -0.6980 -0.3485  1.1398
 4908TIP3    H214689   6.805   1.258   0.904 -0.4323  0.2977  1.0294
 4909TIP3   OH214690   2.095   0.483   0.751  0.1857  0.3047 -0.0420
 4909TIP3    H114691   2.108   0.492   0.657  1.9135 -2.0874 -0.1467
 4909TIP3    H214692   2.035   0.409   0.760  1.1245 -0.3966  0.7006
 4910TIP3   OH214693   3.254   2.353   5.527  0.4283 -0.3417 -0.4567
 4910TIP3    H114694   3.263   2.364   5.622  1.3936 -3.0848 -0.1488
 4910TIP3    H214695   3.272   2.261   5.512  0.6032  0.0882 -3.3778
 4911TIP3   OH214696   0.331   6.458   5.309 -0.0327  0.2382  0.2782
 4911TIP3    H114697   0.369   6.499   5.231  2.0128 -1.0997  0.4998
 4911TIP3    H214698   0.285   6.381   5.276  1.3414 -0.6610  0.4237
 4912TIP3   OH214699   0.456   1.917   3.170  0.1536 -0.2811 -0.0727
 4912TIP3    H114700   0.480   2.010   3.168  0.0037 -0.2422 -1.6599
 4912TIP3    H214701   0.539   1.871   3.169  0.2240 -0.1741  0.4617
 4913TIP3   OH214702   5.866   3.713   3.995  0.0208 -0.2057 -0.3762
 4913TIP3    H114703   5.893   3.679   3.910 -0.4606 -1.5396 -0.0167
 4913TIP3    H214704   5.856   3.636   4.050  2.4982  0.7351  1.5744
 4914TIP3   OH214705   0.611   0.432   4.165  0.2098 -0.3608 -0.2097
 4914TIP3    H114706   0.584   0.464   4.079  2.0117  1.4597 -0.1507
 4914TIP3    H214707   0.593   0.338   4.162  0.3752 -0.3671 -2.6213
 4915TIP3   OH214708   3.325   4.886   4.252 -0.5533 -0.2500 -0.3844
 4915TIP3    H114709   3.392   4.821   4.233 -1.7370 -1.1637 -1.6380
 4915TIP3    H214710   3.334   4.951   4.182 -1.6185 -0.9318 -1.1871
 4916TIP3   OH214711   6.372   1.230   1.493 -0.6559  0.0074 -0.2663
 4916TIP3    H114712   6.432   1.250   1.420  1.8166  2.2384  2.1246
 4916TIP3    H214713   6.340   1.316   1.521 -2.4635 -0.9026  0.6046
 4917TIP3   OH214714   4.808   0.141   3.315 -0.1074 -0.1639 -0.0861
 4917TIP3    H114715   4.812   0.082   3.390 -0.3199 -1.8631 -1.3344
 4917TIP3    H214716   4.717   0.137   3.286  0.2861 -0.7549 -1.3245
 4918TIP3   OH214717   2.081   0.305   3.435 -0.2965 -0.0595  0.6916
 4918TIP3    H114718   2.097   0.354   3.355  0.3169 -0.0376  0.8242
 4918TIP3    H214719   2.064   0.372   3.501 -1.5788 -0.1005  0.4226
 4919TIP3   OH214720   3.894   2.995   0.684  0.3021 -0.2137  0.4129
 4919TIP3    H114721   3.888   3.087   0.658  0.7022  0.6066  2.9600
 4919TIP3    H214722   3.980   2.967   0.654  0.3811  0.3904  0.0558
 4920TIP3   OH214723   6.985   4.039   1.996 -0.0284 -0.6935 -0.3247
 4920TIP3    H114724   6.920   4.057   1.927 -2.1112  0.4241  1.7495
 4920TIP3    H214725   7.000   4.125   2.035  0.5148 -1.4137  1.0697
 4921TIP3   OH214726   6.649   6.111   5.677 -0.1140 -0.2708  0.2832
 4921TIP3    H114727   6.632   6.203   5.659 -0.7504 -0.4747 -0.2186
 4921TIP3    H214728   6.734   6.110   5.720  0.4769  0.4338 -0.8299
 4922TIP3   OH214729   4.230   0.960   1.966 -0.2718  0.0434  0.2275
 4922TIP3    H114730   4.261   1.002   2.046  0.2667 -0.3763  0.2415
 4922TIP3    H214731   4.152   0.911   1.993 -0.0527 -0.1525  0.5127
 4923TIP3   OH214732   0.479   0.216   0.577  0.0713  0.6775 -0.0596
 4923TIP3    H114733   0.525   0.227   0.493  1.0472  0.8365  0.4874
 4923TIP3    H214734   0.418   0.144   0.561  0.3746  0.5836 -0.8574
 4924TIP3   OH214735   0.655   5.153   4.911 -0.3768 -0.5975  0.8707
 4924TIP3    H114736   0.560   5.165   4.917 -0.1202  2.4923  0.5797
 4924TIP3    H214737   0.691   5.211   4.978  1.3070 -0.3754 -0.1546
 4925TIP3   OH214738   0.167   2.139   0.598  0.0405 -0.3052 -0.1684
 4925TIP3    H114739   0.209   2.075   0.540 -1.2131 -1.5220  0.1934
 4925TIP3    H214740   0.110   2.190   0.539 -0.5612 -0.9552 -0.1701
 4926TIP3   OH214741   4.869   1.601   4.429 -0.0190 -0.0769  0.1478
 4926TIP3    H114742   4.829   1.516   4.416  0.4940 -0.5946  1.7317
 4926TIP3    H214743   4.855   1.648   4.346 -1.4240 -1.2194 -0.2860
 4927TIP3   OH214744   3.812   1.271   3.902 -0.4438  0.3380  0.6628
 4927TIP3    H114745   3.793   1.252   3.810  0.0620  1.5419  0.2767
 4927TIP3    H214746   3.780   1.361   3.914  2.0310  1.2747  0.8363
 4928TIP3   OH214747   3.328   3.447   4.457  0.2810  0.5823 -0.0608
 4928TIP3    H114748   3.270   3.379   4.490  0.7336  0.3285  0.2222
 4928TIP3    H214749   3.415   3.408   4.460  0.6233  1.3684  0.6513
 4929TIP3   OH214750   5.413   1.537   1.080 -0.2871 -0.8915  0.1897
 4929TIP3    H114751   5.346   1.532   1.012 -0.8703  2.6570  0.3046
 4929TIP3    H214752   5.365   1.520   1.161 -0.9882  0.8559  0.1938
 4930TIP3   OH214753   1.577   0.528   4.393  0.3666 -0.3578 -0.1892
 4930TIP3    H114754   1.575   0.493   4.482 -0.3708 -0.0220 -0.0717
 4930TIP3    H214755   1.606   0.454   4.339  0.8063 -0.5648  0.3242
 4931TIP3   OH214756   5.665   2.574   1.893  0.0017  0.0091  0.3477
 4931TIP3    H114757   5.756   2.599   1.876 -0.1094  0.8746  0.9883
 4931TIP3    H214758   5.665   2.540   1.982 -0.6403  1.9132  1.1295
 4932TIP3   OH214759   5.706   5.830   0.194  0.4133 -0.2910 -0.4666
 4932TIP3    H114760   5.696   5.925   0.205 -1.7393 -0.4526 -0.6062
 4932TIP3    H214761   5.705   5.817   0.099 -3.0554 -0.6693 -0.5182
 4933TIP3   OH214762   2.748   0.599   4.733  0.6733 -0.2439  0.3159
 4933TIP3    H114763   2.689   0.588   4.808 -0.3849  0.9758 -0.2997
 4933TIP3    H214764   2.691   0.632   4.663  1.6828 -1.1237 -0.9660
 4934TIP3   OH214765   4.685  -0.004   3.543 -0.3066  0.2973 -0.0718
 4934TIP3    H114766   4.741  -0.054   3.602  0.3871  0.7809 -0.3028
 4934TIP3    H214767   4.664   0.076   3.592 -0.5631  0.2417 -0.0920
 4935TIP3   OH214768   5.498   2.543   1.537 -0.5022  0.0336 -0.7311
 4935TIP3    H114769   5.495   2.462   1.588 -1.0151  1.7093  2.0834
 4935TIP3    H214770   5.411   2.582   1.549  0.2011  1.7048 -0.7749
 4936TIP3   OH214771   1.753   4.542   0.131  0.0227 -0.8140  0.3270
 4936TIP3    H114772   1.821   4.561   0.195  0.4344 -1.2323  0.0136
 4936TIP3    H214773   1.690   4.487   0.178 -1.1066  1.1186  1.2032
 4937TIP3   OH214774   6.570   0.306   0.205 -0.0201 -0.5942 -0.4623
 4937TIP3    H114775   6.503   0.334   0.142  0.3104 -0.3797 -0.7173
 4937TIP3    H214776   6.651   0.303   0.155  0.2259 -0.5351 -0.0736
 4938TIP3   OH214777   2.645   6.020   3.439  0.5748 -0.0383 -0.0223
 4938TIP3    H114778   2.713   5.997   3.374  0.6560  1.7907 -0.6240
 4938TIP3    H214779   2.592   6.086   3.396  0.8407  1.5091  1.9023
 4939TIP3   OH214780   0.003   3.752   1.209 -0.2882 -0.1152  0.6573
 4939TIP3    H114781   0.058   3.716   1.279  0.3176  0.7998  0.6645
 4939TIP3    H214782   0.044   3.719   1.129 -0.4321 -0.3953  0.6953
 4940TIP3   OH214783   2.944   1.664   1.778  0.3259  0.0766  0.1657
 4940TIP3    H114784   2.869   1.618   1.816  0.1318 -0.1189 -0.4423
 4940TIP3    H214785   2.965   1.614   1.699  0.7221  0.4791  0.0128
 4941TIP3   OH214786   1.468   4.934   1.079  0.1024 -0.4133 -0.2080
 4941TIP3    H114787   1.464   4.841   1.060  1.3773 -0.5711  0.2164
 4941TIP3    H214788   1.377   4.963   1.078 -0.2604 -1.5256 -0.9893
 4942TIP3   OH214789   6.797   4.554   1.389 -0.3992  0.1188 -0.7547
 4942TIP3    H114790   6.781   4.490   1.459  0.5654  0.4595 -0.1959
 4942TIP3    H214791   6.751   4.633   1.419  0.7521  0.5465 -0.0264
 4943TIP3   OH214792   2.228   3.022   0.298  0.2842 -0.4287  0.4811
 4943TIP3    H114793   2.137   3.003   0.321  0.2369 -0.4142  0.3099
 4943TIP3    H214794   2.270   2.936   0.291  0.1800 -0.4556  0.1475
 4944TIP3   OH214795   4.670   3.323   0.387  0.2175 -0.4681  0.2528
 4944TIP3    H114796   4.654   3.316   0.481 -0.2941 -0.0826  0.1971
 4944TIP3    H214797   4.683   3.232   0.359  1.6373 -0.4886  0.8994
 4945TIP3   OH214798   1.195   2.680   0.767  0.6836  0.8089  0.9506
 4945TIP3    H114799   1.279   2.690   0.722  0.5442  0.0957  0.4968
 4945TIP3    H214800   1.183   2.585   0.772 -1.6407  0.8031 -2.0197
 4946TIP3   OH214801   6.427   0.634   0.654  0.6442 -0.6262 -0.5696
 4946TIP3    H114802   6.433   0.725   0.686 -1.5516 -1.3130  2.2481
 4946TIP3    H214803   6.485   0.585   0.711 -0.4911 -1.3885 -0.0403
 4947TIP3   OH214804   0.328   3.973   3.899  0.2940 -0.3745 -0.2801
 4947TIP3    H114805   0.411   3.952   3.857  0.0339 -1.4678 -0.2843
 4947TIP3    H214806   0.292   3.888   3.925 -0.8612  0.0646 -0.3708
 4948TIP3   OH214807   2.921   5.493   5.012 -0.7416  0.0768  0.2567
 4948TIP3    H114808   2.953   5.446   5.088  1.9244  0.2391 -0.6466
 4948TIP3    H214809   2.870   5.429   4.963 -1.4702 -0.3610  1.5525
 4949TIP3   OH214810   4.653   3.310   4.211 -0.3993 -0.2087 -0.8986
 4949TIP3    H114811   4.572   3.260   4.204  0.1829 -1.0916 -1.4858
 4949TIP3    H214812   4.624   3.401   4.221 -1.4719 -0.6386  0.1887
 4950TIP3   OH214813   4.714   2.277   1.990  0.3006 -0.3577 -0.2487
 4950TIP3    H114814   4.790   2.245   2.039  0.4238 -0.9242 -0.7982
 4950TIP3    H214815   4.739   2.266   1.898  0.8477  2.4139 -0.5326
 4951TIP3   OH214816   1.611   1.348   1.965 -0.3198  0.0964  0.0387
 4951TIP3    H114817   1.543   1.411   1.941 -0.5129 -0.4021 -0.7772
 4951TIP3    H214818   1.630   1.367   2.057 -2.6167 -0.7119  0.7715
 4952TIP3   OH214819   6.501   4.358   5.684 -0.1702  0.4024 -0.1681
 4952TIP3    H114820   6.545   4.298   5.623  0.5065  1.2146 -0.5022
 4952TIP3    H214821   6.408   4.349   5.663 -0.0314 -0.1247 -0.5842
 4953TIP3   OH214822   4.372   1.290   4.635  0.4589  0.5261 -0.5864
 4953TIP3    H114823   4.278   1.273   4.635  0.6410 -0.5825  0.2463
 4953TIP3    H214824   4.406   1.239   4.708  1.3695  3.0397  0.8468
 4954TIP3   OH214825   3.712   0.909   1.806  0.8620 -0.3688 -0.2134
 4954TIP3    H114826   3.806   0.914   1.824  0.9295  0.5321 -0.7320
 4954TIP3    H214827   3.671   0.897   1.891  1.5800 -3.2146 -0.2000
 4955TIP3   OH214828   2.965   4.003   5.215 -0.1312 -0.3629  0.1943
 4955TIP3    H114829   2.874   4.028   5.200 -1.1561 -2.5762  1.9684
 4955TIP3    H214830   2.981   3.932   5.153  1.0488  1.2100 -1.3663
 4956TIP3   OH214831   0.272   2.074   2.461 -0.2114 -0.8656 -0.1413
 4956TIP3    H114832   0.194   2.129   2.451  0.0028 -0.3412  0.9700
 4956TIP3    H214833   0.335   2.109   2.398 -0.6189 -0.8617 -0.5584
 4957TIP3   OH214834   6.072   1.523   3.726  0.3061 -0.4285 -0.5253
 4957TIP3    H114835   6.133   1.577   3.778 -0.6569  0.2347 -0.0471
 4957TIP3    H214836   6.123   1.496   3.650  1.2505 -0.0301 -0.0589
 4958TIP3   OH214837   0.075   2.892   0.560 -0.0989  0.2351  0.5003
 4958TIP3    H114838   0.002   2.835   0.583 -0.9307  0.4308 -1.4613
 4958TIP3    H214839   0.153   2.841   0.581 -0.8222 -1.0618  0.0966
 4959TIP3   OH214840   3.310   4.114   3.078  0.5885 -0.0311 -0.3214
 4959TIP3    H114841   3.393   4.076   3.052 -0.5575 -1.4294 -2.1903
 4959TIP3    H214842   3.281   4.061   3.152  1.2698  0.3999  0.2711
 4960TIP3   OH214843   6.296   5.976   4.650 -0.6952  0.2366 -0.0606
 4960TIP3    H114844   6.250   5.902   4.611 -2.2287  0.9216  0.3510
 4960TIP3    H214845   6.324   5.943   4.736  0.8222 -0.6069 -0.8438
 4961TIP3   OH214846   6.307   5.798   1.332 -0.1074  0.6292  0.1873
 4961TIP3    H114847   6.325   5.748   1.253  0.6938  1.1183  0.0424
 4961TIP3    H214848   6.235   5.856   1.308 -1.3005 -0.6659  0.4654
 4962TIP3   OH214849   5.626   0.920   3.385 -0.1321  0.2264 -0.2682
 4962TIP3    H114850   5.634   0.834   3.427 -0.1868  0.6035  0.5443
 4962TIP3    H214851   5.536   0.924   3.355 -0.4507  0.4308  0.6880
 4963TIP3   OH214852   0.714   6.224   1.375 -0.2880 -0.3492 -0.3263
 4963TIP3    H114853   0.695   6.151   1.316  1.3000 -0.3328 -0.9101
 4963TIP3    H214854   0.667   6.299   1.337  1.7871 -0.0092 -2.4252
 4964TIP3   OH214855   7.050   1.324   1.649 -0.5046 -0.8400 -0.0223
 4964TIP3    H114856   6.994   1.247   1.648 -1.8705  0.1201 -0.0513
 4964TIP3    H214857   7.014   1.381   1.581 -0.0597  0.1905  0.5809
 4965TIP3   OH214858   4.081   0.831   4.661 -0.3426  0.3024 -0.8136
 4965TIP3    H114859   4.141   0.763   4.694 -0.9762 -0.4190 -1.1191
 4965TIP3    H214860   3.997   0.810   4.701 -0.5727  0.8387 -1.0176
 4966TIP3   OH214861   1.607   6.004   3.958  0.6318 -0.4225 -0.0357
 4966TIP3    H114862   1.701   6.017   3.956  0.8257 -1.4902  1.2261
 4966TIP3    H214863   1.591   5.929   3.901  0.0782  1.7989 -3.1165
 4967TIP3   OH214864   3.644   1.431   1.648 -0.2640  0.0031 -0.1467
 4967TIP3    H114865   3.569   1.471   1.604 -0.3427  1.2496  1.0456
 4967TIP3    H214866   3.681   1.371   1.583  0.6446  2.9490 -2.5697
 4968TIP3   OH214867   2.741   6.473   3.309  0.3931 -0.2410  0.3198
 4968TIP3    H114868   2.797   6.458   3.385  0.3467 -0.8294  0.2408
 4968TIP3    H214869   2.667   6.415   3.322 -0.8860  1.4848  1.0954
 4969TIP3   OH214870   5.260   6.312   5.136 -0.4286  0.2020 -0.4099
 4969TIP3    H114871   5.297   6.225   5.138 -0.6628  0.0908 -0.8529
 4969TIP3    H214872   5.244   6.333   5.228 -1.5654 -0.7419 -0.3681
 4970TIP3   OH214873   6.984   1.414   0.739 -0.0270  0.2461  0.2132
 4970TIP3    H114874   6.976   1.412   0.644 -0.5898 -1.6176  0.2698
 4970TIP3    H214875   6.900   1.381   0.771 -0.5684  2.5805  1.4381
 4971TIP3   OH214876   2.876   6.078   3.900 -0.4889  0.1046 -0.2369
 4971TIP3    H114877   2.895   6.139   3.828 -0.5472  0.4774  0.0628
 4971TIP3    H214878   2.850   5.997   3.856 -1.3730  0.5968 -0.6365
 4972TIP3   OH214879   2.115   0.110   5.015 -0.3988  0.0080 -0.0050
 4972TIP3    H114880   2.112   0.020   4.983 -0.9487 -0.6596  1.7693
 4972TIP3    H214881   2.030   0.123   5.057 -0.2111  1.2607  0.0317
 4973TIP3   OH214882   5.011   6.183   4.587  0.1149  0.0909  0.5935
 4973TIP3    H114883   4.998   6.123   4.513 -1.5088 -0.9568  1.6660
 4973TIP3    H214884   5.093   6.154   4.627  0.8019  0.4155 -0.5418
 4974TIP3   OH214885   4.827   0.206   4.654  0.0498 -0.0933  0.0663
 4974TIP3    H114886   4.744   0.189   4.699  0.3373 -1.1088  0.2349
 4974TIP3    H214887   4.803   0.211   4.561 -0.2336 -0.1427  0.1351
 4975TIP3   OH214888   6.541   6.387   5.343  0.0268 -0.3121 -0.1470
 4975TIP3    H114889   6.453   6.422   5.357  0.8083  1.3313  0.9348
 4975TIP3    H214890   6.536   6.296   5.373 -0.6353  0.5438  2.6403
 4976TIP3   OH214891   5.255   2.965   3.904  0.1327  0.1556  0.0789
 4976TIP3    H114892   5.301   3.029   3.958 -1.5504  0.4822  1.2051
 4976TIP3    H214893   5.318   2.894   3.892  1.9900  1.8977 -1.0708
 4977TIP3   OH214894   3.690   1.707   1.478 -0.2974 -0.1544 -0.2875
 4977TIP3    H114895   3.661   1.736   1.392  0.1557  0.9058 -0.0907
 4977TIP3    H214896   3.786   1.707   1.473 -0.2305  1.0056  0.5512
 4978TIP3   OH214897   3.563   5.404   0.136 -0.0564 -0.5010 -0.0415
 4978TIP3    H114898   3.606   5.481   0.098 -0.8411 -0.0007  0.0680
 4978TIP3    H214899   3.559   5.424   0.230  2.4690 -2.0083  0.4887
 4979TIP3   OH214900   6.136   2.407   0.616  0.0079  0.6601 -0.7335
 4979TIP3    H114901   6.211   2.422   0.674 -0.0303 -0.7260 -0.2992
 4979TIP3    H214902   6.120   2.492   0.576 -1.1842  2.2640  2.7195
 4980TIP3   OH214903   5.881   3.543   4.236  0.3487  0.0920 -0.3387
 4980TIP3    H114904   5.829   3.490   4.296 -0.2644  0.7111 -0.3007
 4980TIP3    H214905   5.965   3.498   4.229 -0.3330 -1.1546 -0.7240
 4981TIP3   OH214906   5.910   2.346   1.132  0.4177 -0.0365  0.0010
 4981TIP3    H114907   6.004   2.352   1.145  0.6292  0.9525 -1.7101
 4981TIP3    H214908   5.889   2.255   1.150  1.4061  0.0628  1.9497
 4982TIP3   OH214909   5.156   0.857   0.138 -0.0203 -0.1747 -0.1727
 4982TIP3    H114910   5.097   0.784   0.119  0.2384 -0.9719  1.7766
 4982TIP3    H214911   5.101   0.919   0.186 -0.0692  0.6171 -1.2317
 4983TIP3   OH214912   1.508   0.104   4.055  0.4495  0.3308  0.4580
 4983TIP3    H114913   1.531   0.195   4.073  0.4099  0.6042 -0.8296
 4983TIP3    H214914   1.562   0.053   4.115  1.6485  1.1300  0.0735
 4984TIP3   OH214915   6.896   3.964   2.670 -0.3982 -0.4118  0.3704
 4984TIP3    H114916   6.957   3.996   2.603  0.4299  0.1874  1.3709
 4984TIP3    H214917   6.872   3.877   2.640 -1.1937  0.3720 -1.4409
 4985TIP3   OH214918   5.080   0.781   2.922 -0.3320  0.0006  0.1369
 4985TIP3    H114919   5.085   0.799   2.828  1.9785  0.1727  0.2160
 4985TIP3    H214920   5.040   0.860   2.959 -0.5038  0.2762 -0.6167
 4986TIP3   OH214921   3.982   5.443   0.036 -0.1476 -0.1274 -0.1893
 4986TIP3    H114922   3.898   5.489   0.031 -0.2789 -0.2050  0.9075
 4986TIP3    H214923   3.977   5.394   0.118  0.3931 -1.2989 -0.8287
 4987TIP3   OH214924   0.354   6.787   3.869  0.2144  0.0147  0.2064
 4987TIP3    H114925   0.438   6.742   3.884 -0.6991 -1.6489  0.5798
 4987TIP3    H214926   0.290   6.736   3.920 -0.9294  1.6632  0.5034
 4988TIP3   OH214927   0.906   1.549   1.244 -0.5009  0.3159  0.0418
 4988TIP3    H114928   0.894   1.454   1.242  1.3832  0.0236  0.8455
 4988TIP3    H214929   0.906   1.572   1.337  2.7351  0.5002  0.1164
 4989TIP3   OH214930   2.533   4.792   3.249  0.2401  0.0291 -0.2047
 4989TIP3    H114931   2.512   4.703   3.277 -0.5290  0.1227 -0.4412
 4989TIP3    H214932   2.468   4.811   3.181  1.3375  0.2351 -1.2122
 4990TIP3   OH214933   4.935   6.243   5.312 -0.1671 -0.2825 -0.3828
 4990TIP3    H114934   4.939   6.148   5.305 -1.7589 -0.8420  3.5879
 4990TIP3    H214935   4.857   6.267   5.260 -0.5186 -1.3111 -0.3554
 4991TIP3   OH214936   3.878   2.389   1.625 -0.5356  0.1028  0.4499
 4991TIP3    H114937   3.790   2.425   1.634 -1.1171 -0.8230 -1.1147
 4991TIP3    H214938   3.871   2.328   1.551  1.4594  0.1356  0.1919
 4992TIP3   OH214939   0.942   1.798   5.097 -0.2284 -0.4418 -0.0223
 4992TIP3    H114940   0.971   1.829   5.183 -0.6342 -2.2660  0.8331
 4992TIP3    H214941   1.007   1.832   5.036  0.7963 -0.1466  1.1799
 4993TIP3   OH214942   1.910   2.080   1.752  0.5085 -0.3277 -0.2516
 4993TIP3    H114943   1.954   2.145   1.697  0.3514 -0.4669 -0.5448
 4993TIP3    H214944   1.817   2.100   1.743  0.5090  0.0108  0.4222
 4994TIP3   OH214945   0.244   4.193   2.901 -0.2485 -0.0258 -0.1111
 4994TIP3    H114946   0.184   4.140   2.954  0.9698 -0.2676  1.0885
 4994TIP3    H214947   0.248   4.148   2.817 -1.9322  0.1504 -0.3103
 4995TIP3   OH214948   6.263   3.172   5.207 -0.3883 -0.1088  0.3080
 4995TIP3    H114949   6.293   3.097   5.259  3.1833  2.0802  1.7527
 4995TIP3    H214950   6.225   3.232   5.271  1.6253  1.4759  0.1013
 4996TIP3   OH214951   1.803   3.345   1.719 -0.0068  0.0040  0.3080
 4996TIP3    H114952   1.873   3.284   1.696 -1.4742 -1.4138 -0.6755
 4996TIP3    H214953   1.820   3.367   1.811  2.8355  1.3565 -0.4342
 4997TIP3   OH214954   3.917   2.124   5.100  0.2048  0.5008  0.0120
 4997TIP3    H114955   4.012   2.132   5.094  0.1494  0.5975 -0.9347
 4997TIP3    H214956   3.894   2.169   5.181  0.9240  0.8931  0.0097
 4998TIP3   OH214957   4.010   4.807   0.809  0.3844  0.5250  0.0232
 4998TIP3    H114958   4.096   4.842   0.833  0.5942  1.0191 -1.3642
 4998TIP3    H214959   4.000   4.828   0.716 -1.5062  1.0229  0.2928
 4999TIP3   OH214960   5.327   5.390   5.540  0.5459 -0.8782  0.4736
 4999TIP3    H114961   5.415   5.412   5.511 -0.4323  3.4839  0.0999
 4999TIP3    H214962   5.312   5.448   5.615 -2.5637 -0.0632 -0.6157
 5000TIP3   OH214963   1.644   2.152   1.728  0.1380  0.3712 -0.3880
 5000TIP3    H114964   1.562   2.109   1.707 -0.6063  2.0822 -1.2060
 5000TIP3    H214965   1.652   2.146   1.823 -0.7419 -0.1193 -0.3388
 5001TIP3   OH214966   5.235   0.908   2.163 -0.4099  0.2470 -0.6314
 5001TIP3    H114967   5.210   0.994   2.195 -0.3183  0.5468 -1.3550
 5001TIP3    H214968   5.153   0.858   2.164 -0.6549  0.6275 -1.0971
 5002TIP3   OH214969   5.058   5.267   4.687 -0.6890  0.2784 -0.4584
 5002TIP3    H114970   5.119   5.307   4.625  0.7063 -1.4320 -0.2882
 5002TIP3    H214971   5.058   5.174   4.664 -0.0621 -0.4420  2.0731
 5003TIP3   OH214972   6.726   6.752   1.147  0.3133 -0.0706  0.1651
 5003TIP3    H114973   6.784   6.827   1.144  0.7456 -0.4104 -0.1605
 5003TIP3    H214974   6.639   6.789   1.162 -0.1200  0.8469 -3.6935
 5004TIP3   OH214975   0.154   5.786   4.405 -0.8107 -0.1959  0.1285
 5004TIP3    H114976   0.067   5.815   4.434 -0.7266 -0.8460  1.0544
 5004TIP3    H214977   0.206   5.783   4.484 -0.5539 -1.9259 -0.0837
 5005TIP3   OH214978   4.216   1.980   4.082 -0.0227  0.8963 -0.3816
 5005TIP3    H114979   4.132   1.999   4.123  0.2082 -1.5075  1.4137
 5005TIP3    H214980   4.220   1.885   4.077  3.1059  0.8291  0.8362
 5006TIP3   OH214981   5.094   2.020   1.353 -0.4078  0.3257  0.3908
 5006TIP3    H114982   5.070   2.034   1.261  0.0717 -1.0251  0.0260
 5006TIP3    H214983   5.187   2.043   1.356  0.1741 -1.7597 -0.0295
 5007TIP3   OH214984   4.006   4.394   1.128  0.0525 -0.3958  0.3596
 5007TIP3    H114985   3.929   4.443   1.101  0.3406  0.1026  0.4238
 5007TIP3    H214986   4.080   4.443   1.091  0.3957 -0.2755  1.1793
 5008TIP3   OH214987   5.266   0.234   3.574 -0.7063  0.1161  0.3479
 5008TIP3    H114988   5.333   0.243   3.506  0.1432 -0.3617  1.0800
 5008TIP3    H214989   5.184   0.256   3.531 -0.1091  0.4636 -0.6529
 5009TIP3   OH214990   6.838   2.063   0.846 -0.6134  0.4283  0.3143
 5009TIP3    H114991   6.926   2.041   0.816 -0.1430  2.7537 -0.1966
 5009TIP3    H214992   6.850   2.098   0.934 -1.1056  0.3043  0.4349
 5010TIP3   OH214993   0.877   2.920   3.084 -0.0653  0.3935 -0.0274
 5010TIP3    H114994   0.888   2.873   3.001 -3.1349  1.1333 -0.9897
 5010TIP3    H214995   0.880   3.012   3.060 -1.1634  0.6200  0.6292
 5011TIP3   OH214996   2.642   6.155   2.332 -0.1132  0.2585 -0.5781
 5011TIP3    H114997   2.717   6.148   2.273  0.1413  0.1621 -0.2491
 5011TIP3    H214998   2.569   6.118   2.283 -0.0168  0.6449 -1.0228
 5012TIP3   OH214999   2.609   2.675   0.769 -0.3459  0.4884  0.2404
 5012TIP3    H115000   2.680   2.628   0.813 -0.9725  0.3439  1.1325
 5012TIP3    H215001   2.639   2.765   0.765  0.2724  0.2649 -0.2044
 5013TIP3   OH215002   1.443   1.065   5.508  0.2023 -0.6326 -0.0445
 5013TIP3    H115003   1.434   1.101   5.419  1.3600  0.4256  0.2404
 5013TIP3    H215004   1.353   1.045   5.535 -0.2281 -0.3357 -1.1875
 5014TIP3   OH215005   1.382   5.187   4.670  0.3444 -0.4592  0.0027
 5014TIP3    H115006   1.460   5.234   4.642 -0.2660 -0.0874 -1.1491
 5014TIP3    H215007   1.409   5.139   4.748  1.6440 -0.1518 -0.2401
 5015TIP3   OH215008   2.510   3.503   1.561  0.0811  0.4206  0.0705
 5015TIP3    H115009   2.515   3.460   1.647  0.0950  2.0706  0.9191
 5015TIP3    H215010   2.517   3.596   1.580 -0.9533  0.8882 -1.6397
 5016TIP3   OH215011   6.504   5.187   5.231  1.2889 -0.0101 -0.2008
 5016TIP3    H115012   6.533   5.277   5.248  0.0686  0.0551  1.9167
 5016TIP3    H215013   6.586   5.138   5.224  1.9653  1.1026 -0.5220
 5017TIP3   OH215014   0.757   3.158   0.258 -0.3309 -0.1500 -0.8849
 5017TIP3    H115015   0.773   3.244   0.218  0.7960 -0.4360 -1.0893
 5017TIP3    H215016   0.832   3.105   0.232 -0.2806 -0.7733  0.4357
 5018TIP3   OH215017   2.140   3.161   4.167 -0.4908  0.4099  0.4299
 5018TIP3    H115018   2.227   3.133   4.194 -0.5586  0.1669  0.3921
 5018TIP3    H215019   2.086   3.152   4.245 -0.6420 -0.1068  0.2660
 5019TIP3   OH215020   5.224   6.337   0.216 -0.1105  0.1993  0.3859
 5019TIP3    H115021   5.276   6.415   0.198 -0.1564  0.3068  0.7110
 5019TIP3    H215022   5.150   6.343   0.156  0.3734 -0.0822 -0.2567
 5020TIP3   OH215023   0.667   2.807   2.794  0.0890  0.2256 -0.0527
 5020TIP3    H115024   0.615   2.795   2.715  1.7512 -0.4604 -1.0883
 5020TIP3    H215025   0.606   2.787   2.866 -1.3148  0.3898 -1.1567
 5021TIP3   OH215026   1.707   2.764   5.078  0.0463 -0.0989 -0.2994
 5021TIP3    H115027   1.679   2.836   5.135  0.9042  0.8282 -1.0247
 5021TIP3    H215028   1.761   2.708   5.134 -0.5063 -0.1157  0.2285
 5022TIP3   OH215029   5.590   5.762   0.982 -0.0102 -0.2505 -0.0950
 5022TIP3    H115030   5.608   5.735   0.892  0.5776 -0.3880  0.0589
 5022TIP3    H215031   5.662   5.821   1.003 -0.8319  0.8111 -0.1510
 5023TIP3   OH215032   4.520   3.631   3.885 -0.0832  0.3417  0.2466
 5023TIP3    H115033   4.509   3.536   3.889  0.3145  0.3181  1.2670
 5023TIP3    H215034   4.575   3.651   3.961  0.2589  1.3278 -0.2512
 5024TIP3   OH215035   4.996   2.875   2.136 -0.0690  0.2206  0.2077
 5024TIP3    H115036   4.990   2.906   2.226  0.7359 -0.7149  0.6006
 5024TIP3    H215037   5.010   2.954   2.084 -0.4950  0.7618  0.9086
 5025TIP3   OH215038   0.741   0.644   0.054 -0.1747  0.0304  0.0843
 5025TIP3    H115039   0.798   0.708   0.096 -1.6399  1.3300  0.1850
 5025TIP3    H215040   0.687   0.610   0.125 -0.1169 -0.5551 -0.1474
 5026TIP3   OH215041   6.619   2.500   2.197 -0.1928 -0.7472 -0.0725
 5026TIP3    H115042   6.569   2.481   2.276 -1.8191 -0.1407 -0.9048
 5026TIP3    H215043   6.586   2.439   2.132  0.5003 -0.6553 -0.5257
 5027TIP3   OH215044   0.388   3.368   3.322 -0.5334  0.0537 -0.2229
 5027TIP3    H115045   0.325   3.303   3.288  0.1777 -0.1242 -1.2633
 5027TIP3    H215046   0.414   3.418   3.245  0.1180  0.5399  0.3046
 5028TIP3   OH215047   1.245   4.487   2.840  0.0950  0.0542 -0.9456
 5028TIP3    H115048   1.187   4.526   2.775  0.1830  0.5470 -0.7336
 5028TIP3    H215049   1.291   4.417   2.793 -2.6923 -2.2910 -0.4278
 5029TIP3   OH215050   0.711   5.242   0.232  0.5579 -0.3352  0.4213
 5029TIP3    H115051   0.733   5.210   0.145  2.0817 -0.6896  0.9068
 5029TIP3    H215052   0.620   5.216   0.245  0.7495 -1.5586 -0.4979
 5030TIP3   OH215053   4.021   5.887   3.310 -0.4994  0.0462  0.3492
 5030TIP3    H115054   4.014   5.809   3.255  0.3441 -0.5125  1.0171
 5030TIP3    H215055   4.064   5.857   3.390 -1.4868  0.8917  1.2320
 5031TIP3   OH215056   6.375   1.867   2.819 -0.0604 -0.6173 -0.1673
 5031TIP3    H115057   6.317   1.869   2.743  0.0585  0.1979 -0.2453
 5031TIP3    H215058   6.346   1.791   2.869 -0.5086 -0.8311 -0.7386
 5032TIP3   OH215059   1.089   0.714   0.479  0.2898 -0.1789 -0.1794
 5032TIP3    H115060   1.104   0.805   0.452  1.2386  0.1500  1.3333
 5032TIP3    H215061   1.160   0.665   0.439  0.7006  0.0224  0.2904
 5033TIP3   OH215062   5.703   4.026   5.105 -0.5626  0.1280 -0.0016
 5033TIP3    H115063   5.751   4.031   5.022 -0.9478 -0.5167 -0.2629
 5033TIP3    H215064   5.718   4.112   5.146 -0.3190  0.4255 -0.7050
 5034TIP3   OH215065   4.680   3.806   0.307 -0.0665  0.0795 -0.3136
 5034TIP3    H115066   4.625   3.729   0.319  2.4841 -1.8808 -0.5803
 5034TIP3    H215067   4.740   3.804   0.382  0.2342  1.6753 -0.4765
 5035TIP3   OH215068   3.749   5.905   0.371  0.2079  0.8110 -0.5500
 5035TIP3    H115069   3.824   5.916   0.429  0.2276 -0.2131 -0.3588
 5035TIP3    H215070   3.741   5.989   0.326  0.0619  1.7197  1.0741
 5036TIP3   OH215071   6.338   5.176   1.722  0.2935  0.2075 -0.5684
 5036TIP3    H115072   6.389   5.247   1.682 -1.3856 -0.1756 -3.7609
 5036TIP3    H215073   6.404   5.112   1.749  1.6565  1.2168 -1.3571
 5037TIP3   OH215074   2.641   2.016   2.267 -0.6274 -0.1181 -0.1108
 5037TIP3    H115075   2.694   2.088   2.302  1.5030  0.6374 -4.2613
 5037TIP3    H215076   2.561   2.058   2.236 -0.3348  0.1192 -0.5625
 5038TIP3   OH215077   0.022   3.702   0.695  0.4332 -0.3016 -0.1961
 5038TIP3    H115078   0.031   3.630   0.633 -0.3131  0.5088 -1.2824
 5038TIP3    H215079   0.021   3.781   0.640  1.7175  0.5977  0.9906
 5039TIP3   OH215080   3.721   1.079   2.657  0.4946  0.2586 -0.4837
 5039TIP3    H115081   3.766   1.110   2.578  1.6649 -0.7893 -0.2556
 5039TIP3    H215082   3.770   1.118   2.729 -1.1309  1.9821 -0.2182
 5040TIP3   OH215083   1.013   0.049   2.874 -0.2120 -0.1424  0.1410
 5040TIP3    H115084   0.933   0.074   2.828 -0.4325 -0.2731  0.4475
 5040TIP3    H215085   1.065   0.003   2.808 -0.8031 -0.9003  0.1768
 5041TIP3   OH215086   6.911   0.680   0.847 -0.0672  0.0766 -0.2807
 5041TIP3    H115087   6.932   0.761   0.895 -1.4674  0.8216 -0.8594
 5041TIP3    H215088   6.846   0.707   0.783  2.3411 -0.6621 -3.2751
 5042TIP3   OH215089   3.158   5.604   4.939  0.6594  0.5966 -0.3440
 5042TIP3    H115090   3.174   5.678   4.881  2.5687 -2.3792 -4.0739
 5042TIP3    H215091   3.064   5.587   4.932  0.6537  1.0551 -1.6402
 5043TIP3   OH215092   4.863   3.145   2.604 -0.3766  0.2973  0.7004
 5043TIP3    H115093   4.917   3.224   2.594  0.2420 -0.3180 -1.1712
 5043TIP3    H215094   4.782   3.166   2.558 -0.9087  0.4189  1.6526
 5044TIP3   OH215095   2.714   5.017   5.332 -0.4986 -0.6637  0.1340
 5044TIP3    H115096   2.622   4.992   5.334 -0.3340 -1.4131 -0.9990
 5044TIP3    H215097   2.762   4.934   5.331  0.2147 -0.2821  0.9871
 5045TIP3   OH215098   4.130   4.604   2.308  0.1247  0.3039  0.2531
 5045TIP3    H115099   4.224   4.597   2.327  0.0934  0.9990  0.7219
 5045TIP3    H215100   4.108   4.694   2.333 -0.4672  0.4468 -0.7598
 5046TIP3   OH215101   3.627   2.189   1.694  0.3410  0.1319 -0.2030
 5046TIP3    H115102   3.612   2.097   1.715 -3.1670  0.1813 -1.8365
 5046TIP3    H215103   3.668   2.188   1.607 -0.4546  0.0931 -0.5844
 5047TIP3   OH215104   6.557   3.247   1.822  0.0571  0.7246  0.0844
 5047TIP3    H115105   6.616   3.298   1.877  1.9621  0.0365 -1.2054
 5047TIP3    H215106   6.567   3.157   1.852  1.7225  0.2177 -1.7779
 5048TIP3   OH215107   2.048   4.004   5.429 -0.5318 -0.0429  0.1296
 5048TIP3    H115108   2.081   4.040   5.347 -1.4879 -0.2324 -0.3474
 5048TIP3    H215109   1.953   4.010   5.421 -0.6337 -0.0101  1.2473
 5049TIP3   OH215110   4.566   2.795   0.719  0.6836 -0.0049 -0.2871
 5049TIP3    H115111   4.656   2.767   0.703  0.1797 -0.9280 -1.6055
 5049TIP3    H215112   4.575   2.876   0.770  2.2324 -0.5142  0.2889
 5050TIP3   OH215113   5.165   6.228   3.134  0.5020  0.0969 -0.2242
 5050TIP3    H115114   5.213   6.163   3.082 -2.0566 -0.6023 -1.9185
 5050TIP3    H215115   5.201   6.312   3.107  1.3233 -0.4269 -0.8098
 5051TIP3   OH215116   5.065   3.613   5.437  0.5300 -0.0487  0.1026
 5051TIP3    H115117   5.113   3.537   5.472 -1.7801 -0.8013  1.9511
 5051TIP3    H215118   5.019   3.579   5.361  2.4428  0.5744 -1.4273
 5052TIP3   OH215119   6.035   0.174   5.822 -0.0935 -0.2448  0.3127
 5052TIP3    H115120   6.087   0.247   5.855  0.1517 -0.3154  0.0781
 5052TIP3    H215121   6.099   0.109   5.793 -0.3111 -0.2527 -0.1509
 5053TIP3   OH215122   0.528   5.743   1.121 -0.5463 -0.1779  0.1523
 5053TIP3    H115123   0.618   5.739   1.153 -0.8253 -1.3294  0.8676
 5053TIP3    H215124   0.526   5.681   1.048 -0.7217 -0.0207  0.0207
 5054TIP3   OH215125   1.305   0.461   1.318 -0.0951 -0.3778  0.2330
 5054TIP3    H115126   1.268   0.463   1.406 -2.0838 -0.1660 -0.5416
 5054TIP3    H215127   1.387   0.511   1.325 -0.9458  0.9255  1.6578
 5055TIP3   OH215128   5.398   2.946   2.797  0.0477  0.0718  0.0812
 5055TIP3    H115129   5.384   2.943   2.891  1.3020 -0.9009  0.2592
 5055TIP3    H215130   5.311   2.964   2.760 -0.4543  0.4641  1.4056
 5056TIP3   OH215131   5.045   4.290   0.105 -0.0991  0.4558  0.5278
 5056TIP3    H115132   5.092   4.300   0.188  0.6548  3.0835 -0.1313
 5056TIP3    H215133   5.010   4.377   0.087  2.0238  0.7309 -3.1961
 5057TIP3   OH215134   0.621   0.118   5.237 -0.2002 -0.7001 -0.0376
 5057TIP3    H115135   0.667   0.202   5.239 -1.7084  0.2018 -1.1588
 5057TIP3    H215136   0.686   0.054   5.268  0.9452  0.8708  0.9334
 5058TIP3   OH215137   6.139   4.984   1.443  0.0600  0.0828 -0.3639
 5058TIP3    H115138   6.148   5.015   1.353  1.1816 -3.3902 -1.6126
 5058TIP3    H215139   6.218   4.932   1.458 -1.0238 -1.0384  1.9143
 5059TIP3   OH215140   3.024   4.518   1.441  0.3595  0.1811  0.3684
 5059TIP3    H115141   2.972   4.446   1.406 -2.9210  3.8422 -3.4592
 5059TIP3    H215142   2.982   4.539   1.525 -0.5762 -0.5426  0.0950
 5060TIP3   OH215143   6.584   2.504   4.045 -0.0166  0.5067 -0.0544
 5060TIP3    H115144   6.608   2.411   4.047 -1.1904  0.1821 -0.3244
 5060TIP3    H215145   6.660   2.547   4.005  0.6839 -0.2757  0.3851
 5061TIP3   OH215146   5.684   6.789   2.331 -0.1276  0.2033 -0.5036
 5061TIP3    H115147   5.627   6.720   2.365  0.5750 -0.5312 -0.7566
 5061TIP3    H215148   5.626   6.864   2.317 -1.2465 -0.8153 -1.6716
 5062TIP3   OH215149   5.804   0.920   4.247 -0.1007  0.4093  0.2053
 5062TIP3    H115150   5.894   0.945   4.229  1.1083 -2.1382  2.0555
 5062TIP3    H215151   5.785   0.956   4.333 -0.8932  0.9653 -0.1894
 5063TIP3   OH215152   0.527   0.835   2.815  0.1123  0.2120 -0.0951
 5063TIP3    H115153   0.499   0.747   2.790 -1.3659  1.0623 -1.6153
 5063TIP3    H215154   0.480   0.852   2.897 -0.2265 -0.1177 -0.2175
 5064TIP3   OH215155   3.500   0.987   5.602 -0.8268  0.3195 -0.3013
 5064TIP3    H115156   3.473   0.902   5.638  0.2986 -0.5150 -1.3264
 5064TIP3    H215157   3.565   1.020   5.665  0.4871 -0.7234 -1.0435
 5065TIP3   OH215158   0.598   3.815   3.107 -0.0960 -0.1538  0.0113
 5065TIP3    H115159   0.619   3.848   3.020 -0.1591 -0.2251 -0.0317
 5065TIP3    H215160   0.655   3.739   3.118  0.0965  0.0076  0.1362
 5066TIP3   OH215161   6.410   2.767   2.987  0.1850  0.4401 -0.2217
 5066TIP3    H115162   6.455   2.818   3.055  0.2962 -1.7252  1.4291
 5066TIP3    H215163   6.466   2.691   2.973 -1.9956 -1.4051  0.5344
 5067TIP3   OH215164   3.160   1.409   3.574 -0.5669 -0.0337  0.4716
 5067TIP3    H115165   3.094   1.476   3.557 -2.8429 -1.8997  1.5093
 5067TIP3    H215166   3.217   1.448   3.641 -1.3091  1.1810  0.4208
 5068TIP3   OH215167   6.142   1.523   0.365  0.3786 -0.2693 -0.0552
 5068TIP3    H115168   6.111   1.584   0.299  0.5512  0.6614  0.7037
 5068TIP3    H215169   6.151   1.576   0.444 -0.7154 -1.5358  0.9567
 5069TIP3   OH215170   0.790   2.528   3.236 -0.1095  0.0964  0.3519
 5069TIP3    H115171   0.880   2.559   3.225 -0.6812  1.5432 -0.4344
 5069TIP3    H215172   0.762   2.503   3.148 -1.5562  2.8069 -0.0485
 5070TIP3   OH215173   3.206   5.721  -0.004 -0.6513 -0.8306 -0.2271
 5070TIP3    H115174   3.245   5.651   0.048 -2.6879 -2.6366 -1.0075
 5070TIP3    H215175   3.120   5.735   0.035 -0.2117  1.5299  0.0903
 5071TIP3   OH215176   0.342   1.992   1.622  0.3505  0.2642 -0.3426
 5071TIP3    H115177   0.351   2.075   1.668  0.4694 -0.0650  0.2371
 5071TIP3    H215178   0.253   1.962   1.643  1.2454 -1.1526  1.8757
 5072TIP3   OH215179   1.751   0.876   0.837 -0.0084 -0.1667  0.1793
 5072TIP3    H115180   1.829   0.876   0.892 -0.9359 -0.7862  1.5388
 5072TIP3    H215181   1.690   0.934   0.882 -0.9145 -0.9634  0.0104
 5073TIP3   OH215182   3.495   5.503   4.261 -0.4963  0.3425 -0.2350
 5073TIP3    H115183   3.588   5.484   4.270 -0.5562  0.8722  2.7448
 5073TIP3    H215184   3.483   5.587   4.305 -2.2943  0.6336 -1.1871
 5074TIP3   OH215185   3.569   1.681   4.083  0.1343 -0.3472  0.5992
 5074TIP3    H115186   3.585   1.771   4.056 -0.2911 -0.0359  1.3627
 5074TIP3    H215187   3.491   1.686   4.139  0.1691 -1.1739  0.7389
 5075TIP3   OH215188   0.478   2.071   5.653 -0.1265 -0.2544 -0.0612
 5075TIP3    H115189   0.548   2.034   5.707 -2.2544 -1.7567  1.8497
 5075TIP3    H215190   0.477   2.164   5.675  1.8042 -0.0187 -0.8092
 5076TIP3   OH215191   0.589   1.997   4.175  0.3435 -0.5566  0.0161
 5076TIP3    H115192   0.560   2.050   4.100 -1.1126  0.0277  0.9460
 5076TIP3    H215193   0.646   1.931   4.136 -0.1475 -0.1001 -1.5774
 5077TIP3   OH215194   2.993   2.371   0.937 -0.6527  0.6252  0.6928
 5077TIP3    H115195   3.019   2.279   0.949  0.1720  1.1851  4.1710
 5077TIP3    H215196   3.071   2.413   0.900 -0.9113  0.0618 -0.5652
 5078TIP3   OH215197   4.613   1.999   5.824 -0.0568 -0.5443 -0.0444
 5078TIP3    H115198   4.663   1.934   5.775 -1.9202 -2.2090  0.1453
 5078TIP3    H215199   4.659   2.008   5.907 -1.9664 -4.9961  1.7767
 5079TIP3   OH215200   5.493   6.670   0.964 -1.0192  0.1879 -0.6749
 5079TIP3    H115201   5.407   6.673   0.922 -1.3983 -1.6178 -0.1305
 5079TIP3    H215202   5.497   6.749   1.017 -2.6463 -0.0310 -0.1757
 5080TIP3   OH215203   4.892   2.621   1.407 -0.6152  0.4588  0.3404
 5080TIP3    H115204   4.955   2.687   1.437 -0.9706  0.5980  0.7881
 5080TIP3    H215205   4.813   2.637   1.459 -0.6537 -0.4311  0.5801
 5081TIP3   OH215206   0.382   0.751   3.945  0.2396  0.0879 -0.5716
 5081TIP3    H115207   0.435   0.674   3.966 -0.5648 -0.7803 -1.5718
 5081TIP3    H215208   0.431   0.825   3.980  1.2175 -0.8480  0.0872
 5082TIP3   OH215209   0.060   0.719   2.176  0.0975  0.4549  0.0559
 5082TIP3    H115210   0.122   0.698   2.107  0.5675  0.1961  0.5491
 5082TIP3    H215211  -0.026   0.711   2.134  0.2829 -1.5400 -0.0348
 5083TIP3   OH215212   3.049   0.932   0.588 -0.5762 -0.8412 -0.4462
 5083TIP3    H115213   3.136   0.908   0.557 -0.3320 -1.4483  0.6739
 5083TIP3    H215214   3.064   0.987   0.665 -1.1597 -1.7095  0.3142
 5084TIP3   OH215215   1.710   1.352   1.445 -0.0792 -0.6142 -0.1435
 5084TIP3    H115216   1.667   1.438   1.448 -0.2967 -0.7373  0.2474
 5084TIP3    H215217   1.779   1.363   1.379  0.0930 -0.0484  0.1225
 5085TIP3   OH215218   4.239   6.640   0.060  0.4788  0.1068 -0.8765
 5085TIP3    H115219   4.148   6.634   0.032  0.7435  0.2207 -1.7887
 5085TIP3    H215220   4.286   6.668  -0.018  1.6402 -2.2111 -1.0927
 5086TIP3   OH215221   0.306   2.590   1.900  0.4674  0.2977 -0.3747
 5086TIP3    H115222   0.357   2.653   1.849  0.7697 -0.1672 -0.6556
 5086TIP3    H215223   0.308   2.623   1.989 -0.5698  1.4518 -0.7508
 5087TIP3   OH215224   0.943   4.124   4.270  0.8129 -0.1195  0.5965
 5087TIP3    H115225   0.941   4.057   4.202  1.2797 -0.3254  0.7810
 5087TIP3    H215226   1.004   4.191   4.237 -0.0908  0.5000  0.1547
 5088TIP3   OH215227   3.229   1.839   1.421 -0.1186  0.4105 -0.1615
 5088TIP3    H115228   3.230   1.931   1.447  0.9104 -0.6012  4.0964
 5088TIP3    H215229   3.138   1.822   1.396 -1.3219  1.8091  2.7780
 5089TIP3   OH215230  -0.018   0.424   3.912  0.4104 -0.0178  0.8332
 5089TIP3    H115231   0.025   0.505   3.884 -0.7215  0.5968  0.8173
 5089TIP3    H215232   0.026   0.355   3.861  0.4709  0.7389 -0.1769
 5090TIP3   OH215233   1.688   0.919   3.764 -0.3718  0.4385 -0.8738
 5090TIP3    H115234   1.637   0.886   3.838  0.3143  0.4509 -0.3910
 5090TIP3    H215235   1.698   1.013   3.782  0.7884  0.2288 -0.3785
 5091TIP3   OH215236   3.195   4.918   3.060  0.0914 -0.3647 -0.6534
 5091TIP3    H115237   3.153   4.953   2.981  0.0083  2.4066  0.5061
 5091TIP3    H215238   3.266   4.980   3.079  0.2309 -1.0635  1.3311
 5092TIP3   OH215239   3.133   2.825   0.497 -0.1299 -0.0446  0.3046
 5092TIP3    H115240   3.086   2.863   0.571  0.0228 -0.5505  0.6667
 5092TIP3    H215241   3.072   2.761   0.460  0.3174 -0.8286  0.8827
 5093TIP3   OH215242   6.910   3.017   5.770  0.1169  0.6760 -0.4042
 5093TIP3    H115243   6.918   2.921   5.773 -1.1876  0.5567 -0.1198
 5093TIP3    H215244   6.983   3.045   5.715  0.7631 -0.4497 -0.1479
 5094TIP3   OH215245   3.419   5.114   4.828  0.7823  0.0960 -0.4505
 5094TIP3    H115246   3.488   5.048   4.835  1.1475  0.5578  0.4099
 5094TIP3    H215247   3.345   5.066   4.791  1.1500 -0.7267 -0.1577
 5095TIP3   OH215248   2.399   3.702   4.885  0.6578  0.0068  0.2211
 5095TIP3    H115249   2.425   3.750   4.963  2.1307  0.5603 -0.5673
 5095TIP3    H215250   2.466   3.635   4.874  1.5187  1.0988 -1.5547
 5096TIP3   OH215251   2.890   0.122   3.567  0.3261 -0.2829  0.0823
 5096TIP3    H115252   2.915   0.031   3.579  0.2564 -0.2693  0.3421
 5096TIP3    H215253   2.901   0.162   3.653  0.1657 -0.0937  0.0178
 5097TIP3   OH215254   6.204   2.605   3.759  0.3994 -0.5101  0.0980
 5097TIP3    H115255   6.293   2.583   3.730  0.2898  1.6709 -2.1794
 5097TIP3    H215256   6.151   2.530   3.731  1.0641 -0.4832 -1.3489
 5098TIP3   OH215257   7.050   6.645   5.654  0.3504  0.2862 -0.6037
 5098TIP3    H115258   7.059   6.733   5.691 -0.9383 -0.0590  0.5890
 5098TIP3    H215259   7.133   6.630   5.609  0.1130  2.6038 -1.9416
 5099TIP3   OH215260   2.749   0.696   1.041  0.4363  0.1685 -0.6951
 5099TIP3    H115261   2.834   0.729   1.071  0.1257  1.3899 -1.0992
 5099TIP3    H215262   2.746   0.719   0.948 -0.3490  0.1575 -0.6781
 5100TIP3   OH215263   3.425   5.368   2.354  0.4936 -0.5447  0.0785
 5100TIP3    H115264   3.433   5.330   2.266 -0.2993 -2.3717  0.7436
 5100TIP3    H215265   3.404   5.294   2.410 -3.6818  1.1213  1.0984
 5101TIP3   OH215266   0.329   3.318   1.993  0.1389 -0.1683 -0.0581
 5101TIP3    H115267   0.290   3.393   2.038 -0.1485 -1.0363  1.2257
 5101TIP3    H215268   0.253   3.264   1.968  0.2765  0.4538 -1.9271
 5102TIP3   OH215269   3.682   0.255   2.278 -0.1695 -0.3924  0.4263
 5102TIP3    H115270   3.599   0.287   2.315 -0.5761 -0.4076 -0.4434
 5102TIP3    H215271   3.665   0.163   2.259 -0.1878 -0.2278 -0.3874
 5103TIP3   OH215272   6.099   5.571   3.144 -0.4498 -0.1284 -0.3529
 5103TIP3    H115273   6.087   5.605   3.055 -0.8611  0.8359  0.0633
 5103TIP3    H215274   6.156   5.635   3.187 -0.0364 -0.7235  0.0097
 5104TIP3   OH215275   6.901   4.954   1.871  0.4432  0.1051 -0.4203
 5104TIP3    H115276   6.875   4.878   1.818 -2.0961  2.3982 -2.7330
 5104TIP3    H215277   6.821   4.979   1.918  0.8317  2.0945 -0.7323
 5105TIP3   OH215278   7.047   4.149   3.669  0.2171 -0.0869  0.4273
 5105TIP3    H115279   7.088   4.157   3.755 -0.9686 -1.6927  1.1774
 5105TIP3    H215280   6.975   4.213   3.671 -0.2816 -0.6482  0.9421
 5106TIP3   OH215281   4.489   6.457   1.191  0.4892  0.3522 -0.3869
 5106TIP3    H115282   4.494   6.519   1.263  0.8680 -0.8425  0.6473
 5106TIP3    H215283   4.564   6.398   1.203  0.1582 -0.3004 -1.3381
 5107TIP3   OH215284   2.233   5.023   3.783  0.0068 -0.3476  0.0372
 5107TIP3    H115285   2.306   4.972   3.746 -1.4313 -2.6581  0.1443
 5107TIP3    H215286   2.202   5.077   3.710  0.7398 -0.6326 -0.5014
 5108TIP3   OH215287   5.401   0.664   0.700  0.3947  0.0204 -0.4735
 5108TIP3    H115288   5.328   0.663   0.638  0.0591 -1.6888 -0.1036
 5108TIP3    H215289   5.387   0.744   0.751 -1.1661 -0.1975 -0.5000
 5109TIP3   OH215290   3.708   0.610   3.190 -0.0717 -0.5034  0.1524
 5109TIP3    H115291   3.725   0.587   3.099 -2.2818 -0.4527 -0.3372
 5109TIP3    H215292   3.762   0.687   3.207  0.7232 -0.8082 -0.9530
 5110TIP3   OH215293   1.116   4.505   1.970 -0.1123  0.5201 -0.7169
 5110TIP3    H115294   1.060   4.505   2.048 -0.8227  0.9611 -1.2137
 5110TIP3    H215295   1.184   4.441   1.989 -2.3785 -2.2338 -1.2337
 5111TIP3   OH215296   2.723   1.916   0.356  0.0437  0.2705 -0.9024
 5111TIP3    H115297   2.795   1.971   0.328 -1.0027  1.4371 -1.3676
 5111TIP3    H215298   2.722   1.844   0.293 -0.5696  1.4250 -2.2616
 5112TIP3   OH215299   1.810   6.705   0.851  0.0376  0.8870  0.0243
 5112TIP3    H115300   1.879   6.730   0.913  0.9099  0.3694 -0.7096
 5112TIP3    H215301   1.827   6.613   0.833 -0.6564  0.8449 -0.4260
 5113TIP3   OH215302   5.540   6.590   2.458 -0.3686  0.4274 -0.2421
 5113TIP3    H115303   5.606   6.591   2.527 -0.4058  1.1560 -0.2152
 5113TIP3    H215304   5.470   6.647   2.491 -0.2404  1.0496 -1.0268
 5114TIP3   OH215305   6.025   5.009   3.619  0.1454  0.0308 -0.2359
 5114TIP3    H115306   5.992   5.077   3.677 -0.6654  0.2566 -0.9404
 5114TIP3    H215307   6.118   5.004   3.639  0.0011  0.5388  0.6333
 5115TIP3   OH215308   4.664   5.259   3.083 -0.1962 -0.5757  0.0234
 5115TIP3    H115309   4.613   5.206   3.022  0.0893 -1.2032  0.3226
 5115TIP3    H215310   4.715   5.318   3.027 -0.1841 -0.9217 -0.3349
 5116TIP3   OH215311   1.626   2.107   1.418  0.4500  0.6831 -0.1661
 5116TIP3    H115312   1.654   2.144   1.501 -0.2971  1.2501 -0.1597
 5116TIP3    H215313   1.665   2.164   1.352 -0.1015  1.0626 -0.1704
 5117TIP3   OH215314   1.829   5.530   1.871 -0.2058 -0.1929 -0.0492
 5117TIP3    H115315   1.913   5.534   1.916 -1.2485  0.0668  2.0059
 5117TIP3    H215316   1.814   5.618   1.838 -0.6268  0.3321  1.4860
 5118TIP3   OH215317   6.897   0.386   2.273  0.1325 -0.3034  0.6165
 5118TIP3    H115318   6.899   0.405   2.367  1.0602  2.3528  0.1499
 5118TIP3    H215319   6.804   0.394   2.249 -0.2256 -1.7793  1.3913
 5119TIP3   OH215320   1.256   4.028   0.690 -0.3201  0.2299  0.2902
 5119TIP3    H115321   1.166   4.027   0.723 -0.1321  2.6830  1.0619
 5119TIP3    H215322   1.293   4.110   0.722  1.2743  0.7472 -2.4852
 5120TIP3   OH215323   6.035   1.743   4.352  0.3337  0.0875 -0.0858
 5120TIP3    H115324   5.961   1.701   4.308  0.2798 -0.6612  0.7064
 5120TIP3    H215325   6.001   1.829   4.378 -0.5537 -0.5912  1.0676
 5121TIP3   OH215326   2.873   0.352   4.627  0.7114  0.6330 -0.2315
 5121TIP3    H115327   2.778   0.354   4.623  0.7563  1.7717 -1.6193
 5121TIP3    H215328   2.893   0.306   4.709 -1.0097  0.1306 -0.0541
 5122TIP3   OH215329   5.056   4.208   4.093 -0.8615 -0.4418  0.1877
 5122TIP3    H115330   4.969   4.237   4.122 -0.4345  0.9128  0.1892
 5122TIP3    H215331   5.115   4.235   4.163 -0.2169  0.2306 -0.5963
 5123TIP3   OH215332   5.728   4.474   4.053  0.2388  0.0364 -0.7008
 5123TIP3    H115333   5.674   4.410   4.099  0.9794  0.0701  0.2296
 5123TIP3    H215334   5.817   4.441   4.060  0.3597 -0.0996 -2.3574
 5124TIP3   OH215335   5.164   1.632   5.474  0.5561 -0.2875 -0.2564
 5124TIP3    H115336   5.146   1.680   5.394  2.0171  0.9001  0.0847
 5124TIP3    H215337   5.252   1.596   5.462  0.4885 -0.7412  0.5008
 5125TIP3   OH215338   0.908   6.766   2.422  0.6884 -0.1068 -0.2407
 5125TIP3    H115339   0.822   6.724   2.414  2.1119 -3.7830  1.4734
 5125TIP3    H215340   0.944   6.764   2.333  0.4328 -2.1608 -0.3571
 5126TIP3   OH215341   3.847   5.810   2.033 -0.0108  0.0028  0.1186
 5126TIP3    H115342   3.814   5.818   2.123  0.5204 -0.7475  0.3935
 5126TIP3    H215343   3.770   5.825   1.978 -1.4787 -3.8498  0.7400
 5127TIP3   OH215344   5.383   1.417   2.106 -0.3593 -0.4625  0.0738
 5127TIP3    H115345   5.444   1.482   2.139 -0.0292 -0.6367 -0.1836
 5127TIP3    H215346   5.425   1.333   2.126 -0.5563 -0.5840 -0.0222
 5128TIP3   OH215347   1.484   5.125   0.836 -0.6570  0.4871 -0.1187
 5128TIP3    H115348   1.485   5.206   0.784  0.5458  0.6728  0.1769
 5128TIP3    H215349   1.575   5.097   0.840 -0.9315 -0.3643  0.6151
 5129TIP3   OH215350   0.214   3.104   4.778  0.6022 -0.3207 -0.0154
 5129TIP3    H115351   0.285   3.080   4.718  2.5058 -1.0520  2.4126
 5129TIP3    H215352   0.257   3.150   4.850 -1.8790  2.5260 -0.1234
 5130TIP3   OH215353   5.706   0.670   3.495 -0.4056 -0.1122 -0.1127
 5130TIP3    H115354   5.676   0.584   3.465  0.9449 -1.4553  2.1542
 5130TIP3    H215355   5.799   0.673   3.471 -0.4715  0.7827 -0.2846
 5131TIP3   OH215356   1.996   4.612   4.509 -0.1291 -0.2601 -0.0583
 5131TIP3    H115357   2.000   4.526   4.466 -0.9854  0.0804 -0.8695
 5131TIP3    H215358   1.906   4.641   4.495 -0.1906  0.2399  1.2754
 5132TIP3   OH215359   3.679   5.868   1.707 -0.0614  0.1618 -0.0119
 5132TIP3    H115360   3.644   5.956   1.718  0.1691  0.1203  1.1619
 5132TIP3    H215361   3.704   5.863   1.614 -1.5381  0.7668 -0.4613
 5133TIP3   OH215362   4.489   2.047   3.364  0.7753  0.3331 -0.0519
 5133TIP3    H115363   4.413   2.105   3.358 -1.1476 -1.9059  1.1873
 5133TIP3    H215364   4.500   2.031   3.457  1.9561 -0.4735 -0.3024
 5134TIP3   OH215365   4.249   3.132   5.324  0.2587  0.2388 -0.1693
 5134TIP3    H115366   4.202   3.056   5.358  0.8932 -0.4590 -0.7926
 5134TIP3    H215367   4.181   3.190   5.291 -0.2428 -0.0007  0.4390
 5135TIP3   OH215368   1.686   6.057   2.385 -0.0091 -0.5121 -0.6097
 5135TIP3    H115369   1.689   6.012   2.469 -0.7876  0.5956  0.0250
 5135TIP3    H215370   1.638   5.997   2.328 -0.8325 -0.5948  0.1616
 5136TIP3   OH215371   1.016   5.190   1.696  0.2993  0.2489 -0.3452
 5136TIP3    H115372   1.073   5.246   1.748 -0.5537 -1.3842  2.5949
 5136TIP3    H215373   0.971   5.250   1.636  1.7075  2.1799  0.4396
 5137TIP3   OH215374   1.979   4.325   3.661 -0.3753  0.2692 -0.4876
 5137TIP3    H115375   1.898   4.290   3.625  0.2923 -2.2853  0.2705
 5137TIP3    H215376   1.965   4.419   3.666 -2.0371  0.3150 -3.4556
 5138TIP3   OH215377   0.424   0.196   1.911  0.0328 -0.0024  0.0844
 5138TIP3    H115378   0.392   0.116   1.952 -1.4265 -0.5465 -1.9450
 5138TIP3    H215379   0.360   0.263   1.936  0.8701  0.4071  1.2071
 5139TIP3   OH215380   2.060   5.034   1.616  0.8664  0.2222  0.2980
 5139TIP3    H115381   2.037   5.096   1.547  0.4763  1.2034  1.2771
 5139TIP3    H215382   2.133   5.074   1.662  0.3388  0.1788  1.2097
 5140TIP3   OH215383   4.019   4.083   1.572 -0.5366 -0.3512  0.0555
 5140TIP3    H115384   3.928   4.054   1.582 -1.0821  0.7365 -1.3812
 5140TIP3    H215385   4.020   4.130   1.489  1.1859  0.3335  0.4209
 5141TIP3   OH215386   4.385   3.973   1.506 -0.3368  1.1690  0.3260
 5141TIP3    H115387   4.311   3.914   1.513 -0.6550  1.4716 -0.4081
 5141TIP3    H215388   4.433   3.961   1.588 -0.5652  0.1334  0.3224
 5142TIP3   OH215389   6.891   6.127   2.280  0.7853 -0.1695 -0.0456
 5142TIP3    H115390   6.845   6.211   2.283  0.8082 -0.1477 -0.2330
 5142TIP3    H215391   6.827   6.065   2.245  0.8852 -0.1466 -0.2726
 5143TIP3   OH215392   1.101   1.043   2.497 -0.7474 -0.4141  0.1563
 5143TIP3    H115393   1.020   1.067   2.453 -0.8230 -1.6758 -0.4500
 5143TIP3    H215394   1.109   1.105   2.569 -1.6304  0.4719 -0.4854
 5144TIP3   OH215395   2.242   5.111   3.076 -0.3379  0.5152  0.7063
 5144TIP3    H115396   2.224   5.205   3.072 -0.7583  0.5025  1.9306
 5144TIP3    H215397   2.275   5.096   3.164  0.4518 -0.3774  0.2763
 5145TIP3   OH215398   0.251   3.392   4.448  0.3513 -0.4028  0.3829
 5145TIP3    H115399   0.278   3.402   4.357  0.9313  0.6923  0.6512
 5145TIP3    H215400   0.284   3.471   4.492 -1.4405 -0.0360  1.1883
 5146TIP3   OH215401   6.510   4.348   3.452  0.4060  0.3015 -0.1250
 5146TIP3    H115402   6.507   4.308   3.365 -0.0774  0.9989 -0.4339
 5146TIP3    H215403   6.544   4.278   3.508  1.2979  0.0252 -0.9668
 5147TIP3   OH215404   3.538   6.390   1.056 -0.1906  0.3024  0.2949
 5147TIP3    H115405   3.569   6.397   0.965 -2.5698 -1.9076 -0.8351
 5147TIP3    H215406   3.497   6.474   1.074 -2.6425 -0.2559 -2.0213
 5148TIP3   OH215407   2.436   4.526   1.592  0.1969  0.1620  0.7140
 5148TIP3    H115408   2.404   4.449   1.639  1.1362 -0.5663  0.1986
 5148TIP3    H215409   2.515   4.496   1.548  0.2390  1.2652 -0.0056
 5149TIP3   OH215410   5.499   3.888   4.671 -0.5909 -0.0220  0.5448
 5149TIP3    H115411   5.420   3.937   4.693 -0.7503 -0.7225  1.6643
 5149TIP3    H215412   5.512   3.828   4.746  1.0263  0.1113  0.4238
 5150TIP3   OH215413   2.678   3.558   5.076 -0.8373  0.1317 -0.0529
 5150TIP3    H115414   2.645   3.605   5.153  1.2757  1.5596  0.0493
 5150TIP3    H215415   2.645   3.609   5.002 -0.6296  0.3286 -0.0113
 5151TIP3   OH215416   0.382   2.373   3.136 -0.1966 -0.6500 -0.1423
 5151TIP3    H115417   0.466   2.413   3.112  1.1244 -2.2584  1.5025
 5151TIP3    H215418   0.387   2.284   3.101 -2.5196  0.0432 -2.5848
 5152TIP3   OH215419   2.260   1.010   2.552  0.2067 -0.5863  0.1781
 5152TIP3    H115420   2.180   0.964   2.579 -0.9607  0.9176 -0.5838
 5152TIP3    H215421   2.274   0.981   2.462  0.8021 -1.1980  0.4602
 5153TIP3   OH215422   5.988   5.225   2.763 -0.3450  0.2138  0.1208
 5153TIP3    H115423   5.976   5.289   2.693  0.4765  1.1312  0.7975
 5153TIP3    H215424   6.083   5.221   2.776 -0.3132 -1.7582 -0.4574
 5154TIP3   OH215425   2.705   4.017   1.725  0.4417 -0.0451 -0.3586
 5154TIP3    H115426   2.737   3.963   1.797  1.2231  1.5216  0.5121
 5154TIP3    H215427   2.766   4.000   1.653 -0.2870 -1.5394 -0.6737
 5155TIP3   OH215428   5.846   4.336   4.599 -0.8615  0.0052 -0.3068
 5155TIP3    H115429   5.759   4.319   4.636 -0.1902 -1.2169  0.8135
 5155TIP3    H215430   5.889   4.250   4.601  0.4150  0.6199 -0.7180
 5156TIP3   OH215431   0.637   5.827   0.558  0.4824 -0.1685 -0.3940
 5156TIP3    H115432   0.640   5.904   0.501  0.8249 -1.6971 -2.5547
 5156TIP3    H215433   0.622   5.863   0.645  1.0009  2.3632 -1.2544
 5157TIP3   OH215434   5.981   5.745   2.615 -0.1311 -1.0878 -0.3841
 5157TIP3    H115435   5.926   5.788   2.681 -0.9813 -1.0989 -1.0693
 5157TIP3    H215436   5.927   5.743   2.536  0.9664 -0.8354 -1.1673
 5158TIP3   OH215437   3.388   0.503   3.537  0.8081 -0.3426 -0.2625
 5158TIP3    H115438   3.471   0.502   3.488  0.0299 -0.6447 -1.6322
 5158TIP3    H215439   3.368   0.596   3.547  2.1528 -0.2085  1.6161
 5159TIP3   OH215440   3.919   5.408   5.593  0.6675  0.7653  0.0802
 5159TIP3    H115441   3.988   5.451   5.644  0.6423  0.9774 -0.0651
 5159TIP3    H215442   3.838   5.425   5.642  0.3590  2.4924 -0.9183
 5160TIP3   OH215443   3.796   4.550   2.089 -0.0307 -0.7270 -0.3396
 5160TIP3    H115444   3.777   4.643   2.079  2.2356 -0.2278 -0.5610
 5160TIP3    H215445   3.806   4.537   2.183 -0.4220 -0.7824 -0.3027
 5161TIP3   OH215446   5.816   1.414   5.773  0.1722 -0.1540 -0.3689
 5161TIP3    H115447   5.857   1.331   5.746 -0.9814 -0.4842 -1.1636
 5161TIP3    H215448   5.858   1.480   5.719  1.0769 -0.2074  0.2424
 5162TIP3   OH215449   4.531   6.439   1.586  0.6984 -0.5883  0.0663
 5162TIP3    H115450   4.499   6.509   1.643 -0.2117 -0.4408 -0.6087
 5162TIP3    H215451   4.476   6.363   1.607  0.9982 -0.8119  0.0580
 5163TIP3   OH215452   6.128   6.402   3.390 -0.4067  0.0065 -0.3898
 5163TIP3    H115453   6.190   6.447   3.447  0.6725 -2.0537  0.1418
 5163TIP3    H215454   6.043   6.441   3.412  0.5979  2.9039 -1.1595
 5164TIP3   OH215455   4.823   2.210   0.785 -0.3216  0.0077  0.4024
 5164TIP3    H115456   4.872   2.241   0.861 -0.4895 -1.0193  0.9483
 5164TIP3    H215457   4.732   2.214   0.812 -0.6673  2.5306 -0.8360
 5165TIP3   OH215458   0.098   2.322   5.696 -0.1462  0.3858 -0.0619
 5165TIP3    H115459   0.154   2.395   5.720 -1.1336  1.0859  0.1590
 5165TIP3    H215460   0.019   2.363   5.661 -0.5166 -0.5810 -0.3912
 5166TIP3   OH215461   5.583   3.160   4.520 -0.0804  0.4106  0.0497
 5166TIP3    H115462   5.506   3.126   4.476 -0.9300  0.4784  1.4273
 5166TIP3    H215463   5.578   3.255   4.507 -0.9407  0.5437  1.1837
 5167TIP3   OH215464   3.501   2.651   2.893  0.7401  0.0938  0.1399
 5167TIP3    H115465   3.534   2.586   2.954  0.4401 -0.4377 -0.2562
 5167TIP3    H215466   3.436   2.604   2.840  1.0266  0.5281 -0.6158
 5168TIP3   OH215467   5.411   5.056   1.339  0.2842  0.4060  0.3040
 5168TIP3    H115468   5.361   5.136   1.324 -0.9227 -0.3249  0.2607
 5168TIP3    H215469   5.356   5.004   1.397  0.1040 -1.2241 -1.2304
 5169TIP3   OH215470   4.299   1.423   1.646 -0.2661  0.0204  0.2504
 5169TIP3    H115471   4.383   1.465   1.663  0.5219 -1.7749  1.0748
 5169TIP3    H215472   4.318   1.357   1.579 -1.1420 -0.0089  0.0146
 5170TIP3   OH215473   3.387   4.327   4.307  0.2663 -0.3219 -0.2656
 5170TIP3    H115474   3.466   4.362   4.265  0.0045  1.1531  0.4200
 5170TIP3    H215475   3.421   4.261   4.368  1.3016  2.0205  1.8806
 5171TIP3   OH215476   4.310   3.446   4.371  0.0674  0.1979 -0.5709
 5171TIP3    H115477   4.289   3.364   4.325 -0.3511 -1.0042  1.6413
 5171TIP3    H215478   4.382   3.423   4.429 -1.1455  0.9135  1.3100
 5172TIP3   OH215479   1.918   6.305   1.361  0.1130  0.6643 -0.7027
 5172TIP3    H115480   2.012   6.301   1.379 -0.3091  0.2399  1.7185
 5172TIP3    H215481   1.895   6.215   1.338 -0.1600  0.1164  1.5492
 5173TIP3   OH215482   5.402   1.724   0.038 -0.2731  0.6669 -0.3228
 5173TIP3    H115483   5.419   1.631   0.020 -0.8001  0.4480  0.2310
 5173TIP3    H215484   5.357   1.723   0.123  2.2979  1.6450  1.1466
 5174TIP3   OH215485   2.059   5.083   2.198  0.7088 -0.1171  0.4488
 5174TIP3    H115486   2.033   4.992   2.210 -0.3202  0.1676  0.4704
 5174TIP3    H215487   2.004   5.132   2.259  1.9934  0.4308  1.2062
 5175TIP3   OH215488   0.840   5.800   2.417  0.2144 -0.7766  0.1929
 5175TIP3    H115489   0.809   5.795   2.326  0.5402 -0.4963  0.0623
 5175TIP3    H215490   0.891   5.721   2.429  0.1480 -0.8279  0.1402
 5176TIP3   OH215491   1.720   3.884   2.449  0.1184  0.0352 -0.0262
 5176TIP3    H115492   1.779   3.928   2.510  0.0070  0.8602 -0.5034
 5176TIP3    H215493   1.730   3.932   2.367 -0.2901 -0.5984 -0.4553
 5177TIP3   OH215494   3.142   1.223   2.005 -0.2191  0.1438 -0.1480
 5177TIP3    H115495   3.097   1.201   2.086 -0.1248 -0.3865 -0.2395
 5177TIP3    H215496   3.211   1.158   1.997  0.0058  0.4173 -0.4654
 5178TIP3   OH215497   3.179   4.513   2.399 -0.6470 -0.3843 -0.1901
 5178TIP3    H115498   3.113   4.445   2.389 -0.1073 -0.8204 -0.9171
 5178TIP3    H215499   3.212   4.502   2.488 -1.7355  0.0235  0.2837
 5179TIP3   OH215500   2.898   6.449   2.301  0.2267  0.1578  0.2671
 5179TIP3    H115501   2.937   6.364   2.320  0.9794  0.0959 -1.3654
 5179TIP3    H215502   2.880   6.446   2.207 -3.2926  0.3879  0.7960
 5180TIP3   OH215503   1.694   2.358   1.531  0.2968 -0.3462  0.0703
 5180TIP3    H115504   1.608   2.385   1.501  0.6507  1.4948  0.5435
 5180TIP3    H215505   1.683   2.339   1.624  0.3642 -0.3177  0.0845
 5181TIP3   OH215506   5.443   0.001   3.462  0.2551 -0.2549  0.0334
 5181TIP3    H115507   5.524   0.043   3.489  0.7864 -1.5297  0.5166
 5181TIP3    H215508   5.375   0.068   3.475  1.0115  0.3254  1.1139
 5182TIP3   OH215509   4.637   2.817   1.384  0.0474  0.0648 -0.0816
 5182TIP3    H115510   4.577   2.758   1.339  1.1447 -0.8889 -0.3565
 5182TIP3    H215511   4.642   2.783   1.473 -0.5519  0.7289  0.2161
 5183TIP3   OH215512   1.536   1.657   5.734  0.9491  0.7395 -0.2909
 5183TIP3    H115513   1.466   1.722   5.741 -0.0240 -0.3837  0.7344
 5183TIP3    H215514   1.614   1.709   5.711 -0.2156  1.9860 -1.6212
 5184TIP3   OH215515   4.500   0.818   5.390  0.0307 -0.2970 -0.6095
 5184TIP3    H115516   4.447   0.816   5.470 -0.9536  2.0193 -1.1057
 5184TIP3    H215517   4.591   0.816   5.421 -0.3255 -1.1792  0.4443
 5185TIP3   OH215518   3.481   1.201   2.733  0.4830 -0.8115 -0.3358
 5185TIP3    H115519   3.466   1.278   2.677  0.7453 -0.6651 -0.2084
 5185TIP3    H215520   3.550   1.153   2.688  1.3871 -0.1872  0.3576
 5186TIP3   OH215521   6.176   4.735   0.170  0.1544  0.0709  0.2766
 5186TIP3    H115522   6.108   4.678   0.134  0.8552 -0.4596 -0.2353
 5186TIP3    H215523   6.215   4.683   0.240  1.0873 -0.2617 -0.4794
 5187TIP3   OH215524   0.503   1.387   4.382  0.2109 -0.2320  0.4476
 5187TIP3    H115525   0.542   1.319   4.327 -1.2605 -0.3605 -0.4915
 5187TIP3    H215526   0.536   1.469   4.346  2.1330 -0.3787  1.6902
 5188TIP3   OH215527   2.825   5.874   2.263 -0.0276  0.0282 -0.1089
 5188TIP3    H115528   2.865   5.797   2.305  2.4874 -0.4342 -3.0113
 5188TIP3    H215529   2.752   5.838   2.213  1.4041 -0.6363 -1.8050
 5189TIP3   OH215530   5.560   3.832   5.302 -0.3377  0.4107  0.6021
 5189TIP3    H115531   5.642   3.824   5.351 -0.5132  2.6601  1.3608
 5189TIP3    H215532   5.577   3.901   5.239 -0.8559 -0.9189 -1.0523
 5190TIP3   OH215533   1.744   4.016   1.718 -0.1965  0.0839  0.6943
 5190TIP3    H115534   1.762   4.058   1.634 -1.3052 -1.2235 -0.2425
 5190TIP3    H215535   1.709   3.930   1.695  0.1596 -0.6015  2.5163
 5191TIP3   OH215536   1.716   3.100   1.480 -0.1978 -0.1093  0.0960
 5191TIP3    H115537   1.807   3.078   1.496  0.0638 -1.1448 -2.3735
 5191TIP3    H215538   1.672   3.086   1.564  1.7332 -0.4483  1.0934
 5192TIP3   OH215539   6.815   1.594   5.069  0.2637 -0.2127 -0.2752
 5192TIP3    H115540   6.721   1.591   5.055 -0.3712  1.4515  2.7323
 5192TIP3    H215541   6.846   1.662   5.008 -0.4195 -0.8605 -1.3722
 5193TIP3   OH215542   3.344   1.303   1.813 -0.4842 -0.2096  0.2948
 5193TIP3    H115543   3.267   1.279   1.864 -1.7035 -0.0557 -1.4070
 5193TIP3    H215544   3.390   1.220   1.798 -1.2660 -0.5760 -0.1387
 5194TIP3   OH215545   3.153   3.779   5.860 -0.2974  0.1530 -0.0212
 5194TIP3    H115546   3.198   3.864   5.862 -0.6861  0.3996 -0.9737
 5194TIP3    H215547   3.220   3.717   5.831  0.0444  0.0881  0.8862
 5195TIP3   OH215548   4.194   5.087   0.541  0.0147 -0.0465 -0.1084
 5195TIP3    H115549   4.230   5.078   0.630 -0.0391  1.1012  0.0401
 5195TIP3    H215550   4.166   5.178   0.536 -1.1897 -0.4437 -0.8686
 5196TIP3   OH215551   1.612   6.693   1.475 -0.1700  0.8248 -0.0766
 5196TIP3    H115552   1.661   6.611   1.467 -0.8375  0.4825 -0.7640
 5196TIP3    H215553   1.587   6.715   1.386 -0.9017  1.2129  0.2164
 5197TIP3   OH215554   1.941   3.092   3.083 -0.3421  0.1899 -0.4208
 5197TIP3    H115555   1.913   3.033   3.153 -1.4484  0.0124 -0.9938
 5197TIP3    H215556   1.887   3.069   3.008  0.1124  1.0615 -1.0423
 5198TIP3   OH215557   5.018   1.122   0.879 -0.7292  0.0922  0.5215
 5198TIP3    H115558   4.992   1.051   0.821 -0.5076  0.3403  0.1152
 5198TIP3    H215559   4.967   1.108   0.959 -2.2313  0.6327 -0.2892
 5199TIP3   OH215560   1.484   0.423   1.719  0.0938 -0.0850 -0.2525
 5199TIP3    H115561   1.562   0.478   1.706 -0.6561  1.0812  0.0953
 5199TIP3    H215562   1.501   0.375   1.800  0.7199 -0.3369 -0.5228
 5200TIP3   OH215563   6.393   3.044   1.007 -0.2953  0.1531  0.1729
 5200TIP3    H115564   6.422   2.956   0.984 -0.3051  0.2035 -0.0301
 5200TIP3    H215565   6.472   3.086   1.041  0.1710  0.6743 -1.4690
 5201TIP3   OH215566   7.077   4.582   4.448 -0.3035 -0.0541 -0.2570
 5201TIP3    H115567   7.094   4.528   4.371 -0.2089 -1.5725  0.8046
 5201TIP3    H215568   6.990   4.555   4.478 -0.2228  0.3318  0.3463
 5202TIP3   OH215569   5.105   2.302   0.760 -0.4717 -0.6153 -0.2239
 5202TIP3    H115570   5.059   2.349   0.830 -1.2364 -1.9240  0.1826
 5202TIP3    H215571   5.192   2.340   0.760 -0.0903 -1.2905  2.1995
 5203TIP3   OH215572   4.899   0.815   2.154  0.3562  0.4243  0.4931
 5203TIP3    H115573   4.845   0.771   2.220 -0.6087 -0.3568 -0.7829
 5203TIP3    H215574   4.965   0.750   2.130 -0.4410  0.0265 -0.6526
 5204TIP3   OH215575   2.236   5.632   5.371  0.0334  0.4623  0.3802
 5204TIP3    H115576   2.233   5.641   5.466  1.5283 -1.4776  0.6804
 5204TIP3    H215577   2.254   5.539   5.356  1.9475  1.0754 -1.7022
 5205TIP3   OH215578   2.261   5.180   1.765 -0.1438  0.3968 -0.0124
 5205TIP3    H115579   2.261   5.184   1.861 -1.6222 -0.7289  0.0845
 5205TIP3    H215580   2.282   5.268   1.737 -2.2144  1.4272  1.3911
 5206TIP3   OH215581   6.640   4.731   5.386  0.3439  0.2356 -0.0080
 5206TIP3    H115582   6.712   4.794   5.388  1.6815 -1.2442  0.1315
 5206TIP3    H215583   6.657   4.677   5.308  0.0951 -0.9108  0.7022
 5207TIP3   OH215584   6.570   4.548   4.189 -0.2052 -0.2437 -0.0119
 5207TIP3    H115585   6.539   4.529   4.101  1.7670 -0.5349 -0.6772
 5207TIP3    H215586   6.559   4.643   4.199  0.8171  0.0068 -1.0956
 5208TIP3   OH215587   3.470   1.021   4.195 -0.0734 -0.0521  0.0634
 5208TIP3    H115588   3.401   0.956   4.185 -1.1383  0.4964  2.8744
 5208TIP3    H215589   3.428   1.105   4.177  0.3671  0.1464 -0.0653
 5209TIP3   OH215590   3.473   4.695   2.646  0.6525 -0.3419  0.2570
 5209TIP3    H115591   3.388   4.714   2.607  0.5649 -0.4470  0.3945
 5209TIP3    H215592   3.471   4.741   2.730  0.7651 -0.2744  0.2226
 5210TIP3   OH215593   1.298   0.643   4.345 -0.4965 -0.2488  0.6127
 5210TIP3    H115594   1.374   0.667   4.398 -1.3297  1.1925  1.2207
 5210TIP3    H215595   1.318   0.556   4.312  1.0935 -0.1947  1.3541
 5211TIP3   OH215596   2.300   4.548   5.505  0.6234  0.2040  0.1298
 5211TIP3    H115597   2.368   4.538   5.438  1.5257  0.0188  1.0351
 5211TIP3    H215598   2.294   4.643   5.518  1.4455  0.1882  0.7410
 5212TIP3   OH215599   0.821   0.390   0.467  0.3511  0.0113  0.4438
 5212TIP3    H115600   0.758   0.422   0.402  0.2832  0.4213  0.7096
 5212TIP3    H215601   0.776   0.397   0.551  1.1539  1.4531  0.7888
 5213TIP3   OH215602   4.732   5.407   3.661  0.2775 -0.1015 -0.0813
 5213TIP3    H115603   4.651   5.400   3.711  1.0263  0.7698  1.3157
 5213TIP3    H215604   4.765   5.317   3.656  0.4630 -0.1451  1.5112
 5214TIP3   OH215605   1.302   2.664   4.785 -0.8809  0.5556 -0.7930
 5214TIP3    H115606   1.274   2.586   4.736 -1.6299  1.4998 -1.9095
 5214TIP3    H215607   1.378   2.634   4.835 -0.2974 -0.5514 -2.2611
 5215TIP3   OH215608   4.269   2.591   2.957 -0.3860  0.4420  0.6045
 5215TIP3    H115609   4.206   2.588   3.029 -0.5784  0.6262  0.4438
 5215TIP3    H215610   4.269   2.502   2.921  1.1212 -0.1994  2.0293
 5216TIP3   OH215611   5.548   3.469   0.974  0.3762  0.1162 -0.0672
 5216TIP3    H115612   5.488   3.395   0.961  1.3116 -0.4620 -1.3762
 5216TIP3    H215613   5.594   3.448   1.055  1.7094 -1.5719 -1.1900
 5217TIP3   OH215614   4.464   4.318   4.443  0.8651 -0.5822  0.7869
 5217TIP3    H115615   4.413   4.354   4.370  3.2824 -1.3267 -1.4623
 5217TIP3    H215616   4.428   4.230   4.456 -0.0435 -0.1884  0.9788
 5218TIP3   OH215617   6.336   3.987   4.965 -0.2085 -0.3081  0.4900
 5218TIP3    H115618   6.428   4.008   4.950  0.0753 -0.2999  2.0428
 5218TIP3    H215619   6.299   3.975   4.877  0.5982  2.4838 -0.3294
 5219TIP3   OH215620   3.672   0.397   1.490 -0.7792 -0.1308 -0.0893
 5219TIP3    H115621   3.755   0.363   1.456 -0.1289  1.1720  0.1215
 5219TIP3    H215622   3.638   0.453   1.420 -0.6940  0.5729  0.4245
 5220TIP3   OH215623   3.451   3.780   0.846 -0.1010  0.3392  0.8839
 5220TIP3    H115624   3.488   3.755   0.931  2.6638 -0.4522 -0.4027
 5220TIP3    H215625   3.473   3.873   0.837  3.4228 -0.4671 -0.5442
 5221TIP3   OH215626   7.080   5.866   4.759 -0.3738 -0.3781 -0.3761
 5221TIP3    H115627   7.175   5.855   4.763 -0.4227 -0.6898 -0.0638
 5221TIP3    H215628   7.052   5.863   4.851 -0.8116 -1.3751 -0.5394
 5222TIP3   OH215629   4.194   3.008   2.348  0.4321  0.2457  0.3847
 5222TIP3    H115630   4.214   2.922   2.312  0.9007  0.1950  0.7486
 5222TIP3    H215631   4.153   2.991   2.432  0.0227  0.3715  0.2103
 5223TIP3   OH215632   5.211   4.584   0.688  0.3224  0.3107  0.2370
 5223TIP3    H115633   5.228   4.584   0.782 -2.1878 -0.8247  0.7549
 5223TIP3    H215634   5.232   4.495   0.660 -0.7601  0.0797  0.1222
 5224TIP3   OH215635   2.594   1.404   4.593  0.1833  0.7410  0.4108
 5224TIP3    H115636   2.660   1.365   4.651  0.3304 -0.2365 -0.3794
 5224TIP3    H215637   2.644   1.437   4.519 -0.0744  1.3332  0.4968
 5225TIP3   OH215638   1.063   0.034   0.771  0.2360  0.0871  0.4867
 5225TIP3    H115639   1.028   0.091   0.703  0.9340 -0.2640 -0.1741
 5225TIP3    H215640   1.072  -0.051   0.730  0.5586 -0.1569  1.0450
 5226TIP3   OH215641   1.100   6.319   2.951  0.6701  0.5012  0.6036
 5226TIP3    H115642   1.170   6.344   2.891 -0.0530  0.4192 -0.2922
 5226TIP3    H215643   1.115   6.226   2.969  0.2254  0.2353 -0.3698
 5227TIP3   OH215644   3.746   2.256   1.964 -0.1939  0.2191  0.2553
 5227TIP3    H115645   3.711   2.237   1.877  0.2414  1.1440 -0.1311
 5227TIP3    H215646   3.671   2.243   2.023 -1.1819  1.9761 -0.5306
 5228TIP3   OH215647   1.561   0.029   3.799 -0.2169  0.3684 -0.1577
 5228TIP3    H115648   1.518   0.065   3.721 -2.7753 -1.1915  0.4211
 5228TIP3    H215649   1.510   0.064   3.872 -0.5795 -1.5596  0.5624
 5229TIP3   OH215650   3.738   4.523   1.051 -0.2825 -0.4624 -0.1863
 5229TIP3    H115651   3.671   4.502   1.116  0.8986 -1.0827  0.8869
 5229TIP3    H215652   3.752   4.617   1.060 -0.2722 -0.5069  0.3439
 5230TIP3   OH215653   6.603   4.809   4.011 -0.8656 -0.3684 -0.2661
 5230TIP3    H115654   6.573   4.896   4.037  0.8336 -0.1830  1.2966
 5230TIP3    H215655   6.584   4.804   3.917 -2.3063  1.0999 -0.1011
 5231TIP3   OH215656   5.516   3.048   4.069 -0.3691 -0.2398 -0.1457
 5231TIP3    H115657   5.569   3.058   3.991  0.9596  0.1415  0.7712
 5231TIP3    H215658   5.570   3.083   4.140 -2.0475  0.6348  0.7617
 5232TIP3   OH215659   2.110   0.132   3.762 -0.1272 -0.5066 -0.1709
 5232TIP3    H115660   2.104   0.089   3.848 -1.2966 -1.1633 -0.5489
 5232TIP3    H215661   2.052   0.208   3.769  3.3513  2.2788  1.1142
 5233TIP3   OH215662   3.891   1.165   3.402 -0.5493  0.1617  0.2102
 5233TIP3    H115663   3.858   1.116   3.477 -0.6727  0.0394  0.0771
 5233TIP3    H215664   3.831   1.142   3.331  0.2683 -0.6567 -0.2274
 5234TIP3   OH215665   1.284   1.381   4.987 -0.4868 -0.0710 -0.5675
 5234TIP3    H115666   1.287   1.452   4.923 -2.0782 -0.5436 -1.2160
 5234TIP3    H215667   1.212   1.405   5.046  0.4521 -0.0283  0.6136
 5235TIP3   OH215668   1.813   2.200   2.536 -0.2109 -0.5916 -0.1035
 5235TIP3    H115669   1.822   2.130   2.471 -0.2956 -0.5096 -0.2059
 5235TIP3    H215670   1.902   2.220   2.563 -0.2026 -0.8847  0.0822
 5236TIP3   OH215671   4.847   3.716   0.876 -0.5664  0.7185 -0.5740
 5236TIP3    H115672   4.812   3.641   0.924 -0.1670  0.5735 -0.5057
 5236TIP3    H215673   4.937   3.724   0.906 -0.5220  1.0502 -0.7934
 5237TIP3   OH215674   4.449   2.694   0.292  0.5702 -0.1991 -0.2778
 5237TIP3    H115675   4.456   2.776   0.341 -2.6249  0.2676 -0.3935
 5237TIP3    H215676   4.508   2.707   0.217  1.2298  1.3741  0.4429
 5238TIP3   OH215677   2.195   3.894   3.930  0.4782 -0.1271 -0.3448
 5238TIP3    H115678   2.189   3.979   3.885  1.8871 -0.1855 -0.6966
 5238TIP3    H215679   2.216   3.832   3.861  0.0123 -0.6733  0.0011
 5239TIP3   OH215680   3.324   4.445   2.624  0.0325  0.6378  0.7864
 5239TIP3    H115681   3.311   4.402   2.708  1.6078 -0.7257  0.3964
 5239TIP3    H215682   3.393   4.509   2.640 -0.1382  0.8481  0.6833
 5240TIP3   OH215683   4.206   0.924   4.009  0.2557 -0.1209 -0.1444
 5240TIP3    H115684   4.175   0.993   3.950  0.4056  2.3566  2.4713
 5240TIP3    H215685   4.129   0.900   4.060  0.7078 -0.2734  0.4720
 5241TIP3   OH215686   2.574   0.872   0.149  0.3305  0.1702 -0.2342
 5241TIP3    H115687   2.485   0.850   0.176 -0.1716  0.9947 -1.1344
 5241TIP3    H215688   2.625   0.870   0.230 -0.7560  0.8493  0.4942
 5242TIP3   OH215689   5.955   1.990   4.448 -0.3890  0.3331 -0.5752
 5242TIP3    H115690   6.025   2.049   4.474  0.5397 -1.7436  2.0881
 5242TIP3    H215691   5.875   2.032   4.479  0.3949 -0.3973  2.8003
 5243TIP3   OH215692   6.832   5.602   2.836  0.0449  0.0543 -0.4286
 5243TIP3    H115693   6.767   5.535   2.815 -0.5197  0.3356  0.3853
 5243TIP3    H215694   6.854   5.588   2.928  2.0558 -0.7938 -0.9724
 5244TIP3   OH215695   1.021   5.140   4.394 -0.3475  0.1459 -0.3134
 5244TIP3    H115696   1.097   5.094   4.430  0.3289  1.5680  0.1589
 5244TIP3    H215697   0.948   5.113   4.450  0.0988 -0.0875  0.1721
 5245TIP3   OH215698   0.108   2.707   0.252 -0.6378  0.2883 -0.0837
 5245TIP3    H115699   0.107   2.708   0.347 -1.5455  0.8933 -0.0812
 5245TIP3    H215700   0.169   2.637   0.229 -1.1912 -0.5651  0.9473
 5246TIP3   OH215701   0.706   2.075   1.051  0.1833 -0.3977 -0.1082
 5246TIP3    H115702   0.685   2.031   1.133  1.5287  1.1563  1.1640
 5246TIP3    H215703   0.798   2.054   1.036  0.2197  0.1446 -0.6740
 5247TIP3   OH215704   4.571   0.444   3.080  0.1006 -0.2120 -0.1474
 5247TIP3    H115705   4.660   0.408   3.084 -0.3377 -1.4560 -0.7779
 5247TIP3    H215706   4.516   0.367   3.061 -1.3696  0.1316  2.2862
 5248TIP3   OH215707   2.341   2.608   1.203  0.0434 -0.4249 -0.3519
 5248TIP3    H115708   2.377   2.611   1.114  0.8918 -0.1231 -0.0152
 5248TIP3    H215709   2.254   2.647   1.195 -1.2048 -3.2520 -1.6021
 5249TIP3   OH215710   1.426   4.611   1.438  0.1172  0.2506 -0.3204
 5249TIP3    H115711   1.353   4.646   1.490  0.1851  0.8104 -0.5941
 5249TIP3    H215712   1.423   4.517   1.453  1.0611  0.5014  1.9461
 5250TIP3   OH215713   2.954   4.163   4.280 -0.0693 -0.1870 -0.0336
 5250TIP3    H115714   2.945   4.094   4.214  0.3282 -0.7907  0.5260
 5250TIP3    H215715   2.878   4.220   4.266  0.5532  0.2864 -1.6702
 5251TIP3   OH215716   1.381   6.235   1.197  0.1683 -0.3167 -0.0440
 5251TIP3    H115717   1.430   6.232   1.278  1.2307  0.6562 -0.6287
 5251TIP3    H215718   1.296   6.196   1.219 -0.4778  2.0247  2.1712
 5252TIP3   OH215719   5.499   3.507   2.790 -0.8870 -0.0967 -0.7598
 5252TIP3    H115720   5.458   3.572   2.733  1.4633  1.1310 -1.1534
 5252TIP3    H215721   5.441   3.430   2.784 -3.1317  1.5207 -1.1819
 5253TIP3   OH215722   1.523   1.369   5.252  0.0394  0.5622 -0.2974
 5253TIP3    H115723   1.533   1.310   5.177  2.5226  0.3638  0.0996
 5253TIP3    H215724   1.585   1.335   5.316 -2.3164  0.4606  2.0783
 5254TIP3   OH215725   6.508   2.341   2.005  0.2926  0.6144 -0.5509
 5254TIP3    H115726   6.481   2.370   1.917 -1.7170 -0.8654 -0.4646
 5254TIP3    H215727   6.557   2.260   1.989  1.1215  1.0621 -0.3664
 5255TIP3   OH215728   2.336   5.462   0.900 -0.1363  0.1061 -0.2295
 5255TIP3    H115729   2.269   5.443   0.966 -0.6503 -0.3238 -0.8722
 5255TIP3    H215730   2.406   5.504   0.950  0.0645 -1.4155  0.8438
 5256TIP3   OH215731   5.190   1.492   5.028 -0.2885 -0.3011 -0.2552
 5256TIP3    H115732   5.246   1.565   5.001  0.9348 -1.9339 -2.4695
 5256TIP3    H215733   5.102   1.518   5.002 -0.0076  0.7502 -0.1913
 5257TIP3   OH215734   5.535   0.155   4.066  0.2833  0.7185  0.1600
 5257TIP3    H115735   5.525   0.080   4.124  2.4490 -0.7500 -1.2020
 5257TIP3    H215736   5.447   0.194   4.062 -1.0171 -1.9068  0.6995
 5258TIP3   OH215737   6.360   5.972   4.380  0.2151 -0.3732  0.4048
 5258TIP3    H115738   6.303   5.895   4.387  0.8437 -0.7931  1.0339
 5258TIP3    H215739   6.340   6.023   4.458 -0.7520  0.4993 -0.3916
 5259TIP3   OH215740   5.827   3.902   5.827 -0.2613  0.0770  0.9644
 5259TIP3    H115741   5.782   3.919   5.745  1.3911  1.7790  0.3176
 5259TIP3    H215742   5.758   3.904   5.894 -1.6969 -1.8129 -0.3698
 5260TIP3   OH215743   0.400   2.377   4.233 -0.0718  0.0829  0.1362
 5260TIP3    H115744   0.354   2.340   4.309 -0.1500  1.4015  0.7491
 5260TIP3    H215745   0.483   2.408   4.269 -0.5814  1.7559 -0.0766
 5261TIP3   OH215746   1.212   0.148   0.982 -0.0969  0.0818  0.0735
 5261TIP3    H115747   1.165   0.094   0.918  0.6618 -0.3248 -0.1601
 5261TIP3    H215748   1.169   0.129   1.065 -0.4226 -0.1923 -0.1546
 5262TIP3   OH215749   5.354   1.400   3.315 -0.1918  0.1738  0.2119
 5262TIP3    H115750   5.329   1.417   3.406  1.5376 -1.2545  0.9962
 5262TIP3    H215751   5.449   1.393   3.316 -0.2341 -1.4006 -1.4379
 5263TIP3   OH215752   6.952   0.191   3.409  0.0294  0.3054  0.4530
 5263TIP3    H115753   6.858   0.203   3.403 -0.0080 -0.6001 -2.1866
 5263TIP3    H215754   6.965   0.139   3.488 -1.7092  0.1899  0.6996
 5264TIP3   OH215755   2.137   6.392   5.845  0.6175 -0.4362  0.3844
 5264TIP3    H115756   2.183   6.326   5.794  1.2901  0.0505  0.3547
 5264TIP3    H215757   2.149   6.363   5.936 -0.3248 -1.1356  0.3035
 5265TIP3   OH215758   0.750   1.212   3.091 -0.5155  0.5860  0.0733
 5265TIP3    H115759   0.703   1.254   3.019 -1.4442  2.8847  1.8848
 5265TIP3    H215760   0.820   1.273   3.113  0.8873 -0.9215  0.0263
 5266TIP3   OH215761   1.724   2.323   1.251  0.1464  0.4980  0.2204
 5266TIP3    H115762   1.711   2.402   1.199  0.4070  0.8530  0.6972
 5266TIP3    H215763   1.742   2.354   1.339  1.0499 -0.0656  0.2497
 5267TIP3   OH215764   1.679   4.518   3.270  0.7181  0.2811 -0.1992
 5267TIP3    H115765   1.712   4.608   3.263 -2.4540  1.7018  1.3063
 5267TIP3    H215766   1.708   4.489   3.357 -0.0318  0.6908  0.1990
 5268TIP3   OH215767   0.248   4.276   0.752  0.2388 -0.6732 -0.3168
 5268TIP3    H115768   0.250   4.247   0.844 -0.9423 -1.9478 -0.6570
 5268TIP3    H215769   0.203   4.205   0.706 -0.1843  0.4560 -1.6981
 5269TIP3   OH215770   6.354   1.573   3.665  0.5011  0.1261 -0.3533
 5269TIP3    H115771   6.329   1.497   3.612 -1.0148  0.2879  0.0638
 5269TIP3    H215772   6.361   1.645   3.603  3.1605 -0.5514 -0.9338
 5270TIP3   OH215773   5.670   5.667   1.907 -0.1263 -0.3026 -0.1792
 5270TIP3    H115774   5.587   5.629   1.879  0.0566  0.2564 -1.5925
 5270TIP3    H215775   5.715   5.687   1.825  0.5064  1.3551  0.5389
 5271TIP3   OH215776   4.735   5.152   2.716 -0.3599  0.1238 -0.1611
 5271TIP3    H115777   4.815   5.128   2.669 -1.8188 -1.8178 -1.8170
 5271TIP3    H215778   4.735   5.248   2.714  0.9843  0.1528 -1.8367
 5272TIP3   OH215779   1.838   6.670   5.323  0.2595  0.0370  0.0150
 5272TIP3    H115780   1.761   6.624   5.290  1.1341  0.2249 -2.5913
 5272TIP3    H215781   1.901   6.601   5.344 -0.9214 -0.1868  3.3532
 5273TIP3   OH215782   0.540   1.802   4.531  0.6507 -0.0543 -0.0111
 5273TIP3    H115783   0.476   1.733   4.512 -0.6195  0.8433  0.8354
 5273TIP3    H215784   0.567   1.786   4.621  0.2790  0.5855  0.2241
 5274TIP3   OH215785   2.633   1.376   3.024 -1.1229  0.0515  0.0103
 5274TIP3    H115786   2.637   1.416   2.937 -1.7081  2.1724  0.8856
 5274TIP3    H215787   2.574   1.433   3.073  0.7147  0.0441  2.3654
 5275TIP3   OH215788   4.845   2.768   2.399 -0.0546 -0.0277 -0.1987
 5275TIP3    H115789   4.870   2.754   2.491 -2.4495 -0.4334  0.4644
 5275TIP3    H215790   4.754   2.740   2.395  0.1765 -0.6379 -2.8956
 5276TIP3   OH215791   0.060   0.235   1.421  0.3856 -0.1391  0.0204
 5276TIP3    H115792  -0.009   0.174   1.395 -0.3784 -0.2670  2.1486
 5276TIP3    H215793   0.130   0.221   1.358 -0.4426 -1.9950 -0.5380
 5277TIP3   OH215794   1.720   5.596   2.280  0.0658  0.0944  0.3086
 5277TIP3    H115795   1.626   5.602   2.298  0.2053 -0.7277  1.4451
 5277TIP3    H215796   1.726   5.598   2.185 -1.2499 -1.5185  0.1409
 5278TIP3   OH215797   4.718   2.987   0.341 -0.1533  0.4741 -0.7453
 5278TIP3    H115798   4.642   3.004   0.285 -0.3420  1.6910 -0.1615
 5278TIP3    H215799   4.791   3.025   0.294  0.3440 -1.6658 -1.8397
 5279TIP3   OH215800   5.449   0.913   2.363 -0.4093 -0.5987 -0.6998
 5279TIP3    H115801   5.461   0.820   2.382  0.3667 -0.1957  1.0101
 5279TIP3    H215802   5.371   0.917   2.308 -0.3611 -2.2665 -0.9260
 5280TIP3   OH215803   1.134   4.864   5.794 -0.4086 -0.5132  0.2032
 5280TIP3    H115804   1.169   4.789   5.842  1.5378 -1.2294 -2.1218
 5280TIP3    H215805   1.078   4.826   5.727  1.3380 -0.0641 -1.6052
 5281TIP3   OH215806   5.175   3.938   5.694 -0.6925 -0.0117  0.0821
 5281TIP3    H115807   5.258   3.964   5.733 -0.1058 -0.6994 -0.6608
 5281TIP3    H215808   5.116   3.925   5.768 -0.2067  0.6972  0.6062
 5282TIP3   OH215809   2.530   0.947   1.014 -0.2389  0.7698 -0.2756
 5282TIP3    H115810   2.604   0.910   0.966 -0.4498  1.5943 -1.2617
 5282TIP3    H215811   2.458   0.886   0.996 -0.1185  0.6525 -0.3636
 5283TIP3   OH215812   0.348   4.894   0.554 -0.1182  0.2497 -0.6670
 5283TIP3    H115813   0.366   4.828   0.488 -0.6415 -1.0111  0.4085
 5283TIP3    H215814   0.409   4.874   0.625  0.7299  1.8442 -0.8947
 5284TIP3   OH215815   2.139   5.769   3.471 -0.0482 -0.9040 -0.7548
 5284TIP3    H115816   2.101   5.719   3.544  3.2348 -2.5066  0.0280
 5284TIP3    H215817   2.190   5.837   3.513 -0.9240  0.3910 -1.7261
 5285TIP3   OH215818   4.186   0.737   1.050  0.0132 -0.2999  0.1770
 5285TIP3    H115819   4.132   0.815   1.040  2.3554  1.6826  1.6307
 5285TIP3    H215820   4.202   0.706   0.961  0.2299  1.8199 -0.5721
 5286TIP3   OH215821   4.237   0.167   5.722 -0.3919 -0.1105  0.1306
 5286TIP3    H115822   4.239   0.153   5.628  3.6099  1.9658 -0.3129
 5286TIP3    H215823   4.184   0.247   5.733  0.9384  0.9279 -0.6965
 5287TIP3   OH215824   5.812   3.236   1.941 -0.2202 -0.5930 -0.4830
 5287TIP3    H115825   5.723   3.206   1.921 -0.1040 -0.8267 -0.6430
 5287TIP3    H215826   5.815   3.326   1.909  0.0238 -1.0160 -1.6856
 5288TIP3   OH215827   1.266   4.013   3.935 -0.2532 -0.2601 -0.3747
 5288TIP3    H115828   1.254   3.921   3.910 -0.0804 -0.6535  0.9245
 5288TIP3    H215829   1.338   4.044   3.880  0.4375 -1.2329 -0.0409
 5289TIP3   OH215830   0.274   0.416   3.661  0.3045  0.2405  0.0575
 5289TIP3    H115831   0.223   0.349   3.616 -0.6124  0.7408  0.3300
 5289TIP3    H215832   0.221   0.495   3.655  1.5468  1.0714 -0.6262
 5290TIP3   OH215833   6.088   1.725   4.004  0.0613  0.5182  0.1524
 5290TIP3    H115834   6.014   1.669   3.976 -0.9101  0.6680  2.2076
 5290TIP3    H215835   6.053   1.814   3.999  0.9141  0.8101 -1.0725
 5291TIP3   OH215836   3.766   2.778   5.316 -0.2246  0.4525 -0.2016
 5291TIP3    H115837   3.700   2.768   5.247 -0.7224  0.0912  0.3132
 5291TIP3    H215838   3.790   2.870   5.314 -0.9078  0.6318 -0.2619
 5292TIP3   OH215839   2.542   0.504   1.048 -0.2258 -0.9789  0.2783
 5292TIP3    H115840   2.576   0.415   1.050  1.9082 -0.2023  1.2743
 5292TIP3    H215841   2.619   0.560   1.043 -1.2604  0.8946  2.8529
 5293TIP3   OH215842   4.637   1.831   1.904 -0.4328 -0.1080  0.5072
 5293TIP3    H115843   4.698   1.777   1.953 -1.1327 -0.7111  0.7303
 5293TIP3    H215844   4.615   1.902   1.964  0.5731  0.5158  0.1729
 5294TIP3   OH215845   3.712   2.501   4.534  0.1200  0.4707 -0.4626
 5294TIP3    H115846   3.780   2.484   4.468  0.5480  2.8939 -0.7405
 5294TIP3    H215847   3.732   2.588   4.566 -1.8350  0.5058  0.7789
 5295TIP3   OH215848   0.586   1.576   2.063  0.2344  0.1965  0.5399
 5295TIP3    H115849   0.611   1.520   1.989 -0.1965  0.9711 -0.2100
 5295TIP3    H215850   0.534   1.519   2.119 -1.3097  0.1506 -0.8581
 5296TIP3   OH215851   7.103   1.065   2.386  0.4302  0.5349  0.3230
 5296TIP3    H115852   7.176   1.034   2.439  0.1836 -0.3081  0.1745
 5296TIP3    H215853   7.027   1.015   2.416 -0.0936  1.3632  0.4415
 5297TIP3   OH215854   0.387   3.134   4.096 -0.4032  0.2144  0.3767
 5297TIP3    H115855   0.472   3.114   4.134 -0.6490 -0.1124  0.7497
 5297TIP3    H215856   0.403   3.134   4.001 -0.5240 -2.4137  0.3005
 5298TIP3   OH215857   5.023   0.418   0.388 -0.3140 -0.1149  0.0409
 5298TIP3    H115858   5.005   0.391   0.298  0.8249  1.7452 -0.8005
 5298TIP3    H215859   5.117   0.410   0.398 -0.0243  2.4792  0.0378
 5299TIP3   OH215860   6.503   2.050   4.965 -0.2752 -0.1923  0.0645
 5299TIP3    H115861   6.581   2.009   4.928 -0.5572  0.5087 -1.3621
 5299TIP3    H215862   6.434   1.985   4.954 -0.3939  0.0757 -0.8167
 5300TIP3   OH215863   5.869   5.354   0.618  0.2554  0.0150  0.0663
 5300TIP3    H115864   5.867   5.330   0.525 -1.0615 -1.3616  0.4243
 5300TIP3    H215865   5.909   5.441   0.619  2.0100 -0.6946 -1.6164
 5301TIP3   OH215866   2.032   2.049   1.382 -0.0900 -0.5680 -0.0599
 5301TIP3    H115867   2.011   2.116   1.447 -3.7738 -0.3275 -1.2804
 5301TIP3    H215868   2.098   2.089   1.326 -1.3803  1.6437 -0.0755
 5302TIP3   OH215869   3.832   2.421   5.156  0.5765  0.2907  0.4348
 5302TIP3    H115870   3.796   2.439   5.243 -0.1620  0.6685  0.0476
 5302TIP3    H215871   3.923   2.453   5.161  0.6088  0.1032  1.1360
 5303TIP3   OH215872   2.526   4.993   3.705 -0.3418 -0.2148  0.3856
 5303TIP3    H115873   2.545   5.087   3.714  1.4479 -0.3844 -1.1282
 5303TIP3    H215874   2.557   4.971   3.618 -2.3488 -1.8753  0.0257
 5304TIP3   OH215875   3.508   5.862   3.181  0.5056 -0.3304  0.4344
 5304TIP3    H115876   3.471   5.775   3.165 -0.4132  0.5025 -2.6012
 5304TIP3    H215877   3.437   5.910   3.224 -1.6366  0.7066 -3.7258
 5305TIP3   OH215878   1.320   2.398   4.980 -0.3907  0.0480  0.3680
 5305TIP3    H115879   1.371   2.318   4.985 -1.6910 -0.7428  2.0878
 5305TIP3    H215880   1.384   2.469   4.991  0.9933 -0.5841 -2.6334
 5306TIP3   OH215881   2.472   6.676   2.742 -0.1287 -0.3742 -0.4075
 5306TIP3    H115882   2.565   6.680   2.721 -0.3588 -0.9732 -1.6615
 5306TIP3    H215883   2.465   6.606   2.808  0.4267  0.4493  0.5452
 5307TIP3   OH215884   4.766   1.517   5.409  0.9070  0.1165  0.2954
 5307TIP3    H115885   4.710   1.507   5.332 -0.6393  1.9687  1.1117
 5307TIP3    H215886   4.855   1.516   5.374  0.2386  2.9903 -1.9072
 5308TIP3   OH215887   2.700   5.730   4.297 -0.1569  0.4399 -0.3153
 5308TIP3    H115888   2.702   5.653   4.240 -0.6173 -0.1112  0.3980
 5308TIP3    H215889   2.666   5.698   4.380 -2.7624  1.8497 -0.7156
 5309TIP3   OH215890   6.397   1.318   2.525  0.7859 -0.5436 -0.5262
 5309TIP3    H115891   6.451   1.347   2.599  1.2114 -1.6639 -0.3740
 5309TIP3    H215892   6.363   1.399   2.487  2.5401  0.2119 -0.5953
 5310TIP3   OH215893   6.098   4.123   0.894 -0.0481  0.4222  0.9335
 5310TIP3    H115894   6.150   4.203   0.887  0.2109  0.4098  2.3850
 5310TIP3    H215895   6.015   4.145   0.853  0.2022  1.2820  0.8625
 5311TIP3   OH215896   0.473   5.206   5.607 -0.0192 -0.4257 -0.6597
 5311TIP3    H115897   0.507   5.123   5.574 -1.8421 -1.4174 -0.2243
 5311TIP3    H215898   0.417   5.181   5.680 -1.6261  1.0367 -1.3221
 5312TIP3   OH215899   3.762   3.551   2.007 -0.1978 -0.3992  0.0867
 5312TIP3    H115900   3.827   3.515   2.068  1.8872 -0.1385 -1.8576
 5312TIP3    H215901   3.756   3.486   1.937 -0.6661  0.4355 -0.6661
 5313TIP3   OH215902   5.045   0.851   5.587  0.3118  0.3667 -0.3151
 5313TIP3    H115903   5.010   0.763   5.574  1.4583  0.2821 -3.7307
 5313TIP3    H215904   5.137   0.838   5.608  0.9675  0.6498 -2.6761
 5314TIP3   OH215905   4.368   1.144   1.501  0.5852 -0.7108  0.2750
 5314TIP3    H115906   4.348   1.070   1.559 -1.5207 -2.1292 -2.0282
 5314TIP3    H215907   4.363   1.106   1.413  0.1836  2.0461 -0.9740
 5315TIP3   OH215908   7.150   3.218   5.359 -0.1589 -0.0988  0.4212
 5315TIP3    H115909   7.164   3.203   5.265 -0.5928  0.1095  0.3211
 5315TIP3    H215910   7.090   3.148   5.386 -0.6774  0.3161  0.3634
 5316TIP3   OH215911   3.909   6.735   3.334 -0.1608 -0.2171 -0.3309
 5316TIP3    H115912   3.972   6.797   3.298  0.4896 -1.0151 -0.6259
 5316TIP3    H215913   3.841   6.728   3.268 -0.2795  0.2357 -0.2601
 5317TIP3   OH215914   3.314   5.270   1.838  0.1244  0.4546 -0.0745
 5317TIP3    H115915   3.244   5.335   1.842 -1.3536 -1.1029  0.2957
 5317TIP3    H215916   3.350   5.279   1.749 -1.3298  0.4966 -0.6807
 5318TIP3   OH215917   6.660   5.063   5.805 -0.4617 -0.2505 -0.5345
 5318TIP3    H115918   6.728   5.010   5.763 -0.0259  0.7246 -1.0859
 5318TIP3    H215919   6.578   5.019   5.783 -0.0205 -1.4985  0.2280
 5319TIP3   OH215920   3.889   4.523   0.789  0.9389 -0.0376  0.8016
 5319TIP3    H115921   3.858   4.538   0.879  1.9238  1.2971  0.9483
 5319TIP3    H215922   3.954   4.592   0.774  2.5136 -1.6209 -0.1132
 5320TIP3   OH215923   1.984   3.090   0.029 -0.3337  0.1250 -0.5322
 5320TIP3    H115924   2.059   3.031   0.022 -1.1087 -0.8406 -0.8204
 5320TIP3    H215925   1.912   3.043  -0.011 -0.9024  1.4132 -1.0760
 5321TIP3   OH215926   3.667   1.783   0.323 -0.5268  0.2821  0.1446
 5321TIP3    H115927   3.758   1.806   0.308 -0.6880  0.7419 -0.1437
 5321TIP3    H215928   3.668   1.727   0.401  0.1637 -0.8777 -0.6629
 5322TIP3   OH215929   4.064   5.222   0.963  0.0514 -0.3776 -0.4444
 5322TIP3    H115930   4.147   5.180   0.986  0.6137  0.4869 -0.8130
 5322TIP3    H215931   4.023   5.243   1.047  1.1886  1.0246 -0.1890
 5323TIP3   OH215932   2.647   1.552   5.208  0.4780 -0.1057 -0.2904
 5323TIP3    H115933   2.716   1.557   5.274 -0.6120 -2.6048  1.1874
 5323TIP3    H215934   2.579   1.612   5.241  1.4456  1.5857 -1.2287
 5324TIP3   OH215935   3.277   2.500   5.791  0.0752  0.4167  0.1233
 5324TIP3    H115936   3.203   2.559   5.804  0.1433  0.3989  0.6202
 5324TIP3    H215937   3.354   2.556   5.800  0.1823  0.0405  1.9392
 5325TIP3   OH215938   7.122   5.049   3.234 -0.3138  0.5292  0.2946
 5325TIP3    H115939   7.132   5.130   3.183  0.0566  0.9502  1.0123
 5325TIP3    H215940   7.027   5.034   3.236 -0.3064  0.1042 -1.0987
 5326TIP3   OH215941   2.144   1.137   4.806  0.3186  0.3446  0.0226
 5326TIP3    H115942   2.065   1.139   4.859  1.6513 -1.5592  2.2988
 5326TIP3    H215943   2.209   1.187   4.856  1.1146  0.1691 -0.7935
 5327TIP3   OH215944   5.537   5.950   3.820 -0.1042 -0.0467 -0.4261
 5327TIP3    H115945   5.470   5.987   3.762 -0.6064 -0.3758 -0.0664
 5327TIP3    H215946   5.492   5.938   3.903  1.5953  4.3501  1.4347
 5328TIP3   OH215947   5.499   3.345   4.256 -0.0861 -0.5281  0.1298
 5328TIP3    H115948   5.443   3.270   4.275 -0.2262 -0.5902 -0.4858
 5328TIP3    H215949   5.476   3.370   4.166  1.2667 -0.8958 -0.3381
 5329TIP3   OH215950   5.294   3.064   3.377 -0.0881 -0.4903 -0.1699
 5329TIP3    H115951   5.354   2.990   3.385 -0.6330 -0.7519  2.0481
 5329TIP3    H215952   5.228   3.035   3.314  0.3475 -1.4170 -0.2081
 5330TIP3   OH215953   4.661   3.885   3.727  0.0025  0.5352  0.5312
 5330TIP3    H115954   4.632   3.953   3.787  0.4239  1.4964 -0.3269
 5330TIP3    H215955   4.755   3.875   3.745  0.6091  2.3027 -1.3133
 5331TIP3   OH215956   4.035   4.804   3.689 -0.6296 -0.0931  0.3664
 5331TIP3    H115957   3.951   4.806   3.734  0.0742 -1.7632  1.8750
 5331TIP3    H215958   4.080   4.883   3.718 -1.5159  0.6369 -0.1938
 5332TIP3   OH215959   3.831   5.696   1.145 -0.3137 -0.1791 -0.1223
 5332TIP3    H115960   3.917   5.700   1.188  0.9978  1.2249 -2.6974
 5332TIP3    H215961   3.785   5.774   1.175  0.1147  0.1528 -0.3325
 5333TIP3   OH215962   4.587   3.736   0.051  0.5922 -0.3576  0.5166
 5333TIP3    H115963   4.653   3.745  -0.018 -0.3564 -0.9034 -0.4909
 5333TIP3    H215964   4.631   3.767   0.130  1.9124 -0.3088 -0.2074
 5334TIP3   OH215965   2.372   3.326   2.500  0.1796 -0.4235 -0.5298
 5334TIP3    H115966   2.431   3.358   2.432  0.8748 -0.6853 -0.0502
 5334TIP3    H215967   2.324   3.255   2.459 -1.4933  1.2537 -1.6661
 5335TIP3   OH215968   4.418   0.935   4.535  0.2753  0.3992  0.1051
 5335TIP3    H115969   4.330   0.948   4.499 -0.0869 -0.1348  0.7906
 5335TIP3    H215970   4.453   0.860   4.486 -0.4334 -0.6946  1.2071
 5336TIP3   OH215971   6.614   0.679   0.063  0.0278 -0.0908 -0.4522
 5336TIP3    H115972   6.678   0.622   0.108  1.6074  1.6597 -0.3529
 5336TIP3    H215973   6.529   0.651   0.098  0.6707 -2.5560 -0.6243
 5337TIP3   OH215974   3.620   1.480   2.023  0.0345 -0.1203 -0.3861
 5337TIP3    H115975   3.605   1.546   1.955  1.9410  0.6460 -0.0963
 5337TIP3    H215976   3.656   1.405   1.975 -0.2774 -0.2355 -0.4444
 5338TIP3   OH215977   1.210   1.997   1.035  0.6855 -0.0161 -0.1878
 5338TIP3    H115978   1.252   2.025   0.953 -2.0209  0.5042 -1.5283
 5338TIP3    H215979   1.227   2.068   1.096  1.2168  0.4513 -0.8580
 5339TIP3   OH215980   3.784   2.203   2.919 -0.1295 -0.7709 -0.4079
 5339TIP3    H115981   3.768   2.117   2.880 -0.1287 -1.9611  2.0353
 5339TIP3    H215982   3.873   2.197   2.954  0.0905  0.4658 -0.7158
 5340TIP3   OH215983   3.064   5.239   3.122 -0.4922  0.3725 -0.8047
 5340TIP3    H115984   3.027   5.327   3.121 -1.5304 -0.0503 -0.4953
 5340TIP3    H215985   2.989   5.181   3.114  0.2836 -0.4810 -2.1571
 5341TIP3   OH215986   6.577   4.762   2.758  0.3897  0.1583  0.3869
 5341TIP3    H115987   6.672   4.759   2.761  0.5084 -2.7505 -1.9581
 5341TIP3    H215988   6.549   4.693   2.819 -0.1581  0.0551  0.0257
 5342TIP3   OH215989   6.473   3.842   2.788  0.0526  0.3696  0.2604
 5342TIP3    H115990   6.422   3.780   2.736  1.4252 -1.0651  0.5413
 5342TIP3    H215991   6.470   3.808   2.878  0.9824  0.5803  0.3913
 5343TIP3   OH215992   3.213   3.781   0.687  0.5910 -0.4121  0.0865
 5343TIP3    H115993   3.136   3.764   0.741  0.3056 -1.1257 -0.5260
 5343TIP3    H215994   3.276   3.714   0.713  1.0738  0.2709  0.7024
 5344TIP3   OH215995   3.307   2.612   2.673 -0.0046  0.0912  0.2425
 5344TIP3    H115996   3.250   2.676   2.631  0.5616 -0.6132 -1.7057
 5344TIP3    H215997   3.266   2.527   2.655  1.1242 -0.3511 -0.3941
 5345TIP3   OH215998   4.948   1.607   5.225  0.9145 -0.4291 -0.5535
 5345TIP3    H115999   4.910   1.691   5.250 -0.1594 -0.6960 -1.2057
 5345TIP3    H216000   4.964   1.614   5.131 -1.5170 -1.7594 -1.1484
 5346TIP3   OH216001   5.640   1.600   3.659  0.0925 -0.6706 -0.3307
 5346TIP3    H116002   5.597   1.637   3.581  0.0196  0.6530  0.3086
 5346TIP3    H216003   5.645   1.506   3.641  2.0971 -0.1901 -2.9305
 5347TIP3   OH216004   1.051   2.419   0.588 -0.3597 -0.0884 -0.0842
 5347TIP3    H116005   1.129   2.380   0.627  0.7608 -0.8065 -2.8074
 5347TIP3    H216006   0.980   2.396   0.649  1.3901 -0.0288  2.1049
 5348TIP3   OH216007   4.284   6.004   3.554 -0.1043 -0.2953  0.0707
 5348TIP3    H116008   4.335   5.992   3.473 -1.9223  0.0312 -1.1939
 5348TIP3    H216009   4.218   5.935   3.550 -1.2355  0.7396  0.4277
 5349TIP3   OH216010   2.422   4.220   4.652  0.4618  0.5703  0.1624
 5349TIP3    H116011   2.477   4.220   4.730  0.2932  2.2736  0.2999
 5349TIP3    H216012   2.478   4.181   4.584  1.0643  0.2939  0.8029
 5350TIP3   OH216013   1.228   5.757   0.631 -0.3249 -0.1106  0.6781
 5350TIP3    H116014   1.217   5.674   0.585  1.7573 -0.9022  1.4945
 5350TIP3    H216015   1.138   5.785   0.650 -1.1779 -0.8586 -1.8111
 5351TIP3   OH216016   4.084   1.531   5.199  0.0435  0.4705  0.1192
 5351TIP3    H116017   3.991   1.520   5.219 -0.3968  1.0172 -1.5113
 5351TIP3    H216018   4.103   1.622   5.224 -0.2179  0.7880 -0.7962
 5352TIP3   OH216019   6.450   0.958   4.317 -0.1945  0.3963  0.2296
 5352TIP3    H116020   6.489   1.017   4.382 -0.8192  1.0950 -0.0134
 5352TIP3    H216021   6.439   1.012   4.239  1.8282 -0.7827 -0.9548
 5353TIP3   OH216022   1.033   4.389   4.211  0.3616  0.2658 -0.2275
 5353TIP3    H116023   1.016   4.484   4.211  3.1342  0.8340 -0.9122
 5353TIP3    H216024   1.022   4.362   4.120  0.2363  0.0508 -0.1499
 5354TIP3   OH216025   4.989   1.375   3.891  0.5841  0.4526  0.5196
 5354TIP3    H116026   5.053   1.429   3.937 -0.3146  0.3523  1.9655
 5354TIP3    H216027   4.909   1.428   3.891 -0.3684 -0.8620  2.1129
 5355TIP3   OH216028   0.740   5.765   2.165  0.0957  0.1320  0.7197
 5355TIP3    H116029   0.655   5.750   2.206 -0.7961  2.5142 -0.0810
 5355TIP3    H216030   0.719   5.796   2.077  1.8584 -0.6729 -0.0364
 5356TIP3   OH216031   2.114   6.068   2.596  0.5712 -0.0334 -0.0361
 5356TIP3    H116032   2.064   6.130   2.543  0.2484 -0.5997 -0.4013
 5356TIP3    H216033   2.077   5.983   2.574  0.2159 -0.2587  1.3323
 5357TIP3   OH216034   5.643   0.582   0.362 -0.2819  0.1499 -0.2559
 5357TIP3    H116035   5.667   0.618   0.448 -0.5163  1.8725 -0.8609
 5357TIP3    H216036   5.548   0.590   0.359 -0.4275 -1.3768 -0.0737
 5358TIP3   OH216037   5.926   0.755   4.954  0.0818 -0.1540 -0.1963
 5358TIP3    H116038   5.833   0.748   4.932 -0.0706  0.1418  0.3389
 5358TIP3    H216039   5.940   0.848   4.971  0.5909 -0.1227 -0.7495
 5359TIP3   OH216040   6.711   5.953   3.560  0.5552  0.2604  0.3944
 5359TIP3    H116041   6.748   5.866   3.571 -0.0283 -0.1305 -0.6273
 5359TIP3    H216042   6.628   5.939   3.515 -0.1738  1.2424  1.3569
 5360TIP3   OH216043   7.088   5.254   5.202  0.0927 -0.2652  0.3863
 5360TIP3    H116044   7.159   5.232   5.141 -0.2821  0.6094 -0.4017
 5360TIP3    H216045   7.115   5.337   5.241 -1.3302  1.1042 -1.3674
 5361TIP3   OH216046   3.995   2.797   2.311  0.4394 -0.3940  0.8872
 5361TIP3    H116047   3.929   2.729   2.322  0.4350 -0.3864  0.9097
 5361TIP3    H216048   4.076   2.748   2.294  0.3809 -0.3956  0.6090
 5362TIP3   OH216049   1.285   5.496   0.048  0.2225  0.1160  0.1746
 5362TIP3    H116050   1.354   5.536  -0.004 -0.4333 -0.8086 -1.4666
 5362TIP3    H216051   1.237   5.441  -0.013 -1.9131  0.6353  1.2833
 5363TIP3   OH216052   2.840   3.519   1.665  0.1792 -0.2499  0.4117
 5363TIP3    H116053   2.889   3.601   1.673  1.2453 -0.8442  0.1721
 5363TIP3    H216054   2.856   3.491   1.575  1.4867 -1.7169  1.0586
 5364TIP3   OH216055   0.357   2.974   2.071 -0.2634  0.0409  0.4416
 5364TIP3    H116056   0.284   3.035   2.078  1.0778  1.5545  3.2500
 5364TIP3    H216057   0.317   2.887   2.072 -2.0868  0.8225 -0.4213
 5365TIP3   OH216058   4.315   4.039   3.008 -0.2211 -0.1718 -0.1864
 5365TIP3    H116059   4.349   4.058   2.921  0.1853 -1.0444 -0.2212
 5365TIP3    H216060   4.323   3.945   3.018  0.0653 -0.0475  0.9312
 5366TIP3   OH216061   3.123   0.159   1.432  0.0646  0.0217  0.0567
 5366TIP3    H116062   3.172   0.221   1.486  0.3996 -0.4199  0.2572
 5366TIP3    H216063   3.120   0.079   1.483 -0.7917  0.0108  0.0076
 5367TIP3   OH216064   3.492   4.318   1.737 -0.0599 -0.6536  0.0179
 5367TIP3    H116065   3.404   4.302   1.769  0.1241 -1.3347  0.2039
 5367TIP3    H216066   3.508   4.411   1.755 -1.5648  0.1091 -2.0748
 5368TIP3   OH216067   6.867   5.878   5.725 -0.1411  0.5622 -0.2211
 5368TIP3    H116068   6.961   5.877   5.741 -0.1323  1.5397 -0.1846
 5368TIP3    H216069   6.830   5.826   5.797  0.3793 -0.0518 -0.3883
 5369TIP3   OH216070   2.793   3.894   4.286 -0.0933  0.4692 -0.1046
 5369TIP3    H116071   2.700   3.879   4.301 -0.0524  0.7793  0.5108
 5369TIP3    H216072   2.797   3.946   4.206 -0.4113 -0.0537 -0.4633
 5370TIP3   OH216073   5.604   5.045   5.196 -0.2218 -0.3894 -0.2881
 5370TIP3    H116074   5.579   5.046   5.103 -2.8699 -0.2896  0.3316
 5370TIP3    H216075   5.524   5.072   5.242  0.7382 -1.3379  2.0825
 5371TIP3   OH216076   0.664   0.624   1.994 -0.2158 -0.3364 -0.1538
 5371TIP3    H116077   0.626   0.621   2.082 -0.3152  2.0066 -0.0769
 5371TIP3    H216078   0.603   0.575   1.940 -1.6469  0.6047  0.5687
 5372TIP3   OH216079   1.879   3.785   5.617 -0.0823 -0.1075  0.5435
 5372TIP3    H116080   1.874   3.705   5.668  0.6462 -0.2972  0.3418
 5372TIP3    H216081   1.953   3.770   5.558 -1.3305 -0.1918 -1.0693
 5373TIP3   OH216082   1.543   2.567   4.930  0.2949 -0.8299  0.3229
 5373TIP3    H116083   1.576   2.481   4.904 -0.2371 -0.8435 -0.3287
 5373TIP3    H216084   1.605   2.596   4.997  0.8687 -1.4240  0.0728
 5374TIP3   OH216085   4.973   0.226   5.170 -0.3248 -0.1744 -0.2824
 5374TIP3    H116086   4.959   0.133   5.188  0.4112 -0.0195  1.2275
 5374TIP3    H216087   4.886   0.265   5.177 -0.4557 -0.5637  0.2929
 5375TIP3   OH216088   2.215   5.965   0.827  0.1573  0.8113  0.1010
 5375TIP3    H116089   2.147   5.993   0.766 -0.3394  2.1421  1.2138
 5375TIP3    H216090   2.192   5.875   0.850 -1.9443  1.5917  1.3456
 5376TIP3   OH216091   0.202   0.125   1.712 -0.1961 -0.2184  0.2556
 5376TIP3    H116092   0.289   0.145   1.748  0.4296 -0.9983 -0.7628
 5376TIP3    H216093   0.191   0.189   1.641 -0.9578  0.6029  1.0741
 5377TIP3   OH216094   4.898   4.714   3.337  0.3158 -0.1610  0.2786
 5377TIP3    H116095   4.907   4.773   3.262  2.6196  1.5513  1.7842
 5377TIP3    H216096   4.986   4.680   3.352 -0.7739 -3.5388 -0.0252
 5378TIP3   OH216097   5.666   2.268   2.020  0.3710 -0.3120  0.0724
 5378TIP3    H116098   5.647   2.184   2.063  0.4325 -0.1275  0.4711
 5378TIP3    H216099   5.615   2.332   2.070  1.0296  0.0115  0.3407
 5379TIP3   OH216100   3.092   3.529   3.554 -0.0297 -0.4991 -0.8423
 5379TIP3    H116101   3.048   3.601   3.509  0.0362 -0.6442 -1.1455
 5379TIP3    H216102   3.027   3.498   3.618  0.4980  0.8142  0.3745
 5380TIP3   OH216103   2.351   3.929   0.620  0.2452  0.2193  0.0838
 5380TIP3    H116104   2.307   4.003   0.661  0.4373  0.2188  0.2958
 5380TIP3    H216105   2.347   3.860   0.686 -0.5279 -0.1799 -0.3617
 5381TIP3   OH216106   4.974   1.314   4.875 -0.3138 -0.0631  1.1250
 5381TIP3    H116107   5.049   1.272   4.918 -0.2261 -1.5753 -0.3786
 5381TIP3    H216108   4.904   1.250   4.881  0.2016 -1.2234 -2.4121
 5382TIP3   OH216109   3.115   6.549   3.550  0.1658  0.1348 -0.5663
 5382TIP3    H116110   3.111   6.567   3.644  0.2780  0.7282 -0.6658
 5382TIP3    H216111   3.074   6.626   3.510  1.1917  0.4573 -1.0430
 5383TIP3   OH216112   3.306   2.107   1.467 -0.5031  0.0909  0.2211
 5383TIP3    H116113   3.278   2.195   1.443 -2.2789 -0.4011  0.3814
 5383TIP3    H216114   3.336   2.115   1.557 -0.2619  0.5935  0.1022
 5384TIP3   OH216115   5.478   4.407   2.333 -0.1033  0.2909  0.0145
 5384TIP3    H116116   5.453   4.319   2.360 -1.0017  0.1874 -1.0893
 5384TIP3    H216117   5.573   4.404   2.325 -0.0425 -0.3169  0.8359
 5385TIP3   OH216118   4.089   5.466   4.621  0.1580  0.1079  0.1210
 5385TIP3    H116119   4.169   5.465   4.568  0.7640 -0.9876  1.0154
 5385TIP3    H216120   4.032   5.529   4.577  1.6981  1.3103 -0.2482
 5386TIP3   OH216121   5.804   4.844   2.396 -0.2159 -0.1722  0.2551
 5386TIP3    H116122   5.778   4.935   2.387  0.4249 -0.1471 -2.0180
 5386TIP3    H216123   5.880   4.835   2.339 -0.2126 -2.0996  0.4914
 5387TIP3   OH216124   0.734   4.154   5.215  0.5135  0.3603  0.1357
 5387TIP3    H116125   0.682   4.076   5.199  1.2559 -0.3932  1.2266
 5387TIP3    H216126   0.742   4.196   5.129 -2.1026  0.6797 -0.0274
 5388TIP3   OH216127   1.849   4.708   3.535 -0.3949  0.1022 -0.1060
 5388TIP3    H116128   1.857   4.775   3.467 -1.3669 -0.5170 -0.8584
 5388TIP3    H216129   1.757   4.713   3.562 -0.3404 -0.5558  0.2216
 5389TIP3   OH216130   5.248   1.189   5.793  0.4714 -0.1750 -0.0106
 5389TIP3    H116131   5.242   1.284   5.804 -0.6846 -0.2868  0.4198
 5389TIP3    H216132   5.341   1.169   5.808  0.1192  0.4020  4.0737
 5390TIP3   OH216133   1.627   5.233   0.450  0.1288  0.1361 -0.0781
 5390TIP3    H116134   1.717   5.201   0.453 -0.2332 -0.8165  0.9811
 5390TIP3    H216135   1.616   5.280   0.532  0.1347  1.6500 -0.9008
 5391TIP3   OH216136   4.027   6.342   5.039  0.3814  0.1355  0.5895
 5391TIP3    H116137   3.998   6.302   5.121  1.4591 -0.6694  0.6035
 5391TIP3    H216138   3.954   6.397   5.012 -1.1678 -1.7635  0.6460
 5392TIP3   OH216139   6.267   6.247   4.465  0.6894  0.4543  0.2177
 5392TIP3    H116140   6.314   6.298   4.531 -0.3509  1.5184  0.1809
 5392TIP3    H216141   6.309   6.272   4.382  0.7882  0.5354  0.2915
 5393TIP3   OH216142   3.164   4.838   2.728 -0.4479 -0.2940 -0.6209
 5393TIP3    H116143   3.161   4.862   2.636 -0.3489  0.2698 -0.4807
 5393TIP3    H216144   3.107   4.762   2.735  1.2587 -1.7667 -1.5710
 5394TIP3   OH216145   5.256   2.566   4.175 -0.5667 -0.7286 -0.5264
 5394TIP3    H116146   5.287   2.644   4.222 -2.0280 -0.9418  0.8883
 5394TIP3    H216147   5.329   2.505   4.179 -0.1251 -0.1799  0.1419
 5395TIP3   OH216148   6.982   6.152   2.581  0.6586 -0.4329 -0.1286
 5395TIP3    H116149   6.940   6.233   2.553  1.7960  0.4457  0.6038
 5395TIP3    H216150   7.039   6.179   2.653  0.1796 -2.0816  0.9259
 5396TIP3   OH216151   2.869   5.729   0.786  0.4393  0.1261  0.2853
 5396TIP3    H116152   2.869   5.773   0.872 -2.2084 -0.4456  0.6636
 5396TIP3    H216153   2.809   5.656   0.797  2.3549 -1.7990 -1.2592
 5397TIP3   OH216154   4.872   5.416   3.944  0.3927  0.1922  0.2744
 5397TIP3    H116155   4.813   5.416   3.869  0.9426 -0.1762 -0.1652
 5397TIP3    H216156   4.816   5.439   4.018 -0.4836 -0.9398  0.0021
 5398TIP3   OH216157   3.353   2.763   3.185  0.4419  0.1717 -0.5103
 5398TIP3    H116158   3.426   2.773   3.124 -0.7017 -1.1538 -2.1702
 5398TIP3    H216159   3.280   2.734   3.131 -0.3703 -2.0804  1.6266
 5399TIP3   OH216160   1.140   0.649   1.962 -0.3249 -0.2640 -0.1175
 5399TIP3    H116161   1.108   0.636   2.052 -0.2194 -0.5374 -0.1183
 5399TIP3    H216162   1.103   0.732   1.935  1.1510  0.7592  0.8507
 5400TIP3   OH216163   5.116   4.353   2.259 -0.1017 -0.3912  0.2110
 5400TIP3    H116164   5.047   4.382   2.199  0.1911  1.6506  0.8106
 5400TIP3    H216165   5.185   4.418   2.250  0.8474 -1.2116  1.2357
 5401TIP3   OH216166   1.338   2.813   4.376  0.1307  0.1828  0.3164
 5401TIP3    H116167   1.381   2.838   4.457  1.8572 -0.1382 -0.4399
 5401TIP3    H216168   1.410   2.796   4.315 -1.0901  1.1267 -1.5080
 5402TIP3   OH216169   6.168   0.261   0.165  0.1119  0.1816  0.2195
 5402TIP3    H116170   6.226   0.321   0.118 -1.2522  1.5855  0.2348
 5402TIP3    H216171   6.207   0.252   0.251  0.9341  0.1478 -0.1492
 5403TIP3   OH216172   1.400   5.734   5.486 -0.6277  0.4355 -0.0181
 5403TIP3    H116173   1.483   5.693   5.512 -0.0429  0.4325 -1.7793
 5403TIP3    H216174   1.407   5.823   5.520  0.6163  0.7818 -1.0950
 5404TIP3   OH216175   2.289   6.381   2.236  0.1467 -0.0816 -0.1915
 5404TIP3    H116176   2.239   6.300   2.240  0.2488 -0.1260  0.2721
 5404TIP3    H216177   2.324   6.383   2.147 -2.2673  0.9296 -1.2014
 5405TIP3   OH216178   5.574   4.092   2.732  0.7986  0.4083 -0.1744
 5405TIP3    H116179   5.567   4.180   2.769 -0.2865  0.6311 -0.8774
 5405TIP3    H216180   5.533   4.035   2.797  1.4917  0.4117  0.2764
 5406TIP3   OH216181   1.289   4.209   4.621  0.5953  0.0347 -0.4248
 5406TIP3    H116182   1.241   4.169   4.549  1.8531 -0.8504 -0.7901
 5406TIP3    H216183   1.379   4.218   4.589  1.3052 -0.8486  1.1751
 5407TIP3   OH216184   3.692   5.324   2.509  0.9221  0.1403  0.2139
 5407TIP3    H116185   3.677   5.366   2.594 -0.4997  0.4145 -0.1339
 5407TIP3    H216186   3.608   5.283   2.487  1.1706  0.3036 -1.1703
 5408TIP3   OH216187   2.664   3.844   1.030 -0.1662 -0.2901 -0.1485
 5408TIP3    H116188   2.634   3.754   1.041 -0.6207 -0.3474 -1.6970
 5408TIP3    H216189   2.702   3.847   0.942  1.7877  0.5209  0.6680
 5409TIP3   OH216190   7.120   3.340   5.620 -0.1694  0.1068 -0.3510
 5409TIP3    H116191   7.025   3.344   5.626 -0.2448 -2.2723  2.0583
 5409TIP3    H216192   7.138   3.294   5.538 -1.2414 -1.1879  0.1037
 5410TIP3   OH216193   1.168   4.955   3.729 -0.6665  0.3613 -0.4061
 5410TIP3    H116194   1.166   4.946   3.824 -0.8090  1.5345 -0.2783
 5410TIP3    H216195   1.201   5.044   3.714 -1.4601  0.4993 -1.4327
 5411TIP3   OH216196   6.537   6.506   3.922  0.3127  0.3006 -0.0910
 5411TIP3    H116197   6.622   6.477   3.890  0.2982 -0.8391  0.8002
 5411TIP3    H216198   6.549   6.598   3.943  0.6538  0.7650 -2.1291
 5412TIP3   OH216199   2.067   6.802   3.880 -0.3513 -0.2292 -0.4381
 5412TIP3    H116200   1.985   6.780   3.925  1.5106 -3.7989  1.5943
 5412TIP3    H216201   2.092   6.722   3.835  2.3183  0.6142 -0.5922
 5413TIP3   OH216202   5.832   3.638   1.147 -0.0622  0.1502  0.0941
 5413TIP3    H116203   5.778   3.572   1.103 -0.0051 -0.0195  0.2809
 5413TIP3    H216204   5.921   3.621   1.115  0.5167 -1.8913  2.4999
 5414TIP3   OH216205   5.781   0.278   5.526  0.5840  0.1968  0.6419
 5414TIP3    H116206   5.728   0.346   5.567 -0.7852 -0.8251  0.6088
 5414TIP3    H216207   5.866   0.320   5.511  0.1086  1.5523  1.6031
 5415TIP3   OH216208   5.616   1.823   2.144  0.0253  1.1668  0.1191
 5415TIP3    H116209   5.667   1.837   2.223 -0.1094  0.1840  0.3999
 5415TIP3    H216210   5.525   1.828   2.173 -0.0686 -1.4914  0.5426
 5416TIP3   OH216211   5.077   1.382   1.812  0.5706  0.1535 -0.9318
 5416TIP3    H116212   5.098   1.426   1.895  1.9349  1.9944 -2.1855
 5416TIP3    H216213   4.986   1.406   1.795  0.4973  0.3390 -0.3206
 5417TIP3   OH216214   5.541   2.082   5.515 -0.1035 -0.3721  0.0330
 5417TIP3    H116215   5.589   2.127   5.584 -1.0938  1.2549 -0.2911
 5417TIP3    H216216   5.449   2.090   5.540 -0.4842  0.2513 -1.4452
 5418TIP3   OH216217   6.456   2.534   3.685  0.1610  0.1593  0.3273
 5418TIP3    H116218   6.419   2.446   3.691  0.7628 -0.0628  0.9133
 5418TIP3    H216219   6.512   2.532   3.608 -0.0117  0.1049  0.2013
 5419TIP3   OH216220   6.960   0.417   0.920 -0.3913  0.0684  0.6109
 5419TIP3    H116221   6.982   0.403   1.012  1.0672  0.6904  0.3878
 5419TIP3    H216222   6.930   0.508   0.916 -1.2624 -0.2099  0.5939
 5420TIP3   OH216223   1.841   5.988   2.864  0.2101 -0.1452  0.7889
 5420TIP3    H116224   1.806   5.908   2.905  1.9749 -1.3550  0.0686
 5420TIP3    H216225   1.915   6.013   2.920  2.7897 -1.9394 -1.5395
 5421TIP3   OH216226   5.063   1.974   5.373 -0.4329  0.3881 -0.0581
 5421TIP3    H116227   5.120   1.927   5.312  0.3445 -1.0987  1.7308
 5421TIP3    H216228   4.975   1.943   5.351 -0.1855  0.0174 -0.5412
 5422TIP3   OH216229   2.902   4.706   2.504  0.2407  0.3991  0.7974
 5422TIP3    H116230   2.898   4.791   2.547  2.3453  0.2957  1.3075
 5422TIP3    H216231   2.959   4.653   2.561 -0.5677 -1.1894  0.2135
 5423TIP3   OH216232   2.907   4.163   1.958 -0.3392 -0.2985 -0.6720
 5423TIP3    H116233   2.862   4.209   1.887  0.1676  0.6948 -0.3740
 5423TIP3    H216234   2.997   4.195   1.953 -0.5445  0.7014  1.1380
 5424TIP3   OH216235   3.965   1.908   0.583  0.2987 -0.0917  0.3566
 5424TIP3    H116236   4.050   1.865   0.573  0.5230  0.2163  0.9084
 5424TIP3    H216237   3.902   1.836   0.594  0.4973 -0.3157  0.0096
 5425TIP3   OH216238   4.797   1.447   0.051  0.3291  0.1415  0.6491
 5425TIP3    H116239   4.749   1.371   0.017 -1.3909  1.2360  0.4638
 5425TIP3    H216240   4.795   1.510  -0.022  1.6775  0.3952  0.8150
 5426TIP3   OH216241   0.093   3.127   2.993 -0.1045 -0.1696  0.1976
 5426TIP3    H116242   0.054   3.041   3.005  0.1889 -0.3470 -0.0932
 5426TIP3    H216243   0.061   3.156   2.907  0.9042 -0.5901 -0.3279
 5427TIP3   OH216244   0.365   0.382   1.248 -0.2006  0.1688  0.2477
 5427TIP3    H116245   0.352   0.338   1.164 -1.4451  1.9770 -0.5876
 5427TIP3    H216246   0.458   0.404   1.249 -0.0874 -0.2210 -0.4834
 5428TIP3   OH216247   1.562   5.227   2.820 -0.1112 -0.0851  0.0916
 5428TIP3    H116248   1.603   5.248   2.904 -0.6418 -1.6768  0.7984
 5428TIP3    H216249   1.474   5.197   2.844 -0.3776 -0.2640 -1.0704
 5429TIP3   OH216250   5.290   2.327   5.398 -1.0991  0.5230 -0.8354
 5429TIP3    H116251   5.266   2.276   5.476 -3.1429 -0.5198 -2.0695
 5429TIP3    H216252   5.293   2.417   5.429 -2.6363  0.2167  0.3262
 5430TIP3   OH216253   4.675   0.071   1.103  0.7365 -0.5155  0.9676
 5430TIP3    H116254   4.695   0.159   1.071 -1.3828 -0.6769 -1.1363
 5430TIP3    H216255   4.728   0.013   1.049  1.4991 -0.5847  1.7770
 5431TIP3   OH216256   0.394   4.681   1.713  0.1479  0.6281  0.6169
 5431TIP3    H116257   0.371   4.605   1.659 -2.8845  2.2455 -0.6034
 5431TIP3    H216258   0.410   4.752   1.651  1.2244  1.4516  1.7755
 5432TIP3   OH216259   0.615   2.839   3.097 -0.0361  0.2748 -0.5841
 5432TIP3    H116260   0.707   2.865   3.092 -0.2724  1.0047 -1.3851
 5432TIP3    H216261   0.612   2.774   3.168  1.0138  0.5639 -0.2554
 5433TIP3   OH216262   7.019   2.462   3.421  0.6453 -0.3812 -0.1073
 5433TIP3    H116263   6.992   2.554   3.417 -1.9794 -1.0951 -1.6546
 5433TIP3    H216264   7.079   2.457   3.495 -1.1852  2.0915  1.6874
 5434TIP3   OH216265   6.255   2.333   3.422  0.0448 -0.0282 -0.4639
 5434TIP3    H116266   6.187   2.399   3.406  0.1433  0.2279  0.1361
 5434TIP3    H216267   6.264   2.287   3.339 -0.5374  0.2415 -0.6828
 5435TIP3   OH216268   5.473   2.431   2.815 -0.6963  0.3735  0.0521
 5435TIP3    H116269   5.536   2.502   2.811 -0.0697 -0.1645  0.3469
 5435TIP3    H216270   5.455   2.411   2.723  0.1378  0.0264 -0.0441
 5436TIP3   OH216271   4.592   1.563   5.197  0.1962  0.1049 -0.0391
 5436TIP3    H116272   4.575   1.602   5.111 -0.2461  0.4171  0.1857
 5436TIP3    H216273   4.561   1.628   5.260  2.7835  0.9970  0.4453
 5437TIP3   OH216274   7.081   1.470   1.355 -0.1202 -0.4547 -0.5238
 5437TIP3    H116275   7.151   1.449   1.293  0.8666  0.6598  0.1795
 5437TIP3    H216276   7.126   1.500   1.434 -1.3811  0.8261 -0.2343
 5438TIP3   OH216277   3.982   6.695   3.926  0.6222 -0.0836 -0.2605
 5438TIP3    H116278   3.937   6.702   4.010 -1.5034 -1.1658 -1.2117
 5438TIP3    H216279   4.072   6.722   3.944  0.0464  0.4711  2.1635
 5439TIP3   OH216280   3.701   5.049   1.774  0.1062 -0.1438  0.3507
 5439TIP3    H116281   3.660   5.127   1.736 -1.3996 -0.0828  1.9685
 5439TIP3    H216282   3.735   5.080   1.859  0.7234 -0.9442  0.4062
 5440TIP3   OH216283   3.745   1.296   5.116  0.0011 -0.1805  0.2607
 5440TIP3    H116284   3.788   1.305   5.031  0.4662 -2.5402  0.1712
 5440TIP3    H216285   3.653   1.277   5.094  0.3724 -2.0776  0.1818
 5441TIP3   OH216286   6.003   3.314   2.945  0.0335  1.1608 -0.4608
 5441TIP3    H116287   5.941   3.247   2.918  0.0212  1.0013 -0.0531
 5441TIP3    H216288   5.948   3.386   2.977  0.0552  1.1267 -0.3472
 5442TIP3   OH216289   4.066   3.642   5.004 -0.1272 -0.6160 -0.3580
 5442TIP3    H116290   4.036   3.722   4.960 -1.7560 -0.5929  0.7159
 5442TIP3    H216291   4.052   3.573   4.940 -2.4122 -0.5783  0.0406
 5443TIP3   OH216292   1.600   5.207   1.766 -0.4091  0.4685 -0.2295
 5443TIP3    H116293   1.624   5.117   1.743 -0.7263  0.1257  0.7211
 5443TIP3    H216294   1.653   5.261   1.708  1.3870 -0.2906  0.6150
 5444TIP3   OH216295   6.735   1.506   2.803  0.2452  0.1733  0.5044
 5444TIP3    H116296   6.731   1.601   2.814  0.4926  0.5751 -2.2284
 5444TIP3    H216297   6.760   1.493   2.712  0.7168 -2.5397  0.9284
 5445TIP3   OH216298   2.920   5.280   0.849  0.2264 -0.2467 -0.3892
 5445TIP3    H116299   2.976   5.205   0.830  0.9239  0.1525  0.0560
 5445TIP3    H216300   2.948   5.347   0.786  1.1559  0.3944  0.6750
 5446TIP3   OH216301   2.980   1.808   3.955  0.2910  0.0571 -0.5242
 5446TIP3    H116302   3.059   1.835   3.907  0.7574 -1.1069 -0.4506
 5446TIP3    H216303   2.943   1.890   3.987  1.1540  0.6825 -1.0500
 5447TIP3   OH216304   6.284   2.137   1.295 -0.3818 -0.1208 -0.2920
 5447TIP3    H116305   6.269   2.073   1.225  2.0808  0.7357 -1.6908
 5447TIP3    H216306   6.311   2.084   1.370 -0.6259 -0.8682 -0.7185
 5448TIP3   OH216307   5.328   6.354   3.812 -0.0707 -0.7700 -0.2545
 5448TIP3    H116308   5.356   6.433   3.766 -0.7284  0.0862  0.7605
 5448TIP3    H216309   5.354   6.368   3.903  0.1345 -1.8956 -0.1232
 5449TIP3   OH216310   0.580   4.212   2.926 -0.7237 -0.5841  0.4065
 5449TIP3    H116311   0.514   4.250   2.984 -0.3026  0.9497 -0.0815
 5449TIP3    H216312   0.539   4.213   2.840  0.0868  0.8202  0.0173
 5450TIP3   OH216313   2.759   1.436   4.358  0.6805 -0.4215 -0.1004
 5450TIP3    H116314   2.809   1.472   4.284 -0.1682  0.7068 -0.1612
 5450TIP3    H216315   2.823   1.385   4.407  1.0919 -1.8657 -2.0231
 5451TIP3   OH216316   6.479   4.913   5.681  0.4355 -0.9937  0.5689
 5451TIP3    H116317   6.515   4.825   5.677  1.0456 -0.7668  0.9349
 5451TIP3    H216318   6.473   4.941   5.589  2.5707 -0.4987  0.5227
 5452TIP3   OH216319   3.661   5.208   5.496 -0.0588 -0.4174  0.2418
 5452TIP3    H116320   3.620   5.278   5.445  0.1610 -0.8393 -0.5334
 5452TIP3    H216321   3.704   5.253   5.569  0.0660  0.2572 -0.2416
 5453TIP3   OH216322   4.791   2.669   2.088  0.3210 -0.4366 -0.6873
 5453TIP3    H116323   4.830   2.748   2.125  0.4143 -0.8094  0.0085
 5453TIP3    H216324   4.785   2.688   1.994  0.1203  0.4937 -0.4998
 5454TIP3   OH216325   6.570   3.404   2.647  0.0095  0.1437  0.0618
 5454TIP3    H116326   6.627   3.369   2.715 -0.8795 -2.6465 -0.5117
 5454TIP3    H216327   6.629   3.423   2.574  0.5183 -0.2099  0.3784
 5455TIP3   OH216328   4.345   4.383   1.203 -0.3538  0.1676 -0.6072
 5455TIP3    H116329   4.337   4.293   1.235 -2.2332 -0.4171 -2.5191
 5455TIP3    H216330   4.343   4.375   1.108 -1.5999  2.3131 -0.8202
 5456TIP3   OH216331   4.900   2.685   3.437  0.1550 -0.0507  0.0401
 5456TIP3    H116332   4.979   2.632   3.422  0.4942  0.2082  0.8571
 5456TIP3    H216333   4.827   2.628   3.414  0.5832 -0.1861 -1.0538
 5457TIP3   OH216334   3.031   1.921   5.047  0.0664 -0.3824  0.9502
 5457TIP3    H116335   2.984   1.979   4.987 -0.6468 -2.2103 -0.3547
 5457TIP3    H216336   3.118   1.959   5.054 -0.0726  0.3180 -0.6603
 5458TIP3   OH216337   1.714   6.686   4.769 -0.7496 -0.5834  0.2153
 5458TIP3    H116338   1.661   6.668   4.691 -0.2674  0.7338 -0.4562
 5458TIP3    H216339   1.799   6.648   4.749  0.1247  1.7545 -1.0043
 5459TIP3   OH216340   4.334   4.676   1.236  0.0926 -0.9608 -0.2120
 5459TIP3    H116341   4.287   4.671   1.320  1.5618 -0.4562  0.6718
 5459TIP3    H216342   4.373   4.590   1.225 -0.1412 -1.0424 -0.4027
 5460TIP3   OH216343   1.656   6.415   2.493  0.4802 -0.2309  0.3411
 5460TIP3    H116344   1.696   6.419   2.580 -1.0732  3.4661  1.0407
 5460TIP3    H216345   1.685   6.495   2.449  0.0296 -1.2878 -2.0337
 5461TIP3   OH216346   5.406   1.391   4.292 -0.1206  0.1745  0.7778
 5461TIP3    H116347   5.313   1.368   4.286 -0.1060  0.1975  0.3871
 5461TIP3    H216348   5.439   1.377   4.203  0.7259 -1.8251  1.3717
 5462TIP3   OH216349   4.201   2.903   0.591 -0.0528 -0.0693 -0.3094
 5462TIP3    H116350   4.182   2.809   0.597  1.8384 -0.5133 -0.5924
 5462TIP3    H216351   4.292   2.907   0.560 -0.1966  1.8676 -0.5886
 5463TIP3   OH216352   0.655   2.041   0.431  0.6653 -0.1001 -0.0168
 5463TIP3    H116353   0.704   2.083   0.361 -1.2141  2.1505 -0.1143
 5463TIP3    H216354   0.645   1.950   0.403  0.8259  0.4956 -2.1635
 5464TIP3   OH216355   3.242   0.048   3.664 -0.2138 -0.1669  0.2766
 5464TIP3    H116356   3.235   0.143   3.664 -0.4378 -0.1689 -1.2114
 5464TIP3    H216357   3.151   0.017   3.670 -0.3219 -0.2515 -1.3050
 5465TIP3   OH216358   1.537   3.533   1.566 -0.1470 -0.1115 -0.0222
 5465TIP3    H116359   1.553   3.446   1.528  0.7129 -0.8425  1.8894
 5465TIP3    H216360   1.496   3.515   1.651  0.0830  1.3496  0.4285
 5466TIP3   OH216361   1.321   5.482   5.336 -0.4813 -0.2719 -0.1504
 5466TIP3    H116362   1.365   5.398   5.354 -0.0321 -0.0393 -0.1544
 5466TIP3    H216363   1.364   5.544   5.394 -1.0523 -0.1093  0.0999
 5467TIP3   OH216364   4.115   5.673   1.181  0.1612 -0.3275 -0.2853
 5467TIP3    H116365   4.174   5.651   1.109 -0.5377 -0.0950 -0.9434
 5467TIP3    H216366   4.161   5.741   1.230  0.4429 -0.1625 -0.7732
 5468TIP3   OH216367   0.606   0.203   1.675 -0.2975 -0.1262  0.0094
 5468TIP3    H116368   0.527   0.245   1.640 -0.0406  0.8505  0.5599
 5468TIP3    H216369   0.584   0.187   1.767 -0.3279 -1.0520 -0.1580
 5469TIP3   OH216370   2.010   0.649   1.870 -0.2519 -0.3680 -0.4422
 5469TIP3    H116371   2.079   0.679   1.809 -1.1038 -0.9205 -1.7169
 5469TIP3    H216372   1.946   0.720   1.869 -0.4750 -0.5723 -0.5241
 5470TIP3   OH216373   2.954   5.495   4.170  0.5497  0.0977  0.6371
 5470TIP3    H116374   2.863   5.489   4.198  0.4079 -1.3576  0.0115
 5470TIP3    H216375   3.001   5.526   4.246 -0.4667  0.8304  0.9841
 5471TIP3   OH216376   4.475   2.221   5.360  0.9137  0.2725 -0.3771
 5471TIP3    H116377   4.551   2.270   5.391  0.1371  2.5300 -1.7874
 5471TIP3    H216378   4.438   2.276   5.290 -1.0570 -1.5332 -0.8563
 5472TIP3   OH216379   3.713   4.444   3.646 -0.9910 -0.9764  0.3351
 5472TIP3    H116380   3.804   4.450   3.675 -0.7424 -2.1278 -0.1258
 5472TIP3    H216381   3.690   4.352   3.659 -2.1009 -0.6977  0.4580
 5473TIP3   OH216382   2.902   0.046   1.035 -0.2495  1.3202  0.1182
 5473TIP3    H116383   2.949  -0.019   1.088  2.9364  3.6413  0.4296
 5473TIP3    H216384   2.881   0.116   1.097  0.7330  2.6825 -1.0382
 5474TIP3   OH216385   6.934   3.792   1.118 -0.4145 -0.3410  0.2387
 5474TIP3    H116386   7.023   3.794   1.152 -0.3151  1.3872 -0.0002
 5474TIP3    H216387   6.943   3.758   1.029  0.3688  1.7795 -0.5652
 5475TIP3   OH216388   0.541   4.903   4.405  0.4772 -0.5588 -0.3471
 5475TIP3    H116389   0.603   4.845   4.449 -0.8928 -0.3612  1.9785
 5475TIP3    H216390   0.593   4.946   4.338  2.6362 -1.0720  0.8950
 5476TIP3   OH216391   5.529   1.425   5.796 -0.2478  0.7463 -0.0393
 5476TIP3    H116392   5.503   1.409   5.886 -1.9023  1.0624 -0.4267
 5476TIP3    H216393   5.622   1.402   5.793  0.2407  2.1631  2.0809
 5477TIP3   OH216394   0.069   6.573   1.816 -0.0029 -0.7505  0.0158
 5477TIP3    H116395   0.028   6.582   1.730  0.6114 -2.7423 -0.5400
 5477TIP3    H216396   0.160   6.599   1.802  0.1342 -1.2172 -0.0045
 5478TIP3   OH216397   2.506   4.711   0.540 -0.2118 -0.6108 -0.1646
 5478TIP3    H116398   2.585   4.682   0.497 -0.3041  1.5737 -1.9998
 5478TIP3    H216399   2.449   4.634   0.541  1.1818 -1.6863 -0.5479
 5479TIP3   OH216400   4.940   3.299   2.015  0.3939 -0.0453  0.2249
 5479TIP3    H116401   4.991   3.226   1.979  1.5158  1.5921 -1.6917
 5479TIP3    H216402   4.917   3.352   1.939 -2.1491  0.5784  1.3418
 5480TIP3   OH216403   4.223   0.126   2.735  0.5587 -0.7487  0.0835
 5480TIP3    H116404   4.307   0.082   2.720  0.3970 -1.2616  0.6326
 5480TIP3    H216405   4.164   0.088   2.671  1.0108  0.4306 -1.0715
 5481TIP3   OH216406   1.182   0.763   2.494 -0.6828  0.4971  0.4152
 5481TIP3    H116407   1.277   0.756   2.487 -0.4775 -0.7338  3.0231
 5481TIP3    H216408   1.164   0.857   2.488  0.6242  0.7052 -0.6180
 5482TIP3   OH216409   1.133   3.516   4.412  0.1668 -0.5436  0.0770
 5482TIP3    H116410   1.046   3.502   4.449 -0.3061 -0.0972 -0.8390
 5482TIP3    H216411   1.191   3.462   4.466 -0.5629 -0.2728  1.1630
 5483TIP3   OH216412   3.217   0.647   2.811 -0.1178 -0.4220 -0.2661
 5483TIP3    H116413   3.239   0.574   2.868 -0.5152 -1.2125 -1.1096
 5483TIP3    H216414   3.125   0.635   2.789  0.3648 -0.9665 -2.2059
 5484TIP3   OH216415   2.706   5.720   3.839 -0.1949  0.6224  0.0803
 5484TIP3    H116416   2.692   5.782   3.911  1.2206  0.4621  0.5265
 5484TIP3    H216417   2.696   5.773   3.760 -3.5471  0.4426  0.2622
 5485TIP3   OH216418   6.592   0.646   0.360  0.3566  0.3490  0.1804
 5485TIP3    H116419   6.510   0.619   0.402 -0.7334  1.8425 -0.8760
 5485TIP3    H216420   6.651   0.667   0.433 -1.2104  2.0977  1.0082
 5486TIP3   OH216421   2.508   4.965   2.106  0.2506 -0.1324  0.3723
 5486TIP3    H116422   2.431   4.947   2.053 -0.9531 -0.2277  2.0558
 5486TIP3    H216423   2.473   4.998   2.189  2.0625  0.7868  0.8443
 5487TIP3   OH216424   4.938   0.955   4.381  0.1845 -0.4240 -0.0131
 5487TIP3    H116425   4.850   0.946   4.346  0.3579  0.1172 -0.6019
 5487TIP3    H216426   4.943   0.890   4.451 -0.6546 -0.5043 -0.0244
 5488TIP3   OH216427   4.897   0.627   1.151  0.3003  1.0140  0.2220
 5488TIP3    H116428   4.807   0.651   1.129 -0.3225 -1.6729 -0.6163
 5488TIP3    H216429   4.890   0.593   1.241 -0.4697 -2.8153 -1.0893
 5489TIP3   OH216430   7.144   0.317   2.529 -0.2172  0.5327  0.4707
 5489TIP3    H116431   7.173   0.367   2.453 -0.1863 -0.4562 -0.1961
 5489TIP3    H216432   7.172   0.368   2.604  2.3360  0.1686 -0.1362
 5490TIP3   OH216433   0.704   4.107   1.914  0.1615 -0.5890  0.5651
 5490TIP3    H116434   0.738   4.122   1.826  0.2657 -1.1816  0.4969
 5490TIP3    H216435   0.650   4.183   1.933  0.3130 -0.3572  0.0741
 5491TIP3   OH216436   1.571   3.056   1.247 -0.2962  0.1456 -0.3059
 5491TIP3    H116437   1.628   3.073   1.322  0.9111  1.1597 -1.3952
 5491TIP3    H216438   1.589   2.966   1.222  0.0689  0.1279  0.0115
 5492TIP3   OH216439   5.682   4.299   5.867  0.4731 -0.3182  0.3503
 5492TIP3    H116440   5.645   4.228   5.920  0.1034  0.1572  0.7481
 5492TIP3    H216441   5.707   4.258   5.785  0.8488 -1.0309  0.8144
 5493TIP3   OH216442   3.571   3.836   4.138  0.3149  0.3369  0.2212
 5493TIP3    H116443   3.520   3.883   4.203  0.9810  1.3719  0.0119
 5493TIP3    H216444   3.609   3.762   4.187 -3.1871 -1.8804 -0.1134
 5494TIP3   OH216445   2.819   4.503   3.003 -0.0797  0.4287  0.2816
 5494TIP3    H116446   2.909   4.521   2.977 -0.1701  0.0109 -0.3575
 5494TIP3    H216447   2.799   4.568   3.070 -0.2882  2.4797 -1.6401
 5495TIP3   OH216448   4.375   1.488   2.124 -0.5026 -0.0441  0.1545
 5495TIP3    H116449   4.383   1.583   2.116 -1.8285 -0.0105 -1.3400
 5495TIP3    H216450   4.460   1.454   2.094 -0.1481  0.6490  0.3556
 5496TIP3   OH216451   2.519   1.993   4.826 -0.9568 -0.4321 -0.4658
 5496TIP3    H116452   2.526   2.000   4.731  0.4489 -1.0527 -0.4302
 5496TIP3    H216453   2.538   1.901   4.845 -2.4962 -0.6301  0.3383
 5497TIP3   OH216454   3.310   0.158   4.220 -0.0751 -0.1647 -0.0843
 5497TIP3    H116455   3.311   0.222   4.149  1.1711 -1.5424 -1.4016
 5497TIP3    H216456   3.287   0.075   4.177 -1.3908 -0.6728  1.5154
 5498TIP3   OH216457   6.923   0.774   1.851  0.5087 -0.4803 -0.2220
 5498TIP3    H116458   6.933   0.679   1.848  2.1107 -0.3971  1.1762
 5498TIP3    H216459   6.859   0.790   1.920  1.7505 -0.5164  0.9874
 5499TIP3   OH216460   5.765   4.498   0.262 -0.0064 -0.2528  0.6247
 5499TIP3    H116461   5.790   4.445   0.337 -3.1685 -0.8731  1.3896
 5499TIP3    H216462   5.756   4.587   0.298  1.3503  0.0654  0.2466
 5500TIP3   OH216463   7.165   3.885   0.499 -0.1397  0.6636  0.5991
 5500TIP3    H116464   7.105   3.834   0.445  0.1939 -0.0178  0.8567
 5500TIP3    H216465   7.217   3.935   0.437  1.8716 -1.8535  0.0605
 5501TIP3   OH216466   3.562   0.834   0.361 -0.3748 -0.1315  0.2364
 5501TIP3    H116467   3.492   0.895   0.335  0.8075  1.8712  1.4548
 5501TIP3    H216468   3.612   0.882   0.427  2.4035 -1.3136 -0.8446
 5502TIP3   OH216469   0.421   4.231   2.386 -0.0305 -0.6119 -0.1337
 5502TIP3    H116470   0.446   4.319   2.357  0.1180 -0.5475  0.1887
 5502TIP3    H216471   0.459   4.173   2.320  1.5984 -0.5691  0.7069
 5503TIP3   OH216472   3.035   2.218   3.016 -0.2348  0.2297 -0.4919
 5503TIP3    H116473   3.076   2.131   3.011 -0.9523 -0.1235 -0.3977
 5503TIP3    H216474   3.101   2.273   3.056 -0.2608 -0.6006  0.7632
 5504TIP3   OH216475   2.556   0.865   5.269 -0.0901  0.5220 -0.1257
 5504TIP3    H116476   2.497   0.792   5.286 -1.3451  1.9289  1.9729
 5504TIP3    H216477   2.520   0.907   5.191  0.2890 -0.6738 -0.9843
 5505TIP3   OH216478   1.308   0.718   3.900  0.0090  1.1688 -0.4577
 5505TIP3    H116479   1.369   0.768   3.954 -0.3416  0.0952  0.9721
 5505TIP3    H216480   1.345   0.630   3.897 -0.9435  0.7535 -0.4099
 5506TIP3   OH216481   3.583   4.121   5.441 -0.8099  0.3458 -0.0255
 5506TIP3    H116482   3.652   4.079   5.389 -1.7458 -1.4901  0.1167
 5506TIP3    H216483   3.630   4.158   5.516  0.0540 -0.7534  0.0088
 5507TIP3   OH216484   5.019   0.979   1.799  0.4556 -0.3146 -0.2876
 5507TIP3    H116485   5.031   1.041   1.727  0.3605 -0.2780 -0.2725
 5507TIP3    H216486   4.929   0.994   1.828  1.2297  1.4473  1.4888
 5508TIP3   OH216487   6.269   2.995   4.243 -0.1931 -0.7450 -0.1699
 5508TIP3    H116488   6.273   2.995   4.339 -1.0258 -0.7207 -0.1220
 5508TIP3    H216489   6.196   2.935   4.223 -1.4888  0.9330 -0.6996
 5509TIP3   OH216490   4.131   4.242   3.034  0.2329 -0.2932 -0.6771
 5509TIP3    H116491   4.175   4.314   3.079  0.9563 -1.8674  1.2739
 5509TIP3    H216492   4.193   4.169   3.038 -0.7215 -1.2422 -2.0380
 5510TIP3   OH216493   2.415   6.592   5.018 -0.1953 -0.3157 -0.0839
 5510TIP3    H116494   2.442   6.671   4.973 -1.8512  0.1111 -0.4012
 5510TIP3    H216495   2.377   6.537   4.950  0.6837 -1.2786  0.1775
 5511TIP3   OH216496   6.552   6.361   5.643  0.1254  0.3545 -0.5229
 5511TIP3    H116497   6.486   6.353   5.712  1.1162 -0.7085  0.3276
 5511TIP3    H216498   6.504   6.402   5.570 -1.2320  0.4548  0.3744
 5512TIP3   OH216499   3.656   1.325   4.543 -0.3463  0.0500  0.2166
 5512TIP3    H116500   3.746   1.337   4.574  0.1459  0.7761 -1.3965
 5512TIP3    H216501   3.619   1.414   4.543 -0.2724  0.1111 -1.3382
 5513TIP3   OH216502   4.775   3.420   0.858  0.0046 -0.1237 -0.2372
 5513TIP3    H116503   4.712   3.444   0.925 -0.4816 -1.4378 -0.2023
 5513TIP3    H216504   4.724   3.416   0.777  0.3323  0.2209 -0.4620
 5514TIP3   OH216505   1.009   6.262   1.154 -0.2812  0.0022 -0.3848
 5514TIP3    H116506   0.990   6.171   1.133 -0.1217 -0.8595  2.7617
 5514TIP3    H216507   1.043   6.299   1.072  1.2637 -3.1917 -1.3354
 5515TIP3   OH216508   5.554   2.208   4.317  0.1434  0.2460 -0.0577
 5515TIP3    H116509   5.587   2.180   4.402 -1.0191 -3.0247 -0.5444
 5515TIP3    H216510   5.621   2.180   4.255 -0.0043  0.6617 -0.4111
 5516TIP3   OH216511   3.412   3.956   5.887 -0.9504  0.2137 -0.5730
 5516TIP3    H116512   3.411   4.051   5.888 -0.1921  0.2290  0.1042
 5516TIP3    H216513   3.474   3.932   5.818 -0.0380  0.2472  0.2120
 5517TIP3   OH216514   3.746   1.847   1.991 -0.0987 -0.7634  0.0088
 5517TIP3    H116515   3.706   1.769   1.953 -0.5143 -0.7090  0.3224
 5517TIP3    H216516   3.840   1.832   1.985 -0.1208 -0.2783 -2.0142
 5518TIP3   OH216517   1.824   5.084   4.370  0.3066 -0.6869 -0.2105
 5518TIP3    H116518   1.863   5.145   4.433  0.3896 -1.0279  0.0720
 5518TIP3    H216519   1.836   5.126   4.285  2.8550 -1.5639 -0.3576
 5519TIP3   OH216520   2.224   1.538   2.054  0.3246  0.3659 -0.0574
 5519TIP3    H116521   2.185   1.570   1.972  3.0270  0.4683 -1.4111
 5519TIP3    H216522   2.262   1.454   2.030  0.0458 -0.2200  1.4792
 5520TIP3   OH216523   5.285   3.577   3.972 -0.1293 -0.3709  0.1176
 5520TIP3    H116524   5.289   3.482   3.965  0.6032 -0.3187 -0.2634
 5520TIP3    H216525   5.373   3.606   3.952 -0.1980  0.3603  0.8129
 5521TIP3   OH216526   6.334   5.509   1.754 -0.0551  0.8380  0.0964
 5521TIP3    H116527   6.239   5.519   1.746 -0.3396 -1.1756  0.3965
 5521TIP3    H216528   6.366   5.513   1.664 -0.6863 -0.5407 -0.2074
 5522TIP3   OH216529   2.378   4.488   4.382 -0.3991 -0.0527 -0.3159
 5522TIP3    H116530   2.385   4.436   4.302 -0.2453 -0.0792 -0.2856
 5522TIP3    H216531   2.450   4.457   4.438 -1.7246 -1.4683  0.6656
 5523TIP3   OH216532   2.038   3.898   2.663 -0.1412  0.2436 -0.0851
 5523TIP3    H116533   1.967   3.886   2.726  0.9240  0.3631  1.1793
 5523TIP3    H216534   2.065   3.989   2.674  2.0959 -0.5198  1.5893
 5524TIP3   OH216535   3.672   3.016   3.482  0.2588 -0.3273  0.9903
 5524TIP3    H116536   3.683   3.055   3.395 -1.2120  2.3396  1.8709
 5524TIP3    H216537   3.761   3.007   3.516  0.7484  1.1472  0.1867
 5525TIP3   OH216538   4.993   1.942   3.535 -0.3590  0.3307 -0.5413
 5525TIP3    H116539   5.068   1.937   3.594  0.3720  3.5683 -1.0058
 5525TIP3    H216540   5.026   1.909   3.451  0.2280  0.7137 -0.4650
 5526TIP3   OH216541   3.273   2.071   5.460 -0.2677 -0.0743 -0.8677
 5526TIP3    H116542   3.264   2.045   5.551  0.6347  0.4721 -0.6018
 5526TIP3    H216543   3.213   2.014   5.412 -0.1786 -0.9004 -0.0257
 5527TIP3   OH216544   6.490   4.509   0.706 -0.0160  0.2387  0.3459
 5527TIP3    H116545   6.564   4.570   0.696  0.7819 -0.7362  0.1915
 5527TIP3    H216546   6.468   4.483   0.616 -1.0000  1.0126  0.3344
 5528TIP3   OH216547   2.821   3.615   0.614  0.2956 -0.2231  0.0791
 5528TIP3    H116548   2.803   3.679   0.683  0.4807 -0.2587  0.1625
 5528TIP3    H216549   2.913   3.591   0.628 -0.2949 -2.0357  1.3230
 5529TIP3   OH216550   3.088   5.312   2.474  0.2108 -0.0450  0.4899
 5529TIP3    H116551   3.101   5.282   2.384  1.9746  1.4333  0.2040
 5529TIP3    H216552   3.002   5.276   2.499  0.1459 -1.3398 -1.3964
 5530TIP3   OH216553   3.506   2.930   0.147  0.5467 -0.4668 -0.6453
 5530TIP3    H116554   3.444   3.003   0.140  0.3838 -0.4732  0.4281
 5530TIP3    H216555   3.464   2.870   0.209  1.5563 -0.5419 -0.0080
 5531TIP3   OH216556   4.770   2.700   5.633 -0.3102 -0.3961  0.4867
 5531TIP3    H116557   4.675   2.690   5.636 -0.5764  1.9136  1.1510
 5531TIP3    H216558   4.793   2.741   5.716  1.1549 -0.0413 -0.0629
 5532TIP3   OH216559   1.088   5.329   0.183  0.4256  0.3409  0.7477
 5532TIP3    H116560   1.162   5.376   0.144  1.8621 -2.0349  0.3825
 5532TIP3    H216561   1.011   5.378   0.156  1.8051  2.4966  0.5169
 5533TIP3   OH216562   3.329   3.647   3.619 -0.1679  0.1779 -0.2168
 5533TIP3    H116563   3.295   3.737   3.622  0.6179  0.4774  1.3464
 5533TIP3    H216564   3.252   3.592   3.608 -0.7720  1.0140 -0.2451
 5534TIP3   OH216565   3.630   3.358   1.436 -0.0007  0.4487  0.0724
 5534TIP3    H116566   3.722   3.352   1.411 -0.1845 -1.1101 -0.3777
 5534TIP3    H216567   3.592   3.421   1.376  0.7914  1.2099  0.3520
 5535TIP3   OH216568   4.452   0.624   1.169 -0.3705 -0.9473 -0.4304
 5535TIP3    H116569   4.482   0.715   1.159  0.8090 -1.2319  0.2007
 5535TIP3    H216570   4.371   0.631   1.220  1.0038 -0.3334  1.8280
 5536TIP3   OH216571   2.967   3.545   1.006  0.6032 -0.1685  0.5088
 5536TIP3    H116572   2.885   3.499   0.987 -0.0688  0.8148  0.9685
 5536TIP3    H216573   3.034   3.478   0.995 -0.2118 -0.8976 -0.2962
 5537TIP3   OH216574   6.645   0.277   0.478  0.2504  1.2022 -0.2758
 5537TIP3    H116575   6.568   0.299   0.531 -0.5941  0.3789 -1.1128
 5537TIP3    H216576   6.621   0.301   0.389  0.4471 -0.2154 -0.7450
 5538TIP3   OH216577   2.667   0.006   0.070 -0.2285  0.3200  0.1928
 5538TIP3    H116578   2.724   0.035  -0.001  1.5609 -0.6422  1.1703
 5538TIP3    H216579   2.711   0.037   0.150 -1.4278  0.1041  0.9686
 5539TIP3   OH216580   3.926   0.342   2.776 -0.2286  0.2959 -0.3553
 5539TIP3    H116581   3.849   0.285   2.772 -0.2355  0.3819 -1.7877
 5539TIP3    H216582   3.928   0.373   2.867 -0.0669 -2.1747  0.5660
 5540TIP3   OH216583   6.659   0.901   3.963  0.1917 -0.8792 -0.4358
 5540TIP3    H116584   6.685   0.960   4.034  2.1223  1.2845 -2.7380
 5540TIP3    H216585   6.598   0.953   3.911 -1.0557 -2.3634 -0.5349
 5541TIP3   OH216586   6.789   5.072   2.470  0.0154  0.3040 -0.3118
 5541TIP3    H116587   6.812   5.070   2.377 -3.1619  0.0994 -1.2068
 5541TIP3    H216588   6.699   5.041   2.473  0.4206 -0.9473  3.0320
 5542TIP3   OH216589   4.202   0.549   3.032  0.1305  0.2106  0.5117
 5542TIP3    H116590   4.201   0.472   3.089  0.1367  0.3654  0.7249
 5542TIP3    H216591   4.197   0.514   2.943 -1.0310  0.0098  0.6479
 5543TIP3   OH216592   6.806   0.524   5.011 -0.2449  0.3039 -0.5805
 5543TIP3    H116593   6.747   0.525   4.936 -1.4259  0.6204  0.3314
 5543TIP3    H216594   6.885   0.479   4.978 -1.6572 -1.7817 -1.3380
 5544TIP3   OH216595   5.973   4.335   4.156 -0.4286  0.1815  0.1467
 5544TIP3    H116596   5.966   4.248   4.117  0.1273 -0.9374  2.3780
 5544TIP3    H216597   5.896   4.343   4.212 -1.4146  1.8993 -1.3459
 5545TIP3   OH216598   3.812   3.528   5.174  0.2851  0.2847 -0.0430
 5545TIP3    H116599   3.741   3.560   5.118 -0.2505  0.7552  0.8916
 5545TIP3    H216600   3.892   3.560   5.130 -0.1275  0.7126 -0.5048
 5546TIP3   OH216601   2.852   5.934   3.280  0.2292  0.3905  0.1888
 5546TIP3    H116602   2.893   5.848   3.275  0.7873  0.6562 -0.0101
 5546TIP3    H216603   2.914   5.987   3.332 -0.6355  0.3793  1.2584
 5547TIP3   OH216604   6.158   3.350   5.386 -0.2203 -0.3328 -0.5520
 5547TIP3    H116605   6.080   3.298   5.408  1.1305 -2.5162 -0.6774
 5547TIP3    H216606   6.200   3.366   5.470 -0.1531 -0.2262 -0.6058
 5548TIP3   OH216607   3.967   4.773   4.791 -0.1340 -0.0508  0.2545
 5548TIP3    H116608   3.903   4.772   4.719 -0.7929  1.8431  0.7380
 5548TIP3    H216609   3.915   4.760   4.870  0.1282  0.8695  0.5987
 5549TIP3   OH216610   1.814   1.351   5.704 -0.2831 -0.4771 -0.0258
 5549TIP3    H116611   1.873   1.322   5.773  0.0139 -0.7578 -0.3958
 5549TIP3    H216612   1.869   1.358   5.626 -0.3359  1.0783  0.0394
 5550TIP3   OH216613   0.692   4.785   1.782 -0.3693  0.2479 -0.0208
 5550TIP3    H116614   0.661   4.859   1.730 -1.0188  0.1526  0.2264
 5550TIP3    H216615   0.750   4.825   1.848  0.3328  0.3831 -0.7055
 5551TIP3   OH216616   3.845   0.298   4.963 -0.3470  0.0612 -0.1065
 5551TIP3    H116617   3.858   0.232   5.031  0.0453  0.7634  0.5104
 5551TIP3    H216618   3.816   0.248   4.887 -0.9310 -0.7273  0.6122
 5552TIP3   OH216619   0.398   6.674   4.214 -0.3485 -0.0236  0.5537
 5552TIP3    H116620   0.413   6.615   4.141 -0.6668 -0.9856  1.2524
 5552TIP3    H216621   0.304   6.668   4.231  0.0668 -1.6915  2.5858
 5553TIP3   OH216622   0.206   5.721   2.026  0.2167 -0.0667  0.1896
 5553TIP3    H116623   0.292   5.689   2.050  0.3011  0.3559  0.4670
 5553TIP3    H216624   0.207   5.814   2.051 -0.3669 -0.0943  0.3299
 5554TIP3   OH216625   6.740   2.414   4.971  0.4347  0.4196  0.1585
 5554TIP3    H116626   6.785   2.350   5.026  1.2749  0.7007 -0.1855
 5554TIP3    H216627   6.722   2.368   4.890  1.2179  0.6578 -0.1647
 5555TIP3   OH216628   0.623   5.548   3.720 -0.2587  0.1091 -0.1587
 5555TIP3    H116629   0.562   5.546   3.645 -0.2717 -2.4486 -0.1787
 5555TIP3    H216630   0.709   5.529   3.681 -0.0686  0.0074  0.3045
 5556TIP3   OH216631   0.414   1.960   2.051  0.1515  0.1061  0.1154
 5556TIP3    H116632   0.383   1.879   2.090 -1.5926  0.3512 -0.6737
 5556TIP3    H216633   0.335   2.004   2.020  1.1200  1.7689 -0.1383
 5557TIP3   OH216634   0.428   5.423   1.035  0.1139  0.3336  0.1797
 5557TIP3    H116635   0.360   5.378   0.985  0.9800 -0.1538 -0.5979
 5557TIP3    H216636   0.388   5.443   1.119 -1.6947  1.9855 -0.9966
 5558TIP3   OH216637   4.304   5.290   0.055  0.8843  0.1352 -0.1732
 5558TIP3    H116638   4.273   5.246  -0.024  2.3621 -0.6338 -0.3487
 5558TIP3    H216639   4.281   5.382   0.042 -1.4168 -0.3761 -0.2105
 5559TIP3   OH216640   3.533   1.789   0.094 -0.0536 -0.1320  1.0973
 5559TIP3    H116641   3.577   1.768   0.176 -0.2807  0.2244  1.3140
 5559TIP3    H216642   3.562   1.877   0.072  0.3714 -0.4016  0.5447
 5560TIP3   OH216643   2.219   4.815   5.811 -0.2435  0.9183  0.5243
 5560TIP3    H116644   2.195   4.878   5.878  0.0471  0.7856  0.7550
 5560TIP3    H216645   2.139   4.764   5.796 -0.5736  1.5503  0.1011
 5561TIP3   OH216646   4.843   0.888   0.377 -0.1754 -0.2501  0.5670
 5561TIP3    H116647   4.775   0.840   0.423 -1.3276  0.4306 -0.3426
 5561TIP3    H216648   4.877   0.950   0.441 -1.3649  0.3137  0.6741
 5562TIP3   OH216649   1.227   0.925   3.275 -0.6395 -0.0819  0.1573
 5562TIP3    H116650   1.278   0.936   3.355 -2.7785 -1.0302  1.7899
 5562TIP3    H216651   1.244   0.834   3.248  0.2054  0.2864 -0.6012
 5563TIP3   OH216652   6.399   6.557   4.709 -0.4162 -0.2055  0.4325
 5563TIP3    H116653   6.428   6.647   4.723  1.1116 -0.7404  0.9301
 5563TIP3    H216654   6.458   6.504   4.762  0.5554 -1.7182 -1.9711
 5564TIP3   OH216655   2.298   2.542   1.761  1.0357  0.6937 -0.0078
 5564TIP3    H116656   2.268   2.483   1.692  1.6689  0.4983 -0.1185
 5564TIP3    H216657   2.219   2.560   1.813  0.4845  1.0877 -0.9528
 5565TIP3   OH216658   1.296   3.401   0.741 -0.1098  0.0633 -0.8160
 5565TIP3    H116659   1.217   3.348   0.754 -0.6134  1.4204  3.7054
 5565TIP3    H216660   1.264   3.484   0.708 -1.3814  1.6531  3.5995
 5566TIP3   OH216661   1.789   2.999   2.851  0.3962 -0.1757 -0.2353
 5566TIP3    H116662   1.811   2.996   2.757  0.1589 -1.5054 -0.2684
 5566TIP3    H216663   1.828   2.920   2.887 -3.2036 -2.0634 -0.0800
 5567TIP3   OH216664   2.364   1.965   4.246  0.6355 -0.2296  0.2125
 5567TIP3    H116665   2.361   2.060   4.259 -2.6145 -0.1818 -0.0558
 5567TIP3    H216666   2.334   1.929   4.329  0.7672 -0.9934 -0.0651
 5568TIP3   OH216667   1.071   3.243   2.649  0.9638 -0.3508  0.6940
 5568TIP3    H116668   1.112   3.313   2.598 -0.4869  0.0111 -0.0242
 5568TIP3    H216669   1.056   3.173   2.586  1.1246 -0.7577  1.1042
 5569TIP3   OH216670   1.526   6.011   0.550  0.5317  0.2170  0.2106
 5569TIP3    H116671   1.542   6.008   0.456  0.3118  2.2775  0.0578
 5569TIP3    H216672   1.613   6.007   0.589  0.7130  0.5287 -0.1467
 5570TIP3   OH216673   3.834   2.754   1.117 -0.2019  0.5293  0.0394
 5570TIP3    H116674   3.902   2.691   1.141 -1.3674 -0.8922 -0.1984
 5570TIP3    H216675   3.767   2.744   1.185  0.3549  2.8872  1.0442
 5571TIP3   OH216676   2.469   0.880   2.196  0.4597  0.3527 -0.6275
 5571TIP3    H116677   2.407   0.862   2.265  1.4380 -0.6225  0.0310
 5571TIP3    H216678   2.544   0.920   2.240  1.0217 -0.1119 -1.1261
 5572TIP3   OH216679   0.223   2.203   0.921  0.2052  0.1716 -0.3297
 5572TIP3    H116680   0.212   2.177   0.830 -0.6263  0.1565 -0.2286
 5572TIP3    H216681   0.260   2.126   0.964  0.9100  0.2867 -0.7083
 5573TIP3   OH216682   2.972   6.243   1.364  0.0389  0.0218 -0.3000
 5573TIP3    H116683   2.902   6.246   1.299 -1.1329 -1.2274  0.8661
 5573TIP3    H216684   3.021   6.325   1.350 -1.1649  0.5441 -1.6500
 5574TIP3   OH216685   3.683   5.487   1.062 -0.3682 -0.3079 -0.3610
 5574TIP3    H116686   3.722   5.572   1.081 -0.3775 -0.7869  2.0688
 5574TIP3    H216687   3.751   5.424   1.082 -1.2442 -0.9855  0.5819
 5575TIP3   OH216688   0.613   2.988   1.890  0.6282  0.1309 -0.1148
 5575TIP3    H116689   0.530   2.996   1.937  1.0224 -1.3600  0.8993
 5575TIP3    H216690   0.681   2.999   1.957  1.2006 -2.5157 -0.1361
 5576TIP3   OH216691   0.862   4.552   3.762 -0.6082 -0.3768 -0.3738
 5576TIP3    H116692   0.821   4.637   3.773  0.8470  0.2082  1.0851
 5576TIP3    H216693   0.913   4.559   3.682 -0.4187  0.1673 -0.2061
 5577TIP3   OH216694   1.935   2.785   3.397 -0.1405  0.5212 -0.4041
 5577TIP3    H116695   1.874   2.858   3.406  0.3509  0.8290  0.6047
 5577TIP3    H216696   2.020   2.827   3.383  0.4416  0.2382  1.8891
 5578TIP3   OH216697   5.992   5.551   1.381 -0.0610  0.2698 -0.3549
 5578TIP3    H116698   6.069   5.512   1.423  0.9659 -0.4238 -2.7014
 5578TIP3    H216699   5.996   5.644   1.405  1.0903  0.1084  0.1578
 5579TIP3   OH216700   3.764   1.866   3.440 -0.5434 -0.5901  0.0474
 5579TIP3    H116701   3.725   1.931   3.382  0.7024 -1.2067 -1.5365
 5579TIP3    H216702   3.786   1.792   3.384  1.8622 -0.7188  1.0153
 5580TIP3   OH216703   2.938   1.303   5.255  0.6234 -0.3998  0.2783
 5580TIP3    H116704   2.924   1.395   5.277  0.8410  0.0851 -1.4421
 5580TIP3    H216705   2.978   1.306   5.168 -1.4837 -2.1754 -0.8342
 5581TIP3   OH216706   4.963   2.994   3.905 -0.2793  0.3231  0.0124
 5581TIP3    H116707   4.883   2.991   3.956 -0.4306  1.9108 -0.0696
 5581TIP3    H216708   4.998   3.082   3.921  0.2403  0.4669 -1.7197
 5582TIP3   OH216709   7.058   5.032   4.327 -0.2828 -0.3364  0.2325
 5582TIP3    H116710   7.116   5.105   4.352  1.3585 -1.6135  0.3629
 5582TIP3    H216711   7.116   4.969   4.284 -1.5802 -1.7344  0.4402
 5583TIP3   OH216712   0.136   3.758   3.676 -0.0554 -0.5617 -0.6320
 5583TIP3    H116713   0.160   3.777   3.585  1.7746  1.4584  0.1949
 5583TIP3    H216714   0.041   3.769   3.678  0.0790  1.3852 -1.9031
 5584TIP3   OH216715   0.228   5.704   0.296 -0.2406  0.0679 -0.4062
 5584TIP3    H116716   0.149   5.730   0.343  0.0116 -0.9810  0.6296
 5584TIP3    H216717   0.300   5.735   0.350  0.0773  0.7322 -1.1863
 5585TIP3   OH216718   6.672   5.172   1.458 -0.5950 -0.0531  0.1999
 5585TIP3    H116719   6.715   5.087   1.460 -0.4938 -0.0026  1.7485
 5585TIP3    H216720   6.742   5.234   1.441 -0.7212 -0.2847 -1.2665
 5586TIP3   OH216721   2.545   2.372   2.496  0.4602 -0.3108 -0.8073
 5586TIP3    H116722   2.561   2.461   2.465  0.3937 -0.2484 -0.6640
 5586TIP3    H216723   2.632   2.337   2.516  0.3659  0.5232  1.3458
 5587TIP3   OH216724   4.625   6.619   3.162  0.1124  0.2611 -0.0947
 5587TIP3    H116725   4.601   6.711   3.151  2.0426  1.0056  1.3444
 5587TIP3    H216726   4.716   6.621   3.191  0.4770 -2.1624 -0.8383
 5588TIP3   OH216727   0.868   2.413   4.213  0.0915 -0.1047 -0.3730
 5588TIP3    H116728   0.836   2.405   4.123 -1.6635  1.0373  0.1040
 5588TIP3    H216729   0.962   2.426   4.204  0.1483 -1.3007 -1.9633
 5589TIP3   OH216730   3.442   0.581   3.117  0.0262 -0.3827 -0.0362
 5589TIP3    H116731   3.393   0.630   3.184 -0.1646  2.0911 -1.8729
 5589TIP3    H216732   3.533   0.587   3.145 -0.0455  0.6548 -0.0058
 5590TIP3   OH216733   1.815   2.209   4.322 -0.9018 -0.1074  0.5175
 5590TIP3    H116734   1.838   2.122   4.354  1.0184  0.4984  0.9026
 5590TIP3    H216735   1.855   2.215   4.235 -1.8775  0.0430  0.0665
 5591TIP3   OH216736   5.398   6.190   1.842  0.3680  0.4103 -0.3282
 5591TIP3    H116737   5.373   6.279   1.866 -0.5728  0.1062 -0.1182
 5591TIP3    H216738   5.357   6.135   1.908  0.1036 -0.2409 -1.0163
 5592TIP3   OH216739   0.737   3.120   4.437  0.2876 -0.3254  1.1750
 5592TIP3    H116740   0.760   3.064   4.511  0.7030 -0.2915  1.0734
 5592TIP3    H216741   0.649   3.092   4.412 -0.4109  0.5416  2.5051
 5593TIP3   OH216742   5.690   1.359   1.473  0.6706 -0.2279  0.4981
 5593TIP3    H116743   5.768   1.407   1.501 -0.3308  2.1967 -0.5706
 5593TIP3    H216744   5.711   1.330   1.384  0.4633  0.1297  0.3350
 5594TIP3   OH216745   0.773   3.660   2.620  0.2638  0.1796 -0.1450
 5594TIP3    H116746   0.707   3.595   2.645  0.5391  0.1604  0.5463
 5594TIP3    H216747   0.822   3.618   2.550  2.8826 -1.9668  2.7066
 5595TIP3   OH216748   0.283   6.731   1.657 -0.2672 -0.1102  0.5565
 5595TIP3    H116749   0.330   6.719   1.575  0.3555 -1.3960  1.0782
 5595TIP3    H216750   0.297   6.823   1.680 -1.7037  0.6929 -1.5000
 5596TIP3   OH216751   3.797   5.736   4.044  0.4751  0.3777 -0.4933
 5596TIP3    H116752   3.856   5.713   4.116 -1.0371 -1.7395  0.1479
 5596TIP3    H216753   3.829   5.822   4.014  1.9788  0.7054  1.7937
 5597TIP3   OH216754   2.259   4.421   2.657 -0.5003 -0.1723 -0.0795
 5597TIP3    H116755   2.338   4.473   2.642 -1.0161  0.4117 -0.8741
 5597TIP3    H216756   2.208   4.471   2.720 -1.4621  0.8550 -1.5933
 5598TIP3   OH216757   0.589   6.399   3.510  0.3204 -0.1805 -0.0341
 5598TIP3    H116758   0.601   6.393   3.415  0.0713 -2.3763  0.0116
 5598TIP3    H216759   0.498   6.373   3.524  0.9714 -2.1986  0.9129
 5599TIP3   OH216760   5.815   4.278   5.177 -0.2390  0.1658 -0.0939
 5599TIP3    H116761   5.866   4.247   5.251 -1.6918 -0.6642  0.5897
 5599TIP3    H216762   5.809   4.373   5.190  0.9877  0.2641 -0.1243
 5600TIP3   OH216763   2.864   0.235   0.517  0.2545 -0.1166  0.2753
 5600TIP3    H116764   2.931   0.264   0.455  0.3749 -1.8565 -0.4699
 5600TIP3    H216765   2.910   0.227   0.601  0.6649 -0.0361  0.0580
 5601TIP3   OH216766   1.360   1.256   2.953  0.1464  0.2053  0.1734
 5601TIP3    H116767   1.361   1.183   3.015  1.3609 -1.0451 -1.2422
 5601TIP3    H216768   1.353   1.214   2.867  3.5080  1.5387 -0.8745
 5602TIP3   OH216769   0.856   5.123   1.942 -0.0301  0.0071 -1.0010
 5602TIP3    H116770   0.790   5.192   1.950  1.1488  0.9585  1.4001
 5602TIP3    H216771   0.912   5.151   1.869  0.7993  1.9850  0.3179
 5603TIP3   OH216772   6.711   4.012   5.755 -0.1857  0.4767 -0.5001
 5603TIP3    H116773   6.789   3.957   5.759 -0.6956 -0.3426 -1.3445
 5603TIP3    H216774   6.682   4.021   5.846  1.0021  0.9835 -0.1538
 5604TIP3   OH216775   1.051   2.766   4.024  0.1920  0.7925 -0.5992
 5604TIP3    H116776   1.146   2.760   4.038 -0.0388  2.7766  3.1460
 5604TIP3    H216777   1.039   2.852   3.984 -0.0908  1.1557  0.2535
 5605TIP3   OH216778   5.944   1.107   2.420 -0.2124 -0.3580 -0.1469
 5605TIP3    H116779   5.971   1.180   2.364 -0.6781  0.7174  0.9751
 5605TIP3    H216780   6.025   1.075   2.459 -0.0797  0.0366 -0.0919
 5606TIP3   OH216781   0.733   6.610   0.748 -0.0640  0.4632  0.1780
 5606TIP3    H116782   0.794   6.608   0.822 -0.9002  0.0169  0.8774
 5606TIP3    H216783   0.649   6.583   0.786 -0.0985 -1.8377 -1.3206
 5607TIP3   OH216784   4.697   2.182   1.166 -0.3188  0.1947  0.2099
 5607TIP3    H116785   4.734   2.134   1.240  0.2566 -1.6643 -1.1942
 5607TIP3    H216786   4.724   2.272   1.180 -0.8000  0.0346  2.5896
 5608TIP3   OH216787   0.462   3.776   4.190  0.0769  0.5966 -0.4960
 5608TIP3    H116788   0.529   3.841   4.208  0.1702 -0.0644  2.0492
 5608TIP3    H216789   0.379   3.822   4.203  0.1053  0.6856 -0.6340
 5609TIP3   OH216790   1.270   2.628   5.756  0.0134  0.7745  0.2650
 5609TIP3    H116791   1.197   2.619   5.818  1.8140  1.6378  2.6795
 5609TIP3    H216792   1.319   2.547   5.765 -1.2626 -0.4127 -2.3864
 5610TIP3   OH216793   6.994   3.646   0.880  0.5621  0.2083  0.5179
 5610TIP3    H116794   7.009   3.551   0.878 -0.7534 -0.0125  0.0518
 5610TIP3    H216795   7.050   3.680   0.811  0.1015 -0.3958 -0.1746
 5611TIP3   OH216796   1.109   2.991   2.834 -0.1119  0.2257  0.0847
 5611TIP3    H116797   1.015   3.000   2.819  0.2644  0.9992 -2.1709
 5611TIP3    H216798   1.137   3.078   2.863 -0.2138 -0.2873  1.8591
 5612TIP3   OH216799   1.490   0.554   0.599  0.2905  0.4220 -0.2762
 5612TIP3    H116800   1.464   0.505   0.677  0.1781 -1.4675 -1.4340
 5612TIP3    H216801   1.558   0.500   0.559 -1.0907  0.2625 -2.5545
 5613TIP3   OH216802   2.855   4.997   5.823 -0.2428  0.1748  0.6656
 5613TIP3    H116803   2.922   5.003   5.754  0.2273 -0.0107  1.1007
 5613TIP3    H216804   2.773   4.991   5.775  0.0277  0.6417  0.1233
 5614TIP3   OH216805   0.391   1.123   2.050 -0.1750 -0.2940 -0.1844
 5614TIP3    H116806   0.477   1.152   2.018  1.0278 -0.2622  2.7780
 5614TIP3    H216807   0.406   1.035   2.083 -0.9965  0.1377  1.4024
 5615TIP3   OH216808   6.579   5.042   4.167  0.1942 -0.3279  0.8581
 5615TIP3    H116809   6.648   5.066   4.230 -1.3288 -0.7723  2.8097
 5615TIP3    H216810   6.525   5.121   4.159  1.3745  0.3357 -1.4089
 5616TIP3   OH216811   4.635   0.534   3.917 -0.5453  0.0428  0.0612
 5616TIP3    H116812   4.594   0.453   3.886 -1.3146 -0.1505  1.4768
 5616TIP3    H216813   4.664   0.513   4.006  1.3023  0.6561 -0.3630
 5617TIP3   OH216814   4.692   4.426   5.647 -0.1620 -0.1944 -0.0725
 5617TIP3    H116815   4.649   4.350   5.685 -0.4197  0.7583  1.6349
 5617TIP3    H216816   4.759   4.450   5.712 -0.5171  1.3978 -0.2612
 5618TIP3   OH216817   0.899   4.352   4.464  0.0791 -0.5218 -0.0136
 5618TIP3    H116818   0.812   4.391   4.452 -0.7080 -2.2199 -0.2299
 5618TIP3    H216819   0.941   4.361   4.379 -0.0355 -0.0334 -0.0211
 5619TIP3   OH216820   5.647   5.406   4.865 -0.0547  0.4161  0.0624
 5619TIP3    H116821   5.669   5.440   4.778  0.8926 -0.2568  0.0168
 5619TIP3    H216822   5.732   5.379   4.901 -0.7390 -1.9061  0.0871
 5620TIP3   OH216823   6.854   2.650   0.021 -0.7046 -0.0220  0.1276
 5620TIP3    H116824   6.916   2.723   0.021 -0.8049  0.0667 -0.9498
 5620TIP3    H216825   6.889   2.589   0.087 -0.0435  0.5030  0.2711
 5621TIP3   OH216826   0.659   4.407   0.611  0.0156 -0.1157 -0.3724
 5621TIP3    H116827   0.614   4.455   0.680  1.8762 -0.3783  1.0845
 5621TIP3    H216828   0.593   4.345   0.578 -1.2736  0.8731  0.2728
 5622TIP3   OH216829   3.735   1.344   5.684  0.2563 -0.2496  0.0644
 5622TIP3    H116830   3.778   1.325   5.601 -2.8532  0.0582 -1.7867
 5622TIP3    H216831   3.736   1.439   5.692 -2.6007  0.0377 -1.6423
 5623TIP3   OH216832   4.197   0.412   2.791 -0.2392  0.7982  0.4002
 5623TIP3    H116833   4.117   0.388   2.744  0.0909  1.0281 -0.2883
 5623TIP3    H216834   4.249   0.332   2.792 -0.2616  0.7836  0.4140
 5624TIP3   OH216835   2.642   2.499   1.187 -0.2616  0.2437 -0.4031
 5624TIP3    H116836   2.696   2.423   1.209 -0.9902 -0.7150 -1.7679
 5624TIP3    H216837   2.557   2.481   1.227 -0.9331 -0.4957 -2.0401
 5625TIP3   OH216838   0.008   2.031   3.527  0.1203  0.0972 -0.3877
 5625TIP3    H116839   0.056   2.009   3.607 -1.7722  2.5783  1.6013
 5625TIP3    H216840   0.075   2.067   3.468  1.3307 -0.4272  0.6204
 5626TIP3   OH216841   4.736   3.771   4.616 -0.4532 -0.4496  0.0980
 5626TIP3    H116842   4.679   3.829   4.566  1.8950  2.5208  0.5724
 5626TIP3    H216843   4.813   3.760   4.560  0.0170 -1.4309  0.9089
 5627TIP3   OH216844   3.099   5.121   1.529  0.5449  0.7069  0.0465
 5627TIP3    H116845   3.134   5.209   1.514  1.2905  0.4823  0.4115
 5627TIP3    H216846   3.045   5.130   1.607  0.0929  0.9742 -0.2916
 5628TIP3   OH216847   4.011   3.268   4.594 -0.3270  0.4306 -0.2042
 5628TIP3    H116848   3.989   3.357   4.623 -0.3852  0.3300  0.0611
 5628TIP3    H216849   3.939   3.214   4.625  0.2816  0.1015  0.6732
 5629TIP3   OH216850   3.854   3.293   0.610 -0.1015 -0.2742 -0.0440
 5629TIP3    H116851   3.941   3.271   0.575 -0.8461 -1.4353 -1.2468
 5629TIP3    H216852   3.822   3.363   0.553  0.1934  0.4602  0.6659
 5630TIP3   OH216853   2.795   1.533   4.951 -0.1681 -0.1589 -0.2236
 5630TIP3    H116854   2.889   1.517   4.959 -0.1311 -1.0433 -1.9808
 5630TIP3    H216855   2.760   1.513   5.038  1.3966  1.5184  0.8639
 5631TIP3   OH216856   5.103   3.209   4.029 -1.0780 -0.1447  0.3706
 5631TIP3    H116857   5.177   3.257   3.992 -1.1113  0.4035  1.0078
 5631TIP3    H216858   5.139   3.123   4.050 -0.5572  0.1821  0.8611
 5632TIP3   OH216859   6.807   5.338   4.078  0.5860 -0.1351  0.5751
 5632TIP3    H116860   6.894   5.306   4.055  0.5001 -0.4882  0.7218
 5632TIP3    H216861   6.748   5.291   4.018  0.4985  0.1112  0.4676
 5633TIP3   OH216862   2.926   2.951   2.842  0.2050  0.2818 -0.1541
 5633TIP3    H116863   2.940   2.948   2.936 -1.7024  0.5505  0.1795
 5633TIP3    H216864   2.846   3.002   2.831  0.8282  0.9620 -1.9876
 5634TIP3   OH216865   2.448   1.717   2.845 -0.0885  0.5965 -0.2864
 5634TIP3    H116866   2.436   1.810   2.864 -0.8489  0.2759  0.8877
 5634TIP3    H216867   2.542   1.702   2.855  0.1231  1.3457 -1.0387
 5635TIP3   OH216868   3.668   6.037   5.692  0.0107 -0.8054  0.3807
 5635TIP3    H116869   3.644   6.105   5.754 -1.5091 -1.2766  0.3536
 5635TIP3    H216870   3.743   6.073   5.644 -2.3807  2.0730 -1.5536
 5636TIP3   OH216871   2.620   2.627   2.384  0.1117 -0.2844 -0.0113
 5636TIP3    H116872   2.615   2.599   2.292 -0.0541  0.3284 -0.1944
 5636TIP3    H216873   2.630   2.722   2.379  0.7809 -0.3197  0.5928
 5637TIP3   OH216874   6.977   2.996   5.362 -0.1647  0.2462  0.2533
 5637TIP3    H116875   6.989   2.955   5.276  0.5649 -2.4425  1.5588
 5637TIP3    H216876   6.901   3.054   5.350 -0.3148 -0.3387 -2.0952
 5638TIP3   OH216877   3.486   5.637   2.769 -0.1026  0.0013 -0.1730
 5638TIP3    H116878   3.511   5.706   2.708  0.6125 -0.2864 -0.2159
 5638TIP3    H216879   3.422   5.585   2.720  0.9741 -0.6347 -0.9638
 5639TIP3   OH216880   0.288   3.019   1.151  0.6170  0.2817  0.2677
 5639TIP3    H116881   0.196   3.046   1.146  0.2433 -0.8833  0.4727
 5639TIP3    H216882   0.289   2.951   1.218  2.2003  2.4615  2.6661
 5640TIP3   OH216883   6.527   1.272   2.253 -0.0836  0.0309 -0.2367
 5640TIP3    H116884   6.483   1.342   2.301  0.4625  0.2639 -0.0685
 5640TIP3    H216885   6.498   1.283   2.163 -2.0795 -1.1475  0.1940
 5641TIP3   OH216886   5.790   0.153   2.638  0.4211  0.1929  0.0990
 5641TIP3    H116887   5.850   0.115   2.702 -0.1814  0.6978  0.9765
 5641TIP3    H216888   5.777   0.083   2.573  0.3646 -0.6416  0.9863
 5642TIP3   OH216889   2.063   5.731   0.590  0.5194  0.0183 -0.9938
 5642TIP3    H116890   2.008   5.735   0.668  1.0120 -0.4430 -0.6073
 5642TIP3    H216891   2.058   5.818   0.551  0.4493  0.3189 -0.3188
 5643TIP3   OH216892   6.637   3.315   4.851 -0.0595  0.2862  0.2699
 5643TIP3    H116893   6.557   3.271   4.877 -0.4706  0.5524 -0.4972
 5643TIP3    H216894   6.703   3.246   4.849 -0.2488  0.0818  0.9899
 5644TIP3   OH216895   2.327   5.405   2.266  0.0462  0.1258  0.1602
 5644TIP3    H116896   2.270   5.479   2.287 -0.6102 -0.3339  0.0465
 5644TIP3    H216897   2.345   5.364   2.351 -0.4317 -0.1731  0.1264
 5645TIP3   OH216898  -0.027   5.176   0.136  0.6423  0.3824 -0.6659
 5645TIP3    H116899   0.011   5.183   0.224  1.3259  0.5279 -0.9637
 5645TIP3    H216900   0.017   5.244   0.086 -1.5052  1.9702 -0.5284
 5646TIP3   OH216901   5.915   5.273   1.369 -0.1214  0.2479  0.3275
 5646TIP3    H116902   5.949   5.362   1.372 -1.3362  0.7616 -0.3758
 5646TIP3    H216903   5.844   5.272   1.434 -1.2257  0.3162 -0.8315
 5647TIP3   OH216904   2.579   5.434   5.840 -0.2670  0.3432 -1.0215
 5647TIP3    H116905   2.651   5.410   5.783 -1.2193  0.1147 -2.1743
 5647TIP3    H216906   2.542   5.350   5.868 -0.8857  0.4497 -1.5008
 5648TIP3   OH216907   3.496   3.097   1.415 -0.1094 -0.2299  0.5712
 5648TIP3    H116908   3.430   3.097   1.345  0.4465 -0.5617  0.0325
 5648TIP3    H216909   3.530   3.186   1.416 -0.4303 -0.1058  0.7258
 5649TIP3   OH216910   3.565   6.369   2.433 -0.2879 -0.2599 -0.2679
 5649TIP3    H116911   3.576   6.319   2.352  0.8079 -0.7199  0.1516
 5649TIP3    H216912   3.632   6.335   2.492 -0.1021  1.0825  0.3309
 5650TIP3   OH216913   1.587   0.916   0.289  0.0847 -0.6231 -0.2901
 5650TIP3    H116914   1.566   0.822   0.295 -0.5825 -0.6086 -1.8859
 5650TIP3    H216915   1.546   0.954   0.366 -2.2179 -1.2443 -1.1323
 5651TIP3   OH216916   2.631   1.282   0.418  0.0455 -0.7945  0.4499
 5651TIP3    H116917   2.560   1.226   0.387 -0.6217  0.5260 -0.4964
 5651TIP3    H216918   2.681   1.226   0.478 -0.9999 -2.1626  0.0987
 5652TIP3   OH216919   4.515   3.060   0.171  0.0653 -0.1742  0.0067
 5652TIP3    H116920   4.492   3.076   0.079  0.5618 -2.8259 -0.6705
 5652TIP3    H216921   4.480   3.135   0.218 -6.0274 -1.4737 -1.4893
 5653TIP3   OH216922   0.249   4.204   4.821 -0.2709  0.0351 -0.0187
 5653TIP3    H116923   0.294   4.251   4.891 -1.4115  0.0425  0.7410
 5653TIP3    H216924   0.157   4.229   4.832 -0.4953 -0.1441 -1.3895
 5654TIP3   OH216925   6.168   3.771   5.548 -0.4124 -0.2638 -0.2915
 5654TIP3    H116926   6.258   3.771   5.579 -0.2938  1.7872 -0.4939
 5654TIP3    H216927   6.175   3.748   5.455  0.1158  1.4080 -0.7023
 5655TIP3   OH216928   3.053   2.021   3.553 -0.1490  0.0366 -0.0224
 5655TIP3    H116929   3.043   2.084   3.625 -1.1985 -0.8970  0.6885
 5655TIP3    H216930   3.117   1.958   3.586  0.6533  0.5395 -0.6019
 5656TIP3   OH216931   5.998   6.326   2.608 -0.0967  0.4056  0.3148
 5656TIP3    H116932   6.036   6.336   2.695  0.7609 -1.9565  0.2882
 5656TIP3    H216933   5.922   6.269   2.621 -0.0889  0.2049 -0.4485
 5657TIP3   OH216934   7.207   0.042   0.990  0.0747  0.0049  0.5886
 5657TIP3    H116935   7.153  -0.035   1.003  0.2956 -0.4342 -0.9075
 5657TIP3    H216936   7.153   0.100   0.935  0.5640  0.1797  0.2860
 5658TIP3   OH216937   1.411   6.803   3.855 -0.1090 -0.2630 -0.4803
 5658TIP3    H116938   1.323   6.828   3.883 -0.1622 -0.6095 -0.3374
 5658TIP3    H216939   1.420   6.711   3.880  0.3607 -0.1800 -0.3275
 5659TIP3   OH216940   3.803   2.440   3.205  0.2893 -0.1531 -0.2083
 5659TIP3    H116941   3.773   2.494   3.278  1.7086 -2.1374  1.9691
 5659TIP3    H216942   3.848   2.366   3.246  1.3397 -1.2777 -3.1179
 5660TIP3   OH216943   2.585   5.692   0.931  0.8732  0.1152 -0.0015
 5660TIP3    H116944   2.615   5.608   0.896 -1.0917 -0.3967 -0.5472
 5660TIP3    H216945   2.589   5.682   1.026 -0.0193 -0.8719 -0.0581
 5661TIP3   OH216946   0.475   6.590   0.876 -0.1281 -0.1933 -0.2963
 5661TIP3    H116947   0.435   6.672   0.905  0.3519 -0.0113 -0.1429
 5661TIP3    H216948   0.439   6.576   0.788 -0.3409  0.0918 -0.2571
 5662TIP3   OH216949   4.942   3.420   2.651  0.5454  0.1431 -0.2860
 5662TIP3    H116950   4.869   3.431   2.711  1.5734  0.8435  0.8787
 5662TIP3    H216951   4.949   3.503   2.604  1.4113  0.5702  0.5711
 5663TIP3   OH216952   2.735   5.422   0.109 -0.2856 -0.1882 -0.4255
 5663TIP3    H116953   2.692   5.467   0.036 -1.4934  0.4419  0.6440
 5663TIP3    H216954   2.804   5.371   0.067  1.3974  2.8338 -1.7344
 5664TIP3   OH216955   4.284   3.212   4.242  0.5905 -0.3601  0.2471
 5664TIP3    H116956   4.206   3.156   4.234 -0.7163  1.3758  0.0216
 5664TIP3    H216957   4.354   3.153   4.269 -0.9329 -1.9030  1.0166
 5665TIP3   OH216958   6.820   5.161   5.185  0.1041 -0.0566  0.4501
 5665TIP3    H116959   6.835   5.152   5.091 -0.7352  0.6063  0.2443
 5665TIP3    H216960   6.904   5.192   5.219  1.0822 -2.2795  0.2643
 5666TIP3   OH216961   3.778   5.011   3.087  0.0501 -0.0277 -0.2111
 5666TIP3    H116962   3.781   5.106   3.075 -2.7219  0.3405  1.1656
 5666TIP3    H216963   3.768   4.999   3.181  0.8709 -1.7387 -0.3075
 5667TIP3   OH216964   2.013   3.441   4.304 -0.5321  0.0093 -0.1615
 5667TIP3    H116965   2.072   3.514   4.321 -0.6944  0.1192 -0.0644
 5667TIP3    H216966   1.972   3.423   4.389 -0.6049 -0.0957 -0.2180
 5668TIP3   OH216967   0.689   4.755   4.057 -0.0024 -0.3966 -0.0773
 5668TIP3    H116968   0.723   4.836   4.019  0.0546  0.5823  1.9121
 5668TIP3    H216969   0.728   4.751   4.144 -1.2380 -1.7668  0.4647
 5669TIP3   OH216970   4.290   3.691   4.238 -0.6227  0.0343 -0.1162
 5669TIP3    H116971   4.236   3.692   4.159 -0.3108 -1.8314 -0.3883
 5669TIP3    H216972   4.281   3.602   4.273  0.9928  0.1568  0.7184
 5670TIP3   OH216973   6.424   2.844   3.328  0.2816 -0.4309  0.3087
 5670TIP3    H116974   6.342   2.820   3.286 -0.4365 -0.1179  1.4645
 5670TIP3    H216975   6.484   2.862   3.256 -1.0089  0.5071 -0.5801
 5671TIP3   OH216976   4.422   4.877   3.854 -0.3453 -0.5172  0.1893
 5671TIP3    H116977   4.507   4.868   3.898  1.2263 -3.8574 -2.9777
 5671TIP3    H216978   4.363   4.820   3.905 -0.1418  0.0909  1.1354
 5672TIP3   OH216979   4.990   6.616   0.259  0.1146  0.1427  0.5213
 5672TIP3    H116980   5.029   6.567   0.187  1.4485  0.7947  0.7673
 5672TIP3    H216981   5.002   6.708   0.235 -1.4204  0.3821  0.5556
 5673TIP3   OH216982   2.549   4.105   4.872  0.1679  0.3060 -0.3137
 5673TIP3    H116983   2.548   4.030   4.812 -0.5909  1.6502 -2.0511
 5673TIP3    H216984   2.515   4.070   4.954  1.4419 -1.6501 -0.5352
 5674TIP3   OH216985   5.638   3.939   5.634  0.1521 -0.1179 -0.4646
 5674TIP3    H116986   5.638   4.034   5.620 -0.6615 -0.0226  0.1467
 5674TIP3    H216987   5.551   3.911   5.607 -0.0388 -0.5093  0.5271
 5675TIP3   OH216988   1.840   4.493   0.393 -0.1936 -0.4261  0.2373
 5675TIP3    H116989   1.846   4.503   0.488 -0.4805  1.1450  0.1105
 5675TIP3    H216990   1.752   4.457   0.378 -0.5700  0.3673  0.5040
 5676TIP3   OH216991   3.471   6.198   2.648  0.4971  0.4290  0.1630
 5676TIP3    H116992   3.552   6.245   2.670 -0.0954  1.3827  0.4056
 5676TIP3    H216993   3.410   6.225   2.716 -0.0368 -0.2465 -0.0462
 5677TIP3   OH216994   6.693   4.189   5.548 -0.0213 -0.1784  0.1774
 5677TIP3    H116995   6.782   4.215   5.572 -0.5581 -0.2309  2.3807
 5677TIP3    H216996   6.669   4.122   5.612 -1.0804 -1.3950 -1.3911
 5678TIP3   OH216997   1.740   3.427   3.493 -0.0913  0.2350  0.7006
 5678TIP3    H116998   1.678   3.477   3.440 -0.1739 -1.1223 -0.5648
 5678TIP3    H216999   1.687   3.386   3.561 -0.3770  0.1517  0.4310
 5679TIP3   OH217000   7.159   1.581   1.865  0.2854 -0.2590 -0.2368
 5679TIP3    H117001   7.168   1.568   1.771  1.2798  1.2099 -0.3873
 5679TIP3    H217002   7.126   1.498   1.898  1.6898 -1.4255 -1.6274
 5680TIP3   OH217003   0.999   3.935   0.984 -0.3324  0.1675 -0.0214
 5680TIP3    H117004   0.956   3.957   0.901  1.0016 -0.1981 -0.8506
 5680TIP3    H217005   1.051   3.857   0.964  0.9598  0.7809  0.8350
 5681TIP3   OH217006   1.994   3.029   0.920  0.6148 -0.6789  0.7218
 5681TIP3    H117007   2.053   3.094   0.882 -0.1732 -0.8930 -0.9556
 5681TIP3    H217008   2.022   2.946   0.881 -2.7048 -0.4168 -2.7655
 5682TIP3   OH217009   1.743   2.146   3.700  0.0794  0.1425 -0.3799
 5682TIP3    H117010   1.789   2.104   3.627 -0.9378 -1.0593 -0.3814
 5682TIP3    H217011   1.812   2.172   3.761  0.8592  0.0136 -1.1886
 5683TIP3   OH217012   5.836   2.136   4.199 -0.4388 -0.3035 -0.2018
 5683TIP3    H117013   5.905   2.196   4.170 -0.4404 -0.4376 -0.4825
 5683TIP3    H217014   5.874   2.091   4.275 -0.7709  0.7075  0.5792
 5684TIP3   OH217015   3.987   2.679   3.610 -0.1822 -0.1068  0.1339
 5684TIP3    H117016   3.935   2.655   3.533 -1.5525 -0.1951  1.0394
 5684TIP3    H217017   3.930   2.739   3.658  1.2527  1.1209  0.3456
 5685TIP3   OH217018   0.399   4.720   1.969 -0.3446  0.0466  0.0645
 5685TIP3    H117019   0.394   4.703   1.875  0.2443 -0.6726  0.1567
 5685TIP3    H217020   0.458   4.796   1.976 -1.6243  1.1136 -0.2315
 5686TIP3   OH217021  -0.004   3.283   4.743  0.1313  0.3123 -0.0317
 5686TIP3    H117022   0.077   3.232   4.738  0.2639  0.1398  2.6610
 5686TIP3    H217023  -0.071   3.218   4.764 -0.2022  0.8554  0.5803
 5687TIP3   OH217024   5.219   4.793   3.305 -0.2947  0.1720  0.0156
 5687TIP3    H117025   5.312   4.813   3.314 -0.3342  0.8742 -1.0231
 5687TIP3    H217026   5.212   4.744   3.223 -1.0426  1.6570 -0.8521
 5688TIP3   OH217027   2.079   5.341   0.853 -1.0093 -0.3639  0.0355
 5688TIP3    H117028   2.114   5.253   0.839 -0.5357 -0.0525 -0.8469
 5688TIP3    H217029   2.094   5.359   0.945 -0.2649 -0.8574  0.0179
 5689TIP3   OH217030   5.643   5.525   2.377  0.7132  0.2066 -0.0385
 5689TIP3    H117031   5.621   5.441   2.338  0.8731  0.7230 -1.2750
 5689TIP3    H217032   5.570   5.583   2.352  1.1539  0.7176 -0.1518
 5690TIP3   OH217033   2.359   4.892   1.600 -0.0136  0.8242  0.5219
 5690TIP3    H117034   2.449   4.892   1.569  0.0278 -0.4433  0.5622
 5690TIP3    H217035   2.320   4.970   1.561  0.6270  0.4481 -0.9502
 5691TIP3   OH217036   4.709   6.713   0.624 -0.1866 -0.1294 -0.0488
 5691TIP3    H117037   4.650   6.657   0.674 -0.2459  0.0598  0.0936
 5691TIP3    H217038   4.740   6.778   0.687  0.6426 -0.5881  0.0256
 5692TIP3   OH217039   2.276   3.100   1.646  0.0896 -0.1125  0.3118
 5692TIP3    H117040   2.241   3.145   1.569  0.5962 -0.5142 -0.1618
 5692TIP3    H217041   2.371   3.102   1.633  0.2211  0.4131  1.2679
 5693TIP3   OH217042   2.329   6.078   0.153 -0.6562  0.4169 -0.0634
 5693TIP3    H117043   2.340   6.125   0.071  0.1888 -0.4788 -0.4810
 5693TIP3    H217044   2.294   6.143   0.214  2.3357  2.1751 -0.0328
 5694TIP3   OH217045   0.502   5.811   5.265  0.1461 -0.2471  0.5826
 5694TIP3    H117046   0.505   5.752   5.340 -1.0621 -1.1546 -0.0519
 5694TIP3    H217047   0.584   5.794   5.218 -0.2143 -1.4640  0.3777
 5695TIP3   OH217048   6.084   1.887   5.246 -0.4050  0.2537  0.2733
 5695TIP3    H117049   6.147   1.834   5.295  1.2292 -0.6951 -2.5894
 5695TIP3    H217050   6.028   1.927   5.312  1.3582 -1.2449  2.8038
 5696TIP3   OH217051   0.242   2.938   3.465  0.2426  0.5392  0.7721
 5696TIP3    H117052   0.177   3.008   3.475  0.7370  1.2543 -0.5856
 5696TIP3    H217053   0.315   2.965   3.521  0.8994  1.7777 -0.5759
 5697TIP3   OH217054   1.036   4.332   1.725 -0.6823 -0.0578 -0.1189
 5697TIP3    H117055   1.026   4.384   1.645 -1.8612 -0.2829 -0.1410
 5697TIP3    H217056   1.080   4.390   1.786  1.4895 -0.3218 -1.3250
 5698TIP3   OH217057   6.222   5.693   1.984  0.1042 -0.0142  0.0261
 5698TIP3    H117058   6.275   5.742   1.921  1.4017 -1.5315 -0.0936
 5698TIP3    H217059   6.148   5.660   1.932  0.8023 -0.6784 -0.5567
 5699TIP3   OH217060   4.517   5.739   1.335 -0.1544  0.0465  0.0590
 5699TIP3    H117061   4.601   5.763   1.296 -0.5210  0.0825 -0.7170
 5699TIP3    H217062   4.539   5.712   1.424  0.7376 -0.3720 -0.2779
 5700TIP3   OH217063   4.874   4.435   5.845  0.1083 -0.2146 -0.4289
 5700TIP3    H117064   4.907   4.394   5.925 -1.3726  1.4147  1.1050
 5700TIP3    H217065   4.942   4.416   5.780  1.0057 -2.2656  0.9644
 5701TIP3   OH217066   5.090   0.091   5.749  0.2197 -0.0087 -0.0737
 5701TIP3    H117067   5.007   0.117   5.786  0.1534  0.2248 -0.3838
 5701TIP3    H217068   5.099  -0.002   5.773 -0.0263  0.0235  0.1413
 5702TIP3   OH217069  -0.016   3.820   2.508  0.4853  0.3093  0.8609
 5702TIP3    H117070   0.053   3.777   2.457 -0.1723 -0.6393  0.7278
 5702TIP3    H217071  -0.026   3.906   2.468  2.2512  0.8460  1.4997
 5703TIP3   OH217072   1.528   1.994   4.045 -0.1910 -0.1242  0.3009
 5703TIP3    H117073   1.502   2.074   4.091  1.1006 -0.0730  0.9792
 5703TIP3    H217074   1.540   1.929   4.115  1.0244 -0.2664 -0.0128
 5704TIP3   OH217075   3.362   1.638   4.291 -0.1953  0.0762 -1.3462
 5704TIP3    H117076   3.270   1.666   4.287 -0.8622 -1.9557 -1.0054
 5704TIP3    H217077   3.375   1.608   4.381  1.2533  1.6617 -0.9749
 5705TIP3   OH217078   6.753   0.435   4.240 -0.4592  0.4114 -0.0688
 5705TIP3    H117079   6.668   0.411   4.202 -0.5571  0.0560  0.3606
 5705TIP3    H217080   6.736   0.519   4.284 -0.5721  0.3820 -0.0540
 5706TIP3   OH217081   2.042   1.140   5.324  0.3461 -0.6162 -0.3359
 5706TIP3    H117082   2.032   1.051   5.288 -0.7045 -0.2932 -0.9006
 5706TIP3    H217083   2.062   1.126   5.417 -1.1312 -1.4698 -0.1040
 5707TIP3   OH217084   0.688   0.470   0.720 -0.5195  0.3747  0.7119
 5707TIP3    H117085   0.754   0.536   0.698  0.2977 -0.1885  1.4179
 5707TIP3    H217086   0.607   0.505   0.685  0.1972  0.9663 -0.4229
 5708TIP3   OH217087   0.067   6.546   5.544  0.1596 -0.4515 -0.1090
 5708TIP3    H117088   0.110   6.461   5.538  0.7179 -0.2036  0.3224
 5708TIP3    H217089   0.032   6.561   5.457 -1.8047 -2.0799  0.3159
 5709TIP3   OH217090   4.147   0.408   1.340 -0.2225  0.1886 -0.1426
 5709TIP3    H117091   4.227   0.368   1.374 -1.3205 -0.0877  2.3361
 5709TIP3    H217092   4.165   0.502   1.342  0.9301  0.0852 -2.1983
 5710TIP3   OH217093   3.340   1.665   0.278  0.0868  0.1859  0.3440
 5710TIP3    H117094   3.379   1.728   0.218 -0.4726 -0.5560 -0.8205
 5710TIP3    H217095   3.247   1.684   0.277 -0.2247 -1.2323 -0.7645
 5711TIP3   OH217096   2.463   0.725   4.310 -0.3523 -0.1549 -0.1772
 5711TIP3    H117097   2.462   0.673   4.230 -0.8657 -0.0925 -0.2118
 5711TIP3    H217098   2.522   0.798   4.290  1.0898 -1.1810  0.1713
 5712TIP3   OH217099   4.923   6.426   3.939  0.3049 -0.4344 -0.3136
 5712TIP3    H117100   4.879   6.509   3.922 -1.0529 -0.4905  2.2934
 5712TIP3    H217101   4.993   6.448   4.001  1.5005 -0.9325 -1.4368
 5713TIP3   OH217102   2.065   0.743   3.948  0.3315 -0.4435 -0.0490
 5713TIP3    H117103   1.997   0.734   3.881 -1.2165  1.5221  1.1425
 5713TIP3    H217104   2.116   0.819   3.920 -0.6799  0.7435  1.2288
 5714TIP3   OH217105   6.959   1.032   1.264 -0.0635 -0.2842  0.3528
 5714TIP3    H117106   6.901   1.054   1.337  0.7738  1.0521  0.6540
 5714TIP3    H217107   6.998   0.948   1.289 -0.5394 -0.3291  0.9626
 5715TIP3   OH217108   4.870   4.343   5.104 -0.3375  0.2101  0.0825
 5715TIP3    H117109   4.961   4.331   5.074 -0.1603  0.2978  0.5724
 5715TIP3    H217110   4.827   4.260   5.084  0.0719 -0.1341  0.6000
 5716TIP3   OH217111   2.159   1.586   0.296  0.2923  0.4062  0.4644
 5716TIP3    H117112   2.150   1.583   0.391  2.9864 -0.4738  0.8075
 5716TIP3    H217113   2.236   1.531   0.278  0.2875  1.1044 -2.1497
 5717TIP3   OH217114   1.430   5.910   2.513  0.5697  0.1792 -0.2257
 5717TIP3    H117115   1.347   5.882   2.475 -0.8766  2.2088  1.1792
 5717TIP3    H217116   1.497   5.876   2.454 -1.2898 -0.7539 -1.9117
 5718TIP3   OH217117   4.236   2.261   0.344 -0.7707  0.2050 -0.2879
 5718TIP3    H117118   4.157   2.231   0.388 -0.4151 -0.3042  0.0140
 5718TIP3    H217119   4.287   2.181   0.328  0.0880  0.6168  0.3087
 5719TIP3   OH217120   3.778   2.343   1.200 -0.5100  0.4662  0.0822
 5719TIP3    H117121   3.764   2.393   1.120 -2.3488 -1.1077 -0.6509
 5719TIP3    H217122   3.841   2.275   1.175 -2.0503 -0.8232 -0.4560
 5720TIP3   OH217123   2.540   3.011   0.406  0.4993  0.5697 -0.3849
 5720TIP3    H117124   2.594   3.072   0.357  0.2848  0.6367 -0.5386
 5720TIP3    H217125   2.527   3.055   0.491  0.1359  0.8547 -0.5844
 5721TIP3   OH217126   6.849   6.179   1.228  0.5541  0.2400 -0.6605
 5721TIP3    H117127   6.802   6.234   1.165  0.5451 -0.2270 -1.0637
 5721TIP3    H217128   6.801   6.191   1.310 -0.2198 -0.1510 -1.0412
 5722TIP3   OH217129   6.114   0.570   4.999  0.3577 -0.4287 -0.1968
 5722TIP3    H117130   6.145   0.606   5.083 -0.2014  0.5631 -0.3986
 5722TIP3    H217131   6.042   0.629   4.973  0.8030 -0.4717 -1.5857
 5723TIP3   OH217132   3.677   0.261   3.545  0.7856 -0.6926  0.0352
 5723TIP3    H117133   3.668   0.350   3.512  0.6394 -1.4410 -2.0787
 5723TIP3    H217134   3.751   0.265   3.607 -0.0871  1.1268  1.0353
 5724TIP3   OH217135   6.670   3.592   4.264  0.3288 -0.0160  0.4278
 5724TIP3    H117136   6.684   3.554   4.177 -0.4300  0.5383  0.0528
 5724TIP3    H217137   6.588   3.640   4.256  0.1854 -0.0667  1.4937
 5725TIP3   OH217138   3.707   1.230   0.374 -0.1689 -0.0503  0.0351
 5725TIP3    H117139   3.801   1.218   0.359 -0.0496  1.2086 -0.2950
 5725TIP3    H217140   3.671   1.253   0.289 -0.8129 -0.6265  0.1380
 5726TIP3   OH217141   2.430   0.062   2.476 -0.1457 -0.7168 -0.1633
 5726TIP3    H117142   2.471   0.121   2.539 -1.9269  0.3929 -0.0050
 5726TIP3    H217143   2.416   0.116   2.398 -0.3036 -1.3889 -0.6060
 5727TIP3   OH217144   0.558   5.540   5.573 -0.5691 -0.3921  0.2028
 5727TIP3    H117145   0.604   5.459   5.593 -0.2699 -0.1947  0.3185
 5727TIP3    H217146   0.533   5.575   5.659  1.8217  1.1027  0.3630
 5728TIP3   OH217147   4.568   5.594   2.299 -0.0113  0.4517 -0.1639
 5728TIP3    H117148   4.531   5.512   2.265 -1.1395  0.8994 -0.0805
 5728TIP3    H217149   4.495   5.635   2.346 -0.3861  2.8536 -2.5734
 5729TIP3   OH217150   2.560   5.036   2.960  0.0198 -0.1552  0.3362
 5729TIP3    H117151   2.606   5.115   2.931 -1.1629  0.5191  0.2009
 5729TIP3    H217152   2.482   5.033   2.904 -1.9827  0.7873  2.8687
 5730TIP3   OH217153   1.080   4.542   0.725 -0.2023 -0.5393  0.1012
 5730TIP3    H117154   1.081   4.509   0.815 -1.3689  0.8734  0.6727
 5730TIP3    H217155   1.105   4.634   0.734  0.4139 -0.5706 -1.1341
 5731TIP3   OH217156   5.635   6.552   3.905 -0.4479 -0.2920 -0.2188
 5731TIP3    H117157   5.548   6.581   3.931 -1.0381  1.5803 -3.7184
 5731TIP3    H217158   5.674   6.518   3.985 -4.1718 -0.7506  1.5923
 5732TIP3   OH217159   5.626   5.256   1.122  0.2637 -0.2845 -0.6649
 5732TIP3    H117160   5.662   5.344   1.117  0.8148 -0.4459  0.1828
 5732TIP3    H217161   5.633   5.232   1.215 -0.1422 -1.1109 -0.8314
 5733TIP3   OH217162   1.576   0.564   0.942  0.0276 -0.0774 -0.3204
 5733TIP3    H117163   1.629   0.500   0.895 -1.1768 -0.1762 -1.6238
 5733TIP3    H217164   1.486   0.541   0.920 -0.5022  0.8779  0.7724
 5734TIP3   OH217165   3.031   0.173   5.188 -0.2368  0.7913  0.1019
 5734TIP3    H117166   2.973   0.158   5.263  1.6809 -0.6743  1.3718
 5734TIP3    H217167   2.974   0.160   5.111 -1.4084 -1.7544  1.2638
 5735TIP3   OH217168   1.221   3.718   2.367  0.2966 -0.2813 -0.2679
 5735TIP3    H117169   1.269   3.682   2.292  0.9313  0.7144 -0.3606
 5735TIP3    H217170   1.281   3.782   2.405  0.1555 -1.0455  1.3507
 5736TIP3   OH217171   3.650   5.288   0.859  0.6386  0.1815 -0.2294
 5736TIP3    H117172   3.659   5.344   0.936  3.8198 -0.4455 -0.0271
 5736TIP3    H217173   3.643   5.199   0.894  1.0439 -0.0123 -0.6307
 5737TIP3   OH217174   4.779   0.571   2.335  0.3055 -0.2566 -0.0791
 5737TIP3    H117175   4.733   0.521   2.402  0.2731 -0.0391  0.0632
 5737TIP3    H217176   4.726   0.562   2.257 -1.9483  2.8680  0.8991
 5738TIP3   OH217177   3.537   1.031   3.765 -0.2816 -0.1890 -0.2078
 5738TIP3    H117178   3.554   0.959   3.826  0.8787 -0.2603 -0.5983
 5738TIP3    H217179   3.538   1.110   3.820 -1.5291 -0.4417  0.2159
 5739TIP3   OH217180   3.080   3.484   3.099  0.1102 -0.5278  0.3684
 5739TIP3    H117181   3.110   3.451   3.184  2.0127  0.0572 -0.0472
 5739TIP3    H217182   3.140   3.555   3.078 -0.5698 -0.4005 -1.3039
 5740TIP3   OH217183   7.209   2.839   3.945  0.0596  0.1945 -0.5203
 5740TIP3    H117184   7.129   2.795   3.972 -0.0042  0.2840 -0.5631
 5740TIP3    H217185   7.248   2.870   4.027 -0.6622  1.3714 -0.6031
 5741TIP3   OH217186   0.307   3.156   1.544  0.0787 -0.6232  0.7642
 5741TIP3    H117187   0.331   3.228   1.602  0.9857 -1.7207  1.7988
 5741TIP3    H217188   0.289   3.198   1.460  1.2084  0.7466  1.1724
 5742TIP3   OH217189   2.546   1.165   4.331  0.2449  0.2492 -0.0446
 5742TIP3    H117190   2.542   1.092   4.394 -2.9346 -1.1592 -1.6588
 5742TIP3    H217191   2.477   1.225   4.359 -0.7792 -0.0871 -1.7561
 5743TIP3   OH217192   3.917   3.369   1.852  0.4014  0.2619 -0.0408
 5743TIP3    H117193   3.863   3.363   1.773 -1.6112 -1.9182  1.3637
 5743TIP3    H217194   4.000   3.329   1.827  0.9582  2.2904 -1.8178
 5744TIP3   OH217195   1.992   0.732   4.198 -0.3122  0.1647 -0.1489
 5744TIP3    H117196   2.028   0.794   4.261 -0.2266  1.2217 -1.2105
 5744TIP3    H217197   2.045   0.743   4.120 -2.7640  1.6477 -1.7186
 5745TIP3   OH217198   3.337   2.960   3.358 -0.3806 -0.2681  0.0498
 5745TIP3    H117199   3.253   2.930   3.393 -0.4548 -0.0321  0.0776
 5745TIP3    H217200   3.357   2.898   3.288 -1.7845  1.0333 -1.6115
 5746TIP3   OH217201   2.204   1.653   1.783  0.1970 -0.6138 -0.3611
 5746TIP3    H117202   2.252   1.711   1.724  0.4553  0.7598  1.1300
 5746TIP3    H217203   2.115   1.649   1.746  0.5561 -0.4419 -1.2705
 5747TIP3   OH217204   0.085   6.532   2.187 -0.1550  0.0780  0.7285
 5747TIP3    H117205   0.149   6.513   2.119 -0.5731 -1.0434  0.6220
 5747TIP3    H217206   0.086   6.454   2.243 -0.5829  0.5371  1.3842
 5748TIP3   OH217207   1.399   0.816   1.359  0.4925 -0.5574 -0.6535
 5748TIP3    H117208   1.483   0.835   1.316  0.3341 -0.6802 -1.0244
 5748TIP3    H217209   1.418   0.745   1.420  0.4209 -1.3838 -1.5758
 5749TIP3   OH217210   4.535   6.025   4.100  0.3646  0.2464  0.1263
 5749TIP3    H117211   4.445   6.058   4.096  0.0187 -0.1036  2.9880
 5749TIP3    H217212   4.585   6.095   4.141  1.0774 -0.1604 -0.0261
 5750TIP3   OH217213   5.223   6.309   5.401  0.1781 -0.2800  0.1406
 5750TIP3    H117214   5.133   6.291   5.374 -0.6614  0.6812  2.1094
 5750TIP3    H217215   5.216   6.334   5.493  2.6441 -1.6328  0.7848
 5751TIP3   OH217216   6.562   5.594   1.846 -0.1525 -0.2561 -0.3156
 5751TIP3    H117217   6.486   5.536   1.838  0.0377 -0.8322  1.6486
 5751TIP3    H217218   6.550   5.638   1.930 -0.6734  3.2046 -2.0539
 5752TIP3   OH217219   4.482   4.814   0.368  0.3388 -0.0717  0.0168
 5752TIP3    H117220   4.510   4.872   0.298 -0.1990 -2.0458 -1.9744
 5752TIP3    H217221   4.560   4.763   0.391  0.1674 -0.4527 -0.2300
 5753TIP3   OH217222   1.260   0.165   5.135  0.0604 -0.3953 -0.0662
 5753TIP3    H117223   1.345   0.189   5.100  0.1137  0.5753  0.6806
 5753TIP3    H217224   1.199   0.230   5.101 -0.1980 -0.4855  0.2071
 5754TIP3   OH217225   3.425   1.412   5.879  0.3720  0.4333 -0.4498
 5754TIP3    H117226   3.356   1.392   5.816 -2.1347 -1.7369  2.6886
 5754TIP3    H217227   3.463   1.327   5.902  0.0890  0.8924  2.0197
 5755TIP3   OH217228   4.215   5.441   5.567 -0.4279  0.7798  0.1470
 5755TIP3    H117229   4.307   5.464   5.553 -0.2347  0.1351  0.3643
 5755TIP3    H217230   4.186   5.406   5.483 -0.0907 -0.3086  0.4802
 5756TIP3   OH217231   1.972   3.850   1.267 -0.4387 -0.2081  0.3301
 5756TIP3    H117232   2.056   3.871   1.308 -0.1799  1.1955 -0.8522
 5756TIP3    H217233   1.933   3.784   1.325  0.4287  0.8238  2.1599
 5757TIP3   OH217234   4.104   6.361   1.062 -0.0505  0.0258  0.4506
 5757TIP3    H117235   4.015   6.332   1.042 -0.7726  1.6902  1.0462
 5757TIP3    H217236   4.160   6.306   1.008 -1.5491  0.3083 -1.5174
 5758TIP3   OH217237   4.325   5.762   5.764  0.1254  0.0247  0.1009
 5758TIP3    H117238   4.337   5.668   5.777 -1.0617  0.0547  1.7633
 5758TIP3    H217239   4.256   5.786   5.825  0.6314  2.0580 -0.0512
 5759TIP3   OH217240   5.503   5.662   1.290  0.0216  0.5247 -0.0950
 5759TIP3    H117241   5.499   5.756   1.303 -1.7591  0.3987  0.5630
 5759TIP3    H217242   5.540   5.627   1.371 -1.0566  0.5412  0.4197
 5760TIP3   OH217243   1.857   6.321   4.539 -0.3036  0.0663  0.2405
 5760TIP3    H117244   1.784   6.372   4.572 -0.6238 -0.8307  0.9787
 5760TIP3    H217245   1.855   6.240   4.591  2.6627  0.9737  2.0396
 5761TIP3   OH217246   1.191   1.578   3.478 -0.5626 -0.0242  0.1980
 5761TIP3    H117247   1.283   1.606   3.483 -1.2728  2.3631  1.3245
 5761TIP3    H217248   1.161   1.610   3.394 -0.0758 -2.0230 -0.8069
 5762TIP3   OH217249   6.075   3.381   1.148  0.4254 -0.0978  0.4493
 5762TIP3    H117250   5.992   3.335   1.130  0.2787  0.7306 -1.1640
 5762TIP3    H217251   6.099   3.420   1.064  2.0181  0.4075  1.1129
 5763TIP3   OH217252   1.273   2.918   3.887 -0.8691  0.6338  0.1295
 5763TIP3    H117253   1.317   2.989   3.933 -1.1376  0.7087  0.2698
 5763TIP3    H217254   1.321   2.839   3.913 -1.1152  0.6571  0.6557
 5764TIP3   OH217255   4.267   2.175   4.347  0.1509  0.4716  0.1196
 5764TIP3    H117256   4.361   2.183   4.362  0.1399 -0.9730  1.1056
 5764TIP3    H217257   4.247   2.083   4.364 -1.5773  0.9116  0.6803
 5765TIP3   OH217258   2.601   6.727   1.579 -0.1877 -0.7818 -0.0264
 5765TIP3    H117259   2.650   6.761   1.654  0.5729 -0.7241 -0.5351
 5765TIP3    H217260   2.509   6.733   1.605  0.0637 -0.7098  0.8738
 5766TIP3   OH217261   1.489   3.395   5.087 -0.5794 -0.2305 -0.3854
 5766TIP3    H117262   1.492   3.486   5.061 -1.1612 -0.4191 -1.1308
 5766TIP3    H217263   1.426   3.392   5.159 -0.4229 -0.0136 -0.2423
 5767TIP3   OH217264   0.292   4.501   4.029  0.1499  0.0395 -0.0588
 5767TIP3    H117265   0.293   4.405   4.025 -0.8584  0.0670 -1.6313
 5767TIP3    H217266   0.384   4.525   4.038  0.5937 -1.0385 -1.3840
 5768TIP3   OH217267   0.755   2.326   0.132 -1.0582 -0.4603  0.7274
 5768TIP3    H117268   0.766   2.421   0.133  0.6155 -0.5895 -0.4325
 5768TIP3    H217269   0.668   2.312   0.096 -0.8547  0.6414 -0.2521
 5769TIP3   OH217270   6.715   3.086   4.328  0.8627  0.1560  0.1284
 5769TIP3    H117271   6.653   3.128   4.268 -0.0436 -0.4815  0.6023
 5769TIP3    H217272   6.772   3.157   4.357 -1.3639  1.3675  1.8479
 5770TIP3   OH217273   4.514   5.126   3.497  0.2877  0.4335 -0.3996
 5770TIP3    H117274   4.586   5.077   3.537 -0.3852  0.6791  1.1905
 5770TIP3    H217275   4.556   5.177   3.427  1.4121 -0.4940 -0.4341
 5771TIP3   OH217276   4.050   0.047   1.718 -0.3627 -0.2144  0.2156
 5771TIP3    H117277   4.115  -0.004   1.766 -2.8703 -2.5258  1.4234
 5771TIP3    H217278   4.022  -0.011   1.647 -0.3476  1.1819 -0.9800
 5772TIP3   OH217279   5.906   1.700   0.478  0.1168 -0.7185  0.5045
 5772TIP3    H117280   5.812   1.712   0.488 -0.1808 -1.3443 -1.1362
 5772TIP3    H217281   5.920   1.606   0.495  0.5365 -0.5214  1.2813
 5773TIP3   OH217282   1.477   3.117   3.334  0.2445 -0.1295  0.0996
 5773TIP3    H117283   1.407   3.166   3.378 -1.1610 -0.7884 -1.3069
 5773TIP3    H217284   1.496   3.045   3.394  0.3604  0.5658  0.9138
 5774TIP3   OH217285   6.912   2.780   1.937 -0.4023  0.1029  0.0904
 5774TIP3    H117286   6.946   2.843   2.001 -1.0559  2.6234 -1.8818
 5774TIP3    H217287   6.943   2.813   1.853 -2.6037 -0.9642 -1.2185
 5775TIP3   OH217288   3.869   3.169   2.889  0.4681  0.8289 -0.3315
 5775TIP3    H117289   3.862   3.217   2.806 -0.1530 -1.3094 -1.6026
 5775TIP3    H217290   3.960   3.140   2.892  0.4254  0.6883 -0.3926
 5776TIP3   OH217291   6.627   0.449   2.201 -0.5081  0.3361 -0.2284
 5776TIP3    H117292   6.568   0.390   2.248 -0.4695 -0.0617 -0.6658
 5776TIP3    H217293   6.588   0.456   2.114 -0.2386  0.5532 -0.3323
 5777TIP3   OH217294   5.979   5.043   5.271  0.1848 -0.4307  0.6009
 5777TIP3    H117295   5.961   5.015   5.360  2.0298  0.9036  1.4645
 5777TIP3    H217296   5.958   5.136   5.270 -2.0334 -0.8507 -1.0704
 5778TIP3   OH217297   0.969   3.938   4.028  0.4487  0.6150  0.3252
 5778TIP3    H117298   1.062   3.958   4.017  0.4090  0.6299  0.0199
 5778TIP3    H217299   0.927   3.973   3.950  0.0660  1.3828  0.8630
 5779TIP3   OH217300   2.303   5.460   0.011 -0.0206  0.4184 -0.5439
 5779TIP3    H117301   2.262   5.506  -0.062 -2.3330  0.9067  0.9700
 5779TIP3    H217302   2.251   5.485   0.088  1.1526 -1.5417  0.9867
 5780TIP3   OH217303   0.063   1.196   5.025 -0.0358  0.1857  0.0674
 5780TIP3    H117304   0.073   1.257   4.952  0.4275  0.4866  0.3752
 5780TIP3    H217305  -0.023   1.155   5.011  0.4166 -0.4082 -1.1235
 5781TIP3   OH217306   3.544   4.800   5.328 -0.0953 -0.7652 -0.2355
 5781TIP3    H117307   3.499   4.768   5.406  0.6697 -1.5730 -0.0987
 5781TIP3    H217308   3.637   4.782   5.346  0.1162 -0.6825 -1.2054
 5782TIP3   OH217309   0.401   0.669   2.440  0.2945 -0.0680  0.0631
 5782TIP3    H117310   0.352   0.740   2.400 -0.7391 -0.2823  0.8890
 5782TIP3    H217311   0.462   0.712   2.499 -1.1807  0.1496  1.5106
 5783TIP3   OH217312   1.086   3.152   5.343  0.3174 -0.0916 -0.2916
 5783TIP3    H117313   1.026   3.164   5.417  2.3773  0.4141  1.4181
 5783TIP3    H217314   1.147   3.085   5.373  0.1785 -1.1672 -2.2884
 5784TIP3   OH217315   2.858   2.944   4.535  0.0329 -0.1218  0.1289
 5784TIP3    H117316   2.940   2.949   4.584 -1.1768 -1.6465  2.4893
 5784TIP3    H217317   2.885   2.915   4.447  1.9356 -2.2753  1.3195
 5785TIP3   OH217318   4.748   4.109   5.052 -0.4752 -0.3814 -0.1254
 5785TIP3    H117319   4.757   4.040   4.986 -1.3654  0.1010 -0.7829
 5785TIP3    H217320   4.665   4.090   5.096 -3.2901  2.6752 -3.4075
 5786TIP3   OH217321   1.618   5.001   0.115  0.9150 -0.0120 -0.4021
 5786TIP3    H117322   1.595   4.970   0.203  2.3289 -0.6313 -0.2123
 5786TIP3    H217323   1.537   5.038   0.080 -0.5006 -2.5764 -0.0518
 5787TIP3   OH217324   3.947   4.418   2.375 -0.4844 -0.1568 -0.1202
 5787TIP3    H117325   4.003   4.484   2.334 -1.7048  0.5506 -0.7018
 5787TIP3    H217326   3.873   4.467   2.409 -1.6933 -1.2556 -1.0402
 5788TIP3   OH217327   0.181   4.693   3.438  0.1847 -0.1494 -0.3897
 5788TIP3    H117328   0.138   4.758   3.382  1.5834  0.0593 -1.2702
 5788TIP3    H217329   0.120   4.619   3.440 -1.5663  1.2238  0.8269
 5789TIP3   OH217330   3.576   4.872   4.796 -0.0327 -0.3889  0.0202
 5789TIP3    H117331   3.597   4.919   4.715  1.6014  1.3633  1.3391
 5789TIP3    H217332   3.494   4.827   4.778 -1.0428  1.9870 -1.8200
 5790TIP3   OH217333   6.813   3.744   3.940  0.6161 -0.2815  0.0742
 5790TIP3    H117334   6.757   3.667   3.958  0.6531 -0.5751 -1.0054
 5790TIP3    H217335   6.880   3.741   4.008  0.3317 -0.9274  0.3374
 5791TIP3   OH217336   2.520   2.785   1.350 -0.2693  0.0036  0.1573
 5791TIP3    H117337   2.536   2.715   1.413  0.4976 -1.3380 -1.4338
 5791TIP3    H217338   2.451   2.751   1.294 -1.4309  1.4601  0.6554
 5792TIP3   OH217339   1.199   1.364   1.134  0.1324  0.0157  0.0743
 5792TIP3    H117340   1.290   1.333   1.138  0.0414 -0.2392  0.2064
 5792TIP3    H217341   1.150   1.299   1.184 -0.0963  0.2558  0.1617
 5793TIP3   OH217342   4.063   4.095   3.440  0.1193  0.0842  0.0676
 5793TIP3    H117343   4.100   4.077   3.527 -0.0234 -0.3789  0.0369
 5793TIP3    H217344   4.089   4.185   3.421 -0.6996  0.5409  1.0195
 5794TIP3   OH217345   0.244   4.144   0.997  0.0631  0.0608 -0.3433
 5794TIP3    H117346   0.236   4.179   1.085 -1.0518 -1.2160  0.1144
 5794TIP3    H217347   0.311   4.076   1.004 -0.8350 -0.8376 -0.1711
 5795TIP3   OH217348   3.864   2.238   5.405 -0.6245 -0.0583 -0.2100
 5795TIP3    H117349   3.835   2.201   5.489 -2.4676 -0.5941 -1.0352
 5795TIP3    H217350   3.839   2.331   5.410 -0.0913  0.0756  0.0882
 5796TIP3   OH217351   6.102   4.944   2.561  0.4089  0.6279  0.3163
 5796TIP3    H117352   6.111   5.029   2.517  1.3881  0.3393 -0.0703
 5796TIP3    H217353   6.166   4.888   2.518 -0.8764 -0.5909 -0.0746
 5797TIP3   OH217354   0.698   2.594   0.186 -0.6657 -0.6381 -0.1998
 5797TIP3    H117355   0.790   2.604   0.209 -0.5761  2.7988 -1.4550
 5797TIP3    H217356   0.650   2.625   0.263 -0.8410 -2.3154  0.4090
 5798TIP3   OH217357   3.572   1.139   1.738  0.0290 -0.1437  0.0523
 5798TIP3    H117358   3.602   1.055   1.772  1.2363  0.4435  0.5084
 5798TIP3    H217359   3.633   1.160   1.667  0.9680  1.2364  1.2081
 5799TIP3   OH217360   6.080   3.940   0.244 -0.7326  0.4109 -0.8267
 5799TIP3    H117361   6.077   3.994   0.324 -1.5022 -1.1174  0.2303
 5799TIP3    H217362   6.010   3.876   0.257  1.2392 -1.9313 -1.2485
 5800TIP3   OH217363   2.537   2.176   5.221  0.4228  0.0894 -0.0569
 5800TIP3    H117364   2.527   2.220   5.136  0.9081  1.8451  0.7347
 5800TIP3    H217365   2.627   2.144   5.220  0.7355  0.9160  0.1095
 5801TIP3   OH217366   2.920   4.587   5.499  0.2086  0.2593  0.0293
 5801TIP3    H117367   2.934   4.572   5.592 -0.8754  1.0612  0.3447
 5801TIP3    H217368   3.005   4.569   5.458  0.8619  0.5182  1.2379
 5802TIP3   OH217369   2.944   2.023   0.235  0.1499 -0.0305  0.2115
 5802TIP3    H117370   3.001   2.098   0.218 -0.1810  0.1522 -0.1001
 5802TIP3    H217371   2.976   1.955   0.175 -0.5705  0.3858 -0.6619
 5803TIP3   OH217372   2.937   2.822   5.694 -0.0203  0.0364  0.0449
 5803TIP3    H117373   3.012   2.793   5.746 -0.0153  1.1953  0.7114
 5803TIP3    H217374   2.947   2.777   5.610  1.2151 -0.1154  0.2561
 5804TIP3   OH217375   3.633   2.475   0.323 -1.0309 -0.2437  0.4775
 5804TIP3    H117376   3.695   2.451   0.254  0.5372  0.5612  1.5488
 5804TIP3    H217377   3.561   2.517   0.277 -0.2385 -0.1474 -0.7038
 5805TIP3   OH217378   3.843   4.662   2.345  0.9512 -0.5405 -0.0963
 5805TIP3    H117379   3.898   4.741   2.337  0.4302 -0.1259  0.3622
 5805TIP3    H217380   3.761   4.694   2.381  0.1958 -1.0740 -1.2908
 5806TIP3   OH217381   0.562   6.569   4.442  0.4717 -0.8929  0.7062
 5806TIP3    H117382   0.635   6.513   4.415  0.4339 -1.3142  1.4570
 5806TIP3    H217383   0.505   6.572   4.365  0.0333 -2.6204  0.9174
 5807TIP3   OH217384   0.174   6.342   5.090  0.3424  0.4706 -0.2709
 5807TIP3    H117385   0.219   6.258   5.100 -0.9741 -0.2948 -0.5858
 5807TIP3    H217386   0.236   6.396   5.041  1.2569 -0.2601  0.0427
 5808TIP3   OH217387   2.452   5.909   5.530  0.1738 -0.2465  0.2835
 5808TIP3    H117388   2.539   5.948   5.533  0.5484 -0.9543 -0.6094
 5808TIP3    H217389   2.442   5.882   5.438 -1.5774  1.1099  0.0368
 5809TIP3   OH217390   6.366   2.667   4.791  0.9062  0.1904 -0.0696
 5809TIP3    H117391   6.284   2.648   4.746  1.8859 -1.9793 -1.0496
 5809TIP3    H217392   6.345   2.741   4.848 -1.4004  0.4642 -1.1643
 5810TIP3   OH217393   6.731   3.487   0.645 -0.5411  0.2392  0.2650
 5810TIP3    H117394   6.744   3.582   0.651 -2.3820  0.7225 -1.8308
 5810TIP3    H217395   6.654   3.470   0.700  0.1544 -0.1633  1.1291
 5811TIP3   OH217396   6.446   2.620   1.171  0.5514 -0.4239 -0.1395
 5811TIP3    H117397   6.428   2.713   1.155  0.8543 -0.3174  0.1120
 5811TIP3    H217398   6.532   2.606   1.132  0.1970 -0.7788 -0.8107
 5812TIP3   OH217399   6.804   4.222   2.362 -0.3697  0.2700 -0.2518
 5812TIP3    H117400   6.856   4.234   2.283  0.6419 -3.4111 -0.3589
 5812TIP3    H217401   6.869   4.213   2.433 -0.7090 -3.0490 -0.1851
 5813TIP3   OH217402   6.603   5.788   2.451  0.8706  0.0286  0.4466
 5813TIP3    H117403   6.611   5.696   2.424  1.5292  0.5951 -1.4586
 5813TIP3    H217404   6.540   5.825   2.389  0.5652  0.8489  1.2394
 5814TIP3   OH217405   0.881   6.055   4.553  0.6512 -0.4502  0.1545
 5814TIP3    H117406   0.823   6.122   4.588  1.2285  0.3596 -0.4167
 5814TIP3    H217407   0.945   6.103   4.500  2.3105 -1.2236  1.3448
 5815TIP3   OH217408   5.120   0.360   4.630 -0.0344 -0.4956 -0.2343
 5815TIP3    H117409   5.049   0.323   4.683  0.2980 -1.0240 -0.1497
 5815TIP3    H217410   5.199   0.343   4.681 -0.1176  3.2387  1.4457
 5816TIP3   OH217411   4.240   0.016   3.516  0.8177 -0.0871 -0.6430
 5816TIP3    H117412   4.292   0.074   3.572 -0.3205  1.9407 -1.5734
 5816TIP3    H217413   4.159   0.002   3.563  1.5216 -1.9847  0.1074
 5817TIP3   OH217414   2.992   4.240   2.830  0.0377  0.3760 -0.0638
 5817TIP3    H117415   2.911   4.211   2.788 -0.2848  2.0873 -0.7364
 5817TIP3    H217416   2.980   4.221   2.923 -1.9450  2.1986  0.1339
 5818TIP3   OH217417   0.013   4.350   2.333 -0.0790  0.4649  0.3744
 5818TIP3    H117418   0.075   4.317   2.398 -0.4951 -0.8324  0.1306
 5818TIP3    H217419  -0.062   4.380   2.385 -0.6333 -1.0479  0.4976
 5819TIP3   OH217420   3.829   0.107   5.180 -0.5519 -0.0846  0.2647
 5819TIP3    H117421   3.789   0.032   5.135  0.5747 -0.8370  0.4620
 5819TIP3    H217422   3.758   0.170   5.191 -1.3357 -0.7876 -0.6428
 5820TIP3   OH217423   1.648   0.034   4.283  0.5303 -0.2988 -1.1630
 5820TIP3    H117424   1.679  -0.028   4.349 -1.3711  0.9790  1.1094
 5820TIP3    H217425   1.706   0.110   4.293  2.3903 -1.3180 -3.4303
 5821TIP3   OH217426   1.994   3.366   3.827 -0.4552 -0.3011  0.3957
 5821TIP3    H117427   2.004   3.276   3.857 -3.4109 -0.1560  2.1163
 5821TIP3    H217428   1.946   3.410   3.897 -1.4146  1.9433 -1.5360
 5822TIP3   OH217429   4.972   5.744   4.791  0.2012 -0.2401  0.2119
 5822TIP3    H117430   4.944   5.669   4.738  0.1882 -1.0047  1.2628
 5822TIP3    H217431   5.056   5.770   4.755 -0.8397  0.7469 -1.6495
 5823TIP3   OH217432   1.630   5.887   5.269 -0.7173 -0.3371 -0.2012
 5823TIP3    H117433   1.656   5.810   5.318  0.8246  0.6215  0.5594
 5823TIP3    H217434   1.585   5.942   5.333  0.0350  0.2892 -0.1947
 5824TIP3   OH217435   1.568   4.890   0.354  0.1040 -0.5341  0.0787
 5824TIP3    H117436   1.604   4.822   0.411  0.2804 -0.0108  0.6052
 5824TIP3    H217437   1.514   4.944   0.412  0.2431 -0.0245 -0.2552
 5825TIP3   OH217438   0.780   2.696   4.474 -0.3328 -0.0391  0.0823
 5825TIP3    H117439   0.853   2.646   4.509 -0.7652 -0.5932  0.2090
 5825TIP3    H217440   0.815   2.738   4.395  0.1684 -0.1447  0.2459
 5826TIP3   OH217441   2.896   3.337   1.460 -0.0845 -0.3420 -0.3385
 5826TIP3    H117442   2.805   3.353   1.434 -0.3877  1.6587  1.6038
 5826TIP3    H217443   2.900   3.242   1.475 -1.5875 -0.5949 -1.2894
 5827TIP3   OH217444   3.983   3.034   3.592  0.2893 -0.0002 -0.0328
 5827TIP3    H117445   4.052   3.015   3.528 -0.4272  0.5069 -0.9981
 5827TIP3    H217446   3.973   3.129   3.588  0.3211  0.0492  0.9455
 5828TIP3   OH217447   5.625   1.393   4.703  0.0759  0.3396  0.0510
 5828TIP3    H117448   5.538   1.373   4.668  0.4041 -1.9055  0.3946
 5828TIP3    H217449   5.617   1.378   4.798  0.6844  0.6793  0.1627
 5829TIP3   OH217450   2.267   5.811   0.088 -0.4317 -0.0371  0.0038
 5829TIP3    H117451   2.300   5.900   0.105  2.1745 -1.1249  1.2200
 5829TIP3    H217452   2.253   5.774   0.175 -0.0054 -1.3026 -0.4472
 5830TIP3   OH217453   6.802   5.381   1.244  0.0444 -0.1995 -0.3849
 5830TIP3    H117454   6.883   5.429   1.229  0.8419 -1.6679 -0.9732
 5830TIP3    H217455   6.777   5.349   1.157 -1.2052  0.2409 -0.2199
 5831TIP3   OH217456   1.906   0.469   5.182  0.0115  0.1536  0.3854
 5831TIP3    H117457   1.814   0.474   5.210 -0.3014 -0.3321 -0.4995
 5831TIP3    H217458   1.901   0.453   5.087  1.0154  1.3733  0.0955
 5832TIP3   OH217459   5.675   0.848   4.753  0.1944  0.4168 -0.1978
 5832TIP3    H117460   5.621   0.820   4.827 -2.2927  0.0717 -2.0012
 5832TIP3    H217461   5.705   0.767   4.713 -0.3503  0.5193 -0.8312
 5833TIP3   OH217462   4.390   1.084   5.171 -0.4000 -0.3504 -0.0721
 5833TIP3    H117463   4.465   1.055   5.119 -0.0080 -1.2477  0.9760
 5833TIP3    H217464   4.417   1.170   5.204 -1.1861  0.8891 -2.3854
 5834TIP3   OH217465   2.348   4.968   5.004  0.0538  0.1023 -0.0970
 5834TIP3    H117466   2.345   4.880   4.964  0.5884  1.0255 -2.3368
 5834TIP3    H217467   2.256   4.990   5.019 -0.1074 -0.6763  0.1208
 5835TIP3   OH217468   1.985   0.452   3.870 -0.3909  0.0036  0.2421
 5835TIP3    H117469   2.035   0.478   3.947 -0.0121 -0.5882  0.2030
 5835TIP3    H217470   1.999   0.524   3.808 -1.4076  0.8979  1.0186
 5836TIP3   OH217471   4.539   1.057   0.425 -0.5770 -0.2177 -0.0866
 5836TIP3    H117472   4.479   1.127   0.398 -1.9817 -1.7750 -1.2027
 5836TIP3    H217473   4.594   1.042   0.349  0.6211  0.5159  0.6000
 5837TIP3   OH217474   0.178   3.173   0.207 -0.2510  0.3255  0.3090
 5837TIP3    H117475   0.208   3.098   0.259 -0.6508  0.4168  0.6714
 5837TIP3    H217476   0.112   3.215   0.261 -1.2502 -0.0351 -0.5826
 5838TIP3   OH217477   2.987   5.356   0.072  0.1779 -0.2153 -0.4512
 5838TIP3    H117478   3.028   5.409   0.141  3.2309  0.0151 -2.2908
 5838TIP3    H217479   2.960   5.276   0.117  0.7380  0.5135  1.2891
 5839TIP3   OH217480   3.165   0.580   0.088 -0.3036 -0.2003  0.3015
 5839TIP3    H117481   3.230   0.596   0.157 -0.5123  2.1679  0.0354
 5839TIP3    H217482   3.098   0.647   0.103 -1.5837 -1.1963 -0.7708
 5840TIP3   OH217483   5.610   2.193   3.320 -0.2255 -0.0126 -0.4741
 5840TIP3    H117484   5.520   2.167   3.343  0.0146 -1.6141 -1.2380
 5840TIP3    H217485   5.663   2.158   3.391 -0.0625 -0.2962 -0.7337
 5841TIP3   OH217486   0.297   6.449   2.821 -0.0755  0.1279  0.5768
 5841TIP3    H117487   0.378   6.461   2.771 -1.4327  0.9979 -1.5691
 5841TIP3    H217488   0.247   6.386   2.770 -1.6017  1.1707  0.7110
 5842TIP3   OH217489   4.003   4.441   1.964  0.0244  0.7180  0.2456
 5842TIP3    H117490   3.928   4.469   2.016 -2.0713 -2.2753 -0.9060
 5842TIP3    H217491   4.072   4.424   2.028 -0.5673  2.5128  1.4391
 5843TIP3   OH217492   3.590   3.315   1.978 -0.3204  0.1191 -0.0024
 5843TIP3    H117493   3.641   3.254   2.032  0.6078 -0.5811 -1.6030
 5843TIP3    H217494   3.505   3.321   2.023  0.7683  0.4736  2.1213
 5844TIP3   OH217495   6.053   6.250   1.750 -0.1483 -0.1640  0.1088
 5844TIP3    H117496   6.149   6.250   1.757 -0.2202 -0.2576  1.3173
 5844TIP3    H217497   6.031   6.339   1.720  0.2346  0.4047  1.4400
 5845TIP3   OH217498   1.245   4.623   0.379  0.1026  0.4024  0.1171
 5845TIP3    H117499   1.339   4.604   0.382  0.0562  0.3059  1.3101
 5845TIP3    H217500   1.203   4.538   0.396 -0.2137  0.3768 -0.7549
 5846TIP3   OH217501   0.349   3.858   3.454  0.1785  0.5184 -0.1627
 5846TIP3    H117502   0.439   3.863   3.486 -0.0458  0.7169  0.4574
 5846TIP3    H217503   0.347   3.919   3.380  0.5816  0.4136 -0.2650
 5847TIP3   OH217504   0.893   6.555   3.665 -0.3715  0.5444 -0.2088
 5847TIP3    H117505   0.916   6.638   3.707  1.2333  0.6985 -1.2884
 5847TIP3    H217506   0.880   6.494   3.738 -2.0340  1.8033  0.6145
 5848TIP3   OH217507   6.582   6.435   3.391  0.6220  0.3735 -0.0825
 5848TIP3    H117508   6.648   6.398   3.332 -1.4935 -1.1236 -1.6907
 5848TIP3    H217509   6.551   6.360   3.442 -0.6594  0.7666 -0.2439
 5849TIP3   OH217510   4.621   4.610   1.916 -0.2460  0.3754  0.0809
 5849TIP3    H117511   4.638   4.603   1.822  0.2687 -0.4260  0.2200
 5849TIP3    H217512   4.562   4.685   1.925  0.0689  0.7391 -0.8312
 5850TIP3   OH217513   5.092   3.096   4.346  0.4762  0.1414 -0.4677
 5850TIP3    H117514   5.033   3.093   4.271 -0.1578 -3.5199 -0.0100
 5850TIP3    H217515   5.054   3.161   4.404 -0.6793  0.9287 -2.0268
 5851TIP3   OH217516   5.910   3.489   3.169 -0.0218  0.2385  0.7804
 5851TIP3    H117517   5.831   3.501   3.222 -0.1338  0.8887  0.4777
 5851TIP3    H217518   5.904   3.557   3.101 -1.3435 -2.2660 -1.8590
 5852TIP3   OH217519   6.851   0.254   3.118  0.7325 -0.2135 -0.2933
 5852TIP3    H117520   6.768   0.295   3.092  0.3626 -0.1921  0.8718
 5852TIP3    H217521   6.899   0.322   3.164  0.3581 -0.8662  1.1423
 5853TIP3   OH217522   3.284   0.034   2.678  0.1193 -0.4156 -0.6239
 5853TIP3    H117523   3.334   0.116   2.686 -0.1681 -0.0989 -1.8202
 5853TIP3    H217524   3.293   0.010   2.586 -0.8250 -1.0657 -0.5587
 5854TIP3   OH217525   0.814   0.367   1.617  0.4941 -0.8530  0.5483
 5854TIP3    H117526   0.760   0.312   1.675  0.8709 -2.2505 -0.3776
 5854TIP3    H217527   0.751   0.429   1.579  0.2474  0.1373  2.4438
 5855TIP3   OH217528   0.591   0.409   0.977  0.6653  0.3491 -0.1332
 5855TIP3    H117529   0.650   0.430   0.905  1.7715 -1.2691  0.2433
 5855TIP3    H217530   0.649   0.394   1.052 -0.5165  3.7096  1.6735
 5856TIP3   OH217531   0.028   1.160   2.668  0.0502 -0.0253 -0.2759
 5856TIP3    H117532   0.048   1.207   2.587 -0.6509 -0.1344 -0.5206
 5856TIP3    H217533   0.099   1.184   2.728 -0.1756  1.1551 -0.4633
 5857TIP3   OH217534   3.282   0.196   2.041 -0.1973  0.1967 -0.4966
 5857TIP3    H117535   3.361   0.250   2.034 -0.8321  1.2799  0.2438
 5857TIP3    H217536   3.235   0.213   1.959 -0.7131  1.3512  0.0059
 5858TIP3   OH217537   5.201   2.257   1.678 -0.4365  0.1745  0.2013
 5858TIP3    H117538   5.246   2.327   1.632 -0.6778 -0.4653 -1.0474
 5858TIP3    H217539   5.268   2.217   1.733  0.5413 -0.6742 -1.5214
 5859TIP3   OH217540   0.815   4.475   1.881 -0.0830  0.8026  0.6026
 5859TIP3    H117541   0.894   4.529   1.885 -0.5688  1.4431  2.1482
 5859TIP3    H217542   0.785   4.483   1.790  0.2780  2.5160  0.6055
 5860TIP3   OH217543   6.822   6.011   0.575 -0.3691  0.2102 -0.2956
 5860TIP3    H117544   6.803   5.999   0.482 -1.1945 -0.2109 -0.0765
 5860TIP3    H217545   6.864   5.930   0.602  0.1248  0.4397 -0.3551
 5861TIP3   OH217546   2.828   2.598   0.911 -0.4105 -0.4249 -0.0419
 5861TIP3    H117547   2.899   2.535   0.904  0.2696  0.2088  0.9217
 5861TIP3    H217548   2.843   2.643   0.994 -1.2833  0.5105 -0.3620
 5862TIP3   OH217549   6.064   1.103   3.899 -0.4117  0.0683 -0.0549
 5862TIP3    H117550   6.007   1.170   3.862 -0.3920  0.4929  0.6693
 5862TIP3    H217551   6.069   1.036   3.831 -1.4379  0.2212 -0.3015
 5863TIP3   OH217552   4.655   5.564   0.944 -0.3101  0.0180  0.1181
 5863TIP3    H117553   4.724   5.622   0.976 -0.7025 -0.4625  1.9068
 5863TIP3    H217554   4.574   5.606   0.972 -0.6828 -0.3504 -0.3924
 5864TIP3   OH217555   2.082   4.596   3.649 -0.1525 -0.2696  0.4256
 5864TIP3    H117556   2.143   4.630   3.583 -1.2422  0.6784 -0.1247
 5864TIP3    H217557   2.005   4.652   3.642  0.3067  1.0061  3.6823
 5865TIP3   OH217558   5.594   4.018   1.372 -0.1786 -0.3376  0.4447
 5865TIP3    H117559   5.665   3.961   1.346 -1.7511 -1.2368 -2.2517
 5865TIP3    H217560   5.528   4.008   1.303 -2.4459  1.2956  2.2118
 5866TIP3   OH217561   0.667   1.770   4.788  0.2427  0.1468  0.1035
 5866TIP3    H117562   0.656   1.859   4.822 -0.9800 -0.2737  0.8846
 5866TIP3    H217563   0.761   1.754   4.793  0.4068  1.1729  0.5520
 5867TIP3   OH217564   2.863   4.882   2.867  0.3916  0.1071 -0.2501
 5867TIP3    H117565   2.881   4.813   2.931  0.9937 -0.6280 -1.1866
 5867TIP3    H217566   2.847   4.960   2.920 -0.7096 -0.8188  0.8603
 5868TIP3   OH217567   3.340   6.685   3.149  0.4313  0.1610  0.1262
 5868TIP3    H117568   3.420   6.674   3.097 -0.3507 -0.9164 -0.9169
 5868TIP3    H217569   3.315   6.596   3.173 -0.3579  0.4944  0.5851
 5869TIP3   OH217570   5.769   0.139   0.092 -0.4225 -0.2722 -0.5877
 5869TIP3    H117571   5.756   0.234   0.101  2.0607  0.0298  0.7653
 5869TIP3    H217572   5.829   0.130   0.018  0.6017 -0.6119  0.2527
 5870TIP3   OH217573   0.062   5.518   4.073  0.3742  0.1297  0.0792
 5870TIP3    H117574  -0.029   5.528   4.044  1.0997  2.1635 -1.8063
 5870TIP3    H217575   0.090   5.434   4.037  0.2846  1.1748 -2.6963
 5871TIP3   OH217576   1.650   0.691  -0.009  0.0813  0.5536  0.7949
 5871TIP3    H117577   1.717   0.759  -0.017  0.0574  0.4245 -0.8241
 5871TIP3    H217578   1.695   0.617   0.031  1.4005 -0.0923 -1.6933
 5872TIP3   OH217579   3.228   0.769   0.444  0.1696 -0.1341  0.1037
 5872TIP3    H117580   3.195   0.829   0.377 -0.5859  0.5563  1.0681
 5872TIP3    H217581   3.308   0.810   0.477  1.2792 -1.1156 -1.2482
 5873TIP3   OH217582   2.631   2.910   4.821 -0.3824 -0.8600 -0.5533
 5873TIP3    H117583   2.648   2.825   4.862 -2.1849 -0.7860  0.4402
 5873TIP3    H217584   2.709   2.962   4.842 -0.3851 -1.4516  1.1267
 5874TIP3   OH217585   6.164   1.023   5.699  0.0941  0.4673  0.1885
 5874TIP3    H117586   6.169   1.103   5.752  0.8264  0.3346  0.3248
 5874TIP3    H217587   6.070   1.003   5.694 -0.0987  1.3351  0.1514
 5875TIP3   OH217588   4.860   6.186   2.967  0.1391 -0.2923  0.3198
 5875TIP3    H117589   4.799   6.226   3.029 -0.2807 -1.7319  0.9055
 5875TIP3    H217590   4.907   6.121   3.020  0.1751 -1.1583 -0.7366
 5876TIP3   OH217591   5.241   3.900   1.396 -0.9388 -0.1119 -0.0926
 5876TIP3    H117592   5.201   3.974   1.440  0.6749  1.9337 -1.8444
 5876TIP3    H217593   5.213   3.907   1.305  1.3662  0.0055 -0.8709
 5877TIP3   OH217594   4.977   6.568   3.026 -0.0735  0.0801 -0.2323
 5877TIP3    H117595   4.914   6.525   2.968 -0.1481  0.0256 -0.1127
 5877TIP3    H217596   5.061   6.530   3.002 -0.3909 -1.8552  1.3822
 5878TIP3   OH217597   6.960   1.497   3.839  0.2701  0.3079 -0.0659
 5878TIP3    H117598   6.967   1.537   3.926  2.8052 -1.5528  0.6804
 5878TIP3    H217599   6.873   1.456   3.838  0.1529  0.4739  1.5086
 5879TIP3   OH217600   2.769   1.056   3.948  0.3852 -0.8884  0.3506
 5879TIP3    H117601   2.842   1.032   4.005  0.2952  1.1207  1.4417
 5879TIP3    H217602   2.791   1.020   3.863  2.8249 -0.1152  0.5785
 5880TIP3   OH217603   0.923   5.982   1.789  0.4346  0.4300  0.0403
 5880TIP3    H117604   0.941   6.071   1.757  1.6176  0.0435 -0.4344
 5880TIP3    H217605   0.854   5.994   1.854 -0.5911  1.4867 -1.1920
 5881TIP3   OH217606   4.800   0.516   5.050  0.3564 -0.4347  0.3477
 5881TIP3    H117607   4.748   0.445   5.087  1.1529 -0.3469  1.7294
 5881TIP3    H217608   4.740   0.591   5.049 -0.0231 -0.7346  0.3656
 5882TIP3   OH217609   1.687   2.695   0.228 -0.3913  0.1608  0.4369
 5882TIP3    H117610   1.762   2.728   0.180 -0.7526  0.2623 -0.0677
 5882TIP3    H217611   1.618   2.685   0.162 -0.8190  0.0623  0.8855
 5883TIP3   OH217612   4.020   2.320   2.358  0.3271  0.2304 -0.0574
 5883TIP3    H117613   3.941   2.360   2.393  0.4291  0.2822  0.1149
 5883TIP3    H217614   4.020   2.342   2.265 -1.3283 -2.0851 -0.7109
 5884TIP3   OH217615   4.542   3.471   3.273 -0.1333 -0.1977  0.3983
 5884TIP3    H117616   4.606   3.542   3.281 -0.9734  0.5757  0.4396
 5884TIP3    H217617   4.557   3.416   3.350  0.5981 -0.1266  0.3128
 5885TIP3   OH217618   6.304   4.296   0.499  0.0580 -0.2495 -0.0548
 5885TIP3    H117619   6.385   4.245   0.501  1.3753  1.6924 -0.2807
 5885TIP3    H217620   6.284   4.314   0.591  0.6991  0.4051 -0.0286
 5886TIP3   OH217621   1.462   5.729   1.002  0.0632  0.8083  0.1530
 5886TIP3    H117622   1.375   5.764   1.022 -1.0379 -0.9603 -1.2077
 5886TIP3    H217623   1.485   5.767   0.917  0.4045  0.8856  0.2770
 5887TIP3   OH217624   1.454   5.581   2.398 -0.3686  0.1088  0.2070
 5887TIP3    H117625   1.459   5.539   2.484  0.8744  0.8961  0.5481
 5887TIP3    H217626   1.362   5.574   2.373 -0.5128 -1.3104  0.9933
 5888TIP3   OH217627   1.270   5.273   5.641 -0.6110  0.4467 -0.1360
 5888TIP3    H117628   1.208   5.300   5.573  0.1202  2.2945 -0.1252
 5888TIP3    H217629   1.330   5.214   5.597 -0.2982  1.4254 -1.0687
 5889TIP3   OH217630   3.051   5.067   0.716 -0.0486  0.2920  0.2471
 5889TIP3    H117631   3.065   5.073   0.622 -0.3432  2.1202  0.2700
 5889TIP3    H217632   3.139   5.074   0.754  0.3181 -2.5520  0.1189
 5890TIP3   OH217633   4.392   0.388   2.416 -0.3044  0.5369 -0.7001
 5890TIP3    H117634   4.370   0.475   2.450 -0.8231  0.5271 -1.0016
 5890TIP3    H217635   4.421   0.404   2.326 -1.1486  0.3196 -1.0182
 5891TIP3   OH217636   2.899   0.204   1.251  0.6649 -0.3376  0.3018
 5891TIP3    H117637   2.957   0.271   1.214  1.9914 -1.6921 -0.1888
 5891TIP3    H217638   2.943   0.176   1.331 -1.1045  1.0232  1.8568
 5892TIP3   OH217639   0.398   6.116   0.710  0.3994 -0.2038  0.1915
 5892TIP3    H117640   0.386   6.039   0.655  3.9994 -1.9642  1.5611
 5892TIP3    H217641   0.473   6.162   0.671  0.9097  0.2997  1.6949
 5893TIP3   OH217642   0.768   2.681   0.644  0.5840  0.1121  0.3678
 5893TIP3    H117643   0.759   2.589   0.668 -1.9357  0.6215  1.6930
 5893TIP3    H217644   0.840   2.714   0.698 -0.2389 -0.4837  1.8706
 5894TIP3   OH217645   1.437   5.401   2.634  0.0703 -0.2689 -0.0590
 5894TIP3    H117646   1.497   5.352   2.691  0.1334  1.3800  1.4058
 5894TIP3    H217647   1.350   5.374   2.662  0.0983 -1.2940 -0.9155
 5895TIP3   OH217648   3.118   4.745   0.521  0.2327  0.0917 -0.0307
 5895TIP3    H117649   3.036   4.787   0.547  0.8907  1.1980  0.3447
 5895TIP3    H217650   3.174   4.751   0.599  0.7255 -0.5013 -0.3275
 5896TIP3   OH217651   5.975   3.037   5.085 -0.0199  0.3766  0.6757
 5896TIP3    H117652   6.030   2.998   5.153 -0.4668  0.8033  1.2916
 5896TIP3    H217653   6.034   3.048   5.010  0.4573 -0.1643  0.9626
 5897TIP3   OH217654   4.200   5.546   1.596  0.6803 -0.5900  0.0491
 5897TIP3    H117655   4.138   5.494   1.647 -0.3533  1.1346  0.6241
 5897TIP3    H217656   4.249   5.481   1.545 -0.9477 -2.0636  0.2677
 5898TIP3   OH217657   5.074   4.308   0.398  0.1076 -0.6257 -0.3155
 5898TIP3    H117658   5.094   4.401   0.387  2.7978 -1.2506 -1.5743
 5898TIP3    H217659   4.990   4.307   0.445  0.8823  2.4299  1.4358
 5899TIP3   OH217660   4.772   0.521   3.447  0.7688  0.4999  0.2505
 5899TIP3    H117661   4.838   0.455   3.467  0.3619  0.3932  1.3192
 5899TIP3    H217662   4.803   0.600   3.490 -0.3208  0.1679  1.7035
 5900TIP3   OH217663   3.676   3.821   5.755  0.3567  0.2387  0.1580
 5900TIP3    H117664   3.706   3.824   5.664 -1.7786  1.0495 -0.5719
 5900TIP3    H217665   3.751   3.852   5.806  1.5270 -0.0462 -1.3278
 5901TIP3   OH217666   4.524   3.053   4.257 -0.2494  0.3592  0.6684
 5901TIP3    H117667   4.520   3.060   4.352 -2.6792  0.4121  0.6192
 5901TIP3    H217668   4.480   2.970   4.237  1.6197 -0.4565 -0.3751
 5902TIP3   OH217669   3.613   3.243   0.385 -0.9327 -0.3684 -0.1788
 5902TIP3    H117670   3.530   3.282   0.357 -0.1637  0.4748 -1.3863
 5902TIP3    H217671   3.664   3.316   0.418 -0.0259 -0.5662 -1.0826
 5903TIP3   OH217672   6.431   0.146   1.472  0.2094 -0.1403 -0.5942
 5903TIP3    H117673   6.434   0.062   1.426 -2.2757 -0.2121 -0.7831
 5903TIP3    H217674   6.372   0.131   1.546  1.1036  0.9998  0.4011
 5904TIP3   OH217675   6.822   2.054   2.258  0.2874 -0.1067 -0.1789
 5904TIP3    H117676   6.741   2.066   2.308  0.3473 -2.0324  0.4671
 5904TIP3    H217677   6.793   2.040   2.168  0.0340  0.8873 -0.2691
 5905TIP3   OH217678   5.232   6.649   0.104  0.2513  0.3394 -0.4373
 5905TIP3    H117679   5.306   6.704   0.079  0.1042  0.4367 -0.6653
 5905TIP3    H217680   5.195   6.692   0.180 -0.3569  1.0136 -1.0989
 5906TIP3   OH217681   4.103   5.008   1.994  0.2416  0.0666 -0.1503
 5906TIP3    H117682   4.180   4.983   2.046  0.3017 -1.5627 -0.9537
 5906TIP3    H217683   4.080   4.929   1.946 -2.5173  0.1949  0.7585
 5907TIP3   OH217684   2.846   2.497   2.561 -0.0004  0.7650 -0.2603
 5907TIP3    H117685   2.802   2.446   2.629 -0.0909  0.6542 -0.4014
 5907TIP3    H217686   2.776   2.537   2.511 -0.0436 -0.8541 -1.6075
 5908TIP3   OH217687   0.132   1.893   0.408  0.3684  0.4709  0.7638
 5908TIP3    H117688   0.225   1.885   0.431  0.9618  0.8184 -1.3302
 5908TIP3    H217689   0.106   1.803   0.387  0.8521  0.6570 -0.7404
 5909TIP3   OH217690   3.040   1.964   5.351  0.1311  0.1458  0.2620
 5909TIP3    H117691   2.948   1.987   5.362  0.0916  0.0447  0.1454
 5909TIP3    H217692   3.054   1.967   5.256  0.1200 -0.3354  0.2462
 5910TIP3   OH217693   3.980   6.672   5.021 -0.3425  0.0143 -0.2636
 5910TIP3    H117694   3.928   6.687   5.099  0.7959  0.9715  0.3460
 5910TIP3    H217695   4.056   6.728   5.032  1.5620 -2.3686 -0.4303
 5911TIP3   OH217696   5.382   5.132   5.403  0.6755 -0.0417  0.2475
 5911TIP3    H117697   5.302   5.112   5.354 -0.5128  2.8165  0.7961
 5911TIP3    H217698   5.381   5.228   5.412  3.1241 -0.0919  2.0434
 5912TIP3   OH217699   6.625   6.366   1.234 -0.0617  0.1934 -0.0076
 5912TIP3    H117700   6.540   6.323   1.237 -0.1149  0.1576 -1.4557
 5912TIP3    H217701   6.612   6.448   1.281 -1.2287  0.7340 -1.2250
 5913TIP3   OH217702   4.353   1.922   4.757  0.2554  0.3036  0.5325
 5913TIP3    H117703   4.326   1.834   4.732  1.3612  0.0319  0.2432
 5913TIP3    H217704   4.406   1.910   4.836 -0.4086  0.8223  1.0767
 5914TIP3   OH217705   3.348   0.314   2.698  0.5735  0.0094 -0.3473
 5914TIP3    H117706   3.443   0.320   2.704  0.4769  1.4987  0.0958
 5914TIP3    H217707   3.316   0.353   2.779 -0.4180 -0.5683 -0.4431
 5915TIP3   OH217708   6.715   6.422   5.137 -0.2618 -0.1821 -0.0183
 5915TIP3    H117709   6.651   6.410   5.207  0.1949  2.5438  0.9863
 5915TIP3    H217710   6.800   6.417   5.181  0.1810 -1.4133 -0.9466
 5916TIP3   OH217711   3.620   0.885   2.050 -0.3981  0.0928  0.2137
 5916TIP3    H117712   3.658   0.801   2.075  1.1205 -0.0566 -2.3111
 5916TIP3    H217713   3.616   0.935   2.132  2.5464 -0.9543  1.0965
 5917TIP3   OH217714   1.118   3.475   2.513  0.0305 -0.1674 -0.1699
 5917TIP3    H117715   1.033   3.472   2.469  0.0967 -1.4019 -0.2368
 5917TIP3    H217716   1.179   3.505   2.445 -0.4359  1.3523  0.0504
 5918TIP3   OH217717   2.046   6.580   3.106 -0.0227  0.5241  0.2697
 5918TIP3    H117718   2.025   6.498   3.151  0.7237  0.7792  1.1136
 5918TIP3    H217719   1.968   6.635   3.119 -0.3296  0.1245  0.1241
 5919TIP3   OH217720   5.277   2.019   5.547  0.0285  0.2065  0.0398
 5919TIP3    H117721   5.275   1.923   5.549  0.4014  0.2002  0.2635
 5919TIP3    H217722   5.213   2.043   5.480  0.1262 -0.2080 -0.2079
 5920TIP3   OH217723   3.356   4.029   3.381  1.0952  0.3458 -0.2428
 5920TIP3    H117724   3.322   4.018   3.470  1.9610 -0.1495  0.0376
 5920TIP3    H217725   3.310   3.963   3.329  1.6285 -0.3424  0.1407
 5921TIP3   OH217726   7.122   5.832   3.668 -0.3335  0.2045  0.2063
 5921TIP3    H117727   7.207   5.845   3.711 -0.4139  0.4880  0.2827
 5921TIP3    H217728   7.059   5.875   3.726 -0.7115 -1.1556  0.8547
 5922TIP3   OH217729   6.330   0.178   1.023 -0.2090 -0.3392 -0.1980
 5922TIP3    H117730   6.410   0.163   0.973  0.6871 -0.0153  1.0913
 5922TIP3    H217731   6.292   0.258   0.985  0.6220  0.0756 -0.1731
 5923TIP3   OH217732   5.884   1.224   5.595 -0.4739  0.6527  0.2331
 5923TIP3    H117733   5.816   1.264   5.541 -0.2634  0.1506 -0.4219
 5923TIP3    H217734   5.963   1.228   5.540  0.2784  2.1108  1.3460
 5924TIP3   OH217735   4.094   2.330   0.842  0.0515  0.0671 -0.4945
 5924TIP3    H117736   4.160   2.286   0.789 -0.0052 -0.5277 -0.0771
 5924TIP3    H217737   4.139   2.352   0.924  0.1670  1.0716 -0.8140
 5925TIP3   OH217738   5.090   4.251   5.342 -0.4780  0.1423 -0.2612
 5925TIP3    H117739   4.997   4.268   5.334 -0.6265  1.2210  2.5162
 5925TIP3    H217740   5.132   4.310   5.280 -1.5823  1.3837  0.1365
 5926TIP3   OH217741   1.789   4.628   0.895 -0.7282  0.1451 -0.3384
 5926TIP3    H117742   1.739   4.593   0.968 -2.2901  2.1616 -0.3393
 5926TIP3    H217743   1.827   4.709   0.929 -1.2906  0.9942 -1.6408
 5927TIP3   OH217744   0.346   2.026   4.988 -0.0566 -0.0802  0.0269
 5927TIP3    H117745   0.399   1.956   5.026  0.0507 -0.2536 -0.4415
 5927TIP3    H217746   0.270   1.982   4.952  0.0609  0.0331 -0.3616
 5928TIP3   OH217747   1.635   2.851   5.538 -0.1219  0.0087  0.0913
 5928TIP3    H117748   1.584   2.897   5.604  0.1094  0.8919 -0.3259
 5928TIP3    H217749   1.592   2.766   5.529  0.7780 -0.7652  2.5015
 5929TIP3   OH217750   3.255   6.552   1.592 -0.5616 -0.0983  0.5117
 5929TIP3    H117751   3.342   6.588   1.576 -0.9378  0.8996  0.5780
 5929TIP3    H217752   3.196   6.612   1.546 -1.2255 -0.6667  0.6048
 5930TIP3   OH217753   0.289   5.097   3.483 -0.0752  0.2171  0.0464
 5930TIP3    H117754   0.337   5.044   3.547 -0.0473  1.3777  1.0120
 5930TIP3    H217755   0.357   5.138   3.430 -0.0475  0.4338  0.2468
 5931TIP3   OH217756   6.660   4.015   0.107 -0.2923 -0.1586  0.0124
 5931TIP3    H117757   6.673   4.098   0.061 -1.2108 -0.2727 -0.4835
 5931TIP3    H217758   6.565   4.009   0.118 -0.2385 -1.1620  0.0184
 5932TIP3   OH217759   3.867   1.882   5.441 -0.4991  0.1516 -0.0860
 5932TIP3    H117760   3.779   1.906   5.468 -1.4288 -2.4980 -0.5642
 5932TIP3    H217761   3.882   1.931   5.359 -1.5088  0.6115  0.0006
 5933TIP3   OH217762   3.779   0.755   2.448 -0.3749 -0.3086 -0.2078
 5933TIP3    H117763   3.850   0.770   2.511 -0.2244 -1.1229 -0.1672
 5933TIP3    H217764   3.748   0.666   2.468 -0.0687 -0.7409 -1.5179
 5934TIP3   OH217765   4.474   3.049   4.956 -0.4022  0.1882 -0.1030
 5934TIP3    H117766   4.552   3.103   4.968  0.1532 -0.3279 -1.1960
 5934TIP3    H217767   4.504   2.977   4.900 -1.4596 -0.4824  0.1747
 5935TIP3   OH217768   3.501   6.108   0.215 -0.1123 -0.2004 -0.9687
 5935TIP3    H117769   3.515   6.195   0.179 -0.4487  0.3598  0.2011
 5935TIP3    H217770   3.470   6.056   0.141  3.1188 -0.1994 -2.4711
 5936TIP3   OH217771   2.224   6.638   5.517  0.6001  0.0178 -0.4803
 5936TIP3    H117772   2.148   6.611   5.568 -0.2418 -0.5507 -1.9774
 5936TIP3    H217773   2.293   6.578   5.543 -0.1634 -1.0654 -0.8973
 5937TIP3   OH217774   5.461   5.251   4.374  0.4588  0.0194 -0.3232
 5937TIP3    H117775   5.503   5.165   4.363  2.6575  0.9673  0.0536
 5937TIP3    H217776   5.430   5.274   4.287 -3.3517 -2.5613  0.0986
 5938TIP3   OH217777   4.351   5.363   4.789 -0.0954  0.7861 -0.1961
 5938TIP3    H117778   4.382   5.449   4.761  0.9338  0.0332 -1.4842
 5938TIP3    H217779   4.265   5.353   4.748 -0.4038  1.3585  0.3028
 5939TIP3   OH217780   1.791   2.143   1.064 -0.3772  0.0043  0.1678
 5939TIP3    H117781   1.776   2.188   0.982  0.5518  0.1712  0.0729
 5939TIP3    H217782   1.782   2.211   1.131 -0.0475  0.1056  0.1113
 5940TIP3   OH217783   6.468   1.512   0.231 -0.1350  0.1169  0.2863
 5940TIP3    H117784   6.477   1.498   0.325 -1.6821 -0.0103  0.4517
 5940TIP3    H217785   6.411   1.589   0.224 -1.0966 -0.6284 -0.5130
 5941TIP3   OH217786   2.933   6.719   4.801  0.0654  0.3868  0.0360
 5941TIP3    H117787   3.023   6.689   4.790  0.2441  1.1979 -0.7247
 5941TIP3    H217788   2.923   6.791   4.739 -1.4994 -0.5167 -0.8309
 5942TIP3   OH217789   3.634   0.305   1.166  0.4057  0.2191  0.0836
 5942TIP3    H117790   3.680   0.363   1.106  0.9449  0.4264  0.6919
 5942TIP3    H217791   3.594   0.364   1.231 -1.3239  0.1098 -0.8142
 5943TIP3   OH217792   0.129   1.153   3.075  0.5195 -0.4076  0.0590
 5943TIP3    H117793   0.072   1.188   3.143  0.8399 -0.7083  0.4841
 5943TIP3    H217794   0.199   1.109   3.122  1.6365  0.7593 -0.4472
 5944TIP3   OH217795   4.758   0.976   0.119  0.0984 -0.0073 -0.7556
 5944TIP3    H117796   4.838   0.995   0.070 -0.1775  2.7540 -0.3146
 5944TIP3    H217797   4.788   0.958   0.208  0.3125 -0.5344 -0.9300
 5945TIP3   OH217798   2.856   3.024   4.923  0.4600  0.2160  0.2181
 5945TIP3    H117799   2.874   2.977   5.004  1.1477 -0.7227 -0.4466
 5945TIP3    H217800   2.852   3.116   4.948 -0.2559 -0.1355  1.4522
 5946TIP3   OH217801   4.812   0.676   3.189 -0.0477  0.3072  0.5339
 5946TIP3    H117802   4.796   0.730   3.266 -0.1894  0.8392  0.1336
 5946TIP3    H217803   4.782   0.589   3.214 -4.0516  1.2659 -0.2754
 5947TIP3   OH217804   0.992   4.644   5.709  0.6016 -0.2452  0.2115
 5947TIP3    H117805   0.993   4.563   5.658 -0.3419 -0.3045  0.2633
 5947TIP3    H217806   0.955   4.618   5.794  1.9618 -0.1145  0.8804
 5948TIP3   OH217807   1.528   0.273   1.331  0.1897 -0.0170  0.1905
 5948TIP3    H117808   1.457   0.245   1.389  0.7472 -1.8976  0.0281
 5948TIP3    H217809   1.489   0.275   1.244  0.3301 -1.1032  0.0927
 5949TIP3   OH217810   0.245   5.393   5.656 -0.0478 -0.7786  0.3861
 5949TIP3    H117811   0.340   5.391   5.667  0.3592  2.5175 -1.1229
 5949TIP3    H217812   0.231   5.364   5.566 -0.6131 -2.2172  0.9203
 5950TIP3   OH217813   1.254   5.315   2.985 -0.5006  0.4939  0.5169
 5950TIP3    H117814   1.229   5.290   2.896 -0.5817  2.2696  0.0013
 5950TIP3    H217815   1.245   5.235   3.036  1.8155 -1.1866 -1.4995
 5951TIP3   OH217816   2.648   5.279   0.315 -0.4890 -0.2596 -0.1360
 5951TIP3    H117817   2.722   5.218   0.315 -0.7026 -0.5410  0.8994
 5951TIP3    H217818   2.670   5.345   0.248  1.2963  0.3803  1.0303
 5952TIP3   OH217819   2.734   0.552   4.359  0.5935 -0.3535 -0.9671
 5952TIP3    H117820   2.666   0.548   4.292  0.1070 -1.6851 -0.4274
 5952TIP3    H217821   2.688   0.532   4.441  1.6507 -1.5234 -0.6276
 5953TIP3   OH217822   1.110   0.995   3.045  0.2232 -0.3491  0.2478
 5953TIP3    H117823   1.143   0.974   3.133  1.0918  1.4681  0.4209
 5953TIP3    H217824   1.015   0.999   3.055  0.3686  1.0986  1.4725
 5954TIP3   OH217825   5.559   1.922   4.100 -0.1739 -0.5845 -0.2426
 5954TIP3    H117826   5.568   1.899   4.192  0.9437 -0.6435 -0.3565
 5954TIP3    H217827   5.568   1.839   4.053  3.3621 -0.1447 -0.6221
 5955TIP3   OH217828   3.837   3.577   2.341  0.2577  0.1387 -0.4000
 5955TIP3    H117829   3.914   3.574   2.284  0.8400  0.8210  0.3420
 5955TIP3    H217830   3.779   3.509   2.306  1.4477 -0.8034 -0.5954
 5956TIP3   OH217831   6.492   0.220   4.038 -0.0866 -0.3079 -0.0044
 5956TIP3    H117832   6.465   0.236   4.128  1.2489 -1.6417  0.6794
 5956TIP3    H217833   6.415   0.241   3.985 -1.4507 -1.1122  1.5798
 5957TIP3   OH217834   1.048   1.968   5.632  0.2683 -0.0087 -0.1631
 5957TIP3    H117835   0.996   1.889   5.647 -1.2625  1.2672  1.7953
 5957TIP3    H217836   0.987   2.040   5.646  1.8978  1.5576 -0.7133
 5958TIP3   OH217837   7.036   4.852   0.329  0.6879 -0.1648 -0.4781
 5958TIP3    H117838   7.062   4.890   0.245 -1.5161 -0.0099 -1.1646
 5958TIP3    H217839   7.010   4.762   0.308 -1.9865  0.5170 -0.4710
 5959TIP3   OH217840   6.094   5.793   1.565  0.1164  0.0823  0.4068
 5959TIP3    H117841   6.187   5.811   1.573  0.3277 -0.9751  0.5268
 5959TIP3    H217842   6.058   5.869   1.520  0.6917  1.4170  2.0720
 5960TIP3   OH217843   1.709   2.544   1.104  0.9886 -0.2001  0.0291
 5960TIP3    H117844   1.800   2.567   1.120  0.3639  1.2884  1.7260
 5960TIP3    H217845   1.662   2.627   1.105 -0.3121 -0.8531 -1.6407
 5961TIP3   OH217846   5.529   6.099   0.010 -0.1232  0.1753  0.0686
 5961TIP3    H117847   5.463   6.082   0.077  0.1973 -1.3301  0.0377
 5961TIP3    H217848   5.608   6.123   0.059 -0.7931  2.4975  0.0900
 5962TIP3   OH217849   1.669   1.978   0.805  0.2550 -0.0526  0.2658
 5962TIP3    H117850   1.594   1.956   0.751  0.7518 -0.9091 -0.0893
 5962TIP3    H217851   1.710   2.052   0.760  0.1089 -0.1271  0.0084
 5963TIP3   OH217852   6.151   0.928   0.540 -0.4548 -0.2908 -0.4577
 5963TIP3    H117853   6.073   0.873   0.549 -0.0717 -1.0789 -1.8282
 5963TIP3    H217854   6.225   0.870   0.556 -0.0371 -0.2569 -2.1086
 5964TIP3   OH217855   1.122   2.147   0.329  0.1666  0.6008 -0.4465
 5964TIP3    H117856   1.117   2.226   0.274  0.2719  0.1665 -1.0880
 5964TIP3    H217857   1.208   2.152   0.369 -0.4615  1.6781  0.8527
 5965TIP3   OH217858   2.540   3.205   1.528  0.9214 -0.1958  0.2604
 5965TIP3    H117859   2.594   3.199   1.607  0.5717  3.2898  0.8920
 5965TIP3    H217860   2.549   3.295   1.499 -2.3470 -0.2078 -1.2415
 5966TIP3   OH217861   6.749   6.279   3.235  0.1057 -0.0801  0.1135
 5966TIP3    H117862   6.801   6.261   3.313  2.4957  0.1377 -1.3389
 5966TIP3    H217863   6.716   6.193   3.208 -0.7753 -0.1484  1.3578
 5967TIP3   OH217864   3.463   5.295   5.176  0.2160 -0.2818 -0.0432
 5967TIP3    H117865   3.386   5.345   5.151  1.8364  1.4226 -1.9718
 5967TIP3    H217866   3.514   5.356   5.230  0.8056 -0.9266  0.1431
 5968TIP3   OH217867   3.255   6.475   0.750 -0.5190 -0.1957  0.1727
 5968TIP3    H117868   3.237   6.397   0.696  0.4813  0.4304 -1.1369
 5968TIP3    H217869   3.230   6.449   0.838 -0.4211 -1.9368 -0.2648
 5969TIP3   OH217870   4.361   1.793   3.327  0.1327  0.0852 -0.5218
 5969TIP3    H117871   4.393   1.881   3.351 -0.3076  0.6747 -1.9955
 5969TIP3    H217872   4.411   1.734   3.383  0.5482  1.2647  0.4081
 5970TIP3   OH217873   1.159   2.165   4.664  0.1717 -0.2533 -0.3509
 5970TIP3    H117874   1.170   2.201   4.576 -1.0257 -1.0283 -0.8512
 5970TIP3    H217875   1.090   2.100   4.654  1.0580 -1.4318  0.8743
 5971TIP3   OH217876   2.770   4.335   0.808 -0.0713  0.2145  0.0272
 5971TIP3    H117877   2.703   4.403   0.805  0.1167  0.3458 -2.0687
 5971TIP3    H217878   2.721   4.253   0.811 -0.2917  0.3631  0.8856
 5972TIP3   OH217879   2.496   1.919   3.166 -0.1578  0.0640  0.0056
 5972TIP3    H117880   2.402   1.919   3.147 -0.2142 -1.0334  0.2554
 5972TIP3    H217881   2.504   1.877   3.251  0.6322 -0.6216 -0.3992
 5973TIP3   OH217882   1.155   5.831   5.719 -0.4704 -0.1969 -0.1172
 5973TIP3    H117883   1.138   5.924   5.709 -0.3172 -0.3151 -1.7617
 5973TIP3    H217884   1.246   5.826   5.748 -0.1571  0.1594 -0.9897
 5974TIP3   OH217885   5.973   5.669   1.136  0.1468  0.4787 -0.2810
 5974TIP3    H117886   5.979   5.601   1.204  2.4954 -0.6038 -1.4348
 5974TIP3    H217887   6.012   5.747   1.177  0.5019  0.1626 -0.0073
 5975TIP3   OH217888   5.577   6.130   2.408 -0.0907 -0.3258  0.1136
 5975TIP3    H117889   5.581   6.035   2.414 -1.6656 -0.5321 -1.2785
 5975TIP3    H217890   5.555   6.148   2.317 -1.0861  1.2986  0.6181
 5976TIP3   OH217891   0.358   3.441   4.751 -0.7663  0.1369  0.0512
 5976TIP3    H117892   0.335   3.461   4.842 -3.3366  0.2975 -0.5435
 5976TIP3    H217893   0.386   3.350   4.752  0.6757  0.5556  1.1860
 5977TIP3   OH217894   5.533   1.818   1.032 -0.3549 -0.2835 -0.5143
 5977TIP3    H117895   5.481   1.738   1.038  0.8905 -1.1109 -0.3528
 5977TIP3    H217896   5.564   1.820   0.942  1.0184 -0.9130 -0.0740
 5978TIP3   OH217897   2.438   5.007   5.267 -0.2325  0.3266  0.6860
 5978TIP3    H117898   2.429   4.988   5.174 -0.4990 -0.2727  0.8268
 5978TIP3    H217899   2.381   4.943   5.310  1.5269 -0.8539  1.3848
 5979TIP3   OH217900   1.415   1.583   2.006 -0.3601 -0.2275 -0.5745
 5979TIP3    H117901   1.320   1.576   2.015 -0.1554 -2.9383  0.2763
 5979TIP3    H217902   1.432   1.563   1.914 -0.6150  0.9390 -0.8953
 5980TIP3   OH217903   3.222   2.638   1.982  0.0486 -0.1008 -0.3275
 5980TIP3    H117904   3.139   2.635   1.933 -0.1877 -0.4495  0.0870
 5980TIP3    H217905   3.261   2.722   1.958 -0.5272  0.1588 -0.3712
 5981TIP3   OH217906   5.668   5.567   2.848  0.6397 -0.7385  0.2977
 5981TIP3    H117907   5.647   5.638   2.787 -0.3084 -0.9397  0.3831
 5981TIP3    H217908   5.627   5.592   2.930  0.9520 -1.0186  0.5451
 5982TIP3   OH217909   4.956   3.095   0.248 -0.1248  0.1161  0.1846
 5982TIP3    H117910   5.022   3.025   0.251  0.0550  0.2772 -0.0176
 5982TIP3    H217911   4.960   3.129   0.159  1.0494  1.5969  0.7663
 5983TIP3   OH217912   7.082   3.311   0.036  0.4835  0.3783 -0.1604
 5983TIP3    H117913   7.022   3.267   0.097 -0.3138 -0.8893 -1.8004
 5983TIP3    H217914   7.028   3.377  -0.007  0.7062  0.3939 -0.4167
 5984TIP3   OH217915   1.070   2.969   1.025 -0.3220  0.3367 -0.4879
 5984TIP3    H117916   0.987   2.970   1.072 -0.7983 -3.0092 -1.0455
 5984TIP3    H217917   1.045   2.969   0.932  0.2280 -1.1178 -0.6602
 5985TIP3   OH217918   1.796   2.182   0.656 -0.3051 -0.0257 -0.1269
 5985TIP3    H117919   1.786   2.167   0.562 -1.5397  1.8604 -0.3567
 5985TIP3    H217920   1.850   2.261   0.663 -0.2450 -0.1266  0.7397
 5986TIP3   OH217921   1.521   5.869   2.765  0.1177  0.3217 -0.2684
 5986TIP3    H117922   1.552   5.778   2.768 -2.3154 -0.5801  0.4483
 5986TIP3    H217923   1.513   5.888   2.671  2.7501  0.6469 -0.4851
 5987TIP3   OH217924   0.794   2.269   3.704 -0.0261 -0.5774 -0.4540
 5987TIP3    H117925   0.725   2.236   3.646 -0.5188 -0.1244 -0.1376
 5987TIP3    H217926   0.874   2.230   3.670 -0.3914 -0.8333 -1.0468
 5988TIP3   OH217927   1.127   4.385   0.950  0.1572 -0.3556  0.2008
 5988TIP3    H117928   1.188   4.435   1.004  0.2208 -1.3914  1.1406
 5988TIP3    H217929   1.133   4.296   0.985 -0.0001 -1.0092 -1.3541
 5989TIP3   OH217930   1.419   5.800   5.810  0.1003 -0.0131 -0.8744
 5989TIP3    H117931   1.501   5.772   5.769  0.2800 -0.7110 -0.0678
 5989TIP3    H217932   1.446   5.861   5.879 -0.1851  0.9801 -1.6102
 5990TIP3   OH217933   6.084   3.268   3.249 -0.9671  0.1459 -0.3918
 5990TIP3    H117934   6.041   3.333   3.193  0.0984  0.3710 -0.9643
 5990TIP3    H217935   6.164   3.312   3.279  0.4454 -1.3353 -1.8372
 5991TIP3   OH217936   5.641   4.534   2.616 -0.6579  0.3167 -0.1939
 5991TIP3    H117937   5.670   4.489   2.695 -0.0849  1.3015  0.1751
 5991TIP3    H217938   5.553   4.500   2.600  0.5982 -2.8594 -1.3895
 5992TIP3   OH217939   4.002   0.053   3.649  0.2761 -0.4096  0.4575
 5992TIP3    H117940   4.057   0.120   3.689 -2.0843  1.3052  1.0431
 5992TIP3    H217941   3.936   0.033   3.715 -0.9996 -0.8790 -0.9015
 5993TIP3   OH217942   7.127   0.641   0.043  0.0600 -0.5320  0.1148
 5993TIP3    H117943   7.197   0.576   0.048 -0.8878 -1.5433  1.0082
 5993TIP3    H217944   7.170   0.721   0.014  1.1279 -1.7667 -1.9684
 5994TIP3   OH217945   3.391   0.125   0.999  0.0093 -0.0755 -0.4487
 5994TIP3    H117946   3.349   0.172   1.071 -0.5644  0.3767 -1.0601
 5994TIP3    H217947   3.485   0.141   1.011 -0.1964  1.7994 -0.9983
 5995TIP3   OH217948   7.047   6.156   0.659 -0.0706 -0.0201 -0.4202
 5995TIP3    H117949   6.959   6.122   0.643 -0.3797  0.4668  0.1964
 5995TIP3    H217950   7.034   6.249   0.675  0.6773  0.2511 -1.3131
 5996TIP3   OH217951   5.195   2.698   2.609  0.3589 -0.0283  0.4358
 5996TIP3    H117952   5.143   2.748   2.673  0.7201 -1.2329  1.7108
 5996TIP3    H217953   5.273   2.671   2.657  0.8550 -0.6004 -0.6598
 5997TIP3   OH217954   6.040   1.241   1.012 -0.2368 -0.0141 -0.2182
 5997TIP3    H117955   6.055   1.149   0.991 -2.0655 -0.5078  0.4347
 5997TIP3    H217956   6.019   1.281   0.927  0.5607 -0.1834 -0.5043
 5998TIP3   OH217957   0.717   5.819   1.675  0.1982 -0.2560 -0.5135
 5998TIP3    H117958   0.683   5.876   1.606  0.4574  0.2322 -0.2473
 5998TIP3    H217959   0.779   5.874   1.723 -2.7027  0.7625  2.5249
 5999TIP3   OH217960   5.141   4.374   1.693  0.1877 -0.0072  0.2495
 5999TIP3    H117961   5.117   4.337   1.609  0.8956  0.5073 -0.1898
 5999TIP3    H217962   5.125   4.304   1.756 -0.0826 -0.4847 -0.3491
 6000TIP3   OH217963   2.736   1.742   0.142  0.1110  0.3335 -0.2137
 6000TIP3    H117964   2.807   1.680   0.161  1.3548  2.0131  0.8358
 6000TIP3    H217965   2.736   1.749   0.047  1.5440  0.4902 -0.2291
 6001TIP3   OH217966   2.138   6.716   5.141  0.3237 -0.4997 -0.6176
 6001TIP3    H117967   2.132   6.787   5.205 -0.4084 -0.2767 -0.9222
 6001TIP3    H217968   2.132   6.759   5.056 -1.1527 -1.0020 -0.7946
 6002TIP3   OH217969   4.752   2.822   1.845  0.0447  0.0956 -0.4763
 6002TIP3    H117970   4.677   2.876   1.867  0.4320  0.0467  1.0539
 6002TIP3    H217971   4.720   2.763   1.776 -0.1209  2.8564 -2.9445
 6003TIP3   OH217972   2.182   0.304   1.674  0.0998 -0.7005  0.9570
 6003TIP3    H117973   2.274   0.293   1.695  0.0983 -0.2471  1.2236
 6003TIP3    H217974   2.179   0.306   1.578  0.4320 -0.2232  0.9535
 6004TIP3   OH217975   6.631   3.186   3.809  0.9766  0.1132 -0.0704
 6004TIP3    H117976   6.586   3.241   3.745  2.4671  0.8193 -0.5533
 6004TIP3    H217977   6.719   3.223   3.815  0.8338  0.2129  2.5703
 6005TIP3   OH217978   2.007   5.207   4.864 -0.1129 -0.1588 -0.1117
 6005TIP3    H117979   1.975   5.290   4.899 -2.8500 -0.1450 -2.2762
 6005TIP3    H217980   2.061   5.233   4.789 -1.4738 -0.2589 -1.1693
 6006TIP3   OH217981   2.980   0.132   0.767 -1.0259  0.4901  0.4256
 6006TIP3    H117982   2.963   0.094   0.853 -3.2697  2.0697  0.7874
 6006TIP3    H217983   3.052   0.193   0.781 -1.8817  1.3110  1.4073
 6007TIP3   OH217984   1.619   2.037   2.035  0.6990  0.1133  0.0483
 6007TIP3    H117985   1.669   1.992   2.103 -0.7853 -0.0230  1.0978
 6007TIP3    H217986   1.545   1.979   2.016  0.6236  0.5498 -1.0756
 6008TIP3   OH217987   3.964   0.956   2.854 -0.3334 -0.2654  0.2789
 6008TIP3    H117988   4.008   0.911   2.927  0.0430  0.0056  0.2191
 6008TIP3    H217989   3.872   0.936   2.867 -0.1309 -1.4559 -0.0154
 6009TIP3   OH217990   6.934   2.601   3.707 -0.0389 -0.2081  0.0227
 6009TIP3    H117991   7.014   2.549   3.717  0.2907  0.4764  1.1262
 6009TIP3    H217992   6.955   2.663   3.637  1.0041  1.0423  1.4018
 6010TIP3   OH217993   0.204   1.041   5.537  0.2167 -0.0497  0.5251
 6010TIP3    H117994   0.188   0.986   5.613 -2.4878 -0.3699 -0.1653
 6010TIP3    H217995   0.191   0.983   5.462  1.8539  0.4831 -0.2121
 6011TIP3   OH217996   5.978   2.638   3.915  0.0339 -0.9570 -0.3247
 6011TIP3    H117997   6.059   2.620   3.866  1.0077 -1.6639  1.4456
 6011TIP3    H217998   6.003   2.706   3.977 -1.7774  1.6026 -2.1822
 6012TIP3   OH217999   0.921   4.427   1.502 -0.0285 -0.2223 -0.2320
 6012TIP3    H118000   0.928   4.473   1.418 -1.0890 -0.4884 -0.4803
 6012TIP3    H218001   0.873   4.487   1.559  0.3577 -0.1983  0.0709
 6013TIP3   OH218002   3.863   1.358   4.875  0.0396  0.0914  0.4781
 6013TIP3    H118003   3.895   1.277   4.833 -1.3580 -0.5680  0.6119
 6013TIP3    H218004   3.930   1.380   4.939 -0.3707 -2.0040  1.7113
 6014TIP3   OH218005   6.994   3.445   4.634  0.1069  0.0828  0.0379
 6014TIP3    H118006   7.076   3.409   4.668  1.2510  0.8886 -1.7491
 6014TIP3    H218007   6.949   3.479   4.712  1.3757 -0.5269  1.0754
 6015TIP3   OH218008   5.124   4.936   5.637 -0.0324  0.1444  0.0859
 6015TIP3    H118009   5.166   4.872   5.580 -0.9301 -0.7874  0.4295
 6015TIP3    H218010   5.066   4.884   5.693 -1.6186  1.3500 -0.3449
 6016TIP3   OH218011   0.392   1.610   3.970 -0.1583  0.3246  0.0004
 6016TIP3    H118012   0.440   1.528   3.961 -2.8175 -1.2228 -1.5628
 6016TIP3    H218013   0.452   1.677   3.937  0.9674 -1.4611 -1.8470
 6017TIP3   OH218014   4.878   2.227   0.484  0.3878  0.2799  0.5014
 6017TIP3    H118015   4.844   2.191   0.566  0.3927 -1.4923 -0.2254
 6017TIP3    H218016   4.968   2.254   0.505 -0.4688  2.4733  1.7396
 6018TIP3   OH218017   3.630   4.631   5.028 -0.6797  0.2590  0.2556
 6018TIP3    H118018   3.686   4.708   5.016  1.3489 -1.0413  0.8410
 6018TIP3    H218019   3.605   4.604   4.940  1.9991 -0.7263 -0.3049
 6019TIP3   OH218020   5.077   1.976   0.201  0.2872  0.1195  0.2508
 6019TIP3    H118021   5.052   1.902   0.257 -0.6775  0.7140  0.6335
 6019TIP3    H218022   5.083   1.939   0.113 -0.3865 -0.3709  0.4043
 6020TIP3   OH218023   2.999   1.344  -0.005  0.4352 -0.1921 -0.0163
 6020TIP3    H118024   2.933   1.347   0.064 -1.8214  0.3062 -2.0531
 6020TIP3    H218025   3.055   1.420   0.012 -2.3268  2.1786 -0.7226
 6021TIP3   OH218026   3.730   0.883   5.164 -0.3710 -0.6189  0.1057
 6021TIP3    H118027   3.687   0.942   5.226 -0.8658 -0.8700  0.0069
 6021TIP3    H218028   3.664   0.867   5.096 -0.4688 -1.7714  0.4544
 6022TIP3   OH218029   2.778   3.456   1.980 -0.2150 -0.2795  0.6940
 6022TIP3    H118030   2.781   3.433   1.887 -0.9018 -0.6560  0.7582
 6022TIP3    H218031   2.690   3.493   1.992  0.6766  1.9890  0.6925
 6023TIP3   OH218032   5.371   6.416   4.475  0.1245  0.1885  0.5207
 6023TIP3    H118033   5.297   6.472   4.452  0.3157  0.5288  0.7214
 6023TIP3    H218034   5.426   6.471   4.531 -0.5533 -0.7775  2.1768
 6024TIP3   OH218035   3.921   1.869   1.664  0.0958  0.1496  0.1280
 6024TIP3    H118036   3.955   1.782   1.646  0.0369 -0.0207  0.7936
 6024TIP3    H218037   3.980   1.928   1.617  0.2109 -0.2429 -0.2222
 6025TIP3   OH218038   1.973   3.211   3.609  0.4300  0.4521  0.1079
 6025TIP3    H118039   2.004   3.293   3.648  1.0920  0.8573 -1.2323
 6025TIP3    H218040   1.879   3.223   3.601  0.5100  1.0503 -0.0079
 6026TIP3   OH218041   7.153   4.977   2.267 -0.6592 -0.6258  0.0271
 6026TIP3    H118042   7.207   4.906   2.232  2.5851  1.4969  0.2083
 6026TIP3    H218043   7.140   4.955   2.359  0.5510 -0.9011  0.1525
 6027TIP3   OH218044   4.489   2.911   1.897 -0.3485 -0.4010 -0.0218
 6027TIP3    H118045   4.408   2.879   1.937 -1.2663  0.7003 -0.9193
 6027TIP3    H218046   4.465   2.929   1.806  0.7597  0.4643 -0.1644
 6028TIP3   OH218047   3.138   6.596   2.373  0.2779  0.8368 -0.0610
 6028TIP3    H118048   3.054   6.558   2.349  1.1565 -0.9255 -0.5638
 6028TIP3    H218049   3.123   6.636   2.459 -0.5377 -1.5785  1.0144
 6029TIP3   OH218050   4.399   1.374   1.348 -0.1207 -0.2930 -1.0053
 6029TIP3    H118051   4.484   1.409   1.322 -0.0686 -0.5149 -1.1412
 6029TIP3    H218052   4.421   1.297   1.400 -0.2250  0.1348 -0.3224
 6030TIP3   OH218053   5.826   0.365   2.055  0.1533  0.3924  0.0539
 6030TIP3    H118054   5.885   0.402   2.120  2.3235 -0.1131 -1.5143
 6030TIP3    H218055   5.826   0.271   2.073  1.7338  0.0848 -1.3371
 6031TIP3   OH218056   6.027   4.151   4.742 -0.1847  0.0445 -0.7178
 6031TIP3    H118057   6.103   4.209   4.752 -1.6135  1.7394  1.0635
 6031TIP3    H218058   6.053   4.089   4.674  3.0480  0.1233  0.2723
 6032TIP3   OH218059   5.229   0.446   1.093  0.1137 -0.1104  0.3066
 6032TIP3    H118060   5.239   0.474   1.184  1.3492  1.0912 -0.1654
 6032TIP3    H218061   5.203   0.526   1.046  0.8496 -0.3875 -0.6080
 6033TIP3   OH218062   6.832   6.524   0.040 -0.5078 -0.0444  0.2441
 6033TIP3    H118063   6.796   6.460  -0.021  1.4639  0.1725 -1.2303
 6033TIP3    H218064   6.757   6.578   0.065 -1.3994 -0.1604 -1.9537
 6034TIP3   OH218065   0.984   4.146   4.710 -0.1083 -0.2244 -0.4115
 6034TIP3    H118066   0.978   4.054   4.735 -0.7414 -0.0963 -0.0645
 6034TIP3    H218067   1.071   4.155   4.672 -0.3846 -1.1801 -1.3350
 6035TIP3   OH218068   3.443   6.427   0.362  0.0939  0.3250 -0.6371
 6035TIP3    H118069   3.497   6.445   0.285  0.6513 -0.7842 -0.5274
 6035TIP3    H218070   3.425   6.513   0.400  1.3016  0.7533 -1.0025
 6036TIP3   OH218071   1.554   2.397   4.225  0.2787 -0.2276  0.2929
 6036TIP3    H118072   1.617   2.348   4.277  0.9747 -0.5811 -0.8341
 6036TIP3    H218073   1.487   2.333   4.202  1.0498 -0.6241 -0.9552
 6037TIP3   OH218074   3.312   4.261   1.001 -0.8198 -0.5191  0.1867
 6037TIP3    H118075   3.224   4.243   0.967 -1.5787  0.8322  1.3685
 6037TIP3    H218076   3.298   4.282   1.093  0.3719  2.4241 -0.2154
 6038TIP3   OH218077   4.504   6.534   2.519 -0.3002  0.5600  0.1142
 6038TIP3    H118078   4.462   6.579   2.593  1.0352 -0.1490  1.3515
 6038TIP3    H218079   4.580   6.490   2.558 -1.5012 -2.7804 -0.9767
 6039TIP3   OH218080   1.746   0.963   2.632  0.2163  0.1583 -0.0524
 6039TIP3    H118081   1.740   1.038   2.691 -0.1141 -0.4750  0.7326
 6039TIP3    H218082   1.728   0.887   2.687  0.1773 -0.4720 -0.9093
 6040TIP3   OH218083   0.352   5.788   4.590 -0.1069 -0.4058  0.1966
 6040TIP3    H118084   0.441   5.819   4.571  0.1661 -1.0978  0.2881
 6040TIP3    H218085   0.366   5.705   4.636 -0.7404  0.7114  2.5790
 6041TIP3   OH218086   3.798   5.600   5.255 -0.4302  0.8718  0.4332
 6041TIP3    H118087   3.873   5.561   5.210 -1.6631  0.8493 -1.7153
 6041TIP3    H218088   3.781   5.682   5.209 -2.6139  0.1750 -0.1424
 6042TIP3   OH218089   4.801   6.417   1.444  0.3061 -0.1592 -0.3631
 6042TIP3    H118090   4.806   6.487   1.508  0.0403  0.8456 -1.4055
 6042TIP3    H218091   4.709   6.393   1.440  0.3252 -0.2356 -0.3520
 6043TIP3   OH218092   3.983   5.306   0.260  0.3859 -0.1812  0.1117
 6043TIP3    H118093   3.946   5.218   0.251 -0.5066  0.1468  0.5319
 6043TIP3    H218094   4.044   5.298   0.333  0.8803 -0.6277 -0.3373
 6044TIP3   OH218095   1.395   5.005   5.613  0.1840 -0.3770 -0.2051
 6044TIP3    H118096   1.308   4.975   5.585 -0.0045  0.0722 -0.1293
 6044TIP3    H218097   1.456   4.946   5.571 -0.0675  0.4521 -1.8395
 6045TIP3   OH218098   7.202   3.008   2.286 -0.1514 -0.3243  0.1082
 6045TIP3    H118099   7.111   2.998   2.256 -0.3463 -0.0381  0.5801
 6045TIP3    H218100   7.205   3.095   2.325  0.2119 -0.5026  0.4897
 6046TIP3   OH218101   3.481   5.349   2.074 -0.6444 -0.5777  0.0211
 6046TIP3    H118102   3.548   5.371   2.009 -0.4930  1.1540  0.6977
 6046TIP3    H218103   3.400   5.385   2.039 -0.1952  2.4086  1.6717
 6047TIP3   OH218104   0.014   3.424   1.064 -0.0313  0.5433  0.2082
 6047TIP3    H118105   0.100   3.440   1.102  0.7370  0.0542 -1.2580
 6047TIP3    H218106   0.010   3.481   0.988 -0.9302  0.4290  0.1588
 6048TIP3   OH218107   3.484   2.537   2.007 -0.0503  0.5889 -0.1414
 6048TIP3    H118108   3.395   2.570   1.993  0.0395  0.3568 -1.3618
 6048TIP3    H218109   3.470   2.447   2.038 -0.2470  0.6323 -0.0984
 6049TIP3   OH218110   0.232   0.866   2.344  0.0297 -0.1638  0.3608
 6049TIP3    H118111   0.201   0.826   2.263 -0.1672  0.7182 -0.0043
 6049TIP3    H218112   0.158   0.859   2.404 -0.2011  0.1635  0.1163
 6050TIP3   OH218113   0.139   5.833   4.801 -0.6242 -0.5827 -0.5890
 6050TIP3    H118114   0.197   5.794   4.736  1.4628  0.9608  0.2413
 6050TIP3    H218115   0.150   5.779   4.879 -0.7881 -0.6445 -0.6079
 6051TIP3   OH218116   5.641   1.714   0.475  0.3712  0.0883  0.1678
 6051TIP3    H118117   5.643   1.621   0.451  0.3877  0.2890 -0.6452
 6051TIP3    H218118   5.567   1.750   0.426  1.1767  0.7748 -0.5839
 6052TIP3   OH218119   2.338   5.669   1.884  0.0201  0.2466 -0.3802
 6052TIP3    H118120   2.250   5.633   1.891  0.0073  0.1065 -1.1357
 6052TIP3    H218121   2.395   5.592   1.889  0.0303  0.1910 -1.2054
 6053TIP3   OH218122   4.867   3.277   3.287  0.4489 -0.1338  0.5195
 6053TIP3    H118123   4.872   3.258   3.193  0.5577  0.9172  0.3047
 6053TIP3    H218124   4.820   3.361   3.292  0.9286  0.0903  1.3748
 6054TIP3   OH218125   1.135   3.269   0.334 -0.3114 -0.0041  0.0151
 6054TIP3    H118126   1.151   3.189   0.384 -0.0381  0.5955  0.9202
 6054TIP3    H218127   1.073   3.319   0.388  0.4116  0.8927  0.0381
 6055TIP3   OH218128   5.957   1.763   4.814 -0.3499 -0.6694 -0.0705
 6055TIP3    H118129   5.898   1.693   4.786 -0.8029 -0.0030 -0.8383
 6055TIP3    H218130   5.903   1.820   4.869 -0.0472 -0.8038  0.3663
 6056TIP3   OH218131   2.372   0.083   5.120 -0.4551 -0.8495  0.0258
 6056TIP3    H118132   2.379   0.054   5.211  0.2200 -1.6459 -0.2651
 6056TIP3    H218133   2.285   0.121   5.114 -1.2448 -2.4754  0.5544
 6057TIP3   OH218134   6.738   4.342   2.788  0.1865 -0.1314  0.2683
 6057TIP3    H118135   6.681   4.265   2.798  0.1944 -0.2134 -0.2996
 6057TIP3    H218136   6.826   4.309   2.806  0.3986 -0.6260 -1.5093
 6058TIP3   OH218137   2.291   2.909   4.671 -0.1066 -0.1925 -0.9677
 6058TIP3    H118138   2.211   2.857   4.676  0.1070 -0.4361  0.5074
 6058TIP3    H218139   2.260   2.999   4.661 -0.4700 -0.5632 -3.8725
 6059TIP3   OH218140   6.877   6.324   0.958 -0.8852 -0.0192 -0.6856
 6059TIP3    H118141   6.969   6.299   0.957 -1.0543 -1.0230  2.0322
 6059TIP3    H218142   6.877   6.416   0.931  0.8140 -0.1940 -1.3970
 6060TIP3   OH218143   5.616   3.440   5.301  0.0003 -0.6237 -1.0347
 6060TIP3    H118144   5.624   3.519   5.354 -0.3971  1.3329 -3.6830
 6060TIP3    H218145   5.706   3.420   5.274 -0.0068 -0.5403 -1.1184
 6061TIP3   OH218146   5.817   3.923   3.284 -0.5057 -0.1336  0.1750
 6061TIP3    H118147   5.850   4.004   3.324  1.4203 -1.0270  0.5264
 6061TIP3    H218148   5.888   3.896   3.225 -0.8324 -1.9113  0.5634
 6062TIP3   OH218149   5.621   0.817   1.164 -0.0141 -0.0738 -0.3465
 6062TIP3    H118150   5.623   0.793   1.256  0.9575 -0.6451 -0.5003
 6062TIP3    H218151   5.675   0.751   1.120  1.7781  1.6849 -0.9389
 6063TIP3   OH218152   5.095   0.023   1.129  0.1868  0.2066 -0.0602
 6063TIP3    H118153   5.072   0.116   1.126 -3.2492 -0.5070 -1.1255
 6063TIP3    H218154   5.084  -0.007   1.039  0.4711 -1.3843  0.4019
 6064TIP3   OH218155   2.493   2.473   5.755  1.0514  0.5386 -0.7432
 6064TIP3    H118156   2.492   2.489   5.661 -1.5153  3.3909 -0.3719
 6064TIP3    H218157   2.584   2.486   5.780  1.6701  0.3627 -2.7049
 6065TIP3   OH218158   6.484   2.098   0.225  0.0719 -0.0277 -0.2647
 6065TIP3    H118159   6.511   2.045   0.300 -1.7025 -2.1180 -1.0111
 6065TIP3    H218160   6.428   2.166   0.263 -0.7002 -0.9769  0.3255
 6066TIP3   OH218161   4.823   6.364   1.774  0.5907  0.3844 -0.6251
 6066TIP3    H118162   4.755   6.299   1.792 -0.5811  1.9183  0.8080
 6066TIP3    H218163   4.776   6.434   1.728  1.2467  1.3394  0.1254
 6067TIP3   OH218164   7.089   1.806   1.496  0.0169 -0.0608  0.4059
 6067TIP3    H118165   6.995   1.798   1.480 -0.1499 -0.0429  1.3344
 6067TIP3    H218166   7.124   1.845   1.416 -0.6323 -0.8425 -0.2714
 6068TIP3   OH218167   4.363   3.634   5.743  0.1588  0.2240  0.0982
 6068TIP3    H118168   4.431   3.582   5.786 -0.9955 -0.2411  1.4397
 6068TIP3    H218169   4.287   3.575   5.738  0.3317  0.1107 -3.0253
 6069TIP3   OH218170   5.553   2.820   1.955 -0.4171 -0.0544 -0.3607
 6069TIP3    H118171   5.583   2.739   1.913 -2.4414 -0.8400 -0.4296
 6069TIP3    H218172   5.502   2.790   2.031 -0.6966  1.1772 -0.0388
 6070TIP3   OH218173   6.754   4.745   0.063  0.2841  0.1616  0.4081
 6070TIP3    H118174   6.708   4.829   0.076 -1.2875 -0.6564  0.4358
 6070TIP3    H218175   6.770   4.741  -0.031  0.7128  0.6571  0.4550
 6071TIP3   OH218176   6.983   0.768   0.252  0.0787  0.0547  0.5201
 6071TIP3    H118177   7.049   0.717   0.204  0.3233  0.3536  0.5340
 6071TIP3    H218178   6.933   0.811   0.184  0.4706  0.5339  0.5292
 6072TIP3   OH218179   6.003   3.156   4.202  0.3012 -1.0089  0.0070
 6072TIP3    H118180   6.014   3.244   4.238  0.9910 -0.7850 -0.7152
 6072TIP3    H218181   6.013   3.097   4.278  0.4355 -0.4928  0.3923
 6073TIP3   OH218182   6.992   4.472   0.616 -0.7768 -0.4450 -0.3136
 6073TIP3    H118183   6.986   4.508   0.705 -0.1443 -2.6317  0.6792
 6073TIP3    H218184   7.026   4.545   0.563 -3.2045  1.5959  0.7170
 6074TIP3   OH218185   3.549   4.636   3.487 -0.3977 -0.2621  0.1439
 6074TIP3    H118186   3.569   4.554   3.534 -1.8821 -1.5953 -1.4114
 6074TIP3    H218187   3.571   4.616   3.395  1.1256  1.8057 -0.0018
 6075TIP3   OH218188   1.209   2.361   2.449  0.1950  0.0632 -0.0849
 6075TIP3    H118189   1.121   2.398   2.453  0.0015 -0.2429 -1.1722
 6075TIP3    H218190   1.219   2.332   2.358  0.6476 -1.8010  0.5133
 6076TIP3   OH218191   3.126   4.334   4.402 -0.0655  0.7881 -0.3726
 6076TIP3    H118192   3.207   4.337   4.352  1.5028 -0.2848  1.9601
 6076TIP3    H218193   3.078   4.259   4.365  0.7076  0.4901 -0.7884
 6077TIP3   OH218194   1.371   3.284   4.051  0.1193  0.2843  0.2768
 6077TIP3    H118195   1.452   3.322   4.086  0.5182 -0.2269 -0.0759
 6077TIP3    H218196   1.318   3.266   4.128 -1.0336  3.5667  0.3929
 6078TIP3   OH218197   1.075   3.238   1.271  0.4037  0.0391  0.1131
 6078TIP3    H118198   1.027   3.157   1.254  0.1804  0.0167  0.8255
 6078TIP3    H218199   1.071   3.286   1.188  0.1348 -0.4679 -0.1724
 6079TIP3   OH218200   1.509   6.111   4.179  0.0287 -0.1574 -0.9478
 6079TIP3    H118201   1.560   6.089   4.101 -0.2886 -1.0807 -0.9032
 6079TIP3    H218202   1.449   6.037   4.190 -1.2111  0.8065 -0.8965
 6080TIP3   OH218203   6.708   0.716   0.639 -0.4166  0.3518 -0.9563
 6080TIP3    H118204   6.714   0.812   0.643  2.8551  0.2091  0.7269
 6080TIP3    H218205   6.778   0.690   0.580 -2.4542 -1.0419 -2.9339
 6081TIP3   OH218206   0.121   5.258   2.340 -0.4400  0.4412 -0.1787
 6081TIP3    H118207   0.077   5.279   2.423  0.1515  0.5522  0.1153
 6081TIP3    H218208   0.133   5.164   2.342 -0.1498  0.4818  0.0025
 6082TIP3   OH218209   3.894   0.448   3.043  0.3618  0.2194  0.1068
 6082TIP3    H118210   3.964   0.459   3.108  1.8536 -1.1731 -1.1840
 6082TIP3    H218211   3.886   0.534   3.002  1.0866  0.4829  0.4977
 6083TIP3   OH218212   1.809   0.446   0.541 -0.3472 -0.2309 -0.1009
 6083TIP3    H118213   1.866   0.523   0.534  1.1069 -1.1312  1.2004
 6083TIP3    H218214   1.791   0.422   0.450 -0.2384  1.2111 -0.5308
 6084TIP3   OH218215   3.353   0.951   1.691 -0.3352 -0.0709 -0.8689
 6084TIP3    H118216   3.289   0.985   1.628  1.7585  1.5606 -2.2566
 6084TIP3    H218217   3.436   0.986   1.661  1.2698 -2.2256  0.7771
 6085TIP3   OH218218   4.180   2.108   2.811  0.4776  0.1124 -0.2210
 6085TIP3    H118219   4.145   2.102   2.722 -0.7946  1.6207  0.1380
 6085TIP3    H218220   4.117   2.060   2.865 -0.1841  1.4052  0.1963
 6086TIP3   OH218221   4.724   0.838   2.998 -0.1873  0.3212  0.1057
 6086TIP3    H118222   4.629   0.842   3.002 -0.2686 -0.3515 -0.8007
 6086TIP3    H218223   4.748   0.764   3.054 -0.3494 -0.6774 -1.1020
 6087TIP3   OH218224   2.253   5.888   3.238  0.0724  0.2629 -0.2376
 6087TIP3    H118225   2.196   5.838   3.296 -0.8163  0.5902 -0.8067
 6087TIP3    H218226   2.234   5.979   3.258 -2.1815  0.4580 -2.7789
 6088TIP3   OH218227   4.764   3.284   3.794  0.0243  0.0733  0.7327
 6088TIP3    H118228   4.830   3.293   3.726 -1.0744 -0.6579 -0.4892
 6088TIP3    H218229   4.810   3.303   3.875  1.6294 -0.0476 -0.1102
 6089TIP3   OH218230   5.180   3.413   2.112 -0.0967 -0.0242  0.2195
 6089TIP3    H118231   5.154   3.498   2.149  0.1829  1.0266 -1.8296
 6089TIP3    H218232   5.099   3.362   2.110 -1.0115  1.3804 -1.3946
 6090TIP3   OH218233   5.862   2.010   5.379  0.2114 -0.0223  0.1452
 6090TIP3    H118234   5.803   2.075   5.415  0.1815 -0.5286  1.0466
 6090TIP3    H218235   5.875   1.947   5.450  1.3983 -0.2117 -0.2176
 6091TIP3   OH218236   0.650   1.468   3.945  0.0452  0.1818  0.2613
 6091TIP3    H118237   0.679   1.531   3.878 -0.2010  0.0817  0.0598
 6091TIP3    H218238   0.679   1.383   3.912 -3.1587 -0.3968 -1.5795
 6092TIP3   OH218239   4.982   1.118   2.116 -0.0506  0.0815  0.0240
 6092TIP3    H118240   5.073   1.128   2.142  0.8573 -0.2554 -2.7344
 6092TIP3    H218241   4.965   1.024   2.119  0.2320 -0.0141 -1.0209
 6093TIP3   OH218242   2.741   2.024   1.866  0.1252  0.3338  0.0355
 6093TIP3    H118243   2.759   1.966   1.939 -2.6618 -0.1296  0.4573
 6093TIP3    H218244   2.769   1.974   1.789 -1.0080 -1.0639  0.4870
 6094TIP3   OH218245   5.780   1.305   1.232  0.2770  0.4666 -0.3993
 6094TIP3    H118246   5.836   1.240   1.189  0.9921  0.9407 -0.2098
 6094TIP3    H218247   5.770   1.375   1.167 -0.6203  0.1052 -0.6611
 6095TIP3   OH218248   6.516   2.512   2.942  0.5555  0.1836 -0.5825
 6095TIP3    H118249   6.538   2.532   2.851  3.0396  0.6579  0.0504
 6095TIP3    H218250   6.499   2.418   2.942  1.5840 -0.0227 -1.3877
 6096TIP3   OH218251   0.637   0.424   2.428  0.2819  0.2582 -0.1228
 6096TIP3    H118252   0.608   0.386   2.511  0.6215 -1.1717 -0.6336
 6096TIP3    H218253   0.672   0.351   2.378 -0.1479  1.0261 -1.6470
 6097TIP3   OH218254   4.998   6.534   2.642  0.6760  0.2107 -0.4106
 6097TIP3    H118255   5.066   6.489   2.692 -0.6637 -0.3110  1.0361
 6097TIP3    H218256   5.005   6.625   2.670 -2.5639 -0.5656  4.1285
 6098TIP3   OH218257   3.427   0.451   0.841 -0.6185 -0.2782  0.2651
 6098TIP3    H118258   3.376   0.520   0.798  0.2922 -0.7467 -1.6655
 6098TIP3    H218259   3.362   0.385   0.864 -1.5502  1.2394  2.3738
 6099TIP3   OH218260   3.371   5.191   3.094 -0.6464 -0.3113 -0.6506
 6099TIP3    H118261   3.414   5.136   3.159  0.8752  0.0053 -1.3482
 6099TIP3    H218262   3.305   5.240   3.144 -0.7355 -1.3609  0.3083
 6100TIP3   OH218263   3.157   1.224   2.963  0.1009 -0.4320 -0.0603
 6100TIP3    H118264   3.186   1.152   2.907 -0.1653  0.0296 -0.8109
 6100TIP3    H218265   3.061   1.219   2.960  0.0400 -1.5126  1.8284
 6101TIP3   OH218266   1.287   4.398   0.176  0.2975  0.3587  0.3803
 6101TIP3    H118267   1.288   4.491   0.154 -0.8078  0.8255  2.1243
 6101TIP3    H218268   1.210   4.363   0.130  0.5806  0.3527 -0.0909
 6102TIP3   OH218269   3.251   4.326   5.691 -0.6402  0.4307 -0.2923
 6102TIP3    H118270   3.162   4.318   5.656 -1.0733  0.7832  0.6921
 6102TIP3    H218271   3.303   4.357   5.617 -0.8538 -1.9315 -1.5161
 6103TIP3   OH218272   0.700   3.407   4.694 -0.5003  0.0643  0.2461
 6103TIP3    H118273   0.724   3.329   4.744 -0.2127  0.3131  0.4985
 6103TIP3    H218274   0.670   3.469   4.761 -1.8940 -0.2517 -0.0545
 6104TIP3   OH218275   1.658   1.416   4.551 -0.2950  0.0003 -0.1796
 6104TIP3    H118276   1.747   1.421   4.514  0.2849 -3.1991  0.5144
 6104TIP3    H218277   1.606   1.376   4.481 -1.1188  1.2972 -0.3511
 6105TIP3   OH218278   0.662   2.371   1.215  0.2518  0.0398  0.0909
 6105TIP3    H118279   0.657   2.337   1.126  1.1097  1.5959 -0.5816
 6105TIP3    H218280   0.596   2.320   1.263  0.6165 -1.6804 -1.1081
 6106TIP3   OH218281   2.677   4.624   0.291  0.0102  0.2469 -0.0248
 6106TIP3    H118282   2.725   4.587   0.365 -0.5874 -0.3451  0.0730
 6106TIP3    H218283   2.613   4.557   0.267 -0.1146  0.6226 -0.7817
 6107TIP3   OH218284   5.295   2.268   5.687 -0.9302 -0.4489 -0.4379
 6107TIP3    H118285   5.308   2.176   5.707 -1.7253 -0.5275 -0.2380
 6107TIP3    H218286   5.338   2.314   5.759 -1.3873 -0.6857 -0.0063
 6108TIP3   OH218287   7.162   0.592   4.424  0.6107 -0.1946 -0.3191
 6108TIP3    H118288   7.164   0.678   4.383  1.1197 -0.5351 -1.0332
 6108TIP3    H218289   7.115   0.536   4.362  0.2183 -0.4175  0.1701
 6109TIP3   OH218290   2.054   3.319   3.343 -0.5322  0.2109  0.1821
 6109TIP3    H118291   2.057   3.246   3.405 -0.5127 -0.7749 -0.9456
 6109TIP3    H218292   2.140   3.362   3.351 -0.6651  0.3191  1.0811
 6110TIP3   OH218293   1.674   5.781   0.137  0.1822 -0.4340  0.0949
 6110TIP3    H118294   1.620   5.708   0.109 -0.1474 -0.2037  0.1317
 6110TIP3    H218295   1.733   5.743   0.202  0.9836 -0.9795 -0.9208
 6111TIP3   OH218296   5.416   0.746   3.290 -0.7500 -0.7873 -0.3410
 6111TIP3    H118297   5.505   0.725   3.262  0.6820  0.2605  3.0271
 6111TIP3    H218298   5.360   0.695   3.230  2.0065 -1.0330 -2.9450
 6112TIP3   OH218299   7.153   2.526   2.175 -0.1614  0.1703 -0.2009
 6112TIP3    H118300   7.135   2.451   2.118  0.1501  0.9044 -1.2982
 6112TIP3    H218301   7.076   2.532   2.231 -1.9935  1.2660 -2.6095
 6113TIP3   OH218302   1.351   3.454   3.625  0.0223 -0.5867  0.3546
 6113TIP3    H118303   1.286   3.523   3.633  2.2473  1.8102 -0.8940
 6113TIP3    H218304   1.415   3.488   3.562  2.2669 -2.9569  1.1765
 6114TIP3   OH218305   6.867   6.285   5.726 -0.6030  0.5656 -0.2889
 6114TIP3    H118306   6.825   6.326   5.801  0.4425  2.3233 -0.6106
 6114TIP3    H218307   6.848   6.343   5.652  1.1192  0.6546 -0.7172
 6115TIP3   OH218308   6.962   0.274   3.994  0.0929 -0.0321 -0.7071
 6115TIP3    H118309   7.034   0.323   3.955  1.2496  0.5961  1.9989
 6115TIP3    H218310   6.883   0.315   3.957  0.9300 -1.4032 -4.5338
 6116TIP3   OH218311   2.880   5.788   1.632  0.6136 -0.1194 -0.2276
 6116TIP3    H118312   2.921   5.829   1.707 -1.9772 -0.5770  1.5581
 6116TIP3    H218313   2.840   5.708   1.667 -1.9634  0.4181 -1.7019
 6117TIP3   OH218314   4.475   5.420   2.695 -0.4690  0.1097 -0.0955
 6117TIP3    H118315   4.539   5.435   2.625  0.9300 -0.6948  0.9636
 6117TIP3    H218316   4.526   5.381   2.766 -2.1698 -0.6138  0.7732
 6118TIP3   OH218317   6.422   3.182   5.719  0.0896  0.0558  0.0047
 6118TIP3    H118318   6.398   3.091   5.701  1.4955 -0.0763 -1.4252
 6118TIP3    H218319   6.517   3.182   5.721  0.1245  1.5902 -0.6038
 6119TIP3   OH218320   1.572   4.246   2.595  0.6560  0.3978  0.4784
 6119TIP3    H118321   1.619   4.310   2.649  0.9860 -0.1954  0.9069
 6119TIP3    H218322   1.634   4.174   2.583 -0.1321 -0.4076  1.0681
 6120TIP3   OH218323   2.173   2.231   5.828  0.2229 -0.1264 -0.1968
 6120TIP3    H118324   2.149   2.219   5.736  0.7208 -0.9232 -0.2301
 6120TIP3    H218325   2.254   2.181   5.839  1.4585  1.8390  0.1092
 6121TIP3   OH218326   2.495   1.198   1.758  0.5068 -0.3915  0.3616
 6121TIP3    H118327   2.551   1.190   1.836 -0.3730 -2.1409  0.8674
 6121TIP3    H218328   2.411   1.228   1.793 -0.4879 -3.0135  0.4429
 6122TIP3   OH218329   5.321   6.651   2.149  0.4222  0.1078  0.0908
 6122TIP3    H118330   5.312   6.579   2.213  1.8294 -1.3906 -1.2966
 6122TIP3    H218331   5.260   6.628   2.079  0.5135  0.5567 -0.1379
 6123TIP3   OH218332   5.319   6.363   1.154  0.1789  0.4241 -0.4521
 6123TIP3    H118333   5.338   6.381   1.062  1.9250 -1.3719 -0.5141
 6123TIP3    H218334   5.330   6.447   1.197 -2.2506  1.6780 -2.0316
 6124TIP3   OH218335   3.630   2.519   3.918  0.1800 -0.4611 -0.2137
 6124TIP3    H118336   3.616   2.605   3.878  0.9067 -0.2747 -0.0728
 6124TIP3    H218337   3.584   2.524   4.002 -1.4586 -0.8961 -1.0451
 6125TIP3   OH218338   1.047   1.282   0.453 -0.6014  0.3407 -0.7433
 6125TIP3    H118339   0.989   1.287   0.377 -1.1429  0.9490 -0.3082
 6125TIP3    H218340   1.117   1.345   0.434  0.8715 -1.5879 -2.0182
 6126TIP3   OH218341   0.431   4.005   1.376 -0.1355  0.0336  0.2704
 6126TIP3    H118342   0.429   3.942   1.303 -1.0963 -1.6335  1.6445
 6126TIP3    H218343   0.523   4.029   1.384 -0.1826  1.6414 -2.5433
 6127TIP3   OH218344   0.663   0.976   1.451 -0.2268  0.7217 -0.7827
 6127TIP3    H118345   0.627   0.913   1.389  1.0020  0.1293 -0.9303
 6127TIP3    H218346   0.619   1.058   1.431  0.3861  0.6287 -2.7035
 6128TIP3   OH218347   0.199   4.046   4.380  0.4105  0.2747 -0.0099
 6128TIP3    H118348   0.181   3.953   4.394  3.3117 -0.3140  0.5125
 6128TIP3    H218349   0.256   4.048   4.303  0.1867  1.6576 -0.1700
 6129TIP3   OH218350   7.060   5.512   1.913 -0.0825 -0.3576  0.6103
 6129TIP3    H118351   6.982   5.461   1.933  0.1737 -1.0282 -0.0416
 6129TIP3    H218352   7.036   5.603   1.931 -1.9702 -0.1742 -2.2179
 6130TIP3   OH218353   1.867   6.811   4.344  0.1513  0.4392 -0.4890
 6130TIP3    H118354   1.935   6.812   4.276  0.9512 -1.2844  0.2171
 6130TIP3    H218355   1.838   6.720   4.347 -0.5923  0.6961  0.7938
 6131TIP3   OH218356   3.287   5.018   0.243 -0.0691 -0.1214  0.0383
 6131TIP3    H118357   3.217   4.956   0.222 -0.3479  0.1940  0.0178
 6131TIP3    H218358   3.306   5.061   0.160 -1.6997  1.6666  0.5280
 6132TIP3   OH218359   5.865   6.469   1.182  0.1514 -0.2732 -0.1176
 6132TIP3    H118360   5.834   6.531   1.115  0.7593  0.3165  0.1382
 6132TIP3    H218361   5.830   6.385   1.154  1.0617 -0.1831 -1.6258
 6133TIP3   OH218362   0.134   1.360   2.486  0.5824  0.7007  0.0226
 6133TIP3    H118363   0.175   1.288   2.438 -0.3601 -0.0089  0.2459
 6133TIP3    H218364   0.105   1.421   2.418 -1.2404 -0.5603 -0.4154
 6134TIP3   OH218365   6.028   4.742   5.295 -0.0009 -0.2972 -0.1526
 6134TIP3    H118366   6.023   4.688   5.374 -0.8793 -0.3834 -0.2558
 6134TIP3    H218367   5.938   4.772   5.280  0.3279  0.5399 -0.5546
 6135TIP3   OH218368   5.949   3.256   3.500 -0.3795 -0.1266  0.5251
 6135TIP3    H118369   6.014   3.259   3.430  0.7010 -1.1224  1.4336
 6135TIP3    H218370   5.962   3.170   3.541 -1.5133  0.1164  1.4541
 6136TIP3   OH218371   6.323   3.681   3.477  0.2965  0.3369 -0.3148
 6136TIP3    H118372   6.394   3.687   3.412  1.5943  1.4574  1.1284
 6136TIP3    H218373   6.245   3.710   3.429  1.3243  1.7379 -1.2551
 6137TIP3   OH218374   0.551   0.799   1.264  1.0772 -0.2793 -0.2715
 6137TIP3    H118375   0.618   0.734   1.287  1.3007  0.4051  1.1480
 6137TIP3    H218376   0.564   0.815   1.171  1.7944 -1.3880 -0.3808
 6138TIP3   OH218377   5.606   6.605   0.574  0.1555 -0.2484 -0.1124
 6138TIP3    H118378   5.557   6.685   0.593  0.5352 -0.0680  0.1110
 6138TIP3    H218379   5.586   6.546   0.647 -1.6669 -1.0942 -1.2231
 6139TIP3   OH218380   2.985   2.937   5.163  0.3046 -0.5135 -0.1977
 6139TIP3    H118381   3.040   3.001   5.119  0.2355 -1.3803 -1.6035
 6139TIP3    H218382   3.046   2.871   5.196  0.2198 -0.9230 -0.8285
 6140TIP3   OH218383   5.622   5.090   0.287  0.4597 -0.1715  0.4371
 6140TIP3    H118384   5.574   5.130   0.215 -0.6799 -0.7068  0.8654
 6140TIP3    H218385   5.629   4.997   0.263  2.3675  0.0873 -0.1746
 6141TIP3   OH218386   0.426   2.929   5.736 -0.0294 -0.3421 -0.2180
 6141TIP3    H118387   0.384   2.866   5.678 -3.0100  1.3399 -0.1050
 6141TIP3    H218388   0.419   2.891   5.823 -1.3274 -0.1736 -0.2201
 6142TIP3   OH218389   5.206   5.688   4.478 -0.2153  0.2406  0.3418
 6142TIP3    H118390   5.186   5.669   4.386 -3.2485  2.1873  0.4609
 6142TIP3    H218391   5.264   5.764   4.475  0.8382 -0.5498  0.0701
 6143TIP3   OH218392   0.028   5.111   1.941  0.6291 -0.1073 -0.2520
 6143TIP3    H118393   0.078   5.064   2.007  1.2782  2.1535  0.9437
 6143TIP3    H218394   0.089   5.122   1.868  1.1804  0.7188  0.3217
 6144TIP3   OH218395   5.753   1.831   1.747  0.0810  0.3100  0.4849
 6144TIP3    H118396   5.714   1.896   1.689 -1.1754  0.0320  0.9859
 6144TIP3    H218397   5.734   1.747   1.705 -0.0930  0.1555  0.8700
 6145TIP3   OH218398   2.473   0.835   1.683 -0.9820  0.1946  0.0393
 6145TIP3    H118399   2.446   0.782   1.608 -2.7989 -0.6044  1.1985
 6145TIP3    H218400   2.392   0.853   1.730 -0.1203  2.1874  0.8750
 6146TIP3   OH218401   6.595   6.153   0.659 -0.0660  0.3295 -0.1004
 6146TIP3    H118402   6.665   6.105   0.614 -1.3413  0.1261 -1.9515
 6146TIP3    H218403   6.624   6.245   0.655  0.5642  0.1404  0.0303
 6147TIP3   OH218404   7.116   3.154   4.017 -0.1603  0.2971  0.0446
 6147TIP3    H118405   7.157   3.207   3.949 -0.9845  0.3996 -0.3841
 6147TIP3    H218406   7.184   3.145   4.084  0.4660  0.6848 -0.5219
 6148TIP3   OH218407   0.315   5.338   2.145  0.5399 -0.4023 -0.7138
 6148TIP3    H118408   0.276   5.369   2.063  0.7718  0.6294 -0.4485
 6148TIP3    H218409   0.240   5.313   2.199  0.2935  0.3549 -0.6857
 6149TIP3   OH218410   1.864   5.640   0.820 -0.4380  0.5866 -0.4000
 6149TIP3    H118411   1.873   5.554   0.779 -1.0552 -0.7061  2.0061
 6149TIP3    H218412   1.832   5.622   0.908  1.7351  3.0985  1.0832
 6150TIP3   OH218413   3.841   1.078   5.741  0.4161 -0.1250  0.2222
 6150TIP3    H118414   3.922   1.115   5.705 -0.1613  2.2113  1.0874
 6150TIP3    H218415   3.779   1.151   5.738 -0.9919 -1.2007  1.6724
 6151TIP3   OH218416   0.036   0.563   2.400 -0.1621  0.4603  0.4754
 6151TIP3    H118417   0.027   0.613   2.318 -1.9998 -1.2862 -0.4598
 6151TIP3    H218418   0.007   0.624   2.468 -0.7149  1.2315 -0.4207
 6152TIP3   OH218419   3.469   4.919   1.077  0.6759  0.3272 -0.4255
 6152TIP3    H118420   3.534   4.954   1.016 -0.7915  1.2106 -1.5732
 6152TIP3    H218421   3.516   4.907   1.159  2.6100 -0.4033 -1.5683
 6153TIP3   OH218422   6.826   5.890   1.511  0.7502  0.0033 -0.4462
 6153TIP3    H118423   6.821   5.802   1.547 -1.1259  0.3175  0.1674
 6153TIP3    H218424   6.787   5.882   1.423  0.3619  0.2539 -0.2998
 6154TIP3   OH218425   3.916   2.417   4.717 -0.3783  0.3103  0.4337
 6154TIP3    H118426   3.839   2.388   4.766 -0.1803  0.8045  1.0447
 6154TIP3    H218427   3.883   2.436   4.629 -1.1501  1.4834  0.9622
 6155TIP3   OH218428   4.526   0.410   3.401  0.2856  0.2932  0.2934
 6155TIP3    H118429   4.611   0.452   3.385 -0.6269  2.4526  0.6959
 6155TIP3    H218430   4.472   0.480   3.438 -1.3616 -1.3065  1.0579
 6156TIP3   OH218431   5.029   4.642   4.892  0.1908  0.2209  0.1265
 6156TIP3    H118432   4.976   4.562   4.892  0.9378 -0.2810 -0.1281
 6156TIP3    H218433   5.018   4.678   4.804  0.5466 -0.0703 -0.0385
 6157TIP3   OH218434   1.859   0.995   5.157 -0.0014  0.1095 -0.2635
 6157TIP3    H118435   1.773   1.028   5.130 -0.6950 -1.6256 -0.3135
 6157TIP3    H218436   1.841   0.947   5.238  1.2643  1.2799  0.7469
 6158TIP3   OH218437   2.771   6.423   1.153 -0.4822  0.0208 -0.0467
 6158TIP3    H118438   2.744   6.333   1.168 -1.2174  0.0764 -0.9317
 6158TIP3    H218439   2.709   6.457   1.088 -0.2471  1.1762  0.2993
 6159TIP3   OH218440   5.586   3.948   3.704 -0.8946 -0.6223 -0.8246
 6159TIP3    H118441   5.633   4.008   3.646 -0.7539  2.0867  1.8313
 6159TIP3    H218442   5.498   3.985   3.711 -1.3128 -1.6687 -0.3568
 6160TIP3   OH218443   5.672   0.758   5.423 -0.1072 -0.0170 -0.0173
 6160TIP3    H118444   5.747   0.729   5.474  0.8912  3.3909  0.7255
 6160TIP3    H218445   5.702   0.754   5.332  0.2588 -0.5028  0.1196
 6161TIP3   OH218446   3.998   0.902   3.760 -0.1678  0.2377 -0.2221
 6161TIP3    H118447   4.093   0.912   3.760 -0.2842  1.6476  0.4353
 6161TIP3    H218448   3.980   0.839   3.831  0.1729  1.6997  1.2241
 6162TIP3   OH218449   0.694   1.963   2.826  0.1493 -0.0211 -0.1934
 6162TIP3    H118450   0.776   1.965   2.875 -0.5383  1.1317  0.9621
 6162TIP3    H218451   0.721   1.958   2.734  1.4874 -0.3726  0.1969
 6163TIP3   OH218452   2.141   2.198   0.737  0.5615 -0.3489  0.2376
 6163TIP3    H118453   2.063   2.149   0.761  0.5210 -0.3097  0.1846
 6163TIP3    H218454   2.111   2.263   0.674  0.5962 -0.1827  0.3918
 6164TIP3   OH218455   5.634   2.793   4.291 -0.1897 -0.2719  0.1649
 6164TIP3    H118456   5.708   2.733   4.288  0.3412  0.3685  0.2483
 6164TIP3    H218457   5.673   2.880   4.286 -0.9737  0.0643 -0.4332
 6165TIP3   OH218458   5.479   4.573   5.148  0.3204 -0.1010  0.0424
 6165TIP3    H118459   5.455   4.657   5.108  1.3222  0.6170  0.8931
 6165TIP3    H218460   5.398   4.541   5.188 -0.2619  0.0510 -0.9765
 6166TIP3   OH218461   5.670   4.092   0.658 -0.5906  0.1784  0.1359
 6166TIP3    H118462   5.750   4.044   0.638 -0.3798 -0.2944  1.9383
 6166TIP3    H218463   5.632   4.111   0.573  0.5871 -1.0351 -0.7072
 6167TIP3   OH218464   6.010   0.404   4.761  0.2080 -0.2047 -0.0815
 6167TIP3    H118465   5.942   0.423   4.825  0.3882  1.7300 -0.3758
 6167TIP3    H218466   5.963   0.373   4.684 -0.0707 -1.7642  0.6960
 6168TIP3   OH218467   0.507   4.528   0.784 -0.3804  0.3897  0.1109
 6168TIP3    H118468   0.420   4.512   0.748 -0.0994  0.0918 -0.4377
 6168TIP3    H218469   0.520   4.623   0.777 -0.3865  0.3499 -0.4386
 6169TIP3   OH218470   0.685   1.177   3.866 -0.2512  0.1092 -0.1415
 6169TIP3    H118471   0.675   1.143   3.777  1.6249 -1.2636  0.0985
 6169TIP3    H218472   0.611   1.140   3.914 -1.8682  1.6930 -1.2930
 6170TIP3   OH218473   6.473   2.018   3.037  0.2177 -0.3659  0.5426
 6170TIP3    H118474   6.467   1.974   2.952  0.4441  1.0135 -0.2376
 6170TIP3    H218475   6.559   2.060   3.035  0.7035 -1.2522  1.9526
 6171TIP3   OH218476   2.097   4.167   0.274  0.2527 -0.3266  0.4421
 6171TIP3    H118477   2.078   4.257   0.246  0.5823 -0.0215  1.1707
 6171TIP3    H218478   2.033   4.150   0.343  1.3932  0.0380  1.6149
 6172TIP3   OH218479   5.188   5.656   1.318 -0.0440 -0.4102  0.6711
 6172TIP3    H118480   5.181   5.680   1.225 -1.6485 -2.4797  0.1841
 6172TIP3    H218481   5.282   5.644   1.332  0.3500  1.2797 -0.2836
 6173TIP3   OH218482   3.865   2.522   4.119  0.1747 -0.3621  0.2357
 6173TIP3    H118483   3.790   2.493   4.067 -0.8542  2.8464 -0.3446
 6173TIP3    H218484   3.854   2.480   4.204 -1.0927 -1.6088 -0.5191
 6174TIP3   OH218485   3.162   1.324   5.550 -0.4244 -0.4009 -0.1422
 6174TIP3    H118486   3.168   1.357   5.460 -1.3759 -2.1197 -0.8713
 6174TIP3    H218487   3.214   1.244   5.550 -0.5850 -0.5185  0.8018
 6175TIP3   OH218488   6.732   3.712   2.832  0.5443  0.0284 -0.4550
 6175TIP3    H118489   6.713   3.618   2.832 -0.3721  0.1993 -0.1720
 6175TIP3    H218490   6.711   3.741   2.743 -0.7576  0.2462 -0.0993
 6176TIP3   OH218491   5.064   5.279   2.752 -0.1515 -0.0499 -0.0693
 6176TIP3    H118492   5.012   5.217   2.701 -2.7427  0.9096  1.2197
 6176TIP3    H218493   5.115   5.327   2.686 -1.5669 -0.4648 -1.5486
 6177TIP3   OH218494   2.067   3.191   1.828 -0.1528 -0.3359  0.2453
 6177TIP3    H118495   2.136   3.194   1.761 -0.5854  0.3511 -0.1854
 6177TIP3    H218496   2.097   3.251   1.896 -0.6714  0.5879 -0.3089
 6178TIP3   OH218497   5.364   6.116   0.263 -0.1077  0.0426 -0.0143
 6178TIP3    H118498   5.439   6.171   0.288 -0.9950  2.1285 -1.5919
 6178TIP3    H218499   5.290   6.177   0.262 -1.2718 -1.3260 -1.3410
 6179TIP3   OH218500   0.447   0.781   1.572  0.2602  0.3564  0.3404
 6179TIP3    H118501   0.413   0.832   1.499 -2.4752 -0.1229  1.1902
 6179TIP3    H218502   0.449   0.842   1.646  1.0584  0.3036  0.3754
 6180TIP3   OH218503   1.881   6.646   0.397  0.0557  0.3977  0.0442
 6180TIP3    H118504   1.951   6.584   0.420  0.3243  0.5962 -0.2483
 6180TIP3    H218505   1.801   6.595   0.409  0.0001  1.0120  3.4117
 6181TIP3   OH218506   2.441   6.761   4.367  0.0968 -0.2076  0.5859
 6181TIP3    H118507   2.382   6.823   4.410  0.6503  0.1155  0.9037
 6181TIP3    H218508   2.400   6.676   4.378 -0.3054  0.0109  0.8040
 6182TIP3   OH218509   4.921   4.274   4.332  0.1864 -0.5624  0.1458
 6182TIP3    H118510   4.991   4.220   4.368 -0.1116 -1.1017 -0.0698
 6182TIP3    H218511   4.857   4.282   4.403 -0.0209 -0.9462  0.0046
 6183TIP3   OH218512   2.918   6.020   0.467  0.2491  0.7224  0.3089
 6183TIP3    H118513   2.957   5.969   0.397 -0.5267  1.6852 -0.8687
 6183TIP3    H218514   2.928   5.966   0.545 -0.3421 -1.1347 -0.8408
 6184TIP3   OH218515   2.849   0.966   1.761 -0.0862  0.4066  0.3180
 6184TIP3    H118516   2.784   0.927   1.819 -0.4475 -1.3083 -1.1598
 6184TIP3    H218517   2.820   0.944   1.673  2.4789 -0.4482 -0.4077
 6185TIP3   OH218518   4.400   5.573   5.205  0.6139 -0.2992  0.1889
 6185TIP3    H118519   4.468   5.581   5.137 -0.1404  1.1254 -0.4522
 6185TIP3    H218520   4.411   5.652   5.258 -1.2366  0.5560 -0.6184
 6186TIP3   OH218521   2.053   5.233   1.405 -0.5475  0.0671 -0.4260
 6186TIP3    H118522   2.122   5.298   1.416  0.3660 -1.0789  0.9330
 6186TIP3    H218523   2.023   5.245   1.314  1.4173  0.5995 -1.0461
 6187TIP3   OH218524   5.042   5.831   4.026  0.3482 -0.2214 -0.3288
 6187TIP3    H118525   4.958   5.865   4.056  0.6671 -1.6351  2.4648
 6187TIP3    H218526   5.100   5.907   4.026 -0.2001  0.2225  0.7742
 6188TIP3   OH218527   7.179   3.857   2.868  0.2094 -0.4737  1.1149
 6188TIP3    H118528   7.238   3.789   2.901  0.3382  0.7011  3.4714
 6188TIP3    H218529   7.091   3.820   2.880  0.3170 -1.5767 -0.9315
 6189TIP3   OH218530   1.713   3.273   2.920  0.0322  0.3104 -0.5121
 6189TIP3    H118531   1.689   3.271   3.012  2.3495  0.1524  0.1346
 6189TIP3    H218532   1.733   3.182   2.898 -0.4746  0.3470 -1.2011
 6190TIP3   OH218533   3.695   4.117   0.139  0.7082 -0.0938 -0.0088
 6190TIP3    H118534   3.668   4.029   0.167 -0.4913  0.3062  0.1854
 6190TIP3    H218535   3.702   4.167   0.220  0.0284  0.3289 -0.1938
 6191TIP3   OH218536   1.432   0.046   0.583  0.4724 -0.5362 -0.0460
 6191TIP3    H118537   1.508   0.104   0.589 -0.2306  0.2970  1.2897
 6191TIP3    H218538   1.454  -0.029   0.637  1.1078 -1.2264 -1.2287
 6192TIP3   OH218539   3.697   5.015   0.877  0.2852 -0.2630 -0.5096
 6192TIP3    H118540   3.689   4.948   0.809  1.6257 -1.2501  0.2732
 6192TIP3    H218541   3.742   4.971   0.949  2.0335  1.7114 -0.3084
 6193TIP3   OH218542   5.528   0.953   5.576 -0.1966  0.2527 -0.3874
 6193TIP3    H118543   5.570   0.897   5.512  1.2210  0.2969  0.4477
 6193TIP3    H218544   5.535   1.041   5.540  1.1191  0.3532  0.0356
 6194TIP3   OH218545   5.096   0.154   0.131 -0.1081  0.0644  0.3940
 6194TIP3    H118546   5.093   0.176   0.224 -3.3925 -0.1672  0.4408
 6194TIP3    H218547   5.054   0.228   0.088  2.4329  0.7376 -1.1424
 6195TIP3   OH218548   3.413   4.321   3.244  0.1148 -0.0245  0.0471
 6195TIP3    H118549   3.329   4.356   3.275 -0.2550 -0.0822 -0.8772
 6195TIP3    H218550   3.390   4.239   3.200  0.7011 -0.2129  0.0884
 6196TIP3   OH218551   1.137   4.387   0.489 -0.0995  0.0854 -0.6393
 6196TIP3    H118552   1.116   4.416   0.578  1.2355 -1.4190  0.2201
 6196TIP3    H218553   1.052   4.382   0.445 -0.6640  2.3088  0.0367
 6197TIP3   OH218554   2.874   4.446   3.596 -0.3697 -0.0232 -0.3877
 6197TIP3    H118555   2.936   4.413   3.661 -0.1041  0.9427 -0.1478
 6197TIP3    H218556   2.912   4.423   3.511 -0.8944 -1.6244 -0.2316
 6198TIP3   OH218557   4.196   0.863   5.834 -0.3043 -0.2177  0.4965
 6198TIP3    H118558   4.178   0.936   5.776  1.9479 -0.2269 -0.3198
 6198TIP3    H218559   4.194   0.901   5.922 -1.2046  0.3505  0.2396
 6199TIP3   OH218560   1.989   2.573   1.154  0.1177  0.4416 -0.3631
 6199TIP3    H118561   2.017   2.541   1.240 -0.5728  1.3971  0.2389
 6199TIP3    H218562   1.985   2.668   1.164  0.2900  0.5927 -1.5435
 6200TIP3   OH218563   4.974   5.533   5.255 -0.8386  0.3437 -0.4520
 6200TIP3    H118564   5.047   5.525   5.194 -0.8813 -0.0182 -0.4613
 6200TIP3    H218565   4.908   5.474   5.221 -1.5789  1.4923 -1.0512
 6201TIP3   OH218566   0.646   4.480   4.401  0.0856 -0.2356 -0.0894
 6201TIP3    H118567   0.564   4.454   4.358 -0.4807  0.0665  0.7787
 6201TIP3    H218568   0.621   4.553   4.457  0.9474 -0.1687  0.2136
 6202TIP3   OH218569   2.727   5.297   3.157  1.0058  0.0096  0.4644
 6202TIP3    H118570   2.763   5.311   3.244  1.2477  1.1603  0.1840
 6202TIP3    H218571   2.681   5.378   3.136  2.1669  0.3263 -1.0549
 6203TIP3   OH218572   6.677   3.821   5.518  0.2739 -0.2138 -0.7346
 6203TIP3    H118573   6.697   3.886   5.585 -0.1288  0.0971 -0.9124
 6203TIP3    H218574   6.612   3.863   5.461  0.6323 -0.4600 -1.3424
 6204TIP3   OH218575   0.172   5.016   3.879 -0.4216 -0.0105 -0.7051
 6204TIP3    H118576   0.200   4.986   3.966 -2.7197  2.1500  0.9226
 6204TIP3    H218577   0.181   4.938   3.823 -1.3976 -2.3222  2.0811
 6205TIP3   OH218578   5.426   4.143   2.287  0.1825  0.4991  0.5294
 6205TIP3    H118579   5.518   4.127   2.308  0.5801  0.7262 -0.9526
 6205TIP3    H218580   5.381   4.134   2.371  1.5056  0.0736  1.2271
 6206TIP3   OH218581   0.845   0.977   1.679  0.4942  0.1734  1.0805
 6206TIP3    H118582   0.785   0.972   1.605 -1.1448 -3.1738  2.4476
 6206TIP3    H218583   0.884   1.064   1.672 -0.9862  0.7221 -2.5685
 6207TIP3   OH218584   4.327   2.620   2.638 -0.0954  0.0368 -0.0587
 6207TIP3    H118585   4.251   2.650   2.688  1.1064 -0.1203  2.0018
 6207TIP3    H218586   4.306   2.530   2.613  0.2047 -0.8212  2.4419
 6208TIP3   OH218587   0.989   3.956   2.502 -0.0004 -0.9747 -0.1717
 6208TIP3    H118588   1.054   3.892   2.531 -0.4656 -0.1487  3.0735
 6208TIP3    H218589   1.037   4.039   2.501 -0.4117 -0.7397 -0.2400
 6209TIP3   OH218590   6.726   2.209   1.477  0.5270  0.2571  0.3852
 6209TIP3    H118591   6.633   2.189   1.464  1.0669 -3.1888  0.8961
 6209TIP3    H218592   6.734   2.225   1.570  0.4454  0.5857  0.3365
 6210TIP3   OH218593   5.568   1.989   0.198  0.0473  0.1471 -0.2997
 6210TIP3    H118594   5.658   1.959   0.189 -0.7492 -2.1624 -1.5136
 6210TIP3    H218595   5.553   2.045   0.122  0.4757  0.6469 -0.0224
 6211TIP3   OH218596   0.927   6.138   0.382  0.3447 -0.0857  0.4558
 6211TIP3    H118597   0.950   6.053   0.346  1.0204  0.2650  0.0267
 6211TIP3    H218598   1.004   6.164   0.433 -0.2315 -0.1538  1.3643
 6212TIP3   OH218599   7.230   4.988   1.620  0.8107  0.0240  0.1218
 6212TIP3    H118600   7.225   4.948   1.533  0.5830 -0.7302  0.4710
 6212TIP3    H218601   7.139   4.996   1.648  0.8172  1.2514 -0.1314
 6213TIP3   OH218602   1.426   6.431   5.856  0.3093 -0.2699 -0.1868
 6213TIP3    H118603   1.396   6.509   5.809 -0.1433 -0.8108 -0.7954
 6213TIP3    H218604   1.522   6.439   5.857  0.2465  0.6382  0.3622
 6214TIP3   OH218605   4.655   4.345   1.270 -0.2642 -0.0627 -0.2968
 6214TIP3    H118606   4.662   4.294   1.190  0.1812 -0.5910  0.0755
 6214TIP3    H218607   4.626   4.432   1.241  0.3746 -0.1032 -1.0852
 6215TIP3   OH218608   2.475   2.895   2.659  0.3435  0.4439  0.3022
 6215TIP3    H118609   2.482   2.812   2.707 -0.7581  0.0577 -0.1740
 6215TIP3    H218610   2.414   2.947   2.712 -1.5788 -0.3045 -1.0349
 6216TIP3   OH218611   1.759   5.006   1.665 -0.4010  0.1056  0.4575
 6216TIP3    H118612   1.767   4.930   1.607  1.8832  0.1529  0.6110
 6216TIP3    H218613   1.840   5.054   1.653 -1.5825  2.2908  0.7576
 6217TIP3   OH218614   4.719   5.269   0.977 -0.6288 -0.4936  0.2090
 6217TIP3    H118615   4.696   5.355   0.942 -1.3538 -1.1344 -0.9621
 6217TIP3    H218616   4.783   5.287   1.046  0.2629  0.8825 -0.9211
 6218TIP3   OH218617   4.786   1.284   0.296  0.3798  0.3421  0.1673
 6218TIP3    H118618   4.743   1.339   0.362  1.3316  1.0156  0.2381
 6218TIP3    H218619   4.728   1.290   0.219  0.4254  1.3822  0.2026
 6219TIP3   OH218620   4.491   5.987   2.905 -0.1136  0.1787  0.4398
 6219TIP3    H118621   4.511   5.924   2.973  1.3768  1.2223  1.0201
 6219TIP3    H218622   4.406   5.959   2.870  0.8193 -2.5790  0.1241
 6220TIP3   OH218623   4.517   4.278   0.266  0.0951  0.1863  0.0165
 6220TIP3    H118624   4.566   4.355   0.237  2.1376 -0.3098  1.8386
 6220TIP3    H218625   4.571   4.204   0.238 -0.7720 -0.4944  0.1026
 6221TIP3   OH218626   0.583   2.752   4.888  0.4609  0.1569  0.2549
 6221TIP3    H118627   0.623   2.806   4.819  0.6083 -0.4152 -0.1188
 6221TIP3    H218628   0.503   2.717   4.847  0.5570 -0.1968  0.3701
 6222TIP3   OH218629   6.273   4.699   4.279  0.0961 -0.0724 -0.1758
 6222TIP3    H118630   6.277   4.615   4.324  2.4241 -0.8747 -1.6967
 6222TIP3    H218631   6.361   4.735   4.287  0.3509  0.2124 -3.0324
 6223TIP3   OH218632   1.023   0.807   5.613  0.3614  0.5661  0.6379
 6223TIP3    H118633   1.008   0.721   5.652 -0.0431  0.1652 -0.3553
 6223TIP3    H218634   0.994   0.870   5.679 -1.7996 -0.1188  0.4126
 6224TIP3   OH218635   3.382   1.825   5.252 -0.1640 -0.1479 -0.3240
 6224TIP3    H118636   3.332   1.902   5.226 -0.5491  0.2289  1.4127
 6224TIP3    H218637   3.446   1.857   5.316  0.0408 -1.1657  0.0093
 6225TIP3   OH218638   3.516   3.655   2.018  0.2382  0.0101 -0.1010
 6225TIP3    H118639   3.471   3.604   2.084 -0.0168  0.3264 -0.0295
 6225TIP3    H218640   3.602   3.614   2.010 -0.1593 -0.7843 -0.4552
 6226TIP3   OH218641   6.585   4.249   1.864 -0.1360  0.1566  0.0065
 6226TIP3    H118642   6.633   4.203   1.794  0.8351  1.8487 -0.5114
 6226TIP3    H218643   6.634   4.230   1.943 -0.2760 -0.4221 -0.0396
 6227TIP3   OH218644   6.314   5.482   5.710  0.6514  0.1253 -0.1966
 6227TIP3    H118645   6.359   5.551   5.661  1.3237 -0.5481 -0.5526
 6227TIP3    H218646   6.385   5.433   5.752  0.2505 -0.9073 -0.6973
 6228TIP3   OH218647   2.751   0.480   0.332 -0.0037  0.2185 -0.0878
 6228TIP3    H118648   2.715   0.566   0.354  0.9151  0.2962  1.2330
 6228TIP3    H218649   2.818   0.465   0.398  0.9736 -0.8152 -1.2703
 6229TIP3   OH218650   1.600   3.104   2.241  0.3248 -0.2034 -0.4162
 6229TIP3    H118651   1.610   3.196   2.268  0.3600 -0.4171  0.3299
 6229TIP3    H218652   1.660   3.094   2.167 -0.1518  0.5375 -0.9184
 6230TIP3   OH218653   2.341   1.329   0.537  0.2581 -0.2268 -0.1457
 6230TIP3    H118654   2.320   1.322   0.444 -1.2041  0.4029  0.1053
 6230TIP3    H218655   2.401   1.256   0.554 -0.3603 -1.0378 -1.3216
 6231TIP3   OH218656   3.230   1.168   4.206 -0.3809 -0.2490  0.0224
 6231TIP3    H118657   3.158   1.107   4.217 -0.1315 -0.8280 -1.3233
 6231TIP3    H218658   3.240   1.210   4.292 -1.9505 -0.5399  0.3727
 6232TIP3   OH218659   2.504   3.219   1.913  0.3648  0.1137 -0.2370
 6232TIP3    H118660   2.444   3.237   1.841  0.1783  0.4411 -0.0064
 6232TIP3    H218661   2.580   3.275   1.896  0.5610 -0.2271 -0.4767
 6233TIP3   OH218662   5.127   1.866   0.891 -0.0056 -0.5068 -0.0635
 6233TIP3    H118663   5.207   1.917   0.882 -0.4116 -0.0263 -1.1044
 6233TIP3    H218664   5.131   1.803   0.819 -0.0939 -1.1519  0.4826
 6234TIP3   OH218665   5.590   0.812   3.729 -0.4195 -0.1730 -0.1308
 6234TIP3    H118666   5.657   0.782   3.668  0.2976  0.6056  0.2310
 6234TIP3    H218667   5.514   0.757   3.712  0.9727 -2.5798  0.8962
 6235TIP3   OH218668   1.074   3.231   0.665  0.6977  0.1409  0.2340
 6235TIP3    H118669   1.032   3.309   0.630  1.3827 -0.2300 -1.5033
 6235TIP3    H218670   1.022   3.158   0.630  1.2390 -0.2361  0.2105
 6236TIP3   OH218671   5.629   2.750   5.573  0.8019  0.0201  0.0287
 6236TIP3    H118672   5.657   2.732   5.483  0.8168 -1.9070  0.3811
 6236TIP3    H218673   5.703   2.723   5.627  1.1379  1.9720  0.6391
 6237TIP3   OH218674   3.920   3.783   4.242  0.3425 -0.1095  0.3091
 6237TIP3    H118675   3.961   3.841   4.306  0.7271  0.9164 -0.8372
 6237TIP3    H218676   3.945   3.695   4.271  0.7789  0.3407  1.3743
 6238TIP3   OH218677   5.688   0.105   3.541 -0.0194  0.2194  0.2298
 6238TIP3    H118678   5.690   0.200   3.550  0.2705  0.1087  1.4215
 6238TIP3    H218679   5.703   0.090   3.447  0.1349  1.3348  0.0611
 6239TIP3   OH218680   6.711   5.873   4.985 -0.4766  0.0988 -0.3017
 6239TIP3    H118681   6.761   5.799   5.021 -0.0718 -0.1339 -1.2994
 6239TIP3    H218682   6.719   5.863   4.890 -0.9414  1.0832 -0.4557
 6240TIP3   OH218683   2.130   1.615   5.600 -0.0031  1.0060  1.2635
 6240TIP3    H118684   2.051   1.642   5.554  0.2064  4.0033  2.3988
 6240TIP3    H218685   2.099   1.561   5.673 -0.8411  0.8403  0.7875
 6241TIP3   OH218686   0.625   4.830   1.369 -0.3813 -0.4557 -0.1297
 6241TIP3    H118687   0.637   4.735   1.377  1.3014 -0.1244  2.3261
 6241TIP3    H218688   0.691   4.857   1.305 -0.7824 -0.8808 -0.7435
 6242TIP3   OH218689   1.139   0.285   3.575  0.4008 -0.1434  0.6209
 6242TIP3    H118690   1.180   0.335   3.504 -0.8654 -2.2121 -1.7144
 6242TIP3    H218691   1.185   0.202   3.575 -0.6186 -0.7214  1.2164
 6243TIP3   OH218692   2.106   1.192   3.665  0.1763  0.0710  0.1384
 6243TIP3    H118693   2.093   1.162   3.575 -2.9157 -0.8214  0.7649
 6243TIP3    H218694   2.154   1.121   3.708 -1.0007 -0.9186 -0.1176
 6244TIP3   OH218695   3.529   6.701   3.591 -0.0466  0.2696 -0.4420
 6244TIP3    H118696   3.437   6.728   3.602  0.5726  2.2648  0.2601
 6244TIP3    H218697   3.576   6.747   3.660  1.5743 -0.2952 -1.1246
 6245TIP3   OH218698   2.446   0.507   4.701  0.5403  0.7825 -0.1498
 6245TIP3    H118699   2.432   0.530   4.793  3.4979  2.1765  0.0560
 6245TIP3    H218700   2.476   0.587   4.660 -0.0660  0.0124 -2.2307
 6246TIP3   OH218701   5.943   1.987   3.722 -0.5848  0.4372 -0.1576
 6246TIP3    H118702   5.939   1.892   3.709 -1.1098  0.4800 -0.3147
 6246TIP3    H218703   6.029   2.002   3.762 -0.9052 -0.2148  0.8017
 6247TIP3   OH218704   3.395   1.709   3.170 -0.1051  0.3113 -0.3201
 6247TIP3    H118705   3.305   1.711   3.140 -0.1936  0.6897 -0.0272
 6247TIP3    H218706   3.404   1.785   3.227  0.8517  1.2020 -1.6069
 6248TIP3   OH218707   5.293   4.570   2.426 -0.1820  0.1466  0.2206
 6248TIP3    H118708   5.366   4.523   2.387 -1.2694 -1.5765  0.1761
 6248TIP3    H218709   5.307   4.562   2.521 -0.9092 -1.2380  0.2371
 6249TIP3   OH218710   6.017   0.900   1.200  0.2214 -0.1389 -0.1267
 6249TIP3    H118711   6.106   0.904   1.235 -0.7685  0.9903  2.5326
 6249TIP3    H218712   5.986   0.812   1.223  0.5300 -0.4262 -0.7890
 6250TIP3   OH218713   4.642   2.700   4.340 -0.7562 -0.3610  0.0479
 6250TIP3    H118714   4.684   2.775   4.383  1.9665 -2.0886  0.6304
 6250TIP3    H218715   4.581   2.740   4.277  0.0763  2.3201  0.8019
 6251TIP3   OH218716   6.149   0.910   2.464 -0.3213 -0.2569 -0.6171
 6251TIP3    H118717   6.225   0.852   2.464 -0.6389 -0.7270  1.0562
 6251TIP3    H218718   6.185   0.996   2.485 -0.2846 -0.5730  0.6936
 6252TIP3   OH218719   6.779   3.741   1.775 -0.1147 -0.4122  0.1413
 6252TIP3    H118720   6.867   3.718   1.746 -0.1733  0.1036 -0.4796
 6252TIP3    H218721   6.724   3.729   1.696 -0.4315  0.1771  0.2660
 6253TIP3   OH218722   2.847   0.890   2.425  0.5575  0.2314 -0.1401
 6253TIP3    H118723   2.870   0.801   2.400 -0.4063  0.0890 -0.5520
 6253TIP3    H218724   2.911   0.913   2.493  1.4464 -0.3961 -0.7380
 6254TIP3   OH218725   0.977   2.828   0.765 -0.4157 -0.0765 -0.7250
 6254TIP3    H118726   1.064   2.789   0.760 -0.3717  0.0112 -0.6403
 6254TIP3    H218727   0.962   2.864   0.678  0.3183  1.3802 -0.2751
 6255TIP3   OH218728   3.983   5.231   4.412 -0.2713  0.4587  0.2738
 6255TIP3    H118729   4.019   5.292   4.347  2.2389  0.6412  1.6961
 6255TIP3    H218730   3.957   5.286   4.485 -0.2855  0.0123  0.6068
 6256TIP3   OH218731   2.225   2.127   3.650 -0.1991 -0.1147  0.4680
 6256TIP3    H118732   2.175   2.060   3.604 -0.5391 -0.6765  1.6209
 6256TIP3    H218733   2.291   2.079   3.698 -2.0946  0.0213  3.4626
 6257TIP3   OH218734   2.856   1.800   4.395 -0.0719 -0.1449 -0.5923
 6257TIP3    H118735   2.844   1.724   4.340 -0.1745 -0.3722 -0.2570
 6257TIP3    H218736   2.793   1.864   4.363 -0.9320 -0.6827 -0.0064
 6258TIP3   OH218737   3.769   1.990   0.998  0.0849  0.4032  0.0674
 6258TIP3    H118738   3.821   2.005   1.077 -0.2103 -1.2196  0.6064
 6258TIP3    H218739   3.812   2.043   0.931  1.1083  0.8098  1.0085
 6259TIP3   OH218740   4.277   1.087   2.220  0.5210  0.2432 -0.2698
 6259TIP3    H118741   4.235   1.025   2.281  1.0105 -1.8616 -1.9383
 6259TIP3    H218742   4.214   1.158   2.210 -1.0237 -1.0161  0.1282
 6260TIP3   OH218743   2.264   0.704   5.698 -0.4637 -0.3141  0.1961
 6260TIP3    H118744   2.279   0.633   5.636 -1.2642 -0.4078  0.0956
 6260TIP3    H218745   2.181   0.683   5.739  0.1353 -0.3387  1.4316
 6261TIP3   OH218746   6.688   6.720   0.130 -0.0170 -0.5358  0.0666
 6261TIP3    H118747   6.704   6.797   0.184 -0.7578 -0.9244  0.8636
 6261TIP3    H218748   6.643   6.754   0.052 -0.3865 -0.1688  0.4370
 6262TIP3   OH218749   4.173   2.536   1.515  0.2731 -0.5428  0.0152
 6262TIP3    H118750   4.161   2.603   1.448  0.2798 -0.7788 -0.2221
 6262TIP3    H218751   4.094   2.543   1.569 -0.1878 -1.0016 -0.5894
 6263TIP3   OH218752   2.734   3.855   0.748  0.0069  0.0244 -0.1726
 6263TIP3    H118753   2.727   3.870   0.654  0.7733  0.9024 -0.0971
 6263TIP3    H218754   2.818   3.892   0.772  0.6010 -1.6955  0.5842
 6264TIP3   OH218755   0.973   6.246   3.568  0.3721  0.4395 -0.5581
 6264TIP3    H118756   0.932   6.308   3.508 -0.9953 -0.6897 -0.8694
 6264TIP3    H218757   0.930   6.262   3.652 -0.0307 -0.0910 -0.6541
 6265TIP3   OH218758   6.781   5.640   1.639 -0.4284 -0.2516 -0.9090
 6265TIP3    H118759   6.696   5.662   1.676  0.0887 -0.0302  0.2016
 6265TIP3    H218760   6.786   5.545   1.644  0.7278 -0.1780  2.3426
 6266TIP3   OH218761   0.628   6.044   1.191 -0.0387 -0.1192 -0.3257
 6266TIP3    H118762   0.643   5.950   1.199 -2.1378 -0.4072  0.9644
 6266TIP3    H218763   0.571   6.052   1.114 -2.4458 -0.3335  1.3087
 6267TIP3   OH218764   2.306   3.722   2.845 -0.0934  0.0068  0.6023
 6267TIP3    H118765   2.283   3.814   2.835  1.3937  0.2447 -1.0852
 6267TIP3    H218766   2.372   3.721   2.913  1.8975  0.6192 -1.2067
 6268TIP3   OH218767   0.129   0.426   0.721  0.4903  0.4485  0.5186
 6268TIP3    H118768   0.132   0.512   0.678 -0.7021 -0.3651 -1.3400
 6268TIP3    H218769   0.217   0.414   0.756  1.0538  1.8954 -0.2958
 6269TIP3   OH218770   2.645   4.426   3.980  0.3586  0.4614 -0.4832
 6269TIP3    H118771   2.721   4.476   4.011  1.0400 -1.3399  0.9386
 6269TIP3    H218772   2.570   4.483   3.997  0.9463  0.4902  2.4892
 6270TIP3   OH218773   6.666   4.961   2.034  0.5027  0.5163 -0.3245
 6270TIP3    H118774   6.704   5.010   2.107  2.0473  0.4757 -1.0437
 6270TIP3    H218775   6.635   4.880   2.073 -1.1977  1.6185  0.7132
 6271TIP3   OH218776   1.421   5.862   1.292 -0.3568  0.5422 -0.5260
 6271TIP3    H118777   1.430   5.775   1.253 -0.6319  0.2045  0.1482
 6271TIP3    H218778   1.498   5.910   1.260 -0.6149  0.3124 -1.5360
 6272TIP3   OH218779   4.306   5.022   2.177  0.2732  0.1609  0.1926
 6272TIP3    H118780   4.324   5.090   2.243  1.6875  0.5051 -0.5052
 6272TIP3    H218781   4.383   4.966   2.180  1.3441  1.3438 -2.5449
 6273TIP3   OH218782   4.250   0.580   0.135  0.1107  0.6207  0.8948
 6273TIP3    H118783   4.299   0.502   0.161  1.0597  0.7467 -0.3897
 6273TIP3    H218784   4.183   0.591   0.203 -0.0919 -1.3522  1.0685
 6274TIP3   OH218785   3.521   4.670   1.467 -0.4269 -0.7405 -0.3100
 6274TIP3    H118786   3.438   4.652   1.511 -1.1962  0.4327 -1.2169
 6274TIP3    H218787   3.579   4.701   1.536 -1.3593  0.2834  0.0327
 6275TIP3   OH218788   3.455   6.642   1.047 -0.1562  0.0486 -0.4575
 6275TIP3    H118789   3.366   6.678   1.048  0.1635  0.8732  1.2591
 6275TIP3    H218790   3.483   6.650   0.955 -1.2697  1.2605 -0.7220
 6276TIP3   OH218791   6.317   1.360   5.401 -0.6620  0.5280  0.2076
 6276TIP3    H118792   6.352   1.428   5.342 -2.3765  1.1195 -0.1995
 6276TIP3    H218793   6.381   1.289   5.397  0.2769  1.3913 -0.7845
 6277TIP3   OH218794   5.691   1.039   0.258 -0.6573 -0.0562  0.1315
 6277TIP3    H118795   5.693   0.946   0.233  0.5409 -0.0076 -0.0290
 6277TIP3    H218796   5.715   1.086   0.179 -4.9955  0.7465 -0.9349
 6278TIP3   OH218797   5.422   2.832   4.917  0.3204 -0.3328  0.0779
 6278TIP3    H118798   5.459   2.902   4.863  0.4667 -0.5464 -0.1029
 6278TIP3    H218799   5.451   2.751   4.874 -1.2920 -0.5246 -0.7229
 6279TIP3   OH218800   0.173   5.651   5.769  0.1421 -0.1314  0.1808
 6279TIP3    H118801   0.256   5.695   5.786  0.3981 -0.2599 -0.7015
 6279TIP3    H218802   0.196   5.559   5.760 -0.5762 -0.8067  3.5693
 6280TIP3   OH218803   3.749   2.491   5.810 -0.0676 -0.1637  0.1756
 6280TIP3    H118804   3.690   2.484   5.736 -0.4746 -0.4122  0.5209
 6280TIP3    H218805   3.701   2.452   5.883  0.6052 -0.5590  0.4119
 6281TIP3   OH218806   1.417   5.915   3.431 -0.3121  0.1093 -0.1841
 6281TIP3    H118807   1.350   5.847   3.424 -1.1629  0.7377  1.4585
 6281TIP3    H218808   1.407   5.949   3.520  2.0265  0.3974  0.0218
 6282TIP3   OH218809   0.445   3.955   0.272  0.3236  0.4492 -0.3742
 6282TIP3    H118810   0.402   3.957   0.186  0.4738 -1.5468 -0.5321
 6282TIP3    H218811   0.448   4.047   0.298 -3.2464  0.8305 -0.7421
 6283TIP3   OH218812   3.922   6.461   4.744  0.2138 -0.3830  0.2469
 6283TIP3    H118813   3.933   6.555   4.758  0.1178 -0.2053 -0.8147
 6283TIP3    H218814   3.833   6.442   4.774 -0.1896  0.0910 -0.6202
 6284TIP3   OH218815   0.951   4.074   3.220  0.0840  0.6391 -0.2723
 6284TIP3    H118816   0.986   4.061   3.308  0.2153  2.1053 -0.0843
 6284TIP3    H218817   0.986   4.002   3.168  0.0482 -0.2066  0.8576
 6285TIP3   OH218818   1.796   6.151   4.974 -0.6498 -0.3872 -0.4132
 6285TIP3    H118819   1.704   6.176   4.961  0.1045  1.0446 -4.2470
 6285TIP3    H218820   1.799   6.059   4.948 -1.0848 -0.6167  0.3245
 6286TIP3   OH218821   5.125   0.044   4.439 -0.1481 -0.3246 -0.6782
 6286TIP3    H118822   5.123  -0.049   4.416  0.8558 -0.7849  0.9367
 6286TIP3    H218823   5.032   0.068   4.450 -0.3874 -1.3575 -0.3038
 6287TIP3   OH218824   0.725   3.939   5.754  0.3948  0.3738  0.2890
 6287TIP3    H118825   0.793   3.916   5.818  1.2126  2.5470  0.2848
 6287TIP3    H218826   0.761   3.911   5.670  1.2240  1.3242  0.3094
 6288TIP3   OH218827   3.583   3.354   4.765 -0.4278  0.1715  0.4248
 6288TIP3    H118828   3.502   3.348   4.815 -0.3663  1.1880  0.6662
 6288TIP3    H218829   3.567   3.301   4.687 -1.5650  0.9168  0.1359
 6289TIP3   OH218830   0.375   6.487   3.680 -0.0012 -0.0294  0.4748
 6289TIP3    H118831   0.451   6.545   3.678 -0.0420  0.0116 -0.3281
 6289TIP3    H218832   0.317   6.526   3.746 -0.0673  0.9142 -0.1088
 6290TIP3   OH218833   6.022   0.792   0.177  0.2441 -0.2375  0.1054
 6290TIP3    H118834   6.085   0.852   0.217 -0.2125 -0.4094  1.1018
 6290TIP3    H218835   6.070   0.751   0.105  1.2734 -0.3927  0.8627
 6291TIP3   OH218836   1.121   2.373   2.038 -0.5684 -0.2728 -0.0399
 6291TIP3    H118837   1.171   2.297   2.069 -0.6051 -0.3127 -0.0778
 6291TIP3    H218838   1.102   2.352   1.946 -0.2348 -0.0399 -0.1653
 6292TIP3   OH218839   2.671   6.584   4.814  0.1295  0.1870 -0.0985
 6292TIP3    H118840   2.745   6.637   4.843 -0.5912  0.4883  1.2961
 6292TIP3    H218841   2.599   6.646   4.804 -0.1342 -0.2078 -0.6789
 6293TIP3   OH218842   0.539   1.624   1.395 -0.4566  0.6005  0.2057
 6293TIP3    H118843   0.575   1.702   1.436 -1.9989  1.5350 -0.1148
 6293TIP3    H218844   0.572   1.551   1.447  0.5782  1.4981  0.8441
 6294TIP3   OH218845   1.239   1.702   1.778  0.3891  0.3255 -0.3604
 6294TIP3    H118846   1.187   1.635   1.823 -0.1635 -0.0449 -1.5154
 6294TIP3    H218847   1.317   1.655   1.748 -0.1255  0.1221 -1.4072
 6295TIP3   OH218848   1.819   1.432   2.470 -0.3936 -0.6714  0.2683
 6295TIP3    H118849   1.800   1.493   2.541  0.5572  0.2806 -0.2543
 6295TIP3    H218850   1.906   1.458   2.440 -1.3785 -0.0228 -2.2650
 6296TIP3   OH218851   5.864   0.478   4.277  0.2759  0.3491 -0.2221
 6296TIP3    H118852   5.946   0.489   4.325  0.5974 -0.1585 -0.6451
 6296TIP3    H218853   5.877   0.399   4.225 -0.5158  0.2166 -0.2311
 6297TIP3   OH218854   6.910   1.789   0.696  0.0470  0.4449 -0.0909
 6297TIP3    H118855   6.981   1.741   0.654  0.5542  0.0477  1.1600
 6297TIP3    H218856   6.948   1.820   0.779 -0.3974  2.6359 -0.6348
 6298TIP3   OH218857   5.748   3.050   3.785  0.1917  0.0619 -0.6342
 6298TIP3    H118858   5.701   2.971   3.811 -0.1372  0.3636 -0.3126
 6298TIP3    H218859   5.799   3.023   3.708 -2.3250  0.3163 -2.5275
 6299TIP3   OH218860   6.584   3.250   0.314  0.3739 -0.0569 -0.2923
 6299TIP3    H118861   6.644   3.176   0.314  0.1419 -0.4424  3.4142
 6299TIP3    H218862   6.499   3.213   0.292  0.7097 -0.3532 -1.1090
 6300TIP3   OH218863   2.735   4.301   5.573 -0.0503  0.1321 -0.5763
 6300TIP3    H118864   2.740   4.302   5.478 -3.2376 -1.7790 -0.8785
 6300TIP3    H218865   2.685   4.379   5.596 -1.5889 -0.7641 -0.7526
 6301TIP3   OH218866   6.591   6.316   0.305 -0.2105  0.1107 -0.2816
 6301TIP3    H118867   6.603   6.364   0.386 -0.9240  1.5339 -0.9770
 6301TIP3    H218868   6.523   6.364   0.258  0.2335 -0.6134 -1.7577
 6302TIP3   OH218869   2.332   1.269   4.972 -0.2552 -0.3015 -0.0999
 6302TIP3    H118870   2.424   1.294   4.968  0.1536 -1.6035  0.5506
 6302TIP3    H218871   2.305   1.293   5.061 -0.3820 -0.4518 -0.0985
 6303TIP3   OH218872   1.794   2.658   1.556 -0.2613 -0.5374 -0.4390
 6303TIP3    H118873   1.711   2.616   1.578  1.9597 -5.1388  0.3508
 6303TIP3    H218874   1.835   2.678   1.640 -0.4049  1.6160 -0.8154
 6304TIP3   OH218875   0.248   0.364   4.104 -0.1741  0.5670 -0.1419
 6304TIP3    H118876   0.225   0.456   4.095 -0.1946  0.7384  1.4463
 6304TIP3    H218877   0.175   0.325   4.153 -0.1254 -0.2868 -0.7128
 6305TIP3   OH218878   3.788   5.746   3.443 -0.7792  0.3526  0.5570
 6305TIP3    H118879   3.848   5.795   3.386  0.1138 -1.2968  0.0146
 6305TIP3    H218880   3.842   5.716   3.515 -1.4267  0.5765  1.1473
 6306TIP3   OH218881   4.833   0.509   4.657 -0.1246  0.5352 -0.1098
 6306TIP3    H118882   4.752   0.491   4.706 -0.6707 -1.1634 -1.5127
 6306TIP3    H218883   4.876   0.423   4.652  0.6670  0.9842 -1.2621
 6307TIP3   OH218884   5.079   0.385   3.159  0.1561 -0.0455 -0.0712
 6307TIP3    H118885   5.082   0.354   3.250 -1.1513  1.0007  0.3611
 6307TIP3    H218886   4.990   0.365   3.129  0.5780 -0.3883 -1.1283
 6308TIP3   OH218887   2.713   6.632   2.355  0.5340  0.3774  0.3745
 6308TIP3    H118888   2.625   6.614   2.321  0.0782  0.8113  1.3130
 6308TIP3    H218889   2.769   6.570   2.308 -0.4125 -0.5868  0.4761
 6309TIP3   OH218890   5.009   4.605   4.043  0.0279 -0.1944  0.2844
 6309TIP3    H118891   4.953   4.591   4.120  1.6901 -0.1795  1.5587
 6309TIP3    H218892   4.975   4.685   4.003 -1.2157 -0.5084  0.6696
 6310TIP3   OH218893   7.175   5.076   5.412  0.5141 -0.0681  0.2969
 6310TIP3    H118894   7.122   5.155   5.400 -1.5404 -1.6285 -1.8801
 6310TIP3    H218895   7.262   5.102   5.381  0.1995  1.6252  0.6931
 6311TIP3   OH218896   3.897   6.645   5.311 -0.7938 -0.0052  0.8613
 6311TIP3    H118897   3.989   6.652   5.338 -0.9292 -0.5582  1.4746
 6311TIP3    H218898   3.848   6.667   5.390 -1.2085  1.5318  0.2225
 6312TIP3   OH218899   2.779   1.509   3.958  0.1395 -0.4574 -0.7654
 6312TIP3    H118900   2.726   1.527   3.880 -0.6990 -0.6058 -0.2491
 6312TIP3    H218901   2.773   1.414   3.969 -2.4143 -0.1866  1.2429
 6313TIP3   OH218902   6.624   4.532   5.187  0.3193  0.2442 -0.1777
 6313TIP3    H118903   6.534   4.548   5.158 -0.1860 -1.6438  0.2203
 6313TIP3    H218904   6.676   4.540   5.107 -0.2081  1.1482 -0.4517
 6314TIP3   OH218905   4.401   2.569   0.740  0.1383 -0.4768 -0.2771
 6314TIP3    H118906   4.467   2.637   0.727 -1.8110  1.5919 -0.0917
 6314TIP3    H218907   4.368   2.550   0.652 -0.7454  0.4100 -0.1622
 6315TIP3   OH218908   5.561   0.614   3.951 -0.0803 -1.0633 -0.3078
 6315TIP3    H118909   5.617   0.543   3.982  1.2584  0.5474  1.2184
 6315TIP3    H218910   5.608   0.651   3.876 -1.6498 -2.8037 -2.2713
 6316TIP3   OH218911   3.721   5.817   5.518  0.0620 -0.2330  0.1158
 6316TIP3    H118912   3.637   5.783   5.486  0.5445 -0.9554 -0.4214
 6316TIP3    H218913   3.700   5.860   5.601 -1.1061  1.0561 -0.8106
 6317TIP3   OH218914   6.181   5.390   4.374 -0.6023 -0.0691  0.1132
 6317TIP3    H118915   6.209   5.434   4.455 -0.0960 -0.7975  0.3455
 6317TIP3    H218916   6.092   5.362   4.392 -0.6196  0.0983  0.2908
 6318TIP3   OH218917   0.639   0.292   2.068 -0.2129 -0.1480 -0.3538
 6318TIP3    H118918   0.576   0.270   1.999  1.2730  1.7919 -2.4959
 6318TIP3    H218919   0.718   0.242   2.045  0.7896  1.6522 -1.0448
 6319TIP3   OH218920   3.268   1.179   3.461 -0.0158  0.4812 -1.0290
 6319TIP3    H118921   3.292   1.218   3.377 -0.9445  1.3409 -0.9165
 6319TIP3    H218922   3.237   1.252   3.513 -0.6633 -0.2383 -0.3821
 6320TIP3   OH218923   4.022   4.607   0.045 -0.0221  0.2230 -0.2932
 6320TIP3    H118924   4.071   4.601   0.127 -0.7056  0.3454  0.1304
 6320TIP3    H218925   4.007   4.516   0.019  1.0676  0.1738 -0.8300
 6321TIP3   OH218926   4.534   5.297   4.382  0.0246 -0.8011 -0.0560
 6321TIP3    H118927   4.624   5.320   4.402  0.2969 -1.6661 -0.2500
 6321TIP3    H218928   4.529   5.202   4.396 -0.6073 -0.9086 -0.9184
 6322TIP3   OH218929   3.584   0.990   5.344 -0.0552 -0.8807 -0.0282
 6322TIP3    H118930   3.589   1.085   5.343  3.8339 -0.9292  0.4928
 6322TIP3    H218931   3.575   0.968   5.437 -0.4004 -1.0729 -0.1025
 6323TIP3   OH218932   0.836   3.683   1.674 -0.4063  0.5634 -0.1239
 6323TIP3    H118933   0.930   3.679   1.693 -0.4859  0.7473  0.3353
 6323TIP3    H218934   0.828   3.656   1.583  0.0204 -0.1516  0.0441
 6324TIP3   OH218935   0.078   2.979   4.992 -0.2657 -0.4220  1.2028
 6324TIP3    H118936   0.143   2.951   5.057  0.7372 -0.4488  0.2161
 6324TIP3    H218937   0.130   3.000   4.914 -1.6789 -4.2419 -1.0231
 6325TIP3   OH218938   0.952   0.863   1.906 -0.2354  0.0407 -0.6921
 6325TIP3    H118939   0.923   0.907   1.826 -0.8090  1.7296  0.3868
 6325TIP3    H218940   0.875   0.815   1.937 -0.0618 -0.4752 -1.0447
 6326TIP3   OH218941   1.861   5.884   3.667 -0.0790 -0.0354 -0.1959
 6326TIP3    H118942   1.833   5.976   3.665  1.4907  0.5190 -3.4427
 6326TIP3    H218943   1.956   5.889   3.675 -0.0103 -1.4277  0.0288
 6327TIP3   OH218944   5.684   3.458   4.847 -0.1992 -0.9675  0.0615
 6327TIP3    H118945   5.596   3.441   4.813 -0.9637  1.3008  0.7840
 6327TIP3    H218946   5.707   3.377   4.894 -1.0208 -2.3581 -1.8074
 6328TIP3   OH218947   3.599   3.574   4.556  0.1496  0.5978 -0.0045
 6328TIP3    H118948   3.612   3.531   4.640 -1.4170 -1.8792 -0.9362
 6328TIP3    H218949   3.525   3.633   4.571 -0.7308 -0.5237  0.1516
 6329TIP3   OH218950   0.307   5.199   0.729  0.7692  0.1145 -0.2723
 6329TIP3    H118951   0.243   5.178   0.797  0.6739  0.6441 -0.1979
 6329TIP3    H218952   0.305   5.294   0.722  1.0859  0.0917 -0.7215
 6330TIP3   OH218953   4.435   0.946   3.026  0.3428  0.2218  0.3827
 6330TIP3    H118954   4.400   0.937   2.937  0.6511  1.9010  0.0609
 6330TIP3    H218955   4.435   0.856   3.061 -0.5965 -0.3433 -0.9878
 6331TIP3   OH218956   0.827   3.021   2.772 -0.5119  0.1558 -0.3723
 6331TIP3    H118957   0.825   3.044   2.679 -0.2014 -0.7689 -0.6181
 6331TIP3    H218958   0.763   2.950   2.781 -0.5271  0.2249  0.1217
 6332TIP3   OH218959   0.314   0.995   0.035  0.7436  0.0015 -0.2671
 6332TIP3    H118960   0.345   1.074  -0.009 -1.1398  0.1265 -1.4556
 6332TIP3    H218961   0.387   0.933   0.027  1.5418  1.0003 -0.9581
 6333TIP3   OH218962   6.324   4.675   1.341 -0.1827  0.1337 -0.2672
 6333TIP3    H118963   6.384   4.624   1.287 -1.2404 -0.7077 -0.6625
 6333TIP3    H218964   6.337   4.765   1.312  0.6784 -0.0664 -0.5439
 6334TIP3   OH218965   5.892   3.934   0.556  0.2947 -0.9415 -0.2288
 6334TIP3    H118966   5.970   3.988   0.563 -0.2844 -0.0458 -0.6037
 6334TIP3    H218967   5.915   3.854   0.604  2.5012 -1.9615 -2.7469
 6335TIP3   OH218968   3.419   6.043   2.435 -0.3644 -0.1515 -0.3590
 6335TIP3    H118969   3.333   6.055   2.393  0.0924  0.8391 -1.0214
 6335TIP3    H218970   3.420   6.106   2.507  0.5034  1.1452 -1.4649
 6336TIP3   OH218971   2.145   1.907   3.014 -0.3494  0.7445 -0.2882
 6336TIP3    H118972   2.151   1.852   2.935  0.1552  1.3583 -0.6893
 6336TIP3    H218973   2.155   1.846   3.087 -0.2690  0.2424 -0.7137
 6337TIP3   OH218974   3.332   6.289   1.823 -0.1827 -0.4198 -0.6265
 6337TIP3    H118975   3.237   6.294   1.832 -0.2081 -1.8343  0.0021
 6337TIP3    H218976   3.362   6.378   1.843 -1.3059 -0.1193 -0.1845
 6338TIP3   OH218977   1.595   0.683   3.620 -0.2254 -0.6375 -0.5139
 6338TIP3    H118978   1.672   0.666   3.567  0.2294  0.0497 -0.0923
 6338TIP3    H218979   1.610   0.770   3.657 -3.3640  1.9435 -4.3523
 6339TIP3   OH218980   6.913   5.508   3.077 -0.2778 -0.2543  0.0808
 6339TIP3    H118981   7.007   5.524   3.080 -0.5647  1.4819  1.3871
 6339TIP3    H218982   6.905   5.414   3.094  1.1737 -0.1834  1.4728
 6340TIP3   OH218983   0.127   3.220   3.535 -0.3430 -0.1246  0.2694
 6340TIP3    H118984   0.099   3.309   3.554 -0.2497 -0.2054  0.7897
 6340TIP3    H218985   0.057   3.184   3.480 -1.1440 -0.2368  1.3434
 6341TIP3   OH218986   5.385   6.187   2.610 -0.6484 -0.1312  0.0245
 6341TIP3    H118987   5.454   6.189   2.544 -1.2182  0.1761 -0.5708
 6341TIP3    H218988   5.307   6.218   2.565 -0.6354  2.0499  1.3520
 6342TIP3   OH218989   6.851   3.243   2.424  0.5607 -0.7247 -0.2766
 6342TIP3    H118990   6.797   3.307   2.470  0.4147 -1.6703  0.9474
 6342TIP3    H218991   6.907   3.295   2.366  0.4020  0.5016  0.6294
 6343TIP3   OH218992   5.039   6.430   0.989 -0.4241  0.1515 -0.0887
 6343TIP3    H118993   5.129   6.409   0.964  0.4040  3.0490  0.0964
 6343TIP3    H218994   5.042   6.443   1.084 -1.0504  0.1566 -0.0652
 6344TIP3   OH218995   4.823   5.342   5.165  0.6097 -0.0380  0.9298
 6344TIP3    H118996   4.781   5.341   5.079  1.1150 -0.8389  0.6906
 6344TIP3    H218997   4.778   5.273   5.214 -0.4447  1.1382  1.6989
 6345TIP3   OH218998   4.972   2.964   5.148  0.2805 -0.3673 -0.2098
 6345TIP3    H118999   4.914   2.888   5.148  2.5158 -2.2089 -0.8703
 6345TIP3    H219000   5.046   2.937   5.203  0.3866  2.0326  0.9547
 6346TIP3   OH219001   1.166   6.726   5.265  0.1268 -0.2696 -0.4869
 6346TIP3    H119002   1.102   6.744   5.196 -0.4347  0.8110  0.2729
 6346TIP3    H219003   1.232   6.671   5.223  0.3668  1.2216 -2.1958
 6347TIP3   OH219004   1.370   6.449   5.524  0.1407  0.4067  0.4375
 6347TIP3    H119005   1.278   6.454   5.549 -0.6826 -2.4800 -1.4621
 6347TIP3    H219006   1.382   6.519   5.461 -0.8729  0.5521  0.3906
 6348TIP3   OH219007   5.403   3.833   4.100  0.3621 -0.1139 -0.2144
 6348TIP3    H119008   5.442   3.810   4.185  1.5094 -0.8731 -0.9271
 6348TIP3    H219009   5.478   3.854   4.044 -0.4243  1.2430 -0.8132
 6349TIP3   OH219010   0.722   5.530   1.638 -0.0827 -0.2409 -0.0420
 6349TIP3    H119011   0.663   5.489   1.701 -1.4710  0.4508 -0.8523
 6349TIP3    H219012   0.721   5.623   1.662 -0.3600 -0.0243 -0.8637
 6350TIP3   OH219013   6.575   4.426   0.435 -0.1438  0.0718 -0.1541
 6350TIP3    H119014   6.566   4.333   0.456 -0.9746  0.5744  2.0938
 6350TIP3    H219015   6.664   4.449   0.462  0.0526 -0.0739 -0.6855
 6351TIP3   OH219016   0.854   4.095   1.684 -0.4026  0.2931  0.2874
 6351TIP3    H119017   0.898   4.180   1.693 -0.5282  0.3001  0.8753
 6351TIP3    H219018   0.921   4.031   1.709 -0.9082  0.3409  1.8712
 6352TIP3   OH219019   1.446   0.798   0.735 -0.3325  0.0108 -0.4937
 6352TIP3    H119020   1.515   0.811   0.800 -1.1455 -0.6156  0.5365
 6352TIP3    H219021   1.460   0.710   0.701 -1.5120 -0.7621  0.8874
 6353TIP3   OH219022   0.665   4.990   5.508 -0.2115  0.0785 -0.0462
 6353TIP3    H119023   0.691   4.900   5.528  0.1927  0.5192  1.5662
 6353TIP3    H219024   0.732   5.044   5.551  0.0980  1.1616 -1.7701
 6354TIP3   OH219025   5.774   6.514   5.442  0.4041  0.3136  0.4146
 6354TIP3    H119026   5.687   6.491   5.476  0.9758 -1.8091  0.6163
 6354TIP3    H219027   5.797   6.594   5.488 -0.7872  0.0295  1.5759
 6355TIP3   OH219028   3.989   5.253   3.934 -0.3271 -0.1361 -0.5159
 6355TIP3    H119029   4.031   5.179   3.891 -0.7475 -0.7158  0.0517
 6355TIP3    H219030   4.037   5.330   3.902 -0.1870 -0.6048 -1.4650
 6356TIP3   OH219031   5.796   5.345   3.923 -0.4872 -0.8800 -0.0274
 6356TIP3    H119032   5.709   5.347   3.962 -0.7832  0.3060 -0.6860
 6356TIP3    H219033   5.840   5.423   3.958  0.0921 -1.1465 -0.1523
 6357TIP3   OH219034   4.927   5.831   2.067 -0.0928 -0.2565  0.2531
 6357TIP3    H119035   4.926   5.837   2.163  2.6709 -0.7902  0.4031
 6357TIP3    H219036   4.933   5.922   2.038  1.4223 -0.1690  0.7403
 6358TIP3   OH219037   1.145   5.669   0.205  0.0377 -0.0963 -0.0235
 6358TIP3    H119038   1.186   5.611   0.142  1.1214  0.6801 -0.0715
 6358TIP3    H219039   1.159   5.757   0.169 -1.2351  0.2317  0.2271
 6359TIP3   OH219040   2.639   6.632   0.476  0.1845 -0.0095 -0.1968
 6359TIP3    H119041   2.600   6.587   0.551 -2.6468 -0.8896 -2.0393
 6359TIP3    H219042   2.733   6.620   0.487 -0.2593 -2.5701  1.7442
 6360TIP3   OH219043   3.807   6.320   1.294  0.5447 -0.2277 -0.4816
 6360TIP3    H119044   3.796   6.311   1.199  0.9964 -1.4249 -0.4471
 6360TIP3    H219045   3.894   6.283   1.311  1.8814  2.8635  0.0323
 6361TIP3   OH219046   6.173   6.101   3.482  0.2575 -0.0168  0.2935
 6361TIP3    H119047   6.171   6.171   3.417  0.4443 -0.6472 -0.4095
 6361TIP3    H219048   6.163   6.146   3.566  1.4156  0.9578 -0.0598
 6362TIP3   OH219049   1.989   6.027   1.672 -0.1349 -0.3392 -0.4731
 6362TIP3    H119050   2.008   6.001   1.762  0.1734 -1.4413 -0.8451
 6362TIP3    H219051   1.972   6.121   1.678 -3.3079 -0.9080  1.2390
 6363TIP3   OH219052   5.383   3.768   0.608  0.2785  0.3189  0.1970
 6363TIP3    H119053   5.310   3.756   0.546 -0.2200  1.8672  0.4411
 6363TIP3    H219054   5.461   3.773   0.552 -0.1482  1.5441 -0.3245
 6364TIP3   OH219055   1.613   1.173   5.056  0.1032 -0.4634  0.1526
 6364TIP3    H119056   1.698   1.216   5.064  0.0967  0.1074 -2.0704
 6364TIP3    H219057   1.622   1.117   4.978 -0.4994 -3.1061  1.8582
 6365TIP3   OH219058   4.574   6.258   2.102 -0.0594  0.2318 -0.2392
 6365TIP3    H119059   4.612   6.170   2.107 -1.0344 -0.1128  2.0781
 6365TIP3    H219060   4.629   6.312   2.159 -1.2251  0.4078  0.7590
 6366TIP3   OH219061   1.129   0.915   0.299 -0.3694  0.3146  0.3638
 6366TIP3    H119062   1.160   0.892   0.211 -0.2279  0.5290  0.3560
 6366TIP3    H219063   1.042   0.953   0.284 -2.4190 -3.7312  0.6991
 6367TIP3   OH219064   4.291   3.410   4.022  0.1814 -0.0107  0.1878
 6367TIP3    H119065   4.279   3.329   4.071  1.3540 -0.6710 -0.5829
 6367TIP3    H219066   4.344   3.385   3.946 -1.7803  0.9065 -1.6138
 6368TIP3   OH219067   3.169   2.463   5.074  0.1423  0.6126 -0.9336
 6368TIP3    H119068   3.208   2.446   4.988 -0.9746 -0.4938 -1.2511
 6368TIP3    H219069   3.102   2.529   5.057  0.7860  1.3629 -0.6553
 6369TIP3   OH219070   1.466   3.842   5.260  0.1458 -0.2393 -0.2330
 6369TIP3    H119071   1.467   3.927   5.303  0.9104 -0.5566  0.3945
 6369TIP3    H219072   1.545   3.797   5.292  0.4792 -0.6665 -1.6008
 6370TIP3   OH219073   4.298   5.246   2.370 -0.4145  1.2046  0.0720
 6370TIP3    H119074   4.223   5.214   2.421 -0.8236  2.8560  0.5636
 6370TIP3    H219075   4.265   5.325   2.327  0.8722  1.6085 -0.2061
 6371TIP3   OH219076   4.514   5.407   5.514 -0.5237 -0.7861 -0.6050
 6371TIP3    H119077   4.574   5.472   5.550 -0.0288 -0.7534 -1.4595
 6371TIP3    H219078   4.541   5.325   5.556 -0.6339 -0.5844 -0.1273
 6372TIP3   OH219079   0.207   6.640   2.522  0.0309 -0.1312 -0.0886
 6372TIP3    H119080   0.259   6.648   2.442  0.1637 -1.3093 -0.1318
 6372TIP3    H219081   0.132   6.698   2.507  0.4096  0.1989 -0.7705
 6373TIP3   OH219082   0.593   5.964   1.466  0.0898  0.3080 -0.5791
 6373TIP3    H119083   0.527   6.026   1.495  0.3027  0.6057 -0.7196
 6373TIP3    H219084   0.617   5.994   1.378 -1.8718 -1.6459 -1.8781
 6374TIP3   OH219085   5.195   3.489   4.798  0.3704 -0.2434  0.7574
 6374TIP3    H119086   5.109   3.501   4.839 -0.2255 -2.4757  0.2839
 6374TIP3    H219087   5.208   3.569   4.747 -1.5021  0.0835  0.7170
 6375TIP3   OH219088   5.525   1.568   1.727  0.3857 -0.3951 -0.2622
 6375TIP3    H119089   5.467   1.499   1.759 -1.8552  1.8345  0.8440
 6375TIP3    H219090   5.467   1.629   1.682  1.7866  2.0642  1.0260
 6376TIP3   OH219091   4.729   6.184   0.336 -0.0568 -0.3773 -0.5158
 6376TIP3    H119092   4.744   6.142   0.421 -1.2576 -2.2923 -1.1817
 6376TIP3    H219093   4.804   6.158   0.283 -0.3515 -0.9618 -0.6553
 6377TIP3   OH219094   0.166   4.628   4.488  0.2007  0.2232  0.1280
 6377TIP3    H119095   0.143   4.546   4.443  1.0925  0.2587 -0.4122
 6377TIP3    H219096   0.112   4.627   4.567 -0.5990 -0.3622 -0.4041
 6378TIP3   OH219097   3.907   4.687   3.484 -0.4660 -0.4987 -0.5657
 6378TIP3    H119098   3.969   4.725   3.546 -0.9984  1.1635 -1.0037
 6378TIP3    H219099   3.826   4.677   3.534 -0.5239 -0.4012 -0.6397
 6379TIP3   OH219100   6.431   5.412   0.956  0.2098  0.5246  0.1830
 6379TIP3    H119101   6.357   5.472   0.966 -0.0789 -0.0818  2.2602
 6379TIP3    H219102   6.439   5.371   1.042  0.7700 -1.9833 -0.9905
 6380TIP3   OH219103   3.218   0.098   3.350  0.0278 -0.0413  0.6128
 6380TIP3    H119104   3.225   0.030   3.417 -2.9249  0.1345  1.2453
 6380TIP3    H219105   3.215   0.180   3.399  0.4364  0.3045  0.0691
 6381TIP3   OH219106   3.942   2.060   1.273 -0.0748 -0.1860  0.3182
 6381TIP3    H119107   3.998   1.990   1.240 -0.7518 -0.7200  0.3037
 6381TIP3    H219108   3.944   2.048   1.368 -1.7549 -1.4547  0.2306
 6382TIP3   OH219109   3.129   1.798   4.200 -0.3621  0.2281  0.0888
 6382TIP3    H119110   3.133   1.883   4.244  1.0483  1.2278 -1.7717
 6382TIP3    H219111   3.102   1.819   4.111 -0.6142 -1.3758 -0.2375
 6383TIP3   OH219112   0.385   3.864   5.693  0.1026 -0.8644 -0.0247
 6383TIP3    H119113   0.398   3.936   5.755 -0.7569  0.1380 -0.9761
 6383TIP3    H219114   0.463   3.867   5.637 -0.2026 -0.2961 -0.4242
 6384TIP3   OH219115   1.924   3.411   3.118  0.4848  0.3619  0.5925
 6384TIP3    H119116   1.973   3.384   3.197  1.8028  1.7865  0.3097
 6384TIP3    H219117   1.865   3.338   3.101  0.1710 -0.0087  2.8926
 6385TIP3   OH219118   6.809   1.815   4.476 -0.2233  0.3200  0.0704
 6385TIP3    H119119   6.732   1.808   4.420 -1.4819  0.4304  1.6974
 6385TIP3    H219120   6.830   1.724   4.500  1.5879  0.0886 -2.1465
 6386TIP3   OH219121   3.132   5.119   5.334  0.7161  0.3866  0.3661
 6386TIP3    H119122   3.191   5.188   5.366  2.3815 -0.7953  0.0164
 6386TIP3    H219123   3.137   5.125   5.239  0.2528  0.2816  0.3342
 6387TIP3   OH219124   2.376   0.245   1.097 -0.5422 -0.2307  0.0119
 6387TIP3    H119125   2.349   0.337   1.098 -0.9517 -0.3443 -0.5467
 6387TIP3    H219126   2.471   0.249   1.082 -0.5618  0.0961 -0.0373
 6388TIP3   OH219127   0.105   5.819   3.898 -0.2862 -0.1565  0.2236
 6388TIP3    H119128   0.144   5.796   3.983 -1.0900 -0.7197  0.4642
 6388TIP3    H219129   0.175   5.860   3.849  0.3167 -0.2220  1.0098
 6389TIP3   OH219130   6.279   4.387   5.204 -0.7789 -0.4588 -0.3283
 6389TIP3    H119131   6.231   4.357   5.127 -1.1521  0.6680 -0.5495
 6389TIP3    H219132   6.222   4.365   5.278 -1.3776  0.3408 -0.5444
 6390TIP3   OH219133   7.160   0.013   2.444  0.5534 -0.2935  0.1079
 6390TIP3    H119134   7.129  -0.009   2.532 -1.1228  0.4347 -0.2523
 6390TIP3    H219135   7.159   0.109   2.441  3.8698 -0.1318  0.3497
 6391TIP3   OH219136   1.226   5.796   2.346 -0.0896 -0.4882 -0.4008
 6391TIP3    H119137   1.215   5.708   2.381 -0.1854 -0.4422 -0.3154
 6391TIP3    H219138   1.209   5.788   2.252  1.8575 -0.9541 -0.7510
 6392TIP3   OH219139   3.950   2.049   4.047 -0.0864  0.7109 -0.1222
 6392TIP3    H119140   3.979   2.138   4.029  0.0769  1.1101  1.8623
 6392TIP3    H219141   3.944   2.007   3.961  1.0810  2.2383 -0.9902
 6393TIP3   OH219142   4.073   1.852   2.391 -0.0199 -0.1924  0.1358
 6393TIP3    H119143   4.061   1.938   2.431  0.4510  0.3475 -0.8502
 6393TIP3    H219144   4.100   1.796   2.464  1.2977  0.8793  0.5135
 6394TIP3   OH219145   2.076   1.139   4.197  0.0255 -0.1512 -0.0817
 6394TIP3    H119146   2.159   1.180   4.222 -0.1789 -0.4015  1.0460
 6394TIP3    H219147   2.101   1.076   4.130  0.5516  0.7266 -0.7492
 6395TIP3   OH219148   4.358   0.088   0.485 -0.0417 -0.8937 -0.0980
 6395TIP3    H119149   4.350  -0.003   0.457 -1.1918 -1.2071  1.1198
 6395TIP3    H219150   4.356   0.084   0.581  1.2915  0.3158  0.0145
 6396TIP3   OH219151   3.756   3.319   3.143 -0.3269 -0.1426 -0.4491
 6396TIP3    H119152   3.765   3.282   3.055 -3.6371 -0.0469 -0.9287
 6396TIP3    H219153   3.700   3.257   3.189 -2.1714  1.9143  0.2061
 6397TIP3   OH219154   5.300   3.313   2.689  0.2533  0.1709  0.0360
 6397TIP3    H119155   5.221   3.260   2.695  0.7826 -0.5669  0.5426
 6397TIP3    H219156   5.286   3.367   2.611  0.3677 -1.8016 -1.3997
 6398TIP3   OH219157   2.503   4.692   3.522  0.1007  0.0158  0.2599
 6398TIP3    H119158   2.599   4.700   3.519  0.1596 -0.5414  0.5475
 6398TIP3    H219159   2.483   4.629   3.452 -0.1839  1.1367 -0.7024
 6399TIP3   OH219160   5.199   1.036   0.416 -0.7059  0.7949  0.4030
 6399TIP3    H119161   5.209   1.118   0.465 -0.8202  1.2449 -0.2950
 6399TIP3    H219162   5.286   1.020   0.380  0.2509 -1.2802  3.3314
 6400TIP3   OH219163   5.216   5.328   1.185  0.7301  0.1841  0.2027
 6400TIP3    H119164   5.231   5.308   1.278 -3.6148 -0.2355  1.0173
 6400TIP3    H219165   5.250   5.417   1.174  1.2227  0.2925  2.2226
 6401TIP3   OH219166   3.808   5.047   3.372 -0.4233  0.0653  0.0961
 6401TIP3    H119167   3.760   4.981   3.422  0.7901 -0.5462  0.4984
 6401TIP3    H219168   3.887   5.002   3.343  1.2251  1.7248  1.7106
 6402TIP3   OH219169   4.272   2.569   4.365  0.3555  0.6008 -0.4951
 6402TIP3    H119170   4.208   2.634   4.393  0.2855 -0.1307  1.1567
 6402TIP3    H219171   4.290   2.518   4.444  2.0548  0.0142 -1.2223
 6403TIP3   OH219172   5.101   3.331   0.334  0.3656 -0.3623  0.1916
 6403TIP3    H119173   5.058   3.256   0.292  0.1876  0.5390 -1.2776
 6403TIP3    H219174   5.156   3.369   0.266  2.0273 -0.3206  1.5006
 6404TIP3   OH219175   6.266   2.253   5.741 -0.2036  0.2725  0.1628
 6404TIP3    H119176   6.215   2.228   5.664 -0.9138 -0.5710  0.8716
 6404TIP3    H219177   6.238   2.342   5.760  0.8202  0.9177 -1.1966
 6405TIP3   OH219178   2.748   6.666   0.151 -0.0645 -0.0696  0.2281
 6405TIP3    H119179   2.833   6.642   0.186 -0.0434 -0.0855  0.1653
 6405TIP3    H219180   2.738   6.759   0.174  1.2758  0.8192 -2.3383
 6406TIP3   OH219181   6.453   3.503   5.828 -0.0244  1.0304  0.7178
 6406TIP3    H119182   6.534   3.499   5.880  0.6809 -2.6965 -0.3527
 6406TIP3    H219183   6.392   3.446   5.874 -1.5534  2.5173  0.6299
 6407TIP3   OH219184   4.905   3.443   4.912 -0.1300 -0.0220  0.1016
 6407TIP3    H119185   4.894   3.400   4.828 -0.4538  1.0623 -0.4261
 6407TIP3    H219186   4.850   3.521   4.907  0.3805  0.4233  1.0585
 6408TIP3   OH219187   0.327   0.360   4.468  0.1459 -0.1447 -0.4985
 6408TIP3    H119188   0.398   0.332   4.410  0.3394  0.8417 -0.7603
 6408TIP3    H219189   0.352   0.324   4.554  0.7171 -0.2138 -0.6852
 6409TIP3   OH219190   2.829   1.818   0.585  0.8922  0.2093  0.0261
 6409TIP3    H119191   2.767   1.856   0.523  1.7662 -0.3556 -1.2486
 6409TIP3    H219192   2.831   1.724   0.563  2.2234  0.2258 -0.0173
 6410TIP3   OH219193   1.951   0.536   4.885  0.0904 -0.0383 -0.1436
 6410TIP3    H119194   1.908   0.595   4.823  2.4328  2.2102  0.1748
 6410TIP3    H219195   2.006   0.480   4.831 -1.4593 -1.3996 -0.3779
 6411TIP3   OH219196   1.587   3.100   3.862 -0.3175  0.2427  0.1420
 6411TIP3    H119197   1.591   3.153   3.941 -1.2455  0.3773  0.1164
 6411TIP3    H219198   1.551   3.016   3.891  0.0364  0.0345 -0.0130
 6412TIP3   OH219199   0.481   3.835   2.451 -0.2666 -0.2943  0.1529
 6412TIP3    H119200   0.508   3.783   2.375  1.1192  0.2494  0.2402
 6412TIP3    H219201   0.548   3.818   2.517 -0.0714  1.1464  0.3760
 6413TIP3   OH219202   0.716   5.664   4.490  0.4948 -0.1097  0.0529
 6413TIP3    H119203   0.641   5.647   4.432 -0.7190 -1.8927  2.0219
 6413TIP3    H219204   0.706   5.756   4.514  1.4697  0.9380 -3.0319
 6414TIP3   OH219205   2.469   0.910   5.538 -0.2659 -0.5124 -0.1680
 6414TIP3    H119206   2.432   0.908   5.450  0.3109  0.7642 -0.4674
 6414TIP3    H219207   2.451   0.823   5.574 -0.0048 -1.2677 -1.7604
 6415TIP3   OH219208   0.044   3.497   3.490  0.1425  0.0082  0.0640
 6415TIP3    H119209   0.132   3.533   3.501  0.1816 -0.1118  0.1399
 6415TIP3    H219210   0.006   3.549   3.419  0.8659 -1.0124 -1.1274
 6416TIP3   OH219211   6.959   2.281   2.482  0.2652 -0.7058 -0.1896
 6416TIP3    H119212   6.999   2.225   2.548 -0.2254 -1.8240 -0.7968
 6416TIP3    H219213   7.004   2.258   2.400  1.3887  1.1924 -0.1650
 6417TIP3   OH219214   4.610   4.891   3.622  0.2371  0.0280 -0.3492
 6417TIP3    H119215   4.527   4.898   3.670  0.3888 -0.5831  0.0126
 6417TIP3    H219216   4.639   4.802   3.638 -0.8057 -0.9989 -3.3775
 6418TIP3   OH219217   1.022   6.291   5.303 -0.1388 -0.3294 -0.2459
 6418TIP3    H119218   1.015   6.243   5.221 -1.2578 -0.5318 -0.0470
 6418TIP3    H219219   1.015   6.383   5.278  2.1002 -0.2003 -0.6374
 6419TIP3   OH219220   4.448   2.300   1.873 -0.4096 -0.7500  0.0993
 6419TIP3    H119221   4.539   2.285   1.850 -0.1836 -0.7040  0.9066
 6419TIP3    H219222   4.406   2.326   1.791  0.7936  1.4742  0.0898
 6420TIP3   OH219223   0.366   2.682   3.404  0.0663  0.0777  0.2073
 6420TIP3    H119224   0.460   2.700   3.412 -0.1202  0.5848  1.4367
 6420TIP3    H219225   0.325   2.767   3.417 -0.5678 -0.0929 -0.5956
 6421TIP3   OH219226   2.397   6.286   2.014  0.0603 -0.2513 -0.8102
 6421TIP3    H119227   2.471   6.333   1.976  1.7584 -1.1652  1.1898
 6421TIP3    H219228   2.435   6.204   2.046 -2.1323 -1.4131 -1.0092
 6422TIP3   OH219229   1.513   2.658   2.944 -0.2649 -0.5094  0.7516
 6422TIP3    H119230   1.493   2.666   2.851 -0.5898  0.8213  0.9089
 6422TIP3    H219231   1.459   2.726   2.986 -0.1529 -1.1111  1.9105
 6423TIP3   OH219232   1.091   1.222   3.595  0.2995 -0.5921  0.4127
 6423TIP3    H119233   1.187   1.216   3.599  0.4126  0.8229  0.2845
 6423TIP3    H219234   1.069   1.291   3.658 -0.5395 -0.0703 -0.4416
 6424TIP3   OH219235   2.968   1.304   5.762 -0.1365  0.1928 -0.2819
 6424TIP3    H119236   2.988   1.343   5.847 -0.8410 -0.4756  0.1944
 6424TIP3    H219237   3.024   1.352   5.701  0.1930  0.8526  0.5150
 6425TIP3   OH219238   3.579   0.299   4.674 -0.2916  0.2726 -0.0684
 6425TIP3    H119239   3.625   0.379   4.702 -0.1207  0.6402 -1.3196
 6425TIP3    H219240   3.643   0.230   4.683  0.1317  0.5819 -0.6491
 6426TIP3   OH219241   0.671   1.344   5.101 -0.0874  0.2537  0.2624
 6426TIP3    H119242   0.586   1.366   5.137  0.7363 -0.6156  2.9329
 6426TIP3    H219243   0.730   1.412   5.134  0.7902 -0.8584  1.0777
 6427TIP3   OH219244   1.419  -0.012   0.320 -0.2103  0.0938 -0.5309
 6427TIP3    H119245   1.426   0.009   0.413 -0.5952 -0.9237 -0.2604
 6427TIP3    H219246   1.328   0.009   0.297 -0.2967 -0.2630 -0.5183
 6428TIP3   OH219247   6.471   6.309   3.130  0.4582  0.4505  0.1551
 6428TIP3    H119248   6.493   6.329   3.221 -0.2919 -1.3107  0.7569
 6428TIP3    H219249   6.376   6.322   3.125  0.1584 -1.5173  0.2239
 6429TIP3   OH219250   2.183   2.878   4.350  0.0541  0.5872  0.2356
 6429TIP3    H119251   2.241   2.813   4.389  1.3093  1.0362 -0.8152
 6429TIP3    H219252   2.241   2.946   4.318 -1.1124  1.3928 -0.2380
 6430TIP3   OH219253   3.797   4.203   2.421  0.7896  0.1819 -0.1309
 6430TIP3    H119254   3.808   4.173   2.511 -0.0914 -1.2002 -0.4527
 6430TIP3    H219255   3.875   4.255   2.403  0.7487  0.8841  1.5741
 6431TIP3   OH219256   5.917   4.049   3.795  0.2260 -0.2273 -0.1439
 6431TIP3    H119257   5.917   4.058   3.890  0.5992 -0.2057 -0.1459
 6431TIP3    H219258   5.966   3.968   3.779 -0.1456 -0.4219 -0.2979
 6432TIP3   OH219259   6.590   5.558   0.594 -0.1194  0.5164 -0.0733
 6432TIP3    H119260   6.624   5.581   0.681  2.6929  0.9380 -1.1872
 6432TIP3    H219261   6.603   5.636   0.541 -1.5426  0.1782 -0.9760
 6433TIP3   OH219262   6.707   6.212   3.649  1.1456  0.0511 -0.0714
 6433TIP3    H119263   6.625   6.261   3.642  2.5294  2.5394  0.0567
 6433TIP3    H219264   6.685   6.124   3.619 -2.2773 -0.2709  2.7163
 6434TIP3   OH219265   0.101   1.127   1.130  0.1328  0.1845  0.2545
 6434TIP3    H119266   0.060   1.129   1.043 -2.3506 -0.3490  1.3288
 6434TIP3    H219267   0.086   1.038   1.161 -0.4964  0.8391  1.8924
 6435TIP3   OH219268   6.337   5.438   2.159  0.0960  0.2084  0.5237
 6435TIP3    H119269   6.349   5.522   2.204  2.9544 -0.4344  1.1818
 6435TIP3    H219270   6.348   5.372   2.228 -1.8233 -0.7759 -0.0295
 6436TIP3   OH219271   3.105   6.691   2.657 -0.2275  0.7302  0.0864
 6436TIP3    H119272   3.052   6.611   2.651  1.7318 -0.5718 -0.7707
 6436TIP3    H219273   3.116   6.705   2.751  1.2890 -1.4015  0.3094
 6437TIP3   OH219274   5.808   4.347   2.284 -0.1003 -0.2519  0.6535
 6437TIP3    H119275   5.841   4.420   2.337 -0.6132  0.1944  0.3765
 6437TIP3    H219276   5.856   4.353   2.202 -0.5027  0.1040  0.4337
 6438TIP3   OH219277   5.976   0.624   5.689 -0.3476 -0.4428  0.0900
 6438TIP3    H119278   6.017   0.563   5.750 -0.0384 -0.8687 -0.5442
 6438TIP3    H219279   5.899   0.657   5.737  0.5981  0.2295  1.2243
 6439TIP3   OH219280   1.193   6.009   1.303  0.2356 -0.2822  0.0747
 6439TIP3    H119281   1.275   5.963   1.287  0.2215 -0.2639 -0.0543
 6439TIP3    H219282   1.211   6.067   1.376  1.0971  1.5999 -1.5293
 6440TIP3   OH219283   0.208   3.162   5.341  0.5956  0.2330  0.0005
 6440TIP3    H119284   0.113   3.178   5.343  0.7366  1.2547 -0.6404
 6440TIP3    H219285   0.232   3.152   5.433 -0.2254 -0.6786  0.1372
 6441TIP3   OH219286   0.225   2.829   3.750  0.2685  0.2469  0.0191
 6441TIP3    H119287   0.183   2.829   3.835  0.0903 -1.4529 -0.0346
 6441TIP3    H219288   0.163   2.873   3.692 -0.1867  0.2469  0.5054
 6442TIP3   OH219289   5.847   2.865   0.682  0.2705  0.1727  0.2642
 6442TIP3    H119290   5.874   2.923   0.754  0.9944 -0.3817  0.4514
 6442TIP3    H219291   5.902   2.892   0.609  0.4724 -0.1520  0.2975
 6443TIP3   OH219292   4.199   4.688   3.172  0.1137  0.0177 -0.1959
 6443TIP3    H119293   4.137   4.619   3.198  1.0619 -1.1087 -0.8420
 6443TIP3    H219294   4.239   4.717   3.254  0.5200 -1.0096 -0.0205
 6444TIP3   OH219295   5.825   4.908   2.670 -0.6102  0.3880  0.4617
 6444TIP3    H119296   5.903   4.913   2.615 -0.2017 -1.3562  0.8051
 6444TIP3    H219297   5.753   4.895   2.609 -0.2505 -0.8229  0.2666
 6445TIP3   OH219298   3.611   0.369   4.417 -1.1238  0.4394  0.3262
 6445TIP3    H119299   3.595   0.327   4.501  1.2415 -3.1566 -0.7720
 6445TIP3    H219300   3.687   0.424   4.432  0.6577 -1.8378  0.2599
 6446TIP3   OH219301   2.278   1.822   0.445  0.2383  0.7472 -0.4262
 6446TIP3    H119302   2.272   1.894   0.382 -0.9001  0.9220 -0.1276
 6446TIP3    H219303   2.372   1.811   0.459  0.4465  1.8153 -0.8815
 6447TIP3   OH219304   6.549   5.329   1.620  0.2460  0.5743 -0.3125
 6447TIP3    H119305   6.567   5.240   1.590 -0.6851 -0.2388  1.3876
 6447TIP3    H219306   6.619   5.349   1.682 -0.3965  0.4007  0.4845
 6448TIP3   OH219307   3.471   4.991   0.525 -0.1250  0.6264 -0.3028
 6448TIP3    H119308   3.416   4.996   0.446 -3.8805 -1.1874  1.9349
 6448TIP3    H219309   3.473   5.081   0.558 -0.7222  0.9501 -1.0997
 6449TIP3   OH219310   2.954   3.061   3.982  0.6933 -0.0245 -0.0522
 6449TIP3    H119311   3.050   3.063   3.984  0.7986  3.2185 -2.0461
 6449TIP3    H219312   2.932   3.051   3.889 -0.9246 -0.4563  0.3385
 6450TIP3   OH219313   5.628   2.814   3.878 -1.0216 -0.4588 -0.0487
 6450TIP3    H119314   5.672   2.738   3.839  0.1767  0.1795  0.0022
 6450TIP3    H219315   5.551   2.778   3.922 -0.1976 -1.7195  0.4083
 6451TIP3   OH219316   3.142   5.639   0.802 -0.5622 -0.1013 -0.1163
 6451TIP3    H119317   3.209   5.678   0.746 -1.1676 -0.9307 -1.4787
 6451TIP3    H219318   3.067   5.697   0.794 -0.1897  0.5529  1.0044
 6452TIP3   OH219319   2.017   4.885   1.254 -0.0753  0.1161 -0.1545
 6452TIP3    H119320   1.966   4.965   1.254  0.5851  0.5498 -0.1619
 6452TIP3    H219321   2.020   4.857   1.345 -0.1773  0.1887 -0.1298
 6453TIP3   OH219322   5.712   0.510   1.236  0.0680 -0.1959  0.2332
 6453TIP3    H119323   5.658   0.457   1.177  0.4830  0.1067 -0.4296
 6453TIP3    H219324   5.695   0.474   1.323 -2.1499  0.6857  0.2220
 6454TIP3   OH219325   1.685   6.461   4.054  0.0805 -0.1346 -0.2730
 6454TIP3    H119326   1.662   6.406   4.129 -3.3440 -2.2532 -2.6030
 6454TIP3    H219327   1.696   6.400   3.981  0.5835  2.0128 -2.1201
 6455TIP3   OH219328   6.964   3.901   5.335 -0.4951  0.2910 -0.0091
 6455TIP3    H119329   6.890   3.962   5.331  0.7679  1.8418 -1.2985
 6455TIP3    H219330   6.960   3.853   5.253 -1.3136 -1.2191  0.8791
 6456TIP3   OH219331   4.683   0.772   1.556  0.6174 -0.5508  0.3412
 6456TIP3    H119332   4.602   0.722   1.565  0.2080  0.1114  0.4465
 6456TIP3    H219333   4.664   0.856   1.599  0.6561  0.4163 -1.4480
 6457TIP3   OH219334   1.347   4.878   4.294  0.2336  0.1758  0.3646
 6457TIP3    H119335   1.301   4.961   4.288  0.9887  0.6577  1.1237
 6457TIP3    H219336   1.323   4.843   4.381  0.1346 -0.2691  0.1627
 6458TIP3   OH219337   3.170   5.852   4.323  0.3550  0.4832  0.1807
 6458TIP3    H119338   3.236   5.867   4.256  0.3997  0.5812  0.2459
 6458TIP3    H219339   3.178   5.759   4.344  1.1278  0.6831  0.8685
 6459TIP3   OH219340   2.383   4.324   5.011 -0.0251  0.4859 -0.4759
 6459TIP3    H119341   2.291   4.297   5.008 -0.4248  1.3465  1.8935
 6459TIP3    H219342   2.431   4.251   4.973 -1.5837 -0.5578 -0.5193
 6460TIP3   OH219343   4.427   6.623   0.971 -0.3142  0.0153 -0.2074
 6460TIP3    H119344   4.397   6.687   1.036  1.2897  1.9096 -1.2242
 6460TIP3    H219345   4.477   6.560   1.022 -2.4470 -0.8757  0.9111
 6461TIP3   OH219346   2.194   2.791   2.184  0.7388  0.2679  0.3492
 6461TIP3    H119347   2.275   2.835   2.157 -0.6034  3.1284  0.6885
 6461TIP3    H219348   2.182   2.817   2.275 -1.4762  1.3895 -0.2150
 6462TIP3   OH219349   2.990   3.175   1.185  0.1120 -0.2909 -0.6860
 6462TIP3    H119350   3.049   3.145   1.115 -0.6765 -1.8715 -0.7182
 6462TIP3    H219351   2.930   3.102   1.198  0.2569 -0.0564  1.6884
 6463TIP3   OH219352   1.307   4.308   3.815  0.4712 -0.2891  0.0899
 6463TIP3    H119353   1.357   4.351   3.886 -1.6043  1.1446  0.7783
 6463TIP3    H219354   1.329   4.359   3.737  0.4586  0.0371  0.2949
 6464TIP3   OH219355   1.185   6.601   3.482  0.3926  0.1353  0.5792
 6464TIP3    H119356   1.148   6.681   3.518  0.6701 -0.0552  1.3109
 6464TIP3    H219357   1.231   6.561   3.556  2.7046  0.7196 -0.4618
 6465TIP3   OH219358   2.820   1.883   1.594  0.2048 -0.0399 -0.3287
 6465TIP3    H119359   2.745   1.823   1.602 -1.4834  1.8913 -0.7572
 6465TIP3    H219360   2.884   1.849   1.655 -0.6302 -2.3219 -0.6186
 6466TIP3   OH219361   6.176   2.898   2.690 -0.0605 -0.3625  0.2452
 6466TIP3    H119362   6.185   2.954   2.767 -0.0068 -3.6810  2.8919
 6466TIP3    H219363   6.263   2.896   2.650  0.0109  1.0719  0.2862
 6467TIP3   OH219364   4.206   4.349   3.652  0.6892  0.1663 -0.1579
 6467TIP3    H119365   4.290   4.395   3.652  1.3825 -1.0469 -1.4724
 6467TIP3    H219366   4.212   4.288   3.726  1.7306 -1.1842 -1.2998
 6468TIP3   OH219367   5.960   0.654   1.282 -0.0232  0.2211  0.7066
 6468TIP3    H119368   5.900   0.589   1.246  0.1855  1.2057 -1.6026
 6468TIP3    H219369   6.039   0.604   1.304 -0.6842 -0.6441  1.1893
 6469TIP3   OH219370   1.915   0.585   1.388  0.4704 -0.2979 -0.0598
 6469TIP3    H119371   1.983   0.578   1.454  0.6974 -0.7012 -0.3276
 6469TIP3    H219372   1.864   0.662   1.413  0.5806 -0.4212  0.5539
 6470TIP3   OH219373   2.626   1.034   2.414  0.2080  0.2051  0.1750
 6470TIP3    H119374   2.706   0.982   2.405 -0.6477 -0.9016 -1.8492
 6470TIP3    H219375   2.623   1.086   2.333 -2.0188 -1.2072 -0.7569
 6471TIP3   OH219376   3.561   2.951   5.120  0.1893  0.3078  0.0667
 6471TIP3    H119377   3.467   2.955   5.102 -0.0812  0.5816  1.4296
 6471TIP3    H219378   3.582   2.858   5.120  0.3988  0.2864 -2.3906
 6472TIP3   OH219379   4.524   4.384   1.508 -0.6164  0.1931  0.3253
 6472TIP3    H119380   4.577   4.374   1.429 -0.3450  1.9621  0.2528
 6472TIP3    H219381   4.439   4.414   1.476 -0.6699  0.4184  0.6773
 6473TIP3   OH219382   4.964   2.118   3.198 -0.1004  0.0170 -0.0625
 6473TIP3    H119383   4.967   2.131   3.103 -0.6916 -1.1683 -0.2578
 6473TIP3    H219384   4.871   2.128   3.220 -0.2575 -1.6135  0.0926
 6474TIP3   OH219385   2.578   1.841   3.416 -0.5550 -0.2512  0.7096
 6474TIP3    H119386   2.664   1.801   3.428  0.2153  0.6999 -1.2069
 6474TIP3    H219387   2.591   1.934   3.435 -1.1786 -0.1195  0.5426
 6475TIP3   OH219388   2.040   0.844   1.579 -0.0552  0.2195  0.1009
 6475TIP3    H119389   2.091   0.822   1.501  0.5131  0.5863  0.3703
 6475TIP3    H219390   2.081   0.923   1.613 -0.4608  0.2024  0.6323
 6476TIP3   OH219391   1.081   1.499   5.751  0.0006  0.0060 -0.4503
 6476TIP3    H119392   1.114   1.415   5.720  0.7145 -1.5277  3.7359
 6476TIP3    H219393   1.148   1.529   5.813 -2.0337  1.7082  1.0669
 6477TIP3   OH219394   4.315   2.409   4.586 -0.1829 -0.1834  0.1710
 6477TIP3    H119395   4.253   2.350   4.543  0.0496 -1.1638  1.1379
 6477TIP3    H219396   4.297   2.399   4.680  2.3363 -1.5879  0.6029
 6478TIP3   OH219397   3.092   4.128   1.340 -0.0350 -0.5336  0.6208
 6478TIP3    H119398   3.140   4.207   1.312  0.5042 -0.7305  0.9726
 6478TIP3    H219399   3.149   4.055   1.314 -0.5239 -0.8144  0.3145
 6479TIP3   OH219400   5.176   2.608   3.424  0.4040 -0.2070 -0.0321
 6479TIP3    H119401   5.188   2.639   3.514 -1.4243 -2.3238  1.0306
 6479TIP3    H219402   5.163   2.514   3.433 -2.7960 -0.1027 -2.1718
 6480TIP3   OH219403   6.805   5.378   1.677  0.2369 -0.5071 -0.0219
 6480TIP3    H119404   6.867   5.307   1.661  0.3970 -0.2201 -0.7214
 6480TIP3    H219405   6.801   5.386   1.772  3.4560  1.3546  0.0898
 6481TIP3   OH219406   6.003   0.536   2.244 -0.0678 -0.2329 -0.1992
 6481TIP3    H119407   6.005   0.611   2.186 -0.7943  0.4127  0.5841
 6481TIP3    H219408   5.977   0.572   2.329 -0.5715 -1.3879  0.1565
 6482TIP3   OH219409   0.614   1.569   4.189 -0.7039 -0.1895 -0.1023
 6482TIP3    H119410   0.610   1.516   4.109  1.5953  0.1923 -0.5355
 6482TIP3    H219411   0.637   1.657   4.159 -0.6332  0.1476  0.9044
 6483TIP3   OH219412   5.973   2.926   0.431 -0.5834  0.2206  0.4678
 6483TIP3    H119413   5.900   2.919   0.369  0.0628 -0.5400 -0.2373
 6483TIP3    H219414   5.967   3.015   0.466 -1.9464  0.1105  0.5564
 6484TIP3   OH219415   7.096   2.720   4.373 -0.0377  0.1205  0.2552
 6484TIP3    H119416   7.090   2.780   4.447 -0.5709 -0.4756  0.6896
 6484TIP3    H219417   7.179   2.744   4.331 -1.5476  3.2213 -1.3628
 6485TIP3   OH219418   2.685   3.369   5.437 -0.1539 -0.2771 -0.1101
 6485TIP3    H119419   2.709   3.347   5.527 -0.9410 -2.4174 -0.3453
 6485TIP3    H219420   2.746   3.438   5.411  1.4233 -1.0448  1.3850
 6486TIP3   OH219421   2.235   4.798   3.483  0.4604 -0.1657  0.1929
 6486TIP3    H119422   2.325   4.775   3.509 -0.0785 -3.2081 -0.2309
 6486TIP3    H219423   2.217   4.742   3.408 -0.5551  3.1589 -2.2747
 6487TIP3   OH219424   2.654   0.442   0.093 -0.0445  0.0730  0.5038
 6487TIP3    H119425   2.687   0.442   0.183 -0.6923  0.7167  0.7482
 6487TIP3    H219426   2.618   0.529   0.081 -0.1628 -0.0842 -0.3149
 6488TIP3   OH219427   1.433   4.684   0.958 -0.0283 -0.3763  0.0833
 6488TIP3    H119428   1.485   4.606   0.979  0.8113 -0.1757 -1.1317
 6488TIP3    H219429   1.397   4.666   0.871 -1.2207 -0.0955  0.4935
 6489TIP3   OH219430   6.308   2.808   1.433  0.6559  0.1921  0.8552
 6489TIP3    H119431   6.240   2.848   1.379  1.0711 -1.5853 -1.1107
 6489TIP3    H219432   6.291   2.841   1.522 -0.8920  2.1494 -0.0948
 6490TIP3   OH219433   5.995   0.759   2.089  0.4272  0.6903  0.8701
 6490TIP3    H119434   6.031   0.830   2.036  0.5527 -1.0505 -1.5206
 6490TIP3    H219435   5.905   0.786   2.107  0.5750  1.6067  0.2814
 6491TIP3   OH219436   1.703   3.604   3.813  0.7645  0.5213  0.0100
 6491TIP3    H119437   1.797   3.623   3.806  1.2674 -1.6085  0.2713
 6491TIP3    H219438   1.690   3.526   3.759 -1.4890  2.4008 -2.4357
 6492TIP3   OH219439   3.303   0.904   5.843  0.2557  0.9387  0.0882
 6492TIP3    H119440   3.348   0.928   5.925  0.9259  2.3817 -0.6599
 6492TIP3    H219441   3.366   0.851   5.795  0.4110  1.2931 -0.1026
 6493TIP3   OH219442   5.092   3.026   3.197 -0.1885  0.2244  0.1658
 6493TIP3    H119443   5.027   2.956   3.204  0.8220 -0.7553  0.1571
 6493TIP3    H219444   5.043   3.103   3.167 -1.5897 -0.0747  1.6174
 6494TIP3   OH219445   0.339   4.494   3.269 -0.5217 -0.2979 -0.2783
 6494TIP3    H119446   0.268   4.559   3.266 -1.2823 -1.1119 -0.5428
 6494TIP3    H219447   0.357   4.482   3.362 -0.6692 -0.0078 -0.2124
 6495TIP3   OH219448   4.296   6.323   5.025  0.3725 -0.2405 -0.2368
 6495TIP3    H119449   4.200   6.321   5.026  0.3034 -1.2051 -2.3748
 6495TIP3    H219450   4.320   6.260   4.957  2.5248  0.4239 -0.1628
 6496TIP3   OH219451   6.366   3.972   4.458 -0.3270  0.4430 -0.4640
 6496TIP3    H119452   6.373   4.025   4.379  0.5321 -0.7537 -1.2071
 6496TIP3    H219453   6.435   4.005   4.515  0.4102 -0.0720 -1.0474
 6497TIP3   OH219454   3.104   4.568   0.324  0.6062 -0.4515  0.3207
 6497TIP3    H119455   3.173   4.504   0.340  2.1807  0.9767 -0.4647
 6497TIP3    H219456   3.115   4.633   0.394 -0.0350 -0.2961  0.2817
 6498TIP3   OH219457   6.624   1.189   3.149  0.2924 -0.3206  0.7637
 6498TIP3    H119458   6.666   1.238   3.077  0.0813 -1.0335  0.1381
 6498TIP3    H219459   6.569   1.124   3.104 -0.1555 -0.5099  1.5800
 6499TIP3   OH219460   4.903   1.368   2.032 -0.5867 -0.5334  0.7178
 6499TIP3    H119461   4.930   1.277   2.036  0.3608 -0.2883  0.2691
 6499TIP3    H219462   4.984   1.418   2.046 -1.0979  0.2410  1.0376
 6500TIP3   OH219463  -0.002   5.941   2.609  0.2350 -0.0824 -0.0945
 6500TIP3    H119464   0.054   5.971   2.681 -1.1735 -2.5488  2.2145
 6500TIP3    H219465   0.019   5.848   2.599  0.7718  0.2831 -3.3622
 6501TIP3   OH219466   3.772   1.660   5.223 -0.2184 -0.0313  0.4311
 6501TIP3    H119467   3.775   1.713   5.143  3.1023 -2.5555 -1.3465
 6501TIP3    H219468   3.818   1.713   5.288  0.9577  0.2768 -0.6195
 6502TIP3   OH219469   4.624   0.437   1.271  0.0242  0.7183  0.2400
 6502TIP3    H119470   4.565   0.505   1.240 -0.2161 -0.3975 -1.9255
 6502TIP3    H219471   4.694   0.485   1.316 -0.6246  2.3079 -0.3576
 6503TIP3   OH219472   4.796   5.730   5.113  0.3651  0.2847 -0.4661
 6503TIP3    H119473   4.796   5.732   5.209  2.0194 -1.9401 -0.3329
 6503TIP3    H219474   4.865   5.791   5.088  1.2825 -0.5650 -0.0983
 6504TIP3   OH219475   6.102   2.742   4.135 -0.1498 -0.2027  0.0421
 6504TIP3    H119476   6.076   2.724   4.225 -0.8099 -2.7092 -0.5719
 6504TIP3    H219477   6.186   2.699   4.124  0.2323  0.6177 -0.3854
 6505TIP3   OH219478   5.816   3.912   1.250  0.6289  0.2956 -0.1599
 6505TIP3    H119479   5.857   3.831   1.218 -0.6574 -0.1731 -0.7052
 6505TIP3    H219480   5.771   3.948   1.173 -3.1765 -1.2390  1.0984
 6506TIP3   OH219481   2.543   1.761   4.548  0.1015  0.3592 -0.3639
 6506TIP3    H119482   2.583   1.711   4.619  0.1167  0.5566 -0.2305
 6506TIP3    H219483   2.567   1.714   4.468  0.0880  0.1381 -0.2384
 6507TIP3   OH219484   3.117   4.550   4.080  0.1083  0.7242  0.9535
 6507TIP3    H119485   3.089   4.461   4.099  1.1339  0.3892  0.9821
 6507TIP3    H219486   3.212   4.549   4.094  0.5766  1.1100 -1.6400
 6508TIP3   OH219487   5.786   4.483   1.172  0.2030  0.2166 -0.0292
 6508TIP3    H119488   5.745   4.432   1.103  0.6781  0.7914 -0.7484
 6508TIP3    H219489   5.819   4.418   1.234 -2.4596 -0.2683  1.0074
 6509TIP3   OH219490   0.891   3.004   1.343  0.7058  0.2794 -0.0154
 6509TIP3    H119491   0.843   3.003   1.426  1.9948 -0.4984  0.7542
 6509TIP3    H219492   0.880   2.917   1.307  0.0523  0.6514 -0.7352
 6510TIP3   OH219493   3.730   2.595   1.314 -0.2216 -0.2094  0.3036
 6510TIP3    H119494   3.751   2.629   1.401 -2.5195 -0.0022  0.8499
 6510TIP3    H219495   3.765   2.506   1.314  1.6164  0.4578  0.6237
 6511TIP3   OH219496   6.126   1.496   4.476 -0.4723 -0.0905  0.2036
 6511TIP3    H119497   6.102   1.570   4.420 -1.3048 -1.7158 -1.6704
 6511TIP3    H219498   6.062   1.499   4.547 -0.8916  0.6014 -0.1870
 6512TIP3   OH219499   0.451   2.913   1.492 -0.3218  0.2509  0.0254
 6512TIP3    H119500   0.487   2.895   1.405  1.5820  3.0479  0.0981
 6512TIP3    H219501   0.423   3.005   1.487  1.0766  0.9091  2.6847
 6513TIP3   OH219502   7.113   5.588   0.167 -0.1237 -0.1573  0.0334
 6513TIP3    H119503   7.082   5.678   0.163 -0.2480 -0.1668  0.6424
 6513TIP3    H219504   7.208   5.594   0.169 -0.1107 -0.0737 -0.6120
 6514TIP3   OH219505   3.546   4.266   2.581 -0.1739  0.3089 -0.1001
 6514TIP3    H119506   3.460   4.308   2.578 -0.8829 -1.1373 -0.5836
 6514TIP3    H219507   3.564   4.256   2.675 -0.7134  0.2626  0.0017
 6515TIP3   OH219508   6.251   4.646   2.152  0.5151 -0.3306  0.3913
 6515TIP3    H119509   6.326   4.596   2.185  0.1349 -1.3782 -0.3235
 6515TIP3    H219510   6.187   4.581   2.125 -0.0500  0.5311 -0.4334
 6516TIP3   OH219511   7.023   2.112   1.609 -0.4148 -0.0644 -0.2621
 6516TIP3    H119512   7.036   2.206   1.620 -1.1063  0.0005  0.0683
 6516TIP3    H219513   6.955   2.089   1.672 -1.6745 -0.4040 -1.6853
 6517TIP3   OH219514   1.181   0.223   2.988  0.3007 -0.3461  0.0024
 6517TIP3    H119515   1.116   0.190   2.926  2.4072 -2.9888 -0.9851
 6517TIP3    H219516   1.147   0.197   3.074 -0.5309 -0.5849 -0.3805
 6518TIP3   OH219517   3.576   1.443   2.480  0.2237  0.4621  0.2817
 6518TIP3    H119518   3.503   1.423   2.539  2.2304 -1.0550  2.4065
 6518TIP3    H219519   3.612   1.525   2.514  1.7767 -0.7353  1.7260
 6519TIP3   OH219520   3.866   5.162   2.873 -0.2067  0.4420  0.2835
 6519TIP3    H119521   3.891   5.255   2.874 -0.5935  0.5569  1.5394
 6519TIP3    H219522   3.946   5.116   2.899  0.3269  0.2944 -1.4838
 6520TIP3   OH219523   2.912   0.497   5.117 -0.2496 -0.0591  0.4588
 6520TIP3    H119524   2.847   0.558   5.152  0.3949 -0.7748  3.1094
 6520TIP3    H219525   2.996   0.539   5.135  0.1366  0.2851 -1.8205
 6521TIP3   OH219526   5.905   6.424   1.590  1.0000  0.0585 -0.0263
 6521TIP3    H119527   5.884   6.512   1.620  2.2703  1.2596 -2.4017
 6521TIP3    H219528   5.825   6.394   1.546  0.8967  0.4715 -0.1286
 6522TIP3   OH219529   0.205   5.405   1.691  0.1626 -0.2923 -0.2264
 6522TIP3    H119530   0.180   5.417   1.782 -0.7036  1.2203 -0.6278
 6522TIP3    H219531   0.280   5.463   1.679  1.4161 -1.7986 -0.0709
 6523TIP3   OH219532   4.648   1.489   5.693  0.2298 -0.2442  0.6943
 6523TIP3    H119533   4.676   1.513   5.604  0.5008  0.3246  0.9291
 6523TIP3    H219534   4.553   1.503   5.692  0.2590 -0.0394  0.5486
 6524TIP3   OH219535   6.364   5.885   1.855 -0.2899 -0.0111  0.0338
 6524TIP3    H119536   6.437   5.861   1.797  0.9760  1.2013  1.0510
 6524TIP3    H219537   6.322   5.959   1.811  0.6431  0.8814  0.5982
 6525TIP3   OH219538   2.481   1.957   0.623 -0.0163  0.6570  0.4538
 6525TIP3    H119539   2.411   2.009   0.663 -0.5906 -0.3728  0.8213
 6525TIP3    H219540   2.547   2.022   0.596 -1.7821  1.8314 -1.3387
 6526TIP3   OH219541   2.104   0.754   1.287  0.0140  0.3828  0.3889
 6526TIP3    H119542   2.018   0.712   1.285 -0.3987  1.1679  1.4151
 6526TIP3    H219543   2.161   0.693   1.239 -1.0694 -0.2095 -0.1786
 6527TIP3   OH219544   1.930   3.487   0.250 -0.2059  0.0109 -0.0145
 6527TIP3    H119545   1.904   3.476   0.342  0.6764 -0.3961  0.1990
 6527TIP3    H219546   1.982   3.409   0.231  0.8306  0.7818 -0.4188
 6528TIP3   OH219547   0.608   1.773   0.389 -0.2581  0.3181  0.0141
 6528TIP3    H119548   0.577   1.708   0.453 -0.8976  1.1160  0.5281
 6528TIP3    H219549   0.703   1.762   0.389 -0.1574  0.7932  1.6889
 6529TIP3   OH219550   3.993   6.305   2.427  0.1755 -0.1896 -0.7584
 6529TIP3    H119551   3.993   6.265   2.340 -0.5418 -1.4834 -0.1990
 6529TIP3    H219552   4.086   6.318   2.447  0.3802 -0.5989 -1.4068
 6530TIP3   OH219553   6.910   1.103   1.678  0.5341  0.5006 -0.6399
 6530TIP3    H119554   6.890   1.126   1.769 -0.6996  0.2950 -0.8417
 6530TIP3    H219555   6.984   1.043   1.685 -0.6156 -0.8659  0.3729
 6531TIP3   OH219556   1.270   2.636   3.334 -0.2185 -0.5009 -0.0986
 6531TIP3    H119557   1.219   2.636   3.253  0.6610 -3.9019 -0.8464
 6531TIP3    H219558   1.234   2.562   3.384 -0.9386  1.6696  2.8647
 6532TIP3   OH219559   3.077   2.388   3.287  0.6384 -0.6209 -0.4685
 6532TIP3    H119560   3.157   2.374   3.236  1.5235 -0.3091  0.7929
 6532TIP3    H219561   3.008   2.390   3.221  1.8407  0.7132 -1.7686
 6533TIP3   OH219562   1.837   2.150   0.136 -0.2930 -0.1003 -0.5621
 6533TIP3    H119563   1.932   2.160   0.128 -0.3214  1.6725  0.6438
 6533TIP3    H219564   1.817   2.068   0.091  1.7566 -0.3265 -1.1487
 6534TIP3   OH219565   0.728   2.712   5.809 -0.7467 -0.2978 -0.7073
 6534TIP3    H119566   0.712   2.670   5.725 -0.8045  0.3526 -1.0281
 6534TIP3    H219567   0.819   2.741   5.804 -0.0594 -2.1412  0.3005
 6535TIP3   OH219568   0.839   3.604   5.712  0.3100 -0.4841  0.3904
 6535TIP3    H119569   0.761   3.651   5.682  0.7404 -1.5367 -2.8458
 6535TIP3    H219570   0.838   3.613   5.807 -2.3685  1.6430  0.2854
 6536TIP3   OH219571   0.648   6.394   5.589  0.2829 -0.3421  0.2390
 6536TIP3    H119572   0.703   6.465   5.559 -0.0088 -0.2495 -0.0898
 6536TIP3    H219573   0.624   6.346   5.509 -0.3882 -0.1776  0.3325
 6537TIP3   OH219574   4.885   0.792   2.485  0.1940 -0.0917 -0.6063
 6537TIP3    H119575   4.960   0.795   2.544 -0.5359  0.3350  0.3327
 6537TIP3    H219576   4.874   0.700   2.464  0.6240 -0.2161 -0.2861
 6538TIP3   OH219577   3.647   2.263   0.805  0.3103  0.4623 -0.2075
 6538TIP3    H119578   3.707   2.325   0.846 -0.2990  2.4960 -2.2050
 6538TIP3    H219579   3.691   2.178   0.814  1.6714  1.3015  1.6872
 6539TIP3   OH219580   5.483   5.332   1.933 -0.3497 -0.1800  0.2998
 6539TIP3    H119581   5.391   5.341   1.956 -0.2667  2.6723 -0.2070
 6539TIP3    H219582   5.513   5.421   1.914  1.9821 -1.2332 -1.5779
 6540TIP3   OH219583   2.343   6.007   3.548 -0.0006  0.3549  0.3027
 6540TIP3    H119584   2.429   5.999   3.507  0.6391 -3.0530  1.9715
 6540TIP3    H219585   2.362   6.035   3.638 -0.6359 -0.2973  0.6472
 6541TIP3   OH219586   2.661   4.566   2.625 -0.2651  0.1055 -0.6724
 6541TIP3    H119587   2.645   4.499   2.692  0.1764  0.0304 -0.6391
 6541TIP3    H219588   2.757   4.571   2.618 -0.2834  0.8829 -0.5160
 6542TIP3   OH219589   4.022   4.341   5.072 -0.2026  0.2979  0.2573
 6542TIP3    H119590   3.935   4.336   5.111 -0.0846  0.5090  0.5591
 6542TIP3    H219591   4.067   4.408   5.124  0.0228  0.4463 -0.1258
 6543TIP3   OH219592   2.893   6.015   1.185 -0.5588 -0.2580  0.2320
 6543TIP3    H119593   2.913   5.937   1.134  2.4323 -0.6159  1.7446
 6543TIP3    H219594   2.843   5.983   1.260 -0.0085 -0.6144  0.4488
 6544TIP3   OH219595   4.294   6.114   0.613 -0.0379  0.2101  1.0229
 6544TIP3    H119596   4.359   6.057   0.654  0.7966  0.2030 -0.2484
 6544TIP3    H219597   4.343   6.163   0.547 -1.2948  0.2920  0.1160
 6545TIP3   OH219598   7.048   3.502   4.062 -0.0395 -0.1455 -0.2033
 6545TIP3    H119599   6.983   3.438   4.032  0.6621 -1.8792  1.7248
 6545TIP3    H219600   7.132   3.457   4.050  0.4243  0.0634  1.9086
 6546TIP3   OH219601   3.925   1.816   0.212  0.1347  0.6688  0.1625
 6546TIP3    H119602   3.999   1.867   0.181 -0.8123  2.2315  0.3459
 6546TIP3    H219603   3.863   1.816   0.139  0.4015 -0.8409 -0.0855
 6547TIP3   OH219604   5.305   2.244   2.954  0.0153  0.5972  0.0990
 6547TIP3    H119605   5.350   2.167   2.988 -1.8238 -0.6681 -0.2137
 6547TIP3    H219606   5.371   2.288   2.899  1.4816 -0.0184  1.3117
 6548TIP3   OH219607   2.484   6.431   0.982  0.1395  0.2902  0.0471
 6548TIP3    H119608   2.481   6.417   1.077  1.8202 -0.5374  0.0100
 6548TIP3    H219609   2.449   6.349   0.946  0.0085  0.3904 -0.0508
 6549TIP3   OH219610   0.047   6.217   5.855  0.2770  0.3733 -0.1022
 6549TIP3    H119611   0.045   6.193   5.762 -0.3021  2.0990 -0.5776
 6549TIP3    H219612   0.080   6.307   5.855 -1.5477  1.1103  1.1759
 6550TIP3   OH219613   6.022   2.357   4.317  0.8695  0.3123 -0.2890
 6550TIP3    H119614   6.071   2.436   4.338 -2.3294  1.9446  1.8227
 6550TIP3    H219615   6.032   2.301   4.394 -0.1789  0.5205  0.0206
 6551TIP3   OH219616   2.690   5.635   4.590  0.5175  0.2661  0.0668
 6551TIP3    H119617   2.732   5.664   4.671  1.2781 -1.1286  0.2069
 6551TIP3    H219618   2.669   5.543   4.605  0.9623 -0.1126 -1.4259
 6552TIP3   OH219619   2.209   3.881   1.404 -0.0092  0.1315 -0.0683
 6552TIP3    H119620   2.275   3.827   1.360 -1.1610 -0.7561 -0.7872
 6552TIP3    H219621   2.165   3.821   1.465 -0.6872  0.4860 -0.1912
 6553TIP3   OH219622   1.681   0.829   5.275  0.0996 -0.0153  0.4401
 6553TIP3    H119623   1.600   0.858   5.235 -1.1393 -2.1219  1.2683
 6553TIP3    H219624   1.655   0.764   5.340  2.2652  1.0784  2.5629
 6554TIP3   OH219625   6.890   4.681   2.708  0.4901  0.3420 -0.3535
 6554TIP3    H119626   6.944   4.748   2.666  1.2985 -0.5988 -0.8393
 6554TIP3    H219627   6.941   4.652   2.783 -0.8102  1.7829  1.1769
 6555TIP3   OH219628   5.475   1.647   4.671 -0.2683 -0.1286 -0.4680
 6555TIP3    H119629   5.525   1.721   4.637  1.3429 -0.2532  1.4745
 6555TIP3    H219630   5.539   1.576   4.679 -1.2158 -0.9471  0.1211
 6556TIP3   OH219631   1.021   5.268   4.154 -0.6041 -0.2725  0.1332
 6556TIP3    H119632   0.994   5.225   4.236 -0.8456  1.3267  0.9371
 6556TIP3    H219633   0.940   5.274   4.103 -0.4323 -1.3706 -0.2871
 6557TIP3   OH219634   4.790   6.737   5.083 -0.4651 -0.1489  0.4681
 6557TIP3    H119635   4.854   6.665   5.081 -1.0428 -0.6755  0.7784
 6557TIP3    H219636   4.746   6.732   4.999  0.1646  0.4724  0.0841
 6558TIP3   OH219637   0.348   3.403   2.504  0.4658 -0.2693 -0.0706
 6558TIP3    H119638   0.362   3.335   2.438  0.8169  0.5716 -0.8818
 6558TIP3    H219639   0.275   3.455   2.469  1.3093  0.7820 -0.3019
 6559TIP3   OH219640   6.106   4.504   0.975  0.3799  0.1829 -0.0685
 6559TIP3    H119641   6.037   4.550   0.926 -0.5972  0.3083  1.3603
 6559TIP3    H219642   6.137   4.568   1.039  0.7497 -0.3731  0.3161
 6560TIP3   OH219643   0.923   6.523   3.398  0.1007  0.2244  0.1546
 6560TIP3    H119644   0.921   6.542   3.492 -1.1904 -0.2811  0.2557
 6560TIP3    H219645   1.016   6.522   3.376  0.4161  0.7699  1.3378
 6561TIP3   OH219646   0.428   1.378   2.221 -0.0411  0.7582  0.9756
 6561TIP3    H119647   0.456   1.312   2.158 -1.1874  1.5028 -0.3621
 6561TIP3    H219648   0.413   1.329   2.302 -0.7119 -0.5985  0.0683
 6562TIP3   OH219649   6.338   2.298   3.680  0.1288 -0.5052 -0.3225
 6562TIP3    H119650   6.382   2.213   3.680 -0.2627 -0.7123  0.2243
 6562TIP3    H219651   6.285   2.297   3.600  0.7025 -0.4693 -0.7041
 6563TIP3   OH219652   3.370   4.335   2.082 -0.2011 -0.2447  0.2609
 6563TIP3    H119653   3.412   4.370   2.004 -2.5849  1.1901 -0.4782
 6563TIP3    H219654   3.435   4.346   2.151  1.2268  0.3288 -1.1104
 6564TIP3   OH219655   3.732   3.682   0.642  0.3989  0.2019  0.3075
 6564TIP3    H119656   3.666   3.752   0.639 -0.4074 -0.5453  0.2676
 6564TIP3    H219657   3.812   3.726   0.670 -0.0376  1.1882  0.0542
 6565TIP3   OH219658   4.303   5.787   1.634 -0.1578 -0.1355  0.0609
 6565TIP3    H119659   4.249   5.712   1.607  0.0819  0.8729 -3.8781
 6565TIP3    H219660   4.392   5.752   1.637 -0.4116 -0.7142  1.7205
 6566TIP3   OH219661   2.873   1.113   0.426  0.4108  0.2725 -0.9115
 6566TIP3    H119662   2.932   1.073   0.491  1.5786  1.3887 -1.2368
 6566TIP3    H219663   2.918   1.193   0.399 -1.6462  1.6050 -0.6046
 6567TIP3   OH219664   3.230   2.313   4.119 -0.0682  0.6344  0.6615
 6567TIP3    H119665   3.158   2.317   4.182 -1.2371  2.5568 -0.7025
 6567TIP3    H219666   3.206   2.374   4.050  1.9680 -0.1278 -0.8443
 6568TIP3   OH219667   5.763   3.401   0.397  0.3454  0.8197 -0.1874
 6568TIP3    H119668   5.700   3.338   0.363  0.8795  0.7882 -1.1503
 6568TIP3    H219669   5.824   3.416   0.325  0.4284  2.1842  0.1255
 6569TIP3   OH219670   2.967   4.676   1.235  0.0933 -0.6962  0.4074
 6569TIP3    H119671   2.989   4.586   1.260 -0.6746 -0.5587  1.6725
 6569TIP3    H219672   3.013   4.731   1.299  0.7377 -0.1608 -0.4921
 6570TIP3   OH219673   6.305   5.547   1.465  0.5193 -0.2736  0.3268
 6570TIP3    H119674   6.295   5.632   1.420 -0.5753 -0.8223 -0.5091
 6570TIP3    H219675   6.381   5.507   1.424  0.1653 -0.3065 -0.3112
 6571TIP3   OH219676   2.764   4.551   4.292 -0.5025  0.3192 -0.1287
 6571TIP3    H119677   2.710   4.617   4.248 -2.4434 -1.3216 -0.3354
 6571TIP3    H219678   2.729   4.547   4.381  0.0054 -0.0208  0.0600
 6572TIP3   OH219679   6.839   0.542   4.575  0.3320  0.2048 -0.2315
 6572TIP3    H119680   6.880   0.532   4.661  0.2102  1.4980  0.0066
 6572TIP3    H219681   6.856   0.459   4.530 -0.1552 -0.7449  1.2628
 6573TIP3   OH219682   4.840   5.026   2.952 -0.4537 -0.3206  0.3982
 6573TIP3    H119683   4.873   5.104   2.997 -1.7970  0.3416  0.2842
 6573TIP3    H219684   4.809   5.059   2.867  1.6959 -1.4749 -0.9257
 6574TIP3   OH219685   6.016   6.099   0.139 -0.2792  0.0764  0.1129
 6574TIP3    H119686   6.034   6.178   0.190 -0.6842 -0.2956  0.8573
 6574TIP3    H219687   5.997   6.032   0.205 -1.7009 -0.1968 -0.5259
 6575TIP3   OH219688   6.254   2.506   1.566 -0.6010 -0.1433 -0.6143
 6575TIP3    H119689   6.176   2.451   1.563 -0.1766 -0.7545 -0.6644
 6575TIP3    H219690   6.234   2.571   1.633 -0.6122 -1.1690  0.4314
 6576TIP3   OH219691   5.684   0.687   5.756  0.0154  0.2997 -0.0901
 6576TIP3    H119692   5.636   0.768   5.769 -1.3447 -0.3807 -0.6709
 6576TIP3    H219693   5.688   0.647   5.843  0.8442  1.0432  0.2293
 6577TIP3   OH219694   4.737   2.454   3.373  0.6061  0.4210  0.1338
 6577TIP3    H119695   4.782   2.388   3.424  1.5608  0.1657 -1.0109
 6577TIP3    H219696   4.645   2.445   3.398  1.0057  0.0752  1.5265
 6578TIP3   OH219697   4.199   4.510   0.542 -0.1851  0.1548 -0.2931
 6578TIP3    H119698   4.140   4.563   0.487  0.5350 -0.0247 -1.2746
 6578TIP3    H219699   4.285   4.521   0.501  0.5406  0.6864  1.3119
 6579TIP3   OH219700   3.741   1.910   5.091 -0.2821  0.1247  0.5771
 6579TIP3    H119701   3.801   1.985   5.097  1.5129 -1.1659 -0.1575
 6579TIP3    H219702   3.735   1.892   4.997  0.3380 -1.3926  0.8022
 6580TIP3   OH219703   6.141   3.464   0.879 -0.4595 -0.2653  0.3532
 6580TIP3    H119704   6.132   3.371   0.858 -0.7762  0.0182 -0.8814
 6580TIP3    H219705   6.235   3.478   0.884 -0.3622 -0.3760 -0.8856
 6581TIP3   OH219706   6.258   1.278   2.867 -0.0796  0.0932 -0.0335
 6581TIP3    H119707   6.290   1.258   2.955 -0.5809  0.8236  0.3214
 6581TIP3    H219708   6.319   1.343   2.833 -0.9182  1.1982  0.4974
 6582TIP3   OH219709   6.449   0.058   0.316  0.4396 -0.0720  0.2157
 6582TIP3    H119710   6.468   0.133   0.260 -0.4481 -0.7553 -1.0579
 6582TIP3    H219711   6.535   0.026   0.343  0.8428  1.0926  0.3832
 6583TIP3   OH219712   2.692   0.298   3.134  0.3266  0.1232 -0.1472
 6583TIP3    H119713   2.773   0.340   3.104 -0.3757  2.4235  0.9867
 6583TIP3    H219714   2.719   0.210   3.160  2.9165  1.4412  2.1070
 6584TIP3   OH219715   2.952   0.471   2.264 -0.5239 -0.2958 -0.0044
 6584TIP3    H119716   2.914   0.425   2.189 -0.7210 -2.0863  1.1361
 6584TIP3    H219717   3.043   0.439   2.267 -0.1557  0.7005 -0.1815
 6585TIP3   OH219718   2.758   4.655   1.423 -0.0617 -0.3365 -0.1440
 6585TIP3    H119719   2.717   4.737   1.395 -0.4329  0.2903  2.0915
 6585TIP3    H219720   2.847   4.659   1.388 -0.2087  0.8299 -0.3983
 6586TIP3   OH219721   2.006   2.276   1.596  0.1154  0.0908  0.3453
 6586TIP3    H119722   2.016   2.317   1.682 -2.0761 -1.3294  1.3570
 6586TIP3    H219723   1.918   2.301   1.568 -0.0393 -1.2712 -0.4607
 6587TIP3   OH219724   4.112   1.682   4.306 -0.0775  0.0921  0.0527
 6587TIP3    H119725   4.065   1.647   4.230  1.0114  2.4920 -1.8772
 6587TIP3    H219726   4.063   1.651   4.382 -2.1075 -1.1645 -1.6663
 6588TIP3   OH219727   6.176   4.819   4.699 -0.0370  0.0361  0.1597
 6588TIP3    H119728   6.141   4.906   4.717  0.4728  0.0947  0.8670
 6588TIP3    H219729   6.261   4.835   4.658 -0.8640 -0.1029 -1.7588
 6589TIP3   OH219730   2.896   4.962   1.421  0.1480 -0.2570  0.0543
 6589TIP3    H119731   2.943   4.959   1.338  1.4632 -1.7273  0.8017
 6589TIP3    H219732   2.948   5.020   1.476 -2.0326  2.7762 -0.8059
 6590TIP3   OH219733   6.245   3.759   4.343 -0.6415  0.7218  0.6369
 6590TIP3    H119734   6.208   3.698   4.407  0.5756 -1.1984 -0.3986
 6590TIP3    H219735   6.278   3.832   4.396 -3.1624  1.1493  1.8174
 6591TIP3   OH219736   6.211   0.525   0.367 -0.3827 -0.0068 -0.0237
 6591TIP3    H119737   6.254   0.442   0.389 -1.3521 -0.4764  0.1660
 6591TIP3    H219738   6.172   0.554   0.450  0.1195  0.7501 -0.0436
 6592TIP3   OH219739   2.295   5.468   1.416  0.2423  0.5899  0.0636
 6592TIP3    H119740   2.385   5.447   1.392  0.3545  0.9316  0.1712
 6592TIP3    H219741   2.244   5.449   1.337  0.1436 -1.2281  0.5228
 6593TIP3   OH219742   6.039   6.058   1.519  0.8170 -0.5925 -0.1522
 6593TIP3    H119743   6.070   6.143   1.490 -2.8379  0.3711 -1.8828
 6593TIP3    H219744   6.020   6.068   1.612  0.3824  0.5519 -0.3523
 6594TIP3   OH219745   4.646   4.068   3.200  0.5461 -0.3575  0.1178
 6594TIP3    H119746   4.578   4.037   3.260 -0.4321  0.0906 -0.7460
 6594TIP3    H219747   4.669   4.155   3.233  1.5951 -0.9689  1.1184
 6595TIP3   OH219748   4.051   1.904   2.983 -0.5240  0.2831 -0.0752
 6595TIP3    H119749   4.145   1.883   2.988 -0.7752 -0.6002  3.4488
 6595TIP3    H219750   4.011   1.825   2.947 -0.0213  0.3667 -0.8486
 6596TIP3   OH219751   4.971   2.213   1.561 -0.0581 -0.0794 -0.7147
 6596TIP3    H119752   5.010   2.145   1.505  0.3661 -1.0275  0.6792
 6596TIP3    H219753   5.047   2.259   1.598 -0.2494 -1.0161  0.9128
 6597TIP3   OH219754   5.763   6.500   0.391 -0.7070 -0.9384 -0.1743
 6597TIP3    H119755   5.696   6.545   0.442  0.6880 -0.7172  1.5577
 6597TIP3    H219756   5.762   6.545   0.306 -1.4356  0.3456  0.4758
 6598TIP3   OH219757   3.329   5.905   0.948 -0.2631 -0.3789 -0.2522
 6598TIP3    H119758   3.307   5.968   1.017  0.3186 -0.0701 -0.3377
 6598TIP3    H219759   3.323   5.956   0.867  0.3149 -0.3973 -0.3118
 6599TIP3   OH219760   6.746   4.489   2.547 -0.5300  0.1395  0.4442
 6599TIP3    H119761   6.755   4.416   2.609  0.4524  1.8394  2.4438
 6599TIP3    H219762   6.780   4.565   2.595  0.7396  1.4981 -2.3859
 6600TIP3   OH219763   5.465   5.052   2.863 -0.0483 -0.1123 -0.1606
 6600TIP3    H119764   5.556   5.080   2.855 -0.1593  0.3248  0.0675
 6600TIP3    H219765   5.470   4.958   2.883  0.3629  0.0122  0.3271
 6601TIP3   OH219766   1.405   0.681   1.960  0.3163 -0.2408  0.2030
 6601TIP3    H119767   1.315   0.647   1.963 -0.4997  1.7168 -0.4469
 6601TIP3    H219768   1.443   0.642   1.882 -0.2193 -0.4908  0.0605
 6602TIP3   OH219769   2.557   4.669   4.128  0.1796 -0.6206  0.0880
 6602TIP3    H119770   2.595   4.737   4.072 -1.1151  0.1401  0.0978
 6602TIP3    H219771   2.482   4.711   4.170  0.4455 -1.5005  1.5475
 6603TIP3   OH219772   5.365   4.196   2.546 -0.7582 -0.1714 -0.5893
 6603TIP3    H119773   5.279   4.164   2.575 -0.5645 -1.0524 -0.9368
 6603TIP3    H219774   5.427   4.136   2.588 -0.4429 -1.1236 -2.3334
 6604TIP3   OH219775   1.487   5.005   2.428 -0.4924  0.4558 -0.4348
 6604TIP3    H119776   1.490   5.003   2.523  0.6342  1.1606 -0.4385
 6604TIP3    H219777   1.442   4.924   2.403  0.1983 -0.2761  0.6569
 6605TIP3   OH219778   6.288   5.376   2.447 -0.2392  0.0374 -0.4089
 6605TIP3    H119779   6.286   5.453   2.503  2.3044  0.6046 -0.9569
 6605TIP3    H219780   6.357   5.321   2.484 -1.5205 -1.6598 -0.4483
 6606TIP3   OH219781   2.332   1.357   4.574  0.1647 -0.0983 -0.1616
 6606TIP3    H119782   2.309   1.417   4.645 -1.9980  0.8004 -1.5492
 6606TIP3    H219783   2.427   1.369   4.562  0.2237  1.1213  1.2799
 6607TIP3   OH219784   6.958   4.643   3.582 -0.0867  0.2774  0.1182
 6607TIP3    H119785   6.997   4.669   3.498  1.5148  0.5420  0.9035
 6607TIP3    H219786   6.982   4.551   3.592  1.5345  0.7738  1.1999
 6608TIP3   OH219787   3.050   4.990   3.931 -0.0918  0.0884  0.2095
 6608TIP3    H119788   3.128   5.012   3.982  0.5618 -1.7931  0.1255
 6608TIP3    H219789   3.026   4.902   3.961 -0.2931 -0.6634 -1.9792
 6609TIP3   OH219790   5.983   2.301   4.047 -0.0335 -0.2485 -0.0003
 6609TIP3    H119791   6.070   2.315   4.010  0.4277 -0.8262  0.8179
 6609TIP3    H219792   5.988   2.339   4.135 -0.8427  0.3593 -0.2052
 6610TIP3   OH219793   3.397   2.583   0.538 -0.1378  0.0202  0.0832
 6610TIP3    H119794   3.461   2.515   0.514  2.1243  2.2937 -0.7056
 6610TIP3    H219795   3.448   2.650   0.581 -1.4107  3.1786 -2.8529
 6611TIP3   OH219796   4.757   4.148   3.547  0.3606 -0.2512 -0.1268
 6611TIP3    H119797   4.828   4.105   3.500  0.7946 -0.5056  0.7451
 6611TIP3    H219798   4.688   4.082   3.552  1.4476 -1.3198  2.2064
 6612TIP3   OH219799   1.738   4.081   3.614 -0.5774  0.5062  0.2696
 6612TIP3    H119800   1.784   4.006   3.577 -0.5940  1.0351 -0.8762
 6612TIP3    H219801   1.650   4.050   3.633 -0.5689  0.2230 -0.1561
 6613TIP3   OH219802   2.464   6.526   2.388 -0.3113  0.0220  0.0394
 6613TIP3    H119803   2.465   6.482   2.474 -1.0246 -1.7657 -0.8133
 6613TIP3    H219804   2.407   6.471   2.334  0.3479  0.9531 -1.6749
 6614TIP3   OH219805   0.954   2.873   3.776 -0.7002  0.4606 -0.0597
 6614TIP3    H119806   0.981   2.960   3.806 -1.1173  0.9442 -1.0428
 6614TIP3    H219807   0.986   2.867   3.686 -2.2636  0.3601 -0.6448
 6615TIP3   OH219808   0.240   4.504   2.642  0.1627 -0.2494 -0.3579
 6615TIP3    H119809   0.330   4.477   2.625  0.0306 -0.6206 -0.4698
 6615TIP3    H219810   0.193   4.485   2.560 -0.0494 -0.1964 -0.2499
 6616TIP3   OH219811   4.480   6.105   1.265 -0.2470  0.5683 -0.0404
 6616TIP3    H119812   4.541   6.174   1.240  0.3620 -0.5756 -1.9248
 6616TIP3    H219813   4.502   6.084   1.356  2.2102  0.1840 -0.6704
 6617TIP3   OH219814   1.485   3.505   5.403 -0.0064  0.1960  0.0322
 6617TIP3    H119815   1.448   3.523   5.489 -1.5140 -0.0280 -0.5391
 6617TIP3    H219816   1.413   3.466   5.353  1.5275 -2.0941 -0.5401
 6618TIP3   OH219817   6.190   1.822   2.575 -0.2356 -0.3631  0.1820
 6618TIP3    H119818   6.152   1.903   2.541 -1.8108 -0.1324  2.2439
 6618TIP3    H219819   6.115   1.773   2.608  0.8898 -1.8024  0.7061
 6619TIP3   OH219820   6.631   6.661   5.309 -0.7444 -0.4047  0.0765
 6619TIP3    H119821   6.643   6.712   5.229 -0.2834  1.1287  1.0872
 6619TIP3    H219822   6.596   6.577   5.279 -0.9758  0.2899 -1.6894
 6620TIP3   OH219823   3.156   3.951   3.927 -0.3330  0.1786  0.4141
 6620TIP3    H119824   3.110   3.918   4.004 -0.1816  0.5205  0.6516
 6620TIP3    H219825   3.155   3.877   3.866 -1.1222  0.1542  0.4432
 6621TIP3   OH219826   1.039   4.873   2.908  0.0522 -0.1281  0.2253
 6621TIP3    H119827   0.968   4.810   2.897 -0.7050  0.9441 -1.5157
 6621TIP3    H219828   1.119   4.824   2.891 -0.3137 -1.1564  1.3594
 6622TIP3   OH219829   2.351   1.643   4.983 -0.0207 -0.4386 -0.4659
 6622TIP3    H119830   2.351   1.703   5.057 -1.0808  0.1094 -0.8780
 6622TIP3    H219831   2.441   1.642   4.952  0.3209 -0.2753  0.5095
 6623TIP3   OH219832   2.226   2.781   0.903  0.4204 -0.4676  0.6236
 6623TIP3    H119833   2.288   2.708   0.901  0.7958 -0.1606 -2.0085
 6623TIP3    H219834   2.274   2.852   0.947  1.3270 -0.7707  0.1564
 6624TIP3   OH219835   0.554   3.672   2.127  0.2113 -0.5331 -0.1447
 6624TIP3    H119836   0.648   3.674   2.114  0.3147 -0.0014  0.6587
 6624TIP3    H219837   0.518   3.711   2.047  0.7529  0.7901  0.2202
 6625TIP3   OH219838   1.152   5.298   1.409 -0.4652  0.2153  0.4923
 6625TIP3    H119839   1.189   5.335   1.490  0.0442  1.8882 -0.4581
 6625TIP3    H219840   1.058   5.312   1.417 -0.4435  0.1569  0.8964
 6626TIP3   OH219841   6.494   4.162   5.233  0.3012 -0.1311  0.6111
 6626TIP3    H119842   6.407   4.125   5.217  0.6506 -0.5234 -0.4626
 6626TIP3    H219843   6.480   4.257   5.229  0.0056 -0.1968 -0.0211
 6627TIP3   OH219844   3.448   3.705   2.731 -0.2579 -0.0872  0.0838
 6627TIP3    H119845   3.361   3.664   2.733  0.1845 -1.0481  0.5506
 6627TIP3    H219846   3.487   3.673   2.649 -0.1320 -0.1258  0.1583
 6628TIP3   OH219847   3.531   6.724   0.208 -0.0648 -0.1667  0.2099
 6628TIP3    H119848   3.580   6.806   0.218  0.1850 -0.2622 -0.2008
 6628TIP3    H219849   3.575   6.679   0.137 -1.1047 -0.0058 -0.5553
 6629TIP3   OH219850   4.378   4.624   3.389 -0.0098 -0.1479  0.0424
 6629TIP3    H119851   4.436   4.663   3.454 -1.0973  0.0376  0.9461
 6629TIP3    H219852   4.400   4.531   3.390 -0.2070 -0.1940  0.9098
 6630TIP3   OH219853   6.507   2.850   4.084 -0.2654  0.3364 -0.0225
 6630TIP3    H119854   6.453   2.771   4.082  0.3059 -0.0537 -0.1380
 6630TIP3    H219855   6.453   2.917   4.042  0.5197 -0.7832 -3.0114
 6631TIP3   OH219856   3.640   3.632   1.321 -0.3952 -0.7279 -1.0081
 6631TIP3    H119857   3.678   3.713   1.356  0.0040 -0.8097 -1.2381
 6631TIP3    H219858   3.643   3.644   1.226  0.5112 -1.3732 -1.0798
 6632TIP3   OH219859   4.078   4.168   1.842 -0.0440  0.2537  0.0264
 6632TIP3    H119860   4.064   4.144   1.751  0.7541  1.6108 -0.4717
 6632TIP3    H219861   4.022   4.244   1.855  2.4982  2.3365 -0.4192
 6633TIP3   OH219862   6.206   4.337   1.576 -0.0824 -0.3495  0.2958
 6633TIP3    H119863   6.185   4.244   1.568  0.1933 -0.3963  0.1079
 6633TIP3    H219864   6.301   4.341   1.564  0.6986 -0.5764  4.6090
 6634TIP3   OH219865   6.778   3.930   1.322 -0.3825  0.6097 -0.0627
 6634TIP3    H119866   6.775   3.852   1.267 -1.4316 -0.1398  0.9936
 6634TIP3    H219867   6.695   3.974   1.305 -0.7151  0.3741  0.8750
 6635TIP3   OH219868   0.727   2.634   4.126 -0.4829 -0.5295 -0.1393
 6635TIP3    H119869   0.781   2.580   4.184 -0.0846  0.1514  0.1381
 6635TIP3    H219870   0.782   2.710   4.107 -1.3199  0.1465  0.1015
 6636TIP3   OH219871   2.597   4.929   4.776  0.0592 -0.5638 -0.2535
 6636TIP3    H119872   2.625   4.910   4.866  1.3594 -0.3963 -0.6047
 6636TIP3    H219873   2.643   4.864   4.723  1.1091  0.7582 -1.0198
 6637TIP3   OH219874   1.072   2.001   2.446 -0.0778  0.3474 -0.2060
 6637TIP3    H119875   1.159   2.041   2.446  1.0028 -1.7613 -2.4428
 6637TIP3    H219876   1.032   2.030   2.364 -1.3993  1.0181  0.6372
 6638TIP3   OH219877   2.475   3.294   3.523  0.3314 -0.3484 -0.5359
 6638TIP3    H119878   2.521   3.233   3.465  1.1669 -0.5020  0.2615
 6638TIP3    H219879   2.438   3.238   3.592 -1.0545 -0.2239 -1.1519
 6639TIP3   OH219880   3.567   2.007   4.357  0.2376  0.0291  0.3415
 6639TIP3    H119881   3.592   2.080   4.413 -0.2657 -1.0450  2.0535
 6639TIP3    H219882   3.475   1.991   4.379 -0.3816  0.3799 -1.7735
 6640TIP3   OH219883   6.985   4.274   2.161  0.2859  0.3133 -0.2799
 6640TIP3    H119884   7.073   4.299   2.192  0.7218 -0.8245 -0.5561
 6640TIP3    H219885   6.978   4.316   2.075  0.1052  1.3173  0.2052
 6641TIP3   OH219886   4.833   1.827   0.119  0.2465  0.7951  0.2904
 6641TIP3    H119887   4.819   1.912   0.161 -2.0049 -0.4277  2.3259
 6641TIP3    H219888   4.867   1.771   0.189  2.6935  0.1912 -1.2611
 6642TIP3   OH219889   0.279   4.476   1.548  0.8362  0.3918 -0.2567
 6642TIP3    H119890   0.195   4.522   1.549  0.8328  0.4112 -0.9334
 6642TIP3    H219891   0.286   4.440   1.459  1.9465  1.1536 -0.5013
 6643TIP3   OH219892   5.416   4.369   4.080  0.3441 -0.2628 -0.1855
 6643TIP3    H119893   5.471   4.293   4.099  0.4593 -0.0208  0.4917
 6643TIP3    H219894   5.349   4.368   4.148 -0.4411 -0.5033 -0.9577
 6644TIP3   OH219895   5.682   3.739   2.751 -0.2553 -0.0057 -0.1643
 6644TIP3    H119896   5.718   3.786   2.676  2.2221 -3.1125 -1.1506
 6644TIP3    H219897   5.618   3.679   2.713  0.0067 -0.6429  0.3940
 6645TIP3   OH219898   0.477   5.104   1.824 -0.2171 -0.0036  0.4786
 6645TIP3    H119899   0.490   5.042   1.753  2.5591  0.7838  0.1790
 6645TIP3    H219900   0.383   5.102   1.841 -0.7331 -1.4299 -2.0784
 6646TIP3   OH219901   2.000   2.153   4.117 -0.6804 -0.1350  0.7774
 6646TIP3    H119902   2.073   2.215   4.116  0.2871 -1.1848 -1.4144
 6646TIP3    H219903   2.041   2.067   4.120 -1.6927 -0.8036 -1.7475
 6647TIP3   OH219904   4.668   1.882   4.602 -0.2043 -0.1226 -0.0161
 6647TIP3    H119905   4.720   1.958   4.627 -1.8873  0.3621  2.4285
 6647TIP3    H219906   4.717   1.807   4.636 -0.7842  0.2857  1.8230
 6648TIP3   OH219907   3.167   3.531   4.716  0.1309  0.0747  0.4621
 6648TIP3    H119908   3.146   3.464   4.650  1.7535 -0.3863  0.3553
 6648TIP3    H219909   3.214   3.483   4.785  0.5358  0.9453  0.8156
 6649TIP3   OH219910   7.012   6.119   4.717 -0.6762 -0.0177  0.4182
 6649TIP3    H119911   7.044   6.030   4.734 -0.4543 -0.1347 -0.5815
 6649TIP3    H219912   7.023   6.164   4.801  1.4475 -0.2628  0.3346
 6650TIP3   OH219913   6.657   1.824   3.646  0.9143  0.1642 -0.0451
 6650TIP3    H119914   6.709   1.854   3.572  1.4018 -0.1776  0.1525
 6650TIP3    H219915   6.586   1.774   3.607  0.8151  0.5117 -0.3109
 6651TIP3   OH219916   6.877   3.438   3.051  0.0023  0.3984  0.2752
 6651TIP3    H119917   6.894   3.344   3.045  0.4519  0.4797  0.2879
 6651TIP3    H219918   6.958   3.480   3.024  0.0301  0.7821  0.9213
 6652TIP3   OH219919   5.750   5.756   1.673  0.1198  0.1231  0.2817
 6652TIP3    H119920   5.727   5.848   1.687 -1.4147 -0.1714 -0.0904
 6652TIP3    H219921   5.775   5.751   1.581  1.5980  0.4136  0.6478
 6653TIP3   OH219922   2.340   5.265   5.055  0.4692  0.6144  0.1567
 6653TIP3    H119923   2.321   5.172   5.056 -0.4923  0.7969 -0.1725
 6653TIP3    H219924   2.432   5.271   5.083  0.7509 -0.4654 -0.4831
 6654TIP3   OH219925   2.983   1.281   1.491  0.1355  0.2168  0.2325
 6654TIP3    H119926   2.906   1.301   1.545 -0.7893  0.8823 -1.2864
 6654TIP3    H219927   2.947   1.256   1.406  1.5241 -1.6548  0.1319
 6655TIP3   OH219928   6.030   5.134   0.279 -0.0662  0.2060  0.4239
 6655TIP3    H119929   6.079   5.194   0.222  1.5895 -3.0473 -1.8401
 6655TIP3    H219930   6.093   5.108   0.346 -0.4278  0.1634  0.7473
 6656TIP3   OH219931   7.011   6.688   3.877 -0.0833 -0.3206 -0.1452
 6656TIP3    H119932   6.945   6.692   3.809  1.9380 -0.5154 -2.2517
 6656TIP3    H219933   7.050   6.601   3.869  1.0118  0.0875  0.4457
 6657TIP3   OH219934   0.549   3.515   2.669  0.0016  0.1231  0.0748
 6657TIP3    H119935   0.483   3.485   2.606  1.2451  0.4793 -1.4887
 6657TIP3    H219936   0.577   3.435   2.714  0.1279 -0.3911 -0.8813
 6658TIP3   OH219937   0.364   5.435   0.203  0.2024  0.3726 -0.1799
 6658TIP3    H119938   0.350   5.519   0.247  0.2129  0.9937 -1.3263
 6658TIP3    H219939   0.276   5.398   0.193  0.0520  0.8900 -0.8726
 6659TIP3   OH219940   6.435   2.910   5.648 -0.1561 -0.3074 -0.3094
 6659TIP3    H119941   6.527   2.891   5.634 -0.3968 -1.4653 -0.4201
 6659TIP3    H219942   6.398   2.827   5.681 -1.3967 -0.2333 -1.4348
 6660TIP3   OH219943   1.818   4.300   5.375  0.8252 -0.3953 -0.3744
 6660TIP3    H119944   1.812   4.207   5.353  0.0072 -0.4436  0.0200
 6660TIP3    H219945   1.910   4.322   5.361  0.7386 -0.8788 -1.9761
 6661TIP3   OH219946   3.468   1.863   4.664 -0.4439 -0.1677  0.7467
 6661TIP3    H119947   3.511   1.815   4.594 -1.6823 -0.1518 -0.0693
 6661TIP3    H219948   3.537   1.881   4.728  0.6290 -0.5242 -0.2804
 6662TIP3   OH219949   6.731   6.071   2.853 -0.6928  0.3946 -0.4735
 6662TIP3    H119950   6.800   6.007   2.835  0.5293  1.3167  0.7051
 6662TIP3    H219951   6.710   6.109   2.768 -1.2600 -1.3504 -1.1571
 6663TIP3   OH219952   5.484   5.411   3.481 -0.6028 -0.2401  0.0165
 6663TIP3    H119953   5.483   5.365   3.566  0.3826  0.2920  0.3335
 6663TIP3    H219954   5.565   5.382   3.440 -1.1436 -0.5938 -0.8149
 6664TIP3   OH219955   5.098   1.080   4.208  0.1645 -0.1648  0.2844
 6664TIP3    H119956   5.040   1.036   4.270  0.0792  0.1455  0.4293
 6664TIP3    H219957   5.055   1.069   4.123  0.0679 -0.2351  0.3427
 6665TIP3   OH219958   3.116   5.471   2.775 -0.2893  0.0928  0.3002
 6665TIP3    H119959   3.161   5.466   2.691 -0.4999  0.5962  0.1526
 6665TIP3    H219960   3.176   5.430   2.837  1.5737  2.9518  0.6042
 6666TIP3   OH219961   3.494   0.028   3.573  0.0608 -0.3064  0.0020
 6666TIP3    H119962   3.410   0.042   3.618 -0.4073 -0.9034 -0.6598
 6666TIP3    H219963   3.543   0.109   3.589  0.0307 -0.5945  1.7881
 6667TIP3   OH219964   3.995   4.969   5.517  0.6385 -0.2346  0.6815
 6667TIP3    H119965   3.981   5.015   5.434 -1.2506 -0.2016  0.9822
 6667TIP3    H219966   3.936   5.013   5.579  0.6394 -1.4608  1.5833
 6668TIP3   OH219967   7.055   6.379   1.248  0.1014  0.4231 -0.1306
 6668TIP3    H119968   7.140   6.337   1.232 -0.4143 -0.3940 -0.8659
 6668TIP3    H219969   6.993   6.323   1.201 -0.9405  0.5602  1.0523
 6669TIP3   OH219970   1.885   6.114   3.815 -0.4214 -0.0456 -0.6562
 6669TIP3    H119971   1.908   6.079   3.901 -1.7112 -1.5853 -0.8881
 6669TIP3    H219972   1.968   6.144   3.778  0.3684 -0.6460  0.5627
 6670TIP3   OH219973   5.545   0.609   1.457  0.2983 -0.2162  0.2216
 6670TIP3    H119974   5.578   0.543   1.518  2.2590 -0.7107 -1.2516
 6670TIP3    H219975   5.614   0.675   1.454  0.8209 -0.7872 -2.2654
 6671TIP3   OH219976   0.951   2.567   0.320 -0.2189 -0.0140 -0.2319
 6671TIP3    H119977   0.995   2.524   0.393 -0.7422  0.3072  0.2835
 6671TIP3    H219978   0.965   2.660   0.335 -0.1317  0.0448 -0.6703
 6672TIP3   OH219979   0.010   5.095   2.627  0.0125 -0.7781  0.0852
 6672TIP3    H119980   0.001   5.189   2.618 -0.2969 -0.8957 -1.0999
 6672TIP3    H219981   0.001   5.078   2.721  1.0337  0.4561  0.4294
 6673TIP3   OH219982   0.243   5.200   1.198  0.4560  0.0217  0.2439
 6673TIP3    H119983   0.339   5.201   1.203  0.4282  1.7933  1.2975
 6673TIP3    H219984   0.215   5.256   1.270 -1.4078 -0.8429  0.2316
 6674TIP3   OH219985   1.741   4.408   4.722  0.2797 -0.1978 -0.6476
 6674TIP3    H119986   1.760   4.322   4.758 -0.1711 -1.2721 -2.8083
 6674TIP3    H219987   1.811   4.424   4.659 -0.4715  0.3046 -1.3726
 6675TIP3   OH219988   4.589   2.416   3.746 -0.2029  0.6415  0.1101
 6675TIP3    H119989   4.544   2.501   3.747  1.3825  1.5178  0.0061
 6675TIP3    H219990   4.548   2.369   3.673  2.2617  3.3179 -3.3587
 6676TIP3   OH219991   4.463   5.751   5.397 -0.0954  0.2261  0.3139
 6676TIP3    H119992   4.372   5.773   5.417 -0.4019  1.0661 -1.7763
 6676TIP3    H219993   4.511   5.775   5.477 -1.8696 -1.9718  2.1798
 6677TIP3   OH219994   1.077   0.317   1.518 -0.0606 -0.2944  0.1233
 6677TIP3    H119995   0.996   0.329   1.568  0.9909 -1.5654  2.2507
 6677TIP3    H219996   1.128   0.396   1.536 -0.4959  0.1796 -0.6451
 6678TIP3   OH219997   5.923   0.733   2.449 -0.3350 -0.9482 -0.4704
 6678TIP3    H119998   5.850   0.778   2.406 -0.2442 -0.2281  0.1051
 6678TIP3    H219999   6.000   0.784   2.424 -0.3271 -0.2846  0.8382
 6679TIP3   OH220000   5.462   0.301   3.362  0.5626 -0.0096 -0.0628
 6679TIP3    H120001   5.518   0.302   3.284 -0.5271  0.8071 -0.8618
 6679TIP3    H220002   5.461   0.391   3.393  0.0760 -0.1095  0.2282
 6680TIP3   OH220003   5.525   2.644   0.082  0.3456 -0.0208  0.0795
 6680TIP3    H120004   5.542   2.672   0.171 -1.5568  0.7190  0.2338
 6680TIP3    H220005   5.451   2.583   0.089  0.4619 -0.3039 -0.9465
 6681TIP3   OH220006   0.513   2.314   4.623  0.1684 -0.1496  0.7577
 6681TIP3    H120007   0.585   2.252   4.634  0.4865  0.2371  0.8920
 6681TIP3    H220008   0.463   2.280   4.549 -0.1204 -0.9982  1.3219
 6682TIP3   OH220009   2.228   1.833   0.157 -0.3059 -0.2518 -0.2208
 6682TIP3    H120010   2.321   1.819   0.171 -0.2333  0.6546  0.2717
 6682TIP3    H220011   2.186   1.758   0.197  0.1546 -0.0297  0.6919
 6683TIP3   OH220012   5.064   5.548   5.845 -0.1038  0.3290 -0.0779
 6683TIP3    H120013   5.017   5.472   5.880  3.0141 -1.7482 -0.0694
 6683TIP3    H220014   5.047   5.545   5.751 -1.7250  0.9860  0.1501
 6684TIP3   OH220015   7.098   1.453   0.973 -0.0064 -0.3572 -0.0541
 6684TIP3    H120016   7.009   1.442   1.009  0.2985 -0.4114  0.7048
 6684TIP3    H220017   7.084   1.467   0.880 -0.6540 -3.3553 -0.5099
 6685TIP3   OH220018   6.136   2.139   5.511 -0.1782  0.2217 -0.0565
 6685TIP3    H120019   6.156   2.196   5.437 -0.5977 -0.8006 -0.9909
 6685TIP3    H220020   6.182   2.057   5.493  0.6705  0.3303  1.4139
 6686TIP3   OH220021   5.213   1.459   1.329  0.5255  0.6276 -0.0386
 6686TIP3    H120022   5.185   1.405   1.255  0.8195 -0.2446  0.4675
 6686TIP3    H220023   5.221   1.398   1.402  1.0661  1.3243  0.5081
 6687TIP3   OH220024   3.287   3.532   5.759  0.3540 -0.0608 -0.5117
 6687TIP3    H120025   3.380   3.519   5.745  0.3914 -0.4430  0.0363
 6687TIP3    H220026   3.255   3.572   5.678  1.4043  2.2606  0.1513
 6688TIP3   OH220027   0.770   1.984   5.728 -0.0374  0.0429  0.0003
 6688TIP3    H120028   0.745   1.976   5.820  0.8309 -1.7354  0.1260
 6688TIP3    H220029   0.721   1.915   5.683 -0.3785  0.8314 -0.8618
 6689TIP3   OH220030   6.946   0.129   1.871 -0.1202 -0.3346 -0.1171
 6689TIP3    H120031   6.969   0.074   1.796 -0.0027  0.9304 -1.0562
 6689TIP3    H220032   7.030   0.158   1.907 -0.1837 -0.5600  0.2176
 6690TIP3   OH220033   1.982   4.099   1.788  0.1832  0.2152  0.2208
 6690TIP3    H120034   1.980   4.132   1.698  0.0899  2.6149  1.0455
 6690TIP3    H220035   1.900   4.050   1.797 -0.3762  0.9498 -0.6628
 6691TIP3   OH220036   5.269   3.295   5.757  0.9038 -0.3516  0.3760
 6691TIP3    H120037   5.335   3.332   5.698  1.4102 -1.1297  0.4387
 6691TIP3    H220038   5.187   3.298   5.707  1.6821 -2.9360 -1.2444
 6692TIP3   OH220039   4.123   0.390   5.015 -0.3761 -0.1734  0.3079
 6692TIP3    H120040   4.090   0.402   4.926 -0.0255  0.7853  0.3035
 6692TIP3    H220041   4.132   0.295   5.024  1.5979 -0.2159 -1.4322
 6693TIP3   OH220042   0.836   2.907   5.201  0.5448 -0.8658  0.2394
 6693TIP3    H120043   0.884   2.824   5.195 -1.1062 -1.9276  1.0263
 6693TIP3    H220044   0.826   2.921   5.296 -0.4930 -0.5581  0.0934
 6694TIP3   OH220045   6.424   2.964   2.590  0.9544 -0.3128  0.3324
 6694TIP3    H120046   6.519   2.969   2.589  1.0461 -1.6546 -1.1795
 6694TIP3    H220047   6.397   2.988   2.502 -0.0165 -1.2574  0.3480
 6695TIP3   OH220048   4.429   3.886   4.017  0.0239  0.1115 -0.2365
 6695TIP3    H120049   4.500   3.872   4.079 -1.2530  2.1274  1.8434
 6695TIP3    H220050   4.377   3.805   4.023  0.2371  0.0401  0.9268
 6696TIP3   OH220051   5.765   3.365   1.618  0.4076  0.1642 -0.3281
 6696TIP3    H120052   5.717   3.302   1.565  0.7620 -0.4249  0.0386
 6696TIP3    H220053   5.697   3.416   1.662  0.1158 -0.1517 -0.4090
 6697TIP3   OH220054   2.445   3.609   0.074  0.2847 -0.3906 -0.0598
 6697TIP3    H120055   2.438   3.573   0.162  2.1028  0.1896  0.3566
 6697TIP3    H220056   2.517   3.560   0.033 -0.3303 -0.4413 -1.1322
 6698TIP3   OH220057   1.232   3.788   1.550 -0.2929 -0.2039  0.4894
 6698TIP3    H120058   1.178   3.785   1.472  0.3587 -0.5139  0.0428
 6698TIP3    H220059   1.322   3.794   1.518  0.0967 -1.6872  1.1655
 6699TIP3   OH220060   6.536   2.228   2.642  0.7403 -0.5207 -0.0569
 6699TIP3    H120061   6.527   2.245   2.736  2.4021  1.4820 -0.1711
 6699TIP3    H220062   6.511   2.310   2.601  1.0009 -1.0485 -1.3035
 6700TIP3   OH220063   1.815   4.783   4.174 -0.1597 -0.4321 -0.6860
 6700TIP3    H120064   1.904   4.809   4.194 -0.2453 -0.8642  0.3110
 6700TIP3    H220065   1.782   4.851   4.115  1.0260 -0.6062 -1.5627
 6701TIP3   OH220066   0.721   5.338   4.196 -0.7975 -0.0581 -0.2800
 6701TIP3    H120067   0.743   5.387   4.275  0.6847 -0.6151 -0.3244
 6701TIP3    H220068   0.709   5.406   4.129 -1.6594  0.3901  0.3076
 6702TIP3   OH220069   6.941   0.499   3.247 -0.3226 -0.6787  0.0281
 6702TIP3    H120070   6.920   0.590   3.229  0.1486 -0.4430  0.6302
 6702TIP3    H220071   6.962   0.497   3.341 -0.7519 -1.4806  0.1203
 6703TIP3   OH220072   4.922   5.552   3.447 -0.4365 -0.2366 -0.6510
 6703TIP3    H120073   4.881   5.535   3.532  0.3705 -2.0029 -0.5761
 6703TIP3    H220074   4.977   5.628   3.462  1.2590 -1.6979  1.0073
 6704TIP3   OH220075   4.461   1.605   1.884 -0.3119 -0.1472  0.5029
 6704TIP3    H120076   4.505   1.685   1.915  1.2442 -0.1740 -1.3872
 6704TIP3    H220077   4.518   1.534   1.914 -0.4139 -0.3730  0.1588
 6705TIP3   OH220078   3.175   1.303   4.695  0.1679  0.1540  0.0606
 6705TIP3    H120079   3.136   1.228   4.739 -0.7993  1.7786  2.1960
 6705TIP3    H220080   3.251   1.325   4.748  2.1594 -0.9320 -2.1609
 6706TIP3   OH220081   2.102   2.054   4.447  0.9640  0.3297 -0.4438
 6706TIP3    H120082   2.171   2.007   4.492  1.6301  2.0440  0.4212
 6706TIP3    H220083   2.033   1.989   4.433  2.1608 -1.0657 -0.0704
 6707TIP3   OH220084   1.741   0.977   5.514  0.4342 -0.5877 -0.1046
 6707TIP3    H120085   1.694   0.979   5.430  3.2359 -1.6164 -1.8389
 6707TIP3    H220086   1.686   0.924   5.571 -1.6692  0.3142 -1.1637
 6708TIP3   OH220087   6.066   4.489   4.665 -0.0056 -0.2785  0.0328
 6708TIP3    H120088   6.040   4.515   4.753  2.4897 -4.1957  2.2416
 6708TIP3    H220089   5.999   4.427   4.637  0.2278 -0.5615  0.0890
 6709TIP3   OH220090   2.330   3.653   5.227 -0.6034  0.3379  0.0473
 6709TIP3    H120091   2.346   3.740   5.189 -1.3158  0.5348  0.1765
 6709TIP3    H220092   2.371   3.657   5.313 -0.1953  0.3722 -0.1486
 6710TIP3   OH220093   5.920   2.765   1.374 -0.4664  0.4518  0.1517
 6710TIP3    H120094   5.969   2.839   1.411 -0.3002 -0.1839  1.2453
 6710TIP3    H220095   5.854   2.745   1.440 -0.5213 -0.3694 -0.1486
 6711TIP3   OH220096   2.044   2.302   1.085  0.1774 -0.0092 -0.2078
 6711TIP3    H120097   1.992   2.252   1.022  1.1426 -1.3860  0.0266
 6711TIP3    H220098   2.000   2.387   1.091 -1.4244 -0.7521 -0.7722
 6712TIP3   OH220099   2.779   2.757   4.226  0.4476 -0.3166 -0.0187
 6712TIP3    H120100   2.874   2.769   4.221  0.9289 -3.1655  0.4003
 6712TIP3    H220101   2.756   2.715   4.143 -0.4497  0.2583 -0.0761
 6713TIP3   OH220102   2.600   1.657   4.317 -0.6876  0.5473 -0.3559
 6713TIP3    H120103   2.560   1.645   4.230 -0.6641 -0.7386 -0.2091
 6713TIP3    H220104   2.658   1.581   4.327 -0.6935  0.6833  0.7852
 6714TIP3   OH220105   1.555   5.006   3.173  0.0913  0.0081  0.6418
 6714TIP3    H120106   1.651   5.014   3.172  0.0828  0.4132  1.9008
 6714TIP3    H220107   1.537   4.936   3.111  1.3850 -1.7565  2.1275
 6715TIP3   OH220108   1.426   4.341   1.430  0.0674 -0.1006  0.4577
 6715TIP3    H120109   1.520   4.360   1.427  0.2854 -1.1078  0.5890
 6715TIP3    H220110   1.419   4.263   1.484 -0.7655 -0.5211 -0.2377
 6716TIP3   OH220111   4.053   6.282   5.469 -0.0702 -0.2710  0.0122
 6716TIP3    H120112   4.052   6.367   5.514  0.2783  0.1597 -0.7741
 6716TIP3    H220113   4.144   6.253   5.476  0.2924  0.3877 -1.4496
 6717TIP3   OH220114   2.309   5.050   3.325 -0.1995 -0.0451  0.2047
 6717TIP3    H120115   2.317   5.102   3.405  0.1480 -1.5190  1.1781
 6717TIP3    H220116   2.273   4.966   3.354  3.7949 -2.2356 -0.3975
 6718TIP3   OH220117   6.216   5.802   3.839  0.0692 -0.5406 -0.6118
 6718TIP3    H120118   6.146   5.868   3.831  0.3258 -0.3687 -1.5952
 6718TIP3    H220119   6.296   5.853   3.850  0.1393 -0.7169 -0.3012
 6719TIP3   OH220120   6.399   5.584   3.007  0.5809  0.1482 -0.2072
 6719TIP3    H120121   6.342   5.513   2.978 -0.4936  1.0823 -0.4608
 6719TIP3    H220122   6.461   5.543   3.068 -1.3857 -0.6104  1.3732
 6720TIP3   OH220123   4.804   0.922   1.346 -0.4141 -0.4482 -0.2332
 6720TIP3    H120124   4.762   0.844   1.382 -1.4704  0.6748  1.0969
 6720TIP3    H220125   4.897   0.900   1.345 -0.6417 -1.5580  0.5416
 6721TIP3   OH220126   6.595   3.229   3.111  0.2880  0.3585  0.1452
 6721TIP3    H120127   6.594   3.250   3.204  0.2613 -0.2446  0.2868
 6721TIP3    H220128   6.505   3.203   3.091  0.5070 -0.4779  0.1888
 6722TIP3   OH220129   5.423   5.903   4.485 -0.0376 -0.2049  0.3497
 6722TIP3    H120130   5.394   5.995   4.482  3.4948  1.0351 -0.1673
 6722TIP3    H220131   5.478   5.898   4.563  1.7686 -1.1934 -0.9375
 6723TIP3   OH220132   1.497   2.204   5.006 -0.1512 -0.4212  0.2583
 6723TIP3    H120133   1.585   2.176   4.981  0.6920  2.7910 -0.8582
 6723TIP3    H220134   1.493   2.192   5.101  0.9706 -1.8162  0.1620
 6724TIP3   OH220135   6.237   1.095   3.308  0.3560  0.5992  0.0194
 6724TIP3    H120136   6.203   1.027   3.249  1.1859 -0.7401  1.0158
 6724TIP3    H220137   6.263   1.166   3.250 -1.1106  0.3385 -1.0201
 6725TIP3   OH220138   5.389   3.228   0.186 -0.1328 -0.1952 -0.5694
 6725TIP3    H120139   5.355   3.168   0.120 -1.1066 -0.2752 -0.0100
 6725TIP3    H220140   5.428   3.171   0.253 -1.9216 -0.3182  0.4513
 6726TIP3   OH220141   3.609   1.909   3.012 -0.0544 -0.1210 -0.0814
 6726TIP3    H120142   3.520   1.874   2.997  0.0301 -0.5735  0.4215
 6726TIP3    H220143   3.649   1.908   2.925 -0.5097 -0.0085 -0.2991
 6727TIP3   OH220144   1.480   3.707   3.698  0.2908 -0.2036  0.3829
 6727TIP3    H120145   1.559   3.679   3.744  0.1554 -0.2218  0.6083
 6727TIP3    H220146   1.410   3.655   3.739  0.3113 -1.0239 -0.5767
 6728TIP3   OH220147   6.343   3.083   3.183 -0.0113 -0.5415 -0.3734
 6728TIP3    H120148   6.402   3.054   3.253  0.4594  0.8084 -0.1814
 6728TIP3    H220149   6.288   3.150   3.224 -0.7880 -0.8334 -0.9063
 6729TIP3   OH220150   5.470   4.813   4.125 -0.6298  0.0292 -0.5249
 6729TIP3    H120151   5.478   4.903   4.094  2.3905  0.1785  0.3485
 6729TIP3    H220152   5.545   4.768   4.086 -1.6366 -1.9265 -0.3043
 6730TIP3   OH220153   3.656   1.767   4.475  0.0795  0.2247 -0.1505
 6730TIP3    H120154   3.661   1.843   4.418 -1.5088 -0.3364 -1.1166
 6730TIP3    H220155   3.747   1.748   4.499  0.8277  0.4668 -2.5522
 6731TIP3   OH220156   4.096   2.614   3.232 -0.1198  0.3501  0.1623
 6731TIP3    H120157   4.151   2.690   3.249 -0.2564  0.8952 -1.6357
 6731TIP3    H220158   4.007   2.648   3.232 -0.1472  0.3424 -1.2007
 6732TIP3   OH220159   4.545   0.899   1.171  0.8697  0.4080 -0.0920
 6732TIP3    H120160   4.542   0.993   1.187  0.7208  0.2557  0.8115
 6732TIP3    H220161   4.638   0.876   1.179  0.8608  0.4190  0.0422
 6733TIP3   OH220162   1.201   2.220   3.142 -0.1452  0.4405  0.4620
 6733TIP3    H120163   1.236   2.159   3.078  0.7788  0.0324  1.3185
 6733TIP3    H220164   1.229   2.306   3.111  1.2208  0.1599  0.8510
 6734TIP3   OH220165   1.908   2.811   0.111  0.0785  0.2787  0.1458
 6734TIP3    H120166   1.890   2.833   0.019 -0.9329  0.1334  0.2919
 6734TIP3    H220167   1.989   2.761   0.108 -0.0857  0.0342 -0.7058
 6735TIP3   OH220168   6.188   2.054   3.445  0.1112  0.0560  0.6677
 6735TIP3    H120169   6.272   2.032   3.404 -0.1381 -1.4458  0.9091
 6735TIP3    H220170   6.192   2.149   3.459  1.7454  0.0202  0.6194
 6736TIP3   OH220171   2.871   1.551   5.361  0.1941  0.8147 -0.2816
 6736TIP3    H120172   2.841   1.563   5.451  0.0812 -0.5735 -0.1122
 6736TIP3    H220173   2.961   1.582   5.361  1.0060 -1.3215  0.9348
 6737TIP3   OH220174   6.256   0.620   4.687 -0.0676 -0.1854  0.2372
 6737TIP3    H120175   6.196   0.676   4.637 -0.5227  0.1779  1.1491
 6737TIP3    H220176   6.310   0.578   4.622 -0.5544  0.3777 -0.5502
 6738TIP3   OH220177   4.888   3.657   3.654 -0.1885 -0.1548  0.3712
 6738TIP3    H120178   4.936   3.681   3.734  0.7599  1.0103 -0.5156
 6738TIP3    H220179   4.934   3.702   3.584 -0.8264 -1.4073 -0.8998
 6739TIP3   OH220180   6.962   3.733   2.971  0.4445  0.4271 -0.4182
 6739TIP3    H120181   6.966   3.638   2.972  0.2840  0.3924  1.4511
 6739TIP3    H220182   6.890   3.753   2.911  2.8509 -0.4020 -3.8385
 6740TIP3   OH220183   5.028   0.649   5.423 -0.0093 -0.0950  0.1588
 6740TIP3    H120184   4.955   0.595   5.393  2.1457 -3.0571 -0.2267
 6740TIP3    H220185   5.096   0.637   5.357  1.4778  1.0592  1.4074
 6741TIP3   OH220186   6.481   5.359   0.329 -0.1842 -0.5356 -0.5596
 6741TIP3    H120187   6.452   5.319   0.247 -0.4014 -0.8583 -0.3276
 6741TIP3    H220188   6.570   5.326   0.342 -0.3771 -0.9728 -0.3494
 6742TIP3   OH220189   0.750   0.373   5.201 -0.0320  0.5069 -0.2919
 6742TIP3    H120190   0.682   0.418   5.252  0.3825 -0.2063  0.9374
 6742TIP3    H220191   0.821   0.437   5.195 -0.2974  0.7901 -0.4533
 6743TIP3   OH220192   4.403   4.314   5.191  0.0645 -0.0159 -0.2636
 6743TIP3    H120193   4.395   4.340   5.099  0.3976 -2.0679 -0.9191
 6743TIP3    H220194   4.455   4.384   5.231 -1.4344  1.7460 -1.2206
 6744TIP3   OH220195   2.700   5.426   0.832 -0.0057 -0.2566  0.5455
 6744TIP3    H120196   2.768   5.362   0.853  0.6953  0.8862  1.9005
 6744TIP3    H220197   2.719   5.451   0.741  1.6376  0.2951  0.9940
 6745TIP3   OH220198   6.925   3.315   2.020 -0.2383  0.0158 -0.5535
 6745TIP3    H120199   6.877   3.372   1.960  0.5891  1.5353  0.1637
 6745TIP3    H220200   6.927   3.230   1.976 -0.8091  0.7391 -2.0471
 6746TIP3   OH220201   0.765   4.553   0.943  0.1786  0.2138 -0.2502
 6746TIP3    H120202   0.813   4.471   0.952 -0.6801 -0.3246 -0.4089
 6746TIP3    H220203   0.740   4.556   0.850 -0.3425  0.3361 -0.1098
 6747TIP3   OH220204   3.690   0.036   1.257  0.0267 -0.1644 -0.0162
 6747TIP3    H120205   3.726  -0.003   1.177 -0.3799  0.4449 -0.5024
 6747TIP3    H220206   3.659   0.123   1.230 -0.0441  0.0797  0.8195
 6748TIP3   OH220207   4.421   0.602   3.587  0.5126  0.1208 -0.0633
 6748TIP3    H120208   4.446   0.695   3.585  2.7022 -0.2430  3.2243
 6748TIP3    H220209   4.337   0.602   3.633 -1.0676  0.6053 -2.7638
 6749TIP3   OH220210   0.212   1.148   2.309 -0.0888  0.5384  0.3365
 6749TIP3    H120211   0.204   1.151   2.213  0.2076 -0.3772  0.2771
 6749TIP3    H220212   0.212   1.055   2.330 -0.7107  0.7392  1.2872
 6750TIP3   OH220213   0.945   5.509   1.256  0.4837  0.2392 -0.8616
 6750TIP3    H120214   0.999   5.584   1.281 -1.0732  1.2450 -0.3873
 6750TIP3    H220215   0.855   5.541   1.263 -0.2498 -1.8637 -0.0757
 6751TIP3   OH220216   2.929   0.303   5.793 -0.2019 -0.1812  0.2319
 6751TIP3    H120217   2.998   0.365   5.769 -1.2171  0.3314 -1.5989
 6751TIP3    H220218   2.974   0.219   5.801  0.7111  0.2133 -0.5758
 6752TIP3   OH220219   5.584   4.999   4.940 -0.4264 -0.3485 -0.0063
 6752TIP3    H120220   5.601   5.055   4.865 -2.4738 -2.3364 -2.1171
 6752TIP3    H220221   5.663   4.946   4.950 -0.1281 -0.0561 -0.7830
 6753TIP3   OH220222   0.838   3.368   5.554  0.8530 -0.5523 -0.5225
 6753TIP3    H120223   0.847   3.442   5.614  3.8670  0.9728 -2.5880
 6753TIP3    H220224   0.744   3.360   5.540  0.2274  0.7924  2.1766
 6754TIP3   OH220225   1.436   4.791   5.790 -0.5578 -0.0307 -0.1068
 6754TIP3    H120226   1.382   4.865   5.763 -0.2539 -0.1314 -1.0091
 6754TIP3    H220227   1.376   4.734   5.839 -0.4765  1.4643  1.8364
 6755TIP3   OH220228   1.570   5.065   4.341 -0.1780 -0.0983 -0.3368
 6755TIP3    H120229   1.544   5.000   4.406 -1.0416 -2.2292 -2.6658
 6755TIP3    H220230   1.665   5.071   4.350 -0.1626 -1.2234  0.3542
 6756TIP3   OH220231   6.773   4.312   3.677 -0.3829 -0.2835 -0.0728
 6756TIP3    H120232   6.687   4.276   3.657 -0.2114 -1.2060  0.7287
 6756TIP3    H220233   6.756   4.393   3.725 -0.8689 -1.4609  1.8567
 6757TIP3   OH220234   3.777   2.908   0.223 -0.0077 -0.0768 -0.1520
 6757TIP3    H120235   3.688   2.916   0.189  0.7616  0.6022 -2.1367
 6757TIP3    H220236   3.825   2.860   0.155  1.2440 -0.0428  0.6768
 6758TIP3   OH220237   4.238   4.217   4.742 -0.2932 -0.0781  0.2338
 6758TIP3    H120238   4.167   4.279   4.728 -1.4117 -1.3593  0.0027
 6758TIP3    H220239   4.217   4.143   4.685  0.6433 -0.9481  0.9793
 6759TIP3   OH220240   6.621   0.443   1.069  0.0298  0.0318  0.3641
 6759TIP3    H120241   6.582   0.421   1.153  0.4146  0.8369  0.7695
 6759TIP3    H220242   6.712   0.466   1.090  0.4234 -0.7735 -0.4136
 6760TIP3   OH220243   6.723   2.133   3.017 -0.3528  0.0854  0.3139
 6760TIP3    H120244   6.714   2.111   2.924  2.7986 -0.9452  0.1049
 6760TIP3    H220245   6.763   2.219   3.017 -0.9541  0.3682  0.7529
 6761TIP3   OH220246   0.870   6.326   1.995  0.1140 -0.5613 -0.3264
 6761TIP3    H120247   0.911   6.240   1.995 -0.0334 -0.6338 -0.0797
 6761TIP3    H220248   0.785   6.312   1.953  0.8659 -0.1495 -2.0421
 6762TIP3   OH220249   4.605   4.001   2.946  0.1473 -0.0989  0.3167
 6762TIP3    H120250   4.614   4.027   3.038 -0.0529 -0.2010  0.3659
 6762TIP3    H220251   4.548   3.924   2.949  3.4144 -2.7187  0.5249
 6763TIP3   OH220252   0.580   2.753   2.275  0.2269 -0.1091  0.2362
 6763TIP3    H120253   0.574   2.754   2.371  3.8894 -1.4399  0.6590
 6763TIP3    H220254   0.653   2.811   2.256 -1.3730  1.3188 -1.9749
 6764TIP3   OH220255   5.366   1.017   0.060  0.2128 -0.5979  0.1563
 6764TIP3    H120256   5.326   1.089   0.109  2.1008 -0.7825  2.1402
 6764TIP3    H220257   5.296   0.953   0.051 -0.8072  0.4050  0.6457
 6765TIP3   OH220258   4.221   3.427   0.674 -0.1242  0.4797 -0.1111
 6765TIP3    H120259   4.273   3.456   0.750 -0.0801  0.7203 -0.2330
 6765TIP3    H220260   4.264   3.467   0.599 -0.0514  0.0785 -0.2851
 6766TIP3   OH220261   7.092   4.711   3.346 -0.8085 -0.6860 -0.2078
 6766TIP3    H120262   7.073   4.631   3.297 -3.2098 -1.2257  1.4494
 6766TIP3    H220263   7.090   4.780   3.280 -1.6625 -1.6412 -1.2350
 6767TIP3   OH220264   0.941   6.644   0.978 -0.0345  0.2454 -0.2935
 6767TIP3    H120265   1.027   6.606   0.995  0.0338  0.2096 -0.6962
 6767TIP3    H220266   0.953   6.738   0.993 -0.5142  0.0003  1.9143
 6768TIP3   OH220267   2.727   4.068   1.377 -0.2316 -0.1649 -0.7137
 6768TIP3    H120268   2.708   4.059   1.284 -1.9854  0.6236 -0.4890
 6768TIP3    H220269   2.641   4.087   1.416  0.2101 -1.9073  1.2610
 6769TIP3   OH220270   3.126   3.162   3.518 -0.2083  0.3480 -0.0285
 6769TIP3    H120271   3.041   3.122   3.537 -1.1469  0.9854 -2.4312
 6769TIP3    H220272   3.164   3.180   3.604 -1.8770 -1.2179  1.1169
 6770TIP3   OH220273   5.707   2.460   4.927  0.1222 -0.2185 -0.2130
 6770TIP3    H120274   5.689   2.508   5.008 -2.1736  2.1068 -1.9345
 6770TIP3    H220275   5.624   2.462   4.879  0.7988 -3.3380 -1.8182
 6771TIP3   OH220276   7.002   4.922   2.957 -0.4870  0.2462  0.0377
 6771TIP3    H120277   6.923   4.971   2.979 -1.2810 -0.1286 -1.7973
 6771TIP3    H220278   6.980   4.831   2.977 -0.8274  0.0414 -1.2016
 6772TIP3   OH220279   6.705   2.938   1.531  0.3378  0.1557 -0.6297
 6772TIP3    H120280   6.681   2.846   1.540 -1.7236  0.5135 -1.7793
 6772TIP3    H220281   6.656   2.968   1.455  0.6755  2.2973 -0.0664
 6773TIP3   OH220282   7.022   2.053   0.425 -0.2030  0.7145  0.0052
 6773TIP3    H120283   7.002   2.030   0.516  0.1182 -1.1176 -0.3389
 6773TIP3    H220284   7.115   2.032   0.415  0.1589  2.3364 -0.3702
 6774TIP3   OH220285   3.098   0.877   0.240 -0.2019 -0.0243 -0.2347
 6774TIP3    H120286   3.030   0.863   0.174  0.7595  0.6034 -1.3788
 6774TIP3    H220287   3.078   0.964   0.276 -0.7953 -0.4161  0.4056
 6775TIP3   OH220288   3.405   0.071   4.752 -0.1553 -0.0910  0.1942
 6775TIP3    H120289   3.371   0.136   4.690  1.8425 -1.7686 -2.8979
 6775TIP3    H220290   3.498   0.091   4.759 -0.2505 -0.2373  2.4129
 6776TIP3   OH220291   1.654   3.495   5.740 -0.3659  0.2783  0.6767
 6776TIP3    H120292   1.746   3.512   5.760 -0.1246  0.4826 -0.5598
 6776TIP3    H220293   1.623   3.576   5.701 -1.5312  0.7816  2.5016
 6777TIP3   OH220294   2.755   1.512   5.600  0.3280 -0.2474  0.6209
 6777TIP3    H120295   2.712   1.587   5.642 -1.1865  0.0168 -1.2323
 6777TIP3    H220296   2.744   1.440   5.661  1.5080  0.9125  2.2971
 6778TIP3   OH220297   1.904   3.950   0.736  0.3832  0.5540 -0.2794
 6778TIP3    H120298   1.811   3.926   0.740  0.5711 -0.1418  2.4147
 6778TIP3    H220299   1.909   4.035   0.780  1.0952  0.2231  0.3030
 6779TIP3   OH220300   0.588   6.364   2.167  0.8839  0.1713  0.1884
 6779TIP3    H120301   0.530   6.327   2.100  1.4963 -0.7635  0.1660
 6779TIP3    H220302   0.631   6.437   2.122  0.0532  0.6215  0.0835
 6780TIP3   OH220303   1.933   1.566   4.040  0.0266  0.0849  0.0819
 6780TIP3    H120304   1.859   1.622   4.015  1.4137  1.6118 -0.7977
 6780TIP3    H220305   1.892   1.486   4.073 -2.0458  1.5485  1.2841
 6781TIP3   OH220306   3.507   1.768   5.845 -0.1510 -0.4074  0.1362
 6781TIP3    H120307   3.418   1.741   5.867 -0.1564 -0.8089 -0.3835
 6781TIP3    H220308   3.563   1.715   5.902 -0.2079 -0.7708 -0.1426
 6782TIP3   OH220309   3.982   5.695   5.521  0.0314 -0.4667  0.0007
 6782TIP3    H120310   3.975   5.614   5.471 -0.7866 -0.1649 -0.4000
 6782TIP3    H220311   3.895   5.735   5.513  0.5511  0.6564 -0.1663
 6783TIP3   OH220312   3.208   2.695   3.573  0.2600 -0.0551  0.5727
 6783TIP3    H120313   3.174   2.750   3.644 -0.4644 -1.1039  1.0630
 6783TIP3    H220314   3.148   2.712   3.500  0.7276  0.6682  0.3438
 6784TIP3   OH220315   4.365   5.976   2.329  0.2167  0.4013  0.6451
 6784TIP3    H120316   4.390   6.003   2.418  0.3960 -0.7757  0.9833
 6784TIP3    H220317   4.342   5.883   2.339  0.6936  0.1266 -0.6175
 6785TIP3   OH220318   5.752   1.884   5.178  0.4498 -0.1951 -0.1048
 6785TIP3    H120319   5.796   1.920   5.256  2.5629 -0.8932 -0.9054
 6785TIP3    H220320   5.774   1.791   5.179 -0.9651 -0.5507 -0.6199
 6786TIP3   OH220321   6.484   2.032   4.562 -0.4048  0.5772  0.3531
 6786TIP3    H120322   6.513   1.944   4.585 -0.4165  0.6263  0.5556
 6786TIP3    H220323   6.419   2.054   4.629  0.0464  0.9819  0.6589
 6787TIP3   OH220324   3.573   5.073   2.118  0.5070  0.1423 -0.1340
 6787TIP3    H120325   3.507   5.128   2.076 -0.2169  2.0884  3.1413
 6787TIP3    H220326   3.656   5.113   2.093  0.2753 -0.2431 -1.5888
 6788TIP3   OH220327   1.724   4.323   2.251 -0.0419  0.6113  0.4752
 6788TIP3    H120328   1.801   4.376   2.230  0.0212  0.1159 -0.6351
 6788TIP3    H220329   1.668   4.381   2.303  0.8879  1.1102  0.9399
 6789TIP3   OH220330   0.590   3.453   0.950 -0.1496  0.3173  0.8747
 6789TIP3    H120331   0.540   3.506   0.888 -0.1528  1.0097  1.4533
 6789TIP3    H220332   0.635   3.388   0.896 -1.7547 -0.4081  0.3414
 6790TIP3   OH220333   0.229   0.606   2.935 -0.5207  0.1416 -0.1287
 6790TIP3    H120334   0.161   0.672   2.944 -1.5153 -0.8316 -0.2591
 6790TIP3    H220335   0.224   0.556   3.016  0.2339  0.2333 -0.0230
 6791TIP3   OH220336   4.491   3.825   2.437 -0.2438 -0.1155 -0.0962
 6791TIP3    H120337   4.487   3.733   2.412  1.1560 -0.8744  2.2513
 6791TIP3    H220338   4.405   3.843   2.476 -0.4183 -0.4736 -0.3062
 6792TIP3   OH220339   3.329   3.649   1.401  0.4193 -0.5870  0.2769
 6792TIP3    H120340   3.417   3.616   1.381  0.1049 -1.1461 -0.2472
 6792TIP3    H220341   3.332   3.741   1.377  1.0758 -0.4209  0.9640
 6793TIP3   OH220342   6.655   2.845   0.446 -0.2126 -0.4740  0.4337
 6793TIP3    H120343   6.741   2.868   0.482  0.8671  0.1804 -2.3218
 6793TIP3    H220344   6.649   2.750   0.458  0.0615 -0.2896  2.2691
 6794TIP3   OH220345   4.053   0.127   0.740 -0.3863  0.6145 -0.2097
 6794TIP3    H120346   4.113   0.196   0.770  0.7102 -0.8888  1.2742
 6794TIP3    H220347   4.101   0.046   0.756 -1.2692 -0.4916 -2.7588
 6795TIP3   OH220348   1.666   1.823   5.094  0.0987 -0.0881 -0.3965
 6795TIP3    H120349   1.752   1.784   5.074 -0.2216  0.5503 -3.6025
 6795TIP3    H220350   1.612   1.749   5.122  0.9279 -1.0302 -1.2067
 6796TIP3   OH220351   1.114   0.084   2.465  0.2343  0.5164 -0.2231
 6796TIP3    H120352   1.175   0.081   2.391  0.3978  0.7553 -0.0968
 6796TIP3    H220353   1.033   0.047   2.430  0.5233 -0.0350 -0.3255
 6797TIP3   OH220354   5.197   2.226   3.291 -0.4367 -0.7313  0.0897
 6797TIP3    H120355   5.253   2.149   3.296  1.1102  0.4356  1.9878
 6797TIP3    H220356   5.109   2.190   3.275  0.3952 -2.7898 -0.1658
 6798TIP3   OH220357   5.587   2.327   5.255 -0.2005  0.4999 -0.1097
 6798TIP3    H120358   5.505   2.331   5.304 -0.0913 -2.0565  0.4255
 6798TIP3    H220359   5.652   2.367   5.312 -0.9682  2.3242 -0.4389
 6799TIP3   OH220360   2.421   0.423   3.240  0.2356  0.0523 -0.0916
 6799TIP3    H120361   2.511   0.442   3.213  1.4862  0.4118  3.7472
 6799TIP3    H220362   2.430   0.355   3.307 -2.5016 -0.7160 -0.3857
 6800TIP3   OH220363   5.856   2.509   0.909  0.0583  0.1215  0.2235
 6800TIP3    H120364   5.799   2.574   0.951 -0.8451  0.0544 -0.8568
 6800TIP3    H220365   5.869   2.442   0.977  0.2297  0.9552  1.0353
 6801TIP3   OH220366   1.706   0.372   0.789  0.5152 -1.2644 -0.4623
 6801TIP3    H120367   1.738   0.405   0.705  1.9384 -3.3812 -0.8477
 6801TIP3    H220368   1.686   0.280   0.772 -0.8019 -1.3173  1.1398
 6802TIP3   OH220369   3.833   1.720   0.896 -0.2405  0.4019 -0.0435
 6802TIP3    H120370   3.738   1.715   0.912 -0.1232 -1.5411  0.4049
 6802TIP3    H220371   3.857   1.809   0.921 -1.7140  0.4724  1.3330
 6803TIP3   OH220372   2.861   0.242   4.108  0.1410 -0.1066  0.6987
 6803TIP3    H120373   2.890   0.317   4.161  2.4634 -0.8064  0.4994
 6803TIP3    H220374   2.874   0.166   4.165 -1.1929 -0.5015  0.5155
 6804TIP3   OH220375   4.384   1.583   4.288  0.6414 -0.1110 -0.3125
 6804TIP3    H120376   4.409   1.671   4.317 -0.7455  0.3820 -0.5354
 6804TIP3    H220377   4.289   1.585   4.285  0.6008 -0.2076 -4.5584
 6805TIP3   OH220378   2.107   3.913   4.584 -0.2255  0.3040  0.1322
 6805TIP3    H120379   2.185   3.956   4.548 -0.2224  2.1875  2.1695
 6805TIP3    H220380   2.059   3.882   4.507  2.1316 -0.2472 -1.2107
 6806TIP3   OH220381   6.231   1.247   1.906 -0.1666 -0.5091  0.4400
 6806TIP3    H120382   6.277   1.191   1.843 -2.6364  1.1237 -3.1114
 6806TIP3    H220383   6.298   1.308   1.937  1.7521 -3.0279  1.7161
 6807TIP3   OH220384   4.505   4.160   2.634  0.3703 -0.0224 -0.5849
 6807TIP3    H120385   4.521   4.199   2.720 -0.2510 -0.3976 -0.2975
 6807TIP3    H220386   4.511   4.234   2.573 -1.5581  0.6927  0.0254
 6808TIP3   OH220387   1.792   0.478   0.083 -0.2728  0.1068 -0.6801
 6808TIP3    H120388   1.854   0.406   0.094 -0.8322 -0.3172 -0.1913
 6808TIP3    H220389   1.734   0.449   0.013 -1.2489 -0.4786  0.3396
 6809TIP3   OH220390   4.515   6.318   3.468  0.0588  0.2400 -0.0245
 6809TIP3    H120391   4.478   6.283   3.387  1.7675 -0.0732 -0.7064
 6809TIP3    H220392   4.572   6.248   3.501  1.0355  1.1655  0.2992
 6810TIP3   OH220393   0.190   5.357   2.807 -0.4195  0.0017  0.1914
 6810TIP3    H120394   0.156   5.344   2.895 -1.3860  0.4988 -0.1037
 6810TIP3    H220395   0.134   5.424   2.768  0.3074  0.1537 -0.6324
 6811TIP3   OH220396   4.202   1.739   2.644  0.8702 -0.1037 -0.4240
 6811TIP3    H120397   4.291   1.760   2.615  0.9617 -1.5869 -1.3380
 6811TIP3    H220398   4.214   1.704   2.733  1.1090  0.3707 -0.2649
 6812TIP3   OH220399   6.417   3.159   4.910 -0.3001 -0.3467  0.3238
 6812TIP3    H120400   6.364   3.186   4.985  1.1721  2.2543  0.5540
 6812TIP3    H220401   6.355   3.149   4.839 -1.2735  1.4564  0.8599
 6813TIP3   OH220402   1.613   0.162   3.249 -0.0490  0.0321  0.4383
 6813TIP3    H120403   1.693   0.123   3.282 -0.5648 -0.4221  1.1710
 6813TIP3    H220404   1.543   0.108   3.285 -0.6472 -0.6416 -1.5647
 6814TIP3   OH220405   2.555   6.450   1.641 -0.1788 -0.1286  0.5262
 6814TIP3    H120406   2.580   6.473   1.730 -1.3743  0.4833  0.7340
 6814TIP3    H220407   2.583   6.525   1.588  0.3825 -0.4175  0.4144
 6815TIP3   OH220408   6.889   6.180   3.438  0.1362  0.0749 -0.2609
 6815TIP3    H120409   6.847   6.164   3.522  0.0872 -0.7288 -0.4363
 6815TIP3    H220410   6.948   6.106   3.426 -1.1210 -0.7302 -1.7319
 6816TIP3   OH220411   4.743   5.407   2.734  0.3601 -0.4632  1.0462
 6816TIP3    H120412   4.796   5.465   2.679  0.2107 -0.5567  0.8015
 6816TIP3    H220413   4.801   5.382   2.805  0.9337 -1.2699  0.3043
 6817TIP3   OH220414   4.209   0.671   0.763 -0.1091  0.0605 -0.1555
 6817TIP3    H120415   4.134   0.729   0.747 -1.3986 -1.2664  0.8455
 6817TIP3    H220416   4.239   0.646   0.676 -2.1760 -1.0142 -0.6346
 6818TIP3   OH220417   2.648   4.400   0.009  0.1500  0.2258  0.3894
 6818TIP3    H120418   2.561   4.366  -0.012  0.9429 -1.4895 -0.3125
 6818TIP3    H220419   2.658   4.383   0.102 -0.6552  1.4280  0.7246
 6819TIP3   OH220420   5.027   5.062   2.232  1.0125 -0.2784 -0.3568
 6819TIP3    H120421   5.052   4.985   2.283 -0.7302 -0.2507  0.6187
 6819TIP3    H220422   4.960   5.030   2.172  0.9530  0.2833 -0.5932
 6820TIP3   OH220423   1.822   1.200   4.709 -0.3708  0.2688 -0.3467
 6820TIP3    H120424   1.895   1.263   4.711 -0.4043  0.3314 -0.9241
 6820TIP3    H220425   1.796   1.197   4.617 -0.7102 -0.2048 -0.2363
 6821TIP3   OH220426   1.005   3.376   4.160 -0.0065  0.2242 -0.0125
 6821TIP3    H120427   0.998   3.351   4.068  2.9304 -1.4116  0.0866
 6821TIP3    H220428   1.031   3.468   4.157  0.2399  0.1399 -0.8328
 6822TIP3   OH220429   6.135   6.269   4.006 -0.4362 -0.6696 -0.1369
 6822TIP3    H120430   6.125   6.232   4.093  0.6676 -1.0708 -0.1636
 6822TIP3    H220431   6.101   6.358   4.014 -1.9203 -1.2364  0.2526
 6823TIP3   OH220432   5.766   6.625   0.976  0.4041 -0.4622  0.6900
 6823TIP3    H120433   5.775   6.705   0.924  2.6813 -0.1146  1.5120
 6823TIP3    H220434   5.672   6.611   0.981  0.0336 -0.1314 -2.8933
 6824TIP3   OH220435   4.464   2.887   0.476 -0.6702  0.3902 -0.1100
 6824TIP3    H120436   4.520   2.959   0.448 -1.7005  0.9587 -0.7933
 6824TIP3    H220437   4.501   2.858   0.559  0.1892  1.2226 -0.1868
 6825TIP3   OH220438   1.610   3.730   2.809 -0.0664 -0.0595 -0.3776
 6825TIP3    H120439   1.539   3.792   2.826  1.0594  0.8033  1.4413
 6825TIP3    H220440   1.603   3.666   2.879 -1.0460 -1.9480 -2.0846
 6826TIP3   OH220441   1.282   2.798   2.971  0.5934  0.4341  0.1878
 6826TIP3    H120442   1.223   2.836   2.905  2.3045  1.3372 -0.8973
 6826TIP3    H220443   1.275   2.858   3.045 -2.2602 -1.2357  1.4165
 6827TIP3   OH220444   4.555   3.954   3.490 -0.1455 -0.5918 -0.3687
 6827TIP3    H120445   4.484   4.010   3.521 -0.4430 -1.3318  0.3239
 6827TIP3    H220446   4.583   3.906   3.568 -0.0466 -1.5585 -0.9818
 6828TIP3   OH220447   2.521   6.295   3.614  0.3321  0.5816 -0.0054
 6828TIP3    H120448   2.527   6.275   3.521  2.0990 -0.5625  0.3043
 6828TIP3    H220449   2.490   6.385   3.617 -1.3125  0.1177 -1.6398
 6829TIP3   OH220450   5.819   4.772   5.677 -0.0645  0.2189 -1.0934
 6829TIP3    H120451   5.886   4.840   5.678  1.2465 -1.0179 -0.3535
 6829TIP3    H220452   5.739   4.817   5.652  1.1097  1.6868 -2.3989
 6830TIP3   OH220453   5.666   2.326   0.461 -0.0194 -0.1834  0.1382
 6830TIP3    H120454   5.682   2.241   0.419 -0.6155 -0.4622  0.4606
 6830TIP3    H220455   5.753   2.366   0.467 -0.0463  0.5335 -2.7293
 6831TIP3   OH220456   5.102   4.265   4.994  0.1921 -0.0202  0.3822
 6831TIP3    H120457   5.101   4.169   4.998  0.2024 -0.2246 -2.5390
 6831TIP3    H220458   5.188   4.287   4.957  0.4175  1.2007  1.5383
 6832TIP3   OH220459   4.450   6.404   3.737  0.2805  0.1110  0.3940
 6832TIP3    H120460   4.472   6.399   3.644  0.7724  0.9020  0.4560
 6832TIP3    H220461   4.528   6.372   3.782  0.4611  0.7389  0.5506
 6833TIP3   OH220462   3.269   6.402   5.790  0.2878  0.3232 -0.2472
 6833TIP3    H120463   3.279   6.323   5.736  0.5934  0.7202 -0.7841
 6833TIP3    H220464   3.175   6.422   5.786 -0.2240 -1.3349  1.8226
 6834TIP3   OH220465   1.924   4.576   2.460  0.4289  0.4854  0.0503
 6834TIP3    H120466   1.829   4.567   2.451  0.4009 -0.4396  1.0995
 6834TIP3    H220467   1.937   4.596   2.553  1.1873  1.9473 -0.3425
 6835TIP3   OH220468   4.941   4.370   4.752 -0.2091  0.3598 -0.4153
 6835TIP3    H120469   4.988   4.287   4.756  1.6410  1.3722  1.6675
 6835TIP3    H220470   4.851   4.349   4.777  0.4376 -0.9174  0.9837
 6836TIP3   OH220471   2.343   6.222   5.758  0.0867 -0.2030 -0.0980
 6836TIP3    H120472   2.378   6.220   5.847 -0.6185  0.4789  0.1995
 6836TIP3    H220473   2.411   6.266   5.707  0.7315 -1.0780 -0.0122
 6837TIP3   OH220474   3.807   4.866   4.991 -0.0412 -0.0851 -0.0029
 6837TIP3    H120475   3.722   4.902   4.965 -0.0288 -0.7031 -0.9575
 6837TIP3    H220476   3.868   4.939   4.983 -0.0119 -0.2728 -1.9042
 6838TIP3   OH220477   0.817   3.663   3.024 -0.0669  0.5059  0.1483
 6838TIP3    H120478   0.823   3.573   3.056 -0.7162  1.3020  2.6940
 6838TIP3    H220479   0.870   3.663   2.944 -0.9421 -2.3641 -0.5347
 6839TIP3   OH220480   3.293   5.409   3.295  0.1339  0.3822 -0.2382
 6839TIP3    H120481   3.260   5.474   3.358 -0.7269  0.7170 -0.9938
 6839TIP3    H220482   3.214   5.381   3.248  0.6935 -0.2229 -0.8227
 6840TIP3   OH220483   1.676   1.044   1.687 -0.2358 -0.9218  0.1573
 6840TIP3    H120484   1.664   1.085   1.773  0.5712 -0.8894  0.2685
 6840TIP3    H220485   1.589   1.013   1.663 -0.3380 -1.6527  1.3587
 6841TIP3   OH220486   1.892   4.410   5.648  0.2218 -0.2177  0.2063
 6841TIP3    H120487   1.903   4.322   5.613 -0.3567 -0.4426  0.5613
 6841TIP3    H220488   1.801   4.433   5.626  1.5410  2.0422 -3.7226
 6842TIP3   OH220489   5.384   0.728   5.454 -0.0974  0.1776 -0.1580
 6842TIP3    H120490   5.479   0.720   5.461 -0.3462 -2.1949  1.8531
 6842TIP3    H220491   5.355   0.745   5.544 -1.5920  0.6326 -0.7061
 6843TIP3   OH220492   0.438   0.323   3.139 -0.0508  0.0040  0.0363
 6843TIP3    H120493   0.425   0.265   3.214  0.7789  0.1430  0.2899
 6843TIP3    H220494   0.490   0.395   3.173  1.6603 -0.6738 -0.9992
 6844TIP3   OH220495   3.121   3.182   2.555  0.3361  0.4132 -0.4365
 6844TIP3    H120496   3.084   3.094   2.559 -1.5490  1.0744 -1.6581
 6844TIP3    H220497   3.057   3.237   2.601 -0.1462  1.5620 -2.3462
 6845TIP3   OH220498   1.144   4.191   2.430  0.0654 -0.5050 -0.0870
 6845TIP3    H120499   1.214   4.251   2.456  0.6091 -0.5732 -1.3015
 6845TIP3    H220500   1.141   4.198   2.334 -3.0020  1.0751 -0.0215
 6846TIP3   OH220501   5.338   0.968   3.447 -0.0396  0.3356 -0.2204
 6846TIP3    H120502   5.378   0.977   3.534 -0.4193 -0.5001  0.0520
 6846TIP3    H220503   5.333   0.874   3.433  0.2604  0.4669 -1.2729
 6847TIP3   OH220504   1.872   0.365   2.858  0.2779  0.1511  0.2528
 6847TIP3    H120505   1.786   0.403   2.845 -0.3286 -1.2906 -0.2013
 6847TIP3    H220506   1.855   0.283   2.905  1.2786 -0.6599 -0.7448
 6848TIP3   OH220507   2.671   6.141   1.082 -0.2504  0.1275  0.1066
 6848TIP3    H120508   2.745   6.087   1.107 -0.3140  0.2598  0.6002
 6848TIP3    H220509   2.677   6.149   0.987 -0.0535 -0.4666  0.0670
 6849TIP3   OH220510   3.589   3.410   2.805  0.0956 -0.5400 -0.0909
 6849TIP3    H120511   3.643   3.351   2.753  0.1893 -0.8941  0.4031
 6849TIP3    H220512   3.634   3.494   2.799  0.0212 -0.5368 -0.7037
 6850TIP3   OH220513   1.041   6.072   5.822 -0.0824 -0.0622  0.0810
 6850TIP3    H120514   0.949   6.067   5.847 -0.3353  1.4178 -0.4451
 6850TIP3    H220515   1.043   6.134   5.749  1.5581  1.5682  1.4160
 6851TIP3   OH220516   1.001   0.767   3.835  0.2436 -0.1012  0.1764
 6851TIP3    H120517   1.047   0.790   3.916  1.8439 -0.5438 -0.5598
 6851TIP3    H220518   1.059   0.704   3.792  0.5767  1.8135 -2.3933
 6852TIP3   OH220519   0.351   0.563   0.210 -0.0639 -0.3153  0.3237
 6852TIP3    H120520   0.439   0.585   0.241 -0.1663  2.2212 -0.9376
 6852TIP3    H220521   0.299   0.641   0.232 -2.1151 -1.8868  1.3379
 6853TIP3   OH220522   5.852   6.101   2.520  0.2279  0.1323 -0.3645
 6853TIP3    H120523   5.931   6.049   2.507  0.0636 -0.3223  0.3590
 6853TIP3    H220524   5.825   6.127   2.432  2.2534  1.9308 -0.5296
 6854TIP3   OH220525   6.966   6.535   0.264 -0.1952  0.0869 -0.3867
 6854TIP3    H120526   7.058   6.520   0.240  0.2161  1.3448  0.3147
 6854TIP3    H220527   6.917   6.502   0.189  0.7912 -1.0593 -0.5747
 6855TIP3   OH220528   2.036   6.629   2.615  0.0917  0.6881 -0.0938
 6855TIP3    H120529   2.112   6.684   2.599 -0.0429  1.3530  1.3858
 6855TIP3    H220530   2.059   6.543   2.579  1.1296  1.1474 -0.5463
 6856TIP3   OH220531   2.737   3.239   1.717  0.4769  0.2116 -0.3927
 6856TIP3    H120532   2.793   3.307   1.680  2.2265 -2.1340 -2.3231
 6856TIP3    H220533   2.797   3.173   1.749 -1.1824 -1.1389  0.0863
 6857TIP3   OH220534   3.593   5.752   0.574 -0.1317  0.2207  0.2821
 6857TIP3    H120535   3.600   5.825   0.512 -2.8678 -1.0947 -1.7463
 6857TIP3    H220536   3.679   5.748   0.616  2.0574  0.9517 -3.6891
 6858TIP3   OH220537   3.313   1.549   3.770 -0.2268  0.5368 -0.5106
 6858TIP3    H120538   3.389   1.576   3.718  0.3129  0.9833  0.4790
 6858TIP3    H220539   3.350   1.503   3.845 -0.8989  1.0133  0.1340
 6859TIP3   OH220540   0.090   2.267   1.548  0.2484 -0.3142  0.1423
 6859TIP3    H120541   0.150   2.277   1.622  0.3046  0.7812 -0.0311
 6859TIP3    H220542   0.005   2.252   1.588 -0.2134  2.7857  0.5768
 6860TIP3   OH220543   1.715   4.694   4.430 -0.7654  0.5484  0.2510
 6860TIP3    H120544   1.695   4.777   4.474 -1.2916  1.2782 -1.2907
 6860TIP3    H220545   1.714   4.716   4.337  3.4245 -0.1689 -0.1798
 6861TIP3   OH220546   0.625   3.726   5.585  0.5064 -0.1571 -0.4047
 6861TIP3    H120547   0.590   3.643   5.553  0.5979  0.2305 -1.5577
 6861TIP3    H220548   0.620   3.785   5.510  1.6151  0.5250  0.0258
 6862TIP3   OH220549   7.212   3.273   0.408 -0.4468  0.0103 -0.9197
 6862TIP3    H120550   7.214   3.268   0.503 -0.7880 -0.9020 -0.9535
 6862TIP3    H220551   7.144   3.337   0.388 -0.3592  0.2189 -0.5513
 6863TIP3   OH220552   0.500   1.737   0.889 -0.1116 -0.4843 -0.6372
 6863TIP3    H120553   0.480   1.650   0.856  1.4212 -1.0919 -0.0287
 6863TIP3    H220554   0.569   1.724   0.953 -0.6855  1.0457  0.3692
 6864TIP3   OH220555   2.393   5.946   1.248  0.6635 -0.1518 -0.3660
 6864TIP3    H120556   2.472   5.975   1.294  1.2280 -1.7037 -0.2745
 6864TIP3    H220557   2.414   5.857   1.218 -1.1268 -0.7052 -0.1316
 6865TIP3   OH220558   6.249   3.866   4.695 -0.4649 -0.0496 -0.0760
 6865TIP3    H120559   6.188   3.808   4.651  0.7008 -0.4118 -1.2949
 6865TIP3    H220560   6.289   3.917   4.624  1.3299 -0.5100  0.5451
 6866TIP3   OH220561   2.658   6.130   0.767 -0.5097  0.1811 -0.0660
 6866TIP3    H120562   2.608   6.157   0.690 -0.3223 -1.1530 -0.6731
 6866TIP3    H220563   2.633   6.038   0.781  1.0890 -0.2376  0.1603
 6867TIP3   OH220564   3.802   3.245   4.876 -0.2267  0.0619 -0.2781
 6867TIP3    H120565   3.823   3.167   4.825 -2.9345 -0.9968  0.0415
 6867TIP3    H220566   3.729   3.285   4.829 -1.4824  0.1582  1.6438
 6868TIP3   OH220567   1.465   6.232   2.439 -0.3591 -0.3384 -0.0389
 6868TIP3    H120568   1.518   6.310   2.454 -0.9562 -0.2642  1.9622
 6868TIP3    H220569   1.526   6.168   2.402  0.7189  0.2985  0.6093
 6869TIP3   OH220570   1.108   2.440   0.859 -0.0556 -0.9252 -0.4654
 6869TIP3    H120571   1.195   2.414   0.890 -0.0161  0.2550  0.4904
 6869TIP3    H220572   1.049   2.411   0.928  0.0301  1.7328  0.8187
 6870TIP3   OH220573   0.806   4.906   0.620  0.0526  0.4169  0.3095
 6870TIP3    H120574   0.831   4.893   0.529 -0.8737  2.1309 -0.2294
 6870TIP3    H220575   0.807   4.818   0.658 -3.4850 -1.0638 -2.3884
 6871TIP3   OH220576   4.774   3.484   5.687  0.1943  0.0218  0.2591
 6871TIP3    H120577   4.829   3.528   5.753 -0.0468  0.0952  0.4143
 6871TIP3    H220578   4.696   3.459   5.736 -0.0037  0.1165 -0.0141
 6872TIP3   OH220579   2.125   2.235   3.300  0.1819 -0.4199  0.4315
 6872TIP3    H120580   2.183   2.304   3.269 -1.2587  1.5298  1.8593
 6872TIP3    H220581   2.087   2.198   3.220  0.7650  0.6351 -0.3518
 6873TIP3   OH220582   3.808   3.708   3.297  0.1297  0.0307 -0.1457
 6873TIP3    H120583   3.810   3.803   3.297 -2.0256  0.2351  3.1635
 6873TIP3    H220584   3.764   3.685   3.215 -1.0333  2.0162 -0.1438
 6874TIP3   OH220585   6.769   6.600   0.900 -0.1081 -0.4800  0.5189
 6874TIP3    H120586   6.810   6.662   0.839  0.3315  0.9635  2.1791
 6874TIP3    H220587   6.723   6.656   0.963  1.2371 -1.7196  2.7527
 6875TIP3   OH220588   1.048   5.937   4.090  0.3317  0.3929 -0.1173
 6875TIP3    H120589   1.004   5.859   4.124  0.1596  1.3128  1.9112
 6875TIP3    H220590   1.104   5.904   4.019 -1.0681 -1.2810 -0.5088
 6876TIP3   OH220591   2.833   0.755   3.477 -0.2435  0.1848  0.1269
 6876TIP3    H120592   2.782   0.684   3.516 -0.4610  0.7581  0.9100
 6876TIP3    H220593   2.901   0.712   3.427  0.4001 -0.5789  1.6101
 6877TIP3   OH220594   4.305   1.796   3.016  0.0055  0.3127  0.2657
 6877TIP3    H120595   4.370   1.859   3.046 -0.2401 -0.2962  2.2409
 6877TIP3    H220596   4.357   1.726   2.976  0.4804  0.4461  0.6338
 6878TIP3   OH220597   4.903   4.113   2.162 -0.3941  0.0617 -0.1260
 6878TIP3    H120598   4.808   4.120   2.166 -0.3682  0.8149 -0.6972
 6878TIP3    H220599   4.930   4.184   2.104  0.6299  0.6867  1.0786
 6879TIP3   OH220600   6.559   5.475   1.384 -0.3818  0.9302 -0.1247
 6879TIP3    H120601   6.649   5.465   1.351 -0.4850  1.2347 -0.4961
 6879TIP3    H220602   6.567   5.459   1.478 -0.4683 -2.5005 -0.5529
 6880TIP3   OH220603   1.110   2.979   4.340 -0.5382  0.4271  0.2410
 6880TIP3    H120604   1.184   2.919   4.344 -0.2765  0.8163  1.5625
 6880TIP3    H220605   1.148   3.063   4.314 -0.7612  0.2702 -0.6297
 6881TIP3   OH220606   5.495   3.421   3.605 -0.3487  0.0319 -0.5886
 6881TIP3    H120607   5.502   3.508   3.644 -0.7522  0.5602 -1.6726
 6881TIP3    H220608   5.544   3.427   3.523 -2.2001 -0.0988 -1.7574
 6882TIP3   OH220609   6.303   0.999   3.572 -0.1171 -0.5151  0.1933
 6882TIP3    H120610   6.289   1.029   3.482  1.3850 -0.0144  0.1031
 6882TIP3    H220611   6.392   1.027   3.593  0.5363 -2.8924  0.9217
 6883TIP3   OH220612   0.689   6.268   4.919  0.0791  0.1847  0.3090
 6883TIP3    H120613   0.597   6.295   4.912  0.8797  3.6414  1.3604
 6883TIP3    H220614   0.731   6.307   4.843  0.7356 -1.3042 -0.1135
 6884TIP3   OH220615   1.465   3.347   1.209  0.0339  0.1072 -0.0071
 6884TIP3    H120616   1.386   3.370   1.257 -0.7979 -2.0826 -0.2416
 6884TIP3    H220617   1.535   3.352   1.274 -0.2093  2.1626  0.1747
 6885TIP3   OH220618   0.171   5.240   3.690  0.0022  0.3950 -0.0131
 6885TIP3    H120619   0.210   5.233   3.603  1.3844  0.5274  0.5724
 6885TIP3    H220620   0.165   5.150   3.722 -2.7108  0.1056 -1.1402
 6886TIP3   OH220621   1.901   3.864   3.577 -0.3300  0.1341  0.0490
 6886TIP3    H120622   1.914   3.783   3.527 -0.4601 -0.3162  0.7324
 6886TIP3    H220623   1.990   3.893   3.599 -0.3046 -0.2199  0.4232
 6887TIP3   OH220624   0.801   0.843   2.249 -0.3134  0.4453 -0.0123
 6887TIP3    H120625   0.871   0.778   2.241 -1.4757 -0.6729 -1.8241
 6887TIP3    H220626   0.741   0.806   2.313  0.4065  1.1361  1.1076
 6888TIP3   OH220627   1.748   5.640   2.636  0.1540 -0.2678  0.3637
 6888TIP3    H120628   1.835   5.624   2.672 -0.1629  0.2379  1.3986
 6888TIP3    H220629   1.728   5.560   2.586  0.4958 -1.1510  1.5863
 6889TIP3   OH220630   4.608   6.433   0.502  0.3852 -1.0375 -0.2310
 6889TIP3    H120631   4.574   6.508   0.550 -0.5074  0.0715 -2.4468
 6889TIP3    H220632   4.703   6.444   0.502  0.2524  0.1978 -0.6882
 6890TIP3   OH220633   3.523   3.559   2.497 -0.1419 -0.1255  0.2870
 6890TIP3    H120634   3.597   3.511   2.460 -0.5422  0.9592 -2.1505
 6890TIP3    H220635   3.457   3.492   2.514  0.5041 -0.8098  0.1307
 6891TIP3   OH220636   6.702   4.382   0.183  0.6210  1.0236  0.4257
 6891TIP3    H120637   6.657   4.455   0.140  1.2540  1.8130  1.0651
 6891TIP3    H220638   6.687   4.396   0.277 -2.2382 -1.6353  0.5362
 6892TIP3   OH220639   1.904   4.542   0.674  0.4658 -0.4041  0.1285
 6892TIP3    H120640   1.934   4.469   0.729 -1.3710 -1.0463  0.3630
 6892TIP3    H220641   1.852   4.596   0.733  1.6108  0.9983 -0.1116
 6893TIP3   OH220642   3.161   6.569   5.508 -0.1105 -0.3440  0.5189
 6893TIP3    H120643   3.066   6.564   5.521  0.0143 -1.3229  1.1800
 6893TIP3    H220644   3.175   6.652   5.461 -1.3165 -0.3609  0.1018
 6894TIP3   OH220645   6.302   4.725   2.944 -0.0781 -0.1571 -0.0439
 6894TIP3    H120646   6.312   4.631   2.928  2.9170  0.3521 -1.9643
 6894TIP3    H220647   6.231   4.752   2.885  0.2127 -0.9529 -0.7803
 6895TIP3   OH220648   6.125   6.419   0.493 -0.4631 -0.2884  0.4628
 6895TIP3    H120649   6.217   6.402   0.512 -0.5787 -0.8406  0.5267
 6895TIP3    H220650   6.076   6.358   0.549 -0.8374 -0.8770 -0.4742
 6896TIP3   OH220651   1.159   2.159   3.420 -0.2623  0.7536  0.3310
 6896TIP3    H120652   1.226   2.101   3.457 -0.9378  0.5649  1.2911
 6896TIP3    H220653   1.172   2.152   3.326  1.0036  0.6425  0.4896
 6897TIP3   OH220654   4.552   1.956   3.103  0.3067 -0.0886 -0.3964
 6897TIP3    H120655   4.549   2.032   3.045 -1.0712 -0.9463 -1.5207
 6897TIP3    H220656   4.530   1.991   3.189  0.1928  0.8620 -0.7948
 6898TIP3   OH220657   2.851   6.393   5.768  0.8507  0.2599 -0.0044
 6898TIP3    H120658   2.863   6.298   5.763 -0.1094  0.0305  1.4732
 6898TIP3    H220659   2.888   6.417   5.853  1.0251  1.2090 -0.3373
 6899TIP3   OH220660   4.810   5.687   5.410 -0.1672 -0.5743 -0.0390
 6899TIP3    H120661   4.853   5.625   5.351  2.2517 -0.4259  1.4451
 6899TIP3    H220662   4.773   5.633   5.479 -1.7089 -0.6198 -0.8435
 6900TIP3   OH220663   4.335   2.332   2.805 -0.4748  0.2862  0.1796
 6900TIP3    H120664   4.272   2.259   2.806  1.2761 -1.3005  0.2018
 6900TIP3    H220665   4.328   2.369   2.717 -1.3151  0.0487  0.1339
 6901TIP3   OH220666   4.215   4.674   1.002 -0.0900 -0.2051 -0.0390
 6901TIP3    H120667   4.275   4.675   1.077 -0.1584 -1.2666  0.0585
 6901TIP3    H220668   4.238   4.751   0.951 -1.6170  1.9669  2.2652
 6902TIP3   OH220669   6.765   1.076   1.453  0.8565  0.3909  0.1927
 6902TIP3    H120670   6.733   0.986   1.450  1.6135  0.1344 -0.8134
 6902TIP3    H220671   6.769   1.097   1.546 -1.3845  0.1525  0.3903
 6903TIP3   OH220672   2.425   6.552   5.736  0.3984  0.1862  0.3074
 6903TIP3    H120673   2.511   6.558   5.778  0.3433 -0.0544  0.4527
 6903TIP3    H220674   2.363   6.575   5.805  0.3223  0.0114  0.2976
 6904TIP3   OH220675   6.250   4.800   2.374  0.3165 -0.2797  0.5490
 6904TIP3    H120676   6.315   4.750   2.423  0.1663 -1.2674 -0.2198
 6904TIP3    H220677   6.225   4.742   2.301 -1.8082 -0.1581  1.1063
 6905TIP3   OH220678   3.044   2.429   1.730 -0.1658 -0.0251  0.6490
 6905TIP3    H120679   3.139   2.438   1.742 -0.2787  0.1982  1.4462
 6905TIP3    H220680   3.032   2.339   1.700  0.3478  0.1337 -0.0398
 6906TIP3   OH220681   2.548   5.243   5.225 -0.3548 -0.6475  0.2469
 6906TIP3    H120682   2.641   5.225   5.239  0.0168  1.5597  1.1242
 6906TIP3    H220683   2.504   5.160   5.239  1.2686 -1.2181  2.2937
 6907TIP3   OH220684   2.984   6.057   3.625  0.3958 -0.1101  0.4321
 6907TIP3    H120685   2.924   5.984   3.610  1.2208 -0.9526  1.0949
 6907TIP3    H220686   3.060   6.017   3.667  0.4221  1.2956  1.8240
 6908TIP3   OH220687   1.067   1.442   2.510  0.2360 -0.3183  0.0285
 6908TIP3    H120688   0.976   1.454   2.483 -0.4851  2.0204  2.9434
 6908TIP3    H220689   1.118   1.489   2.444 -0.8220 -0.1288 -0.6764
 6909TIP3   OH220690   4.650   0.087   1.954 -0.0941 -0.4520 -0.0448
 6909TIP3    H120691   4.582   0.111   2.017 -0.9547  1.1887 -1.5177
 6909TIP3    H220692   4.730   0.081   2.005 -1.0049 -0.5280  1.4103
 6910TIP3   OH220693   0.828   0.877   4.881 -0.1341 -0.1540  0.5696
 6910TIP3    H120694   0.840   0.919   4.796  1.5562  0.7379  1.2046
 6910TIP3    H220695   0.778   0.941   4.933 -2.9990 -1.5075 -0.2765
 6911TIP3   OH220696   4.851   1.451   1.480 -0.7822 -0.8866 -0.2827
 6911TIP3    H120697   4.845   1.442   1.575 -1.3554 -1.3146 -0.3572
 6911TIP3    H220698   4.876   1.364   1.449 -0.6043 -0.7496 -0.5235
 6912TIP3   OH220699   1.447   0.238   2.440  0.1580 -0.3057 -0.2847
 6912TIP3    H120700   1.384   0.166   2.450 -0.6274  0.2151 -1.2291
 6912TIP3    H220701   1.404   0.313   2.482 -0.4117  0.3392 -1.9095
 6913TIP3   OH220702   1.471   5.367   1.223 -0.4261  0.5918  0.9121
 6913TIP3    H120703   1.486   5.457   1.251  0.4424  1.1822 -1.2464
 6913TIP3    H220704   1.379   5.365   1.195 -0.1533  1.1520 -0.0834
 6914TIP3   OH220705   6.446   3.716   5.643 -0.2170  0.0374  0.4640
 6914TIP3    H120706   6.516   3.743   5.583 -0.6610  1.8300  0.6800
 6914TIP3    H220707   6.475   3.632   5.678  0.8659 -0.2243 -0.9570
 6915TIP3   OH220708   0.562   3.931   3.762  0.1792 -1.0305 -0.3446
 6915TIP3    H120709   0.555   4.001   3.696 -0.1763 -0.3652  0.3804
 6915TIP3    H220710   0.634   3.877   3.732  0.5546 -0.2640 -0.8553
 6916TIP3   OH220711   0.187   4.498   3.701 -0.6824  0.0074  0.1992
 6916TIP3    H120712   0.172   4.406   3.681  0.3472  0.0330 -0.7988
 6916TIP3    H220713   0.224   4.498   3.789 -0.5797 -0.5402  0.1612
 6917TIP3   OH220714   3.895   5.888   2.298 -0.1474 -0.3713 -0.0020
 6917TIP3    H120715   3.983   5.855   2.284 -0.5106 -1.8250  0.9463
 6917TIP3    H220716   3.878   5.872   2.391 -0.2138  2.9141  0.6713
 6918TIP3   OH220717   2.931   3.410   4.185  0.1958 -0.5514 -0.1564
 6918TIP3    H120718   2.894   3.423   4.097 -2.5019 -0.4494  0.9179
 6918TIP3    H220719   2.899   3.484   4.236 -1.0066 -2.2510  1.6898
 6919TIP3   OH220720   2.625   1.584   1.380 -0.5960  0.0715 -0.5838
 6919TIP3    H120721   2.548   1.630   1.348 -1.3015  0.9424  2.1296
 6919TIP3    H220722   2.590   1.514   1.435  0.5572 -0.8217 -0.9377
 6920TIP3   OH220723   5.888   0.960   5.711 -0.3348 -0.3927 -0.1521
 6920TIP3    H120724   5.868   1.052   5.691  1.8041  0.6189  1.7839
 6920TIP3    H220725   5.861   0.950   5.803 -0.3329 -1.6553 -0.2761
 6921TIP3   OH220726   1.063   2.579   3.153  0.0798  0.1839  0.7405
 6921TIP3    H120727   1.046   2.652   3.093  0.8642  0.8407  1.3033
 6921TIP3    H220728   1.087   2.507   3.095  1.2707  0.9349  0.2667
 6922TIP3   OH220729   4.815   1.108   4.863  0.5881  0.3539  0.0201
 6922TIP3    H120730   4.781   1.114   4.774 -0.9196  1.7996  0.6374
 6922TIP3    H220731   4.880   1.038   4.860 -0.7916 -0.9206 -1.7882
 6923TIP3   OH220732   3.081   5.816   2.599 -0.2923  0.1080  0.8128
 6923TIP3    H120733   2.996   5.799   2.641 -0.2089 -0.3775  0.7905
 6923TIP3    H220734   3.096   5.739   2.544 -0.4705  0.8018 -0.2286
 6924TIP3   OH220735   1.526   1.788   2.983  0.4359  0.2174  0.3616
 6924TIP3    H120736   1.499   1.696   2.989 -0.2870  0.4889  1.5014
 6924TIP3    H220737   1.517   1.809   2.890 -1.9579 -0.1197  0.4617
 6925TIP3   OH220738   4.151   1.175   5.082 -0.0776 -0.8820 -0.3076
 6925TIP3    H120739   4.231   1.142   5.122  0.9528  0.3162 -1.2985
 6925TIP3    H220740   4.090   1.102   5.087  1.3251 -2.0929 -0.2282
 6926TIP3   OH220741   2.754   2.349   0.130  0.5244  0.0773  0.0477
 6926TIP3    H120742   2.716   2.431   0.099  0.4446  0.0702  0.1288
 6926TIP3    H220743   2.731   2.285   0.063  0.8011  0.1725 -0.1441
 6927TIP3   OH220744   1.377   1.339   3.568 -0.0839  0.0970 -0.2675
 6927TIP3    H120745   1.290   1.378   3.566 -0.9063 -1.6371 -0.8598
 6927TIP3    H220746   1.437   1.413   3.577 -1.5512  1.4212 -0.9085
 6928TIP3   OH220747   2.219   0.834   2.338  0.2096 -0.4153  0.4051
 6928TIP3    H120748   2.193   0.742   2.327 -0.4380 -0.3064  0.9376
 6928TIP3    H220749   2.139   0.883   2.320  0.3135 -0.0107  1.0123
 6929TIP3   OH220750   2.827   3.929   3.290  0.1476 -0.1387  0.2825
 6929TIP3    H120751   2.742   3.958   3.256 -0.2119 -0.4220  0.9004
 6929TIP3    H220752   2.861   4.006   3.337 -1.4172 -0.9867  3.0667
 6930TIP3   OH220753   3.257   1.954   0.643  0.0122  0.5887 -0.2613
 6930TIP3    H120754   3.328   2.016   0.625 -0.2968  0.4942 -1.9931
 6930TIP3    H220755   3.274   1.923   0.732  2.0820  0.6298 -0.5941
 6931TIP3   OH220756   1.386   5.776   5.062  0.2219 -0.3554 -0.5026
 6931TIP3    H120757   1.457   5.811   5.116  0.2361 -0.1000 -0.6869
 6931TIP3    H220758   1.430   5.739   4.985  0.2659 -1.3909  0.0055
 6932TIP3   OH220759   2.981   1.405   3.223 -0.3842  0.4467  0.1551
 6932TIP3    H120760   2.980   1.352   3.143  0.4377  0.4343  0.1384
 6932TIP3    H220761   2.906   1.374   3.274 -2.0725  1.7511 -1.4277
 6933TIP3   OH220762   4.617   4.787   5.327  0.5310 -0.3710 -0.2823
 6933TIP3    H120763   4.604   4.795   5.232  2.0811 -1.4915 -0.6393
 6933TIP3    H220764   4.563   4.856   5.365 -0.4059 -0.1266 -1.9607
 6934TIP3   OH220765   3.983   0.795   3.450 -0.3079 -0.2335 -0.3985
 6934TIP3    H120766   3.959   0.755   3.534  0.0747 -0.9268 -0.6082
 6934TIP3    H220767   4.076   0.817   3.460 -0.3711  0.0703 -0.4907
 6935TIP3   OH220768   2.911   2.050   4.831 -0.0205 -0.4260 -0.0430
 6935TIP3    H120769   2.871   2.115   4.773  1.3403  0.0593 -0.4899
 6935TIP3    H220770   2.907   1.968   4.782 -0.2417 -0.3322 -0.1826
 6936TIP3   OH220771   3.388   6.087   0.734 -0.4648  0.0266  1.1648
 6936TIP3    H120772   3.400   6.163   0.677  0.7753 -1.0480 -0.1025
 6936TIP3    H220773   3.477   6.059   0.756 -0.8405 -1.6717  0.6871
 6937TIP3   OH220774   0.680   5.508   3.994 -0.3813  0.0116 -0.3002
 6937TIP3    H120775   0.632   5.583   4.031  0.1177  0.2965 -0.2171
 6937TIP3    H220776   0.667   5.516   3.900 -1.5370 -0.6338 -0.2130
 6938TIP3   OH220777   0.965   0.760   2.752  0.3526 -0.2389 -0.1868
 6938TIP3    H120778   1.058   0.782   2.756  0.3261 -0.2795  0.8904
 6938TIP3    H220779   0.962   0.678   2.703  0.8101  0.1052 -0.8109
 6939TIP3   OH220780   6.717   2.112   5.522  0.1022 -0.0990  0.3809
 6939TIP3    H120781   6.716   2.188   5.464  2.7196  1.3706  2.0270
 6939TIP3    H220782   6.733   2.037   5.464  1.3276  1.1311 -0.9667
 6940TIP3   OH220783   0.801   4.123   3.613  0.5335 -0.0511  0.1146
 6940TIP3    H120784   0.861   4.196   3.597 -0.3623  0.2837 -2.0011
 6940TIP3    H220785   0.854   4.045   3.594  1.6368 -0.1135  2.8303
 6941TIP3   OH220786   6.922   5.613   4.879  0.0244 -0.0107  0.5717
 6941TIP3    H120787   6.955   5.664   4.953 -1.1116  1.8519 -0.1349
 6941TIP3    H220788   6.874   5.676   4.826  1.3207 -1.1454 -2.1095
 6942TIP3   OH220789   5.346   3.911   2.844 -0.2925 -0.1668 -0.3155
 6942TIP3    H120790   5.368   3.830   2.799  0.6296  0.7312 -1.5688
 6942TIP3    H220791   5.334   3.886   2.935 -0.5580 -1.7804 -0.7725
 6943TIP3   OH220792   3.311   5.445   0.934 -0.3083 -0.0874  0.0687
 6943TIP3    H120793   3.263   5.492   0.867 -0.1803 -0.7439 -0.4878
 6943TIP3    H220794   3.257   5.453   1.013 -1.6518 -1.3455 -0.6927
 6944TIP3   OH220795   5.375   6.782   4.576 -0.1820  0.3507  0.3695
 6944TIP3    H120796   5.441   6.713   4.578 -1.5674 -1.0526 -0.5457
 6944TIP3    H220797   5.421   6.860   4.608  2.2111 -0.3059 -1.2001
 6945TIP3   OH220798   2.750   2.050   2.801  0.2753  0.1984  0.2506
 6945TIP3    H120799   2.732   1.980   2.738 -0.3285 -0.4376  1.1060
 6945TIP3    H220800   2.737   2.009   2.887  1.4532  0.9457  0.8047
 6946TIP3   OH220801   6.789   5.947   0.309 -0.3053 -0.1708 -0.4197
 6946TIP3    H120802   6.838   5.914   0.234 -1.4495  0.9277 -1.7285
 6946TIP3    H220803   6.778   6.040   0.290 -0.6534  0.1162  1.1129
 6947TIP3   OH220804   1.493   3.537   3.036  0.0962 -0.2311 -0.0916
 6947TIP3    H120805   1.466   3.445   3.035 -2.2452  0.3955  0.4089
 6947TIP3    H220806   1.421   3.584   2.995  1.1022  1.4412 -0.0375
 6948TIP3   OH220807   0.006   0.196   1.901 -0.7413  0.4273  0.3535
 6948TIP3    H120808   0.064   0.264   1.933 -2.3084  1.6486  0.6979
 6948TIP3    H220809   0.028   0.186   1.808  2.1380 -1.4025  1.0918
 6949TIP3   OH220810   6.239   0.240   3.919 -0.2160  0.8131  0.0722
 6949TIP3    H120811   6.188   0.205   3.991  1.1695 -0.8671  0.2966
 6949TIP3    H220812   6.197   0.324   3.898 -3.9590 -1.0513 -0.7864
 6950TIP3   OH220813   3.489   5.295   4.607 -0.2225  0.5592 -0.4752
 6950TIP3    H120814   3.476   5.248   4.525  2.2493  1.5763 -1.5698
 6950TIP3    H220815   3.443   5.242   4.673 -1.1416 -1.0144 -2.2758
 6951TIP3   OH220816   1.296   1.868   5.317  0.6955  0.0421  0.3721
 6951TIP3    H120817   1.277   1.860   5.223  1.0410 -0.8289  0.3682
 6951TIP3    H220818   1.283   1.779   5.351 -0.0355  0.4752  1.2714
 6952TIP3   OH220819   4.205   0.592   3.353 -0.4140  0.1857 -0.2821
 6952TIP3    H120820   4.195   0.669   3.297 -0.0626  0.9699  0.7089
 6952TIP3    H220821   4.270   0.618   3.417 -1.6859 -0.2523  1.2427
 6953TIP3   OH220822   0.165   1.008   0.797  0.1392  0.0236  0.2236
 6953TIP3    H120823   0.228   1.080   0.794 -0.4208  0.5040 -1.4157
 6953TIP3    H220824   0.082   1.049   0.822  0.5879 -0.7663  3.4117
 6954TIP3   OH220825   6.764   5.343   4.582  0.1076 -0.1239  0.1326
 6954TIP3    H120826   6.748   5.397   4.505  1.6182  0.9158  0.5070
 6954TIP3    H220827   6.835   5.284   4.556 -0.2734 -0.6751  0.3173
 6955TIP3   OH220828   3.627   3.183   1.737  0.1112 -0.6385  0.5175
 6955TIP3    H120829   3.622   3.236   1.817  0.0889 -0.1771  0.2096
 6955TIP3    H220830   3.673   3.238   1.674 -1.7346 -0.1528 -0.4772
 6956TIP3   OH220831   2.482   2.145   1.849 -0.5834  0.1146  0.5013
 6956TIP3    H120832   2.408   2.100   1.809 -0.0417  0.7892 -1.3457
 6956TIP3    H220833   2.559   2.099   1.816 -0.1077  0.7525  0.6908
 6957TIP3   OH220834   6.664   2.225   3.965  0.6288  0.0882 -0.0765
 6957TIP3    H120835   6.647   2.158   3.899 -0.5319  1.0262 -0.7627
 6957TIP3    H220836   6.759   2.229   3.971  0.7261 -1.6387  0.0219
 6958TIP3   OH220837   0.672   1.975   2.553 -0.6771  0.1854 -0.1934
 6958TIP3    H120838   0.724   1.929   2.487 -3.3245 -0.6829 -1.8398
 6958TIP3    H220839   0.653   2.060   2.513 -1.5764 -0.0109 -0.1994
 6959TIP3   OH220840   0.094   2.280   2.644  0.4456 -0.3543 -0.3044
 6959TIP3    H120841   0.184   2.292   2.676  0.0894 -0.1926  0.6841
 6959TIP3    H220842   0.051   2.228   2.712 -0.0564 -0.9461 -1.0514
 6960TIP3   OH220843   2.197   2.684   3.925  0.3276  0.4500 -0.5953
 6960TIP3    H120844   2.119   2.668   3.873  1.0078 -1.0430 -1.2395
 6960TIP3    H220845   2.240   2.598   3.930  2.7719  1.5108 -1.6800
 6961TIP3   OH220846   3.173   5.653   2.235  0.1383 -0.3000  0.0197
 6961TIP3    H120847   3.133   5.662   2.321  1.1111 -0.4847  0.5031
 6961TIP3    H220848   3.125   5.580   2.194  1.2321 -1.8599  1.3530
 6962TIP3   OH220849   7.082   5.190   2.922 -0.3059  0.4522  0.0927
 6962TIP3    H120850   7.150   5.203   2.988  2.1374 -0.5578 -2.0661
 6962TIP3    H220851   7.073   5.095   2.916 -1.2693  0.5601 -0.3324
 6963TIP3   OH220852   1.957   0.218   0.655  0.4823 -0.1357 -0.8634
 6963TIP3    H120853   1.878   0.185   0.613 -0.0666  1.2318 -0.9793
 6963TIP3    H220854   1.980   0.296   0.604  2.4571 -1.0022 -1.4129
 6964TIP3   OH220855   3.022   2.004   2.816 -0.0185  0.1819 -0.1283
 6964TIP3    H120856   3.039   1.910   2.805 -0.7122 -0.0223  0.5250
 6964TIP3    H220857   2.927   2.011   2.820  0.0560  0.7877  0.8957
 6965TIP3   OH220858   6.519   1.737   1.594 -0.4799 -0.1224  0.0753
 6965TIP3    H120859   6.484   1.650   1.614 -1.7269  0.4700  0.6321
 6965TIP3    H220860   6.497   1.789   1.671  1.7549  0.3085  0.5020
 6966TIP3   OH220861   2.774   2.749   5.270 -0.2445 -0.2667 -0.0724
 6966TIP3    H120862   2.808   2.816   5.211 -0.5837 -0.1836 -0.1731
 6966TIP3    H220863   2.845   2.734   5.332 -0.1400  0.1337 -0.0920
 6967TIP3   OH220864   6.257   5.322   5.174  0.4120 -0.0373  0.1784
 6967TIP3    H120865   6.303   5.307   5.257  0.4078 -1.5959 -0.0605
 6967TIP3    H220866   6.269   5.240   5.125  1.9578  1.4558 -2.1372
 6968TIP3   OH220867   4.471   4.935   3.274 -0.3380 -0.0920  0.1376
 6968TIP3    H120868   4.463   4.873   3.346 -0.0501 -0.1910  0.0850
 6968TIP3    H220869   4.564   4.956   3.270 -0.4857  0.6065  0.3678
 6969TIP3   OH220870   4.631   1.241   1.578 -0.4751 -0.7109  0.0563
 6969TIP3    H120871   4.695   1.174   1.554  0.6097 -0.3958  1.9186
 6969TIP3    H220872   4.552   1.191   1.601  0.0041 -1.2828  0.4741
 6970TIP3   OH220873   6.671   2.693   3.806  0.7623 -0.4433 -0.1087
 6970TIP3    H120874   6.590   2.643   3.790  0.3567  0.0605  0.3249
 6970TIP3    H220875   6.740   2.641   3.765  0.1756 -0.7368 -0.7485
 6971TIP3   OH220876   3.928   6.694   2.110 -0.5862  0.2713 -0.3388
 6971TIP3    H120877   3.996   6.632   2.136  0.0025  0.0680 -2.2314
 6971TIP3    H220878   3.966   6.780   2.129  1.0736  0.2567 -3.0664
 6972TIP3   OH220879   4.562   2.348   0.617  0.4502  0.5472 -0.0629
 6972TIP3    H120880   4.621   2.394   0.557  0.3906  0.2297 -0.3669
 6972TIP3    H220881   4.479   2.396   0.612  0.2094  0.0653 -0.8244
 6973TIP3   OH220882   5.084   5.623   3.145  0.1312  0.2126 -0.3530
 6973TIP3    H120883   5.110   5.614   3.237  2.6253  0.9024 -0.9283
 6973TIP3    H220884   5.035   5.543   3.126  1.0012 -0.7266  1.1401
 6974TIP3   OH220885   6.892   3.317   3.915  0.1957  0.0623  0.5558
 6974TIP3    H120886   6.916   3.329   3.823 -1.5481 -0.7941 -0.0719
 6974TIP3    H220887   6.936   3.236   3.941 -0.1751 -0.2961  0.1076
 6975TIP3   OH220888   5.241   2.711   3.710  0.2179 -0.4465  0.4571
 6975TIP3    H120889   5.222   2.630   3.758  1.5931 -0.4136  1.1195
 6975TIP3    H220890   5.332   2.701   3.681 -0.1944  0.0670 -1.1185
 6976TIP3   OH220891   5.580   3.328   3.281 -0.0863  0.3678 -0.2511
 6976TIP3    H120892   5.534   3.279   3.213  0.0305  1.5022 -1.1910
 6976TIP3    H220893   5.659   3.276   3.299  0.4157  0.5479 -1.7695
 6977TIP3   OH220894   5.989   4.827   0.379 -0.6670 -0.6350 -0.3911
 6977TIP3    H120895   6.038   4.909   0.381 -0.8358 -0.5549  0.9528
 6977TIP3    H220896   6.006   4.792   0.291  2.2434 -0.8806  0.1771
 6978TIP3   OH220897   5.998   4.850   2.208  0.2159 -0.9341  0.0767
 6978TIP3    H120898   6.061   4.796   2.160 -0.1366 -0.2119 -1.2638
 6978TIP3    H220899   6.032   4.939   2.201 -1.5854 -0.3185 -1.8735
 6979TIP3   OH220900   2.867   3.756   5.818  0.0963 -0.5284 -0.0601
 6979TIP3    H120901   2.954   3.796   5.828 -0.1158 -0.3644  1.3557
 6979TIP3    H220902   2.884   3.671   5.777  0.8634 -0.2659 -0.3052
 6980TIP3   OH220903   6.425   6.262   2.421  0.4985 -0.0173  0.3183
 6980TIP3    H120904   6.412   6.191   2.359 -1.2072  0.5032  0.0106
 6980TIP3    H220905   6.430   6.341   2.366  2.5102  0.1304  0.6390
 6981TIP3   OH220906   2.547   6.768   3.084 -0.1290  0.1098  0.5098
 6981TIP3    H120907   2.642   6.760   3.070  0.0576 -1.2516  2.0893
 6981TIP3    H220908   2.516   6.677   3.082 -1.3345  0.5224  0.3562
 6982TIP3   OH220909   1.171   0.237   4.530 -0.1588  0.1025  0.1594
 6982TIP3    H120910   1.165   0.327   4.562  0.2077 -0.0146  0.5592
 6982TIP3    H220911   1.236   0.241   4.460 -0.3195  0.1907  0.0128
 6983TIP3   OH220912   6.262   2.997   2.922 -0.7612  0.2164 -0.2168
 6983TIP3    H120913   6.278   3.046   3.003 -0.4188  1.7981 -1.2035
 6983TIP3    H220914   6.292   2.908   2.942  1.3315  1.0555  0.7328
 6984TIP3   OH220915   0.529   4.407   2.597  0.4963 -0.1871 -0.1399
 6984TIP3    H120916   0.463   4.342   2.571 -0.7094 -0.1683  2.5103
 6984TIP3    H220917   0.613   4.366   2.575 -0.2614 -2.3247  0.6625
 6985TIP3   OH220918   0.839   0.955   3.059  0.4318 -0.1626 -0.2543
 6985TIP3    H120919   0.826   0.945   2.965  0.8395  0.1126 -0.3394
 6985TIP3    H220920   0.800   1.040   3.080  1.6678  0.4664 -0.4355
 6986TIP3   OH220921   1.019   1.907   5.332 -0.2325 -0.1706  0.1880
 6986TIP3    H120922   1.049   1.840   5.393 -1.5712  1.6208  3.0050
 6986TIP3    H220923   1.068   1.986   5.356  1.0030  0.0884 -2.7534
 6987TIP3   OH220924   5.227   6.601   2.844 -0.4110 -0.3202 -0.2417
 6987TIP3    H120925   5.293   6.669   2.856  0.7673 -1.3417 -0.7108
 6987TIP3    H220926   5.145   6.649   2.828 -0.2064  1.0076  2.2165
 6988TIP3   OH220927   7.102   3.369   2.944 -0.5565 -0.6540 -0.3247
 6988TIP3    H120928   7.105   3.279   2.912 -0.4952 -1.2108  1.1825
 6988TIP3    H220929   7.143   3.420   2.874 -2.6438 -1.4301 -2.2364
 6989TIP3   OH220930   3.528   5.440   0.406 -0.0630 -0.4552  0.3585
 6989TIP3    H120931   3.521   5.529   0.439  0.0580  0.1587 -1.2035
 6989TIP3    H220932   3.612   5.408   0.439  0.0480  0.1194  0.6392
 6990TIP3   OH220933   2.941   5.653   2.933 -0.0328  0.2996  0.5583
 6990TIP3    H120934   3.002   5.606   2.877  1.4319  1.1719  1.3439
 6990TIP3    H220935   2.877   5.691   2.873 -0.2844 -1.2607 -0.2244
 6991TIP3   OH220936   4.963   0.652   0.152  0.2979 -0.3541 -0.0815
 6991TIP3    H120937   5.027   0.581   0.152 -0.1266 -0.7440 -0.0552
 6991TIP3    H220938   4.920   0.646   0.237 -0.4472 -0.7191 -0.4760
 6992TIP3   OH220939   5.121   5.011   4.565 -0.1631  0.1662  0.4178
 6992TIP3    H120940   5.114   5.021   4.470 -2.7880 -0.4660  0.4652
 6992TIP3    H220941   5.211   4.984   4.580 -0.0730 -1.2077 -2.0503
 6993TIP3   OH220942   1.840   3.162   0.407 -0.2076 -0.0280  0.4303
 6993TIP3    H120943   1.757   3.209   0.401 -0.1520  0.1766  1.2510
 6993TIP3    H220944   1.877   3.187   0.491  0.5481 -0.3583  0.2101
 6994TIP3   OH220945   0.619   4.653   2.712  0.3572 -0.1531  0.3804
 6994TIP3    H120946   0.584   4.569   2.684 -0.4243 -0.4162  2.0449
 6994TIP3    H220947   0.542   4.705   2.734  0.8741  0.6198  0.4005
 6995TIP3   OH220948   0.064   0.853   5.705  0.2145  0.2297 -0.1419
 6995TIP3    H120949   0.037   0.761   5.712  0.2876  0.2641  0.7318
 6995TIP3    H220950  -0.000   0.892   5.646  0.2019 -0.3905 -0.5499
 6996TIP3   OH220951   2.782   5.822   2.750  0.0753 -0.4346  0.6357
 6996TIP3    H120952   2.710   5.834   2.688  0.3931 -0.2672  0.2987
 6996TIP3    H220953   2.800   5.910   2.783 -0.2495 -0.5561  1.1421
 6997TIP3   OH220954   4.283   3.393   0.049 -0.4213  0.0362 -0.4917
 6997TIP3    H120955   4.254   3.355   0.132  0.2175  1.9846  0.6987
 6997TIP3    H220956   4.336   3.324   0.008 -0.3020 -0.7885  0.9717
 6998TIP3   OH220957   5.241   3.596   0.167 -0.0976 -0.3867 -0.1287
 6998TIP3    H120958   5.258   3.626   0.078 -0.1650 -0.3850 -0.1414
 6998TIP3    H220959   5.323   3.557   0.196  0.3548  0.8269  0.2946
 6999TIP3   OH220960   4.051   2.636   3.929  0.1234 -0.6444  0.2108
 6999TIP3    H120961   4.129   2.629   3.985 -0.2094 -0.2408  0.7380
 6999TIP3    H220962   3.980   2.604   3.983  0.0255 -1.7582 -0.5443
 7000TIP3   OH220963   6.137   5.425   1.132 -0.0759 -0.0287  0.4531
 7000TIP3    H120964   6.098   5.353   1.182 -2.3702  0.0920 -1.0257
 7000TIP3    H220965   6.118   5.403   1.040 -1.3046  2.6573 -0.0411
 7001TIP3   OH220966   1.142   2.315   1.476 -0.2058 -0.4059  0.1549
 7001TIP3    H120967   1.059   2.338   1.434 -0.8335 -1.1471  0.9519
 7001TIP3    H220968   1.124   2.318   1.570  0.8249 -0.0381  0.3535
 7002TIP3   OH220969   4.660   5.124   0.323  0.0941  0.2019 -0.4111
 7002TIP3    H120970   4.566   5.109   0.334  0.5976 -2.3472  1.3713
 7002TIP3    H220971   4.695   5.123   0.412  1.7919  1.6702 -0.9985
 7003TIP3   OH220972   5.970   2.859   1.860 -0.2352  0.5600  0.3603
 7003TIP3    H120973   5.999   2.923   1.795  0.0612  1.0757  0.9791
 7003TIP3    H220974   5.953   2.780   1.811 -1.7071  1.4358 -0.6021
 7004TIP3   OH220975   4.878   0.848   5.047  0.4136  0.6082  0.3397
 7004TIP3    H120976   4.803   0.794   5.074  0.6070  0.0361 -0.2157
 7004TIP3    H220977   4.909   0.889   5.127 -2.1542  3.0412  0.2433
 7005TIP3   OH220978   6.804   4.087   3.307 -0.7169  0.1057 -0.3461
 7005TIP3    H120979   6.791   4.032   3.230  0.9179  1.7124 -1.8777
 7005TIP3    H220980   6.872   4.043   3.358  1.4440  1.1582 -2.1578
 7006TIP3   OH220981   2.454   2.506   3.170 -0.2521 -0.2054  0.6109
 7006TIP3    H120982   2.374   2.529   3.217 -0.3723 -0.3340  0.4698
 7006TIP3    H220983   2.423   2.463   3.090 -0.2939  3.8530 -1.8621
 7007TIP3   OH220984   2.388   2.798   4.075  0.1429 -0.0050  0.0810
 7007TIP3    H120985   2.303   2.783   4.033  0.7321 -1.5188 -0.6304
 7007TIP3    H220986   2.442   2.837   4.007 -0.4104  2.5906  1.0053
 7008TIP3   OH220987   6.067   4.067   3.483  0.3692 -0.4519  0.6149
 7008TIP3    H120988   5.993   4.048   3.540 -0.8110 -1.3905 -1.1345
 7008TIP3    H220989   6.139   4.017   3.520 -0.5225 -1.5387  0.9416
 7009TIP3   OH220990   6.588   3.755   2.295  0.3395 -0.2082 -0.2448
 7009TIP3    H120991   6.526   3.797   2.354  1.7766  0.0997  1.1015
 7009TIP3    H220992   6.536   3.732   2.218 -0.8671  2.4818 -0.3329
 7010TIP3   OH220993   2.844   5.054   3.124 -0.0789 -0.2561 -0.3398
 7010TIP3    H120994   2.790   5.133   3.124 -1.6950 -1.3065  0.6659
 7010TIP3    H220995   2.837   5.020   3.213  0.9266 -1.3022 -0.6405
 7011TIP3   OH220996   6.860   3.417   1.615 -0.8726 -0.9698  0.4220
 7011TIP3    H120997   6.949   3.434   1.585 -0.0451 -1.4192  2.4175
 7011TIP3    H220998   6.833   3.337   1.569  0.1205 -1.3368  0.4651
 7012TIP3   OH220999   6.998   0.206   5.825  0.2955  0.0510 -0.4231
 7012TIP3    H121000   7.079   0.215   5.876  1.1938  0.3576 -1.8555
 7012TIP3    H221001   6.951   0.133   5.866  1.5335 -0.4584  0.1223
 7013TIP3   OH221002   0.295   1.636   4.481 -0.1659 -0.0217 -0.3639
 7013TIP3    H121003   0.226   1.592   4.531 -0.5673  0.8296 -0.1594
 7013TIP3    H221004   0.281   1.608   4.390 -1.6311  1.2074 -0.5416
 7014TIP3   OH221005   1.563   2.265   5.650  0.0503 -0.4656 -0.5826
 7014TIP3    H121006   1.483   2.212   5.655 -0.2302 -0.1583 -1.5571
 7014TIP3    H221007   1.557   2.326   5.724 -0.0769 -1.1650 -0.0040
 7015TIP3   OH221008   3.923   0.973   2.185  0.1878 -0.2523 -0.0425
 7015TIP3    H121009   3.945   0.904   2.122  0.4771  0.8128 -1.1371
 7015TIP3    H221010   3.988   0.964   2.254  0.7871 -0.4988 -0.6302
 7016TIP3   OH221011   4.577   3.310   0.639  0.3203  0.1807  0.3258
 7016TIP3    H121012   4.521   3.387   0.626 -1.6695 -1.4243 -1.4374
 7016TIP3    H221013   4.525   3.252   0.695  1.5879 -0.0989  1.2474
 7017TIP3   OH221014   5.914   1.025   0.042 -0.4754  0.2697 -0.5206
 7017TIP3    H121015   5.935   0.955   0.104 -0.5313  0.8984  0.2189
 7017TIP3    H221016   5.914   0.981  -0.044  1.5749 -0.2177 -0.3242
 7018TIP3   OH221017   3.491   4.294   3.992  0.4291 -0.5022 -0.4930
 7018TIP3    H121018   3.485   4.212   3.943  3.5134 -1.4989  0.6077
 7018TIP3    H221019   3.538   4.272   4.072  0.7806  2.2322  0.1773
 7019TIP3   OH221020   1.778   1.904   3.031  0.6229  0.2753 -0.6236
 7019TIP3    H121021   1.697   1.855   3.043  0.4233  0.7330 -0.0519
 7019TIP3    H221022   1.835   1.845   2.982  0.9617 -1.1383  1.3416
 7020TIP3   OH221023   6.181   6.440   2.058  0.4413  0.1203 -0.8730
 7020TIP3    H121024   6.170   6.410   1.968  0.9775  1.3260 -1.3641
 7020TIP3    H221025   6.204   6.533   2.050 -0.9030  0.6273  0.5493
 7021TIP3   OH221026   2.329   0.826   0.301  0.1872  0.2278 -0.3454
 7021TIP3    H121027   2.265   0.862   0.240  1.1846 -0.4707 -1.8425
 7021TIP3    H221028   2.296   0.738   0.321 -0.2579  0.5361  0.3517
 7022TIP3   OH221029   3.756   0.516   4.721  0.1753  0.1355 -0.5342
 7022TIP3    H121030   3.754   0.601   4.764  0.6831  0.2217 -0.6756
 7022TIP3    H221031   3.808   0.530   4.642 -0.7346 -0.0228 -1.1756
 7023TIP3   OH221032   3.526   6.660   0.795 -0.0106 -0.5253  0.3460
 7023TIP3    H121033   3.544   6.611   0.715 -0.3991 -0.7307  0.3788
 7023TIP3    H221034   3.448   6.712   0.774 -0.2656 -0.7709  0.6678
 7024TIP3   OH221035   4.666   6.102   2.337  0.4569 -0.3120  0.3081
 7024TIP3    H121036   4.648   6.191   2.367 -0.7780 -0.9635  1.6038
 7024TIP3    H221037   4.582   6.071   2.302  1.1182 -0.6480 -1.0550
 7025TIP3   OH221038   2.020   0.890   0.950 -0.1887  0.6005 -0.5508
 7025TIP3    H121039   2.039   0.983   0.963  1.5765  0.2879 -0.6353
 7025TIP3    H221040   2.030   0.876   0.856 -0.0718  0.2592 -0.4903
 7026TIP3   OH221041   7.021   6.629   3.522 -0.2874 -0.0300 -0.6789
 7026TIP3    H121042   6.928   6.624   3.542  0.0317  0.2385  1.0481
 7026TIP3    H221043   7.040   6.723   3.520  0.5831 -0.0239  2.5955
 7027TIP3   OH221044   5.600   1.138   0.585  0.3722 -0.1036 -0.0483
 7027TIP3    H121045   5.678   1.180   0.550 -0.2095  0.6393 -0.4968
 7027TIP3    H221046   5.586   1.179   0.670  0.1657  0.1595 -0.2073
 7028TIP3   OH221047   0.869   3.463   2.378 -0.1551  0.4073  0.5185
 7028TIP3    H121048   0.858   3.371   2.353  0.6447  0.1250  1.1686
 7028TIP3    H221049   0.865   3.511   2.295  1.0442 -0.3700 -0.0198
 7029TIP3   OH221050   2.046   2.549   4.817  0.4434 -0.8680 -0.0947
 7029TIP3    H121051   2.024   2.635   4.780  0.1361 -0.2031  1.5623
 7029TIP3    H221052   2.092   2.504   4.746  0.9985  0.8179 -0.8619
 7030TIP3   OH221053   0.463   0.478   0.501 -0.3331 -0.7200 -0.2136
 7030TIP3    H121054   0.391   0.541   0.492 -0.1425 -0.6910 -1.8736
 7030TIP3    H221055   0.419   0.395   0.522 -0.9262 -0.7959 -1.6231
 7031TIP3   OH221056   1.323   4.069   2.644 -0.0380 -0.3632  0.0658
 7031TIP3    H121057   1.400   4.115   2.610  0.8617  0.2689  2.6763
 7031TIP3    H221058   1.249   4.120   2.613  0.6953  0.1200 -0.9451
 7032TIP3   OH221059   0.702   5.354   2.240  0.3197  0.5497 -0.1539
 7032TIP3    H121060   0.683   5.383   2.329 -0.6124 -0.0287 -0.1474
 7032TIP3    H221061   0.629   5.295   2.218  1.5368 -0.8618 -0.5800
 7033TIP3   OH221062   3.348   1.441   2.625  0.0295 -0.1330  0.3474
 7033TIP3    H121063   3.330   1.533   2.605 -0.7566 -0.6201 -1.4544
 7033TIP3    H221064   3.317   1.430   2.715  0.3700  1.4140  0.6887
 7034TIP3   OH221065   3.597   2.264   4.449 -0.9714  0.5138  0.4640
 7034TIP3    H121066   3.612   2.341   4.504 -0.5796  0.1890  0.8183
 7034TIP3    H221067   3.559   2.299   4.369 -0.3851  1.1268  0.4413
 7035TIP3   OH221068   4.615   4.558   1.045 -0.3529 -0.0222 -0.0248
 7035TIP3    H121069   4.576   4.597   0.966 -0.3595  1.6584  0.7515
 7035TIP3    H221070   4.705   4.590   1.045 -0.4519  0.2886  0.8227
 7036TIP3   OH221071   5.545   0.466   0.812 -0.5730 -0.1569  0.0910
 7036TIP3    H121072   5.496   0.529   0.759 -0.1660  0.5189  0.4990
 7036TIP3    H221073   5.480   0.431   0.873 -0.6991  0.2432  0.1914
 7037TIP3   OH221074   4.523   1.491   4.758  0.3724  0.3389  0.1738
 7037TIP3    H121075   4.451   1.428   4.764  1.7735 -1.3454  0.2291
 7037TIP3    H221076   4.599   1.438   4.735  1.1325  2.3961 -2.6002
 7038TIP3   OH221077   1.064   2.342   5.089  0.0991 -0.0253 -0.0734
 7038TIP3    H121078   1.155   2.365   5.070  0.2299 -0.5791 -0.1323
 7038TIP3    H221079   1.064   2.322   5.183 -0.2809  1.4466  0.2643
 7039TIP3   OH221080   1.267   1.055   1.525 -0.0285  0.2433 -0.1193
 7039TIP3    H121081   1.217   1.122   1.479  2.3294  0.4839 -2.5023
 7039TIP3    H221082   1.244   0.973   1.480 -0.0565 -0.0117  0.3500
 7040TIP3   OH221083   4.675   2.449   4.442 -0.9307 -0.0685 -0.2562
 7040TIP3    H121084   4.739   2.435   4.372 -0.2350 -0.9561  0.5201
 7040TIP3    H221085   4.655   2.542   4.439  0.7812  0.3282 -0.2151
 7041TIP3   OH221086   7.027   4.027   2.403  0.0799  0.0881  0.2404
 7041TIP3    H121087   7.100   4.021   2.341  0.4776 -0.3016  0.7325
 7041TIP3    H221088   6.956   3.979   2.361  0.8110 -1.4972  0.7224
 7042TIP3   OH221089   1.996   3.717   4.121  1.0523  0.0978 -0.3399
 7042TIP3    H121090   1.994   3.800   4.169  2.8713  0.2239 -0.4413
 7042TIP3    H221091   2.011   3.651   4.189  2.2730  0.1394 -0.5553
 7043TIP3   OH221092   6.268   5.113   4.323 -0.0537 -0.7530  0.6401
 7043TIP3    H121093   6.345   5.103   4.379 -0.1577 -0.5203  0.8289
 7043TIP3    H221094   6.244   5.205   4.333  0.4006 -0.5021 -0.4111
 7044TIP3   OH221095   6.614   1.932   0.795  0.0527  0.2246  0.0819
 7044TIP3    H121096   6.689   1.991   0.800  1.3724 -1.4178  0.3877
 7044TIP3    H221097   6.625   1.886   0.712 -0.0050 -0.8257  0.6463
 7045TIP3   OH221098   0.205   6.047   4.352 -0.1396 -0.2741 -0.0878
 7045TIP3    H121099   0.195   5.952   4.353  0.2178 -0.3125  0.1241
 7045TIP3    H221100   0.148   6.077   4.281 -2.4253 -0.3799  1.6110
 7046TIP3   OH221101   4.716   2.504   0.816 -0.5725  0.2796  0.5235
 7046TIP3    H121102   4.772   2.540   0.748  1.6220 -2.4876  0.6863
 7046TIP3    H221103   4.658   2.443   0.769  0.6678 -1.3246  0.9843
 7047TIP3   OH221104   0.488   3.913   5.432 -0.1016  0.6011  0.8474
 7047TIP3    H121105   0.480   3.849   5.361  1.1633  0.3460  0.9054
 7047TIP3    H221106   0.427   3.982   5.409  1.1354  1.1104 -1.1825
 7048TIP3   OH221107   1.729   2.669   3.180  0.3183 -0.1340 -0.1428
 7048TIP3    H121108   1.751   2.579   3.204  0.4446 -0.5161 -1.5782
 7048TIP3    H221109   1.671   2.660   3.104  1.6243  0.9969 -1.3349
 7049TIP3   OH221110   6.297   3.808   1.377 -0.2177 -0.1009 -0.0663
 7049TIP3    H121111   6.206   3.835   1.387 -0.0306 -0.0045  1.8376
 7049TIP3    H221112   6.333   3.868   1.311 -0.8821  1.6051  1.0374
 7050TIP3   OH221113   2.338   5.860   5.209 -0.5105 -0.1460 -1.1470
 7050TIP3    H121114   2.295   5.785   5.248 -0.9757  0.3095 -0.7641
 7050TIP3    H221115   2.272   5.898   5.151 -0.6050  0.4902 -0.6424
 7051TIP3   OH221116   6.154   0.484   5.847  0.0766 -0.1924 -0.0517
 7051TIP3    H121117   6.207   0.432   5.907 -1.1157 -0.2381  1.0166
 7051TIP3    H221118   6.202   0.565   5.835 -0.1080  0.2183  1.7552
 7052TIP3   OH221119   4.450   4.807   1.946 -0.0038 -0.0649 -0.8469
 7052TIP3    H121120   4.458   4.844   2.034  1.7117 -0.7361 -0.6675
 7052TIP3    H221121   4.372   4.752   1.950  1.7057 -2.6322  1.3151
 7053TIP3   OH221122   3.860   5.422   3.537  1.0707  0.3545  0.1948
 7053TIP3    H121123   3.953   5.405   3.551  0.7210 -0.7953  1.2743
 7053TIP3    H221124   3.849   5.514   3.563  1.4393 -0.2354  2.7251
 7054TIP3   OH221125   6.022   0.433   5.459 -0.1469 -0.2007 -0.2618
 7054TIP3    H121126   6.016   0.443   5.554 -2.2151 -0.9277 -0.2621
 7054TIP3    H221127   6.113   0.452   5.439  0.3542 -0.0623  1.8711
 7055TIP3   OH221128   6.439   0.975   0.028 -0.7438  0.4240  0.1223
 7055TIP3    H121129   6.500   0.937   0.091 -0.5884  1.9834  0.9469
 7055TIP3    H221130   6.477   1.060   0.006 -1.5775  0.5457 -0.9282
 7056TIP3   OH221131   5.028   2.722   5.457 -0.6424 -0.4127 -0.1889
 7056TIP3    H121132   5.010   2.683   5.371 -0.2017 -0.5490 -0.2210
 7056TIP3    H221133   4.946   2.714   5.504 -0.9759 -0.0769 -0.6993
 7057TIP3   OH221134   1.006   6.050   0.806 -0.5616  0.3597 -0.2143
 7057TIP3    H121135   1.064   6.068   0.879  0.0933 -1.9722 -0.0658
 7057TIP3    H221136   0.930   6.106   0.821 -0.4572 -0.0514  2.2599
 7058TIP3   OH221137   0.822   4.636   0.642 -0.2526  0.4701  0.2359
 7058TIP3    H121138   0.916   4.628   0.655 -0.2066 -0.1995 -0.4439
 7058TIP3    H221139   0.793   4.547   0.623 -0.8557  0.8302 -0.5916
 7059TIP3   OH221140   3.968   0.663   1.551 -0.1934  0.0943  0.1080
 7059TIP3    H121141   4.015   0.716   1.487 -0.6778 -0.9464 -1.1401
 7059TIP3    H221142   3.875   0.676   1.531 -0.3501 -3.1494 -1.9726
 7060TIP3   OH221143   3.388   4.594   4.104  0.5618 -0.0356 -0.8109
 7060TIP3    H121144   3.450   4.571   4.173 -1.1758 -1.0840  0.4859
 7060TIP3    H221145   3.407   4.533   4.033 -0.6091 -2.1603  0.5972
 7061TIP3   OH221146   3.011   2.748   2.347  0.2857  0.1217  0.6639
 7061TIP3    H121147   3.076   2.683   2.375 -0.0741  0.2170  1.7993
 7061TIP3    H221148   2.982   2.717   2.262  1.5832 -0.0997  0.2720
 7062TIP3   OH221149   4.707   3.201   5.037  0.3285  0.4405 -0.1540
 7062TIP3    H121150   4.792   3.230   5.071  0.0727  2.8352 -1.3443
 7062TIP3    H221151   4.643   3.237   5.097  0.0971 -0.9852  0.4890
 7063TIP3   OH221152   0.346   0.203   4.721 -0.0154 -0.1531  0.2566
 7063TIP3    H121153   0.352   0.284   4.770 -0.8071  0.0691  0.0058
 7063TIP3    H221154   0.361   0.134   4.786 -0.5475  0.1543  0.7115
 7064TIP3   OH221155   0.951   2.752   4.279 -0.2741 -0.1194 -0.3838
 7064TIP3    H121156   0.994   2.832   4.309  1.8916 -0.8031 -1.4873
 7064TIP3    H221157   0.977   2.744   4.187 -0.6831 -1.9405 -0.3685
 7065TIP3   OH221158   2.813   3.785   2.242 -0.5220 -0.7468 -0.3714
 7065TIP3    H121159   2.749   3.817   2.179  1.6956  0.0218 -2.3613
 7065TIP3    H221160   2.798   3.690   2.244 -1.9670 -0.5483 -0.4407
 7066TIP3   OH221161   0.280   3.010   0.396 -0.1496  0.0363 -0.0206
 7066TIP3    H121162   0.214   2.944   0.421 -1.3290  0.8837 -0.7954
 7066TIP3    H221163   0.356   2.958   0.371  0.3582 -0.9356  3.0699
 7067TIP3   OH221164   2.349   3.595   1.217  0.2403  0.4912  0.0020
 7067TIP3    H121165   2.394   3.674   1.246 -0.8620  0.4788  1.9422
 7067TIP3    H221166   2.382   3.526   1.275 -1.5666  0.3265  0.9129
 7068TIP3   OH221167   4.346   6.249   3.252  0.2347  0.5990 -0.1519
 7068TIP3    H121168   4.302   6.313   3.308  0.6107 -0.4883  1.4783
 7068TIP3    H221169   4.276   6.199   3.211 -0.0569  0.5885  0.3589
 7069TIP3   OH221170   3.159   2.678   1.055 -0.2606  0.1668 -0.1133
 7069TIP3    H121171   3.228   2.686   0.990 -0.1622  0.7945  0.0646
 7069TIP3    H221172   3.141   2.768   1.084 -2.1346  0.1988 -1.1895
 7070TIP3   OH221173   3.280   0.278   1.195  0.4503 -0.3163  0.2118
 7070TIP3    H121174   3.196   0.316   1.220  0.7570  2.9945 -2.9198
 7070TIP3    H221175   3.333   0.280   1.275 -2.3171 -2.7223  2.3459
 7071TIP3   OH221176   4.782   2.353   4.090 -0.7825  0.2369 -0.1166
 7071TIP3    H121177   4.812   2.308   4.169 -0.3929  0.2256 -0.2672
 7071TIP3    H221178   4.752   2.283   4.032  1.2275 -0.0007 -0.9564
 7072TIP3   OH221179   6.379   1.075   4.805 -0.4689 -0.2542 -0.1799
 7072TIP3    H121180   6.338   1.001   4.849 -0.2129  0.3132  1.0709
 7072TIP3    H221181   6.392   1.140   4.874  1.7759 -0.0935 -0.6526
 7073TIP3   OH221182   4.395   4.172   1.855 -0.1112  0.2222 -0.3556
 7073TIP3    H121183   4.300   4.169   1.865  0.0280 -3.0078  1.2094
 7073TIP3    H221184   4.428   4.183   1.944  0.8870 -4.7931  0.1936
 7074TIP3   OH221185   6.938   2.727   0.362 -1.0323 -0.4936 -0.1337
 7074TIP3    H121186   6.969   2.780   0.289  1.2268 -2.4868 -0.7648
 7074TIP3    H221187   6.923   2.789   0.433  0.9646  1.0402 -0.9820
 7075TIP3   OH221188   5.068   2.324   2.834  0.0143  0.0638 -0.9560
 7075TIP3    H121189   5.151   2.317   2.882  0.4054  1.4184 -1.3753
 7075TIP3    H221190   5.039   2.414   2.850 -1.2562 -0.3087 -1.0295
 7076TIP3   OH221191   3.217   3.420   1.512 -0.0353  0.4159 -0.5061
 7076TIP3    H121192   3.195   3.443   1.603  0.1960  1.3621 -0.6740
 7076TIP3    H221193   3.261   3.498   1.478  0.3688 -0.1321 -1.2709
 7077TIP3   OH221194   2.923   1.577   4.185 -0.2769  0.0353 -0.1276
 7077TIP3    H121195   2.879   1.558   4.103 -2.4550 -1.6406  1.2988
 7077TIP3    H221196   2.996   1.634   4.161 -1.1869  0.1142 -3.0918
 7078TIP3   OH221197   4.235   0.316   4.220  0.2475  0.5243 -0.6832
 7078TIP3    H121198   4.257   0.298   4.129  1.7492 -0.2936 -0.1750
 7078TIP3    H221199   4.220   0.230   4.259 -2.6444  0.9340 -0.6365
 7079TIP3   OH221200   5.491   5.822   5.087  0.1965 -0.3511 -0.2316
 7079TIP3    H121201   5.492   5.726   5.085  1.1660 -0.3628  0.3492
 7079TIP3    H221202   5.582   5.847   5.075 -0.4037  0.6198 -3.8426
 7080TIP3   OH221203   3.216   2.476   0.731  0.2910  0.0837 -0.1844
 7080TIP3    H121204   3.160   2.429   0.668  1.2823 -1.6054  0.1384
 7080TIP3    H221205   3.261   2.541   0.678  0.5217 -0.7920 -1.1034
 7081TIP3   OH221206   0.225   6.053   5.461 -0.2098  0.8605 -0.6987
 7081TIP3    H121207   0.306   6.019   5.499  0.4457  2.2109 -0.8307
 7081TIP3    H221208   0.204   5.992   5.390  1.6793  1.4253 -1.8270
 7082TIP3   OH221209   2.052   3.809   0.502  0.1365  0.1562 -0.7952
 7082TIP3    H121210   2.018   3.807   0.591 -1.0344 -0.6504 -1.2376
 7082TIP3    H221211   2.108   3.732   0.496 -0.1469 -0.0450 -0.8856
 7083TIP3   OH221212   1.161   1.837   1.262  0.1943 -0.7500 -0.6650
 7083TIP3    H121213   1.096   1.771   1.238 -0.7031 -0.1051 -0.0736
 7083TIP3    H221214   1.181   1.882   1.180 -0.1603 -0.9082 -0.8420
 7084TIP3   OH221215   6.996   4.902   2.548 -0.0599  0.1427 -0.0901
 7084TIP3    H121216   7.063   4.956   2.590 -1.0850  0.0519  1.8061
 7084TIP3    H221217   6.922   4.961   2.533 -0.4177 -0.2591  0.0443
 7085TIP3   OH221218   1.703   0.806   1.455  0.9063  0.0825 -0.6083
 7085TIP3    H121219   1.643   0.790   1.528 -0.1797 -0.9908 -1.6868
 7085TIP3    H221220   1.690   0.899   1.434 -0.0315 -0.0151 -0.5042
 7086TIP3   OH221221   2.083   1.453   1.442  0.2084 -0.4248 -0.0026
 7086TIP3    H121222   2.055   1.517   1.507  1.2818 -1.8828  2.0446
 7086TIP3    H221223   2.018   1.458   1.373 -1.9935  0.0686  1.9672
 7087TIP3   OH221224   3.855   0.382   1.774 -0.1718 -0.5470  0.5276
 7087TIP3    H121225   3.869   0.395   1.868 -0.4901  0.3050  0.4657
 7087TIP3    H221226   3.941   0.355   1.741  0.1900  0.1145  0.9046
 7088TIP3   OH221227   4.498   3.327   3.847 -0.2045 -0.6448 -0.2957
 7088TIP3    H121228   4.430   3.264   3.823  0.5839 -1.4996 -0.3177
 7088TIP3    H221229   4.580   3.285   3.823  0.3603  0.2505  0.0077
 7089TIP3   OH221230   0.788   1.599   5.016 -0.0085  0.1596  0.0087
 7089TIP3    H121231   0.816   1.619   4.927 -0.2098  0.7631  0.0705
 7089TIP3    H221232   0.826   1.669   5.069  1.3516 -1.0058  0.6398
 7090TIP3   OH221233   6.225   0.935   4.468  0.2209 -0.5549  0.6393
 7090TIP3    H121234   6.297   0.918   4.407 -0.5088 -0.7929 -0.1707
 7090TIP3    H221235   6.228   1.029   4.484 -0.9751 -0.0767 -1.5899
 7091TIP3   OH221236   5.295   5.071   1.972  0.0630  0.3100 -0.4260
 7091TIP3    H121237   5.247   5.147   2.002  0.3510  0.9961 -1.6220
 7091TIP3    H221238   5.313   5.020   2.051  0.5632  1.8777  0.4985
 7092TIP3   OH221239   2.816   4.642   5.811  0.0351  0.7334  0.6330
 7092TIP3    H121240   2.910   4.653   5.797  0.0592  2.0618  1.7367
 7092TIP3    H221241   2.797   4.689   5.892 -1.4478 -0.2019  0.8740
 7093TIP3   OH221242   4.135   5.461   3.532 -0.0942 -0.1609 -0.6658
 7093TIP3    H121243   4.108   5.455   3.440  0.2272 -0.2502 -0.7549
 7093TIP3    H221244   4.229   5.441   3.531  0.1458  0.8732 -0.4573
 7094TIP3   OH221245   0.061   0.878   2.557 -0.2245 -0.0933  0.3704
 7094TIP3    H121246   0.014   0.808   2.601  1.2578 -1.0084  0.5629
 7094TIP3    H221247   0.063   0.949   2.622 -1.5054  0.0594  0.2688
 7095TIP3   OH221248   0.387   6.522   2.288  0.0851  0.0930 -0.5532
 7095TIP3    H121249   0.448   6.466   2.240  0.7591  0.9573 -0.7393
 7095TIP3    H221250   0.379   6.601   2.234 -0.6045  0.3094 -0.1508
 7096TIP3   OH221251   7.113   4.912   0.082 -0.0420  0.5005 -0.5270
 7096TIP3    H121252   7.145   5.002   0.091 -0.7081  0.8122 -1.2030
 7096TIP3    H221253   7.076   4.909  -0.006  0.6134 -0.6440 -0.7810
 7097TIP3   OH221254   5.582   2.757   0.313  0.0186 -0.0080 -0.0432
 7097TIP3    H121255   5.527   2.835   0.323  0.2969 -0.0095  1.6560
 7097TIP3    H221256   5.628   2.748   0.396 -0.1402 -2.0850 -0.1106
 7098TIP3   OH221257   7.230   4.070   3.019  0.1938 -0.3266  0.4063
 7098TIP3    H121258   7.161   4.059   3.084  1.7193  0.0351  2.1647
 7098TIP3    H221259   7.214   3.999   2.956 -2.3246  0.3469  0.1744
 7099TIP3   OH221260   3.749   6.552   4.342  0.0846 -1.0500  0.4224
 7099TIP3    H121261   3.772   6.474   4.392 -0.4833 -0.6470  1.3337
 7099TIP3    H221262   3.669   6.528   4.295 -1.2013 -0.4313  2.2052
 7100TIP3   OH221263   4.231   3.329   4.762  0.1255 -0.0018  0.5405
 7100TIP3    H121264   4.178   3.288   4.693  0.1260  2.1906 -0.8428
 7100TIP3    H221265   4.234   3.421   4.739  1.7736  0.4967  2.4528
 7101TIP3   OH221266   5.182   4.581   1.301  0.0596 -0.3031 -0.2038
 7101TIP3    H121267   5.226   4.563   1.385 -0.2510 -0.1871 -0.0160
 7101TIP3    H221268   5.250   4.621   1.247  0.8672 -2.2239 -0.7199
 7102TIP3   OH221269   3.752   2.840   0.873  0.1673 -0.2030  0.0919
 7102TIP3    H121270   3.796   2.882   0.799  0.1588  0.8283  0.6463
 7102TIP3    H221271   3.805   2.863   0.949 -0.4098 -0.3472  0.5467
 7103TIP3   OH221272   6.455   4.703   2.514  0.3860  0.8244 -0.2135
 7103TIP3    H121273   6.502   4.734   2.591  1.0850 -1.7809  0.5007
 7103TIP3    H221274   6.437   4.611   2.532 -3.3652  1.1782 -1.2789
 7104TIP3   OH221275   4.156   2.646   0.854  0.5513  0.1148 -0.2603
 7104TIP3    H121276   4.247   2.615   0.856  1.1907  1.8228 -0.6576
 7104TIP3    H221277   4.136   2.655   0.761  0.6141  1.4173 -0.1675
 7105TIP3   OH221278   2.147   5.091   0.901  0.1000 -0.5154  0.6809
 7105TIP3    H121279   2.238   5.060   0.899  0.1099 -0.4837 -0.4501
 7105TIP3    H221280   2.127   5.101   0.994  0.7169 -2.0731  1.0155
 7106TIP3   OH221281   7.126   5.412   1.656 -0.4626  0.1334  0.4063
 7106TIP3    H121282   7.091   5.451   1.736 -2.0115  0.8763 -0.5728
 7106TIP3    H221283   7.220   5.406   1.670 -0.7694 -0.2847  2.4888
 7107TIP3   OH221284   6.527   1.409   0.462 -0.2554  0.5464  0.1378
 7107TIP3    H121285   6.516   1.366   0.547 -2.1548 -0.5850 -0.5807
 7107TIP3    H221286   6.500   1.342   0.399 -1.6791  2.2526 -1.1671
 7108TIP3   OH221287   4.895   3.741   2.555  0.1759 -0.4897  0.2386
 7108TIP3    H121288   4.943   3.763   2.475  0.6329 -0.6225  0.4703
 7108TIP3    H221289   4.850   3.822   2.579 -0.0549 -0.4826 -0.2152
 7109TIP3   OH221290   3.213   5.858   3.140 -0.1246  0.2957 -0.4930
 7109TIP3    H121291   3.239   5.778   3.096 -0.1994  0.1619 -0.2978
 7109TIP3    H221292   3.122   5.872   3.113  0.3490  1.1542 -1.7472
 7110TIP3   OH221293   4.945   5.118   2.557 -0.0252  0.1232 -0.7160
 7110TIP3    H121294   4.951   5.029   2.520  0.7927 -0.4486  0.7241
 7110TIP3    H221295   4.942   5.175   2.481  2.0182 -0.9770 -1.6939
 7111TIP3   OH221296   5.215   5.403   1.961 -0.4756  0.3287 -0.4571
 7111TIP3    H121297   5.183   5.465   2.027 -0.3059  1.1634 -1.1422
 7111TIP3    H221298   5.142   5.395   1.900 -0.0016  0.9461 -1.1234
 7112TIP3   OH221299   2.715   5.716   5.291 -0.1854 -0.2324  0.2200
 7112TIP3    H121300   2.705   5.709   5.196 -1.3938 -0.0595  0.3247
 7112TIP3    H221301   2.705   5.809   5.310 -2.6578 -0.5391  0.7642
 7113TIP3   OH221302   6.536   1.306   3.463  0.5939 -0.1802  0.4767
 7113TIP3    H121303   6.529   1.213   3.484  0.8801 -0.0465  1.2058
 7113TIP3    H221304   6.613   1.313   3.408  0.9692 -0.2940  0.9798
 7114TIP3   OH221305   5.783   2.662   2.524 -0.0357 -0.3351  0.0228
 7114TIP3    H121306   5.712   2.617   2.479  0.6152  1.3488 -2.9691
 7114TIP3    H221307   5.857   2.657   2.463  1.3352  1.0509  1.4711
 7115TIP3   OH221308   0.172   4.026   5.105 -0.2054  0.3793  0.2250
 7115TIP3    H121309   0.200   4.062   5.189 -1.3068  2.3702 -0.1914
 7115TIP3    H221310   0.236   4.060   5.042 -0.0368 -0.1586  0.1057
 7116TIP3   OH221311   0.647   4.605   2.078 -0.3398 -0.3050  0.7706
 7116TIP3    H121312   0.711   4.605   2.007 -0.2194 -0.7117  0.8729
 7116TIP3    H221313   0.602   4.689   2.071 -1.0256 -0.7470 -0.4150
 7117TIP3   OH221314   6.310   0.337   5.584 -0.4176 -0.4593 -0.0049
 7117TIP3    H121315   6.333   0.407   5.646 -1.3721 -0.1350 -0.0017
 7117TIP3    H221316   6.319   0.378   5.498  0.9510 -0.9223 -0.1123
 7118TIP3   OH221317   2.166   4.712   3.888 -0.3534  0.1881 -0.0819
 7118TIP3    H121318   2.126   4.625   3.886  2.4174 -1.3685  2.3875
 7118TIP3    H221319   2.236   4.708   3.822 -0.1029  0.4517  0.1626
 7119TIP3   OH221320   0.929   2.719   1.488 -0.0765  0.2225 -0.1039
 7119TIP3    H121321   1.008   2.768   1.468 -1.0776  1.0708 -2.2831
 7119TIP3    H221322   0.885   2.708   1.404 -1.9962 -0.7135  0.9446
 7120TIP3   OH221323   2.131   4.623   4.934  0.3745  0.4041  0.3582
 7120TIP3    H121324   2.117   4.563   4.860  0.8562 -0.4434  0.9344
 7120TIP3    H221325   2.200   4.682   4.905  1.5161 -0.7652  0.5838
 7121TIP3   OH221326   2.511   2.830   3.331  0.8177 -0.3537 -0.3679
 7121TIP3    H121327   2.422   2.797   3.328  0.5674  0.2661  0.1532
 7121TIP3    H221328   2.506   2.911   3.381  1.5602  0.0453 -0.9014
 7122TIP3   OH221329   4.522   2.991   3.864 -0.0444 -0.4676  0.2981
 7122TIP3    H121330   4.569   3.060   3.911  0.5265 -0.6659  0.0396
 7122TIP3    H221331   4.432   3.023   3.857  0.5914  1.1500 -1.4963
 7123TIP3   OH221332   1.776   1.096   1.990  0.3023  0.5071  0.1289
 7123TIP3    H121333   1.836   1.159   2.031  0.3090 -0.2025  1.2499
 7123TIP3    H221334   1.689   1.129   2.012  0.3059  0.1057  0.7781
 7124TIP3   OH221335   0.220   2.821   4.699  0.3876 -0.0889  0.9681
 7124TIP3    H121336   0.149   2.870   4.658 -0.8848  0.2805  3.4000
 7124TIP3    H221337   0.288   2.886   4.714 -0.9301  0.8549  3.3542
 7125TIP3   OH221338   0.481  -0.023   3.122 -0.2888 -0.0017 -0.8790
 7125TIP3    H121339   0.564   0.020   3.101 -0.3738  0.3209 -0.5667
 7125TIP3    H221340   0.414   0.041   3.096 -0.4095  0.1796 -0.1389
 7126TIP3   OH221341   4.530   1.027   2.232 -0.1799 -0.1144 -0.0308
 7126TIP3    H121342   4.437   1.044   2.244 -0.0043  0.3145  0.7727
 7126TIP3    H221343   4.552   0.966   2.302  0.2959  0.3654  0.2452
 7127TIP3   OH221344   0.639   0.145   3.885 -0.1593  0.8295  0.1083
 7127TIP3    H121345   0.555   0.189   3.897  0.0786  0.6496  3.1149
 7127TIP3    H221346   0.627   0.059   3.927  1.0136  0.1151 -0.9433
 7128TIP3   OH221347   0.401   3.016   2.988  0.4287  0.3178 -0.6127
 7128TIP3    H121348   0.364   2.966   2.915  1.2610 -0.3953 -0.5748
 7128TIP3    H221349   0.456   2.952   3.035 -1.6822  0.1562  1.8885
 7129TIP3   OH221350   4.181   3.482   3.116 -0.0378  0.2374 -1.0766
 7129TIP3    H121351   4.173   3.573   3.087 -0.0606  0.3601 -0.6818
 7129TIP3    H221352   4.187   3.432   3.034  0.6161  0.6474 -1.2915
 7130TIP3   OH221353   3.953   4.217   1.320 -0.9449  0.1246 -0.0736
 7130TIP3    H121354   3.997   4.271   1.255  0.4864  1.2917  1.7787
 7130TIP3    H221355   3.908   4.279   1.377 -1.7517 -0.8360  0.3679
 7131TIP3   OH221356   4.544   3.330   4.510  0.2920  0.2158 -0.1702
 7131TIP3    H121357   4.612   3.267   4.486 -0.6484 -0.6885 -0.5578
 7131TIP3    H221358   4.587   3.388   4.573  1.8505  0.6316 -1.5504
 7132TIP3   OH221359   4.300   2.870   2.988 -0.0305 -0.0925  0.3087
 7132TIP3    H121360   4.308   2.783   2.951 -2.0237 -0.8841  1.6123
 7132TIP3    H221361   4.307   2.857   3.083  0.7086  1.3206  0.4806
 7133TIP3   OH221362   5.984   0.664   2.716 -0.2123  0.0336 -0.1014
 7133TIP3    H121363   5.965   0.666   2.622 -1.3216 -1.4540  0.0636
 7133TIP3    H221364   6.014   0.753   2.736  0.2778  0.3099 -1.8938
 7134TIP3   OH221365   4.196   5.409   2.672  0.3814  1.0298 -0.6780
 7134TIP3    H121366   4.290   5.415   2.687  0.1442  0.9556  0.9548
 7134TIP3    H221367   4.171   5.497   2.645  0.4582  1.9304  1.9037
 7135TIP3   OH221368   4.821   3.771   5.234  0.1657  0.0967  0.1282
 7135TIP3    H121369   4.909   3.791   5.265  0.7154 -1.9047  0.0036
 7135TIP3    H221370   4.768   3.846   5.261  1.3608  0.1562  2.5707
 7136TIP3   OH221371   1.811   4.716   5.535 -0.1244 -0.5180  0.1009
 7136TIP3    H121372   1.837   4.770   5.609 -1.5031  0.7113 -0.2568
 7136TIP3    H221373   1.717   4.700   5.548 -0.5824  0.3509 -1.6870
 7137TIP3   OH221374   3.053   5.188   3.720  0.1378  0.0186  0.2830
 7137TIP3    H121375   3.073   5.113   3.775 -1.3644 -0.6459 -0.0390
 7137TIP3    H221376   3.034   5.259   3.782  2.1340  0.3350  0.5879
 7138TIP3   OH221377   5.172   2.023   2.418 -0.1400  0.0872 -0.3437
 7138TIP3    H121378   5.184   2.101   2.471  0.5823 -1.1716  1.4204
 7138TIP3    H221379   5.084   1.993   2.438  0.3060 -0.6588  0.5452
 7139TIP3   OH221380   0.830   2.204   1.789  0.2916 -0.9045 -0.4019
 7139TIP3    H121381   0.775   2.130   1.815  1.2462 -1.3650  0.4229
 7139TIP3    H221382   0.773   2.260   1.736 -0.6728 -1.8377 -0.3866
 7140TIP3   OH221383   3.412   4.175   4.606 -1.1370 -0.0320 -0.2214
 7140TIP3    H121384   3.429   4.138   4.693 -3.4689  0.7133  0.6187
 7140TIP3    H221385   3.465   4.254   4.603 -4.2190  2.3902  2.4159
 7141TIP3   OH221386   0.316   5.962   3.723 -0.4334  0.0307  0.4326
 7141TIP3    H121387   0.312   6.041   3.777 -0.0629  0.0303  0.4624
 7141TIP3    H221388   0.369   5.987   3.647  1.0522 -0.6284  1.2136
 7142TIP3   OH221389   3.842   3.977   3.325  0.1296 -0.1176 -0.1565
 7142TIP3    H121390   3.921   3.995   3.376  0.2822 -0.4276 -0.2833
 7142TIP3    H221391   3.789   4.057   3.333  0.5593  0.1798 -0.2631
 7143TIP3   OH221392   5.330   6.594   5.185  0.3841  0.2147 -0.1489
 7143TIP3    H121393   5.347   6.640   5.102 -1.5393 -0.5643 -1.0229
 7143TIP3    H221394   5.347   6.502   5.165 -0.6035 -0.0434  0.1511
 7144TIP3   OH221395   5.729   4.469   3.740 -0.4720 -0.4062  0.2625
 7144TIP3    H121396   5.681   4.537   3.692 -0.0369 -0.7189 -0.6399
 7144TIP3    H221397   5.695   4.474   3.829  0.1501  1.5997  0.4492
 7145TIP3   OH221398   0.442   1.784   5.092 -0.5353  0.2941 -0.1243
 7145TIP3    H121399   0.393   1.712   5.054 -0.8367  0.5375 -0.1986
 7145TIP3    H221400   0.423   1.780   5.186 -0.6209  0.3324 -0.1407
 7146TIP3   OH221401   6.183   3.185   0.838  0.0004 -0.1372 -0.0257
 7146TIP3    H121402   6.095   3.162   0.869 -0.0036  0.8614  0.7801
 7146TIP3    H221403   6.242   3.134   0.893 -0.0581  0.0247  0.1901
 7147TIP3   OH221404   3.773   5.113   4.063  0.3281 -0.0226 -0.6255
 7147TIP3    H121405   3.819   5.168   3.999  1.6747  0.0091  0.3160
 7147TIP3    H221406   3.735   5.175   4.125  1.7342 -0.0853  0.3614
 7148TIP3   OH221407   1.469   1.041   4.335 -0.5970  0.1793  0.0318
 7148TIP3    H121408   1.503   0.953   4.323 -0.1455  0.3120  0.3229
 7148TIP3    H221409   1.374   1.032   4.324 -0.4653 -0.1679 -0.9234
 7149TIP3   OH221410   4.860   4.662   1.043 -0.0605 -0.9140  0.5314
 7149TIP3    H121411   4.913   4.677   0.965 -1.1411 -0.9826 -0.2227
 7149TIP3    H221412   4.901   4.586   1.085  1.0018 -0.3915  0.4694
 7150TIP3   OH221413   3.759   4.140   1.667  0.5157 -0.0847 -0.1981
 7150TIP3    H121414   3.724   4.209   1.611 -2.9307 -0.0798  1.6561
 7150TIP3    H221415   3.780   4.184   1.749 -1.6082 -1.0972  0.9648
 7151TIP3   OH221416   3.889   1.604   3.283  0.5306 -0.7742  0.3956
 7151TIP3    H121417   3.920   1.554   3.207  0.7916  0.3433 -0.2572
 7151TIP3    H221418   3.954   1.673   3.294  0.3307 -0.7415  1.4635
 7152TIP3   OH221419   5.120   3.082   1.964  0.2780  0.3219  0.0393
 7152TIP3    H121420   5.159   3.092   1.877  0.8213 -0.5622  0.1654
 7152TIP3    H221421   5.195   3.082   2.024 -0.0174 -0.0834  0.4156
 7153TIP3   OH221422   2.371   2.834   5.577  0.1497  0.0959 -0.4611
 7153TIP3    H121423   2.431   2.768   5.541  1.2542  0.3505  0.8179
 7153TIP3    H221424   2.425   2.912   5.587 -0.1948  0.1579  1.3111
 7154TIP3   OH221425   6.953   1.577   2.174  0.2357 -0.2014 -0.1250
 7154TIP3    H121426   6.948   1.657   2.226  0.1996 -0.0893 -0.2987
 7154TIP3    H221427   6.872   1.578   2.122  1.5397  1.1560 -2.2989
 7155TIP3   OH221428   6.092   4.049   5.605 -0.1045 -0.1107 -0.2425
 7155TIP3    H121429   6.059   4.047   5.694  0.9654 -1.3660  0.1604
 7155TIP3    H221430   6.105   3.957   5.582  2.8502  0.2359 -0.4099
 7156TIP3   OH221431   3.682   0.996   4.823 -0.1474  0.3334  0.2715
 7156TIP3    H121432   3.590   0.992   4.849 -0.4211 -0.4868 -0.7661
 7156TIP3    H221433   3.681   0.985   4.728  1.0748 -0.6953  0.3497
 7157TIP3   OH221434   1.361   2.209   4.117  0.3490  0.1981  0.3094
 7157TIP3    H121435   1.301   2.207   4.043 -0.4701 -0.8785  0.9645
 7157TIP3    H221436   1.307   2.186   4.193  1.5463 -0.6516  0.9469
 7158TIP3   OH221437   3.990   0.036   2.587 -0.1663 -0.4004 -0.3018
 7158TIP3    H121438   3.981  -0.033   2.653  1.2680 -1.7227 -1.4045
 7158TIP3    H221439   3.931   0.009   2.516  0.6487 -0.7242 -0.8797
 7159TIP3   OH221440   1.069   5.782   4.413 -0.8694  0.6544  0.1073
 7159TIP3    H121441   1.129   5.796   4.485  1.5823  3.7212 -2.2456
 7159TIP3    H221442   1.022   5.865   4.404 -0.7829  0.5459 -1.9999
 7160TIP3   OH221443   5.677   5.689   0.692  0.2322  0.2355  0.3776
 7160TIP3    H121444   5.742   5.651   0.751  1.7100  0.4088 -1.0767
 7160TIP3    H221445   5.625   5.614   0.664  1.3709 -0.3290 -0.3159
 7161TIP3   OH221446   0.820   5.418   1.989 -0.4672 -0.3130 -0.1556
 7161TIP3    H121447   0.791   5.372   2.068  0.8809 -2.6151 -0.9173
 7161TIP3    H221448   0.739   5.448   1.947 -1.2199  0.7584  1.9244
 7162TIP3   OH221449   3.470   5.215   1.605 -0.2568 -0.4675  0.5474
 7162TIP3    H121450   3.444   5.307   1.597  1.0372 -0.1382 -0.0933
 7162TIP3    H221451   3.442   5.174   1.523  0.1647 -0.3820  0.3583
 7163TIP3   OH221452   1.018   2.094   3.753 -0.6067  0.2982 -0.0910
 7163TIP3    H121453   1.097   2.134   3.791 -0.5728  0.5293 -0.4000
 7163TIP3    H221454   1.052   2.023   3.699 -0.6630 -0.1106  0.4096
 7164TIP3   OH221455   1.503   3.292   0.842  0.2925  0.4761 -0.0564
 7164TIP3    H121456   1.419   3.331   0.819  0.2223  0.7314  0.6285
 7164TIP3    H221457   1.517   3.226   0.774  1.4889  3.1158 -2.5739
 7165TIP3   OH221458   3.386   0.807   1.346 -0.3597  0.1673 -0.1803
 7165TIP3    H121459   3.406   0.777   1.257 -0.0529  0.5954 -0.2567
 7165TIP3    H221460   3.379   0.902   1.339 -3.1498  0.0297 -0.3022
 7166TIP3   OH221461   7.009   6.083   3.739 -0.3648  0.2823 -0.2390
 7166TIP3    H121462   6.993   6.159   3.684  1.0893  0.7207 -0.1043
 7166TIP3    H221463   6.975   6.107   3.825 -0.4055  0.5690 -0.3345
 7167TIP3   OH221464   3.224   5.394   5.101 -0.4031 -0.1740 -0.2757
 7167TIP3    H121465   3.213   5.418   5.193 -0.1117 -0.8493 -0.0581
 7167TIP3    H221466   3.221   5.478   5.054  0.8115  0.3197  0.4829
 7168TIP3   OH221467   5.868   4.798   3.446 -0.4162  0.1847 -0.0691
 7168TIP3    H121468   5.929   4.861   3.483 -0.0842 -1.1591  1.8366
 7168TIP3    H221469   5.913   4.762   3.370 -1.4616  3.6365 -2.5745
 7169TIP3   OH221470   5.737   3.042   5.255 -0.3067 -0.6908  0.1587
 7169TIP3    H121471   5.797   3.034   5.180  1.2410  1.9947  0.9711
 7169TIP3    H221472   5.667   3.100   5.225 -0.6449 -1.0420  0.2616
 7170TIP3   OH221473   5.222   4.145   2.784 -0.3763  0.0777 -0.4202
 7170TIP3    H121474   5.206   4.207   2.855 -0.5468 -0.6472  0.1851
 7170TIP3    H221475   5.266   4.071   2.827 -3.2798 -1.7897 -0.4243
 7171TIP3   OH221476   2.723   6.338   1.878  0.1576  0.2693  0.9543
 7171TIP3    H121477   2.781   6.340   1.954  1.2778  0.5964  0.1196
 7171TIP3    H221478   2.762   6.272   1.820 -1.3699 -0.8772  1.1620
 7172TIP3   OH221479   5.378   2.121   2.634  0.3133  0.1727 -0.0107
 7172TIP3    H121480   5.309   2.178   2.667  1.4925  0.6364  1.8073
 7172TIP3    H221481   5.344   2.032   2.649 -1.5513  0.2732 -2.9121
 7173TIP3   OH221482   4.905   4.642   2.817  0.0642  0.2534 -0.6940
 7173TIP3    H121483   4.842   4.655   2.888 -0.1050 -1.2813 -0.5249
 7173TIP3    H221484   4.982   4.691   2.844  1.0285 -2.3813  1.9668
 7174TIP3   OH221485   5.049   3.729   5.066 -0.7072 -0.3540 -0.0777
 7174TIP3    H121486   4.965   3.684   5.058  0.1351 -1.7751 -1.7137
 7174TIP3    H221487   5.102   3.671   5.120  0.6534 -1.9244 -2.8703
 7175TIP3   OH221488   6.335   2.835   1.702  0.7361 -0.2808 -0.1451
 7175TIP3    H121489   6.430   2.836   1.711  0.6191  1.2789  1.3903
 7175TIP3    H221490   6.307   2.753   1.743  1.2310  0.7824  2.4978
 7176TIP3   OH221491   0.947   2.701   2.883  0.2847 -0.3080  0.7072
 7176TIP3    H121492   0.874   2.727   2.827  0.1148 -1.3297  0.4478
 7176TIP3    H221493   1.016   2.674   2.822 -0.0162 -1.7425  0.9911
 7177TIP3   OH221494   5.844   2.095   2.281 -0.2791 -0.3273 -0.2183
 7177TIP3    H121495   5.758   2.056   2.261 -0.1401 -0.4608 -0.5589
 7177TIP3    H221496   5.885   2.107   2.195  1.3088 -3.0867  0.0427
 7178TIP3   OH221497   4.031   3.204   1.642 -0.3833 -0.4340 -0.1899
 7178TIP3    H121498   4.030   3.145   1.566  1.5749 -0.6104 -0.1235
 7178TIP3    H221499   4.041   3.146   1.717  0.2451 -0.1161 -0.0205
 7179TIP3   OH221500   1.212   4.286   3.183  0.0138 -0.2130  0.2022
 7179TIP3    H121501   1.244   4.204   3.220  0.0723 -0.6467 -0.7735
 7179TIP3    H221502   1.130   4.303   3.228 -0.3068 -1.1343 -0.0142
 7180TIP3   OH221503   0.802   2.276   5.001  0.4013  0.0976  0.6142
 7180TIP3    H121504   0.775   2.313   4.917 -1.0455 -1.6016  0.2675
 7180TIP3    H221505   0.871   2.335   5.032 -0.5903  2.0511 -0.6694
 7181TIP3   OH221506   5.323   5.402   4.574  0.5092  0.3982  0.4974
 7181TIP3    H121507   5.346   5.364   4.489 -0.8046  1.2344 -0.2581
 7181TIP3    H221508   5.288   5.488   4.553 -0.8078  0.2194  1.8128
 7182TIP3   OH221509   4.185   3.547   3.582 -0.0451 -0.2270  0.2791
 7182TIP3    H121510   4.109   3.602   3.563  0.2624  0.0405 -0.1900
 7182TIP3    H221511   4.242   3.601   3.636  0.0032 -0.2845  0.2862
 7183TIP3   OH221512   5.752   5.929   5.022  0.0931  0.2685  0.0335
 7183TIP3    H121513   5.772   5.942   4.929 -3.0446  0.7504 -0.6831
 7183TIP3    H221514   5.740   6.018   5.056 -2.3408  0.0442 -0.0716
 7184TIP3   OH221515   1.376   6.705   3.067  0.1549  0.2237 -0.5198
 7184TIP3    H121516   1.449   6.643   3.061 -0.3959 -0.5207  0.2922
 7184TIP3    H221517   1.326   6.692   2.987 -0.5225 -1.1288  0.0890
 7185TIP3   OH221518   4.335   3.592   2.009 -0.5152 -0.3590 -0.1659
 7185TIP3    H121519   4.269   3.607   2.078 -1.8379  0.4284 -1.5474
 7185TIP3    H221520   4.288   3.541   1.943  0.2649  0.2429 -1.1945
 7186TIP3   OH221521   4.549   5.277   4.092 -0.2648  0.3848 -0.1503
 7186TIP3    H121522   4.544   5.313   4.181  0.4289 -0.3468  0.2018
 7186TIP3    H221523   4.607   5.201   4.101 -0.9362 -0.2462 -1.0520
 7187TIP3   OH221524   4.953   3.461   5.182 -0.1943 -0.1425  0.0640
 7187TIP3    H121525   4.922   3.431   5.096 -0.0612 -2.5191  0.7710
 7187TIP3    H221526   5.000   3.386   5.218 -0.7254  0.5841  2.4675
 7188TIP3   OH221527   7.040   3.152   0.912 -0.6628 -0.1632 -0.1070
 7188TIP3    H121528   7.077   3.218   0.853  0.9707  0.3785  1.4441
 7188TIP3    H221529   6.966   3.196   0.954 -2.0040 -0.6360 -1.8635
 7189TIP3   OH221530   0.678   3.849   2.819 -0.2924 -0.2681  0.3338
 7189TIP3    H121531   0.712   3.793   2.749 -1.1700  0.7105 -0.9016
 7189TIP3    H221532   0.748   3.912   2.836 -1.0472  1.2015 -1.6098
 7190TIP3   OH221533   1.707   3.849   3.329 -0.2854 -0.1916 -0.2388
 7190TIP3    H121534   1.624   3.853   3.375  0.8867  0.0680  2.0160
 7190TIP3    H221535   1.717   3.757   3.303 -1.2821 -0.2063 -0.5802
 7191TIP3   OH221536   1.471   4.656   5.106 -0.6154  0.3725 -0.6615
 7191TIP3    H121537   1.418   4.585   5.071 -0.4811 -0.8187  1.3745
 7191TIP3    H221538   1.553   4.652   5.056 -0.4511 -1.2090 -0.3320
 7192TIP3   OH221539   0.911   1.257   0.027  0.2862 -0.0028  0.3830
 7192TIP3    H121540   0.943   1.347   0.033 -0.3974  0.4549 -1.9898
 7192TIP3    H221541   0.989   1.203   0.043  1.2509  1.0555 -0.5719
 7193TIP3   OH221542   3.126   3.947   2.860  0.0375  0.1852 -0.4057
 7193TIP3    H121543   3.171   4.014   2.912  2.6782 -1.8123  0.0750
 7193TIP3    H221544   3.054   3.918   2.916 -0.5836  1.8835 -0.2376
 7194TIP3   OH221545   3.535   4.690   5.690  0.4003  0.1367  0.1121
 7194TIP3    H121546   3.586   4.772   5.692 -0.6945  0.9361 -2.0514
 7194TIP3    H221547   3.444   4.719   5.697  0.0803 -1.1778  2.3847
 7195TIP3   OH221548   1.279   3.318   3.410  0.1776 -0.0043  0.0102
 7195TIP3    H121549   1.266   3.314   3.504 -2.6582 -1.8352 -0.3400
 7195TIP3    H221550   1.191   3.309   3.373  1.2854 -0.1844 -2.8348
 7196TIP3   OH221551   6.246   2.905   0.364 -0.2307  0.6717 -0.4507
 7196TIP3    H121552   6.270   2.816   0.335  1.0495 -0.0564  2.5539
 7196TIP3    H221553   6.153   2.898   0.386  0.4807 -0.8887  2.5934
 7197TIP3   OH221554   1.071   6.194   4.420 -0.5581  0.0790  0.1845
 7197TIP3    H121555   1.123   6.170   4.497 -1.1088  2.5056  1.4044
 7197TIP3    H221556   1.133   6.241   4.364 -0.5467 -0.3036 -0.1271
 7198TIP3   OH221557   3.751   3.878   1.556  0.0786  0.1071 -0.4776
 7198TIP3    H121558   3.732   3.810   1.620 -0.1108  0.5811 -0.0238
 7198TIP3    H221559   3.729   3.960   1.600 -1.5483  0.3696 -1.6721
 7199TIP3   OH221560   3.481   2.348   2.832 -0.5689  0.1192  1.3996
 7199TIP3    H121561   3.542   2.372   2.901  1.1688  0.0329 -0.0377
 7199TIP3    H221562   3.450   2.260   2.857 -0.5246  0.3765  2.4025
 7200TIP3   OH221563   3.914   0.658   3.905  0.2944 -0.2509 -0.2471
 7200TIP3    H121564   3.850   0.588   3.915 -0.5249  0.4401 -0.5475
 7200TIP3    H221565   3.986   0.633   3.963  0.1133 -1.4339 -0.4961
 7201TIP3   OH221566   1.992   3.844   5.180  0.4720  0.3231  0.0425
 7201TIP3    H121567   1.941   3.792   5.117  2.1096  0.6628 -1.6302
 7201TIP3    H221568   1.982   3.796   5.263 -0.1335 -1.2532 -0.8867
 7202TIP3   OH221569   6.037   2.086   5.050  0.2621  0.7696  0.4480
 7202TIP3    H121570   5.949   2.113   5.075 -0.6095 -0.3057 -1.2256
 7202TIP3    H221571   6.058   2.014   5.109 -0.1757  0.7487  0.5836
 7203TIP3   OH221572   5.597   5.221   2.552 -0.0443 -0.4468 -0.1029
 7203TIP3    H121573   5.530   5.157   2.531 -0.6898  0.8548 -2.2958
 7203TIP3    H221574   5.587   5.237   2.646 -1.7802 -1.3860 -0.0997
 7204TIP3   OH221575   2.134   0.100   2.826 -0.2072  0.3198 -0.2111
 7204TIP3    H121576   2.157   0.022   2.776  0.1684  0.5213 -0.3607
 7204TIP3    H221577   2.123   0.069   2.916 -0.6457 -0.0025 -0.3734
 7205TIP3   OH221578   7.108   5.579   5.815  0.9042  0.3845 -0.3335
 7205TIP3    H121579   7.200   5.604   5.817  0.7725  0.8995  1.9294
 7205TIP3    H221580   7.079   5.586   5.906 -1.2577 -0.2280 -0.9107
 7206TIP3   OH221581   5.133   0.431   0.113  0.2791  0.0897 -0.1202
 7206TIP3    H121582   5.214   0.384   0.094  1.8630  2.8382 -0.7539
 7206TIP3    H221583   5.072   0.402   0.045  0.6507 -2.0593  0.3877
 7207TIP3   OH221584   0.333   0.947   3.682  0.1132 -0.4391  0.0558
 7207TIP3    H121585   0.383   0.868   3.661 -1.7758 -1.5879 -0.4070
 7207TIP3    H221586   0.304   0.933   3.773  1.2945  0.6336  0.6378
 7208TIP3   OH221587   0.763   3.176   0.515 -0.0819  0.5566 -0.4523
 7208TIP3    H121588   0.738   3.182   0.423 -0.5467 -0.3333 -0.3885
 7208TIP3    H221589   0.848   3.132   0.514  0.2368  1.1486 -0.4845
 7209TIP3   OH221590   4.279   5.803   4.934  0.3639  0.5789  0.2620
 7209TIP3    H121591   4.353   5.778   4.990  0.4491 -0.7389 -0.3897
 7209TIP3    H221592   4.317   5.819   4.848 -0.1281 -0.4823 -0.1749
 7210TIP3   OH221593   2.972   4.781   4.094 -0.0969  0.1224 -0.5872
 7210TIP3    H121594   2.938   4.775   4.183  2.0362  0.8712  0.3628
 7210TIP3    H221595   3.006   4.693   4.075 -0.9230 -0.1467 -0.8378
 7211TIP3   OH221596   0.192   1.605   0.273  0.1540  0.0388  0.6198
 7211TIP3    H121597   0.098   1.605   0.255  0.2854 -1.2156 -0.1139
 7211TIP3    H221598   0.206   1.530   0.331  0.9856 -1.0831 -0.9576
 7212TIP3   OH221599   5.117   2.783   1.461 -0.0819 -0.2347  0.0583
 7212TIP3    H121600   5.195   2.782   1.405 -0.2087 -0.2722 -0.1172
 7212TIP3    H221601   5.119   2.869   1.503 -0.5960  0.2319 -0.8576
 7213TIP3   OH221602   0.130   0.048   2.984  0.6329  0.1254 -0.2989
 7213TIP3    H121603   0.144  -0.035   3.030  1.3455 -0.8386 -2.1523
 7213TIP3    H221604   0.053   0.087   3.025  0.8603 -0.9864  1.2370
 7214TIP3   OH221605   0.578   4.152   5.698  0.4314 -0.0188 -0.0765
 7214TIP3    H121606   0.595   4.058   5.706  2.5453  0.4436  1.4658
 7214TIP3    H221607   0.646   4.194   5.750 -1.6128  2.3268  0.9300
 7215TIP3   OH221608   0.215   5.762   0.711  0.3115 -0.5052 -0.7902
 7215TIP3    H121609   0.237   5.670   0.724  1.3050 -0.4051 -1.5914
 7215TIP3    H221610   0.284   5.795   0.653  1.5136  1.4316  1.5835
 7216TIP3   OH221611   1.062   1.481   0.017  0.8320 -0.5326 -0.4238
 7216TIP3    H121612   1.153   1.507   0.030  0.4964  0.0073  1.0693
 7216TIP3    H221613   1.011   1.557   0.045 -0.1044 -1.3257  0.0804
 7217TIP3   OH221614   3.791   6.580   1.506 -0.6883  0.1393 -0.5548
 7217TIP3    H121615   3.837   6.641   1.449  1.5114 -1.4459 -0.6110
 7217TIP3    H221616   3.794   6.497   1.459 -0.6747 -0.7348  0.9407
 7218TIP3   OH221617   3.585   4.339   0.925 -0.2842 -0.3525  0.0076
 7218TIP3    H121618   3.641   4.409   0.959 -1.1193  1.2972 -1.8219
 7218TIP3    H221619   3.502   4.352   0.969 -0.4555 -0.1208 -0.3728
 7219TIP3   OH221620   2.439   3.102   5.518  0.3318 -0.3247 -0.2388
 7219TIP3    H121621   2.502   3.146   5.461  0.2051  0.8211  0.4738
 7219TIP3    H221622   2.361   3.158   5.514 -0.1156 -0.9170  0.0755
 7220TIP3   OH221623   3.703   0.546   2.613  0.4584  0.1481  0.6379
 7220TIP3    H121624   3.687   0.462   2.655  0.1105 -0.6900 -1.0936
 7220TIP3    H221625   3.619   0.592   2.619 -0.0732 -0.6204 -0.5066
 7221TIP3   OH221626   4.443   2.583   4.785 -0.8637 -0.3597  0.3946
 7221TIP3    H121627   4.516   2.556   4.839 -1.3392 -0.3605  1.0492
 7221TIP3    H221628   4.450   2.528   4.706 -0.5895 -0.8785  0.7732
 7222TIP3   OH221629   4.057   2.448   3.746  0.3939 -0.0208  0.0369
 7222TIP3    H121630   4.054   2.521   3.808 -1.0561  0.0420 -0.0805
 7222TIP3    H221631   4.029   2.485   3.663  0.2851 -0.5656 -0.1762
 7223TIP3   OH221632   5.704   0.073   0.765 -0.1421 -0.0633 -0.5005
 7223TIP3    H121633   5.627   0.055   0.819 -0.5524  2.4145 -0.1383
 7223TIP3    H221634   5.669   0.091   0.678  0.2509 -0.9406 -0.8604
 7224TIP3   OH221635   0.741   6.203   0.784 -0.5003  0.3250  0.0872
 7224TIP3    H121636   0.773   6.282   0.741  0.3914  0.0422  0.2080
 7224TIP3    H221637   0.678   6.234   0.849 -0.9617  0.8453 -0.6120
 7225TIP3   OH221638   2.020   0.745   5.515 -0.3544 -0.3164  0.1131
 7225TIP3    H121639   2.034   0.710   5.427  0.9212 -1.1759  0.6396
 7225TIP3    H221640   1.952   0.689   5.553 -1.2242  0.3275 -0.4553
 7226TIP3   OH221641   6.915   2.775   4.793 -0.7931  0.0183 -0.2405
 7226TIP3    H121642   6.935   2.851   4.738 -0.3447  1.2075  1.4726
 7226TIP3    H221643   6.820   2.769   4.793 -0.8450  0.7345 -0.2143
 7227TIP3   OH221644   3.313   6.435   2.523 -0.5940 -0.3380  0.0689
 7227TIP3    H121645   3.397   6.406   2.490  0.7545  2.4808  0.6818
 7227TIP3    H221646   3.266   6.466   2.446 -0.2002 -0.0040 -0.0420
 7228TIP3   OH221647   1.102   2.593   2.695  0.2884  0.4347 -0.3566
 7228TIP3    H121648   1.081   2.640   2.615  2.5367  1.7908 -0.2512
 7228TIP3    H221649   1.190   2.559   2.680 -0.3879 -1.8318  0.4719
 7229TIP3   OH221650   2.361   5.318   0.651  0.1206  0.0931  0.5762
 7229TIP3    H121651   2.350   5.342   0.743 -0.9613 -0.1645  0.5161
 7229TIP3    H221652   2.289   5.257   0.632  1.2857 -1.1808  0.0103
 7230TIP3   OH221653   4.548   4.230   5.785  1.1912  0.1842  0.3089
 7230TIP3    H121654   4.497   4.179   5.848 -0.6673 -0.2318 -1.4267
 7230TIP3    H221655   4.610   4.168   5.747  0.9760 -0.0498  0.3421
 7231TIP3   OH221656   0.598   0.613   4.810 -0.2404 -0.4169 -0.6697
 7231TIP3    H121657   0.559   0.529   4.834 -1.7127  0.2314 -0.7495
 7231TIP3    H221658   0.661   0.631   4.880 -0.7779 -1.0101 -0.0268
 7232TIP3   OH221659   6.396   3.685   4.842  0.0850  0.1381 -0.8931
 7232TIP3    H121660   6.333   3.738   4.793 -0.0066 -0.2159 -1.1694
 7232TIP3    H221661   6.475   3.684   4.787  1.3356  2.7956  0.6507
 7233TIP3   OH221662   1.291   2.367   1.204  0.1153  0.0256 -0.0706
 7233TIP3    H121663   1.197   2.381   1.189 -0.3033 -2.9456 -0.8188
 7233TIP3    H221664   1.296   2.280   1.244  2.5218  0.4413  0.6646
 7234TIP3   OH221665   2.919   5.984   0.031 -0.3289  0.7695  0.5117
 7234TIP3    H121666   2.853   6.044  -0.004  0.6176  0.3266 -2.3834
 7234TIP3    H221667   3.000   6.034   0.029  0.1642 -0.0155 -0.3103
 7235TIP3   OH221668   6.530   2.889   4.345  0.0274 -0.3503  0.0877
 7235TIP3    H121669   6.534   2.895   4.250 -0.2053  1.9823  0.1728
 7235TIP3    H221670   6.593   2.954   4.376  0.2962 -1.2619  1.5526
 7236TIP3   OH221671   2.766   5.906   1.426 -0.3283 -0.4330  0.3930
 7236TIP3    H121672   2.800   5.863   1.504  1.1184  2.6524  1.6160
 7236TIP3    H221673   2.672   5.892   1.430 -0.0507 -2.3577  1.3444
 7237TIP3   OH221674   6.434   1.593   4.486  0.1296 -0.6678  0.1161
 7237TIP3    H121675   6.339   1.580   4.481 -0.0303  0.3878  0.1230
 7237TIP3    H221676   6.470   1.505   4.497 -0.8270 -1.1141 -0.1920
 7238TIP3   OH221677   2.864   5.167   4.004  0.2299  0.6515  0.1147
 7238TIP3    H121678   2.907   5.087   3.975  0.3766  1.0036 -0.6740
 7238TIP3    H221679   2.885   5.232   3.937  0.0666  1.3400  0.7070
 7239TIP3   OH221680   4.549   2.859   4.771  0.3391  0.7104  0.0539
 7239TIP3    H121681   4.626   2.836   4.823  1.3864  0.2572 -1.6111
 7239TIP3    H221682   4.500   2.776   4.762 -1.2815  1.3026  2.4545
 7240TIP3   OH221683   0.326   1.653   2.569 -0.4610 -0.0672 -0.5494
 7240TIP3    H121684   0.310   1.729   2.513 -1.4802  0.1287 -0.0073
 7240TIP3    H221685   0.245   1.641   2.618 -0.8557 -2.3913 -1.6336
 7241TIP3   OH221686   3.123   1.822   0.392  0.7198 -0.5470  0.1767
 7241TIP3    H121687   3.180   1.858   0.460 -1.6111 -0.5370  2.2518
 7241TIP3    H221688   3.052   1.885   0.384 -0.2320 -1.6816 -0.6447
 7242TIP3   OH221689   0.820   0.954   3.706 -0.3439 -0.2437 -0.7115
 7242TIP3    H121690   0.742   0.960   3.650 -1.7385  5.8432  1.2111
 7242TIP3    H221691   0.787   0.922   3.790 -0.9123  2.1881  0.0564
 7243TIP3   OH221692   6.765   2.904   4.085 -0.0847  0.1924  0.4318
 7243TIP3    H121693   6.675   2.880   4.063 -0.8046  1.5912  1.6645
 7243TIP3    H221694   6.759   2.935   4.176  1.2029  2.4904 -0.2100
 7244TIP3   OH221695   4.790   0.780   4.598  0.0163 -0.0591 -0.2907
 7244TIP3    H121696   4.811   0.695   4.637 -0.6687 -0.5045 -0.8604
 7244TIP3    H221697   4.854   0.840   4.637  1.1013 -0.9932 -0.5585
 7245TIP3   OH221698   4.956   2.705   1.056 -0.1768  0.3360  0.1648
 7245TIP3    H121699   5.038   2.656   1.053 -0.0224  0.1886  3.3155
 7245TIP3    H221700   4.962   2.767   0.984  2.9722  0.7036  0.6077
 7246TIP3   OH221701   4.151   5.115   3.418 -0.5388  0.7049  0.0896
 7246TIP3    H121702   4.156   5.092   3.510 -0.2929  0.0497 -0.0840
 7246TIP3    H221703   4.117   5.036   3.375 -0.7044  1.0212 -0.3736
 7247TIP3   OH221704   6.650   2.542   0.425 -0.7363  0.3428  0.7295
 7247TIP3    H121705   6.721   2.493   0.466 -0.3724  0.8078  0.6633
 7247TIP3    H221706   6.575   2.482   0.427 -0.0285 -0.6048 -0.3099
 7248TIP3   OH221707   2.069   0.919   2.052  0.2106  0.8297  0.1000
 7248TIP3    H121708   2.001   0.908   1.985 -0.1782  0.0188  0.6222
 7248TIP3    H221709   2.036   0.873   2.129  2.4109 -1.7938 -0.3632
 7249TIP3   OH221710   5.619   1.340   3.282 -0.1439 -0.7495  0.3708
 7249TIP3    H121711   5.636   1.398   3.208 -0.8820 -1.6918 -0.5699
 7249TIP3    H221712   5.627   1.252   3.246 -0.7078 -1.2272  1.3680
 7250TIP3   OH221713   4.742   5.391   0.606 -0.4719 -0.1522 -0.0784
 7250TIP3    H121714   4.720   5.404   0.514 -1.3996 -1.3912 -0.0512
 7250TIP3    H221715   4.661   5.360   0.646 -0.3208  1.2077  1.3614
 7251TIP3   OH221716   4.281   2.255   5.817  0.2401 -0.0010 -0.2832
 7251TIP3    H121717   4.345   2.248   5.746  1.7551  0.2982  0.9975
 7251TIP3    H221718   4.202   2.286   5.774  0.9057 -0.4751 -1.9450
 7252TIP3   OH221719   0.948   6.023   2.335  0.1604  0.0770  0.0681
 7252TIP3    H121720   0.922   5.935   2.363 -1.9495  0.1343 -1.4991
 7252TIP3    H221721   1.043   6.015   2.319 -0.2339 -2.4955 -1.8032
 7253TIP3   OH221722   1.310   4.089   3.332  0.1111  0.0495 -0.6444
 7253TIP3    H121723   1.309   4.142   3.411 -0.2362  2.6027 -2.2605
 7253TIP3    H221724   1.350   4.006   3.360 -0.5705  0.5815  2.2979
 7254TIP3   OH221725   2.673   5.274   5.645  0.2143 -0.1298  0.1655
 7254TIP3    H121726   2.617   5.285   5.568 -1.1982 -1.0373  1.0265
 7254TIP3    H221727   2.676   5.180   5.660  1.1273 -0.0195  0.7817
 7255TIP3   OH221728   5.249   6.088   5.619  0.4547 -0.5960 -0.2168
 7255TIP3    H121729   5.342   6.108   5.629  0.3926  1.0512 -2.2283
 7255TIP3    H221730   5.210   6.109   5.703  1.7971 -0.8001  0.4902
 7256TIP3   OH221731   4.822   0.214   0.284 -0.2555 -0.4897  0.1289
 7256TIP3    H121732   4.899   0.192   0.337 -0.1938  0.4912  0.4659
 7256TIP3    H221733   4.794   0.130   0.248  1.3699 -0.7978 -0.5495
 7257TIP3   OH221734   4.142   3.724   0.932 -0.0443  0.2743 -0.1586
 7257TIP3    H121735   4.208   3.770   0.880 -1.0010  2.6083  0.5601
 7257TIP3    H221736   4.167   3.739   1.023 -0.3793 -0.6751  0.1086
 7258TIP3   OH221737   6.232   4.468   2.879 -0.4225 -0.2575  0.1176
 7258TIP3    H121738   6.160   4.444   2.937 -1.4124  0.2443 -0.8702
 7258TIP3    H221739   6.263   4.385   2.842  0.6472 -0.6525  1.8097
 7259TIP3   OH221740   1.078   4.632   3.911  0.1201 -0.3925  0.2480
 7259TIP3    H121741   1.024   4.567   3.866 -0.6033  0.7494 -0.6006
 7259TIP3    H221742   1.075   4.607   4.003  1.5893 -2.7586 -0.2741
 7260TIP3   OH221743   5.716   2.758   0.905  0.0614  0.6560  0.1161
 7260TIP3    H121744   5.754   2.792   0.824 -0.5377  1.1924  0.0548
 7260TIP3    H221745   5.770   2.794   0.975  1.7074 -1.2503 -0.0879
 7261TIP3   OH221746   4.418   5.947   0.305 -0.0276  0.1230  0.1652
 7261TIP3    H121747   4.445   5.907   0.222  2.1178  1.0779  0.3315
 7261TIP3    H221748   4.390   5.873   0.358  2.0453 -1.0193 -0.1907
 7262TIP3   OH221749   1.016   6.507   2.690  0.2979  0.2348 -0.2268
 7262TIP3    H121750   0.944   6.514   2.752  0.7488  1.4572  0.1857
 7262TIP3    H221751   0.974   6.505   2.604 -0.3351 -1.5518  0.0655
 7263TIP3   OH221752   3.366   5.621   5.188  0.3307 -0.0587 -0.6082
 7263TIP3    H121753   3.428   5.591   5.255  0.0878 -0.8137 -0.7029
 7263TIP3    H221754   3.360   5.715   5.201  0.9467 -0.0791 -0.1280
 7264TIP3   OH221755   3.987   6.003   0.511  0.1690  0.0724  0.2093
 7264TIP3    H121756   4.042   6.056   0.453 -0.9764 -1.2176 -2.2012
 7264TIP3    H221757   3.934   6.067   0.558  1.0432  1.1695 -0.2432
 7265TIP3   OH221758   4.700   1.564   0.300 -0.0807  0.3383  0.1830
 7265TIP3    H121759   4.785   1.607   0.310  0.0857 -0.2421  1.4396
 7265TIP3    H221760   4.713   1.500   0.231  1.7925 -2.6963  3.0765
 7266TIP3   OH221761   0.626   6.637   5.434  0.1294 -0.1462  0.0030
 7266TIP3    H121762   0.606   6.580   5.359 -0.5203  0.1330 -0.0338
 7266TIP3    H221763   0.562   6.613   5.501 -0.5640  0.9737 -0.2349
 7267TIP3   OH221764   0.098   2.702   5.391 -0.0555  0.6567  0.6111
 7267TIP3    H121765   0.193   2.710   5.395  0.0324  1.1132 -1.3723
 7267TIP3    H221766   0.079   2.688   5.299 -1.8928 -0.0107  1.0462
 7268TIP3   OH221767   0.064   5.833   3.279 -0.1586 -0.0897  0.3189
 7268TIP3    H121768   0.150   5.859   3.247  0.0054 -0.4716  0.4353
 7268TIP3    H221769   0.078   5.746   3.317 -0.8372 -0.6996 -0.7725
 7269TIP3   OH221770   2.498   5.896   0.779  0.1160  0.1387 -1.0325
 7269TIP3    H121771   2.409   5.923   0.802  1.4086  3.1242  1.2281
 7269TIP3    H221772   2.511   5.813   0.824 -1.0023  0.5177  0.0348
 7270TIP3   OH221773   7.051   0.528   4.155  0.1318 -0.3348 -0.2069
 7270TIP3    H121774   7.116   0.502   4.090  0.6370  0.1742  0.0895
 7270TIP3    H221775   6.982   0.462   4.147  1.0411 -1.3461  0.0065
 7271TIP3   OH221776   4.919   5.919   2.592  1.0010  0.0139  0.2836
 7271TIP3    H121777   4.988   5.897   2.655 -0.2860 -0.4065  1.5934
 7271TIP3    H221778   4.843   5.869   2.622  0.3051 -0.0719 -1.5320
 7272TIP3   OH221779   1.571   2.432   0.728  0.6317 -0.1414  0.7912
 7272TIP3    H121780   1.550   2.401   0.816  1.7855 -0.4884  0.9601
 7272TIP3    H221781   1.560   2.527   0.733  2.0440  0.0069  1.7314
 7273TIP3   OH221782   6.694   0.140   3.539  0.3710 -0.2568  0.3722
 7273TIP3    H121783   6.690   0.075   3.469  1.1787 -0.8980  0.9006
 7273TIP3    H221784   6.628   0.113   3.603 -0.6372  0.5446 -0.2922
 7274TIP3   OH221785   6.269   4.485   3.261  0.2733  0.6199 -0.0540
 7274TIP3    H121786   6.176   4.506   3.254 -0.0554 -0.0577  1.6968
 7274TIP3    H221787   6.306   4.555   3.314  0.2461 -0.3333  1.2779
 7275TIP3   OH221788   1.395   2.456   2.641 -0.7846  0.2586  0.1041
 7275TIP3    H121789   1.357   2.404   2.570  0.6228  0.6948 -1.0211
 7275TIP3    H221790   1.398   2.396   2.715 -1.7861 -0.3815 -0.3531
 7276TIP3   OH221791   0.493   4.817   0.803  0.1932  0.1781 -0.3117
 7276TIP3    H121792   0.568   4.874   0.822  1.9798 -2.1745  0.1450
 7276TIP3    H221793   0.443   4.815   0.884 -0.7035  2.1172 -0.7525
 7277TIP3   OH221794   4.857   1.336   3.339 -0.3029 -0.3092 -0.0504
 7277TIP3    H121795   4.906   1.320   3.259  0.2488  0.6996  0.0741
 7277TIP3    H221796   4.876   1.261   3.395 -1.1483 -1.3116 -1.0646
 7278TIP3   OH221797   1.299   2.371   5.270  1.1040 -0.4870 -0.1468
 7278TIP3    H121798   1.299   2.384   5.365  0.3968 -1.0892 -0.0528
 7278TIP3    H221799   1.335   2.284   5.258  3.4767  0.4907 -0.6045
 7279TIP3   OH221800   3.700   2.956   3.007 -0.6828 -0.4446  0.0835
 7279TIP3    H121801   3.764   3.018   2.972 -1.0411  0.5723  1.1436
 7279TIP3    H221802   3.630   2.954   2.943 -0.7415  0.3863  0.1115
 7280TIP3   OH221803   7.111   3.663   4.272 -0.4636  0.0224  0.2275
 7280TIP3    H121804   7.086   3.605   4.201 -0.1937  0.4892 -0.2549
 7280TIP3    H221805   7.030   3.709   4.295 -0.4808  0.0997  0.0102
 7281TIP3   OH221806   6.007   1.267   5.356  0.6866 -0.2760 -0.1087
 7281TIP3    H121807   6.051   1.311   5.284  0.2158 -0.7140 -0.6815
 7281TIP3    H221808   6.026   1.174   5.342  0.2928 -0.3928  0.1121
 7282TIP3   OH221809   1.184   5.685   5.199  0.3808  0.1691  0.1931
 7282TIP3    H121810   1.258   5.741   5.174  0.0403  0.9490  0.8808
 7282TIP3    H221811   1.225   5.605   5.233  0.9306  0.7997  1.0544
 7283TIP3   OH221812   2.755   1.277   1.630 -0.0793 -0.5825 -0.1848
 7283TIP3    H121813   2.700   1.212   1.586 -0.6642 -0.8230  0.8733
 7283TIP3    H221814   2.693   1.336   1.673  0.4744 -0.3166  0.2637
 7284TIP3   OH221815   4.845   6.250   0.612  0.5323 -0.0814 -0.0625
 7284TIP3    H121816   4.894   6.190   0.668  0.5011  0.4236  0.5141
 7284TIP3    H221817   4.900   6.328   0.605  0.5699 -0.1760 -0.8024
 7285TIP3   OH221818   0.325   4.107   4.138  0.0070 -0.3739  0.5254
 7285TIP3    H121819   0.302   4.047   4.067  1.3407 -1.6984  1.1596
 7285TIP3    H221820   0.388   4.167   4.099  0.6843 -1.0552  0.5371
 7286TIP3   OH221821   2.768   6.804   5.421  0.4812 -0.1790  0.2728
 7286TIP3    H121822   2.702   6.797   5.353  3.2125  0.0360 -2.6358
 7286TIP3    H221823   2.744   6.736   5.484 -3.3337  0.9717  0.3157
 7287TIP3   OH221824   5.624   4.325   2.874 -0.7616  0.0866  0.1663
 7287TIP3    H121825   5.711   4.287   2.865 -0.8339 -0.2658  0.8408
 7287TIP3    H221826   5.638   4.409   2.918 -0.7773 -0.0397  0.4112
 7288TIP3   OH221827   4.550   3.143   1.737  0.1738 -0.4518  0.0688
 7288TIP3    H121828   4.501   3.081   1.684 -0.0618  0.2757 -0.5776
 7288TIP3    H221829   4.508   3.227   1.721  0.2283 -0.1735  1.2449
 7289TIP3   OH221830   1.385   6.267   0.574  0.4080 -0.2390 -0.4347
 7289TIP3    H121831   1.454   6.222   0.623  0.7967  0.4478 -0.3350
 7289TIP3    H221832   1.423   6.280   0.487 -0.0556 -0.9280 -0.7403
 7290TIP3   OH221833   0.984   2.512   4.546  0.1683  0.2024  0.1364
 7290TIP3    H121834   1.049   2.465   4.599 -0.1117 -2.5766 -1.7707
 7290TIP3    H221835   1.017   2.504   4.456 -3.0959 -2.1844 -1.0514
 7291TIP3   OH221836   4.090   1.565   1.152  0.5806 -0.3615  0.2282
 7291TIP3    H121837   4.104   1.659   1.144 -0.4754 -0.1690  0.5504
 7291TIP3    H221838   4.143   1.527   1.081  1.0546  0.4630  0.1326
 7292TIP3   OH221839   4.980   6.740   3.694  0.3459 -0.1989  0.5882
 7292TIP3    H121840   4.938   6.686   3.627 -0.1468  0.6711  0.1632
 7292TIP3    H221841   5.048   6.685   3.731  0.7512 -0.6503 -0.7732
 7293TIP3   OH221842   6.248   4.885   3.777  0.4099  0.4662  0.2597
 7293TIP3    H121843   6.292   4.951   3.831 -0.9349  1.5116  0.1246
 7293TIP3    H221844   6.244   4.807   3.834  2.4830  0.2764  0.2279
 7294TIP3   OH221845   4.989   2.320   1.034  0.0911  0.0022  0.3908
 7294TIP3    H121846   4.975   2.227   1.051 -0.4547 -0.0044 -0.0372
 7294TIP3    H221847   4.911   2.362   1.070 -0.3941  0.1309 -0.7394
 7295TIP3   OH221848   5.392   4.822   2.351 -0.0176  0.1066 -0.1774
 7295TIP3    H121849   5.362   4.736   2.381 -0.3105 -1.0917 -3.5072
 7295TIP3    H221850   5.333   4.844   2.279  1.5347  1.9973 -0.9585
 7296TIP3   OH221851   5.623   2.200   2.573  0.3189 -0.0604  0.4514
 7296TIP3    H121852   5.528   2.210   2.572  0.4191  1.3580  1.7264
 7296TIP3    H221853   5.640   2.149   2.653  0.7158  1.2381  1.2261
 7297TIP3   OH221854   1.802   6.555   4.372 -0.2830 -0.1915  0.4504
 7297TIP3    H121855   1.865   6.508   4.427  1.7784 -0.8211 -2.2557
 7297TIP3    H221856   1.786   6.496   4.298 -1.4685  1.3701 -0.5979
 7298TIP3   OH221857   5.641   4.827   1.230 -0.3680  0.0974  0.2010
 7298TIP3    H121858   5.653   4.919   1.254 -2.0768 -0.2340  2.7409
 7298TIP3    H221859   5.683   4.777   1.300  1.0113 -1.1342 -1.4148
 7299TIP3   OH221860   5.215   1.156   3.232  0.0991  0.7615  0.1159
 7299TIP3    H121861   5.277   1.100   3.277 -0.1237  1.0034  0.7287
 7299TIP3    H221862   5.251   1.244   3.242  0.4811  0.7334 -0.8923
 7300TIP3   OH221863   3.992   3.803   0.710  0.1577  0.2736  0.4066
 7300TIP3    H121864   4.050   3.816   0.635 -0.8300  1.0774 -0.2437
 7300TIP3    H221865   4.047   3.758   0.775  0.2508 -3.2460 -1.8278
 7301TIP3   OH221866   0.903   2.753   1.217  0.2405  0.3946 -0.1324
 7301TIP3    H121867   0.853   2.789   1.143 -0.0394  0.1243 -0.0757
 7301TIP3    H221868   0.971   2.701   1.176  0.4171  0.6822 -0.2087
 7302TIP3   OH221869   4.383   2.692   5.344 -0.7169 -0.0296  0.1028
 7302TIP3    H121870   4.444   2.758   5.313 -0.1424 -0.7439 -0.3323
 7302TIP3    H221871   4.298   2.720   5.312 -0.8518  1.6320  1.7381
 7303TIP3   OH221872   0.604   2.026   1.609  0.6326 -0.2831 -0.1862
 7303TIP3    H121873   0.606   2.115   1.644  0.8582 -0.1062 -0.6354
 7303TIP3    H221874   0.512   2.000   1.614  0.8685 -0.8735  2.0295
 7304TIP3   OH221875   5.510   4.209   0.429 -0.4934 -0.1982 -0.9697
 7304TIP3    H121876   5.593   4.190   0.386 -0.5613  0.2554 -1.3110
 7304TIP3    H221877   5.451   4.236   0.358 -1.0238 -0.8009 -0.7712
 7305TIP3   OH221878   2.989   0.878   2.696 -0.7038  0.3096  0.6884
 7305TIP3    H121879   3.062   0.921   2.740 -0.0168 -0.5712  0.4350
 7305TIP3    H221880   3.001   0.785   2.715  1.4412 -0.5836 -3.7972
 7306TIP3   OH221881   5.486   3.883   4.377 -0.2179  0.4342 -0.4545
 7306TIP3    H121882   5.581   3.880   4.377 -0.1939 -1.4303  1.9614
 7306TIP3    H221883   5.462   3.903   4.467 -2.1306  0.9223 -1.0235
 7307TIP3   OH221884   3.976   0.234   4.578 -0.1462 -0.0236 -0.0865
 7307TIP3    H121885   3.968   0.143   4.605  1.0440 -0.1743 -0.1917
 7307TIP3    H221886   3.951   0.234   4.485 -0.0956 -0.2571 -0.1011
 7308TIP3   OH221887   1.326   0.244   3.843 -1.1343  0.1059  0.0379
 7308TIP3    H121888   1.285   0.188   3.909  0.9924 -0.7670  0.6908
 7308TIP3    H221889   1.323   0.193   3.762 -0.1181 -0.5506  0.4028
 7309TIP3   OH221890   4.083   4.892   0.121  0.3144 -0.5490 -0.0679
 7309TIP3    H121891   4.152   4.920   0.181  1.0856  0.5960 -1.4300
 7309TIP3    H221892   4.005   4.939   0.153  0.8899  0.6851 -0.4010
 7310TIP3   OH221893   3.843   6.307   1.020 -0.3013 -0.4268 -0.2872
 7310TIP3    H121894   3.783   6.313   0.945 -0.1752 -1.1808 -0.4573
 7310TIP3    H221895   3.867   6.214   1.024  0.6267 -0.1891 -0.0434
 7311TIP3   OH221896   2.701   6.731   0.873  0.0727 -0.1569 -0.8659
 7311TIP3    H121897   2.708   6.650   0.822  0.8389 -1.1284  0.7178
 7311TIP3    H221898   2.760   6.792   0.830  2.2694 -1.5908 -0.0513
 7312TIP3   OH221899   0.946   4.283   2.805 -0.2177  0.1285 -0.2421
 7312TIP3    H121900   0.956   4.336   2.727 -0.0545  1.2388  0.5064
 7312TIP3    H221901   0.864   4.313   2.845 -0.1126 -0.1570  0.2042
 7313TIP3   OH221902   4.136   2.981   2.625  0.1911  0.4587 -0.2009
 7313TIP3    H121903   4.121   3.016   2.713  3.7539  1.0728  0.3174
 7313TIP3    H221904   4.137   2.886   2.638 -0.0084  0.5161  0.2799
 7314TIP3   OH221905   2.526   2.220   5.884 -0.2902  0.2872 -0.2204
 7314TIP3    H121906   2.501   2.279   5.812 -1.7913 -1.4465 -1.2369
 7314TIP3    H221907   2.502   2.132   5.852  2.8515 -1.0615  0.7594
 7315TIP3   OH221908   5.284   2.935   0.703  0.3041 -0.4766  0.3528
 7315TIP3    H121909   5.245   3.003   0.757 -1.9416 -1.4552  0.0523
 7315TIP3    H221910   5.312   2.868   0.765  1.6651  0.2625  0.5740
 7316TIP3   OH221911   0.540   0.348   4.871  0.4746 -0.3289 -0.4538
 7316TIP3    H121912   0.508   0.286   4.936  1.1997  0.6619  0.9032
 7316TIP3    H221913   0.631   0.321   4.855  0.7199  0.2206 -0.0313
 7317TIP3   OH221914   1.357   0.029   3.341 -0.4358  0.9697 -0.5636
 7317TIP3    H121915   1.350  -0.065   3.356  2.5873  0.8298  0.9732
 7317TIP3    H221916   1.310   0.045   3.260 -1.6302 -1.7335 -0.4968
 7318TIP3   OH221917   4.425   1.188   4.877 -0.1297 -0.7417  0.2605
 7318TIP3    H121918   4.494   1.197   4.943 -0.3828 -0.8151  0.5359
 7318TIP3    H221919   4.393   1.099   4.888  0.7363 -1.2163 -0.8618
 7319TIP3   OH221920   6.093   6.742   3.007  0.0096 -0.1006  0.7005
 7319TIP3    H121921   6.106   6.809   2.940  0.4768  0.8566  1.7310
 7319TIP3    H221922   5.999   6.740   3.021 -0.1731 -0.8370 -0.4997
 7320TIP3   OH221923   4.180   0.699   1.309  0.2591 -0.0421 -0.7644
 7320TIP3    H121924   4.194   0.715   1.216 -0.8533 -0.5413 -1.0331
 7320TIP3    H221925   4.113   0.763   1.334  0.8511  0.3755 -0.1910
 7321TIP3   OH221926   3.984   0.441   3.598  0.4850 -0.6503 -0.0159
 7321TIP3    H121927   4.002   0.388   3.520 -0.4509  0.6692 -1.1766
 7321TIP3    H221928   3.937   0.381   3.657 -0.2895 -1.2207 -1.1700
 7322TIP3   OH221929   5.597   4.473   3.309 -0.0840 -0.1475  0.3766
 7322TIP3    H121930   5.541   4.422   3.368  0.2998 -0.5651  0.3929
 7322TIP3    H221931   5.650   4.407   3.264 -0.1167  0.1927 -0.1686
 7323TIP3   OH221932   2.724   2.967   2.580  0.1106  0.4533 -0.3390
 7323TIP3    H121933   2.653   2.920   2.624 -1.7894  0.6040 -2.9645
 7323TIP3    H221934   2.697   3.059   2.584  0.7150  0.6356 -0.4196
 7324TIP3   OH221935   5.826   5.437   0.067 -0.0448 -0.4071 -0.3986
 7324TIP3    H121936   5.844   5.448   0.160 -0.0770 -0.1455 -0.4229
 7324TIP3    H221937   5.894   5.377   0.036 -0.6791 -1.3695  0.0182
 7325TIP3   OH221938   1.666   2.498   2.290 -0.5881 -0.5256 -0.9326
 7325TIP3    H121939   1.742   2.466   2.338 -1.0302 -0.6874 -0.3340
 7325TIP3    H221940   1.703   2.549   2.218  0.0739  0.0719 -0.1895
 7326TIP3   OH221941   0.043   3.138   1.117  0.8741 -0.2408  0.2449
 7326TIP3    H121942  -0.017   3.211   1.108  0.7121 -0.4107 -0.0618
 7326TIP3    H221943   0.008   3.070   1.059  1.2145 -0.4349  0.2615
 7327TIP3   OH221944   3.908   4.412   4.730 -0.3262 -0.5037 -0.1716
 7327TIP3    H121945   3.924   4.352   4.657 -0.4245 -1.0225  0.2339
 7327TIP3    H221946   3.846   4.367   4.786 -2.1724  0.9107 -0.9942
 7328TIP3   OH221947   1.793   5.667   4.763  0.1863 -0.3136  0.3819
 7328TIP3    H121948   1.837   5.587   4.793 -1.8387 -1.8876 -0.5801
 7328TIP3    H221949   1.845   5.697   4.689  0.8832 -0.8353  0.6468
 7329TIP3   OH221950   1.244   6.543   4.784  0.4227  0.1469 -0.0651
 7329TIP3    H121951   1.272   6.518   4.696 -0.9660 -1.2095 -0.1810
 7329TIP3    H221952   1.241   6.638   4.783  1.8663  0.2063 -0.9942
 7330TIP3   OH221953   3.986   0.430   0.032 -0.5412  0.0236 -0.6407
 7330TIP3    H121954   4.047   0.369   0.075 -2.0820 -1.4835 -0.4874
 7330TIP3    H221955   3.993   0.408  -0.061 -0.4420  0.2516 -0.6880
 7331TIP3   OH221956   2.709   0.686   2.889 -0.3955  0.2021 -0.3097
 7331TIP3    H121957   2.636   0.627   2.872 -0.8050  0.9752 -1.3312
 7331TIP3    H221958   2.670   0.773   2.892  0.6261  0.7825 -2.2314
 7332TIP3   OH221959   0.664   0.388   2.887  0.2275 -0.1854  0.1369
 7332TIP3    H121960   0.661   0.484   2.884 -0.3849  0.0872  4.0586
 7332TIP3    H221961   0.574   0.362   2.907  0.3942 -1.6214 -0.8412
 7333TIP3   OH221962   1.879   2.286   3.880 -0.0180  0.1250  0.5995
 7333TIP3    H121963   1.932   2.224   3.930 -1.3211  1.4249  3.9406
 7333TIP3    H221964   1.825   2.330   3.947 -1.8251  2.2067 -2.0134
 7334TIP3   OH221965   3.168   1.593   0.586  0.2290 -0.0937  0.3307
 7334TIP3    H121966   3.140   1.644   0.510  0.1037 -0.1873  0.3119
 7334TIP3    H221967   3.102   1.612   0.653  0.0879 -0.3599  0.2687
 7335TIP3   OH221968   0.810   1.424   0.816  0.1673  0.0165  0.0500
 7335TIP3    H121969   0.880   1.378   0.863 -0.1178 -0.1371  0.3326
 7335TIP3    H221970   0.855   1.495   0.771  0.3252  0.7740  1.3463
 7336TIP3   OH221971   1.850   2.657   5.834  0.1792  0.0995  0.3685
 7336TIP3    H121972   1.755   2.664   5.827  0.1785  0.8781  0.9981
 7336TIP3    H221973   1.884   2.713   5.765  0.2056 -1.2462 -0.7599
 7337TIP3   OH221974   4.769   3.748   0.590  0.1633 -1.1716  0.4320
 7337TIP3    H121975   4.808   3.686   0.528  0.7708 -3.3930  2.8683
 7337TIP3    H221976   4.799   3.719   0.676 -1.7523  0.9242  1.9472
 7338TIP3   OH221977   6.792   2.682   2.281  0.3150  0.7349 -0.1137
 7338TIP3    H121978   6.739   2.607   2.253 -0.7687  1.3698  0.1778
 7338TIP3    H221979   6.862   2.644   2.335 -1.2664  0.0755  1.5586
 7339TIP3   OH221980   6.844   5.511   3.698 -0.0697  0.5681 -0.5673
 7339TIP3    H121981   6.812   5.420   3.695  0.3582  0.2882  1.5474
 7339TIP3    H221982   6.782   5.556   3.755  1.2352  0.8970  0.6590
 7340TIP3   OH221983   5.694   0.109   1.426  0.2153 -0.0550  0.3204
 7340TIP3    H121984   5.763   0.138   1.368  1.1102  0.8704  1.7847
 7340TIP3    H221985   5.740   0.079   1.505 -0.9098 -1.8635  0.3566
 7341TIP3   OH221986   0.874   4.867   5.316  0.0539  0.1634  0.1925
 7341TIP3    H121987   0.838   4.821   5.392  0.4993 -0.5596 -0.0239
 7341TIP3    H221988   0.911   4.947   5.353  0.6983 -0.4017  0.8281
 7342TIP3   OH221989   1.763   3.956   1.994  0.9601  0.3685  0.1796
 7342TIP3    H121990   1.737   4.003   1.915  1.5979  0.2139 -0.1234
 7342TIP3    H221991   1.691   3.895   2.010  1.3511 -0.4060 -0.9360
 7343TIP3   OH221992   5.008   3.746   3.420  0.2830 -0.5151 -0.4550
 7343TIP3    H121993   5.101   3.749   3.443  0.2744 -0.3068 -0.4462
 7343TIP3    H221994   5.005   3.779   3.330  0.1794 -0.2080 -0.3381
 7344TIP3   OH221995   0.637   6.381   5.313 -0.4063  0.0184 -0.5299
 7344TIP3    H121996   0.722   6.402   5.276 -0.5525 -2.5476 -2.6284
 7344TIP3    H221997   0.574   6.407   5.246 -1.1454  0.1721  0.1986
 7345TIP3   OH221998   1.710   5.568   1.084  0.0235 -0.6521  0.2046
 7345TIP3    H121999   1.633   5.602   1.038  0.7924  0.4051 -0.3452
 7345TIP3    H222000   1.698   5.596   1.175  0.5140  0.9244 -0.1895
 7346TIP3   OH222001   5.265   5.058   0.460  0.0405  0.0063  0.5023
 7346TIP3    H122002   5.344   5.111   0.462  0.0042  0.0614  0.4843
 7346TIP3    H222003   5.270   5.003   0.538 -0.1324  0.3421  0.7535
 7347TIP3   OH222004   4.535   1.378   4.424 -0.0058 -0.4515 -0.2155
 7347TIP3    H122005   4.497   1.343   4.505 -0.5594  1.6906  0.5341
 7347TIP3    H222006   4.474   1.448   4.398  1.5147  0.6288 -1.0297
 7348TIP3   OH222007   3.285   6.034   3.322  0.0272 -0.4667  0.3654
 7348TIP3    H122008   3.268   5.973   3.250  2.3599 -0.1630 -0.5143
 7348TIP3    H222009   3.242   6.115   3.295  0.1021 -0.6298 -0.2520
 7349TIP3   OH222010   1.626   0.550   3.223 -0.1237  0.3636 -0.3837
 7349TIP3    H122011   1.684   0.537   3.148 -0.1080  0.6919 -0.4326
 7349TIP3    H222012   1.629   0.645   3.239 -1.8298  0.6121 -1.3341
 7350TIP3   OH222013   4.319   3.689   0.053 -0.4358  0.1917  0.1599
 7350TIP3    H122014   4.300   3.597   0.035 -1.0774 -0.3948  3.3343
 7350TIP3    H222015   4.414   3.695   0.045 -0.5599 -0.1070 -2.3820
 7351TIP3   OH222016   4.832   2.095   4.645  0.0001  0.1335  0.2078
 7351TIP3    H122017   4.923   2.077   4.669  0.0256 -2.1036 -1.2845
 7351TIP3    H222018   4.796   2.140   4.722  1.3732 -2.2279  2.3874
 7352TIP3   OH222019   2.300   3.877   4.194 -0.0409  0.3108 -0.0486
 7352TIP3    H122020   2.269   3.874   4.103  0.1357 -0.0781 -0.0962
 7352TIP3    H222021   2.227   3.916   4.242 -0.4462 -0.2041 -0.2317
 7353TIP3   OH222022   7.199   5.834   1.460  0.3132 -0.1352 -0.7285
 7353TIP3    H122023   7.159   5.770   1.518  0.1921  1.8024  1.4618
 7353TIP3    H222024   7.130   5.856   1.397 -0.5355 -0.2279  0.1449
 7354TIP3   OH222025   0.727   0.712   2.475  0.2517 -0.1419 -0.1398
 7354TIP3    H122026   0.799   0.672   2.523 -0.8245 -1.7780  0.2097
 7354TIP3    H222027   0.673   0.638   2.447 -2.2070  1.0548  1.1202
 7355TIP3   OH222028   0.262   2.802   1.306 -0.6139 -0.4904 -0.6763
 7355TIP3    H122029   0.293   2.735   1.245 -0.0587 -0.5301 -0.3612
 7355TIP3    H222030   0.338   2.821   1.361 -0.7304  0.4862 -0.8346
 7356TIP3   OH222031   1.116   0.524   2.997  0.0934  0.1149 -0.5103
 7356TIP3    H122032   1.175   0.448   2.990  0.9326  0.7865 -0.9370
 7356TIP3    H222033   1.163   0.595   2.953 -0.4398  1.0277  0.3510
 7357TIP3   OH222034   2.680   5.465   4.206 -0.0428 -0.2747 -0.2485
 7357TIP3    H122035   2.632   5.415   4.272  0.2765 -1.7731 -1.1047
 7357TIP3    H222036   2.629   5.454   4.126  0.5158  0.0178 -0.6522
 7358TIP3   OH222037   2.061   0.678   5.255 -0.2068 -0.2925 -0.6473
 7358TIP3    H122038   2.051   0.715   5.168  1.4619  0.7127 -0.4422
 7358TIP3    H222039   2.020   0.591   5.249 -2.1900  0.6473 -1.7528
 7359TIP3   OH222040   6.624   0.055   2.510 -0.1807  0.3106  0.6011
 7359TIP3    H122041   6.665   0.108   2.578  1.1170  1.2894 -0.8473
 7359TIP3    H222042   6.698   0.022   2.458 -1.0908 -0.9229  0.0364
 7360TIP3   OH222043   0.073   1.783   2.041  0.1160  0.1203  0.0153
 7360TIP3    H122044   0.144   1.726   2.072  0.8795  1.2150  0.3351
 7360TIP3    H222045   0.013   1.724   1.996 -0.2349 -1.3129  2.1937
 7361TIP3   OH222046   3.032   2.403   3.573 -0.2342 -0.1599  0.5523
 7361TIP3    H122047   3.023   2.410   3.478 -1.2371 -0.5809  0.6041
 7361TIP3    H222048   3.126   2.400   3.588  0.0554 -4.5956 -0.7950
 7362TIP3   OH222049   5.804   1.918   0.134 -0.3268  0.2696 -0.0730
 7362TIP3    H122050   5.837   1.845   0.083  2.2173 -0.4661  2.3834
 7362TIP3    H222051   5.830   1.996   0.085  0.4872 -0.4280 -0.7630
 7363TIP3   OH222052   4.231   6.142   1.364 -0.0319 -0.5614  0.2398
 7363TIP3    H122053   4.304   6.169   1.308 -0.7060  0.6308 -0.1175
 7363TIP3    H222054   4.201   6.059   1.328 -0.0798 -0.0928 -0.8206
 7364TIP3   OH222055   4.854   4.865   4.305 -0.6816 -0.5992  0.3866
 7364TIP3    H122056   4.837   4.782   4.349  2.3892 -1.3634  0.3998
 7364TIP3    H222057   4.942   4.890   4.334 -1.2320  2.3400 -0.1493
 7365TIP3   OH222058   1.452   0.344   3.001  0.0724  0.2284  0.1520
 7365TIP3    H122059   1.469   0.321   3.092  1.5038 -2.8813 -0.7727
 7365TIP3    H222060   1.406   0.268   2.965  0.2174  1.0573 -1.9311
 7366TIP3   OH222061   5.112   0.913   1.168  0.4825  0.2111  0.4232
 7366TIP3    H122062   5.090   0.905   1.075 -0.2901  1.3790  0.4941
 7366TIP3    H222063   5.204   0.941   1.169  0.9316 -1.1312  0.0649
 7367TIP3   OH222064   6.717   2.409   3.449 -0.0086 -0.2960  0.0411
 7367TIP3    H122065   6.762   2.493   3.442 -0.3793 -0.2385 -2.1732
 7367TIP3    H222066   6.643   2.417   3.390 -1.7598 -1.1657  1.9946
 7368TIP3   OH222067   6.698   2.664   3.080 -0.1282  0.3120 -0.4506
 7368TIP3    H122068   6.757   2.603   3.124  2.2815  1.3175 -2.0770
 7368TIP3    H222069   6.659   2.612   3.009 -0.2731 -0.0476 -0.1102
 7369TIP3   OH222070   5.504   2.644   3.634  0.8015  0.0568  0.3807
 7369TIP3    H122071   5.540   2.585   3.567 -1.7293 -1.7565  0.4716
 7369TIP3    H222072   5.580   2.687   3.672  2.4726 -0.1896 -2.4156
 7370TIP3   OH222073   7.205   4.279   0.473 -0.1732  0.0783 -0.7966
 7370TIP3    H122074   7.224   4.341   0.402 -1.8484  0.0205 -1.3487
 7370TIP3    H222075   7.164   4.333   0.541  1.3547  0.1214  0.1410
 7371TIP3   OH222076   6.661   3.669   1.525 -0.3234 -0.3570  0.2173
 7371TIP3    H122077   6.616   3.585   1.540 -1.5167  0.1398 -0.4556
 7371TIP3    H222078   6.710   3.655   1.443 -1.2498 -0.1286 -0.3926
 7372TIP3   OH222079   1.370   6.570   1.994  0.3116  0.5632  0.9996
 7372TIP3    H122080   1.447   6.516   2.008 -0.3991  0.0455  3.3312
 7372TIP3    H222081   1.303   6.509   1.963  1.0241  1.1907 -2.1372
 7373TIP3   OH222082   1.545   5.899   2.216 -0.3744 -0.2205 -0.4828
 7373TIP3    H122083   1.515   5.825   2.164 -3.7303  0.9344 -0.4062
 7373TIP3    H222084   1.567   5.966   2.152  0.1098 -0.3559 -0.4693
 7374TIP3   OH222085   4.381   4.324   3.355  0.2653 -0.2307  0.5537
 7374TIP3    H122086   4.360   4.242   3.310  0.2147 -0.1294  0.3913
 7374TIP3    H222087   4.472   4.341   3.331 -0.7648  1.7535 -2.6047
 7375TIP3   OH222088   2.263   3.236   0.479 -0.1456  0.1502  0.1008
 7375TIP3    H122089   2.254   3.168   0.412 -1.6167  2.4556 -2.2786
 7375TIP3    H222090   2.325   3.299   0.441  0.7632  0.4226  1.9644
 7376TIP3   OH222091   0.638   4.182   4.379  0.2353  0.0443 -0.2001
 7376TIP3    H122092   0.577   4.190   4.453 -1.6775 -0.9682 -1.5968
 7376TIP3    H222093   0.632   4.267   4.335  0.4311  0.2150  0.0972
 7377TIP3   OH222094   1.376   6.648   0.395 -0.0985 -0.2390  0.2465
 7377TIP3    H122095   1.334   6.734   0.388 -1.6245 -1.0740 -4.0579
 7377TIP3    H222096   1.468   6.665   0.375 -0.6624  0.3463 -2.1757
 7378TIP3   OH222097   1.854   4.983   2.398 -0.1209  0.1649  0.1999
 7378TIP3    H122098   1.853   4.927   2.476  0.3375 -0.0300  0.0699
 7378TIP3    H222099   1.802   5.060   2.423 -0.8732 -0.3787  0.3248
 7379TIP3   OH222100   0.656   6.201   3.712 -0.6328 -0.1044  0.9982
 7379TIP3    H122101   0.587   6.152   3.757 -1.1703 -1.7103 -1.4161
 7379TIP3    H222102   0.610   6.274   3.671 -0.5036  0.1059  1.2225
 7380TIP3   OH222103   2.718   4.910   2.382  0.1792 -0.7134 -0.2187
 7380TIP3    H122104   2.766   4.878   2.459 -1.3349 -1.9214  0.2743
 7380TIP3    H222105   2.677   4.991   2.410  0.5771 -0.5480 -0.1173
 7381TIP3   OH222106   0.548   2.618   5.316 -0.4316  0.1886 -0.2421
 7381TIP3    H122107   0.519   2.706   5.295 -0.1794  0.0423 -1.2614
 7381TIP3    H222108   0.468   2.565   5.312 -0.9039  0.6204  2.0749
 7382TIP3   OH222109   5.119   2.245   2.587  0.7468 -0.8932  0.0996
 7382TIP3    H122110   5.071   2.277   2.664  1.5546  1.1725 -0.1984
 7382TIP3    H222111   5.060   2.261   2.514  1.7887  1.6864 -0.2725
 7383TIP3   OH222112   1.314   2.552   1.951  0.1032 -0.3597 -0.1297
 7383TIP3    H122113   1.248   2.486   1.974 -0.3861 -0.5385 -1.9197
 7383TIP3    H222114   1.314   2.611   2.026 -0.0209 -1.9229  1.1811
 7384TIP3   OH222115   3.211   6.766   0.247  0.1570 -0.0613 -0.4458
 7384TIP3    H122116   3.263   6.721   0.314  1.8326  2.9807  0.4987
 7384TIP3    H222117   3.275   6.810   0.192 -1.3602  1.5383 -1.0236
 7385TIP3   OH222118   6.742   6.622   3.508  0.0074  0.8085  0.3235
 7385TIP3    H122119   6.700   6.649   3.590  0.7180  0.2846  0.8631
 7385TIP3    H222120   6.681   6.558   3.470  0.1517  0.2966  0.9410
 7386TIP3   OH222121   6.398   0.070   0.676 -0.1196 -0.0120  0.0811
 7386TIP3    H122122   6.311   0.037   0.698 -0.0682 -0.3057 -0.1355
 7386TIP3    H222123   6.444  -0.007   0.643 -0.5683  0.5836 -2.1671
 7387TIP3   OH222124   5.237   1.123   4.535  0.5494 -0.2787 -0.5537
 7387TIP3    H122125   5.268   1.078   4.457 -0.8665 -1.3244 -0.5489
 7387TIP3    H222126   5.289   1.085   4.606  0.2885 -0.9629 -0.7171
 7388TIP3   OH222127   4.776   0.975   5.769 -0.2276  0.1990  0.2195
 7388TIP3    H122128   4.769   1.033   5.693  0.6180 -1.3176 -1.0888
 7388TIP3    H222129   4.686   0.954   5.792 -0.4920 -0.2774 -1.1577
 7389TIP3   OH222130   4.711   2.433   2.660  0.1109 -0.0774  0.0699
 7389TIP3    H122131   4.681   2.501   2.720  1.8099 -0.8166  1.8813
 7389TIP3    H222132   4.775   2.476   2.605 -1.1749  0.5146 -1.0148
 7390TIP3   OH222133   5.712   5.243   1.547 -0.1277 -0.2457 -0.2595
 7390TIP3    H122134   5.753   5.228   1.632 -0.3514 -0.7199 -0.2339
 7390TIP3    H222135   5.618   5.232   1.563 -0.0958 -1.3079 -0.7707
 7391TIP3   OH222136   1.525   1.478   2.689  0.3428  0.1838  0.1676
 7391TIP3    H122137   1.548   1.439   2.605  2.1135  2.4067 -0.4822
 7391TIP3    H222138   1.433   1.501   2.681  0.7922  1.5738 -1.7489
 7392TIP3   OH222139   3.351   5.112   5.752 -0.1259 -0.0902 -0.0048
 7392TIP3    H122140   3.312   5.048   5.693 -0.2727  0.7245 -0.8091
 7392TIP3    H222141   3.282   5.130   5.817 -0.9777  0.9947 -1.1486
 7393TIP3   OH222142   4.551   6.122   3.151 -0.3255  0.1266 -0.3427
 7393TIP3    H122143   4.611   6.196   3.140  0.8614 -0.6923  0.3910
 7393TIP3    H222144   4.465   6.163   3.160  0.6497  1.8570  4.3163
 7394TIP3   OH222145   0.664   3.969   4.191  0.5987 -0.0533 -0.1642
 7394TIP3    H122146   0.698   3.987   4.103 -1.5671 -0.2255 -1.1113
 7394TIP3    H222147   0.673   4.052   4.237  2.0967 -0.0583 -0.4158
 7395TIP3   OH222148   5.505   6.204   0.635 -0.0635  0.0025  0.4652
 7395TIP3    H122149   5.411   6.189   0.637  0.2631 -2.3409  0.5848
 7395TIP3    H222150   5.544   6.118   0.651  2.1166  0.6878 -0.7185
 7396TIP3   OH222151   0.521   2.071   4.436  0.2977  0.6497  0.2776
 7396TIP3    H122152   0.539   2.065   4.342 -0.2103 -1.0987  0.2589
 7396TIP3    H222153   0.521   1.980   4.467 -0.8689  1.0964  1.7267
 7397TIP3   OH222154   4.420   0.388   5.118 -0.3864 -0.2878  0.6166
 7397TIP3    H122155   4.358   0.437   5.171  0.3333 -0.8862  2.0612
 7397TIP3    H222156   4.443   0.448   5.047 -1.9542  0.2471  0.5244
 7398TIP3   OH222157   2.338   6.759   0.232 -0.4039 -0.0641 -0.0916
 7398TIP3    H122158   2.397   6.684   0.226  1.1988  1.2536 -2.4547
 7398TIP3    H222159   2.265   6.737   0.173  0.4263  0.4667 -1.3615
 7399TIP3   OH222160   6.122   1.398   5.149  0.1529  0.1766  0.5589
 7399TIP3    H122161   6.174   1.317   5.152  0.6491  0.4071 -0.7951
 7399TIP3    H222162   6.140   1.433   5.061  0.0726  1.8410  1.1859
 7400TIP3   OH222163   0.807   5.257   0.488 -0.3405 -0.4467  0.3674
 7400TIP3    H122164   0.796   5.237   0.395 -0.1696 -1.9507  0.6323
 7400TIP3    H222165   0.748   5.196   0.533  0.8382 -0.9512  1.2972
 7401TIP3   OH222166   5.978   2.178   2.057  0.2982  0.5239 -0.0421
 7401TIP3    H122167   5.952   2.266   2.028  0.9892  0.2534 -1.5992
 7401TIP3    H222168   5.912   2.120   2.020  1.1946  0.1726 -1.1582
 7402TIP3   OH222169   6.108   6.319   1.434 -0.2888  0.4946  0.0276
 7402TIP3    H122170   6.152   6.401   1.415 -0.4851  0.8263  0.9534
 7402TIP3    H222171   6.036   6.343   1.493  0.4503 -0.5077  1.3889
 7403TIP3   OH222172   6.477   4.884   0.499 -0.5341 -0.4809  0.3172
 7403TIP3    H122173   6.566   4.912   0.479 -0.0798 -3.2029 -2.1255
 7403TIP3    H222174   6.475   4.875   0.594  1.2730  1.1178  0.5663
 7404TIP3   OH222175   0.443   0.821   4.703  0.3047 -0.4059  0.1784
 7404TIP3    H122176   0.403   0.751   4.652 -0.0336  0.0432 -0.1825
 7404TIP3    H222177   0.499   0.776   4.766 -1.4165 -1.0912  1.2920
 7405TIP3   OH222178   4.734   4.981   3.224  0.1769 -0.1352  0.5191
 7405TIP3    H122179   4.786   5.013   3.298  0.4979  1.0354 -0.1860
 7405TIP3    H222180   4.799   4.961   3.157 -0.2434  0.8413 -0.1857
 7406TIP3   OH222181   5.179   4.613   3.085 -0.0045  0.0771  0.0462
 7406TIP3    H122182   5.128   4.532   3.091 -0.9324  0.5207 -1.4620
 7406TIP3    H222183   5.258   4.587   3.037 -0.3132  0.0617 -0.4583
 7407TIP3   OH222184   5.588   3.615   5.529 -0.1597 -0.2344 -0.4805
 7407TIP3    H122185   5.646   3.690   5.518 -0.0697  0.0121  1.2553
 7407TIP3    H222186   5.500   3.652   5.531 -0.1871 -0.2926 -0.6322
 7408TIP3   OH222187   2.611   5.267   3.727 -0.6343  0.0917  0.6730
 7408TIP3    H122188   2.690   5.312   3.757 -0.5863  0.1972  0.3951
 7408TIP3    H222189   2.591   5.307   3.643 -0.8569 -0.0902  0.6365
 7409TIP3   OH222190   4.117   1.989   1.932 -0.0570  0.1830  0.1462
 7409TIP3    H122191   4.087   1.940   2.008 -2.0318  0.8049 -0.1795
 7409TIP3    H222192   4.119   1.925   1.861 -1.2038  0.2419  0.0476
 7410TIP3   OH222193   1.951   5.704   3.088 -0.0943 -0.2420 -0.0511
 7410TIP3    H122194   2.038   5.673   3.063 -0.1454 -0.9654  0.6259
 7410TIP3    H222195   1.939   5.673   3.177 -0.8587  0.2691  0.0362
 7411TIP3   OH222196   2.679   6.611   5.837 -0.2323 -0.3052 -0.8294
 7411TIP3    H122197   2.648   6.615   5.928  0.2255  2.7903 -0.6696
 7411TIP3    H222198   2.720   6.525   5.829  0.8093 -0.2507  2.3270
 7412TIP3   OH222199   5.304   5.394   3.208  0.3930  0.2625  0.0049
 7412TIP3    H122200   5.330   5.318   3.156 -0.1842 -0.5968  0.9509
 7412TIP3    H222201   5.367   5.396   3.280 -0.0635  0.2212  0.4064
 7413TIP3   OH222202   4.686   2.165   2.568  0.7230  0.2912  0.0695
 7413TIP3    H122203   4.691   2.251   2.609 -0.4188  0.1365  0.5594
 7413TIP3    H222204   4.687   2.103   2.640 -0.6471 -0.0067 -0.1383
 7414TIP3   OH222205   3.273   1.916   2.982 -0.7521  0.7332  0.3824
 7414TIP3    H122206   3.271   1.998   2.932 -2.8315  2.2986  2.7397
 7414TIP3    H222207   3.210   1.860   2.937 -1.7194  1.6671  0.5286
 7415TIP3   OH222208   4.290   5.723   2.422  0.4721  0.3969  0.6270
 7415TIP3    H122209   4.225   5.734   2.491  0.4414  2.8942  0.2909
 7415TIP3    H222210   4.250   5.661   2.361 -0.0142 -0.8920  2.1910
 7416TIP3   OH222211   1.746   4.442   2.737  0.0801 -0.0325  0.1244
 7416TIP3    H122212   1.815   4.403   2.791  0.1594  1.8456  1.4727
 7416TIP3    H222213   1.789   4.516   2.693 -0.1419 -1.1572 -2.1302
 7417TIP3   OH222214   2.874   3.996   3.626  0.2218 -0.3180 -0.5557
 7417TIP3    H122215   2.845   4.073   3.676  1.6237  0.6253 -1.1309
 7417TIP3    H222216   2.878   4.027   3.536  0.7772 -1.0837 -0.8006
 7418TIP3   OH222217   2.491   3.816   1.248 -0.1270  0.5929 -0.0154
 7418TIP3    H122218   2.477   3.889   1.308  0.2884  1.2189 -0.6566
 7418TIP3    H222219   2.558   3.848   1.187 -0.3456 -0.1222 -0.6461
 7419TIP3   OH222220   1.724   1.699   1.230  0.8140  0.2051  0.3958
 7419TIP3    H122221   1.768   1.761   1.288 -2.2688  1.4948  1.5693
 7419TIP3    H222222   1.701   1.750   1.153 -0.8263  0.3203  0.9207
 7420TIP3   OH222223   6.603   0.147   1.788  0.3135  0.0526  0.7236
 7420TIP3    H122224   6.538   0.216   1.798  1.2491  1.0194  0.4282
 7420TIP3    H222225   6.648   0.143   1.872 -1.3566 -1.9784  1.6049
 7421TIP3   OH222226   3.547   2.884   4.001  0.1051 -0.6289  1.1247
 7421TIP3    H122227   3.560   2.826   3.926 -2.3996 -1.4957  1.2561
 7421TIP3    H222228   3.542   2.972   3.962 -0.5362 -0.9991  0.3296
 7422TIP3   OH222229   3.535   6.490   3.068 -0.1534  0.0648 -0.0663
 7422TIP3    H122230   3.555   6.426   3.000 -2.6322 -0.6654 -0.2034
 7422TIP3    H222231   3.532   6.439   3.149  2.0533  0.8066  0.5685
 7423TIP3   OH222232   5.809   1.970   1.989  0.1311  0.8057  0.0099
 7423TIP3    H122233   5.751   1.919   2.045  0.1427  0.7155 -0.0595
 7423TIP3    H222234   5.821   1.915   1.911  0.5021  0.7194  0.1265
 7424TIP3   OH222235   0.646   4.567   0.322  0.5931 -0.2352 -0.0716
 7424TIP3    H122236   0.569   4.624   0.328  2.0408  1.8217 -0.0295
 7424TIP3    H222237   0.663   4.541   0.412 -0.7431 -1.7351 -0.2173
 7425TIP3   OH222238   4.452   0.851   3.929  0.2672  0.2693  1.0355
 7425TIP3    H122239   4.378   0.866   3.988  1.0495 -0.8764  2.3646
 7425TIP3    H222240   4.505   0.784   3.973  0.6909 -0.9342 -1.1672
 7426TIP3   OH222241   5.062   5.311   1.505 -0.0105  0.2535 -0.5415
 7426TIP3    H122242   4.995   5.353   1.452  0.6917 -0.4928 -2.0644
 7426TIP3    H222243   5.052   5.218   1.489  2.3778  0.1926 -2.1105
 7427TIP3   OH222244   3.745   0.720   5.620 -0.3315 -0.4169  0.5638
 7427TIP3    H122245   3.785   0.677   5.696 -1.9713 -1.4687  0.8905
 7427TIP3    H222246   3.653   0.733   5.646 -0.5739  0.5924 -0.6898
 7428TIP3   OH222247   4.984   1.097   3.957  0.5642  0.6833  0.4908
 7428TIP3    H122248   4.893   1.093   3.928  0.8067  1.3087 -0.4107
 7428TIP3    H222249   5.009   1.188   3.945  1.0723  0.6921  1.5078
 7429TIP3   OH222250   0.350   1.124   4.730 -0.0265  0.2785  0.2916
 7429TIP3    H122251   0.421   1.160   4.784  1.3938  0.3118 -1.4634
 7429TIP3    H222252   0.358   1.029   4.740  0.9277  0.2357 -0.5971
 7430TIP3   OH222253   2.769   2.194   4.628  0.3580  0.2825  0.0634
 7430TIP3    H122254   2.703   2.135   4.591  0.7350 -0.8325  1.0995
 7430TIP3    H222255   2.727   2.280   4.629 -0.5479 -0.1358 -0.6245
 7431TIP3   OH222256   0.382   5.160   2.724  0.0937  0.0223  0.0910
 7431TIP3    H122257   0.304   5.213   2.708  0.2721 -0.0502 -1.1418
 7431TIP3    H222258   0.454   5.224   2.731  0.0463  0.0421  0.4016
 7432TIP3   OH222259   2.611   1.271   4.054  0.0643 -0.0410 -0.0759
 7432TIP3    H122260   2.675   1.208   4.021 -0.2941 -1.0994  1.1597
 7432TIP3    H222261   2.626   1.273   4.148 -1.1336  0.3572  0.1202
 7433TIP3   OH222262   2.141   5.280   4.650  0.3180  0.1703  0.5488
 7433TIP3    H122263   2.176   5.369   4.662 -0.2393  0.2735  1.5741
 7433TIP3    H222264   2.081   5.287   4.576  1.4180  0.2991 -0.3445
 7434TIP3   OH222265   2.270   0.412   3.740  0.0093 -0.0974 -0.0723
 7434TIP3    H122266   2.187   0.414   3.692  0.6398  0.9571 -1.1743
 7434TIP3    H222267   2.247   0.438   3.829 -0.6144  1.9084 -0.7681
 7435TIP3   OH222268   0.034   2.290   1.095 -0.0530 -0.0845  0.0403
 7435TIP3    H122269   0.115   2.257   1.057 -0.3144 -1.4956  0.6554
 7435TIP3    H222270   0.052   2.383   1.113  1.4591 -0.3936  0.2550
 7436TIP3   OH222271   3.103   3.708   3.820 -0.3057  0.0992 -0.0484
 7436TIP3    H122272   3.140   3.624   3.849  0.9159  0.2569 -1.1014
 7436TIP3    H222273   3.009   3.690   3.810 -0.4449 -0.5331  1.8479
 7437TIP3   OH222274   4.951   2.219   2.084  0.0605  0.6927  0.4950
 7437TIP3    H122275   4.999   2.141   2.056  2.5756  1.7954  1.4745
 7437TIP3    H222276   5.009   2.292   2.062 -2.2450  2.3470 -0.4541
 7438TIP3   OH222277   0.708   0.877   4.615  0.7288  0.1359 -0.1683
 7438TIP3    H122278   0.623   0.854   4.652  0.5044 -1.0278 -1.3540
 7438TIP3    H222279   0.756   0.794   4.610  1.1442  0.4273 -1.4685
 7439TIP3   OH222280   3.261   4.045   4.868  0.1669 -0.2094  0.1260
 7439TIP3    H122281   3.234   4.102   4.940 -0.7959 -0.4871  0.0069
 7439TIP3    H222282   3.330   3.990   4.906  0.5994  0.5393  0.4423
 7440TIP3   OH222283   3.766   3.569   1.675  0.6061  0.1935 -0.1313
 7440TIP3    H122284   3.712   3.507   1.626 -0.4754 -1.2174  2.6228
 7440TIP3    H222285   3.704   3.623   1.724  1.5774 -0.2659  1.7340
 7441TIP3   OH222286   6.508   4.680   1.893 -0.4316  0.0543  0.0701
 7441TIP3    H122287   6.415   4.656   1.885 -0.3037 -0.1192 -1.0805
 7441TIP3    H222288   6.552   4.624   1.829  0.3148  1.0024 -0.2547
 7442TIP3   OH222289   0.764   4.839   5.004  0.2976  0.0316 -0.1469
 7442TIP3    H122290   0.771   4.891   4.924  1.4591  0.0958 -0.0185
 7442TIP3    H222291   0.677   4.799   4.999  0.0657  0.6183 -1.0757
 7443TIP3   OH222292   1.805   1.781   5.687 -0.1413 -0.1622 -0.0368
 7443TIP3    H122293   1.842   1.726   5.618 -0.1410 -1.6349  1.0822
 7443TIP3    H222294   1.773   1.858   5.642  0.5272 -0.7544 -1.5817
 7444TIP3   OH222295   0.831   6.114   0.085 -0.4718  0.4166 -0.0017
 7444TIP3    H122296   0.918   6.111   0.045 -0.4353 -0.6516  0.1202
 7444TIP3    H222297   0.822   6.204   0.117  1.8648 -0.2090  2.7698
 7445TIP3   OH222298   2.957   2.008   2.114  0.2354  0.3684  0.5163
 7445TIP3    H122299   2.880   2.062   2.130  0.5398  0.7553  0.6833
 7445TIP3    H222300   2.922   1.919   2.106 -0.4541  0.7548 -1.2757
 7446TIP3   OH222301   1.555   5.752   4.244  0.0663 -0.2201 -0.6836
 7446TIP3    H122302   1.566   5.818   4.313  2.6961 -1.7786  0.5738
 7446TIP3    H222303   1.505   5.682   4.286 -0.8025  0.0218 -1.3036
 7447TIP3   OH222304   0.400   1.049   1.047  0.1374 -0.2386  0.2555
 7447TIP3    H122305   0.410   1.110   0.974 -1.3792 -0.9591 -0.5961
 7447TIP3    H222306   0.308   1.026   1.047  0.6085 -2.3414  0.7197
 7448TIP3   OH222307   5.611   1.198   0.056 -0.5652 -0.1310  0.4329
 7448TIP3    H122308   5.592   1.236   0.141 -1.2050 -1.9926  1.1797
 7448TIP3    H222309   5.531   1.150   0.033  0.5669 -1.9862  0.1366
 7449TIP3   OH222310   3.839   3.178   0.224 -0.3974  0.1846  0.4343
 7449TIP3    H122311   3.759   3.198   0.271 -0.9542 -0.7860 -0.0733
 7449TIP3    H222312   3.842   3.083   0.221 -0.9834  0.1640 -2.4173
 7450TIP3   OH222313   2.489   3.857   4.669 -0.2877  0.1548  0.2244
 7450TIP3    H122314   2.583   3.855   4.688 -0.1027 -0.3141 -0.6652
 7450TIP3    H222315   2.449   3.802   4.736  0.3278 -1.3699 -0.6113
 7451TIP3   OH222316   4.170   4.201   0.949  0.1158  0.7223  0.3752
 7451TIP3    H122317   4.114   4.209   1.025  1.2056  2.1385  1.0699
 7451TIP3    H222318   4.156   4.282   0.900  0.3264  0.3536 -0.3113
 7452TIP3   OH222319   0.800   2.290   3.398  0.0221 -0.1380  0.3826
 7452TIP3    H122320   0.713   2.319   3.424 -0.0318  0.0538 -0.0184
 7452TIP3    H222321   0.843   2.368   3.365 -0.3085 -0.5847 -1.2088
 7453TIP3   OH222322   6.677   3.514   3.998 -0.0707 -0.1689 -0.0054
 7453TIP3    H122323   6.605   3.491   3.940  0.8585  1.2808 -1.8194
 7453TIP3    H222324   6.738   3.440   3.992 -0.7994 -0.8320  0.5720
 7454TIP3   OH222325   1.424   4.127   5.365 -0.0459 -0.3441 -0.5373
 7454TIP3    H122326   1.435   4.082   5.450 -3.9729  0.4960  0.6090
 7454TIP3    H222327   1.480   4.204   5.371 -0.3670 -0.2098  1.4417
 7455TIP3   OH222328   5.313   3.699   1.926 -0.6179  0.8986 -0.0080
 7455TIP3    H122329   5.301   3.707   1.831 -0.5088  0.3158 -0.0725
 7455TIP3    H222330   5.382   3.634   1.936 -0.2012  1.4113  0.4623
 7456TIP3   OH222331   3.102   6.250   4.568 -0.1708 -0.1204 -0.5373
 7456TIP3    H122332   3.164   6.179   4.585  0.1120  0.4977  1.2673
 7456TIP3    H222333   3.092   6.294   4.653  0.1974  2.4248 -1.7077
 7457TIP3   OH222334   0.073   1.973   1.650 -0.3489 -0.0102 -0.3821
 7457TIP3    H122335   0.079   1.983   1.555 -1.6935 -0.1638 -0.4985
 7457TIP3    H222336  -0.011   1.930   1.665 -0.4751  0.6306  0.9205
 7458TIP3   OH222337   1.629   4.057   0.085 -0.2301 -0.2353 -0.4834
 7458TIP3    H122338   1.550   4.111   0.089 -0.0327 -0.0174  1.2580
 7458TIP3    H222339   1.667   4.063   0.172  0.6264 -1.9735 -0.6802
 7459TIP3   OH222340   6.831   3.613   1.283  0.2576 -0.4064  0.3172
 7459TIP3    H122341   6.844   3.652   1.196  1.2318  0.1130  0.6792
 7459TIP3    H222342   6.889   3.537   1.285 -1.8053 -2.0970 -0.4681
 7460TIP3   OH222343   2.951   0.594   2.763  0.1984  0.4604 -0.0355
 7460TIP3    H122344   2.951   0.498   2.763 -0.4556  0.3982  1.8833
 7460TIP3    H222345   2.860   0.617   2.785  0.4559  1.5007 -0.0373
 7461TIP3   OH222346   2.171   0.102   1.211 -0.6924 -0.4885 -0.1065
 7461TIP3    H122347   2.217   0.020   1.227  0.2927 -0.9411 -4.1590
 7461TIP3    H222348   2.238   0.161   1.177 -1.9703  0.9189 -0.2697
 7462TIP3   OH222349   4.323   0.136   5.435  0.3465 -0.2651  0.1028
 7462TIP3    H122350   4.273   0.066   5.392 -0.1787  1.1410 -1.6798
 7462TIP3    H222351   4.296   0.216   5.390 -0.2775  1.3734  3.1202
 7463TIP3   OH222352   5.825   5.949   4.760  0.3114 -0.4113  0.3086
 7463TIP3    H122353   5.872   5.983   4.684  1.8575 -3.1394 -0.0902
 7463TIP3    H222354   5.734   5.945   4.732  0.7850 -0.8689 -1.2345
 7464TIP3   OH222355   5.198   0.279   5.416  0.1844  0.1455 -0.6866
 7464TIP3    H122356   5.172   0.187   5.420 -3.0097  0.9169 -0.8194
 7464TIP3    H222357   5.119   0.328   5.440  1.8274  2.8838 -0.3286
 7465TIP3   OH222358   4.420   0.874   2.728 -0.7777 -0.5877  0.5076
 7465TIP3    H122359   4.408   0.783   2.702  1.6714 -0.6538 -0.7036
 7465TIP3    H222360   4.514   0.882   2.742 -0.5119  2.3437 -1.9156
 7466TIP3   OH222361   3.381   4.004   2.714 -0.2562  0.1284 -0.3915
 7466TIP3    H122362   3.397   3.911   2.728  1.3178  0.2867 -0.9196
 7466TIP3    H222363   3.293   4.008   2.676 -0.6583 -1.0618  0.3641
 7467TIP3   OH222364   5.409   4.078   5.526 -0.9670  0.0987  0.1747
 7467TIP3    H122365   5.436   4.164   5.494 -2.2235  0.6287  0.4999
 7467TIP3    H222366   5.342   4.050   5.464 -0.1966 -0.9019 -0.2347
 7468TIP3   OH222367   6.869   1.612   4.705 -0.1342  0.0997  0.2450
 7468TIP3    H122368   6.886   1.658   4.787  2.4040 -2.5294  1.3613
 7468TIP3    H222369   6.952   1.616   4.657 -0.3114 -1.9041 -0.3046
 7469TIP3   OH222370   1.427   4.018   4.306 -0.4131  0.5926 -0.7614
 7469TIP3    H122371   1.453   4.090   4.363 -0.1872  0.0904 -0.2127
 7469TIP3    H222372   1.357   4.053   4.253 -0.5113  1.1280 -0.2849
 7470TIP3   OH222373   5.050   6.328   2.852  0.1973  0.2549  0.1951
 7470TIP3    H122374   4.975   6.288   2.896 -0.0799  0.2021 -0.3171
 7470TIP3    H222375   5.027   6.328   2.759  0.4425  1.0695  0.1207
 7471TIP3   OH222376   5.444   1.957   5.266  0.1234 -0.8444 -0.2171
 7471TIP3    H122377   5.521   1.907   5.239  0.2820  0.1610 -1.7895
 7471TIP3    H222378   5.474   2.006   5.342  0.7635 -1.1672 -0.2501
 7472TIP3   OH222379   5.139   2.354   2.263 -0.2237  0.2861  0.2085
 7472TIP3    H122380   5.061   2.300   2.248  0.2331 -0.6713  1.1535
 7472TIP3    H222381   5.107   2.429   2.312 -0.5265 -0.2483  0.8521
 7473TIP3   OH222382   4.365   6.613   4.910  0.2769 -0.5570 -0.2487
 7473TIP3    H122383   4.453   6.652   4.912  0.4950 -1.0536  0.1282
 7473TIP3    H222384   4.345   6.596   5.002 -0.0145 -0.8838 -0.3726
 7474TIP3   OH222385   3.641   6.113   4.105  0.3100 -0.5207 -0.4763
 7474TIP3    H122386   3.698   6.164   4.163 -0.6381 -0.8985  0.8345
 7474TIP3    H222387   3.702   6.062   4.051  1.2304  0.3353 -0.2904
 7475TIP3   OH222388   3.783   0.788   0.797  0.2193 -0.2489 -0.3756
 7475TIP3    H122389   3.730   0.719   0.758  0.7338 -0.8622 -0.0010
 7475TIP3    H222390   3.743   0.869   0.765 -1.4870 -0.6522  0.5696
 7476TIP3   OH222391   5.144   2.324   0.491 -0.0127 -0.2270  0.6350
 7476TIP3    H122392   5.225   2.272   0.493  0.9195  1.1503  0.3979
 7476TIP3    H222393   5.117   2.330   0.583 -0.6026 -1.7659  0.6006
 7477TIP3   OH222394   5.990   3.982   4.496 -0.3826  0.1757 -0.2755
 7477TIP3    H122395   6.029   4.058   4.454 -1.2856  0.9540  0.2475
 7477TIP3    H222396   5.897   3.988   4.475 -0.4961 -0.6661 -0.0528
 7478TIP3   OH222397   6.550   0.155   0.881 -0.3117  0.1328  0.8405
 7478TIP3    H122398   6.509   0.125   0.800 -0.0656 -3.2131  1.7726
 7478TIP3    H222399   6.626   0.205   0.852 -1.7210  1.3602 -0.9278
 7479TIP3   OH222400   5.066   5.846   0.608 -0.3506 -0.1192 -0.3966
 7479TIP3    H122401   4.990   5.828   0.664  1.2238 -2.1841  1.2491
 7479TIP3    H222402   5.044   5.927   0.563 -1.9901  1.4533  2.8673
 7480TIP3   OH222403   3.019   5.857   0.250  0.9325 -0.3532 -0.5918
 7480TIP3    H122404   2.971   5.901   0.180  0.1557  1.3504  0.9307
 7480TIP3    H222405   2.963   5.783   0.274  0.7484 -0.3926 -1.1149
 7481TIP3   OH222406   7.160   2.645   0.573 -0.4457 -0.3319 -0.4847
 7481TIP3    H122407   7.177   2.572   0.514  0.3598 -0.4786 -0.0960
 7481TIP3    H222408   7.087   2.692   0.534  0.2937 -0.2194 -1.7808
 7482TIP3   OH222409   2.707   0.831   0.801  0.3409  0.3665  0.0606
 7482TIP3    H122410   2.782   0.819   0.743  0.8258 -1.3274  0.9759
 7482TIP3    H222411   2.637   0.780   0.761  0.4938 -0.2911  0.6109
 7483TIP3   OH222412   0.849   2.425   3.945  0.3872  0.2669 -0.5685
 7483TIP3    H122413   0.921   2.461   3.893  0.1726 -1.4373 -2.1500
 7483TIP3    H222414   0.815   2.353   3.892 -1.9537  0.4854  0.5168
 7484TIP3   OH222415   0.153   3.649   1.437  0.2443 -0.2661 -0.9796
 7484TIP3    H122416   0.246   3.626   1.440  0.1649 -0.5780  1.3681
 7484TIP3    H222417   0.147   3.733   1.483 -0.7472 -0.9328  0.1923
 7485TIP3   OH222418   2.805   1.090   2.757 -0.1412 -0.0555 -0.4088
 7485TIP3    H122419   2.890   1.049   2.740 -0.3265 -2.0177  2.6796
 7485TIP3    H222420   2.741   1.020   2.745 -1.1826  0.9779 -1.0618
 7486TIP3   OH222421   6.137   0.303   2.179  0.2526  0.1716  0.0998
 7486TIP3    H122422   6.108   0.382   2.224 -0.2865 -0.2975  0.6153
 7486TIP3    H222423   6.122   0.233   2.243  1.3225 -0.2665 -0.1118
 7487TIP3   OH222424   7.028   5.438   2.280 -0.1559  0.1025 -0.4546
 7487TIP3    H122425   7.071   5.397   2.355  1.1188  0.7451 -0.8079
 7487TIP3    H222426   7.051   5.382   2.206  0.3187  0.6029 -0.6913
 7488TIP3   OH222427   5.209   2.562   0.384 -0.4524 -0.6792 -1.1035
 7488TIP3    H122428   5.292   2.559   0.433 -1.6175  0.8793  1.1731
 7488TIP3    H222429   5.172   2.475   0.394  0.2594 -0.9714 -0.9080
 7489TIP3   OH222430   6.246   2.296   3.945  0.1429  0.4409 -0.2474
 7489TIP3    H122431   6.273   2.271   3.856  0.1880 -1.1301  0.1680
 7489TIP3    H222432   6.297   2.239   4.002  0.3064  1.6111  0.8154
 7490TIP3   OH222433   5.139   1.359   5.457  0.7211  0.4996  0.4183
 7490TIP3    H122434   5.065   1.326   5.507 -1.4069  2.1579 -1.4574
 7490TIP3    H222435   5.156   1.446   5.494  0.8169  0.6948 -0.0794
 7491TIP3   OH222436   0.440   2.651   4.138 -0.2575 -0.2658 -0.0136
 7491TIP3    H122437   0.526   2.672   4.176 -0.4956 -0.3423  0.5824
 7491TIP3    H222438   0.428   2.558   4.155  0.4913 -0.7854 -2.0405
 7492TIP3   OH222439   5.036   5.899   3.439 -0.2484 -0.2748 -0.0569
 7492TIP3    H122440   5.124   5.900   3.476  0.2043 -0.3130 -1.1056
 7492TIP3    H222441   4.982   5.859   3.507  0.5271 -0.2113  0.6123
 7493TIP3   OH222442   4.101   3.294   3.521  0.0921 -0.4963 -0.6366
 7493TIP3    H122443   4.047   3.325   3.448  0.8390  0.1410 -0.9380
 7493TIP3    H222444   4.148   3.372   3.551 -2.2371 -0.0629  2.3911
 7494TIP3   OH222445   5.009   3.055   5.591  0.0979  0.0281 -0.0419
 7494TIP3    H122446   5.074   3.030   5.657 -1.2161 -3.4873  0.1029
 7494TIP3    H222447   5.052   3.036   5.508  1.1176  2.8416 -0.2571
 7495TIP3   OH222448   2.236   2.385   1.506 -0.0223 -0.3775 -0.0450
 7495TIP3    H122449   2.147   2.362   1.532 -0.8048  1.3825 -1.0244
 7495TIP3    H222450   2.239   2.366   1.412  0.2676  0.6106 -0.2438
 7496TIP3   OH222451   5.303   6.767   0.803 -0.0190 -0.1426 -0.3387
 7496TIP3    H122452   5.243   6.793   0.873 -0.9163 -1.0489 -0.7519
 7496TIP3    H222453   5.248   6.760   0.725  0.3778 -2.1941 -0.4698
 7497TIP3   OH222454   1.392   4.915   2.749 -0.5815  0.4165  0.0564
 7497TIP3    H122455   1.326   4.885   2.811 -1.1728  0.1945 -0.6747
 7497TIP3    H222456   1.473   4.873   2.778 -1.2237 -1.2393 -0.4557
 7498TIP3   OH222457   1.323   3.711   2.105  0.2657  0.1149  0.0822
 7498TIP3    H122458   1.317   3.807   2.099 -2.3823  0.1065  1.2573
 7498TIP3    H222459   1.256   3.679   2.043  0.6050 -0.9616  0.2551
 7499TIP3   OH222460   3.985   6.061   1.000  0.0478  0.4714  0.0981
 7499TIP3    H122461   4.065   6.059   1.052  0.8728 -1.2429 -1.1540
 7499TIP3    H222462   3.983   5.976   0.955 -2.2530  0.6427 -0.2423
 7500TIP3   OH222463   6.951   1.486   5.570  0.1631  0.2691 -0.1575
 7500TIP3    H122464   7.043   1.469   5.587 -0.2526 -3.6412 -0.8321
 7500TIP3    H222465   6.949   1.530   5.486  1.4055 -0.4549 -0.5903
 7501TIP3   OH222466   4.089   6.516   3.171  0.3980  0.0180 -0.2323
 7501TIP3    H122467   4.177   6.553   3.168 -0.0673  1.0863 -1.4757
 7501TIP3    H222468   4.083   6.476   3.257  1.5926  1.2206  0.4485
 7502TIP3   OH222469   0.621   6.673   3.635  0.2148 -0.0914  0.0150
 7502TIP3    H122470   0.667   6.599   3.596  2.2119  1.2009 -0.2561
 7502TIP3    H222471   0.631   6.661   3.730  3.1239  1.2111 -0.0107
 7503TIP3   OH222472   7.039   2.893   5.104  0.0415  0.2192 -0.1627
 7503TIP3    H122473   7.035   2.825   5.037 -0.8441  1.7859 -1.7500
 7503TIP3    H222474   7.123   2.936   5.089  0.0117  0.3346  0.0009
 7504TIP3   OH222475   4.617   1.685   4.927  0.5731  0.1804  0.3232
 7504TIP3    H122476   4.694   1.705   4.873  0.9800  0.9176  1.1593
 7504TIP3    H222477   4.573   1.614   4.880  1.7275 -0.2144 -0.1942
 7505TIP3   OH222478   3.244   3.461   1.200 -0.0129  0.1206  0.3448
 7505TIP3    H122479   3.332   3.439   1.170 -0.4259 -0.1187 -0.7255
 7505TIP3    H222480   3.257   3.534   1.260  0.8934  0.2233  0.0437
 7506TIP3   OH222481   3.340   5.101   4.087 -0.6626 -0.6696 -0.4864
 7506TIP3    H122482   3.414   5.162   4.083 -0.5074 -0.8530 -0.3890
 7506TIP3    H222483   3.292   5.127   4.165 -0.6430 -0.6183 -0.4911
 7507TIP3   OH222484   4.705   6.485   2.912 -0.1463 -0.2455 -0.5435
 7507TIP3    H122485   4.674   6.402   2.875 -1.8012  0.1403 -0.0925
 7507TIP3    H222486   4.690   6.477   3.006 -0.4441  0.6239 -0.5149
 7508TIP3   OH222487   6.285   0.087   5.744 -0.2983  0.6489  0.4069
 7508TIP3    H122488   6.359   0.041   5.783 -0.2575  0.2479 -0.1369
 7508TIP3    H222489   6.325   0.150   5.684 -0.3873  0.6474  0.3459
 7509TIP3   OH222490   5.243   6.044   1.631  0.4039  0.4961  0.2478
 7509TIP3    H122491   5.316   6.067   1.689  2.0272  1.0656 -1.9016
 7509TIP3    H222492   5.282   6.040   1.544 -1.3128 -3.0663 -0.5473
 7510TIP3   OH222493   4.632   5.030   2.385  0.3159  0.3288 -0.4920
 7510TIP3    H122494   4.719   4.992   2.398 -0.7902 -2.6296 -0.8743
 7510TIP3    H222495   4.588   4.968   2.326 -1.9553  1.8821 -0.5275
 7511TIP3   OH222496   5.624   5.443   5.784 -0.2864  0.2047  0.0227
 7511TIP3    H122497   5.531   5.461   5.798  0.1013  1.6584  1.0587
 7511TIP3    H222498   5.662   5.530   5.769  0.8078 -0.4381 -1.0392
 7512TIP3   OH222499   1.609   6.478   2.110 -0.1952  0.6077  0.3403
 7512TIP3    H122500   1.694   6.477   2.154 -0.5922 -0.1849  1.1076
 7512TIP3    H222501   1.619   6.418   2.036 -0.3190 -0.1218  0.9025
 7513TIP3   OH222502   6.643   3.888   1.974  0.7440 -0.0996  0.2622
 7513TIP3    H122503   6.701   3.836   1.918  0.5175  2.2454 -2.3968
 7513TIP3    H222504   6.702   3.952   2.015  0.4300  0.7059 -0.4994
 7514TIP3   OH222505   3.164   6.713   3.795 -0.5283  0.3230 -0.1587
 7514TIP3    H122506   3.210   6.739   3.715 -1.8965  0.2686 -1.0041
 7514TIP3    H222507   3.227   6.727   3.865  0.6110  0.6546 -1.2156
 7515TIP3   OH222508   5.191   4.483   5.211 -0.2468 -0.2717  0.4043
 7515TIP3    H122509   5.164   4.502   5.121  1.3009  0.2007  0.0013
 7515TIP3    H222510   5.197   4.569   5.253  0.3904 -0.3666  0.5268
 7516TIP3   OH222511   3.756   4.036   1.145 -0.2103 -0.1458 -0.4036
 7516TIP3    H122512   3.818   4.001   1.080  1.2622 -3.1923  2.3620
 7516TIP3    H222513   3.811   4.084   1.207 -1.3378  1.1777 -0.3908
 7517TIP3   OH222514   5.220   0.947   3.786  0.6305 -0.5669 -0.1694
 7517TIP3    H122515   5.304   0.950   3.831  0.3973 -1.9525  0.4295
 7517TIP3    H222516   5.155   0.957   3.856  0.2805 -0.1720 -0.5423
 7518TIP3   OH222517   1.317   2.711   2.192  0.3113  0.0129  0.2082
 7518TIP3    H122518   1.388   2.669   2.240 -0.2296 -0.2958  0.7526
 7518TIP3    H222519   1.355   2.792   2.158  0.6967  0.2450  1.1850
 7519TIP3   OH222520   2.281   3.701   2.524  0.6535  0.7963  0.5202
 7519TIP3    H122521   2.287   3.713   2.618  1.0792  0.9554  0.4769
 7519TIP3    H222522   2.232   3.778   2.493 -0.9889 -0.0937  0.7883
 7520TIP3   OH222523   4.029   5.335   3.311 -0.5409 -0.3938 -0.2350
 7520TIP3    H122524   4.076   5.260   3.345  0.2960  0.1604 -0.1259
 7520TIP3    H222525   4.073   5.355   3.228 -0.6815  0.0238 -0.2128
 7521TIP3   OH222526   4.806   2.714   0.312 -0.0782 -0.8393  0.4193
 7521TIP3    H122527   4.770   2.800   0.332  1.5675 -0.1570  0.5921
 7521TIP3    H222528   4.761   2.688   0.232 -0.2625  0.3962  0.0974
 7522TIP3   OH222529   4.148   1.414   4.958  0.2780  0.5346 -0.1943
 7522TIP3    H122530   4.167   1.463   5.038  1.6427 -0.1236 -0.0827
 7522TIP3    H222531   4.160   1.322   4.983 -1.7197  0.1500 -0.5345
 7523TIP3   OH222532   0.207   5.138   5.785  0.5481 -0.2973  0.3632
 7523TIP3    H122533   0.164   5.156   5.869 -1.8656 -0.6551 -0.7154
 7523TIP3    H222534   0.231   5.224   5.751  2.1357 -0.1867  1.6697
 7524TIP3   OH222535   3.463   3.903   4.439  0.1477  0.5260  0.1845
 7524TIP3    H122536   3.465   3.812   4.469  1.3172  1.0839  1.9546
 7524TIP3    H222537   3.374   3.932   4.458 -0.3560 -0.3364 -0.7568
 7525TIP3   OH222538   2.368   6.137   2.649 -0.4143 -0.2690  0.0569
 7525TIP3    H122539   2.369   6.232   2.637 -1.0337 -0.1242  0.9860
 7525TIP3    H222540   2.275   6.114   2.644 -0.2043 -0.9281 -0.8700
 7526TIP3   OH222541   6.727   2.427   2.504 -0.2499 -0.3469 -0.0634
 7526TIP3    H122542   6.786   2.360   2.471 -1.0771 -0.7934 -0.6794
 7526TIP3    H222543   6.645   2.412   2.458 -0.6506  0.6813  0.2747
 7527TIP3   OH222544   4.074   1.162   3.886 -0.7707  0.0177  0.4211
 7527TIP3    H122545   3.997   1.118   3.850  0.6283 -1.6133 -0.7539
 7527TIP3    H222546   4.107   1.214   3.813 -0.2388 -0.0433  0.6154
 7528TIP3   OH222547   1.050   6.696   0.658  0.1911 -0.3106  0.4134
 7528TIP3    H122548   1.027   6.643   0.582 -0.8026  0.9588 -0.2040
 7528TIP3    H222549   1.115   6.643   0.705  0.1740 -1.5000 -0.8342
 7529TIP3   OH222550   4.932   1.814   3.939 -0.0197  0.4173 -0.1420
 7529TIP3    H122551   5.026   1.807   3.924  0.0752  1.1936  0.0497
 7529TIP3    H222552   4.921   1.892   3.993 -0.8406  0.8238 -0.8619
 7530TIP3   OH222553   0.262   4.252   3.849 -0.4597 -0.3461 -0.0560
 7530TIP3    H122554   0.354   4.244   3.874 -0.2548  0.5770 -0.4545
 7530TIP3    H222555   0.239   4.166   3.814 -0.4179 -1.2947  2.1175
 7531TIP3   OH222556   6.761   1.788   0.416 -0.1805  0.0852 -0.1454
 7531TIP3    H122557   6.775   1.694   0.428  1.1779  0.2699 -0.1235
 7531TIP3    H222558   6.786   1.828   0.499 -0.1688  0.5157 -0.3479
 7532TIP3   OH222559   5.612   4.978   3.595 -0.0373  0.4978 -0.7488
 7532TIP3    H122560   5.631   4.944   3.508  0.1946 -1.2703 -0.0602
 7532TIP3    H222561   5.671   5.053   3.605  0.2496  0.4459 -1.9386
 7533TIP3   OH222562   4.124   5.466   3.816  0.9081 -0.0947  0.1018
 7533TIP3    H122563   4.124   5.446   3.723  1.8827 -0.1166  0.0978
 7533TIP3    H222564   4.196   5.529   3.827  1.0137 -0.3377  0.8831
 7534TIP3   OH222565   1.414   4.358   2.159 -0.1583  0.0909 -0.0656
 7534TIP3    H122566   1.393   4.431   2.217  0.6185  1.1112 -1.0132
 7534TIP3    H222567   1.484   4.392   2.103  2.0642 -2.1910  1.1286
 7535TIP3   OH222568   6.096   5.064   1.703 -0.2909 -0.2403 -0.2738
 7535TIP3    H122569   6.183   5.103   1.708  0.2237 -1.5593  2.5123
 7535TIP3    H222570   6.088   5.035   1.612  2.2789 -0.3291 -0.5310
 7536TIP3   OH222571   4.785   6.213   4.046  0.4869 -0.6160  0.4017
 7536TIP3    H122572   4.813   6.208   4.137 -1.3576  2.2725  1.2789
 7536TIP3    H222573   4.833   6.288   4.011 -0.2453 -0.4959 -0.3799
 7537TIP3   OH222574   2.955   6.552   3.903  0.6505  0.5418 -0.2777
 7537TIP3    H122575   3.030   6.603   3.873  0.9556  0.8055  0.8994
 7537TIP3    H222576   2.974   6.463   3.874  0.5832  0.9070 -1.4900
 7538TIP3   OH222577   2.687   4.121   1.112  0.7105  0.5293  0.6569
 7538TIP3    H122578   2.591   4.120   1.120  0.5983 -1.1517 -0.2593
 7538TIP3    H222579   2.708   4.035   1.075  2.5270  1.1464  0.1614
 7539TIP3   OH222580   2.201   1.526   4.068 -0.4970 -0.1641  0.2107
 7539TIP3    H122581   2.240   1.496   3.986 -1.6389 -1.2911  0.0356
 7539TIP3    H222582   2.115   1.559   4.043 -0.5492  0.1978  0.8495
 7540TIP3   OH222583   2.468   1.432   1.073 -0.0611  0.5500  0.4116
 7540TIP3    H122584   2.429   1.368   1.014  0.4260  0.3817  0.2641
 7540TIP3    H222585   2.397   1.457   1.132  0.0928 -1.3152  1.5039
 7541TIP3   OH222586   6.400   3.848   2.454  0.1581  0.2757  0.2097
 7541TIP3    H122587   6.361   3.896   2.528 -0.0392 -0.3449  0.5200
 7541TIP3    H222588   6.328   3.794   2.421 -0.5670  2.4913 -2.1791
 7542TIP3   OH222589   2.493   5.642   2.498 -0.3092 -0.0481  0.0063
 7542TIP3    H122590   2.459   5.629   2.587 -0.8618 -0.6446 -0.2896
 7542TIP3    H222591   2.421   5.685   2.451  0.6954  2.1551  0.3747
 7543TIP3   OH222592   7.102   6.678   0.468  0.2565 -0.2196 -0.3611
 7543TIP3    H122593   7.197   6.680   0.460  0.5380  0.4529  2.3112
 7543TIP3    H222594   7.074   6.610   0.407  2.3476  0.0836 -1.7511
 7544TIP3   OH222595   5.489   1.367   4.013  0.2338  0.1820  0.9584
 7544TIP3    H122596   5.583   1.352   4.004  0.1751  0.7136 -0.7518
 7544TIP3    H222597   5.450   1.333   3.933 -1.0963 -0.3641  1.7928
 7545TIP3   OH222598   6.600   2.570   0.875 -0.5448  0.4358  0.1136
 7545TIP3    H122599   6.572   2.662   0.874 -0.6393  0.4125  0.6010
 7545TIP3    H222600   6.691   2.573   0.845 -0.6395  0.6571 -0.1554
 7546TIP3   OH222601   2.263   3.077   0.713  0.1317 -0.4821  0.3065
 7546TIP3    H122602   2.264   3.119   0.627 -0.1810  1.0166  1.0166
 7546TIP3    H222603   2.229   2.989   0.696  3.4221 -1.5734 -1.6630
 7547TIP3   OH222604   3.884   3.611   0.194  0.0258  0.2043 -0.1582
 7547TIP3    H122605   3.862   3.535   0.140  0.4616 -0.4608  0.5867
 7547TIP3    H222606   3.878   3.685   0.134  1.0011 -0.5738 -1.2477
 7548TIP3   OH222607   6.059   5.376   0.854 -0.6496 -0.4544 -0.5389
 7548TIP3    H122608   6.139   5.325   0.839  0.4497  1.1747 -0.4818
 7548TIP3    H222609   5.998   5.345   0.788  0.6276 -0.5532 -1.7186
 7549TIP3   OH222610   0.322   1.860   1.329 -0.1414  0.6245  0.1219
 7549TIP3    H122611   0.256   1.886   1.265  1.7006  0.9774 -1.7197
 7549TIP3    H222612   0.299   1.909   1.408 -1.5242  1.4617 -0.7570
 7550TIP3   OH222613   0.637   3.456   1.925  0.3568 -0.5259 -0.3618
 7550TIP3    H122614   0.579   3.382   1.939  0.0760 -0.3090 -0.3734
 7550TIP3    H222615   0.593   3.510   1.859  0.5208 -0.3067 -0.2954
 7551TIP3   OH222616   1.374   6.290   2.118  0.2701 -0.6891  0.0882
 7551TIP3    H122617   1.394   6.203   2.083  1.6430 -0.3527 -0.0228
 7551TIP3    H222618   1.460   6.331   2.129 -0.3778  0.8121 -0.2654
 7552TIP3   OH222619   0.846   0.776   3.289  0.7794 -0.3963  0.0600
 7552TIP3    H122620   0.843   0.838   3.216 -0.2436 -0.1192  0.3217
 7552TIP3    H222621   0.823   0.691   3.250 -1.9500  0.0999  0.3709
 7553TIP3   OH222622   4.361   3.143   2.008 -0.1060  0.1585  0.0005
 7553TIP3    H122623   4.429   3.209   2.026  0.7259 -1.2299  2.4346
 7553TIP3    H222624   4.406   3.077   1.955 -0.3624  0.5586 -0.7231
 7554TIP3   OH222625   3.507   1.138   3.024 -0.0521  0.8188  0.7276
 7554TIP3    H122626   3.507   1.232   3.008  1.3224  0.6002 -0.7827
 7554TIP3    H222627   3.499   1.099   2.937 -1.3370 -0.4956  1.3806
 7555TIP3   OH222628   5.782   6.731   1.406 -0.4291 -0.3739 -0.1564
 7555TIP3    H122629   5.782   6.666   1.336 -0.3869 -0.5078 -0.0331
 7555TIP3    H222630   5.859   6.709   1.459  2.1472  2.3207 -2.4658
 7556TIP3   OH222631   1.270   0.683   5.116 -0.8212 -0.0589 -0.3882
 7556TIP3    H122632   1.214   0.739   5.062  0.0222 -0.2528 -1.5061
 7556TIP3    H222633   1.342   0.740   5.141 -1.9824  0.5036  1.9522
 7557TIP3   OH222634   7.147   2.289   0.220 -0.0257 -0.0621  0.2438
 7557TIP3    H122635   7.211   2.280   0.291 -0.9304 -0.2702  1.0541
 7557TIP3    H222636   7.107   2.375   0.234 -1.5146 -0.8539  1.1395
 7558TIP3   OH222637   4.574   1.497   1.598 -0.2221 -0.2783 -0.3550
 7558TIP3    H122638   4.578   1.403   1.581 -0.6325 -0.2180 -0.7959
 7558TIP3    H222639   4.664   1.528   1.583  0.0780 -0.7132  0.5083
 7559TIP3   OH222640   5.008   3.579   2.226  0.1075 -0.1422  0.0568
 7559TIP3    H122641   5.010   3.658   2.280 -1.2386 -1.1054  1.6257
 7559TIP3    H222642   4.931   3.591   2.170 -1.0361 -0.9376  1.3772
 7560TIP3   OH222643   4.966   5.471   0.790 -0.5587  0.0290 -0.1149
 7560TIP3    H122644   4.886   5.432   0.753 -0.9274  0.7371 -0.0726
 7560TIP3    H222645   5.026   5.397   0.799 -1.6805 -0.7714  1.1522
 7561TIP3   OH222646   6.634   1.154   5.078 -0.0723 -0.0524  0.0480
 7561TIP3    H122647   6.728   1.158   5.092 -0.0940 -0.0626  0.2014
 7561TIP3    H222648   6.616   1.221   5.012  0.4680 -2.1564 -2.3555
 7562TIP3   OH222649   1.833   5.769   5.689 -0.8885 -0.4206 -0.0466
 7562TIP3    H122650   1.767   5.837   5.674  0.1377  0.9969  1.5493
 7562TIP3    H222651   1.871   5.791   5.774  3.1564  0.1784 -1.7637
 7563TIP3   OH222652   2.614   0.326   4.576 -0.8413  0.2366 -0.5458
 7563TIP3    H122653   2.551   0.255   4.582 -0.5715  0.1162  1.3377
 7563TIP3    H222654   2.574   0.398   4.624 -0.2561  0.6998 -0.7326
 7564TIP3   OH222655   5.829   1.248   0.381 -0.2378  0.1799 -0.0479
 7564TIP3    H122656   5.918   1.222   0.359  0.3971  1.0046  1.3643
 7564TIP3    H222657   5.775   1.172   0.359  0.7790 -0.2791 -1.0516
 7565TIP3   OH222658   4.474   3.480   4.981 -0.4368 -0.0306 -0.6780
 7565TIP3    H122659   4.508   3.391   4.978 -0.8078 -0.2139  0.4087
 7565TIP3    H222660   4.403   3.477   5.045  1.2123  1.6068  1.3819
 7566TIP3   OH222661   5.077   6.438   1.770  0.3984 -0.4202 -0.0414
 7566TIP3    H122662   5.108   6.432   1.680 -1.2758  3.0105 -1.0197
 7566TIP3    H222663   4.982   6.427   1.764  0.2885 -0.5693  1.4037
 7567TIP3   OH222664   1.697   4.620   5.880  0.3378  0.0494 -0.8838
 7567TIP3    H122665   1.680   4.615   5.785 -0.4916 -2.9416 -0.6828
 7567TIP3    H222666   1.670   4.709   5.904 -0.9053  0.3950 -3.2108
 7568TIP3   OH222667   1.478   3.064   4.781 -0.3964 -0.2667  0.1109
 7568TIP3    H122668   1.444   3.123   4.849  1.8011  0.2676  0.8376
 7568TIP3    H222669   1.545   3.012   4.826  2.0203  0.9698 -1.8423
 7569TIP3   OH222670   2.740   1.931   3.059  0.4683  0.6565 -0.0503
 7569TIP3    H122671   2.646   1.926   3.074  0.5310 -0.7991  0.0741
 7569TIP3    H222672   2.777   1.955   3.144  0.4412 -2.4840  0.9756
 7570TIP3   OH222673   6.255   3.620   2.405  0.1047  0.3210  0.0029
 7570TIP3    H122674   6.180   3.562   2.416  1.3757 -0.9894  2.8529
 7570TIP3    H222675   6.296   3.623   2.491  2.3092  2.4252 -1.0017
 7571TIP3   OH222676   1.944   4.852   3.820 -1.0409 -0.5076  0.4873
 7571TIP3    H122677   2.031   4.817   3.837 -0.8187 -0.6748 -0.9272
 7571TIP3    H222678   1.886   4.777   3.828 -0.9286 -0.6057  0.3873
 7572TIP3   OH222679   3.064   0.933   3.914 -0.0626  0.3243  0.3151
 7572TIP3    H122680   3.144   0.987   3.909  0.4251 -0.3380  0.8218
 7572TIP3    H222681   3.040   0.935   4.006 -1.7554  2.0852 -0.0843
 7573TIP3   OH222682   5.751   4.204   5.616  0.0455 -0.2818 -0.3951
 7573TIP3    H122683   5.681   4.261   5.584  1.2525  0.9789 -0.8889
 7573TIP3    H222684   5.797   4.176   5.537  1.0645  0.2059  0.0147
 7574TIP3   OH222685   3.049   0.070   4.846 -0.3470  0.2981 -0.2456
 7574TIP3    H122686   3.104   0.115   4.783  1.0869  1.5368  1.7740
 7574TIP3    H222687   2.984   0.135   4.872  0.3102  0.4883  0.9835
 7575TIP3   OH222688   2.473   0.562   2.832  0.2436 -0.4072 -0.6672
 7575TIP3    H122689   2.444   0.615   2.906  0.9552 -1.3179  0.2912
 7575TIP3    H222690   2.442   0.609   2.755 -1.2186  0.1379  0.2291
 7576TIP3   OH222691   4.821   2.021   1.385  0.5505 -0.0303  0.2731
 7576TIP3    H122692   4.899   1.968   1.372  1.5872  1.3509  0.6542
 7576TIP3    H222693   4.809   2.025   1.480 -0.5032 -0.9124  0.2068
 7577TIP3   OH222694   5.213   6.235   4.374 -0.1244 -0.1807 -0.4158
 7577TIP3    H122695   5.290   6.291   4.382  0.8698 -1.2544 -1.9499
 7577TIP3    H222696   5.203   6.195   4.460  1.2851 -0.3420 -0.3087
 7578TIP3   OH222697   7.178   2.937   1.840 -0.8286 -0.5516 -0.4431
 7578TIP3    H122698   7.208   2.867   1.898  0.7919  0.5868  0.1484
 7578TIP3    H222699   7.209   2.911   1.753  0.4155 -0.2406 -0.1119
 7579TIP3   OH222700   6.677   2.321   5.373 -0.5777 -0.2930 -0.3877
 7579TIP3    H122701   6.666   2.410   5.407 -0.7058 -0.2622 -0.5100
 7579TIP3    H222702   6.622   2.318   5.295 -0.8619 -0.5975 -0.1747
 7580TIP3   OH222703   7.152   3.045   3.367  0.3894  0.3553  0.6607
 7580TIP3    H122704   7.172   3.129   3.326 -1.1173  0.9998  1.2064
 7580TIP3    H222705   7.086   3.065   3.433  0.6594 -1.1254  1.4231
 7581TIP3   OH222706   6.026   2.415   2.993 -0.1762 -0.2398 -0.0524
 7581TIP3    H122707   5.942   2.453   3.020  0.9922  1.3569  1.5367
 7581TIP3    H222708   6.078   2.489   2.963  1.1966 -0.9864  0.4057
 7582TIP3   OH222709   4.259   4.899   0.855  0.0237 -0.4418  0.2580
 7582TIP3    H122710   4.328   4.860   0.801  0.1984 -1.0804  0.9283
 7582TIP3    H222711   4.295   4.983   0.883 -0.5352  0.4754 -1.5786
 7583TIP3   OH222712   3.953   1.181   4.137  0.4415  0.1890  0.2936
 7583TIP3    H122713   4.018   1.140   4.079 -0.2084 -0.8889  0.3003
 7583TIP3    H222714   3.884   1.211   4.078 -0.3019 -1.0625  0.4963
 7584TIP3   OH222715   6.567   1.758   4.645 -0.2526 -0.1467  0.2856
 7584TIP3    H122716   6.538   1.702   4.573  0.5884 -0.2384 -0.0007
 7584TIP3    H222717   6.612   1.698   4.705  2.1801  0.4230 -0.8555
 7585TIP3   OH222718   6.571   6.110   4.147 -0.0679  0.2847  0.0511
 7585TIP3    H122719   6.525   6.136   4.067  1.3122 -0.2485 -0.9416
 7585TIP3    H222720   6.512   6.047   4.189 -0.5680  0.1628 -0.8175
 7586TIP3   OH222721   1.492   2.718   2.639 -0.2558  0.2737 -0.0915
 7586TIP3    H122722   1.523   2.728   2.549 -1.0335  0.4466 -0.3414
 7586TIP3    H222723   1.456   2.629   2.642 -1.9091  0.9138 -0.4687
 7587TIP3   OH222724   6.056   5.914   3.193 -0.0634  0.8122 -0.2239
 7587TIP3    H122725   6.046   5.993   3.247 -0.1352  0.7727 -0.1793
 7587TIP3    H222726   6.147   5.888   3.206 -0.0292  0.9099 -0.2688
 7588TIP3   OH222727   5.152   3.579   4.227 -0.0099 -0.0257  0.0136
 7588TIP3    H122728   5.153   3.572   4.132  0.2913 -0.2984  0.0353
 7588TIP3    H222729   5.144   3.673   4.244  0.6147  0.0891 -0.2856
 7589TIP3   OH222730   6.567   1.126   4.547 -0.3290 -0.4586 -0.0078
 7589TIP3    H122731   6.480   1.162   4.562  0.0923  0.5861 -0.0258
 7589TIP3    H222732   6.611   1.190   4.492  0.1684 -1.3919 -0.7328
 7590TIP3   OH222733   6.523   2.612   4.300  0.1341  0.0045  0.0867
 7590TIP3    H122734   6.517   2.571   4.214  3.2818  1.0857 -0.7783
 7590TIP3    H222735   6.531   2.706   4.282 -1.2845  0.4995  1.7159
 7591TIP3   OH222736   5.334   0.663   1.798 -0.2434 -0.1377  0.2895
 7591TIP3    H122737   5.378   0.651   1.882  0.6110 -1.0315 -0.2608
 7591TIP3    H222738   5.291   0.748   1.805  0.1412 -0.0246  1.4779
 7592TIP3   OH222739   5.850   0.450   3.158  0.0681  0.0869  0.2363
 7592TIP3    H122740   5.883   0.360   3.157  0.5114  0.2510  0.1280
 7592TIP3    H222741   5.859   0.480   3.067 -1.9085 -0.4172 -0.1824
 7593TIP3   OH222742   5.319   6.050   2.996  0.2124  0.1572  0.0077
 7593TIP3    H122743   5.374   5.983   3.035  0.3928 -0.3992 -1.1494
 7593TIP3    H222744   5.319   6.029   2.902 -2.8037 -0.4804  0.0650
 7594TIP3   OH222745   2.336   6.463   3.127 -0.4349  0.5096  0.2701
 7594TIP3    H122746   2.255   6.503   3.159 -0.8813 -0.4099  0.3308
 7594TIP3    H222747   2.379   6.430   3.205  0.1405  1.2434  0.2649
 7595TIP3   OH222748   0.594   2.443   3.532  0.6541 -0.0856 -0.2130
 7595TIP3    H122749   0.624   2.455   3.622 -1.9497  1.9812  0.5167
 7595TIP3    H222750   0.641   2.510   3.482  1.1699 -0.3833 -0.1249
 7596TIP3   OH222751   4.515   4.113   4.211 -1.1018  0.7361  0.1506
 7596TIP3    H122752   4.595   4.156   4.183 -0.3215  0.0313  1.2255
 7596TIP3    H222753   4.445   4.156   4.161  0.0866  0.2624 -2.0252
 7597TIP3   OH222754   4.124   2.424   0.069  0.1361 -0.1289 -0.3320
 7597TIP3    H122755   4.173   2.359   0.018 -0.1737 -0.1941 -0.5516
 7597TIP3    H222756   4.155   2.414   0.159  1.1608  0.4268 -0.6142
 7598TIP3   OH222757   0.559   2.004   0.812 -0.0473 -0.1817  0.3604
 7598TIP3    H122758   0.539   1.911   0.827  3.5415 -1.0202  0.9748
 7598TIP3    H222759   0.599   2.033   0.894 -1.1406  1.9796  0.1862
 7599TIP3   OH222760   3.344   3.138   4.689 -0.4277  0.1073 -0.6366
 7599TIP3    H122761   3.295   3.058   4.707 -0.8735 -0.2875 -3.1901
 7599TIP3    H222762   3.325   3.195   4.763 -2.0679 -1.2599  0.0657
 7600TIP3   OH222763   0.207   3.548   2.767  0.0443 -0.4938 -0.2970
 7600TIP3    H122764   0.279   3.606   2.743 -1.7626  2.2398  0.3805
 7600TIP3    H222765   0.249   3.465   2.789  2.8013  0.5120 -1.3758
 7601TIP3   OH222766   0.887   4.366   0.366  0.1385 -0.3779 -0.8075
 7601TIP3    H122767   0.818   4.429   0.344 -0.2695 -0.9709 -1.2462
 7601TIP3    H222768   0.847   4.280   0.351  0.6713 -0.7471 -0.1669
 7602TIP3   OH222769   6.878   4.595   0.858 -0.4612  0.3675  0.5816
 7602TIP3    H122770   6.953   4.646   0.887  0.1584  0.0361 -0.4012
 7602TIP3    H222771   6.875   4.521   0.918  0.9726 -0.4576 -0.3173
 7603TIP3   OH222772   2.735   2.307   2.733 -0.5890 -0.0129 -0.6635
 7603TIP3    H122773   2.712   2.339   2.820 -0.4763 -1.2057 -0.1841
 7603TIP3    H222774   2.742   2.212   2.743  1.8864  0.0264 -1.3952
 7604TIP3   OH222775   1.002   3.903   1.356 -0.1127  0.0504 -0.6738
 7604TIP3    H122776   1.053   3.851   1.294 -1.1953  0.2344 -1.7499
 7604TIP3    H222777   1.054   3.982   1.370  0.9186 -0.7176 -0.0407
 7605TIP3   OH222778   0.989   3.229   3.427  1.0632  0.3159 -0.0898
 7605TIP3    H122779   0.937   3.307   3.447  1.1734  0.6687 -1.1307
 7605TIP3    H222780   0.924   3.163   3.402  0.8545 -0.3797  2.0659
 7606TIP3   OH222781   4.438   2.749   1.126 -0.2102  0.5088 -0.3729
 7606TIP3    H122782   4.493   2.823   1.099 -2.3246  1.6788 -1.7756
 7606TIP3    H222783   4.472   2.675   1.076  1.6364  0.5748  0.6960
 7607TIP3   OH222784   3.761   5.847   4.606 -0.1882  0.1618 -0.1384
 7607TIP3    H122785   3.682   5.809   4.643  0.4578  0.6713  1.9043
 7607TIP3    H222786   3.802   5.893   4.679  0.4527  2.4863 -1.8557
 7608TIP3   OH222787   5.944   2.956   2.324  0.2793 -0.4848  0.1793
 7608TIP3    H122788   5.885   2.936   2.251  2.3348  0.6892 -1.9722
 7608TIP3    H222789   5.950   3.052   2.324 -0.3298 -0.4031  2.5162
 7609TIP3   OH222790   1.800   5.161   5.541 -0.9267  0.2226 -0.3197
 7609TIP3    H122791   1.882   5.210   5.554 -1.7017  1.3704  0.5038
 7609TIP3    H222792   1.768   5.144   5.630 -0.8196 -1.5974 -0.5986
 7610TIP3   OH222793   1.591   0.401   3.687 -0.0679 -0.1046  0.8240
 7610TIP3    H122794   1.596   0.497   3.689 -0.2360 -0.0434 -0.7099
 7610TIP3    H222795   1.529   0.382   3.617 -1.4070 -1.3322  2.2929
 7611TIP3   OH222796   0.086   2.186   4.707 -0.7857  0.2607  0.2223
 7611TIP3    H122797   0.115   2.264   4.755 -0.8981 -1.4806  3.3817
 7611TIP3    H222798   0.166   2.142   4.680 -0.7104  0.8662 -0.5717
 7612TIP3   OH222799   2.832   3.522   3.958 -0.0915 -0.7254  0.2628
 7612TIP3    H122800   2.846   3.488   3.870 -0.2499  1.0040 -0.4856
 7612TIP3    H222801   2.814   3.615   3.944 -1.6768 -0.7149  2.0035
 7613TIP3   OH222802   0.544   1.502   4.881 -0.0427  0.3435  0.1314
 7613TIP3    H122803   0.550   1.596   4.864  0.0989  0.3240  0.0682
 7613TIP3    H222804   0.613   1.486   4.946 -0.3973  0.3709  0.5185
 7614TIP3   OH222805   0.699   1.324   4.624 -0.0030 -0.4037  0.4115
 7614TIP3    H122806   0.625   1.332   4.684 -1.4892 -0.3838 -1.3231
 7614TIP3    H222807   0.659   1.319   4.537  2.0831  1.4443 -0.7772
 7615TIP3   OH222808   4.517   1.831   4.339  0.0270  0.0109  0.3466
 7615TIP3    H122809   4.494   1.888   4.265 -0.8633 -1.6805 -0.7377
 7615TIP3    H222810   4.604   1.798   4.317 -0.2480 -0.5117  0.0166
 7616TIP3   OH222811   5.420   6.571   3.651  0.5327 -0.0851 -0.2213
 7616TIP3    H122812   5.510   6.547   3.626  0.1684 -2.1034  0.2446
 7616TIP3    H222813   5.375   6.586   3.568  1.4917  1.8844 -0.4443
 7617TIP3   OH222814   2.715   2.161   4.137 -0.5466  0.2511  0.2373
 7617TIP3    H122815   2.701   2.076   4.178 -0.0157 -0.5075 -1.0606
 7617TIP3    H222816   2.628   2.188   4.106 -0.7106  0.1619  0.6259
 7618TIP3   OH222817   3.246   3.174   0.712  0.2175  0.6567 -0.5205
 7618TIP3    H122818   3.266   3.106   0.648 -3.0251 -1.0360  0.0480
 7618TIP3    H222819   3.272   3.255   0.670 -0.4959 -0.5027 -3.4234
 7619TIP3   OH222820   0.803   2.833   0.351 -0.1135  0.2758 -1.3027
 7619TIP3    H122821   0.718   2.875   0.340  0.0859  1.1636  0.2305
 7619TIP3    H222822   0.792   2.776   0.427  0.3333 -0.5261 -1.8254
 7620TIP3   OH222823   3.861   4.386   2.754 -0.0547  0.1518 -0.4891
 7620TIP3    H122824   3.909   4.461   2.719 -1.2881  1.2580  0.1059
 7620TIP3    H222825   3.898   4.310   2.709  1.2321  1.1137 -1.0933
 7621TIP3   OH222826   3.809   4.722   5.834 -0.6833  0.6005 -0.1694
 7621TIP3    H122827   3.798   4.674   5.752  0.7385  0.6891 -0.4360
 7621TIP3    H222828   3.849   4.659   5.893  0.7327  1.2934 -0.3659
 7622TIP3   OH222829   6.113   3.412   4.223  0.3143 -0.2177 -0.1035
 7622TIP3    H122830   6.121   3.415   4.318 -1.1636  0.7843  0.0275
 7622TIP3    H222831   6.191   3.365   4.194  1.0981 -0.0283  1.5534
 7623TIP3   OH222832   3.210   4.021   4.467  0.1365 -0.4669  0.3074
 7623TIP3    H122833   3.124   4.065   4.463  0.0984 -0.3773  1.6962
 7623TIP3    H222834   3.268   4.086   4.507  0.4666 -1.1023  0.8703
 7624TIP3   OH222835   3.671   6.122   2.298 -0.0031 -0.0411  0.2215
 7624TIP3    H122836   3.595   6.075   2.332  0.7951 -0.7981  1.0171
 7624TIP3    H222837   3.741   6.057   2.299  0.5935  0.5693 -0.7577
 7625TIP3   OH222838   3.550   6.286   3.524 -0.0516 -0.4445 -0.0796
 7625TIP3    H122839   3.638   6.265   3.554 -0.2961  0.6553  1.5278
 7625TIP3    H222840   3.501   6.204   3.532  0.5784 -0.8231 -0.0695
 7626TIP3   OH222841   4.382   0.280   4.807  0.6222  0.3210  0.0269
 7626TIP3    H122842   4.343   0.226   4.876  1.9044 -1.5549 -0.6292
 7626TIP3    H222843   4.321   0.272   4.734  0.3702  0.4721  0.2204
 7627TIP3   OH222844   5.806   3.786   4.343  0.3350  0.3624 -0.2131
 7627TIP3    H122845   5.848   3.717   4.292 -2.4583 -1.1700 -0.6858
 7627TIP3    H222846   5.780   3.743   4.425  2.0678  1.9889  1.2843
 7628TIP3   OH222847   4.447   4.293   3.924 -0.5797 -0.1432 -0.2759
 7628TIP3    H122848   4.472   4.215   3.875  0.2020 -0.7039  0.9753
 7628TIP3    H222849   4.355   4.279   3.947 -0.3144 -0.9306  0.3480
 7629TIP3   OH222850   2.326   2.265   2.378 -0.1221 -0.0307  0.1450
 7629TIP3    H122851   2.330   2.177   2.416 -2.1154  0.0474  0.6790
 7629TIP3    H222852   2.389   2.316   2.429  0.1586 -0.8672  0.6639
 7630TIP3   OH222853   6.903   2.425   1.105  0.0197  0.4399  0.0565
 7630TIP3    H122854   6.951   2.344   1.092  0.2401  0.6508 -0.4366
 7630TIP3    H222855   6.960   2.479   1.160  0.3358  0.6704 -0.4870
 7631TIP3   OH222856   6.545   0.737   1.654 -0.2670  0.2222 -0.0365
 7631TIP3    H122857   6.594   0.655   1.642  1.1506  0.9784  0.2888
 7631TIP3    H222858   6.456   0.709   1.675 -0.6384 -1.2238 -2.9478
 7632TIP3   OH222859   7.090   0.524   1.620  0.3572 -0.1523  0.1482
 7632TIP3    H122860   7.067   0.455   1.558 -1.4523 -1.1285  1.8206
 7632TIP3    H222861   7.107   0.600   1.565 -1.1098 -0.9991 -1.5811
 7633TIP3   OH222862   6.286   0.864   4.975 -0.2357  0.6803  0.0637
 7633TIP3    H122863   6.286   0.798   5.044 -0.5664  1.7753  1.1572
 7633TIP3    H222864   6.198   0.859   4.938 -1.1911  2.2114  1.9182
 7634TIP3   OH222865   6.025   1.664   2.991  0.1741 -0.1789 -0.2851
 7634TIP3    H122866   5.939   1.693   3.023  0.0006 -0.6723 -0.3003
 7634TIP3    H222867   6.075   1.647   3.071 -0.1552 -1.1023 -0.2658
 7635TIP3   OH222868   3.698   0.832   3.921 -0.4270 -0.4249  0.1252
 7635TIP3    H122869   3.759   0.761   3.905  1.2912  1.1417 -0.7203
 7635TIP3    H222870   3.701   0.847   4.015  0.4381 -0.4296  0.1024
 7636TIP3   OH222871   0.794   1.469   2.443  0.2555 -0.2711  0.5520
 7636TIP3    H122872   0.766   1.388   2.485  0.3720 -0.3998  0.3846
 7636TIP3    H222873   0.726   1.533   2.465 -1.1394 -1.0015 -1.3186
 7637TIP3   OH222874   3.893   3.379   1.344 -0.0861 -0.0769  0.0025
 7637TIP3    H122875   3.942   3.313   1.295  0.1574  1.3158 -1.7249
 7637TIP3    H222876   3.958   3.445   1.368 -0.5005  0.0416  0.8599
 7638TIP3   OH222877   4.587   0.427   2.797 -0.4457  0.0239 -0.3078
 7638TIP3    H122878   4.558   0.353   2.850  0.1038  0.4249  0.5726
 7638TIP3    H222879   4.636   0.482   2.857  1.8670 -0.4644 -1.6171
 7639TIP3   OH222880   7.058   2.885   1.353 -0.6491  0.3915 -0.2531
 7639TIP3    H122881   7.060   2.980   1.342 -2.3095  0.5009  0.0981
 7639TIP3    H222882   7.129   2.866   1.413  1.1433  1.1223 -2.0328
 7640TIP3   OH222883   5.993   1.276   2.830 -0.6424 -0.2117 -0.3432
 7640TIP3    H122884   6.084   1.251   2.847 -1.2250 -1.7128  0.7825
 7640TIP3    H222885   5.998   1.337   2.756  1.5576  2.2272  1.6408
 7641TIP3   OH222886   5.671   2.149   5.740  0.6119 -0.2341 -0.1432
 7641TIP3    H122887   5.651   2.137   5.833 -0.1917  0.0387 -0.2692
 7641TIP3    H222888   5.716   2.234   5.736  0.2659 -0.0432 -0.0464
 7642TIP3   OH222889   2.156   6.177   1.399 -0.0443  0.0969  0.0472
 7642TIP3    H122890   2.188   6.242   1.461  0.7322 -1.3683  1.2421
 7642TIP3    H222891   2.216   6.183   1.325  2.8971 -2.1971  2.0020
 7643TIP3   OH222892   5.206   3.527   3.499 -0.3045 -0.2190 -0.7783
 7643TIP3    H122893   5.192   3.470   3.575  1.1331 -1.2581 -1.2511
 7643TIP3    H222894   5.225   3.467   3.427 -2.1688  0.7115 -2.1283
 7644TIP3   OH222895   2.418   2.634   4.887  0.6458  0.2259 -0.1241
 7644TIP3    H122896   2.402   2.728   4.886  2.5465  0.5997  0.1595
 7644TIP3    H222897   2.461   2.618   4.971 -0.5680 -1.0811  0.2810
 7645TIP3   OH222898   0.953   3.125   5.596 -0.0112 -0.3329 -0.0620
 7645TIP3    H122899   0.956   3.133   5.691 -0.5934 -1.2660  0.0517
 7645TIP3    H222900   0.918   3.209   5.565  1.8227  0.6499  0.3921
 7646TIP3   OH222901   2.580   4.411   2.867  0.3510 -0.1741  0.0003
 7646TIP3    H122902   2.517   4.439   2.934  1.3429 -0.4258  1.0626
 7646TIP3    H222903   2.665   4.436   2.902  0.8068  1.2558 -1.9616
 7647TIP3   OH222904   6.182   0.061   4.869 -0.3443 -0.6431  0.0688
 7647TIP3    H122905   6.250  -0.004   4.890  0.6800  0.9305  1.9470
 7647TIP3    H222906   6.226   0.123   4.811 -0.3654  0.0269  0.7608
 7648TIP3   OH222907   0.905   6.545   5.249 -0.1975  0.2496 -0.9677
 7648TIP3    H122908   0.901   6.567   5.155 -1.7210  0.8424 -0.7951
 7648TIP3    H222909   0.870   6.623   5.293  0.3579 -0.0848  0.1012
 7649TIP3   OH222910   3.688   0.880   4.195 -0.0453 -0.4569 -0.2097
 7649TIP3    H122911   3.662   0.846   4.281 -1.8710 -0.7252 -0.8244
 7649TIP3    H222912   3.622   0.946   4.175  0.1230 -0.6897 -1.5902
 7650TIP3   OH222913   0.474   6.676   2.570 -0.0972  0.1266  0.2533
 7650TIP3    H122914   0.386   6.645   2.549 -1.0089  2.6440  0.0666
 7650TIP3    H222915   0.504   6.617   2.639 -1.6312 -1.2182 -0.1688
 7651TIP3   OH222916   0.197   0.400   5.562 -0.2329 -0.2396 -0.2809
 7651TIP3    H122917   0.215   0.323   5.616  0.7732  1.2089  1.5756
 7651TIP3    H222918   0.282   0.444   5.554 -0.8167  0.7640 -1.1507
 7652TIP3   OH222919   1.953   6.295   4.257  0.1904 -0.4447  0.1914
 7652TIP3    H122920   2.015   6.329   4.322  1.9752 -0.7913 -1.2593
 7652TIP3    H222921   1.869   6.296   4.302  1.1624  0.4204  2.1145
 7653TIP3   OH222922   4.333   6.437   0.501 -0.0453  0.0325  0.8642
 7653TIP3    H122923   4.330   6.435   0.405  0.0086 -0.9545  0.8751
 7653TIP3    H222924   4.420   6.404   0.523  0.2692  1.0815  1.2413
 7654TIP3   OH222925   4.691   1.646   4.197 -0.7319 -0.4498  0.3661
 7654TIP3    H122926   4.619   1.587   4.222 -1.3619 -0.8693 -2.1553
 7654TIP3    H222927   4.672   1.669   4.106  2.1993 -0.3246 -0.2938
 7655TIP3   OH222928   6.435   2.256   2.892  0.1591 -0.4911 -0.3142
 7655TIP3    H122929   6.446   2.189   2.960  0.1290  0.0570  0.2386
 7655TIP3    H222930   6.345   2.244   2.862  0.3288 -1.0621 -0.6161
 7656TIP3   OH222931   0.239   6.666   4.562  0.1787 -0.3594  0.5979
 7656TIP3    H122932   0.332   6.688   4.561  0.2416 -0.4701  2.1161
 7656TIP3    H222933   0.207   6.698   4.646 -0.7104 -2.0848  0.9774
 7657TIP3   OH222934   6.765   3.756   2.551 -0.6205  0.1529 -0.0109
 7657TIP3    H122935   6.725   3.787   2.470  1.0082 -0.1286 -0.9648
 7657TIP3    H222936   6.794   3.667   2.531 -0.7872 -0.1601  1.0909
 7658TIP3   OH222937   1.047   1.230   0.869 -0.0042 -0.1722  0.5798
 7658TIP3    H122938   1.050   1.175   0.790  1.8057 -0.2492  0.6553
 7658TIP3    H222939   1.101   1.306   0.846 -0.3502  0.3197  1.3819
 7659TIP3   OH222940   4.138   5.775   2.169 -0.2508 -0.4615  0.2742
 7659TIP3    H122941   4.074   5.778   2.098 -0.2835  0.2337  0.3239
 7659TIP3    H222942   4.215   5.819   2.135  0.5346 -2.0648 -0.0870
 7660TIP3   OH222943   1.196   3.747   3.859 -0.2348 -0.1171  0.2144
 7660TIP3    H122944   1.241   3.665   3.881 -1.8441 -0.7210  1.4814
 7660TIP3    H222945   1.157   3.730   3.773  2.2008  0.5779 -1.1175
 7661TIP3   OH222946   5.863   4.199   2.855  0.0027  0.1803 -0.3457
 7661TIP3    H122947   5.868   4.178   2.762 -0.2202 -3.1987  0.2868
 7661TIP3    H222948   5.836   4.117   2.897 -0.5949  1.7654  2.6401
 7662TIP3   OH222949   2.654   4.325   1.838  0.0882  0.1448  0.4418
 7662TIP3    H122950   2.688   4.392   1.898 -1.3396  1.6701 -0.3820
 7662TIP3    H222951   2.726   4.311   1.776  1.2811 -0.8648  1.9705
 7663TIP3   OH222952   5.168   3.160   0.791 -0.0525 -0.5898  0.3272
 7663TIP3    H122953   5.072   3.165   0.799  0.1059  0.8368  1.6814
 7663TIP3    H222954   5.190   3.221   0.721 -0.0497 -0.1050  0.7490
 7664TIP3   OH222955   1.121   4.806   0.800 -0.2501 -0.2910 -0.1016
 7664TIP3    H122956   1.160   4.888   0.769 -0.0950 -0.1629  0.4228
 7664TIP3    H222957   1.079   4.829   0.882 -2.1110 -0.2603 -1.0188
 7665TIP3   OH222958   3.557   4.155   2.858  0.0621  0.0957 -0.1749
 7665TIP3    H122959   3.492   4.121   2.797 -0.0073 -0.8335  0.4049
 7665TIP3    H222960   3.558   4.093   2.930 -0.4885  1.6303  1.2193
 7666TIP3   OH222961   3.865   3.874   5.489 -0.6712  0.0249 -0.1640
 7666TIP3    H122962   3.896   3.964   5.504  0.0122 -0.5371  2.0957
 7666TIP3    H222963   3.900   3.852   5.402  0.4508  1.4098 -0.1113
 7667TIP3   OH222964   4.661   4.428   2.124  0.3661 -0.0151  0.4813
 7667TIP3    H122965   4.592   4.450   2.186  0.3382 -0.4393  0.6018
 7667TIP3    H222966   4.641   4.480   2.046 -0.0602 -0.1013  0.5331
 7668TIP3   OH222967   3.380   3.054   1.714 -0.0820  0.1394  0.2801
 7668TIP3    H122968   3.460   3.105   1.699  0.6248 -0.9505  0.2408
 7668TIP3    H222969   3.411   2.965   1.729 -1.3253 -0.3831 -0.1466
 7669TIP3   OH222970   4.541   2.693   3.791  0.0061  0.1286  0.1523
 7669TIP3    H122971   4.448   2.713   3.803  0.3496  0.6284  2.3461
 7669TIP3    H222972   4.584   2.778   3.788  0.4635 -0.1148 -0.3115
 7670TIP3   OH222973   6.211   6.085   2.635  0.6657  0.3678 -0.2732
 7670TIP3    H122974   6.188   6.027   2.562  1.4261  1.1174 -1.1326
 7670TIP3    H222975   6.148   6.156   2.629 -0.5976 -0.5958  1.0996
 7671TIP3   OH222976   0.088   1.414  -0.002 -0.0241 -0.4789  0.1207
 7671TIP3    H122977   0.005   1.397  -0.047 -0.3919  0.3147  0.4830
 7671TIP3    H222978   0.068   1.485   0.059  1.2783  0.7408 -0.8092
 7672TIP3   OH222979   6.647   0.478   1.721 -0.0610  0.3324  0.2224
 7672TIP3    H122980   6.700   0.479   1.801 -2.1523  0.5117  1.6825
 7672TIP3    H222981   6.607   0.391   1.721  0.1150  0.2493 -0.7764
 7673TIP3   OH222982   4.366   4.729   4.240 -0.7596 -0.1809 -0.4938
 7673TIP3    H122983   4.455   4.697   4.224 -0.0739  1.2407  0.2812
 7673TIP3    H222984   4.369   4.822   4.217 -1.7862  0.0988  0.4203
 7674TIP3   OH222985   3.452   2.525   4.408 -0.0800  0.0604 -0.1658
 7674TIP3    H122986   3.470   2.463   4.337 -0.8748 -0.5386  0.1453
 7674TIP3    H222987   3.531   2.520   4.464  0.3127  0.1288 -0.7068
 7675TIP3   OH222988   4.058   3.224   3.994 -0.2989 -0.3204 -0.2190
 7675TIP3    H122989   4.045   3.316   3.971  0.7366 -0.1760 -0.2861
 7675TIP3    H222990   3.978   3.199   4.040 -0.5362  0.6545 -0.0759
 7676TIP3   OH222991   2.810   1.377   0.197  0.2857 -0.1888 -0.1361
 7676TIP3    H122992   2.867   1.448   0.227  2.6604 -1.8660 -0.3787
 7676TIP3    H222993   2.765   1.348   0.276  0.1391  0.8116  0.1715
 7677TIP3   OH222994   0.258   5.233   4.661 -0.0660 -0.7080 -0.0273
 7677TIP3    H122995   0.286   5.184   4.584 -0.1045  0.7795 -1.0462
 7677TIP3    H222996   0.279   5.324   4.640 -1.0042 -0.1471  1.3111
 7678TIP3   OH222997   5.892   1.806   1.121 -0.0253 -0.8135 -0.1403
 7678TIP3    H122998   5.894   1.791   1.215  1.6994 -0.1218 -0.0188
 7678TIP3    H222999   5.984   1.797   1.094 -0.6938 -2.9261 -2.1015
 7679TIP3   OH223000   0.840   3.292   2.847  0.8246  0.5727 -0.2099
 7679TIP3    H123001   0.864   3.259   2.934 -0.9673  0.4252  0.2700
 7679TIP3    H223002   0.883   3.232   2.786  1.2106  0.0138  0.5930
 7680TIP3   OH223003   5.816   5.068   5.491  1.0707  0.0751  0.1625
 7680TIP3    H123004   5.876   5.055   5.565 -0.0531 -0.8092  0.9638
 7680TIP3    H223005   5.831   5.159   5.463  3.3373 -0.3566 -0.2128
 7681TIP3   OH223006   3.956   2.531   2.966 -0.3180  0.4317 -0.1532
 7681TIP3    H123007   3.955   2.446   3.011 -0.7036  0.6399  0.2421
 7681TIP3    H223008   3.934   2.594   3.035  1.5595  1.0459 -0.0592
 7682TIP3   OH223009   2.681   1.840   5.112 -0.1951 -0.6947  0.1793
 7682TIP3    H123010   2.714   1.894   5.040  0.5440 -1.2775  0.0757
 7682TIP3    H223011   2.679   1.751   5.077  0.4848 -1.0376  0.9809
 7683TIP3   OH223012   2.162   6.462   4.376  0.1153 -0.4163 -0.4406
 7683TIP3    H123013   2.143   6.537   4.320 -0.8903 -0.8694 -0.7284
 7683TIP3    H223014   2.257   6.466   4.392 -0.1522  1.8608  0.9334
 7684TIP3   OH223015   1.579   6.061   3.276 -0.6409 -0.2946 -0.2992
 7684TIP3    H123016   1.653   6.018   3.318 -0.1397  0.2141 -0.6479
 7684TIP3    H223017   1.504   6.005   3.296 -0.3026 -0.4026  0.7054
 7685TIP3   OH223018   3.897   4.267   3.214  0.1023  0.6182  0.4718
 7685TIP3    H123019   3.825   4.289   3.154  0.0284  2.8783  1.3061
 7685TIP3    H223020   3.969   4.241   3.156 -1.3285 -1.7905 -0.3775
 7686TIP3   OH223021   2.464   5.722   1.482  0.2868  0.0967  0.0662
 7686TIP3    H123022   2.376   5.704   1.449  0.6048 -1.7506  0.1095
 7686TIP3    H223023   2.463   5.814   1.505 -1.1923  0.4680 -1.3021
 7687TIP3   OH223024   1.817   3.439   2.015 -0.2631 -0.5592 -0.3553
 7687TIP3    H123025   1.892   3.381   2.014  0.0370 -0.1751 -0.7919
 7687TIP3    H223026   1.854   3.526   2.031 -0.3069  0.0032 -2.8332
 7688TIP3   OH223027   2.404   6.116   3.795 -0.1119  0.1181  0.0289
 7688TIP3    H123028   2.461   6.184   3.760 -0.3596  0.7463  0.8406
 7688TIP3    H223029   2.399   6.133   3.889 -0.5768 -0.7177  0.1708
 7689TIP3   OH223030   3.990   0.028   0.237 -0.0611  0.4577  0.2878
 7689TIP3    H123031   4.077   0.040   0.198 -0.3780  0.2746 -0.4849
 7689TIP3    H223032   3.996   0.072   0.322  0.9626 -0.0330  0.4885
 7690TIP3   OH223033   5.785   0.608   0.965 -0.0943 -0.5818  0.1977
 7690TIP3    H123034   5.851   0.539   0.970  0.3466 -0.2686 -0.9387
 7690TIP3    H223035   5.709   0.565   0.926  0.5530 -0.2138 -1.5850
 7691TIP3   OH223036   4.521   6.149   5.669  0.2999 -0.2186 -0.2993
 7691TIP3    H123037   4.543   6.199   5.590  1.5897  0.3191  0.3847
 7691TIP3    H223038   4.583   6.178   5.735 -1.9445  0.7692  1.5181
 7692TIP3   OH223039   4.271   2.631   5.046  0.1811  0.4280 -0.3497
 7692TIP3    H123040   4.200   2.694   5.059  0.1383  0.7615 -1.9353
 7692TIP3    H223041   4.282   2.627   4.951  0.2209 -1.9231 -0.3221
 7693TIP3   OH223042   3.432   4.605   0.134 -0.2994 -0.2842 -0.0159
 7693TIP3    H123043   3.385   4.606   0.217  0.3349 -3.9576  0.5944
 7693TIP3    H223044   3.499   4.673   0.142 -0.0316 -0.7641  2.6621
 7694TIP3   OH223045   0.489   2.852   2.537 -0.1160 -0.2318  0.6322
 7694TIP3    H123046   0.465   2.943   2.553 -0.0168 -0.3043  1.2097
 7694TIP3    H223047   0.406   2.806   2.532 -0.2242  0.0638 -0.8287
 7695TIP3   OH223048   4.797   1.152   5.265  0.0099  0.0496  0.1102
 7695TIP3    H123049   4.709   1.179   5.239  0.1244  0.5566  0.2322
 7695TIP3    H223050   4.854   1.219   5.228  0.4716 -0.9495 -1.0546
 7696TIP3   OH223051   2.682   0.259   3.460 -0.1567  0.0578 -0.1073
 7696TIP3    H123052   2.633   0.186   3.422 -0.0890 -0.0151 -0.0577
 7696TIP3    H223053   2.771   0.225   3.469 -0.2012  0.0324  0.2337
 7697TIP3   OH223054   5.083   3.726   3.849 -0.3162 -0.0362 -0.5765
 7697TIP3    H123055   5.122   3.809   3.875  1.0057  0.1560 -2.9337
 7697TIP3    H223056   5.143   3.659   3.882  0.7764  0.1611 -2.0603
 7698TIP3   OH223057   2.723   1.160   0.732  0.0272  0.6195 -0.5082
 7698TIP3    H123058   2.814   1.183   0.749 -0.1080  3.5301 -3.0172
 7698TIP3    H223059   2.674   1.240   0.751 -1.7871 -0.3453 -0.9228
 7699TIP3   OH223060   1.790   6.527   3.717  0.1001  0.0373 -0.0754
 7699TIP3    H123061   1.857   6.517   3.649  0.2270  0.8584 -0.0710
 7699TIP3    H223062   1.837   6.562   3.792 -0.1232 -0.4702  0.3104
 7700TIP3   OH223063   5.177   1.600   4.584  0.3192 -0.7555 -0.0030
 7700TIP3    H123064   5.264   1.575   4.617 -0.7100 -0.9806  2.8352
 7700TIP3    H223065   5.123   1.523   4.598 -0.9992  0.3317  1.0926
 7701TIP3   OH223066   2.770   0.115   0.296  0.1799 -0.9973  0.0508
 7701TIP3    H123067   2.806   0.151   0.377  0.0194 -2.5102  0.8407
 7701TIP3    H223068   2.810   0.167   0.226 -0.9969  1.4997  1.1088
 7702TIP3   OH223069   5.430   5.206   4.748 -0.1735 -0.2716 -0.5168
 7702TIP3    H123070   5.396   5.290   4.716  2.4447  1.2367  0.3582
 7702TIP3    H223071   5.397   5.200   4.838 -1.3470 -0.8318 -0.9568
 7703TIP3   OH223072   7.145   3.410   1.429  0.0085 -0.2403  0.1334
 7703TIP3    H123073   7.192   3.492   1.446  1.5911 -0.5544 -2.2189
 7703TIP3    H223074   7.214   3.343   1.431 -0.8270 -1.1377 -0.5038
 7704TIP3   OH223075   2.212   6.070   5.578 -0.7682 -0.0891 -0.3649
 7704TIP3    H123076   2.239   6.138   5.639 -1.1319 -0.8028  0.6269
 7704TIP3    H223077   2.279   6.002   5.586 -0.2089  0.2991 -1.6219
 7705TIP3   OH223078   2.225   2.623   5.787 -0.5326  0.0077 -0.3152
 7705TIP3    H123079   2.302   2.576   5.819  0.5025  1.9650  0.1892
 7705TIP3    H223080   2.230   2.615   5.692 -0.1905 -0.6113 -0.2487
 7706TIP3   OH223081   0.476   3.909   1.669  0.2596  0.3431 -0.1942
 7706TIP3    H123082   0.460   3.906   1.575  3.6331  0.5690 -0.9101
 7706TIP3    H223083   0.511   3.997   1.685  1.4042 -0.2633  0.8852
 7707TIP3   OH223084   6.986   5.859   0.150 -0.2798  0.5580 -0.3480
 7707TIP3    H123085   6.950   5.876   0.063 -2.0843  1.1655  0.4760
 7707TIP3    H223086   7.070   5.904   0.150  0.8237 -1.2550 -2.4754
 7708TIP3   OH223087   6.709   5.201   0.330 -0.1269 -0.5766 -0.1983
 7708TIP3    H123088   6.706   5.106   0.346  1.4640 -1.0382 -2.1710
 7708TIP3    H223089   6.765   5.210   0.252  0.2474  2.0451  0.2939
 7709TIP3   OH223090   1.041   0.298   2.617 -0.2949  0.0506  0.7520
 7709TIP3    H123091   1.125   0.338   2.595  0.3094 -0.6171  1.7764
 7709TIP3    H223092   1.041   0.215   2.570 -1.0118  0.6486 -0.3679
 7710TIP3   OH223093   0.756   2.568   5.004 -0.1896 -0.5393  0.4266
 7710TIP3    H123094   0.683   2.623   4.974 -0.0947 -0.4793  0.3045
 7710TIP3    H223095   0.801   2.543   4.923  0.3162 -0.0384  0.5462
 7711TIP3   OH223096   5.607   1.101   4.139 -0.2704  0.2479 -0.5443
 7711TIP3    H123097   5.656   1.183   4.147 -0.6585  0.3228  1.6114
 7711TIP3    H223098   5.674   1.036   4.116  0.1575  1.0224 -1.5487
 7712TIP3   OH223099   2.647   3.725   4.100  0.0566  0.6160  0.7725
 7712TIP3    H123100   2.684   3.648   4.143 -1.0959  0.6270  1.8233
 7712TIP3    H223101   2.591   3.765   4.166 -0.3150  1.6804 -0.1559
 7713TIP3   OH223102   3.287   1.023   3.205  0.0106  0.0484  0.0014
 7713TIP3    H123103   3.316   1.073   3.129 -0.0373  0.1027  0.0186
 7713TIP3    H223104   3.347   1.050   3.275 -2.0967  2.7451  0.9459
 7714TIP3   OH223105   3.273   2.052   5.132  0.0525 -0.1157 -0.5597
 7714TIP3    H123106   3.318   2.126   5.172  1.9157 -1.0341 -0.8317
 7714TIP3    H223107   3.300   2.054   5.040  0.8232 -1.5872 -0.4015
 7715TIP3   OH223108   5.916   6.712   0.118 -0.4900 -0.2441  0.3276
 7715TIP3    H123109   5.901   6.691   0.026 -1.4491 -0.7845  0.5933
 7715TIP3    H223110   5.987   6.653   0.145 -1.5720 -1.5440  0.4440
 7716TIP3   OH223111   2.941   4.011   1.549  0.0627 -0.4252 -0.0297
 7716TIP3    H123112   2.864   4.015   1.492 -0.9782 -1.9889  1.1541
 7716TIP3    H223113   3.006   4.066   1.506 -0.6675 -1.4877 -2.7193
 7717TIP3   OH223114   7.063   2.162   2.246 -0.2196 -0.5490 -0.0433
 7717TIP3    H123115   6.968   2.158   2.253 -0.1849 -1.3771  0.0452
 7717TIP3    H223116   7.080   2.212   2.166 -0.7650 -2.6215 -1.5323
 7718TIP3   OH223117   3.188   2.835   0.073  0.6490 -0.7841 -0.4869
 7718TIP3    H123118   3.229   2.807   0.155  3.6991 -1.1501 -2.0123
 7718TIP3    H223119   3.117   2.772   0.060 -2.3628  1.3306  3.4839
 7719TIP3   OH223120   5.702   3.432   4.416  0.2650  0.2332 -0.3123
 7719TIP3    H123121   5.668   3.507   4.465 -1.4235  0.7113 -2.0536
 7719TIP3    H223122   5.625   3.396   4.371  1.5594 -0.5815 -2.0234
 7720TIP3   OH223123   6.569   5.513   2.397 -0.1177  0.8883  0.1573
 7720TIP3    H123124   6.522   5.438   2.361  0.2853  0.9889 -0.6140
 7720TIP3    H223125   6.531   5.527   2.483  0.1376 -0.5009  0.5106
 7721TIP3   OH223126   5.603   3.149   0.330 -0.4029 -0.0164 -0.4248
 7721TIP3    H123127   5.551   3.098   0.392 -0.9146 -0.0881 -0.9054
 7721TIP3    H223128   5.672   3.089   0.302 -1.1204 -0.5218 -1.1398
 7722TIP3   OH223129   0.046   2.769   2.057  0.4402 -0.4549 -0.1991
 7722TIP3    H123130   0.076   2.790   2.145 -1.9167  0.2013  0.5177
 7722TIP3    H223131  -0.003   2.687   2.068  2.0701 -1.6666 -1.3788
 7723TIP3   OH223132   3.479   2.223   5.417  0.3489 -0.2371  0.3752
 7723TIP3    H123133   3.412   2.155   5.423 -0.7210  0.8205  0.9048
 7723TIP3    H223134   3.463   2.266   5.333  0.6703 -0.2810  0.2900
 7724TIP3   OH223135   5.135   1.560   3.011 -0.1353 -0.1771  0.2368
 7724TIP3    H123136   5.075   1.486   3.020 -1.1094  0.3983 -1.1550
 7724TIP3    H223137   5.088   1.622   2.955  1.1673  0.9435  0.3402
 7725TIP3   OH223138   3.439   3.151   0.919 -0.3436  0.0780 -0.0039
 7725TIP3    H123139   3.367   3.144   0.855 -0.0782  0.0118 -0.2984
 7725TIP3    H223140   3.518   3.153   0.865 -0.1621  0.9273  0.2888
 7726TIP3   OH223141   0.756   3.341   4.294  0.2302 -0.5825 -0.3047
 7726TIP3    H123142   0.835   3.335   4.240 -1.4530 -1.2289 -2.8744
 7726TIP3    H223143   0.766   3.272   4.360  1.4021 -1.2381 -1.1302
 7727TIP3   OH223144   2.222   4.696   5.209 -0.1075  0.4046  0.1402
 7727TIP3    H123145   2.213   4.630   5.140  0.2613  1.3149 -0.8020
 7727TIP3    H223146   2.176   4.658   5.285 -0.1018 -0.8217 -0.4435
 7728TIP3   OH223147   4.670   4.463   4.992  0.0118 -0.2513  0.7159
 7728TIP3    H123148   4.725   4.421   5.058  0.4753 -1.2241 -0.2744
 7728TIP3    H223149   4.609   4.395   4.965  0.1517 -0.0136 -0.2204
 7729TIP3   OH223150   5.887   0.596   1.800 -1.0777  0.0225  0.0050
 7729TIP3    H123151   5.820   0.541   1.761 -1.0026 -1.2859  1.6113
 7729TIP3    H223152   5.870   0.592   1.894  0.2247  1.0553  0.3196
 7730TIP3   OH223153   1.932   6.083   4.082 -0.2511 -0.0762  0.6190
 7730TIP3    H123154   1.908   6.015   4.145 -0.5833 -0.5226  0.0211
 7730TIP3    H223155   1.935   6.163   4.134 -0.9113 -0.3675  1.1273
 7731TIP3   OH223156   0.283   1.721   3.063  0.0360  0.1498  0.3991
 7731TIP3    H123157   0.338   1.652   3.027 -1.5422 -0.0584 -1.7652
 7731TIP3    H223158   0.345   1.779   3.108  1.8183 -0.9010 -0.5829
 7732TIP3   OH223159   0.117   5.890   5.228 -0.6292 -0.0705  0.0695
 7732TIP3    H123160   0.198   5.888   5.179 -1.0700 -1.3091 -0.6619
 7732TIP3    H223161   0.099   5.798   5.249 -0.3436  0.3899  2.7711
 7733TIP3   OH223162   4.534   0.718   0.301 -0.0839 -0.7640 -0.2299
 7733TIP3    H123163   4.587   0.644   0.274 -1.0305 -1.3890 -0.4182
 7733TIP3    H223164   4.480   0.685   0.373  0.0997 -0.0134  0.2717
 7734TIP3   OH223165   5.915   2.718   5.034  0.5938  0.0438  0.1771
 7734TIP3    H123166   5.915   2.809   5.003 -1.0035 -0.1920 -0.6272
 7734TIP3    H223167   5.833   2.708   5.082  0.4238 -1.1300 -0.3057
 7735TIP3   OH223168   3.258   2.143   2.817 -0.2133 -0.4366  0.5845
 7735TIP3    H123169   3.230   2.233   2.799 -2.8655 -1.1680  0.6288
 7735TIP3    H223170   3.182   2.090   2.794  0.6264 -2.5126  2.3197
 7736TIP3   OH223171   4.832   3.026   3.393 -0.3449 -0.0926  0.6850
 7736TIP3    H123172   4.888   3.015   3.470  1.0364  0.6157 -0.1848
 7736TIP3    H223173   4.853   3.113   3.360 -0.2909 -0.6980 -0.9678
 7737TIP3   OH223174   6.089   0.967   0.964  0.0289  0.1649  0.6203
 7737TIP3    H123175   6.051   0.968   1.052 -0.8165  2.1759  0.2937
 7737TIP3    H223176   6.026   0.918   0.911 -0.6620  0.9679  0.6797
 7738TIP3   OH223177   6.423   0.928   1.005  0.0735  0.3579 -0.0503
 7738TIP3    H123178   6.361   0.980   1.055  0.1248  0.1669  0.2148
 7738TIP3    H223179   6.455   0.862   1.067  0.1029  0.0896 -0.3444
 7739TIP3   OH223180   1.098   0.835   4.946  0.1029  0.3214  0.1113
 7739TIP3    H123181   1.128   0.900   4.883  1.3146 -0.7823 -0.4994
 7739TIP3    H223182   1.045   0.774   4.895 -1.2421  0.9264  0.7275
 7740TIP3   OH223183   4.617   3.332   3.501 -0.2312 -0.0202 -0.4019
 7740TIP3    H123184   4.612   3.408   3.559 -1.6207 -0.1343 -0.3466
 7740TIP3    H223185   4.699   3.289   3.524 -0.9413 -0.3193  1.8122
 7741TIP3   OH223186   5.261   3.952   3.894 -0.0698  0.0365  0.2837
 7741TIP3    H123187   5.306   3.915   3.970  1.0270 -3.5755 -1.8540
 7741TIP3    H223188   5.324   4.012   3.855  1.5017 -1.9655 -0.4568
 7742TIP3   OH223189   0.153   6.112   0.398 -0.6074  0.6825 -0.0613
 7742TIP3    H123190   0.149   6.175   0.326 -0.1105  0.4864 -0.2660
 7742TIP3    H223191   0.067   6.071   0.399 -0.2281 -0.1849 -1.3441
 7743TIP3   OH223192   0.573   3.011   0.124  0.7913 -0.1212  0.0393
 7743TIP3    H123193   0.546   2.941   0.183  1.6869 -1.3573 -0.9621
 7743TIP3    H223194   0.617   3.075   0.180  0.7567 -0.8041  0.8524
 7744TIP3   OH223195   6.682   2.908   2.851 -0.2715  0.3051  0.1773
 7744TIP3    H123196   6.763   2.891   2.804 -0.1146  0.7096  0.2958
 7744TIP3    H223197   6.614   2.867   2.797  0.0121 -0.0629  0.0957
 7745TIP3   OH223198   3.983   5.819   2.919  0.2667  0.0412 -0.5217
 7745TIP3    H123199   3.983   5.774   3.004 -0.2693 -0.9114 -1.0142
 7745TIP3    H223200   3.903   5.870   2.919 -0.2457 -0.7442 -0.8473
 7746TIP3   OH223201   4.743   0.495   5.375 -0.4749  0.0416  0.3041
 7746TIP3    H123202   4.672   0.559   5.384 -0.4183  0.3532 -1.1918
 7746TIP3    H223203   4.701   0.418   5.336 -0.1145 -0.0034  0.0058
 7747TIP3   OH223204   5.845   6.017   0.606  0.3029 -0.3527  0.0405
 7747TIP3    H123205   5.843   5.981   0.695  1.1995  0.7515  0.5368
 7747TIP3    H223206   5.762   5.990   0.568  0.2203 -1.4918  0.9515
 7748TIP3   OH223207   0.132   5.457   1.960  0.1044 -0.3548 -0.0050
 7748TIP3    H123208   0.040   5.462   1.935  0.7063 -0.7053 -2.5958
 7748TIP3    H223209   0.147   5.536   2.012 -1.8383 -0.8073  1.3792
 7749TIP3   OH223210   4.734   3.132   5.606  0.7885  0.2282 -0.1399
 7749TIP3    H123211   4.670   3.068   5.575  0.8831  0.1329 -0.1397
 7749TIP3    H223212   4.817   3.085   5.604  0.8961  0.4261 -0.3660
 7750TIP3   OH223213   0.892   1.810   3.269 -0.9057  0.3915 -0.7576
 7750TIP3    H123214   0.900   1.877   3.337  0.5970  0.7280 -1.2252
 7750TIP3    H223215   0.853   1.735   3.313  1.1422  0.1657  0.8350
 7751TIP3   OH223216   6.455   5.878   0.861 -0.1787  0.3574  0.6188
 7751TIP3    H123217   6.543   5.848   0.840 -0.2825  0.1425  0.4823
 7751TIP3    H223218   6.407   5.871   0.778 -0.6394 -0.6513  0.9534
 7752TIP3   OH223219   6.385   4.591   5.035  0.5564  0.5302 -0.2490
 7752TIP3    H123220   6.324   4.533   5.080  0.7432  0.2227 -0.3885
 7752TIP3    H223221   6.352   4.679   5.053 -0.1473  0.3519 -0.6497
 7753TIP3   OH223222   6.283   2.389   5.471  0.4862  0.4611  0.2398
 7753TIP3    H123223   6.337   2.363   5.546  0.2615 -0.0508  0.2291
 7753TIP3    H223224   6.270   2.483   5.482 -1.5830  0.0175  2.1726
 7754TIP3   OH223225   0.367   5.915   0.496  0.2689  0.3631 -0.6549
 7754TIP3    H123226   0.450   5.937   0.453  0.0177  0.6577 -0.9935
 7754TIP3    H223227   0.304   5.978   0.461  0.3685  1.6176  1.2594
 7755TIP3   OH223228   4.815   5.624   2.524  0.3391  0.1775 -0.2590
 7755TIP3    H123229   4.754   5.640   2.452  1.5236  0.6719 -1.1853
 7755TIP3    H223230   4.902   5.626   2.484  0.9388 -1.7753  0.7968
 7756TIP3   OH223231   0.925   6.479   5.844  0.5842 -0.1606 -0.0582
 7756TIP3    H123232   0.916   6.565   5.803  0.1359  1.2672  2.8189
 7756TIP3    H223233   1.013   6.479   5.881  1.1134 -1.5628 -1.2030
 7757TIP3   OH223234   5.977   1.393   4.235  0.3662  0.3829 -0.2807
 7757TIP3    H123235   5.937   1.477   4.211 -2.6026 -0.2274  1.8615
 7757TIP3    H223236   6.025   1.411   4.315 -1.2695 -0.0922  0.8584
 7758TIP3   OH223237   2.389   4.286   4.107  0.2009  0.0006  0.2413
 7758TIP3    H123238   2.398   4.334   4.024  0.6964 -0.2953  0.1232
 7758TIP3    H223239   2.440   4.206   4.094 -0.8475 -0.7015  0.3352
 7759TIP3   OH223240   3.266   4.194   5.423 -0.4422 -0.0867 -0.5124
 7759TIP3    H123241   3.358   4.166   5.426 -0.2841  0.4394 -0.3526
 7759TIP3    H223242   3.227   4.154   5.501 -0.5294 -0.9184 -0.9753
 7760TIP3   OH223243   1.437   5.413   1.844 -0.2045 -0.0006 -0.1505
 7760TIP3    H123244   1.502   5.345   1.828  0.3605  0.7462 -1.1539
 7760TIP3    H223245   1.383   5.413   1.765 -2.2683 -1.4514  1.1446
 7761TIP3   OH223246   4.833   3.733   2.851 -0.1357 -0.4110  0.1489
 7761TIP3    H123247   4.898   3.787   2.805  0.4891  0.2536  1.7409
 7761TIP3    H223248   4.749   3.773   2.829  0.2560  0.7262  0.6083
 7762TIP3   OH223249   1.994   5.837   0.262  0.6348 -0.0759  0.1207
 7762TIP3    H123250   1.980   5.781   0.185  0.0475 -0.2321  0.3336
 7762TIP3    H223251   1.953   5.920   0.240  1.3996  0.2429 -0.1462
 7763TIP3   OH223252   4.611   0.768   0.038  0.1562 -0.0782  0.4373
 7763TIP3    H123253   4.667   0.834   0.080  0.6105 -0.5704  0.6225
 7763TIP3    H223254   4.530   0.768   0.089  1.3300 -1.8961  2.4733
 7764TIP3   OH223255   0.319   6.119   5.120  0.0019 -0.2549 -0.3511
 7764TIP3    H123256   0.394   6.119   5.179 -1.2726 -0.8769  1.3395
 7764TIP3    H223257   0.322   6.033   5.078 -0.9047 -1.1505  1.3056
 7765TIP3   OH223258   3.211   0.340   0.528 -0.1896  0.2194  0.4851
 7765TIP3    H123259   3.206   0.245   0.527 -1.2386  0.2518 -1.2238
 7765TIP3    H223260   3.304   0.359   0.516 -0.2426 -0.6419 -1.8783
 7766TIP3   OH223261   3.812   6.490   3.356  0.0642 -0.4707  0.6925
 7766TIP3    H123262   3.852   6.575   3.376  0.7387 -0.5560 -0.2284
 7766TIP3    H223263   3.719   6.502   3.376  0.1009  0.5631  0.3365
 7767TIP3   OH223264   0.358   2.702   5.578  0.3531 -0.1401  0.1477
 7767TIP3    H123265   0.391   2.615   5.555 -0.9774 -0.1925 -1.7307
 7767TIP3    H223266   0.280   2.685   5.631 -0.1843 -0.1058 -0.6271
 7768TIP3   OH223267   3.663   4.293   0.396  0.7404  0.0388  0.2817
 7768TIP3    H123268   3.628   4.232   0.461 -1.1075 -1.0091 -1.5572
 7768TIP3    H223269   3.599   4.365   0.393 -0.1068 -0.7154 -1.4233
 7769TIP3   OH223270   0.821  -0.006   4.789 -0.1750 -0.1146  0.1265
 7769TIP3    H123271   0.878   0.026   4.720  0.5913 -2.2689 -0.3062
 7769TIP3    H223272   0.850   0.040   4.868  0.7416  0.3629 -0.4810
 7770TIP3   OH223273   1.884   1.464   1.238  0.3782 -0.0025 -0.0559
 7770TIP3    H123274   1.946   1.479   1.166  1.3383  1.5243  1.0348
 7770TIP3    H223275   1.824   1.538   1.233 -0.3471 -0.5751 -0.0467
 7771TIP3   OH223276   5.693   6.717   3.336  0.1293 -0.1605 -0.0481
 7771TIP3    H123277   5.749   6.702   3.260 -0.5139  1.2657 -0.8555
 7771TIP3    H223278   5.656   6.631   3.356  1.1663 -0.7649 -0.6514
 7772TIP3   OH223279   4.693   6.541   5.382 -0.6318 -0.3823  0.1112
 7772TIP3    H123280   4.680   6.522   5.289  1.3816  0.0030 -0.3097
 7772TIP3    H223281   4.729   6.460   5.418  0.3155  0.0353  0.1299
 7773TIP3   OH223282   6.938   2.063   1.356  0.2591  0.0930 -0.2540
 7773TIP3    H123283   6.857   2.109   1.381 -0.3869 -1.2283  0.1804
 7773TIP3    H223284   6.996   2.075   1.432 -0.2766 -0.6394  0.2841
 7774TIP3   OH223285   0.980   6.397   2.243 -0.2863  0.7235 -0.7819
 7774TIP3    H123286   1.040   6.327   2.218 -1.3718 -0.5143 -0.0116
 7774TIP3    H223287   0.929   6.414   2.163 -1.4544 -0.8737 -0.4199
 7775TIP3   OH223288   7.115   6.409   3.943 -0.5018  0.5609 -0.0214
 7775TIP3    H123289   7.209   6.394   3.930 -0.6170 -1.1886  0.8883
 7775TIP3    H223290   7.104   6.413   4.038 -1.4285  0.0581 -0.0928
 7776TIP3   OH223291   1.249   0.380   3.308 -0.4992 -0.6030  0.7253
 7776TIP3    H123292   1.177   0.318   3.298  0.2757 -1.5656  1.0245
 7776TIP3    H223293   1.217   0.461   3.267 -0.9065 -1.6627 -1.1384
 7777TIP3   OH223294   1.289   1.594   4.797 -0.7789 -0.3680 -0.5430
 7777TIP3    H123295   1.381   1.592   4.775 -0.6572 -0.9597 -0.0324
 7777TIP3    H223296   1.243   1.575   4.715 -0.4905  0.7448 -0.9721
 7778TIP3   OH223297   2.145   3.000   3.618  0.3262  0.8326  0.3653
 7778TIP3    H123298   2.146   2.974   3.710 -0.0168 -0.4821  0.0122
 7778TIP3    H223299   2.088   3.076   3.615  0.7368  1.1932  1.3129
 7779TIP3   OH223300   2.438   4.159   2.757 -0.3179  0.2587  0.1702
 7779TIP3    H123301   2.488   4.238   2.775  0.1820 -0.2835  1.2849
 7779TIP3    H223302   2.408   4.129   2.843 -0.0053 -1.0669 -0.1492
 7780TIP3   OH223303   0.250   0.673   0.502  0.0900  0.6225  0.1661
 7780TIP3    H123304   0.210   0.695   0.586 -0.3922  0.8469 -0.1171
 7780TIP3    H223305   0.229   0.747   0.445 -0.0694  0.2187 -0.3056
 7781TIP3   OH223306   1.831   2.802   2.324  0.9908 -0.2294 -0.2121
 7781TIP3    H123307   1.840   2.790   2.230 -0.0313 -0.1431 -0.3276
 7781TIP3    H223308   1.835   2.897   2.337  1.0592 -0.2370 -0.1767
 7782TIP3   OH223309   7.212   6.561   5.287  0.3369  0.7779  0.7116
 7782TIP3    H123310   7.129   6.575   5.241 -0.7561 -0.6303  2.1531
 7782TIP3    H223311   7.255   6.492   5.237 -0.2845  0.1222  1.0599
 7783TIP3   OH223312   3.625   1.237   4.255  0.7483  0.3668  0.0763
 7783TIP3    H123313   3.604   1.287   4.334  0.3948  0.4893 -0.0950
 7783TIP3    H223314   3.573   1.156   4.264  1.4022 -0.0229  0.4072
 7784TIP3   OH223315   0.843   2.680   2.523 -0.7670 -0.3223 -0.0154
 7784TIP3    H123316   0.803   2.765   2.543 -0.6422 -0.3266  0.2714
 7784TIP3    H223317   0.924   2.702   2.477 -1.6681 -0.3515 -1.6688
 7785TIP3   OH223318   3.729   6.052   1.461 -0.1095 -0.7824  0.0267
 7785TIP3    H123319   3.813   6.094   1.444 -1.0949  0.8471 -1.0548
 7785TIP3    H223320   3.668   6.124   1.476 -1.2073 -1.9319  1.5389
 7786TIP3   OH223321   4.687   4.243   1.672  0.0670 -0.2349 -0.3513
 7786TIP3    H123322   4.641   4.159   1.671 -2.2409  0.8425  1.9668
 7786TIP3    H223323   4.641   4.296   1.607 -1.6028  0.5958  1.4175
 7787TIP3   OH223324   2.655   6.772   3.376 -0.1545  0.2338  0.0505
 7787TIP3    H123325   2.692   6.694   3.336 -2.4799 -1.1839  0.4373
 7787TIP3    H223326   2.619   6.822   3.303  0.4652  0.4569 -0.1067
 7788TIP3   OH223327   6.336   4.644   0.408 -0.0835 -0.0004 -0.5796
 7788TIP3    H123328   6.382   4.727   0.396  0.3034 -0.1472 -0.1382
 7788TIP3    H223329   6.405   4.578   0.408 -0.4754 -0.4435 -1.9461
 7789TIP3   OH223330   1.009   0.417   2.196  0.3628  0.1427 -0.0770
 7789TIP3    H123331   1.092   0.386   2.231 -0.5026 -0.4177  1.5887
 7789TIP3    H223332   0.975   0.343   2.146  0.0338 -0.2848  0.7672
 7790TIP3   OH223333   4.974   5.747   3.655 -0.1787  0.7970  0.0969
 7790TIP3    H123334   5.038   5.734   3.725  1.3535  1.3526 -1.1374
 7790TIP3    H223335   4.891   5.718   3.693  0.3188  2.3078  2.6075
 7791TIP3   OH223336   6.273   6.447   5.784 -0.2103 -0.0949 -0.3341
 7791TIP3    H123337   6.179   6.463   5.778 -0.3267 -1.2430 -3.1166
 7791TIP3    H223338   6.312   6.503   5.717  1.0410 -0.0436  0.3998
 7792TIP3   OH223339   4.701   5.228   4.933  0.3041  0.1400 -0.1959
 7792TIP3    H123340   4.700   5.217   4.837 -1.8039  0.7595 -0.2934
 7792TIP3    H223341   4.617   5.193   4.962  1.3825 -1.0842  1.6065
 7793TIP3   OH223342   6.525   4.795   4.304 -0.2809 -0.7082 -0.4337
 7793TIP3    H123343   6.542   4.871   4.248  1.7028  0.8629  2.1103
 7793TIP3    H223344   6.594   4.798   4.370 -2.1025 -2.8433  1.7325
 7794TIP3   OH223345   4.887   5.905   2.319 -0.0650  0.5037 -0.0505
 7794TIP3    H123346   4.804   5.952   2.325 -0.4018 -0.2510  1.6315
 7794TIP3    H223347   4.913   5.889   2.409  0.6968 -1.3936 -0.5547
 7795TIP3   OH223348   1.522   5.898   4.687  0.4805 -0.0332 -0.0218
 7795TIP3    H123349   1.482   5.811   4.691 -1.8055  0.9711  1.1474
 7795TIP3    H223350   1.540   5.920   4.779 -0.0883  1.1670 -0.1743
 7796TIP3   OH223351   4.000   0.754   5.501  0.5454  0.4035 -0.4635
 7796TIP3    H123352   3.914   0.747   5.543  0.5279 -0.2253 -0.5954
 7796TIP3    H223353   4.007   0.845   5.474  0.2634  0.6531  0.2884
 7797TIP3   OH223354   6.002   6.248   0.640  0.4520 -0.3332 -0.6066
 7797TIP3    H123355   6.087   6.204   0.639  0.1559 -0.9249 -0.7239
 7797TIP3    H223356   5.940   6.180   0.612  0.0770  0.3968 -1.6199
 7798TIP3   OH223357   5.327   3.833   1.681  0.4605 -0.1471 -0.0746
 7798TIP3    H123358   5.268   3.855   1.609 -0.3154 -1.8943 -0.0291
 7798TIP3    H223359   5.357   3.917   1.715 -0.8643  0.7429 -1.0423
 7799TIP3   OH223360   0.569   6.350   0.938 -0.0258 -0.3410 -0.4418
 7799TIP3    H123361   0.647   6.381   0.985  0.9287 -0.1716 -2.0669
 7799TIP3    H223362   0.523   6.430   0.913 -0.5316 -0.4324  0.1631
 7800TIP3   OH223363   5.008   5.997   5.257  0.2272 -0.3409  0.0554
 7800TIP3    H123364   4.998   5.965   5.167 -3.5338 -2.6361  1.0878
 7800TIP3    H223365   5.075   5.940   5.295 -0.0739 -1.1268 -0.5676
 7801TIP3   OH223366   1.572   3.430   4.782 -0.0964  0.3933 -0.0593
 7801TIP3    H123367   1.643   3.380   4.742 -0.2596 -0.0283  0.1780
 7801TIP3    H223368   1.616   3.498   4.833  0.1614 -0.2946  0.6522
 7802TIP3   OH223369   6.054   4.950   0.027  0.4161  0.2783  0.2297
 7802TIP3    H123370   5.976   4.904  -0.006  1.0625 -0.4918 -0.2490
 7802TIP3    H223371   6.091   4.890   0.092  0.6186  0.6438  0.4542
 7803TIP3   OH223372   2.063   0.079   2.232  0.4304  0.1883  0.1635
 7803TIP3    H123373   2.057   0.146   2.301 -1.2557  0.1604  0.0701
 7803TIP3    H223374   2.060   0.129   2.150  3.1303  0.2850  0.0289
 7804TIP3   OH223375   6.204   2.750   0.983  0.2087 -0.2539  0.0355
 7804TIP3    H123376   6.149   2.672   0.972 -1.1146  0.8046 -1.3577
 7804TIP3    H223377   6.233   2.771   0.895  0.3312  0.9688  0.3480
 7805TIP3   OH223378   5.331   3.071   2.134 -0.5752  0.3387 -0.8128
 7805TIP3    H123379   5.336   3.052   2.228 -1.0663  1.1602 -0.6129
 7805TIP3    H223380   5.378   3.154   2.124  1.2576 -0.7253 -1.6182
 7806TIP3   OH223381   1.899   3.768   4.907  0.0436 -0.0120 -0.3817
 7806TIP3    H123382   1.840   3.693   4.898  0.1206  0.1174 -2.3101
 7806TIP3    H223383   1.985   3.734   4.883  0.6806  0.0021  1.6447
 7807TIP3   OH223384   5.566   1.880   0.682  0.4409  0.4595  0.1041
 7807TIP3    H123385   5.611   1.963   0.695  0.9579  0.9326 -3.6953
 7807TIP3    H223386   5.618   1.834   0.617 -2.4090 -0.6620 -1.5850
 7808TIP3   OH223387   4.645   1.911   1.107  0.6527  0.7406 -0.3330
 7808TIP3    H123388   4.667   2.003   1.123 -1.8013  1.3406 -0.0170
 7808TIP3    H223389   4.600   1.883   1.187  1.3497 -0.7453 -0.4335
 7809TIP3   OH223390   2.761   2.487   5.766 -0.2832  0.1295  0.0806
 7809TIP3    H123391   2.823   2.468   5.696 -1.3778 -2.6495 -0.2412
 7809TIP3    H223392   2.811   2.477   5.847  0.7309  2.3781 -0.1878
 7810TIP3   OH223393   6.992   6.763   3.073  0.2127  0.4300 -0.0938
 7810TIP3    H123394   7.085   6.785   3.075  0.7458 -1.6588  0.0682
 7810TIP3    H223395   6.959   6.787   3.159  1.2793 -1.3867  0.8635
 7811TIP3   OH223396   5.792   3.114   2.908  0.1398 -0.2466  0.0180
 7811TIP3    H123397   5.825   3.024   2.905  3.0215  0.7165 -1.7789
 7811TIP3    H223398   5.750   3.127   2.823 -1.1169 -0.1406  0.6357
 7812TIP3   OH223399   5.472   2.485   1.266  0.0719  0.6230  0.2354
 7812TIP3    H123400   5.479   2.538   1.345 -1.2194 -0.9277  1.4433
 7812TIP3    H223401   5.562   2.482   1.232  0.6324  1.3984  1.5622
 7813TIP3   OH223402   1.845   3.535   1.521 -0.1497 -0.5802 -0.2798
 7813TIP3    H123403   1.820   3.479   1.595 -0.8347 -0.3693 -0.3508
 7813TIP3    H223404   1.775   3.525   1.457 -0.4040  0.5332 -0.2001
 7814TIP3   OH223405   6.659   6.299   2.670 -0.0206  0.0549 -0.0499
 7814TIP3    H123406   6.664   6.302   2.765 -0.1987 -0.5707 -0.0161
 7814TIP3    H223407   6.733   6.352   2.640  1.0439 -1.1117  0.4357
 7815TIP3   OH223408   3.921   0.834   1.041  0.4099 -0.5353 -0.9533
 7815TIP3    H123409   3.876   0.842   0.957 -2.2816 -0.2598  0.4055
 7815TIP3    H223410   3.953   0.923   1.059 -0.1825 -0.2845 -1.0957
 7816TIP3   OH223411   1.947   1.487   0.603  0.4081  0.4828  0.1522
 7816TIP3    H123412   2.019   1.542   0.573 -0.2139  1.4492  0.3507
 7816TIP3    H223413   1.922   1.525   0.687 -1.7867  1.6464 -0.9229
 7817TIP3   OH223414   2.793   4.866   0.174 -0.2635 -0.2265 -0.6459
 7817TIP3    H123415   2.721   4.912   0.218 -0.7123  0.3521 -1.9310
 7817TIP3    H223416   2.770   4.773   0.182  0.5783 -0.3090  1.8467
 7818TIP3   OH223417   0.153   4.443   5.827 -0.4103  0.0349  0.1954
 7818TIP3    H123418   0.215   4.480   5.890 -1.6046 -0.5015  1.7431
 7818TIP3    H223419   0.188   4.468   5.741  1.4825  0.4418  1.0403
 7819TIP3   OH223420   1.215   2.834   0.016 -0.6423 -0.0795  0.8371
 7819TIP3    H123421   1.184   2.804   0.101 -0.2025  2.3587  1.9454
 7819TIP3    H223422   1.195   2.928   0.014  1.6372  0.4816 -0.6748
 7820TIP3   OH223423   5.110   2.640   0.050 -0.6655  0.5104  0.1864
 7820TIP3    H123424   5.154   2.686  -0.022 -2.3594 -0.6942 -1.6927
 7820TIP3    H223425   5.095   2.709   0.115 -0.3760  1.9785 -1.2177
 7821TIP3   OH223426   6.115   2.298   4.896 -0.0066 -0.0901 -0.0177
 7821TIP3    H123427   6.055   2.295   4.822  0.4838 -0.0560 -0.4218
 7821TIP3    H223428   6.076   2.239   4.961 -1.4799  1.3941  0.5009
 7822TIP3   OH223429   0.296   5.498   4.328 -0.6595  0.5926 -0.5448
 7822TIP3    H123430   0.215   5.547   4.313 -1.1033  0.1790  0.3850
 7822TIP3    H223431   0.268   5.406   4.326 -0.6553  0.4760  1.9519
 7823TIP3   OH223432   5.390   2.193   0.541  0.0538 -0.5339 -0.0919
 7823TIP3    H123433   5.373   2.123   0.478 -0.2215 -0.4364 -0.1295
 7823TIP3    H223434   5.469   2.237   0.510 -0.2409 -0.3078 -0.5228
 7824TIP3   OH223435   1.960   1.194   2.983 -0.5567 -0.0520 -0.0483
 7824TIP3    H123436   1.970   1.133   3.056  2.1922  1.6054  1.1174
 7824TIP3    H223437   2.013   1.156   2.913  0.4197  0.4809  0.3753
 7825TIP3   OH223438   3.975   5.417   2.840  0.6384  0.0067  0.1693
 7825TIP3    H123439   4.019   5.453   2.763  0.0597 -0.8811 -0.5968
 7825TIP3    H223440   3.896   5.469   2.849  0.7037  0.1075  0.1655
 7826TIP3   OH223441   0.119   5.004   4.793 -0.1849  0.1441  0.0483
 7826TIP3    H123442   0.038   5.034   4.752 -0.3105 -0.0634  0.1387
 7826TIP3    H223443   0.180   4.994   4.721 -0.5245 -0.5999 -0.1455
 7827TIP3   OH223444   3.539   4.906   0.150 -0.0134  0.1648 -0.1845
 7827TIP3    H123445   3.528   5.000   0.167  1.9497  0.5113 -0.5964
 7827TIP3    H223446   3.459   4.866   0.186 -1.2538  2.0422 -0.6838
 7828TIP3   OH223447   2.992   1.585   0.225  0.1254 -0.2230  0.8418
 7828TIP3    H123448   3.022   1.658   0.280  1.1015  0.4887 -0.5848
 7828TIP3    H223449   3.060   1.575   0.159 -0.4528 -1.8409  0.4580
 7829TIP3   OH223450   5.423   1.298   1.463 -0.1359 -0.3576 -0.1036
 7829TIP3    H123451   5.508   1.337   1.484  0.2896  0.4680 -2.9446
 7829TIP3    H223452   5.401   1.246   1.540  0.8529  2.7772  2.5196
 7830TIP3   OH223453   4.946   5.311   2.313  0.1166 -0.2306  0.6962
 7830TIP3    H123454   4.887   5.344   2.245 -0.0847 -0.8679  0.5513
 7830TIP3    H223455   4.966   5.221   2.285  1.7076  0.1825  0.3832
 7831TIP3   OH223456   6.313   6.309   1.806  0.1836 -0.3032  0.5295
 7831TIP3    H123457   6.344   6.298   1.716  0.5966  1.8417  0.3648
 7831TIP3    H223458   6.392   6.302   1.859  0.0162 -1.0173  0.6979
 7832TIP3   OH223459   6.411   3.899   1.818 -0.4473  0.0671 -0.4631
 7832TIP3    H123460   6.448   3.937   1.738  0.3702  0.2344 -0.0205
 7832TIP3    H223461   6.480   3.910   1.883 -1.2788  0.3404  0.3812
 7833TIP3   OH223462   1.405   6.751   2.358  0.0724  0.3009  0.4773
 7833TIP3    H123463   1.418   6.657   2.349 -0.4061  0.3393 -0.9010
 7833TIP3    H223464   1.366   6.778   2.275 -1.4698  1.4196  1.4966
 7834TIP3   OH223465   1.364   5.709   3.067  0.6118 -0.5316  0.0084
 7834TIP3    H123466   1.344   5.795   3.029  2.4974  0.7942  1.7711
 7834TIP3    H223467   1.439   5.678   3.017  0.8904 -0.4246  0.3551
 7835TIP3   OH223468   3.666   2.241   0.012  0.0099 -0.1790  0.1504
 7835TIP3    H123469   3.731   2.203   0.071  0.7306  1.7471  0.6603
 7835TIP3    H223470   3.703   2.325  -0.014 -0.5389 -0.7359 -2.6612
 7836TIP3   OH223471   4.843   0.422   4.181  0.1327  0.3944  0.1912
 7836TIP3    H123472   4.864   0.513   4.159  1.6307 -0.0492 -0.3568
 7836TIP3    H223473   4.928   0.377   4.179 -0.2094 -0.5453  2.8730
 7837TIP3   OH223474   2.592   0.929   2.900 -0.0845 -0.1568 -0.2119
 7837TIP3    H123475   2.571   0.987   2.973  1.2298 -1.2025  1.0766
 7837TIP3    H223476   2.574   0.981   2.821 -2.2537  0.7433  0.8194
 7838TIP3   OH223477   3.095   0.723   5.825 -0.1697 -0.1976 -0.3470
 7838TIP3    H123478   3.151   0.793   5.791 -0.3784  0.7524  1.1454
 7838TIP3    H223479   3.010   0.740   5.786  0.0036 -0.1496 -0.7040
 7839TIP3   OH223480   5.789   5.870   1.406  0.8667  0.1959  0.1346
 7839TIP3    H123481   5.696   5.846   1.408  1.0186 -0.3848  0.3328
 7839TIP3    H223482   5.789   5.964   1.423  0.1534  0.6743 -2.1261
 7840TIP3   OH223483   4.826   4.406   3.487 -0.6539  0.3737 -0.4479
 7840TIP3    H123484   4.817   4.315   3.517 -1.3951  0.2958 -0.8837
 7840TIP3    H223485   4.912   4.433   3.518 -1.1078  0.0695  1.1689
 7841TIP3   OH223486   5.952   5.963   5.507  0.7027 -0.3013  0.1764
 7841TIP3    H123487   5.869   5.973   5.552 -1.1376 -1.5828 -2.6170
 7841TIP3    H223488   5.968   6.049   5.467 -0.4153 -0.5958 -0.9582
 7842TIP3   OH223489   0.675   2.324   0.893  0.1550 -0.0112  0.0078
 7842TIP3    H123490   0.659   2.232   0.915 -1.9140  0.2771 -0.1693
 7842TIP3    H223491   0.696   2.323   0.800  1.6014 -0.4137  0.2968
 7843TIP3   OH223492   2.706   2.542   3.014 -0.1012 -0.1305 -0.1603
 7843TIP3    H123493   2.742   2.620   3.056  0.5929  0.9902 -2.6108
 7843TIP3    H223494   2.632   2.517   3.068  0.4478  1.4475  1.4239
 7844TIP3   OH223495   0.120   5.251   4.048 -0.6406  0.4565  0.3217
 7844TIP3    H123496   0.032   5.214   4.050 -1.5125  2.2041 -1.8522
 7844TIP3    H223497   0.170   5.190   3.993 -0.8571  0.2037  0.4001
 7845TIP3   OH223498   2.486   4.427   0.266  0.6683 -0.0723 -0.6183
 7845TIP3    H123499   2.464   4.357   0.327  0.6055  0.2755 -0.2338
 7845TIP3    H223500   2.413   4.431   0.205 -0.0780  0.6804  0.2879
 7846TIP3   OH223501   0.793   5.042   2.245  0.5275  0.3762  0.3307
 7846TIP3    H123502   0.703   5.071   2.262  0.8054  1.8211 -0.5112
 7846TIP3    H223503   0.820   5.093   2.168  1.8076 -0.5989  0.1177
 7847TIP3   OH223504   0.517   2.138   5.373  0.0805  0.2105  0.3999
 7847TIP3    H123505   0.566   2.077   5.428 -0.8097 -0.1794  0.7805
 7847TIP3    H223506   0.434   2.150   5.419 -0.1192  0.9905 -0.1471
 7848TIP3   OH223507   3.263   0.833   4.192  0.6026 -0.1338 -0.1027
 7848TIP3    H123508   3.254   0.738   4.182  0.4416  0.1057 -3.3282
 7848TIP3    H223509   3.174   0.864   4.207  0.5516 -0.4513  0.2413
 7849TIP3   OH223510   0.248   5.029   0.252  0.2007 -0.4339  0.3545
 7849TIP3    H123511   0.157   5.004   0.267 -0.0918  0.0543 -0.5646
 7849TIP3    H223512   0.265   5.097   0.318  0.2174 -1.2088  1.1723
 7850TIP3   OH223513   1.431   5.255   3.210 -0.2345 -0.0746 -0.0492
 7850TIP3    H123514   1.490   5.293   3.145 -1.3065 -1.6249 -2.0329
 7850TIP3    H223515   1.446   5.161   3.205 -0.2882 -0.2458  2.0671
 7851TIP3   OH223516   6.222   1.138   2.592 -0.0039  0.5030 -0.3157
 7851TIP3    H123517   6.286   1.207   2.576 -1.7727  2.0938 -0.8687
 7851TIP3    H223518   6.196   1.150   2.683  0.3867 -0.1081 -0.1100
 7852TIP3   OH223519   5.926   1.464   0.895 -0.5237 -0.1841  0.3761
 7852TIP3    H123520   5.908   1.505   0.810  0.8121 -1.1664 -0.4210
 7852TIP3    H223521   5.846   1.478   0.946 -1.7135 -0.3671 -1.3481
 7853TIP3   OH223522   6.641   0.696   5.799  0.1167 -0.7860  0.5482
 7853TIP3    H123523   6.577   0.637   5.759  0.1449 -0.1457 -0.4858
 7853TIP3    H223524   6.596   0.734   5.874 -0.3843 -1.0740  0.3976
 7854TIP3   OH223525   2.663   2.529   1.698 -0.1803  0.6536 -0.1654
 7854TIP3    H123526   2.599   2.538   1.627 -0.3657  0.4333 -0.0300
 7854TIP3    H223527   2.694   2.438   1.690  1.0890  1.1319 -1.0443
 7855TIP3   OH223528   4.006   5.091   4.955 -0.1172 -0.5975  0.0662
 7855TIP3    H123529   4.043   5.068   4.870 -0.2254  0.9362 -0.4291
 7855TIP3    H223530   3.974   5.180   4.944 -2.1211 -1.1320  1.0765
 7856TIP3   OH223531   1.837   1.326   1.745 -0.8572  0.1481  0.1543
 7856TIP3    H123532   1.769   1.310   1.680 -0.1076 -0.1105 -0.5852
 7856TIP3    H223533   1.789   1.348   1.825 -1.7698  1.3464 -0.6994
 7857TIP3   OH223534   5.226   3.042   1.538  0.3127 -0.1565 -0.4440
 7857TIP3    H123535   5.240   3.050   1.633  0.2790 -0.3028 -0.4277
 7857TIP3    H223536   5.161   3.110   1.519  2.1353  1.5972 -0.7686
 7858TIP3   OH223537   7.212   4.693   4.761 -0.0121 -0.0520  0.2565
 7858TIP3    H123538   7.151   4.713   4.690 -1.2473 -1.3179  0.9182
 7858TIP3    H223539   7.216   4.774   4.813 -0.2334  0.3988 -0.4098
 7859TIP3   OH223540   5.084   0.488   1.763 -0.4093 -0.2389 -0.0490
 7859TIP3    H123541   5.152   0.535   1.811 -1.7089  1.1230  0.5448
 7859TIP3    H223542   5.114   0.488   1.673  0.6442 -0.1747  0.2899
 7860TIP3   OH223543   6.320   3.994   4.028 -0.6631 -0.5444  0.0236
 7860TIP3    H123544   6.318   4.034   3.941 -1.3575 -2.3523 -0.8542
 7860TIP3    H223545   6.228   3.987   4.053 -0.4862 -0.4308  0.7136
 7861TIP3   OH223546   5.188   2.657   4.627  0.4171 -0.3901  0.5048
 7861TIP3    H123547   5.268   2.651   4.679 -0.0873  0.2587  1.3874
 7861TIP3    H223548   5.186   2.748   4.596 -0.0590 -0.3579  0.6224
 7862TIP3   OH223549   2.258   5.230   2.051 -0.0177 -0.8116 -0.1144
 7862TIP3    H123550   2.241   5.141   2.082 -0.7338 -0.1863  1.3823
 7862TIP3    H223551   2.284   5.278   2.129 -0.3191  0.4707 -0.7786
 7863TIP3   OH223552   3.056   0.971   5.558 -0.3362  0.1848  0.2432
 7863TIP3    H123553   2.987   1.024   5.518  0.6669  0.9841 -0.5006
 7863TIP3    H223554   3.134   0.990   5.505  0.1999 -1.5743  0.3626
 7864TIP3   OH223555   1.226   4.160   4.158  0.0579 -0.1188  0.1136
 7864TIP3    H123556   1.254   4.251   4.155 -0.6877  0.1408  0.7565
 7864TIP3    H223557   1.239   4.128   4.069  3.1577 -0.2788  0.4925
 7865TIP3   OH223558   0.056   1.216   1.425  0.5937 -0.4384 -0.4200
 7865TIP3    H123559   0.056   1.223   1.330  0.5523 -0.5504 -0.4291
 7865TIP3    H223560  -0.032   1.242   1.451  0.2889 -1.3424 -0.4893
 7866TIP3   OH223561   0.088   3.819   2.120 -0.5612  0.0488  0.1110
 7866TIP3    H123562  -0.003   3.788   2.123 -0.3277 -0.6427  2.9028
 7866TIP3    H223563   0.091   3.892   2.182  0.7423  0.1188  0.0020
 7867TIP3   OH223564   3.488   5.668   5.506  0.0153 -0.4278 -0.1218
 7867TIP3    H123565   3.398   5.684   5.477 -0.0242 -1.5001 -0.6437
 7867TIP3    H223566   3.485   5.680   5.601 -0.5936 -0.0747 -0.1837
 7868TIP3   OH223567   3.318   5.069   0.805  0.1465 -0.4293  0.3994
 7868TIP3    H123568   3.351   5.123   0.732  1.0330 -1.4262  0.0408
 7868TIP3    H223569   3.319   4.980   0.770  0.0326 -0.8463  1.4527
 7869TIP3   OH223570   4.871   5.275   5.728 -0.2545  0.0860 -0.6023
 7869TIP3    H123571   4.840   5.227   5.651 -1.2710 -0.1126 -0.0877
 7869TIP3    H223572   4.825   5.235   5.802 -0.4339  1.2433 -0.0568
 7870TIP3   OH223573   6.645   2.946   1.911  0.0873  0.1605  0.0291
 7870TIP3    H123574   6.617   2.856   1.892  0.2316 -0.2682  1.6683
 7870TIP3    H223575   6.737   2.948   1.884 -0.0220 -0.0528 -0.3777
 7871TIP3   OH223576   4.411   1.405   0.662  0.5578  0.5405 -0.5752
 7871TIP3    H123577   4.353   1.449   0.600  0.0693 -0.0481 -0.5417
 7871TIP3    H223578   4.489   1.461   0.666  0.7109  0.4575 -1.9160
 7872TIP3   OH223579   0.023   2.777   5.785 -0.0658  0.5144  0.4574
 7872TIP3    H123580   0.052   2.862   5.819  2.1444 -0.3319  0.8194
 7872TIP3    H223581  -0.036   2.800   5.713  0.6007  2.3642  0.4306
 7873TIP3   OH223582   2.097   3.605   1.126 -0.3572  0.0408  0.1079
 7873TIP3    H123583   2.049   3.523   1.140 -1.4627  0.1529 -2.5337
 7873TIP3    H223584   2.188   3.583   1.149 -0.5935 -2.0010 -0.6503
 7874TIP3   OH223585   1.493   4.078   2.136  0.0715  0.0894 -0.1119
 7874TIP3    H123586   1.472   4.161   2.178 -2.6458 -0.2659 -0.5503
 7874TIP3    H223587   1.579   4.092   2.096  0.4508  2.0897  1.2451
 7875TIP3   OH223588   5.205   3.712   4.642 -0.5093 -0.0630 -0.0229
 7875TIP3    H123589   5.200   3.789   4.698  0.2761 -1.0188  1.4229
 7875TIP3    H223590   5.133   3.723   4.580 -2.5186  0.2504  2.1935
 7876TIP3   OH223591   5.477   4.417   4.376 -0.0096  0.3043  0.5501
 7876TIP3    H123592   5.549   4.434   4.315 -0.3008  1.6228  0.5378
 7876TIP3    H223593   5.520   4.398   4.460  0.3742  1.5756  0.6636
 7877TIP3   OH223594   4.431   3.893   5.702 -0.1706 -0.7870 -0.3047
 7877TIP3    H123595   4.514   3.865   5.741 -1.4151 -0.5587  2.7669
 7877TIP3    H223596   4.375   3.815   5.706 -0.5948 -0.5246 -0.9425
 7878TIP3   OH223597   6.866   0.541   0.026  0.1828  0.6403  0.7528
 7878TIP3    H123598   6.942   0.582   0.068 -0.1522  1.9027  0.1627
 7878TIP3    H223599   6.841   0.602  -0.043 -0.7980 -0.2175  0.3297
 7879TIP3   OH223600   1.564   5.673   3.328 -0.0389  0.3438 -0.0647
 7879TIP3    H123601   1.527   5.740   3.385 -1.3288 -2.0968  2.1990
 7879TIP3    H223602   1.491   5.645   3.273 -0.4275 -1.2810  1.1924
 7880TIP3   OH223603   4.362   3.913   4.925 -0.2452  0.5268  0.4630
 7880TIP3    H123604   4.303   3.890   4.997 -2.4685  1.8091 -0.8348
 7880TIP3    H223605   4.435   3.958   4.967 -0.4253 -0.6103  2.0843
 7881TIP3   OH223606   4.128   4.563   4.683  0.5453  0.0213  0.2496
 7881TIP3    H123607   4.054   4.504   4.695  0.5229 -0.1261 -0.5337
 7881TIP3    H223608   4.097   4.647   4.714  0.2232 -0.1534  0.4065
 7882TIP3   OH223609   2.325   5.379   5.420  0.1995  0.3909  0.0735
 7882TIP3    H123610   2.395   5.428   5.377  1.3011 -1.3187 -0.1970
 7882TIP3    H223611   2.369   5.333   5.492 -0.7391 -0.3280  0.2106
 7883TIP3   OH223612   0.287   6.427   4.419 -0.0701 -0.2602  0.0068
 7883TIP3    H123613   0.244   6.352   4.459 -1.0837 -0.2433 -0.9976
 7883TIP3    H223614   0.263   6.501   4.475  0.7272 -0.6203  0.8561
 7884TIP3   OH223615   2.624   0.243   1.470 -0.0410  0.4765 -0.6150
 7884TIP3    H123616   2.668   0.189   1.536 -0.4488  1.0030  0.1119
 7884TIP3    H223617   2.591   0.181   1.405 -0.0963 -0.1049 -0.0383
 7885TIP3   OH223618   4.591   5.276   0.087  0.4065  0.3300 -0.9618
 7885TIP3    H123619   4.615   5.216   0.158 -0.4121  0.8073 -0.2750
 7885TIP3    H223620   4.496   5.268   0.080  0.2364  1.8628 -0.5738
 7886TIP3   OH223621   6.841   6.039   0.962 -0.5016 -0.1162 -0.7632
 7886TIP3    H123622   6.846   6.124   0.917 -0.8599  0.9098  1.0016
 7886TIP3    H223623   6.799   6.060   1.046  1.5766 -1.6093  0.7461
 7887TIP3   OH223624   6.494   0.969   1.875  0.1260  0.2494 -0.3333
 7887TIP3    H123625   6.560   0.995   1.940  1.1468 -0.9203 -0.8642
 7887TIP3    H223626   6.541   0.912   1.814 -1.6616 -1.7280  0.0219
 7888TIP3   OH223627   6.695   0.492   2.857 -0.1145 -0.6891 -0.4233
 7888TIP3    H123628   6.733   0.580   2.862 -0.0290 -0.6917 -0.9443
 7888TIP3    H223629   6.633   0.496   2.784 -1.8053 -0.4416  0.9624
 7889TIP3   OH223630   5.452   1.189   5.477  0.0103 -0.2989 -0.2627
 7889TIP3    H123631   5.438   1.275   5.437  0.5268 -0.1013 -0.0364
 7889TIP3    H223632   5.364   1.153   5.490 -0.2208  0.3421 -0.0382
 7890TIP3   OH223633   4.657   5.875   2.697  0.2700  0.5028  0.7579
 7890TIP3    H123634   4.599   5.806   2.665  1.4178  0.0012 -0.3179
 7890TIP3    H223635   4.626   5.894   2.785 -0.3358 -1.0803  0.9066
 7891TIP3   OH223636   4.075   2.884   1.004  0.2429  0.7462  0.2004
 7891TIP3    H123637   3.997   2.850   1.047 -0.8953  1.6294 -1.0862
 7891TIP3    H223638   4.115   2.807   0.963  1.7293 -0.2483  3.2241
 7892TIP3   OH223639   1.837   5.847   4.994  0.6337  0.3508  0.6502
 7892TIP3    H123640   1.780   5.827   4.920  1.1911 -0.0227  0.3196
 7892TIP3    H223641   1.836   5.767   5.047  0.1015  0.6742  1.1428
 7893TIP3   OH223642   4.920   3.578   0.098  0.2006 -0.1766 -0.3952
 7893TIP3    H123643   5.012   3.576   0.071 -0.0555  1.5190 -1.5057
 7893TIP3    H223644   4.886   3.660   0.063 -1.9767 -1.1639 -0.7611
 7894TIP3   OH223645   2.626   6.217   3.009  0.1837  0.6149 -0.1738
 7894TIP3    H123646   2.647   6.124   3.021  0.6182  0.2939 -2.7661
 7894TIP3    H223647   2.588   6.244   3.093  1.3240 -1.5190  1.1381
 7895TIP3   OH223648   5.963   5.534   3.999 -0.1082 -0.3488  0.0293
 7895TIP3    H123649   6.041   5.491   4.035 -0.9021 -0.1971  2.0467
 7895TIP3    H223650   5.991   5.623   3.981  0.3005 -0.4155  0.3223
 7896TIP3   OH223651   5.061   1.551   4.127  0.3314  0.2534 -0.3304
 7896TIP3    H123652   5.078   1.493   4.201 -0.5614  0.9007  0.4085
 7896TIP3    H223653   5.144   1.597   4.114  1.0950 -1.2288 -1.0085
 7897TIP3   OH223654   3.415   4.998   4.516 -0.3556 -0.2949  1.0263
 7897TIP3    H123655   3.506   4.974   4.498  0.4065  3.2872 -0.8508
 7897TIP3    H223656   3.367   4.965   4.440  0.3524  2.1002 -0.5697
 7898TIP3   OH223657   6.219   2.281   3.154  0.1284 -0.3408  0.2611
 7898TIP3    H123658   6.255   2.264   3.066  0.0669  0.5791  0.0482
 7898TIP3    H223659   6.127   2.300   3.139 -0.3540 -2.1107  0.7482
 7899TIP3   OH223660   5.427   4.764   2.843 -0.5843 -0.1813  0.2683
 7899TIP3    H123661   5.465   4.695   2.897 -0.2483 -0.7827 -0.7132
 7899TIP3    H223662   5.454   4.742   2.754  0.1785  1.6392  0.0160
 7900TIP3   OH223663   1.194   5.500   2.418  0.3575 -0.2151 -0.3290
 7900TIP3    H123664   1.206   5.439   2.491  0.2426  0.9483  0.6882
 7900TIP3    H223665   1.101   5.497   2.399  0.1469  0.5311  0.5329
 7901TIP3   OH223666   6.319   6.752   0.074 -0.0494  0.5434  0.4280
 7901TIP3    H123667   6.305   6.751   0.168  3.1066  0.4951  0.9996
 7901TIP3    H223668   6.307   6.843   0.048 -1.8125  0.4148  0.6377
 7902TIP3   OH223669   5.939   5.925   0.348  0.3405  0.1392 -0.4065
 7902TIP3    H123670   5.868   5.860   0.340 -0.2332  0.8715 -1.4892
 7902TIP3    H223671   5.913   5.980   0.421 -0.7346  1.0009 -1.4012
 7903TIP3   OH223672   3.764   4.605   0.256  0.3585  0.7259  0.1257
 7903TIP3    H123673   3.780   4.515   0.228  1.0118  0.8850 -0.0188
 7903TIP3    H223674   3.736   4.597   0.347  0.0440  0.3514  0.0019
 7904TIP3   OH223675   0.338   1.235   1.420 -0.3142  0.3639  0.0055
 7904TIP3    H123676   0.243   1.222   1.420 -0.3842  0.6495 -1.6369
 7904TIP3    H223677   0.357   1.276   1.504 -1.7621  1.1024 -0.0013
 7905TIP3   OH223678   6.968   2.897   1.662  0.6208 -0.5306 -0.6252
 7905TIP3    H123679   7.020   2.977   1.651  0.1174  0.0110  0.7016
 7905TIP3    H223680   6.904   2.900   1.590  0.9325 -0.0042 -0.8874
 7906TIP3   OH223681   5.459   0.985   3.925 -0.1023  0.7148 -0.3442
 7906TIP3    H123682   5.486   0.996   4.016  0.2166 -0.2110 -0.3209
 7906TIP3    H223683   5.535   0.945   3.882 -0.6293  0.1760 -0.7854
 7907TIP3   OH223684   3.514   5.738   4.644  0.3663 -0.2281 -0.0076
 7907TIP3    H123685   3.466   5.662   4.609 -0.8489  0.6190 -0.2637
 7907TIP3    H223686   3.488   5.742   4.736 -0.6017  0.6066 -0.2978
 7908TIP3   OH223687   1.778   1.205   3.778 -0.1239  0.4159 -0.2409
 7908TIP3    H123688   1.759   1.284   3.728  0.7868  2.0372  1.7983
 7908TIP3    H223689   1.873   1.197   3.775  0.1655  1.5370  2.4063
 7909TIP3   OH223690   2.759   5.696   4.889  0.2781 -0.2885  0.0453
 7909TIP3    H123691   2.685   5.723   4.944  0.4900 -0.3685  0.3679
 7909TIP3    H223692   2.805   5.630   4.940  1.3563  0.7290  0.4321
 7910TIP3   OH223693   4.789   5.853   1.595  0.4935  0.4903  0.3693
 7910TIP3    H123694   4.801   5.789   1.665  0.1091 -0.0069 -0.0165
 7910TIP3    H223695   4.872   5.902   1.594  1.2762 -0.7913 -0.1205
 7911TIP3   OH223696   1.897   2.834   5.630  0.0633  0.7439  0.2075
 7911TIP3    H123697   1.958   2.841   5.557  0.0917 -0.2328  0.1183
 7911TIP3    H223698   1.812   2.860   5.593  0.0495  0.1015 -0.2235
 7912TIP3   OH223699   3.833   3.396   0.033 -0.4257 -0.5897 -0.0073
 7912TIP3    H123700   3.767   3.373  -0.032 -0.4625 -0.8252  0.1125
 7912TIP3    H223701   3.840   3.318   0.088  1.3076 -1.2940 -1.1431
 7913TIP3   OH223702   2.370   0.751   2.685 -0.0195 -0.4718  0.4338
 7913TIP3    H123703   2.278   0.777   2.686  0.0424 -0.2381  0.0889
 7913TIP3    H223704   2.418   0.834   2.691  0.1922 -0.3955 -1.7155
 7914TIP3   OH223705   0.589   5.116   0.624  0.6196  0.1555 -0.1062
 7914TIP3    H123706   0.644   5.050   0.667  0.5713  0.8065  0.9670
 7914TIP3    H223707   0.509   5.118   0.676 -0.4801 -0.7987 -1.6683
 7915TIP3   OH223708   3.795   6.652   5.597  0.0332  0.3528  0.1290
 7915TIP3    H123709   3.707   6.688   5.609 -0.7249 -1.3101 -0.1505
 7915TIP3    H223710   3.851   6.709   5.649 -1.3586  0.8053  1.2035
 7916TIP3   OH223711   5.044   1.990   1.934 -0.0527  0.9467  0.6643
 7916TIP3    H123712   5.095   1.909   1.923 -1.0676  0.3177  0.4654
 7916TIP3    H223713   4.992   1.997   1.854 -0.8907  1.1192  1.2117
 7917TIP3   OH223714   3.642   0.703  -0.009 -0.0489  0.2930  0.6420
 7917TIP3    H123715   3.683   0.681   0.074 -0.4902 -0.9305  0.5489
 7917TIP3    H223716   3.571   0.640  -0.020 -0.7796  1.1893 -0.0939
 7918TIP3   OH223717   1.343   5.089   1.794 -0.1504 -0.6414  0.2361
 7918TIP3    H123718   1.419   5.147   1.800 -0.5214 -0.1955  0.8052
 7918TIP3    H223719   1.351   5.047   1.708  0.1670  0.1972 -0.1544
 7919TIP3   OH223720   2.097   5.060   5.090 -0.0928  0.2832 -0.2993
 7919TIP3    H123721   2.075   5.105   5.008 -0.5073 -0.1383 -0.4245
 7919TIP3    H223722   2.012   5.034   5.126 -0.0303  1.6579  0.9607
 7920TIP3   OH223723   1.691   1.708   4.020  0.5619  0.1958  0.0800
 7920TIP3    H123724   1.635   1.761   4.076 -0.4146 -0.4631 -0.2349
 7920TIP3    H223725   1.691   1.755   3.936 -1.9367 -1.2394 -0.8241
 7921TIP3   OH223726   2.382   1.149   4.082 -0.6232  0.4140 -0.1126
 7921TIP3    H123727   2.460   1.198   4.055 -0.6056  0.2899 -0.2877
 7921TIP3    H223728   2.340   1.204   4.148 -1.2951  1.2663 -1.2199
 7922TIP3   OH223729   7.050   2.815   3.557  0.4820  0.3864  0.3967
 7922TIP3    H123730   7.081   2.882   3.618  0.7471 -0.9543  1.8039
 7922TIP3    H223731   7.002   2.864   3.490 -1.6246  1.8141  2.7613
 7923TIP3   OH223732   2.887   6.561   5.569 -0.3964  0.2132 -0.1102
 7923TIP3    H123733   2.857   6.530   5.484 -0.7378 -0.6720  0.3220
 7923TIP3    H223734   2.871   6.488   5.628  0.2511  0.6590  0.6306
 7924TIP3   OH223735   5.242   5.493   5.086  0.6584  0.1846  0.4929
 7924TIP3    H123736   5.242   5.580   5.046 -1.3306 -0.0002 -0.0674
 7924TIP3    H223737   5.196   5.438   5.022 -1.8114 -0.3457  2.5699
 7925TIP3   OH223738   0.224   5.469   0.759 -0.4677 -0.4456  0.2158
 7925TIP3    H123739   0.193   5.461   0.849 -1.0109  0.3312  0.1142
 7925TIP3    H223740   0.144   5.466   0.706 -0.2535  0.1799 -0.1566
 7926TIP3   OH223741   5.598   1.224   1.816  0.0846  0.1108  0.6660
 7926TIP3    H123742   5.515   1.260   1.784  1.1058  2.3494  0.3009
 7926TIP3    H223743   5.640   1.298   1.860  2.1130 -0.8162  0.3809
 7927TIP3   OH223744   6.596   4.085   1.194 -0.1568  0.2476  0.1114
 7927TIP3    H123745   6.654   4.048   1.127 -2.5485  0.8707 -2.5212
 7927TIP3    H223746   6.611   4.179   1.187 -1.1567  0.3844 -0.3369
 7928TIP3   OH223747   4.378   1.510   3.241 -0.0268  0.4428 -0.0533
 7928TIP3    H123748   4.369   1.602   3.266  0.6411  0.5749 -0.2817
 7928TIP3    H223749   4.471   1.498   3.223 -0.1975 -0.1187 -0.6432
 7929TIP3   OH223750   4.556   6.106   3.817 -0.3587 -1.1458 -0.3998
 7929TIP3    H123751   4.635   6.085   3.766  0.1948  0.2116 -0.1253
 7929TIP3    H223752   4.585   6.106   3.908 -0.0225  1.8003 -0.4081
 7930TIP3   OH223753   0.185   2.442   1.330 -0.3738 -0.5083  0.4716
 7930TIP3    H123754   0.155   2.380   1.397 -1.5643  0.6326  1.0481
 7930TIP3    H223755   0.257   2.489   1.372 -0.3354 -0.5995  0.5095
 7931TIP3   OH223756   7.016   1.813   1.852  0.2458  0.2672 -0.0435
 7931TIP3    H123757   6.939   1.817   1.797 -0.5581 -1.3993  0.8718
 7931TIP3    H223758   7.048   1.723   1.841  2.2835  1.0104 -0.6672
 7932TIP3   OH223759   7.097   4.052   4.367 -0.2833 -0.0597  0.1837
 7932TIP3    H123760   7.190   4.070   4.379 -0.4472  0.3849  0.8672
 7932TIP3    H223761   7.071   4.004   4.446 -0.5678 -0.4576 -0.1456
 7933TIP3   OH223762   6.232   1.228   4.522  0.2624  0.4094  0.1360
 7933TIP3    H123763   6.211   1.313   4.482 -1.1307  0.3209  0.6264
 7933TIP3    H223764   6.236   1.247   4.616  1.4614  0.2149  0.1357
 7934TIP3   OH223765   0.630   5.375   2.496  0.1099  0.0558  0.0798
 7934TIP3    H123766   0.635   5.345   2.587 -1.1844  0.3046  0.2552
 7934TIP3    H223767   0.593   5.301   2.449  0.6576 -0.0246 -0.2296
 7935TIP3   OH223768   3.624   0.199   1.901  0.1152 -0.2030 -0.4021
 7935TIP3    H123769   3.702   0.154   1.934  1.0443  2.2206  0.9614
 7935TIP3    H223770   3.596   0.255   1.973 -1.8331  0.3539 -1.5122
 7936TIP3   OH223771   0.635   5.442   1.392  0.0734 -0.2755 -0.0331
 7936TIP3    H123772   0.655   5.512   1.454  3.0695 -1.5523  0.6139
 7936TIP3    H223773   0.600   5.487   1.315  3.4477  2.2309 -0.3029
 7937TIP3   OH223774   4.787   5.133   3.694  0.0855  0.4835 -0.3904
 7937TIP3    H123775   4.729   5.060   3.716 -1.3436  1.9228  0.9738
 7937TIP3    H223776   4.867   5.116   3.745 -0.2696 -0.0668  0.0031
 7938TIP3   OH223777   4.293   0.998   3.707 -0.2499  0.1831  0.1307
 7938TIP3    H123778   4.316   1.091   3.704 -0.3106  0.1804 -0.5861
 7938TIP3    H223779   4.357   0.959   3.767  0.9469  0.3670 -0.9960
 7939TIP3   OH223780   7.188   0.658   2.690 -0.0871  0.4368  0.1788
 7939TIP3    H123781   7.122   0.599   2.725  0.3034 -0.7133 -0.9705
 7939TIP3    H223782   7.270   0.628   2.729  0.0881  0.3365 -0.2667
 7940TIP3   OH223783   1.457   1.595   4.446  0.1005  0.1680  0.4903
 7940TIP3    H123784   1.402   1.536   4.397 -0.1767  0.7162  0.1301
 7940TIP3    H223785   1.541   1.550   4.453  0.0130 -0.0884 -0.1205
 7941TIP3   OH223786   2.125   6.759   2.908  0.0611 -0.3799 -0.0770
 7941TIP3    H123787   2.162   6.674   2.886 -0.0212 -1.2194  2.7649
 7941TIP3    H223788   2.034   6.742   2.928 -0.0444  0.4365  0.2003
 7942TIP3   OH223789   1.856   0.860   1.846  0.0042  0.1559  0.1400
 7942TIP3    H123790   1.804   0.910   1.909  0.1385  0.3736  0.0778
 7942TIP3    H223791   1.872   0.921   1.775 -1.2326 -0.4668 -0.7153
 7943TIP3   OH223792   2.273   1.454   0.065  0.1339  0.4005  0.0491
 7943TIP3    H123793   2.202   1.419   0.011  0.4278  0.9126 -0.6872
 7943TIP3    H223794   2.300   1.534   0.020  0.8324  0.4815  0.5950
 7944TIP3   OH223795   6.319   5.769   3.234 -0.1614  0.3829 -0.7056
 7944TIP3    H123796   6.338   5.758   3.327 -0.8231 -1.0444 -0.7033
 7944TIP3    H223797   6.361   5.694   3.192  1.4610  1.8253 -1.7940
 7945TIP3   OH223798   4.311   1.481   0.984  0.5389  0.8117 -0.0952
 7945TIP3    H123799   4.297   1.424   0.909  1.2337 -0.0724  0.4194
 7945TIP3    H223800   4.345   1.562   0.947  0.2356  0.6289 -0.7868
 7946TIP3   OH223801   3.514   4.568   1.194  0.2150 -0.0063 -0.0093
 7946TIP3    H123802   3.507   4.586   1.288 -1.1444  0.4434 -0.1820
 7946TIP3    H223803   3.434   4.603   1.157 -0.9354 -3.1723 -0.8672
 7947TIP3   OH223804   6.606   1.888   5.851 -0.2299 -0.0276 -0.3281
 7947TIP3    H123805   6.647   1.939   5.920 -0.9044  0.3438 -0.1888
 7947TIP3    H223806   6.677   1.865   5.792  0.6746 -1.7807  1.3277
 7948TIP3   OH223807   7.184   4.618   2.161  0.4571  0.4777 -0.3862
 7948TIP3    H123808   7.183   4.527   2.192  1.8242  0.3378 -0.7062
 7948TIP3    H223809   7.158   4.612   2.069 -1.2161  0.6356  0.0338
 7949TIP3   OH223810   2.973   1.719   1.399 -0.2815  0.2333  0.6795
 7949TIP3    H123811   2.984   1.655   1.469  0.3605 -0.2570  0.1477
 7949TIP3    H223812   2.912   1.784   1.435  1.2584  0.8641  2.2898
 7950TIP3   OH223813   6.523   1.440   4.690 -0.2080 -0.4047  0.4481
 7950TIP3    H123814   6.497   1.427   4.782  0.2284  1.7819  0.9226
 7950TIP3    H223815   6.604   1.390   4.682 -0.5706 -1.1251  1.0625
 7951TIP3   OH223816   6.149   1.933   3.159  0.0829 -0.1547  0.1494
 7951TIP3    H123817   6.086   1.934   3.087  0.0418 -2.1948  0.0774
 7951TIP3    H223818   6.219   1.991   3.130 -0.9099  0.7448 -0.5663
 7952TIP3   OH223819   0.355   2.727   5.091 -0.5305 -0.5702  0.5169
 7952TIP3    H123820   0.441   2.711   5.052 -0.0152 -0.2098  1.4834
 7952TIP3    H223821   0.356   2.819   5.115 -0.3092 -1.0786  2.6129
 7953TIP3   OH223822   7.101   3.645   5.479 -0.3498  0.3261  0.3723
 7953TIP3    H123823   7.114   3.717   5.418  1.0625 -0.2030  0.0165
 7953TIP3    H223824   7.130   3.567   5.432  1.1261 -0.0443  1.8104
 7954TIP3   OH223825   3.722   0.212   2.983 -0.4126  0.4101  0.3919
 7954TIP3    H123826   3.750   0.293   3.025  1.6179  0.2111 -0.4589
 7954TIP3    H223827   3.730   0.145   3.050 -0.6680  0.6666  0.6806
 7955TIP3   OH223828   3.286   1.024   4.578 -0.1362  0.1295 -0.1755
 7955TIP3    H123829   3.263   0.934   4.601 -0.0482  0.2178  0.2711
 7955TIP3    H223830   3.217   1.052   4.518 -0.1465 -0.2450 -0.3388
 7956TIP3   OH223831   7.054   0.451   4.870  0.0686 -0.2402  0.0511
 7956TIP3    H123832   7.073   0.471   4.778 -0.0710 -0.9379 -0.1390
 7956TIP3    H223833   7.091   0.524   4.919  0.7232 -0.1747 -0.5185
 7957TIP3   OH223834   0.662   2.608   1.387 -0.3691 -0.3918 -0.4879
 7957TIP3    H123835   0.672   2.576   1.477 -1.6103 -0.5380 -0.3865
 7957TIP3    H223836   0.668   2.530   1.333 -1.0333 -0.5068 -0.4118
 7958TIP3   OH223837   6.039   5.624   1.773  0.4592 -0.7357  0.0929
 7958TIP3    H123838   6.021   5.690   1.707  1.0422 -0.3333  0.3363
 7958TIP3    H223839   6.050   5.543   1.724 -0.0987 -0.6267 -0.2174
 7959TIP3   OH223840   1.773   6.458   1.529 -0.1706 -0.2517 -0.4164
 7959TIP3    H123841   1.820   6.412   1.460  1.2730  0.0801  0.2984
 7959TIP3    H223842   1.791   6.407   1.608 -0.4959  0.2340 -0.0266
 7960TIP3   OH223843   0.005   0.936   3.644 -0.0065  0.3574  0.5388
 7960TIP3    H123844   0.051   0.903   3.721  0.8969  1.4768  0.5036
 7960TIP3    H223845   0.014   1.031   3.650 -0.6189  0.4992 -0.5357
 7961TIP3   OH223846   1.356   3.010   3.118  0.4875  0.0242 -0.0001
 7961TIP3    H123847   1.393   3.058   3.192 -0.7595  1.1500 -0.0746
 7961TIP3    H223848   1.378   3.063   3.041 -0.3758  0.1803 -0.1487
 7962TIP3   OH223849   0.723   5.826   2.949 -0.2827 -0.5052 -0.1552
 7962TIP3    H123850   0.773   5.788   3.021 -0.9179 -1.2577 -0.1046
 7962TIP3    H223851   0.730   5.921   2.963 -1.8500 -0.6315  1.9526
 7963TIP3   OH223852   3.543   3.566   5.664  0.2976 -0.2280 -0.4406
 7963TIP3    H123853   3.587   3.563   5.579 -0.4128  0.1854 -0.8408
 7963TIP3    H223854   3.556   3.657   5.694  0.2052 -0.2625 -0.2946
 7964TIP3   OH223855   5.698   0.402   0.101  0.5865 -0.5441  0.3072
 7964TIP3    H123856   5.789   0.425   0.118  0.5850 -0.6761  0.4974
 7964TIP3    H223857   5.647   0.459   0.158  0.4167  1.3005 -1.5614
 7965TIP3   OH223858   0.542   1.554   0.536  0.2357 -0.4707 -0.0640
 7965TIP3    H123859   0.528   1.492   0.608 -1.1180 -1.4126 -1.0912
 7965TIP3    H223860   0.596   1.507   0.474  1.4275  0.3542  0.3071
 7966TIP3   OH223861   6.978   0.160   4.703  0.7478 -0.3739 -1.0818
 7966TIP3    H123862   6.913   0.197   4.642  0.5193 -1.6597 -1.6483
 7966TIP3    H223863   7.062   0.194   4.671  0.3766  1.5460 -0.1645
 7967TIP3   OH223864   4.319   5.945   3.834  0.2309  0.0543 -0.0921
 7967TIP3    H123865   4.338   5.967   3.743  1.4473 -1.1185 -0.1508
 7967TIP3    H223866   4.381   5.997   3.885 -0.8812  1.2107  0.1472
 7968TIP3   OH223867   3.071   2.399   2.173  0.2473 -0.2706  0.3359
 7968TIP3    H123868   3.096   2.441   2.255  1.1094  2.0311 -1.0108
 7968TIP3    H223869   3.031   2.469   2.121 -1.5341 -1.9790 -0.7289
 7969TIP3   OH223870   2.670   2.694   1.934 -0.1279  0.1686 -0.2214
 7969TIP3    H123871   2.673   2.780   1.891  0.4128 -0.4074 -1.3672
 7969TIP3    H223872   2.680   2.631   1.863  2.6219 -0.8095  0.9095
 7970TIP3   OH223873   5.028   3.928   3.205 -0.4223  0.9984  0.7846
 7970TIP3    H123874   5.118   3.917   3.175 -0.4626  1.1898  0.5913
 7970TIP3    H223875   4.986   3.982   3.138 -0.5487  1.3282  1.1266
 7971TIP3   OH223876   1.697   3.599   4.950  0.0242 -0.7478  0.0816
 7971TIP3    H123877   1.610   3.635   4.966  0.1580 -0.1996 -0.3975
 7971TIP3    H223878   1.727   3.570   5.036 -0.5370 -0.7341  0.2869
 7972TIP3   OH223879   6.592   2.583   5.107 -0.0519 -0.3790 -0.6655
 7972TIP3    H123880   6.642   2.502   5.101 -0.5451 -0.7673  0.3547
 7972TIP3    H223881   6.514   2.568   5.054 -1.3306 -1.4888  1.4353
 7973TIP3   OH223882   4.468   3.586   2.834  0.1558 -0.3907 -0.0600
 7973TIP3    H123883   4.508   3.566   2.749 -0.8245 -0.6499 -0.4796
 7973TIP3    H223884   4.483   3.508   2.887  1.6617  0.1570  0.3702
 7974TIP3   OH223885   5.086   3.051   3.600  0.1376  0.3732 -0.2767
 7974TIP3    H123886   5.058   3.138   3.625  1.6112  0.3489  1.7383
 7974TIP3    H223887   5.153   3.065   3.534  2.0450  0.9983  1.6667
 7975TIP3   OH223888   6.981   5.276   3.259  0.2021 -0.2905  0.2177
 7975TIP3    H123889   7.022   5.337   3.320  0.7547  0.0651 -0.4899
 7975TIP3    H223890   6.897   5.255   3.299  0.3979  0.2187  0.9198
 7976TIP3   OH223891   5.737   4.827   5.338  0.2960  0.3190  0.3550
 7976TIP3    H123892   5.710   4.881   5.263  1.1496 -0.1504 -0.3052
 7976TIP3    H223893   5.750   4.890   5.409  2.3838  1.1852 -0.7060
 7977TIP3   OH223894   1.381   2.314   1.823 -0.5623 -0.5166  0.2825
 7977TIP3    H123895   1.443   2.311   1.896  1.0916 -1.1258 -1.0634
 7977TIP3    H223896   1.354   2.406   1.818 -1.7197 -0.6687  2.3938
 7978TIP3   OH223897   2.265   3.321   5.556 -0.1252 -0.5491  0.1962
 7978TIP3    H123898   2.214   3.341   5.634  1.0559 -1.2648  1.1947
 7978TIP3    H223899   2.309   3.403   5.533  1.5522 -0.9102  1.8672
 7979TIP3   OH223900   5.287   1.746   2.034 -0.0788 -0.2096 -0.5898
 7979TIP3    H123901   5.341   1.786   1.966 -1.4249  0.7367 -1.1441
 7979TIP3    H223902   5.313   1.792   2.114  0.8245 -0.6561 -0.6150
 7980TIP3   OH223903   3.935   4.012   0.917 -0.5789  0.1265  0.3951
 7980TIP3    H123904   3.993   4.016   0.993 -1.3803  1.0570  0.9903
 7980TIP3    H223905   3.974   3.946   0.860  1.1931  0.8681  0.6665
 7981TIP3   OH223906   0.612   0.474   4.542  0.0058  0.0533 -0.0917
 7981TIP3    H123907   0.599   0.413   4.614 -0.0934 -0.2105 -0.3322
 7981TIP3    H223908   0.650   0.421   4.472 -0.1886  0.2424 -0.3402
 7982TIP3   OH223909   1.220   4.829   2.459 -0.2437 -0.3706  0.0980
 7982TIP3    H123910   1.164   4.786   2.523  0.8898 -0.9039  0.7593
 7982TIP3    H223911   1.161   4.884   2.408 -1.3434 -0.8567  0.8254
 7983TIP3   OH223912   2.552   2.966   4.558  0.0817  0.0567 -0.5850
 7983TIP3    H123913   2.559   2.945   4.651  0.8040  0.6893 -0.4871
 7983TIP3    H223914   2.642   2.974   4.528 -0.1384  1.5819 -0.9287
 7984TIP3   OH223915   6.939   2.058   4.202 -0.3666 -0.4156 -0.1494
 7984TIP3    H123916   6.853   2.074   4.240  0.4626  1.5422  1.0778
 7984TIP3    H223917   7.001   2.095   4.265  1.6528 -4.3776  0.5619
 7985TIP3   OH223918   4.635   4.158   2.189 -0.2405 -0.4778 -0.4226
 7985TIP3    H123919   4.571   4.169   2.260 -0.1323  1.7431 -0.5925
 7985TIP3    H223920   4.659   4.247   2.165  1.1083 -1.2252 -2.0337
 7986TIP3   OH223921   4.560   4.339   0.770 -0.3925  0.3169 -0.4195
 7986TIP3    H123922   4.541   4.297   0.687 -1.6796 -0.6440  0.3197
 7986TIP3    H223923   4.532   4.275   0.836  0.6011  1.0437  0.7530
 7987TIP3   OH223924   3.044   6.085   4.926 -0.1933 -0.0265  0.0260
 7987TIP3    H123925   3.104   6.013   4.905 -0.2427 -0.1685  0.3648
 7987TIP3    H223926   3.036   6.083   5.022 -0.2076  0.4196  0.0383
 7988TIP3   OH223927   1.778   1.792   2.451  0.0839  0.2012  0.1015
 7988TIP3    H123928   1.777   1.698   2.429  0.7333 -0.2874  2.0011
 7988TIP3    H223929   1.860   1.805   2.499  0.8536  2.1455 -1.5927
 7989TIP3   OH223930   3.536   5.768   0.241 -0.0901  0.1652 -0.3931
 7989TIP3    H123931   3.607   5.832   0.253  0.1962 -0.2255  0.0488
 7989TIP3    H223932   3.459   5.810   0.278 -0.2679  0.8955 -1.5379
 7990TIP3   OH223933   5.268   0.199   1.701 -0.0334 -0.2990 -0.2810
 7990TIP3    H123934   5.350   0.246   1.713  0.0960 -0.6789  0.3639
 7990TIP3    H223935   5.217   0.219   1.779 -0.1584 -0.8563 -0.2133
 7991TIP3   OH223936   1.894   5.361   0.637 -0.3422  0.3709  0.4594
 7991TIP3    H123937   1.982   5.351   0.673 -0.0582  1.3329  0.0613
 7991TIP3    H223938   1.882   5.283   0.583 -0.2640 -0.4266  1.5539
 7992TIP3   OH223939   1.184   2.319   3.851 -0.6781  0.4446  0.2682
 7992TIP3    H123940   1.140   2.394   3.811  2.3774  1.7017 -1.0335
 7992TIP3    H223941   1.270   2.316   3.809 -0.1663 -3.0345  1.2298
 7993TIP3   OH223942   4.176   0.636   2.332 -0.2051 -0.2417 -0.4346
 7993TIP3    H123943   4.087   0.602   2.323 -0.1716 -0.6162  0.5190
 7993TIP3    H223944   4.192   0.637   2.426  0.8129 -0.2089 -0.5936
 7994TIP3   OH223945   3.209   4.944   5.547 -0.4466 -0.0402 -0.2453
 7994TIP3    H123946   3.212   4.852   5.523  0.2406 -0.5989  1.7858
 7994TIP3    H223947   3.170   4.988   5.471 -2.2345 -2.1930 -0.6540
 7995TIP3   OH223948   6.394   6.613   5.566  0.5220 -0.1452 -0.2301
 7995TIP3    H123949   6.477   6.654   5.590 -0.3360  0.8463  1.1639
 7995TIP3    H223950   6.354   6.675   5.505  0.8835 -0.7295 -1.0798
 7996TIP3   OH223951   2.522   4.504   4.919 -0.5069 -0.0922  0.5370
 7996TIP3    H123952   2.456   4.446   4.958 -1.2494  0.9626  0.9001
 7996TIP3    H223953   2.476   4.586   4.903  0.4281  0.2893 -0.3097
 7997TIP3   OH223954   0.927   6.586   1.924  0.2866  0.6207 -0.0786
 7997TIP3    H123955   0.981   6.622   1.853  0.8395  1.1083  0.5735
 7997TIP3    H223956   0.939   6.492   1.918 -1.0218  0.5056 -1.6994
 7998TIP3   OH223957   2.228   6.318   1.148 -0.1132  0.6886 -0.3473
 7998TIP3    H123958   2.310   6.292   1.189  0.6508  1.7614 -1.1368
 7998TIP3    H223959   2.196   6.238   1.105  0.3181  0.1809  0.2569
 7999TIP3   OH223960   2.243   1.027   1.691 -0.1368 -0.3182 -0.0129
 7999TIP3    H123961   2.332   1.058   1.711 -0.1754 -0.8549  1.0657
 7999TIP3    H223962   2.197   1.106   1.662  0.6280  0.0115 -0.3662
 8000TIP3   OH223963   3.870   5.103   5.750  0.0508  0.1963 -0.3432
 8000TIP3    H123964   3.916   5.040   5.805 -1.3033  0.2748  0.9397
 8000TIP3    H223965   3.887   5.188   5.790 -1.1915  0.2230  0.1747
 8001TIP3   OH223966   0.932   3.185   3.089 -0.7802 -0.0037 -0.2692
 8001TIP3    H123967   0.877   3.234   3.150  0.9593  1.5812  0.1241
 8001TIP3    H223968   1.019   3.223   3.099  0.0306 -1.1892 -2.1780
 8002TIP3   OH223969   2.865   6.669   1.307  0.5438  0.8705 -0.0240
 8002TIP3    H123970   2.805   6.714   1.247 -2.1724 -1.4135  0.7402
 8002TIP3    H223971   2.851   6.576   1.288  3.0541  0.1932  1.0444
 8003TIP3   OH223972   2.523   6.535   1.905  0.1529 -0.1565 -0.3394
 8003TIP3    H123973   2.541   6.603   1.970 -0.6533  0.8076 -1.0918
 8003TIP3    H223974   2.600   6.478   1.908  0.8285  0.7534  0.3589
 8004TIP3   OH223975   0.964   0.135   0.526 -0.3169  0.3733 -0.3055
 8004TIP3    H123976   0.934   0.224   0.506 -1.3128  0.2960  0.7342
 8004TIP3    H223977   0.883   0.086   0.542  0.2994 -0.1341  1.4383
 8005TIP3   OH223978   1.309   2.538   0.078  0.0798  0.1302 -0.0398
 8005TIP3    H123979   1.389   2.567   0.122 -0.0650 -0.6806  0.7847
 8005TIP3    H223980   1.308   2.587  -0.004  0.1964  1.9253  0.9707
 8006TIP3   OH223981   6.865   4.964   3.984 -0.4232 -0.0296 -0.2874
 8006TIP3    H123982   6.881   4.903   3.912 -0.5122 -0.7735  0.3059
 8006TIP3    H223983   6.834   4.908   4.056  0.6999  0.5381  0.6799
 8007TIP3   OH223984   3.278   5.984   1.632 -0.1753  0.1198 -0.0072
 8007TIP3    H123985   3.217   6.029   1.574 -0.2503 -0.7518 -0.6266
 8007TIP3    H223986   3.247   6.004   1.720 -2.2497 -1.4507 -0.2994
 8008TIP3   OH223987   2.888   4.157   5.850  0.1059  0.6711  0.5015
 8008TIP3    H123988   2.817   4.106   5.811 -0.9690  2.9612 -0.7459
 8008TIP3    H223989   2.968   4.114   5.819 -0.7364 -0.0687 -0.7730
 8009TIP3   OH223990   0.635   6.073   0.399  0.5059  0.7460 -0.1761
 8009TIP3    H123991   0.727   6.091   0.382  0.7029  0.3561  0.4203
 8009TIP3    H223992   0.598   6.053   0.313  1.3911 -0.8763 -0.2319
 8010TIP3   OH223993   7.148   5.729   0.753  0.8088 -0.1476  0.0132
 8010TIP3    H123994   7.149   5.636   0.728  1.6231 -0.1151 -0.1182
 8010TIP3    H223995   7.235   5.761   0.729  0.7855  0.4780  0.7228
 8011TIP3   OH223996   1.365   6.661   5.042  0.0953 -0.1831 -0.2647
 8011TIP3    H123997   1.450   6.619   5.026 -0.5110 -0.4559 -3.3691
 8011TIP3    H223998   1.354   6.722   4.970 -2.0447  0.4225  0.4936
 8012TIP3   OH223999   0.971   1.997   4.607 -0.1089 -0.2752 -0.4175
 8012TIP3    H124000   0.923   1.954   4.537 -1.4753 -0.1926  0.4284
 8012TIP3    H224001   0.993   1.927   4.669 -0.6589 -0.0689  0.0253
 8013TIP3   OH224002   6.382   2.048   0.913 -0.6119 -0.5131  0.2918
 8013TIP3    H124003   6.465   2.000   0.915 -1.3279 -2.2066 -3.1520
 8013TIP3    H224004   6.397   2.121   0.854 -1.5856 -0.9444 -0.5168
 8014TIP3   OH224005   3.678   2.821   4.368 -0.1515 -0.1726 -0.0925
 8014TIP3    H124006   3.752   2.784   4.320  0.0486 -0.6959  0.6052
 8014TIP3    H224007   3.715   2.851   4.451 -1.2544 -4.0130  2.0590
 8015TIP3   OH224008   2.121   2.665   0.419 -0.1879 -0.5145  1.1090
 8015TIP3    H124009   2.112   2.616   0.336 -1.3541 -0.5346  1.2305
 8015TIP3    H224010   2.074   2.747   0.403 -0.3196 -0.4732  1.7166
 8016TIP3   OH224011   7.161   4.088   1.268 -0.3910  0.4048 -0.5704
 8016TIP3    H124012   7.245   4.096   1.311 -0.0117 -0.4901 -1.1009
 8016TIP3    H224013   7.141   3.994   1.272 -1.8417  0.7216  0.4258
 8017TIP3   OH224014   6.229   4.116   1.964  0.0417 -0.0357  0.7524
 8017TIP3    H124015   6.230   4.047   1.897 -3.4724  0.7555 -0.3572
 8017TIP3    H224016   6.306   4.099   2.017  2.4530 -1.4068 -2.7863
 8018TIP3   OH224017   0.721   4.289   5.437 -0.7023  0.4836 -0.1738
 8018TIP3    H124018   0.746   4.242   5.357  1.3468  0.7647  0.2693
 8018TIP3    H224019   0.667   4.227   5.486 -0.4198 -0.3508 -0.9114
 8019TIP3   OH224020   1.592   3.594   4.063  0.0885 -0.1077  0.6681
 8019TIP3    H124021   1.628   3.522   4.114 -2.6820 -2.2718 -0.1821
 8019TIP3    H224022   1.642   3.592   3.981 -0.2446 -1.4048  0.4733
 8020TIP3   OH224023   6.221   4.160   3.783 -0.2006 -0.2493  0.0112
 8020TIP3    H124024   6.202   4.206   3.701 -1.5271  0.1739  0.5279
 8020TIP3    H224025   6.198   4.223   3.851 -1.3571 -1.4060  0.7307
 8021TIP3   OH224026   5.993   4.063   2.286  0.1753 -0.0605 -0.3252
 8021TIP3    H124027   6.064   4.127   2.279 -0.3126  0.3706 -1.3961
 8021TIP3    H224028   6.016   3.995   2.222  0.8171 -1.1088  0.9680
 8022TIP3   OH224029   0.810   1.802   2.398 -0.2813  0.2303  0.7925
 8022TIP3    H124030   0.784   1.811   2.306 -0.8385  1.1729  1.0330
 8022TIP3    H224031   0.872   1.730   2.398  0.9804  1.2692 -0.5743
 8023TIP3   OH224032   5.359   4.263   1.299 -0.3809 -0.3221  0.0968
 8023TIP3    H124033   5.324   4.200   1.235  0.1450 -0.4957 -0.0234
 8023TIP3    H224034   5.389   4.336   1.246  0.5568 -0.6998  0.0883
 8024TIP3   OH224035   5.175   1.118   2.329 -0.6905  0.1551 -0.1376
 8024TIP3    H124036   5.124   1.106   2.410  0.8013  0.2925  0.8605
 8024TIP3    H224037   5.188   1.212   2.322 -0.0810  0.0798 -0.0593
 8025TIP3   OH224038   0.338   4.967   2.287  0.1336  0.1715 -0.0006
 8025TIP3    H124039   0.298   4.965   2.374  1.1566 -1.2641  0.4765
 8025TIP3    H224040   0.272   4.927   2.230 -0.1044  0.0920  0.3229
 8026TIP3   OH224041   6.224   0.925   2.873  0.1731 -0.0548  0.8588
 8026TIP3    H124042   6.285   0.910   2.801 -0.1222 -3.6300  1.1615
 8026TIP3    H224043   6.138   0.926   2.832  0.1473  0.1797  0.9201
 8027TIP3   OH224044   0.106   2.911   1.570  0.1642 -0.1960  0.0103
 8027TIP3    H124045   0.192   2.952   1.564 -0.2205  0.8581  1.3580
 8027TIP3    H224046   0.125   2.818   1.584  1.0722  0.0263  0.3040
 8028TIP3   OH224047   6.707   4.507   1.735  0.8668 -0.0012  0.3759
 8028TIP3    H124048   6.677   4.449   1.805  1.3052  0.9453  1.3871
 8028TIP3    H224049   6.672   4.468   1.655  0.4841 -1.2077  1.0957
 8029TIP3   OH224050   0.498   3.603   3.956  0.9085 -0.1503 -0.0676
 8029TIP3    H124051   0.523   3.524   4.004  0.4232 -0.8605 -0.9276
 8029TIP3    H224052   0.487   3.670   4.022  0.5311 -1.0262  0.7825
 8030TIP3   OH224053   3.261   1.391   3.276  0.7800 -0.7116 -0.3366
 8030TIP3    H124054   3.175   1.432   3.264  1.1516  0.2163  0.0545
 8030TIP3    H224055   3.286   1.361   3.189  0.8471  0.6385 -0.8057
 8031TIP3   OH224056   4.558   0.166   1.683  0.0049 -0.4428  0.4920
 8031TIP3    H124057   4.578   0.208   1.767  0.4469  1.0300 -0.3199
 8031TIP3    H224058   4.477   0.207   1.654 -0.0908 -0.8745  0.1322
 8032TIP3   OH224059   6.038   0.242   5.234 -0.3559 -0.0525 -0.4376
 8032TIP3    H124060   5.942   0.243   5.229 -0.5634  0.7717  2.1510
 8032TIP3    H224061   6.060   0.311   5.297  1.9276 -0.4305 -0.7181
 8033TIP3   OH224062   6.648   3.706   3.116 -0.1457 -0.6816 -0.3558
 8033TIP3    H124063   6.653   3.668   3.028  1.1975 -2.4292  0.4413
 8033TIP3    H224064   6.718   3.664   3.165 -0.9111  0.2089  1.5992
 8034TIP3   OH224065   3.479   0.721   5.405  0.2985  0.7337 -0.4304
 8034TIP3    H124066   3.530   0.792   5.367 -2.2085  3.0538  0.2503
 8034TIP3    H224067   3.477   0.654   5.336  0.8899  2.2474 -1.9906
 8035TIP3   OH224068   2.782   4.563   1.064 -0.4525  0.1498 -0.4571
 8035TIP3    H124069   2.811   4.645   1.104 -1.5514 -0.2614  1.2953
 8035TIP3    H224070   2.848   4.499   1.090 -1.5905 -0.2974  1.5639
 8036TIP3   OH224071   3.463   3.609   4.026  0.0565 -0.6988 -0.4272
 8036TIP3    H124072   3.521   3.619   3.950 -0.3984 -0.4187 -0.7425
 8036TIP3    H224073   3.495   3.674   4.089 -0.3644 -0.0322 -0.8874
 8037TIP3   OH224074   6.719   2.588   5.490  0.3955  0.3172 -0.1611
 8037TIP3    H124075   6.706   2.662   5.550 -1.4843  0.2892 -0.4776
 8037TIP3    H224076   6.755   2.519   5.546  0.6656  0.9640  0.4871
 8038TIP3   OH224077   6.359   4.749   5.420 -0.2819 -0.6487  0.4587
 8038TIP3    H124078   6.452   4.729   5.414  0.1123  0.2481  2.6763
 8038TIP3    H224079   6.324   4.686   5.482 -1.1554 -0.8756 -0.2327
 8039TIP3   OH224080   0.431   1.244   2.453 -0.3405  0.3242 -0.1944
 8039TIP3    H124081   0.387   1.161   2.471  1.9135 -0.7257  0.8357
 8039TIP3    H224082   0.428   1.292   2.536  1.5369 -0.3385  0.3017
 8040TIP3   OH224083   1.929   2.208   4.688  0.8597 -0.4152  0.3964
 8040TIP3    H124084   1.869   2.135   4.703 -0.4537  0.7545  1.0848
 8040TIP3    H224085   2.004   2.168   4.644 -0.5312 -1.8892 -0.7721
 8041TIP3   OH224086   3.028   5.732   3.368  0.4093  0.0884 -0.8249
 8041TIP3    H124087   3.027   5.649   3.321 -0.2224 -1.0799  1.0892
 8041TIP3    H224088   3.117   5.740   3.402 -0.3528 -1.7956  2.0535
 8042TIP3   OH224089   2.845   5.242   5.216  0.6329  0.6363  0.4101
 8042TIP3    H124090   2.940   5.238   5.201  0.2785 -0.0704 -1.9383
 8042TIP3    H224091   2.818   5.151   5.226 -0.1134  0.6057 -1.4706
 8043TIP3   OH224092   0.915   3.410   0.471 -0.1567  0.3303 -0.0359
 8043TIP3    H124093   0.895   3.502   0.488 -0.9746  0.1970 -0.2813
 8043TIP3    H224094   0.837   3.363   0.498 -0.6945 -0.0892 -2.1539
 8044TIP3   OH224095   3.530   4.473   4.823 -0.0900  0.9841 -0.0724
 8044TIP3    H124096   3.545   4.387   4.861  0.2100  1.6080  1.2886
 8044TIP3    H224097   3.437   4.473   4.799  0.3072 -0.3505 -1.8535
 8045TIP3   OH224098   1.044   3.546   0.811 -0.0221 -0.0452  0.2037
 8045TIP3    H124099   1.095   3.578   0.737 -0.4755  0.4475  0.0977
 8045TIP3    H224100   0.953   3.559   0.785 -0.2858 -2.3424 -0.2608
 8046TIP3   OH224101   6.366   4.977   3.011 -0.0056 -0.2399 -0.5498
 8046TIP3    H124102   6.281   5.021   3.019  1.0147  1.5628  1.0798
 8046TIP3    H224103   6.344   4.884   3.003 -2.1016 -0.1196  2.2824
 8047TIP3   OH224104   2.026   0.018   3.300  0.0076 -0.0285  0.2240
 8047TIP3    H124105   1.951   0.077   3.305 -1.1118 -1.4576  0.8012
 8047TIP3    H224106   2.003  -0.055   3.356  1.0407 -1.3800 -1.0432
 8048TIP3   OH224107   4.733   1.912   3.457  0.7686  0.4692 -0.3288
 8048TIP3    H124108   4.731   1.892   3.363  0.9342 -0.4443 -0.1465
 8048TIP3    H224109   4.823   1.940   3.473  0.8787  0.1298 -0.3470
 8049TIP3   OH224110   4.495   0.531   1.539 -0.0728  0.2441  0.1427
 8049TIP3    H124111   4.584   0.503   1.562 -0.3281  0.1116  0.9874
 8049TIP3    H224112   4.454   0.452   1.503 -0.9755 -0.7497  3.0397
 8050TIP3   OH224113   1.318   1.554   0.045  0.2155  0.5610  0.2664
 8050TIP3    H124114   1.369   1.476   0.021 -1.3357  0.1500 -2.0143
 8050TIP3    H224115   1.306   1.601  -0.037 -1.0809  1.8440  1.1471
 8051TIP3   OH224116   4.803   5.706   1.820  0.7372 -0.2854 -0.4167
 8051TIP3    H124117   4.846   5.627   1.788 -0.4228 -0.6643 -1.1264
 8051TIP3    H224118   4.847   5.726   1.903  1.4167 -1.3455 -0.4995
 8052TIP3   OH224119   7.099   0.098   3.142 -0.2228 -0.0599  0.1672
 8052TIP3    H124120   7.149   0.135   3.215  0.1303  1.2001 -0.6693
 8052TIP3    H224121   7.016   0.146   3.144  0.5805  1.5106 -1.4736
 8053TIP3   OH224122   3.721   4.377   1.423 -0.4606 -0.4110  0.1404
 8053TIP3    H124123   3.682   4.319   1.357 -0.3375 -1.2573  0.7943
 8053TIP3    H224124   3.659   4.450   1.430 -0.0393  0.1710 -1.5543
 8054TIP3   OH224125   4.828   0.586   1.412 -0.4993 -0.1306 -0.7579
 8054TIP3    H124126   4.769   0.641   1.464 -1.4842 -1.0424 -0.8867
 8054TIP3    H224127   4.910   0.586   1.462  0.0441  2.6003 -1.4639
 8055TIP3   OH224128   3.531   1.765   0.871 -0.5385  0.0032 -0.1930
 8055TIP3    H124129   3.536   1.755   0.776  0.1798  0.6901 -0.2396
 8055TIP3    H224130   3.442   1.796   0.888 -0.4706  0.4887 -0.7030
 8056TIP3   OH224131   4.829   6.727   1.862  0.9881 -0.1229 -0.0403
 8056TIP3    H124132   4.761   6.718   1.928  2.7596 -0.8001  1.8265
 8056TIP3    H224133   4.860   6.817   1.872  0.1620  0.3009 -1.1372
 8057TIP3   OH224134   4.769   6.433   2.540  0.0286  0.3194  0.2504
 8057TIP3    H124135   4.858   6.466   2.544  0.1229  0.2411 -0.8747
 8057TIP3    H224136   4.771   6.353   2.594  0.9968 -0.4482 -0.8741
 8058TIP3   OH224137   5.161   3.873   4.249 -0.1942  0.6076  0.2100
 8058TIP3    H124138   5.130   3.955   4.210  0.4950  1.0502  0.5823
 8058TIP3    H224139   5.255   3.872   4.232 -0.3131 -0.5110 -0.5167
 8059TIP3   OH224140   4.575   2.195   2.895  0.3100  0.1091 -0.3812
 8059TIP3    H124141   4.499   2.243   2.862  1.5934  1.2614 -1.7934
 8059TIP3    H224142   4.621   2.258   2.949  0.6984 -0.3344 -0.1913
 8060TIP3   OH224143   1.259   2.109   0.799 -0.4146 -0.3610 -0.2497
 8060TIP3    H124144   1.196   2.045   0.767  0.8427 -1.2150 -1.0764
 8060TIP3    H224145   1.305   2.140   0.721  0.0055  0.4621  0.3040
 8061TIP3   OH224146   3.956   5.703   4.282 -0.2029  0.4119 -0.4988
 8061TIP3    H124147   4.047   5.677   4.287 -0.4282 -0.1156  1.9996
 8061TIP3    H224148   3.955   5.794   4.313 -0.3375  1.1539 -2.4696
 8062TIP3   OH224149   0.837   6.357   0.237  0.0385 -0.3856  0.2773
 8062TIP3    H124150   0.744   6.352   0.258 -0.0053 -1.3426 -0.0845
 8062TIP3    H224151   0.878   6.293   0.296  0.6523  0.9915  1.3849
 8063TIP3   OH224152   0.583   6.523   2.769  0.0537  0.5721 -0.0466
 8063TIP3    H124153   0.631   6.447   2.737  0.1509  0.1513  1.0726
 8063TIP3    H224154   0.648   6.572   2.820 -0.8349 -0.3721  2.0931
 8064TIP3   OH224155   6.985   5.149   1.710 -0.0038 -0.9275 -0.3850
 8064TIP3    H124156   6.933   5.075   1.741  1.5476 -1.7888  0.2117
 8064TIP3    H224157   7.015   5.193   1.790 -1.6076  0.9258 -0.6989
 8065TIP3   OH224158   6.818   5.625   4.025  0.7755 -0.3041  0.3092
 8065TIP3    H124159   6.894   5.677   3.997  0.2201  0.0736 -0.5568
 8065TIP3    H224160   6.849   5.535   4.024  0.8107 -0.3143 -1.5684
 8066TIP3   OH224161   3.112   0.493   0.969 -0.1387 -0.4502  0.1100
 8066TIP3    H124162   3.160   0.438   0.907 -0.1481 -1.1539  0.7114
 8066TIP3    H224163   3.179   0.546   1.011  0.0122 -0.7732  0.2861
 8067TIP3   OH224164   3.070   6.776   3.187 -0.3280 -0.1590  0.6473
 8067TIP3    H124165   3.022   6.782   3.270 -0.9701 -1.1406  0.3737
 8067TIP3    H224166   3.162   6.781   3.212 -0.5261  2.6830  1.1122
 8068TIP3   OH224167   0.816   0.485   3.241 -0.0991 -0.2258  0.8287
 8068TIP3    H124168   0.832   0.463   3.149  0.7960  1.5366  0.5146
 8068TIP3    H224169   0.721   0.487   3.249 -0.2607  2.0728 -0.7602
 8069TIP3   OH224170   1.921   4.185   2.806 -0.0695  0.2398  0.3557
 8069TIP3    H124171   1.971   4.203   2.726  1.0571 -0.3495  0.8920
 8069TIP3    H224172   1.870   4.107   2.785  1.4278 -0.8674  0.6843
 8070TIP3   OH224173   4.414   6.543   0.265 -0.0558  0.1886 -0.2813
 8070TIP3    H124174   4.360   6.572   0.191 -0.4880  0.1110 -0.0026
 8070TIP3    H224175   4.462   6.621   0.292  2.2301 -0.3834 -2.3888
 8071TIP3   OH224176   1.253   0.282   2.259 -0.7258 -0.0444 -0.1470
 8071TIP3    H124177   1.305   0.205   2.281 -1.6029 -0.6199 -0.0523
 8071TIP3    H224178   1.308   0.356   2.283 -0.7641 -0.6423  1.9181
 8072TIP3   OH224179   1.708   5.490   3.500 -0.4891 -0.4847 -0.5099
 8072TIP3    H124180   1.672   5.540   3.427 -1.0725  0.4210  0.3718
 8072TIP3    H224181   1.676   5.401   3.487  0.4561 -0.6279 -2.0321
 8073TIP3   OH224182   2.129   3.300   5.791 -0.0767  0.7855 -0.1010
 8073TIP3    H124183   2.065   3.279   5.723 -1.0471  0.5929  0.8327
 8073TIP3    H224184   2.170   3.216   5.811  0.3899  0.8868 -0.6145
 8074TIP3   OH224185   7.005   0.612   2.113 -0.4248 -0.4746 -0.9852
 8074TIP3    H124186   6.955   0.530   2.123 -0.6436 -0.1887  0.5524
 8074TIP3    H224187   6.945   0.680   2.143  1.3418 -0.2846  2.6792
 8075TIP3   OH224188   6.207   6.342   3.091 -0.8440  0.5182  0.4755
 8075TIP3    H124189   6.161   6.296   3.022 -0.6534  3.3002 -1.6829
 8075TIP3    H224190   6.139   6.365   3.154 -1.5200  0.2694 -0.1490
 8076TIP3   OH224191   3.842   5.956   4.832 -0.2039 -0.3106 -0.3467
 8076TIP3    H124192   3.881   5.889   4.889  1.2865 -0.1054 -1.0696
 8076TIP3    H224193   3.898   6.033   4.844 -0.2605 -0.0603 -1.5793
 8077TIP3   OH224194   3.019   2.068   1.321 -0.0397  0.0290 -0.3240
 8077TIP3    H124195   3.000   2.159   1.300  1.3378  0.5243  0.4365
 8077TIP3    H224196   3.015   2.022   1.237  0.1910  0.9726 -0.8635
 8078TIP3   OH224197   5.011   4.057   3.855  0.0109  0.0761  0.3735
 8078TIP3    H124198   5.018   4.104   3.939 -1.8221 -0.4783  0.8866
 8078TIP3    H224199   5.097   4.018   3.842  0.4109  0.3914  1.8771
 8079TIP3   OH224200   4.854   2.080   4.366 -0.3950  0.2044  0.3125
 8079TIP3    H124201   4.949   2.079   4.381 -0.3654  2.0169  0.5276
 8079TIP3    H224202   4.816   2.093   4.453 -0.9779 -2.2805  0.4837
 8080TIP3   OH224203   3.218   0.308   3.547  0.3665  0.2021  0.2440
 8080TIP3    H124204   3.138   0.358   3.560 -0.8199 -0.4732 -3.3028
 8080TIP3    H224205   3.287   0.374   3.537 -0.3139  0.9157  0.2063
 8081TIP3   OH224206   3.737   0.314   5.543 -0.1081  0.7250  0.7604
 8081TIP3    H124207   3.677   0.356   5.605  0.3588  2.0657  0.3273
 8081TIP3    H224208   3.699   0.332   5.457  0.0038  0.0713  0.5660
 8082TIP3   OH224209   4.380   3.721   5.338  0.0685 -0.2094 -0.7675
 8082TIP3    H124210   4.410   3.811   5.351  1.8263 -0.8690 -0.0319
 8082TIP3    H224211   4.415   3.673   5.413  0.5312 -1.8289 -1.9714
 8083TIP3   OH224212   6.896   3.818   4.614 -0.0853 -0.2711  0.8067
 8083TIP3    H124213   6.803   3.823   4.637  0.1339 -1.0100  1.9662
 8083TIP3    H224214   6.896   3.797   4.521 -1.1458 -1.9492  1.1294
 8084TIP3   OH224215   6.379   0.760   2.409  0.4191 -0.5800  0.9307
 8084TIP3    H124216   6.440   0.781   2.337 -0.3178 -0.7094  0.2537
 8084TIP3    H224217   6.362   0.666   2.399 -0.5784 -0.3686  0.5629
 8085TIP3   OH224218   4.398   3.258   1.209  0.0995  0.1724  0.2809
 8085TIP3    H124219   4.436   3.177   1.244 -1.8792 -1.2315 -0.6284
 8085TIP3    H224220   4.305   3.239   1.201 -0.4062  2.5541 -0.0324
 8086TIP3   OH224221   3.180   0.223   4.653  0.1464  0.4335 -0.1422
 8086TIP3    H124222   3.196   0.313   4.623  2.0937 -0.0314 -0.6823
 8086TIP3    H224223   3.154   0.176   4.573 -0.8254  0.4853  0.1318
 8087TIP3   OH224224   4.019   6.254   2.120 -0.2479  0.6838 -0.5536
 8087TIP3    H124225   3.990   6.303   2.043 -1.3347 -0.0642 -0.6461
 8087TIP3    H224226   4.094   6.203   2.088 -0.5933  0.4985 -1.0957
 8088TIP3   OH224227   3.650   4.046   5.167  0.0034 -0.1409 -0.1380
 8088TIP3    H124228   3.696   4.024   5.085 -1.3003 -0.0472 -0.9166
 8088TIP3    H224229   3.558   4.026   5.149 -0.4307  0.7269  1.0155
 8089TIP3   OH224230   3.048   5.833   2.027 -0.3411  0.1453 -0.1008
 8089TIP3    H124231   3.083   5.762   2.083 -1.6422 -1.0943 -0.7992
 8089TIP3    H224232   3.099   5.826   1.946  0.2683  0.7308  0.2225
 8090TIP3   OH224233   4.651   6.716   4.851  0.3114  0.5003 -0.0941
 8090TIP3    H124234   4.682   6.643   4.797 -0.7613  0.3551 -0.5366
 8090TIP3    H224235   4.654   6.792   4.793 -0.5175  0.4077 -0.2801
 8091TIP3   OH224236   5.245   1.076   2.730 -0.2925  0.0254  0.0584
 8091TIP3    H124237   5.292   1.102   2.809  0.2538 -1.0258  0.0917
 8091TIP3    H224238   5.301   1.105   2.658  0.4437 -1.2229  0.0978
 8092TIP3   OH224239   0.880   4.315   0.903 -0.1752  0.6825  0.5616
 8092TIP3    H124240   0.953   4.362   0.943  0.5598  1.1832 -1.2446
 8092TIP3    H224241   0.913   4.289   0.817 -1.5676 -0.6081  0.3822
 8093TIP3   OH224242   2.263   4.892   2.029 -0.0055 -0.4998  0.3900
 8093TIP3    H124243   2.239   4.806   2.064 -0.8261 -0.5613 -0.2980
 8093TIP3    H224244   2.225   4.893   1.941  3.1673 -0.9175 -1.1159
 8094TIP3   OH224245   2.019   6.016   3.060  0.0481  0.1739  0.3265
 8094TIP3    H124246   2.074   5.942   3.035 -1.0832 -1.1334  1.5479
 8094TIP3    H224247   2.040   6.030   3.153 -0.8717  0.3743  0.5078
 8095TIP3   OH224248   3.407   2.892   4.428  0.0954  0.1664  0.0319
 8095TIP3    H124249   3.415   2.958   4.359 -2.0979  1.7043  1.1394
 8095TIP3    H224250   3.498   2.866   4.447  0.9129  1.6870 -1.5383
 8096TIP3   OH224251   2.511   5.707   5.865 -0.2318  0.2715 -0.6068
 8096TIP3    H124252   2.546   5.620   5.887 -0.9057  0.1641  0.1147
 8096TIP3    H224253   2.419   5.702   5.890 -0.4178  1.0055 -1.1284
 8097TIP3   OH224254   2.455   0.703   3.059 -0.0194 -0.6699  0.3371
 8097TIP3    H124255   2.472   0.797   3.053 -1.8185 -0.2735  0.8999
 8097TIP3    H224256   2.531   0.668   3.106  0.2485  0.6274  0.9232
 8098TIP3   OH224257   3.774   1.095   3.657  0.7300 -0.0261  0.2560
 8098TIP3    H124258   3.684   1.071   3.680  0.3706  0.0268 -1.0273
 8098TIP3    H224259   3.826   1.019   3.684 -0.1329 -1.4426 -1.8294
 8099TIP3   OH224260   1.622   1.272   3.176 -0.7272  0.5660 -0.1082
 8099TIP3    H124261   1.591   1.344   3.122 -0.6522  0.1311 -0.7455
 8099TIP3    H224262   1.650   1.205   3.113 -0.9489 -0.0834  0.4702
 8100TIP3   OH224263   4.532   5.242   5.790 -0.1215  0.0375  0.6322
 8100TIP3    H124264   4.465   5.309   5.805 -0.9058 -0.9726  1.9506
 8100TIP3    H224265   4.579   5.237   5.873  1.1329  0.2229 -0.0519
 8101TIP3   OH224266   3.963   4.735   1.259 -0.4585  0.1476  0.5649
 8101TIP3    H124267   3.935   4.700   1.344  0.8725  2.5860  2.1312
 8101TIP3    H224268   4.057   4.718   1.255 -0.3504  0.8004 -0.0147
 8102TIP3   OH224269   5.841   1.369   1.903  0.5426  0.1579 -0.2115
 8102TIP3    H124270   5.883   1.292   1.943 -0.0809 -0.1370 -0.1098
 8102TIP3    H224271   5.813   1.422   1.978  0.0788 -0.0083 -0.2647
 8103TIP3   OH224272   6.395   3.432   0.455 -0.3032  0.5902 -0.1700
 8103TIP3    H124273   6.470   3.406   0.401  0.4818  2.4184 -0.0080
 8103TIP3    H224274   6.396   3.369   0.528  0.3575 -0.1237 -0.7706
 8104TIP3   OH224275   0.479   4.656   3.088 -0.2575 -0.1758  0.4576
 8104TIP3    H124276   0.405   4.705   3.051 -0.6315 -1.0128  0.0855
 8104TIP3    H224277   0.438   4.583   3.134  0.3577 -0.9685 -0.2298
 8105TIP3   OH224278   7.044   1.261   0.235  0.2088 -0.2849  0.3275
 8105TIP3    H124279   6.998   1.231   0.156 -0.9852 -2.0892  1.6361
 8105TIP3    H224280   7.045   1.185   0.293  2.3232  0.5751  1.5245
 8106TIP3   OH224281   2.725   0.068   4.798 -0.6490 -0.1485  0.1781
 8106TIP3    H124282   2.673   0.037   4.871 -1.3508 -0.3780 -0.4059
 8106TIP3    H224283   2.777  -0.008   4.771 -1.0300 -0.3099 -0.1068
 8107TIP3   OH224284   2.463   3.596   2.360 -0.6814  0.5068 -0.6187
 8107TIP3    H124285   2.543   3.619   2.407  0.0300 -0.6253 -1.2418
 8107TIP3    H224286   2.392   3.620   2.420  0.1767 -0.3292  0.7738
 8108TIP3   OH224287   5.806   6.306   4.634  0.4461 -0.3493 -0.0626
 8108TIP3    H124288   5.780   6.397   4.619  0.9023  0.0545  1.4321
 8108TIP3    H224289   5.749   6.255   4.577 -2.7859  0.5689  2.0568
 8109TIP3   OH224290   6.220   5.479   4.116 -0.9716 -0.2830 -0.5476
 8109TIP3    H124291   6.189   5.464   4.205 -1.5470  0.7442 -0.5648
 8109TIP3    H224292   6.278   5.555   4.123 -1.8416  0.4686 -1.1930
 8110TIP3   OH224293   6.191   1.277   0.300  0.3045  0.2568 -0.0712
 8110TIP3    H124294   6.185   1.372   0.297  0.1406  0.2429 -0.1946
 8110TIP3    H224295   6.285   1.259   0.299  0.3684  0.4462  0.9435
 8111TIP3   OH224296   6.103   4.228   4.380 -0.0069 -0.4580 -0.1668
 8111TIP3    H124297   6.187   4.269   4.400 -0.2764 -0.1403  0.3209
 8111TIP3    H224298   6.061   4.287   4.318  0.4187 -0.9642 -0.9553
 8112TIP3   OH224299   6.937   0.878   3.039  0.0195 -0.1508  0.0555
 8112TIP3    H124300   6.996   0.917   3.103  1.7149 -2.0284 -0.2830
 8112TIP3    H224301   6.956   0.924   2.957  0.6008 -0.3374  0.0809
 8113TIP3   OH224302   1.367   2.239   0.104 -0.0006 -0.3186 -0.5550
 8113TIP3    H124303   1.369   2.182   0.027 -2.0033 -2.6879  0.9629
 8113TIP3    H224304   1.305   2.309   0.081 -0.8614 -1.2111 -1.0081
 8114TIP3   OH224305   2.356   2.284   2.991  0.2232  0.0959 -0.1671
 8114TIP3    H124306   2.377   2.314   2.902  1.6339 -1.1485 -0.3018
 8114TIP3    H224307   2.260   2.287   2.995  0.1403  0.4439 -1.6334
 8115TIP3   OH224308   2.215   4.530   1.409 -0.0178 -0.4726  0.5445
 8115TIP3    H124309   2.169   4.590   1.468  0.3844 -0.6535  1.0529
 8115TIP3    H224310   2.304   4.526   1.444  0.5346  0.2326 -0.6813
 8116TIP3   OH224311   1.799   3.899   4.004 -0.6104 -0.2483  0.5674
 8116TIP3    H124312   1.832   3.822   3.959  1.2013 -0.4477  2.0783
 8116TIP3    H224313   1.747   3.865   4.077 -2.4601  0.0488 -0.5567
 8117TIP3   OH224314   1.993   4.537   1.686  0.2752 -0.0820  0.2200
 8117TIP3    H124315   2.071   4.560   1.736  0.8125 -1.4509  0.0567
 8117TIP3    H224316   1.920   4.570   1.738  0.9037 -0.0155  1.0699
 8118TIP3   OH224317   5.888   0.136   4.491  0.2669 -0.1848 -0.2974
 8118TIP3    H124318   5.902   0.049   4.528 -3.0623 -1.4258 -1.6377
 8118TIP3    H224319   5.833   0.181   4.555 -0.6911 -0.2470 -1.0647
 8119TIP3   OH224320   0.875   0.459   3.504 -0.1584 -0.2723 -0.4416
 8119TIP3    H124321   0.856   0.484   3.414 -0.9879  0.0836 -0.1836
 8119TIP3    H224322   0.868   0.363   3.504 -1.1331 -0.2104 -0.5570
 8120TIP3   OH224323   6.393   1.458   1.633  0.0772  0.1040 -0.0218
 8120TIP3    H124324   6.323   1.460   1.698  0.8881  0.3223  0.8642
 8120TIP3    H224325   6.450   1.387   1.661  0.7860  0.6226 -0.1052
 8121TIP3   OH224326   4.699   6.077   3.490 -0.4140  0.6677 -0.1663
 8121TIP3    H124327   4.740   6.040   3.411 -0.8907 -0.9376  0.2889
 8121TIP3    H224328   4.772   6.106   3.544  0.0420 -0.1868 -0.2966
 8122TIP3   OH224329   0.472   2.568   2.681  1.0913 -0.1785 -0.3005
 8122TIP3    H124330   0.545   2.516   2.646 -0.1382 -1.0372 -1.7403
 8122TIP3    H224331   0.419   2.589   2.604 -0.7095 -0.4268  0.8067
 8123TIP3   OH224332   2.072   0.910   4.660  0.7445 -0.4600  0.1171
 8123TIP3    H124333   2.130   0.967   4.712  0.4735  1.3981 -1.4889
 8123TIP3    H224334   1.984   0.933   4.690  0.6623 -0.4483 -0.1308
 8124TIP3   OH224335   4.288   4.128   1.304 -0.6756  0.0039  0.8975
 8124TIP3    H124336   4.279   4.048   1.252 -0.9338  0.9921 -0.6254
 8124TIP3    H224337   4.327   4.098   1.386  0.6819 -1.4733 -0.2181
 8125TIP3   OH224338   0.802   1.858   4.419 -0.3625 -0.3782 -0.0598
 8125TIP3    H124339   0.820   1.768   4.391  0.2399 -0.8150  1.5998
 8125TIP3    H224340   0.710   1.871   4.398 -0.2144 -1.0089 -1.2437
 8126TIP3   OH224341   6.469   3.785   0.989  0.1676  0.0665 -0.1095
 8126TIP3    H124342   6.419   3.857   1.028  1.8028  1.2815 -0.1404
 8126TIP3    H224343   6.540   3.828   0.942  0.6571 -1.5544 -0.9281
 8127TIP3   OH224344   4.581   3.514   2.597  0.2165 -0.3930 -0.1285
 8127TIP3    H124345   4.651   3.571   2.566  1.1512 -1.9271 -0.9910
 8127TIP3    H224346   4.522   3.505   2.522  0.4805 -1.1443 -0.2524
 8128TIP3   OH224347   4.004   1.590   0.716 -0.4916 -0.0961  0.1621
 8128TIP3    H124348   4.021   1.498   0.736 -1.6677 -0.6619 -1.2466
 8128TIP3    H224349   3.976   1.627   0.800  2.1103 -0.4203  1.2620
 8129TIP3   OH224350   2.521   1.493   2.211  0.1919  0.4900 -0.0680
 8129TIP3    H124351   2.508   1.488   2.116  2.8893 -0.2714 -0.4815
 8129TIP3    H224352   2.546   1.584   2.226  1.5524  0.1908 -0.4021
 8130TIP3   OH224353   3.828   6.525   3.777 -0.2422 -0.5530 -0.2258
 8130TIP3    H124354   3.862   6.510   3.689 -0.6200  0.2420 -0.5176
 8130TIP3    H224355   3.892   6.583   3.818 -0.9160  0.4745 -0.5793
 8131TIP3   OH224356   1.690   3.363   1.372 -0.1835  0.3865  0.0666
 8131TIP3    H124357   1.703   3.277   1.411  0.0260  0.3201 -0.1524
 8131TIP3    H224358   1.766   3.377   1.316 -1.0697 -0.0617 -1.3217
 8132TIP3   OH224359   2.948   0.725   4.873 -0.3514  0.3191  0.2072
 8132TIP3    H124360   3.016   0.658   4.880 -0.6685  0.1205  1.9720
 8132TIP3    H224361   2.876   0.682   4.828 -0.0667 -0.1292  0.1772
 8133TIP3   OH224362   2.718   5.841   5.776  0.6321  0.1326 -0.0998
 8133TIP3    H124363   2.647   5.779   5.790  1.5016 -1.3706 -1.9394
 8133TIP3    H224364   2.696   5.916   5.832 -1.4369 -1.0178  0.7296
 8134TIP3   OH224365   6.178   2.591   5.209  0.6548  0.9502 -0.1635
 8134TIP3    H124366   6.191   2.620   5.300  1.7282  4.3239 -1.2753
 8134TIP3    H224367   6.105   2.643   5.177  0.5289  0.0704 -1.3729
 8135TIP3   OH224368   3.529   6.557   3.358  0.2156  0.0698  0.1621
 8135TIP3    H124369   3.540   6.603   3.441  1.4271 -1.8069  1.1138
 8135TIP3    H224370   3.441   6.519   3.363 -0.1510  0.8845  0.0713
 8136TIP3   OH224371   6.941   4.778   3.805  0.1321 -0.0854 -0.0938
 8136TIP3    H124372   6.945   4.690   3.843 -0.8931  0.5830  1.7131
 8136TIP3    H224373   6.957   4.765   3.712  1.7751 -1.9747  0.3701
 8137TIP3   OH224374   1.502   3.442   2.346  0.9528 -0.6084 -0.3847
 8137TIP3    H124375   1.546   3.518   2.386  1.2744 -0.6577 -0.6409
 8137TIP3    H224376   1.535   3.367   2.395 -0.8825 -0.4281  1.2081
 8138TIP3   OH224377   2.315   2.935   5.257  0.2314 -0.3141 -0.1445
 8138TIP3    H124378   2.389   2.950   5.198 -0.1207 -0.3560 -0.6059
 8138TIP3    H224379   2.351   2.948   5.345  0.5971  0.4520 -0.3944
 8139TIP3   OH224380   4.101   1.509   3.889 -0.5938 -0.4966 -0.1387
 8139TIP3    H124381   4.071   1.421   3.866 -1.8950 -0.4007  1.0505
 8139TIP3    H224382   4.179   1.495   3.942 -1.3181 -0.9979  0.8219
 8140TIP3   OH224383   0.130   5.126   0.939  0.0317  0.3269  0.2761
 8140TIP3    H124384   0.174   5.134   1.024 -1.4969  0.4266  1.0835
 8140TIP3    H224385   0.125   5.031   0.924 -0.5085  0.2734  0.7517
 8141TIP3   OH224386   3.222   5.364   0.383 -0.4671  0.1824  0.4402
 8141TIP3    H124387   3.190   5.305   0.451 -0.7710 -1.0692 -0.7284
 8141TIP3    H224388   3.317   5.362   0.392 -0.5124  0.1293  0.9143
 8142TIP3   OH224389   1.661   2.697   3.714  0.5578  0.0548  0.1137
 8142TIP3    H124390   1.667   2.602   3.724  0.3347 -0.1065 -1.1504
 8142TIP3    H224391   1.613   2.709   3.632 -1.2727  1.2705  1.3038
 8143TIP3   OH224392   6.978   3.395   1.218 -0.4728  0.4923 -0.5278
 8143TIP3    H124393   7.036   3.393   1.293 -0.8100 -1.9461 -0.2478
 8143TIP3    H224394   7.032   3.428   1.146  0.8498 -0.2779  0.0692
 8144TIP3   OH224395   6.787   5.134   5.539  0.7826  0.2170  0.0012
 8144TIP3    H124396   6.865   5.188   5.529 -0.1040  1.1968 -2.4775
 8144TIP3    H224397   6.810   5.051   5.496  0.0971  1.0118 -2.0491
 8145TIP3   OH224398   1.312   5.954   4.323 -0.2592 -0.3462 -0.4193
 8145TIP3    H124399   1.255   5.904   4.264  0.5495  0.1819 -1.7035
 8145TIP3    H224400   1.264   6.034   4.342 -0.7404 -0.7472  0.0535
 8146TIP3   OH224401   3.046   3.416   5.051 -0.0932  0.1875  0.1467
 8146TIP3    H124402   2.991   3.384   4.980 -0.7636  2.6323 -0.5499
 8146TIP3    H224403   3.136   3.395   5.024 -0.4081  0.2409 -0.9864
 8147TIP3   OH224404   5.040   1.504   2.376 -0.1746  0.2954  0.1334
 8147TIP3    H124405   4.990   1.423   2.382  0.0220  0.0487 -1.1545
 8147TIP3    H224406   5.131   1.476   2.366  0.0644  0.7138  1.0185
 8148TIP3   OH224407   5.073   2.423   4.519  0.2113  0.3099 -0.4417
 8148TIP3    H124408   5.119   2.339   4.513 -0.5903 -0.1362 -0.4165
 8148TIP3    H224409   5.116   2.467   4.593  1.3646  0.3958 -1.1346
 8149TIP3   OH224410   0.563   3.212   2.471 -0.2988  0.1399 -0.3843
 8149TIP3    H124411   0.541   3.198   2.378  0.4046 -0.1180 -0.5216
 8149TIP3    H224412   0.654   3.242   2.469 -0.7330  1.5314  0.1393
 8150TIP3   OH224413   2.530   5.348   4.393 -0.1016  0.0720  0.4482
 8150TIP3    H124414   2.486   5.266   4.373  1.7674 -1.0408  0.6148
 8150TIP3    H224415   2.507   5.367   4.484 -0.5418 -0.2677  0.4060
 8151TIP3   OH224416   2.918   5.128   0.288  0.0414 -0.1151 -0.5650
 8151TIP3    H124417   2.880   5.070   0.354  1.0970 -0.4840 -0.2602
 8151TIP3    H224418   2.933   5.071   0.212  0.8653 -0.2180 -0.3445
 8152TIP3   OH224419   1.017   5.099   5.475  0.0547  0.0257  0.0042
 8152TIP3    H124420   0.971   5.082   5.557 -0.8072  2.5284  0.1181
 8152TIP3    H224421   1.028   5.194   5.473  1.7813 -0.1495 -1.8887
 8153TIP3   OH224422   0.315   1.021   2.568 -0.7673  0.2231 -0.5528
 8153TIP3    H124423   0.260   0.996   2.642  1.0698 -1.4283  0.3549
 8153TIP3    H224424   0.295   0.955   2.501  0.1707 -0.4662 -0.1680
 8154TIP3   OH224425   1.282   3.381   5.264 -0.1482 -0.2105 -0.0420
 8154TIP3    H124426   1.220   3.311   5.283 -1.2677  0.9477  0.7480
 8154TIP3    H224427   1.229   3.461   5.261  1.3936  0.9620  1.5088
 8155TIP3   OH224428   2.998   5.585   2.442 -0.5422 -0.4447 -0.0320
 8155TIP3    H124429   2.998   5.492   2.421 -1.9975 -0.1762 -1.4597
 8155TIP3    H224430   2.907   5.612   2.432 -0.0159  1.3098 -0.5680
 8156TIP3   OH224431   1.360   1.050   2.714  0.2919  0.3323  0.0910
 8156TIP3    H124432   1.456   1.053   2.711  0.3469  1.7435  1.4984
 8156TIP3    H224433   1.332   1.118   2.652  0.1923 -0.2745 -0.5300
 8157TIP3   OH224434   2.162   5.380   3.118  0.5453  0.1361  0.4839
 8157TIP3    H124435   2.090   5.391   3.056  1.5609  1.5865 -0.4795
 8157TIP3    H224436   2.118   5.373   3.204 -0.7167  2.6590  0.1304
 8158TIP3   OH224437   1.605   0.780   4.320 -0.4081 -0.7167  0.6031
 8158TIP3    H124438   1.676   0.817   4.372  0.0590 -0.7375 -0.0092
 8158TIP3    H224439   1.595   0.691   4.352 -0.8177 -0.4119  1.3486
 8159TIP3   OH224440   1.135   5.883   4.657  0.2911  0.1924 -0.0944
 8159TIP3    H124441   1.109   5.800   4.696 -2.9982  0.6026 -1.0764
 8159TIP3    H224442   1.095   5.949   4.714 -0.4894  0.9155 -1.4108
 8160TIP3   OH224443   5.962   5.135   2.142  0.3875 -0.0748 -0.2542
 8160TIP3    H124444   5.892   5.104   2.199  1.3037 -1.1807  0.3300
 8160TIP3    H224445   5.976   5.226   2.169 -0.8181  0.1704 -0.4006
 8161TIP3   OH224446   2.637   2.264   1.439 -0.1097 -0.0759 -0.1071
 8161TIP3    H124447   2.691   2.215   1.378 -0.2396  1.1453 -1.2340
 8161TIP3    H224448   2.686   2.263   1.521  1.3433  0.4953 -0.9402
 8162TIP3   OH224449   6.410   3.553   1.522 -0.1761  0.2882 -0.2277
 8162TIP3    H124450   6.350   3.627   1.533  0.9669  1.5734 -2.0755
 8162TIP3    H224451   6.380   3.488   1.586 -1.4674  2.1702  1.1941
 8163TIP3   OH224452   0.875   5.268   1.137  0.8425 -0.0746  0.2007
 8163TIP3    H124453   0.907   5.355   1.159 -0.8016  0.6403 -0.1203
 8163TIP3    H224454   0.831   5.279   1.053 -0.8384 -0.8299  0.9362
 8164TIP3   OH224455   6.571   0.145   4.431  0.2804 -0.1425  0.1343
 8164TIP3    H124456   6.570   0.053   4.406 -0.1931  0.2394 -1.3314
 8164TIP3    H224457   6.518   0.189   4.365 -0.8517  0.9681  1.6893
 8165TIP3   OH224458   5.929   6.657   2.038 -0.1747  0.1225 -0.4472
 8165TIP3    H124459   6.005   6.652   1.980 -0.7641  1.3284 -1.3594
 8165TIP3    H224460   5.854   6.650   1.979 -0.7911 -0.5224  0.3877
 8166TIP3   OH224461   5.955   3.025   0.916  0.0729  0.6508  0.3965
 8166TIP3    H124462   5.886   3.062   0.862 -0.6280  1.5212  1.8465
 8166TIP3    H224463   5.913   3.006   1.000  1.1961 -0.4142  0.7587
 8167TIP3   OH224464   2.111   1.069   2.810  0.1597 -0.5499 -0.2297
 8167TIP3    H124465   2.090   0.996   2.752 -1.0655  0.0446 -0.5749
 8167TIP3    H224466   2.149   1.135   2.752  2.2086 -1.2440  0.2362
 8168TIP3   OH224467   1.605   3.254   4.561 -0.2616 -0.1507 -0.1633
 8168TIP3    H124468   1.698   3.277   4.565 -0.3479  0.2424 -0.3827
 8168TIP3    H224469   1.595   3.184   4.626 -0.3468  1.5809  1.7915
 8169TIP3   OH224470   7.076   0.318   5.292 -0.5731  0.3596 -0.4012
 8169TIP3    H124471   7.071   0.228   5.323 -3.3958  0.0084 -1.5956
 8169TIP3    H224472   7.050   0.313   5.200 -0.9853  2.4173 -0.4459
 8170TIP3   OH224473   0.736   3.985   2.301  0.1935  0.0201  0.3622
 8170TIP3    H124474   0.750   3.987   2.396  0.5213 -1.5779  0.3710
 8170TIP3    H224475   0.817   3.948   2.265  0.3584  1.2651 -0.6249
 8171TIP3   OH224476   0.787   0.623   3.701 -0.2250 -0.0416 -0.2731
 8171TIP3    H124477   0.830   0.577   3.629 -0.3873 -0.2836 -0.2148
 8171TIP3    H224478   0.852   0.688   3.730 -0.3242  0.3539 -0.9241
 8172TIP3   OH224479   1.265   4.525   1.160 -0.0503 -0.2260 -0.2452
 8172TIP3    H124480   1.320   4.598   1.130 -0.7542  0.6002  0.4497
 8172TIP3    H224481   1.316   4.485   1.231 -0.6822  1.0897  1.0124
 8173TIP3   OH224482   3.166   3.960   3.569  0.0893  0.5430  0.3077
 8173TIP3    H124483   3.121   4.040   3.542  0.1593  0.5235  0.1298
 8173TIP3    H224484   3.097   3.904   3.606 -0.0125  0.5592  0.1407
 8174TIP3   OH224485   6.432   1.861   3.996  0.1856 -0.0419  0.1590
 8174TIP3    H124486   6.404   1.953   3.997 -0.8202 -0.2197 -2.5641
 8174TIP3    H224487   6.392   1.823   4.075  0.3180  1.7487  1.1330
 8175TIP3   OH224488   4.457   1.578   2.936  0.0793  0.0372 -0.3650
 8175TIP3    H124489   4.496   1.524   3.006  0.1450 -0.2623 -0.6298
 8175TIP3    H224490   4.399   1.518   2.889 -1.1358  0.6104  0.3598
 8176TIP3   OH224491   3.079   2.856   3.391 -0.6571 -0.3079  0.2918
 8176TIP3    H124492   3.045   2.875   3.304 -0.7860  0.8767  0.5838
 8176TIP3    H224493   3.034   2.919   3.448 -0.1762 -0.7127  1.1328
 8177TIP3   OH224494   0.296   3.167   3.797  1.0844  1.0542 -0.3141
 8177TIP3    H124495   0.288   3.232   3.727  1.6185  0.9188 -0.5049
 8177TIP3    H224496   0.337   3.091   3.755 -1.1674 -0.1302 -0.5511
 8178TIP3   OH224497   5.741   0.637   4.576 -0.6051  0.1921  0.2082
 8178TIP3    H124498   5.716   0.619   4.485  2.3410 -3.1348 -0.1802
 8178TIP3    H224499   5.825   0.683   4.569 -0.0750 -0.5851  1.2326
 8179TIP3   OH224500   2.527   6.445   2.921 -0.4912  0.2677  0.2184
 8179TIP3    H124501   2.476   6.429   3.000 -0.2579 -0.7126  0.1755
 8179TIP3    H224502   2.560   6.359   2.895  1.8108  0.9280  0.6742
 8180TIP3   OH224503   3.131   6.014   5.187 -0.0387 -0.6294 -0.4025
 8180TIP3    H124504   3.119   6.031   5.281  3.5000 -1.4780  0.3284
 8180TIP3    H224505   3.096   5.926   5.174  0.1115 -0.7908  0.2629
 8181TIP3   OH224506   1.712   5.355   1.572 -0.2824 -0.1170 -0.2770
 8181TIP3    H124507   1.717   5.447   1.545 -0.5513 -0.1436 -0.4222
 8181TIP3    H224508   1.803   5.330   1.591 -0.2883  0.3649  0.3944
 8182TIP3   OH224509   7.105   4.400   1.329 -1.4310  0.0978  0.7164
 8182TIP3    H124510   7.028   4.351   1.302 -1.7362  0.8711  0.1599
 8182TIP3    H224511   7.083   4.492   1.312 -0.1045  0.2742 -0.1757
 8183TIP3   OH224512   5.383   5.614   2.349 -0.3316  0.3880 -0.6026
 8183TIP3    H124513   5.319   5.672   2.389  0.1968  0.0788  0.7368
 8183TIP3    H224514   5.356   5.526   2.376  0.3962  0.2242 -0.3960
 8184TIP3   OH224515   3.585   2.470   5.589 -0.3162  0.4615 -0.0533
 8184TIP3    H124516   3.533   2.531   5.641  0.1416  2.4678 -1.7643
 8184TIP3    H224517   3.520   2.420   5.539 -0.7248  1.9772 -1.1383
 8185TIP3   OH224518   0.435   2.278   3.399  0.7734  0.2457 -0.2247
 8185TIP3    H124519   0.462   2.335   3.471 -1.1926  0.8602  0.0588
 8185TIP3    H224520   0.379   2.332   3.344 -1.6359 -1.4760  0.3681
 8186TIP3   OH224521   2.789   4.896   1.896  0.2652  0.3590  0.0045
 8186TIP3    H124522   2.743   4.972   1.860 -0.3203  0.3997  0.8191
 8186TIP3    H224523   2.759   4.823   1.841 -1.3572  0.2620  0.9394
 8187TIP3   OH224524   4.881   1.627   2.724  0.4317 -0.7359  0.2542
 8187TIP3    H124525   4.788   1.648   2.738  0.6340 -0.1534  0.7390
 8187TIP3    H224526   4.889   1.537   2.755  0.2896 -0.3687  1.4173
 8188TIP3   OH224527   4.717   2.434   2.235  0.1939  0.4684  0.1399
 8188TIP3    H124528   4.737   2.511   2.182 -0.6455 -0.0528 -0.9778
 8188TIP3    H224529   4.688   2.368   2.172  2.0425 -1.1981  0.9232
 8189TIP3   OH224530   0.220   5.009   5.056 -0.4775 -0.2983  0.2770
 8189TIP3    H124531   0.166   4.949   5.108  0.1264 -2.6914 -1.6796
 8189TIP3    H224532   0.194   4.993   4.965  1.0153  1.1205 -0.4630
 8190TIP3   OH224533   6.944   4.923   5.427 -0.1241  0.0161  0.0450
 8190TIP3    H124534   6.968   4.852   5.486 -2.1507  0.6355  1.7209
 8190TIP3    H224535   7.027   4.967   5.408  0.9387 -1.7931  0.2455
 8191TIP3   OH224536   6.789   6.383   4.589  0.7265  0.3716  0.2462
 8191TIP3    H124537   6.750   6.395   4.502  0.4746 -0.3232  0.2518
 8191TIP3    H224538   6.767   6.292   4.612  0.6360  0.6026  1.1090
 8192TIP3   OH224539   1.771   6.389   2.737 -0.0064 -0.2645  0.5452
 8192TIP3    H124540   1.722   6.308   2.747 -1.0605  0.4645  1.5239
 8192TIP3    H224541   1.862   6.364   2.752 -0.2305 -1.3677  0.1815
 8193TIP3   OH224542   2.144   0.758   3.008 -0.3863  0.0397 -0.5037
 8193TIP3    H124543   2.113   0.696   2.941 -0.7499  1.1986 -1.4427
 8193TIP3    H224544   2.217   0.713   3.050 -1.9711 -1.9153  0.3473
 8194TIP3   OH224545   4.048   5.414   5.118  0.4099  0.0408 -0.0944
 8194TIP3    H124546   4.102   5.338   5.141 -1.3668 -1.4189 -0.3991
 8194TIP3    H224547   4.025   5.400   5.026 -2.9104 -1.1463  0.7626
 8195TIP3   OH224548   0.255   0.287   5.243 -0.1038 -0.1017  0.3428
 8195TIP3    H124549   0.282   0.199   5.271 -0.0596  0.0908  0.9189
 8195TIP3    H224550   0.197   0.271   5.169 -0.8568 -0.6826  1.0319
 8196TIP3   OH224551   3.999   3.943   2.383 -0.0795 -0.3327  0.2922
 8196TIP3    H124552   4.063   3.921   2.451 -0.8222  0.4694  1.2910
 8196TIP3    H224553   4.015   4.036   2.366 -1.0099 -0.1129  0.5948
 8197TIP3   OH224554   2.136   5.186   0.556  0.6307  0.4853 -0.4066
 8197TIP3    H124555   2.046   5.166   0.527 -0.3153  0.6275  2.1566
 8197TIP3    H224556   2.186   5.107   0.534 -0.7648 -0.7211  0.5425
 8198TIP3   OH224557   3.912   0.236   1.402  0.4180  0.0876 -0.2186
 8198TIP3    H124558   3.949   0.174   1.339  1.1447 -1.4892  1.6551
 8198TIP3    H224559   3.971   0.312   1.397  0.2436  0.1625 -1.6663
 8199TIP3   OH224560   5.692   6.634   3.046  0.8310 -0.1675  0.0327
 8199TIP3    H124561   5.665   6.556   2.998  1.1667 -0.6848  0.6674
 8199TIP3    H224562   5.731   6.691   2.980 -0.9969  0.2377 -0.7599
 8200TIP3   OH224563   4.985   4.833   5.841 -0.7632 -0.0166  0.1986
 8200TIP3    H124564   4.911   4.784   5.877 -0.9701 -0.4289 -0.7464
 8200TIP3    H224565   5.055   4.822   5.905 -1.2524 -0.3603  0.6815
 8201TIP3   OH224566   3.197   1.920   3.817 -1.0188 -0.1463 -0.0852
 8201TIP3    H124567   3.230   1.986   3.879  0.6457 -0.0037 -1.0805
 8201TIP3    H224568   3.276   1.880   3.780 -1.9639 -3.0034  0.7585
 8202TIP3   OH224569   3.853   6.281   3.866 -0.1534 -0.4854  0.1014
 8202TIP3    H124570   3.848   6.364   3.818  2.2418 -0.2792  0.0784
 8202TIP3    H224571   3.776   6.232   3.838 -1.8282  1.8263  0.3571
 8203TIP3   OH224572   4.150   1.794   5.178  0.3783  0.0678  0.1224
 8203TIP3    H124573   4.104   1.846   5.113  0.5947  0.4239  0.2528
 8203TIP3    H224574   4.229   1.844   5.198  1.1333 -0.8277 -0.5411
 8204TIP3   OH224575   3.962   0.751   0.093  0.0626  0.6579  0.4137
 8204TIP3    H124576   3.893   0.732   0.157 -0.4663  0.4356 -0.2136
 8204TIP3    H224577   3.986   0.666   0.057  1.5066  0.5849  1.4537
 8205TIP3   OH224578   0.110   4.836   1.835 -0.0589  0.1741 -0.3025
 8205TIP3    H124579   0.168   4.902   1.796  0.5446 -0.2301 -0.1073
 8205TIP3    H224580   0.073   4.789   1.760 -0.4058  0.6613 -0.4391
 8206TIP3   OH224581   1.117   1.187   4.437  0.3198 -0.5781  0.3052
 8206TIP3    H124582   1.142   1.231   4.518 -0.1670  0.7983 -0.2482
 8206TIP3    H224583   1.048   1.126   4.462 -0.7844  0.8041  0.7519
 8207TIP3   OH224584   2.236   2.462   5.000  0.1046 -0.0699  0.2426
 8207TIP3    H124585   2.319   2.491   4.961 -0.5976 -0.3311 -1.5223
 8207TIP3    H224586   2.169   2.507   4.948 -0.8829  0.1829  1.6835
 8208TIP3   OH224587   0.741   0.923   5.756  0.3163 -0.5535 -0.1414
 8208TIP3    H124588   0.765   0.990   5.820  0.3028  0.2866 -1.0115
 8208TIP3    H224589   0.702   0.970   5.683  0.3079 -1.4994 -0.7760
 8209TIP3   OH224590   3.292   4.613   4.460 -0.3278 -0.2604  0.3203
 8209TIP3    H124591   3.374   4.580   4.424  0.3114  0.4898  1.0444
 8209TIP3    H224592   3.229   4.542   4.448 -0.4480  0.2717 -3.1571
 8210TIP3   OH224593   6.903   4.502   4.895  0.1995 -0.5711  0.1048
 8210TIP3    H124594   6.971   4.554   4.937 -0.1576 -0.2322  0.2622
 8210TIP3    H224595   6.822   4.551   4.908  0.1305 -0.2725 -1.2983
 8211TIP3   OH224596   6.251   0.666   1.795 -0.1097  0.0184  0.1372
 8211TIP3    H124597   6.173   0.718   1.771 -0.6390 -0.6307  0.4279
 8211TIP3    H224598   6.238   0.645   1.887  0.4509 -0.0494  0.2033
 8212TIP3   OH224599   2.172   5.671   2.574  0.3865  0.5349  0.7971
 8212TIP3    H124600   2.118   5.734   2.527  0.8373 -0.4060 -1.0605
 8212TIP3    H224601   2.142   5.676   2.665 -1.3576  1.5297  0.1943
 8213TIP3   OH224602   5.990   5.214   3.804 -0.0508  0.2049  0.6955
 8213TIP3    H124603   5.928   5.272   3.848  0.9661  0.5176  1.7253
 8213TIP3    H224604   6.065   5.208   3.863 -0.3614 -2.6716  0.9681
 8214TIP3   OH224605   3.761   5.307   0.498  0.0078 -0.1482 -0.3917
 8214TIP3    H124606   3.802   5.281   0.580  3.1510 -1.1834 -2.0967
 8214TIP3    H224607   3.816   5.377   0.464  0.8450 -1.9370 -3.0679
 8215TIP3   OH224608   4.632   1.235   0.065  0.6652  0.3167 -0.3639
 8215TIP3    H124609   4.662   1.148   0.089 -1.5326 -0.2673  0.4902
 8215TIP3    H224610   4.537   1.232   0.075  0.2752  2.1213 -2.6203
 8216TIP3   OH224611   2.231   3.498   3.049 -0.1129 -0.5359  0.4079
 8216TIP3    H124612   2.274   3.581   3.033 -0.4862 -0.0982  1.5680
 8216TIP3    H224613   2.287   3.453   3.112 -0.3164 -0.8350  0.3787
 8217TIP3   OH224614   6.698   2.865   5.602  0.3491  0.5267  0.0540
 8217TIP3    H124615   6.740   2.856   5.687 -0.0755  0.8573  0.2968
 8217TIP3    H224616   6.740   2.941   5.562  0.6929  0.2515 -0.1250
 8218TIP3   OH224617   5.505   4.399   0.180 -0.3127 -0.6438 -0.1434
 8218TIP3    H124618   5.521   4.360   0.094  0.1178 -0.6038 -0.0843
 8218TIP3    H224619   5.590   4.437   0.205 -0.6943  0.2642 -0.1705
 8219TIP3   OH224620   6.204   2.053   2.106  0.6971  0.5863 -0.4310
 8219TIP3    H124621   6.112   2.078   2.093  0.2255 -1.1529 -0.8730
 8219TIP3    H224622   6.250   2.091   2.031 -0.1376 -0.5669 -1.5811
 8220TIP3   OH224623   2.768   5.578   1.753  0.1959  0.2956  0.2589
 8220TIP3    H124624   2.699   5.618   1.806 -0.5784  0.2958 -0.6977
 8220TIP3    H224625   2.780   5.491   1.791  1.1408  1.0185  1.6939
 8221TIP3   OH224626   5.627   5.268   0.722  0.0050  0.2541 -0.3814
 8221TIP3    H124627   5.720   5.273   0.699 -0.0206  0.0785 -0.5250
 8221TIP3    H224628   5.582   5.265   0.637 -0.1581  0.8176 -0.3174
 8222TIP3   OH224629   5.552   2.935   1.671 -0.4208  0.1845 -0.6220
 8222TIP3    H124630   5.573   2.973   1.756  0.7608 -0.8752 -0.4028
 8222TIP3    H224631   5.475   2.880   1.687 -0.3824  0.2214 -0.3092
 8223TIP3   OH224632   2.620   2.615   5.083  0.1596  0.8407 -0.0742
 8223TIP3    H124633   2.687   2.574   5.029  0.8320 -0.3109  1.5353
 8223TIP3    H224634   2.669   2.658   5.154 -0.7293  1.3524  0.2561
 8224TIP3   OH224635   6.170   1.043   1.385 -0.4704 -0.3030  0.4732
 8224TIP3    H124636   6.086   1.070   1.420 -1.2303 -0.9373 -0.7807
 8224TIP3    H224637   6.235   1.088   1.439 -1.6085  0.2090  1.4427
 8225TIP3   OH224638   6.273   2.410   2.148  0.1008 -0.0535  0.3462
 8225TIP3    H124639   6.246   2.333   2.199  0.3727 -0.4762 -0.1325
 8225TIP3    H224640   6.362   2.389   2.119 -0.3005 -0.1493 -0.8896
 8226TIP3   OH224641   1.544   4.807   5.302  0.0833 -0.3200  0.1380
 8226TIP3    H124642   1.490   4.798   5.224  0.1568  0.5109 -0.0138
 8226TIP3    H224643   1.633   4.788   5.272  0.0127 -0.7171  0.1776
 8227TIP3   OH224644   6.829   4.604   5.645 -0.4791 -0.0980 -0.3206
 8227TIP3    H124645   6.874   4.527   5.611 -0.9785 -1.4237  1.7967
 8227TIP3    H224646   6.764   4.626   5.578 -0.9095 -2.0721 -0.6220
 8228TIP3   OH224647   5.351   3.127   4.365 -0.3476 -0.4580 -0.0291
 8228TIP3    H124648   5.331   3.064   4.295 -0.0361  1.3003 -1.7995
 8228TIP3    H224649   5.267   3.146   4.405 -0.5959 -1.1912 -0.1825
 8229TIP3   OH224650   4.940   6.515   0.526  0.1816  0.2336 -0.2115
 8229TIP3    H124651   4.899   6.587   0.573  1.5306  0.1324  1.2043
 8229TIP3    H224652   4.963   6.551   0.440 -1.1854  0.7953 -0.3599
 8230TIP3   OH224653   1.984   5.531   2.770  0.0319  0.3284 -0.0171
 8230TIP3    H124654   2.044   5.472   2.724  0.6858  1.2482 -0.3534
 8230TIP3    H224655   1.956   5.481   2.847  1.0454 -0.1987  0.0247
 8231TIP3   OH224656   1.549   5.166   1.394 -0.2881  0.0098 -0.2045
 8231TIP3    H124657   1.585   5.236   1.450 -1.0044  0.2127  0.0127
 8231TIP3    H224658   1.546   5.205   1.307 -1.7618  0.6726  0.1161
 8232TIP3   OH224659   5.497   2.094   4.663  0.7970 -0.4607 -0.7860
 8232TIP3    H124660   5.474   2.180   4.630 -0.7526  0.0969  1.5074
 8232TIP3    H224661   5.422   2.067   4.716  1.7095 -2.7130 -0.4912
 8233TIP3   OH224662   3.257   1.849   0.889  0.7074  0.0821  0.1888
 8233TIP3    H124663   3.268   1.862   0.983 -1.2186 -0.4654  0.5450
 8233TIP3    H224664   3.174   1.801   0.881 -0.0064  1.5064 -1.8679
 8234TIP3   OH224665   0.881   1.902   3.025  0.4979 -0.3260  0.3114
 8234TIP3    H124666   0.877   1.873   3.116 -1.4819 -0.9008  0.1037
 8234TIP3    H224667   0.887   1.997   3.029 -0.5888 -0.2710  1.0754
 8235TIP3   OH224668   2.124   1.929   5.060 -0.3741  0.0473 -0.3951
 8235TIP3    H124669   2.219   1.916   5.056 -0.3473  0.5581 -2.3943
 8235TIP3    H224670   2.112   2.023   5.047 -1.1721 -0.0626 -0.4718
 8236TIP3   OH224671   2.581   0.665   4.951  0.3127 -0.5407  0.0591
 8236TIP3    H124672   2.620   0.727   5.013  0.3633 -0.0281 -0.4770
 8236TIP3    H224673   2.490   0.693   4.943 -0.3704 -2.0833  1.7522
 8237TIP3   OH224674   6.580   1.561   2.367  0.2692 -0.1491 -0.8602
 8237TIP3    H124675   6.649   1.516   2.416  1.1867  2.1564  0.0681
 8237TIP3    H224676   6.560   1.639   2.418 -3.6746 -1.0921 -0.6577
 8238TIP3   OH224677   0.440   0.644   0.850 -0.0243 -0.2826  0.4531
 8238TIP3    H124678   0.457   0.563   0.898  0.0168 -0.1470  0.6731
 8238TIP3    H224679   0.494   0.709   0.895 -0.4191 -0.0379  0.5729
 8239TIP3   OH224680   4.930   2.805   3.169  0.0697  0.3190  0.3277
 8239TIP3    H124681   4.907   2.778   3.258  0.5738  4.2967  1.9165
 8239TIP3    H224682   4.847   2.803   3.121 -0.2354 -1.7809  0.8540
 8240TIP3   OH224683   4.152   3.973   2.026 -0.1587  0.4086  0.1069
 8240TIP3    H124684   4.109   4.044   1.977  0.0680  0.0866 -0.5699
 8240TIP3    H224685   4.091   3.900   2.020 -0.0513  0.3158  0.1563
 8241TIP3   OH224686   5.738   4.748   0.740  0.6024  0.2810  0.3717
 8241TIP3    H124687   5.701   4.832   0.711  2.2055  1.1932  0.8334
 8241TIP3    H224688   5.782   4.769   0.823  1.5909 -0.8674  0.1606
 8242TIP3   OH224689   4.967   3.149   1.472  0.7502 -0.4743  0.0353
 8242TIP3    H124690   4.944   3.098   1.550  1.7125 -0.6635  0.2077
 8242TIP3    H224691   4.919   3.106   1.400 -0.3358 -0.1478  0.5414
 8243TIP3   OH224692   3.271  -0.007   1.266 -0.1746 -0.4985  0.3388
 8243TIP3    H124693   3.220   0.029   1.194 -0.8042  0.3797  1.1964
 8243TIP3    H224694   3.276   0.065   1.330  1.7785 -0.6896  0.4688
 8244TIP3   OH224695   1.397   5.149   4.155 -0.1654 -0.8985 -0.4238
 8244TIP3    H124696   1.460   5.147   4.227 -1.6470 -0.3703  0.9483
 8244TIP3    H224697   1.448   5.182   4.080  0.6593  1.9822  1.2403
 8245TIP3   OH224698   0.986   6.098   3.192  0.5234  0.1205 -0.3480
 8245TIP3    H124699   0.958   6.073   3.104 -0.2846 -0.5364  0.0763
 8245TIP3    H224700   0.996   6.015   3.239 -0.6322  0.4909  0.6269
 8246TIP3   OH224701   2.724   6.584   2.741  0.1352 -0.4414 -0.2730
 8246TIP3    H124702   2.758   6.518   2.681  4.7661  0.4139  1.0372
 8246TIP3    H224703   2.673   6.535   2.805 -0.1811 -2.0671 -1.6876
 8247TIP3   OH224704   3.907   1.431   1.515 -0.0071 -0.5385  0.4931
 8247TIP3    H124705   3.984   1.389   1.476  0.0569 -1.1171  1.2082
 8247TIP3    H224706   3.901   1.516   1.472  0.7648 -0.6749  0.1029
 8248TIP3   OH224707   2.464   4.136   1.402  0.2761  0.1971 -0.1361
 8248TIP3    H124708   2.399   4.153   1.471 -0.6649 -0.2251 -0.8915
 8248TIP3    H224709   2.512   4.218   1.395  0.6666  0.1173  1.2944
 8249TIP3   OH224710   6.618   2.559   5.852 -0.2022  0.8963 -0.0108
 8249TIP3    H124711   6.592   2.489   5.910  1.0444  1.5378  1.3972
 8249TIP3    H224712   6.679   2.519   5.790  1.0279  0.8370  1.2054
 8250TIP3   OH224713   5.461   5.172   0.934  0.5978  0.4907  0.1035
 8250TIP3    H124714   5.524   5.190   1.003  1.8989 -0.2236 -0.8723
 8250TIP3    H224715   5.504   5.199   0.853  0.8048 -2.4528 -0.9126
 8251TIP3   OH224716   3.957   3.453   2.582  0.2708  0.4611 -0.2243
 8251TIP3    H124717   4.047   3.427   2.603  0.8250 -0.5185 -3.3006
 8251TIP3    H224718   3.964   3.545   2.557  0.0613  0.8901  1.2197
 8252TIP3   OH224719   0.659   2.114   3.174  0.2488  0.5296  0.0876
 8252TIP3    H124720   0.711   2.133   3.252  0.7773  0.4875 -0.2530
 8252TIP3    H224721   0.711   2.148   3.102 -1.1385  2.3888 -0.0986
 8253TIP3   OH224722   0.195   0.751   0.757  0.1358 -0.4081 -0.2879
 8253TIP3    H124723   0.289   0.745   0.773 -0.1932 -0.4169  1.8481
 8253TIP3    H224724   0.170   0.837   0.792 -0.9551 -1.2168  1.0076
 8254TIP3   OH224725   3.740   1.194   2.150  0.2400 -0.0556  0.1458
 8254TIP3    H124726   3.740   1.230   2.062 -0.6239 -0.7786 -0.1638
 8254TIP3    H224727   3.792   1.114   2.143 -0.3473 -0.4371  0.1528
 8255TIP3   OH224728   3.038   4.013   0.345 -0.2542 -0.0247  0.4765
 8255TIP3    H124729   3.064   3.921   0.345  1.6053  0.4447 -0.7006
 8255TIP3    H224730   2.962   4.018   0.287 -0.0169 -0.7376  0.1027
 8256TIP3   OH224731   6.114   4.639   4.908  1.0225  0.1113  0.0588
 8256TIP3    H124732   6.113   4.723   4.953  1.6555 -0.0939  0.4663
 8256TIP3    H224733   6.147   4.660   4.820  0.9606  0.3236  0.0851
 8257TIP3   OH224734   0.493   0.397   5.337 -0.2183 -0.5022 -0.3864
 8257TIP3    H124735   0.463   0.475   5.385 -0.7790  0.1688 -1.7769
 8257TIP3    H224736   0.416   0.368   5.288 -0.0149 -1.9527  0.1109
 8258TIP3   OH224737   0.032   3.828   5.270  0.3094  0.1967  0.0695
 8258TIP3    H124738  -0.032   3.891   5.305  1.0814  1.2591 -0.3836
 8258TIP3    H224739   0.064   3.869   5.189  0.2210 -1.1751 -0.6866
 8259TIP3   OH224740   6.986   4.608   5.303  0.3979  0.8936 -0.3319
 8259TIP3    H124741   6.921   4.562   5.356  1.0602 -0.5956 -0.7330
 8259TIP3    H224742   7.049   4.642   5.366 -0.2783  1.5414 -0.0004
 8260TIP3   OH224743   0.323   1.713   0.565  0.2256  0.2139 -0.0841
 8260TIP3    H124744   0.405   1.663   0.558 -0.4913 -0.7735 -2.3228
 8260TIP3    H224745   0.255   1.653   0.535 -0.9616  1.8966 -0.9374
 8261TIP3   OH224746   1.306   2.753   5.513 -0.0052  0.1593 -0.1336
 8261TIP3    H124747   1.301   2.725   5.604 -1.3312 -2.4989 -0.9461
 8261TIP3    H224748   1.378   2.702   5.476  1.0340  1.7834 -0.4530
 8262TIP3   OH224749   6.227   4.939   4.120 -0.0859  0.5864 -0.0196
 8262TIP3    H124750   6.269   4.996   4.184 -1.0445 -0.4333  1.5670
 8262TIP3    H224751   6.237   4.851   4.156 -0.1824 -0.0857 -1.5523
 8263TIP3   OH224752   0.579   4.955   1.604 -0.2275  0.4129 -0.1896
 8263TIP3    H124753   0.583   5.050   1.591  0.6160  0.5496  0.9228
 8263TIP3    H224754   0.605   4.918   1.520 -0.4711  1.1651 -0.6047
 8264TIP3   OH224755   4.221   5.280   2.041 -0.4332 -0.0345  0.3892
 8264TIP3    H124756   4.265   5.290   1.956  1.3566 -0.4414  1.2322
 8264TIP3    H224757   4.209   5.186   2.051  0.4013 -0.0762  1.0796
 8265TIP3   OH224758   0.607   2.896   0.659 -0.1810 -0.0229 -0.2240
 8265TIP3    H124759   0.572   2.916   0.572  2.1896  1.6412 -0.8815
 8265TIP3    H224760   0.662   2.818   0.645 -0.6772 -0.4259  0.0380
 8266TIP3   OH224761   0.197   1.467   0.508 -0.0825  0.2551 -0.4917
 8266TIP3    H124762   0.252   1.449   0.584 -1.6601  1.9694  1.1476
 8266TIP3    H224763   0.111   1.432   0.531 -0.0226 -1.4607 -2.5758
 8267TIP3   OH224764   5.720   1.011   4.477  1.0072  0.0889 -0.4462
 8267TIP3    H124765   5.808   1.050   4.481  1.0001  0.0645 -0.0433
 8267TIP3    H224766   5.690   1.011   4.568  0.9707 -0.7731 -0.4501
 8268TIP3   OH224767   6.118   6.268   2.358  0.3821  0.1094  0.3884
 8268TIP3    H124768   6.065   6.208   2.307 -2.0428  1.0520  1.6106
 8268TIP3    H224769   6.063   6.291   2.433  1.5182  3.1290  0.4524
 8269TIP3   OH224770   6.231   0.486   4.174  0.1543 -0.3940  0.0233
 8269TIP3    H124771   6.213   0.452   4.086 -3.0777 -0.0694  0.4265
 8269TIP3    H224772   6.271   0.572   4.160 -1.7989  0.3746 -1.2466
 8270TIP3   OH224773   0.493   3.407   5.817 -0.3196  0.1880  0.0321
 8270TIP3    H124774   0.399   3.397   5.798 -0.0199 -0.9196 -1.0743
 8270TIP3    H224775   0.518   3.323   5.856  0.3033  0.3007 -0.1230
 8271TIP3   OH224776   0.544   4.322   1.922  0.4221  0.4440 -0.3171
 8271TIP3    H124777   0.611   4.384   1.953  1.4673 -0.9895  0.3961
 8271TIP3    H224778   0.463   4.352   1.963  1.0617  0.8952  0.6685
 8272TIP3   OH224779   4.432   3.394   2.195 -0.6920 -0.1802 -0.3697
 8272TIP3    H124780   4.391   3.451   2.129 -1.1411 -0.0050  0.0614
 8272TIP3    H224781   4.497   3.344   2.145 -0.0182  0.9711 -0.6982
 8273TIP3   OH224782   2.490   4.757   0.161 -0.2668 -0.4928  0.6086
 8273TIP3    H124783   2.563   4.716   0.206  0.9494 -0.7604 -1.4845
 8273TIP3    H224784   2.503   4.851   0.173  1.4983 -0.4458 -1.2117
 8274TIP3   OH224785   0.623   1.323   2.872 -0.5951 -0.0563 -0.6176
 8274TIP3    H124786   0.549   1.350   2.817 -1.7278 -0.1130  0.8145
 8274TIP3    H224787   0.629   1.228   2.859 -1.6761 -0.2734  0.2525
 8275TIP3   OH224788   0.764   5.357   5.074 -0.3042 -0.1243  0.1246
 8275TIP3    H124789   0.779   5.449   5.094 -1.5805 -0.1887  1.5226
 8275TIP3    H224790   0.845   5.313   5.100  0.3808  0.5881 -0.7164
 8276TIP3   OH224791   6.487   4.589   1.137 -0.1722 -0.3302  0.2957
 8276TIP3    H124792   6.530   4.660   1.089 -0.3536 -0.0113  0.6008
 8276TIP3    H224793   6.452   4.532   1.069  1.2311 -0.9139  0.0290
 8277TIP3   OH224794   0.968   4.953   3.473 -0.4834 -0.4149 -0.1398
 8277TIP3    H124795   0.921   5.036   3.461  0.0766 -0.2348 -1.1367
 8277TIP3    H224796   0.976   4.945   3.568 -1.5262  0.1130  0.0125
 8278TIP3   OH224797   7.051   6.633   4.585  0.4198 -0.4525  0.6591
 8278TIP3    H124798   7.062   6.538   4.587  0.1571 -0.4758  1.3202
 8278TIP3    H224799   6.957   6.647   4.583  0.4507 -0.2105 -1.2740
 8279TIP3   OH224800   3.858   4.025   2.128  0.3132  0.0337 -0.0548
 8279TIP3    H124801   3.902   3.970   2.063  1.4133  0.6922  0.1085
 8279TIP3    H224802   3.878   3.983   2.211 -0.7422 -0.5684 -0.0833
 8280TIP3   OH224803   2.010   6.506   5.627  0.3750  0.3974 -0.2908
 8280TIP3    H124804   2.055   6.460   5.698 -0.9537 -1.0198 -0.3416
 8280TIP3    H224805   1.920   6.516   5.658 -0.3684 -0.7282 -1.9653
 8281TIP3   OH224806   6.785   6.723   0.640  0.3891 -0.3568 -0.1167
 8281TIP3    H124807   6.816   6.722   0.550  0.1163 -0.7438 -0.2104
 8281TIP3    H224808   6.780   6.816   0.663  1.1986 -0.2806 -0.2377
 8282TIP3   OH224809   0.471   4.039   2.187 -0.5463 -0.2093  0.0093
 8282TIP3    H124810   0.477   3.963   2.129 -2.4012 -1.7675  1.6997
 8282TIP3    H224811   0.550   4.034   2.241 -1.3781 -1.9501  1.1610
 8283TIP3   OH224812   6.529   0.705   1.105  0.0501  0.0375 -0.1466
 8283TIP3    H124813   6.499   0.628   1.153  0.9270 -1.7381 -2.2680
 8283TIP3    H224814   6.620   0.716   1.133  0.3277 -0.5343 -0.7911
 8284TIP3   OH224815   1.334   5.996   1.560 -0.1788 -0.3566 -0.1518
 8284TIP3    H124816   1.401   5.957   1.504  1.2036 -1.3073  2.0199
 8284TIP3    H224817   1.371   6.081   1.585 -1.7155  1.0158 -2.2216
 8285TIP3   OH224818   0.769   2.434   4.744  0.5057  0.0099 -0.0847
 8285TIP3    H124819   0.742   2.355   4.699 -0.5355  0.7375 -0.7705
 8285TIP3    H224820   0.835   2.473   4.686 -0.2268  0.5174 -0.5832
 8286TIP3   OH224821   6.733   6.768   1.692 -0.7827 -0.2153 -0.1103
 8286TIP3    H124822   6.787   6.799   1.620  1.3339 -1.5965  0.8044
 8286TIP3    H224823   6.702   6.682   1.664  1.2874 -1.4390  1.1312
 8287TIP3   OH224824   1.903   3.652   3.425 -0.2564  0.3149 -0.0333
 8287TIP3    H124825   1.875   3.644   3.334 -2.1382  1.5680  0.3730
 8287TIP3    H224826   1.906   3.562   3.457  0.4340 -0.1413 -1.3175
 8288TIP3   OH224827   1.468   1.619   0.708 -0.0589 -0.8874  0.1094
 8288TIP3    H124828   1.457   1.638   0.802 -0.4553 -1.2913  0.1468
 8288TIP3    H224829   1.469   1.705   0.667  0.6387 -0.6769  0.5328
 8289TIP3   OH224830   0.803   6.388   4.713 -0.2398 -0.0558 -0.0222
 8289TIP3    H124831   0.794   6.474   4.673 -4.0384  0.6356  1.8514
 8289TIP3    H224832   0.766   6.328   4.649  1.9795 -0.3379 -1.1304
 8290TIP3   OH224833   1.317   3.173   5.748  0.2986  0.1347  0.7795
 8290TIP3    H124834   1.267   3.248   5.717 -1.4558 -1.5489 -0.7202
 8290TIP3    H224835   1.264   3.137   5.820 -0.4212 -1.3047 -0.4140
 8291TIP3   OH224836   3.548   0.092   4.372  0.0100 -0.4627  0.6933
 8291TIP3    H124837   3.466   0.110   4.326 -0.8670 -1.2176  1.8907
 8291TIP3    H224838   3.595   0.175   4.372 -0.9761  0.1066  0.4154
 8292TIP3   OH224839   0.412   3.427   0.397 -0.4879  0.0858  0.8620
 8292TIP3    H124840   0.413   3.521   0.383 -0.8623 -0.0069  0.1451
 8292TIP3    H224841   0.429   3.389   0.310 -1.9283 -0.5142  0.8088
 8293TIP3   OH224842   6.358   6.616   3.488  0.2486  0.3589  0.4634
 8293TIP3    H124843   6.438   6.575   3.456 -0.5242 -0.1842 -0.8792
 8293TIP3    H224844   6.348   6.583   3.577 -0.6981 -3.1085 -0.7265
 8294TIP3   OH224845   4.939   1.623   5.629  0.2924 -0.4760 -0.6691
 8294TIP3    H124846   4.905   1.536   5.607  0.0710 -0.3033 -1.0250
 8294TIP3    H224847   5.010   1.637   5.566 -0.3383  0.0186 -1.2786
 8295TIP3   OH224848   3.312   5.152   2.521 -0.2116 -0.1099  0.0545
 8295TIP3    H124849   3.241   5.214   2.536  0.8169  1.5114 -1.4828
 8295TIP3    H224850   3.341   5.128   2.609 -0.5734  1.6738  0.7019
 8296TIP3   OH224851   4.986   3.833   2.298  0.5949 -0.3935 -0.1775
 8296TIP3    H124852   4.914   3.884   2.259  0.9159  0.8949  0.8504
 8296TIP3    H224853   5.065   3.878   2.269  0.8512  0.3245  1.5605
 8297TIP3   OH224854   1.553   6.128   1.421 -0.3667 -0.2813  0.2825
 8297TIP3    H124855   1.615   6.093   1.486  1.3740  1.5681 -0.2955
 8297TIP3    H224856   1.591   6.105   1.336  0.0124  1.5644 -0.0900
 8298TIP3   OH224857   0.384   0.294   0.190 -0.2504 -0.1502  0.7144
 8298TIP3    H124858   0.389   0.306   0.095 -1.0799 -0.5767  0.6090
 8298TIP3    H224859   0.370   0.382   0.224  0.0848  0.0100  0.4492
 8299TIP3   OH224860   1.636   5.253   3.405 -0.2601 -1.1831 -0.2852
 8299TIP3    H124861   1.553   5.234   3.361 -0.4318 -1.4803  0.1625
 8299TIP3    H224862   1.702   5.242   3.337 -0.4126 -2.7213 -0.2147
 8300TIP3   OH224863   1.824   5.559   4.391 -0.0093  0.5447 -0.3999
 8300TIP3    H124864   1.867   5.583   4.309 -1.4424  0.9371 -1.0680
 8300TIP3    H224865   1.731   5.556   4.369 -0.2355 -1.6360  0.6623
 8301TIP3   OH224866   6.529   2.826   0.913 -0.2585 -0.6899  0.7262
 8301TIP3    H124867   6.603   2.876   0.879 -0.6191 -2.0034 -2.3241
 8301TIP3    H224868   6.470   2.817   0.838 -0.6468 -4.7876  1.3178
 8302TIP3   OH224869   0.638   2.301   2.754 -0.3704 -0.5879 -0.2866
 8302TIP3    H124870   0.728   2.300   2.720 -1.4317 -0.7503 -3.3760
 8302TIP3    H224871   0.614   2.208   2.759 -0.8879 -0.4987 -1.0430
 8303TIP3   OH224872   4.102   0.709   4.378  0.0771  0.5127 -0.5561
 8303TIP3    H124873   4.125   0.756   4.298 -1.0454  1.5244 -0.3060
 8303TIP3    H224874   4.085   0.777   4.443 -0.5815 -0.2538  0.1052
 8304TIP3   OH224875   6.958   4.202   5.663 -0.0042  0.4968 -0.7275
 8304TIP3    H124876   6.964   4.113   5.626  1.9547  0.9344 -1.5857
 8304TIP3    H224877   6.983   4.192   5.754 -1.1253 -0.0123 -0.4553
 8305TIP3   OH224878   3.210   1.467   1.071 -0.2217  0.2908  0.3831
 8305TIP3    H124879   3.137   1.529   1.065  1.3628  2.1122 -3.0254
 8305TIP3    H224880   3.275   1.512   1.125  0.7408  1.5596 -1.7071
 8306TIP3   OH224881   2.339   3.971   1.770  0.6351 -0.3910 -0.1226
 8306TIP3    H124882   2.389   4.011   1.841 -1.8694 -0.1760  1.6310
 8306TIP3    H224883   2.308   4.044   1.717  0.2931 -0.3661  0.1121
 8307TIP3   OH224884   0.587   1.776   5.664 -0.3592  0.0046  0.1318
 8307TIP3    H124885   0.565   1.755   5.755 -0.1420 -1.3934 -0.1211
 8307TIP3    H224886   0.502   1.784   5.620 -0.4609 -0.9998  0.1130
 8308TIP3   OH224887   6.510   5.232   2.321  0.2832  0.1068 -0.9792
 8308TIP3    H124888   6.597   5.229   2.281 -0.2940  1.6738 -2.4831
 8308TIP3    H224889   6.458   5.171   2.269  0.0061  0.6571 -1.3462
 8309TIP3   OH224890   5.457   5.931   1.452 -0.0999 -0.2604  0.0433
 8309TIP3    H124891   5.493   5.976   1.529  3.3633 -1.0886 -0.8784
 8309TIP3    H224892   5.451   5.999   1.385 -0.2027 -0.1101  0.2055
 8310TIP3   OH224893   1.542   5.667   2.059 -0.2821 -0.0695  0.1141
 8310TIP3    H124894   1.490   5.602   2.106 -1.2106 -0.6150 -1.5713
 8310TIP3    H224895   1.579   5.619   1.985  0.5164  0.9176 -0.1530
 8311TIP3   OH224896   2.232   2.755   1.516  0.3415 -0.3412  0.3127
 8311TIP3    H124897   2.319   2.762   1.553  0.3106  1.4008  0.1416
 8311TIP3    H224898   2.173   2.765   1.591  0.2958  1.9743  0.0531
 8312TIP3   OH224899   0.531   5.818   3.800 -0.5254 -0.7444  0.1898
 8312TIP3    H124900   0.526   5.758   3.726 -1.6300  1.4609 -1.6664
 8312TIP3    H224901   0.464   5.884   3.781  0.0560  0.6268  2.5272
 8313TIP3   OH224902   5.421   6.155   3.653  0.2506 -0.7386 -0.1948
 8313TIP3    H124903   5.492   6.181   3.594 -1.0759  2.2362 -0.6730
 8313TIP3    H224904   5.405   6.233   3.705 -1.3242 -2.0226  1.3350
 8314TIP3   OH224905   6.508   5.587   4.792 -0.0636  0.1970  0.2279
 8314TIP3    H124906   6.443   5.579   4.861 -0.4882  0.0450 -0.1851
 8314TIP3    H224907   6.580   5.531   4.821  0.1305  0.8061  0.9543
 8315TIP3   OH224908   1.821   3.410   2.507  0.4463 -0.3665  0.3038
 8315TIP3    H124909   1.889   3.367   2.558  3.3691  2.0666 -1.2141
 8315TIP3    H224910   1.743   3.355   2.519  2.2073 -2.4760  3.3785
 8316TIP3   OH224911   0.177   0.966   2.809 -0.6071  0.0122 -0.5376
 8316TIP3    H124912   0.228   0.914   2.872  0.8700  1.3218 -0.5792
 8316TIP3    H224913   0.181   1.055   2.843 -2.1003  0.3078 -1.0764
 8317TIP3   OH224914   4.567   5.386   1.290  0.0424  0.4199  0.1281
 8317TIP3    H124915   4.564   5.303   1.338 -2.1318  0.1654 -0.3646
 8317TIP3    H224916   4.503   5.442   1.334  0.8306  1.5603 -0.1051
 8318TIP3   OH224917   6.494   0.765   3.146 -0.1428  0.1542  0.0244
 8318TIP3    H124918   6.405   0.728   3.146  0.4345 -1.3696  1.6791
 8318TIP3    H224919   6.480   0.860   3.151 -1.6612  0.0136 -0.8071
 8319TIP3   OH224920   4.725   4.610   3.757 -0.0368  0.3160 -0.6084
 8319TIP3    H124921   4.732   4.607   3.852  3.2456 -2.5435 -0.7612
 8319TIP3    H224922   4.800   4.661   3.728  0.0024 -0.3209 -1.7041
 8320TIP3   OH224923   4.643   6.243   0.802  0.0211  0.3546 -0.1606
 8320TIP3    H124924   4.618   6.151   0.804 -2.5576  0.9255 -1.2241
 8320TIP3    H224925   4.677   6.257   0.714 -2.2615  0.9388 -1.0186
 8321TIP3   OH224926   4.114   1.373   1.351  0.0268 -0.1211 -0.1308
 8321TIP3    H124927   4.210   1.373   1.350  0.0564 -1.8025 -0.9935
 8321TIP3    H224928   4.090   1.456   1.310  1.1038  0.4086  0.2628
 8322TIP3   OH224929   0.775   6.435   1.089  0.2306  0.2539  0.2853
 8322TIP3    H124930   0.841   6.382   1.135  0.5100  0.6375  0.3315
 8322TIP3    H224931   0.823   6.512   1.060  0.3415 -0.4767 -1.6156
 8323TIP3   OH224932   1.278   3.249   3.781  0.6386  0.5063  0.1434
 8323TIP3    H124933   1.232   3.291   3.854 -0.8335 -0.8994  0.0914
 8323TIP3    H224934   1.311   3.322   3.728  0.4897  1.5584  1.4368
 8324TIP3   OH224935   1.769   0.157   2.978  0.0086  0.0680 -0.5456
 8324TIP3    H124936   1.775   0.063   2.995 -1.1908  0.0875  0.1136
 8324TIP3    H224937   1.706   0.189   3.042 -0.2588  1.1770 -1.3289
 8325TIP3   OH224938   7.060   5.487   3.873  0.1816  0.0418 -0.2141
 8325TIP3    H124939   7.079   5.410   3.818  1.4023  0.4004 -0.3325
 8325TIP3    H224940   7.016   5.548   3.815 -0.5649 -0.4538 -0.1874
 8326TIP3   OH224941   4.730   6.522   0.221  0.6184  0.1770  0.3804
 8326TIP3    H124942   4.819   6.512   0.254  0.1464  0.4170  1.7702
 8326TIP3    H224943   4.709   6.614   0.235 -0.6448 -0.3396  2.2047
 8327TIP3   OH224944   1.838   2.563   0.451 -0.3069  0.2167 -0.3409
 8327TIP3    H124945   1.749   2.529   0.458  1.0007 -3.7146 -0.5806
 8327TIP3    H224946   1.861   2.553   0.359  0.6065  0.6222 -0.1704
 8328TIP3   OH224947   2.249   4.508   5.863 -0.2408 -0.2290 -0.3092
 8328TIP3    H124948   2.154   4.520   5.859 -0.0731  2.0649  0.9231
 8328TIP3    H224949   2.282   4.550   5.784 -0.0676  2.8996  1.2493
 8329TIP3   OH224950   2.282   6.107   1.709 -0.1647  0.3456  0.6004
 8329TIP3    H124951   2.314   6.058   1.784  1.1346  0.1378 -0.0669
 8329TIP3    H224952   2.221   6.046   1.666  1.8295 -0.9719 -0.5221
 8330TIP3   OH224953   0.628   5.543   3.344 -0.1961 -0.3684  0.1520
 8330TIP3    H124954   0.612   5.487   3.268  1.0774  1.4993 -1.6180
 8330TIP3    H224955   0.669   5.622   3.307  1.1831  0.3052  2.8705
 8331TIP3   OH224956   0.116   2.273   2.357  0.0630 -0.2259  0.2343
 8331TIP3    H124957   0.051   2.240   2.295 -0.0364  1.7932 -0.8094
 8331TIP3    H224958   0.070   2.275   2.441 -0.7125 -0.3304 -0.1838
 8332TIP3   OH224959   3.215   3.138   0.000 -0.3953 -0.3614 -0.2835
 8332TIP3    H124960   3.169   3.100   0.075  0.1120  2.7938  1.8316
 8332TIP3    H224961   3.281   3.073  -0.023 -1.5040 -2.0631  1.0296
 8333TIP3   OH224962   3.770   4.938   2.740 -0.6648 -0.1470 -0.3239
 8333TIP3    H124963   3.836   4.881   2.780 -0.2098 -1.0176 -2.2193
 8333TIP3    H224964   3.776   5.019   2.791 -1.6528 -1.8335  2.7706
 8334TIP3   OH224965   6.374   6.223   1.269 -0.3251 -0.5648  0.2232
 8334TIP3    H124966   6.409   6.135   1.257  0.5753 -0.5013  2.0784
 8334TIP3    H224967   6.288   6.210   1.309 -0.9079 -0.6143 -0.9964
 8335TIP3   OH224968   4.588   4.857   5.060  0.0534 -0.3150 -0.0358
 8335TIP3    H124969   4.533   4.829   4.988 -0.6265  2.0507 -0.5199
 8335TIP3    H224970   4.669   4.886   5.018 -0.9437  2.6363 -0.1727
 8336TIP3   OH224971   1.474   4.597   0.511 -0.0231 -0.1093 -0.2892
 8336TIP3    H124972   1.539   4.648   0.559  1.7610 -1.3642 -1.2467
 8336TIP3    H224973   1.418   4.558   0.578  1.5170 -0.6695  0.7057
 8337TIP3   OH224974   1.992   5.866   2.429  0.0645 -0.6391  0.4608
 8337TIP3    H124975   1.941   5.829   2.357 -0.9339 -3.0112  2.2129
 8337TIP3    H224976   1.926   5.906   2.486  0.8549  1.3668  0.0465
 8338TIP3   OH224977   5.205   1.948   4.367  0.4529 -0.5391 -0.2548
 8338TIP3    H124978   5.154   1.916   4.441  1.2545 -0.9805  0.1286
 8338TIP3    H224979   5.236   1.869   4.323  1.2227 -0.2853 -0.1802
 8339TIP3   OH224980   0.113   3.910   1.564  0.2446 -0.2304 -0.6217
 8339TIP3    H124981   0.021   3.886   1.574  0.1592  0.3177 -0.0440
 8339TIP3    H224982   0.144   3.924   1.654 -0.0738  3.1801 -0.9415
 8340TIP3   OH224983   6.727   3.013   0.849  0.4801 -0.0222  0.0860
 8340TIP3    H124984   6.715   3.087   0.908  1.9397 -0.3091  0.7919
 8340TIP3    H224985   6.821   3.012   0.831  0.4202 -1.4363 -0.2511
 8341TIP3   OH224986   6.837   3.752   3.369 -0.3284 -0.3384  0.1967
 8341TIP3    H124987   6.884   3.822   3.415 -0.8152 -0.1570  0.4278
 8341TIP3    H224988   6.903   3.712   3.312  0.1566 -0.2226  0.6633
 8342TIP3   OH224989   7.118   6.160   3.222  0.1571  0.2548  0.2159
 8342TIP3    H124990   7.105   6.138   3.314 -0.2458  1.1439  0.3838
 8342TIP3    H224991   7.029   6.179   3.190  0.2695 -0.2538 -0.4088
 8343TIP3   OH224992  -0.002   4.696   2.725 -0.1753  0.3413  0.4542
 8343TIP3    H124993   0.045   4.615   2.741 -2.0537 -0.5771  1.6843
 8343TIP3    H224994  -0.030   4.691   2.634  0.6566  0.1204  0.2116
 8344TIP3   OH224995   1.096   5.615   3.161 -0.2656 -0.3646 -0.3288
 8344TIP3    H124996   1.176   5.663   3.140  0.1442 -0.4085  1.0490
 8344TIP3    H224997   1.078   5.563   3.083  1.0112 -0.3071 -0.6847
 8345TIP3   OH224998   5.924   3.330   0.186  0.1110 -0.0735  0.2827
 8345TIP3    H124999   6.001   3.340   0.242  0.7331  1.4299 -0.7685
 8345TIP3    H225000   5.946   3.378   0.106 -2.3195  1.3057  0.3524
 8346TIP3   OH225001   2.179   6.126   5.263  0.2022  0.3177 -0.0679
 8346TIP3    H125002   2.108   6.075   5.224  0.1827  0.4333 -0.1859
 8346TIP3    H225003   2.181   6.099   5.355 -1.1315  1.5345  0.3686
 8347TIP3   OH225004   1.129   3.609   4.738  0.2213 -0.0246 -0.4138
 8347TIP3    H125005   1.061   3.604   4.670  1.1472  0.1040 -1.3869
 8347TIP3    H225006   1.181   3.685   4.713 -0.9246  1.6323  1.9301
 8348TIP3   OH225007   0.900   6.391   0.670 -0.1998  0.1601 -0.1517
 8348TIP3    H125008   0.870   6.471   0.627 -1.0007 -1.3507 -2.6105
 8348TIP3    H225009   0.973   6.361   0.616 -1.0047 -1.6465 -0.2800
 8349TIP3   OH225010   2.005   0.999   5.588  0.1011  0.2559 -0.1370
 8349TIP3    H125011   2.011   0.904   5.577  0.5804  0.2213  0.3756
 8349TIP3    H225012   1.914   1.020   5.566 -0.8257 -0.7048  2.4261
 8350TIP3   OH225013   4.736   2.789   2.930 -0.0844  0.1745  0.5154
 8350TIP3    H125014   4.675   2.783   2.857  0.5651  0.5087 -0.0716
 8350TIP3    H225015   4.722   2.709   2.980 -1.6124  0.6538  0.8902
 8351TIP3   OH225016   6.937   2.694   3.983  0.1581  0.0506 -0.4023
 8351TIP3    H125017   6.882   2.762   4.022  1.2684  0.3270  0.7452
 8351TIP3    H225018   6.896   2.676   3.898 -0.0098  2.3085 -0.8585
 8352TIP3   OH225019   0.599   6.136   5.207 -0.1014 -0.1674 -0.3830
 8352TIP3    H125020   0.624   6.211   5.262  1.0548 -0.2853 -0.7220
 8352TIP3    H225021   0.605   6.169   5.117  4.4462 -1.6236 -0.8752
 8353TIP3   OH225022   6.686   5.962   2.145 -0.2112  0.3491 -0.0347
 8353TIP3    H125023   6.674   5.870   2.123  0.9428  0.1311  0.2330
 8353TIP3    H225024   6.597   5.998   2.147 -0.6119 -0.5674 -0.9355
 8354TIP3   OH225025   2.349   4.745   4.831 -0.5322  0.5055 -0.2336
 8354TIP3    H125026   2.423   4.796   4.797 -0.5684 -0.1475 -1.3853
 8354TIP3    H225027   2.325   4.688   4.758 -0.6480 -0.9686  0.9086
 8355TIP3   OH225028   2.802   4.210   3.812  0.4955 -0.0572 -0.0450
 8355TIP3    H125029   2.860   4.283   3.835 -0.4749  0.4117  0.9560
 8355TIP3    H225030   2.714   4.242   3.831 -0.0188 -1.1333 -0.5667
 8356TIP3   OH225031   6.533   3.793   5.096 -0.0244  0.0094  0.1258
 8356TIP3    H125032   6.441   3.778   5.073 -0.3930  0.3995  1.2897
 8356TIP3    H225033   6.530   3.827   5.185  1.3416 -1.4736  0.7808
 8357TIP3   OH225034   6.317   5.345   2.952 -0.0444  0.4712  1.0397
 8357TIP3    H125035   6.299   5.288   2.877  0.0547 -0.3410  1.6156
 8357TIP3    H225036   6.258   5.313   3.020  0.5614  0.5554  1.6125
 8358TIP3   OH225037   5.962   2.666   1.685  0.1940  0.4797 -0.2429
 8358TIP3    H125038   5.960   2.682   1.590 -0.4348  0.6241 -0.2097
 8358TIP3    H225039   5.978   2.572   1.693 -0.8801  0.2603 -0.5192
 8359TIP3   OH225040   4.802   6.679   3.916  0.4517 -0.2710 -0.0753
 8359TIP3    H125041   4.726   6.732   3.893  0.9899 -0.4362 -2.5552
 8359TIP3    H225042   4.867   6.700   3.849  2.1416 -1.0738  1.2407
 8360TIP3   OH225043   1.972   4.366   3.944 -0.1926  0.3478 -0.2329
 8360TIP3    H125044   1.964   4.278   3.981 -1.3473  0.8163  0.6712
 8360TIP3    H225045   1.981   4.350   3.850 -1.0294 -0.7299 -0.1605
 8361TIP3   OH225046   1.239   3.124   0.086 -0.2546  0.2264  0.2490
 8361TIP3    H125047   1.329   3.149   0.108  0.6056 -2.5971  0.2495
 8361TIP3    H225048   1.187   3.154   0.160  1.3513 -1.6926  2.2816
 8362TIP3   OH225049   5.171   1.871   4.810 -0.6635  0.1252 -0.2942
 8362TIP3    H125050   5.142   1.815   4.738  1.5839 -0.7379 -0.6112
 8362TIP3    H225051   5.127   1.955   4.795 -1.2940 -0.4520 -1.8760
 8363TIP3   OH225052   5.034   1.318   1.161  0.2506  0.7912  0.1981
 8363TIP3    H125053   4.963   1.367   1.120  0.5980  0.8086 -0.3956
 8363TIP3    H225054   4.991   1.249   1.210 -0.1281 -0.2080 -1.4654
 8364TIP3   OH225055   1.985   5.944   4.546  0.0761  0.7362  0.4085
 8364TIP3    H125056   2.043   5.979   4.613  0.4365  0.4092  0.2728
 8364TIP3    H225057   1.995   5.849   4.553  0.7195  0.7164 -0.6294
 8365TIP3   OH225058   3.962   1.731   1.386  0.2347  0.5766 -0.1606
 8365TIP3    H125059   4.043   1.749   1.433  0.3953  2.7715 -1.1755
 8365TIP3    H225060   3.985   1.739   1.294 -0.6147 -1.2265 -0.5725
 8366TIP3   OH225061   4.618   4.854   1.127  0.0420 -0.2197  0.4515
 8366TIP3    H125062   4.666   4.910   1.066  0.9359  0.1170  1.4526
 8366TIP3    H225063   4.576   4.788   1.070  0.1582  0.5846 -0.5958
 8367TIP3   OH225064   3.323   5.356   3.795 -0.1566 -0.0119 -0.2949
 8367TIP3    H125065   3.243   5.323   3.754 -1.0336  0.9227  0.5710
 8367TIP3    H225066   3.362   5.280   3.837 -0.9510 -0.3642 -0.1807
 8368TIP3   OH225067   3.689   3.959   0.645  0.0112 -0.6405 -0.8988
 8368TIP3    H125068   3.755   3.957   0.714 -1.1151  2.2585  0.4233
 8368TIP3    H225069   3.655   4.049   0.647 -1.5585 -1.0414 -3.8481
 8369TIP3   OH225070   1.115   2.514   4.136 -0.3826  0.6890  0.3129
 8369TIP3    H125071   1.203   2.530   4.102  0.3044 -1.4894  0.8829
 8369TIP3    H225072   1.057   2.558   4.073  1.0263  0.7516 -1.0218
 8370TIP3   OH225073   5.962   6.320   5.498 -0.6230 -0.1873 -1.1260
 8370TIP3    H125074   5.973   6.363   5.583 -1.2786  0.6654 -1.4599
 8370TIP3    H225075   5.891   6.367   5.456 -1.3512 -1.5917 -1.5360
 8371TIP3   OH225076   3.831   2.921   1.857  0.2541  0.0667 -0.0245
 8371TIP3    H125077   3.886   2.857   1.903  0.2519  1.1579  1.5636
 8371TIP3    H225078   3.887   2.996   1.843  0.5610 -0.5765 -2.8128
 8372TIP3   OH225079   2.605   2.615   3.486 -0.9496 -0.7340 -0.2365
 8372TIP3    H125080   2.686   2.593   3.438 -1.4397  0.2302 -1.5884
 8372TIP3    H225081   2.563   2.682   3.431 -1.8851 -0.0636  1.2536
 8373TIP3   OH225082   4.269   2.735   2.252  0.1673 -0.2505  0.0733
 8373TIP3    H125083   4.301   2.649   2.279  0.1563 -0.0323  0.8030
 8373TIP3    H225084   4.260   2.728   2.157 -0.2133 -1.1839  0.1630
 8374TIP3   OH225085   3.422   6.182   5.448  0.3080 -0.2804 -0.6160
 8374TIP3    H125086   3.396   6.274   5.439 -1.2302 -0.6266  0.0007
 8374TIP3    H225087   3.505   6.176   5.400  0.7832  1.5670 -0.0978
 8375TIP3   OH225088   2.200   4.595   1.866  0.4457 -0.4201  0.1951
 8375TIP3    H125089   2.269   4.640   1.915 -0.9825  0.6888  1.2579
 8375TIP3    H225090   2.183   4.515   1.915  0.6142 -0.4433  0.2149
 8376TIP3   OH225091   1.988   1.892   1.020 -0.2536 -0.8847  0.0926
 8376TIP3    H125092   1.920   1.938   1.070  0.0871 -1.4144  1.0917
 8376TIP3    H225093   1.954   1.888   0.931 -1.5632 -1.1658  0.5724
 8377TIP3   OH225094   0.054   0.264   0.190  0.3191  0.0935  0.5063
 8377TIP3    H125095   0.089   0.219   0.267  2.0579 -0.2160 -0.4238
 8377TIP3    H225096  -0.040   0.248   0.194  0.3229  0.3579  2.7337
 8378TIP3   OH225097   3.747   3.175   5.139  0.1091  0.1246  0.2570
 8378TIP3    H125098   3.759   3.193   5.045 -1.0665  1.4298  0.3181
 8378TIP3    H225099   3.673   3.115   5.142  1.2773 -1.3721  0.2918
 8379TIP3   OH225100   1.045   0.386   1.835 -0.0854  0.3011 -0.5212
 8379TIP3    H125101   0.963   0.415   1.795  0.6161  0.5352 -1.8456
 8379TIP3    H225102   1.078   0.464   1.880 -0.4042  0.3083 -0.2983
 8380TIP3   OH225103   1.875   1.233   2.199 -0.1945  0.0469  0.2025
 8380TIP3    H125104   1.885   1.165   2.265  0.6736 -0.4848 -0.4686
 8380TIP3    H225105   1.909   1.312   2.241 -0.4405 -0.0972  0.6847
 8381TIP3   OH225106   3.245   0.262   0.824  0.1887  0.5316  0.2038
 8381TIP3    H125107   3.299   0.214   0.886 -2.5534 -1.9938  0.8684
 8381TIP3    H225108   3.249   0.210   0.743 -0.2458  0.9951 -0.1205
 8382TIP3   OH225109   5.565   3.498   2.260  0.0297 -0.2616 -0.5105
 8382TIP3    H125110   5.581   3.592   2.267 -2.2243  0.1910 -0.5659
 8382TIP3    H225111   5.639   3.457   2.304  0.2617  1.5872  0.9268
 8383TIP3   OH225112   3.038   2.273   0.137 -0.3654 -0.1241  0.0081
 8383TIP3    H125113   2.953   2.282   0.180 -0.8836 -0.3750 -0.9387
 8383TIP3    H225114   3.077   2.360   0.141 -0.1254 -0.2708  1.5132
 8384TIP3   OH225115   0.601   3.604   3.691 -0.0879  0.1182 -0.0682
 8384TIP3    H125116   0.557   3.618   3.775  0.4006 -1.2069  0.4418
 8384TIP3    H225117   0.531   3.615   3.626 -0.7988 -0.2046  0.6145
 8385TIP3   OH225118   0.269   0.674   5.853  0.3732  0.8512  0.5108
 8385TIP3    H125119   0.199   0.643   5.911  1.1892  0.0518  1.0839
 8385TIP3    H225120   0.223   0.704   5.774 -0.6188  0.4313  0.9149
 8386TIP3   OH225121   0.523   6.468   5.088  0.1015  0.0700  0.3271
 8386TIP3    H125122   0.589   6.522   5.045  0.7234 -0.9381 -0.0412
 8386TIP3    H225123   0.450   6.466   5.027  0.0235  0.5933  0.4027
 8387TIP3   OH225124   3.709   4.565   0.548 -0.0990 -0.4619  0.5287
 8387TIP3    H125125   3.703   4.656   0.579 -2.8377 -0.9497  1.7944
 8387TIP3    H225126   3.798   4.538   0.570  0.3845  1.5451  1.2698
 8388TIP3   OH225127   6.486   4.637   5.713 -0.3632  0.3201 -0.1747
 8388TIP3    H125128   6.524   4.550   5.711 -0.2464  0.3864 -0.7819
 8388TIP3    H225129   6.392   4.623   5.702 -0.3647  0.2623 -0.0881
 8389TIP3   OH225130   3.664   6.000   2.728 -0.0392  0.5791 -0.0998
 8389TIP3    H125131   3.681   6.067   2.795 -1.0618  0.6383  0.1140
 8389TIP3    H225132   3.597   6.039   2.672 -0.9744 -0.4197  0.2823
 8390TIP3   OH225133   5.600   3.720   4.864 -0.3573 -0.4103  0.1694
 8390TIP3    H125134   5.647   3.639   4.845  0.4794  0.1368 -0.1467
 8390TIP3    H225135   5.532   3.694   4.925 -0.9773 -1.5990 -0.9859
 8391TIP3   OH225136   5.138   6.095   4.049 -0.1802 -0.6463 -0.9727
 8391TIP3    H125137   5.138   6.142   3.965  0.7791  2.7708  0.7475
 8391TIP3    H225138   5.109   6.161   4.113  3.1687 -1.7474  1.9696
 8392TIP3   OH225139   1.339   0.463   0.211 -0.4320 -0.2380  0.0583
 8392TIP3    H125140   1.260   0.436   0.259  1.4412 -4.7083  1.2110
 8392TIP3    H225141   1.339   0.409   0.132  1.1424  0.1469 -0.2437
 8393TIP3   OH225142   0.398   4.410   4.324  0.3854 -0.3248  0.5199
 8393TIP3    H125143   0.315   4.363   4.335  0.5676 -0.8768 -0.3865
 8393TIP3    H225144   0.371   4.500   4.307 -0.0634 -0.6225 -0.4222
 8394TIP3   OH225145   5.898   3.185   2.537 -0.2760 -0.4730  0.6516
 8394TIP3    H125146   5.978   3.195   2.589  0.2268  0.0675 -0.1879
 8394TIP3    H225147   5.867   3.097   2.557 -0.3788 -0.1018  2.2396
 8395TIP3   OH225148   3.089   6.476   5.216 -0.1547 -0.4499 -0.7352
 8395TIP3    H125149   3.068   6.560   5.257  0.8256 -0.0158 -1.0923
 8395TIP3    H225150   3.069   6.411   5.283  1.2394  0.2340  0.3827
 8396TIP3   OH225151   1.992   6.226   4.829 -0.3128  0.5489 -0.1573
 8396TIP3    H125152   1.923   6.188   4.883 -0.1824 -0.1282 -0.4626
 8396TIP3    H225153   2.043   6.279   4.890 -0.5882  0.3516  0.2462
 8397TIP3   OH225154   5.482   3.971   1.122 -0.4526 -0.2757 -0.1165
 8397TIP3    H125155   5.423   3.900   1.146 -1.4192  0.1254 -1.1908
 8397TIP3    H225156   5.497   3.959   1.028 -0.5956  0.8864 -0.3087
 8398TIP3   OH225157   2.706   2.874   2.326 -0.1666  0.7979  0.5241
 8398TIP3    H125158   2.790   2.858   2.284 -0.0851 -0.0032  0.9784
 8398TIP3    H225159   2.728   2.924   2.405 -0.1660  0.9803  0.4090
 8399TIP3   OH225160   3.323   0.737   3.300  0.4498 -0.2180  0.7898
 8399TIP3    H125161   3.295   0.732   3.391  0.3417 -0.3362  0.7491
 8399TIP3    H225162   3.344   0.830   3.286  2.4971 -0.5116  1.5460
 8400TIP3   OH225163   5.329   3.679   5.597  0.6017  0.1611 -0.1365
 8400TIP3    H125164   5.325   3.632   5.681  0.6512  0.2455 -0.0862
 8400TIP3    H225165   5.256   3.741   5.601 -0.6142 -1.1481 -0.9657
 8401TIP3   OH225166   5.471   5.474   0.862 -0.0096 -0.3740 -0.0540
 8401TIP3    H125167   5.460   5.527   0.783 -2.8976 -1.3280 -0.4154
 8401TIP3    H225168   5.525   5.400   0.834 -1.7808 -1.2113 -1.5106
 8402TIP3   OH225169   0.101   3.215   0.699  0.1279 -0.3510  0.1418
 8402TIP3    H125170   0.165   3.187   0.633 -0.9711 -2.8103  0.0251
 8402TIP3    H225171   0.154   3.230   0.778  1.3581  1.8866 -0.9870
 8403TIP3   OH225172   5.806   6.277   4.341  0.4621 -0.5630 -0.2536
 8403TIP3    H125173   5.832   6.192   4.306  1.8973 -1.0390  1.8102
 8403TIP3    H225174   5.724   6.260   4.388 -0.1395 -0.4249 -1.2174
 8404TIP3   OH225175   5.265   3.270   3.642 -0.3317  0.9372 -0.1162
 8404TIP3    H125176   5.273   3.201   3.575  0.8558 -1.1899  2.0735
 8404TIP3    H225177   5.339   3.329   3.625  0.2762  0.1180 -0.3833
 8405TIP3   OH225178   4.952   4.674   0.753 -0.2157  0.3461  0.3105
 8405TIP3    H125179   5.029   4.628   0.718 -0.1855  0.3434  0.3800
 8405TIP3    H225180   4.970   4.766   0.735  0.4722  0.4841  1.6045
 8406TIP3   OH225181   1.476   3.140   5.292  0.4742 -0.5130 -0.6710
 8406TIP3    H125182   1.405   3.174   5.238  0.1664  0.9989  0.6192
 8406TIP3    H225183   1.432   3.101   5.368  0.9487 -1.6660 -0.9631
 8407TIP3   OH225184   7.007   3.789   2.182  0.3829  0.3796  0.2348
 8407TIP3    H125185   6.925   3.816   2.223  0.1069  0.3692 -0.2971
 8407TIP3    H225186   7.009   3.837   2.099  1.1972  0.8193  0.4999
 8408TIP3   OH225187   2.347   3.018   2.876  0.0377  0.2801 -0.2138
 8408TIP3    H125188   2.356   3.009   2.971 -1.0212  1.0453 -0.0178
 8408TIP3    H225189   2.354   3.112   2.860  1.3363  0.0633 -1.0450
 8409TIP3   OH225190   5.765   6.203   1.248  0.4659 -0.8238  0.1135
 8409TIP3    H125191   5.722   6.155   1.178 -1.2696 -1.6230  1.6419
 8409TIP3    H225192   5.857   6.208   1.221 -0.3788  0.3893 -2.9678
 8410TIP3   OH225193   2.201   4.363   2.054  0.2191 -0.0083  0.3480
 8410TIP3    H125194   2.125   4.306   2.065  0.2837  0.3493  3.6516
 8410TIP3    H225195   2.276   4.307   2.072  0.3332  0.7843  2.6549
 8411TIP3   OH225196   3.256   2.366   3.100  0.0696 -0.0032  0.5196
 8411TIP3    H125197   3.314   2.391   3.028 -0.0890  1.4379  0.8592
 8411TIP3    H225198   3.315   2.331   3.167  0.6304  1.6403  0.9470
 8412TIP3   OH225199   5.402   6.694   4.028 -0.8404 -0.7086  0.1607
 8412TIP3    H125200   5.365   6.726   4.110 -1.0176  0.5285 -0.3635
 8412TIP3    H225201   5.325   6.670   3.975 -0.8282  0.0787 -0.2360
 8413TIP3   OH225202   3.631   0.277   2.732 -0.3084 -0.0823 -0.1640
 8413TIP3    H125203   3.650   0.244   2.820 -4.0279 -0.2931  0.7343
 8413TIP3    H225204   3.635   0.200   2.676  1.9310  0.0281 -0.2467
 8414TIP3   OH225205   4.931   0.052   4.904  0.1647 -0.5993  0.2711
 8414TIP3    H125206   4.840   0.063   4.877  0.0816 -1.4279  0.1834
 8414TIP3    H225207   4.971   0.138   4.892 -0.0721 -0.7236 -1.7519
 8415TIP3   OH225208   5.753   3.653   3.281 -0.4573  0.0106 -0.4965
 8415TIP3    H125209   5.774   3.741   3.311  0.1275  0.1309 -1.2377
 8415TIP3    H225210   5.691   3.665   3.209  0.3507 -0.1237 -1.2280
 8416TIP3   OH225211   6.904   2.425   0.517 -0.1818 -0.3153 -0.0616
 8416TIP3    H125212   6.906   2.386   0.604 -1.9767 -1.7339 -0.5908
 8416TIP3    H225213   6.967   2.375   0.466  0.1644 -0.1147  0.1634
 8417TIP3   OH225214   7.035   5.095   3.505 -0.3302  0.2208 -0.4246
 8417TIP3    H125215   7.026   4.999   3.505  0.3026  0.1438 -1.5763
 8417TIP3    H225216   7.080   5.114   3.422 -0.9070  1.5575 -0.4409
 8418TIP3   OH225217   7.001   1.649   2.560 -0.0945 -0.0603 -0.2401
 8418TIP3    H125218   6.986   1.694   2.477 -0.3007 -0.4202 -0.4020
 8418TIP3    H225219   7.095   1.631   2.562  0.0107  0.4834 -0.1161
 8419TIP3   OH225220   3.419   0.318   2.397  0.3028 -0.8404  0.5474
 8419TIP3    H125221   3.392   0.357   2.480  0.3871 -0.2462  0.2983
 8419TIP3    H225222   3.337   0.296   2.352  0.0973  1.9942 -0.7104
 8420TIP3   OH225223   0.190   6.083   4.055  0.7658 -0.2499 -0.5519
 8420TIP3    H125224   0.172   6.175   4.074  0.9562 -0.1742 -0.7412
 8420TIP3    H225225   0.107   6.050   4.021  1.3155  0.4262 -2.6861
 8421TIP3   OH225226   6.530   0.436   0.800  0.1611  0.1099 -0.4347
 8421TIP3    H125227   6.601   0.375   0.779  0.5650  0.4711 -0.1261
 8421TIP3    H225228   6.545   0.460   0.891  0.5171  1.3318 -0.7973
 8422TIP3   OH225229   1.803   0.585   3.477 -0.1429  0.0257  0.4006
 8422TIP3    H125230   1.852   0.636   3.412 -1.1392  1.9725  1.0920
 8422TIP3    H225231   1.738   0.537   3.427 -0.0699  0.4987 -0.1549
 8423TIP3   OH225232   1.154   2.716   1.060 -0.0034  0.7180 -0.0052
 8423TIP3    H125233   1.142   2.680   0.972 -1.9220  1.6039 -0.1523
 8423TIP3    H225234   1.108   2.800   1.058  0.9001  1.2859  1.5234
 8424TIP3   OH225235   5.744   2.573   1.200  0.0565 -0.0703  0.3554
 8424TIP3    H125236   5.800   2.496   1.210  0.7365  0.1886 -1.0914
 8424TIP3    H225237   5.779   2.636   1.263  0.5649 -0.3676  0.3791
 8425TIP3   OH225238   1.902   5.050   0.767  0.2034  0.0155  0.3408
 8425TIP3    H125239   1.959   5.114   0.809 -0.9141  1.7144 -0.6146
 8425TIP3    H225240   1.857   5.006   0.839 -0.9204  2.1515  1.0157
 8426TIP3   OH225241   4.360   5.147   0.972  0.1084  0.4373 -0.1632
 8426TIP3    H125242   4.412   5.106   1.041 -0.0344 -1.5274 -1.1692
 8426TIP3    H225243   4.396   5.236   0.965  0.3209  0.6050  2.1789
 8427TIP3   OH225244   3.602   2.117   4.086  0.9780  0.1386 -0.4307
 8427TIP3    H125245   3.598   2.078   4.174  0.1492  2.1210  0.4600
 8427TIP3    H225246   3.636   2.046   4.031 -0.0713 -1.7010  1.1488
 8428TIP3   OH225247   0.457   4.117   2.671 -0.1249 -0.1553 -0.0409
 8428TIP3    H125248   0.545   4.081   2.657  0.2759  0.5983  0.4424
 8428TIP3    H225249   0.414   4.111   2.586  0.8905  0.7500 -0.6485
 8429TIP3   OH225250   6.244   0.564   3.423  0.3935  0.0933  0.2898
 8429TIP3    H125251   6.303   0.489   3.419  0.5469  0.2721 -1.5407
 8429TIP3    H225252   6.264   0.606   3.507  1.8255 -0.6773  0.3667
 8430TIP3   OH225253   0.343   6.770   2.151 -0.6726  0.1203  0.4557
 8430TIP3    H125254   0.382   6.825   2.084 -0.4631  1.0227  1.2886
 8430TIP3    H225255   0.261   6.739   2.112 -0.6898  0.8566 -0.1147
 8431TIP3   OH225256   0.252  -0.007   2.760  0.5139  0.0182 -0.4544
 8431TIP3    H125257   0.215   0.029   2.840 -0.4390  0.8188 -1.2235
 8431TIP3    H225258   0.267   0.070   2.705  0.9418 -0.5370 -1.1293
 8432TIP3   OH225259   0.546   1.118   3.631 -0.3493  0.1418 -0.0400
 8432TIP3    H125260   0.464   1.071   3.618 -0.6600  0.3963  0.8797
 8432TIP3    H225261   0.566   1.156   3.546 -2.1200  1.5344  0.0997
 8433TIP3   OH225262   4.850   3.168   2.280 -0.2261 -0.5369 -0.1523
 8433TIP3    H125263   4.760   3.147   2.302 -0.6652  2.8538  1.9557
 8433TIP3    H225264   4.845   3.213   2.196 -0.5383 -0.1625  0.0662
 8434TIP3   OH225265   0.619   1.653   2.565 -0.0146  0.3951 -0.3027
 8434TIP3    H125266   0.644   1.743   2.544 -0.6376  0.6813  0.1450
 8434TIP3    H225267   0.523   1.654   2.566 -0.1270 -0.8489 -2.7402
 8435TIP3   OH225268   6.020   4.518   3.466 -0.4748 -0.1593  0.3463
 8435TIP3    H125269   5.954   4.464   3.422 -0.8777 -0.1022  0.8609
 8435TIP3    H225270   6.017   4.602   3.420 -0.6008 -0.2318  0.2198
 8436TIP3   OH225271   1.810   0.748   0.565  0.4382 -0.4255  0.0541
 8436TIP3    H125272   1.773   0.776   0.649  0.6343 -1.1991  0.4084
 8436TIP3    H225273   1.799   0.824   0.507 -0.4907 -0.1830  0.5277
 8437TIP3   OH225274   1.300   5.187   2.740 -0.0371 -0.4727  0.4345
 8437TIP3    H125275   1.293   5.184   2.645 -0.4177 -0.1362  0.4454
 8437TIP3    H225276   1.292   5.096   2.768 -1.7054 -0.4305  0.2404
 8438TIP3   OH225277   6.996   0.514   3.519  0.5056 -0.3064  0.8554
 8438TIP3    H125278   6.930   0.461   3.564 -1.9396  0.6038 -1.4080
 8438TIP3    H225279   7.009   0.590   3.576  1.4554 -1.6067  2.4527
 8439TIP3   OH225280   1.476   0.672   0.322 -0.0429 -0.0920 -0.2931
 8439TIP3    H125281   1.451   0.592   0.277 -0.1347 -1.4406  1.9651
 8439TIP3    H225282   1.449   0.658   0.413 -0.1140  2.5372  0.1932
 8440TIP3   OH225283   3.015   0.115   2.571 -0.0043 -0.5321 -0.0403
 8440TIP3    H125284   2.970   0.031   2.574 -1.5804  0.3075  1.0622
 8440TIP3    H225285   3.105   0.095   2.597  0.1081 -2.1134 -1.4695
 8441TIP3   OH225286   4.010   3.082   3.297 -0.0205  0.1763 -0.0520
 8441TIP3    H125287   4.101   3.110   3.288  0.1094  0.0939  0.8992
 8441TIP3    H225288   3.967   3.153   3.345  0.6015 -1.6066  3.5581
 8442TIP3   OH225289   7.001   2.399   2.904  0.0771 -0.1648  0.7829
 8442TIP3    H125290   7.095   2.392   2.923  0.5179  1.1777 -0.7269
 8442TIP3    H225291   6.959   2.364   2.982  1.8261 -1.4095  1.2477
 8443TIP3   OH225292   1.033   5.037   1.140  0.1908  0.0892 -0.5379
 8443TIP3    H125293   1.099   5.061   1.075 -0.1943  0.4289 -0.8054
 8443TIP3    H225294   0.982   5.117   1.154  1.7912  0.7930  2.0244
 8444TIP3   OH225295   0.890   3.832   5.559 -0.0243  0.6252  0.3774
 8444TIP3    H125296   0.841   3.809   5.479  0.2157  0.4565  0.2762
 8444TIP3    H225297   0.902   3.748   5.603  1.1283  0.5008 -0.1445
 8445TIP3   OH225298   6.351   5.635   0.338  0.2952 -0.1134  0.3963
 8445TIP3    H125299   6.364   5.726   0.312 -1.6034 -0.1353 -0.7974
 8445TIP3    H225300   6.389   5.583   0.267  1.0302 -0.2727  0.8915
 8446TIP3   OH225301   2.657   1.476   2.783 -0.2273 -0.3208  0.3933
 8446TIP3    H125302   2.631   1.468   2.691 -0.2765 -0.8422  0.4494
 8446TIP3    H225303   2.719   1.549   2.784  0.0419 -0.5351 -0.1116
 8447TIP3   OH225304   0.121   0.078  -0.008 -0.4975  0.2888  0.4540
 8447TIP3    H125305   0.127   0.156   0.047 -1.5304  0.2955  0.5782
 8447TIP3    H225306   0.027   0.062  -0.017 -0.3079 -0.6923  0.0737
 8448TIP3   OH225307   4.892   4.122   0.804  0.2424 -0.2208  0.0458
 8448TIP3    H125308   4.869   4.168   0.724  0.2048 -1.5808 -0.7609
 8448TIP3    H225309   4.987   4.112   0.799  0.3238  0.2686  0.5091
 8449TIP3   OH225310   6.603   4.935   3.281 -0.0460 -0.2722 -0.1657
 8449TIP3    H125311   6.550   5.014   3.270  1.3066  0.6838 -0.0972
 8449TIP3    H225312   6.540   4.865   3.297 -1.2629  0.8267 -0.0437
 8450TIP3   OH225313   4.463   0.686   3.080  0.4474  0.3159 -0.5030
 8450TIP3    H125314   4.378   0.641   3.081 -1.3586  3.4257 -0.5752
 8450TIP3    H225315   4.527   0.616   3.086 -2.1432 -2.1161  1.8769
 8451TIP3   OH225316   1.676   1.075   2.999 -0.0333 -0.0869 -0.1391
 8451TIP3    H125317   1.714   1.096   2.914  0.4200 -1.7152 -0.3811
 8451TIP3    H225318   1.636   0.989   2.986 -0.6541 -0.0077  1.0924
 8452TIP3   OH225319   6.081   2.334   1.434  0.4196  0.2028  0.1466
 8452TIP3    H125320   6.118   2.258   1.479  3.1311  2.8750  2.9053
 8452TIP3    H225321   5.987   2.328   1.449  0.5809 -2.3113  0.6304
 8453TIP3   OH225322   0.724   3.121   3.325  0.2387  0.2191  0.2392
 8453TIP3    H125323   0.664   3.137   3.252  2.3505  1.8807 -1.2300
 8453TIP3    H225324   0.711   3.028   3.346 -2.9310  0.5400  0.1713
 8454TIP3   OH225325   6.827   1.973   3.858 -0.1598  0.6691 -0.4381
 8454TIP3    H125326   6.870   2.058   3.850  0.8718  0.1288 -0.7080
 8454TIP3    H225327   6.830   1.935   3.771  1.4632 -0.6192  0.1378
 8455TIP3   OH225328   0.728   1.817   1.489  0.4476 -0.2248  0.3651
 8455TIP3    H125329   0.701   1.853   1.573 -0.7117  1.1579 -0.5601
 8455TIP3    H225330   0.822   1.837   1.483  0.5380 -0.3451  1.3158
 8456TIP3   OH225331   1.693   6.302   3.171 -0.4370 -0.0517 -0.3819
 8456TIP3    H125332   1.669   6.223   3.219 -0.8739  0.5357  0.3826
 8456TIP3    H225333   1.620   6.317   3.111 -0.5823  0.0428 -0.1825
 8457TIP3   OH225334   4.161   2.355   3.314  0.1979  0.0370 -0.4103
 8457TIP3    H125335   4.151   2.448   3.293  1.5678 -0.0291 -1.4788
 8457TIP3    H225336   4.189   2.315   3.231  2.1874 -0.8710  0.6520
 8458TIP3   OH225337   5.218   4.727   4.217  0.0640  0.0744 -0.0790
 8458TIP3    H125338   5.276   4.766   4.151  0.3029  0.1444  0.1758
 8458TIP3    H225339   5.178   4.652   4.172  0.4224 -0.0315 -0.2214
 8459TIP3   OH225340   5.694   5.064   1.337 -0.0971  0.9204 -0.4055
 8459TIP3    H125341   5.743   5.092   1.414  0.7196  1.7586 -1.2050
 8459TIP3    H225342   5.602   5.065   1.365  0.2991 -0.8042  1.1560
 8460TIP3   OH225343   6.862   4.332   3.391 -0.1434 -0.1411  0.1525
 8460TIP3    H125344   6.854   4.324   3.486  0.4468 -3.2538  0.0399
 8460TIP3    H225345   6.836   4.247   3.357 -0.5046  0.9357 -2.5385
 8461TIP3   OH225346   5.577   6.434   3.342 -0.5447 -0.5480 -0.3990
 8461TIP3    H125347   5.581   6.408   3.250 -0.5568  1.3383 -0.9936
 8461TIP3    H225348   5.489   6.468   3.354 -0.2787  0.0167  0.0509
 8462TIP3   OH225349   3.445   2.584   0.160 -0.0051 -0.4504 -0.1434
 8462TIP3    H125350   3.497   2.602   0.082  1.7063 -0.7095  0.8722
 8462TIP3    H225351   3.387   2.512   0.135 -0.9981  0.8617 -1.7642
 8463TIP3   OH225352   0.132   1.867   4.502 -0.2385 -0.1461 -0.1530
 8463TIP3    H125353   0.200   1.806   4.472  0.6325 -0.7823  2.8203
 8463TIP3    H225354   0.179   1.947   4.522 -0.4188 -0.3991  1.3783
 8464TIP3   OH225355   4.536   6.223   0.077 -0.3413  0.1809  0.2602
 8464TIP3    H125356   4.565   6.161   0.010  1.6755  0.6619  0.6103
 8464TIP3    H225357   4.452   6.189   0.107  1.0458 -2.8697  1.0151
 8465TIP3   OH225358   6.996   2.871   0.817 -0.1989 -0.1928  0.0818
 8465TIP3    H125359   6.976   2.834   0.903 -0.2922 -0.1770  0.0670
 8465TIP3    H225360   7.089   2.893   0.821 -0.3402  0.3693  0.3862
 8466TIP3   OH225361   0.843   5.077   5.701 -0.2329  0.1896 -0.2917
 8466TIP3    H125362   0.776   5.069   5.768 -1.0789 -0.3674 -1.1883
 8466TIP3    H225363   0.923   5.098   5.750 -0.5654 -1.3703  0.9971
 8467TIP3   OH225364   1.235   5.410   3.346  0.1794  0.3338  0.1659
 8467TIP3    H125365   1.218   5.469   3.272 -0.8441  1.0579  0.9516
 8467TIP3    H225366   1.313   5.361   3.320 -0.8935 -0.3734 -1.9700
 8468TIP3   OH225367   0.964   5.517   2.945 -0.4240  0.2074 -0.5692
 8468TIP3    H125368   0.923   5.449   2.999 -1.5485  0.6481 -0.8269
 8468TIP3    H225369   0.915   5.515   2.863  0.0408  0.7964 -0.8644
 8469TIP3   OH225370   0.417   2.385   3.775 -0.5158 -0.0277  0.1013
 8469TIP3    H125371   0.491   2.442   3.796 -0.0707 -0.2690 -0.7652
 8469TIP3    H225372   0.365   2.436   3.712 -1.3189  0.3071  1.0147
 8470TIP3   OH225373   0.422   0.122   4.128  0.0636 -0.6758  0.6235
 8470TIP3    H125374   0.375   0.198   4.095  0.0997 -1.3907 -1.1577
 8470TIP3    H225375   0.440   0.143   4.220  0.2824  1.5582  0.1242
 8471TIP3   OH225376   1.057   0.169   1.271  0.3909  0.0044  0.0576
 8471TIP3    H125377   1.012   0.089   1.300 -0.0843  0.3010  0.1475
 8471TIP3    H225378   1.077   0.215   1.353 -0.3925  0.5433 -0.0529
 8472TIP3   OH225379   4.729   0.424   1.658  0.1786 -0.3369 -0.1496
 8472TIP3    H125380   4.670   0.389   1.725  0.7666 -0.6733  0.2148
 8472TIP3    H225381   4.791   0.352   1.642  0.3636 -0.0656 -0.6689
 8473TIP3   OH225382   6.179   4.339   0.752  0.2610 -0.7037 -0.5749
 8473TIP3    H125383   6.084   4.334   0.745  0.0004  0.6774  1.2390
 8473TIP3    H225384   6.195   4.388   0.832  2.5129 -0.5038 -1.0633
 8474TIP3   OH225385   0.715   4.520   3.075  0.6148 -0.1492  0.4815
 8474TIP3    H125386   0.699   4.428   3.097  0.7250  0.1457  1.9323
 8474TIP3    H225387   0.629   4.561   3.081  0.8148  0.1615  1.6703
 8475TIP3   OH225388   4.118   5.667   5.213 -0.2916 -0.0298  0.1572
 8475TIP3    H125389   4.096   5.580   5.179  0.5692  0.4572 -1.7697
 8475TIP3    H225390   4.213   5.666   5.224  0.0699  1.3494 -2.1392
 8476TIP3   OH225391   4.621   2.696   2.689 -0.3111  0.0734  0.0441
 8476TIP3    H125392   4.539   2.650   2.670 -0.6496  0.9769 -0.7182
 8476TIP3    H225393   4.597   2.788   2.689  0.5491  0.3060  0.6573
 8477TIP3   OH225394   0.986   4.425   2.495  0.4679  0.3562  0.7378
 8477TIP3    H125395   1.033   4.348   2.464  2.1479  2.0460 -1.2200
 8477TIP3    H225396   0.907   4.429   2.441  1.5993  1.2797 -0.9399
 8478TIP3   OH225397   0.200   5.514   3.705  0.0039 -0.0711 -0.1706
 8478TIP3    H125398   0.186   5.428   3.745 -0.1494 -0.1073 -0.2993
 8478TIP3    H225399   0.295   5.526   3.705 -0.0438  0.6182  1.6730
 8479TIP3   OH225400   1.200   3.409   5.674  0.2572  0.0322  0.2044
 8479TIP3    H125401   1.229   3.498   5.696  0.9788  0.3932 -1.9672
 8479TIP3    H225402   1.163   3.417   5.586  0.4316 -1.8368 -0.0724
 8480TIP3   OH225403   4.512   1.937   3.630  0.2790 -0.0134  0.3258
 8480TIP3    H125404   4.574   1.961   3.699  0.3936 -1.6532  0.8457
 8480TIP3    H225405   4.566   1.914   3.555  0.1319  3.7721 -1.1569
 8481TIP3   OH225406   1.982   5.681   4.566  0.7529 -0.6907  0.0467
 8481TIP3    H125407   1.915   5.637   4.513 -0.2123  0.4228  0.3188
 8481TIP3    H225408   2.058   5.623   4.559 -0.5245 -2.5406  0.5898
 8482TIP3   OH225409   2.060   1.461   2.743 -0.0809  0.8827  0.5259
 8482TIP3    H125410   2.133   1.412   2.706 -0.3392  1.4176 -0.7753
 8482TIP3    H225411   2.057   1.435   2.835  1.3638  0.4022  0.4638
 8483TIP3   OH225412   0.448   4.818   3.536  0.1764 -0.0022  0.1867
 8483TIP3    H125413   0.366   4.822   3.487  0.4574  2.0873 -0.2129
 8483TIP3    H225414   0.515   4.844   3.473  0.6603  1.8201  1.3542
 8484TIP3   OH225415   1.150   0.098   0.330  0.0927  0.2445  0.3527
 8484TIP3    H125416   1.084   0.094   0.399  0.0652  0.0414  0.3156
 8484TIP3    H225417   1.113   0.046   0.258  0.4317 -0.1400  0.4524
 8485TIP3   OH225418   5.783   6.302   1.898  0.2187  0.7962  0.1322
 8485TIP3    H125419   5.847   6.305   1.827  1.7645 -0.8091  1.3680
 8485TIP3    H225420   5.835   6.312   1.978 -0.9891 -0.9133  1.2051
 8486TIP3   OH225421   1.598   0.663   4.977  0.1105  0.3641  0.4538
 8486TIP3    H125422   1.595   0.603   4.902 -0.5296 -0.6946  1.2816
 8486TIP3    H225423   1.609   0.605   5.053  0.0037  1.3477  1.2408
 8487TIP3   OH225424   0.157   2.529   2.875 -0.2555 -1.1428 -1.0584
 8487TIP3    H125425   0.127   2.499   2.961 -0.3527  1.3949 -0.1125
 8487TIP3    H225426   0.196   2.452   2.835  0.3488 -2.2899  1.5075
 8488TIP3   OH225427   3.881   2.719   5.852 -0.0998 -0.1949 -0.1031
 8488TIP3    H125428   3.921   2.699   5.936  0.4319 -2.5545 -0.8634
 8488TIP3    H225429   3.826   2.643   5.831 -1.0405  0.7808 -1.4352
 8489TIP3   OH225430   5.993   0.846   5.472  1.0426 -0.1647 -0.9352
 8489TIP3    H125431   5.960   0.863   5.560  0.1625 -1.4421 -0.9870
 8489TIP3    H225432   6.004   0.751   5.468  0.6248 -0.1797 -2.3412
 8490TIP3   OH225433   3.942   4.122   2.716 -0.1320  0.2256  0.1878
 8490TIP3    H125434   4.005   4.068   2.668  0.4915  0.5227  0.6685
 8490TIP3    H225435   3.911   4.066   2.787  1.6435  0.9664  1.6065
 8491TIP3   OH225436   0.881   6.332   3.842  0.3865  0.2287  0.5250
 8491TIP3    H125437   0.933   6.266   3.887  0.8452  0.0307 -0.2633
 8491TIP3    H225438   0.809   6.283   3.803  0.4302  0.2698  0.3892
 8492TIP3   OH225439   0.536   5.327   3.477 -0.3818 -0.3449 -0.4836
 8492TIP3    H125440   0.490   5.315   3.394  0.7198 -2.5707 -0.8540
 8492TIP3    H225441   0.592   5.403   3.463 -0.3680 -0.5718 -1.7219
 8493TIP3   OH225442   2.257   0.039   1.812 -0.4508 -0.3396  0.6204
 8493TIP3    H125443   2.175   0.088   1.809 -2.0871 -2.8809 -0.6008
 8493TIP3    H225444   2.326   0.105   1.815 -2.5178  1.9213  0.7017
 8494TIP3   OH225445   0.240   6.770   5.063  0.2827  0.4060 -0.3610
 8494TIP3    H125446   0.163   6.824   5.077  0.6451  0.9943 -0.5901
 8494TIP3    H225447   0.268   6.745   5.151 -0.6130 -0.4633 -0.3082
 8495TIP3   OH225448   3.565   4.091   4.844 -0.2204 -0.1830  0.0540
 8495TIP3    H125449   3.540   4.153   4.913 -1.2958  0.8257 -1.1781
 8495TIP3    H225450   3.655   4.114   4.823 -0.2354  0.2069  0.3919
 8496TIP3   OH225451   2.065   5.068   2.879 -0.1742  0.4299  0.1540
 8496TIP3    H125452   2.122   5.071   2.956 -0.2895  2.2597  0.2319
 8496TIP3    H225453   1.978   5.050   2.915 -0.0032 -0.1117  0.2958
 8497TIP3   OH225454   0.938   0.773   1.196  0.1027  0.4452  0.2767
 8497TIP3    H125455   0.915   0.852   1.146 -2.3652 -0.1677  0.3318
 8497TIP3    H225456   0.905   0.701   1.142 -0.2711 -0.3714  1.5670
 8498TIP3   OH225457   5.684   5.523   4.349  0.4287 -0.0890  0.5109
 8498TIP3    H125458   5.732   5.447   4.382 -0.9252 -1.9512 -1.5394
 8498TIP3    H225459   5.626   5.488   4.282  0.2367  2.8834 -1.0498
 8499TIP3   OH225460   4.697   2.822   5.175 -0.5144 -0.4047  0.1549
 8499TIP3    H125461   4.715   2.815   5.081  0.3119  0.3749  0.2340
 8499TIP3    H225462   4.638   2.897   5.182  0.2991  0.2368  0.3378
 8500TIP3   OH225463   5.866   6.450   5.147  0.3334  0.1881  0.0368
 8500TIP3    H125464   5.826   6.465   5.233 -0.4635 -0.0537 -0.2791
 8500TIP3    H225465   5.793   6.457   5.085  0.8829  0.2740 -0.6152
 8501TIP3   OH225466   0.226   0.243   2.627 -0.0880 -0.6911 -0.3068
 8501TIP3    H125467   0.147   0.277   2.667  1.8200  2.1444  1.3819
 8501TIP3    H225468   0.247   0.305   2.557  3.0532  1.5787  2.3433
 8502TIP3   OH225469   6.149   1.006   2.196  0.0080 -0.3339  0.4961
 8502TIP3    H125470   6.117   0.985   2.284 -0.5807 -1.9923 -0.0759
 8502TIP3    H225471   6.203   0.930   2.172 -0.2979 -0.1602 -0.7790
 8503TIP3   OH225472   6.298   6.723   2.598 -0.3247 -0.1436 -0.0944
 8503TIP3    H125473   6.393   6.713   2.593  0.2208  3.2812  0.5000
 8503TIP3    H225474   6.265   6.681   2.518  1.9520  0.5450 -1.5118
 8504TIP3   OH225475   7.177   0.703   2.979  0.4002  0.7594 -0.5780
 8504TIP3    H125476   7.125   0.756   3.039 -2.3503 -1.5923 -0.6424
 8504TIP3    H225477   7.157   0.738   2.892 -1.7658 -0.5002 -0.6612
 8505TIP3   OH225478   3.331   1.652   3.459 -0.8153  0.2124 -0.3634
 8505TIP3    H125479   3.288   1.573   3.427 -1.1518 -0.1120  0.8187
 8505TIP3    H225480   3.419   1.649   3.422 -1.6999  0.7708 -2.6396
 8506TIP3   OH225481   6.314   4.069   1.283 -0.3647 -0.1330  0.3835
 8506TIP3    H125482   6.402   4.067   1.245 -0.8810  1.3973 -1.0818
 8506TIP3    H225483   6.327   4.088   1.375  0.8628 -1.0322  0.4133
 8507TIP3   OH225484   2.967   6.478   2.580 -0.3817 -0.4769 -0.5452
 8507TIP3    H125485   2.890   6.471   2.524 -0.8663 -3.6032  0.3093
 8507TIP3    H225486   3.024   6.406   2.552  0.2921 -0.8316  1.5559
 8508TIP3   OH225487   6.434   2.351   5.239  0.2749 -0.1289  0.7266
 8508TIP3    H125488   6.359   2.354   5.299  0.5912 -0.2204  1.1266
 8508TIP3    H225489   6.411   2.413   5.169  0.4448  0.9107  1.5676
 8509TIP3   OH225490   4.608   1.016   5.043  0.2828 -0.3686 -0.1047
 8509TIP3    H125491   4.703   1.018   5.051  0.4161 -1.1250 -1.1981
 8509TIP3    H225492   4.592   1.004   4.949 -0.9059  0.2585 -0.0052
 8510TIP3   OH225493   4.455   3.028   1.323  0.4420 -0.1210 -0.4069
 8510TIP3    H125494   4.519   2.956   1.321  1.0669  0.4023  0.3670
 8510TIP3    H225495   4.413   3.020   1.409 -2.3595 -1.9906 -1.7877
 8511TIP3   OH225496   4.972   4.427   1.122 -0.7177 -0.0866  0.4889
 8511TIP3    H125497   4.918   4.350   1.143  0.9884 -1.8790 -1.1844
 8511TIP3    H225498   5.047   4.420   1.181 -0.1948 -0.1618 -0.1682
 8512TIP3   OH225499   3.058   3.902   0.008 -0.1731  0.1872  0.1382
 8512TIP3    H125500   2.976   3.854  -0.002 -0.8305  1.0710  1.0971
 8512TIP3    H225501   3.032   3.994   0.006  0.8879  0.4921 -0.1970
 8513TIP3   OH225502   5.889   6.379   2.144  0.2967  0.1804  0.0898
 8513TIP3    H125503   5.833   6.393   2.220 -0.4453 -0.9730 -0.2138
 8513TIP3    H225504   5.941   6.459   2.137 -1.0498  1.1376  0.6001
 8514TIP3   OH225505   2.780   1.816   2.056 -0.7105 -0.1717 -0.0519
 8514TIP3    H125506   2.711   1.802   2.121 -1.3591  0.9738 -0.4465
 8514TIP3    H225507   2.840   1.743   2.068  0.1580  0.8991  3.0557
 8515TIP3   OH225508   2.029   1.447   3.025 -0.1057 -0.2635 -0.3472
 8515TIP3    H125509   1.976   1.374   3.059 -1.3309  0.6876 -0.1438
 8515TIP3    H225510   2.084   1.473   3.098 -1.3042  0.4736  0.3271
 8516TIP3   OH225511   1.385   3.628   4.258  0.2872 -0.1840  0.2843
 8516TIP3    H125512   1.308   3.572   4.269  0.6209 -0.4972  1.0990
 8516TIP3    H225513   1.460   3.569   4.269  0.6492  0.1582 -0.2816
 8517TIP3   OH225514   1.159   4.672   5.245  0.0235  0.0100 -0.7328
 8517TIP3    H125515   1.242   4.717   5.232  0.5178 -1.1658 -1.9326
 8517TIP3    H225516   1.174   4.584   5.209 -1.6648 -0.3043 -0.7336
 8518TIP3   OH225517   3.807   2.105   4.689  0.2486  0.2586  0.9166
 8518TIP3    H125518   3.761   2.139   4.612 -0.2706  0.5240  1.3365
 8518TIP3    H225519   3.803   2.176   4.752  0.4201 -0.0630  1.2901
 8519TIP3   OH225520   1.049   1.424   3.769  0.4971  0.1058 -0.3943
 8519TIP3    H125521   0.977   1.485   3.785 -0.6409 -1.1482 -0.5499
 8519TIP3    H225522   1.062   1.379   3.853 -0.5577 -1.3555 -0.9754
 8520TIP3   OH225523   6.517   5.568   4.121 -0.1582  0.0236  0.4278
 8520TIP3    H125524   6.465   5.647   4.137  0.4508  0.4780  0.2095
 8520TIP3    H225525   6.608   5.599   4.121  0.0292 -0.4794 -0.7703
 8521TIP3   OH225526   1.982   0.124   1.923 -1.0875 -0.4107 -0.5957
 8521TIP3    H125527   1.941   0.097   1.841 -2.3549  2.8992 -1.2376
 8521TIP3    H225528   1.968   0.219   1.926 -0.8752 -0.3374  3.3383
 8522TIP3   OH225529   5.399   2.115   1.085 -0.5346  0.3159 -0.5311
 8522TIP3    H125530   5.446   2.043   1.127 -0.5408  0.1994 -0.7195
 8522TIP3    H225531   5.388   2.086   0.994  0.1713  0.8918 -0.8146
 8523TIP3   OH225532   5.728   3.391   2.694  0.3614  0.4350  0.6142
 8523TIP3    H125533   5.709   3.298   2.707  0.2875  0.2510 -0.6967
 8523TIP3    H225534   5.670   3.436   2.755 -1.5321 -0.2946 -0.5655
 8524TIP3   OH225535   2.112   2.315   4.374 -0.0509  0.3070  0.7319
 8524TIP3    H125536   2.091   2.229   4.409  0.6881 -0.2919 -0.2179
 8524TIP3    H225537   2.034   2.342   4.326  0.1566 -0.4103 -0.0219
 8525TIP3   OH225538   5.527   3.208   5.224  0.2067 -0.1215  0.6586
 8525TIP3    H125539   5.585   3.225   5.150  0.0920 -1.0077  0.3469
 8525TIP3    H225540   5.538   3.283   5.282 -0.1736  0.9129 -0.5597
 8526TIP3   OH225541   3.957   1.113   0.637 -0.0134 -0.0132  0.1943
 8526TIP3    H125542   4.029   1.124   0.574  1.5163 -0.1858  1.8268
 8526TIP3    H225543   3.959   1.193   0.689  1.4986 -1.4930  2.6314
 8527TIP3   OH225544   5.574   1.732   3.894 -0.6156 -0.1841  0.9233
 8527TIP3    H125545   5.595   1.818   3.858 -0.3686 -0.3367  0.7101
 8527TIP3    H225546   5.597   1.670   3.826 -3.9215 -0.2438 -0.3436
 8528TIP3   OH225547   4.289   6.364   2.502  0.0383  0.4965 -0.0491
 8528TIP3    H125548   4.309   6.337   2.413 -0.2681  1.9796 -0.5980
 8528TIP3    H225549   4.358   6.426   2.525 -1.4931  2.4995 -0.4571
 8529TIP3   OH225550   5.196   1.771   3.860  0.4034 -0.3007 -0.2019
 8529TIP3    H125551   5.249   1.711   3.912 -0.6400 -1.7687 -0.7486
 8529TIP3    H225552   5.205   1.738   3.770  0.7018  1.0684 -0.7024
 8530TIP3   OH225553   3.565   1.551   3.630 -0.3087 -0.7500  0.0852
 8530TIP3    H125554   3.544   1.460   3.610  0.6847 -1.0350  0.2984
 8530TIP3    H225555   3.587   1.590   3.546 -2.0021 -0.3372 -0.2074
 8531TIP3   OH225556   5.751   3.641   2.467  0.3404  0.1046 -0.3480
 8531TIP3    H125557   5.722   3.578   2.533 -1.1731  1.1873  0.0813
 8531TIP3    H225558   5.800   3.589   2.404  0.6434 -1.1861  0.9000
 8532TIP3   OH225559   4.978   1.075   2.717  0.2633  0.0929 -0.1871
 8532TIP3    H125560   5.073   1.069   2.709  0.1499 -0.8277 -1.2295
 8532TIP3    H225561   4.960   1.066   2.810  1.2473  1.3455  0.1467
 8533TIP3   OH225562   0.893   2.375   1.337  0.3837  0.6949 -0.2335
 8533TIP3    H125563   0.877   2.286   1.369  1.7726 -0.5869 -2.7661
 8533TIP3    H225564   0.823   2.392   1.274 -0.1056  1.6142  0.5209
 8534TIP3   OH225565   5.795   5.678   5.789 -0.1801  0.2080  0.0074
 8534TIP3    H125566   5.883   5.687   5.826  0.2830  1.9448 -1.3965
 8534TIP3    H225567   5.805   5.705   5.697 -1.6255 -2.2590 -0.9676
 8535TIP3   OH225568   0.818   4.497   0.117 -0.1876  0.0757  0.1801
 8535TIP3    H125569   0.893   4.555   0.131  0.9911 -1.3374  0.0517
 8535TIP3    H225570   0.757   4.517   0.187  0.6412  0.7788  0.7104
 8536TIP3   OH225571   1.447   3.935   1.430 -0.5570  0.1476  0.3302
 8536TIP3    H125572   1.444   3.993   1.506 -1.1609 -0.2492  0.6136
 8536TIP3    H225573   1.524   3.965   1.381 -0.4290  0.7064  0.8513
 8537TIP3   OH225574   1.606   3.766   2.093 -0.3172 -0.5515 -0.0455
 8537TIP3    H125575   1.515   3.747   2.115 -0.2669 -0.4408  0.2620
 8537TIP3    H225576   1.657   3.703   2.146 -0.2285 -0.8323 -0.4618
 8538TIP3   OH225577   5.290   2.288   4.877  0.2486  0.1649 -0.4222
 8538TIP3    H125578   5.288   2.246   4.963  0.8468 -0.0149 -0.4937
 8538TIP3    H225579   5.349   2.362   4.887 -0.8511  1.0525 -0.2801
 8539TIP3   OH225580   1.791   0.112   3.457 -0.8750  0.0076 -0.3020
 8539TIP3    H125581   1.867   0.159   3.492 -0.7892 -1.0546  1.0260
 8539TIP3    H225582   1.783   0.035   3.513 -2.5388 -0.2447 -0.8380
 8540TIP3   OH225583   2.988   1.202   2.290 -0.2497 -0.1570  0.3323
 8540TIP3    H125584   2.916   1.210   2.353 -1.8866  2.6206 -1.6470
 8540TIP3    H225585   3.065   1.233   2.338 -1.1473  0.5111  1.4151
 8541TIP3   OH225586   5.266   1.627   4.278  0.2112 -0.6073  0.5945
 8541TIP3    H125587   5.253   1.563   4.348  1.8903 -0.3272  1.2200
 8541TIP3    H225588   5.337   1.590   4.225  0.2162  0.0571  0.1246
 8542TIP3   OH225589   3.332   4.806   0.672  0.3522 -0.0139 -0.1538
 8542TIP3    H125590   3.389   4.734   0.698  1.3960  0.2369 -1.6185
 8542TIP3    H225591   3.386   4.861   0.615 -0.3257  2.1433  1.1816
 8543TIP3   OH225592   2.173   5.407   0.303  0.7353  0.5278 -0.1218
 8543TIP3    H125593   2.223   5.469   0.356  0.1324  0.3292  0.6995
 8543TIP3    H225594   2.204   5.321   0.331 -0.1934  0.3933  0.5634
 8544TIP3   OH225595   2.533   6.729   5.267 -0.6834 -0.5080  0.0716
 8544TIP3    H125596   2.538   6.649   5.320 -0.0073 -1.2230 -1.0336
 8544TIP3    H225597   2.460   6.713   5.207 -1.0821  0.0618  0.3984
 8545TIP3   OH225598   6.335   1.777   0.297 -0.8296  0.4015  0.3909
 8545TIP3    H125599   6.248   1.801   0.264 -0.5982  1.0001  0.1968
 8545TIP3    H225600   6.318   1.734   0.381 -1.3654 -0.2601 -0.0429
 8546TIP3   OH225601   4.114   6.308   3.911  0.0014 -0.1029 -0.6529
 8546TIP3    H125602   4.139   6.394   3.879  1.2732 -0.5363 -0.8950
 8546TIP3    H225603   4.018   6.309   3.913 -0.0045  1.7772  0.6368
 8547TIP3   OH225604   1.215   1.672   5.085  0.5528  0.0236  0.0267
 8547TIP3    H125605   1.122   1.648   5.082 -0.0325  2.1447 -0.2576
 8547TIP3    H225606   1.246   1.661   4.995  0.4369 -0.1984  0.0147
 8548TIP3   OH225607   1.809   1.582   5.226 -0.0667 -0.2061 -0.5787
 8548TIP3    H125608   1.721   1.590   5.189  0.5341 -0.1140 -2.0522
 8548TIP3    H225609   1.867   1.605   5.153  1.1448  1.3749  0.8197
 8549TIP3   OH225610   6.014   1.594   5.333  0.2684  0.0458 -0.8820
 8549TIP3    H125611   5.998   1.519   5.391  0.3637  1.4613  1.0715
 8549TIP3    H225612   6.080   1.562   5.271 -0.0345 -1.6164 -0.4088
 8550TIP3   OH225613   6.741   0.815   4.597  0.0873  0.0268  0.4183
 8550TIP3    H125614   6.801   0.888   4.582  0.8145 -0.3269  1.5361
 8550TIP3    H225615   6.797   0.740   4.617 -0.7085 -0.1152  2.3208
 8551TIP3   OH225616   4.452   5.597   4.744  0.2190 -0.6046  0.1025
 8551TIP3    H125617   4.476   5.687   4.723 -1.0571 -0.3977 -0.6100
 8551TIP3    H225618   4.512   5.571   4.814 -0.2563  1.2642  1.2841
 8552TIP3   OH225619   0.533   5.048   0.372  0.7247  0.0007 -0.1679
 8552TIP3    H125620   0.445   5.013   0.358  1.6369 -2.3412 -0.5569
 8552TIP3    H225621   0.536   5.068   0.466 -0.2754  0.2665 -0.1829
 8553TIP3   OH225622   1.199   6.300   5.694  0.3841  0.5806 -0.7565
 8553TIP3    H125623   1.268   6.352   5.735 -1.8288  2.6031  0.6018
 8553TIP3    H225624   1.144   6.364   5.649 -1.4643 -0.7675 -0.5239
 8554TIP3   OH225625   5.216   1.091   5.530  0.6097  0.3378  0.1264
 8554TIP3    H125626   5.226   1.139   5.612  0.6759  1.4472 -0.5134
 8554TIP3    H225627   5.142   1.032   5.547  0.5947  0.5767  0.9722
 8555TIP3   OH225628   6.214   1.778   5.039 -0.0081  0.6621 -0.4705
 8555TIP3    H125629   6.181   1.727   4.966 -0.5183  2.7900 -1.8000
 8555TIP3    H225630   6.136   1.809   5.085  0.2919 -1.3994  1.6246
 8556TIP3   OH225631   6.972   1.567   4.109 -0.2038 -0.1695 -1.0088
 8556TIP3    H125632   6.902   1.630   4.125  0.4569  0.3918 -0.2482
 8556TIP3    H225633   7.052   1.612   4.136  0.2035 -1.6022  0.3077
 8557TIP3   OH225634   4.233   6.628   4.186  0.6982 -0.4257  0.2377
 8557TIP3    H125635   4.311   6.647   4.238  1.8646  0.1128 -1.6293
 8557TIP3    H225636   4.263   6.567   4.119  0.0854  1.4539 -1.8430
 8558TIP3   OH225637   6.511   1.107   3.850 -0.0994  0.1219 -0.2126
 8558TIP3    H125638   6.509   1.122   3.945 -0.2149 -2.1719  0.1960
 8558TIP3    H225639   6.423   1.128   3.820 -0.6307 -0.9756  0.5281
 8559TIP3   OH225640   4.329   3.507   0.418 -0.2159  0.1995 -0.0350
 8559TIP3    H125641   4.249   3.553   0.394 -0.5743 -0.8722 -1.0131
 8559TIP3    H225642   4.396   3.544   0.360 -0.4663 -0.3634 -0.6999
 8560TIP3   OH225643   1.909   2.550   2.491 -0.0249 -0.0902 -0.1646
 8560TIP3    H125644   1.985   2.564   2.548 -1.0971  0.1104  1.2605
 8560TIP3    H225645   1.888   2.636   2.456  0.8914 -0.2778 -1.2700
 8561TIP3   OH225646   0.055   2.811   3.240 -0.3431 -0.0315 -0.0329
 8561TIP3    H125647   0.133   2.779   3.287  0.1420  0.7662 -0.2813
 8561TIP3    H225648   0.020   2.880   3.296 -1.1162 -0.6455  0.2673
 8562TIP3   OH225649   4.524   3.314   5.510 -0.2912  0.0515  0.2970
 8562TIP3    H125650   4.567   3.397   5.491  0.0192 -0.3106 -0.6502
 8562TIP3    H225651   4.590   3.264   5.559 -0.3071  0.1887  0.4579
 8563TIP3   OH225652   6.364   3.084   2.071 -0.0549 -0.1209  0.0401
 8563TIP3    H125653   6.310   3.097   1.993  0.1898 -0.9086 -0.2782
 8563TIP3    H225654   6.425   3.014   2.045  0.7349  0.3591  0.5790
 8564TIP3   OH225655   0.225   6.250   2.621 -0.0144 -0.4221  0.3682
 8564TIP3    H125656   0.218   6.281   2.531  1.6031 -1.4162 -0.1298
 8564TIP3    H225657   0.265   6.163   2.615 -1.0674 -1.0818  1.9666
 8565TIP3   OH225658   1.724   2.661   2.069 -0.0765 -0.4113  0.5319
 8565TIP3    H125659   1.747   2.605   1.994  0.6170  0.6313 -0.0716
 8565TIP3    H225660   1.690   2.741   2.029 -0.2823 -0.0811  1.3536
 8566TIP3   OH225661   6.546   4.946   2.390  0.1472 -0.0919 -0.3249
 8566TIP3    H125662   6.564   4.855   2.368  0.5446  0.1403 -0.9972
 8566TIP3    H225663   6.484   4.975   2.323 -0.6345 -0.0967  0.3746
 8567TIP3   OH225664   2.214   4.379   0.948  0.5061 -0.2281  0.7104
 8567TIP3    H125665   2.130   4.370   0.994 -0.5915  0.4747 -1.0142
 8567TIP3    H225666   2.249   4.463   0.978 -0.2157  0.2453  0.2746
 8568TIP3   OH225667   1.529   3.071   0.311  0.1231  0.1330  0.3250
 8568TIP3    H125668   1.521   3.077   0.216  2.1365  0.6786  0.1350
 8568TIP3    H225669   1.592   3.000   0.325  2.6959  2.3581  1.0022
 8569TIP3   OH225670   1.602   1.992   2.537 -0.5373 -0.2925 -0.2718
 8569TIP3    H125671   1.631   2.038   2.616 -0.3801  0.9432 -1.0240
 8569TIP3    H225672   1.669   1.926   2.522 -0.7585 -0.7917  0.8262
 8570TIP3   OH225673   1.006   3.779   0.404  0.0639  0.1016  0.0246
 8570TIP3    H125674   0.965   3.749   0.323  0.7504 -0.3766 -0.1551
 8570TIP3    H225675   1.088   3.819   0.377 -0.5130  1.5366  0.3389
 8571TIP3   OH225676   2.106   3.358   0.051  0.5533 -0.3549 -0.0931
 8571TIP3    H125677   2.195   3.325   0.051  0.4276 -0.7958 -1.5499
 8571TIP3    H225678   2.051   3.279   0.050  0.1660 -0.0924  0.2133
 8572TIP3   OH225679   5.377   4.731   3.674  0.1419  0.1649  0.2508
 8572TIP3    H125680   5.378   4.680   3.755 -1.8669 -0.2459  0.0688
 8572TIP3    H225681   5.457   4.783   3.678  1.0392 -1.2252  1.5853
 8573TIP3   OH225682   5.784   5.101   4.740 -1.0175  0.3162  0.5068
 8573TIP3    H125683   5.735   5.030   4.698 -0.4775  0.2726 -0.0796
 8573TIP3    H225684   5.744   5.181   4.707 -0.1497  0.2903 -0.6852
 8574TIP3   OH225685   5.124   0.402   5.747 -0.8331  1.1024  0.4959
 8574TIP3    H125686   5.058   0.374   5.684 -0.6557 -0.2692  0.8855
 8574TIP3    H225687   5.145   0.322   5.797  2.1965  1.0763 -0.5924
 8575TIP3   OH225688   0.031   2.755   1.013  0.1480 -0.1464  0.2037
 8575TIP3    H125689   0.090   2.818   0.971  0.6145  1.3995  2.9415
 8575TIP3    H225690  -0.041   2.807   1.048 -1.8425 -1.7581 -1.2498
 8576TIP3   OH225691   2.108   5.230   5.327  0.0441 -0.2032 -0.0305
 8576TIP3    H125692   2.126   5.180   5.247 -0.4134 -0.2104 -0.1322
 8576TIP3    H225693   2.189   5.278   5.344  1.5425 -3.1047  1.6731
 8577TIP3   OH225694   6.387   3.239   2.776 -0.1593 -0.2291  0.0553
 8577TIP3    H125695   6.438   3.301   2.724 -0.4439 -1.1179 -1.3550
 8577TIP3    H225696   6.417   3.153   2.747 -2.0140 -0.7746 -0.4002
 8578TIP3   OH225697   2.996   3.799   5.018 -0.0499  0.2139 -0.2513
 8578TIP3    H125698   2.965   3.747   4.944 -0.2550 -0.0601  0.0246
 8578TIP3    H225699   3.085   3.767   5.034 -0.9653 -1.7419  1.4060
 8579TIP3   OH225700   2.166   4.525   4.125  0.4114  0.3242  0.0067
 8579TIP3    H125701   2.242   4.483   4.086  2.3080  3.6573 -0.2623
 8579TIP3    H225702   2.097   4.518   4.058  0.5005 -2.3179  0.0696
 8580TIP3   OH225703   6.598   5.136   0.917 -0.1168 -0.0470 -0.3680
 8580TIP3    H125704   6.670   5.197   0.898 -0.9096  0.6085 -1.3691
 8580TIP3    H225705   6.561   5.168   0.999  1.2917 -0.9605  0.6877
 8581TIP3   OH225706   2.997   2.946   2.538  0.0457 -0.8957 -0.2267
 8581TIP3    H125707   2.990   2.860   2.497 -2.7208 -0.1471 -1.5062
 8581TIP3    H225708   2.921   2.952   2.596 -1.0583  1.4252 -1.7632
 8582TIP3   OH225709   2.409   6.595   3.846  0.5131  0.4212 -0.4429
 8582TIP3    H125710   2.431   6.667   3.905  0.5430  1.0189 -1.1763
 8582TIP3    H225711   2.422   6.516   3.899 -0.0167  0.9637  0.5270
 8583TIP3   OH225712   2.361   3.119   3.155  0.2403 -0.0889  0.1599
 8583TIP3    H125713   2.308   3.066   3.215 -1.7900 -1.3154 -2.4927
 8583TIP3    H225714   2.315   3.203   3.150  0.4253  0.0235  0.3302
 8584TIP3   OH225715   6.628   6.408   2.917  0.0092 -0.0731 -0.6314
 8584TIP3    H125716   6.617   6.503   2.913  0.9016  0.2551  2.4899
 8584TIP3    H225717   6.567   6.379   2.985  1.8528 -1.2709  0.6119
 8585TIP3   OH225718   1.774   0.911   4.503  0.5084  0.2079 -0.5913
 8585TIP3    H125719   1.828   0.983   4.469 -0.9514  1.5419 -0.2038
 8585TIP3    H225720   1.787   0.914   4.597 -0.9048  1.1572 -0.3941
 8586TIP3   OH225721   1.753   2.075   5.012  0.7651 -0.4567  0.5096
 8586TIP3    H125722   1.804   2.117   5.081 -1.4693  0.6409  1.5968
 8586TIP3    H225723   1.724   1.992   5.050 -1.9637  0.9274  1.7111
 8587TIP3   OH225724   1.125   3.954   5.584  0.3266  0.6619  0.5386
 8587TIP3    H125725   1.151   4.039   5.548 -0.0192  0.4388 -0.2649
 8587TIP3    H225726   1.039   3.936   5.545  0.6958 -0.3632  0.1360
 8588TIP3   OH225727   1.945   4.753   0.236 -0.2524  0.3621  0.2385
 8588TIP3    H125728   2.011   4.816   0.264  1.7185 -1.7160  0.5566
 8588TIP3    H225729   1.904   4.723   0.318  1.3099 -1.3046  0.4645
 8589TIP3   OH225730   2.304   2.740   3.057  0.7046  0.8185 -0.2538
 8589TIP3    H125731   2.328   2.722   3.148 -0.6183  2.5795  0.5027
 8589TIP3    H225732   2.237   2.675   3.036 -0.9221  2.0121  0.9865
 8590TIP3   OH225733   1.341   0.614   3.519  0.1272 -0.1232  0.2519
 8590TIP3    H125734   1.385   0.544   3.470 -0.3412 -1.8455  2.1731
 8590TIP3    H225735   1.412   0.661   3.562  0.9022  3.3334 -4.0876
 8591TIP3   OH225736   3.559   5.705   3.574 -0.4230 -0.0838  0.5941
 8591TIP3    H125737   3.635   5.713   3.517 -1.0613 -0.7478 -0.3686
 8591TIP3    H225738   3.592   5.659   3.652 -0.2238 -2.2054 -0.6567
 8592TIP3   OH225739   4.882   4.867   2.424 -0.2496 -0.0851  0.4800
 8592TIP3    H125740   4.919   4.797   2.370 -0.2233  0.4155 -0.1581
 8592TIP3    H225741   4.844   4.821   2.499 -3.4408 -1.1684 -1.6257
 8593TIP3   OH225742   0.025   4.384   3.036 -0.1480 -0.0050 -0.3047
 8593TIP3    H125743   0.115   4.359   3.057 -1.1220 -1.6635  2.5024
 8593TIP3    H225744  -0.029   4.316   3.077 -2.7382  1.7954 -0.4611
 8594TIP3   OH225745   7.002   1.013   5.630  0.0518 -0.4370  0.8535
 8594TIP3    H125746   6.939   1.083   5.610 -1.1860 -1.8667 -0.4672
 8594TIP3    H225747   7.035   0.986   5.545  1.7798 -0.3784  1.4702
 8595TIP3   OH225748   2.947   6.326   4.817  0.4065  0.0655  0.2251
 8595TIP3    H125749   2.873   6.272   4.791  0.7863 -0.3450 -0.0274
 8595TIP3    H225750   3.007   6.265   4.861  0.8803  0.2601 -0.1434
 8596TIP3   OH225751   3.139   4.343   3.474  0.1680 -0.1672 -0.1019
 8596TIP3    H125752   3.154   4.437   3.479 -0.8169 -0.0747  1.9794
 8596TIP3    H225753   3.204   4.306   3.534  0.9383 -0.9108 -1.3380
 8597TIP3   OH225754   3.610   4.135   3.353 -0.0000 -0.1851  0.4153
 8597TIP3    H125755   3.595   4.230   3.344 -0.4130 -0.2533  0.3329
 8597TIP3    H225756   3.522   4.099   3.362 -0.0656 -0.8130 -2.0324
 8598TIP3   OH225757   0.070   2.964   0.846  0.3394 -0.3450 -0.0791
 8598TIP3    H125758   0.046   3.040   0.794 -1.0456 -0.7059  0.0026
 8598TIP3    H225759   0.166   2.962   0.843  0.3737  1.1488 -0.4118
 8599TIP3   OH225760   5.248   5.078   2.703  0.1770  0.5244  0.0908
 8599TIP3    H125761   5.318   5.048   2.761 -0.5763  0.9869  1.2785
 8599TIP3    H225762   5.227   5.166   2.735  0.7632  1.4358 -1.8469
 8600TIP3   OH225763   4.335   4.069   3.279 -0.2089  0.1088  0.3533
 8600TIP3    H125764   4.351   3.979   3.309  1.0822 -0.3586 -1.5455
 8600TIP3    H225765   4.334   4.062   3.184  0.1573  2.1558  0.1617
 8601TIP3   OH225766   0.431   6.815   5.618  0.4074  0.8037 -0.6540
 8601TIP3    H125767   0.472   6.817   5.704 -0.0882 -0.1783 -0.3768
 8601TIP3    H225768   0.424   6.722   5.597 -1.0803  0.9527 -0.9756
 8602TIP3   OH225769   5.373   5.652   3.750  0.1269  0.5175  0.1297
 8602TIP3    H125770   5.414   5.650   3.836  0.2403 -2.0272  0.0963
 8602TIP3    H225771   5.279   5.657   3.769  0.1492 -0.0421  0.4408
 8603TIP3   OH225772   2.091   3.540   5.143 -0.1082  0.2079 -0.7245
 8603TIP3    H125773   2.177   3.581   5.157 -0.9351  1.8112 -0.1443
 8603TIP3    H225774   2.095   3.505   5.054  1.0839  0.3911 -0.7593
 8604TIP3   OH225775   0.374   1.705   5.350  0.0830 -0.1979  0.6689
 8604TIP3    H125776   0.285   1.669   5.346 -1.2774  2.8852 -0.2305
 8604TIP3    H225777   0.369   1.774   5.416  1.1327  1.5657 -1.0039
 8605TIP3   OH225778   1.645   5.322   3.054 -0.4432 -0.4524  0.1012
 8605TIP3    H125779   1.660   5.415   3.072  0.6930 -0.1243 -2.2401
 8605TIP3    H225780   1.715   5.277   3.100  1.6206  0.2506 -2.1833
 8606TIP3   OH225781   0.950   0.067   4.521 -0.1970  0.2991 -0.0702
 8606TIP3    H125782   1.031   0.117   4.535 -0.2277  0.0054  1.2735
 8606TIP3    H225783   0.900   0.120   4.460  0.4618  1.1271  0.0802
 8607TIP3   OH225784   4.418   2.453   5.189  0.5186 -0.1409 -0.2095
 8607TIP3    H125785   4.380   2.521   5.134 -1.0993 -1.4420 -0.7908
 8607TIP3    H225786   4.432   2.495   5.273 -0.4130  0.9252 -0.5595
 8608TIP3   OH225787   0.306   6.226   0.139 -0.1929 -0.0702 -0.3290
 8608TIP3    H125788   0.331   6.275   0.217 -1.7872  0.8214 -0.3288
 8608TIP3    H225789   0.379   6.166   0.123  0.4027  0.1035  1.5226
 8609TIP3   OH225790   2.817   6.525   5.290  0.2449  0.3059  0.2559
 8609TIP3    H125791   2.874   6.452   5.270  0.1550  0.1537  0.5509
 8609TIP3    H225792   2.804   6.570   5.206 -1.3059 -1.1572 -0.3527
 8610TIP3   OH225793   1.322   6.333   0.069  0.9151  0.5507  0.0536
 8610TIP3    H125794   1.276   6.281   0.004  0.3318 -2.0947  2.3915
 8610TIP3    H225795   1.261   6.340   0.142  2.4452  1.1873  1.3220
 8611TIP3   OH225796   6.446   5.174   3.609  0.5215 -0.3438 -0.0530
 8611TIP3    H125797   6.368   5.228   3.621  0.4292 -0.7114  1.1131
 8611TIP3    H225798   6.512   5.212   3.667  0.1801 -1.9704  1.5012
 8612TIP3   OH225799   6.662   0.937   5.566  0.0429 -0.1728  0.1287
 8612TIP3    H125800   6.685   1.009   5.507  0.8534  1.0686  1.8386
 8612TIP3    H225801   6.576   0.961   5.601  0.8046  0.6258  1.5618
 8613TIP3   OH225802   6.446   3.213   1.354 -0.7924 -0.2619 -0.2644
 8613TIP3    H125803   6.428   3.297   1.312 -1.1387 -0.7347 -1.0956
 8613TIP3    H225804   6.521   3.230   1.411 -0.8150  0.5876 -0.4671
 8614TIP3   OH225805   6.638   3.967   3.856  1.0463  0.6996  0.3075
 8614TIP3    H125806   6.688   3.903   3.906 -1.3476 -1.8339 -0.2946
 8614TIP3    H225807   6.655   3.944   3.764 -0.3610  0.4361  0.0913
 8615TIP3   OH225808   1.107   3.354   1.031  0.6511  0.1162  0.4821
 8615TIP3    H125809   1.019   3.368   1.066  0.0881 -2.6637  0.3899
 8615TIP3    H225810   1.112   3.412   0.955 -1.5348 -0.4561 -0.1657
 8616TIP3   OH225811   1.678   3.720   1.292 -0.3418 -0.1144  0.2237
 8616TIP3    H125812   1.611   3.684   1.234 -3.0861  3.7509  0.6445
 8616TIP3    H225813   1.660   3.679   1.377 -1.2682 -0.2152 -0.0062
 8617TIP3   OH225814   3.663   4.865   3.496  0.0830 -0.5937  0.2310
 8617TIP3    H125815   3.629   4.916   3.570 -2.5707 -0.0198 -1.2285
 8617TIP3    H225816   3.626   4.777   3.509 -0.0018 -0.6173 -0.1646
 8618TIP3   OH225817   4.347   5.940   2.062  0.3822 -0.6677  0.5146
 8618TIP3    H125818   4.431   5.896   2.078 -0.3763 -2.1731  0.5170
 8618TIP3    H225819   4.332   5.993   2.140  0.5033 -1.7627  1.2968
 8619TIP3   OH225820   3.509   1.286   5.400  0.0051  0.1375 -0.0755
 8619TIP3    H125821   3.417   1.263   5.386  0.0687 -0.7688  0.9124
 8619TIP3    H225822   3.519   1.371   5.356 -1.3493  0.3406 -0.0359
 8620TIP3   OH225823   3.128   3.003   2.242 -0.0883 -0.2606 -0.0267
 8620TIP3    H125824   3.076   2.961   2.311  0.2275  0.4206  0.6439
 8620TIP3    H225825   3.213   2.959   2.247 -0.1903 -0.4790 -0.2397
 8621TIP3   OH225826   7.113   5.292   5.765 -0.1506 -0.5342 -0.2209
 8621TIP3    H125827   7.151   5.286   5.852 -0.7235 -1.4582 -0.0314
 8621TIP3    H225828   7.104   5.386   5.750  1.1297 -0.3219  0.1867
 8622TIP3   OH225829   0.034   6.544   3.694  0.5211 -0.2512  0.1250
 8622TIP3    H125830  -0.037   6.590   3.649 -0.2345  0.5289  2.0166
 8622TIP3    H225831   0.107   6.607   3.693 -0.0507  0.4712  1.4425
 8623TIP3   OH225832   6.143   6.626   1.864  0.4520  0.0048  0.7040
 8623TIP3    H125833   6.072   6.602   1.804  1.7858 -2.9719  0.0963
 8623TIP3    H225834   6.185   6.701   1.823 -1.1266  0.5753  0.0553
 8624TIP3   OH225835   5.119   2.392   1.926  0.1768  0.1979 -0.0820
 8624TIP3    H125836   5.147   2.316   1.876 -3.8948 -0.7264 -1.3473
 8624TIP3    H225837   5.047   2.429   1.875  0.2768  3.3853  1.8088
 8625TIP3   OH225838   0.639   1.469   0.088 -0.3226  0.4063  0.0721
 8625TIP3    H125839   0.586   1.525   0.031 -2.6895 -1.3803  0.3591
 8625TIP3    H225840   0.693   1.417   0.029 -2.0190 -0.7087 -0.5762
 8626TIP3   OH225841   1.231   0.760   4.615 -0.5218  0.0332 -0.7319
 8626TIP3    H125842   1.171   0.728   4.549 -0.4705 -0.3867 -0.5764
 8626TIP3    H225843   1.202   0.850   4.633 -0.0672  0.4193 -1.8702
 8627TIP3   OH225844   7.049   3.368   0.752  0.6098  0.6367  0.1792
 8627TIP3    H125845   6.987   3.382   0.680 -0.4898  2.5105  1.4202
 8627TIP3    H225846   7.130   3.341   0.708 -0.7249 -0.7983 -1.5575
 8628TIP3   OH225847   5.902   1.249   3.525  0.2911  0.0207 -0.6696
 8628TIP3    H125848   5.908   1.162   3.485 -0.2064  0.4439 -1.6894
 8628TIP3    H225849   5.925   1.309   3.454 -1.9128  0.8734 -0.7339
 8629TIP3   OH225850   1.354   1.275   2.511 -0.0508 -0.1081 -0.2506
 8629TIP3    H125851   1.306   1.342   2.461  0.4297  1.1891  0.9754
 8629TIP3    H225852   1.434   1.260   2.461  0.1354  0.7177 -0.2085
 8630TIP3   OH225853   4.744   6.607   1.155 -0.4054  0.4736  0.4751
 8630TIP3    H125854   4.739   6.549   1.079  0.3519  0.3688  0.4980
 8630TIP3    H225855   4.826   6.583   1.198  1.0254  2.9307 -0.6429
 8631TIP3   OH225856   4.903   4.840   3.983  0.2742  0.1108  0.1548
 8631TIP3    H125857   4.971   4.897   3.947  0.4105  0.1266  0.4328
 8631TIP3    H225858   4.893   4.869   4.074 -0.0139  0.0243  0.1509
 8632TIP3   OH225859   0.313   0.119   5.569  0.0674  0.0738 -0.9658
 8632TIP3    H125860   0.401   0.127   5.606  0.3364 -1.6896 -1.1194
 8632TIP3    H225861   0.320   0.159   5.482  0.8179 -0.3500 -1.1062
 8633TIP3   OH225862   7.001   0.141   0.859 -0.8316 -0.5933 -0.4236
 8633TIP3    H125863   6.913   0.106   0.842  0.1093 -2.5328 -1.5681
 8633TIP3    H225864   6.987   0.234   0.875 -3.3093 -1.1475  1.2542
 8634TIP3   OH225865   4.048   4.082   0.465 -0.0273  0.0474  0.5281
 8634TIP3    H125866   4.005   4.168   0.466 -0.3519  0.1212 -3.6013
 8634TIP3    H225867   3.976   4.020   0.454  0.3361 -0.6980  2.0943
 8635TIP3   OH225868   3.603   0.726   3.620 -0.1948  0.0196 -0.0246
 8635TIP3    H125869   3.656   0.767   3.688 -0.3110  0.1023  0.0178
 8635TIP3    H225870   3.515   0.722   3.658  0.2844 -2.6688  1.0316
 8636TIP3   OH225871   6.162   4.373   4.972  0.1292  0.2458  0.4180
 8636TIP3    H125872   6.129   4.462   4.962 -3.6157 -1.0708 -0.6472
 8636TIP3    H225873   6.199   4.352   4.886 -0.9891  0.1117 -0.0506
 8637TIP3   OH225874   7.130   2.374   5.274  0.0891 -0.3832 -0.3836
 8637TIP3    H125875   7.217   2.414   5.269  0.0718 -0.0154  1.5034
 8637TIP3    H225876   7.070   2.447   5.257  0.0956  0.1945  1.7726
 8638TIP3   OH225877   3.026   3.397   5.877 -0.0579  0.2219 -0.4113
 8638TIP3    H125878   3.096   3.437   5.930 -1.1005 -0.1497  1.3341
 8638TIP3    H225879   3.008   3.461   5.809 -0.8486  2.2479  1.5737
 8639TIP3   OH225880   2.773   4.991   0.485  0.4301 -0.5522  0.2653
 8639TIP3    H125881   2.802   4.908   0.523 -0.2942 -0.9728 -0.0826
 8639TIP3    H225882   2.702   5.020   0.542 -0.2161 -0.8516 -0.3825
 8640TIP3   OH225883   0.987   3.643   4.065  0.0986  0.2970 -0.4177
 8640TIP3    H125884   1.065   3.697   4.052  0.5886 -0.3706 -0.3480
 8640TIP3    H225885   0.926   3.700   4.112  1.1241  0.3825  0.8975
 8641TIP3   OH225886   3.504   5.571   3.126  0.0208 -0.6242 -0.1097
 8641TIP3    H125887   3.470   5.538   3.043 -0.0087 -1.2495  0.1480
 8641TIP3    H225888   3.432   5.556   3.188  0.8149 -2.1653  0.4925
 8642TIP3   OH225889   6.275   1.565   2.441  0.4202  0.6443 -0.0508
 8642TIP3    H125890   6.320   1.607   2.368  1.7507 -0.1714  0.2607
 8642TIP3    H225891   6.270   1.633   2.508  2.2742  0.4567  0.3337
 8643TIP3   OH225892   6.328   1.899   5.467  0.6784  0.5606 -0.2585
 8643TIP3    H125893   6.413   1.925   5.431  1.3510 -0.6350  0.4307
 8643TIP3    H225894   6.348   1.855   5.549 -0.7316  1.7006  0.7652
 8644TIP3   OH225895   1.203   1.507   1.451  0.5802 -0.8249  0.1760
 8644TIP3    H125896   1.259   1.438   1.484  1.9500  0.9940  1.8854
 8644TIP3    H225897   1.263   1.575   1.419 -0.6661  0.2219 -0.0603
 8645TIP3   OH225898   1.942   3.453   4.748  0.9811 -0.3834 -0.1426
 8645TIP3    H125899   2.012   3.518   4.753 -1.3393  2.2630  1.9755
 8645TIP3    H225900   1.941   3.412   4.835  0.7954 -1.4512 -0.6308
 8646TIP3   OH225901   0.149   4.778   5.568  0.0084 -1.2308  0.2494
 8646TIP3    H125902   0.168   4.825   5.487 -2.6080 -0.9379 -0.2946
 8646TIP3    H225903   0.198   4.825   5.636  0.2559  0.0656 -0.8043
 8647TIP3   OH225904   1.434   0.142   3.591 -0.5892  0.0854  0.2906
 8647TIP3    H125905   1.462   0.217   3.539 -3.9487  0.7364 -0.8246
 8647TIP3    H225906   1.433   0.069   3.530 -0.4176 -0.1346  0.5487
 8648TIP3   OH225907   2.796   6.171   4.158  0.3643 -0.1415 -0.1907
 8648TIP3    H125908   2.807   6.134   4.070  0.2379  3.0284 -1.6875
 8648TIP3    H225909   2.882   6.161   4.199  0.4241 -1.6727 -0.6399
 8649TIP3   OH225910   5.682   3.592   0.189 -0.3985 -0.4519  0.0207
 8649TIP3    H125911   5.590   3.594   0.163  0.1460  0.5711 -1.9756
 8649TIP3    H225912   5.681   3.554   0.277 -2.7787  0.1309  0.3111
 8650TIP3   OH225913   5.788   4.171   1.758  0.1268  0.0877  0.1904
 8650TIP3    H125914   5.808   4.161   1.851 -0.3627  0.3795  0.3340
 8650TIP3    H225915   5.726   4.244   1.756 -3.0181 -2.3830  0.0474
 8651TIP3   OH225916   4.224   5.612   4.306  0.2818  0.9485 -0.2649
 8651TIP3    H125917   4.226   5.603   4.210 -2.2365  0.2923 -0.3306
 8651TIP3    H225918   4.252   5.526   4.338 -0.9224  0.4474 -0.4927
 8652TIP3   OH225919   1.321   1.340   0.304 -0.4216  0.0317  0.5364
 8652TIP3    H125920   1.307   1.321   0.212  0.0325 -2.0364  0.8366
 8652TIP3    H225921   1.410   1.377   0.307 -0.1045 -0.6822  0.2209
 8653TIP3   OH225922   6.538   6.763   1.887  1.1256  0.5204  0.5739
 8653TIP3    H125923   6.473   6.766   1.817 -0.3403 -1.4269  1.7323
 8653TIP3    H225924   6.620   6.741   1.843  0.2917 -0.4379 -0.5684
 8654TIP3   OH225925   4.620   4.556   0.068 -0.1161 -0.0610 -0.2388
 8654TIP3    H125926   4.665   4.545   0.152 -1.9379  1.2236  0.9752
 8654TIP3    H225927   4.636   4.474   0.021  2.6592 -0.0255  0.4574
 8655TIP3   OH225928   6.610   4.206   3.987 -0.4320 -0.3113  0.5442
 8655TIP3    H125929   6.613   4.120   3.945  0.8762 -0.4368  0.8575
 8655TIP3    H225930   6.701   4.224   4.011 -1.0007  0.1148  2.5969
 8656TIP3   OH225931   6.958   4.181   2.887  0.1658  0.7284 -0.0504
 8656TIP3    H125932   7.002   4.161   2.970 -0.6378  0.2719  0.2749
 8656TIP3    H225933   6.931   4.096   2.853 -2.2388  1.0721  0.7596
 8657TIP3   OH225934   4.372   4.443   2.844 -0.1299 -0.3242 -0.2111
 8657TIP3    H125935   4.335   4.453   2.932 -0.2579 -3.0450  0.1302
 8657TIP3    H225936   4.452   4.393   2.858 -0.6704 -1.6784 -1.7229
 8658TIP3   OH225937   1.398   4.236   0.810 -0.3949 -0.9297 -0.4742
 8658TIP3    H125938   1.360   4.254   0.896 -0.7317 -0.8027 -0.6474
 8658TIP3    H225939   1.488   4.268   0.817 -0.9904  1.0048 -0.7907
 8659TIP3   OH225940   4.260   3.211   3.194 -0.5109  0.2245  0.1219
 8659TIP3    H125941   4.333   3.191   3.252 -1.5808 -0.0028  1.4243
 8659TIP3    H225942   4.273   3.303   3.169  0.3010  0.1353  0.2042
 8660TIP3   OH225943   4.000   5.418   1.947 -0.3601  0.2421  0.3312
 8660TIP3    H125944   4.027   5.407   1.856 -1.5717 -1.0978  0.1101
 8660TIP3    H225945   4.071   5.379   1.998  1.3224  2.7681  0.1430
 8661TIP3   OH225946   1.546   6.602   0.714  0.1855 -0.9055  0.0432
 8661TIP3    H125947   1.587   6.571   0.633  1.2235 -2.0859  0.9655
 8661TIP3    H225948   1.580   6.543   0.781  0.1294  0.6448  1.4929
 8662TIP3   OH225949   2.740   3.445   2.540  0.1351  0.1075 -0.0893
 8662TIP3    H125950   2.706   3.531   2.565 -1.3235 -0.6342  0.6110
 8662TIP3    H225951   2.742   3.447   2.444 -0.8174  0.5850 -0.1076
 8663TIP3   OH225952   7.115   5.962   2.930 -0.2061 -0.0202 -0.0105
 8663TIP3    H125953   7.031   5.938   2.890 -0.0857  0.3331 -0.4807
 8663TIP3    H225954   7.181   5.919   2.875 -0.1087 -1.0860  0.9167
 8664TIP3   OH225955   5.760   0.269   5.145  0.9121  0.0469  0.6110
 8664TIP3    H125956   5.782   0.235   5.058 -0.7457 -0.4494  0.3409
 8664TIP3    H225957   5.712   0.350   5.128  1.3563  0.4217  1.1105
 8665TIP3   OH225958   0.568   5.964   3.168  0.1495  0.1095 -0.3912
 8665TIP3    H125959   0.624   6.021   3.116  0.1559  1.0603  0.6166
 8665TIP3    H225960   0.628   5.921   3.229 -0.1696  1.1236  0.6843
 8666TIP3   OH225961   4.669   4.633   3.465  0.1997  0.2288 -0.4495
 8666TIP3    H125962   4.743   4.670   3.416  1.0904 -0.9130 -0.0155
 8666TIP3    H225963   4.709   4.595   3.543 -0.7468 -1.1364 -0.6062
 8667TIP3   OH225964   2.362   0.661   1.204 -0.4843 -0.3228  0.4667
 8667TIP3    H125965   2.422   0.589   1.186 -0.5837 -0.3023  0.0395
 8667TIP3    H225966   2.406   0.738   1.168 -1.0322 -0.4005 -0.3997
 8668TIP3   OH225967   2.118   4.759   1.532 -0.1539  0.1003 -0.2095
 8668TIP3    H125968   2.204   4.780   1.570  0.4229 -1.4022 -0.6037
 8668TIP3    H225969   2.066   4.837   1.546  1.6880  1.5734 -1.1529
 8669TIP3   OH225970   2.285   1.355   5.762  0.3720 -0.5621  0.5056
 8669TIP3    H125971   2.263   1.279   5.817  0.7971 -0.9659  0.1272
 8669TIP3    H225972   2.269   1.325   5.673 -0.7010  0.2266  0.4219
 8670TIP3   OH225973   3.212   1.159   0.032  0.3671 -0.0444  0.0189
 8670TIP3    H125974   3.118   1.169   0.021  0.3220 -0.1548  0.2981
 8670TIP3    H225975   3.231   1.070   0.002  0.4060  0.0275 -0.1737
 8671TIP3   OH225976   4.207   4.441   0.828  0.6079  0.3725 -0.0844
 8671TIP3    H125977   4.245   4.478   0.748  0.1775  0.9852 -0.0105
 8671TIP3    H225978   4.174   4.516   0.876 -1.3387 -0.1777 -0.4885
 8672TIP3   OH225979   6.786   1.780   1.673  0.3883  0.0464  0.2234
 8672TIP3    H125980   6.693   1.770   1.652  0.0526  0.4001  1.4731
 8672TIP3    H225981   6.823   1.823   1.596 -0.2777 -0.9436 -0.6771
 8673TIP3   OH225982   2.389   0.248   5.466  0.5428 -0.0452  0.5761
 8673TIP3    H125983   2.309   0.284   5.429  0.6897  0.7329  0.9888
 8673TIP3    H225984   2.365   0.159   5.494 -0.0055 -0.0368  0.1440
 8674TIP3   OH225985   3.589   4.017   3.115 -0.1200  0.7386  0.2736
 8674TIP3    H125986   3.671   3.972   3.095 -0.7992  0.3823 -2.0147
 8674TIP3    H225987   3.612   4.080   3.184  1.6978 -0.4225  0.7853
 8675TIP3   OH225988   2.063   1.470   5.068 -0.0053 -0.6141  0.1139
 8675TIP3    H125989   2.070   1.563   5.047  0.1907 -1.0791 -2.0811
 8675TIP3    H225990   2.117   1.459   5.146 -0.0372  1.0946  0.4141
 8676TIP3   OH225991   6.896   6.114   4.000  0.2109  0.1677  0.0941
 8676TIP3    H125992   6.821   6.171   4.010  1.2657  1.5069  0.6642
 8676TIP3    H225993   6.928   6.100   4.089  1.8589  1.3492 -0.2730
 8677TIP3   OH225994   4.892   1.505   3.561 -0.1551  0.4871 -0.2987
 8677TIP3    H125995   4.880   1.449   3.484 -0.4683  0.8806 -0.5376
 8677TIP3    H225996   4.985   1.498   3.582 -0.0308  0.5282 -0.8320
 8678TIP3   OH225997   2.497   6.046   2.103  0.2145  0.3165 -0.1148
 8678TIP3    H125998   2.542   5.963   2.117  0.6978  0.4385 -0.8597
 8678TIP3    H225999   2.435   6.027   2.032 -0.2359  0.3927  0.2566
 8679TIP3   OH226000   5.523   0.244   0.276  0.1006  0.0941 -0.0416
 8679TIP3    H126001   5.490   0.253   0.186 -0.4215  0.1288  0.1527
 8679TIP3    H226002   5.552   0.152   0.281 -0.3681 -0.0566 -0.0782
 8680TIP3   OH226003   2.874   4.326   1.261  0.1086  0.4746 -0.0004
 8680TIP3    H126004   2.808   4.287   1.204  1.2853  0.9650 -1.7782
 8680TIP3    H226005   2.926   4.251   1.291 -0.2424  0.2548  0.0704
 8681TIP3   OH226006   2.322   1.351   1.471  0.4305  0.2164 -0.3767
 8681TIP3    H126007   2.234   1.388   1.464  1.3244  2.2379 -2.0769
 8681TIP3    H226008   2.329   1.292   1.396  0.2177 -0.7623  0.3458
 8682TIP3   OH226009   1.100   6.770   1.781 -0.9934  0.0587  0.5893
 8682TIP3    H126010   1.123   6.853   1.823 -0.1443 -1.0336  2.4306
 8682TIP3    H226011   1.185   6.730   1.761 -1.3940 -0.0967 -0.8929
 8683TIP3   OH226012   2.329   6.322   1.560 -0.3746 -0.0052  0.1288
 8683TIP3    H126013   2.304   6.251   1.619  0.0576 -0.5839 -0.3656
 8683TIP3    H226014   2.402   6.365   1.603 -0.7355  0.2390  0.5015
 8684TIP3   OH226015   6.426   4.625   1.595 -0.3153  0.1029  0.0743
 8684TIP3    H126016   6.376   4.618   1.514 -1.3310  0.4291  0.6583
 8684TIP3    H226017   6.367   4.594   1.663  0.6971 -0.6495  0.6461
 8685TIP3   OH226018   3.225   2.424   4.794  0.0032  0.0552  0.2170
 8685TIP3    H126019   3.144   2.450   4.749 -0.6170  0.4743  1.5387
 8685TIP3    H226020   3.256   2.347   4.745 -0.6118  0.5249 -0.9482
 8686TIP3   OH226021   6.673   3.497   2.402 -0.2947  0.0740  0.3656
 8686TIP3    H126022   6.626   3.576   2.376 -0.2255 -0.9968 -3.8079
 8686TIP3    H226023   6.751   3.496   2.346 -0.0019 -2.6163  0.6509
 8687TIP3   OH226024   4.707   0.916   4.270  0.0539 -0.1091 -0.2005
 8687TIP3    H126025   4.648   0.878   4.335  0.7237 -0.5225  0.1810
 8687TIP3    H226026   4.674   1.004   4.255 -2.0274 -1.0507 -1.6922
 8688TIP3   OH226027   5.630   4.958   0.598  0.2481  0.0284 -0.3327
 8688TIP3    H126028   5.549   4.996   0.632 -0.1700 -0.6389 -0.5635
 8688TIP3    H226029   5.646   5.006   0.516  0.0109  0.0633 -0.3599
 8689TIP3   OH226030   1.266   1.022   0.699 -0.2337 -0.0883 -0.5204
 8689TIP3    H126031   1.312   1.084   0.642  1.7796 -0.4238  0.6627
 8689TIP3    H226032   1.321   0.944   0.700 -0.2906 -0.1728  1.6777
 8690TIP3   OH226033   1.993   4.822   4.763 -0.2303  0.1957  0.1686
 8690TIP3    H126034   1.958   4.740   4.726  1.4929 -1.0829  1.2533
 8690TIP3    H226035   2.000   4.805   4.857  0.8886  1.3099  0.3048
 8691TIP3   OH226036   3.914   2.345   0.629  0.4595  0.3622  0.2335
 8691TIP3    H126037   3.959   2.355   0.712 -2.2305  0.4919  1.7877
 8691TIP3    H226038   3.879   2.432   0.610 -0.6898 -0.1147  0.0776
 8692TIP3   OH226039   2.804   4.379   5.321 -0.2666 -0.2275  0.0713
 8692TIP3    H126040   2.832   4.468   5.299 -1.7260  0.5757  1.2984
 8692TIP3    H226041   2.867   4.322   5.275  0.5014  1.4070 -1.0009
 8693TIP3   OH226042   5.638   3.809   2.301  0.6500 -0.1731 -0.3580
 8693TIP3    H126043   5.689   3.801   2.221  0.2382  0.9766 -0.7461
 8693TIP3    H226044   5.692   3.767   2.368  0.9878 -1.1712 -1.2186
 8694TIP3   OH226045   0.604   3.444   0.620  0.1123  0.0229  0.3908
 8694TIP3    H126046   0.586   3.354   0.647 -0.3988  0.5358  1.8190
 8694TIP3    H226047   0.576   3.448   0.529 -0.6709 -1.0363  0.5721
 8695TIP3   OH226048   1.809   4.081   0.293 -0.1896  0.0088  0.6331
 8695TIP3    H126049   1.837   4.094   0.384  2.7733  1.2621 -0.3323
 8695TIP3    H226050   1.871   4.017   0.258  0.2779  1.3233 -1.0891
 8696TIP3   OH226051   3.919   0.528   2.266 -0.3413 -0.3217  0.3781
 8696TIP3    H126052   3.845   0.551   2.210  0.9938  0.8433 -0.9870
 8696TIP3    H226053   3.905   0.436   2.288 -1.9486 -0.2420 -0.1995
 8697TIP3   OH226054   1.776   5.897   2.596  0.3646  0.8551 -0.1259
 8697TIP3    H126055   1.783   5.802   2.601  1.4393  0.9398  0.3805
 8697TIP3    H226056   1.790   5.927   2.687  1.5951  1.5512 -0.5149
 8698TIP3   OH226057   6.883   6.617   4.949 -0.1775  0.6008 -0.2666
 8698TIP3    H126058   6.822   6.551   4.982  0.4516  1.0817  2.0269
 8698TIP3    H226059   6.855   6.633   4.859 -3.1531  0.4803  0.5368
 8699TIP3   OH226060   1.373   6.254   2.851  0.3094 -0.6531  0.3097
 8699TIP3    H126061   1.337   6.221   2.769 -0.1042  0.7400 -0.0923
 8699TIP3    H226062   1.467   6.239   2.844  0.2002 -1.1552 -0.1241
 8700TIP3   OH226063   0.510   6.397   1.870  0.1401 -0.3104 -0.1294
 8700TIP3    H126064   0.559   6.479   1.881 -0.2595 -0.1410  0.5004
 8700TIP3    H226065   0.553   6.352   1.798  2.1860 -0.8567  1.3246
 8701TIP3   OH226066   1.719   3.746   5.354 -0.3405 -0.1921 -0.1345
 8701TIP3    H126067   1.749   3.693   5.281 -0.6499 -1.1667  0.4328
 8701TIP3    H226068   1.737   3.693   5.432 -1.8849 -0.0632  0.3503
 8702TIP3   OH226069   3.007   0.831   1.134  0.4041 -0.5195  0.7678
 8702TIP3    H126070   3.008   0.916   1.178  1.6583  0.3055 -0.7412
 8702TIP3    H226071   3.098   0.801   1.138  0.5751 -0.4244 -1.1149
 8703TIP3   OH226072   6.823   0.783   3.357  0.5750  0.2507 -0.0934
 8703TIP3    H126073   6.811   0.875   3.335  1.3324  0.6391  0.9992
 8703TIP3    H226074   6.893   0.784   3.423  3.4106 -1.4384 -2.8453
 8704TIP3   OH226075   2.148   1.464   3.620 -0.1632 -0.2946  0.2359
 8704TIP3    H126076   2.232   1.426   3.594  0.9405  0.1049  2.9525
 8704TIP3    H226077   2.097   1.390   3.653 -0.2729 -0.2716  0.1224
 8705TIP3   OH226078   2.421   3.276   1.177 -0.3653  0.5266 -0.5459
 8705TIP3    H126079   2.516   3.287   1.183 -0.3655  0.4951 -0.4861
 8705TIP3    H226080   2.403   3.276   1.084 -0.2252 -0.1828 -0.5764
 8706TIP3   OH226081   5.001   0.538   3.771  0.2186  0.0111 -0.4001
 8706TIP3    H126082   5.068   0.527   3.839  0.4098  0.3896 -0.5218
 8706TIP3    H226083   4.940   0.467   3.786  1.1692 -0.9336 -0.8855
 8707TIP3   OH226084   5.972   3.540   3.761 -0.2837 -0.8058 -0.1155
 8707TIP3    H126085   5.950   3.477   3.830 -0.4972  0.4084  0.9483
 8707TIP3    H226086   5.900   3.533   3.698 -1.1959 -0.4165  0.8539
 8708TIP3   OH226087   6.694   4.057   2.817 -0.1191 -0.2381 -0.1626
 8708TIP3    H126088   6.762   4.018   2.761 -0.8830  0.9550 -1.9905
 8708TIP3    H226089   6.614   4.012   2.793 -0.4913  0.4088 -0.1451
 8709TIP3   OH226090   3.664   1.062   0.048  0.4434  0.3293 -0.3182
 8709TIP3    H126091   3.636   1.015  -0.031 -0.7918  0.5441 -0.0339
 8709TIP3    H226092   3.621   1.016   0.120  0.5569  0.8873  0.1169
 8710TIP3   OH226093   4.452   4.712   4.844  0.2220  0.6131 -0.0608
 8710TIP3    H126094   4.412   4.639   4.796 -0.2821  0.2734  0.8464
 8710TIP3    H226095   4.473   4.776   4.776  0.2106 -0.1593 -0.8198
 8711TIP3   OH226096   4.983   6.456   1.247 -0.7975  0.2249  0.2422
 8711TIP3    H126097   4.908   6.413   1.289 -0.8374 -0.2301 -0.2936
 8711TIP3    H226098   5.050   6.458   1.316 -0.2437 -2.0924 -0.1270
 8712TIP3   OH226099   2.247   1.951   5.502 -0.0886  0.0442 -0.1580
 8712TIP3    H126100   2.235   2.027   5.445 -0.4052  1.4547  1.6647
 8712TIP3    H226101   2.331   1.966   5.545  0.5455 -1.4146 -0.8237
 8713TIP3   OH226102   1.692   4.977   2.855  0.4201 -0.1459  0.0365
 8713TIP3    H126103   1.768   4.994   2.911 -0.4176  0.6360  0.9831
 8713TIP3    H226104   1.638   5.056   2.864 -0.8913 -1.0145  0.0428
 8714TIP3   OH226105   3.192   4.930   1.174  0.4923 -0.2251 -0.1941
 8714TIP3    H126106   3.151   4.992   1.114  1.0071  0.6008  0.2972
 8714TIP3    H226107   3.281   4.919   1.142  0.6876  0.0102  0.2584
 8715TIP3   OH226108   2.511   4.062   4.004  0.2647 -0.2523 -0.1310
 8715TIP3    H126109   2.603   4.038   4.002  0.3299  0.0277 -1.0111
 8715TIP3    H226110   2.467   3.994   3.952 -0.2540 -1.2404  1.5206
 8716TIP3   OH226111   3.278   1.331   4.427  0.1529  0.1318  0.2625
 8716TIP3    H126112   3.224   1.410   4.437 -1.3922 -0.9692  1.0713
 8716TIP3    H226113   3.292   1.301   4.517  0.0946 -0.9255 -0.0756
 8717TIP3   OH226114   2.228   0.877   5.373  0.5237 -0.0634  0.1347
 8717TIP3    H126115   2.209   0.804   5.314  0.0852 -0.5846  0.9100
 8717TIP3    H226116   2.171   0.862   5.448  1.2983  0.4280  0.8286
 8718TIP3   OH226117   0.509   1.382   3.418 -0.3754  0.0087  0.0452
 8718TIP3    H126118   0.581   1.445   3.413  0.6080 -1.1086 -0.4428
 8718TIP3    H226119   0.544   1.302   3.379 -2.1821 -0.3080 -1.0698
 8719TIP3   OH226120   5.360   1.844   2.293 -0.5519 -0.3874  1.1615
 8719TIP3    H126121   5.304   1.918   2.318  0.6326  0.7818  0.4929
 8719TIP3    H226122   5.387   1.806   2.377 -0.7594  0.2677  1.5387
 8720TIP3   OH226123   4.551   3.389   3.012  0.0178  0.2716  0.5774
 8720TIP3    H126124   4.518   3.300   3.024 -1.7468  0.6552 -0.9656
 8720TIP3    H226125   4.550   3.426   3.100  0.1380 -1.0032  1.1496
 8721TIP3   OH226126   0.790   3.148   1.142 -0.1670 -0.1193 -0.4486
 8721TIP3    H126127   0.815   3.092   1.215  1.7841  1.3464  0.0873
 8721TIP3    H226128   0.710   3.109   1.108  0.4173 -2.4521  0.6882
 8722TIP3   OH226129   6.600   5.507   5.060  0.0920 -0.3667  0.0168
 8722TIP3    H126130   6.653   5.566   5.114  0.6468  0.0965 -1.0121
 8722TIP3    H226131   6.664   5.460   5.006 -0.5623  1.2985 -2.3532
 8723TIP3   OH226132   1.866   2.419   5.675 -0.1054  0.1037  0.0958
 8723TIP3    H126133   1.910   2.445   5.594 -1.0153 -0.2550 -0.5279
 8723TIP3    H226134   1.863   2.499   5.728 -0.1076  0.5036 -0.5056
 8724TIP3   OH226135   3.697   6.644   1.760  0.5242 -0.7502  0.7789
 8724TIP3    H126136   3.679   6.565   1.810 -2.3427  0.0143  1.1322
 8724TIP3    H226137   3.753   6.615   1.688  1.2991 -2.6479  2.0701
 8725TIP3   OH226138   3.144   4.438   5.410  0.2083  0.1702 -0.1075
 8725TIP3    H126139   3.209   4.371   5.387 -0.1313 -0.0370 -0.4847
 8725TIP3    H226140   3.084   4.393   5.470  0.0986  0.1968 -0.1965
 8726TIP3   OH226141   0.552   0.536   3.271  0.8804  0.1859 -0.6211
 8726TIP3    H126142   0.477   0.586   3.238 -0.8696 -2.7514 -1.4852
 8726TIP3    H226143   0.557   0.559   3.364 -0.9368  0.7129 -0.6092
 8727TIP3   OH226144   0.798   6.665   2.906 -0.1041  0.5756 -0.2525
 8727TIP3    H126145   0.825   6.729   2.839  1.0757  1.7407  1.2736
 8727TIP3    H226146   0.861   6.676   2.976 -2.3072  0.6141  1.8362
 8728TIP3   OH226147   5.275   3.602   1.098  0.2631 -0.2814 -0.3760
 8728TIP3    H126148   5.350   3.567   1.051 -0.3453 -2.6235  0.2232
 8728TIP3    H226149   5.311   3.637   1.180  1.1384  2.4838 -1.8348
 8729TIP3   OH226150   4.256   1.816   0.162 -0.3246  0.8177 -0.0662
 8729TIP3    H126151   4.333   1.788   0.212 -0.6331  0.4024  0.1885
 8729TIP3    H226152   4.261   1.767   0.080 -0.8238  0.0493  0.3485
 8730TIP3   OH226153   5.091   0.639   2.066 -0.1751  0.0405 -0.2513
 8730TIP3    H126154   5.143   0.597   2.135 -1.9216 -0.7674  0.6500
 8730TIP3    H226155   5.092   0.575   1.994 -0.6684 -0.3957  0.1202
 8731TIP3   OH226156   0.789   1.303   1.217  0.0834 -0.2371 -0.9977
 8731TIP3    H126157   0.708   1.285   1.265  0.3608  0.8484 -0.0638
 8731TIP3    H226158   0.802   1.226   1.162 -0.7651 -1.1115 -0.0230
 8732TIP3   OH226159   2.339   4.878   2.476 -0.2473  0.5940 -0.1554
 8732TIP3    H126160   2.384   4.793   2.479  0.2437  0.8336 -0.5914
 8732TIP3    H226161   2.281   4.877   2.552 -0.5924 -0.3229 -0.4195
 8733TIP3   OH226162   6.393   4.918   3.557 -0.1357  0.6227 -0.0422
 8733TIP3    H126163   6.337   4.881   3.625  0.4647  1.6244  1.0327
 8733TIP3    H226164   6.413   5.006   3.588  2.8837 -0.0379  0.1486
 8734TIP3   OH226165   5.800   6.041   3.686  0.1390 -0.6312 -0.2362
 8734TIP3    H126166   5.766   6.107   3.626 -1.8911 -2.5337 -1.3268
 8734TIP3    H226167   5.725   6.016   3.740  0.5294 -2.7596 -0.5913
 8735TIP3   OH226168   0.776   0.649   5.010 -0.1478  0.4200 -0.1699
 8735TIP3    H126169   0.818   0.725   4.971  0.3140 -0.2275 -0.9568
 8735TIP3    H226170   0.846   0.603   5.056  0.3337 -1.2870 -2.4452
 8736TIP3   OH226171   4.284   2.258   3.080  0.0658 -0.0835  0.3283
 8736TIP3    H126172   4.206   2.203   3.077 -1.2092  1.5497  1.5805
 8736TIP3    H226173   4.300   2.282   2.989 -0.5301 -0.8895 -0.0021
 8737TIP3   OH226174   0.618   6.257   4.560  0.4730 -0.8735  0.1873
 8737TIP3    H126175   0.553   6.327   4.551  0.0698 -1.2255  0.3445
 8737TIP3    H226176   0.593   6.193   4.493  0.3190 -1.2756  0.6304
 8738TIP3   OH226177   0.573   3.905   4.758 -0.1672  0.0934 -0.0240
 8738TIP3    H126178   0.554   3.918   4.665  1.4214  0.4016 -0.3291
 8738TIP3    H226179   0.491   3.923   4.802 -0.9167  0.0669 -1.3573
 8739TIP3   OH226180   3.463   2.124   0.597 -0.5414 -0.0430 -0.5307
 8739TIP3    H126181   3.520   2.145   0.524 -0.8516 -1.7660 -1.3195
 8739TIP3    H226182   3.498   2.175   0.670  0.2162  1.1476 -1.6774
 8740TIP3   OH226183   0.788   0.175   2.704 -0.4138 -0.5274  0.2097
 8740TIP3    H126184   0.860   0.238   2.710 -0.9395  0.3747 -2.1174
 8740TIP3    H226185   0.717   0.215   2.754 -0.2518  0.0075  0.0125
 8741TIP3   OH226186   3.412   3.904   5.141 -0.5569  0.1023  0.5090
 8741TIP3    H126187   3.378   3.825   5.099  1.5362 -0.6354  0.1226
 8741TIP3    H226188   3.391   3.892   5.234 -0.5753 -0.7372  0.4055
 8742TIP3   OH226189   4.974   1.246   2.460  0.1431  0.8166  0.2602
 8742TIP3    H126190   4.932   1.243   2.546 -2.2590 -0.5712 -0.8361
 8742TIP3    H226191   4.906   1.217   2.399  2.0243  0.8376 -2.0190
 8743TIP3   OH226192   1.348   2.212   5.880  0.2676 -1.0924 -0.5073
 8743TIP3    H126193   1.423   2.271   5.873 -0.8738  0.4832  0.1064
 8743TIP3    H226194   1.325   2.191   5.789  0.3644 -0.1456 -0.7601
 8744TIP3   OH226195   6.864   6.630   2.016  0.4610  0.5207  0.2544
 8744TIP3    H126196   6.897   6.717   1.995 -0.7171  1.4843  2.0784
 8744TIP3    H226197   6.941   6.573   2.009  0.8849  1.3141 -2.7400
 8745TIP3   OH226198   3.873   5.205   1.154  0.5060  0.4314  0.1541
 8745TIP3    H126199   3.805   5.242   1.210  0.3171  1.3167 -0.6294
 8745TIP3    H226200   3.899   5.124   1.198 -1.5413 -0.2982  0.1344
 8746TIP3   OH226201   6.515   2.709   5.333  0.0577 -0.9960  0.1676
 8746TIP3    H126202   6.578   2.659   5.386 -0.5213 -3.2877 -1.2173
 8746TIP3    H226203   6.526   2.676   5.244 -0.3536  1.4135 -0.8570
 8747TIP3   OH226204   3.821   0.292   3.780 -0.3149 -0.4502 -0.0267
 8747TIP3    H126205   3.770   0.229   3.830 -0.4999 -1.0920 -1.0047
 8747TIP3    H226206   3.796   0.377   3.817 -1.6615 -0.7855 -0.0959
 8748TIP3   OH226207   0.978   6.589   0.338  0.1936  0.5110 -0.4807
 8748TIP3    H126208   1.045   6.524   0.315 -0.0606 -0.4798  1.3851
 8748TIP3    H226209   0.895   6.543   0.326 -0.0444  0.9065 -0.3630
 8749TIP3   OH226210   0.659   1.376   0.349 -0.3485 -0.5539 -0.0229
 8749TIP3    H126211   0.615   1.291   0.346 -1.3402 -0.0315 -0.7331
 8749TIP3    H226212   0.649   1.412   0.261 -0.7376  0.6968  0.5109
 8750TIP3   OH226213   6.516   1.190   5.726 -0.1865  0.2171 -0.3669
 8750TIP3    H126214   6.514   1.161   5.818  0.3472  1.6287  0.1104
 8750TIP3    H226215   6.516   1.285   5.731 -1.1073  0.3227 -1.8768
 8751TIP3   OH226216   5.716   1.205   2.535 -0.3150 -0.0624  0.0723
 8751TIP3    H126217   5.799   1.172   2.502  0.2410  0.3155  1.0398
 8751TIP3    H226218   5.724   1.199   2.630 -1.2841  0.2522  0.1835
 8752TIP3   OH226219   4.906   3.630   3.093  0.3330 -0.6022  0.0850
 8752TIP3    H126220   4.877   3.673   3.013 -0.9855 -3.7680 -1.3475
 8752TIP3    H226221   5.000   3.617   3.081  0.3343 -0.1126 -0.4757
 8753TIP3   OH226222   2.004   0.592   0.982  0.4833  0.1032  0.3570
 8753TIP3    H126223   1.972   0.677   0.955 -0.5482 -0.3505  0.1203
 8753TIP3    H226224   2.052   0.559   0.907  0.1583  0.1110  0.1463
 8754TIP3   OH226225   0.466   0.575   2.769 -0.4347  0.6595 -0.3907
 8754TIP3    H126226   0.448   0.503   2.708  1.2780 -0.4726  0.3669
 8754TIP3    H226227   0.417   0.552   2.848 -0.1556  0.4888 -0.2656
 8755TIP3   OH226228   6.925   5.847   4.224  0.4170 -0.1165  0.5400
 8755TIP3    H126229   6.937   5.833   4.130 -1.4698  2.5031 -0.2048
 8755TIP3    H226230   6.957   5.935   4.239 -3.1672  1.2262  1.3676
 8756TIP3   OH226231   1.962   4.032   4.867 -0.3134 -0.1286 -0.5433
 8756TIP3    H126232   1.956   3.943   4.900  3.0759  0.2922  1.6576
 8756TIP3    H226233   2.014   4.024   4.787  1.6831 -0.0147  0.6930
 8757TIP3   OH226234   4.502   0.432   2.168 -0.1855  0.5991 -0.2367
 8757TIP3    H126235   4.443   0.507   2.168 -0.7431  0.1806 -1.1078
 8757TIP3    H226236   4.586   0.468   2.140 -0.3044  0.9983 -0.0922
 8758TIP3   OH226237   6.619   2.943   5.002  0.1915 -0.1993 -0.0339
 8758TIP3    H126238   6.639   2.884   4.930 -0.4842  0.1384 -0.5189
 8758TIP3    H226239   6.547   2.997   4.969 -1.2628 -1.1027  1.4446
 8759TIP3   OH226240   5.449   2.966   0.482  0.3286 -0.0780 -0.4404
 8759TIP3    H126241   5.394   2.957   0.404 -1.6142 -0.5710  0.9347
 8759TIP3    H226242   5.393   2.942   0.555  1.9059  0.9563  1.2141
 8760TIP3   OH226243   2.988   4.144   3.089 -0.0265 -0.3167 -0.0490
 8760TIP3    H126244   3.017   4.215   3.146 -1.9738  0.3896  0.1367
 8760TIP3    H226245   3.000   4.065   3.141 -0.6040  0.1964  0.9049
 8761TIP3   OH226246   3.315   1.918   2.076 -0.3031 -0.2153  0.3584
 8761TIP3    H126247   3.256   1.850   2.043 -1.8612  1.1910  0.1413
 8761TIP3    H226248   3.383   1.925   2.009 -0.2986 -1.3213  0.2333
 8762TIP3   OH226249   2.223   1.300   0.767  0.2456 -0.4279 -0.6576
 8762TIP3    H126250   2.258   1.252   0.842 -0.2993 -0.3623 -0.3567
 8762TIP3    H226251   2.287   1.285   0.697 -0.2074 -2.1241 -0.7624
 8763TIP3   OH226252   2.213   4.284   1.248 -0.1711  0.5390 -0.0092
 8763TIP3    H126253   2.215   4.358   1.308  2.6393  0.5082  0.0610
 8763TIP3    H226254   2.260   4.314   1.171 -0.8225 -0.5179 -0.8474
 8764TIP3   OH226255   2.810   6.642   3.634  0.2436  0.3217 -0.0359
 8764TIP3    H126256   2.839   6.618   3.722  2.4242  2.0743 -0.1736
 8764TIP3    H226257   2.821   6.563   3.582  2.4943  0.1860  0.5273
 8765TIP3   OH226258   4.676   1.536   1.269  0.5743 -0.2624 -0.2525
 8765TIP3    H126259   4.728   1.522   1.348  0.7374 -0.8725 -0.4604
 8765TIP3    H226260   4.737   1.520   1.197  0.3746  0.0898 -0.5064
 8766TIP3   OH226261   4.247   0.159   4.594 -0.0041  0.2016 -0.0149
 8766TIP3    H126262   4.257   0.102   4.517  0.2925 -1.4898  1.2190
 8766TIP3    H226263   4.158   0.194   4.587 -0.1051 -0.2170 -0.9472
 8767TIP3   OH226264   3.772   2.417   2.480  0.1442  0.2696  0.1340
 8767TIP3    H126265   3.786   2.426   2.574  0.8592  0.4135  0.0181
 8767TIP3    H226266   3.754   2.506   2.449 -2.4631 -0.0505  0.4772
 8768TIP3   OH226267   0.904   0.158   4.070 -0.2792  0.2651 -0.3651
 8768TIP3    H126268   0.827   0.147   4.013  0.2505  3.1820 -1.8503
 8768TIP3    H226269   0.974   0.181   4.009  1.2159 -0.0502  1.1949
 8769TIP3   OH226270   4.089   5.340   1.697  0.3092  0.6687 -0.3292
 8769TIP3    H126271   4.000   5.349   1.661  0.7717  0.6451 -1.5274
 8769TIP3    H226272   4.115   5.251   1.674 -0.4822 -0.5061  2.7484
 8770TIP3   OH226273   6.404   1.940   0.022  0.2644  0.4840  0.2943
 8770TIP3    H126274   6.360   2.008  -0.030 -1.0296 -0.9830 -0.6470
 8770TIP3    H226275   6.404   1.974   0.111 -1.7348  1.0975  0.1119
 8771TIP3   OH226276   3.192   3.383   0.876 -0.2718  0.2271  0.0896
 8771TIP3    H126277   3.236   3.315   0.825 -0.9736 -0.3689  0.2706
 8771TIP3    H226278   3.262   3.443   0.901  0.6299 -1.2697  1.2936
 8772TIP3   OH226279   3.457   0.391   2.022 -0.0469  0.7599 -0.2277
 8772TIP3    H126280   3.459   0.423   1.932  0.9599 -0.6859 -0.7557
 8772TIP3    H226281   3.406   0.457   2.070  1.5669  2.9005 -1.2961
 8773TIP3   OH226282   0.375   3.702   0.415  0.1117 -0.0841 -0.1086
 8773TIP3    H126283   0.365   3.793   0.445 -0.9213 -0.4691  0.7808
 8773TIP3    H226284   0.332   3.701   0.330 -0.8143  0.0340  0.3446
 8774TIP3   OH226285   4.238   1.902   4.448 -0.3021 -0.2113 -0.0335
 8774TIP3    H126286   4.156   1.943   4.477 -0.5703  1.1346 -2.3951
 8774TIP3    H226287   4.209   1.824   4.400 -0.1498 -0.1394 -0.2410
 8775TIP3   OH226288   6.697   0.027   1.122 -0.0289 -0.6100 -0.0776
 8775TIP3    H126289   6.646  -0.032   1.178 -0.2959  0.6271  1.0375
 8775TIP3    H226290   6.636   0.052   1.053  0.0867 -1.6104 -0.5641
 8776TIP3   OH226291   3.875   6.409   0.235  0.1788  0.0728 -0.2507
 8776TIP3    H126292   3.889   6.500   0.261  0.5578 -0.2994  0.9304
 8776TIP3    H226293   3.780   6.402   0.225  0.1242  0.5460 -0.1234
 8777TIP3   OH226294   0.381   6.119   1.484  0.3392 -0.4848 -0.1641
 8777TIP3    H126295   0.386   6.152   1.394  1.0252  1.1244  0.4289
 8777TIP3    H226296   0.288   6.107   1.500  0.1515  0.0472 -0.8161
 8778TIP3   OH226297   0.739   6.140   4.272  0.2263 -0.3655 -0.0842
 8778TIP3    H126298   0.674   6.088   4.318  1.0190  0.6390  2.3833
 8778TIP3    H226299   0.763   6.088   4.196 -3.1887 -0.8786 -0.9694
 8779TIP3   OH226300   5.755   2.921   3.155 -0.5290  0.3298  0.3180
 8779TIP3    H126301   5.721   3.003   3.120  1.2081  0.3698 -1.4744
 8779TIP3    H226302   5.850   2.933   3.156 -0.3569 -0.9197  2.0047
 8780TIP3   OH226303   5.027   2.672   5.184  0.0567 -0.1399 -0.2811
 8780TIP3    H126304   5.118   2.644   5.172 -0.6508 -3.1548  0.4773
 8780TIP3    H226305   4.998   2.697   5.096  1.5989  0.9095 -0.5298
 8781TIP3   OH226306   3.481   3.072   4.212 -0.4132  0.3162 -0.4381
 8781TIP3    H126307   3.532   2.999   4.178  1.1595  1.6358 -1.0803
 8781TIP3    H226308   3.528   3.150   4.182 -2.2678  1.6084 -0.1571
 8782TIP3   OH226309   2.923   4.145  -0.008  0.0133  0.1418 -0.0528
 8782TIP3    H126310   2.827   4.144  -0.007 -0.0045  0.5564 -0.6291
 8782TIP3    H226311   2.946   4.223   0.043  0.0735 -0.4543  0.8517
 8783TIP3   OH226312   3.150   3.639   0.033  0.1619  0.6876  0.4543
 8783TIP3    H126313   3.154   3.647   0.129  1.3194  0.1869  0.4595
 8783TIP3    H226314   3.121   3.725   0.003  2.0610  1.6080  1.1254
 8784TIP3   OH226315   3.095   6.763   1.167 -0.0668  0.3256 -0.5609
 8784TIP3    H126316   3.098   6.833   1.232  2.0142 -0.7251  0.5706
 8784TIP3    H226317   3.056   6.689   1.213  0.4326 -0.1082 -0.8170
 8785TIP3   OH226318   4.492   4.057   5.126 -0.1459  0.0133  0.0277
 8785TIP3    H126319   4.463   4.146   5.110  2.3282  0.9737  0.4251
 8785TIP3    H226320   4.429   4.022   5.189 -2.1881  0.8040 -1.4579
 8786TIP3   OH226321   4.717   4.667   4.815 -0.2180 -0.1233  0.4909
 8786TIP3    H126322   4.707   4.593   4.874  0.5210 -0.7536 -0.1686
 8786TIP3    H226323   4.632   4.711   4.818 -0.9274 -1.4348  0.3043
 8787TIP3   OH226324   2.008   1.315   3.348 -0.4858 -0.2023 -0.5881
 8787TIP3    H126325   1.941   1.378   3.322  0.3701  0.5254 -1.0518
 8787TIP3    H226326   2.088   1.344   3.304  0.0978 -1.1811 -0.2138
 8788TIP3   OH226327   2.550   3.832   3.833 -0.3164 -0.3833 -0.2766
 8788TIP3    H126328   2.506   3.759   3.789  1.1823 -2.0337  0.8196
 8788TIP3    H226329   2.603   3.790   3.901  1.0400  1.7103  0.0249
 8789TIP3   OH226330   0.100   3.119   2.061  0.1073 -0.6483  0.3680
 8789TIP3    H126331   0.092   3.061   2.137 -0.3385 -0.2131  0.6670
 8789TIP3    H226332   0.055   3.073   1.990 -1.8822  0.0788  1.0599
 8790TIP3   OH226333   0.394   6.563   5.571 -0.4451 -0.0166 -0.4900
 8790TIP3    H126334   0.340   6.502   5.622  1.6289 -1.3453  0.2170
 8790TIP3    H226335   0.378   6.539   5.480  0.4890 -1.8220 -0.2163
 8791TIP3   OH226336   1.835   4.140   2.526  0.0888  0.2111  0.7719
 8791TIP3    H126337   1.834   4.124   2.432  0.2286  0.7075  0.6824
 8791TIP3    H226338   1.896   4.214   2.537 -0.4935  0.6386  1.1697
 8792TIP3   OH226339   1.270   0.439   2.544 -0.0030  0.4632  1.0920
 8792TIP3    H126340   1.242   0.472   2.459  0.7149 -0.2356  0.5745
 8792TIP3    H226341   1.331   0.506   2.576  2.9683 -1.1252 -0.8147
 8793TIP3   OH226342   1.890   5.064   0.133  0.2915 -0.2579 -0.0211
 8793TIP3    H126343   1.821   5.129   0.119  0.7186  0.0573 -0.7308
 8793TIP3    H226344   1.843   4.982   0.149 -0.2859 -0.4267 -2.2000
 8794TIP3   OH226345   3.557   3.935   2.417  0.0161 -0.4742 -0.1419
 8794TIP3    H126346   3.467   3.903   2.415 -0.6758  1.3664 -0.2615
 8794TIP3    H226347   3.603   3.873   2.473 -0.7103 -2.8471 -1.9756
 8795TIP3   OH226348   3.378   5.045   2.807 -0.3368  0.2557 -0.1924
 8795TIP3    H126349   3.311   4.980   2.827  0.3375 -0.0431  1.2125
 8795TIP3    H226350   3.461   5.002   2.830  0.2311  1.1131 -0.5711
 8796TIP3   OH226351   2.784   5.270   4.950  0.3704 -0.2763 -0.2246
 8796TIP3    H126352   2.758   5.183   4.922  1.1081 -0.2071 -1.1778
 8796TIP3    H226353   2.771   5.270   5.045  0.2876 -1.3953 -0.2277
 8797TIP3   OH226354   5.952   4.572   0.090 -0.1088 -0.3981  0.3859
 8797TIP3    H126355   5.872   4.561   0.142 -0.1648  0.4581  0.4986
 8797TIP3    H226356   5.973   4.484   0.059 -1.4692 -0.5416 -0.2049
 8798TIP3   OH226357   5.371   5.063   2.468  0.1139  0.2334 -0.1182
 8798TIP3    H126358   5.316   5.043   2.544 -1.0138 -0.2675 -1.0576
 8798TIP3    H226359   5.397   4.978   2.433  1.6885  0.4482  0.4118
 8799TIP3   OH226360   5.870   3.519  -0.015 -0.0038  0.0167 -0.3467
 8799TIP3    H126361   5.945   3.572   0.009 -0.5817 -0.2429  2.4001
 8799TIP3    H226362   5.805   3.537   0.053 -1.6056 -1.3953 -1.4168
 8800TIP3   OH226363   1.323   6.259   4.814 -0.2748 -0.3352 -0.3952
 8800TIP3    H126364   1.251   6.212   4.856  0.1048  0.1877  0.8920
 8800TIP3    H226365   1.302   6.352   4.827  0.9150 -0.1802  0.5165
 8801TIP3   OH226366   4.584   4.484   5.315  0.4030  0.4651 -0.1366
 8801TIP3    H126367   4.664   4.440   5.343 -0.2369 -0.3239  0.5021
 8801TIP3    H226368   4.596   4.575   5.344 -0.0138 -0.2018  2.3485
 8802TIP3   OH226369   6.786   0.935   4.267 -0.3498 -0.2071  0.1060
 8802TIP3    H126370   6.759   1.027   4.264  0.3169  0.0033  0.3919
 8802TIP3    H226371   6.847   0.930   4.340  0.4537 -0.6490 -0.5796
 8803TIP3   OH226372   3.536   1.229   0.640  0.1124  0.0988  0.0985
 8803TIP3    H126373   3.550   1.231   0.545  0.6347  1.3287  0.1908
 8803TIP3    H226374   3.529   1.320   0.666 -1.3565 -0.2487  1.0837
 8804TIP3   OH226375   2.764   0.221   2.364 -0.0272 -0.3225 -0.2311
 8804TIP3    H126376   2.785   0.136   2.326 -0.1363 -0.8102  0.7609
 8804TIP3    H226377   2.807   0.220   2.450 -0.5920  0.3471  0.0698
 8805TIP3   OH226378   1.931   6.346   5.346  0.5236  0.3550 -0.0721
 8805TIP3    H126379   2.008   6.397   5.373  0.9927 -1.1304  1.5567
 8805TIP3    H226380   1.947   6.258   5.379 -0.8001 -0.6077 -1.8031
 8806TIP3   OH226381   1.286   2.956   0.661 -0.3107 -0.1801  0.1864
 8806TIP3    H126382   1.301   3.048   0.680 -1.6636  0.4141 -1.3788
 8806TIP3    H226383   1.331   2.909   0.732 -0.0409  1.6635  1.3021
 8807TIP3   OH226384   0.635   4.486   5.079 -0.1639  0.6488 -0.4853
 8807TIP3    H126385   0.676   4.570   5.102  0.8738  0.1278 -0.4000
 8807TIP3    H226386   0.663   4.426   5.148 -2.9191  0.7778  0.8738
 8808TIP3   OH226387   6.691   0.023   3.977  0.0501 -0.0802 -0.3210
 8808TIP3    H126388   6.668  -0.028   4.054 -0.2211  0.2260 -0.1958
 8808TIP3    H226389   6.616   0.081   3.963  0.6260  0.7412 -0.0709
 8809TIP3   OH226390   3.971   1.640   5.466  0.3691  0.0126 -0.8864
 8809TIP3    H126391   3.969   1.637   5.561  2.4455  0.1847 -0.7877
 8809TIP3    H226392   3.951   1.731   5.445  2.2170  0.5654 -0.4475
 8810TIP3   OH226393   6.102   5.919   2.160  0.1599  0.4112  0.0023
 8810TIP3    H126394   6.090   5.841   2.106  0.2630  1.3099 -1.3847
 8810TIP3    H226395   6.130   5.986   2.098  0.4729  1.4453  1.2296
 8811TIP3   OH226396   0.674   3.500   0.351 -0.1538 -0.0948  0.3683
 8811TIP3    H126397   0.686   3.593   0.331 -0.6566 -0.4861 -2.1692
 8811TIP3    H226398   0.749   3.457   0.310 -1.0239 -0.9663 -0.3713
 8812TIP3   OH226399   1.429   2.012   3.371  0.0672  0.0003 -0.6491
 8812TIP3    H126400   1.389   1.956   3.304  1.6281  0.3442 -1.9268
 8812TIP3    H226401   1.497   2.060   3.324  1.4030  0.0642  1.2587
 8813TIP3   OH226402   0.885   4.954   3.971 -0.1735 -0.2581  0.8697
 8813TIP3    H126403   0.910   5.045   3.957  0.5013 -0.6268 -0.5475
 8813TIP3    H226404   0.968   4.910   3.993  0.0368 -1.0094 -1.2205
 8814TIP3   OH226405   3.318   4.032   0.643 -0.6333  0.0127  0.3341
 8814TIP3    H126406   3.376   4.050   0.717  0.7631 -0.6610 -0.5327
 8814TIP3    H226407   3.270   3.954   0.668 -0.3270 -0.0808  0.6377
 8815TIP3   OH226408   5.713   2.561   2.147 -0.2685  0.4480  1.0499
 8815TIP3    H126409   5.679   2.491   2.204  0.9424 -0.3421  0.8548
 8815TIP3    H226410   5.794   2.588   2.190  0.1457  0.5438  0.2188
 8816TIP3   OH226411   6.116   3.241   2.708 -0.5906 -0.3438 -0.3503
 8816TIP3    H126412   6.089   3.278   2.792 -0.6278  0.2319 -0.6149
 8816TIP3    H226413   6.203   3.205   2.725  0.2200  1.4469 -0.5269
 8817TIP3   OH226414   6.029   4.684   1.822  0.3170  0.4400 -0.9706
 8817TIP3    H126415   5.977   4.734   1.759 -0.3257  0.1839 -0.6510
 8817TIP3    H226416   5.993   4.595   1.818  0.7658  0.2456 -0.7824
 8818TIP3   OH226417   3.825   4.683   4.211 -0.0075 -0.5492 -0.1538
 8818TIP3    H126418   3.812   4.778   4.217 -0.3645 -0.5986 -0.1353
 8818TIP3    H226419   3.871   4.670   4.129  0.7053 -0.2924  0.1981
 8819TIP3   OH226420   4.049   3.981   1.189 -0.7061  0.1964 -0.2473
 8819TIP3    H126421   4.051   3.894   1.229 -0.2487 -0.7365 -2.1581
 8819TIP3    H226422   4.023   4.040   1.259  3.0257 -0.8180  2.3142
 8820TIP3   OH226423   6.107   6.151   2.005 -0.1030 -0.2048  0.2120
 8820TIP3    H126424   6.088   6.182   1.916  1.2140  0.1631  0.0330
 8820TIP3    H226425   6.145   6.227   2.049 -0.8008 -0.3695  1.1114
 8821TIP3   OH226426   5.441   1.750   2.558  0.1675 -0.0927  0.2538
 8821TIP3    H126427   5.393   1.667   2.549  1.2692 -0.5970 -1.5625
 8821TIP3    H226428   5.487   1.742   2.642 -2.0562 -0.0098  1.5438
 8822TIP3   OH226429   2.028   3.706   2.918 -0.1396  0.3475  0.3682
 8822TIP3    H126430   2.053   3.790   2.955 -1.1137  0.7691  0.1138
 8822TIP3    H226431   2.056   3.710   2.827  0.2732  0.1912  0.4881
 8823TIP3   OH226432   1.507   2.932   5.793  0.1433  0.4551  0.2783
 8823TIP3    H126433   1.548   3.018   5.784 -0.2780  0.6903  0.5947
 8823TIP3    H226434   1.417   2.950   5.818  0.3482 -0.0825  1.5071
 8824TIP3   OH226435   4.242   4.265   5.786  0.0869 -0.7263  0.4869
 8824TIP3    H126436   4.335   4.249   5.770  0.3073  0.4027  0.6169
 8824TIP3    H226437   4.224   4.348   5.744 -0.5253 -0.2361  1.6775
 8825TIP3   OH226438   5.361   4.742   4.689 -0.1849 -0.0481 -0.3889
 8825TIP3    H126439   5.348   4.827   4.648  0.6603 -1.2336 -3.4024
 8825TIP3    H226440   5.309   4.681   4.636 -1.0225 -1.4490  1.8494
 8826TIP3   OH226441   0.386   0.342   1.539 -0.1194 -0.1606 -0.7533
 8826TIP3    H126442   0.357   0.429   1.567 -2.0228 -1.3090  1.1004
 8826TIP3    H226443   0.362   0.338   1.446 -1.8161  0.6162 -0.3924
 8827TIP3   OH226444   6.364   1.315   3.149 -0.2776 -0.1648  0.7425
 8827TIP3    H126445   6.453   1.281   3.141 -0.3962 -0.1819 -0.9261
 8827TIP3    H226446   6.373   1.393   3.203  0.3655 -1.4572  2.6055
 8828TIP3   OH226447   2.030   2.528   0.832  0.1235 -0.2886  0.3242
 8828TIP3    H126448   1.972   2.474   0.886  0.3295  1.2379  2.1890
 8828TIP3    H226449   2.071   2.588   0.894 -1.3293  3.1204 -1.7293
 8829TIP3   OH226450   2.327   3.748   0.817 -0.4216  0.4991 -0.2970
 8829TIP3    H126451   2.272   3.796   0.879 -0.7665  0.2595 -0.4168
 8829TIP3    H226452   2.393   3.705   0.872 -1.3908 -0.6165  0.0260
 8830TIP3   OH226453   6.968   4.221   5.127 -0.2263 -0.3199  0.1798
 8830TIP3    H126454   6.904   4.235   5.057  0.6901  0.8828 -0.4566
 8830TIP3    H226455   6.918   4.179   5.197 -1.7170  0.5892 -0.2889
 8831TIP3   OH226456   2.293   1.273   0.273 -0.0693  1.1334 -0.0245
 8831TIP3    H126457   2.235   1.202   0.245  0.4006  1.3911 -1.7646
 8831TIP3    H226458   2.304   1.327   0.195  1.1012  2.0838  0.7608
 8832TIP3   OH226459   5.025   4.953   5.141  0.1256 -0.2340  0.0397
 8832TIP3    H126460   4.970   4.955   5.063 -0.4091  0.0601  0.4207
 8832TIP3    H226461   4.966   4.929   5.212  0.5585 -0.2527  0.3999
 8833TIP3   OH226462   4.624   1.181   1.123  0.3387  0.2650 -0.0032
 8833TIP3    H126463   4.630   1.256   1.064  1.1087 -0.1606 -0.4794
 8833TIP3    H226464   4.532   1.180   1.151  0.0692  0.7350 -0.8460
 8834TIP3   OH226465   4.439   1.648   5.656  0.7043  0.2866 -0.5767
 8834TIP3    H126466   4.359   1.696   5.634  0.9071  0.9736  0.1620
 8834TIP3    H226467   4.510   1.708   5.636  0.9087  0.9337  1.7890
 8835TIP3   OH226468   7.006   4.573   0.243  0.2579 -0.1403  0.6969
 8835TIP3    H126469   7.012   4.556   0.149 -0.2924 -1.4859  0.8755
 8835TIP3    H226470   7.087   4.537   0.279 -0.6666 -2.0893  1.0097
 8836TIP3   OH226471   1.240   1.656   5.472 -0.1400  0.0065 -0.4766
 8836TIP3    H126472   1.309   1.591   5.477  0.2798  0.4639 -0.1413
 8836TIP3    H226473   1.166   1.617   5.520  1.1885  1.0576  2.7371
 8837TIP3   OH226474   2.950   3.906   1.245  0.0992 -0.7317 -0.2580
 8837TIP3    H126475   3.030   3.859   1.267  0.0639  0.3673  2.5015
 8837TIP3    H226476   2.965   3.995   1.274 -1.3524  0.0404 -1.6972
 8838TIP3   OH226477   0.401   6.186   3.866  0.4688  0.0365  0.2975
 8838TIP3    H126478   0.372   6.144   3.947 -1.9758  0.0948 -0.4645
 8838TIP3    H226479   0.321   6.224   3.829  1.6884  0.8271 -1.6695
 8839TIP3   OH226480   1.150   2.104   4.947  0.1967  0.0628  0.1821
 8839TIP3    H126481   1.190   2.148   4.872 -1.1188  1.0243 -0.0052
 8839TIP3    H226482   1.073   2.158   4.968 -1.1538 -1.8113  0.3389
 8840TIP3   OH226483   4.066   1.339   0.793 -0.4497  0.3686 -0.5881
 8840TIP3    H126484   4.105   1.312   0.710 -0.5195 -0.0576 -0.4861
 8840TIP3    H226485   4.112   1.286   0.859 -1.5189 -0.4824 -0.5079
 8841TIP3   OH226486   0.330   2.749   2.845  0.1372 -0.2980 -0.3901
 8841TIP3    H126487   0.393   2.713   2.783 -0.2364  0.1451 -1.0332
 8841TIP3    H226488   0.273   2.675   2.866  1.2154 -0.8611  0.6679
 8842TIP3   OH226489   0.250   3.530   0.605 -0.3193  0.5091 -0.1022
 8842TIP3    H126490   0.306   3.604   0.582 -0.1553  0.0529 -1.2676
 8842TIP3    H226491   0.291   3.455   0.562 -0.2313 -0.3562  1.4273
 8843TIP3   OH226492   5.435   3.700   1.310 -0.0152  0.1484 -0.2098
 8843TIP3    H126493   5.514   3.684   1.360  1.4002  2.7447 -1.4400
 8843TIP3    H226494   5.391   3.771   1.356 -1.0889 -0.5147 -0.1707
 8844TIP3   OH226495   3.241   5.443   1.275 -0.5769  0.5525  0.1661
 8844TIP3    H126496   3.166   5.428   1.219 -0.4027 -0.3097  0.1497
 8844TIP3    H226497   3.209   5.424   1.364 -0.3712  0.1044  0.1504
 8845TIP3   OH226498   2.230   6.605   3.343  0.0939 -0.5065  0.7332
 8845TIP3    H126499   2.280   6.672   3.390 -0.6542  1.6005 -1.2948
 8845TIP3    H226500   2.140   6.616   3.374  0.0112 -0.7408  0.5788
 8846TIP3   OH226501   3.498   2.672   5.774  0.7740 -0.5348  0.1996
 8846TIP3    H126502   3.500   2.753   5.723  0.6541  0.1114  1.1988
 8846TIP3    H226503   3.544   2.692   5.855  0.3493 -1.3246  0.6617
 8847TIP3   OH226504   0.732   0.896   3.967  0.3219  0.3349  0.0301
 8847TIP3    H126505   0.648   0.936   3.989 -1.0140 -1.3014 -1.7348
 8847TIP3    H226506   0.743   0.828   4.033  0.2889  0.5580  0.2722
 8848TIP3   OH226507   4.175   4.109   5.017 -0.0838 -0.5029 -0.2290
 8848TIP3    H126508   4.208   4.100   4.928 -3.0543  0.4476 -1.5665
 8848TIP3    H226509   4.146   4.200   5.023 -0.6935 -0.7645  1.4130
 8849TIP3   OH226510   5.565   5.423   0.296  0.3143 -0.2260  0.1352
 8849TIP3    H126511   5.555   5.518   0.303 -0.8311 -0.3937  1.0438
 8849TIP3    H226512   5.499   5.396   0.233 -0.2937 -0.5510  0.8875
 8850TIP3   OH226513   6.568   2.128   2.384 -0.1696  0.6664  0.3015
 8850TIP3    H126514   6.502   2.190   2.353  0.1997  1.4814  1.0900
 8850TIP3    H226515   6.567   2.137   2.479 -1.0468 -1.5294  0.5709
 8851TIP3   OH226516   1.407   1.685   2.320  0.3274  0.1283 -0.3762
 8851TIP3    H126517   1.377   1.768   2.284  1.0038 -0.5116 -2.5564
 8851TIP3    H226518   1.500   1.681   2.296  0.3516 -1.1409 -0.1091
 8852TIP3   OH226519   5.291   0.611   4.029 -0.1305 -0.9240 -0.2889
 8852TIP3    H126520   5.285   0.702   4.060 -2.7482 -1.4842  1.0813
 8852TIP3    H226521   5.381   0.604   3.996  0.4202  1.9160  0.2860
 8853TIP3   OH226522   6.314   3.250   4.127  0.5536 -0.0312 -0.8343
 8853TIP3    H126523   6.287   3.164   4.159  1.4598 -0.2291 -0.5462
 8853TIP3    H226524   6.280   3.255   4.038 -1.2922  0.1798 -0.1495
 8854TIP3   OH226525   5.110   4.120   4.453 -0.1577  0.3108 -0.2315
 8854TIP3    H126526   5.076   4.158   4.533 -1.0096 -1.4032  0.2830
 8854TIP3    H226527   5.163   4.046   4.482 -2.0907 -1.5937 -1.2067
 8855TIP3   OH226528   6.629   5.710   2.077 -0.3206  0.4230 -0.0441
 8855TIP3    H126529   6.556   5.692   2.137  1.2333  0.0936  1.8421
 8855TIP3    H226530   6.707   5.693   2.129  1.1368  1.9142 -1.6303
 8856TIP3   OH226531   0.844   1.601   4.316  0.2018  0.0335 -0.5701
 8856TIP3    H126532   0.882   1.521   4.353  0.5879  1.5684  2.7136
 8856TIP3    H226533   0.761   1.573   4.278 -0.3259 -1.7833  1.6966
 8857TIP3   OH226534   5.323   3.490   4.459  0.3359  0.2640 -0.0382
 8857TIP3    H126535   5.272   3.495   4.378 -0.5782 -0.0965  0.5029
 8857TIP3    H226536   5.342   3.582   4.481 -0.6114  0.4433  0.0710
 8858TIP3   OH226537   0.848   5.664   1.030 -0.5842 -0.2409  0.3900
 8858TIP3    H126538   0.773   5.657   0.970  0.3745  1.9822 -1.2175
 8858TIP3    H226539   0.922   5.632   0.979  0.0720  0.5718  0.8169
 8859TIP3   OH226540   4.182   4.704   1.454  0.0538  0.4800 -0.5199
 8859TIP3    H126541   4.126   4.751   1.515 -1.0295  0.0330 -1.1279
 8859TIP3    H226542   4.264   4.690   1.501 -0.7823  0.0642  0.8551
 8860TIP3   OH226543   6.192   5.256   3.967  0.6348 -0.2350  0.0041
 8860TIP3    H126544   6.255   5.265   3.895  1.6834  0.7356  1.0036
 8860TIP3    H226545   6.209   5.332   4.024 -1.6995  0.2896  0.1331
 8861TIP3   OH226546   3.360   3.073   1.160  0.3485  0.2015 -0.3332
 8861TIP3    H126547   3.282   3.018   1.154  0.2561  0.3056 -0.1125
 8861TIP3    H226548   3.372   3.108   1.072 -1.5918  2.5574  0.2206
 8862TIP3   OH226549   2.088   0.573   2.827 -0.0512  0.0709 -0.1604
 8862TIP3    H126550   2.141   0.503   2.865 -1.1878  0.2044  1.8203
 8862TIP3    H226551   2.002   0.533   2.812  0.1299  0.2658 -1.8576
 8863TIP3   OH226552   4.059   5.137   2.471 -0.2781  0.3620 -0.3061
 8863TIP3    H126553   4.021   5.096   2.549 -0.6898 -0.0260 -0.6950
 8863TIP3    H226554   3.983   5.170   2.422 -0.1328 -0.3809 -1.0746
 8864TIP3   OH226555   5.973   4.214   1.986 -0.4128 -0.3244 -0.2365
 8864TIP3    H126556   6.064   4.185   1.974 -0.9456 -1.9878 -0.5563
 8864TIP3    H226557   5.929   4.139   2.026 -1.6166  0.5225  0.0799
 8865TIP3   OH226558   6.087   1.093   4.164 -0.0987 -0.0177  0.3501
 8865TIP3    H126559   6.087   1.102   4.069 -0.2812  1.3301  0.4710
 8865TIP3    H226560   6.060   1.178   4.197  0.1147 -0.4195  1.6233
 8866TIP3   OH226561   5.590   1.481   0.036  0.0144 -0.0586 -0.0849
 8866TIP3    H126562   5.643   1.489   0.116  1.3145 -0.5211 -0.8645
 8866TIP3    H226563   5.604   1.390   0.008  1.2150  0.6375 -1.9065
 8867TIP3   OH226564   5.265   1.865   2.735 -0.2658 -0.9369 -0.3868
 8867TIP3    H126565   5.278   1.817   2.653 -3.0282 -0.3099 -1.2897
 8867TIP3    H226566   5.178   1.840   2.764  0.2364 -0.3222  1.8422
 8868TIP3   OH226567   3.460   6.444   3.719  0.1702  0.2977 -0.0634
 8868TIP3    H126568   3.486   6.378   3.654 -1.4643  0.4180 -0.9040
 8868TIP3    H226569   3.500   6.525   3.687  1.5834 -0.1084  0.5785
 8869TIP3   OH226570   7.188   1.915   2.252  0.5054  0.2516  0.3002
 8869TIP3    H126571   7.223   1.873   2.174 -1.6051  0.5702 -0.8933
 8869TIP3    H226572   7.144   1.994   2.219  0.8435  1.2124  2.0041
 8870TIP3   OH226573   4.141   2.067   5.598  0.6178 -0.6621 -0.5189
 8870TIP3    H126574   4.230   2.042   5.625  0.0746 -2.5817 -0.3688
 8870TIP3    H226575   4.087   2.048   5.675  0.2051  1.7173 -0.1397
 8871TIP3   OH226576   4.198   3.222   5.044  0.6021 -0.5289 -0.3884
 8871TIP3    H126577   4.286   3.184   5.047 -0.2737 -2.7282 -0.3654
 8871TIP3    H226578   4.210   3.314   5.067  3.0731 -0.4013 -1.8993
 8872TIP3   OH226579   6.140   6.426   5.203  0.0656 -0.4965  0.6516
 8872TIP3    H126580   6.158   6.510   5.245 -1.4272 -0.1981  0.7159
 8872TIP3    H226581   6.046   6.427   5.185  0.3419 -1.3691 -1.0564
 8873TIP3   OH226582   4.823   1.565   3.959  0.0381 -0.4135  0.4809
 8873TIP3    H126583   4.840   1.658   3.945 -2.5909  0.0525 -0.1719
 8873TIP3    H226584   4.858   1.547   4.046 -1.5966  1.8591  1.7183
 8874TIP3   OH226585   2.116   2.433   2.940  0.3296 -0.6083 -0.0351
 8874TIP3    H126586   2.072   2.474   3.015  0.3932  1.8437 -1.2453
 8874TIP3    H226587   2.049   2.377   2.902  0.2719 -1.8592  1.7448
 8875TIP3   OH226588   6.884   5.842   2.483  0.4912 -0.2397  0.1337
 8875TIP3    H126589   6.800   5.872   2.448  1.3273 -0.6686 -2.4829
 8875TIP3    H226590   6.877   5.746   2.483  0.0432 -0.2739  2.5892
 8876TIP3   OH226591   6.564   5.210   3.015  0.1033  0.2006 -0.1698
 8876TIP3    H126592   6.579   5.208   3.110 -0.6432 -1.1759 -0.0549
 8876TIP3    H226593   6.474   5.240   3.006  0.3367  0.8174 -0.4757
 8877TIP3   OH226594   6.380   4.920   1.270  0.3083 -0.1154 -0.3452
 8877TIP3    H126595   6.333   4.995   1.234  1.2565 -0.3965 -2.3261
 8877TIP3    H226596   6.472   4.947   1.268  0.4179 -0.1719  1.9409
 8878TIP3   OH226597   3.077   6.418   4.287  0.0294  0.0409  0.1936
 8878TIP3    H126598   3.069   6.335   4.333 -1.7336  0.1043  0.0730
 8878TIP3    H226599   3.070   6.395   4.194  0.2053  0.2638  0.1210
 8879TIP3   OH226600   6.361   5.893   3.546  0.2324 -0.3914  0.6820
 8879TIP3    H126601   6.383   5.892   3.639 -1.3892 -0.9213  1.0950
 8879TIP3    H226602   6.291   5.958   3.539 -1.5425 -2.2369  0.3390
 8880TIP3   OH226603   0.404   3.330   5.218 -0.3044 -0.0850  0.2912
 8880TIP3    H126604   0.480   3.294   5.263  0.0340 -3.2503 -2.4145
 8880TIP3    H226605   0.329   3.290   5.263 -0.4215  2.1167  2.2075
 8881TIP3   OH226606   7.089   1.366   2.021  0.4154  0.3178  0.3414
 8881TIP3    H126607   7.024   1.296   2.023  1.0244 -0.2785 -0.0556
 8881TIP3    H226608   7.043   1.444   2.052  0.0695 -0.5515  2.1164
 8882TIP3   OH226609   5.458   1.315   0.342 -0.2446  0.3916  0.3989
 8882TIP3    H126610   5.447   1.274   0.427  1.0641 -0.3525  0.2435
 8882TIP3    H226611   5.481   1.406   0.362  1.4778 -0.1119  0.9299
 8883TIP3   OH226612   2.390   1.920   5.123  0.3184  0.3917 -0.3478
 8883TIP3    H126613   2.414   2.008   5.153  0.9213  0.2197 -0.3084
 8883TIP3    H226614   2.473   1.882   5.094 -0.2010  0.4871 -2.0617
 8884TIP3   OH226615   4.458   2.508   3.436  0.3855 -0.0132  0.6230
 8884TIP3    H126616   4.411   2.461   3.504 -1.4704 -0.9134 -1.1777
 8884TIP3    H226617   4.443   2.600   3.455 -2.3571 -0.2730  0.0181
 8885TIP3   OH226618   0.977   5.866   0.602 -0.3989 -0.2476  0.4166
 8885TIP3    H126619   1.010   5.930   0.665 -1.2592 -0.4008  1.0452
 8885TIP3    H226620   0.894   5.837   0.639 -0.1064 -1.5988  0.0450
 8886TIP3   OH226621   7.007   6.435   0.614  0.1661  0.5001  0.6449
 8886TIP3    H126622   7.065   6.410   0.542 -0.4505 -0.1432  0.3670
 8886TIP3    H226623   7.042   6.520   0.644  1.2594  0.1264  0.4945
 8887TIP3   OH226624   2.528   2.691   4.312 -0.6282  0.7454 -0.5277
 8887TIP3    H126625   2.616   2.728   4.325 -1.0710  1.2230  1.4376
 8887TIP3    H226626   2.514   2.696   4.217  1.9222 -0.4756 -1.0800
 8888TIP3   OH226627   1.481   6.605   5.326 -0.0534  0.1996  0.1190
 8888TIP3    H126628   1.448   6.601   5.237 -1.1774  1.4928  0.4597
 8888TIP3    H226629   1.566   6.561   5.322 -1.0161 -1.6679 -1.1323
 8889TIP3   OH226630   1.586   1.426   0.264 -0.0616 -0.7885  0.0770
 8889TIP3    H126631   1.671   1.402   0.227  0.6026  1.1175  0.2442
 8889TIP3    H226632   1.606   1.455   0.353 -0.9259 -0.5866  0.2136
 8890TIP3   OH226633   1.283   1.342   4.031 -0.6625 -0.1723  0.1563
 8890TIP3    H126634   1.248   1.269   4.081 -2.3996  0.1112 -0.5860
 8890TIP3    H226635   1.222   1.414   4.047  0.6664  0.9544  0.3796
 8891TIP3   OH226636   3.980   2.660   1.690  0.4698  0.4278 -0.2760
 8891TIP3    H126637   3.899   2.646   1.642  0.7675 -0.6000 -0.4951
 8891TIP3    H226638   3.959   2.636   1.780  0.2433  1.2080 -0.1105
 8892TIP3   OH226639   2.597   4.122   0.761 -0.1989 -0.2345 -0.4524
 8892TIP3    H126640   2.502   4.114   0.770 -0.5474  1.5606 -1.9399
 8892TIP3    H226641   2.626   4.036   0.731 -1.4052 -0.7010 -0.3319
 8893TIP3   OH226642   0.076   1.950   5.445  0.0616  0.1189  0.2792
 8893TIP3    H126643   0.037   2.033   5.473  0.6814  0.3972  0.3226
 8893TIP3    H226644   0.020   1.883   5.485  0.3711  0.5144  1.4104
 8894TIP3   OH226645   0.840   3.417   1.116 -0.0528  0.6982 -0.2257
 8894TIP3    H126646   0.758   3.461   1.094 -0.1173  0.8420  0.2917
 8894TIP3    H226647   0.814   3.328   1.140 -0.1041  0.8599  0.3270
 8895TIP3   OH226648   5.943   1.148   0.734 -0.3239 -0.1580 -0.0201
 8895TIP3    H126649   5.875   1.115   0.675  0.1261 -0.9679 -0.1097
 8895TIP3    H226650   5.963   1.074   0.791  0.7549 -0.0721 -0.2520
 8896TIP3   OH226651   3.400   2.367   0.907  0.6015  0.6824  0.8198
 8896TIP3    H126652   3.474   2.334   0.856 -0.0460  0.6604 -0.1301
 8896TIP3    H226653   3.346   2.414   0.844 -0.9063 -0.4514  1.2074
 8897TIP3   OH226654   5.127   5.056   4.014  0.1016  0.0290  0.7477
 8897TIP3    H126655   5.104   5.068   3.922  0.7256 -2.7516  0.1433
 8897TIP3    H226656   5.214   5.018   4.012 -0.0585 -0.5083  2.4748
 8898TIP3   OH226657   1.452  -0.006   0.968 -0.1727  0.1494  0.0641
 8898TIP3    H126658   1.423   0.082   0.989  0.7584  0.3818  0.4234
 8898TIP3    H226659   1.386  -0.063   1.008 -0.8958  0.6693 -0.3606
 8899TIP3   OH226660   6.793   1.475   2.506  0.0135 -0.2237 -0.2064
 8899TIP3    H126661   6.854   1.415   2.464 -0.6921 -1.9358  1.0795
 8899TIP3    H226662   6.842   1.556   2.518  2.0048 -1.5002  0.6986
 8900TIP3   OH226663   3.088   4.365   0.625  0.3206 -0.4375  0.2591
 8900TIP3    H126664   3.087   4.404   0.712  0.5364  0.2685 -0.0529
 8900TIP3    H226665   3.052   4.277   0.638 -0.7496  0.0767  0.8564
 8901TIP3   OH226666   3.351   4.342   0.743 -0.6011  0.1045 -0.5456
 8901TIP3    H126667   3.262   4.326   0.711  0.5079 -3.8746 -2.2401
 8901TIP3    H226668   3.350   4.312   0.833 -1.0821  0.6359 -0.3669
 8902TIP3   OH226669   0.748   0.779   5.360 -0.6461 -0.0563 -0.2928
 8902TIP3    H126670   0.716   0.757   5.272  0.8839 -0.3196 -0.8159
 8902TIP3    H226671   0.840   0.753   5.359 -0.3082  0.9845  1.0360
 8903TIP3   OH226672   0.709   5.099   2.572 -0.3721 -0.3591 -0.0048
 8903TIP3    H126673   0.660   5.066   2.648  2.6981 -1.3976  1.6927
 8903TIP3    H226674   0.728   5.021   2.520 -0.7725  0.0873 -0.8423
 8904TIP3   OH226675   6.381   5.985   2.356  0.1788  0.0623 -0.1736
 8904TIP3    H126676   6.371   5.996   2.261  0.5307  1.9175 -0.0425
 8904TIP3    H226677   6.298   6.017   2.392  0.5867  0.7297  0.1919
 8905TIP3   OH226678   3.872   2.835   4.145  0.4944 -0.2375  0.8894
 8905TIP3    H126679   3.843   2.750   4.113  1.4306 -0.2510  0.0145
 8905TIP3    H226680   3.963   2.822   4.173  0.8862  0.6061  0.0877
 8906TIP3   OH226681   6.280   3.709   5.295 -0.3158  0.6409  0.0261
 8906TIP3    H126682   6.247   3.717   5.206 -0.3348  1.5983  0.1126
 8906TIP3    H226683   6.323   3.624   5.297 -0.5504  0.4969 -0.8182
 8907TIP3   OH226684   2.019   3.584   0.807  0.4345 -0.6373  0.5687
 8907TIP3    H126685   1.979   3.633   0.878  2.4768 -0.5231  1.7162
 8907TIP3    H226686   2.113   3.599   0.817  0.7954 -0.3162 -2.4084
 8908TIP3   OH226687   1.960   2.085   3.438  0.2030 -0.2870 -0.7823
 8908TIP3    H126688   2.019   2.015   3.466  0.8445  0.1950 -0.9035
 8908TIP3    H226689   2.017   2.149   3.395 -0.4808 -0.0669 -1.3956
 8909TIP3   OH226690   2.863   3.574   5.382  0.6755  0.2040  0.1884
 8909TIP3    H126691   2.952   3.565   5.350  0.8368  0.3301  0.5923
 8909TIP3    H226692   2.830   3.654   5.341  0.3427 -0.4462 -0.8720
 8910TIP3   OH226693   6.354   0.815   2.073  0.0672  0.3187 -1.0318
 8910TIP3    H126694   6.434   0.808   2.124 -0.6531 -2.3310 -0.1068
 8910TIP3    H226695   6.382   0.849   1.988  2.0701 -0.0737 -0.5715
 8911TIP3   OH226696   4.015   4.471   5.400 -0.6798 -0.1004  0.3113
 8911TIP3    H126697   4.048   4.381   5.410 -0.5335  0.1448  2.3981
 8911TIP3    H226698   4.034   4.493   5.309  2.8128 -0.8506  0.7106
 8912TIP3   OH226699   3.801   6.189   3.566 -0.1745 -0.0533 -0.0972
 8912TIP3    H126700   3.814   6.217   3.475 -0.9894  0.0125 -0.1981
 8912TIP3    H226701   3.889   6.190   3.604  0.0599  0.8157 -0.6268
 8913TIP3   OH226702   4.963   5.120   5.507  0.0701 -0.2673  0.1233
 8913TIP3    H126703   4.998   5.063   5.576  0.4062  0.1650  0.3129
 8913TIP3    H226704   5.039   5.143   5.454  0.0153  0.4019  0.3366
 8914TIP3   OH226705   4.930   5.227   0.252  0.2115  0.1543  0.5638
 8914TIP3    H126706   4.859   5.165   0.231  0.0085  0.7456 -0.5890
 8914TIP3    H226707   4.885   5.305   0.283  0.5138 -0.7577  3.5974
 8915TIP3   OH226708   0.180   6.745   1.116  0.3359  0.5897 -0.0607
 8915TIP3    H126709   0.126   6.800   1.173 -1.3640  0.0393 -1.0606
 8915TIP3    H226710   0.177   6.658   1.156 -1.5167  0.0166 -1.3284
 8916TIP3   OH226711   5.111   6.263   2.507  0.5395 -0.4024  0.1674
 8916TIP3    H126712   5.158   6.343   2.482  1.5180 -1.3034 -1.0040
 8916TIP3    H226713   5.119   6.206   2.431 -0.5750 -1.4428  0.7950
 8917TIP3   OH226714   3.764   5.528   3.849 -0.2140  0.4572 -0.1097
 8917TIP3    H126715   3.796   5.598   3.906 -0.8955  1.7287 -1.2565
 8917TIP3    H226716   3.669   5.542   3.845 -0.5896 -1.4297  0.7927
 8918TIP3   OH226717   6.576   1.222   1.321  0.1735  0.7758 -0.2251
 8918TIP3    H126718   6.667   1.209   1.347  0.0652  1.9903  0.8604
 8918TIP3    H226719   6.550   1.139   1.282  1.4643  0.0921  0.3135
 8919TIP3   OH226720   6.655   4.777   1.505 -0.1413 -0.1950  0.3539
 8919TIP3    H126721   6.714   4.781   1.580 -0.6874  1.0384  0.7345
 8919TIP3    H226722   6.568   4.770   1.543 -0.3966  0.0974 -0.1671
 8920TIP3   OH226723   4.229   3.559   4.632  0.2033  0.8064  0.1521
 8920TIP3    H126724   4.272   3.577   4.548 -0.5142  0.7012 -0.2476
 8920TIP3    H226725   4.276   3.612   4.695  1.6584 -0.1521 -0.0744
 8921TIP3   OH226726   1.845   6.793   0.133  0.2404  0.2603 -0.0990
 8921TIP3    H126727   1.884   6.765   0.216  0.4070  1.5523  0.2731
 8921TIP3    H226728   1.834   6.711   0.083 -3.0608 -1.0963  2.4844
 8922TIP3   OH226729   1.078   3.062   2.448 -0.0673 -0.5347 -1.0382
 8922TIP3    H126730   1.139   2.995   2.479 -0.4153 -0.8126 -0.9420
 8922TIP3    H226731   1.122   3.101   2.373  0.6158 -0.1118 -0.4234
 8923TIP3   OH226732   2.903   3.532   5.660  0.1913 -0.3903 -0.1906
 8923TIP3    H126733   2.904   3.539   5.565 -1.5079  2.3010 -0.1229
 8923TIP3    H226734   2.857   3.450   5.678  2.8030 -2.3016 -1.5854
 8924TIP3   OH226735   0.122   4.893   4.403  0.4710 -0.0488 -0.6000
 8924TIP3    H126736   0.185   4.948   4.448 -0.4140 -0.3326  1.0713
 8924TIP3    H226737   0.142   4.804   4.432 -0.5344 -0.1631 -0.2081
 8925TIP3   OH226738   6.693   5.041   0.018  0.5202  0.5253  0.0647
 8925TIP3    H126739   6.759   5.091   0.066  0.7486  0.3422 -0.0595
 8925TIP3    H226740   6.735   5.017  -0.064  0.0605  1.0034 -0.3135
 8926TIP3   OH226741   0.180   0.197   2.324 -0.5869  0.2105  0.2696
 8926TIP3    H126742   0.209   0.286   2.344 -2.0437  0.8006 -0.1268
 8926TIP3    H226743   0.140   0.166   2.405 -0.4170  0.0563  0.2940
 8927TIP3   OH226744   0.202   0.427   1.946  0.2445 -0.5249  0.0654
 8927TIP3    H126745   0.150   0.485   1.889 -1.5507 -1.6821  0.4436
 8927TIP3    H226746   0.216   0.478   2.026 -0.1462 -0.1164 -0.1234
 8928TIP3   OH226747   0.904   5.594   5.157 -0.0744  0.5612 -0.2465
 8928TIP3    H126748   0.994   5.626   5.162  0.1333 -0.1672  1.1217
 8928TIP3    H226749   0.883   5.568   5.247 -2.1336  1.9778 -0.2517
 8929TIP3   OH226750   6.898   5.862   2.774  0.2891  0.1549  0.0221
 8929TIP3    H126751   6.862   5.780   2.806  0.6055  0.1513  0.3676
 8929TIP3    H226752   6.920   5.844   2.682 -0.3969  0.1012 -0.1376
 8930TIP3   OH226753   0.341   5.511   1.270  0.6256  0.2303 -0.0028
 8930TIP3    H126754   0.377   5.556   1.347  0.4249 -0.0052  0.2332
 8930TIP3    H226755   0.266   5.463   1.304  1.1178 -0.6751 -0.1572
 8931TIP3   OH226756   0.974   2.844   5.789 -0.3007  0.1450  0.4983
 8931TIP3    H126757   1.055   2.815   5.830 -1.0062 -2.5665  0.1473
 8931TIP3    H226758   1.001   2.913   5.728  1.5976 -0.0651  1.0361
 8932TIP3   OH226759   4.219   5.498   2.224 -0.1270 -0.2253 -0.0992
 8932TIP3    H126760   4.226   5.437   2.150 -2.3608  0.5520 -1.0198
 8932TIP3    H226761   4.139   5.547   2.207 -0.3007  0.5000  2.4793
 8933TIP3   OH226762   2.816   2.981   1.851 -0.0809  0.3602 -0.4847
 8933TIP3    H126763   2.873   2.934   1.790  0.7051 -0.3744  0.7917
 8933TIP3    H226764   2.872   3.002   1.925 -1.1953  0.6556  0.2978
 8934TIP3   OH226765   2.757   2.129   5.060  0.0531 -0.1439  0.2892
 8934TIP3    H126766   2.834   2.123   5.004  0.9440  1.4691  1.2826
 8934TIP3    H226767   2.684   2.141   4.999  1.0834  2.3355 -0.5915
 8935TIP3   OH226768   6.560   3.301   4.582  0.2044  0.0595 -0.1632
 8935TIP3    H126769   6.640   3.349   4.560  0.9813 -1.6026 -1.2407
 8935TIP3    H226770   6.563   3.292   4.677 -0.5792  3.0363  0.2401
 8936TIP3   OH226771   6.901   4.768   2.228 -0.0802  0.0122  0.2573
 8936TIP3    H126772   6.916   4.699   2.163  1.2796 -0.1328  0.6996
 8936TIP3    H226773   6.809   4.757   2.253 -0.3928 -0.4722 -1.0085
 8937TIP3   OH226774   4.637   0.109   4.868 -0.3358  0.2817  0.3496
 8937TIP3    H126775   4.607   0.027   4.827  0.2832  0.6746 -0.9568
 8937TIP3    H226776   4.563   0.169   4.858 -0.6214  0.0273  0.8936
 8938TIP3   OH226777   2.076   5.655   1.634  0.2052 -0.4068  0.3275
 8938TIP3    H126778   2.074   5.574   1.583 -0.3520  0.1514 -0.5573
 8938TIP3    H226779   2.155   5.700   1.603  0.2491 -0.3910  0.4634
 8939TIP3   OH226780   7.002   3.943   5.602 -0.2018 -0.2644  0.1843
 8939TIP3    H126781   7.009   3.907   5.514 -3.4994 -1.1740  0.1772
 8939TIP3    H226782   7.023   3.870   5.660 -0.0006 -0.2124  0.1798
 8940TIP3   OH226783   3.296   1.734   2.580  0.2457  0.8185 -0.3321
 8940TIP3    H126784   3.275   1.758   2.490  1.5940  0.3312 -0.8014
 8940TIP3    H226785   3.369   1.791   2.604  1.0163 -0.1990 -0.1634
 8941TIP3   OH226786   5.477   5.220   0.489 -0.0051  0.1197 -0.0346
 8941TIP3    H126787   5.461   5.314   0.480 -4.9502 -0.4880 -0.0798
 8941TIP3    H226788   5.512   5.194   0.403  2.6031  1.9421  0.3579
 8942TIP3   OH226789   2.212   5.539   4.615  0.2056 -0.1436  0.1867
 8942TIP3    H126790   2.278   5.546   4.547 -0.6987 -2.0956 -0.9921
 8942TIP3    H226791   2.261   5.543   4.697  1.6734 -0.5665 -0.6411
 8943TIP3   OH226792   4.805   4.346   5.420  0.4086 -0.0559  0.1409
 8943TIP3    H126793   4.832   4.429   5.382 -0.1389 -0.4702 -1.2123
 8943TIP3    H226794   4.766   4.369   5.504  1.0903  0.9519  0.1904
 8944TIP3   OH226795   2.235   0.345   2.914  0.0473 -0.2688 -0.3368
 8944TIP3    H126796   2.213   0.253   2.897  0.5252 -1.3872  3.9119
 8944TIP3    H226797   2.325   0.342   2.946 -0.1281  1.6052  0.4172
 8945TIP3   OH226798   3.894   3.641   1.094 -0.3683 -0.2835 -0.0828
 8945TIP3    H126799   3.957   3.661   1.025 -0.3024 -2.0533 -0.5691
 8945TIP3    H226800   3.923   3.695   1.168  1.1896 -0.3793 -0.5798
 8946TIP3   OH226801   2.212   0.847   4.343 -0.3086  0.0926 -0.0985
 8946TIP3    H126802   2.289   0.809   4.301 -0.5695 -0.5524 -0.0046
 8946TIP3    H226803   2.245   0.925   4.387  0.5649 -0.9216  1.0986
 8947TIP3   OH226804   3.938   0.233   0.480 -0.1563 -0.3477  0.1092
 8947TIP3    H126805   3.961   0.211   0.570  0.1058  0.5787  0.2762
 8947TIP3    H226806   4.015   0.277   0.445 -0.7839  0.6397 -0.0877
 8948TIP3   OH226807   0.591   3.399   2.931  0.1564  0.7556 -0.1065
 8948TIP3    H126808   0.628   3.442   3.008  0.5520  1.1383 -0.5020
 8948TIP3    H226809   0.666   3.355   2.890 -0.0336  0.6242 -0.3166
 8949TIP3   OH226810   1.192   0.148   4.810 -0.2322 -0.0072 -0.1512
 8949TIP3    H126811   1.190   0.054   4.827  1.3333  0.0589  0.5212
 8949TIP3    H226812   1.177   0.155   4.715  0.5242 -1.0011 -0.3640
 8950TIP3   OH226813   6.334   1.787   3.447 -0.0220  0.4862 -0.2738
 8950TIP3    H126814   6.259   1.827   3.491 -1.5128 -0.3426 -1.9432
 8950TIP3    H226815   6.376   1.859   3.400  0.4177  1.0030  0.8872
 8951TIP3   OH226816   5.377   0.960   4.694  0.1273 -0.5045  0.0650
 8951TIP3    H126817   5.420   0.897   4.636 -0.6900  0.7745 -2.0362
 8951TIP3    H226818   5.434   0.966   4.770  1.5165 -1.8582 -0.8139
 8952TIP3   OH226819   2.340   6.200   4.235 -0.0712  0.4534  0.1284
 8952TIP3    H126820   2.418   6.168   4.281  1.8869  1.4283 -2.2816
 8952TIP3    H226821   2.267   6.162   4.284  1.8718 -0.8561  2.2841
 8953TIP3   OH226822   5.260   4.523   0.145 -0.4954  0.5352  0.0110
 8953TIP3    H126823   5.335   4.470   0.170 -1.4783 -1.4146 -0.9024
 8953TIP3    H226824   5.268   4.532   0.050  0.0648  2.7901  0.2094
 8954TIP3   OH226825   7.086   4.709   5.549  0.1967  0.1369  0.6947
 8954TIP3    H126826   7.177   4.730   5.526 -0.2090 -1.2334 -2.6489
 8954TIP3    H226827   7.092   4.627   5.598  0.6921 -2.1697 -2.9076
 8955TIP3   OH226828   0.156   5.651   2.563  0.0150  0.0370 -0.0622
 8955TIP3    H126829   0.251   5.659   2.552  0.0933 -1.1568 -0.4261
 8955TIP3    H226830   0.122   5.642   2.474 -0.5413  1.2714  0.0084
 8956TIP3   OH226831   1.642   0.622   1.776  0.5815 -0.0319 -0.8304
 8956TIP3    H126832   1.661   0.656   1.864 -0.3009 -2.0529  0.2203
 8956TIP3    H226833   1.725   0.632   1.729  1.4078  0.1367  0.5802
 8957TIP3   OH226834   2.908   5.528   3.551 -0.7783 -0.1276 -0.0010
 8957TIP3    H126835   2.931   5.567   3.635  0.4485  0.2714 -0.4917
 8957TIP3    H226836   2.857   5.596   3.506 -2.0756 -0.6206  0.6911
 8958TIP3   OH226837   5.350   1.980   0.362  0.4977 -0.4343 -0.0076
 8958TIP3    H126838   5.264   1.952   0.331 -0.7330  3.4069 -0.6503
 8958TIP3    H226839   5.408   1.967   0.288 -0.3648  0.1769 -0.8168
 8959TIP3   OH226840   0.871   5.996   5.226  0.5546  0.2381  0.7887
 8959TIP3    H126841   0.783   6.025   5.253 -0.0189  0.6788 -1.3452
 8959TIP3    H226842   0.912   5.966   5.307 -1.8652 -0.8034  1.7365
 8960TIP3   OH226843   5.968   0.677   3.348 -0.3879 -0.3450 -0.7439
 8960TIP3    H126844   6.058   0.648   3.362 -0.0425  1.9287  3.0502
 8960TIP3    H226845   5.931   0.610   3.289  2.1364 -4.6127  1.9289
 8961TIP3   OH226846   2.189   2.047   2.675 -0.0792  0.1957  0.1579
 8961TIP3    H126847   2.215   2.020   2.587 -1.4771 -2.3359  0.4443
 8961TIP3    H226848   2.160   2.138   2.665  1.4894  0.5498 -1.5956
 8962TIP3   OH226849   4.967   0.983   4.658  0.5688  0.0289  0.1400
 8962TIP3    H126850   5.057   0.991   4.691  1.2159 -0.6102 -1.3898
 8962TIP3    H226851   4.963   1.045   4.586 -0.6708  1.0270  1.0229
 8963TIP3   OH226852   5.745   2.932   2.563  0.1724  0.2834 -0.3357
 8963TIP3    H126853   5.670   2.960   2.510 -1.2061  1.3677  2.0181
 8963TIP3    H226854   5.768   2.846   2.529  0.0052  1.2829 -3.2544
 8964TIP3   OH226855   4.202   0.121   1.459 -0.4985 -0.1716 -0.7815
 8964TIP3    H126856   4.116   0.088   1.433 -0.2743  0.0773 -1.8641
 8964TIP3    H226857   4.237   0.053   1.516 -2.0098  0.3732  0.8977
 8965TIP3   OH226858   4.531   2.265   1.396 -0.5755  0.4166 -0.4048
 8965TIP3    H126859   4.619   2.300   1.384 -0.5656  0.6902  0.4183
 8965TIP3    H226860   4.544   2.182   1.442 -0.7967  0.8955  0.5370
 8966TIP3   OH226861   5.268   5.942   3.599  0.1841 -0.2773  0.0723
 8966TIP3    H126862   5.300   6.024   3.635  0.6029 -0.3490 -0.1242
 8966TIP3    H226863   5.344   5.884   3.602  0.3010 -0.2130 -1.1292
 8967TIP3   OH226864   0.336   3.374   1.726 -0.1283  0.0659 -0.0544
 8967TIP3    H126865   0.282   3.453   1.728 -0.9984 -0.5070 -0.0829
 8967TIP3    H226866   0.353   3.354   1.818  0.3669  0.4581 -0.0559
 8968TIP3   OH226867   2.049   0.480   4.138  0.0449 -0.2492  0.3681
 8968TIP3    H126868   2.023   0.423   4.211  2.1776 -0.1289  1.3021
 8968TIP3    H226869   2.017   0.567   4.163 -0.7246 -0.5087  0.3152
 8969TIP3   OH226870   2.846   2.693   1.201 -0.6271  0.0953  0.5941
 8969TIP3    H126871   2.764   2.644   1.214 -0.3597 -1.0839 -1.6999
 8969TIP3    H226872   2.905   2.657   1.267 -1.0026 -1.4190  0.1448
 8970TIP3   OH226873   1.576   6.117   0.922 -0.0358  0.1695  0.3091
 8970TIP3    H126874   1.511   6.187   0.915 -0.6224 -0.4685 -0.8881
 8970TIP3    H226875   1.616   6.111   0.836  1.2090  0.1397  0.8632
 8971TIP3   OH226876   3.950   5.275   5.371  0.1903 -0.9205  0.2072
 8971TIP3    H126877   3.956   5.346   5.308 -1.2919 -0.5105  0.4913
 8971TIP3    H226878   3.924   5.318   5.453  0.8106 -1.5970  0.7718
 8972TIP3   OH226879   6.722   5.828   0.816  0.4314  0.8737 -0.2169
 8972TIP3    H126880   6.754   5.903   0.865  0.8625  0.1446  0.6286
 8972TIP3    H226881   6.790   5.811   0.751  0.9643  0.4017  0.4522
 8973TIP3   OH226882   4.121   3.070   2.920  0.5244 -0.0604  0.3182
 8973TIP3    H126883   4.188   3.003   2.931 -0.4040 -0.8752  1.2207
 8973TIP3    H226884   4.168   3.153   2.928  1.7679 -0.5649 -1.2464
 8974TIP3   OH226885   3.337   4.997   1.810 -0.2005  0.2398  0.3354
 8974TIP3    H126886   3.312   5.089   1.815 -0.2957  0.4094 -1.8957
 8974TIP3    H226887   3.426   4.997   1.777 -1.1865 -0.3804 -2.7017
 8975TIP3   OH226888   5.767   5.252   4.240  0.3602 -0.2780 -0.4710
 8975TIP3    H126889   5.819   5.204   4.175  1.3499  0.1456 -0.0150
 8975TIP3    H226890   5.687   5.276   4.194  1.8775  1.8099 -2.2233
 8976TIP3   OH226891   6.243   1.107   0.790 -0.1761 -0.1787  0.5030
 8976TIP3    H126892   6.190   1.052   0.848 -1.7130  0.0939 -0.6087
 8976TIP3    H226893   6.194   1.111   0.708 -0.1249  2.8042  0.5043
 8977TIP3   OH226894   6.492   2.296   0.515 -0.3858 -0.1515  0.4235
 8977TIP3    H126895   6.502   2.293   0.610  0.9442 -0.2848  0.3008
 8977TIP3    H226896   6.480   2.205   0.489  0.9998 -0.3310  0.3243
 8978TIP3   OH226897   0.328   0.691   2.144  0.2643 -0.1791  0.0746
 8978TIP3    H126898   0.389   0.764   2.136 -0.5625  0.4220 -1.2827
 8978TIP3    H226899   0.383   0.613   2.141  1.0341  0.3660 -0.2593
 8979TIP3   OH226900   6.126   3.938   2.828  0.4961  0.7170  0.1680
 8979TIP3    H126901   6.202   3.944   2.770  1.5148 -2.7537  0.9332
 8979TIP3    H226902   6.077   3.861   2.797 -1.1259  1.1467  1.4764
 8980TIP3   OH226903   1.016   2.746   5.443 -0.7099 -0.0299  0.0052
 8980TIP3    H126904   1.005   2.774   5.352  0.5074 -0.3811 -0.2701
 8980TIP3    H226905   1.106   2.769   5.464 -0.6548 -0.9092  0.7779
 8981TIP3   OH226906   5.267   3.422   1.850 -0.6416 -0.0946  0.2668
 8981TIP3    H126907   5.203   3.462   1.792  1.1749  0.0336 -1.7906
 8981TIP3    H226908   5.231   3.432   1.938 -4.3507 -1.7971 -0.8775
 8982TIP3   OH226909   0.624   4.855   0.191 -0.4730  0.1221 -0.3482
 8982TIP3    H126910   0.611   4.932   0.246  1.7929 -0.9112  1.8555
 8982TIP3    H226911   0.549   4.798   0.212  0.6049 -0.4812  2.2624
 8983TIP3   OH226912   2.979   3.860   1.951 -0.0605 -0.1290 -0.4597
 8983TIP3    H126913   2.884   3.861   1.949 -0.0729  2.4859 -1.8534
 8983TIP3    H226914   3.003   3.932   2.009  1.1190 -1.0874  0.3081
 8984TIP3   OH226915   7.132   3.817   4.829 -0.0584 -0.3041 -0.1911
 8984TIP3    H126916   7.049   3.807   4.782 -1.3806  0.4780  1.8483
 8984TIP3    H226917   7.113   3.881   4.898  1.6725 -1.6291  1.6247
 8985TIP3   OH226918   6.065   4.438   0.340  0.2726  0.3684  0.3092
 8985TIP3    H126919   6.029   4.456   0.427  0.4920  1.5573  0.1752
 8985TIP3    H226920   6.142   4.384   0.357 -0.5393 -0.7032  0.7229
 8986TIP3   OH226921   4.570   6.326   4.695 -0.1065  0.2548 -0.1393
 8986TIP3    H126922   4.610   6.314   4.609  0.9389 -1.7415  0.5495
 8986TIP3    H226923   4.555   6.420   4.702  3.4034  1.0098 -0.9623
 8987TIP3   OH226924   3.328   5.268   5.462  0.3022 -0.0065  0.1653
 8987TIP3    H126925   3.366   5.351   5.490  3.2060 -0.6996 -1.3803
 8987TIP3    H226926   3.381   5.201   5.505 -1.4386 -1.1290  0.7067
 8988TIP3   OH226927   1.146   2.133   4.299  0.4602  0.4451 -0.2754
 8988TIP3    H126928   1.173   2.066   4.237  0.5081 -0.0302  0.2447
 8988TIP3    H226929   1.052   2.143   4.284  0.6587  1.1249 -1.1602
 8989TIP3   OH226930   5.981   5.286   1.877  0.4551  0.0539 -0.3337
 8989TIP3    H126931   5.886   5.278   1.870  0.5546 -1.1669 -0.4271
 8989TIP3    H226932   5.994   5.360   1.937 -0.5116  1.4786 -1.7910
 8990TIP3   OH226933   6.367   6.733   1.663 -0.1332  0.2275 -0.1785
 8990TIP3    H126934   6.384   6.643   1.639 -2.0396 -0.0189 -0.7635
 8990TIP3    H226935   6.413   6.785   1.597  0.0261 -0.3313 -0.5122
 8991TIP3   OH226936   0.828   4.266   2.162  0.1568  0.5518 -0.0176
 8991TIP3    H126937   0.872   4.277   2.077  0.4999 -0.3649  0.0344
 8991TIP3    H226938   0.838   4.173   2.182  0.1659  0.7864  1.0840
 8992TIP3   OH226939   7.158   3.877   1.853  0.0435 -0.4197  0.3620
 8992TIP3    H126940   7.097   3.935   1.900  0.5166 -0.6318  1.2636
 8992TIP3    H226941   7.244   3.897   1.891  0.1099 -2.2611  1.2942
 8993TIP3   OH226942   0.867   6.227   5.658 -0.1541  0.1784 -0.8959
 8993TIP3    H126943   0.906   6.289   5.718  1.3673 -0.7944 -0.8308
 8993TIP3    H226944   0.808   6.280   5.603  0.6052  1.5469 -0.4314
 8994TIP3   OH226945   2.815   0.864   5.239 -0.1404 -0.0267  0.3027
 8994TIP3    H126946   2.727   0.849   5.273 -0.2178 -0.4358 -0.0660
 8994TIP3    H226947   2.873   0.815   5.298 -0.3363 -1.3123 -0.5365
 8995TIP3   OH226948   3.020   1.645   3.688 -0.3918 -0.3430 -0.0477
 8995TIP3    H126949   2.954   1.611   3.748  0.2111 -1.4082  0.0373
 8995TIP3    H226950   3.089   1.679   3.745 -1.0377  1.1675 -0.1310
 8996TIP3   OH226951   6.859   6.814   0.380 -0.1696  0.3037  0.1561
 8996TIP3    H126952   6.846   6.738   0.322 -1.0355  1.1383 -0.7904
 8996TIP3    H226953   6.947   6.803   0.415 -0.1001 -0.8862 -0.3485
 8997TIP3   OH226954   5.304   3.553   5.854 -0.0952  0.6107 -0.3842
 8997TIP3    H126955   5.397   3.574   5.844 -0.5159  1.9619 -1.9501
 8997TIP3    H226956   5.296   3.462   5.826  1.1941 -0.6197  2.8212
 8998TIP3   OH226957   0.489   6.315   1.220  0.2150 -0.5920 -0.3728
 8998TIP3    H126958   0.534   6.279   1.143 -1.8177 -1.8107 -1.0599
 8998TIP3    H226959   0.417   6.366   1.185 -0.4614 -0.7725  0.6999
 8999TIP3   OH226960   4.411   2.945   1.624 -0.3694  0.2568  0.3344
 8999TIP3    H126961   4.434   2.860   1.586 -0.8958 -0.5314  1.7158
 8999TIP3    H226962   4.316   2.942   1.634 -0.2995  0.6262  1.2363
 9000TIP3   OH226963   3.967   5.352   4.818  0.3060  0.1265 -0.2779
 9000TIP3    H126964   3.881   5.370   4.779  0.7278  0.0479 -1.2759
 9000TIP3    H226965   4.029   5.385   4.753  1.0446 -1.3694 -0.3553
 9001TIP3   OH226966   4.469   2.579   5.815  0.1070 -0.0118 -0.4559
 9001TIP3    H126967   4.442   2.621   5.734 -0.8914 -0.9560 -0.6463
 9001TIP3    H226968   4.415   2.620   5.882 -2.2829 -2.1484 -0.8828
 9002TIP3   OH226969   1.916   5.814   1.481  0.0071  0.0313 -0.1112
 9002TIP3    H126970   1.948   5.732   1.517 -0.0516  0.1309  0.1709
 9002TIP3    H226971   1.964   5.882   1.529 -1.2669  0.2085  0.9576
 9003TIP3   OH226972   4.001   4.095   5.584 -0.4070 -0.8469 -0.1473
 9003TIP3    H126973   4.020   4.111   5.676 -0.0940 -1.4801 -0.1007
 9003TIP3    H226974   4.071   4.140   5.537 -0.0270 -1.3256 -0.0430
 9004TIP3   OH226975   3.986   6.197   1.488  0.3648  0.2426 -0.5131
 9004TIP3    H126976   3.992   6.146   1.568  0.2752 -0.8217 -1.1701
 9004TIP3    H226977   4.062   6.172   1.437 -0.6249 -0.6308 -1.6227
 9005TIP3   OH226978   5.258   0.167   3.988  0.3307 -0.2842 -0.3679
 9005TIP3    H126979   5.191   0.159   4.056 -0.0969 -0.5928 -0.8256
 9005TIP3    H226980   5.212   0.151   3.906  1.0648 -1.0755 -0.6451
 9006TIP3   OH226981   7.131   2.097   4.427 -0.9931 -0.5674  0.0812
 9006TIP3    H126982   7.152   2.181   4.468 -0.2388 -0.4575 -0.4981
 9006TIP3    H226983   7.213   2.047   4.432 -0.7862 -0.4409 -1.5226
 9007TIP3   OH226984   3.351   6.391   3.966  0.6200 -0.4624  0.1412
 9007TIP3    H126985   3.279   6.333   3.941  0.2086 -0.3352  1.0210
 9007TIP3    H226986   3.355   6.456   3.896 -1.8610  1.1152  1.3503
 9008TIP3   OH226987   1.105   2.375   0.193  0.0950  0.3966  0.3427
 9008TIP3    H126988   1.041   2.442   0.216 -0.5443  0.2525 -0.9421
 9008TIP3    H226989   1.179   2.425   0.158 -0.3717  0.4571 -0.5943
 9009TIP3   OH226990   5.331   4.492   5.803 -0.0400  0.5099 -0.3809
 9009TIP3    H126991   5.241   4.504   5.771  0.1362  1.4399 -0.5340
 9009TIP3    H226992   5.367   4.580   5.809  0.4212  0.2492  1.0222
 9010TIP3   OH226993   1.171   5.525   0.453  0.4161 -0.0091  0.8137
 9010TIP3    H126994   1.236   5.461   0.423 -1.9502 -1.9155 -0.6245
 9010TIP3    H226995   1.159   5.584   0.379  0.2760  0.1225  0.9395
 9011TIP3   OH226996   0.777   6.545   4.013 -0.5125  0.5758 -0.1027
 9011TIP3    H126997   0.823   6.481   3.960 -0.8018  0.9168 -0.7795
 9011TIP3    H226998   0.794   6.519   4.103 -0.4350 -0.3094 -0.3685
 9012TIP3   OH226999   4.113   3.868   3.205 -0.1186  0.3655  0.1669
 9012TIP3    H127000   4.177   3.830   3.265 -0.2162  0.5097  0.3655
 9012TIP3    H227001   4.040   3.895   3.262 -1.2009 -1.4803 -0.2453
 9013TIP3   OH227002   1.707   0.344   4.967 -0.3094  0.0515  0.1440
 9013TIP3    H127003   1.614   0.326   4.956 -0.2115 -0.6562  0.4054
 9013TIP3    H227004   1.742   0.349   4.878 -0.7026  0.9423  0.0288
 9014TIP3   OH227005   2.140   3.704   4.763  0.4703  0.5890 -0.0998
 9014TIP3    H127006   2.231   3.708   4.794  1.4851  1.8532 -2.9620
 9014TIP3    H227007   2.132   3.776   4.702 -1.8534 -0.7519 -1.5243
 9015TIP3   OH227008   2.672   2.420   5.410 -0.0361 -0.0805  1.2379
 9015TIP3    H127009   2.688   2.396   5.318  2.2673 -0.4501  1.6577
 9015TIP3    H227010   2.730   2.362   5.459 -1.7178 -0.3390  2.9971
 9016TIP3   OH227011   0.291   5.835   1.167  0.0683  0.2383 -0.0715
 9016TIP3    H127012   0.260   5.861   1.080 -0.1640 -0.7126 -0.2814
 9016TIP3    H227013   0.384   5.814   1.154 -0.1286 -0.5740 -0.2536
 9017TIP3   OH227014   6.820   6.638   2.387 -0.5568  0.1118  0.4551
 9017TIP3    H127015   6.887   6.680   2.442  0.3409 -0.1458 -0.4104
 9017TIP3    H227016   6.803   6.701   2.318 -1.1793  0.1509  0.6429
 9018TIP3   OH227017   2.209   2.197   5.334 -0.0771 -0.0697 -0.0792
 9018TIP3    H127018   2.285   2.244   5.369 -0.7969  0.9194  0.1912
 9018TIP3    H227019   2.141   2.210   5.400 -0.6826 -0.3681 -0.6414
 9019TIP3   OH227020   1.491   0.894   3.971  0.2135 -0.4706 -0.2604
 9019TIP3    H127021   1.489   0.990   3.977  4.0376 -0.0474 -2.4111
 9019TIP3    H227022   1.549   0.867   4.043 -0.0786 -1.0709 -0.2455
 9020TIP3   OH227023   6.101   6.621   1.144  0.4985 -0.4160  0.2709
 9020TIP3    H127024   6.149   6.621   1.227  0.9759 -0.3021  0.0022
 9020TIP3    H227025   6.030   6.559   1.158  0.5396 -0.3553  0.7847
 9021TIP3   OH227026   6.520   1.436   4.134 -0.1520 -0.0501 -0.4971
 9021TIP3    H127027   6.453   1.502   4.151  0.1412 -0.0152  0.6173
 9021TIP3    H227028   6.577   1.475   4.068 -1.0278  0.0531 -1.2109
 9022TIP3   OH227029   5.530   5.714   2.609 -0.0497  0.8043  0.0654
 9022TIP3    H127030   5.446   5.755   2.631  0.6780  2.6729 -0.4140
 9022TIP3    H227031   5.506   5.636   2.558 -1.4858  1.1572  0.1463
 9023TIP3   OH227032   1.400   5.404   0.388  0.0359 -0.2101 -0.6581
 9023TIP3    H127033   1.437   5.317   0.372 -1.2304 -1.0556  0.7353
 9023TIP3    H227034   1.425   5.425   0.478 -1.6262 -0.1900 -0.1683
 9024TIP3   OH227035   0.295   4.547   5.628  0.8097 -0.3105  0.2651
 9024TIP3    H127036   0.234   4.610   5.591  0.7523  0.0157  0.9052
 9024TIP3    H227037   0.374   4.598   5.648 -0.3355  0.3278  3.8026
 9025TIP3   OH227038   3.214   3.901   0.960 -0.8827  0.1606  0.3409
 9025TIP3    H127039   3.235   3.902   1.053 -0.2307  1.6904  0.2150
 9025TIP3    H227040   3.299   3.884   0.917 -1.0609  0.1047  0.0059
 9026TIP3   OH227041   5.328   1.248   5.004 -0.4325 -0.1687  0.1349
 9026TIP3    H127042   5.279   1.330   4.991 -1.6940 -0.7614  0.9289
 9026TIP3    H227043   5.262   1.179   4.992  0.5413 -1.0702 -0.1953
 9027TIP3   OH227044   0.266   3.688   5.330  0.4531  0.3252 -0.0411
 9027TIP3    H127045   0.283   3.657   5.419  1.7646  0.8341 -0.0835
 9027TIP3    H227046   0.192   3.748   5.339  0.3314  0.0878  0.6432
 9028TIP3   OH227047   2.626   0.150   4.239  0.0487 -0.1791  0.0931
 9028TIP3    H127048   2.702   0.137   4.296  0.8012  1.2550 -0.5236
 9028TIP3    H227049   2.654   0.118   4.153 -0.7805 -1.5356  0.3009
 9029TIP3   OH227050   1.696   0.036   4.742 -0.6545 -0.3021  0.1890
 9029TIP3    H127051   1.630   0.102   4.762 -0.5810  0.1171 -0.8988
 9029TIP3    H227052   1.746   0.072   4.669 -0.0095 -1.1542  0.1823
 9030TIP3   OH227053   3.580   5.458   5.363  0.8470 -0.0028 -0.5019
 9030TIP3    H127054   3.640   5.508   5.308  1.5849 -1.7273 -1.3334
 9030TIP3    H227055   3.528   5.524   5.408  0.8202  1.4952 -2.5915
 9031TIP3   OH227056   2.541   5.522   5.329 -0.0344 -0.1780  0.6758
 9031TIP3    H127057   2.615   5.583   5.328 -0.5608  0.4809  0.5589
 9031TIP3    H227058   2.573   5.444   5.285  0.7191 -0.0532  0.9946
 9032TIP3   OH227059   3.727   5.892   5.232  0.0235  0.0590 -0.0356
 9032TIP3    H127060   3.709   5.977   5.192 -0.5810  0.2349  0.5981
 9032TIP3    H227061   3.711   5.905   5.325 -0.5754 -0.8823  0.0010
 9033TIP3   OH227062   4.878   4.193   1.862 -0.5832 -0.0077 -0.5950
 9033TIP3    H127063   4.796   4.198   1.811 -0.2531  0.5332 -1.0849
 9033TIP3    H227064   4.932   4.130   1.814  0.0431  1.1002 -1.3991
 9034TIP3   OH227065   5.180   6.749   1.577  0.2145  0.1966  0.3746
 9034TIP3    H127066   5.243   6.728   1.646 -0.8530 -0.4112  1.1984
 9034TIP3    H227067   5.116   6.805   1.620  0.8730  1.9136 -0.7929
 9035TIP3   OH227068   2.215   5.484   4.896  0.4131  1.3871  0.3196
 9035TIP3    H127069   2.123   5.511   4.905 -0.2413 -0.1032 -1.4351
 9035TIP3    H227070   2.229   5.426   4.971 -1.0335 -0.7155 -0.9356
 9036TIP3   OH227071   6.654   0.700   4.358 -0.3690 -0.1943  0.2611
 9036TIP3    H127072   6.683   0.713   4.449  0.2982  0.7752 -0.0716
 9036TIP3    H227073   6.680   0.781   4.313 -0.4949 -0.7557 -0.8449
 9037TIP3   OH227074   4.312   2.490   2.020 -0.2155 -0.5303  0.0198
 9037TIP3    H127075   4.389   2.433   2.010 -0.7108 -0.8795 -2.6924
 9037TIP3    H227076   4.253   2.462   1.951 -1.4583  1.8078  0.0315
 9038TIP3   OH227077   3.414   6.575   4.909  0.6001  0.4740 -0.1838
 9038TIP3    H127078   3.487   6.597   4.968 -0.9196  1.6061  1.4114
 9038TIP3    H227079   3.366   6.506   4.955 -0.5532  1.3060 -0.0641
 9039TIP3   OH227080   6.228   2.573   2.881  0.0872 -0.3686  0.2843
 9039TIP3    H127081   6.322   2.556   2.891  0.0836 -0.3222  0.4044
 9039TIP3    H227082   6.214   2.577   2.787  0.0920 -0.9945  0.2526
 9040TIP3   OH227083   0.122   4.852   0.926 -0.6280  0.1415 -0.0369
 9040TIP3    H127084   0.203   4.818   0.962 -0.5071  2.2569  1.8885
 9040TIP3    H227085   0.059   4.781   0.938  0.3415 -0.6109  0.7686
 9041TIP3   OH227086   6.242   6.553   2.368  0.1601  0.3702  0.2490
 9041TIP3    H127087   6.195   6.473   2.347  1.5392 -0.6321  0.8896
 9041TIP3    H227088   6.333   6.534   2.346  0.6355  1.4734  1.1837
 9042TIP3   OH227089   3.452   0.739   5.660  0.0213  0.7105 -0.0980
 9042TIP3    H127090   3.433   0.651   5.690 -0.8660  0.8776 -0.1255
 9042TIP3    H227091   3.442   0.735   5.565  0.3618  0.7496 -0.1356
 9043TIP3   OH227092   1.479   0.156   4.838  0.2590 -0.1960 -0.0436
 9043TIP3    H127093   1.390   0.148   4.803  0.9226 -0.0042 -1.9215
 9043TIP3    H227094   1.504   0.245   4.817  1.9655 -1.1322 -2.4104
 9044TIP3   OH227095   0.221   2.418   4.776  0.3199  0.0875 -0.2916
 9044TIP3    H127096   0.201   2.510   4.754 -0.0752  1.0085  3.3223
 9044TIP3    H227097   0.316   2.412   4.768  0.8744  2.0535  2.9315
 9045TIP3   OH227098   0.975   6.755   2.145 -0.0780  0.0662  0.5360
 9045TIP3    H127099   0.964   6.835   2.095  1.4433  0.1226  0.2600
 9045TIP3    H227100   0.964   6.685   2.081  3.4823  0.1396 -0.3892
 9046TIP3   OH227101   1.636   4.297   4.136  0.0372 -0.2149  0.2982
 9046TIP3    H127102   1.649   4.389   4.113  0.6149 -0.1803  0.7390
 9046TIP3    H227103   1.717   4.271   4.179  0.3150 -1.2575 -0.8265
 9047TIP3   OH227104   1.096   1.204   5.186  0.1174  0.1103  0.1463
 9047TIP3    H127105   1.059   1.271   5.128  1.4955  1.0467  0.3023
 9047TIP3    H227106   1.180   1.181   5.147  0.3044 -0.4918  0.8693
 9048TIP3   OH227107   0.743   4.739   5.558 -0.0828 -0.1205 -0.2347
 9048TIP3    H127108   0.670   4.706   5.610  0.2075  0.0251  0.2800
 9048TIP3    H227109   0.819   4.729   5.615  0.1647  0.5102 -0.4432
 9049TIP3   OH227110   4.563   5.299   2.307  0.0532 -0.3611 -0.1816
 9049TIP3    H127111   4.591   5.220   2.353 -0.6492 -1.0354 -0.8942
 9049TIP3    H227112   4.467   5.296   2.309  0.0063 -0.3259 -1.5361
 9050TIP3   OH227113   0.468   1.049   5.274 -0.2677  0.0731  0.3687
 9050TIP3    H127114   0.378   1.076   5.256 -0.4373 -0.7380 -0.0142
 9050TIP3    H227115   0.490   0.987   5.205 -0.5858 -2.3357  2.2851
 9051TIP3   OH227116   7.180   4.659   0.508 -0.1534  0.3895 -0.3167
 9051TIP3    H127117   7.258   4.701   0.545  0.9715 -1.6222 -0.2607
 9051TIP3    H227118   7.145   4.724   0.447 -0.1537  2.4854  1.7635
 9052TIP3   OH227119   0.815   4.940   4.564  0.0973  0.3348 -0.1109
 9052TIP3    H127120   0.870   4.912   4.637 -0.7570 -0.4442  0.2682
 9052TIP3    H227121   0.760   5.009   4.600 -1.2699 -0.9588  0.4304
 9053TIP3   OH227122   0.978   2.994   0.506 -0.1364  0.2055 -0.1124
 9053TIP3    H127123   1.070   2.973   0.487  0.0303  1.8199 -1.2982
 9053TIP3    H227124   0.930   2.962   0.430  0.0491  3.2689 -1.6625
 9054TIP3   OH227125   6.992   5.882   3.200  0.1550  0.2138  0.2334
 9054TIP3    H127126   7.032   5.944   3.139  1.4665  0.7747  1.5977
 9054TIP3    H227127   7.051   5.882   3.276 -0.3081 -2.0034  0.6599
 9055TIP3   OH227128   5.170   5.085   3.272 -0.0571 -0.0545 -0.0185
 9055TIP3    H127129   5.207   5.119   3.191 -1.2619  0.6722 -0.2934
 9055TIP3    H227130   5.166   4.990   3.259 -0.2736  0.0631 -0.8260
 9056TIP3   OH227131   4.600   6.227   2.829  0.3145  0.3466 -0.6288
 9056TIP3    H127132   4.557   6.155   2.875  0.2523  0.0357 -1.1648
 9056TIP3    H227133   4.680   6.189   2.794  0.4826  0.6438 -0.5686
 9057TIP3   OH227134   3.694   2.939   5.787 -0.1254  0.2499  0.4530
 9057TIP3    H127135   3.747   2.863   5.811 -0.4349 -0.2907 -0.4851
 9057TIP3    H227136   3.756   3.010   5.775  0.2946 -0.1495  0.2399
 9058TIP3   OH227137   4.230   3.688   2.714  0.3551 -0.3607 -0.1143
 9058TIP3    H127138   4.175   3.617   2.682  0.5655 -1.1631  1.2498
 9058TIP3    H227139   4.314   3.647   2.734  0.9293  0.5384 -0.5731
 9059TIP3   OH227140   5.021   0.313   3.454  0.6885  0.2913 -0.1369
 9059TIP3    H127141   4.971   0.326   3.535 -0.3054  0.0973 -0.7054
 9059TIP3    H227142   4.977   0.241   3.410  2.2926 -0.8227 -0.0232
 9060TIP3   OH227143   5.591   0.301   3.112 -0.2102 -0.2393 -0.3061
 9060TIP3    H127144   5.574   0.284   3.019 -1.7620  1.8853 -0.4942
 9060TIP3    H227145   5.622   0.392   3.114  1.2846 -0.7284  1.1454
 9061TIP3   OH227146   2.452   1.578   1.892  0.3196  0.5521 -0.3458
 9061TIP3    H127147   2.368   1.554   1.853 -0.4513  0.6717  1.1565
 9061TIP3    H227148   2.437   1.665   1.930  0.5558 -0.1322  1.4307
 9062TIP3   OH227149   4.214   4.857   0.370 -0.0915  0.6661  0.0246
 9062TIP3    H127150   4.309   4.843   0.374 -0.1550  0.2827  0.1668
 9062TIP3    H227151   4.195   4.914   0.445 -0.2949 -1.0870  1.3923
 9063TIP3   OH227152   0.053   6.081   2.296  0.5530  0.2635 -0.2801
 9063TIP3    H127153   0.033   6.093   2.204 -1.2425  0.3746  0.0957
 9063TIP3    H227154   0.087   6.166   2.325  0.5982  0.3920 -0.7113
 9064TIP3   OH227155   5.414   2.355   4.566 -0.0158 -0.2491 -0.2461
 9064TIP3    H127156   5.421   2.396   4.480  0.9980 -0.0899 -0.0952
 9064TIP3    H227157   5.411   2.429   4.627  0.8022 -0.3840 -0.0427
 9065TIP3   OH227158   6.127   1.252   5.880  0.0075 -0.2392 -0.1383
 9065TIP3    H127159   6.102   1.333   5.925  0.8672  0.0641 -0.1829
 9065TIP3    H227160   6.161   1.281   5.796  0.2082 -0.6602 -0.2062
 9066TIP3   OH227161   7.079   6.646   1.229 -0.2461 -0.1672  0.0536
 9066TIP3    H127162   7.078   6.656   1.134  0.7002 -0.3327  0.0136
 9066TIP3    H227163   7.093   6.552   1.243 -1.4176 -0.3116  0.3734
 9067TIP3   OH227164   4.230   1.327   4.059 -0.1840  0.2522  0.9344
 9067TIP3    H127165   4.158   1.280   4.018 -0.0080 -0.5404  1.5168
 9067TIP3    H227166   4.257   1.271   4.132 -0.2098  1.4145  1.8736
 9068TIP3   OH227167   5.688   3.707   1.801 -0.3016 -0.2107  0.1725
 9068TIP3    H127168   5.671   3.791   1.759  1.8927 -0.4441 -1.3057
 9068TIP3    H227169   5.633   3.645   1.753 -0.0865  0.0011 -0.3490
 9069TIP3   OH227170   2.890   0.997   4.631 -0.7941  0.1272 -0.2376
 9069TIP3    H127171   2.847   0.985   4.716  0.0292  0.2136  0.2048
 9069TIP3    H227172   2.865   0.920   4.580  1.1507 -1.5469  1.1632
 9070TIP3   OH227173   5.316   3.293   1.029 -0.2936  0.3539  0.0759
 9070TIP3    H127174   5.324   3.226   1.097  0.7337 -1.3701 -1.6409
 9070TIP3    H227175   5.293   3.244   0.950  1.1656  1.9443 -1.4008
 9071TIP3   OH227176   5.158   3.370   2.437 -0.0807  0.4978 -0.2845
 9071TIP3    H127177   5.103   3.382   2.360  2.1527  1.2510 -1.8466
 9071TIP3    H227178   5.145   3.449   2.490 -1.0258  0.3272 -0.2467
 9072TIP3   OH227179   4.101   6.109   3.178 -0.2597 -0.0032  0.3603
 9072TIP3    H127180   4.111   6.024   3.221  0.7965  1.0275  2.2778
 9072TIP3    H227181   4.036   6.155   3.230  0.9876  1.2538  0.8665
 9073TIP3   OH227182   4.677   1.513   0.673  0.2118  0.1268  0.1088
 9073TIP3    H127183   4.723   1.583   0.625  0.1293 -0.1278 -0.3448
 9073TIP3    H227184   4.731   1.435   0.658 -1.6622 -0.7904 -2.6023
 9074TIP3   OH227185   0.914   2.051   3.418  0.6495 -0.3591 -0.1970
 9074TIP3    H127186   1.006   2.074   3.429  0.5842 -0.3955  0.4666
 9074TIP3    H227187   0.871   2.133   3.395  0.8426 -0.3342 -0.4710
 9075TIP3   OH227188   1.678   2.359   5.395  0.0101 -0.3058 -0.3907
 9075TIP3    H127189   1.673   2.350   5.490 -1.1497 -1.2284 -0.5140
 9075TIP3    H227190   1.693   2.269   5.364 -1.9002 -0.3894 -1.1830
 9076TIP3   OH227191   4.443   0.701   2.449  0.3725  0.4132 -0.2525
 9076TIP3    H127192   4.522   0.755   2.458  2.0145 -1.8463 -0.3165
 9076TIP3    H227193   4.425   0.669   2.537 -0.3575  0.7151 -0.2839
 9077TIP3   OH227194   3.351   1.368   4.904 -0.3964  0.2146 -1.4559
 9077TIP3    H127195   3.388   1.452   4.877 -0.8527  1.0689  0.4107
 9077TIP3    H227196   3.421   1.326   4.953 -1.0863  0.8424  0.1367
 9078TIP3   OH227197   3.795   0.061   0.057 -0.5448  0.1476  0.1355
 9078TIP3    H127198   3.859   0.040   0.125  0.0744  0.2008 -0.4188
 9078TIP3    H227199   3.722   0.001   0.073 -0.6847  0.5907  1.2243
 9079TIP3   OH227200   5.443   6.324   4.844  0.4715 -0.2162 -0.1632
 9079TIP3    H127201   5.441   6.287   4.756 -0.1433 -0.1711 -0.1665
 9079TIP3    H227202   5.382   6.270   4.895  0.8303 -0.2520  0.2436
 9080TIP3   OH227203   2.344   3.153   2.195 -0.3140  0.0465  0.3840
 9080TIP3    H127204   2.376   3.193   2.114  1.2798 -0.1515  0.8809
 9080TIP3    H227205   2.383   3.066   2.195 -1.4099 -0.4547  0.7240
 9081TIP3   OH227206   0.479   3.185   2.195 -0.1412  0.0476  0.3473
 9081TIP3    H127207   0.452   3.093   2.188 -1.7318  0.2544  2.5640
 9081TIP3    H227208   0.435   3.229   2.123 -1.3335 -0.5692  0.6679
 9082TIP3   OH227209   3.566   6.283   0.572 -0.0089  0.2199  0.1373
 9082TIP3    H127210   3.599   6.215   0.512  1.4729  1.4980 -0.5853
 9082TIP3    H227211   3.539   6.354   0.514  2.8268  2.0958  0.9104
 9083TIP3   OH227212   2.680   5.949   3.067 -0.0908 -0.2233 -0.7329
 9083TIP3    H127213   2.610   5.887   3.087  0.6015 -0.8687 -0.3003
 9083TIP3    H227214   2.743   5.939   3.138  1.6802 -1.4772 -2.3661
 9084TIP3   OH227215   0.799   3.733   5.313  0.3846 -0.4765 -0.1375
 9084TIP3    H127216   0.716   3.746   5.268  0.0043  0.0812  0.6874
 9084TIP3    H227217   0.864   3.728   5.243 -0.0034  1.7618 -0.7502
 9085TIP3   OH227218   3.180   4.836   5.271  0.5784  0.1639  0.0363
 9085TIP3    H127219   3.191   4.817   5.178  1.1372 -0.8579  0.3058
 9085TIP3    H227220   3.160   4.930   5.274 -0.1971  0.0541 -1.1679
 9086TIP3   OH227221   0.361   5.987   2.593  0.0114 -0.0943  0.2244
 9086TIP3    H127222   0.439   6.039   2.574  0.0864 -1.0556 -2.5937
 9086TIP3    H227223   0.394   5.897   2.600 -0.8261 -0.6233 -1.7920
 9087TIP3   OH227224   5.953   2.356   0.166 -0.5724  0.2434  0.4922
 9087TIP3    H127225   5.870   2.310   0.152 -0.9947  0.7902  1.1647
 9087TIP3    H227226   6.016   2.286   0.185 -0.7158 -0.2328 -0.6720
 9088TIP3   OH227227   0.983   3.439   4.936 -0.7669 -0.3342 -0.1614
 9088TIP3    H127228   0.990   3.346   4.961  0.9239 -0.5374 -1.2498
 9088TIP3    H227229   0.997   3.439   4.841 -1.7581  0.9485 -0.3190
 9089TIP3   OH227230   4.151   6.635   0.592  0.2866  0.0931  0.2449
 9089TIP3    H127231   4.190   6.548   0.584 -2.2366 -1.0112 -1.4244
 9089TIP3    H227232   4.191   6.686   0.520 -0.3641 -0.6357 -0.6566
 9090TIP3   OH227233   2.835   3.741   3.768 -0.1271  0.0561 -0.2796
 9090TIP3    H127234   2.757   3.712   3.720 -0.5848  0.2378  0.3401
 9090TIP3    H227235   2.863   3.820   3.721  0.2743 -0.5558 -1.0981
 9091TIP3   OH227236   6.709   4.535   3.816 -0.2964 -0.2010 -0.3969
 9091TIP3    H127237   6.615   4.521   3.823 -0.4817  1.2963  0.5987
 9091TIP3    H227238   6.718   4.627   3.790  0.8990 -0.3097 -0.4501
 9092TIP3   OH227239   6.486   0.697   5.199  0.0000  0.2939  0.0380
 9092TIP3    H127240   6.566   0.676   5.247  0.4620 -0.3745 -0.9740
 9092TIP3    H227241   6.453   0.777   5.240  0.2425 -0.3665  1.5966
 9093TIP3   OH227242   0.211   1.155   5.263  0.1983  0.3944  0.3717
 9093TIP3    H127243   0.153   1.088   5.226 -0.8063  1.6910 -0.5061
 9093TIP3    H227244   0.192   1.234   5.212  1.8155  1.1999  0.9492
 9094TIP3   OH227245   2.029   6.806   1.305 -0.0930 -1.0051 -0.0969
 9094TIP3    H127246   1.970   6.789   1.231 -1.4885 -0.5841  0.8780
 9094TIP3    H227247   1.998   6.748   1.375  1.1991 -1.3906  0.1904
 9095TIP3   OH227248   0.826   2.655   2.029 -0.4439  0.0448 -0.1812
 9095TIP3    H127249   0.765   2.608   1.971  0.5803  0.8471 -1.9797
 9095TIP3    H227250   0.881   2.706   1.970  2.1193 -0.7753  1.3398
 9096TIP3   OH227251   1.006   1.943   1.464 -0.4928  0.1736 -0.2102
 9096TIP3    H127252   1.072   1.894   1.415  0.0113 -0.9785  1.5514
 9096TIP3    H227253   0.988   2.019   1.408  0.0555 -1.0321 -2.1494
 9097TIP3   OH227254   1.791   5.784   4.056 -0.4875 -0.1382  0.2777
 9097TIP3    H127255   1.827   5.744   4.135 -0.6802  0.6377  0.7650
 9097TIP3    H227256   1.706   5.819   4.083 -0.5022  0.2333 -0.2342
 9098TIP3   OH227257   1.107   6.160   2.108  0.2037 -0.1494  0.0011
 9098TIP3    H127258   1.137   6.115   2.187  1.4626 -1.2972 -1.0813
 9098TIP3    H227259   1.180   6.215   2.082 -0.6753  1.2139  0.3015
 9099TIP3   OH227260   5.379   5.066   3.724  0.2137 -0.2942  0.6209
 9099TIP3    H127261   5.298   5.091   3.681  1.2638  1.7256 -0.3146
 9099TIP3    H227262   5.422   5.007   3.662 -0.9578 -2.2147  1.5691
 9100TIP3   OH227263   3.562   0.148   3.882  0.1859 -0.1641 -0.3867
 9100TIP3    H127264   3.510   0.227   3.871 -0.2265 -0.0929  1.6633
 9100TIP3    H227265   3.501   0.083   3.916  0.7581 -1.0502 -1.0170
 9101TIP3   OH227266   6.046   5.059   4.682  0.3462  0.0012 -0.5217
 9101TIP3    H127267   5.958   5.081   4.714  0.1398  0.4730 -1.4014
 9101TIP3    H227268   6.033   5.030   4.592  1.3343  2.4167 -1.5085
 9102TIP3   OH227269   2.557   4.891   4.367  0.5034  0.0830 -0.3362
 9102TIP3    H127270   2.572   4.857   4.455 -0.1249 -1.6373 -0.8475
 9102TIP3    H227271   2.645   4.897   4.329  0.7383  0.3950  0.2455
 9103TIP3   OH227272   0.338   3.487   4.195  0.2153  0.1032  0.1174
 9103TIP3    H127273   0.373   3.575   4.208 -1.1616  0.4449  1.9219
 9103TIP3    H227274   0.409   3.440   4.152  0.9133  2.1334 -1.1197
 9104TIP3   OH227275   6.810   6.314   1.999 -0.0612 -0.4552  0.1554
 9104TIP3    H127276   6.792   6.323   2.092 -2.2999  0.7314 -0.3345
 9104TIP3    H227277   6.884   6.373   1.984 -0.1598 -0.0796  1.0510
 9105TIP3   OH227278   3.052   1.857   0.045 -0.1908  0.5291 -0.0707
 9105TIP3    H127279   3.116   1.807  -0.005  1.7043  4.4285 -2.0601
 9105TIP3    H227280   2.970   1.845  -0.004 -1.5815 -4.9827  2.8273
 9106TIP3   OH227281   6.161   6.432   4.682 -0.2834  0.5923  0.1290
 9106TIP3    H127282   6.243   6.477   4.703 -1.7249  2.8419  1.4861
 9106TIP3    H227283   6.125   6.407   4.768 -0.9086 -0.5604 -0.4521
 9107TIP3   OH227284   1.353   2.976   2.315 -0.0552  0.4938 -0.3332
 9107TIP3    H127285   1.366   2.891   2.357 -2.9993  0.2199  0.2149
 9107TIP3    H227286   1.441   3.003   2.289  1.2636 -1.6556  1.4908
 9108TIP3   OH227287   6.056   5.469   5.546 -0.1035  0.7707 -0.4089
 9108TIP3    H127288   6.137   5.494   5.590 -1.0522 -0.8998  2.5861
 9108TIP3    H227289   6.002   5.549   5.549 -0.1886  0.7070  1.7803
 9109TIP3   OH227290   4.292   2.170   2.091 -0.0526 -0.0661 -0.2306
 9109TIP3    H127291   4.209   2.137   2.059  0.5621 -0.4235 -1.5196
 9109TIP3    H227292   4.316   2.241   2.030  0.9102 -0.4372 -0.3073
 9110TIP3   OH227293   1.400   4.276   0.416  0.3539 -0.2167 -0.4576
 9110TIP3    H127294   1.381   4.331   0.340 -0.6324 -1.6334 -1.2899
 9110TIP3    H227295   1.322   4.284   0.472  0.7927  0.2986  0.0846
 9111TIP3   OH227296   4.462   4.874   0.647 -0.2289 -0.0594 -0.1174
 9111TIP3    H127297   4.446   4.857   0.555  1.1320  1.4164 -0.6858
 9111TIP3    H227298   4.474   4.969   0.652  3.9976 -0.3999  0.7603
 9112TIP3   OH227299   5.682   3.070   0.882  0.3553  0.0548 -0.3245
 9112TIP3    H127300   5.674   3.053   0.975 -1.5895 -2.1895 -0.7866
 9112TIP3    H227301   5.592   3.083   0.853  0.5575 -2.0783 -2.2604
 9113TIP3   OH227302   5.116   2.318   4.137 -0.2464 -0.4041 -0.1172
 9113TIP3    H127303   5.148   2.408   4.146 -1.1364 -0.1551  0.8052
 9113TIP3    H227304   5.190   2.264   4.164  0.3183  0.0365 -0.7302
 9114TIP3   OH227305   6.792   2.222   2.779  0.4956  0.5956 -0.3556
 9114TIP3    H127306   6.771   2.244   2.688  0.6415  0.3416 -0.4512
 9114TIP3    H227307   6.875   2.266   2.796  0.7189  0.2365 -0.5037
 9115TIP3   OH227308   1.091   2.822   3.529 -0.3192 -0.6470 -0.4186
 9115TIP3    H127309   1.141   2.753   3.486  1.7536 -0.3984  1.3864
 9115TIP3    H227310   1.158   2.881   3.563 -1.9441  0.5662  0.8111
 9116TIP3   OH227311   5.963   2.385   2.679  0.7080  0.2600  0.0959
 9116TIP3    H127312   5.997   2.340   2.756  0.0649 -0.1190  0.1688
 9116TIP3    H227313   5.900   2.448   2.714  0.5678  0.2326 -0.1052
 9117TIP3   OH227314   4.773   4.683   2.588  0.3177 -0.1449  0.0790
 9117TIP3    H127315   4.691   4.637   2.607  1.7268 -1.9766  2.2642
 9117TIP3    H227316   4.819   4.684   2.672  1.6624  2.7497 -0.5835
 9118TIP3   OH227317   6.337   3.374   1.697 -0.1349 -0.1875  0.2260
 9118TIP3    H127318   6.409   3.314   1.717 -0.5116 -0.4017  0.9792
 9118TIP3    H227319   6.302   3.399   1.783 -0.3200  0.7003 -0.0975
 9119TIP3   OH227320   6.308   1.812   4.274 -0.2890 -0.2826 -0.0125
 9119TIP3    H127321   6.287   1.719   4.270 -2.9203  0.2518 -0.1914
 9119TIP3    H227322   6.233   1.852   4.317  0.6903  1.8003 -0.1176
 9120TIP3   OH227323   1.921   2.225   2.058 -0.4531 -0.0827 -0.5157
 9120TIP3    H127324   1.966   2.148   2.094  0.4996  0.7269  0.0711
 9120TIP3    H227325   1.833   2.220   2.096 -0.5452 -1.0974 -0.8147
 9121TIP3   OH227326   3.055   4.983   1.960  0.0209 -0.4715 -0.4377
 9121TIP3    H127327   2.977   4.928   1.959  0.5070 -1.2726  1.0521
 9121TIP3    H227328   3.062   5.017   1.871 -1.1847 -1.5740 -0.9931
 9122TIP3   OH227329   4.872   0.193   3.950 -0.1813 -0.1049  0.1992
 9122TIP3    H127330   4.895   0.272   4.000  1.3033  0.0477 -0.6521
 9122TIP3    H227331   4.910   0.121   4.000  1.0065  0.0165 -0.4925
 9123TIP3   OH227332   3.374   6.654   0.511  0.6200 -0.1969 -0.1450
 9123TIP3    H127333   3.327   6.609   0.581 -0.7772  0.0884 -0.8623
 9123TIP3    H227334   3.414   6.730   0.554 -2.6857  1.6987 -0.0639
 9124TIP3   OH227335   2.054   2.144   0.465  0.4241 -0.0076 -0.2140
 9124TIP3    H127336   2.148   2.136   0.482  0.4136  0.4130  0.0582
 9124TIP3    H227337   2.032   2.232   0.495 -0.4135 -0.7189  1.3608
 9125TIP3   OH227338   0.139   5.361   1.411 -0.3554 -0.1657  0.5434
 9125TIP3    H127339   0.059   5.309   1.416 -1.1790  1.0022 -0.0307
 9125TIP3    H227340   0.128   5.430   1.476 -0.1000  0.3691  0.0331
 9126TIP3   OH227341   5.746   4.608   2.891  0.0438  0.2856 -0.7365
 9126TIP3    H127342   5.771   4.701   2.893  0.6104  0.1241  0.3537
 9126TIP3    H227343   5.795   4.572   2.817 -0.5206  0.9369 -1.4441
 9127TIP3   OH227344   4.789   4.494   0.253  0.2655 -0.5959 -0.8133
 9127TIP3    H127345   4.883   4.497   0.269  0.1785 -0.9080 -0.1989
 9127TIP3    H227346   4.753   4.565   0.307  0.0883 -0.8978 -0.5258
 9128TIP3   OH227347   3.858   5.863   2.585 -0.6636 -0.1971  0.1489
 9128TIP3    H127348   3.810   5.922   2.642 -2.9987 -1.6347 -0.1793
 9128TIP3    H227349   3.798   5.790   2.569  0.3037 -0.4791 -3.1208
 9129TIP3   OH227350   3.303   0.008   1.604 -0.4255 -0.4686  0.0257
 9129TIP3    H127351   3.352   0.069   1.549 -0.2549 -2.4965 -2.2447
 9129TIP3    H227352   3.368  -0.032   1.660  0.0335 -0.8698 -0.7708
 9130TIP3   OH227353   6.109   4.119   3.048 -0.2607  0.4387  0.2331
 9130TIP3    H127354   6.086   4.212   3.044 -0.3597  0.4550  0.9441
 9130TIP3    H227355   6.115   4.091   2.957  0.9100  1.4232 -0.0302
 9131TIP3   OH227356   3.708   0.698   1.386 -0.1094 -0.5025 -0.1028
 9131TIP3    H127357   3.777   0.657   1.333 -0.4278 -1.3484  0.1237
 9131TIP3    H227358   3.706   0.788   1.356  1.3744 -0.3543  0.1547
 9132TIP3   OH227359   6.019   0.414   1.608  0.0421  0.0417  0.4234
 9132TIP3    H127360   6.048   0.489   1.661  0.6263  1.0690 -1.2792
 9132TIP3    H227361   6.075   0.415   1.531 -0.5446 -1.6326 -0.0717
 9133TIP3   OH227362   6.020   6.661   4.792  0.3211 -0.2652  0.1707
 9133TIP3    H127363   5.947   6.598   4.794  0.7658 -0.8333 -0.9897
 9133TIP3    H227364   6.097   6.608   4.770  1.0178  0.4070  0.9245
 9134TIP3   OH227365   2.260   5.393   5.716  0.4142 -0.1776 -0.2299
 9134TIP3    H127366   2.230   5.475   5.676 -2.1759 -1.9115 -2.1898
 9134TIP3    H227367   2.228   5.397   5.806 -3.9741 -0.8404 -1.5482
 9135TIP3   OH227368   0.235   1.597   2.206 -0.1998  0.2719  0.0817
 9135TIP3    H127369   0.270   1.659   2.269  1.2113  0.7702 -1.1235
 9135TIP3    H227370   0.303   1.530   2.198 -0.4530  0.0908 -0.6921
 9136TIP3   OH227371   3.869   1.867   4.247  0.2182  0.3777 -0.2086
 9136TIP3    H127372   3.857   1.945   4.192 -1.0649  0.8075  0.6223
 9136TIP3    H227373   3.891   1.797   4.186  1.8216  1.4705 -0.9324
 9137TIP3   OH227374   0.955   4.388   3.291 -0.7016  0.6535  0.6412
 9137TIP3    H127375   0.873   4.340   3.275 -1.1406  1.1026  1.4428
 9137TIP3    H227376   0.937   4.477   3.261  0.1941  0.2911 -1.0735
 9138TIP3   OH227377   0.753   6.326   2.714  0.7865 -0.3588  0.7733
 9138TIP3    H127378   0.835   6.299   2.754  1.6266 -0.2717 -0.8016
 9138TIP3    H227379   0.776   6.344   2.622 -1.1204 -1.0167  0.1177
 9139TIP3   OH227380   3.254   0.505   4.650 -0.0003  0.0813 -0.2588
 9139TIP3    H127381   3.168   0.543   4.670 -0.8582 -2.1135  0.4575
 9139TIP3    H227382   3.248   0.477   4.559  0.1726  0.4188 -0.3784
 9140TIP3   OH227383   2.532   1.090   1.490  0.4343  0.2833  0.4557
 9140TIP3    H127384   2.537   1.133   1.576 -0.7806  1.2502  0.0720
 9140TIP3    H227385   2.549   0.997   1.509  2.5595  0.7994  1.3861
 9141TIP3   OH227386   3.552   4.821   2.915 -0.4329  0.1980  0.6067
 9141TIP3    H127387   3.634   4.868   2.929 -1.1650  2.0345 -0.7781
 9141TIP3    H227388   3.558   4.745   2.972  2.3164  0.1415  0.3767
 9142TIP3   OH227389   2.767   1.021   4.885  0.1842 -0.4850 -0.5604
 9142TIP3    H127390   2.691   1.030   4.943 -0.5100 -0.5750 -1.4317
 9142TIP3    H227391   2.842   1.033   4.942 -0.4964  0.2765  0.2129
 9143TIP3   OH227392   5.052   1.460   0.147 -0.1727 -0.3033  0.4927
 9143TIP3    H127393   5.033   1.530   0.210 -0.1319  0.4656 -0.3285
 9143TIP3    H227394   4.966   1.422   0.128 -0.6592  1.5114 -1.2993
 9144TIP3   OH227395   0.579   3.256   3.522 -0.1296  0.0432 -0.3711
 9144TIP3    H127396   0.654   3.235   3.466  0.2255 -0.5563  0.3139
 9144TIP3    H227397   0.515   3.294   3.462  0.0511 -1.0293 -1.2901
 9145TIP3   OH227398   2.432   4.187   2.035 -0.1742 -0.2462  0.1005
 9145TIP3    H127399   2.520   4.180   1.998 -0.4503 -0.1673 -0.5904
 9145TIP3    H227400   2.423   4.108   2.089  0.3109 -0.2644  0.1597
 9146TIP3   OH227401   2.672   2.931   0.774  0.4584  0.3856  0.2001
 9146TIP3    H127402   2.627   2.996   0.720  0.1064 -0.5464 -0.6499
 9146TIP3    H227403   2.687   2.976   0.858  0.4084  1.6237 -0.4278
 9147TIP3   OH227404   4.486   0.407   0.613 -0.2604  0.2135 -0.1624
 9147TIP3    H127405   4.550   0.405   0.684 -0.2595 -0.9999 -0.1693
 9147TIP3    H227406   4.483   0.317   0.581 -1.0570  0.5130 -0.9938
 9148TIP3   OH227407   5.917   2.140   2.874 -0.1274 -0.3421 -0.0735
 9148TIP3    H127408   5.833   2.157   2.832 -0.0011  0.3936 -0.0378
 9148TIP3    H227409   5.896   2.131   2.967 -0.0129  1.1406  0.1159
 9149TIP3   OH227410   4.218   6.574   1.273  0.1568  0.8879 -0.3438
 9149TIP3    H127411   4.229   6.489   1.229 -0.6840  0.2071  0.7221
 9149TIP3    H227412   4.296   6.582   1.328 -0.5442 -0.0217  0.8434
 9150TIP3   OH227413   2.550   0.493   4.151  0.0245  0.2001 -0.0748
 9150TIP3    H127414   2.582   0.429   4.087 -0.0284 -0.2161  0.3122
 9150TIP3    H227415   2.484   0.446   4.201 -3.0707  1.6551 -2.4013
 9151TIP3   OH227416   0.154   2.056   5.768 -0.4451  0.2462  0.0346
 9151TIP3    H127417   0.144   2.149   5.748  1.2366  0.5266  0.3559
 9151TIP3    H227418   0.068   2.029   5.799 -1.0181  1.6446 -0.2484
 9152TIP3   OH227419   3.381   5.198   1.334  0.1579 -0.0530  0.4511
 9152TIP3    H127420   3.320   5.272   1.337  1.2780  0.8652  1.4702
 9152TIP3    H227421   3.380   5.170   1.243  0.4796  1.8975 -0.1947
 9153TIP3   OH227422   5.779   5.985   5.732  0.0160  0.4141 -0.6747
 9153TIP3    H127423   5.859   6.012   5.778 -0.7350 -3.5950  3.8328
 9153TIP3    H227424   5.710   6.039   5.768  0.1042  1.0918 -1.4859
 9154TIP3   OH227425   1.354   3.281   1.626 -0.1097 -0.6548 -0.1366
 9154TIP3    H127426   1.316   3.255   1.542  0.4404  0.7051 -0.8450
 9154TIP3    H227427   1.422   3.217   1.644  0.6139 -0.2598 -1.3751
 9155TIP3   OH227428   0.797   4.456   5.623  0.1196  0.0422 -0.1246
 9155TIP3    H127429   0.780   4.422   5.535  0.8301  0.0669 -0.2767
 9155TIP3    H227430   0.779   4.382   5.681 -1.3127  0.2991 -0.1865
 9156TIP3   OH227431   1.315   3.511   1.401  0.4897 -0.3635  0.1041
 9156TIP3    H127432   1.242   3.475   1.451 -0.3748  0.8609 -0.2335
 9156TIP3    H227433   1.384   3.525   1.466  0.1822 -0.8949  0.5500
 9157TIP3   OH227434   4.751   4.541   1.639 -0.2949 -0.6561 -0.0385
 9157TIP3    H127435   4.690   4.468   1.629  0.4617 -1.2446 -0.3513
 9157TIP3    H227436   4.821   4.524   1.577  0.1648  0.0569  0.2629
 9158TIP3   OH227437   5.451   1.127   2.543  0.0312 -0.2781 -1.2054
 9158TIP3    H127438   5.440   1.056   2.480  0.1677  1.4455 -3.2709
 9158TIP3    H227439   5.545   1.145   2.543  0.2708 -1.2782  0.7365
 9159TIP3   OH227440   5.075   6.561   2.375  0.0555 -0.1826  0.0173
 9159TIP3    H127441   5.022   6.551   2.454  2.2604  0.3389  1.6337
 9159TIP3    H227442   5.154   6.509   2.392  0.2937 -0.6311 -2.1635
 9160TIP3   OH227443   5.583   0.780   5.031  0.2930 -0.1964 -0.0417
 9160TIP3    H127444   5.581   0.692   4.995 -1.2696  0.2930 -1.2769
 9160TIP3    H227445   5.492   0.802   5.048  0.6374  1.2183  0.1495
 9161TIP3   OH227446   1.970   6.583   3.428 -0.1178 -0.2998  0.3239
 9161TIP3    H127447   1.908   6.546   3.365 -1.3162 -0.4843  1.5677
 9161TIP3    H227448   1.927   6.662   3.460  0.8330  0.2257  0.3360
 9162TIP3   OH227449   6.235   0.730   0.907 -0.3069  0.4618  0.8253
 9162TIP3    H127450   6.171   0.787   0.950 -0.6863  1.0932 -0.5061
 9162TIP3    H227451   6.319   0.775   0.921 -0.5158  1.0195  0.3600
 9163TIP3   OH227452   4.493   3.587   0.692 -0.2171 -0.7284 -0.0933
 9163TIP3    H127453   4.427   3.645   0.731  0.1296  0.0069 -0.5916
 9163TIP3    H227454   4.506   3.620   0.604 -1.0304 -2.4211 -0.9020
 9164TIP3   OH227455   0.007   3.222   5.112 -0.1069  0.1435 -0.1724
 9164TIP3    H127456  -0.034   3.272   5.042 -3.4737 -2.1082 -0.0388
 9164TIP3    H227457   0.056   3.153   5.066 -0.8994 -0.3118 -0.3486
 9165TIP3   OH227458   3.692   6.403   4.873  0.0930 -0.2923  0.8940
 9165TIP3    H127459   3.657   6.314   4.871 -0.9116  0.0878  1.1152
 9165TIP3    H227460   3.672   6.434   4.961 -2.4831  1.2743 -0.1398
 9166TIP3   OH227461   2.868   1.792   4.722  0.1513 -0.0777 -0.4930
 9166TIP3    H127462   2.930   1.720   4.734 -1.7889 -1.9513 -1.0717
 9166TIP3    H227463   2.862   1.803   4.627  0.4855  0.9375 -0.4094
 9167TIP3   OH227464   6.005   2.378   5.282  0.1124 -0.4398  0.1308
 9167TIP3    H127465   5.927   2.372   5.226 -0.8673  0.0782  1.3979
 9167TIP3    H227466   6.058   2.446   5.241 -0.5916 -0.0680 -0.1987
 9168TIP3   OH227467   3.975   1.776   4.753  0.1778 -0.0170  0.1098
 9168TIP3    H127468   3.984   1.819   4.668  0.8343  1.6338  0.9768
 9168TIP3    H227469   4.064   1.769   4.787 -0.0927 -0.4932  0.7513
 9169TIP3   OH227470   5.307   4.329   0.570 -0.2533  0.2057 -0.4615
 9169TIP3    H127471   5.232   4.300   0.519 -0.1674  0.3814 -0.6917
 9169TIP3    H227472   5.378   4.270   0.546 -0.6032 -0.6754  0.6048
 9170TIP3   OH227473   4.641   6.708   2.781 -0.1010  0.1637 -0.1821
 9170TIP3    H127474   4.680   6.636   2.831  1.6490 -0.3544 -2.1444
 9170TIP3    H227475   4.550   6.681   2.768 -0.0756 -0.5977  1.0203
 9171TIP3   OH227476   6.689   6.485   1.746  0.7524  0.9384 -0.0484
 9171TIP3    H127477   6.761   6.528   1.791  0.2425  0.7955  0.9179
 9171TIP3    H227478   6.651   6.426   1.811 -0.6437  1.4859 -0.3248
 9172TIP3   OH227479   3.091   1.013   1.606  0.5596 -0.0464  0.7319
 9172TIP3    H127480   3.075   1.081   1.540  1.9423  0.3265  0.7654
 9172TIP3    H227481   3.014   1.017   1.663 -0.4011  0.0043 -0.5112
 9173TIP3   OH227482   0.531   6.043   0.105  0.4844  0.2349 -0.0717
 9173TIP3    H127483   0.493   6.023   0.019 -0.1565 -0.0147  0.2577
 9173TIP3    H227484   0.623   6.018   0.098 -0.3710 -3.6778  0.5353
 9174TIP3   OH227485   0.387   3.199   0.555 -0.2425  0.0565 -0.5677
 9174TIP3    H127486   0.362   3.131   0.492 -0.1963 -1.1812  0.7063
 9174TIP3    H227487   0.403   3.277   0.501 -1.0813 -0.7083 -1.9897
 9175TIP3   OH227488   7.058   4.093   0.264  0.5000  0.4234  0.2206
 9175TIP3    H127489   7.127   4.034   0.234  1.6029  1.3990  0.7571
 9175TIP3    H227490   7.098   4.142   0.336 -1.2100  0.0215  1.5102
 9176TIP3   OH227491   2.353   6.370   3.992  0.1012  0.0725 -0.4176
 9176TIP3    H127492   2.266   6.407   4.006 -0.2152 -0.6045 -0.5557
 9176TIP3    H227493   2.372   6.322   4.072  1.1764  1.7860  0.4075
 9177TIP3   OH227494   0.060   6.785   1.364  0.0036  0.3739 -0.3593
 9177TIP3    H127495  -0.030   6.755   1.346 -0.3804  0.6941  0.8922
 9177TIP3    H227496   0.099   6.713   1.414  0.1003  0.6674 -0.0127
 9178TIP3   OH227497   6.115   4.867   2.817 -0.3460 -0.1743  0.2639
 9178TIP3    H127498   6.112   4.902   2.728  0.3906  0.5358  0.5109
 9178TIP3    H227499   6.023   4.857   2.842 -0.5937  1.3995  0.0992
 9179TIP3   OH227500   0.997   1.845   1.724 -0.0326 -0.0104 -0.2155
 9179TIP3    H127501   0.992   1.888   1.639  0.2626 -0.1093 -0.2844
 9179TIP3    H227502   1.084   1.805   1.725  0.2578  0.6207  0.4391
 9180TIP3   OH227503   4.352   1.330   5.683 -0.3458 -0.2495  0.5081
 9180TIP3    H127504   4.284   1.388   5.648 -0.4139 -0.3770  0.4266
 9180TIP3    H227505   4.385   1.282   5.607 -1.6459 -1.7261  0.8006
 9181TIP3   OH227506   6.734   2.290   1.747 -0.0566 -0.2738 -0.2586
 9181TIP3    H127507   6.759   2.228   1.816  0.7960 -0.2797 -0.5679
 9181TIP3    H227508   6.650   2.324   1.776  0.9570  0.8279  1.5585
 9182TIP3   OH227509   3.282   0.686   1.760 -0.4393 -0.0974  0.6940
 9182TIP3    H127510   3.208   0.747   1.758  0.0968  0.6165  1.4443
 9182TIP3    H227511   3.357   0.740   1.736  0.1293 -0.3084  1.9028
 9183TIP3   OH227512   6.206   1.334   3.937 -0.0461  0.3211 -0.2010
 9183TIP3    H127513   6.138   1.267   3.932 -0.9473  1.2532 -0.6684
 9183TIP3    H227514   6.244   1.336   3.849  0.1280  0.2734 -0.1271
 9184TIP3   OH227515   5.900   2.282   5.522  0.1058 -0.4574  0.5651
 9184TIP3    H127516   5.962   2.212   5.544  1.7078  0.9460  0.7304
 9184TIP3    H227517   5.938   2.324   5.445 -1.3661 -0.3745 -0.1503
 9185TIP3   OH227518   0.142   0.499   0.021 -0.0791  0.6025  0.8923
 9185TIP3    H127519   0.134   0.434   0.091  0.1290  0.2725  0.6181
 9185TIP3    H227520   0.230   0.535   0.033 -0.4455  1.3320  1.4603
 9186TIP3   OH227521   2.914   6.630   0.467 -0.3371 -0.5256  0.0828
 9186TIP3    H127522   2.943   6.559   0.525  1.7054  0.8062  0.7769
 9186TIP3    H227523   2.944   6.604   0.380 -1.5322 -1.5027 -0.0748
 9187TIP3   OH227524   3.176   2.825   4.078  0.3141  0.7256 -0.0846
 9187TIP3    H127525   3.227   2.901   4.051 -1.0036  1.5113 -0.4474
 9187TIP3    H227526   3.216   2.796   4.160 -0.5903  3.2768  1.3642
 9188TIP3   OH227527   4.954   0.929   5.297  0.0677  0.1153 -0.7279
 9188TIP3    H127528   4.902   1.009   5.307 -0.9563 -0.6992  1.1312
 9188TIP3    H227529   4.965   0.897   5.387  0.4614 -1.8072 -1.4250
 9189TIP3   OH227530   0.417   3.591   3.137  0.2115 -0.3317 -0.2349
 9189TIP3    H127531   0.415   3.638   3.053 -1.0020  0.5220  0.2434
 9189TIP3    H227532   0.475   3.642   3.192 -1.4895  0.9508  0.4426
 9190TIP3   OH227533   0.588   1.195   5.866  0.1955 -0.3772  0.1036
 9190TIP3    H127534   0.684   1.198   5.872  0.0918 -0.2553  2.5170
 9190TIP3    H227535   0.565   1.270   5.811  1.3991  0.8369  1.1883
 9191TIP3   OH227536   1.020   1.037   0.563  0.2421  0.4740 -0.6209
 9191TIP3    H127537   1.029   1.117   0.511 -0.4787  1.2266  0.3697
 9191TIP3    H227538   1.109   1.017   0.593  0.9032 -0.7116 -3.1376
 9192TIP3   OH227539   5.596   1.694   5.891  0.3610 -0.6348 -0.0771
 9192TIP3    H127540   5.521   1.744   5.858 -1.4094 -2.7734  0.4771
 9192TIP3    H227541   5.568   1.603   5.884  2.8995 -1.5038  0.3007
 9193TIP3   OH227542   6.684   2.970   0.170 -0.0984  0.4527 -0.2073
 9193TIP3    H127543   6.658   2.935   0.255  0.3734  0.4163 -0.0725
 9193TIP3    H227544   6.677   2.896   0.110  0.3123  0.2747 -0.0424
 9194TIP3   OH227545   4.514   0.098   5.826 -0.1339 -0.4744 -0.7113
 9194TIP3    H127546   4.486   0.187   5.846  1.4048  0.4056 -2.2225
 9194TIP3    H227547   4.440   0.060   5.780 -0.4990  0.3136 -0.7952
 9195TIP3   OH227548   3.575   4.546   1.860  0.0797  0.2398  0.0296
 9195TIP3    H127549   3.534   4.614   1.913  0.7275  0.2958  0.4782
 9195TIP3    H227550   3.651   4.519   1.911 -0.8946 -1.7835  0.4925
 9196TIP3   OH227551   1.908   1.056   2.396  0.1620  0.6683 -0.0011
 9196TIP3    H127552   1.847   1.002   2.446  1.1423 -1.1514 -0.6883
 9196TIP3    H227553   1.941   1.121   2.459 -2.6567  1.9346  0.3075
 9197TIP3   OH227554   2.419   4.601   2.488 -0.1694 -0.3794  0.2033
 9197TIP3    H127555   2.432   4.572   2.398 -1.5619 -1.8888  0.4403
 9197TIP3    H227556   2.506   4.592   2.528  0.1252 -1.2101 -0.5808
 9198TIP3   OH227557   6.032   6.477   4.431 -0.1780  0.0316  0.3609
 9198TIP3    H127558   6.076   6.478   4.516  0.7492 -0.5508 -0.0992
 9198TIP3    H227559   6.013   6.385   4.415 -1.3969  0.2495  0.4499
 9199TIP3   OH227560   1.985   0.673   3.261  0.1950  0.0855  0.3827
 9199TIP3    H127561   2.050   0.619   3.216  0.9728  0.3502  1.1593
 9199TIP3    H227562   1.949   0.729   3.193  0.2901 -0.5304 -0.1868
 9200TIP3   OH227563   3.119   6.331   0.140  0.3380  0.0623  0.2375
 9200TIP3    H127564   3.075   6.249   0.117 -0.5082  0.4269  0.5112
 9200TIP3    H227565   3.208   6.321   0.106  0.0899 -0.7520 -0.2015
 9201TIP3   OH227566   0.790   1.375   2.173  0.2617  0.4088  0.0461
 9201TIP3    H127567   0.797   1.464   2.139 -0.6116  1.0176  1.3557
 9201TIP3    H227568   0.761   1.387   2.264  1.1327 -1.1731  0.5695
 9202TIP3   OH227569   0.954   1.690   5.622  0.1793 -0.5471  0.2106
 9202TIP3    H127570   1.014   1.639   5.675  1.5484  2.5943  1.9771
 9202TIP3    H227571   0.867   1.668   5.654  0.7397 -1.5396  1.0847
 9203TIP3   OH227572   3.004   6.363   2.042  0.3140  0.3503  0.2149
 9203TIP3    H127573   3.090   6.392   2.070  1.2871 -2.5292  0.4459
 9203TIP3    H227574   2.998   6.391   1.950  0.9664  1.5473  0.5118
 9204TIP3   OH227575   4.575   3.547   0.287 -0.0635 -0.1904 -0.0878
 9204TIP3    H127576   4.612   3.466   0.321  1.6886  0.7660  0.4200
 9204TIP3    H227577   4.548   3.526   0.198  2.1514 -0.8765 -0.6554
 9205TIP3   OH227578   0.393   3.997   3.174  0.0629  0.3255  0.4932
 9205TIP3    H127579   0.475   3.948   3.170  0.0604  0.1971  1.5586
 9205TIP3    H227580   0.416   4.086   3.146  0.2913 -0.0101 -0.4095
 9206TIP3   OH227581   6.716   0.377   3.923 -0.9441  0.3775  0.2568
 9206TIP3    H127582   6.652   0.309   3.945 -0.2631 -0.1860  0.5431
 9206TIP3    H227583   6.670   0.459   3.939 -1.4164 -0.0241  1.0085
 9207TIP3   OH227584   7.133   0.432   4.619 -0.3477  0.4249 -0.1187
 9207TIP3    H127585   7.117   0.355   4.565  2.1246 -0.7682  0.6822
 9207TIP3    H227586   7.143   0.504   4.557 -0.2908 -0.3637 -1.0456
 9208TIP3   OH227587   5.818   2.122   0.350  0.0617  0.8855  0.1946
 9208TIP3    H127588   5.809   2.040   0.302  0.2338  0.2179  1.2795
 9208TIP3    H227589   5.900   2.113   0.398 -0.9410  0.8210  1.9677
 9209TIP3   OH227590   0.241   6.313   5.588 -0.0184 -0.1505 -0.3962
 9209TIP3    H127591   0.206   6.236   5.544  2.2316 -1.0173 -0.7973
 9209TIP3    H227592   0.287   6.277   5.664 -0.1629  0.9500  0.2224
 9210TIP3   OH227593   2.541   3.151   0.633 -0.2110 -0.1579 -0.3986
 9210TIP3    H127594   2.597   3.227   0.615 -0.0525  0.0725  0.9233
 9210TIP3    H227595   2.467   3.187   0.683  0.6845 -1.0534  1.6992
 9211TIP3   OH227596   5.475   5.836   3.051  0.0084  0.2289  0.3360
 9211TIP3    H127597   5.427   5.760   3.020  0.2984 -0.1722  0.8485
 9211TIP3    H227598   5.497   5.815   3.142  0.9141  0.5063  0.1929
 9212TIP3   OH227599   6.880   2.551   0.791  0.2180  0.3291  0.3699
 9212TIP3    H127600   6.905   2.610   0.719 -0.9518 -0.6589 -0.9022
 9212TIP3    H227601   6.964   2.522   0.827  0.8821  0.1788 -1.1867
 9213TIP3   OH227602   1.196   4.869   5.480  0.6483 -0.1585  0.7543
 9213TIP3    H127603   1.156   4.798   5.431  0.8525 -0.2372  0.7017
 9213TIP3    H227604   1.136   4.943   5.469  2.2341  0.8200 -2.3063
 9214TIP3   OH227605   1.556   1.447   1.103  0.5084 -0.2354 -0.8430
 9214TIP3    H127606   1.543   1.353   1.112  0.4245 -0.0851  0.8892
 9214TIP3    H227607   1.651   1.458   1.105  0.5088 -0.2610 -0.7015
 9215TIP3   OH227608   4.498   3.874   1.142  0.4043 -0.7243 -0.2426
 9215TIP3    H127609   4.555   3.876   1.066  0.9764  0.1533  0.1934
 9215TIP3    H227610   4.555   3.892   1.216 -0.2510 -0.9481  0.3354
 9216TIP3   OH227611   1.782   1.455   3.313 -0.1670 -0.0025 -0.1479
 9216TIP3    H127612   1.724   1.402   3.258 -0.0193  0.6541 -0.9484
 9216TIP3    H227613   1.742   1.541   3.316  0.2564  0.1914  0.1015
 9217TIP3   OH227614   2.784   4.384   3.308 -0.1185 -0.3983 -0.1630
 9217TIP3    H127615   2.719   4.449   3.280 -0.1598  0.6160  2.0787
 9217TIP3    H227616   2.866   4.416   3.269 -0.0324  1.3929  1.3428
 9218TIP3   OH227617   2.758   5.063   4.547  0.7606  0.0638 -0.2084
 9218TIP3    H127618   2.683   5.058   4.607  0.0637  1.1186 -0.9581
 9218TIP3    H227619   2.822   5.119   4.592  1.7405 -1.9744  1.0576
 9219TIP3   OH227620   0.180   1.924   2.916 -0.4744 -0.3490  0.1559
 9219TIP3    H127621   0.200   1.853   2.977 -1.4742  1.1149  2.2874
 9219TIP3    H227622   0.265   1.960   2.892 -0.0712 -0.7199  0.9883
 9220TIP3   OH227623   2.411   4.646   3.777 -0.1308 -0.2497  0.3423
 9220TIP3    H127624   2.477   4.681   3.838  0.6711  1.2350 -1.2807
 9220TIP3    H227625   2.448   4.662   3.690 -1.7218 -1.3148 -0.5759
 9221TIP3   OH227626   1.684   6.442   5.369  0.5023  0.0069 -0.1078
 9221TIP3    H127627   1.765   6.394   5.386  0.2790 -0.1421  0.5748
 9221TIP3    H227628   1.616   6.375   5.362  0.1680  0.2144  0.9714
 9222TIP3   OH227629   5.316   6.413   2.307 -0.6528  0.0272 -0.5894
 9222TIP3    H127630   5.372   6.350   2.261 -1.9775 -0.5144 -1.5219
 9222TIP3    H227631   5.374   6.456   2.368  0.7246 -0.7218 -1.3212
 9223TIP3   OH227632   2.949   2.640   2.058  0.7722  0.6037  0.2675
 9223TIP3    H127633   2.863   2.629   2.019 -0.1023  1.0511  1.9791
 9223TIP3    H227634   2.974   2.730   2.036  1.0220  0.3247 -0.6184
 9224TIP3   OH227635   3.238   2.183   2.086  0.8288  0.3084 -0.1908
 9224TIP3    H127636   3.216   2.092   2.067 -0.1178  0.6492 -0.7800
 9224TIP3    H227637   3.155   2.222   2.112  1.3183  0.8997  0.5285
 9225TIP3   OH227638   5.247   6.507   5.621  0.0810 -0.1379 -0.4194
 9225TIP3    H127639   5.180   6.492   5.688  0.5302  2.0059  0.5965
 9225TIP3    H227640   5.203   6.560   5.555  0.5063  0.5075 -0.1955
 9226TIP3   OH227641   3.470   1.568   4.548 -0.1864 -0.7687  0.2973
 9226TIP3    H127642   3.546   1.609   4.507 -0.4679 -0.2051  0.3210
 9226TIP3    H227643   3.483   1.581   4.642  0.0193 -1.2696  0.3397
 9227TIP3   OH227644   4.977   2.206   3.711 -0.0668  0.0045  0.1628
 9227TIP3    H127645   4.997   2.150   3.786 -1.1091 -1.0187 -0.3021
 9227TIP3    H227646   4.949   2.289   3.751  1.5539  0.2564  0.8518
 9228TIP3   OH227647   3.370   3.428   0.594  0.2696 -0.0023 -0.2296
 9228TIP3    H127648   3.451   3.451   0.641  0.1153  0.1575 -0.0401
 9228TIP3    H227649   3.392   3.438   0.501  0.9469 -1.5047 -0.2622
 9229TIP3   OH227650   3.150   5.407   3.533 -0.2495 -0.1675 -0.4810
 9229TIP3    H127651   3.133   5.322   3.493  0.6509 -0.9972  0.8154
 9229TIP3    H227652   3.063   5.442   3.553 -0.6650 -0.3485 -1.8220
 9230TIP3   OH227653   1.686   0.056   1.429  0.3992 -0.3324 -0.2141
 9230TIP3    H127654   1.745   0.130   1.413 -0.2529  0.5681  1.3986
 9230TIP3    H227655   1.600   0.096   1.441 -0.1270 -1.4407 -0.2222
 9231TIP3   OH227656   5.275   1.139   0.809  0.0689 -0.2731 -0.1386
 9231TIP3    H127657   5.259   1.172   0.720  0.1523 -0.3613 -0.1875
 9231TIP3    H227658   5.195   1.159   0.857  0.8362  1.7426  0.3604
 9232TIP3   OH227659   6.769   5.371   4.859 -0.0603 -0.1670 -0.4320
 9232TIP3    H127660   6.843   5.431   4.865 -0.4835  0.2193  1.2761
 9232TIP3    H227661   6.769   5.342   4.767  0.0549  2.5389 -1.3655
 9233TIP3   OH227662   1.511   2.973   0.943 -0.3283 -0.2179 -0.2641
 9233TIP3    H127663   1.574   2.952   0.873 -1.5086 -0.6952 -1.2131
 9233TIP3    H227664   1.502   2.891   0.992  2.8682  0.8447  2.5326
 9234TIP3   OH227665   6.501   3.486   5.029 -0.1623 -0.7793 -0.2835
 9234TIP3    H127666   6.571   3.459   4.970  0.3993 -1.9365  0.8704
 9234TIP3    H227667   6.435   3.526   4.972  0.4376 -1.7130 -1.6612
 9235TIP3   OH227668   0.251   4.535   2.347  0.6811  0.4317 -0.4645
 9235TIP3    H127669   0.341   4.531   2.315  0.5959 -0.8419 -0.5703
 9235TIP3    H227670   0.209   4.457   2.311 -0.1238  0.3576  0.6024
 9236TIP3   OH227671   4.150   0.816   3.045 -0.0919  0.5831  0.6602
 9236TIP3    H127672   4.189   0.734   3.013  0.3809  1.5841 -1.4794
 9236TIP3    H227673   4.208   0.844   3.116  2.1812  1.1138 -1.2749
 9237TIP3   OH227674   0.256   4.428   0.042 -0.0949 -0.5753  0.4230
 9237TIP3    H127675   0.318   4.463  -0.022  0.0005 -0.2604  0.6878
 9237TIP3    H227676   0.172   4.425  -0.005 -0.5264  1.7135  0.9076
 9238TIP3   OH227677   1.039   5.998   2.885 -0.1651 -0.4338 -0.0170
 9238TIP3    H127678   1.116   5.942   2.893 -0.4363 -0.7193  0.6836
 9238TIP3    H227679   0.977   5.948   2.832  0.5116  0.2281 -1.4838
 9239TIP3   OH227680   2.987   1.156   3.644 -0.6609 -0.4471 -0.4853
 9239TIP3    H127681   3.026   1.243   3.639 -1.1422 -0.2431 -0.7914
 9239TIP3    H227682   3.062   1.097   3.651 -0.3528  0.1359  2.7883
 9240TIP3   OH227683   5.212   5.735   5.013 -0.3095 -0.2353 -0.2574
 9240TIP3    H127684   5.283   5.795   4.989  0.1101  0.8238  3.0744
 9240TIP3    H227685   5.135   5.792   5.019 -0.5374 -0.5784  0.1115
 9241TIP3   OH227686   6.527   6.682   4.981  0.5911 -0.0478 -0.5326
 9241TIP3    H127687   6.529   6.742   4.906  1.9497  0.7070  0.0648
 9241TIP3    H227688   6.551   6.597   4.945  0.6008  0.1778 -1.0626
 9242TIP3   OH227689   3.190   4.851   1.431 -0.1837 -0.4630  0.1417
 9242TIP3    H127690   3.217   4.845   1.340  1.2612  1.1832  0.4093
 9242TIP3    H227691   3.173   4.945   1.445 -0.0383 -0.6355  1.6340
 9243TIP3   OH227692   6.944   2.518   4.477 -0.2870  0.0366 -0.0789
 9243TIP3    H127693   7.013   2.472   4.527 -0.4639 -0.9483 -0.7148
 9243TIP3    H227694   6.992   2.579   4.421 -0.0244  0.3905  0.5164
 9244TIP3   OH227695   6.524   3.414   5.531 -0.5424 -0.1915  0.1439
 9244TIP3    H127696   6.461   3.438   5.463  0.9124  0.1741 -1.1491
 9244TIP3    H227697   6.471   3.381   5.603 -2.1294 -1.7078 -1.6101
 9245TIP3   OH227698   5.837   0.978   0.499  0.3946  0.1992 -0.7020
 9245TIP3    H127699   5.874   0.908   0.446 -1.1987  1.0343 -3.0322
 9245TIP3    H227700   5.743   0.971   0.487 -0.1748 -0.1301  2.8477
 9246TIP3   OH227701   6.691   1.315   3.857 -0.3213 -0.0330  0.3331
 9246TIP3    H127702   6.633   1.241   3.841  1.3582 -0.9223 -2.2867
 9246TIP3    H227703   6.649   1.389   3.812 -0.2032 -0.3233 -0.2719
 9247TIP3   OH227704   1.138   1.498   1.936 -0.5712  0.0362 -0.4435
 9247TIP3    H127705   1.075   1.547   1.988 -0.3463 -0.4981  0.3593
 9247TIP3    H227706   1.112   1.406   1.949  0.2658 -0.1745 -0.2379
 9248TIP3   OH227707   5.258   0.369   2.821  0.6339 -0.0870 -0.2435
 9248TIP3    H127708   5.303   0.287   2.842 -0.5065 -0.7510 -0.2963
 9248TIP3    H227709   5.170   0.359   2.859 -0.4554 -0.0495 -2.5746
 9249TIP3   OH227710   4.692   1.666   3.686  0.1985 -0.4175  0.2638
 9249TIP3    H127711   4.770   1.624   3.649  0.4642 -0.1165  0.4706
 9249TIP3    H227712   4.717   1.758   3.696 -0.3772 -0.2051 -0.1868
 9250TIP3   OH227713   0.266   4.499   2.904  0.2858 -0.0709  0.4453
 9250TIP3    H127714   0.272   4.405   2.885  1.0301  0.3369 -1.6189
 9250TIP3    H227715   0.268   4.540   2.818  2.9990  1.9988  1.3739
 9251TIP3   OH227716   4.159   3.227   2.174 -0.2642 -0.0937  0.0056
 9251TIP3    H127717   4.141   3.161   2.242 -1.0580  0.6032  0.4905
 9251TIP3    H227718   4.241   3.198   2.134  1.1590  0.3684  2.3880
 9252TIP3   OH227719   5.223   2.926   4.544  0.2863  0.2336 -0.5188
 9252TIP3    H127720   5.253   2.997   4.600  0.7822 -0.2346 -0.1685
 9252TIP3    H227721   5.162   2.966   4.483  1.0558  1.0786 -0.7467
 9253TIP3   OH227722   2.037   1.031   1.330 -0.4099 -0.0226 -0.1787
 9253TIP3    H127723   1.954   1.013   1.375 -1.3697  0.0149 -1.8662
 9253TIP3    H227724   2.066   0.945   1.297 -0.6730  0.2122 -1.0480
 9254TIP3   OH227725   3.906   6.716   4.184 -0.3358 -0.0622 -0.4284
 9254TIP3    H127726   3.980   6.708   4.244 -0.8927 -0.4422  0.2283
 9254TIP3    H227727   3.844   6.649   4.214 -0.9080  0.1969 -1.0158
 9255TIP3   OH227728   3.920   0.075   5.455  0.0796 -0.3101  0.1676
 9255TIP3    H127729   3.850   0.124   5.412  0.2327  0.6166  0.9219
 9255TIP3    H227730   3.898  -0.017   5.441 -1.8821 -0.0688  1.3215
 9256TIP3   OH227731   6.265   5.904   0.314 -0.4751 -0.0766 -0.0536
 9256TIP3    H127732   6.323   5.956   0.260  0.5126 -1.9571 -0.9122
 9256TIP3    H227733   6.273   5.942   0.402 -0.9216  2.0563 -0.8847
 9257TIP3   OH227734   2.735   5.441   0.550 -0.1474  0.0287 -0.1058
 9257TIP3    H127735   2.818   5.484   0.528  1.2750 -1.5609  1.7936
 9257TIP3    H227736   2.732   5.363   0.495  1.1982 -1.5252  1.8626
 9258TIP3   OH227737   6.977   0.803   3.566  0.0621 -0.2612  0.0014
 9258TIP3    H127738   6.932   0.831   3.646  1.6573  0.0985  0.8248
 9258TIP3    H227739   7.053   0.861   3.560  0.8328 -1.3216 -0.9004
 9259TIP3   OH227740   5.276   4.508   4.832  0.1951  0.1712  0.5238
 9259TIP3    H127741   5.336   4.563   4.782 -0.4386  0.6517  0.2815
 9259TIP3    H227742   5.200   4.563   4.848 -0.1450 -0.3972  0.9134
 9260TIP3   OH227743   1.782   2.437   4.500 -0.1285  0.6543  0.1320
 9260TIP3    H127744   1.759   2.399   4.585  1.8609 -0.9074  0.0615
 9260TIP3    H227745   1.817   2.363   4.450 -1.3607  1.5216 -2.1247
 9261TIP3   OH227746   4.000   4.591   2.641 -0.0364 -0.1832  0.7402
 9261TIP3    H127747   4.082   4.586   2.592 -0.2366  0.7079  0.2932
 9261TIP3    H227748   4.012   4.665   2.700 -0.5349 -0.0187  0.6397
 9262TIP3   OH227749   4.495   2.264   2.363 -0.7639 -0.9901 -0.4465
 9262TIP3    H127750   4.567   2.242   2.304 -0.0533 -1.6892  0.6507
 9262TIP3    H227751   4.513   2.215   2.443 -0.8278  1.1527  0.9646
 9263TIP3   OH227752   5.714   4.021   4.567 -0.7354  0.3073  0.1856
 9263TIP3    H127753   5.641   3.966   4.596 -0.1399 -0.1167  0.9275
 9263TIP3    H227754   5.766   4.035   4.646  0.9711 -0.9298 -0.6561
 9264TIP3   OH227755   3.886   4.358   0.290 -0.5972  0.0280  0.5137
 9264TIP3    H127756   3.935   4.363   0.373  0.4543 -2.5868  0.1407
 9264TIP3    H227757   3.795   4.343   0.317 -0.6456  1.3255  1.1750
 9265TIP3   OH227758   2.181   3.675   5.720 -0.3904  0.0410  0.1785
 9265TIP3    H127759   2.230   3.713   5.647 -0.4996  0.2571  0.2172
 9265TIP3    H227760   2.185   3.741   5.789  1.9578 -1.2082  1.3413
 9266TIP3   OH227761   4.921   2.285   5.273 -0.3385  0.2002  0.1969
 9266TIP3    H127762   4.857   2.325   5.331  0.1930  1.6991 -0.2119
 9266TIP3    H227763   4.985   2.244   5.331  0.2579  1.7901  0.7066
 9267TIP3   OH227764   1.042   1.948   0.719 -0.1785 -0.0712 -0.2412
 9267TIP3    H127765   0.987   1.972   0.645  1.1605  2.2929 -0.5894
 9267TIP3    H227766   0.988   1.965   0.796 -0.5775  0.4118 -0.6222
 9268TIP3   OH227767   0.127   1.319   1.709  0.2710  0.0004 -0.2973
 9268TIP3    H127768   0.051   1.315   1.651 -0.2408  0.3590  0.3425
 9268TIP3    H227769   0.093   1.298   1.796  0.3877  2.6093  0.4624
 9269TIP3   OH227770   3.166   6.115   3.875 -0.0547 -0.2081  0.4770
 9269TIP3    H127771   3.144   6.056   3.946 -0.4155 -2.9071 -1.6988
 9269TIP3    H227772   3.259   6.099   3.858  0.0276  0.3907  0.3235
 9270TIP3   OH227773   0.129   0.827   3.431 -0.1878  0.3937  0.1809
 9270TIP3    H127774   0.096   0.863   3.513  1.3595  1.6419  0.2910
 9270TIP3    H227775   0.065   0.855   3.365 -0.6529  0.6527  0.7377
 9271TIP3   OH227776   4.363   4.687   0.073  0.4539 -0.0398  0.0354
 9271TIP3    H127777   4.383   4.690   0.166  1.3594 -0.1975 -0.1393
 9271TIP3    H227778   4.380   4.596   0.048  0.6170  0.0961 -0.3631
 9272TIP3   OH227779   5.109   4.553   5.652 -0.2814  1.1938  0.0031
 9272TIP3    H127780   5.159   4.626   5.616  2.3310 -1.1899 -1.6384
 9272TIP3    H227781   5.059   4.519   5.578  0.8196 -0.4244 -0.0231
 9273TIP3   OH227782   6.701   0.018   0.420  0.4724  0.2318 -0.4521
 9273TIP3    H127783   6.780   0.032   0.369 -0.6789  2.7019 -1.7193
 9273TIP3    H227784   6.671   0.106   0.443 -0.9249 -0.6873  1.5817
 9274TIP3   OH227785   5.520   0.740   2.770 -0.1132  0.3148  0.2902
 9274TIP3    H127786   5.465   0.719   2.695  0.0736 -0.4175  0.3423
 9274TIP3    H227787   5.516   0.661   2.825  0.0868  0.6813  0.8370
 9275TIP3   OH227788   0.931   1.382   4.766  0.2195 -0.0542  0.3770
 9275TIP3    H127789   0.932   1.473   4.795  1.0214 -0.6352  2.3912
 9275TIP3    H227790   0.842   1.368   4.733  0.1235  1.4670 -0.0891
 9276TIP3   OH227791   3.207   4.888   2.455 -0.5959 -0.0250  0.0785
 9276TIP3    H127792   3.194   4.882   2.360 -0.4160 -0.2718  0.0683
 9276TIP3    H227793   3.234   4.979   2.470 -2.4837  0.5777  0.1228
 9277TIP3   OH227794   2.075   5.530   2.346  0.4530  0.0560  0.6076
 9277TIP3    H127795   2.136   5.518   2.419  0.9006 -3.6997 -0.1652
 9277TIP3    H227796   1.989   5.520   2.386  0.6071 -0.1523  0.8958
 9278TIP3   OH227797   1.296   1.812   5.701 -0.5442  0.1830  0.2435
 9278TIP3    H127798   1.276   1.780   5.613  0.5973 -1.2980  0.4979
 9278TIP3    H227799   1.218   1.862   5.726 -1.6699 -0.9517 -0.8642
 9279TIP3   OH227800   1.328   0.404   4.160  0.1287 -0.0074 -0.1029
 9279TIP3    H127801   1.379   0.340   4.210 -2.6943 -2.2092  0.2751
 9279TIP3    H227802   1.379   0.419   4.080  1.6676 -1.4800  0.5406
 9280TIP3   OH227803   6.408   3.919   2.097 -0.3170  0.1828  0.1007
 9280TIP3    H127804   6.375   3.830   2.089  0.2640 -0.1065  0.8368
 9280TIP3    H227805   6.498   3.915   2.067 -1.0933  1.1189 -2.5941
 9281TIP3   OH227806   3.662   1.905   1.674  0.2353 -0.6476  0.3569
 9281TIP3    H127807   3.749   1.940   1.692  0.4007 -0.1030 -1.3103
 9281TIP3    H227808   3.676   1.836   1.610 -0.3446 -2.2901  1.9153
 9282TIP3   OH227809   2.150   2.643   0.108  0.2854 -0.5336 -0.0957
 9282TIP3    H127810   2.174   2.554   0.085 -0.9641 -1.1253  0.7973
 9282TIP3    H227811   2.233   2.692   0.105  0.9297 -1.6434 -0.8783
 9283TIP3   OH227812   1.744   2.688   0.832  0.0146  0.6157 -0.4887
 9283TIP3    H127813   1.775   2.749   0.899 -0.5960  0.8558 -0.4193
 9283TIP3    H227814   1.823   2.660   0.786  0.2642  1.7659 -0.7759
 9284TIP3   OH227815   1.280   6.481   4.535  0.4530 -0.4532  0.4688
 9284TIP3    H127816   1.247   6.391   4.533  1.3276 -0.8098  1.3483
 9284TIP3    H227817   1.343   6.485   4.464  2.0592 -1.2309  1.7775
 9285TIP3   OH227818   5.398   0.281   4.360  0.3006 -0.4314  0.1800
 9285TIP3    H127819   5.483   0.318   4.382  0.3471 -0.2546 -0.2924
 9285TIP3    H227820   5.354   0.348   4.307 -0.4307 -0.2168  1.0379
 9286TIP3   OH227821   6.331   1.289   3.693  0.4454  0.0730 -0.2347
 9286TIP3    H127822   6.420   1.303   3.661  0.5892  0.2230  0.2252
 9286TIP3    H227823   6.280   1.269   3.615  1.0949 -1.0621 -0.3852
 9287TIP3   OH227824   1.506   5.586   2.843 -0.0240  0.0175  0.4436
 9287TIP3    H127825   1.593   5.560   2.874  0.5593  0.5920 -0.6428
 9287TIP3    H227826   1.468   5.506   2.807 -0.8672 -0.7577  2.8519
 9288TIP3   OH227827   6.942   1.200   3.790  0.1119 -0.0805 -0.3101
 9288TIP3    H127828   7.026   1.172   3.828 -0.4692 -1.3693  0.0798
 9288TIP3    H227829   6.916   1.276   3.842  0.5192 -0.3338  0.2703
 9289TIP3   OH227830   6.163   2.169   4.476  0.0789  0.0039  0.3299
 9289TIP3    H127831   6.242   2.181   4.423 -0.0124  2.4419  0.6185
 9289TIP3    H227832   6.196   2.155   4.565  0.1835 -0.7905  0.1743
 9290TIP3   OH227833  -0.027   6.279   2.719  0.6212  0.2869 -0.0420
 9290TIP3    H127834  -0.022   6.374   2.722 -0.6181  0.3535  0.6272
 9290TIP3    H227835   0.064   6.250   2.712  1.0509  1.4925  0.3959
 9291TIP3   OH227836   5.555   4.350   4.991  0.2703 -0.1608 -0.1243
 9291TIP3    H127837   5.525   4.424   5.044  0.5353 -0.0803 -0.0856
 9291TIP3    H227838   5.650   4.358   4.991  0.5269 -2.0613  2.1910
 9292TIP3   OH227839   1.937   2.719   1.797  0.3234 -0.5636 -0.0791
 9292TIP3    H127840   1.994   2.790   1.768 -0.5755  0.4604  0.5572
 9292TIP3    H227841   1.984   2.677   1.869  0.4641 -0.0120  0.1534
 9293TIP3   OH227842   5.701   6.104   0.214  0.1690  0.4260  0.1487
 9293TIP3    H127843   5.792   6.132   0.214  0.6571 -1.0636  1.1103
 9293TIP3    H227844   5.656   6.168   0.270  0.9710  0.1521  1.1223
 9294TIP3   OH227845   3.157   4.262   0.295 -0.4331 -0.1966  0.2313
 9294TIP3    H127846   3.125   4.189   0.349 -0.4116 -0.7874 -0.5497
 9294TIP3    H227847   3.096   4.266   0.221  0.4185 -0.3650 -0.4923
 9295TIP3   OH227848   3.797   4.958   2.471  0.0757  0.1942  0.0435
 9295TIP3    H127849   3.707   4.957   2.439  0.0767  0.0482  0.0467
 9295TIP3    H227850   3.788   4.950   2.566 -0.0495  2.8805  0.3356
 9296TIP3   OH227851   1.794   1.128   1.056 -0.4202  0.7066 -0.2290
 9296TIP3    H127852   1.784   1.119   1.150  1.3266  0.1343 -0.0663
 9296TIP3    H227853   1.884   1.157   1.043 -0.6307  0.8113 -1.7249
 9297TIP3   OH227854   0.971   4.648   3.250  0.1185 -0.4251  0.4606
 9297TIP3    H127855   1.006   4.728   3.210  1.9526 -2.1074 -1.5396
 9297TIP3    H227856   1.041   4.618   3.308 -0.7860 -0.3374  1.6318
 9298TIP3   OH227857   0.500   4.699   5.709  0.3013  0.0116  0.5908
 9298TIP3    H127858   0.528   4.683   5.799 -1.7781 -1.6231  1.0167
 9298TIP3    H227859   0.439   4.773   5.716 -1.3964 -1.3614  0.8891
 9299TIP3   OH227860   4.471   0.156   2.145 -0.5523 -0.2507 -0.3327
 9299TIP3    H127861   4.512   0.226   2.196 -0.3425 -0.7092  0.1505
 9299TIP3    H227862   4.381   0.184   2.132  0.3228  1.6756 -3.0334
 9300TIP3   OH227863   1.036   5.896   5.415  0.2305  0.0289 -0.2589
 9300TIP3    H127864   1.092   5.830   5.375  0.1457  0.3382 -0.9145
 9300TIP3    H227865   1.096   5.958   5.455  0.3201 -0.2516  0.0428
 9301TIP3   OH227866   4.389   3.566   2.400  0.3134  0.0230  0.2821
 9301TIP3    H127867   4.341   3.633   2.350 -1.2937 -1.0166  0.3624
 9301TIP3    H227868   4.427   3.509   2.333 -0.5487 -0.4828  0.2051
 9302TIP3   OH227869   3.468   3.298   5.738 -0.2365  0.1035  0.0351
 9302TIP3    H127870   3.389   3.302   5.685  0.1549 -0.2469 -0.5932
 9302TIP3    H227871   3.531   3.352   5.691  0.2881 -0.6650 -0.1670
 9303TIP3   OH227872   0.292   1.564   4.952 -0.1212  0.6363  0.4998
 9303TIP3    H127873   0.210   1.552   4.904 -0.0643  1.1901  0.2546
 9303TIP3    H227874   0.360   1.552   4.886  0.0257 -0.3919  0.8173
 9304TIP3   OH227875   0.031   1.839   2.670 -0.7313  0.3266 -0.4500
 9304TIP3    H127876   0.043   1.744   2.662 -0.5012  0.3044  0.1132
 9304TIP3    H227877   0.061   1.859   2.758 -0.0712  1.0354 -0.8272
 9305TIP3   OH227878   0.137   4.314   4.371  0.1357 -0.6225  0.2221
 9305TIP3    H127879   0.158   4.225   4.345 -1.2233 -0.6105 -1.0570
 9305TIP3    H227880   0.054   4.334   4.326  1.6561  2.1743 -1.6918
 9306TIP3   OH227881   0.648   3.011   4.195  0.1316  0.2237 -0.4698
 9306TIP3    H127882   0.656   2.947   4.124  2.1857 -0.0531 -0.0349
 9306TIP3    H227883   0.736   3.017   4.232 -0.5966  1.4077  1.1620
 9307TIP3   OH227884   6.365   3.460   4.433  0.0750  0.9847 -0.0136
 9307TIP3    H127885   6.397   3.549   4.418 -2.0138  1.2713 -4.2886
 9307TIP3    H227886   6.444   3.408   4.446  1.6420  2.9308 -1.2016
 9308TIP3   OH227887   1.919   6.018   1.195  0.0575 -0.0089 -0.0923
 9308TIP3    H127888   1.933   5.945   1.254  0.8696  0.4466  0.2963
 9308TIP3    H227889   2.007   6.044   1.166 -0.2056  0.8484 -0.1736
 9309TIP3   OH227890   1.991   6.148   0.421  0.3443 -0.1683 -0.0340
 9309TIP3    H127891   1.940   6.118   0.345 -1.2148  0.0877  0.8721
 9309TIP3    H227892   1.930   6.141   0.495  1.6098  0.2556  1.0795
 9310TIP3   OH227893   2.429   0.574   3.545 -0.1680 -0.1346  0.7110
 9310TIP3    H127894   2.372   0.497   3.556  1.9402 -1.5021  3.4418
 9310TIP3    H227895   2.398   0.636   3.611 -0.0892  0.1913  0.4451
 9311TIP3   OH227896   4.446   0.624   4.905 -0.0733 -0.0845  0.3867
 9311TIP3    H127897   4.517   0.572   4.867  1.2246 -0.2228  2.7671
 9311TIP3    H227898   4.373   0.614   4.845  0.6730 -3.2684 -0.1469
 9312TIP3   OH227899   1.371   5.472   5.796 -0.2681  0.0088  0.3241
 9312TIP3    H127900   1.295   5.530   5.786  0.0568  0.3975  0.0830
 9312TIP3    H227901   1.346   5.392   5.751  0.5064  1.1086 -2.2617
 9313TIP3   OH227902   6.810   1.760   2.803 -0.0739  0.5416  0.2242
 9313TIP3    H127903   6.749   1.832   2.787  1.2539  1.5256 -0.6274
 9313TIP3    H227904   6.865   1.758   2.725 -2.1430 -3.6678 -1.4518
 9314TIP3   OH227905   2.173   6.037   4.351 -0.2572 -0.4629 -0.0808
 9314TIP3    H127906   2.213   5.994   4.426  0.3807 -2.8517 -1.6598
 9314TIP3    H227907   2.081   6.012   4.354 -0.3883  0.0410  0.2677
 9315TIP3   OH227908   5.389   0.943   4.339  0.1789  0.4915 -0.6247
 9315TIP3    H127909   5.460   0.978   4.286  1.2341  2.5922  1.9780
 9315TIP3    H227910   5.432   0.885   4.402 -0.8364 -0.6765 -0.9658
 9316TIP3   OH227911   2.306   4.142   0.801  0.3058 -0.1568 -0.5346
 9316TIP3    H127912   2.269   4.074   0.857  2.3418 -0.7488  0.1886
 9316TIP3    H227913   2.307   4.220   0.856  0.0301 -0.1144 -0.5902
 9317TIP3   OH227914   0.217   6.157   3.025 -0.5126  0.1768  0.1027
 9317TIP3    H127915   0.295   6.154   2.969  0.5104 -1.7472  1.4923
 9317TIP3    H227916   0.227   6.238   3.075  0.7753 -0.1864  0.4702
 9318TIP3   OH227917   1.801   3.689   4.606 -0.4778  0.0984 -0.2293
 9318TIP3    H127918   1.887   3.718   4.638 -0.4451 -0.9902  0.7004
 9318TIP3    H227919   1.785   3.606   4.650 -1.6811 -0.0912 -0.9749
 9319TIP3   OH227920   3.660   3.596   3.073 -0.1075 -0.5533  0.4261
 9319TIP3    H127921   3.647   3.504   3.094  0.2142 -0.5205  0.7685
 9319TIP3    H227922   3.706   3.595   2.989  0.7737 -0.7267  0.8991
 9320TIP3   OH227923   1.196   5.214   2.457  0.1729 -0.3567  0.0014
 9320TIP3    H127924   1.265   5.251   2.403 -0.2749  0.7338  0.1615
 9320TIP3    H227925   1.160   5.143   2.404  1.5910 -1.1354  0.0414
 9321TIP3   OH227926   1.624   5.990   5.778  0.2167  0.2884  0.3896
 9321TIP3    H127927   1.649   6.005   5.869  0.0419 -0.4625  0.5721
 9321TIP3    H227928   1.598   6.076   5.746  1.3138  0.7658  0.7202
 9322TIP3   OH227929   0.326   3.589   3.511 -0.2970  0.3900 -0.4256
 9322TIP3    H127930   0.337   3.673   3.466 -2.6725  0.2665 -1.3837
 9322TIP3    H227931   0.374   3.526   3.458 -0.2139  0.8230 -0.8693
 9323TIP3   OH227932   2.334   3.399   3.329  0.2994 -0.5272 -0.3174
 9323TIP3    H127933   2.395   3.472   3.312  0.5135 -0.8674 -1.0305
 9323TIP3    H227934   2.383   3.341   3.387 -0.0461  0.1201  0.6439
 9324TIP3   OH227935   5.041   3.896   0.191  0.1560 -0.4953 -0.2653
 9324TIP3    H127936   5.053   3.848   0.110  3.2468  1.1981 -0.9538
 9324TIP3    H227937   4.982   3.968   0.168  0.3542 -0.5004 -0.7780
 9325TIP3   OH227938   1.693   5.601   3.106 -0.1240  0.2888  0.5506
 9325TIP3    H127939   1.676   5.650   3.186  0.0611  0.0465  0.7377
 9325TIP3    H227940   1.761   5.651   3.061 -2.2919  2.1087 -0.9331
 9326TIP3   OH227941   1.242   2.545   4.399 -0.4868 -0.3781  0.1957
 9326TIP3    H127942   1.222   2.511   4.312  1.9845 -2.6412  0.3705
 9326TIP3    H227943   1.275   2.633   4.383 -2.2294  0.1118 -0.8826
 9327TIP3   OH227944   0.747   4.045   2.583 -0.3307  0.2273  0.0637
 9327TIP3    H127945   0.751   4.048   2.679 -0.3972  0.4946  0.0575
 9327TIP3    H227946   0.831   4.007   2.557 -0.1426  0.5407  0.2095
 9328TIP3   OH227947   7.149   4.538   3.865 -0.3420  0.0544 -0.0215
 9328TIP3    H127948   7.201   4.605   3.910 -1.8858  1.0585  0.3402
 9328TIP3    H227949   7.194   4.525   3.781 -0.9654  2.9560 -0.9277
 9329TIP3   OH227950   4.988   4.842   3.111  0.1246  0.3228 -0.1657
 9329TIP3    H127951   5.061   4.787   3.083 -0.1283  0.7022 -1.6721
 9329TIP3    H227952   4.969   4.897   3.035 -1.8603  0.0806  0.1057
 9330TIP3   OH227953   0.746   3.814   1.928 -0.2164 -0.0249 -0.5505
 9330TIP3    H127954   0.778   3.815   1.838  0.5441  0.7365 -0.2876
 9330TIP3    H227955   0.714   3.903   1.944 -0.7129 -0.2585 -0.1862
 9331TIP3   OH227956   6.338   0.483   2.435 -0.1553 -0.2677 -0.1935
 9331TIP3    H127957   6.376   0.421   2.373  0.4603  2.0441 -2.2800
 9331TIP3    H227958   6.257   0.442   2.464  0.1518 -1.9510 -1.5780
 9332TIP3   OH227959   1.880   2.155   5.821 -0.1655 -0.1775 -0.3116
 9332TIP3    H127960   1.958   2.187   5.866 -0.2462 -2.1016  1.3218
 9332TIP3    H227961   1.840   2.234   5.784  1.1205  1.1962  1.0842
 9333TIP3   OH227962   4.302   0.811   5.213 -0.7909  0.1443  0.2739
 9333TIP3    H127963   4.359   0.813   5.290  1.3046 -1.9291 -1.0833
 9333TIP3    H227964   4.293   0.902   5.187  1.0961  0.6216  1.1277
 9334TIP3   OH227965   6.068   5.968   5.114  0.2620 -0.1589  0.2927
 9334TIP3    H127966   6.096   5.973   5.022  2.3590  1.1123  0.9203
 9334TIP3    H227967   6.013   6.045   5.127  2.1115  1.1541  0.6979
 9335TIP3   OH227968   1.224   2.883   2.617 -0.0732 -0.3187 -0.0344
 9335TIP3    H127969   1.293   2.832   2.661 -1.8920 -3.0897 -0.1589
 9335TIP3    H227970   1.189   2.939   2.686 -0.7483 -2.2959  1.3451
 9336TIP3   OH227971   1.921   1.443   4.457  0.3636  0.0518  0.1938
 9336TIP3    H127972   1.959   1.356   4.444 -0.4169 -0.3977  0.7862
 9336TIP3    H227973   1.952   1.469   4.544 -0.5824 -0.2875  0.6512
 9337TIP3   OH227974   1.855   0.487   5.494  0.1174  0.3646  0.8203
 9337TIP3    H127975   1.900   0.466   5.412 -0.2203  1.0197  0.4637
 9337TIP3    H227976   1.763   0.497   5.470 -0.7811 -3.5155  1.9543
 9338TIP3   OH227977   2.024   4.291   1.546 -0.1462  0.2238 -0.3810
 9338TIP3    H127978   2.001   4.380   1.572 -1.4340 -0.7242  2.0656
 9338TIP3    H227979   2.116   4.296   1.520 -0.7890  2.6397 -2.6304
 9339TIP3   OH227980   6.653   5.355   5.405 -0.1954 -0.3002  0.6595
 9339TIP3    H127981   6.718   5.413   5.446 -1.5231  0.1688  2.2442
 9339TIP3    H227982   6.698   5.271   5.398  1.1357  0.4182  0.1079
 9340TIP3   OH227983   2.273   5.834   4.503  0.0086  0.3112  0.4629
 9340TIP3    H127984   2.197   5.793   4.545 -0.2353 -0.7789 -0.9563
 9340TIP3    H227985   2.328   5.761   4.476  2.2121  1.0907  2.4818
 9341TIP3   OH227986   1.132   5.783   1.867  0.0260  0.5164 -0.3216
 9341TIP3    H127987   1.066   5.850   1.884 -0.0529  0.4513 -0.3712
 9341TIP3    H227988   1.136   5.733   1.949  0.5170  0.9517 -0.0737
 9342TIP3   OH227989   6.362   4.767   3.325  0.1841  0.0644  0.1925
 9342TIP3    H127990   6.308   4.827   3.274 -0.3776 -0.5856  0.0048
 9342TIP3    H227991   6.360   4.802   3.414  1.0006  1.0913 -0.1614
 9343TIP3   OH227992   1.740   0.776   4.053 -0.2713  0.6574 -0.2582
 9343TIP3    H127993   1.833   0.783   4.074 -0.4225  1.0025  0.3047
 9343TIP3    H227994   1.695   0.783   4.137 -0.7417 -1.3990 -0.2841
 9344TIP3   OH227995   2.129   4.212   4.994 -0.1556 -0.6265  0.1989
 9344TIP3    H127996   2.148   4.139   5.053  0.5944 -0.5430  0.0781
 9344TIP3    H227997   2.075   4.174   4.925 -2.6646 -0.3229  1.8935
 9345TIP3   OH227998   6.075   4.723   1.125 -0.2796 -0.6889 -0.1023
 9345TIP3    H127999   5.980   4.726   1.118 -0.4709  1.4708  1.9220
 9345TIP3    H228000   6.091   4.714   1.219  1.4557  1.0206 -0.1685
 9346TIP3   OH228001   0.905   6.197   5.067  0.3672 -0.0663  0.2408
 9346TIP3    H128002   0.828   6.241   5.031  1.4579  2.4841  0.8326
 9346TIP3    H228003   0.871   6.113   5.099 -1.4340 -0.6168 -2.7131
 9347TIP3   OH228004   4.259   0.600   4.702 -0.3428  0.3890 -0.4281
 9347TIP3    H128005   4.273   0.567   4.613 -1.0792 -0.3503 -0.2813
 9347TIP3    H228006   4.188   0.546   4.736  1.4861 -0.9443  1.4544
 9348TIP3   OH228007   0.268   0.465   4.796 -0.2883  0.0183 -0.1469
 9348TIP3    H128008   0.354   0.466   4.837 -0.0100  1.0779 -0.7199
 9348TIP3    H228009   0.207   0.484   4.867  0.1197  1.0756 -0.0591
 9349TIP3   OH228010   1.520   1.629   5.246  0.2922  0.0900 -0.2643
 9349TIP3    H128011   1.434   1.634   5.203  1.8234 -2.4056 -4.0939
 9349TIP3    H228012   1.533   1.536   5.264  2.4955  0.2966 -0.5446
 9350TIP3   OH228013   3.518   1.952   1.892 -0.1934  0.3177  0.0321
 9350TIP3    H128014   3.583   1.922   1.956  1.7885  3.1989 -0.4123
 9350TIP3    H228015   3.545   1.912   1.810 -0.3604 -0.2652  0.2563
 9351TIP3   OH228016   5.747   2.130   4.575  0.3381  0.2702  0.0631
 9351TIP3    H128017   5.793   2.188   4.636  1.9563 -1.8160  0.9519
 9351TIP3    H228018   5.678   2.091   4.628 -0.1336  0.6395 -0.2726
 9352TIP3   OH228019   1.926   5.479   5.393 -0.4283 -0.2079 -1.1630
 9352TIP3    H128020   1.934   5.468   5.488 -1.2409  0.9274 -0.9408
 9352TIP3    H228021   2.014   5.464   5.359 -0.1480 -0.7033 -0.2412
 9353TIP3   OH228022   3.879   4.449   4.350  0.1444  0.2293  0.1238
 9353TIP3    H128023   3.851   4.526   4.300  1.8844  1.0545  0.3498
 9353TIP3    H228024   3.961   4.476   4.391  1.7920 -2.2840 -1.2457
 9354TIP3   OH228025   6.961   5.627   1.222 -0.6752 -0.3194 -0.2127
 9354TIP3    H128026   6.971   5.606   1.315 -1.7239  3.6381  0.9474
 9354TIP3    H228027   7.051   5.641   1.191 -0.4056 -0.3104  0.5570
 9355TIP3   OH228028   0.691   6.575   2.050  0.1842 -0.3994 -0.0779
 9355TIP3    H128029   0.782   6.567   2.021  1.0699  0.7417  2.1465
 9355TIP3    H228030   0.667   6.665   2.027  0.3250 -0.0465  1.0959
 9356TIP3   OH228031   6.783   0.737   1.226 -0.1496 -0.1144 -0.1228
 9356TIP3    H128032   6.868   0.694   1.213 -0.1816 -0.4161  0.6071
 9356TIP3    H228033   6.775   0.746   1.321 -0.6658  0.4642 -0.2126
 9357TIP3   OH228034   4.136   1.940   3.490 -0.2384  0.3650  0.5235
 9357TIP3    H128035   4.093   1.918   3.408 -0.4231  0.8758  0.4788
 9357TIP3    H228036   4.172   2.028   3.475  0.5777  0.0685  0.6518
 9358TIP3   OH228037   5.101   0.413   4.010  0.4048  0.0757  0.2526
 9358TIP3    H128038   5.185   0.459   4.008  1.1534 -1.2621 -0.1340
 9358TIP3    H228039   5.119   0.333   4.059 -0.1820 -1.0548 -1.2919
 9359TIP3   OH228040   5.746   2.640   0.570  0.2695  0.0138  0.4584
 9359TIP3    H128041   5.790   2.562   0.601  1.3488  0.2444 -0.4265
 9359TIP3    H228042   5.776   2.710   0.627  1.1612  0.1877 -0.2019
 9360TIP3   OH228043   3.229   2.667   4.352  0.1060 -1.2871 -0.0683
 9360TIP3    H128044   3.291   2.596   4.335 -0.7980 -1.6250 -2.2891
 9360TIP3    H228045   3.284   2.738   4.385  1.5324 -1.9558 -0.8595
 9361TIP3   OH228046   1.832   4.792   1.493 -0.0157  0.2831 -0.2102
 9361TIP3    H128047   1.864   4.701   1.491 -0.0311  0.2758 -0.1137
 9361TIP3    H228048   1.754   4.790   1.439  0.4966  0.4360 -0.9702
 9362TIP3   OH228049   3.864   2.068   0.763  0.1703  0.0641  0.1579
 9362TIP3    H128050   3.872   2.153   0.720 -0.6053 -0.4310 -1.0169
 9362TIP3    H228051   3.879   2.004   0.693  0.1697 -0.7726  0.9000
 9363TIP3   OH228052   5.434   0.160   2.484  0.0774  0.4007  0.1679
 9363TIP3    H128053   5.340   0.144   2.471 -0.0907 -0.0696  1.7500
 9363TIP3    H228054   5.458   0.103   2.558  1.4585  1.0207  0.2246
 9364TIP3   OH228055   1.556   4.798   3.001 -0.0877 -0.3660 -0.2211
 9364TIP3    H128056   1.626   4.832   2.945  1.3002  0.0490  1.6702
 9364TIP3    H228057   1.568   4.703   2.999  0.4899 -0.3000  0.0504
 9365TIP3   OH228058   5.524   6.220   4.053 -0.5248  0.2151  0.3845
 9365TIP3    H128059   5.528   6.225   4.149  0.7884 -0.0538  0.3579
 9365TIP3    H228060   5.501   6.129   4.035  0.2292  0.0062  0.4395
 9366TIP3   OH228061   5.144   1.913   1.655 -0.0939 -0.1267 -0.1583
 9366TIP3    H128062   5.170   1.994   1.612 -0.8925  0.6081  0.6869
 9366TIP3    H228063   5.075   1.877   1.599 -0.5762  0.4151  0.0754
 9367TIP3   OH228064   5.644   0.146   0.518  0.5259 -0.4873  0.2880
 9367TIP3    H128065   5.592   0.154   0.438 -1.4301 -0.3208  1.5163
 9367TIP3    H228066   5.654   0.236   0.549  0.2916 -0.6476  0.8334
 9368TIP3   OH228067   1.330   2.622   3.774 -0.4541 -0.2032 -0.4021
 9368TIP3    H128068   1.236   2.607   3.761 -0.9375  0.6343  1.6550
 9368TIP3    H228069   1.368   2.611   3.687 -2.3911 -0.9729 -1.2237
 9369TIP3   OH228070   4.273   0.947   1.695 -0.4807  0.0800  0.2238
 9369TIP3    H128071   4.256   0.960   1.788  0.4360 -1.4040  0.6230
 9369TIP3    H228072   4.292   0.854   1.686 -1.3535  0.0283 -1.5902
 9370TIP3   OH228073   1.393   1.027   0.120  0.0688 -0.0481 -0.0502
 9370TIP3    H128074   1.468   0.983   0.160 -0.1329 -0.6168 -0.2762
 9370TIP3    H228075   1.357   0.962   0.059  0.2851  0.7442 -1.0450
 9371TIP3   OH228076   3.662   1.331   0.111  0.6343  0.4935  0.0512
 9371TIP3    H128077   3.679   1.249   0.065 -1.0662  0.5077 -0.6684
 9371TIP3    H228078   3.711   1.397   0.061  0.0216  0.2768 -0.8624
 9372TIP3   OH228079   4.170   3.637   3.993 -1.1699  0.0346  0.2845
 9372TIP3    H128080   4.206   3.548   3.995  0.5537  0.6134 -1.8173
 9372TIP3    H228081   4.089   3.629   3.943 -0.9094 -0.3195 -0.0846
 9373TIP3   OH228082   5.507   3.896   3.274  0.1008  0.4531 -0.5820
 9373TIP3    H128083   5.601   3.897   3.292 -0.0409  0.2179  0.1899
 9373TIP3    H228084   5.466   3.881   3.359 -0.5185 -3.2478 -1.3496
 9374TIP3   OH228085   1.671   2.433   3.681 -0.5042 -0.1232  0.3429
 9374TIP3    H128086   1.711   2.446   3.595 -2.3624  1.9135 -0.3140
 9374TIP3    H228087   1.723   2.364   3.722  1.8682  0.4531 -1.4978
 9375TIP3   OH228088   3.192   3.335   4.214 -0.1987 -0.0228  0.4594
 9375TIP3    H128089   3.099   3.357   4.210 -0.4079 -1.0552 -1.6670
 9375TIP3    H228090   3.222   3.369   4.299 -1.4670  4.2802 -0.6229
 9376TIP3   OH228091   0.915   5.517   3.336  0.0939  0.8536 -0.2368
 9376TIP3    H128092   0.940   5.512   3.244  0.0793  1.4676 -0.2732
 9376TIP3    H228093   0.820   5.529   3.335  0.0435  0.5066 -0.1288
 9377TIP3   OH228094   0.547   4.584   3.688 -0.1051  0.1736  0.5667
 9377TIP3    H128095   0.566   4.517   3.622 -0.3913  1.3565 -0.7709
 9377TIP3    H228096   0.539   4.665   3.637 -3.2668  0.6819  1.6648
 9378TIP3   OH228097   0.808   3.519   1.392  0.0148 -0.3415 -0.0667
 9378TIP3    H128098   0.839   3.535   1.302  0.0291 -0.3020 -0.0550
 9378TIP3    H228099   0.726   3.471   1.381 -1.0198  1.3669 -0.1680
 9379TIP3   OH228100   0.049   1.608   1.583 -0.0046  0.5373 -0.2303
 9379TIP3    H128101   0.142   1.623   1.563  0.1350 -0.5958 -0.4987
 9379TIP3    H228102   0.006   1.689   1.556  0.9889  1.3562  0.5517
 9380TIP3   OH228103   0.431   3.976   4.971 -0.3751 -0.6813 -0.1424
 9380TIP3    H128104   0.428   4.071   4.983  0.5814 -0.1284 -3.3414
 9380TIP3    H228105   0.514   3.949   5.010 -0.9360 -0.3558  1.3347
 9381TIP3   OH228106   1.831   3.492   2.804  0.2245 -0.0952 -0.4044
 9381TIP3    H128107   1.770   3.428   2.839  0.0277  0.7862  0.9544
 9381TIP3    H228108   1.776   3.565   2.777  0.3760 -0.7412 -2.6241
 9382TIP3   OH228109   2.825   1.520   0.610 -0.3287 -0.2385 -0.2362
 9382TIP3    H128110   2.762   1.499   0.679  1.2613  0.2689  1.4654
 9382TIP3    H228111   2.872   1.438   0.595 -1.6556 -0.7634 -1.8930
 9383TIP3   OH228112   3.006   0.444   3.678  0.7365 -0.4924  0.4463
 9383TIP3    H128113   3.035   0.521   3.727  0.2886  1.0949 -1.6348
 9383TIP3    H228114   2.918   0.467   3.649  1.6905 -0.4483 -2.7274
 9384TIP3   OH228115   0.868   6.534   0.012  0.2081  0.0000 -0.5632
 9384TIP3    H128116   0.956   6.570   0.007  0.6794 -1.2175 -3.7494
 9384TIP3    H228117   0.874   6.463   0.076  1.2670  0.5677 -0.0144
 9385TIP3   OH228118   6.682   2.631   1.960  0.5873  0.0302 -0.7610
 9385TIP3    H128119   6.661   2.598   2.047 -0.5480  2.4373 -0.0487
 9385TIP3    H228120   6.776   2.650   1.964  0.8628 -1.2943 -0.5944
 9386TIP3   OH228121   6.763   3.246   0.974 -0.2799 -0.2867 -0.9728
 9386TIP3    H128122   6.699   3.276   0.909  0.5547 -1.4119 -2.3501
 9386TIP3    H228123   6.770   3.320   1.035  0.7594  1.8760 -3.5168
 9387TIP3   OH228124   5.901   5.681   5.487  0.4382  0.3427 -0.1906
 9387TIP3    H128125   5.844   5.657   5.414 -0.1542  0.6658  0.1622
 9387TIP3    H228126   5.899   5.777   5.489  1.2812  0.3735 -0.3998
 9388TIP3   OH228127   2.631   4.975   5.671 -0.3513 -0.1889  0.4207
 9388TIP3    H128128   2.562   5.024   5.625 -1.1423 -0.5372  1.2106
 9388TIP3    H228129   2.599   4.885   5.673  0.2406 -0.4015  0.5940
 9389TIP3   OH228130   5.969   0.723   0.498  0.4055  0.0665  0.4681
 9389TIP3    H128131   6.017   0.662   0.555 -0.2954 -1.3766 -0.4193
 9389TIP3    H228132   5.877   0.709   0.519  0.1748 -0.0122 -0.5305
 9390TIP3   OH228133   1.649   5.106   5.754 -0.3807  0.3914  0.3487
 9390TIP3    H128134   1.636   5.195   5.787  0.0312 -0.2651  2.4141
 9390TIP3    H228135   1.561   5.068   5.750 -0.3284 -0.2240  2.9799
 9391TIP3   OH228136   5.850   5.770   3.323  0.2745 -0.7199 -0.1638
 9391TIP3    H128137   5.922   5.811   3.275 -1.1355  1.3544 -0.6463
 9391TIP3    H228138   5.877   5.775   3.414  0.7917 -0.0053 -0.3400
 9392TIP3   OH228139   5.975   1.180   2.040  0.4135  0.4988 -0.5167
 9392TIP3    H128140   6.045   1.208   1.982  0.9618 -0.6710 -0.4546
 9392TIP3    H228141   6.018   1.128   2.108 -0.3428  0.9722  0.3661
 9393TIP3   OH228142   1.800   4.055   2.254 -0.2157  0.1496 -0.3455
 9393TIP3    H128143   1.809   4.025   2.164 -2.7166  1.3339 -1.0670
 9393TIP3    H228144   1.781   4.148   2.247  2.3578  0.9557  1.6075
 9394TIP3   OH228145   0.216   6.383   3.970 -0.0443  0.3072 -0.4654
 9394TIP3    H128146   0.180   6.469   3.993  0.4667  0.5639 -0.6020
 9394TIP3    H228147   0.308   6.389   3.996 -0.4860 -0.9712  1.6033
 9395TIP3   OH228148   0.268   3.846   4.580 -0.1627 -0.0101  0.1215
 9395TIP3    H128149   0.328   3.920   4.582 -0.4630  0.2374  0.0442
 9395TIP3    H228150   0.310   3.782   4.522  0.4009 -0.1669  0.6962
 9396TIP3   OH228151   5.376   2.388   0.771  0.2899 -0.7080  0.1287
 9396TIP3    H128152   5.415   2.415   0.688  2.4452  1.1116  1.6054
 9396TIP3    H228153   5.431   2.315   0.801 -0.9445 -1.8697 -0.3469
 9397TIP3   OH228154   2.161   4.165  -0.008  0.0545 -0.1644 -0.6851
 9397TIP3    H128155   2.234   4.226  -0.006 -1.9765  2.4071  0.2814
 9397TIP3    H228156   2.150   4.137   0.083 -1.9590  1.9341 -0.1722
 9398TIP3   OH228157   1.054   3.784   4.362 -0.1093  0.0348 -0.5864
 9398TIP3    H128158   1.091   3.698   4.384 -0.2287  0.0994 -0.1220
 9398TIP3    H228159   1.086   3.802   4.273 -1.5195 -1.2962 -1.4118
 9399TIP3   OH228160   3.508   1.779   5.002 -0.4676 -0.1885 -0.2333
 9399TIP3    H128161   3.461   1.800   5.082  0.1691  1.1859 -0.2019
 9399TIP3    H228162   3.561   1.856   4.984 -0.2935 -0.6306 -1.7633
 9400TIP3   OH228163   0.370   1.049   4.326  0.2759 -0.1553  0.1187
 9400TIP3    H128164   0.447   1.007   4.366  1.4096  2.1007  0.4232
 9400TIP3    H228165   0.397   1.070   4.237 -0.1251  0.3086  0.1014
 9401TIP3   OH228166   4.000   1.784   2.110 -0.0058  0.1411 -0.1793
 9401TIP3    H128167   4.005   1.691   2.090 -1.3229 -0.3924  1.6916
 9401TIP3    H228168   4.034   1.792   2.199 -0.1817  1.4120 -0.2021
 9402TIP3   OH228169   1.649   0.075   5.778  0.1420 -0.4212 -0.2407
 9402TIP3    H128170   1.575   0.059   5.837 -0.2030 -0.3994 -0.6640
 9402TIP3    H228171   1.724   0.038   5.825  0.1818  1.1039  0.9778
 9403TIP3   OH228172   0.567   1.320   0.718  0.2446 -0.2454 -0.4723
 9403TIP3    H128173   0.586   1.263   0.644 -0.0962 -0.0898 -0.6822
 9403TIP3    H228174   0.653   1.350   0.749  0.5205 -1.8694  0.4396
 9404TIP3   OH228175   3.796   0.361   2.062 -0.0944  0.0578  0.5294
 9404TIP3    H128176   3.854   0.290   2.035 -0.4084  0.1357 -0.3881
 9404TIP3    H228177   3.753   0.329   2.141 -1.0466 -1.2342 -0.4684
 9405TIP3   OH228178   6.054   6.709   5.275 -0.0291  0.5438  0.4886
 9405TIP3    H128179   6.075   6.788   5.225  1.4342  1.2391  2.0964
 9405TIP3    H228180   5.959   6.710   5.283 -0.1278  1.4810 -0.5282
 9406TIP3   OH228181   2.200   1.563   0.580 -0.3920  0.1162 -0.2127
 9406TIP3    H128182   2.229   1.475   0.601 -0.9699 -0.1801 -0.6396
 9406TIP3    H228183   2.281   1.611   0.561  0.0600  0.1037  1.5129
 9407TIP3   OH228184   2.114   6.692   4.209 -0.5380 -0.0830 -0.2280
 9407TIP3    H128185   2.147   6.628   4.145  2.3613 -0.2055  1.2084
 9407TIP3    H228186   2.159   6.774   4.186  1.5151 -0.3963  2.1998
 9408TIP3   OH228187   3.571   4.079   2.144 -0.7019  0.4957  0.8795
 9408TIP3    H128188   3.657   4.039   2.132 -0.7512 -0.2330  2.6029
 9408TIP3    H228189   3.538   4.092   2.056  1.6229  1.8246  0.0959
 9409TIP3   OH228190   4.969   6.074   1.965  0.4247  0.1137 -0.1211
 9409TIP3    H128191   4.967   6.060   1.870 -0.6117 -2.6246  0.2298
 9409TIP3    H228192   4.974   6.169   1.974  0.1942  0.4928 -2.9078
 9410TIP3   OH228193   1.678   5.687   5.456 -0.7189 -0.4949 -1.0832
 9410TIP3    H128194   1.733   5.736   5.516 -1.5964  0.7729 -1.2817
 9410TIP3    H228195   1.718   5.600   5.453  0.5611  0.0372 -0.3173
 9411TIP3   OH228196   3.014   3.340   0.323  0.3162  0.4920  0.1913
 9411TIP3    H128197   2.975   3.262   0.363  1.9265 -0.3157  0.2863
 9411TIP3    H228198   3.051   3.309   0.241 -1.4149  1.7767 -1.1474
 9412TIP3   OH228199   2.302   2.841   2.437  0.2334  0.2554 -0.0817
 9412TIP3    H128200   2.389   2.832   2.475 -0.4006  1.0412  1.6239
 9412TIP3    H228201   2.248   2.778   2.485 -0.1122 -0.4212 -1.3074
 9413TIP3   OH228202   6.219   5.035   0.452 -0.0613  0.2739  0.2735
 9413TIP3    H128203   6.299   4.983   0.454  0.6158  1.2308 -1.0390
 9413TIP3    H228204   6.181   5.022   0.539  0.7274 -1.3790  0.4196
 9414TIP3   OH228205   1.198   4.785   4.628 -0.9614  0.0699  0.1066
 9414TIP3    H128206   1.200   4.698   4.590 -0.5301 -0.2886  0.9117
 9414TIP3    H228207   1.186   4.770   4.722 -2.0420  0.9210  0.1250
 9415TIP3   OH228208   1.757   0.463   5.770 -0.0003 -0.1057  0.7048
 9415TIP3    H128209   1.781   0.457   5.677  2.1281  1.5229  1.0704
 9415TIP3    H228210   1.822   0.410   5.816  1.3662  2.1357  1.5122
 9416TIP3   OH228211   2.732   2.086   3.836 -0.2766 -0.0204 -0.1427
 9416TIP3    H128212   2.675   2.130   3.899  1.8468  1.2878  0.9613
 9416TIP3    H228213   2.747   2.151   3.767  1.1096  0.2225  0.3703
 9417TIP3   OH228214   0.724   0.056   1.165 -0.0175  0.2491  0.0667
 9417TIP3    H128215   0.635   0.085   1.187  0.4173  0.7720  1.1601
 9417TIP3    H228216   0.773   0.137   1.151  0.1962 -0.0428 -0.9860
 9418TIP3   OH228217   2.006   4.807   2.218  0.3653  0.4105 -0.7269
 9418TIP3    H128218   2.077   4.753   2.254  0.3783  1.2904  0.6533
 9418TIP3    H228219   1.953   4.830   2.294  1.0983  3.4201 -1.0328
 9419TIP3   OH228220   1.624   0.507   5.220  0.0530  0.5638  0.1337
 9419TIP3    H128221   1.578   0.424   5.219  2.8928 -1.1611  0.3400
 9419TIP3    H228222   1.609   0.542   5.308  1.6325 -1.5808  1.3608
 9420TIP3   OH228223   2.514   6.241   0.507 -0.0706  0.3750  0.3739
 9420TIP3    H128224   2.584   6.291   0.464  0.0760  0.7709  1.0491
 9420TIP3    H228225   2.509   6.159   0.458 -0.8773  1.3704 -1.2700
 9421TIP3   OH228226   4.174   0.309   0.394  0.4902 -0.3129 -0.1485
 9421TIP3    H128227   4.238   0.293   0.464 -0.4825 -2.9183  0.2419
 9421TIP3    H228228   4.226   0.308   0.314  1.3305  0.6722  0.3518
 9422TIP3   OH228229   0.488   6.101   4.375  0.3769 -0.4742  0.2487
 9422TIP3    H128230   0.397   6.088   4.348  0.8424 -0.4701 -1.4147
 9422TIP3    H228231   0.506   6.028   4.433 -0.7587 -0.3225  0.8371
 9423TIP3   OH228232   1.950   2.908   0.344 -0.3426 -0.0804  0.1302
 9423TIP3    H128233   1.925   2.874   0.258  1.0806  0.7321 -0.6428
 9423TIP3    H228234   1.897   2.986   0.355 -1.7506 -1.0878  0.7691
 9424TIP3   OH228235   3.137   3.555   2.230  0.1150  0.3393 -0.3269
 9424TIP3    H128236   3.064   3.514   2.276  1.1409 -2.8242 -1.1951
 9424TIP3    H228237   3.104   3.570   2.141  0.3128 -0.5258 -0.5540
 9425TIP3   OH228238   1.218   1.518   0.906  0.5235  0.2082 -0.3338
 9425TIP3    H128239   1.297   1.564   0.935  0.0716  0.0128  1.3314
 9425TIP3    H228240   1.201   1.454   0.975  0.6444 -1.9172 -2.1851
 9426TIP3   OH228241   6.664   2.013   1.161 -0.2237 -0.1556  0.0725
 9426TIP3    H128242   6.637   2.092   1.114 -1.0762  0.3340  1.3338
 9426TIP3    H228243   6.610   2.012   1.239  0.9459 -1.1095  0.9060
 9427TIP3   OH228244   5.302   0.407   3.786 -0.2510  0.2534  0.2813
 9427TIP3    H128245   5.366   0.361   3.839  1.6958  1.8332 -0.5722
 9427TIP3    H228246   5.295   0.354   3.706 -0.3382 -0.1522  0.5554
 9428TIP3   OH228247   5.185   5.201   0.920 -0.2292 -0.7261 -0.3093
 9428TIP3    H128248   5.279   5.197   0.933 -0.1641 -1.3610 -0.9541
 9428TIP3    H228249   5.152   5.243   1.000  0.6281 -0.1329 -0.2509
 9429TIP3   OH228250   3.804   5.219   3.695 -0.3628 -0.3551 -0.1282
 9429TIP3    H128251   3.809   5.285   3.626  0.9275  0.0254  0.3225
 9429TIP3    H228252   3.880   5.234   3.750 -0.7075 -1.4431  0.6918
 9430TIP3   OH228253   1.715   2.135   0.403  0.3851 -0.0215  0.1814
 9430TIP3    H128254   1.673   2.049   0.408  0.8708 -0.2098  1.2980
 9430TIP3    H228255   1.769   2.131   0.325 -0.0884 -0.5047 -0.1299
 9431TIP3   OH228256   5.121   3.269   5.271 -0.3094 -0.0444 -0.5751
 9431TIP3    H128257   5.093   3.178   5.278  0.3852 -0.3186 -1.2325
 9431TIP3    H228258   5.176   3.283   5.348  0.2174 -0.4189 -0.8798
 9432TIP3   OH228259   3.009   5.389   1.108 -0.7693 -0.0036 -0.1093
 9432TIP3    H128260   2.943   5.353   1.167 -1.0577  1.6556  0.6077
 9432TIP3    H228261   2.992   5.345   1.024 -1.3024 -1.2781  0.6387
 9433TIP3   OH228262   0.490   5.665   0.412  0.5826  0.9614 -0.5238
 9433TIP3    H128263   0.576   5.645   0.376  1.0049  1.3156  0.2681
 9433TIP3    H228264   0.508   5.719   0.490 -0.4323  3.2575 -1.7731
 9434TIP3   OH228265   1.595   2.290   2.005 -0.3480 -0.5285 -0.2873
 9434TIP3    H128266   1.644   2.208   1.998 -0.2833 -0.4446 -0.8628
 9434TIP3    H228267   1.568   2.294   2.097 -0.2991 -1.1644 -0.2383
 9435TIP3   OH228268   2.355   5.566   3.075 -0.2772 -0.3406 -0.1548
 9435TIP3    H128269   2.351   5.605   2.987  0.6452 -0.2709 -0.1792
 9435TIP3    H228270   2.313   5.481   3.065 -2.5254  0.6803 -0.0568
 9436TIP3   OH228271   3.361   3.723   4.655  0.2052  0.0464 -0.2078
 9436TIP3    H128272   3.305   3.646   4.668  0.0558  0.3263  0.9226
 9436TIP3    H228273   3.302   3.798   4.669  0.5355  0.3574 -0.4659
 9437TIP3   OH228274   1.045   6.697   3.031 -0.1726 -0.9007 -0.5902
 9437TIP3    H128275   1.057   6.627   3.095  0.1504 -0.0380  0.3341
 9437TIP3    H228276   1.111   6.680   2.963 -1.0298 -2.2529 -1.1052
 9438TIP3   OH228277   5.710   5.929   2.105  0.0536  0.9284  0.3683
 9438TIP3    H128278   5.635   5.935   2.164 -0.4731  1.3546 -0.3281
 9438TIP3    H228279   5.777   5.985   2.145 -0.0464  0.6648  0.9115
 9439TIP3   OH228280   4.983   3.987   1.719 -0.3042  0.0812  0.1755
 9439TIP3    H128281   4.898   3.947   1.700  0.5612 -0.8355 -2.1586
 9439TIP3    H228282   5.027   3.923   1.775 -0.7898  0.1521  0.6543
 9440TIP3   OH228283   6.033   2.020   2.478  0.7322  0.1272  0.0762
 9440TIP3    H128284   6.016   2.094   2.536 -0.5509  0.1318 -0.2717
 9440TIP3    H228285   5.997   2.046   2.394  2.4723  0.0726 -0.7415
 9441TIP3   OH228286   0.942   4.741   2.450  0.6826 -0.0056  0.1482
 9441TIP3    H128287   0.896   4.670   2.406  1.6364 -0.3656 -0.2985
 9441TIP3    H228288   0.956   4.709   2.540  3.5805 -1.6465 -0.7554
 9442TIP3   OH228289   4.202   0.192   2.160  0.1672 -0.7452  0.1916
 9442TIP3    H128290   4.176   0.115   2.110  1.9309 -1.1128 -0.2237
 9442TIP3    H228291   4.200   0.163   2.251 -0.9095 -0.7330  0.1792
 9443TIP3   OH228292   5.525   1.195   1.225  0.8175  0.3638  0.7405
 9443TIP3    H128293   5.619   1.208   1.233  0.9769  0.1054 -0.5261
 9443TIP3    H228294   5.488   1.242   1.299  2.0297 -0.9544  2.2507
 9444TIP3   OH228295   0.347   1.388   0.131  0.2392  0.5780 -0.4560
 9444TIP3    H128296   0.378   1.460   0.076 -1.4031  1.2874 -0.4987
 9444TIP3    H228297   0.253   1.402   0.139 -0.1772 -1.6887 -0.6467
 9445TIP3   OH228298   4.483   3.035   4.530 -0.2069  0.4191  0.0557
 9445TIP3    H128299   4.491   2.976   4.604 -1.0744  0.2077 -0.0131
 9445TIP3    H228300   4.430   3.108   4.562 -1.7076 -0.3041 -0.7151
 9446TIP3   OH228301   5.003   2.033   5.088  0.1832  0.2654 -0.0561
 9446TIP3    H128302   5.087   2.043   5.043 -0.1434 -0.2025 -0.8008
 9446TIP3    H228303   4.997   2.108   5.146  0.2594  1.3550 -1.4101
 9447TIP3   OH228304   3.854   3.734   3.820 -0.0165 -0.0998  0.3080
 9447TIP3    H128305   3.842   3.805   3.882  0.3315  0.4581 -0.2517
 9447TIP3    H228306   3.766   3.717   3.785 -0.4508 -1.2908  1.8544
 9448TIP3   OH228307   2.650   1.922   4.242 -0.0645 -0.4747 -0.0892
 9448TIP3    H128308   2.653   1.851   4.178  2.7719  0.4217 -1.1125
 9448TIP3    H228309   2.559   1.926   4.270 -0.6310 -3.4644 -1.1485
 9449TIP3   OH228310   7.109   5.022   5.703  0.3916  0.4151  0.7128
 9449TIP3    H128311   7.147   5.025   5.615  0.9165  1.0632  0.9556
 9449TIP3    H228312   7.110   5.113   5.733 -0.8284  0.3749  0.9547
 9450TIP3   OH228313   6.493   2.012   0.463 -0.2150 -0.0119  0.3216
 9450TIP3    H128314   6.414   2.015   0.516 -0.8446 -1.5687 -0.4687
 9450TIP3    H228315   6.522   1.921   0.468  1.5361  0.5162  0.5857
 9451TIP3   OH228316   2.329   5.284   2.509 -0.0168  0.0124  0.1367
 9451TIP3    H128317   2.401   5.312   2.564 -0.4841  1.7603 -0.1015
 9451TIP3    H228318   2.256   5.269   2.569  0.3192 -1.1033  0.2992
 9452TIP3   OH228319   4.274   2.556   4.085  0.1011 -0.6655 -0.0207
 9452TIP3    H128320   4.285   2.464   4.060 -3.4444 -0.9889 -0.9616
 9452TIP3    H228321   4.267   2.553   4.181  1.3000 -1.1617  0.0690
 9453TIP3   OH228322   5.611   0.439   5.672 -0.1071  0.4142 -0.0808
 9453TIP3    H128323   5.648   0.524   5.695 -0.6636  0.5316  0.4074
 9453TIP3    H228324   5.519   0.457   5.655  0.1520  0.2215 -1.8494
 9454TIP3   OH228325   1.826   6.051   0.219  0.0038 -0.0396  0.3424
 9454TIP3    H128326   1.740   6.039   0.260  0.5491 -1.0771  1.2228
 9454TIP3    H228327   1.808   6.049   0.125 -0.9073 -0.5502  0.5176
 9455TIP3   OH228328   1.938   6.096   5.461 -0.8481  0.4229 -0.1918
 9455TIP3    H128329   1.921   6.029   5.394  0.3233  0.6071 -0.6876
 9455TIP3    H228330   2.007   6.058   5.516 -1.8385  0.2455  0.9796
 9456TIP3   OH228331   3.600   4.431   0.004  0.0370  0.5067  0.2813
 9456TIP3    H128332   3.579   4.482   0.082  0.0572 -0.5098  0.9574
 9456TIP3    H228333   3.538   4.359   0.004 -0.4441  0.8932 -1.0551
 9457TIP3   OH228334   3.498   0.982   3.429 -0.2278 -0.5472 -0.1502
 9457TIP3    H128335   3.566   1.004   3.366  1.1509  0.3052  1.5581
 9457TIP3    H228336   3.544   0.933   3.497 -1.6895 -1.4978  0.2020
 9458TIP3   OH228337   0.252   4.238   1.702  0.1137 -0.3090 -0.0347
 9458TIP3    H128338   0.338   4.279   1.691 -0.3615  0.8300  0.3910
 9458TIP3    H228339   0.206   4.256   1.620 -0.3877  0.7477  0.4650
 9459TIP3   OH228340   2.968   2.495   1.393 -0.1175 -0.2887  0.1706
 9459TIP3    H128341   2.955   2.462   1.482  0.1075  1.3112  0.8325
 9459TIP3    H228342   3.056   2.534   1.395  0.9227 -2.3496 -1.4614
 9460TIP3   OH228343   1.670   4.073   1.005  0.7370 -0.4587  0.3684
 9460TIP3    H128344   1.735   4.133   0.968 -0.2140 -0.4325 -1.3642
 9460TIP3    H228345   1.623   4.038   0.929  0.8342 -2.9509  1.3462
 9461TIP3   OH228346   4.734   1.330   4.713 -0.2763 -0.0823  0.3220
 9461TIP3    H128347   4.695   1.245   4.695  1.0946 -0.9952  1.4633
 9461TIP3    H228348   4.817   1.310   4.757  0.5239  1.8214 -0.2065
 9462TIP3   OH228349   4.452   3.957   5.420  0.3242 -0.4558  0.1150
 9462TIP3    H128350   4.523   4.020   5.430 -0.1698  0.1992 -0.3904
 9462TIP3    H228351   4.413   3.951   5.507  1.5404 -1.5018  0.6179
 9463TIP3   OH228352   6.643   1.948   2.724  0.1648  0.1228 -0.2144
 9463TIP3    H128353   6.652   2.041   2.702 -0.4412  0.2946  0.2375
 9463TIP3    H228354   6.550   1.937   2.742  0.4431 -0.2483  1.1470
 9464TIP3   OH228355   1.424   4.354   3.042  0.3740 -0.2590 -0.2245
 9464TIP3    H128356   1.344   4.337   3.091  0.1643  0.0583 -0.4482
 9464TIP3    H228357   1.471   4.271   3.042 -0.9263 -1.0489 -1.8611
 9465TIP3   OH228358   3.291   4.768   4.776 -0.3555 -0.4349  0.7062
 9465TIP3    H128359   3.268   4.676   4.763 -0.1762 -0.1857 -1.8716
 9465TIP3    H228360   3.282   4.808   4.689  2.1144  1.3922  1.1614
 9466TIP3   OH228361   4.990   1.462   0.752  0.3912 -0.1105 -0.0508
 9466TIP3    H128362   4.938   1.492   0.826  1.1088  0.0757  0.3901
 9466TIP3    H228363   4.957   1.374   0.733  0.1862 -0.1517  0.4794
 9467TIP3   OH228364   5.220   1.655   3.612  0.4473  0.0120 -0.4902
 9467TIP3    H128365   5.268   1.682   3.534 -3.0881 -0.7759 -3.2081
 9467TIP3    H228366   5.240   1.562   3.622  1.2660  0.2166 -0.1030
 9468TIP3   OH228367   0.261   2.675   2.534 -0.2245  0.3087  0.0994
 9468TIP3    H128368   0.174   2.694   2.569 -0.1793  0.1966  0.2729
 9468TIP3    H228369   0.248   2.598   2.480 -0.0224 -0.3980  1.0324
 9469TIP3   OH228370   6.095   4.614   0.558 -0.1848  0.2517  0.2228
 9469TIP3    H128371   6.067   4.699   0.524 -0.3120 -0.0981 -0.5696
 9469TIP3    H228372   6.172   4.591   0.506 -0.8334 -0.6390 -0.3696
 9470TIP3   OH228373   1.284   2.034   3.907 -0.7406 -0.7270  0.5315
 9470TIP3    H128374   1.311   1.993   3.824 -1.9249  2.5175 -1.6741
 9470TIP3    H228375   1.360   2.086   3.933 -0.9327 -0.4768  0.5929
 9471TIP3   OH228376   2.173   0.428   0.498 -0.5685 -0.0397  0.6267
 9471TIP3    H128377   2.219   0.345   0.487 -1.0575 -0.3659  1.0051
 9471TIP3    H228378   2.211   0.485   0.431 -0.6302 -0.7373 -0.0190
 9472TIP3   OH228379   2.264   0.043   0.948  0.5593 -0.4314  0.5507
 9472TIP3    H128380   2.173   0.061   0.923  1.5646  1.1438 -2.5428
 9472TIP3    H228381   2.292   0.122   0.995  0.4447 -0.7910  1.2359
 9473TIP3   OH228382   3.737   3.402   1.112  0.2205 -0.2041 -0.2242
 9473TIP3    H128383   3.793   3.372   1.184 -0.2165  2.8363  1.5623
 9473TIP3    H228384   3.786   3.473   1.072 -0.0012 -1.1886 -2.3644
 9474TIP3   OH228385   4.120   1.321   2.176  0.1025 -0.5404 -0.1946
 9474TIP3    H128386   4.043   1.370   2.206  0.0095 -1.2726  0.7968
 9474TIP3    H228387   4.145   1.364   2.094 -0.3817  0.7442  0.3000
 9475TIP3   OH228388   5.455   0.956   0.366  0.1596  0.3809 -0.0529
 9475TIP3    H128389   5.505   0.998   0.296 -0.0233 -0.3391 -0.6340
 9475TIP3    H228390   5.491   0.992   0.447  0.5473  1.0413 -0.5119
 9476TIP3   OH228391   4.815   4.115   2.496  0.4930  0.0374 -0.4610
 9476TIP3    H128392   4.762   4.064   2.557  0.9402 -0.4335 -0.4554
 9476TIP3    H228393   4.759   4.188   2.470 -0.3270 -0.7039 -0.8186
 9477TIP3   OH228394   1.049   2.537   5.872 -0.6893 -0.0982  1.0493
 9477TIP3    H128395   0.998   2.540   5.791  0.5098 -0.0832  0.2616
 9477TIP3    H228396   1.045   2.445   5.899 -1.0336 -0.1196  0.9341
 9478TIP3   OH228397   2.339   1.204   5.312 -0.5351  0.5017  0.4355
 9478TIP3    H128398   2.377   1.248   5.388 -1.0628 -0.1535  1.0846
 9478TIP3    H228399   2.272   1.146   5.348  1.9117 -2.9546 -0.0943
 9479TIP3   OH228400   2.606   3.226   3.252 -0.3150 -0.2713  0.0766
 9479TIP3    H128401   2.598   3.306   3.200 -1.5839 -0.6846 -0.4078
 9479TIP3    H228402   2.547   3.163   3.209 -1.4810 -0.6023  2.0327
 9480TIP3   OH228403   6.044   5.445   2.101 -1.0750 -0.0317 -0.5344
 9480TIP3    H128404   6.018   5.538   2.105  0.6093  0.4744 -0.8895
 9480TIP3    H228405   6.139   5.447   2.091 -1.1313 -1.7912 -1.7844
 9481TIP3   OH228406   3.254   0.590   0.695 -0.3122  0.6723  0.5418
 9481TIP3    H128407   3.176   0.645   0.698 -0.7993  0.1208 -1.1395
 9481TIP3    H228408   3.260   0.560   0.604 -0.0669 -2.0563  1.3539
 9482TIP3   OH228409   5.252   5.408   2.637 -0.3183  0.5852 -0.5099
 9482TIP3    H128410   5.343   5.406   2.666 -0.3700  0.5710 -0.3480
 9482TIP3    H228411   5.221   5.496   2.660 -0.3254  0.6113 -0.6215
 9483TIP3   OH228412   4.171   3.939   2.600  0.2599 -0.0856 -0.2494
 9483TIP3    H128413   4.205   4.019   2.639  1.5344  0.1850 -1.8112
 9483TIP3    H228414   4.215   3.868   2.647  0.2547  0.1681  0.1375
 9484TIP3   OH228415   1.344   4.653   3.845  0.2896 -0.1724  0.0854
 9484TIP3    H128416   1.392   4.693   3.917  0.4722  1.5066 -0.9179
 9484TIP3    H228417   1.253   4.652   3.874  0.3998  0.2125  0.4590
 9485TIP3   OH228418   2.100   2.852   5.028 -0.0268  0.0697  0.2036
 9485TIP3    H128419   2.188   2.889   5.023  0.0113  0.8354  3.7163
 9485TIP3    H228420   2.112   2.769   5.075 -1.1604  0.1211  0.6018
 9486TIP3   OH228421   2.803   6.740   5.073 -0.0539  0.0666  0.2580
 9486TIP3    H128422   2.732   6.796   5.043 -1.0857 -0.1227  2.1503
 9486TIP3    H228423   2.873   6.752   5.009 -2.2351 -0.7718 -2.4718
 9487TIP3   OH228424   5.551   2.270   3.700  0.8795 -0.2154 -0.9069
 9487TIP3    H128425   5.569   2.332   3.630 -0.3016 -0.7316 -1.7002
 9487TIP3    H228426   5.457   2.252   3.693  0.6570  0.0208  1.0688
 9488TIP3   OH228427   0.291   0.520   5.091  0.5331  0.3708 -0.0537
 9488TIP3    H128428   0.328   0.442   5.132 -0.8987 -2.0031 -2.8660
 9488TIP3    H228429   0.204   0.528   5.130  0.0101 -0.5674 -0.9707
 9489TIP3   OH228430   2.188   6.780   4.517 -0.2304  0.3127  0.1873
 9489TIP3    H128431   2.166   6.739   4.601 -1.7219  0.1809 -0.2420
 9489TIP3    H228432   2.110   6.769   4.463  0.7802  0.1958 -1.3192
 9490TIP3   OH228433   0.649   4.384   3.513 -0.2736 -0.2738 -0.6499
 9490TIP3    H128434   0.711   4.334   3.566 -0.0011  1.0657  0.3629
 9490TIP3    H228435   0.699   4.462   3.485 -1.0391  0.0569 -1.1301
 9491TIP3   OH228436   2.634   4.904   1.356 -0.1662 -0.3096 -0.0076
 9491TIP3    H128437   2.715   4.948   1.380 -0.0777 -0.6290  0.2804
 9491TIP3    H228438   2.565   4.967   1.376 -0.0418 -0.3101  0.4131
 9492TIP3   OH228439   4.724   1.215   2.294 -0.0641  0.8956 -0.2253
 9492TIP3    H128440   4.650   1.154   2.303 -0.9346  1.7505 -1.3450
 9492TIP3    H228441   4.772   1.183   2.217  1.7175 -0.6048  1.3975
 9493TIP3   OH228442   2.284   6.227   2.992  0.0364  0.6170 -0.1752
 9493TIP3    H128443   2.375   6.200   2.994  0.0653  0.6747 -0.6536
 9493TIP3    H228444   2.286   6.319   2.969 -0.1516  0.5832 -0.3298
 9494TIP3   OH228445   6.126   5.803   5.359  0.4180  0.6995  0.0468
 9494TIP3    H128446   6.077   5.865   5.413 -0.5247 -0.2815  0.3401
 9494TIP3    H228447   6.151   5.854   5.282 -1.2954  1.1714 -0.2420
 9495TIP3   OH228448   0.453   2.086   2.702  0.3163 -0.6554 -0.2457
 9495TIP3    H128449   0.513   2.011   2.699  1.4999  0.2765 -0.6505
 9495TIP3    H228450   0.403   2.079   2.621  1.5851 -0.0948 -1.0991
 9496TIP3   OH228451   1.430   3.901   2.389 -0.1966 -0.5355  0.1112
 9496TIP3    H128452   1.505   3.886   2.446 -0.8138 -0.5664  0.9421
 9496TIP3    H228453   1.467   3.939   2.309  0.7892 -1.3934  0.1455
 9497TIP3   OH228454   2.664   5.527   2.844 -0.0232 -0.6552 -0.9877
 9497TIP3    H128455   2.715   5.535   2.763  2.1730  0.5652  0.3900
 9497TIP3    H228456   2.633   5.437   2.845  2.5283 -1.6279 -1.7502
 9498TIP3   OH228457   5.188   5.133   3.542 -0.1611 -0.5317 -0.4408
 9498TIP3    H128458   5.191   5.228   3.533 -1.0693 -0.3776  0.6251
 9498TIP3    H228459   5.208   5.099   3.455 -3.2148  0.6746 -1.7254
 9499TIP3   OH228460   2.513   3.873   4.363  0.0339  0.0373 -0.5468
 9499TIP3    H128461   2.433   3.867   4.311 -1.1645  3.0344  0.7726
 9499TIP3    H228462   2.483   3.877   4.454  1.6601  1.3482 -0.0205
 9500TIP3   OH228463   1.942   6.698   1.586 -0.0200 -0.3319  0.2014
 9500TIP3    H128464   1.973   6.693   1.677  0.0564  0.1820  0.2058
 9500TIP3    H228465   1.896   6.615   1.572 -0.7705 -0.0759  0.9898
 9501TIP3   OH228466   2.127   1.840   3.861 -0.3904 -0.1736  0.1706
 9501TIP3    H128467   2.217   1.860   3.887 -0.6232  0.9358  0.1571
 9501TIP3    H228468   2.082   1.821   3.944 -0.3685  0.1994  0.2684
 9502TIP3   OH228469   0.650   4.545   1.353 -0.0011  0.3506  0.7388
 9502TIP3    H128470   0.585   4.546   1.283 -2.8594 -0.0731  3.1847
 9502TIP3    H228471   0.684   4.456   1.355  1.7126  0.8789 -1.3388
 9503TIP3   OH228472   5.542   5.903   4.734 -0.1085 -0.2864  0.6996
 9503TIP3    H128473   5.471   5.960   4.706  1.5635  3.4278  3.2041
 9503TIP3    H228474   5.522   5.883   4.825  1.4151 -0.1721  1.0904
 9504TIP3   OH228475   4.370   5.349   3.583  0.0865  0.3544 -0.4733
 9504TIP3    H128476   4.419   5.275   3.548  0.0169  0.8957 -1.7444
 9504TIP3    H228477   4.414   5.369   3.666  0.3509 -0.8428 -0.3118
 9505TIP3   OH228478   2.039   4.407   4.808  0.2647  0.3183  0.1254
 9505TIP3    H128479   2.106   4.370   4.750  0.5133  0.0771  0.5617
 9505TIP3    H228480   2.049   4.359   4.890 -0.8546 -0.1298  0.0053
 9506TIP3   OH228481   4.444   3.769   3.045 -0.9033 -0.1446 -0.2362
 9506TIP3    H128482   4.517   3.748   3.103 -0.5370 -0.0133 -0.6473
 9506TIP3    H228483   4.440   3.696   2.983 -0.8905  0.0240 -0.4375
 9507TIP3   OH228484   2.156   4.901   4.508  0.0919  0.2019 -0.2178
 9507TIP3    H128485   2.185   4.810   4.496 -1.6386 -0.5428  0.8866
 9507TIP3    H228486   2.103   4.899   4.588 -1.2679  1.8734 -1.0173
 9508TIP3   OH228487   1.389   1.907   1.935 -0.4738  0.1216 -0.0752
 9508TIP3    H128488   1.359   1.857   1.859 -0.1972 -1.2235  0.6803
 9508TIP3    H228489   1.330   1.881   2.006  2.1279 -2.3713  1.3820
 9509TIP3   OH228490   2.625   3.491   3.668  0.0003  0.3517  0.4736
 9509TIP3    H128491   2.555   3.519   3.727 -0.7567  1.7670 -0.9961
 9509TIP3    H228492   2.593   3.409   3.630 -0.2585  0.3110  0.7788
 9510TIP3   OH228493   2.792   5.451   3.837  0.4210 -0.2031  0.2913
 9510TIP3    H128494   2.883   5.442   3.863  0.2153 -0.4556  0.9478
 9510TIP3    H228495   2.781   5.545   3.823  0.7327 -0.1470  0.4109
 9511TIP3   OH228496   3.383   6.726   5.324  0.2214  0.1748 -0.0263
 9511TIP3    H128497   3.405   6.752   5.413 -0.9213  1.3913 -0.0764
 9511TIP3    H228498   3.463   6.742   5.274  1.3879 -1.9438  0.9948
 9512TIP3   OH228499   5.392   6.566   0.400 -0.6257 -0.0970 -0.0221
 9512TIP3    H128500   5.428   6.608   0.323 -0.4863  2.2172  1.2278
 9512TIP3    H228501   5.467   6.555   0.459 -1.0777  0.0864  0.5956
 9513TIP3   OH228502   6.008   4.379   3.007 -0.7000 -0.4846 -0.4203
 9513TIP3    H128503   5.942   4.400   3.073  0.0121  2.3823 -0.4818
 9513TIP3    H228504   5.961   4.330   2.940 -2.2014 -0.5470  0.6427
 9514TIP3   OH228505   0.867   0.302   1.076 -0.0499 -0.2026 -0.4250
 9514TIP3    H128506   0.917   0.332   1.000  0.8840 -0.6052  0.0049
 9514TIP3    H228507   0.932   0.297   1.147 -1.0721  1.0945  0.6653
 9515TIP3   OH228508   5.896   1.922   3.322 -0.3162 -0.7117  0.7502
 9515TIP3    H128509   5.926   1.831   3.330  1.2163 -0.2612  0.4227
 9515TIP3    H228510   5.977   1.973   3.317 -1.1427  0.5080 -1.0301
 9516TIP3   OH228511   0.558   1.481   5.359  0.5060 -0.0626  0.4038
 9516TIP3    H128512   0.511   1.562   5.377  1.0523  0.5759 -0.8821
 9516TIP3    H228513   0.509   1.413   5.406 -1.0224  0.7336  0.0158
 9517TIP3   OH228514   5.783   2.208   5.075 -0.4445 -0.2343 -0.2998
 9517TIP3    H128515   5.755   2.282   5.021  0.2342 -0.9889 -1.7561
 9517TIP3    H228516   5.717   2.201   5.144 -1.2144  0.9185 -0.8946
 9518TIP3   OH228517   6.078   1.416   2.573  0.4738  0.6918 -0.1288
 9518TIP3    H128518   6.042   1.364   2.502 -0.2956  0.4485  0.4262
 9518TIP3    H228519   6.154   1.460   2.535  0.1690  0.4379 -1.0493
 9519TIP3   OH228520   2.813   4.236   0.561  0.5423  0.6436 -0.5756
 9519TIP3    H128521   2.803   4.279   0.646 -2.4399  0.9386 -0.9507
 9519TIP3    H228522   2.736   4.179   0.555  0.1139  1.3834 -3.4676
 9520TIP3   OH228523   4.820   0.604   2.860  0.6756  0.3337  0.3662
 9520TIP3    H128524   4.878   0.613   2.936  2.5570  0.0047 -0.9421
 9520TIP3    H228525   4.798   0.693   2.835  0.9010  0.4772  0.6799
 9521TIP3   OH228526   1.106   6.499   5.548 -0.3675  0.0716 -0.0216
 9521TIP3    H128527   1.078   6.485   5.457  0.1774  0.6912 -0.2976
 9521TIP3    H228528   1.106   6.595   5.558  0.1910  0.0279  0.4325
 9522TIP3   OH228529   5.143   6.181   5.867 -0.5111 -0.2101 -0.3067
 9522TIP3    H128530   5.105   6.257   5.824 -0.8214 -0.3588 -0.2981
 9522TIP3    H228531   5.225   6.214   5.906 -0.9699  0.2802  0.2688
 9523TIP3   OH228532  -0.001   4.280   3.482  0.1529  0.8952 -0.1298
 9523TIP3    H128533   0.078   4.229   3.465 -0.3215  0.2511 -0.4870
 9523TIP3    H228534  -0.045   4.233   3.554  0.1729  1.3362  0.1730
 9524TIP3   OH228535   5.950   4.157   3.261  0.1807 -0.0298  0.9313
 9524TIP3    H128536   6.015   4.134   3.193 -1.3022 -2.3020  0.1468
 9524TIP3    H228537   5.995   4.138   3.343  0.9977 -0.2034  0.4664
 9525TIP3   OH228538   2.156   4.141   2.280 -0.3307 -0.3542 -0.0012
 9525TIP3    H128539   2.089   4.135   2.211  0.5818 -2.0023 -0.8043
 9525TIP3    H228540   2.145   4.229   2.316 -2.4717 -0.3189 -0.5624
 9526TIP3   OH228541   2.679   2.451   4.604 -0.2350  0.2993 -0.0385
 9526TIP3    H128542   2.603   2.450   4.662 -0.7872  1.5197 -0.7026
 9526TIP3    H228543   2.719   2.537   4.620  0.2462  0.1980 -0.6731
 9527TIP3   OH228544   4.850   4.986   2.056 -0.1740  0.5191  0.1525
 9527TIP3    H128545   4.796   4.913   2.086  2.6085 -1.6653  0.3081
 9527TIP3    H228546   4.893   4.953   1.977  0.5690  2.3063 -0.2384
 9528TIP3   OH228547   3.206   2.617   1.310  0.2168 -0.0360 -0.1047
 9528TIP3    H128548   3.292   2.657   1.311  0.6025 -0.7913 -1.2825
 9528TIP3    H228549   3.178   2.621   1.218 -1.1095  0.4124  0.2869
 9529TIP3   OH228550   3.696   5.177   0.093  0.0495 -0.2522  0.1340
 9529TIP3    H128551   3.706   5.188  -0.001 -1.1004 -1.9393 -0.2226
 9529TIP3    H228552   3.646   5.254   0.121 -0.1228 -0.0371 -0.7298
 9530TIP3   OH228553   1.090   5.136   5.816 -0.1567 -0.0731 -0.0721
 9530TIP3    H128554   1.166   5.172   5.769 -1.5716  1.1636 -1.5426
 9530TIP3    H228555   1.098   5.042   5.806 -0.5915  0.1057 -3.3386
 9531TIP3   OH228556   2.382   2.003   5.818  0.1422  0.1888 -0.5498
 9531TIP3    H128557   2.314   1.969   5.876  0.3718  1.1117  0.2788
 9531TIP3    H228558   2.440   1.929   5.803 -0.1138 -0.1527  0.1121
 9532TIP3   OH228559   5.168   3.895   3.602 -0.5863  0.6161  0.5514
 9532TIP3    H128560   5.191   3.986   3.619 -1.3558  0.6324  1.6017
 9532TIP3    H228561   5.178   3.851   3.686  0.9901 -0.5684 -0.2049
 9533TIP3   OH228562   1.906   0.226   4.071  0.3371  0.4989  0.3009
 9533TIP3    H128563   1.942   0.301   4.023 -1.5886  1.4443  0.2116
 9533TIP3    H228564   1.982   0.179   4.103  1.6625  0.9136 -2.0326
 9534TIP3   OH228565   4.232   4.759   4.003 -0.0460 -0.0562 -0.2190
 9534TIP3    H128566   4.244   4.722   4.091 -1.1834  0.2983  0.1035
 9534TIP3    H228567   4.142   4.736   3.980  0.4792 -0.7828 -1.6147
 9535TIP3   OH228568   4.969   0.474   2.647 -0.0076 -0.2207 -0.1488
 9535TIP3    H128569   4.913   0.507   2.717 -0.5771  1.5015 -1.3607
 9535TIP3    H228570   4.987   0.383   2.672 -0.4485  0.2429  2.0418
 9536TIP3   OH228571   5.169   1.404   2.712 -0.7236  0.0585 -0.5606
 9536TIP3    H128572   5.233   1.372   2.776 -0.3604 -0.0810 -0.9898
 9536TIP3    H228573   5.178   1.499   2.716 -0.5616  0.0436 -0.5449
 9537TIP3   OH228574   6.946   3.369   5.029 -0.0784  0.6285 -0.1217
 9537TIP3    H128575   6.908   3.285   5.051  1.2796 -0.2048 -0.8042
 9537TIP3    H228576   6.945   3.419   5.111  0.9324 -0.7919  0.7940
 9538TIP3   OH228577   4.815   0.304   3.092  0.8437 -0.3949  0.3081
 9538TIP3    H128578   4.809   0.263   3.178  2.4823  0.2855  0.7896
 9538TIP3    H228579   4.803   0.232   3.030 -1.4433 -0.7272  1.0279
 9539TIP3   OH228580   5.341   2.154   1.880 -0.5922  0.1310  0.3408
 9539TIP3    H128581   5.407   2.085   1.882 -1.8706 -1.1372 -0.0688
 9539TIP3    H228582   5.304   2.154   1.968  0.5469  1.4889  0.8639
 9540TIP3   OH228583   2.869   4.943   1.064  0.0822 -0.0517 -0.1673
 9540TIP3    H128584   2.877   4.984   0.978  0.0476  1.0178  0.3312
 9540TIP3    H228585   2.932   4.871   1.062 -0.3353 -0.4181 -1.2937
 9541TIP3   OH228586   1.512   6.443   3.028 -0.5100  0.0587  0.0279
 9541TIP3    H128587   1.422   6.421   3.004 -0.4091 -0.2057 -0.1122
 9541TIP3    H228588   1.559   6.447   2.945  0.1592 -2.2702  0.2291
 9542TIP3   OH228589   2.389   2.672   5.309 -0.1568  0.3984  0.2609
 9542TIP3    H128590   2.346   2.737   5.253  1.5078  0.9597 -0.4230
 9542TIP3    H228591   2.470   2.651   5.263  0.4327 -0.4297  1.6309
 9543TIP3   OH228592   6.101   2.625   4.394  0.1740 -0.2202  0.1772
 9543TIP3    H128593   6.128   2.561   4.459  0.6356 -0.2215 -0.0111
 9543TIP3    H228594   6.016   2.657   4.425  0.3655 -0.2576  0.7502
 9544TIP3   OH228595   0.164   6.235   4.569 -0.2315  0.0201  0.3895
 9544TIP3    H128596   0.196   6.197   4.651 -0.7659 -0.8222  0.2255
 9544TIP3    H228597   0.155   6.160   4.511  0.3815  0.6415 -0.5331
 9545TIP3   OH228598   6.815   6.164   5.459 -0.4972  0.3795  0.3033
 9545TIP3    H128599   6.797   6.255   5.434 -0.0198  0.0812 -1.2070
 9545TIP3    H228600   6.740   6.139   5.512 -0.2941  1.8820  1.3763
 9546TIP3   OH228601   1.372   4.437   4.060 -0.9450  0.2651 -0.0432
 9546TIP3    H128602   1.463   4.425   4.085 -0.8756  0.6350 -0.1083
 9546TIP3    H228603   1.351   4.527   4.087 -0.9592  0.5650 -1.0067
 9547TIP3   OH228604   0.268   6.725   5.348  0.8011  0.1020 -0.3721
 9547TIP3    H128605   0.304   6.728   5.437 -1.4687 -0.5180  0.6461
 9547TIP3    H228606   0.236   6.635   5.338 -0.9162  0.7186 -0.9506
 9548TIP3   OH228607   4.971   5.457   1.716 -0.0251 -0.6432  0.4247
 9548TIP3    H128608   5.037   5.416   1.660  0.5444 -1.3465  1.5605
 9548TIP3    H228609   4.962   5.396   1.790 -2.8772 -1.2056 -0.2851
 9549TIP3   OH228610   4.703   1.817   2.268 -0.0366  0.3422 -0.1228
 9549TIP3    H128611   4.650   1.759   2.323  0.8855  0.6094  1.0866
 9549TIP3    H228612   4.785   1.771   2.255  0.7870  1.4137  1.0258
 9550TIP3   OH228613   7.055   6.102   4.225  0.1922  0.4191  0.6954
 9550TIP3    H128614   7.116   6.175   4.213 -0.2487  0.5267 -1.2075
 9550TIP3    H228615   7.048   6.092   4.320  1.0284  2.1950  0.9834
 9551TIP3   OH228616   4.403   2.758   3.509 -0.0485  0.8545  0.2793
 9551TIP3    H128617   4.471   2.825   3.514 -0.0739  0.9045  0.0076
 9551TIP3    H228618   4.342   2.779   3.579 -1.0471  2.2248 -0.9289
 9552TIP3   OH228619   1.120   6.318   0.517  0.2074  0.5983 -0.2780
 9552TIP3    H128620   1.200   6.271   0.537 -0.2912  0.2398  0.9809
 9552TIP3    H228621   1.128   6.343   0.425  0.2715 -2.3926 -1.1634
 9553TIP3   OH228622   6.061   1.873   0.732 -0.1496 -0.4246 -0.1257
 9553TIP3    H128623   5.994   1.916   0.678  0.0356  0.0130 -0.0174
 9553TIP3    H228624   6.018   1.861   0.817  0.7265  2.3380  0.8169
 9554TIP3   OH228625   5.470   4.221   3.819 -0.5208  0.2563 -0.5311
 9554TIP3    H128626   5.481   4.223   3.914  2.2963 -0.9997 -0.7343
 9554TIP3    H228627   5.545   4.272   3.785 -1.3146  0.4581 -2.0859
 9555TIP3   OH228628   6.702   4.741   1.004 -0.1489  0.6540  0.5638
 9555TIP3    H128629   6.658   4.795   0.939  0.9301  0.4714 -0.3589
 9555TIP3    H228630   6.775   4.702   0.956 -0.1993 -0.6653  1.5115
 9556TIP3   OH228631   4.577   0.700   4.450 -0.2531  0.1739 -0.4816
 9556TIP3    H128632   4.555   0.608   4.460 -0.6831  0.3933  0.9391
 9556TIP3    H228633   4.656   0.711   4.503  1.1642  0.1804 -2.4824
 9557TIP3   OH228634   6.462   4.279   1.433 -0.2669  0.2096 -0.0187
 9557TIP3    H128635   6.546   4.283   1.478 -1.0190 -1.0556  1.6115
 9557TIP3    H228636   6.478   4.319   1.348  1.7578  0.7634  0.5779
 9558TIP3   OH228637   3.018   6.321   0.480 -0.0949 -0.6324  0.4393
 9558TIP3    H128638   3.087   6.307   0.545  0.4843 -0.3813 -0.1155
 9558TIP3    H228639   3.062   6.315   0.396 -0.6790 -0.0966  0.0850
 9559TIP3   OH228640   3.406   0.064   0.333 -0.0714 -0.3546  0.4213
 9559TIP3    H128641   3.423  -0.030   0.335 -0.4765 -0.4543 -0.5710
 9559TIP3    H228642   3.493   0.104   0.329  0.1595 -0.6239  1.8585
 9560TIP3   OH228643   4.349   2.373   1.640 -0.5159 -0.3491 -0.6210
 9560TIP3    H128644   4.402   2.351   1.563 -0.6918  1.4801 -1.3201
 9560TIP3    H228645   4.290   2.442   1.609 -0.4931  0.5307  1.1961
 9561TIP3   OH228646   5.488   6.005   5.776  0.3729 -0.1036  0.8338
 9561TIP3    H128647   5.493   5.981   5.869 -0.7282  0.2054  0.9788
 9561TIP3    H228648   5.471   5.922   5.732  0.5749 -0.2000  0.9330
 9562TIP3   OH228649   0.773   6.404   4.302 -0.3002 -0.5606 -0.3432
 9562TIP3    H128650   0.747   6.314   4.282 -0.1152 -0.1773 -2.7024
 9562TIP3    H228651   0.868   6.403   4.301 -0.2872 -0.4599  0.3409
 9563TIP3   OH228652   1.754   1.448   4.911 -0.0128 -0.9787  0.2694
 9563TIP3    H128653   1.804   1.390   4.968 -0.5210 -0.7364  0.9660
 9563TIP3    H228654   1.685   1.393   4.875  0.1132 -1.0519  0.1380
 9564TIP3   OH228655   5.024   6.124   0.787 -0.1420 -0.3717 -0.1780
 9564TIP3    H128656   5.011   6.121   0.882  1.4896  1.1571  0.1495
 9564TIP3    H228657   5.110   6.084   0.774 -0.6176 -1.1176 -1.0967
 9565TIP3   OH228658   2.224   3.094   2.421 -0.0428 -0.1057  0.7802
 9565TIP3    H128659   2.261   3.130   2.340 -1.0835 -2.1713 -0.7011
 9565TIP3    H228660   2.244   3.001   2.418 -0.4555 -0.3089  2.7317
 9566TIP3   OH228661   2.562   5.237   1.018 -0.4917  0.0523 -0.2398
 9566TIP3    H128662   2.591   5.313   0.968 -1.2900  0.5683  0.0530
 9566TIP3    H228663   2.524   5.178   0.953  1.2380 -0.6708 -0.6372
 9567TIP3   OH228664   2.411   4.105   1.121  0.0965 -0.0239  0.0962
 9567TIP3    H128665   2.358   4.027   1.107 -1.8117  1.1652  0.2769
 9567TIP3    H228666   2.411   4.118   1.215  0.1219  0.3552  0.0462
 9568TIP3   OH228667   6.891   6.432   2.623  0.4684  0.4882 -0.0246
 9568TIP3    H128668   6.900   6.474   2.709  1.6554  1.0358 -0.3917
 9568TIP3    H228669   6.913   6.502   2.561  0.5778 -0.1709 -0.7308
 9569TIP3   OH228670   0.601   0.692   4.254  0.6651  0.1567  0.6504
 9569TIP3    H128671   0.521   0.693   4.305  0.2013 -0.0745 -0.0486
 9569TIP3    H228672   0.620   0.599   4.241 -0.0553  0.1750 -0.8257
 9570TIP3   OH228673   4.110   3.928   3.741  0.2611 -0.1644 -0.0992
 9570TIP3    H128674   4.032   3.874   3.725 -0.0518  0.0874  0.5270
 9570TIP3    H228675   4.183   3.867   3.735 -0.0928 -0.6813  0.6927
 9571TIP3   OH228676   1.112   5.418   1.885 -0.5204  0.2807  0.2385
 9571TIP3    H128677   1.137   5.369   1.964 -3.0245  1.0481  1.6288
 9571TIP3    H228678   1.020   5.441   1.899 -1.1613  0.2708 -3.0463
 9572TIP3   OH228679   4.302   2.377   3.676  0.1178  0.1070 -0.2353
 9572TIP3    H128680   4.336   2.411   3.759  1.6797  0.5488 -1.0200
 9572TIP3    H228681   4.207   2.381   3.685  0.2622  0.4146  1.4172
 9573TIP3   OH228682   5.376   6.064   5.160  0.3370  0.2503  0.4542
 9573TIP3    H128683   5.345   6.048   5.249 -2.2660  2.0797 -0.0195
 9573TIP3    H228684   5.416   5.981   5.133  0.8727 -0.4508  3.1618
 9574TIP3   OH228685   4.372   6.544   5.171  0.0856  0.1476  0.2444
 9574TIP3    H128686   4.323   6.536   5.253 -0.6821  0.0360 -0.2096
 9574TIP3    H228687   4.365   6.457   5.131 -0.7695  0.5819 -0.5917
 9575TIP3   OH228688   6.001   4.928   0.926  1.0723  0.3536  0.0155
 9575TIP3    H128689   5.969   4.978   1.001 -0.7163  0.0568 -0.4931
 9575TIP3    H228690   6.047   4.853   0.964 -0.0121  0.0749  0.8427
 9576TIP3   OH228691   5.028   3.958   2.795 -0.0320  0.3456 -0.3890
 9576TIP3    H128692   5.001   4.038   2.841  2.7415  0.6694  0.9386
 9576TIP3    H228693   5.109   3.983   2.750  0.9917 -1.7208  0.1683
 9577TIP3   OH228694   4.639   3.560   1.783 -0.5581 -0.1041 -0.4953
 9577TIP3    H128695   4.732   3.538   1.780 -0.7418 -1.2256  0.9857
 9577TIP3    H228696   4.636   3.645   1.826 -0.2875 -0.7359  0.8056
 9578TIP3   OH228697   1.841   0.365   2.568  0.4463 -0.4661 -0.1941
 9578TIP3    H128698   1.894   0.374   2.647  0.9594 -1.5968 -0.3983
 9578TIP3    H228699   1.757   0.331   2.599  0.3511 -0.0955 -0.0417
 9579TIP3   OH228700   1.154   6.545   1.127 -0.0613  0.4077  0.3874
 9579TIP3    H128701   1.207   6.468   1.108  0.7379  0.9730  0.2754
 9579TIP3    H228702   1.144   6.544   1.222 -1.9420 -1.0437  0.2183
 9580TIP3   OH228703   5.075   4.691   2.284 -0.0324  0.3700  0.3688
 9580TIP3    H128704   5.002   4.630   2.272 -1.5689  1.3328  3.5881
 9580TIP3    H228705   5.140   4.642   2.334  0.1172  0.4167  0.2188
 9581TIP3   OH228706   0.127   3.669   0.953  0.0439  0.3811 -0.3372
 9581TIP3    H128707   0.081   3.713   0.882  1.7018  0.0347 -1.7215
 9581TIP3    H228708   0.162   3.589   0.912  0.9617  0.1193  0.8946
 9582TIP3   OH228709   5.657   0.365   4.469 -0.5792  0.1809  0.2174
 9582TIP3    H128710   5.683   0.442   4.520 -0.3108  0.2518 -0.0208
 9582TIP3    H228711   5.716   0.366   4.394  0.1855 -0.9181  0.7940
 9583TIP3   OH228712   2.730   3.536   3.406  0.1325 -0.3817 -0.0227
 9583TIP3    H128713   2.649   3.554   3.357  0.7978 -0.7108 -1.2868
 9583TIP3    H228714   2.699   3.507   3.492 -1.0671  0.5919 -0.0853
 9584TIP3   OH228715   5.062   0.223   4.217  0.2634  0.2164  0.0221
 9584TIP3    H128716   5.081   0.283   4.290  0.4820  0.2505 -0.0598
 9584TIP3    H228717   5.063   0.136   4.256  2.1922  0.0712 -0.2524
 9585TIP3   OH228718   5.398   3.376   5.470 -0.0700 -0.2607  0.1082
 9585TIP3    H128719   5.476   3.368   5.525 -0.0159  0.5450  0.1514
 9585TIP3    H228720   5.423   3.441   5.404  0.3701 -2.1856 -1.7277
 9586TIP3   OH228721   6.463   0.946   1.482 -0.1877 -0.0782  0.5924
 9586TIP3    H128722   6.443   1.032   1.519 -0.3218 -0.0318  0.4165
 9586TIP3    H228723   6.483   0.891   1.557 -2.8503 -0.6385  0.9983
 9587TIP3   OH228724   4.732   1.785   3.195 -0.4916  0.8343  0.0214
 9587TIP3    H128725   4.690   1.699   3.190  1.5459 -0.3496  1.8378
 9587TIP3    H228726   4.665   1.846   3.162 -2.4913 -1.2586 -0.0425
 9588TIP3   OH228727   6.243   6.563   3.842  0.4818  0.0545 -0.2548
 9588TIP3    H128728   6.300   6.640   3.851  2.4825 -1.1652 -1.7264
 9588TIP3    H228729   6.195   6.560   3.924  0.6492  2.6189  0.0346
 9589TIP3   OH228730   2.154   6.221   3.746  0.4853  0.8693  0.3463
 9589TIP3    H128731   2.160   6.272   3.664  0.5185  1.8252  0.9234
 9589TIP3    H228732   2.244   6.223   3.780  0.7977 -0.7652 -0.2967
 9590TIP3   OH228733   3.615   6.144   4.896  0.0370 -0.2824  0.4519
 9590TIP3    H128734   3.525   6.129   4.926 -0.1951 -2.0722 -0.9602
 9590TIP3    H228735   3.656   6.058   4.900  1.2992  0.2640 -0.1498
 9591TIP3   OH228736   6.886   1.623   5.331  0.1700 -0.5925 -0.4607
 9591TIP3    H128737   6.841   1.600   5.250  1.0316 -0.5006 -0.9750
 9591TIP3    H228738   6.954   1.686   5.305  2.2343 -2.5401 -0.1469
 9592TIP3   OH228739   3.967   5.751   1.775 -0.5080  1.0817  0.1733
 9592TIP3    H128740   3.895   5.756   1.838 -1.2852 -1.5117 -0.3810
 9592TIP3    H228741   4.041   5.717   1.825 -0.5266  0.9865  0.1367
 9593TIP3   OH228742   1.188   3.373   1.926 -0.4055 -0.2312 -0.2775
 9593TIP3    H128743   1.093   3.367   1.936 -0.2958 -3.9252 -0.0031
 9593TIP3    H228744   1.222   3.355   2.014  0.5156 -1.3188 -0.8347
 9594TIP3   OH228745   1.179   5.782   1.018  0.2761 -0.0206 -0.1392
 9594TIP3    H128746   1.176   5.870   0.982  0.2728 -0.4235 -1.1444
 9594TIP3    H228747   1.137   5.727   0.952 -0.7816 -0.6167  0.9962
 9595TIP3   OH228748   5.456   5.683   3.503 -0.2439  0.2344  0.8705
 9595TIP3    H128749   5.452   5.674   3.598  0.3701 -2.0676  0.7344
 9595TIP3    H228750   5.477   5.595   3.471 -0.6381  0.9008 -1.4173
 9596TIP3   OH228751   0.497   6.662   4.691  0.0256 -0.8439  0.0318
 9596TIP3    H128752   0.558   6.720   4.737 -0.4189 -0.2013 -0.1785
 9596TIP3    H228753   0.541   6.641   4.608 -1.2558  2.1208 -1.5547
 9597TIP3   OH228754   5.630   4.840   2.163  0.0814  0.0711  0.4763
 9597TIP3    H128755   5.564   4.811   2.225 -0.4916 -1.3520 -0.7352
 9597TIP3    H228756   5.708   4.790   2.185 -0.1298 -0.4542  0.0522
 9598TIP3   OH228757   6.107   2.572   4.915  0.4668  0.5580 -0.1038
 9598TIP3    H128758   6.014   2.585   4.931  0.7472  2.3394  0.2675
 9598TIP3    H228759   6.116   2.478   4.898 -1.4569  0.4515 -0.6833
 9599TIP3   OH228760   6.484   1.913   1.806 -0.0224 -0.1201 -0.0563
 9599TIP3    H128761   6.417   1.970   1.844 -0.7787 -0.4802 -0.8248
 9599TIP3    H228762   6.566   1.943   1.846 -0.7326 -0.2520  1.5982
 9600TIP3   OH228763   1.550   2.606   5.486 -0.4161 -0.2252  0.3547
 9600TIP3    H128764   1.573   2.562   5.404  0.1276  0.3287  0.2053
 9600TIP3    H228765   1.574   2.544   5.554  0.7330 -0.0076  0.1655
 9601TIP3   OH228766   3.011   0.053   1.998 -0.0518 -0.4636 -0.6446
 9601TIP3    H128767   2.958   0.131   2.007  1.3291  0.6658 -1.7829
 9601TIP3    H228768   3.101   0.085   1.989  0.4453 -2.0838 -2.2444
 9602TIP3   OH228769   6.049   3.616   0.409 -0.1124  0.0825 -0.3695
 9602TIP3    H128770   6.033   3.522   0.417  0.3758  0.0969  0.9159
 9602TIP3    H228771   6.014   3.654   0.490  0.3324  0.9207 -0.5541
 9603TIP3   OH228772   3.366   3.164   3.106  0.1742  0.3610  0.1965
 9603TIP3    H128773   3.277   3.183   3.078 -0.0215 -0.1231  0.4793
 9603TIP3    H228774   3.402   3.107   3.038  1.2622  2.8108 -1.4272
 9604TIP3   OH228775   5.174   3.705   0.441  0.1019  0.0158 -0.0572
 9604TIP3    H128776   5.094   3.757   0.441 -0.4838 -0.8647  0.1943
 9604TIP3    H228777   5.176   3.664   0.354  0.5125  0.3692 -0.2208
 9605TIP3   OH228778   2.350   1.496   3.016 -0.2917 -0.3639  0.1790
 9605TIP3    H128779   2.385   1.571   2.968  0.3898  0.5510  1.9940
 9605TIP3    H228780   2.284   1.458   2.958 -0.6361  1.6245 -0.8052
 9606TIP3   OH228781   6.699   6.017   3.167  0.2351  0.0684 -0.5888
 9606TIP3    H128782   6.694   5.955   3.094 -0.0854 -0.4138 -0.1706
 9606TIP3    H228783   6.751   5.971   3.233  0.8021  0.6320 -0.6301
 9607TIP3   OH228784   5.773   4.919   4.497 -0.1768 -0.2006  0.4692
 9607TIP3    H128785   5.859   4.929   4.454 -0.6288 -1.6919 -0.9042
 9607TIP3    H228786   5.781   4.838   4.547 -0.5366  0.0818  0.9836
 9608TIP3   OH228787   3.592   3.476   0.772  0.3618  0.1846 -0.5262
 9608TIP3    H128788   3.655   3.423   0.821  0.1273  0.4978  0.1340
 9608TIP3    H228789   3.642   3.552   0.744  0.3337  0.3432 -0.1609
 9609TIP3   OH228790   3.970   4.378   0.549  0.3036 -0.0638 -1.0510
 9609TIP3    H128791   3.937   4.368   0.639 -0.3019  3.1054 -0.8010
 9609TIP3    H228792   4.057   4.415   0.559 -0.0912  1.1149 -1.7190
 9610TIP3   OH228793   0.068   4.089   0.659 -0.0751  0.0986  0.0967
 9610TIP3    H128794   0.024   4.152   0.602 -1.6577  0.4435  1.6276
 9610TIP3    H228795   0.036   4.003   0.630  0.5229  0.1195 -0.6695
 9611TIP3   OH228796   2.696   1.857   3.711  0.1853  0.2136 -0.0863
 9611TIP3    H128797   2.777   1.844   3.663  0.0255  0.5984 -0.4701
 9611TIP3    H228798   2.719   1.917   3.782  0.4459 -0.4435  0.3919
 9612TIP3   OH228799   1.049   1.592   2.770 -0.1080 -0.2776  0.2507
 9612TIP3    H128800   1.070   1.545   2.688 -0.7719 -1.5494  0.7806
 9612TIP3    H228801   0.956   1.576   2.783 -0.4197  1.4744  0.3069
 9613TIP3   OH228802   7.195   2.716   4.856 -0.1330 -0.1367 -0.1080
 9613TIP3    H128803   7.269   2.768   4.823 -0.1456  0.8235  1.2582
 9613TIP3    H228804   7.121   2.743   4.802  0.0592  0.6141 -0.0125
 9614TIP3   OH228805   1.465   2.713   3.522  0.8990  0.2528 -0.0470
 9614TIP3    H128806   1.473   2.808   3.509 -0.1471  0.2880 -0.5044
 9614TIP3    H228807   1.394   2.687   3.464 -1.3442 -0.2223  2.7330
 9615TIP3   OH228808   0.050   5.638   2.311  0.0322 -0.4922  0.1242
 9615TIP3    H128809   0.029   5.548   2.285 -1.4066 -0.1964  0.1960
 9615TIP3    H228810   0.002   5.693   2.249 -0.5702  0.2227  1.1893
 9616TIP3   OH228811   6.780   1.483   3.525 -0.2289 -0.3899 -0.4367
 9616TIP3    H128812   6.804   1.574   3.507  0.7241 -0.4060  0.6415
 9616TIP3    H228813   6.728   1.488   3.605  0.9959 -0.8895  0.4286
 9617TIP3   OH228814   1.484   6.485   1.087 -0.3286 -0.4532  0.0390
 9617TIP3    H128815   1.442   6.401   1.101 -1.5714  0.1299 -0.0157
 9617TIP3    H228816   1.550   6.469   1.020  0.1961 -1.5922  0.8013
 9618TIP3   OH228817   0.608   4.112   0.662  0.1099  0.4786  0.2283
 9618TIP3    H128818   0.571   4.198   0.684 -0.0738  0.1854  1.1403
 9618TIP3    H228819   0.533   4.057   0.642 -0.0172 -0.1565  2.2183
 9619TIP3   OH228820   6.240   2.405   1.104 -0.2505 -0.3190  0.0351
 9619TIP3    H128821   6.225   2.495   1.134  0.6281 -0.3163  0.5046
 9619TIP3    H228822   6.291   2.365   1.174 -0.5541 -1.1625 -0.2173
 9620TIP3   OH228823   3.977   5.788   0.237 -0.0641  0.0931 -0.1369
 9620TIP3    H128824   4.036   5.863   0.237 -0.7340  0.6584  1.2709
 9620TIP3    H228825   3.893   5.823   0.267 -0.4244 -1.1790  0.4244
 9621TIP3   OH228826   3.966   5.652   3.156 -0.1554 -0.6241  0.0404
 9621TIP3    H128827   4.038   5.608   3.202  0.9374  1.1606  0.1135
 9621TIP3    H228828   3.887   5.614   3.194  0.5615 -5.0077 -2.2328
 9622TIP3   OH228829   2.535   1.533   0.394 -0.3186  0.1702 -0.0284
 9622TIP3    H128830   2.535   1.576   0.480 -2.5040 -1.2008  0.7300
 9622TIP3    H228831   2.560   1.443   0.412 -1.5552 -0.3304 -0.6740
 9623TIP3   OH228832   6.994   6.063   1.799 -0.0924  0.2113 -0.3477
 9623TIP3    H128833   7.029   6.097   1.717 -0.1610  0.0046 -0.4632
 9623TIP3    H228834   6.904   6.040   1.779 -0.2662  0.6502 -0.0749
 9624TIP3   OH228835   6.902   3.343   3.330 -0.3364 -0.2523  0.0024
 9624TIP3    H128836   6.874   3.405   3.263 -0.8370 -3.1607 -2.7561
 9624TIP3    H228837   6.997   3.340   3.322 -0.0687  1.6609  1.7252
 9625TIP3   OH228838   2.533   6.233   5.546 -0.0982 -0.1160 -0.4401
 9625TIP3    H128839   2.600   6.174   5.580  1.0165  1.1107 -0.4598
 9625TIP3    H228840   2.527   6.211   5.453  0.0465 -0.4541 -0.3706
 9626TIP3   OH228841   2.699   1.788   4.011 -0.2481  0.1259  0.4937
 9626TIP3    H128842   2.668   1.698   4.014  2.4791 -0.9228  0.0898
 9626TIP3    H228843   2.788   1.782   3.976 -0.1061  3.0326  0.0734
 9627TIP3   OH228844   4.981   4.868   1.848 -0.8096 -0.6462 -0.3420
 9627TIP3    H128845   5.026   4.795   1.890 -1.1963 -1.2020 -0.8802
 9627TIP3    H228846   5.000   4.857   1.755  0.3048  0.7477 -0.3230
 9628TIP3   OH228847   2.171   3.236   1.431  0.6435 -0.2017  0.0249
 9628TIP3    H128848   2.237   3.227   1.362 -0.7309 -1.1810 -1.2131
 9628TIP3    H228849   2.101   3.287   1.391 -0.3836 -1.1802  0.5051
 9629TIP3   OH228850   0.274   1.509   0.930 -0.1154  0.2424 -0.2903
 9629TIP3    H128851   0.306   1.539   1.015  0.5535 -0.4146 -0.3022
 9629TIP3    H228852   0.224   1.583   0.896  0.9455  1.1058 -0.0338
 9630TIP3   OH228853   2.013  -0.012   4.495  0.4963 -0.0352 -0.4403
 9630TIP3    H128854   1.938   0.048   4.498  0.2076 -0.2772  3.4712
 9630TIP3    H228855   2.089   0.046   4.490  0.1747  0.7189  1.9440
 9631TIP3   OH228856   2.787   3.995   0.220 -0.7620 -0.2087  0.3057
 9631TIP3    H128857   2.787   3.966   0.129  0.3229 -1.2890  0.6292
 9631TIP3    H228858   2.707   4.048   0.228 -1.4729 -1.0335 -0.9729
 9632TIP3   OH228859   2.483   4.425   1.109 -0.6649 -0.0376 -0.2274
 9632TIP3    H128860   2.481   4.345   1.057  0.5422 -0.2747  0.0570
 9632TIP3    H228861   2.573   4.456   1.102 -0.7056  0.4054  0.9986
 9633TIP3   OH228862   6.207   5.182   5.833  0.2995  0.0062 -0.2335
 9633TIP3    H128863   6.112   5.190   5.846  0.4176 -1.4153  1.9116
 9633TIP3    H228864   6.219   5.198   5.740 -2.0247  0.4190 -0.5321
 9634TIP3   OH228865   1.861   6.768   2.992  0.0896  0.9601  0.7394
 9634TIP3    H128866   1.816   6.761   3.076 -0.8112  3.1869  0.5048
 9634TIP3    H228867   1.791   6.761   2.927  0.8149 -1.1032  0.0781
 9635TIP3   OH228868   0.784   1.550   2.781  0.7006 -0.4468  0.2104
 9635TIP3    H128869   0.729   1.592   2.715 -1.8047 -0.3545  2.1838
 9635TIP3    H228870   0.739   1.468   2.802  2.3811 -1.3265  0.5622
 9636TIP3   OH228871   0.532   0.086   5.749  0.1174  0.2248  0.0802
 9636TIP3    H128872   0.585   0.164   5.731  1.2476 -0.3992  0.5699
 9636TIP3    H228873   0.590   0.012   5.727 -0.6622 -0.4833  0.3397
 9637TIP3   OH228874   6.721   2.366   4.552  0.2463  0.6860  0.2653
 9637TIP3    H128875   6.772   2.295   4.514 -0.1291  0.0634  0.9115
 9637TIP3    H228876   6.781   2.441   4.553  0.5786  0.4322 -0.5951
 9638TIP3   OH228877   4.802   2.017   4.096  0.5109 -0.4452 -0.3336
 9638TIP3    H128878   4.713   1.984   4.084 -0.1675  1.3426 -0.6004
 9638TIP3    H228879   4.815   2.017   4.191 -0.2808  0.4878 -0.2143
 9639TIP3   OH228880   3.850   2.829   3.202 -0.1686  0.3675 -0.0426
 9639TIP3    H128881   3.920   2.889   3.230  0.4732  0.2735 -1.3961
 9639TIP3    H228882   3.784   2.886   3.162 -1.4780  0.5997  2.2611
 9640TIP3   OH228883   6.173   1.850   4.640  0.2245  1.1633 -0.1063
 9640TIP3    H128884   6.087   1.831   4.679 -0.4588  1.3379 -1.4693
 9640TIP3    H228885   6.166   1.818   4.550  0.7211  3.3674 -0.9837
 9641TIP3   OH228886   1.658   4.570   4.119 -0.6168  0.3435 -0.0423
 9641TIP3    H128887   1.596   4.638   4.091 -0.2194  0.2133 -1.3216
 9641TIP3    H228888   1.742   4.615   4.123 -0.3006 -0.1117 -1.1810
 9642TIP3   OH228889   6.200   2.930   3.485 -0.2128  0.7641 -0.2450
 9642TIP3    H128890   6.286   2.890   3.468 -0.1507  1.2482 -1.1056
 9642TIP3    H228891   6.196   2.937   3.580  0.2751 -0.1899 -0.1332
 9643TIP3   OH228892   7.006   5.829   3.972 -0.4604 -0.8617 -0.0677
 9643TIP3    H128893   7.010   5.919   3.938 -1.5271 -0.4852  0.7713
 9643TIP3    H228894   7.096   5.797   3.962  0.1418  0.5832  0.3758
 9644TIP3   OH228895   2.611   0.510   2.047 -0.2925  0.9155  0.0051
 9644TIP3    H128896   2.526   0.517   2.004  0.0211 -1.1478 -1.0251
 9644TIP3    H228897   2.590   0.489   2.138 -0.8728  0.5888 -0.2035
 9645TIP3   OH228898   2.005   5.985   1.940  0.5575 -0.2031  0.6709
 9645TIP3    H128899   1.919   5.947   1.956  1.2288 -0.8612  3.1483
 9645TIP3    H228900   2.008   6.063   1.996  1.4837 -0.0702  0.4536
 9646TIP3   OH228901   5.446   1.413   0.648 -0.2253  0.0821  0.1806
 9646TIP3    H128902   5.488   1.390   0.731  0.7772  0.4826 -0.2114
 9646TIP3    H228903   5.429   1.507   0.655  0.6803  0.3005 -0.4191
 9647TIP3   OH228904   1.673   2.948   4.342  0.0995  0.0819  0.3977
 9647TIP3    H128905   1.704   2.858   4.330 -0.1470  0.1844 -1.3631
 9647TIP3    H228906   1.592   2.940   4.392 -0.8503 -0.8847 -1.1907
 9648TIP3   OH228907   4.895   3.329   4.649  0.3186  0.1262 -0.1731
 9648TIP3    H128908   4.835   3.281   4.591 -0.1035  1.2684 -0.7155
 9648TIP3    H228909   4.982   3.309   4.615  0.2669 -1.3927  0.5018
 9649TIP3   OH228910   0.870   3.449   3.510 -0.1118 -0.0426  0.3007
 9649TIP3    H128911   0.945   3.509   3.507  0.7713 -1.0825  0.7765
 9649TIP3    H228912   0.841   3.452   3.601 -1.8738  1.7629 -0.2552
 9650TIP3   OH228913   4.227   1.233   2.978 -0.7718  0.7542 -0.2602
 9650TIP3    H128914   4.216   1.155   3.033  2.5121  0.0244 -0.4550
 9650TIP3    H228915   4.234   1.198   2.889 -0.6362  1.3981 -0.5038
 9651TIP3   OH228916   6.814   4.226   4.891 -0.0898  0.3178  0.0272
 9651TIP3    H128917   6.824   4.197   4.801  1.5320  1.9555 -0.3961
 9651TIP3    H228918   6.869   4.305   4.897  1.5969 -0.9136  3.0052
 9652TIP3   OH228919   3.693   6.573   0.557  0.3315  0.0955  0.2403
 9652TIP3    H128920   3.718   6.605   0.470  0.8194 -0.2046  0.2644
 9652TIP3    H228921   3.767   6.519   0.584  0.9305  1.4683  1.5288
 9653TIP3   OH228922   4.514   2.348   3.212 -0.7824 -0.6550  0.3376
 9653TIP3    H128923   4.443   2.296   3.174 -0.8870 -1.1159  1.1560
 9653TIP3    H228924   4.470   2.410   3.270 -0.5446 -0.6483  0.5135
 9654TIP3   OH228925   0.482   6.641   0.363 -0.0210 -1.1719 -0.4240
 9654TIP3    H128926   0.399   6.679   0.334 -0.9276 -0.6257  2.5071
 9654TIP3    H228927   0.546   6.711   0.351 -0.6672 -0.4437  0.2300
 9655TIP3   OH228928   0.527   2.932   5.376  0.2605  0.4022 -0.1830
 9655TIP3    H128929   0.622   2.942   5.377  0.3563 -0.4606  0.4629
 9655TIP3    H228930   0.506   2.893   5.461 -0.6722  0.5947 -0.3173
 9656TIP3   OH228931   3.403   4.237   0.003 -0.0232 -0.5158  0.0279
 9656TIP3    H128932   3.382   4.288   0.081  0.7362 -0.4547  0.1936
 9656TIP3    H228933   3.369   4.150   0.022 -1.1320 -0.1431 -0.1684
 9657TIP3   OH228934   4.799   3.411   2.889  0.5142 -0.6202 -0.1089
 9657TIP3    H128935   4.716   3.399   2.934  0.4863 -0.4584 -0.1144
 9657TIP3    H228936   4.831   3.496   2.921 -0.5002  0.5229 -1.9521
 9658TIP3   OH228937   3.873   2.159   4.298  0.6309 -0.0337  0.2044
 9658TIP3    H128938   3.886   2.122   4.210 -2.3968 -0.8674 -0.0190
 9658TIP3    H228939   3.890   2.253   4.287 -0.0453 -0.0658 -1.3906
 9659TIP3   OH228940   0.749   4.701   3.423  0.0537 -0.5935 -0.3870
 9659TIP3    H128941   0.797   4.681   3.342  0.8959  1.1686 -0.3614
 9659TIP3    H228942   0.789   4.782   3.456 -2.3062  0.4420  0.1533
 9660TIP3   OH228943   3.155   0.712   3.524  0.4186  0.3001 -0.6300
 9660TIP3    H128944   3.103   0.776   3.572  0.1075 -0.2279 -0.2446
 9660TIP3    H228945   3.089   0.656   3.482  0.6712 -0.3932 -0.1145
 9661TIP3   OH228946   5.491   5.364   2.786 -0.0155 -0.0359  0.0169
 9661TIP3    H128947   5.543   5.442   2.807  1.0382 -0.8710  0.5885
 9661TIP3    H228948   5.510   5.302   2.857  1.0696 -1.7216 -1.6625
 9662TIP3   OH228949   0.831   5.871   3.829  0.5687 -0.4265 -0.6177
 9662TIP3    H128950   0.744   5.830   3.833  1.1762 -1.6517  0.5097
 9662TIP3    H228951   0.825   5.932   3.755 -2.4603  2.3794  1.6341
 9663TIP3   OH228952   1.700   5.199   2.021 -0.8216  0.1133 -0.4598
 9663TIP3    H128953   1.657   5.226   1.940 -0.0433 -1.5823 -1.4936
 9663TIP3    H228954   1.793   5.208   2.004 -0.5479 -2.1968 -0.5675
 9664TIP3   OH228955   5.303   5.863   0.134  0.0967 -0.1112 -0.4486
 9664TIP3    H128956   5.244   5.803   0.181 -0.2223  0.2963 -0.3230
 9664TIP3    H228957   5.318   5.934   0.196  0.9699 -0.3607 -0.3671
 9665TIP3   OH228958   5.894   4.233   0.744 -0.5275 -0.6814  0.1081
 9665TIP3    H128959   5.876   4.326   0.758 -0.1643 -0.4741 -0.7541
 9665TIP3    H228960   5.809   4.190   0.756 -0.6276 -0.2882  0.8652
 9666TIP3   OH228961   3.250   0.761   4.516 -0.2576  0.1606  0.1673
 9666TIP3    H128962   3.284   0.693   4.457  0.4143  0.4028  0.2680
 9666TIP3    H228963   3.156   0.746   4.518 -0.1241 -0.7231  0.1277
 9667TIP3   OH228964   2.393   6.789   2.322  0.1875 -0.0573 -0.7352
 9667TIP3    H128965   2.411   6.852   2.392 -2.0465 -0.5857  0.4185
 9667TIP3    H228966   2.439   6.710   2.349 -0.2283 -0.0937 -0.1143
 9668TIP3   OH228967   4.630   1.370   0.917 -0.0340  0.0569 -0.8603
 9668TIP3    H128968   4.616   1.430   0.844 -0.6131 -0.5241 -1.2319
 9668TIP3    H228969   4.623   1.283   0.879  0.5586 -0.2557 -0.2781
 9669TIP3   OH228970   0.574   5.258   5.251 -0.1066 -0.8482  0.0481
 9669TIP3    H128971   0.581   5.163   5.257  2.6542 -0.7121  0.3420
 9669TIP3    H228972   0.629   5.282   5.176  0.5255  0.6127  0.9259
 9670TIP3   OH228973   7.070   4.842   4.535 -0.4914 -0.5725 -0.2701
 9670TIP3    H128974   7.070   4.753   4.499 -1.2530 -0.7039  0.0510
 9670TIP3    H228975   7.112   4.895   4.467 -0.5822 -1.0737 -0.7224
 9671TIP3   OH228976   4.413   4.946   1.255  0.5305 -0.2613  0.2809
 9671TIP3    H128977   4.498   4.936   1.213 -0.3564 -0.6846 -1.4984
 9671TIP3    H228978   4.380   4.857   1.264 -0.2905 -0.0300 -0.3089
 9672TIP3   OH228979   1.268   2.098   1.701  0.2216  0.1361  0.1716
 9672TIP3    H128980   1.176   2.117   1.716  0.4486  1.1908  0.3541
 9672TIP3    H228981   1.315   2.167   1.750  1.1090 -0.6201  0.4190
 9673TIP3   OH228982   6.811   2.686   3.450  0.0738 -0.5428 -0.5991
 9673TIP3    H128983   6.757   2.733   3.514  0.0837 -2.4753  0.9279
 9673TIP3    H228984   6.841   2.754   3.389 -0.3790  1.2972  1.1241
 9674TIP3   OH228985   6.752   3.236   2.767 -0.7121 -0.2573  0.6438
 9674TIP3    H128986   6.791   3.229   2.854 -1.3035  1.0775  1.0460
 9674TIP3    H228987   6.722   3.147   2.747  0.9763 -0.9580  1.0308
 9675TIP3   OH228988   6.000   5.753   4.819 -0.0045  0.2662 -0.4168
 9675TIP3    H128989   5.927   5.813   4.805 -0.3727  0.1993  1.0383
 9675TIP3    H228990   5.977   5.704   4.898  0.7421 -1.1165 -0.9993
 9676TIP3   OH228991   1.572   4.690   2.172 -0.2961  0.2258 -0.2112
 9676TIP3    H128992   1.548   4.653   2.087 -1.4700  2.5026 -0.9451
 9676TIP3    H228993   1.626   4.766   2.151  0.9031 -0.1838  1.1907
 9677TIP3   OH228994   3.387   1.402   0.121 -0.1000  0.1197  0.0533
 9677TIP3    H128995   3.480   1.391   0.136 -0.3650 -1.2612  0.7699
 9677TIP3    H228996   3.365   1.338   0.053 -0.5550  0.3784 -0.0542
 9678TIP3   OH228997   1.935   1.910   2.711  0.1877 -0.0689  0.2072
 9678TIP3    H128998   2.024   1.875   2.719  0.3994  0.5840  0.8304
 9678TIP3    H228999   1.944   2.003   2.732 -1.1455 -0.6131  3.8765
 9679TIP3   OH229000   3.223   4.933   2.147  0.2952  0.4915 -0.5726
 9679TIP3    H129001   3.183   4.952   2.062 -1.3803 -1.7988 -0.3992
 9679TIP3    H229002   3.222   4.837   2.153  0.6805  0.5747  1.8795
 9680TIP3   OH229003   2.283   0.434   2.296  0.1936 -0.3102  0.6044
 9680TIP3    H129004   2.220   0.428   2.224  0.1306  1.6961  0.4351
 9680TIP3    H229005   2.325   0.348   2.298  1.9009  0.1765 -3.4331
 9681TIP3   OH229006   3.472   0.470   1.770  0.0042 -0.0319 -0.1439
 9681TIP3    H129007   3.539   0.538   1.764  1.0313 -0.9434  0.5028
 9681TIP3    H229008   3.389   0.516   1.760  0.7105  1.1986 -0.4757
 9682TIP3   OH229009   0.683   0.132   3.070 -0.0646  0.3236  0.2101
 9682TIP3    H129010   0.777   0.117   3.074  0.4217  2.7995 -0.1947
 9682TIP3    H229011   0.673   0.215   3.024 -2.3877  0.6783  1.1669
 9683TIP3   OH229012   5.301   3.259   5.043  0.0489  0.0489 -0.0303
 9683TIP3    H129013   5.246   3.276   5.120 -0.4247  1.3801 -0.6340
 9683TIP3    H229014   5.371   3.203   5.076 -0.7121 -0.2504  1.1461
 9684TIP3   OH229015   3.654   2.084   3.238  0.1531 -0.3423 -0.8109
 9684TIP3    H129016   3.574   2.132   3.257  0.0378 -0.7421 -0.2674
 9684TIP3    H229017   3.635   2.036   3.158 -0.0876 -0.3046 -0.7761
 9685TIP3   OH229018   5.051   5.304   4.968 -0.1318 -0.3103 -0.6974
 9685TIP3    H129019   5.067   5.289   4.875  0.5952 -4.6245 -0.1186
 9685TIP3    H229020   4.956   5.296   4.977 -0.1567 -0.3739 -1.0081
 9686TIP3   OH229021   2.735   6.014   5.285  0.1625  0.0076 -0.0774
 9686TIP3    H129022   2.778   6.056   5.211 -0.8962 -0.1201 -0.7815
 9686TIP3    H229023   2.654   6.063   5.297 -0.8452 -1.4700 -0.5823
 9687TIP3   OH229024   4.017   3.481   2.106 -0.4571  0.3810 -0.1547
 9687TIP3    H129025   4.065   3.404   2.134 -0.1354  0.8417  0.5967
 9687TIP3    H229026   3.991   3.463   2.015 -0.3104 -0.5605 -0.0108
 9688TIP3   OH229027   4.791   6.163   2.639  0.0532  0.4075 -0.3525
 9688TIP3    H129028   4.774   6.106   2.564  1.9047 -2.5739  1.2982
 9688TIP3    H229029   4.886   6.161   2.651  0.0896  3.0409  0.5053
 9689TIP3   OH229030   0.555   5.696   4.869 -0.6935  0.0552  0.5424
 9689TIP3    H129031   0.597   5.781   4.859 -0.8711  0.0888  0.0380
 9689TIP3    H229032   0.566   5.674   4.962 -1.2676  0.9517  0.8302
 9690TIP3   OH229033   6.134   4.900   5.070  0.2610  0.3840  0.4721
 9690TIP3    H129034   6.181   4.959   5.011  1.4974  1.0366  2.0436
 9690TIP3    H229035   6.065   4.954   5.108 -2.1474 -0.6453 -2.0518
 9691TIP3   OH229036   0.491   1.420   5.743  0.0578  0.9122  0.3469
 9691TIP3    H129037   0.413   1.371   5.770  0.5911 -0.4973 -0.5697
 9691TIP3    H229038   0.487   1.421   5.648  0.0869  2.6697  0.3331
 9692TIP3   OH229039   0.513   5.165   2.241 -0.8119 -0.3244  0.1035
 9692TIP3    H129040   0.445   5.099   2.254 -2.1019  0.9615  0.1547
 9692TIP3    H229041   0.465   5.247   2.232  0.7619  0.6797  0.4771
 9693TIP3   OH229042   0.318   2.260   1.721  0.4521  0.1206  0.3562
 9693TIP3    H129043   0.306   2.262   1.816  1.1810 -2.8070  0.6259
 9693TIP3    H229044   0.399   2.309   1.705 -1.7461  4.2291  0.6302
 9694TIP3   OH229045   2.287   1.705   3.442  0.1757 -0.1628 -0.5864
 9694TIP3    H129046   2.374   1.738   3.464  0.5119 -2.1517  1.4029
 9694TIP3    H229047   2.300   1.611   3.427 -1.6084 -0.4684 -0.4436
 9695TIP3   OH229048   2.566   5.099   2.551  0.1599 -0.3235  0.1244
 9695TIP3    H129049   2.597   5.012   2.578 -0.3372 -0.3596  0.6037
 9695TIP3    H229050   2.471   5.090   2.548 -0.2503  1.1134  3.7351
 9696TIP3   OH229051   3.937   4.658   3.958  0.4124 -0.3676 -0.0664
 9696TIP3    H129052   3.903   4.734   3.911  0.9739  0.0398  0.1721
 9696TIP3    H229053   3.936   4.588   3.894 -0.0952 -0.1565 -0.2958
 9697TIP3   OH229054   5.798   6.570   4.548 -0.2091 -0.0821  0.6154
 9697TIP3    H129055   5.861   6.551   4.478  0.1312  0.4805  0.7678
 9697TIP3    H229056   5.778   6.663   4.539 -3.8446 -0.9185 -1.7412
 9698TIP3   OH229057   5.253   2.767   2.098 -0.5213  0.3512  0.1944
 9698TIP3    H129058   5.318   2.824   2.137  0.7581 -1.9531  1.6834
 9698TIP3    H229059   5.169   2.799   2.131  0.2814  0.4851  2.2176
 9699TIP3   OH229060   1.684   2.910   1.953  0.7631 -0.3520  0.5114
 9699TIP3    H129061   1.728   2.876   1.875  0.1186 -0.3247  0.1324
 9699TIP3    H229062   1.744   2.975   1.988  0.1285  1.2617 -1.2097
 9700TIP3   OH229063   4.805   3.534   3.376 -0.4821  0.0547 -0.0125
 9700TIP3    H129064   4.735   3.580   3.423  0.4527  1.7721 -0.2581
 9700TIP3    H229065   4.881   3.590   3.385  1.1034 -2.0749  0.7850
 9701TIP3   OH229066   0.902   5.012   4.823 -0.5900  0.3548  1.0570
 9701TIP3    H129067   0.863   5.095   4.851 -2.0551  0.2637 -0.5309
 9701TIP3    H229068   0.996   5.028   4.826 -0.8066  2.7848 -1.0523
 9702TIP3   OH229069   0.219   3.443   0.851  0.6111  0.7083 -0.3283
 9702TIP3    H129070   0.256   3.460   0.764  2.1366 -1.3753 -0.1744
 9702TIP3    H229071   0.266   3.365   0.882 -0.6447  0.7637  1.9319
 9703TIP3   OH229072   5.574   4.315   4.689  0.4199 -0.3358  0.0341
 9703TIP3    H129073   5.576   4.411   4.697  0.6877 -0.3811  0.5530
 9703TIP3    H229074   5.516   4.286   4.758  0.9095 -0.5906  0.3457
 9704TIP3   OH229075   3.247   0.827   5.013  0.2338  0.2006 -0.1661
 9704TIP3    H129076   3.166   0.853   5.056 -0.8302 -0.4421 -1.6978
 9704TIP3    H229077   3.228   0.740   4.977  1.8435 -0.2732  0.0321
 9705TIP3   OH229078   5.241   3.982   5.328  0.4417 -0.4189 -0.0206
 9705TIP3    H129079   5.233   3.923   5.253  2.0294 -0.2290 -0.3732
 9705TIP3    H229080   5.185   4.057   5.306 -1.2873 -1.5628  0.2592
 9706TIP3   OH229081   6.934   5.852   5.396 -0.4233 -0.4307 -0.2216
 9706TIP3    H129082   6.968   5.935   5.364 -2.8312  0.2697 -1.2001
 9706TIP3    H229083   6.923   5.865   5.491  0.4654 -0.1214 -0.1587
 9707TIP3   OH229084   4.943   1.764   1.541  0.1763  0.3998 -0.2622
 9707TIP3    H129085   5.026   1.760   1.494  0.5893  0.0492  0.4972
 9707TIP3    H229086   4.900   1.680   1.522  1.3616 -0.7424  1.8324
 9708TIP3   OH229087   2.251   1.958   1.106  0.2291  0.2418 -0.4285
 9708TIP3    H129088   2.324   1.901   1.084  0.4278  0.1780  0.3500
 9708TIP3    H229089   2.175   1.919   1.062  0.6227  0.1994 -1.0755
 9709TIP3   OH229090  -0.001   1.648   4.260 -0.0982  0.0581  0.2655
 9709TIP3    H129091   0.072   1.599   4.222 -0.2175  1.1313 -1.4372
 9709TIP3    H229092   0.023   1.740   4.250 -1.9581  0.4732 -1.0319
 9710TIP3   OH229093   2.781   2.270   1.669 -0.0619  0.0559  0.5216
 9710TIP3    H129094   2.864   2.249   1.627  0.2873  0.4622  0.9863
 9710TIP3    H229095   2.779   2.215   1.748 -0.3321 -0.1110  0.3981
 9711TIP3   OH229096   2.009   4.098   1.150 -0.0758 -0.0202 -0.4563
 9711TIP3    H129097   1.971   4.022   1.194  0.5220 -1.0607 -1.6761
 9711TIP3    H229098   2.072   4.134   1.214  0.0109 -0.8565 -0.0605
 9712TIP3   OH229099   1.364   3.535   3.911 -0.5355 -0.0972  0.6074
 9712TIP3    H129100   1.443   3.568   3.954 -0.5847 -1.2262  1.6407
 9712TIP3    H229101   1.361   3.442   3.936 -1.2655 -0.4852 -0.8322
 9713TIP3   OH229102   4.724   0.941   2.737 -0.0746  0.1845  0.0529
 9713TIP3    H129103   4.748   0.928   2.829 -1.8517  0.0107  0.5311
 9713TIP3    H229104   4.803   0.976   2.696  0.3981  1.4080  1.9085
 9714TIP3   OH229105   6.517   1.395   4.961  0.0223  0.2030 -0.0705
 9714TIP3    H129106   6.473   1.403   5.046 -2.1179 -1.2810 -0.9447
 9714TIP3    H229107   6.546   1.484   4.941 -1.1171  0.9539  1.3563
 9715TIP3   OH229108   6.084   5.936   2.433 -0.0419 -0.1457  0.0521
 9715TIP3    H129109   6.075   5.847   2.466  0.3337  0.2051  1.1315
 9715TIP3    H229110   6.075   5.927   2.338 -0.1764 -1.3025  0.1587
 9716TIP3   OH229111   0.207   0.882   4.142 -0.1297  0.1412  0.3106
 9716TIP3    H129112   0.281   0.943   4.141 -0.4585  0.5480  0.2740
 9716TIP3    H229113   0.149   0.914   4.072 -0.2916 -0.2315  0.2741
 9717TIP3   OH229114   3.373   4.524   3.797  0.0880 -0.4676 -0.4958
 9717TIP3    H129115   3.465   4.528   3.823  0.4795 -1.5990 -1.6218
 9717TIP3    H229116   3.371   4.461   3.725 -1.2161  1.2002 -2.0006
 9718TIP3   OH229117   0.422   2.418   0.907  0.6658 -0.0781  0.0577
 9718TIP3    H129118   0.501   2.365   0.903  0.7179 -0.0005  0.0760
 9718TIP3    H229119   0.351   2.353   0.913  0.7075 -0.1517 -0.2258
 9719TIP3   OH229120   4.210   1.758   0.611 -0.2586 -0.4558  0.2740
 9719TIP3    H129121   4.304   1.739   0.604 -0.3912 -0.7636 -0.9504
 9719TIP3    H229122   4.168   1.672   0.603 -0.6148 -0.5999  2.8187
 9720TIP3   OH229123   5.846   5.427   2.617 -0.3314  0.2503  0.6842
 9720TIP3    H129124   5.767   5.446   2.668 -0.7148  0.7429 -0.0735
 9720TIP3    H229125   5.813   5.401   2.531  0.2654 -1.6010  0.9559
 9721TIP3   OH229126   4.609   5.094   1.372 -0.1242  0.0417 -0.2106
 9721TIP3    H129127   4.522   5.060   1.355  0.0334 -0.8334  0.6114
 9721TIP3    H229128   4.663   5.015   1.386  0.2397  0.5906  1.8076
 9722TIP3   OH229129   1.158   0.599   1.141 -0.2428  0.1322 -0.1363
 9722TIP3    H129130   1.211   0.571   1.216  1.2029  0.5565 -0.9478
 9722TIP3    H229131   1.095   0.661   1.178  0.4824  0.3852  0.7269
 9723TIP3   OH229132   0.868   4.867   0.358  0.3402 -0.0953  0.6168
 9723TIP3    H129133   0.921   4.923   0.301  1.7308 -2.3393 -0.4129
 9723TIP3    H229134   0.808   4.821   0.299  1.6413 -2.2832  0.8876
 9724TIP3   OH229135   0.149   3.843   0.197  0.2653  0.2250  0.0149
 9724TIP3    H129136   0.225   3.812   0.148  1.4119  1.7179  0.7685
 9724TIP3    H229137   0.098   3.764   0.217  1.6610 -0.8097 -0.4259
 9725TIP3   OH229138   2.085   1.419   2.302 -0.4327  0.7099  0.2596
 9725TIP3    H129139   2.162   1.396   2.250  0.1994 -1.0121  1.8652
 9725TIP3    H229140   2.112   1.494   2.354  0.9727 -1.1509  2.3774
 9726TIP3   OH229141   1.453   1.677   0.972 -0.1949  0.3649 -0.0811
 9726TIP3    H129142   1.509   1.746   1.009  1.1593  0.2798 -1.8756
 9726TIP3    H229143   1.472   1.600   1.026  0.5740  0.6214  0.0259
 9727TIP3   OH229144   4.435   5.224   1.840 -0.3440  0.2560  0.4462
 9727TIP3    H129145   4.512   5.203   1.787 -3.1178 -0.0237 -4.0653
 9727TIP3    H229146   4.388   5.141   1.846 -2.9471  1.3890 -2.0904
 9728TIP3   OH229147   6.040   0.267   2.771 -0.1203 -0.2718  0.1295
 9728TIP3    H129148   6.097   0.194   2.792 -0.2690 -0.6003 -0.5840
 9728TIP3    H229149   6.068   0.295   2.683 -0.7964 -0.1883 -0.0639
 9729TIP3   OH229150   3.100   3.473   0.571  0.0022 -0.3908  0.0057
 9729TIP3    H129151   3.065   3.454   0.484  0.4935 -0.6169 -0.1505
 9729TIP3    H229152   3.195   3.463   0.560  0.3113  2.0216 -0.0668
 9730TIP3   OH229153   2.667   3.689   2.939  0.1893 -0.0010 -0.5705
 9730TIP3    H129154   2.730   3.638   2.990  0.4336  0.7705 -0.0800
 9730TIP3    H229155   2.594   3.703   3.000 -0.9323 -1.7456 -1.4464
 9731TIP3   OH229156   5.158   2.772   2.986 -0.2675  0.2735  0.0526
 9731TIP3    H129157   5.108   2.811   3.057  1.2794  0.1324  1.2909
 9731TIP3    H229158   5.185   2.686   3.020 -0.6879 -0.4059 -1.2630
 9732TIP3   OH229159   2.026   1.910   5.329  0.4692 -0.5092 -0.4165
 9732TIP3    H129160   2.060   1.908   5.240  0.6285  0.1795 -0.3759
 9732TIP3    H229161   2.103   1.907   5.385  0.3757 -0.8095 -0.3013
 9733TIP3   OH229162   4.840   1.128   3.522  0.1889  0.8304  0.2780
 9733TIP3    H129163   4.776   1.072   3.566  0.3839  1.5456  1.5260
 9733TIP3    H229164   4.922   1.109   3.567  0.3976  1.5601  0.2147
 9734TIP3   OH229165   7.040   3.495   0.421 -0.0114  0.3795  0.0119
 9734TIP3    H129166   7.049   3.580   0.377 -0.8540  0.1369 -0.6404
 9734TIP3    H229167   6.954   3.463   0.395  0.7727 -1.2396 -0.7318
 9735TIP3   OH229168   2.240   1.496   5.270 -0.2896 -0.1398 -0.1439
 9735TIP3    H129169   2.248   1.559   5.342 -0.4410  0.7469 -0.8871
 9735TIP3    H229170   2.271   1.413   5.307 -2.0732 -0.1293  1.5002
 9736TIP3   OH229171   3.359   6.699   3.983  0.4830  0.0727  0.4593
 9736TIP3    H129172   3.449   6.689   3.953  0.4085 -0.3126  0.3534
 9736TIP3    H229173   3.366   6.744   4.067  0.7123  0.8301  0.0358
 9737TIP3   OH229174   5.725   3.927   2.552 -0.0135  0.1889 -0.1341
 9737TIP3    H129175   5.677   3.973   2.621  0.3061  1.8653 -0.9756
 9737TIP3    H229176   5.686   3.960   2.471 -0.2835 -1.6312 -0.7891
 9738TIP3   OH229177   6.568   5.424   2.789 -0.5280  0.4289 -0.0618
 9738TIP3    H129178   6.569   5.370   2.867  0.2530  0.6563  0.0939
 9738TIP3    H229179   6.528   5.369   2.722 -1.3870  0.3033  0.5367
 9739TIP3   OH229180   2.355   0.780   0.895 -0.3644 -0.1839 -0.8482
 9739TIP3    H129181   2.268   0.793   0.857 -0.0802 -1.8025 -2.1636
 9739TIP3    H229182   2.382   0.693   0.865  0.8656 -0.5953  1.2309
 9740TIP3   OH229183   7.162   2.996   0.353 -0.2820 -0.0970 -0.2492
 9740TIP3    H129184   7.175   3.089   0.374 -2.7744  0.2038  0.2115
 9740TIP3    H229185   7.206   2.950   0.424  0.2896  0.7288 -0.0457
 9741TIP3   OH229186   6.546   4.547   0.054 -0.0611  0.2302  0.0812
 9741TIP3    H129187   6.612   4.614   0.038  0.7545 -0.4937  0.3609
 9741TIP3    H229188   6.511   4.527  -0.032  1.3584 -0.6524 -0.3263
 9742TIP3   OH229189   3.269   5.568   0.211  0.3227  0.6048  0.6194
 9742TIP3    H129190   3.358   5.557   0.243  0.3405 -0.2235  0.3081
 9742TIP3    H229191   3.218   5.500   0.256  0.6707 -1.7633 -2.2420
 9743TIP3   OH229192   5.768   5.996   1.816 -0.3114  0.0947  0.2326
 9743TIP3    H129193   5.777   6.091   1.821 -1.8763  0.3979 -1.3949
 9743TIP3    H229194   5.743   5.969   1.904  0.7021  1.1122  0.8509
 9744TIP3   OH229195   7.218   0.342   3.496 -0.0107 -0.0876  0.3034
 9744TIP3    H129196   7.130   0.333   3.461  0.0570  1.6848 -0.4503
 9744TIP3    H229197   7.218   0.427   3.540  0.9302 -0.7058  1.5501
 9745TIP3   OH229198   7.042   3.760   3.768  0.2849 -0.0326  0.2239
 9745TIP3    H129199   7.041   3.668   3.742 -2.0484  0.2320 -0.8581
 9745TIP3    H229200   6.953   3.778   3.797  0.8102  1.7899  0.8706
 9746TIP3   OH229201   5.325   2.757   1.255 -0.3927  0.2721  0.2980
 9746TIP3    H129202   5.297   2.703   1.181  0.1794  0.3919 -0.0107
 9746TIP3    H229203   5.414   2.784   1.233 -0.3104  0.5232  0.9124
 9747TIP3   OH229204   6.646   6.707   5.583 -0.5036  0.5570  0.4559
 9747TIP3    H129205   6.657   6.800   5.599  2.0930  0.5287 -0.5675
 9747TIP3    H229206   6.627   6.701   5.489  1.8318  0.0177 -0.0410
 9748TIP3   OH229207   5.922   6.758   3.774 -0.1173 -0.7751  0.0766
 9748TIP3    H129208   5.963   6.777   3.858  0.2807 -2.0901  0.2007
 9748TIP3    H229209   5.854   6.824   3.765  0.4149 -0.0696  1.0125
 9749TIP3   OH229210   3.094   4.831   0.219 -0.4120  0.2552 -0.1918
 9749TIP3    H129211   3.084   4.736   0.211  0.7279  0.1686 -0.7269
 9749TIP3    H229212   3.005   4.865   0.209 -0.8503 -0.7611  0.1430
   7.20307   6.79114   5.88129   0.00000   0.00000  -2.40103   0.00000  -2.40103  -3.39556
