Title t= 151.00000 step= 75500
29212
    1ASP      N    1   2.009   1.150   2.144
    1ASP    HT1    2   2.033   1.238   2.195
    1ASP    HT2    3   2.073   1.135   2.062
    1ASP    HT3    4   2.015   1.069   2.208
    1ASP     CA    5   1.864   1.159   2.090
    1ASP     HA    6   1.840   1.258   2.054
    1ASP     CB    7   1.839   1.047   1.985
    1ASP    HB1    8   1.734   1.048   1.948
    1ASP    HB2    9   1.864   0.947   2.027
    1ASP     CG   10   1.923   1.068   1.857
    1ASP    OD1   11   2.042   1.114   1.863
    1ASP    OD2   12   1.877   1.028   1.745
    1ASP      C   13   1.772   1.156   2.205
    1ASP      O   14   1.774   1.239   2.298
    2GLY      N   15   1.682   1.055   2.222
    2GLY     HN   16   1.678   0.983   2.154
    2GLY     CA   17   1.571   1.051   2.319
    2GLY    HA1   18   1.616   1.057   2.417
    2GLY    HA2   19   1.523   0.955   2.308
    2GLY      C   20   1.477   1.171   2.311
    2GLY      O   21   1.470   1.252   2.217
    3ASP      N   22   1.385   1.188   2.407
    3ASP     HN   23   1.381   1.126   2.485
    3ASP     CA   24   1.284   1.298   2.396
    3ASP     HA   25   1.257   1.315   2.293
    3ASP     CB   26   1.163   1.273   2.488
    3ASP    HB1   27   1.091   1.353   2.517
    3ASP    HB2   28   1.206   1.242   2.585
    3ASP     CG   29   1.076   1.163   2.432
    3ASP    OD1   30   1.039   1.070   2.506
    3ASP    OD2   31   1.028   1.170   2.318
    3ASP      C   32   1.341   1.434   2.440
    3ASP      O   33   1.440   1.433   2.512
    4GLY      N   34   1.277   1.549   2.396
    4GLY     HN   35   1.219   1.561   2.316
    4GLY     CA   36   1.304   1.675   2.463
    4GLY    HA1   37   1.330   1.739   2.380
    4GLY    HA2   38   1.389   1.668   2.530
    4GLY      C   39   1.180   1.734   2.532
    4GLY      O   40   1.074   1.671   2.545
    5PRO      N   41   1.187   1.856   2.579
    5PRO     CD   42   1.307   1.932   2.580
    5PRO    HD1   43   1.316   1.979   2.480
    5PRO    HD2   44   1.399   1.875   2.605
    5PRO     CA   45   1.078   1.931   2.633
    5PRO     HA   46   1.045   1.886   2.726
    5PRO     CB   47   1.135   2.079   2.656
    5PRO    HB1   48   1.094   2.133   2.744
    5PRO    HB2   49   1.138   2.140   2.563
    5PRO     CG   50   1.277   2.039   2.683
    5PRO    HG1   51   1.336   2.131   2.661
    5PRO    HG2   52   1.301   1.993   2.781
    5PRO      C   53   0.962   1.941   2.533
    5PRO      O   54   0.983   1.983   2.420
    6GLY      N   55   0.840   1.898   2.572
    6GLY     HN   56   0.844   1.840   2.653
    6GLY     CA   57   0.724   1.910   2.497
    6GLY    HA1   58   0.685   1.810   2.487
    6GLY    HA2   59   0.736   1.966   2.406
    6GLY      C   60   0.637   2.004   2.578
    6GLY      O   61   0.685   2.110   2.624
    7ASP      N   62   0.516   1.963   2.607
    7ASP     HN   63   0.474   1.878   2.576
    7ASP     CA   64   0.424   2.025   2.701
    7ASP     HA   65   0.409   2.127   2.670
    7ASP     CB   66   0.282   1.957   2.710
    7ASP    HB1   67   0.248   1.972   2.814
    7ASP    HB2   68   0.280   1.849   2.684
    7ASP     CG   69   0.174   2.016   2.625
    7ASP    OD1   70   0.057   1.976   2.626
    7ASP    OD2   71   0.207   2.107   2.547
    7ASP      C   72   0.497   2.022   2.838
    7ASP      O   73   0.575   1.926   2.862
    8PRO      N   74   0.471   2.119   2.931
    8PRO     CD   75   0.395   2.238   2.901
    8PRO    HD1   76   0.288   2.211   2.904
    8PRO    HD2   77   0.432   2.272   2.801
    8PRO     CA   78   0.549   2.133   3.050
    8PRO     HA   79   0.643   2.178   3.022
    8PRO     CB   80   0.468   2.236   3.134
    8PRO    HB1   81   0.533   2.284   3.210
    8PRO    HB2   82   0.377   2.186   3.174
    8PRO     CG   83   0.428   2.331   3.023
    8PRO    HG1   84   0.342   2.393   3.057
    8PRO    HG2   85   0.511   2.393   2.984
    8PRO      C   86   0.581   2.007   3.134
    8PRO      O   87   0.487   1.962   3.202
    9GLY      N   88   0.705   1.958   3.126
    9GLY     HN   89   0.778   1.990   3.066
    9GLY     CA   90   0.742   1.831   3.189
    9GLY    HA1   91   0.836   1.795   3.149
    9GLY    HA2   92   0.666   1.757   3.171
    9GLY      C   93   0.762   1.827   3.345
    9GLY      O   94   0.754   1.933   3.409
   10ASP      N   95   0.773   1.705   3.407
   10ASP     HN   96   0.761   1.630   3.342
   10ASP     CA   97   0.785   1.684   3.553
   10ASP     HA   98   0.706   1.739   3.600
   10ASP     CB   99   0.788   1.534   3.593
   10ASP    HB1  100   0.802   1.511   3.701
   10ASP    HB2  101   0.870   1.482   3.538
   10ASP     CG  102   0.655   1.475   3.556
   10ASP    OD1  103   0.584   1.435   3.647
   10ASP    OD2  104   0.619   1.455   3.436
   10ASP      C  105   0.916   1.752   3.609
   10ASP      O  106   0.919   1.824   3.712
   11GLY      N  107   1.026   1.718   3.544
   11GLY     HN  108   1.016   1.673   3.455
   11GLY     CA  109   1.159   1.767   3.572
   11GLY    HA1  110   1.152   1.867   3.611
   11GLY    HA2  111   1.210   1.747   3.479
   11GLY      C  112   1.226   1.686   3.682
   11GLY    OT1  113   1.310   1.599   3.650
   11GLY    OT2  114   1.210   1.714   3.806
   12LIT    LIT  115   4.024   5.614   1.805
   13LIT    LIT  116   1.879   2.709   5.776
   14LIT    LIT  117   3.972   0.440   0.172
   15LIT    LIT  118   3.307   2.003   2.840
   16LIT    LIT  119   1.362   1.602   3.837
   17LIT    LIT  120   2.355   5.203   4.914
   18LIT    LIT  121   1.353   0.943   4.220
   19LIT    LIT  122   4.306   0.004   0.253
   20LIT    LIT  123   6.753   2.229   4.337
   21LIT    LIT  124   1.908   0.087   2.639
   22LIT    LIT  125   2.829   1.185   5.764
   23LIT    LIT  126   3.926   4.855   5.379
   24LIT    LIT  127   6.976   4.226   2.229
   25LIT    LIT  128   0.029   2.115   2.488
   26LIT    LIT  129   0.445   1.416   3.504
   27LIT    LIT  130   4.349   1.805   4.781
   28LIT    LIT  131   4.861   1.850   0.056
   29LIT    LIT  132   0.744   2.541   3.053
   30LIT    LIT  133   7.078   2.610   1.897
   31LIT    LIT  134   3.928   0.692   2.215
   32LIT    LIT  135   0.193   1.931   1.341
   33LIT    LIT  136   4.470   3.523   1.250
   34LIT    LIT  137   4.589   1.898   3.855
   35LIT    LIT  138   1.264   1.994   2.119
   36LIT    LIT  139   3.970   2.817   5.921
   37LIT    LIT  140   3.128   4.941   1.474
   38LIT    LIT  141   2.033   4.209   0.056
   39LIT    LIT  142   2.051   1.066   1.667
   40LIT    LIT  143   2.160   6.682   2.969
   41LIT    LIT  144   3.365   1.198   2.826
   42LIT    LIT  145   0.919   1.022   2.347
   43CLA    CLA  146   2.346   6.589   3.042
   44CLA    CLA  147   6.798   1.084   3.863
   45CLA    CLA  148   2.502   2.196   5.091
   46CLA    CLA  149   5.474   3.516   0.490
   47CLA    CLA  150   0.105   2.268   1.998
   48CLA    CLA  151   3.452   3.083   4.477
   49CLA    CLA  152   3.527   4.475   2.606
   50CLA    CLA  153   3.892   5.985   0.890
   51CLA    CLA  154   7.166   2.346   1.244
   52CLA    CLA  155   4.663   5.024   4.815
   53CLA    CLA  156   4.208   3.741   1.033
   54CLA    CLA  157   4.230   2.106   2.028
   55CLA    CLA  158   7.084   2.585   4.479
   56CLA    CLA  159   1.582   3.823   0.955
   57CLA    CLA  160   6.895   0.649   3.372
   58CLA    CLA  161   4.334   3.410   1.409
   59CLA    CLA  162   6.486   4.546   5.105
   60CLA    CLA  163   1.482   0.833   4.956
   61CLA    CLA  164   1.206   0.118   0.521
   62CLA    CLA  165   0.085   2.712   5.872
   63CLA    CLA  166   1.085   0.520   1.861
   64CLA    CLA  167   6.874   5.265   5.485
   65CLA    CLA  168   6.067   4.421   2.639
   66CLA    CLA  169   3.354   0.731   3.915
   67CLA    CLA  170   5.501   2.432   2.293
   68CLA    CLA  171   0.976   2.496   2.514
   69CLA    CLA  172   3.946   4.143   1.133
   70TIP3   OH2  173   5.486   2.535   0.075
   70TIP3    H1  174   5.444   2.516   0.159
   70TIP3    H2  175   5.469   2.628   0.061
   71TIP3   OH2  176   4.578   0.637   3.012
   71TIP3    H1  177   4.495   0.685   3.004
   71TIP3    H2  178   4.636   0.698   3.058
   72TIP3   OH2  179   3.932   2.633   4.449
   72TIP3    H1  180   3.923   2.633   4.354
   72TIP3    H2  181   4.001   2.569   4.467
   73TIP3   OH2  182   3.491   2.170   1.202
   73TIP3    H1  183   3.491   2.181   1.107
   73TIP3    H2  184   3.515   2.256   1.236
   74TIP3   OH2  185   4.230   5.019   4.358
   74TIP3    H1  186   4.220   4.984   4.269
   74TIP3    H2  187   4.166   4.970   4.409
   75TIP3   OH2  188   4.146   3.685   1.852
   75TIP3    H1  189   4.081   3.622   1.820
   75TIP3    H2  190   4.142   3.758   1.789
   76TIP3   OH2  191   2.359   6.403   5.215
   76TIP3    H1  192   2.295   6.471   5.196
   76TIP3    H2  193   2.419   6.406   5.140
   77TIP3   OH2  194   4.627   2.124   2.781
   77TIP3    H1  195   4.684   2.048   2.776
   77TIP3    H2  196   4.687   2.199   2.786
   78TIP3   OH2  197   6.185   0.334   4.633
   78TIP3    H1  198   6.106   0.389   4.637
   78TIP3    H2  199   6.237   0.371   4.562
   79TIP3   OH2  200   1.905   4.790   5.071
   79TIP3    H1  201   1.949   4.789   5.155
   79TIP3    H2  202   1.973   4.766   5.008
   80TIP3   OH2  203   5.543   3.435   5.339
   80TIP3    H1  204   5.479   3.473   5.279
   80TIP3    H2  205   5.578   3.360   5.290
   81TIP3   OH2  206   5.798   2.064   2.586
   81TIP3    H1  207   5.755   2.038   2.668
   81TIP3    H2  208   5.786   1.989   2.528
   82TIP3   OH2  209   3.603   6.303   1.961
   82TIP3    H1  210   3.612   6.316   1.867
   82TIP3    H2  211   3.598   6.391   1.997
   83TIP3   OH2  212   0.721   3.255   2.405
   83TIP3    H1  213   0.697   3.198   2.332
   83TIP3    H2  214   0.775   3.199   2.461
   84TIP3   OH2  215   3.214   5.940   1.536
   84TIP3    H1  216   3.144   5.926   1.600
   84TIP3    H2  217   3.282   5.988   1.584
   85TIP3   OH2  218   4.635   2.697   3.034
   85TIP3    H1  219   4.591   2.613   3.041
   85TIP3    H2  220   4.676   2.696   2.948
   86TIP3   OH2  221   6.926   0.345   3.751
   86TIP3    H1  222   7.004   0.379   3.706
   86TIP3    H2  223   6.924   0.393   3.834
   87TIP3   OH2  224   1.835   6.333   2.275
   87TIP3    H1  225   1.857   6.383   2.197
   87TIP3    H2  226   1.787   6.393   2.331
   88TIP3   OH2  227   6.211   4.811   5.298
   88TIP3    H1  228   6.306   4.819   5.288
   88TIP3    H2  229   6.196   4.820   5.393
   89TIP3   OH2  230   0.348   4.343   3.526
   89TIP3    H1  231   0.264   4.375   3.492
   89TIP3    H2  232   0.398   4.422   3.543
   90TIP3   OH2  233   3.153   6.101   5.203
   90TIP3    H1  234   3.105   6.161   5.261
   90TIP3    H2  235   3.199   6.042   5.263
   91TIP3   OH2  236   0.902   1.920   3.965
   91TIP3    H1  237   0.913   1.921   3.870
   91TIP3    H2  238   0.812   1.890   3.978
   92TIP3   OH2  239   0.590   6.359   1.331
   92TIP3    H1  240   0.618   6.450   1.324
   92TIP3    H2  241   0.670   6.310   1.349
   93TIP3   OH2  242   0.988   5.285   5.155
   93TIP3    H1  243   0.914   5.234   5.188
   93TIP3    H2  244   0.948   5.358   5.107
   94TIP3   OH2  245   4.670   2.654   2.096
   94TIP3    H1  246   4.672   2.559   2.081
   94TIP3    H2  247   4.759   2.683   2.075
   95TIP3   OH2  248   6.916   1.632   0.602
   95TIP3    H1  249   6.859   1.565   0.639
   95TIP3    H2  250   6.953   1.591   0.524
   96TIP3   OH2  251   1.142   0.954   1.301
   96TIP3    H1  252   1.214   1.006   1.335
   96TIP3    H2  253   1.117   0.896   1.373
   97TIP3   OH2  254   4.865   6.557   4.794
   97TIP3    H1  255   4.865   6.613   4.872
   97TIP3    H2  256   4.957   6.556   4.765
   98TIP3   OH2  257   7.060   2.417   0.461
   98TIP3    H1  258   7.078   2.342   0.405
   98TIP3    H2  259   7.030   2.379   0.544
   99TIP3   OH2  260   6.891   5.425   2.714
   99TIP3    H1  261   6.885   5.370   2.792
   99TIP3    H2  262   6.950   5.377   2.655
  100TIP3   OH2  263   5.981   4.530   0.343
  100TIP3    H1  264   6.018   4.471   0.408
  100TIP3    H2  265   6.027   4.613   0.356
  101TIP3   OH2  266   1.307   3.787   5.459
  101TIP3    H1  267   1.244   3.722   5.429
  101TIP3    H2  268   1.264   3.871   5.443
  102TIP3   OH2  269   3.592   2.664   3.185
  102TIP3    H1  270   3.564   2.718   3.259
  102TIP3    H2  271   3.522   2.599   3.174
  103TIP3   OH2  272   3.598   5.541   1.744
  103TIP3    H1  273   3.592   5.446   1.754
  103TIP3    H2  274   3.546   5.561   1.666
  104TIP3   OH2  275   5.908   1.173   5.694
  104TIP3    H1  276   5.839   1.194   5.631
  104TIP3    H2  277   5.952   1.257   5.710
  105TIP3   OH2  278   6.385   4.810   0.797
  105TIP3    H1  279   6.332   4.790   0.720
  105TIP3    H2  280   6.456   4.746   0.794
  106TIP3   OH2  281   3.403   0.988   4.829
  106TIP3    H1  282   3.321   0.940   4.825
  106TIP3    H2  283   3.383   1.066   4.881
  107TIP3   OH2  284   4.669   1.269   1.883
  107TIP3    H1  285   4.653   1.351   1.838
  107TIP3    H2  286   4.678   1.294   1.976
  108TIP3   OH2  287   3.123   0.725   1.992
  108TIP3    H1  288   3.036   0.696   1.966
  108TIP3    H2  289   3.129   0.704   2.085
  109TIP3   OH2  290   0.215   6.665   1.425
  109TIP3    H1  291   0.252   6.690   1.509
  109TIP3    H2  292   0.236   6.572   1.416
  110TIP3   OH2  293   1.055   0.207   1.852
  110TIP3    H1  294   1.065   0.302   1.850
  110TIP3    H2  295   1.084   0.178   1.765
  111TIP3   OH2  296   2.488   3.268   4.470
  111TIP3    H1  297   2.419   3.205   4.493
  111TIP3    H2  298   2.525   3.294   4.555
  112TIP3   OH2  299   6.403  -0.037   4.993
  112TIP3    H1  300   6.333  -0.041   4.928
  112TIP3    H2  301   6.434   0.054   4.988
  113TIP3   OH2  302   4.187   5.650   2.115
  113TIP3    H1  303   4.246   5.724   2.098
  113TIP3    H2  304   4.100   5.683   2.091
  114TIP3   OH2  305   3.133   0.888   4.950
  114TIP3    H1  306   3.155   0.795   4.962
  114TIP3    H2  307   3.082   0.890   4.870
  115TIP3   OH2  308   3.480   1.220   5.341
  115TIP3    H1  309   3.478   1.241   5.435
  115TIP3    H2  310   3.570   1.196   5.324
  116TIP3   OH2  311   5.054   3.809   1.720
  116TIP3    H1  312   5.119   3.849   1.662
  116TIP3    H2  313   5.003   3.883   1.753
  117TIP3   OH2  314   1.708   6.126   1.928
  117TIP3    H1  315   1.759   6.051   1.899
  117TIP3    H2  316   1.773   6.191   1.956
  118TIP3   OH2  317   5.981   3.679   2.328
  118TIP3    H1  318   6.014   3.606   2.381
  118TIP3    H2  319   6.004   3.655   2.238
  119TIP3   OH2  320   3.455  -0.051   1.403
  119TIP3    H1  321   3.428  -0.082   1.316
  119TIP3    H2  322   3.376  -0.057   1.457
  120TIP3   OH2  323   2.491   1.866   3.424
  120TIP3    H1  324   2.478   1.935   3.490
  120TIP3    H2  325   2.416   1.808   3.435
  121TIP3   OH2  326   3.343   0.001   1.936
  121TIP3    H1  327   3.268  -0.005   1.995
  121TIP3    H2  328   3.402   0.064   1.978
  122TIP3   OH2  329   4.400   3.326   3.839
  122TIP3    H1  330   4.395   3.373   3.922
  122TIP3    H2  331   4.386   3.234   3.863
  123TIP3   OH2  332   0.785   5.450   4.313
  123TIP3    H1  333   0.871   5.414   4.293
  123TIP3    H2  334   0.799   5.545   4.319
  124TIP3   OH2  335   6.306   1.012   3.930
  124TIP3    H1  336   6.366   1.086   3.927
  124TIP3    H2  337   6.355   0.941   3.971
  125TIP3   OH2  338   5.399   1.647   3.641
  125TIP3    H1  339   5.373   1.630   3.731
  125TIP3    H2  340   5.325   1.616   3.588
  126TIP3   OH2  341   0.603   6.041   2.914
  126TIP3    H1  342   0.673   6.099   2.943
  126TIP3    H2  343   0.553   6.022   2.993
  127TIP3   OH2  344   2.759   0.882   5.786
  127TIP3    H1  345   2.820   0.866   5.714
  127TIP3    H2  346   2.784   0.818   5.853
  128TIP3   OH2  347   3.238   3.598   1.828
  128TIP3    H1  348   3.216   3.691   1.828
  128TIP3    H2  349   3.324   3.595   1.871
  129TIP3   OH2  350   1.999   1.506   4.004
  129TIP3    H1  351   2.056   1.481   3.932
  129TIP3    H2  352   1.928   1.441   4.002
  130TIP3   OH2  353   6.902   5.506   4.801
  130TIP3    H1  354   6.889   5.411   4.798
  130TIP3    H2  355   6.947   5.521   4.885
  131TIP3   OH2  356   0.519   3.325   0.059
  131TIP3    H1  357   0.462   3.258   0.020
  131TIP3    H2  358   0.599   3.278   0.083
  132TIP3   OH2  359   6.090   1.252   4.886
  132TIP3    H1  360   6.129   1.288   4.806
  132TIP3    H2  361   6.143   1.289   4.957
  133TIP3   OH2  362   5.619   2.420   3.762
  133TIP3    H1  363   5.571   2.493   3.800
  133TIP3    H2  364   5.679   2.393   3.831
  134TIP3   OH2  365   1.429   2.260   2.444
  134TIP3    H1  366   1.401   2.291   2.358
  134TIP3    H2  367   1.474   2.178   2.427
  135TIP3   OH2  368   2.359   4.506   4.382
  135TIP3    H1  369   2.284   4.566   4.380
  135TIP3    H2  370   2.435   4.563   4.371
  136TIP3   OH2  371   6.294   4.130   5.655
  136TIP3    H1  372   6.371   4.182   5.676
  136TIP3    H2  373   6.280   4.144   5.561
  137TIP3   OH2  374   4.539   4.778   5.801
  137TIP3    H1  375   4.560   4.789   5.708
  137TIP3    H2  376   4.580   4.695   5.825
  138TIP3   OH2  377   5.753   1.548   3.495
  138TIP3    H1  378   5.809   1.619   3.524
  138TIP3    H2  379   5.698   1.528   3.572
  139TIP3   OH2  380   6.510   1.546   4.280
  139TIP3    H1  381   6.535   1.524   4.370
  139TIP3    H2  382   6.516   1.641   4.276
  140TIP3   OH2  383   1.865   1.328   1.660
  140TIP3    H1  384   1.823   1.258   1.610
  140TIP3    H2  385   1.814   1.334   1.741
  141TIP3   OH2  386   0.784   0.774   2.510
  141TIP3    H1  387   0.727   0.851   2.515
  141TIP3    H2  388   0.728   0.702   2.538
  142TIP3   OH2  389   2.953   0.179   4.290
  142TIP3    H1  390   2.933   0.273   4.288
  142TIP3    H2  391   2.994   0.166   4.375
  143TIP3   OH2  392   0.899   6.465   2.535
  143TIP3    H1  393   0.821   6.437   2.488
  143TIP3    H2  394   0.866   6.517   2.608
  144TIP3   OH2  395   6.375   2.560   4.871
  144TIP3    H1  396   6.341   2.500   4.805
  144TIP3    H2  397   6.462   2.525   4.893
  145TIP3   OH2  398   2.514   2.426   1.578
  145TIP3    H1  399   2.584   2.460   1.522
  145TIP3    H2  400   2.553   2.426   1.666
  146TIP3   OH2  401   3.883   5.318   1.137
  146TIP3    H1  402   3.826   5.362   1.074
  146TIP3    H2  403   3.948   5.385   1.160
  147TIP3   OH2  404   3.445   0.884   3.387
  147TIP3    H1  405   3.488   0.950   3.333
  147TIP3    H2  406   3.515   0.823   3.412
  148TIP3   OH2  407   6.462   0.575   5.052
  148TIP3    H1  408   6.445   0.521   5.130
  148TIP3    H2  409   6.434   0.520   4.979
  149TIP3   OH2  410   3.729   6.120   3.830
  149TIP3    H1  411   3.686   6.071   3.901
  149TIP3    H2  412   3.774   6.054   3.779
  150TIP3   OH2  413   6.869   5.941   1.217
  150TIP3    H1  414   6.788   5.895   1.239
  150TIP3    H2  415   6.877   6.009   1.284
  151TIP3   OH2  416   2.311   5.918   3.111
  151TIP3    H1  417   2.320   5.962   3.196
  151TIP3    H2  418   2.376   5.961   3.055
  152TIP3   OH2  419   4.391   3.598   5.309
  152TIP3    H1  420   4.384   3.506   5.286
  152TIP3    H2  421   4.483   3.609   5.335
  153TIP3   OH2  422   2.972   2.264   3.518
  153TIP3    H1  423   3.021   2.287   3.439
  153TIP3    H2  424   2.997   2.330   3.582
  154TIP3   OH2  425   1.152   0.317   3.260
  154TIP3    H1  426   1.195   0.322   3.346
  154TIP3    H2  427   1.177   0.232   3.226
  155TIP3   OH2  428   1.050   1.970   0.506
  155TIP3    H1  429   1.118   2.032   0.533
  155TIP3    H2  430   1.083   1.931   0.425
  156TIP3   OH2  431   3.262   2.920   3.691
  156TIP3    H1  432   3.265   2.961   3.778
  156TIP3    H2  433   3.313   2.979   3.635
  157TIP3   OH2  434   6.939   3.228   3.328
  157TIP3    H1  435   6.922   3.205   3.419
  157TIP3    H2  436   6.877   3.175   3.278
  158TIP3   OH2  437   2.623   0.136   3.818
  158TIP3    H1  438   2.648   0.098   3.733
  158TIP3    H2  439   2.706   0.141   3.866
  159TIP3   OH2  440   5.521   0.428   1.322
  159TIP3    H1  441   5.549   0.519   1.335
  159TIP3    H2  442   5.598   0.376   1.347
  160TIP3   OH2  443   6.939   2.159   5.084
  160TIP3    H1  444   6.924   2.163   5.179
  160TIP3    H2  445   7.029   2.191   5.073
  161TIP3   OH2  446   5.491   2.144   1.110
  161TIP3    H1  447   5.444   2.070   1.148
  161TIP3    H2  448   5.458   2.220   1.158
  162TIP3   OH2  449   2.320   6.751   3.283
  162TIP3    H1  450   2.313   6.711   3.196
  162TIP3    H2  451   2.390   6.815   3.274
  163TIP3   OH2  452   3.601   1.316   4.290
  163TIP3    H1  453   3.611   1.394   4.345
  163TIP3    H2  454   3.507   1.304   4.282
  164TIP3   OH2  455   4.950   5.130   0.277
  164TIP3    H1  456   5.036   5.147   0.238
  164TIP3    H2  457   4.966   5.128   0.371
  165TIP3   OH2  458   4.889   1.726   5.395
  165TIP3    H1  459   4.971   1.739   5.348
  165TIP3    H2  460   4.831   1.794   5.360
  166TIP3   OH2  461   5.577   6.196   5.272
  166TIP3    H1  462   5.634   6.162   5.341
  166TIP3    H2  463   5.488   6.188   5.308
  167TIP3   OH2  464   5.333   1.765   2.554
  167TIP3    H1  465   5.374   1.849   2.534
  167TIP3    H2  466   5.322   1.722   2.469
  168TIP3   OH2  467   6.670   5.161   1.935
  168TIP3    H1  468   6.601   5.226   1.921
  168TIP3    H2  469   6.652   5.093   1.870
  169TIP3   OH2  470   5.867   4.320   1.681
  169TIP3    H1  471   5.876   4.327   1.776
  169TIP3    H2  472   5.948   4.358   1.646
  170TIP3   OH2  473   5.231   1.934   2.157
  170TIP3    H1  474   5.239   1.956   2.064
  170TIP3    H2  475   5.161   1.992   2.189
  171TIP3   OH2  476   0.856   1.105   0.731
  171TIP3    H1  477   0.941   1.088   0.772
  171TIP3    H2  478   0.838   1.026   0.680
  172TIP3   OH2  479   6.312   1.307   4.708
  172TIP3    H1  480   6.362   1.282   4.785
  172TIP3    H2  481   6.282   1.224   4.671
  173TIP3   OH2  482   6.879   0.522   3.976
  173TIP3    H1  483   6.917   0.552   4.058
  173TIP3    H2  484   6.847   0.602   3.934
  174TIP3   OH2  485   0.975   3.150   1.212
  174TIP3    H1  486   1.037   3.079   1.190
  174TIP3    H2  487   1.001   3.178   1.299
  175TIP3   OH2  488   2.329   6.613   1.009
  175TIP3    H1  489   2.417   6.622   0.973
  175TIP3    H2  490   2.273   6.600   0.932
  176TIP3   OH2  491   3.452   2.531   0.146
  176TIP3    H1  492   3.435   2.614   0.101
  176TIP3    H2  493   3.386   2.527   0.215
  177TIP3   OH2  494   4.160   6.394   5.447
  177TIP3    H1  495   4.164   6.475   5.497
  177TIP3    H2  496   4.244   6.389   5.401
  178TIP3   OH2  497   2.201   3.044   2.508
  178TIP3    H1  498   2.221   3.079   2.420
  178TIP3    H2  499   2.237   3.109   2.568
  179TIP3   OH2  500   2.523   1.554   4.881
  179TIP3    H1  501   2.519   1.459   4.897
  179TIP3    H2  502   2.471   1.592   4.951
  180TIP3   OH2  503   2.753   3.372   3.632
  180TIP3    H1  504   2.822   3.314   3.667
  180TIP3    H2  505   2.722   3.421   3.708
  181TIP3   OH2  506   0.205   1.737   2.112
  181TIP3    H1  507   0.161   1.799   2.054
  181TIP3    H2  508   0.134   1.682   2.145
  182TIP3   OH2  509   0.893   1.489   3.077
  182TIP3    H1  510   0.903   1.481   2.983
  182TIP3    H2  511   0.798   1.497   3.090
  183TIP3   OH2  512   2.521   4.937   4.155
  183TIP3    H1  513   2.537   5.015   4.101
  183TIP3    H2  514   2.587   4.942   4.224
  184TIP3   OH2  515   1.044   5.586   4.587
  184TIP3    H1  516   1.067   5.493   4.588
  184TIP3    H2  517   1.046   5.612   4.679
  185TIP3   OH2  518   2.872   1.409   0.236
  185TIP3    H1  519   2.786   1.442   0.209
  185TIP3    H2  520   2.855   1.364   0.319
  186TIP3   OH2  521   3.308   3.568   3.910
  186TIP3    H1  522   3.303   3.474   3.929
  186TIP3    H2  523   3.350   3.572   3.824
  187TIP3   OH2  524   6.599   5.890   4.618
  187TIP3    H1  525   6.510   5.900   4.585
  187TIP3    H2  526   6.624   5.978   4.647
  188TIP3   OH2  527   0.431   5.464   1.914
  188TIP3    H1  528   0.405   5.547   1.874
  188TIP3    H2  529   0.352   5.432   1.957
  189TIP3   OH2  530   5.985   1.172   4.223
  189TIP3    H1  531   5.919   1.215   4.277
  189TIP3    H2  532   5.989   1.083   4.257
  190TIP3   OH2  533   0.660   6.617   5.134
  190TIP3    H1  534   0.631   6.659   5.215
  190TIP3    H2  535   0.618   6.531   5.136
  191TIP3   OH2  536   4.878   0.147   3.045
  191TIP3    H1  537   4.950   0.188   2.997
  191TIP3    H2  538   4.912   0.060   3.069
  192TIP3   OH2  539   4.949   5.083   1.518
  192TIP3    H1  540   4.960   5.152   1.452
  192TIP3    H2  541   4.854   5.070   1.522
  193TIP3   OH2  542   4.381   1.157   4.677
  193TIP3    H1  543   4.474   1.143   4.665
  193TIP3    H2  544   4.346   1.172   4.589
  194TIP3   OH2  545   1.850   5.008   2.354
  194TIP3    H1  546   1.817   5.097   2.365
  194TIP3    H2  547   1.938   5.019   2.320
  195TIP3   OH2  548   6.623   0.760   3.502
  195TIP3    H1  549   6.703   0.755   3.449
  195TIP3    H2  550   6.591   0.670   3.506
  196TIP3   OH2  551   7.092   1.812   5.609
  196TIP3    H1  552   7.018   1.760   5.640
  196TIP3    H2  553   7.151   1.749   5.568
  197TIP3   OH2  554   6.596   5.300   5.615
  197TIP3    H1  555   6.686   5.316   5.588
  197TIP3    H2  556   6.544   5.314   5.536
  198TIP3   OH2  557   1.621   6.454   0.164
  198TIP3    H1  558   1.577   6.507   0.231
  198TIP3    H2  559   1.575   6.370   0.167
  199TIP3   OH2  560   4.943   2.049   2.380
  199TIP3    H1  561   5.008   1.995   2.427
  199TIP3    H2  562   4.942   2.132   2.428
  200TIP3   OH2  563   3.892   2.972   2.930
  200TIP3    H1  564   3.949   2.980   2.854
  200TIP3    H2  565   3.823   3.036   2.915
  201TIP3   OH2  566   0.739   3.754   2.639
  201TIP3    H1  567   0.679   3.826   2.615
  201TIP3    H2  568   0.742   3.698   2.561
  202TIP3   OH2  569   1.171   4.295   2.969
  202TIP3    H1  570   1.128   4.239   3.034
  202TIP3    H2  571   1.134   4.268   2.885
  203TIP3   OH2  572   2.457   1.479   1.303
  203TIP3    H1  573   2.517   1.449   1.235
  203TIP3    H2  574   2.371   1.449   1.275
  204TIP3   OH2  575   1.664   1.320   0.517
  204TIP3    H1  576   1.645   1.235   0.476
  204TIP3    H2  577   1.582   1.344   0.560
  205TIP3   OH2  578   4.853   2.363   4.566
  205TIP3    H1  579   4.763   2.388   4.585
  205TIP3    H2  580   4.855   2.352   4.471
  206TIP3   OH2  581   2.117   3.371   3.106
  206TIP3    H1  582   2.137   3.294   3.053
  206TIP3    H2  583   2.021   3.375   3.108
  207TIP3   OH2  584   0.330   0.777   3.551
  207TIP3    H1  585   0.371   0.770   3.637
  207TIP3    H2  586   0.317   0.686   3.522
  208TIP3   OH2  587   5.394   4.939   4.755
  208TIP3    H1  588   5.445   4.995   4.813
  208TIP3    H2  589   5.307   4.936   4.795
  209TIP3   OH2  590   7.113   5.703   2.554
  209TIP3    H1  591   7.026   5.671   2.579
  209TIP3    H2  592   7.138   5.648   2.480
  210TIP3   OH2  593   6.911   4.294   4.277
  210TIP3    H1  594   6.874   4.286   4.189
  210TIP3    H2  595   6.869   4.224   4.328
  211TIP3   OH2  596   4.734   1.874   2.421
  211TIP3    H1  597   4.787   1.954   2.421
  211TIP3    H2  598   4.736   1.844   2.512
  212TIP3   OH2  599   5.803   6.311   4.348
  212TIP3    H1  600   5.769   6.243   4.406
  212TIP3    H2  601   5.759   6.392   4.376
  213TIP3   OH2  602   1.463   2.206   4.078
  213TIP3    H1  603   1.500   2.261   4.010
  213TIP3    H2  604   1.515   2.224   4.156
  214TIP3   OH2  605   6.307   3.756   3.402
  214TIP3    H1  606   6.226   3.730   3.446
  214TIP3    H2  607   6.304   3.711   3.318
  215TIP3   OH2  608   6.553   0.355   5.906
  215TIP3    H1  609   6.485   0.305   5.861
  215TIP3    H2  610   6.610   0.387   5.836
  216TIP3   OH2  611   5.950   1.528   3.179
  216TIP3    H1  612   5.955   1.479   3.097
  216TIP3    H2  613   5.880   1.484   3.228
  217TIP3   OH2  614   4.964   5.747   0.556
  217TIP3    H1  615   4.891   5.698   0.595
  217TIP3    H2  616   4.949   5.741   0.461
  218TIP3   OH2  617   6.658   1.655   4.016
  218TIP3    H1  618   6.663   1.565   4.046
  218TIP3    H2  619   6.664   1.707   4.096
  219TIP3   OH2  620   3.609   1.202   1.166
  219TIP3    H1  621   3.578   1.203   1.257
  219TIP3    H2  622   3.538   1.162   1.116
  220TIP3   OH2  623   6.093   0.474   2.436
  220TIP3    H1  624   6.142   0.420   2.374
  220TIP3    H2  625   6.018   0.420   2.461
  221TIP3   OH2  626   0.451   3.423   2.926
  221TIP3    H1  627   0.505   3.472   2.864
  221TIP3    H2  628   0.371   3.475   2.934
  222TIP3   OH2  629   5.634   5.788   2.437
  222TIP3    H1  630   5.690   5.805   2.513
  222TIP3    H2  631   5.593   5.703   2.455
  223TIP3   OH2  632   3.496   1.413   3.944
  223TIP3    H1  633   3.426   1.360   3.905
  223TIP3    H2  634   3.571   1.354   3.949
  224TIP3   OH2  635   4.669   2.668   4.719
  224TIP3    H1  636   4.762   2.666   4.742
  224TIP3    H2  637   4.659   2.749   4.669
  225TIP3   OH2  638   4.980   6.269   4.896
  225TIP3    H1  639   4.932   6.217   4.831
  225TIP3    H2  640   5.006   6.348   4.849
  226TIP3   OH2  641   2.573   5.725   5.776
  226TIP3    H1  642   2.654   5.682   5.750
  226TIP3    H2  643   2.511   5.653   5.790
  227TIP3   OH2  644   0.690   6.649   0.955
  227TIP3    H1  645   0.701   6.616   1.044
  227TIP3    H2  646   0.671   6.742   0.967
  228TIP3   OH2  647   5.966   2.993   0.439
  228TIP3    H1  648   5.938   2.997   0.348
  228TIP3    H2  649   5.993   2.902   0.452
  229TIP3   OH2  650   4.710   0.342   4.546
  229TIP3    H1  651   4.631   0.388   4.572
  229TIP3    H2  652   4.769   0.411   4.514
  230TIP3   OH2  653   5.071   0.548   1.755
  230TIP3    H1  654   5.115   0.544   1.840
  230TIP3    H2  655   5.113   0.480   1.703
  231TIP3   OH2  656   2.142   5.890   1.643
  231TIP3    H1  657   2.209   5.957   1.656
  231TIP3    H2  658   2.125   5.855   1.730
  232TIP3   OH2  659   7.114   0.630   3.112
  232TIP3    H1  660   7.075   0.636   3.199
  232TIP3    H2  661   7.041   0.601   3.056
  233TIP3   OH2  662   2.750   1.604   4.221
  233TIP3    H1  663   2.691   1.627   4.293
  233TIP3    H2  664   2.697   1.549   4.163
  234TIP3   OH2  665   4.523   2.565   1.208
  234TIP3    H1  666   4.517   2.470   1.204
  234TIP3    H2  667   4.460   2.591   1.276
  235TIP3   OH2  668   5.610   3.189   2.052
  235TIP3    H1  669   5.603   3.174   2.146
  235TIP3    H2  670   5.604   3.284   2.042
  236TIP3   OH2  671   0.768   5.970   4.566
  236TIP3    H1  672   0.862   5.959   4.578
  236TIP3    H2  673   0.759   6.056   4.525
  237TIP3   OH2  674   0.266   2.083   0.142
  237TIP3    H1  675   0.255   2.165   0.093
  237TIP3    H2  676   0.179   2.066   0.179
  238TIP3   OH2  677   4.296   3.797   3.311
  238TIP3    H1  678   4.311   3.886   3.340
  238TIP3    H2  679   4.331   3.742   3.381
  239TIP3   OH2  680   5.583   5.497   1.184
  239TIP3    H1  681   5.592   5.536   1.098
  239TIP3    H2  682   5.591   5.570   1.245
  240TIP3   OH2  683   5.427   4.411   2.166
  240TIP3    H1  684   5.349   4.411   2.222
  240TIP3    H2  685   5.494   4.368   2.219
  241TIP3   OH2  686   2.199   4.257   3.110
  241TIP3    H1  687   2.189   4.167   3.082
  241TIP3    H2  688   2.141   4.307   3.052
  242TIP3   OH2  689   5.471   1.872   5.058
  242TIP3    H1  690   5.392   1.821   5.075
  242TIP3    H2  691   5.488   1.861   4.964
  243TIP3   OH2  692   6.272   0.058   0.481
  243TIP3    H1  693   6.351   0.005   0.493
  243TIP3    H2  694   6.293   0.115   0.407
  244TIP3   OH2  695   0.690   0.100   2.660
  244TIP3    H1  696   0.781   0.125   2.678
  244TIP3    H2  697   0.694   0.007   2.639
  245TIP3   OH2  698   1.632   4.398   4.509
  245TIP3    H1  699   1.608   4.325   4.567
  245TIP3    H2  700   1.671   4.355   4.432
  246TIP3   OH2  701   4.627   4.246   5.067
  246TIP3    H1  702   4.658   4.242   5.157
  246TIP3    H2  703   4.538   4.211   5.071
  247TIP3   OH2  704   5.520   3.192   2.373
  247TIP3    H1  705   5.538   3.283   2.349
  247TIP3    H2  706   5.428   3.192   2.401
  248TIP3   OH2  707   1.535   4.324   5.254
  248TIP3    H1  708   1.615   4.339   5.305
  248TIP3    H2  709   1.508   4.412   5.227
  249TIP3   OH2  710   4.683   6.714   1.890
  249TIP3    H1  711   4.668   6.726   1.796
  249TIP3    H2  712   4.777   6.726   1.901
  250TIP3   OH2  713   3.788   2.212   3.220
  250TIP3    H1  714   3.736   2.227   3.142
  250TIP3    H2  715   3.756   2.277   3.283
  251TIP3   OH2  716   1.194   4.800   1.455
  251TIP3    H1  717   1.112   4.751   1.462
  251TIP3    H2  718   1.169   4.880   1.407
  252TIP3   OH2  719   7.177   6.694   5.569
  252TIP3    H1  720   7.212   6.629   5.629
  252TIP3    H2  721   7.144   6.643   5.495
  253TIP3   OH2  722   3.818   3.530   0.668
  253TIP3    H1  723   3.724   3.515   0.682
  253TIP3    H2  724   3.859   3.499   0.749
  254TIP3   OH2  725   4.616   1.150   4.177
  254TIP3    H1  726   4.683   1.183   4.117
  254TIP3    H2  727   4.655   1.072   4.216
  255TIP3   OH2  728   3.180   4.352   0.217
  255TIP3    H1  729   3.120   4.288   0.257
  255TIP3    H2  730   3.142   4.370   0.131
  256TIP3   OH2  731   4.534   4.880   5.242
  256TIP3    H1  732   4.450   4.919   5.263
  256TIP3    H2  733   4.521   4.841   5.155
  257TIP3   OH2  734   0.260   1.630   5.569
  257TIP3    H1  735   0.198   1.605   5.639
  257TIP3    H2  736   0.273   1.549   5.519
  258TIP3   OH2  737   4.262   4.086   3.594
  258TIP3    H1  738   4.184   4.031   3.585
  258TIP3    H2  739   4.316   4.040   3.658
  259TIP3   OH2  740   3.268   4.851   3.103
  259TIP3    H1  741   3.177   4.834   3.127
  259TIP3    H2  742   3.264   4.877   3.012
  260TIP3   OH2  743   3.323   5.694   0.707
  260TIP3    H1  744   3.303   5.655   0.792
  260TIP3    H2  745   3.332   5.620   0.648
  261TIP3   OH2  746   1.815   1.379   2.525
  261TIP3    H1  747   1.889   1.329   2.560
  261TIP3    H2  748   1.803   1.345   2.437
  262TIP3   OH2  749   3.273   5.342   4.521
  262TIP3    H1  750   3.255   5.258   4.478
  262TIP3    H2  751   3.351   5.325   4.574
  263TIP3   OH2  752   6.052  -0.057   4.520
  263TIP3    H1  753   6.144  -0.054   4.493
  263TIP3    H2  754   6.028   0.034   4.534
  264TIP3   OH2  755   2.702   5.805   2.219
  264TIP3    H1  756   2.672   5.715   2.204
  264TIP3    H2  757   2.654   5.833   2.297
  265TIP3   OH2  758   0.087   3.890   1.304
  265TIP3    H1  759   0.073   3.971   1.254
  265TIP3    H2  760   0.154   3.913   1.369
  266TIP3   OH2  761   5.859   1.500   1.410
  266TIP3    H1  762   5.953   1.483   1.397
  266TIP3    H2  763   5.815   1.427   1.367
  267TIP3   OH2  764   3.568   5.072   4.882
  267TIP3    H1  765   3.592   5.071   4.789
  267TIP3    H2  766   3.472   5.071   4.882
  268TIP3   OH2  767   5.395   3.697   2.206
  268TIP3    H1  768   5.397   3.640   2.282
  268TIP3    H2  769   5.311   3.679   2.164
  269TIP3   OH2  770   6.218   3.628   0.215
  269TIP3    H1  771   6.290   3.602   0.158
  269TIP3    H2  772   6.210   3.556   0.278
  270TIP3   OH2  773   3.902   2.614   3.242
  270TIP3    H1  774   3.943   2.698   3.221
  270TIP3    H2  775   3.898   2.567   3.159
  271TIP3   OH2  776   4.883   0.458   3.540
  271TIP3    H1  777   4.905   0.365   3.544
  271TIP3    H2  778   4.965   0.502   3.563
  272TIP3   OH2  779   2.395   6.697   5.453
  272TIP3    H1  780   2.402   6.718   5.546
  272TIP3    H2  781   2.412   6.603   5.448
  273TIP3   OH2  782   2.470   1.570   1.633
  273TIP3    H1  783   2.493   1.536   1.547
  273TIP3    H2  784   2.545   1.624   1.659
  274TIP3   OH2  785   1.346   4.262   0.547
  274TIP3    H1  786   1.423   4.210   0.526
  274TIP3    H2  787   1.303   4.278   0.463
  275TIP3   OH2  788   2.194   2.477   4.770
  275TIP3    H1  789   2.233   2.527   4.698
  275TIP3    H2  790   2.254   2.490   4.843
  276TIP3   OH2  791   0.075   3.247   5.174
  276TIP3    H1  792   0.161   3.225   5.138
  276TIP3    H2  793   0.051   3.172   5.229
  277TIP3   OH2  794   4.711   6.287   4.853
  277TIP3    H1  795   4.639   6.302   4.792
  277TIP3    H2  796   4.753   6.373   4.862
  278TIP3   OH2  797   4.955   5.120   5.463
  278TIP3    H1  798   5.021   5.178   5.501
  278TIP3    H2  799   4.969   5.127   5.369
  279TIP3   OH2  800   6.836   2.830   1.157
  279TIP3    H1  801   6.882   2.791   1.083
  279TIP3    H2  802   6.824   2.758   1.219
  280TIP3   OH2  803   6.211   0.209   4.248
  280TIP3    H1  804   6.223   0.188   4.155
  280TIP3    H2  805   6.187   0.302   4.249
  281TIP3   OH2  806   0.269   6.580   3.789
  281TIP3    H1  807   0.259   6.491   3.821
  281TIP3    H2  808   0.241   6.577   3.698
  282TIP3   OH2  809   5.830   4.955   5.011
  282TIP3    H1  810   5.901   4.907   5.053
  282TIP3    H2  811   5.764   4.965   5.079
  283TIP3   OH2  812   0.930   0.637   2.126
  283TIP3    H1  813   0.861   0.688   2.084
  283TIP3    H2  814   0.981   0.600   2.053
  284TIP3   OH2  815   6.565   0.818   0.067
  284TIP3    H1  816   6.477   0.786   0.048
  284TIP3    H2  817   6.573   0.811   0.162
  285TIP3   OH2  818   1.933   0.983   4.798
  285TIP3    H1  819   1.975   1.031   4.869
  285TIP3    H2  820   1.886   0.912   4.841
  286TIP3   OH2  821   2.727   5.211   3.442
  286TIP3    H1  822   2.731   5.252   3.529
  286TIP3    H2  823   2.796   5.145   3.443
  287TIP3   OH2  824   3.318   6.574   4.116
  287TIP3    H1  825   3.381   6.645   4.133
  287TIP3    H2  826   3.339   6.507   4.182
  288TIP3   OH2  827   5.317   2.842   0.584
  288TIP3    H1  828   5.337   2.913   0.645
  288TIP3    H2  829   5.257   2.785   0.632
  289TIP3   OH2  830   3.272   3.425   4.839
  289TIP3    H1  831   3.239   3.462   4.921
  289TIP3    H2  832   3.228   3.476   4.771
  290TIP3   OH2  833   1.928   4.646   2.041
  290TIP3    H1  834   1.974   4.706   2.101
  290TIP3    H2  835   1.835   4.661   2.060
  291TIP3   OH2  836   6.358   2.272  -0.003
  291TIP3    H1  837   6.386   2.193  -0.049
  291TIP3    H2  838   6.371   2.251   0.090
  292TIP3   OH2  839   1.879   1.862   5.360
  292TIP3    H1  840   1.837   1.938   5.319
  292TIP3    H2  841   1.957   1.846   5.306
  293TIP3   OH2  842   6.317   3.757   2.841
  293TIP3    H1  843   6.394   3.779   2.789
  293TIP3    H2  844   6.243   3.783   2.787
  294TIP3   OH2  845   5.554   6.650   2.639
  294TIP3    H1  846   5.504   6.581   2.682
  294TIP3    H2  847   5.601   6.605   2.569
  295TIP3   OH2  848   0.583   0.513   2.391
  295TIP3    H1  849   0.527   0.442   2.358
  295TIP3    H2  850   0.599   0.489   2.483
  296TIP3   OH2  851   4.709   5.237   0.371
  296TIP3    H1  852   4.694   5.162   0.313
  296TIP3    H2  853   4.779   5.286   0.328
  297TIP3   OH2  854   3.690   2.336   2.712
  297TIP3    H1  855   3.722   2.421   2.681
  297TIP3    H2  856   3.595   2.346   2.718
  298TIP3   OH2  857   2.305   3.643   0.744
  298TIP3    H1  858   2.370   3.577   0.765
  298TIP3    H2  859   2.221   3.599   0.759
  299TIP3   OH2  860   4.782   5.303   4.040
  299TIP3    H1  861   4.787   5.328   3.948
  299TIP3    H2  862   4.703   5.346   4.072
  300TIP3   OH2  863   7.171   3.303   0.233
  300TIP3    H1  864   7.087   3.290   0.278
  300TIP3    H2  865   7.147   3.318   0.142
  301TIP3   OH2  866   4.132   5.814   5.666
  301TIP3    H1  867   4.201   5.879   5.656
  301TIP3    H2  868   4.127   5.771   5.580
  302TIP3   OH2  869   3.476   5.311   4.730
  302TIP3    H1  870   3.426   5.298   4.810
  302TIP3    H2  871   3.564   5.279   4.751
  303TIP3   OH2  872   0.794   6.131   5.374
  303TIP3    H1  873   0.809   6.207   5.318
  303TIP3    H2  874   0.752   6.067   5.317
  304TIP3   OH2  875   0.286   1.964   4.764
  304TIP3    H1  876   0.326   2.045   4.795
  304TIP3    H2  877   0.243   1.928   4.841
  305TIP3   OH2  878   0.571   4.922   5.527
  305TIP3    H1  879   0.540   4.869   5.600
  305TIP3    H2  880   0.666   4.916   5.531
  306TIP3   OH2  881   3.409   2.839   4.274
  306TIP3    H1  882   3.433   2.891   4.197
  306TIP3    H2  883   3.417   2.899   4.348
  307TIP3   OH2  884   6.665   4.258   1.993
  307TIP3    H1  885   6.634   4.245   1.904
  307TIP3    H2  886   6.641   4.349   2.014
  308TIP3   OH2  887   2.048   4.894   2.872
  308TIP3    H1  888   2.030   4.924   2.783
  308TIP3    H2  889   1.981   4.828   2.889
  309TIP3   OH2  890   5.865   0.683   1.685
  309TIP3    H1  891   5.827   0.651   1.767
  309TIP3    H2  892   5.955   0.651   1.687
  310TIP3   OH2  893   6.346   0.024   1.178
  310TIP3    H1  894   6.311   0.112   1.193
  310TIP3    H2  895   6.306  -0.005   1.096
  311TIP3   OH2  896   4.789   5.805   2.298
  311TIP3    H1  897   4.708   5.786   2.250
  311TIP3    H2  898   4.761   5.863   2.369
  312TIP3   OH2  899   1.117   4.373   3.628
  312TIP3    H1  900   1.038   4.420   3.601
  312TIP3    H2  901   1.167   4.437   3.679
  313TIP3   OH2  902   1.678   2.037   2.001
  313TIP3    H1  903   1.642   2.097   1.935
  313TIP3    H2  904   1.755   2.000   1.959
  314TIP3   OH2  905   5.789   6.812   5.827
  314TIP3    H1  906   5.831   6.874   5.767
  314TIP3    H2  907   5.812   6.843   5.914
  315TIP3   OH2  908   5.928   4.580   2.862
  315TIP3    H1  909   5.966   4.530   2.790
  315TIP3    H2  910   5.996   4.643   2.886
  316TIP3   OH2  911   6.009   6.604   1.797
  316TIP3    H1  912   5.915   6.609   1.779
  316TIP3    H2  913   6.015   6.600   1.893
  317TIP3   OH2  914   1.670   5.310   2.856
  317TIP3    H1  915   1.650   5.401   2.881
  317TIP3    H2  916   1.756   5.293   2.894
  318TIP3   OH2  917   3.073   0.352   4.999
  318TIP3    H1  918   3.067   0.408   4.922
  318TIP3    H2  919   3.145   0.292   4.979
  319TIP3   OH2  920   2.052   0.611   0.848
  319TIP3    H1  921   2.143   0.640   0.839
  319TIP3    H2  922   2.022   0.649   0.930
  320TIP3   OH2  923   0.288   2.405   1.340
  320TIP3    H1  924   0.314   2.443   1.256
  320TIP3    H2  925   0.199   2.373   1.325
  321TIP3   OH2  926   0.481   5.919   5.029
  321TIP3    H1  927   0.400   5.874   5.050
  321TIP3    H2  928   0.459   5.977   4.956
  322TIP3   OH2  929   2.944   3.896   4.793
  322TIP3    H1  930   2.878   3.897   4.724
  322TIP3    H2  931   2.954   3.803   4.816
  323TIP3   OH2  932   1.457   3.098   0.670
  323TIP3    H1  933   1.550   3.122   0.667
  323TIP3    H2  934   1.451   3.018   0.618
  324TIP3   OH2  935   0.195   2.530   2.682
  324TIP3    H1  936   0.215   2.463   2.616
  324TIP3    H2  937   0.110   2.565   2.656
  325TIP3   OH2  938   1.304   4.568   2.750
  325TIP3    H1  939   1.216   4.564   2.712
  325TIP3    H2  940   1.291   4.546   2.842
  326TIP3   OH2  941   1.489   4.966   0.320
  326TIP3    H1  942   1.408   5.010   0.297
  326TIP3    H2  943   1.469   4.919   0.401
  327TIP3   OH2  944   7.195   0.820   0.622
  327TIP3    H1  945   7.157   0.766   0.553
  327TIP3    H2  946   7.290   0.804   0.615
  328TIP3   OH2  947   3.235   3.841   3.894
  328TIP3    H1  948   3.272   3.865   3.809
  328TIP3    H2  949   3.254   3.747   3.903
  329TIP3   OH2  950   1.418   6.554   4.148
  329TIP3    H1  951   1.436   6.547   4.055
  329TIP3    H2  952   1.496   6.518   4.190
  330TIP3   OH2  953   3.626   1.260   0.280
  330TIP3    H1  954   3.717   1.234   0.267
  330TIP3    H2  955   3.582   1.179   0.306
  331TIP3   OH2  956   2.396   2.136   1.322
  331TIP3    H1  957   2.347   2.169   1.397
  331TIP3    H2  958   2.463   2.079   1.360
  332TIP3   OH2  959   6.321   3.116   2.398
  332TIP3    H1  960   6.413   3.092   2.411
  332TIP3    H2  961   6.283   3.112   2.486
  333TIP3   OH2  962   5.816   6.469   1.478
  333TIP3    H1  963   5.777   6.438   1.396
  333TIP3    H2  964   5.750   6.449   1.545
  334TIP3   OH2  965   6.006   5.997   3.083
  334TIP3    H1  966   6.063   5.923   3.106
  334TIP3    H2  967   5.957   6.015   3.163
  335TIP3   OH2  968   5.619   3.247   0.810
  335TIP3    H1  969   5.656   3.229   0.724
  335TIP3    H2  970   5.693   3.241   0.870
  336TIP3   OH2  971   2.113   4.238   5.267
  336TIP3    H1  972   2.174   4.302   5.304
  336TIP3    H2  973   2.083   4.186   5.342
  337TIP3   OH2  974   0.900   3.824   1.100
  337TIP3    H1  975   0.920   3.737   1.067
  337TIP3    H2  976   0.805   3.833   1.090
  338TIP3   OH2  977   2.796   0.215   1.700
  338TIP3    H1  978   2.832   0.236   1.614
  338TIP3    H2  979   2.726   0.152   1.683
  339TIP3   OH2  980   4.874   0.173   1.986
  339TIP3    H1  981   4.793   0.136   2.019
  339TIP3    H2  982   4.850   0.261   1.956
  340TIP3   OH2  983   2.702   6.113   4.963
  340TIP3    H1  984   2.764   6.044   4.987
  340TIP3    H2  985   2.747   6.164   4.895
  341TIP3   OH2  986   5.635   5.867   2.172
  341TIP3    H1  987   5.728   5.870   2.151
  341TIP3    H2  988   5.632   5.864   2.267
  342TIP3   OH2  989   5.503   3.568   2.967
  342TIP3    H1  990   5.510   3.631   3.039
  342TIP3    H2  991   5.500   3.622   2.888
  343TIP3   OH2  992   5.176   4.987   2.006
  343TIP3    H1  993   5.086   5.004   1.978
  343TIP3    H2  994   5.173   4.994   2.101
  344TIP3   OH2  995   2.493   6.204   1.387
  344TIP3    H1  996   2.459   6.293   1.397
  344TIP3    H2  997   2.588   6.215   1.383
  345TIP3   OH2  998   3.572   4.601   5.508
  345TIP3    H1  999   3.551   4.666   5.575
  345TIP3    H2 1000   3.497   4.601   5.449
  346TIP3   OH2 1001   6.529   0.620   4.727
  346TIP3    H1 1002   6.463   0.668   4.776
  346TIP3    H2 1003   6.517   0.528   4.753
  347TIP3   OH2 1004   1.409   4.558   1.907
  347TIP3    H1 1005   1.365   4.508   1.976
  347TIP3    H2 1006   1.354   4.545   1.830
  348TIP3   OH2 1007   5.439   6.120   0.567
  348TIP3    H1 1008   5.344   6.111   0.562
  348TIP3    H2 1009   5.455   6.211   0.541
  349TIP3   OH2 1010   4.721   5.579   1.562
  349TIP3    H1 1011   4.800   5.575   1.616
  349TIP3    H2 1012   4.659   5.630   1.613
  350TIP3   OH2 1013   0.213   0.439   0.759
  350TIP3    H1 1014   0.255   0.379   0.822
  350TIP3    H2 1015   0.206   0.522   0.806
  351TIP3   OH2 1016   2.973   2.833   5.317
  351TIP3    H1 1017   2.913   2.785   5.259
  351TIP3    H2 1018   3.045   2.772   5.333
  352TIP3   OH2 1019   3.597   5.473   4.412
  352TIP3    H1 1020   3.653   5.399   4.437
  352TIP3    H2 1021   3.588   5.524   4.492
  353TIP3   OH2 1022   5.065   1.278   5.722
  353TIP3    H1 1023   5.112   1.233   5.652
  353TIP3    H2 1024   5.041   1.363   5.684
  354TIP3   OH2 1025   0.119   5.406   5.857
  354TIP3    H1 1026   0.124   5.392   5.763
  354TIP3    H2 1027   0.121   5.501   5.867
  355TIP3   OH2 1028   0.671   1.697   3.961
  355TIP3    H1 1029   0.677   1.621   4.019
  355TIP3    H2 1030   0.657   1.659   3.874
  356TIP3   OH2 1031   3.155   1.234   0.620
  356TIP3    H1 1032   3.158   1.178   0.543
  356TIP3    H2 1033   3.219   1.196   0.680
  357TIP3   OH2 1034   0.363   3.118   3.853
  357TIP3    H1 1035   0.426   3.116   3.781
  357TIP3    H2 1036   0.377   3.203   3.895
  358TIP3   OH2 1037   6.676   1.446   5.144
  358TIP3    H1 1038   6.683   1.402   5.228
  358TIP3    H2 1039   6.601   1.405   5.101
  359TIP3   OH2 1040   0.732   6.129   0.515
  359TIP3    H1 1041   0.688   6.206   0.551
  359TIP3    H2 1042   0.674   6.099   0.444
  360TIP3   OH2 1043   1.609   5.253   3.464
  360TIP3    H1 1044   1.601   5.283   3.555
  360TIP3    H2 1045   1.675   5.184   3.468
  361TIP3   OH2 1046   4.193   4.366   3.646
  361TIP3    H1 1047   4.226   4.311   3.575
  361TIP3    H2 1048   4.141   4.307   3.701
  362TIP3   OH2 1049   3.895   1.542   3.152
  362TIP3    H1 1050   3.905   1.520   3.059
  362TIP3    H2 1051   3.921   1.463   3.199
  363TIP3   OH2 1052   3.765   4.908   3.026
  363TIP3    H1 1053   3.761   4.849   3.102
  363TIP3    H2 1054   3.794   4.852   2.954
  364TIP3   OH2 1055   6.263   6.337   1.399
  364TIP3    H1 1056   6.213   6.384   1.466
  364TIP3    H2 1057   6.199   6.279   1.358
  365TIP3   OH2 1058   3.215   1.901   1.553
  365TIP3    H1 1059   3.140   1.960   1.549
  365TIP3    H2 1060   3.253   1.903   1.465
  366TIP3   OH2 1061   6.128   3.426   1.575
  366TIP3    H1 1062   6.140   3.337   1.610
  366TIP3    H2 1063   6.217   3.454   1.552
  367TIP3   OH2 1064   3.964   5.392   3.500
  367TIP3    H1 1065   3.873   5.366   3.482
  367TIP3    H2 1066   4.016   5.319   3.467
  368TIP3   OH2 1067   0.401   1.140   1.882
  368TIP3    H1 1068   0.453   1.143   1.963
  368TIP3    H2 1069   0.312   1.120   1.912
  369TIP3   OH2 1070   3.743   1.422   2.481
  369TIP3    H1 1071   3.733   1.469   2.398
  369TIP3    H2 1072   3.684   1.467   2.541
  370TIP3   OH2 1073   6.388   0.146   5.417
  370TIP3    H1 1074   6.331   0.216   5.385
  370TIP3    H2 1075   6.356   0.067   5.375
  371TIP3   OH2 1076   0.629   4.692   3.268
  371TIP3    H1 1077   0.645   4.599   3.285
  371TIP3    H2 1078   0.582   4.693   3.184
  372TIP3   OH2 1079   2.716   2.215   1.801
  372TIP3    H1 1080   2.635   2.225   1.852
  372TIP3    H2 1081   2.743   2.305   1.781
  373TIP3   OH2 1082   2.567   0.381   3.475
  373TIP3    H1 1083   2.612   0.398   3.558
  373TIP3    H2 1084   2.519   0.461   3.458
  374TIP3   OH2 1085   1.182   5.036   4.089
  374TIP3    H1 1086   1.206   5.129   4.081
  374TIP3    H2 1087   1.123   5.034   4.165
  375TIP3   OH2 1088   5.241   6.734   1.838
  375TIP3    H1 1089   5.328   6.719   1.876
  375TIP3    H2 1090   5.235   6.829   1.827
  376TIP3   OH2 1091   3.702   3.840   0.064
  376TIP3    H1 1092   3.715   3.745   0.065
  376TIP3    H2 1093   3.698   3.863  -0.029
  377TIP3   OH2 1094   1.529   3.893   2.978
  377TIP3    H1 1095   1.624   3.899   2.971
  377TIP3    H2 1096   1.502   3.979   3.012
  378TIP3   OH2 1097   0.111   3.237   4.357
  378TIP3    H1 1098   0.030   3.186   4.364
  378TIP3    H2 1099   0.152   3.229   4.443
  379TIP3   OH2 1100   6.559   3.931   5.368
  379TIP3    H1 1101   6.571   4.024   5.349
  379TIP3    H2 1102   6.640   3.905   5.412
  380TIP3   OH2 1103   6.931   2.296   3.006
  380TIP3    H1 1104   6.842   2.314   2.976
  380TIP3    H2 1105   6.947   2.361   3.075
  381TIP3   OH2 1106   4.998   5.426   4.390
  381TIP3    H1 1107   4.947   5.368   4.447
  381TIP3    H2 1108   4.941   5.501   4.374
  382TIP3   OH2 1109   3.671   3.990   3.585
  382TIP3    H1 1110   3.720   4.024   3.511
  382TIP3    H2 1111   3.652   4.067   3.639
  383TIP3   OH2 1112   0.475   3.837   0.482
  383TIP3    H1 1113   0.407   3.777   0.451
  383TIP3    H2 1114   0.556   3.787   0.474
  384TIP3   OH2 1115   5.216   2.634   3.468
  384TIP3    H1 1116   5.165   2.585   3.532
  384TIP3    H2 1117   5.300   2.588   3.464
  385TIP3   OH2 1118   3.962   1.114   3.170
  385TIP3    H1 1119   3.959   1.201   3.209
  385TIP3    H2 1120   3.927   1.125   3.082
  386TIP3   OH2 1121   4.543   3.500   2.759
  386TIP3    H1 1122   4.462   3.452   2.776
  386TIP3    H2 1123   4.523   3.590   2.785
  387TIP3   OH2 1124   0.013   6.145   2.501
  387TIP3    H1 1125   0.048   6.223   2.457
  387TIP3    H2 1126   0.078   6.124   2.568
  388TIP3   OH2 1127   5.273   4.702   2.219
  388TIP3    H1 1128   5.209   4.701   2.148
  388TIP3    H2 1129   5.257   4.784   2.265
  389TIP3   OH2 1130   1.006   5.366   3.356
  389TIP3    H1 1131   1.020   5.352   3.449
  389TIP3    H2 1132   0.951   5.294   3.328
  390TIP3   OH2 1133   5.583   5.408   3.928
  390TIP3    H1 1134   5.659   5.452   3.965
  390TIP3    H2 1135   5.508   5.458   3.961
  391TIP3   OH2 1136   2.283   2.675   1.079
  391TIP3    H1 1137   2.272   2.758   1.033
  391TIP3    H2 1138   2.338   2.696   1.154
  392TIP3   OH2 1139   1.242   4.613   3.745
  392TIP3    H1 1140   1.324   4.643   3.784
  392TIP3    H2 1141   1.174   4.651   3.800
  393TIP3   OH2 1142   3.557   4.212   3.725
  393TIP3    H1 1143   3.532   4.302   3.704
  393TIP3    H2 1144   3.554   4.207   3.820
  394TIP3   OH2 1145   4.340   0.945   5.855
  394TIP3    H1 1146   4.406   1.007   5.825
  394TIP3    H2 1147   4.274   1.001   5.898
  395TIP3   OH2 1148   6.501   0.960   1.193
  395TIP3    H1 1149   6.574   0.899   1.197
  395TIP3    H2 1150   6.480   0.978   1.285
  396TIP3   OH2 1151   6.988   1.484   0.391
  396TIP3    H1 1152   6.904   1.486   0.345
  396TIP3    H2 1153   6.990   1.399   0.435
  397TIP3   OH2 1154   1.930   2.270   3.558
  397TIP3    H1 1155   1.873   2.345   3.540
  397TIP3    H2 1156   1.923   2.216   3.479
  398TIP3   OH2 1157   3.143   5.230   1.203
  398TIP3    H1 1158   3.159   5.140   1.176
  398TIP3    H2 1159   3.118   5.276   1.123
  399TIP3   OH2 1160   3.774   6.047   1.891
  399TIP3    H1 1161   3.826   6.127   1.880
  399TIP3    H2 1162   3.770   6.008   1.804
  400TIP3   OH2 1163   3.957   1.784   3.618
  400TIP3    H1 1164   3.949   1.773   3.713
  400TIP3    H2 1165   3.932   1.699   3.582
  401TIP3   OH2 1166   5.113   1.702   4.822
  401TIP3    H1 1167   5.018   1.707   4.838
  401TIP3    H2 1168   5.145   1.790   4.844
  402TIP3   OH2 1169   7.188   1.060   5.807
  402TIP3    H1 1170   7.268   1.093   5.766
  402TIP3    H2 1171   7.166   1.125   5.873
  403TIP3   OH2 1172   0.770   1.991   0.495
  403TIP3    H1 1173   0.865   1.984   0.493
  403TIP3    H2 1174   0.752   2.074   0.539
  404TIP3   OH2 1175   0.475   2.380   3.509
  404TIP3    H1 1176   0.403   2.408   3.453
  404TIP3    H2 1177   0.481   2.447   3.576
  405TIP3   OH2 1178   0.606   3.932   2.462
  405TIP3    H1 1179   0.511   3.927   2.451
  405TIP3    H2 1180   0.639   3.855   2.418
  406TIP3   OH2 1181   6.622   1.235   4.666
  406TIP3    H1 1182   6.717   1.242   4.656
  406TIP3    H2 1183   6.609   1.216   4.758
  407TIP3   OH2 1184   3.203   6.010   3.353
  407TIP3    H1 1185   3.150   5.972   3.283
  407TIP3    H2 1186   3.282   5.956   3.355
  408TIP3   OH2 1187   2.994   4.403   2.807
  408TIP3    H1 1188   3.084   4.398   2.774
  408TIP3    H2 1189   2.967   4.493   2.790
  409TIP3   OH2 1190   1.049   6.586   0.184
  409TIP3    H1 1191   0.993   6.586   0.107
  409TIP3    H2 1192   1.102   6.507   0.175
  410TIP3   OH2 1193   5.327   0.128   5.516
  410TIP3    H1 1194   5.324   0.047   5.566
  410TIP3    H2 1195   5.258   0.118   5.451
  411TIP3   OH2 1196   1.184   6.371   0.112
  411TIP3    H1 1197   1.264   6.322   0.094
  411TIP3    H2 1198   1.140   6.320   0.180
  412TIP3   OH2 1199   6.658   4.802   4.410
  412TIP3    H1 1200   6.700   4.718   4.387
  412TIP3    H2 1201   6.667   4.855   4.331
  413TIP3   OH2 1202   2.968   2.220   2.990
  413TIP3    H1 1203   2.923   2.250   2.912
  413TIP3    H2 1204   2.999   2.301   3.032
  414TIP3   OH2 1205   2.941   0.908   2.236
  414TIP3    H1 1206   2.986   0.825   2.222
  414TIP3    H2 1207   2.991   0.950   2.307
  415TIP3   OH2 1208   6.303   1.388   1.670
  415TIP3    H1 1209   6.327   1.369   1.761
  415TIP3    H2 1210   6.306   1.483   1.663
  416TIP3   OH2 1211   5.192   3.203   1.025
  416TIP3    H1 1212   5.209   3.280   0.971
  416TIP3    H2 1213   5.113   3.226   1.074
  417TIP3   OH2 1214   0.769   2.249   0.593
  417TIP3    H1 1215   0.677   2.273   0.584
  417TIP3    H2 1216   0.816   2.333   0.591
  418TIP3   OH2 1217   4.542   2.479   2.503
  418TIP3    H1 1218   4.632   2.499   2.475
  418TIP3    H2 1219   4.492   2.559   2.482
  419TIP3   OH2 1220   4.429   2.344   5.691
  419TIP3    H1 1221   4.352   2.399   5.675
  419TIP3    H2 1222   4.442   2.350   5.786
  420TIP3   OH2 1223   5.150   1.558   3.030
  420TIP3    H1 1224   5.237   1.516   3.027
  420TIP3    H2 1225   5.157   1.630   2.967
  421TIP3   OH2 1226   4.049   2.451   3.423
  421TIP3    H1 1227   3.993   2.494   3.359
  421TIP3    H2 1228   4.058   2.514   3.494
  422TIP3   OH2 1229   6.062   1.699   5.572
  422TIP3    H1 1230   6.097   1.682   5.484
  422TIP3    H2 1231   6.127   1.756   5.613
  423TIP3   OH2 1232   7.028   0.462   1.197
  423TIP3    H1 1233   7.105   0.411   1.219
  423TIP3    H2 1234   6.982   0.475   1.280
  424TIP3   OH2 1235   6.720   5.028   1.234
  424TIP3    H1 1236   6.643   4.978   1.208
  424TIP3    H2 1237   6.737   5.087   1.160
  425TIP3   OH2 1238   1.090   1.420   3.721
  425TIP3    H1 1239   1.067   1.490   3.782
  425TIP3    H2 1240   1.153   1.461   3.661
  426TIP3   OH2 1241   4.917   6.109   3.484
  426TIP3    H1 1242   4.888   6.129   3.395
  426TIP3    H2 1243   4.944   6.194   3.520
  427TIP3   OH2 1244   6.792   2.167   2.368
  427TIP3    H1 1245   6.800   2.160   2.463
  427TIP3    H2 1246   6.702   2.141   2.350
  428TIP3   OH2 1247   1.533   6.220   2.613
  428TIP3    H1 1248   1.471   6.209   2.684
  428TIP3    H2 1249   1.565   6.131   2.596
  429TIP3   OH2 1250   6.322   0.449   1.835
  429TIP3    H1 1251   6.392   0.384   1.832
  429TIP3    H2 1252   6.366   0.532   1.851
  430TIP3   OH2 1253   4.192   1.637   5.229
  430TIP3    H1 1254   4.165   1.553   5.192
  430TIP3    H2 1255   4.118   1.663   5.283
  431TIP3   OH2 1256   2.442   6.780   5.707
  431TIP3    H1 1257   2.481   6.741   5.786
  431TIP3    H2 1258   2.475   6.870   5.706
  432TIP3   OH2 1259   7.159   0.497   2.823
  432TIP3    H1 1260   7.216   0.423   2.841
  432TIP3    H2 1261   7.155   0.546   2.905
  433TIP3   OH2 1262   0.337   5.134   5.636
  433TIP3    H1 1263   0.419   5.184   5.631
  433TIP3    H2 1264   0.364   5.043   5.625
  434TIP3   OH2 1265   5.394   0.631   5.600
  434TIP3    H1 1266   5.487   0.652   5.612
  434TIP3    H2 1267   5.394   0.548   5.551
  435TIP3   OH2 1268   1.961   5.079   4.903
  435TIP3    H1 1269   1.944   5.064   4.810
  435TIP3    H2 1270   1.941   5.171   4.917
  436TIP3   OH2 1271   4.771   4.807   4.641
  436TIP3    H1 1272   4.720   4.738   4.683
  436TIP3    H2 1273   4.752   4.886   4.692
  437TIP3   OH2 1274   2.493   1.098   4.277
  437TIP3    H1 1275   2.444   1.173   4.311
  437TIP3    H2 1276   2.584   1.117   4.300
  438TIP3   OH2 1277   0.708   6.687   1.762
  438TIP3    H1 1278   0.702   6.705   1.856
  438TIP3    H2 1279   0.741   6.597   1.758
  439TIP3   OH2 1280   0.554   5.756   4.036
  439TIP3    H1 1281   0.518   5.679   4.080
  439TIP3    H2 1282   0.477   5.802   4.002
  440TIP3   OH2 1283   1.749   0.046   4.714
  440TIP3    H1 1284   1.811   0.048   4.642
  440TIP3    H2 1285   1.790   0.099   4.783
  441TIP3   OH2 1286   6.009   3.527   3.928
  441TIP3    H1 1287   6.089   3.521   3.981
  441TIP3    H2 1288   5.938   3.529   3.991
  442TIP3   OH2 1289   0.868   5.994   5.124
  442TIP3    H1 1290   0.890   5.910   5.164
  442TIP3    H2 1291   0.952   6.038   5.114
  443TIP3   OH2 1292   4.069   3.895   3.580
  443TIP3    H1 1293   4.091   3.827   3.643
  443TIP3    H2 1294   4.002   3.856   3.524
  444TIP3   OH2 1295   3.037   5.424   3.767
  444TIP3    H1 1296   2.984   5.402   3.844
  444TIP3    H2 1297   3.110   5.475   3.803
  445TIP3   OH2 1298   6.758   0.267   2.820
  445TIP3    H1 1299   6.810   0.347   2.808
  445TIP3    H2 1300   6.814   0.197   2.787
  446TIP3   OH2 1301   0.719   1.054   3.812
  446TIP3    H1 1302   0.786   1.095   3.757
  446TIP3    H2 1303   0.637   1.070   3.765
  447TIP3   OH2 1304   4.114   2.215   3.258
  447TIP3    H1 1305   4.122   2.266   3.177
  447TIP3    H2 1306   4.099   2.280   3.326
  448TIP3   OH2 1307   5.766   5.532   3.658
  448TIP3    H1 1308   5.731   5.451   3.621
  448TIP3    H2 1309   5.784   5.511   3.750
  449TIP3   OH2 1310   3.628   0.356   4.829
  449TIP3    H1 1311   3.687   0.423   4.863
  449TIP3    H2 1312   3.618   0.294   4.900
  450TIP3   OH2 1313   0.035   3.231   3.637
  450TIP3    H1 1314  -0.012   3.173   3.577
  450TIP3    H2 1315  -0.011   3.315   3.631
  451TIP3   OH2 1316   2.619   2.683   5.517
  451TIP3    H1 1317   2.700   2.643   5.488
  451TIP3    H2 1318   2.622   2.772   5.483
  452TIP3   OH2 1319   0.041   5.663   4.867
  452TIP3    H1 1320   0.038   5.571   4.842
  452TIP3    H2 1321  -0.012   5.707   4.800
  453TIP3   OH2 1322   2.071   0.740   4.959
  453TIP3    H1 1323   2.073   0.781   5.045
  453TIP3    H2 1324   2.163   0.731   4.934
  454TIP3   OH2 1325   3.287   5.281   2.926
  454TIP3    H1 1326   3.197   5.251   2.939
  454TIP3    H2 1327   3.330   5.265   3.010
  455TIP3   OH2 1328   6.594   6.398   1.052
  455TIP3    H1 1329   6.572   6.423   0.963
  455TIP3    H2 1330   6.646   6.319   1.043
  456TIP3   OH2 1331   5.421   1.309   2.262
  456TIP3    H1 1332   5.395   1.218   2.244
  456TIP3    H2 1333   5.456   1.307   2.351
  457TIP3   OH2 1334   1.464   2.709   5.545
  457TIP3    H1 1335   1.377   2.670   5.547
  457TIP3    H2 1336   1.511   2.659   5.477
  458TIP3   OH2 1337   4.685   3.983   1.191
  458TIP3    H1 1338   4.687   4.074   1.163
  458TIP3    H2 1339   4.593   3.965   1.206
  459TIP3   OH2 1340   6.027   2.100   3.435
  459TIP3    H1 1341   6.075   2.145   3.367
  459TIP3    H2 1342   5.944   2.075   3.394
  460TIP3   OH2 1343   1.174   3.567   5.327
  460TIP3    H1 1344   1.218   3.484   5.309
  460TIP3    H2 1345   1.120   3.549   5.404
  461TIP3   OH2 1346   0.259   0.224   5.726
  461TIP3    H1 1347   0.293   0.144   5.686
  461TIP3    H2 1348   0.165   0.219   5.713
  462TIP3   OH2 1349   3.971   6.510   4.760
  462TIP3    H1 1350   3.880   6.539   4.760
  462TIP3    H2 1351   3.982   6.463   4.843
  463TIP3   OH2 1352   5.261   1.002   1.883
  463TIP3    H1 1353   5.294   0.918   1.915
  463TIP3    H2 1354   5.167   0.999   1.900
  464TIP3   OH2 1355   2.698   4.852   3.435
  464TIP3    H1 1356   2.626   4.912   3.454
  464TIP3    H2 1357   2.758   4.861   3.509
  465TIP3   OH2 1358   5.325   5.865   2.435
  465TIP3    H1 1359   5.257   5.810   2.473
  465TIP3    H2 1360   5.401   5.808   2.427
  466TIP3   OH2 1361   2.285   6.598   4.996
  466TIP3    H1 1362   2.218   6.538   5.028
  466TIP3    H2 1363   2.238   6.679   4.978
  467TIP3   OH2 1364   2.349   5.260   3.372
  467TIP3    H1 1365   2.310   5.341   3.337
  467TIP3    H2 1366   2.317   5.191   3.315
  468TIP3   OH2 1367   3.149   0.408   4.190
  468TIP3    H1 1368   3.137   0.428   4.283
  468TIP3    H2 1369   3.120   0.318   4.180
  469TIP3   OH2 1370   5.195   1.927   3.889
  469TIP3    H1 1371   5.162   1.840   3.911
  469TIP3    H2 1372   5.135   1.960   3.823
  470TIP3   OH2 1373   0.703   4.251   4.015
  470TIP3    H1 1374   0.631   4.188   4.005
  470TIP3    H2 1375   0.661   4.337   4.009
  471TIP3   OH2 1376   4.320   1.409   3.422
  471TIP3    H1 1377   4.270   1.369   3.351
  471TIP3    H2 1378   4.292   1.501   3.424
  472TIP3   OH2 1379   4.467   2.919   0.438
  472TIP3    H1 1380   4.544   2.929   0.494
  472TIP3    H2 1381   4.469   2.995   0.380
  473TIP3   OH2 1382   7.118   0.939   2.271
  473TIP3    H1 1383   7.047   0.888   2.310
  473TIP3    H2 1384   7.170   0.874   2.223
  474TIP3   OH2 1385   6.212   4.111   5.395
  474TIP3    H1 1386   6.239   4.134   5.306
  474TIP3    H2 1387   6.223   4.016   5.400
  475TIP3   OH2 1388   4.729   2.294   0.365
  475TIP3    H1 1389   4.736   2.323   0.456
  475TIP3    H2 1390   4.765   2.366   0.314
  476TIP3   OH2 1391   0.092   0.246   3.566
  476TIP3    H1 1392   0.073   0.276   3.477
  476TIP3    H2 1393   0.029   0.176   3.581
  477TIP3   OH2 1394   6.031   4.374   1.917
  477TIP3    H1 1395   6.010   4.310   1.985
  477TIP3    H2 1396   6.106   4.337   1.871
  478TIP3   OH2 1397   2.689   6.434   2.560
  478TIP3    H1 1398   2.678   6.413   2.467
  478TIP3    H2 1399   2.724   6.523   2.561
  479TIP3   OH2 1400   2.808   4.720   4.679
  479TIP3    H1 1401   2.850   4.648   4.633
  479TIP3    H2 1402   2.744   4.678   4.737
  480TIP3   OH2 1403   7.058   6.361   3.504
  480TIP3    H1 1404   7.153   6.369   3.505
  480TIP3    H2 1405   7.026   6.451   3.506
  481TIP3   OH2 1406   3.731   1.235   2.936
  481TIP3    H1 1407   3.766   1.322   2.955
  481TIP3    H2 1408   3.761   1.216   2.848
  482TIP3   OH2 1409   6.547   3.837   2.656
  482TIP3    H1 1410   6.535   3.897   2.582
  482TIP3    H2 1411   6.573   3.754   2.615
  483TIP3   OH2 1412   5.999   5.591   3.084
  483TIP3    H1 1413   5.945   5.557   3.156
  483TIP3    H2 1414   5.936   5.613   3.015
  484TIP3   OH2 1415   6.996   5.068   3.656
  484TIP3    H1 1416   6.926   5.075   3.591
  484TIP3    H2 1417   6.979   5.138   3.719
  485TIP3   OH2 1418   5.698   4.629   0.894
  485TIP3    H1 1419   5.722   4.567   0.963
  485TIP3    H2 1420   5.706   4.580   0.813
  486TIP3   OH2 1421   5.189   1.788   0.142
  486TIP3    H1 1422   5.251   1.736   0.193
  486TIP3    H2 1423   5.166   1.862   0.199
  487TIP3   OH2 1424   3.819   6.118   4.354
  487TIP3    H1 1425   3.833   6.048   4.290
  487TIP3    H2 1426   3.904   6.162   4.360
  488TIP3   OH2 1427   3.580   3.373   3.617
  488TIP3    H1 1428   3.613   3.463   3.628
  488TIP3    H2 1429   3.550   3.369   3.526
  489TIP3   OH2 1430   4.875   1.048   5.581
  489TIP3    H1 1431   4.880   1.015   5.491
  489TIP3    H2 1432   4.878   0.970   5.636
  490TIP3   OH2 1433   5.714   1.451   1.154
  490TIP3    H1 1434   5.638   1.394   1.171
  490TIP3    H2 1435   5.677   1.528   1.111
  491TIP3   OH2 1436   6.707   1.267   1.814
  491TIP3    H1 1437   6.699   1.227   1.900
  491TIP3    H2 1438   6.667   1.354   1.824
  492TIP3   OH2 1439   6.554   0.157   1.035
  492TIP3    H1 1440   6.494   0.106   1.090
  492TIP3    H2 1441   6.607   0.091   0.990
  493TIP3   OH2 1442   1.143   1.103   5.806
  493TIP3    H1 1443   1.117   1.038   5.872
  493TIP3    H2 1444   1.228   1.135   5.837
  494TIP3   OH2 1445   2.833   1.560   0.941
  494TIP3    H1 1446   2.870   1.638   0.900
  494TIP3    H2 1447   2.850   1.489   0.879
  495TIP3   OH2 1448   3.061   3.040   0.208
  495TIP3    H1 1449   3.085   3.123   0.249
  495TIP3    H2 1450   3.145   2.996   0.193
  496TIP3   OH2 1451   4.276   5.869   3.428
  496TIP3    H1 1452   4.296   5.776   3.417
  496TIP3    H2 1453   4.347   5.914   3.382
  497TIP3   OH2 1454   0.903   5.456   5.413
  497TIP3    H1 1455   0.876   5.364   5.411
  497TIP3    H2 1456   0.893   5.486   5.323
  498TIP3   OH2 1457   0.191   5.205   3.993
  498TIP3    H1 1458   0.246   5.157   4.055
  498TIP3    H2 1459   0.152   5.276   4.045
  499TIP3   OH2 1460   6.395   3.987   0.220
  499TIP3    H1 1461   6.455   3.948   0.284
  499TIP3    H2 1462   6.434   4.072   0.200
  500TIP3   OH2 1463   1.670   2.499   4.281
  500TIP3    H1 1464   1.723   2.534   4.353
  500TIP3    H2 1465   1.627   2.422   4.318
  501TIP3   OH2 1466   3.652   0.216   4.376
  501TIP3    H1 1467   3.703   0.279   4.326
  501TIP3    H2 1468   3.570   0.208   4.327
  502TIP3   OH2 1469   0.624   3.723   3.676
  502TIP3    H1 1470   0.598   3.751   3.589
  502TIP3    H2 1471   0.573   3.778   3.736
  503TIP3   OH2 1472   2.034   3.271   1.404
  503TIP3    H1 1473   1.982   3.223   1.468
  503TIP3    H2 1474   2.091   3.327   1.457
  504TIP3   OH2 1475   7.159   2.838   1.377
  504TIP3    H1 1476   7.080   2.784   1.379
  504TIP3    H2 1477   7.214   2.799   1.310
  505TIP3   OH2 1478   3.022   1.166   2.601
  505TIP3    H1 1479   2.963   1.178   2.527
  505TIP3    H2 1480   3.077   1.244   2.602
  506TIP3   OH2 1481   5.346   1.624   0.290
  506TIP3    H1 1482   5.409   1.564   0.250
  506TIP3    H2 1483   5.306   1.573   0.360
  507TIP3   OH2 1484   0.884   4.489   3.025
  507TIP3    H1 1485   0.882   4.570   2.974
  507TIP3    H2 1486   0.941   4.431   2.975
  508TIP3   OH2 1487   1.492   0.985   3.108
  508TIP3    H1 1488   1.580   1.016   3.128
  508TIP3    H2 1489   1.434   1.043   3.158
  509TIP3   OH2 1490   0.325   2.538   5.703
  509TIP3    H1 1491   0.257   2.574   5.760
  509TIP3    H2 1492   0.309   2.444   5.703
  510TIP3   OH2 1493   2.361   4.193   5.684
  510TIP3    H1 1494   2.304   4.155   5.617
  510TIP3    H2 1495   2.349   4.287   5.674
  511TIP3   OH2 1496   4.141   5.623   2.920
  511TIP3    H1 1497   4.120   5.659   2.833
  511TIP3    H2 1498   4.193   5.692   2.962
  512TIP3   OH2 1499   4.781   3.166   5.253
  512TIP3    H1 1500   4.833   3.241   5.282
  512TIP3    H2 1501   4.752   3.190   5.165
  513TIP3   OH2 1502   1.578   2.659   4.060
  513TIP3    H1 1503   1.601   2.744   4.096
  513TIP3    H2 1504   1.581   2.599   4.135
  514TIP3   OH2 1505   5.268   3.006   5.800
  514TIP3    H1 1506   5.257   2.919   5.761
  514TIP3    H2 1507   5.360   3.028   5.783
  515TIP3   OH2 1508   0.942   3.969   1.337
  515TIP3    H1 1509   1.020   3.994   1.288
  515TIP3    H2 1510   0.890   3.918   1.275
  516TIP3   OH2 1511   3.986   0.248   1.753
  516TIP3    H1 1512   3.955   0.240   1.843
  516TIP3    H2 1513   3.927   0.192   1.702
  517TIP3   OH2 1514   0.549   3.861   0.812
  517TIP3    H1 1515   0.472   3.838   0.761
  517TIP3    H2 1516   0.622   3.856   0.750
  518TIP3   OH2 1517   0.247   4.627   2.197
  518TIP3    H1 1518   0.292   4.712   2.206
  518TIP3    H2 1519   0.317   4.562   2.203
  519TIP3   OH2 1520   4.729   0.154   2.718
  519TIP3    H1 1521   4.737   0.235   2.768
  519TIP3    H2 1522   4.819   0.133   2.693
  520TIP3   OH2 1523   7.142   1.155   2.903
  520TIP3    H1 1524   7.083   1.180   2.974
  520TIP3    H2 1525   7.153   1.236   2.852
  521TIP3   OH2 1526   0.946   4.538   4.358
  521TIP3    H1 1527   0.899   4.461   4.325
  521TIP3    H2 1528   0.924   4.541   4.451
  522TIP3   OH2 1529   5.789   1.277   3.233
  522TIP3    H1 1530   5.776   1.255   3.325
  522TIP3    H2 1531   5.788   1.192   3.188
  523TIP3   OH2 1532   6.863   2.464   5.374
  523TIP3    H1 1533   6.859   2.461   5.279
  523TIP3    H2 1534   6.807   2.392   5.404
  524TIP3   OH2 1535   1.058   2.955   4.914
  524TIP3    H1 1536   0.975   2.927   4.952
  524TIP3    H2 1537   1.097   3.012   4.980
  525TIP3   OH2 1538   1.354   3.266   1.442
  525TIP3    H1 1539   1.425   3.220   1.398
  525TIP3    H2 1540   1.279   3.208   1.433
  526TIP3   OH2 1541   4.386   5.738   0.737
  526TIP3    H1 1542   4.411   5.650   0.764
  526TIP3    H2 1543   4.469   5.782   0.720
  527TIP3   OH2 1544   3.642   4.586   1.906
  527TIP3    H1 1545   3.576   4.631   1.959
  527TIP3    H2 1546   3.593   4.551   1.831
  528TIP3   OH2 1547   5.655   5.672   3.163
  528TIP3    H1 1548   5.699   5.590   3.185
  528TIP3    H2 1549   5.649   5.719   3.247
  529TIP3   OH2 1550   3.337   4.911   3.358
  529TIP3    H1 1551   3.317   4.888   3.267
  529TIP3    H2 1552   3.276   4.983   3.378
  530TIP3   OH2 1553   5.167   6.549   5.884
  530TIP3    H1 1554   5.084   6.594   5.869
  530TIP3    H2 1555   5.152   6.494   5.960
  531TIP3   OH2 1556   1.458   1.545   1.029
  531TIP3    H1 1557   1.552   1.549   1.046
  531TIP3    H2 1558   1.418   1.578   1.110
  532TIP3   OH2 1559   1.827   5.784   0.364
  532TIP3    H1 1560   1.779   5.736   0.296
  532TIP3    H2 1561   1.894   5.833   0.316
  533TIP3   OH2 1562   3.600   2.248   3.681
  533TIP3    H1 1563   3.522   2.200   3.709
  533TIP3    H2 1564   3.648   2.185   3.627
  534TIP3   OH2 1565   3.515   5.284   5.215
  534TIP3    H1 1566   3.518   5.227   5.292
  534TIP3    H2 1567   3.455   5.354   5.239
  535TIP3   OH2 1568   1.971   3.011   4.353
  535TIP3    H1 1569   1.908   3.026   4.282
  535TIP3    H2 1570   2.003   2.923   4.338
  536TIP3   OH2 1571   4.142   6.494   0.409
  536TIP3    H1 1572   4.178   6.583   0.411
  536TIP3    H2 1573   4.105   6.482   0.496
  537TIP3   OH2 1574   4.493   0.518   4.967
  537TIP3    H1 1575   4.432   0.521   5.041
  537TIP3    H2 1576   4.553   0.447   4.988
  538TIP3   OH2 1577   6.031   5.061   3.697
  538TIP3    H1 1578   6.029   5.150   3.662
  538TIP3    H2 1579   5.938   5.036   3.703
  539TIP3   OH2 1580   2.510   2.600   3.400
  539TIP3    H1 1581   2.600   2.568   3.396
  539TIP3    H2 1582   2.509   2.661   3.473
  540TIP3   OH2 1583   5.248   1.231   3.125
  540TIP3    H1 1584   5.198   1.156   3.092
  540TIP3    H2 1585   5.304   1.194   3.194
  541TIP3   OH2 1586   1.216   0.275   0.809
  541TIP3    H1 1587   1.146   0.235   0.860
  541TIP3    H2 1588   1.223   0.220   0.731
  542TIP3   OH2 1589   4.954   4.789   1.554
  542TIP3    H1 1590   4.969   4.882   1.572
  542TIP3    H2 1591   5.040   4.756   1.529
  543TIP3   OH2 1592   2.273   1.550   0.566
  543TIP3    H1 1593   2.185   1.585   0.555
  543TIP3    H2 1594   2.329   1.627   0.573
  544TIP3   OH2 1595   1.242   3.461   5.798
  544TIP3    H1 1596   1.165   3.465   5.854
  544TIP3    H2 1597   1.310   3.421   5.852
  545TIP3   OH2 1598   1.807   4.705   2.412
  545TIP3    H1 1599   1.800   4.728   2.319
  545TIP3    H2 1600   1.749   4.766   2.457
  546TIP3   OH2 1601   5.463   5.308   3.180
  546TIP3    H1 1602   5.447   5.403   3.181
  546TIP3    H2 1603   5.390   5.272   3.129
  547TIP3   OH2 1604   5.834   3.155   5.788
  547TIP3    H1 1605   5.765   3.107   5.834
  547TIP3    H2 1606   5.868   3.094   5.723
  548TIP3   OH2 1607   2.411   2.727   0.636
  548TIP3    H1 1608   2.318   2.732   0.661
  548TIP3    H2 1609   2.428   2.633   0.629
  549TIP3   OH2 1610   5.639   6.244   3.448
  549TIP3    H1 1611   5.611   6.334   3.469
  549TIP3    H2 1612   5.607   6.192   3.522
  550TIP3   OH2 1613   1.333   1.558   1.746
  550TIP3    H1 1614   1.277   1.500   1.694
  550TIP3    H2 1615   1.298   1.553   1.834
  551TIP3   OH2 1616   7.134   3.708   2.480
  551TIP3    H1 1617   7.185   3.728   2.401
  551TIP3    H2 1618   7.188   3.739   2.552
  552TIP3   OH2 1619   2.328   2.248   2.652
  552TIP3    H1 1620   2.408   2.282   2.693
  552TIP3    H2 1621   2.260   2.309   2.678
  553TIP3   OH2 1622   0.957   6.276   0.376
  553TIP3    H1 1623   0.897   6.216   0.420
  553TIP3    H2 1624   0.903   6.319   0.309
  554TIP3   OH2 1625   6.621   0.522   4.505
  554TIP3    H1 1626   6.552   0.576   4.544
  554TIP3    H2 1627   6.620   0.441   4.556
  555TIP3   OH2 1628   2.086   6.472   3.302
  555TIP3    H1 1629   2.042   6.441   3.381
  555TIP3    H2 1630   2.054   6.562   3.291
  556TIP3   OH2 1631   1.180   3.039   4.683
  556TIP3    H1 1632   1.113   3.008   4.743
  556TIP3    H2 1633   1.135   3.048   4.599
  557TIP3   OH2 1634   2.172   4.235   3.609
  557TIP3    H1 1635   2.142   4.266   3.523
  557TIP3    H2 1636   2.243   4.174   3.589
  558TIP3   OH2 1637   6.008   0.699   2.910
  558TIP3    H1 1638   6.054   0.635   2.856
  558TIP3    H2 1639   6.050   0.693   2.996
  559TIP3   OH2 1640   6.934   0.445   0.892
  559TIP3    H1 1641   6.963   0.431   0.982
  559TIP3    H2 1642   7.007   0.414   0.838
  560TIP3   OH2 1643   4.271   4.941   1.185
  560TIP3    H1 1644   4.325   4.990   1.248
  560TIP3    H2 1645   4.297   4.975   1.099
  561TIP3   OH2 1646   2.071   3.641   2.692
  561TIP3    H1 1647   2.099   3.550   2.702
  561TIP3    H2 1648   2.064   3.654   2.597
  562TIP3   OH2 1649   5.316   2.330   0.893
  562TIP3    H1 1650   5.372   2.301   0.821
  562TIP3    H2 1651   5.362   2.405   0.930
  563TIP3   OH2 1652   0.806   3.885   3.006
  563TIP3    H1 1653   0.741   3.842   3.062
  563TIP3    H2 1654   0.803   3.836   2.924
  564TIP3   OH2 1655   5.424   1.956   0.110
  564TIP3    H1 1656   5.478   1.963   0.031
  564TIP3    H2 1657   5.338   1.928   0.078
  565TIP3   OH2 1658   3.846   1.477   4.135
  565TIP3    H1 1659   3.794   1.410   4.179
  565TIP3    H2 1660   3.781   1.537   4.098
  566TIP3   OH2 1661   3.541   5.194   1.534
  566TIP3    H1 1662   3.610   5.255   1.511
  566TIP3    H2 1663   3.466   5.220   1.480
  567TIP3   OH2 1664   3.429   2.986   4.012
  567TIP3    H1 1665   3.466   2.913   3.961
  567TIP3    H2 1666   3.475   3.063   3.979
  568TIP3   OH2 1667   4.796   3.618   1.474
  568TIP3    H1 1668   4.792   3.714   1.470
  568TIP3    H2 1669   4.812   3.591   1.384
  569TIP3   OH2 1670   0.998   5.925   3.947
  569TIP3    H1 1671   0.980   5.877   3.867
  569TIP3    H2 1672   0.976   6.016   3.927
  570TIP3   OH2 1673   0.006   0.269   2.989
  570TIP3    H1 1674  -0.032   0.323   3.059
  570TIP3    H2 1675  -0.004   0.180   3.021
  571TIP3   OH2 1676   2.795   3.071   1.059
  571TIP3    H1 1677   2.838   3.055   0.975
  571TIP3    H2 1678   2.865   3.101   1.116
  572TIP3   OH2 1679   2.827   4.538   3.905
  572TIP3    H1 1680   2.848   4.482   3.831
  572TIP3    H2 1681   2.778   4.611   3.867
  573TIP3   OH2 1682   1.465   1.750   5.800
  573TIP3    H1 1683   1.528   1.814   5.834
  573TIP3    H2 1684   1.509   1.709   5.726
  574TIP3   OH2 1685   3.965   0.833   1.275
  574TIP3    H1 1686   4.040   0.818   1.332
  574TIP3    H2 1687   3.999   0.887   1.204
  575TIP3   OH2 1688   3.928   2.270   5.843
  575TIP3    H1 1689   3.907   2.249   5.752
  575TIP3    H2 1690   4.020   2.246   5.853
  576TIP3   OH2 1691   2.333   5.176   5.485
  576TIP3    H1 1692   2.378   5.245   5.435
  576TIP3    H2 1693   2.266   5.143   5.424
  577TIP3   OH2 1694   7.177   3.167   2.461
  577TIP3    H1 1695   7.163   3.120   2.379
  577TIP3    H2 1696   7.138   3.253   2.447
  578TIP3   OH2 1697   6.524   2.151   5.153
  578TIP3    H1 1698   6.532   2.194   5.068
  578TIP3    H2 1699   6.456   2.085   5.141
  579TIP3   OH2 1700   3.122   3.808   0.277
  579TIP3    H1 1701   3.123   3.852   0.192
  579TIP3    H2 1702   3.191   3.743   0.272
  580TIP3   OH2 1703   0.422   6.749   4.184
  580TIP3    H1 1704   0.449   6.733   4.093
  580TIP3    H2 1705   0.492   6.804   4.220
  581TIP3   OH2 1706   6.279   6.267   3.589
  581TIP3    H1 1707   6.373   6.280   3.578
  581TIP3    H2 1708   6.259   6.310   3.672
  582TIP3   OH2 1709   4.307   5.725   4.456
  582TIP3    H1 1710   4.318   5.710   4.549
  582TIP3    H2 1711   4.387   5.692   4.416
  583TIP3   OH2 1712   5.658   3.055   0.185
  583TIP3    H1 1713   5.591   3.095   0.241
  583TIP3    H2 1714   5.713   3.006   0.246
  584TIP3   OH2 1715   1.267   5.953   2.711
  584TIP3    H1 1716   1.338   6.011   2.740
  584TIP3    H2 1717   1.246   5.983   2.622
  585TIP3   OH2 1718   5.047   1.383   3.765
  585TIP3    H1 1719   5.018   1.378   3.674
  585TIP3    H2 1720   5.099   1.303   3.777
  586TIP3   OH2 1721   7.016   3.804   5.671
  586TIP3    H1 1722   7.066   3.833   5.595
  586TIP3    H2 1723   7.072   3.827   5.746
  587TIP3   OH2 1724   1.761   5.256   2.474
  587TIP3    H1 1725   1.796   5.309   2.546
  587TIP3    H2 1726   1.668   5.249   2.492
  588TIP3   OH2 1727   6.479   2.395   0.796
  588TIP3    H1 1728   6.406   2.334   0.803
  588TIP3    H2 1729   6.439   2.481   0.811
  589TIP3   OH2 1730   6.893   5.643   5.692
  589TIP3    H1 1731   6.799   5.626   5.684
  589TIP3    H2 1732   6.899   5.730   5.730
  590TIP3   OH2 1733   0.194   6.325   1.171
  590TIP3    H1 1734   0.249   6.354   1.244
  590TIP3    H2 1735   0.147   6.404   1.144
  591TIP3   OH2 1736   2.857   4.916   3.675
  591TIP3    H1 1737   2.908   4.994   3.656
  591TIP3    H2 1738   2.912   4.865   3.735
  592TIP3   OH2 1739   5.893   5.927   2.129
  592TIP3    H1 1740   5.943   5.854   2.165
  592TIP3    H2 1741   5.944   5.957   2.054
  593TIP3   OH2 1742   3.885   2.138   2.741
  593TIP3    H1 1743   3.828   2.210   2.717
  593TIP3    H2 1744   3.942   2.174   2.809
  594TIP3   OH2 1745   6.225   0.927   2.942
  594TIP3    H1 1746   6.129   0.926   2.945
  594TIP3    H2 1747   6.248   1.017   2.966
  595TIP3   OH2 1748   0.195   0.486   4.899
  595TIP3    H1 1749   0.112   0.494   4.853
  595TIP3    H2 1750   0.258   0.461   4.832
  596TIP3   OH2 1751   2.386   3.233   2.692
  596TIP3    H1 1752   2.461   3.229   2.753
  596TIP3    H2 1753   2.420   3.195   2.611
  597TIP3   OH2 1754   2.437   4.861   2.010
  597TIP3    H1 1755   2.506   4.794   2.007
  597TIP3    H2 1756   2.369   4.823   2.065
  598TIP3   OH2 1757   0.491   6.364   2.080
  598TIP3    H1 1758   0.471   6.397   2.168
  598TIP3    H2 1759   0.419   6.305   2.059
  599TIP3   OH2 1760   5.292   3.385   2.915
  599TIP3    H1 1761   5.231   3.403   2.986
  599TIP3    H2 1762   5.361   3.451   2.925
  600TIP3   OH2 1763   2.953   4.931   4.756
  600TIP3    H1 1764   2.898   4.861   4.720
  600TIP3    H2 1765   3.037   4.889   4.773
  601TIP3   OH2 1766   0.311   0.322   3.313
  601TIP3    H1 1767   0.238   0.262   3.294
  601TIP3    H2 1768   0.380   0.297   3.252
  602TIP3   OH2 1769   1.150   6.576   2.299
  602TIP3    H1 1770   1.238   6.553   2.271
  602TIP3    H2 1771   1.092   6.519   2.248
  603TIP3   OH2 1772   4.561   4.856   5.535
  603TIP3    H1 1773   4.532   4.946   5.516
  603TIP3    H2 1774   4.655   4.857   5.518
  604TIP3   OH2 1775   5.020   3.811   2.360
  604TIP3    H1 1776   5.073   3.733   2.375
  604TIP3    H2 1777   4.981   3.831   2.445
  605TIP3   OH2 1778   6.466   4.822   5.198
  605TIP3    H1 1779   6.469   4.731   5.171
  605TIP3    H2 1780   6.477   4.871   5.116
  606TIP3   OH2 1781   3.855   5.691   3.469
  606TIP3    H1 1782   3.939   5.672   3.509
  606TIP3    H2 1783   3.791   5.642   3.521
  607TIP3   OH2 1784   1.027   3.592   1.801
  607TIP3    H1 1785   1.054   3.550   1.882
  607TIP3    H2 1786   0.991   3.521   1.748
  608TIP3   OH2 1787   3.166   2.905   1.911
  608TIP3    H1 1788   3.248   2.856   1.914
  608TIP3    H2 1789   3.099   2.838   1.901
  609TIP3   OH2 1790   4.391   4.125   5.038
  609TIP3    H1 1791   4.306   4.167   5.049
  609TIP3    H2 1792   4.371   4.033   5.020
  610TIP3   OH2 1793   5.423   2.047   2.564
  610TIP3    H1 1794   5.431   2.020   2.472
  610TIP3    H2 1795   5.480   2.123   2.572
  611TIP3   OH2 1796   5.988   1.724   0.551
  611TIP3    H1 1797   5.963   1.670   0.626
  611TIP3    H2 1798   5.987   1.814   0.585
  612TIP3   OH2 1799   7.121   1.430   4.237
  612TIP3    H1 1800   7.075   1.503   4.278
  612TIP3    H2 1801   7.146   1.464   4.151
  613TIP3   OH2 1802   2.841   2.806   5.804
  613TIP3    H1 1803   2.773   2.779   5.865
  613TIP3    H2 1804   2.923   2.794   5.853
  614TIP3   OH2 1805   5.400   3.046   5.133
  614TIP3    H1 1806   5.438   3.060   5.046
  614TIP3    H2 1807   5.350   3.126   5.150
  615TIP3   OH2 1808   4.476   3.688   0.534
  615TIP3    H1 1809   4.519   3.699   0.618
  615TIP3    H2 1810   4.428   3.771   0.520
  616TIP3   OH2 1811   2.353   6.093   4.437
  616TIP3    H1 1812   2.448   6.095   4.428
  616TIP3    H2 1813   2.336   6.024   4.500
  617TIP3   OH2 1814   2.375   4.743   1.130
  617TIP3    H1 1815   2.340   4.655   1.139
  617TIP3    H2 1816   2.462   4.739   1.167
  618TIP3   OH2 1817   4.186   5.138   5.504
  618TIP3    H1 1818   4.256   5.163   5.564
  618TIP3    H2 1819   4.144   5.221   5.482
  619TIP3   OH2 1820   2.449   2.770   1.291
  619TIP3    H1 1821   2.506   2.807   1.223
  619TIP3    H2 1822   2.378   2.834   1.299
  620TIP3   OH2 1823   6.369   0.878   0.609
  620TIP3    H1 1824   6.432   0.815   0.644
  620TIP3    H2 1825   6.293   0.869   0.666
  621TIP3   OH2 1826   2.824   3.130   0.653
  621TIP3    H1 1827   2.869   3.110   0.735
  621TIP3    H2 1828   2.736   3.095   0.665
  622TIP3   OH2 1829   6.369   6.703   3.561
  622TIP3    H1 1830   6.439   6.658   3.514
  622TIP3    H2 1831   6.301   6.718   3.495
  623TIP3   OH2 1832   3.103   6.656   5.729
  623TIP3    H1 1833   3.034   6.641   5.665
  623TIP3    H2 1834   3.127   6.569   5.760
  624TIP3   OH2 1835   2.141   4.686   1.791
  624TIP3    H1 1836   2.218   4.629   1.796
  624TIP3    H2 1837   2.067   4.626   1.783
  625TIP3   OH2 1838   0.882   6.818   5.371
  625TIP3    H1 1839   0.792   6.784   5.366
  625TIP3    H2 1840   0.896   6.836   5.464
  626TIP3   OH2 1841   0.047   5.315   1.881
  626TIP3    H1 1842   0.119   5.330   1.942
  626TIP3    H2 1843  -0.010   5.253   1.925
  627TIP3   OH2 1844   3.837   3.540   3.249
  627TIP3    H1 1845   3.902   3.496   3.193
  627TIP3    H2 1846   3.783   3.469   3.284
  628TIP3   OH2 1847   6.584   2.785   0.526
  628TIP3    H1 1848   6.596   2.692   0.508
  628TIP3    H2 1849   6.568   2.824   0.440
  629TIP3   OH2 1850   0.708   0.708   4.831
  629TIP3    H1 1851   0.752   0.735   4.911
  629TIP3    H2 1852   0.733   0.775   4.767
  630TIP3   OH2 1853   6.091   2.427   2.465
  630TIP3    H1 1854   6.075   2.473   2.548
  630TIP3    H2 1855   6.007   2.430   2.419
  631TIP3   OH2 1856   4.204   6.192   1.588
  631TIP3    H1 1857   4.135   6.249   1.621
  631TIP3    H2 1858   4.284   6.225   1.629
  632TIP3   OH2 1859   4.432   2.334   1.576
  632TIP3    H1 1860   4.407   2.413   1.529
  632TIP3    H2 1861   4.479   2.366   1.653
  633TIP3   OH2 1862   5.456   4.844   4.235
  633TIP3    H1 1863   5.379   4.901   4.239
  633TIP3    H2 1864   5.480   4.829   4.326
  634TIP3   OH2 1865   4.759   6.597   0.230
  634TIP3    H1 1866   4.727   6.566   0.315
  634TIP3    H2 1867   4.771   6.692   0.242
  635TIP3   OH2 1868   2.252   2.053   4.152
  635TIP3    H1 1869   2.344   2.078   4.157
  635TIP3    H2 1870   2.224   2.083   4.065
  636TIP3   OH2 1871   4.218   2.062   4.468
  636TIP3    H1 1872   4.148   2.115   4.506
  636TIP3    H2 1873   4.298   2.111   4.486
  637TIP3   OH2 1874   3.377   3.136   0.342
  637TIP3    H1 1875   3.317   3.210   0.327
  637TIP3    H2 1876   3.463   3.176   0.350
  638TIP3   OH2 1877   1.985   2.398   4.581
  638TIP3    H1 1878   2.038   2.422   4.657
  638TIP3    H2 1879   1.924   2.333   4.614
  639TIP3   OH2 1880   6.301   3.840   4.634
  639TIP3    H1 1881   6.332   3.819   4.722
  639TIP3    H2 1882   6.364   3.799   4.575
  640TIP3   OH2 1883   4.713   1.584   3.389
  640TIP3    H1 1884   4.786   1.569   3.329
  640TIP3    H2 1885   4.719   1.677   3.412
  641TIP3   OH2 1886   2.285   6.231   4.931
  641TIP3    H1 1887   2.254   6.255   4.844
  641TIP3    H2 1888   2.370   6.274   4.940
  642TIP3   OH2 1889   6.011   4.022   3.774
  642TIP3    H1 1890   5.967   4.000   3.691
  642TIP3    H2 1891   6.069   4.095   3.751
  643TIP3   OH2 1892   6.961   2.516   0.045
  643TIP3    H1 1893   6.891   2.503   0.108
  643TIP3    H2 1894   6.979   2.610   0.048
  644TIP3   OH2 1895   3.392   0.406   1.813
  644TIP3    H1 1896   3.452   0.351   1.863
  644TIP3    H2 1897   3.308   0.358   1.816
  645TIP3   OH2 1898   2.117   5.309   2.438
  645TIP3    H1 1899   2.045   5.351   2.485
  645TIP3    H2 1900   2.186   5.300   2.504
  646TIP3   OH2 1901   0.261   4.459   2.949
  646TIP3    H1 1902   0.263   4.516   3.026
  646TIP3    H2 1903   0.170   4.463   2.919
  647TIP3   OH2 1904   0.887   2.179   4.557
  647TIP3    H1 1905   0.805   2.164   4.510
  647TIP3    H2 1906   0.862   2.178   4.649
  648TIP3   OH2 1907   6.741   5.113   3.820
  648TIP3    H1 1908   6.776   5.025   3.836
  648TIP3    H2 1909   6.649   5.099   3.798
  649TIP3   OH2 1910   5.539   6.396   0.671
  649TIP3    H1 1911   5.496   6.429   0.750
  649TIP3    H2 1912   5.621   6.358   0.703
  650TIP3   OH2 1913   3.878   2.235   1.191
  650TIP3    H1 1914   3.941   2.251   1.261
  650TIP3    H2 1915   3.817   2.171   1.228
  651TIP3   OH2 1916   4.553   0.299   2.534
  651TIP3    H1 1917   4.589   0.245   2.605
  651TIP3    H2 1918   4.613   0.286   2.461
  652TIP3   OH2 1919   5.793   3.093   3.624
  652TIP3    H1 1920   5.755   3.156   3.563
  652TIP3    H2 1921   5.724   3.027   3.636
  653TIP3   OH2 1922   5.294   6.615   5.553
  653TIP3    H1 1923   5.223   6.677   5.563
  653TIP3    H2 1924   5.374   6.668   5.554
  654TIP3   OH2 1925   0.568   5.170   3.734
  654TIP3    H1 1926   0.476   5.170   3.708
  654TIP3    H2 1927   0.570   5.121   3.816
  655TIP3   OH2 1928   2.151   6.368   0.792
  655TIP3    H1 1929   2.245   6.366   0.809
  655TIP3    H2 1930   2.134   6.459   0.766
  656TIP3   OH2 1931   0.816   2.196   1.121
  656TIP3    H1 1932   0.833   2.154   1.037
  656TIP3    H2 1933   0.773   2.279   1.099
  657TIP3   OH2 1934   2.385   3.602   0.159
  657TIP3    H1 1935   2.315   3.540   0.179
  657TIP3    H2 1936   2.465   3.560   0.193
  658TIP3   OH2 1937   5.417   0.306   3.423
  658TIP3    H1 1938   5.397   0.256   3.502
  658TIP3    H2 1939   5.410   0.398   3.450
  659TIP3   OH2 1940   6.360   6.539   3.773
  659TIP3    H1 1941   6.440   6.580   3.803
  659TIP3    H2 1942   6.330   6.594   3.700
  660TIP3   OH2 1943   3.650   3.637   3.660
  660TIP3    H1 1944   3.671   3.695   3.734
  660TIP3    H2 1945   3.626   3.697   3.589
  661TIP3   OH2 1946   6.330   4.284   1.456
  661TIP3    H1 1947   6.378   4.345   1.513
  661TIP3    H2 1948   6.246   4.328   1.441
  662TIP3   OH2 1949   4.340   1.240   1.364
  662TIP3    H1 1950   4.305   1.173   1.306
  662TIP3    H2 1951   4.364   1.313   1.307
  663TIP3   OH2 1952   1.307   5.805   0.852
  663TIP3    H1 1953   1.223   5.794   0.807
  663TIP3    H2 1954   1.309   5.897   0.876
  664TIP3   OH2 1955   3.500   5.901   0.690
  664TIP3    H1 1956   3.450   5.821   0.670
  664TIP3    H2 1957   3.588   5.869   0.712
  665TIP3   OH2 1958   4.496   1.681   4.733
  665TIP3    H1 1959   4.545   1.611   4.774
  665TIP3    H2 1960   4.517   1.675   4.640
  666TIP3   OH2 1961   6.157   4.665   1.712
  666TIP3    H1 1962   6.129   4.659   1.804
  666TIP3    H2 1963   6.185   4.756   1.701
  667TIP3   OH2 1964   6.282   5.015   3.519
  667TIP3    H1 1965   6.359   5.070   3.532
  667TIP3    H2 1966   6.210   5.076   3.502
  668TIP3   OH2 1967   1.705   5.128   1.854
  668TIP3    H1 1968   1.717   5.089   1.941
  668TIP3    H2 1969   1.616   5.162   1.856
  669TIP3   OH2 1970   3.612   5.915   0.203
  669TIP3    H1 1971   3.521   5.886   0.197
  669TIP3    H2 1972   3.610   6.007   0.176
  670TIP3   OH2 1973   3.038   4.536   1.785
  670TIP3    H1 1974   3.106   4.490   1.834
  670TIP3    H2 1975   2.991   4.587   1.851
  671TIP3   OH2 1976   5.941   3.381   0.788
  671TIP3    H1 1977   5.954   3.307   0.729
  671TIP3    H2 1978   5.860   3.422   0.759
  672TIP3   OH2 1979   3.054   3.358   3.445
  672TIP3    H1 1980   2.971   3.402   3.426
  672TIP3    H2 1981   3.070   3.377   3.537
  673TIP3   OH2 1982   3.723   0.906   1.597
  673TIP3    H1 1983   3.706   0.938   1.509
  673TIP3    H2 1984   3.636   0.888   1.634
  674TIP3   OH2 1985   4.694   3.957   4.807
  674TIP3    H1 1986   4.682   3.911   4.890
  674TIP3    H2 1987   4.611   4.003   4.793
  675TIP3   OH2 1988   1.959   1.975   4.978
  675TIP3    H1 1989   1.919   1.895   5.010
  675TIP3    H2 1990   2.007   2.009   5.054
  676TIP3   OH2 1991   1.877   5.850   2.245
  676TIP3    H1 1992   1.946   5.894   2.295
  676TIP3    H2 1993   1.810   5.918   2.232
  677TIP3   OH2 1994   1.258   6.354   3.994
  677TIP3    H1 1995   1.319   6.387   3.928
  677TIP3    H2 1996   1.313   6.299   4.051
  678TIP3   OH2 1997   5.912   2.391   1.327
  678TIP3    H1 1998   5.840   2.411   1.386
  678TIP3    H2 1999   5.891   2.438   1.247
  679TIP3   OH2 2000   1.985   5.142   5.754
  679TIP3    H1 2001   1.895   5.117   5.732
  679TIP3    H2 2002   2.013   5.076   5.818
  680TIP3   OH2 2003   1.388   5.249   4.738
  680TIP3    H1 2004   1.298   5.270   4.765
  680TIP3    H2 2005   1.377   5.202   4.655
  681TIP3   OH2 2006   4.615   2.136   1.526
  681TIP3    H1 2007   4.672   2.193   1.474
  681TIP3    H2 2008   4.541   2.191   1.550
  682TIP3   OH2 2009   4.137   2.910   3.608
  682TIP3    H1 2010   4.176   2.951   3.685
  682TIP3    H2 2011   4.190   2.941   3.534
  683TIP3   OH2 2012   0.303   2.776   2.574
  683TIP3    H1 2013   0.267   2.699   2.619
  683TIP3    H2 2014   0.265   2.772   2.486
  684TIP3   OH2 2015   0.146   2.497   0.475
  684TIP3    H1 2016   0.063   2.544   0.467
  684TIP3    H2 2017   0.124   2.418   0.525
  685TIP3   OH2 2018   4.419   5.739   5.467
  685TIP3    H1 2019   4.455   5.826   5.484
  685TIP3    H2 2020   4.375   5.746   5.382
  686TIP3   OH2 2021   6.774   0.652   0.685
  686TIP3    H1 2022   6.843   0.716   0.704
  686TIP3    H2 2023   6.749   0.618   0.771
  687TIP3   OH2 2024   4.407   5.649   4.698
  687TIP3    H1 2025   4.492   5.682   4.726
  687TIP3    H2 2026   4.426   5.590   4.626
  688TIP3   OH2 2027   1.184   0.119   2.949
  688TIP3    H1 2028   1.099   0.161   2.962
  688TIP3    H2 2029   1.211   0.145   2.861
  689TIP3   OH2 2030   1.201   4.733   0.044
  689TIP3    H1 2031   1.258   4.786  -0.010
  689TIP3    H2 2032   1.124   4.788   0.059
  690TIP3   OH2 2033   3.627   1.641   4.065
  690TIP3    H1 2034   3.554   1.588   4.034
  690TIP3    H2 2035   3.599   1.731   4.052
  691TIP3   OH2 2036   0.605   3.120   4.277
  691TIP3    H1 2037   0.602   3.024   4.267
  691TIP3    H2 2038   0.659   3.150   4.204
  692TIP3   OH2 2039   0.379   6.842   2.711
  692TIP3    H1 2040   0.324   6.799   2.777
  692TIP3    H2 2041   0.333   6.825   2.629
  693TIP3   OH2 2042   3.460   4.656   3.412
  693TIP3    H1 2043   3.495   4.633   3.326
  693TIP3    H2 2044   3.422   4.743   3.400
  694TIP3   OH2 2045   1.676   1.889   2.667
  694TIP3    H1 2046   1.716   1.804   2.651
  694TIP3    H2 2047   1.746   1.942   2.705
  695TIP3   OH2 2048   4.862   6.727   4.347
  695TIP3    H1 2049   4.875   6.749   4.439
  695TIP3    H2 2050   4.898   6.802   4.298
  696TIP3   OH2 2051   5.865   5.422   5.403
  696TIP3    H1 2052   5.857   5.429   5.498
  696TIP3    H2 2053   5.781   5.451   5.369
  697TIP3   OH2 2054   2.929   1.913   3.037
  697TIP3    H1 2055   2.880   1.943   3.114
  697TIP3    H2 2056   2.887   1.957   2.963
  698TIP3   OH2 2057   2.860   6.723   0.365
  698TIP3    H1 2058   2.836   6.714   0.457
  698TIP3    H2 2059   2.862   6.633   0.332
  699TIP3   OH2 2060   4.875   6.219   1.827
  699TIP3    H1 2061   4.805   6.253   1.883
  699TIP3    H2 2062   4.875   6.125   1.844
  700TIP3   OH2 2063   6.188   3.344   2.994
  700TIP3    H1 2064   6.193   3.397   2.915
  700TIP3    H2 2065   6.143   3.264   2.966
  701TIP3   OH2 2066   4.453   4.780   3.596
  701TIP3    H1 2067   4.444   4.772   3.501
  701TIP3    H2 2068   4.523   4.843   3.609
  702TIP3   OH2 2069   1.711   4.800   5.930
  702TIP3    H1 2070   1.652   4.776   6.002
  702TIP3    H2 2071   1.676   4.755   5.854
  703TIP3   OH2 2072   1.989   2.502   2.059
  703TIP3    H1 2073   2.042   2.544   2.127
  703TIP3    H2 2074   1.902   2.539   2.071
  704TIP3   OH2 2075   4.947   0.222   1.466
  704TIP3    H1 2076   4.951   0.224   1.371
  704TIP3    H2 2077   4.888   0.294   1.489
  705TIP3   OH2 2078   1.798   6.710   2.580
  705TIP3    H1 2079   1.761   6.768   2.647
  705TIP3    H2 2080   1.892   6.716   2.593
  706TIP3   OH2 2081   4.478   1.115   2.308
  706TIP3    H1 2082   4.506   1.207   2.307
  706TIP3    H2 2083   4.437   1.102   2.222
  707TIP3   OH2 2084   0.495   2.170   5.809
  707TIP3    H1 2085   0.503   2.223   5.888
  707TIP3    H2 2086   0.518   2.082   5.836
  708TIP3   OH2 2087   6.768   1.951   5.436
  708TIP3    H1 2088   6.835   1.996   5.488
  708TIP3    H2 2089   6.730   2.019   5.381
  709TIP3   OH2 2090   2.556   2.480   0.702
  709TIP3    H1 2091   2.619   2.516   0.764
  709TIP3    H2 2092   2.609   2.438   0.634
  710TIP3   OH2 2093   2.579   2.998   0.699
  710TIP3    H1 2094   2.569   2.936   0.627
  710TIP3    H2 2095   2.590   2.943   0.777
  711TIP3   OH2 2096   0.407   2.820   5.871
  711TIP3    H1 2097   0.344   2.879   5.830
  711TIP3    H2 2098   0.368   2.733   5.863
  712TIP3   OH2 2099   1.598   0.388   0.116
  712TIP3    H1 2100   1.657   0.375   0.191
  712TIP3    H2 2101   1.566   0.477   0.127
  713TIP3   OH2 2102   1.467   0.326   5.715
  713TIP3    H1 2103   1.476   0.392   5.784
  713TIP3    H2 2104   1.513   0.249   5.749
  714TIP3   OH2 2105   5.203   1.573   0.838
  714TIP3    H1 2106   5.245   1.658   0.824
  714TIP3    H2 2107   5.275   1.511   0.843
  715TIP3   OH2 2108   2.225   2.237   3.322
  715TIP3    H1 2109   2.224   2.309   3.259
  715TIP3    H2 2110   2.317   2.227   3.346
  716TIP3   OH2 2111   2.225   2.074   3.028
  716TIP3    H1 2112   2.180   1.995   2.999
  716TIP3    H2 2113   2.273   2.048   3.106
  717TIP3   OH2 2114   4.430   0.089   0.373
  717TIP3    H1 2115   4.441   0.168   0.426
  717TIP3    H2 2116   4.460   0.018   0.430
  718TIP3   OH2 2117   3.562   0.434   2.631
  718TIP3    H1 2118   3.640   0.488   2.623
  718TIP3    H2 2119   3.594   0.344   2.627
  719TIP3   OH2 2120   0.227   3.559   5.584
  719TIP3    H1 2121   0.206   3.618   5.656
  719TIP3    H2 2122   0.278   3.488   5.625
  720TIP3   OH2 2123   3.164   5.157   0.383
  720TIP3    H1 2124   3.112   5.184   0.458
  720TIP3    H2 2125   3.131   5.071   0.360
  721TIP3   OH2 2126   3.727   6.529   5.782
  721TIP3    H1 2127   3.777   6.611   5.785
  721TIP3    H2 2128   3.790   6.463   5.811
  722TIP3   OH2 2129   6.018   6.151   4.602
  722TIP3    H1 2130   6.000   6.198   4.683
  722TIP3    H2 2131   6.016   6.058   4.626
  723TIP3   OH2 2132   5.963   4.667   5.626
  723TIP3    H1 2133   6.024   4.731   5.591
  723TIP3    H2 2134   5.943   4.698   5.714
  724TIP3   OH2 2135   6.110   4.824   2.931
  724TIP3    H1 2136   6.178   4.865   2.877
  724TIP3    H2 2137   6.157   4.795   3.010
  725TIP3   OH2 2138   4.030   5.682   0.407
  725TIP3    H1 2139   3.981   5.734   0.343
  725TIP3    H2 2140   4.068   5.747   0.467
  726TIP3   OH2 2141   4.757   3.009   3.792
  726TIP3    H1 2142   4.831   3.045   3.841
  726TIP3    H2 2143   4.729   3.080   3.735
  727TIP3   OH2 2144   1.981   6.634   4.698
  727TIP3    H1 2145   1.929   6.587   4.763
  727TIP3    H2 2146   2.045   6.570   4.668
  728TIP3   OH2 2147   0.088   1.573   5.763
  728TIP3    H1 2148   0.032   1.513   5.715
  728TIP3    H2 2149   0.118   1.522   5.839
  729TIP3   OH2 2150   2.462   4.993   3.455
  729TIP3    H1 2151   2.386   4.973   3.509
  729TIP3    H2 2152   2.453   5.086   3.433
  730TIP3   OH2 2153   5.668   5.220   4.171
  730TIP3    H1 2154   5.608   5.255   4.237
  730TIP3    H2 2155   5.680   5.293   4.110
  731TIP3   OH2 2156   2.734   0.250   4.099
  731TIP3    H1 2157   2.718   0.284   4.187
  731TIP3    H2 2158   2.721   0.155   4.108
  732TIP3   OH2 2159   6.240   4.861   4.458
  732TIP3    H1 2160   6.312   4.875   4.519
  732TIP3    H2 2161   6.280   4.870   4.371
  733TIP3   OH2 2162   6.838   0.822   2.882
  733TIP3    H1 2163   6.756   0.869   2.893
  733TIP3    H2 2164   6.880   0.826   2.968
  734TIP3   OH2 2165   6.941   0.226   0.247
  734TIP3    H1 2166   6.964   0.186   0.163
  734TIP3    H2 2167   6.875   0.292   0.225
  735TIP3   OH2 2168   2.452   2.479   5.476
  735TIP3    H1 2169   2.515   2.542   5.512
  735TIP3    H2 2170   2.443   2.413   5.544
  736TIP3   OH2 2171   6.866   3.971   1.490
  736TIP3    H1 2172   6.834   3.997   1.404
  736TIP3    H2 2173   6.787   3.959   1.543
  737TIP3   OH2 2174   6.604   3.734   5.018
  737TIP3    H1 2175   6.665   3.725   4.945
  737TIP3    H2 2176   6.530   3.782   4.981
  738TIP3   OH2 2177   2.340   1.727   2.184
  738TIP3    H1 2178   2.302   1.661   2.126
  738TIP3    H2 2179   2.272   1.794   2.192
  739TIP3   OH2 2180   2.865   1.978   1.227
  739TIP3    H1 2181   2.934   2.026   1.180
  739TIP3    H2 2182   2.803   1.953   1.159
  740TIP3   OH2 2183   3.976   0.400   0.578
  740TIP3    H1 2184   3.893   0.444   0.598
  740TIP3    H2 2185   4.043   0.466   0.598
  741TIP3   OH2 2186   7.023   1.608   1.097
  741TIP3    H1 2187   7.069   1.598   1.014
  741TIP3    H2 2188   6.947   1.550   1.091
  742TIP3   OH2 2189   0.036   3.982   4.299
  742TIP3    H1 2190   0.003   3.992   4.388
  742TIP3    H2 2191   0.002   4.058   4.252
  743TIP3   OH2 2192   6.736   4.247   5.879
  743TIP3    H1 2193   6.793   4.176   5.852
  743TIP3    H2 2194   6.771   4.324   5.834
  744TIP3   OH2 2195   6.635   0.940   2.021
  744TIP3    H1 2196   6.642   0.943   2.116
  744TIP3    H2 2197   6.583   1.017   1.998
  745TIP3   OH2 2198   6.712   6.481   1.404
  745TIP3    H1 2199   6.734   6.554   1.346
  745TIP3    H2 2200   6.661   6.421   1.349
  746TIP3   OH2 2201   4.648   6.584   2.928
  746TIP3    H1 2202   4.662   6.490   2.916
  746TIP3    H2 2203   4.567   6.603   2.881
  747TIP3   OH2 2204   3.618   5.940   4.314
  747TIP3    H1 2205   3.665   6.012   4.356
  747TIP3    H2 2206   3.575   5.894   4.386
  748TIP3   OH2 2207   4.856   2.613   1.406
  748TIP3    H1 2208   4.935   2.590   1.357
  748TIP3    H2 2209   4.890   2.654   1.486
  749TIP3   OH2 2210   4.386   2.025   4.196
  749TIP3    H1 2211   4.338   2.038   4.114
  749TIP3    H2 2212   4.372   2.106   4.245
  750TIP3   OH2 2213   4.394   5.966   2.766
  750TIP3    H1 2214   4.438   5.956   2.851
  750TIP3    H2 2215   4.339   6.043   2.776
  751TIP3   OH2 2216   6.507   0.664   1.598
  751TIP3    H1 2217   6.598   0.691   1.603
  751TIP3    H2 2218   6.509   0.569   1.610
  752TIP3   OH2 2219   2.439   2.380   3.951
  752TIP3    H1 2220   2.436   2.475   3.966
  752TIP3    H2 2221   2.526   2.354   3.984
  753TIP3   OH2 2222   0.951   3.436   5.170
  753TIP3    H1 2223   0.976   3.520   5.208
  753TIP3    H2 2224   0.863   3.420   5.203
  754TIP3   OH2 2225   2.714   4.553   4.913
  754TIP3    H1 2226   2.754   4.467   4.903
  754TIP3    H2 2227   2.621   4.538   4.893
  755TIP3   OH2 2228   0.182   1.730   2.925
  755TIP3    H1 2229   0.240   1.700   2.994
  755TIP3    H2 2230   0.208   1.680   2.848
  756TIP3   OH2 2231   3.572   5.032   1.960
  756TIP3    H1 2232   3.576   5.128   1.963
  756TIP3    H2 2233   3.584   5.010   1.868
  757TIP3   OH2 2234   6.376   3.905   4.884
  757TIP3    H1 2235   6.355   3.891   4.976
  757TIP3    H2 2236   6.408   3.995   4.880
  758TIP3   OH2 2237   5.815   0.541   5.278
  758TIP3    H1 2238   5.864   0.601   5.221
  758TIP3    H2 2239   5.832   0.574   5.366
  759TIP3   OH2 2240   3.274   1.250   3.882
  759TIP3    H1 2241   3.240   1.171   3.926
  759TIP3    H2 2242   3.208   1.317   3.899
  760TIP3   OH2 2243   1.073   1.654   2.202
  760TIP3    H1 2244   1.060   1.693   2.116
  760TIP3    H2 2245   1.033   1.568   2.196
  761TIP3   OH2 2246   5.087   6.526   1.722
  761TIP3    H1 2247   5.108   6.602   1.777
  761TIP3    H2 2248   5.160   6.466   1.736
  762TIP3   OH2 2249   4.824   4.332   4.891
  762TIP3    H1 2250   4.870   4.255   4.859
  762TIP3    H2 2251   4.775   4.301   4.968
  763TIP3   OH2 2252   3.212   4.268   3.034
  763TIP3    H1 2253   3.171   4.346   2.997
  763TIP3    H2 2254   3.168   4.256   3.118
  764TIP3   OH2 2255   6.387   5.091   2.237
  764TIP3    H1 2256   6.395   5.044   2.153
  764TIP3    H2 2257   6.315   5.153   2.223
  765TIP3   OH2 2258   5.036   0.534   2.222
  765TIP3    H1 2259   5.033   0.439   2.215
  765TIP3    H2 2260   5.038   0.551   2.317
  766TIP3   OH2 2261   2.723   4.002   1.142
  766TIP3    H1 2262   2.653   4.046   1.190
  766TIP3    H2 2263   2.738   3.921   1.190
  767TIP3   OH2 2264   4.118   2.123   4.019
  767TIP3    H1 2265   4.085   2.087   3.937
  767TIP3    H2 2266   4.062   2.198   4.036
  768TIP3   OH2 2267   0.387   3.407   5.317
  768TIP3    H1 2268   0.365   3.384   5.407
  768TIP3    H2 2269   0.479   3.433   5.321
  769TIP3   OH2 2270   7.127   2.502   5.301
  769TIP3    H1 2271   7.039   2.523   5.333
  769TIP3    H2 2272   7.177   2.583   5.314
  770TIP3   OH2 2273   0.082   0.424   1.425
  770TIP3    H1 2274   0.172   0.392   1.432
  770TIP3    H2 2275   0.032   0.348   1.397
  771TIP3   OH2 2276   5.054   6.233   4.181
  771TIP3    H1 2277   5.121   6.225   4.250
  771TIP3    H2 2278   5.011   6.316   4.200
  772TIP3   OH2 2279   4.247   6.280   3.806
  772TIP3    H1 2280   4.214   6.307   3.721
  772TIP3    H2 2281   4.234   6.185   3.808
  773TIP3   OH2 2282   4.686   0.593   5.182
  773TIP3    H1 2283   4.648   0.660   5.124
  773TIP3    H2 2284   4.718   0.526   5.122
  774TIP3   OH2 2285   5.875   1.530   2.809
  774TIP3    H1 2286   5.798   1.579   2.839
  774TIP3    H2 2287   5.899   1.475   2.884
  775TIP3   OH2 2288   1.655   6.437   4.694
  775TIP3    H1 2289   1.588   6.492   4.655
  775TIP3    H2 2290   1.614   6.402   4.773
  776TIP3   OH2 2291   6.786   0.720   1.645
  776TIP3    H1 2292   6.816   0.789   1.704
  776TIP3    H2 2293   6.854   0.713   1.579
  777TIP3   OH2 2294   5.546   6.167   3.893
  777TIP3    H1 2295   5.492   6.245   3.903
  777TIP3    H2 2296   5.605   6.167   3.969
  778TIP3   OH2 2297   5.204   3.656   3.691
  778TIP3    H1 2298   5.153   3.668   3.771
  778TIP3    H2 2299   5.142   3.675   3.620
  779TIP3   OH2 2300   0.616   5.905   1.944
  779TIP3    H1 2301   0.662   5.833   1.987
  779TIP3    H2 2302   0.657   5.984   1.980
  780TIP3   OH2 2303   0.942   3.577   1.021
  780TIP3    H1 2304   0.956   3.483   1.005
  780TIP3    H2 2305   0.877   3.579   1.092
  781TIP3   OH2 2306   4.335   6.059   2.243
  781TIP3    H1 2307   4.355   6.152   2.242
  781TIP3    H2 2308   4.302   6.042   2.331
  782TIP3   OH2 2309   3.597   0.840   2.874
  782TIP3    H1 2310   3.542   0.767   2.847
  782TIP3    H2 2311   3.662   0.801   2.933
  783TIP3   OH2 2312   6.058   6.420   0.011
  783TIP3    H1 2313   5.990   6.464  -0.040
  783TIP3    H2 2314   6.099   6.490   0.062
  784TIP3   OH2 2315   1.327   6.490   1.670
  784TIP3    H1 2316   1.358   6.466   1.757
  784TIP3    H2 2317   1.259   6.555   1.686
  785TIP3   OH2 2318   1.049   3.444   2.290
  785TIP3    H1 2319   1.131   3.470   2.248
  785TIP3    H2 2320   1.049   3.348   2.284
  786TIP3   OH2 2321   2.806   4.548   1.370
  786TIP3    H1 2322   2.869   4.595   1.315
  786TIP3    H2 2323   2.859   4.483   1.416
  787TIP3   OH2 2324   3.046   2.509   2.249
  787TIP3    H1 2325   3.016   2.584   2.300
  787TIP3    H2 2326   3.138   2.527   2.231
  788TIP3   OH2 2327   2.968   5.716   5.397
  788TIP3    H1 2328   3.056   5.681   5.412
  788TIP3    H2 2329   2.931   5.727   5.485
  789TIP3   OH2 2330   4.364   4.614   0.991
  789TIP3    H1 2331   4.409   4.649   0.914
  789TIP3    H2 2332   4.313   4.540   0.957
  790TIP3   OH2 2333   0.969   5.353   3.705
  790TIP3    H1 2334   1.054   5.363   3.748
  790TIP3    H2 2335   0.965   5.260   3.681
  791TIP3   OH2 2336   1.811   4.284   4.254
  791TIP3    H1 2337   1.886   4.236   4.220
  791TIP3    H2 2338   1.785   4.343   4.183
  792TIP3   OH2 2339   5.031   1.620   2.632
  792TIP3    H1 2340   5.074   1.634   2.716
  792TIP3    H2 2341   5.067   1.538   2.599
  793TIP3   OH2 2342   1.164   4.161   4.927
  793TIP3    H1 2343   1.187   4.198   4.841
  793TIP3    H2 2344   1.072   4.138   4.919
  794TIP3   OH2 2345   6.336   2.171   0.867
  794TIP3    H1 2346   6.248   2.135   0.879
  794TIP3    H2 2347   6.372   2.177   0.956
  795TIP3   OH2 2348   2.053   2.984   0.266
  795TIP3    H1 2349   2.058   3.073   0.231
  795TIP3    H2 2350   2.107   2.932   0.205
  796TIP3   OH2 2351   0.563   4.060   4.697
  796TIP3    H1 2352   0.578   3.971   4.728
  796TIP3    H2 2353   0.470   4.062   4.673
  797TIP3   OH2 2354   4.707   6.312   4.374
  797TIP3    H1 2355   4.665   6.355   4.300
  797TIP3    H2 2356   4.701   6.376   4.445
  798TIP3   OH2 2357   4.185   6.572   5.677
  798TIP3    H1 2358   4.105   6.597   5.722
  798TIP3    H2 2359   4.243   6.542   5.747
  799TIP3   OH2 2360   6.665   3.983   2.000
  799TIP3    H1 2361   6.676   4.077   1.991
  799TIP3    H2 2362   6.713   3.960   2.080
  800TIP3   OH2 2363   6.260   1.324   0.488
  800TIP3    H1 2364   6.335   1.307   0.545
  800TIP3    H2 2365   6.207   1.245   0.494
  801TIP3   OH2 2366   0.662   6.482   5.572
  801TIP3    H1 2367   0.692   6.514   5.657
  801TIP3    H2 2368   0.645   6.389   5.587
  802TIP3   OH2 2369   3.549   0.912   5.083
  802TIP3    H1 2370   3.579   1.000   5.105
  802TIP3    H2 2371   3.501   0.922   5.001
  803TIP3   OH2 2372   1.893   6.288   4.610
  803TIP3    H1 2373   1.856   6.200   4.613
  803TIP3    H2 2374   1.817   6.346   4.621
  804TIP3   OH2 2375   0.268   3.914   5.542
  804TIP3    H1 2376   0.360   3.900   5.520
  804TIP3    H2 2377   0.222   3.841   5.500
  805TIP3   OH2 2378   4.836   5.244   4.540
  805TIP3    H1 2379   4.853   5.151   4.533
  805TIP3    H2 2380   4.741   5.252   4.533
  806TIP3   OH2 2381   0.858   5.558   0.757
  806TIP3    H1 2382   0.837   5.548   0.850
  806TIP3    H2 2383   0.953   5.566   0.754
  807TIP3   OH2 2384   4.921   4.990   2.185
  807TIP3    H1 2385   4.968   4.974   2.266
  807TIP3    H2 2386   4.854   4.921   2.181
  808TIP3   OH2 2387   2.900   1.904   5.914
  808TIP3    H1 2388   2.857   1.880   5.996
  808TIP3    H2 2389   2.960   1.831   5.897
  809TIP3   OH2 2390   3.695   6.364   3.426
  809TIP3    H1 2391   3.718   6.275   3.399
  809TIP3    H2 2392   3.765   6.419   3.390
  810TIP3   OH2 2393   0.750   4.123   3.360
  810TIP3    H1 2394   0.695   4.066   3.306
  810TIP3    H2 2395   0.712   4.117   3.448
  811TIP3   OH2 2396   1.908   6.666   3.624
  811TIP3    H1 2397   1.920   6.733   3.691
  811TIP3    H2 2398   1.940   6.706   3.543
  812TIP3   OH2 2399   6.072   2.356   1.583
  812TIP3    H1 2400   6.023   2.364   1.501
  812TIP3    H2 2401   6.037   2.425   1.639
  813TIP3   OH2 2402   0.119   1.196   1.039
  813TIP3    H1 2403   0.198   1.243   1.066
  813TIP3    H2 2404   0.084   1.159   1.120
  814TIP3   OH2 2405   2.803   2.958   0.234
  814TIP3    H1 2406   2.753   2.982   0.312
  814TIP3    H2 2407   2.894   2.965   0.261
  815TIP3   OH2 2408   0.113   2.230   4.704
  815TIP3    H1 2409   0.056   2.155   4.717
  815TIP3    H2 2410   0.172   2.229   4.780
  816TIP3   OH2 2411   1.842   3.110   4.141
  816TIP3    H1 2412   1.847   3.129   4.047
  816TIP3    H2 2413   1.869   3.192   4.183
  817TIP3   OH2 2414   4.444   1.908   3.734
  817TIP3    H1 2415   4.391   1.848   3.680
  817TIP3    H2 2416   4.391   1.988   3.738
  818TIP3   OH2 2417   3.323   5.689   5.658
  818TIP3    H1 2418   3.419   5.685   5.661
  818TIP3    H2 2419   3.298   5.724   5.743
  819TIP3   OH2 2420   5.692   6.130   5.032
  819TIP3    H1 2421   5.635   6.147   5.108
  819TIP3    H2 2422   5.631   6.102   4.964
  820TIP3   OH2 2423   4.314   3.252   1.088
  820TIP3    H1 2424   4.259   3.308   1.143
  820TIP3    H2 2425   4.385   3.224   1.146
  821TIP3   OH2 2426   6.890   3.287   3.881
  821TIP3    H1 2427   6.854   3.344   3.949
  821TIP3    H2 2428   6.978   3.321   3.866
  822TIP3   OH2 2429   2.810   1.112   0.226
  822TIP3    H1 2430   2.839   1.204   0.229
  822TIP3    H2 2431   2.852   1.076   0.148
  823TIP3   OH2 2432   2.860   4.388   5.890
  823TIP3    H1 2433   2.811   4.463   5.859
  823TIP3    H2 2434   2.859   4.326   5.817
  824TIP3   OH2 2435   3.896   3.592   2.191
  824TIP3    H1 2436   3.976   3.555   2.154
  824TIP3    H2 2437   3.835   3.519   2.194
  825TIP3   OH2 2438   0.166   6.730   2.855
  825TIP3    H1 2439   0.143   6.800   2.916
  825TIP3    H2 2440   0.189   6.656   2.912
  826TIP3   OH2 2441   4.921   4.689   3.855
  826TIP3    H1 2442   5.009   4.660   3.831
  826TIP3    H2 2443   4.935   4.758   3.920
  827TIP3   OH2 2444   0.472   5.737   4.444
  827TIP3    H1 2445   0.530   5.713   4.517
  827TIP3    H2 2446   0.504   5.685   4.370
  828TIP3   OH2 2447   5.170   0.772   1.375
  828TIP3    H1 2448   5.139   0.810   1.457
  828TIP3    H2 2449   5.120   0.692   1.365
  829TIP3   OH2 2450   2.553   1.906   2.978
  829TIP3    H1 2451   2.517   1.932   3.063
  829TIP3    H2 2452   2.591   1.986   2.943
  830TIP3   OH2 2453   6.734   3.445   4.921
  830TIP3    H1 2454   6.824   3.413   4.923
  830TIP3    H2 2455   6.681   3.371   4.950
  831TIP3   OH2 2456   3.222   3.239   4.654
  831TIP3    H1 2457   3.248   3.320   4.698
  831TIP3    H2 2458   3.304   3.194   4.635
  832TIP3   OH2 2459   3.254   0.523   5.516
  832TIP3    H1 2460   3.235   0.438   5.477
  832TIP3    H2 2461   3.188   0.534   5.584
  833TIP3   OH2 2462   1.235   0.760   0.868
  833TIP3    H1 2463   1.250   0.729   0.957
  833TIP3    H2 2464   1.292   0.706   0.814
  834TIP3   OH2 2465   6.943   4.221   2.041
  834TIP3    H1 2466   6.853   4.241   2.015
  834TIP3    H2 2467   6.989   4.204   1.958
  835TIP3   OH2 2468   4.276   3.371   2.845
  835TIP3    H1 2469   4.236   3.438   2.901
  835TIP3    H2 2470   4.284   3.295   2.903
  836TIP3   OH2 2471   6.517   4.802   5.470
  836TIP3    H1 2472   6.471   4.875   5.511
  836TIP3    H2 2473   6.533   4.831   5.380
  837TIP3   OH2 2474   4.439   2.477   0.303
  837TIP3    H1 2475   4.483   2.423   0.238
  837TIP3    H2 2476   4.416   2.417   0.374
  838TIP3   OH2 2477   5.099   3.452   3.096
  838TIP3    H1 2478   5.140   3.401   3.167
  838TIP3    H2 2479   5.015   3.408   3.081
  839TIP3   OH2 2480   2.745   3.853   0.360
  839TIP3    H1 2481   2.656   3.832   0.332
  839TIP3    H2 2482   2.786   3.892   0.283
  840TIP3   OH2 2483   5.880   6.637   3.215
  840TIP3    H1 2484   5.933   6.557   3.220
  840TIP3    H2 2485   5.794   6.610   3.247
  841TIP3   OH2 2486   2.458   3.438   1.587
  841TIP3    H1 2487   2.474   3.505   1.654
  841TIP3    H2 2488   2.520   3.368   1.608
  842TIP3   OH2 2489   2.329   0.462   1.023
  842TIP3    H1 2490   2.256   0.489   1.079
  842TIP3    H2 2491   2.342   0.369   1.044
  843TIP3   OH2 2492   0.278   3.766   0.701
  843TIP3    H1 2493   0.186   3.791   0.691
  843TIP3    H2 2494   0.319   3.789   0.618
  844TIP3   OH2 2495   3.878   2.058   3.647
  844TIP3    H1 2496   3.901   2.036   3.738
  844TIP3    H2 2497   3.883   1.975   3.600
  845TIP3   OH2 2498   4.748   0.315   3.219
  845TIP3    H1 2499   4.780   0.402   3.194
  845TIP3    H2 2500   4.783   0.256   3.153
  846TIP3   OH2 2501   6.021   4.569  -0.022
  846TIP3    H1 2502   6.051   4.660  -0.025
  846TIP3    H2 2503   6.085   4.524   0.033
  847TIP3   OH2 2504   0.758   0.320   4.353
  847TIP3    H1 2505   0.831   0.374   4.384
  847TIP3    H2 2506   0.782   0.231   4.378
  848TIP3   OH2 2507   1.618   6.100   3.528
  848TIP3    H1 2508   1.622   6.110   3.433
  848TIP3    H2 2509   1.537   6.051   3.543
  849TIP3   OH2 2510   6.061   1.740   0.282
  849TIP3    H1 2511   6.098   1.826   0.259
  849TIP3    H2 2512   6.044   1.745   0.376
  850TIP3   OH2 2513   6.970   2.385   2.259
  850TIP3    H1 2514   7.046   2.407   2.313
  850TIP3    H2 2515   6.914   2.333   2.317
  851TIP3   OH2 2516   1.914   0.438   2.395
  851TIP3    H1 2517   1.968   0.470   2.322
  851TIP3    H2 2518   1.878   0.517   2.435
  852TIP3   OH2 2519   5.720   2.468   1.489
  852TIP3    H1 2520   5.785   2.480   1.557
  852TIP3    H2 2521   5.652   2.533   1.509
  853TIP3   OH2 2522   4.496   1.395   4.299
  853TIP3    H1 2523   4.431   1.334   4.334
  853TIP3    H2 2524   4.560   1.339   4.254
  854TIP3   OH2 2525   0.231   1.161   2.994
  854TIP3    H1 2526   0.301   1.222   3.017
  854TIP3    H2 2527   0.209   1.183   2.903
  855TIP3   OH2 2528   0.828   4.229   4.965
  855TIP3    H1 2529   0.867   4.157   4.915
  855TIP3    H2 2530   0.845   4.207   5.056
  856TIP3   OH2 2531   0.471   3.915   5.962
  856TIP3    H1 2532   0.514   3.919   5.877
  856TIP3    H2 2533   0.381   3.942   5.946
  857TIP3   OH2 2534   4.515   0.162   5.890
  857TIP3    H1 2535   4.531   0.237   5.947
  857TIP3    H2 2536   4.479   0.199   5.810
  858TIP3   OH2 2537   4.604   4.511   0.814
  858TIP3    H1 2538   4.549   4.453   0.868
  858TIP3    H2 2539   4.674   4.538   0.873
  859TIP3   OH2 2540   5.763   6.690   5.572
  859TIP3    H1 2541   5.790   6.603   5.541
  859TIP3    H2 2542   5.789   6.691   5.664
  860TIP3   OH2 2543   1.571   4.319   3.733
  860TIP3    H1 2544   1.608   4.252   3.790
  860TIP3    H2 2545   1.478   4.299   3.730
  861TIP3   OH2 2546   3.269   5.098   0.828
  861TIP3    H1 2547   3.323   5.070   0.754
  861TIP3    H2 2548   3.229   5.180   0.799
  862TIP3   OH2 2549   2.260   2.040   1.691
  862TIP3    H1 2550   2.329   2.062   1.754
  862TIP3    H2 2551   2.231   2.125   1.657
  863TIP3   OH2 2552   7.151   6.516   1.974
  863TIP3    H1 2553   7.165   6.433   2.019
  863TIP3    H2 2554   7.074   6.553   2.017
  864TIP3   OH2 2555   5.645   0.732   0.716
  864TIP3    H1 2556   5.641   0.650   0.666
  864TIP3    H2 2557   5.563   0.734   0.765
  865TIP3   OH2 2558   2.815   0.834   3.619
  865TIP3    H1 2559   2.850   0.788   3.542
  865TIP3    H2 2560   2.878   0.903   3.636
  866TIP3   OH2 2561   1.552   5.719   0.416
  866TIP3    H1 2562   1.642   5.749   0.404
  866TIP3    H2 2563   1.547   5.698   0.510
  867TIP3   OH2 2564   3.361   5.281   1.348
  867TIP3    H1 2565   3.291   5.231   1.308
  867TIP3    H2 2566   3.388   5.343   1.280
  868TIP3   OH2 2567   6.300   6.833   3.774
  868TIP3    H1 2568   6.334   6.785   3.698
  868TIP3    H2 2569   6.208   6.809   3.779
  869TIP3   OH2 2570   1.850   0.557   0.149
  869TIP3    H1 2571   1.890   0.511   0.075
  869TIP3    H2 2572   1.832   0.645   0.116
  870TIP3   OH2 2573   5.648   2.971   2.568
  870TIP3    H1 2574   5.646   2.884   2.527
  870TIP3    H2 2575   5.602   3.028   2.506
  871TIP3   OH2 2576   5.932   1.029   2.452
  871TIP3    H1 2577   5.855   0.973   2.442
  871TIP3    H2 2578   5.990   1.003   2.381
  872TIP3   OH2 2579   2.930   1.593   3.146
  872TIP3    H1 2580   2.935   1.663   3.081
  872TIP3    H2 2581   2.840   1.598   3.180
  873TIP3   OH2 2582   1.742   2.657   1.577
  873TIP3    H1 2583   1.806   2.699   1.635
  873TIP3    H2 2584   1.773   2.675   1.489
  874TIP3   OH2 2585   5.637   1.640   0.972
  874TIP3    H1 2586   5.556   1.689   0.986
  874TIP3    H2 2587   5.624   1.595   0.888
  875TIP3   OH2 2588   5.586   4.708   4.983
  875TIP3    H1 2589   5.566   4.799   5.006
  875TIP3    H2 2590   5.675   4.711   4.947
  876TIP3   OH2 2591   3.673   1.658   3.253
  876TIP3    H1 2592   3.763   1.632   3.234
  876TIP3    H2 2593   3.680   1.713   3.331
  877TIP3   OH2 2594   2.920   4.090   0.665
  877TIP3    H1 2595   2.903   4.035   0.741
  877TIP3    H2 2596   2.999   4.055   0.625
  878TIP3   OH2 2597   1.746   6.033   3.847
  878TIP3    H1 2598   1.820   6.094   3.848
  878TIP3    H2 2599   1.763   5.974   3.920
  879TIP3   OH2 2600   2.709   2.900   5.073
  879TIP3    H1 2601   2.650   2.971   5.097
  879TIP3    H2 2602   2.732   2.917   4.982
  880TIP3   OH2 2603   1.633   1.217   3.508
  880TIP3    H1 2604   1.560   1.275   3.529
  880TIP3    H2 2605   1.706   1.251   3.560
  881TIP3   OH2 2606   2.738   2.321   4.596
  881TIP3    H1 2607   2.795   2.248   4.623
  881TIP3    H2 2608   2.666   2.319   4.658
  882TIP3   OH2 2609   0.825   3.610   0.240
  882TIP3    H1 2610   0.766   3.578   0.172
  882TIP3    H2 2611   0.905   3.559   0.227
  883TIP3   OH2 2612   3.141   5.680   2.254
  883TIP3    H1 2613   3.074   5.727   2.303
  883TIP3    H2 2614   3.201   5.748   2.224
  884TIP3   OH2 2615   0.704   1.674   1.506
  884TIP3    H1 2616   0.745   1.729   1.573
  884TIP3    H2 2617   0.611   1.675   1.528
  885TIP3   OH2 2618   2.804   2.390   2.814
  885TIP3    H1 2619   2.800   2.459   2.748
  885TIP3    H2 2620   2.860   2.425   2.883
  886TIP3   OH2 2621   4.646   1.527   2.633
  886TIP3    H1 2622   4.617   1.557   2.548
  886TIP3    H2 2623   4.708   1.594   2.662
  887TIP3   OH2 2624   6.162   6.264   5.768
  887TIP3    H1 2625   6.202   6.215   5.839
  887TIP3    H2 2626   6.144   6.351   5.805
  888TIP3   OH2 2627   4.538   6.585   5.874
  888TIP3    H1 2628   4.495   6.573   5.789
  888TIP3    H2 2629   4.569   6.498   5.898
  889TIP3   OH2 2630   3.874   6.300   4.580
  889TIP3    H1 2631   3.938   6.280   4.511
  889TIP3    H2 2632   3.914   6.372   4.629
  890TIP3   OH2 2633   1.813   2.993   0.442
  890TIP3    H1 2634   1.836   2.900   0.440
  890TIP3    H2 2635   1.881   3.033   0.496
  891TIP3   OH2 2636   1.706   0.303   2.140
  891TIP3    H1 2637   1.693   0.247   2.064
  891TIP3    H2 2638   1.779   0.360   2.117
  892TIP3   OH2 2639   3.686   1.743   5.698
  892TIP3    H1 2640   3.651   1.654   5.708
  892TIP3    H2 2641   3.620   1.790   5.647
  893TIP3   OH2 2642   6.958   0.824   0.756
  893TIP3    H1 2643   7.037   0.792   0.713
  893TIP3    H2 2644   6.944   0.911   0.720
  894TIP3   OH2 2645   0.806   3.312   5.685
  894TIP3    H1 2646   0.821   3.240   5.746
  894TIP3    H2 2647   0.856   3.288   5.607
  895TIP3   OH2 2648   1.545   2.852   1.341
  895TIP3    H1 2649   1.612   2.786   1.324
  895TIP3    H2 2650   1.463   2.802   1.346
  896TIP3   OH2 2651   6.953   4.774   2.146
  896TIP3    H1 2652   7.032   4.729   2.174
  896TIP3    H2 2653   6.971   4.867   2.162
  897TIP3   OH2 2654   5.783   6.191   4.079
  897TIP3    H1 2655   5.854   6.126   4.085
  897TIP3    H2 2656   5.795   6.246   4.157
  898TIP3   OH2 2657   4.694   6.048   1.055
  898TIP3    H1 2658   4.622   6.028   1.116
  898TIP3    H2 2659   4.719   6.138   1.076
  899TIP3   OH2 2660   3.938   3.851   1.098
  899TIP3    H1 2661   4.028   3.826   1.078
  899TIP3    H2 2662   3.946   3.934   1.145
  900TIP3   OH2 2663   6.563   4.916   3.290
  900TIP3    H1 2664   6.624   4.847   3.263
  900TIP3    H2 2665   6.498   4.920   3.221
  901TIP3   OH2 2666   3.939   2.147   4.507
  901TIP3    H1 2667   3.924   2.231   4.551
  901TIP3    H2 2668   3.852   2.117   4.482
  902TIP3   OH2 2669   3.413   2.308   2.645
  902TIP3    H1 2670   3.344   2.355   2.597
  902TIP3    H2 2671   3.424   2.226   2.596
  903TIP3   OH2 2672   4.092   6.251   0.235
  903TIP3    H1 2673   3.998   6.242   0.245
  903TIP3    H2 2674   4.120   6.300   0.312
  904TIP3   OH2 2675   3.174   4.034   0.046
  904TIP3    H1 2676   3.142   4.018  -0.042
  904TIP3    H2 2677   3.269   4.042   0.036
  905TIP3   OH2 2678   1.601   5.846   4.641
  905TIP3    H1 2679   1.664   5.783   4.676
  905TIP3    H2 2680   1.517   5.821   4.681
  906TIP3   OH2 2681   2.980   5.102   3.320
  906TIP3    H1 2682   3.064   5.089   3.362
  906TIP3    H2 2683   2.973   5.030   3.257
  907TIP3   OH2 2684   0.416   4.677   4.287
  907TIP3    H1 2685   0.472   4.663   4.363
  907TIP3    H2 2686   0.327   4.665   4.319
  908TIP3   OH2 2687   4.833   4.039   4.308
  908TIP3    H1 2688   4.767   4.108   4.315
  908TIP3    H2 2689   4.795   3.965   4.356
  909TIP3   OH2 2690   0.257   4.513   2.504
  909TIP3    H1 2691   0.338   4.472   2.536
  909TIP3    H2 2692   0.277   4.606   2.498
  910TIP3   OH2 2693   6.341   0.312   2.691
  910TIP3    H1 2694   6.415   0.296   2.632
  910TIP3    H2 2695   6.381   0.334   2.775
  911TIP3   OH2 2696   0.380   4.605   5.369
  911TIP3    H1 2697   0.396   4.677   5.308
  911TIP3    H2 2698   0.318   4.548   5.324
  912TIP3   OH2 2699   5.197   4.885   2.539
  912TIP3    H1 2700   5.235   4.799   2.552
  912TIP3    H2 2701   5.105   4.868   2.517
  913TIP3   OH2 2702   5.916   1.783   1.340
  913TIP3    H1 2703   5.941   1.692   1.358
  913TIP3    H2 2704   5.827   1.778   1.306
  914TIP3   OH2 2705   3.630   5.261   3.680
  914TIP3    H1 2706   3.715   5.285   3.643
  914TIP3    H2 2707   3.576   5.238   3.604
  915TIP3   OH2 2708   4.189   2.516   5.689
  915TIP3    H1 2709   4.137   2.442   5.657
  915TIP3    H2 2710   4.189   2.578   5.617
  916TIP3   OH2 2711   2.397   0.243   1.515
  916TIP3    H1 2712   2.440   0.181   1.574
  916TIP3    H2 2713   2.454   0.248   1.439
  917TIP3   OH2 2714   1.152   1.101   3.747
  917TIP3    H1 2715   1.098   1.091   3.668
  917TIP3    H2 2716   1.158   1.195   3.760
  918TIP3   OH2 2717   4.231   3.000   0.166
  918TIP3    H1 2718   4.240   2.941   0.091
  918TIP3    H2 2719   4.283   2.959   0.235
  919TIP3   OH2 2720   4.929   4.344   4.573
  919TIP3    H1 2721   4.852   4.325   4.627
  919TIP3    H2 2722   4.996   4.283   4.603
  920TIP3   OH2 2723   4.103   3.503   3.472
  920TIP3    H1 2724   4.055   3.576   3.511
  920TIP3    H2 2725   4.035   3.446   3.436
  921TIP3   OH2 2726   6.496   6.038   1.764
  921TIP3    H1 2727   6.452   6.111   1.722
  921TIP3    H2 2728   6.544   5.995   1.693
  922TIP3   OH2 2729   2.227   3.619   1.174
  922TIP3    H1 2730   2.186   3.673   1.241
  922TIP3    H2 2731   2.301   3.577   1.218
  923TIP3   OH2 2732   2.041   3.692   2.946
  923TIP3    H1 2733   2.122   3.659   2.985
  923TIP3    H2 2734   2.052   3.679   2.852
  924TIP3   OH2 2735   5.603   0.838   0.258
  924TIP3    H1 2736   5.537   0.817   0.192
  924TIP3    H2 2737   5.556   0.837   0.341
  925TIP3   OH2 2738   4.957   4.750   0.804
  925TIP3    H1 2739   4.907   4.716   0.878
  925TIP3    H2 2740   4.950   4.681   0.738
  926TIP3   OH2 2741   1.139   4.907   5.366
  926TIP3    H1 2742   1.070   4.957   5.411
  926TIP3    H2 2743   1.191   4.870   5.436
  927TIP3   OH2 2744   1.201   4.973   3.835
  927TIP3    H1 2745   1.291   4.951   3.813
  927TIP3    H2 2746   1.201   4.980   3.931
  928TIP3   OH2 2747   6.396   0.835   1.798
  928TIP3    H1 2748   6.473   0.893   1.799
  928TIP3    H2 2749   6.411   0.778   1.723
  929TIP3   OH2 2750   3.823   5.671   1.455
  929TIP3    H1 2751   3.763   5.639   1.387
  929TIP3    H2 2752   3.824   5.766   1.443
  930TIP3   OH2 2753   0.884   4.725   4.939
  930TIP3    H1 2754   0.925   4.639   4.928
  930TIP3    H2 2755   0.943   4.772   4.998
  931TIP3   OH2 2756   2.837   2.230   2.559
  931TIP3    H1 2757   2.831   2.300   2.625
  931TIP3    H2 2758   2.803   2.269   2.479
  932TIP3   OH2 2759   3.039   0.887   4.704
  932TIP3    H1 2760   3.101   0.916   4.637
  932TIP3    H2 2761   2.982   0.825   4.659
  933TIP3   OH2 2762   3.111   6.003   0.230
  933TIP3    H1 2763   3.046   6.046   0.287
  933TIP3    H2 2764   3.121   5.915   0.267
  934TIP3   OH2 2765   6.887   1.327   2.656
  934TIP3    H1 2766   6.844   1.297   2.736
  934TIP3    H2 2767   6.945   1.255   2.631
  935TIP3   OH2 2768   5.779   2.042   5.133
  935TIP3    H1 2769   5.801   1.954   5.162
  935TIP3    H2 2770   5.770   2.035   5.038
  936TIP3   OH2 2771   4.003   4.990   2.612
  936TIP3    H1 2772   4.029   5.067   2.662
  936TIP3    H2 2773   3.908   4.985   2.622
  937TIP3   OH2 2774   6.513   4.333   2.806
  937TIP3    H1 2775   6.510   4.403   2.741
  937TIP3    H2 2776   6.603   4.299   2.800
  938TIP3   OH2 2777   0.387   1.663   3.157
  938TIP3    H1 2778   0.465   1.610   3.141
  938TIP3    H2 2779   0.345   1.622   3.233
  939TIP3   OH2 2780   4.378   2.221   1.200
  939TIP3    H1 2781   4.314   2.279   1.242
  939TIP3    H2 2782   4.332   2.138   1.189
  940TIP3   OH2 2783   6.538   5.799   2.470
  940TIP3    H1 2784   6.538   5.784   2.565
  940TIP3    H2 2785   6.631   5.807   2.447
  941TIP3   OH2 2786   2.784   0.990   4.289
  941TIP3    H1 2787   2.873   1.000   4.324
  941TIP3    H2 2788   2.759   0.901   4.312
  942TIP3   OH2 2789   1.778   1.450   2.944
  942TIP3    H1 2790   1.773   1.520   2.879
  942TIP3    H2 2791   1.731   1.486   3.020
  943TIP3   OH2 2792   1.575   1.268   4.928
  943TIP3    H1 2793   1.523   1.291   5.006
  943TIP3    H2 2794   1.589   1.174   4.935
  944TIP3   OH2 2795   4.957   0.688   2.446
  944TIP3    H1 2796   5.022   0.753   2.474
  944TIP3    H2 2797   4.888   0.740   2.404
  945TIP3   OH2 2798   2.133   3.112   1.769
  945TIP3    H1 2799   2.203   3.058   1.733
  945TIP3    H2 2800   2.055   3.088   1.718
  946TIP3   OH2 2801   0.728   0.812   4.572
  946TIP3    H1 2802   0.690   0.740   4.523
  946TIP3    H2 2803   0.822   0.800   4.563
  947TIP3   OH2 2804   0.048   5.437   0.451
  947TIP3    H1 2805   0.059   5.362   0.511
  947TIP3    H2 2806   0.067   5.513   0.505
  948TIP3   OH2 2807   0.050   0.176   2.599
  948TIP3    H1 2808   0.111   0.142   2.534
  948TIP3    H2 2809   0.051   0.110   2.669
  949TIP3   OH2 2810   6.739   1.457   0.714
  949TIP3    H1 2811   6.655   1.498   0.730
  949TIP3    H2 2812   6.749   1.393   0.785
  950TIP3   OH2 2813   1.228   6.564   4.738
  950TIP3    H1 2814   1.220   6.469   4.733
  950TIP3    H2 2815   1.141   6.597   4.718
  951TIP3   OH2 2816   2.981   2.497   2.975
  951TIP3    H1 2817   2.922   2.563   3.012
  951TIP3    H2 2818   3.053   2.547   2.937
  952TIP3   OH2 2819   2.060   3.525   0.190
  952TIP3    H1 2820   1.967   3.550   0.193
  952TIP3    H2 2821   2.081   3.523   0.096
  953TIP3   OH2 2822   6.538   3.830   3.061
  953TIP3    H1 2823   6.448   3.851   3.085
  953TIP3    H2 2824   6.537   3.736   3.041
  954TIP3   OH2 2825   2.673   2.850   2.841
  954TIP3    H1 2826   2.578   2.859   2.837
  954TIP3    H2 2827   2.693   2.847   2.935
  955TIP3   OH2 2828   0.615   6.716   3.566
  955TIP3    H1 2829   0.582   6.782   3.627
  955TIP3    H2 2830   0.691   6.758   3.525
  956TIP3   OH2 2831   5.528   4.289   2.855
  956TIP3    H1 2832   5.518   4.223   2.787
  956TIP3    H2 2833   5.622   4.290   2.875
  957TIP3   OH2 2834   1.469   5.566   5.070
  957TIP3    H1 2835   1.455   5.571   5.164
  957TIP3    H2 2836   1.476   5.473   5.051
  958TIP3   OH2 2837   2.744   4.265   4.901
  958TIP3    H1 2838   2.648   4.262   4.895
  958TIP3    H2 2839   2.774   4.243   4.813
  959TIP3   OH2 2840   3.777   0.288   1.268
  959TIP3    H1 2841   3.789   0.203   1.225
  959TIP3    H2 2842   3.689   0.283   1.306
  960TIP3   OH2 2843   6.043   0.495   1.410
  960TIP3    H1 2844   6.013   0.409   1.439
  960TIP3    H2 2845   6.092   0.529   1.485
  961TIP3   OH2 2846   2.987   2.853   0.533
  961TIP3    H1 2847   2.938   2.930   0.504
  961TIP3    H2 2848   3.064   2.889   0.576
  962TIP3   OH2 2849   4.395   6.239   4.487
  962TIP3    H1 2850   4.412   6.290   4.408
  962TIP3    H2 2851   4.455   6.165   4.482
  963TIP3   OH2 2852   0.957   1.273   1.865
  963TIP3    H1 2853   0.962   1.339   1.795
  963TIP3    H2 2854   1.047   1.244   1.877
  964TIP3   OH2 2855   6.491   2.127   2.570
  964TIP3    H1 2856   6.525   2.209   2.605
  964TIP3    H2 2857   6.424   2.155   2.507
  965TIP3   OH2 2858   0.454   6.599   0.132
  965TIP3    H1 2859   0.432   6.572   0.043
  965TIP3    H2 2860   0.507   6.678   0.120
  966TIP3   OH2 2861   1.639   5.037   1.261
  966TIP3    H1 2862   1.677   4.972   1.320
  966TIP3    H2 2863   1.712   5.062   1.203
  967TIP3   OH2 2864   4.287   4.845   3.236
  967TIP3    H1 2865   4.264   4.912   3.301
  967TIP3    H2 2866   4.222   4.856   3.167
  968TIP3   OH2 2867   3.090   3.263   5.169
  968TIP3    H1 2868   3.168   3.227   5.212
  968TIP3    H2 2869   3.017   3.237   5.225
  969TIP3   OH2 2870   5.040   5.857   3.502
  969TIP3    H1 2871   4.995   5.941   3.504
  969TIP3    H2 2872   4.974   5.794   3.472
  970TIP3   OH2 2873   3.547   0.235   3.954
  970TIP3    H1 2874   3.507   0.168   4.009
  970TIP3    H2 2875   3.548   0.314   4.009
  971TIP3   OH2 2876   2.945   3.720   0.476
  971TIP3    H1 2877   2.864   3.761   0.448
  971TIP3    H2 2878   3.005   3.731   0.403
  972TIP3   OH2 2879   5.678   2.886   0.383
  972TIP3    H1 2880   5.747   2.838   0.337
  972TIP3    H2 2881   5.706   2.886   0.475
  973TIP3   OH2 2882   3.333   5.234  -0.033
  973TIP3    H1 2883   3.378   5.235   0.052
  973TIP3    H2 2884   3.403   5.218  -0.096
  974TIP3   OH2 2885   6.106   3.614   3.489
  974TIP3    H1 2886   6.056   3.607   3.569
  974TIP3    H2 2887   6.071   3.545   3.432
  975TIP3   OH2 2888   6.804   4.187   3.239
  975TIP3    H1 2889   6.755   4.165   3.160
  975TIP3    H2 2890   6.756   4.145   3.310
  976TIP3   OH2 2891   3.089   0.291   5.556
  976TIP3    H1 2892   3.052   0.271   5.470
  976TIP3    H2 2893   3.135   0.210   5.581
  977TIP3   OH2 2894   4.510   5.978   0.853
  977TIP3    H1 2895   4.431   5.928   0.874
  977TIP3    H2 2896   4.537   6.016   0.937
  978TIP3   OH2 2897   5.217   0.153   4.180
  978TIP3    H1 2898   5.127   0.150   4.147
  978TIP3    H2 2899   5.234   0.065   4.212
  979TIP3   OH2 2900   3.068   2.352   3.213
  979TIP3    H1 2901   3.103   2.386   3.295
  979TIP3    H2 2902   3.024   2.427   3.173
  980TIP3   OH2 2903   3.164   3.024   3.930
  980TIP3    H1 2904   3.231   2.994   3.991
  980TIP3    H2 2905   3.149   3.116   3.953
  981TIP3   OH2 2906   1.966   1.531   0.072
  981TIP3    H1 2907   1.895   1.486   0.118
  981TIP3    H2 2908   2.002   1.465   0.013
  982TIP3   OH2 2909   4.333   3.715   0.119
  982TIP3    H1 2910   4.426   3.697   0.126
  982TIP3    H2 2911   4.324   3.806   0.146
  983TIP3   OH2 2912   0.594   4.571   0.867
  983TIP3    H1 2913   0.561   4.482   0.866
  983TIP3    H2 2914   0.551   4.614   0.793
  984TIP3   OH2 2915   2.702   0.867   4.903
  984TIP3    H1 2916   2.750   0.936   4.950
  984TIP3    H2 2917   2.744   0.786   4.932
  985TIP3   OH2 2918   3.316   5.464   0.479
  985TIP3    H1 2919   3.392   5.417   0.446
  985TIP3    H2 2920   3.252   5.458   0.408
  986TIP3   OH2 2921   3.776   0.637   4.009
  986TIP3    H1 2922   3.853   0.694   4.000
  986TIP3    H2 2923   3.734   0.640   3.923
  987TIP3   OH2 2924   6.699   1.817   0.244
  987TIP3    H1 2925   6.792   1.810   0.222
  987TIP3    H2 2926   6.674   1.904   0.214
  988TIP3   OH2 2927   3.856   3.179   0.530
  988TIP3    H1 2928   3.857   3.115   0.601
  988TIP3    H2 2929   3.912   3.250   0.561
  989TIP3   OH2 2930   4.449   3.995   2.803
  989TIP3    H1 2931   4.483   4.030   2.885
  989TIP3    H2 2932   4.467   3.901   2.809
  990TIP3   OH2 2933   7.003   2.191   0.295
  990TIP3    H1 2934   6.928   2.219   0.347
  990TIP3    H2 2935   6.966   2.137   0.225
  991TIP3   OH2 2936   3.164   2.487   0.056
  991TIP3    H1 2937   3.102   2.560   0.055
  991TIP3    H2 2938   3.183   2.474   0.149
  992TIP3   OH2 2939   3.394   0.155   5.175
  992TIP3    H1 2940   3.339   0.233   5.177
  992TIP3    H2 2941   3.371   0.108   5.255
  993TIP3   OH2 2942   2.807   0.083   0.733
  993TIP3    H1 2943   2.783   0.120   0.818
  993TIP3    H2 2944   2.818   0.160   0.677
  994TIP3   OH2 2945   5.642   0.157   3.718
  994TIP3    H1 2946   5.651   0.109   3.636
  994TIP3    H2 2947   5.547   0.166   3.730
  995TIP3   OH2 2948   7.122   6.131   0.133
  995TIP3    H1 2949   7.095   6.221   0.119
  995TIP3    H2 2950   7.041   6.080   0.123
  996TIP3   OH2 2951   2.647   1.124   5.741
  996TIP3    H1 2952   2.643   1.029   5.752
  996TIP3    H2 2953   2.561   1.148   5.706
  997TIP3   OH2 2954   2.471   2.857   5.803
  997TIP3    H1 2955   2.422   2.801   5.743
  997TIP3    H2 2956   2.532   2.905   5.747
  998TIP3   OH2 2957   7.084   3.053   5.517
  998TIP3    H1 2958   7.167   3.040   5.472
  998TIP3    H2 2959   7.032   3.108   5.458
  999TIP3   OH2 2960   1.609   1.579   4.675
  999TIP3    H1 2961   1.675   1.529   4.628
  999TIP3    H2 2962   1.588   1.652   4.617
 1000TIP3   OH2 2963   2.309   2.914   4.982
 1000TIP3    H1 2964   2.251   2.913   4.905
 1000TIP3    H2 2965   2.340   2.824   4.991
 1001TIP3   OH2 2966   6.302   6.117   2.137
 1001TIP3    H1 2967   6.306   6.158   2.224
 1001TIP3    H2 2968   6.348   6.034   2.147
 1002TIP3   OH2 2969   6.979   0.121   5.454
 1002TIP3    H1 2970   7.043   0.082   5.395
 1002TIP3    H2 2971   6.977   0.214   5.429
 1003TIP3   OH2 2972   2.856   6.142   3.165
 1003TIP3    H1 2973   2.768   6.116   3.140
 1003TIP3    H2 2974   2.906   6.142   3.084
 1004TIP3   OH2 2975   1.499   3.873   5.653
 1004TIP3    H1 2976   1.461   3.944   5.600
 1004TIP3    H2 2977   1.432   3.804   5.652
 1005TIP3   OH2 2978   0.526   3.687   4.251
 1005TIP3    H1 2979   0.476   3.718   4.326
 1005TIP3    H2 2980   0.583   3.760   4.228
 1006TIP3   OH2 2981   5.291   5.763   1.465
 1006TIP3    H1 2982   5.299   5.668   1.473
 1006TIP3    H2 2983   5.378   5.793   1.438
 1007TIP3   OH2 2984   3.244   4.764   2.263
 1007TIP3    H1 2985   3.319   4.719   2.301
 1007TIP3    H2 2986   3.171   4.703   2.275
 1008TIP3   OH2 2987   2.961   6.511   1.430
 1008TIP3    H1 2988   2.986   6.505   1.522
 1008TIP3    H2 2989   2.907   6.590   1.424
 1009TIP3   OH2 2990   2.964   2.294   0.048
 1009TIP3    H1 2991   2.911   2.312  -0.030
 1009TIP3    H2 2992   3.039   2.354   0.041
 1010TIP3   OH2 2993   0.388   0.598   3.003
 1010TIP3    H1 2994   0.330   0.522   2.995
 1010TIP3    H2 2995   0.340   0.658   3.060
 1011TIP3   OH2 2996   0.542   3.890   3.425
 1011TIP3    H1 2997   0.469   3.951   3.432
 1011TIP3    H2 2998   0.571   3.897   3.333
 1012TIP3   OH2 2999   0.445   6.307   0.981
 1012TIP3    H1 3000   0.374   6.244   0.998
 1012TIP3    H2 3001   0.429   6.378   1.042
 1013TIP3   OH2 3002   2.994   2.047   0.547
 1013TIP3    H1 3003   2.986   2.096   0.465
 1013TIP3    H2 3004   2.982   1.956   0.523
 1014TIP3   OH2 3005   6.817   2.393   3.439
 1014TIP3    H1 3006   6.750   2.351   3.493
 1014TIP3    H2 3007   6.889   2.411   3.499
 1015TIP3   OH2 3008   2.839   3.793   1.735
 1015TIP3    H1 3009   2.841   3.764   1.826
 1015TIP3    H2 3010   2.879   3.880   1.737
 1016TIP3   OH2 3011   4.452   1.874   0.654
 1016TIP3    H1 3012   4.493   1.910   0.575
 1016TIP3    H2 3013   4.389   1.810   0.622
 1017TIP3   OH2 3014   0.131   3.862   1.672
 1017TIP3    H1 3015   0.195   3.810   1.719
 1017TIP3    H2 3016   0.064   3.799   1.645
 1018TIP3   OH2 3017   0.799   3.823   5.247
 1018TIP3    H1 3018   0.785   3.788   5.160
 1018TIP3    H2 3019   0.877   3.877   5.239
 1019TIP3   OH2 3020   4.651   3.471   1.262
 1019TIP3    H1 3021   4.670   3.502   1.173
 1019TIP3    H2 3022   4.734   3.435   1.293
 1020TIP3   OH2 3023   1.345   3.559   0.514
 1020TIP3    H1 3024   1.394   3.616   0.456
 1020TIP3    H2 3025   1.412   3.512   0.564
 1021TIP3   OH2 3026   6.500   3.243   3.109
 1021TIP3    H1 3027   6.514   3.155   3.144
 1021TIP3    H2 3028   6.481   3.297   3.186
 1022TIP3   OH2 3029   6.974   6.415   2.979
 1022TIP3    H1 3030   6.933   6.488   2.934
 1022TIP3    H2 3031   7.016   6.364   2.910
 1023TIP3   OH2 3032   3.047   5.610   1.976
 1023TIP3    H1 3033   3.141   5.614   1.961
 1023TIP3    H2 3034   3.034   5.659   2.057
 1024TIP3   OH2 3035   4.642   4.856   0.981
 1024TIP3    H1 3036   4.644   4.765   1.010
 1024TIP3    H2 3037   4.717   4.897   1.024
 1025TIP3   OH2 3038   2.828   4.466   2.443
 1025TIP3    H1 3039   2.747   4.462   2.394
 1025TIP3    H2 3040   2.808   4.519   2.520
 1026TIP3   OH2 3041   4.161   6.435   0.686
 1026TIP3    H1 3042   4.142   6.382   0.764
 1026TIP3    H2 3043   4.253   6.416   0.667
 1027TIP3   OH2 3044   3.490   1.933   2.844
 1027TIP3    H1 3045   3.545   1.926   2.766
 1027TIP3    H2 3046   3.544   1.897   2.914
 1028TIP3   OH2 3047   4.710   0.047   3.611
 1028TIP3    H1 3048   4.768   0.070   3.539
 1028TIP3    H2 3049   4.692  -0.046   3.599
 1029TIP3   OH2 3050   1.975   6.009   2.020
 1029TIP3    H1 3051   1.912   5.969   2.079
 1029TIP3    H2 3052   2.017   5.935   1.976
 1030TIP3   OH2 3053   6.226   3.913   2.099
 1030TIP3    H1 3054   6.148   3.945   2.054
 1030TIP3    H2 3055   6.300   3.949   2.049
 1031TIP3   OH2 3056   3.762   1.638   1.209
 1031TIP3    H1 3057   3.701   1.712   1.203
 1031TIP3    H2 3058   3.708   1.566   1.243
 1032TIP3   OH2 3059   2.994   5.084   1.457
 1032TIP3    H1 3060   2.900   5.070   1.452
 1032TIP3    H2 3061   3.006   5.178   1.443
 1033TIP3   OH2 3062   1.470   5.602   5.354
 1033TIP3    H1 3063   1.431   5.620   5.439
 1033TIP3    H2 3064   1.525   5.678   5.336
 1034TIP3   OH2 3065   4.908   3.041   0.880
 1034TIP3    H1 3066   4.849   2.967   0.898
 1034TIP3    H2 3067   4.898   3.099   0.956
 1035TIP3   OH2 3068   1.994   6.264   5.450
 1035TIP3    H1 3069   1.985   6.317   5.529
 1035TIP3    H2 3070   1.950   6.182   5.470
 1036TIP3   OH2 3071   5.685   0.532   0.077
 1036TIP3    H1 3072   5.649   0.444   0.081
 1036TIP3    H2 3073   5.651   0.575   0.156
 1037TIP3   OH2 3074   5.248   4.664   5.773
 1037TIP3    H1 3075   5.232   4.705   5.688
 1037TIP3    H2 3076   5.309   4.723   5.817
 1038TIP3   OH2 3077   6.038   1.888   5.071
 1038TIP3    H1 3078   5.975   1.916   5.004
 1038TIP3    H2 3079   6.029   1.793   5.075
 1039TIP3   OH2 3080   6.006   3.051   3.773
 1039TIP3    H1 3081   6.046   3.131   3.807
 1039TIP3    H2 3082   5.931   3.081   3.723
 1040TIP3   OH2 3083   3.140   0.883   1.755
 1040TIP3    H1 3084   3.046   0.888   1.773
 1040TIP3    H2 3085   3.179   0.853   1.837
 1041TIP3   OH2 3086   4.736   2.616   1.034
 1041TIP3    H1 3087   4.665   2.611   1.098
 1041TIP3    H2 3088   4.755   2.524   1.012
 1042TIP3   OH2 3089   2.055   1.049   0.868
 1042TIP3    H1 3090   1.960   1.038   0.879
 1042TIP3    H2 3091   2.063   1.131   0.820
 1043TIP3   OH2 3092   1.593   1.311   5.397
 1043TIP3    H1 3093   1.644   1.298   5.477
 1043TIP3    H2 3094   1.640   1.261   5.330
 1044TIP3   OH2 3095   5.526   5.236   5.254
 1044TIP3    H1 3096   5.574   5.154   5.257
 1044TIP3    H2 3097   5.587   5.298   5.213
 1045TIP3   OH2 3098   6.010   2.707   0.686
 1045TIP3    H1 3099   6.013   2.619   0.725
 1045TIP3    H2 3100   6.093   2.715   0.639
 1046TIP3   OH2 3101   1.736   3.220   0.942
 1046TIP3    H1 3102   1.728   3.146   1.003
 1046TIP3    H2 3103   1.820   3.260   0.963
 1047TIP3   OH2 3104   5.976   4.396   3.207
 1047TIP3    H1 3105   5.956   4.490   3.197
 1047TIP3    H2 3106   5.966   4.379   3.300
 1048TIP3   OH2 3107   2.622   6.714   3.467
 1048TIP3    H1 3108   2.571   6.792   3.447
 1048TIP3    H2 3109   2.580   6.644   3.416
 1049TIP3   OH2 3110   6.557   0.298   1.855
 1049TIP3    H1 3111   6.619   0.279   1.784
 1049TIP3    H2 3112   6.541   0.214   1.896
 1050TIP3   OH2 3113  -0.019   2.709   3.168
 1050TIP3    H1 3114  -0.061   2.652   3.232
 1050TIP3    H2 3115   0.028   2.773   3.221
 1051TIP3   OH2 3116   0.836   2.073   4.826
 1051TIP3    H1 3117   0.760   2.122   4.858
 1051TIP3    H2 3118   0.911   2.114   4.868
 1052TIP3   OH2 3119   3.137   1.166   4.635
 1052TIP3    H1 3120   3.149   1.253   4.598
 1052TIP3    H2 3121   3.107   1.183   4.725
 1053TIP3   OH2 3122   6.658   0.834   4.365
 1053TIP3    H1 3123   6.670   0.830   4.270
 1053TIP3    H2 3124   6.736   0.877   4.398
 1054TIP3   OH2 3125   4.088   2.366   0.753
 1054TIP3    H1 3126   3.998   2.360   0.723
 1054TIP3    H2 3127   4.100   2.289   0.809
 1055TIP3   OH2 3128   3.153   3.557   4.630
 1055TIP3    H1 3129   3.239   3.534   4.595
 1055TIP3    H2 3130   3.101   3.578   4.553
 1056TIP3   OH2 3131   6.662   5.682   3.578
 1056TIP3    H1 3132   6.694   5.720   3.660
 1056TIP3    H2 3133   6.592   5.741   3.550
 1057TIP3   OH2 3134   7.050   6.083   3.916
 1057TIP3    H1 3135   7.003   6.007   3.949
 1057TIP3    H2 3136   7.001   6.109   3.838
 1058TIP3   OH2 3137   1.537   6.099   1.532
 1058TIP3    H1 3138   1.530   6.185   1.573
 1058TIP3    H2 3139   1.613   6.106   1.474
 1059TIP3   OH2 3140   0.120   1.302   0.605
 1059TIP3    H1 3141   0.151   1.231   0.661
 1059TIP3    H2 3142   0.032   1.275   0.579
 1060TIP3   OH2 3143   1.671   6.023   0.648
 1060TIP3    H1 3144   1.688   5.933   0.622
 1060TIP3    H2 3145   1.584   6.042   0.612
 1061TIP3   OH2 3146   4.816   0.482   0.286
 1061TIP3    H1 3147   4.830   0.431   0.206
 1061TIP3    H2 3148   4.773   0.421   0.346
 1062TIP3   OH2 3149   4.433   5.196   5.868
 1062TIP3    H1 3150   4.443   5.206   5.773
 1062TIP3    H2 3151   4.421   5.102   5.881
 1063TIP3   OH2 3152   1.801   3.862   1.896
 1063TIP3    H1 3153   1.771   3.950   1.921
 1063TIP3    H2 3154   1.808   3.865   1.801
 1064TIP3   OH2 3155   6.520   3.250   5.857
 1064TIP3    H1 3156   6.483   3.186   5.919
 1064TIP3    H2 3157   6.612   3.226   5.849
 1065TIP3   OH2 3158   1.077   5.462   2.823
 1065TIP3    H1 3159   1.170   5.446   2.835
 1065TIP3    H2 3160   1.053   5.519   2.896
 1066TIP3   OH2 3161   2.835   5.224   5.935
 1066TIP3    H1 3162   2.750   5.236   5.977
 1066TIP3    H2 3163   2.822   5.256   5.846
 1067TIP3   OH2 3164   6.871   1.321   4.052
 1067TIP3    H1 3165   6.827   1.251   4.004
 1067TIP3    H2 3166   6.842   1.309   4.143
 1068TIP3   OH2 3167   7.165   6.269   1.314
 1068TIP3    H1 3168   7.250   6.228   1.299
 1068TIP3    H2 3169   7.180   6.362   1.298
 1069TIP3   OH2 3170   5.807   4.304   2.877
 1069TIP3    H1 3171   5.846   4.250   2.808
 1069TIP3    H2 3172   5.868   4.377   2.888
 1070TIP3   OH2 3173   0.157   5.945   3.119
 1070TIP3    H1 3174   0.210   5.866   3.132
 1070TIP3    H2 3175   0.073   5.911   3.087
 1071TIP3   OH2 3176   4.071   4.200   2.938
 1071TIP3    H1 3177   4.079   4.165   3.026
 1071TIP3    H2 3178   4.037   4.289   2.950
 1072TIP3   OH2 3179   3.826   6.392   3.722
 1072TIP3    H1 3180   3.813   6.373   3.629
 1072TIP3    H2 3181   3.824   6.306   3.764
 1073TIP3   OH2 3182   2.481   0.140   4.649
 1073TIP3    H1 3183   2.468   0.048   4.668
 1073TIP3    H2 3184   2.431   0.156   4.569
 1074TIP3   OH2 3185   6.789   5.200   0.034
 1074TIP3    H1 3186   6.788   5.185  -0.060
 1074TIP3    H2 3187   6.870   5.159   0.064
 1075TIP3   OH2 3188   7.228   5.717   3.949
 1075TIP3    H1 3189   7.167   5.782   3.985
 1075TIP3    H2 3190   7.278   5.766   3.884
 1076TIP3   OH2 3191   5.044   2.067   5.442
 1076TIP3    H1 3192   5.086   2.007   5.380
 1076TIP3    H2 3193   4.954   2.037   5.447
 1077TIP3   OH2 3194   3.382   6.503   2.821
 1077TIP3    H1 3195   3.381   6.483   2.727
 1077TIP3    H2 3196   3.372   6.419   2.864
 1078TIP3   OH2 3197   3.396   1.723   3.399
 1078TIP3    H1 3198   3.422   1.640   3.439
 1078TIP3    H2 3199   3.406   1.788   3.468
 1079TIP3   OH2 3200   6.108   4.952   1.460
 1079TIP3    H1 3201   6.023   4.963   1.418
 1079TIP3    H2 3202   6.160   4.903   1.396
 1080TIP3   OH2 3203   6.496   0.884   2.356
 1080TIP3    H1 3204   6.465   0.816   2.415
 1080TIP3    H2 3205   6.564   0.929   2.406
 1081TIP3   OH2 3206   2.377   0.732   0.312
 1081TIP3    H1 3207   2.470   0.737   0.288
 1081TIP3    H2 3208   2.334   0.695   0.235
 1082TIP3   OH2 3209   1.742   6.101   2.206
 1082TIP3    H1 3210   1.770   6.176   2.257
 1082TIP3    H2 3211   1.665   6.131   2.158
 1083TIP3   OH2 3212   2.153   1.858   3.433
 1083TIP3    H1 3213   2.094   1.931   3.417
 1083TIP3    H2 3214   2.150   1.844   3.527
 1084TIP3   OH2 3215   6.631   5.896   3.376
 1084TIP3    H1 3216   6.541   5.868   3.357
 1084TIP3    H2 3217   6.684   5.850   3.311
 1085TIP3   OH2 3218   1.815   4.785   4.415
 1085TIP3    H1 3219   1.736   4.778   4.362
 1085TIP3    H2 3220   1.818   4.876   4.442
 1086TIP3   OH2 3221   5.454   5.659   1.886
 1086TIP3    H1 3222   5.419   5.576   1.916
 1086TIP3    H2 3223   5.543   5.661   1.921
 1087TIP3   OH2 3224   6.717   3.618   4.671
 1087TIP3    H1 3225   6.779   3.613   4.744
 1087TIP3    H2 3226   6.677   3.704   4.680
 1088TIP3   OH2 3227   0.782   2.555   5.505
 1088TIP3    H1 3228   0.749   2.600   5.427
 1088TIP3    H2 3229   0.709   2.501   5.534
 1089TIP3   OH2 3230   7.129   2.976   3.500
 1089TIP3    H1 3231   7.211   2.958   3.453
 1089TIP3    H2 3232   7.121   2.903   3.562
 1090TIP3   OH2 3233   3.597   2.678   2.226
 1090TIP3    H1 3234   3.632   2.733   2.296
 1090TIP3    H2 3235   3.648   2.702   2.148
 1091TIP3   OH2 3236   6.019   0.930   2.223
 1091TIP3    H1 3237   6.011   0.919   2.128
 1091TIP3    H2 3238   6.096   0.878   2.246
 1092TIP3   OH2 3239   1.446   2.443   3.012
 1092TIP3    H1 3240   1.528   2.400   3.036
 1092TIP3    H2 3241   1.388   2.372   2.984
 1093TIP3   OH2 3242   6.035   1.075   3.602
 1093TIP3    H1 3243   6.027   1.162   3.640
 1093TIP3    H2 3244   6.060   1.019   3.676
 1094TIP3   OH2 3245   3.398   0.657   2.499
 1094TIP3    H1 3246   3.442   0.577   2.527
 1094TIP3    H2 3247   3.323   0.665   2.559
 1095TIP3   OH2 3248   6.648   3.081   4.823
 1095TIP3    H1 3249   6.581   3.137   4.861
 1095TIP3    H2 3250   6.722   3.140   4.807
 1096TIP3   OH2 3251   2.953   0.804   5.604
 1096TIP3    H1 3252   3.041   0.811   5.565
 1096TIP3    H2 3253   2.957   0.725   5.658
 1097TIP3   OH2 3254   2.961   3.008   0.857
 1097TIP3    H1 3255   3.052   3.036   0.864
 1097TIP3    H2 3256   2.965   2.913   0.849
 1098TIP3   OH2 3257   6.083   6.128   1.611
 1098TIP3    H1 3258   6.051   6.208   1.570
 1098TIP3    H2 3259   6.114   6.074   1.538
 1099TIP3   OH2 3260   6.397   0.268   3.522
 1099TIP3    H1 3261   6.329   0.203   3.505
 1099TIP3    H2 3262   6.430   0.245   3.609
 1100TIP3   OH2 3263   5.493   3.183   5.715
 1100TIP3    H1 3264   5.500   3.274   5.689
 1100TIP3    H2 3265   5.550   3.175   5.792
 1101TIP3   OH2 3266   4.500   4.324   4.821
 1101TIP3    H1 3267   4.555   4.286   4.889
 1101TIP3    H2 3268   4.473   4.409   4.856
 1102TIP3   OH2 3269   4.170   0.708   2.790
 1102TIP3    H1 3270   4.203   0.794   2.764
 1102TIP3    H2 3271   4.204   0.695   2.878
 1103TIP3   OH2 3272   3.413   2.510   3.873
 1103TIP3    H1 3273   3.463   2.446   3.923
 1103TIP3    H2 3274   3.351   2.546   3.936
 1104TIP3   OH2 3275   0.953   0.310   2.151
 1104TIP3    H1 3276   0.937   0.401   2.123
 1104TIP3    H2 3277   0.910   0.257   2.085
 1105TIP3   OH2 3278   2.488   4.173   4.905
 1105TIP3    H1 3279   2.430   4.138   4.972
 1105TIP3    H2 3280   2.429   4.211   4.839
 1106TIP3   OH2 3281   1.326   6.766   3.844
 1106TIP3    H1 3282   1.368   6.849   3.821
 1106TIP3    H2 3283   1.383   6.699   3.806
 1107TIP3   OH2 3284   0.409   6.037   3.159
 1107TIP3    H1 3285   0.314   6.033   3.159
 1107TIP3    H2 3286   0.429   6.129   3.179
 1108TIP3   OH2 3287   5.461   4.995   3.697
 1108TIP3    H1 3288   5.483   4.997   3.790
 1108TIP3    H2 3289   5.512   4.921   3.663
 1109TIP3   OH2 3290   2.665   4.057   0.540
 1109TIP3    H1 3291   2.749   4.070   0.585
 1109TIP3    H2 3292   2.672   3.969   0.502
 1110TIP3   OH2 3293   1.764   2.707   5.089
 1110TIP3    H1 3294   1.846   2.679   5.047
 1110TIP3    H2 3295   1.770   2.802   5.092
 1111TIP3   OH2 3296   3.515   0.768   0.482
 1111TIP3    H1 3297   3.431   0.724   0.466
 1111TIP3    H2 3298   3.501   0.817   0.563
 1112TIP3   OH2 3299   1.370   5.435   3.560
 1112TIP3    H1 3300   1.388   5.363   3.620
 1112TIP3    H2 3301   1.390   5.514   3.611
 1113TIP3   OH2 3302   4.813   3.113   3.366
 1113TIP3    H1 3303   4.867   3.135   3.442
 1113TIP3    H2 3304   4.765   3.194   3.346
 1114TIP3   OH2 3305   2.943   4.658   0.888
 1114TIP3    H1 3306   2.857   4.699   0.881
 1114TIP3    H2 3307   2.925   4.566   0.907
 1115TIP3   OH2 3308   3.642   5.584   2.877
 1115TIP3    H1 3309   3.641   5.531   2.957
 1115TIP3    H2 3310   3.719   5.641   2.887
 1116TIP3   OH2 3311   0.159   6.391   1.753
 1116TIP3    H1 3312   0.235   6.411   1.698
 1116TIP3    H2 3313   0.197   6.366   1.838
 1117TIP3   OH2 3314   1.991   0.406   0.319
 1117TIP3    H1 3315   2.012   0.325   0.271
 1117TIP3    H2 3316   1.944   0.460   0.256
 1118TIP3   OH2 3317   3.252   1.063   4.296
 1118TIP3    H1 3318   3.289   1.151   4.300
 1118TIP3    H2 3319   3.237   1.048   4.203
 1119TIP3   OH2 3320   3.066   4.594   2.608
 1119TIP3    H1 3321   2.986   4.627   2.568
 1119TIP3    H2 3322   3.101   4.532   2.545
 1120TIP3   OH2 3323   4.967   1.814   4.461
 1120TIP3    H1 3324   4.967   1.885   4.525
 1120TIP3    H2 3325   5.043   1.832   4.405
 1121TIP3   OH2 3326   0.506   1.623   2.615
 1121TIP3    H1 3327   0.411   1.617   2.615
 1121TIP3    H2 3328   0.532   1.596   2.527
 1122TIP3   OH2 3329   6.298   4.559   4.855
 1122TIP3    H1 3330   6.366   4.558   4.788
 1122TIP3    H2 3331   6.345   4.565   4.937
 1123TIP3   OH2 3332   1.498   3.341   0.933
 1123TIP3    H1 3333   1.589   3.312   0.937
 1123TIP3    H2 3334   1.493   3.414   0.995
 1124TIP3   OH2 3335   1.045   3.425   0.263
 1124TIP3    H1 3336   1.090   3.340   0.263
 1124TIP3    H2 3337   1.013   3.436   0.352
 1125TIP3   OH2 3338   0.700   4.092   3.610
 1125TIP3    H1 3339   0.608   4.093   3.637
 1125TIP3    H2 3340   0.748   4.123   3.686
 1126TIP3   OH2 3341   2.037   5.042   4.109
 1126TIP3    H1 3342   2.116   5.002   4.145
 1126TIP3    H2 3343   1.995   5.083   4.184
 1127TIP3   OH2 3344   6.023   0.716   0.024
 1127TIP3    H1 3345   5.978   0.762  -0.047
 1127TIP3    H2 3346   6.072   0.784   0.070
 1128TIP3   OH2 3347   5.364   6.183   1.965
 1128TIP3    H1 3348   5.395   6.109   2.017
 1128TIP3    H2 3349   5.297   6.225   2.019
 1129TIP3   OH2 3350   6.746   6.699   0.892
 1129TIP3    H1 3351   6.740   6.605   0.876
 1129TIP3    H2 3352   6.821   6.728   0.841
 1130TIP3   OH2 3353   6.786   3.358   3.627
 1130TIP3    H1 3354   6.759   3.359   3.719
 1130TIP3    H2 3355   6.814   3.268   3.611
 1131TIP3   OH2 3356   3.786   4.170   3.977
 1131TIP3    H1 3357   3.804   4.104   3.911
 1131TIP3    H2 3358   3.867   4.176   4.028
 1132TIP3   OH2 3359   6.226   4.160   2.301
 1132TIP3    H1 3360   6.284   4.153   2.226
 1132TIP3    H2 3361   6.172   4.082   2.297
 1133TIP3   OH2 3362   5.177   4.163   1.351
 1133TIP3    H1 3363   5.249   4.225   1.363
 1133TIP3    H2 3364   5.128   4.196   1.277
 1134TIP3   OH2 3365   4.772   2.371   2.866
 1134TIP3    H1 3366   4.707   2.429   2.826
 1134TIP3    H2 3367   4.847   2.427   2.883
 1135TIP3   OH2 3368   1.046   4.770   3.016
 1135TIP3    H1 3369   1.110   4.702   2.995
 1135TIP3    H2 3370   1.067   4.796   3.106
 1136TIP3   OH2 3371   5.997   5.316   3.574
 1136TIP3    H1 3372   6.047   5.367   3.510
 1136TIP3    H2 3373   5.943   5.257   3.521
 1137TIP3   OH2 3374   1.003   0.728   4.543
 1137TIP3    H1 3375   0.971   0.639   4.527
 1137TIP3    H2 3376   1.090   0.716   4.581
 1138TIP3   OH2 3377   3.418   4.374   1.237
 1138TIP3    H1 3378   3.383   4.398   1.151
 1138TIP3    H2 3379   3.501   4.329   1.218
 1139TIP3   OH2 3380   6.187   3.857   0.356
 1139TIP3    H1 3381   6.188   3.766   0.327
 1139TIP3    H2 3382   6.249   3.901   0.298
 1140TIP3   OH2 3383   1.471   5.433   1.229
 1140TIP3    H1 3384   1.426   5.475   1.303
 1140TIP3    H2 3385   1.454   5.491   1.155
 1141TIP3   OH2 3386   0.503   0.619   2.141
 1141TIP3    H1 3387   0.545   0.603   2.225
 1141TIP3    H2 3388   0.425   0.564   2.141
 1142TIP3   OH2 3389   3.019   6.524   5.033
 1142TIP3    H1 3390   3.068   6.441   5.037
 1142TIP3    H2 3391   3.043   6.570   5.113
 1143TIP3   OH2 3392   0.244   2.405   4.548
 1143TIP3    H1 3393   0.189   2.418   4.472
 1143TIP3    H2 3394   0.206   2.328   4.592
 1144TIP3   OH2 3395   5.522   3.449   4.662
 1144TIP3    H1 3396   5.573   3.415   4.735
 1144TIP3    H2 3397   5.448   3.494   4.704
 1145TIP3   OH2 3398   3.451   5.603   5.194
 1145TIP3    H1 3399   3.522   5.635   5.249
 1145TIP3    H2 3400   3.371   5.623   5.243
 1146TIP3   OH2 3401   6.664   6.510   1.948
 1146TIP3    H1 3402   6.582   6.472   1.915
 1146TIP3    H2 3403   6.718   6.523   1.870
 1147TIP3   OH2 3404   5.843   2.819   0.878
 1147TIP3    H1 3405   5.896   2.791   0.803
 1147TIP3    H2 3406   5.905   2.822   0.951
 1148TIP3   OH2 3407   2.366   5.067   3.781
 1148TIP3    H1 3408   2.386   5.152   3.742
 1148TIP3    H2 3409   2.366   5.084   3.875
 1149TIP3   OH2 3410   5.055   0.022   0.228
 1149TIP3    H1 3411   5.112  -0.042   0.270
 1149TIP3    H2 3412   5.114   0.090   0.196
 1150TIP3   OH2 3413   6.079   0.921   3.829
 1150TIP3    H1 3414   6.168   0.926   3.864
 1150TIP3    H2 3415   6.042   0.842   3.869
 1151TIP3   OH2 3416   3.576   3.905   1.303
 1151TIP3    H1 3417   3.488   3.876   1.281
 1151TIP3    H2 3418   3.616   3.829   1.346
 1152TIP3   OH2 3419   0.389   1.688   0.537
 1152TIP3    H1 3420   0.461   1.744   0.508
 1152TIP3    H2 3421   0.326   1.691   0.466
 1153TIP3   OH2 3422   4.382   4.525   5.143
 1153TIP3    H1 3423   4.376   4.580   5.221
 1153TIP3    H2 3424   4.471   4.491   5.144
 1154TIP3   OH2 3425   2.075   2.517   4.050
 1154TIP3    H1 3426   2.102   2.609   4.048
 1154TIP3    H2 3427   2.075   2.494   4.143
 1155TIP3   OH2 3428   0.934   0.271   0.629
 1155TIP3    H1 3429   0.960   0.357   0.663
 1155TIP3    H2 3430   1.017   0.226   0.612
 1156TIP3   OH2 3431   2.775   2.088   3.161
 1156TIP3    H1 3432   2.846   2.124   3.109
 1156TIP3    H2 3433   2.708   2.157   3.162
 1157TIP3   OH2 3434   6.289   5.848   0.160
 1157TIP3    H1 3435   6.269   5.803   0.079
 1157TIP3    H2 3436   6.232   5.809   0.225
 1158TIP3   OH2 3437   3.338   2.335   2.192
 1158TIP3    H1 3438   3.319   2.243   2.212
 1158TIP3    H2 3439   3.406   2.360   2.255
 1159TIP3   OH2 3440   5.848   4.975   5.575
 1159TIP3    H1 3441   5.938   4.961   5.604
 1159TIP3    H2 3442   5.823   5.058   5.615
 1160TIP3   OH2 3443   2.012   4.638   1.218
 1160TIP3    H1 3444   2.011   4.734   1.212
 1160TIP3    H2 3445   2.038   4.620   1.308
 1161TIP3   OH2 3446   0.939   3.886   2.763
 1161TIP3    H1 3447   0.880   3.825   2.719
 1161TIP3    H2 3448   0.986   3.929   2.691
 1162TIP3   OH2 3449   6.756   2.206   0.394
 1162TIP3    H1 3450   6.750   2.110   0.388
 1162TIP3    H2 3451   6.712   2.227   0.477
 1163TIP3   OH2 3452   3.989   4.445   0.525
 1163TIP3    H1 3453   3.952   4.408   0.445
 1163TIP3    H2 3454   4.014   4.368   0.577
 1164TIP3   OH2 3455   3.363   6.436   2.558
 1164TIP3    H1 3456   3.352   6.341   2.549
 1164TIP3    H2 3457   3.309   6.473   2.489
 1165TIP3   OH2 3458   2.272   3.169   1.257
 1165TIP3    H1 3459   2.202   3.135   1.313
 1165TIP3    H2 3460   2.344   3.108   1.269
 1166TIP3   OH2 3461   6.644   0.550   0.923
 1166TIP3    H1 3462   6.584   0.478   0.941
 1166TIP3    H2 3463   6.731   0.511   0.928
 1167TIP3   OH2 3464   4.648   1.498   4.879
 1167TIP3    H1 3465   4.663   1.468   4.790
 1167TIP3    H2 3466   4.590   1.432   4.917
 1168TIP3   OH2 3467   6.548   0.383   3.345
 1168TIP3    H1 3468   6.486   0.334   3.400
 1168TIP3    H2 3469   6.627   0.390   3.399
 1169TIP3   OH2 3470   6.271   3.820   5.160
 1169TIP3    H1 3471   6.343   3.803   5.221
 1169TIP3    H2 3472   6.202   3.857   5.215
 1170TIP3   OH2 3473   2.625   4.406   3.039
 1170TIP3    H1 3474   2.636   4.404   2.944
 1170TIP3    H2 3475   2.551   4.349   3.056
 1171TIP3   OH2 3476   0.044   5.374   3.588
 1171TIP3    H1 3477   0.136   5.374   3.561
 1171TIP3    H2 3478   0.024   5.282   3.606
 1172TIP3   OH2 3479   2.612   5.895   1.264
 1172TIP3    H1 3480   2.517   5.903   1.258
 1172TIP3    H2 3481   2.631   5.908   1.357
 1173TIP3   OH2 3482   2.374   0.992   1.240
 1173TIP3    H1 3483   2.288   0.953   1.221
 1173TIP3    H2 3484   2.363   1.085   1.217
 1174TIP3   OH2 3485   3.782   0.626   1.183
 1174TIP3    H1 3486   3.857   0.675   1.215
 1174TIP3    H2 3487   3.723   0.622   1.258
 1175TIP3   OH2 3488   3.350   1.612   5.300
 1175TIP3    H1 3489   3.270   1.664   5.289
 1175TIP3    H2 3490   3.417   1.660   5.251
 1176TIP3   OH2 3491   3.858   2.020   0.644
 1176TIP3    H1 3492   3.950   2.016   0.670
 1176TIP3    H2 3493   3.846   1.943   0.589
 1177TIP3   OH2 3494   5.575   0.236   5.635
 1177TIP3    H1 3495   5.498   0.183   5.613
 1177TIP3    H2 3496   5.554   0.274   5.720
 1178TIP3   OH2 3497   6.582   5.252   4.542
 1178TIP3    H1 3498   6.574   5.263   4.637
 1178TIP3    H2 3499   6.637   5.175   4.531
 1179TIP3   OH2 3500   2.137   2.425   4.308
 1179TIP3    H1 3501   2.090   2.431   4.392
 1179TIP3    H2 3502   2.189   2.345   4.316
 1180TIP3   OH2 3503   1.258   5.558   0.187
 1180TIP3    H1 3504   1.220   5.502   0.120
 1180TIP3    H2 3505   1.186   5.613   0.217
 1181TIP3   OH2 3506   5.540   1.336   2.730
 1181TIP3    H1 3507   5.511   1.423   2.703
 1181TIP3    H2 3508   5.551   1.343   2.825
 1182TIP3   OH2 3509   0.636   0.383   1.623
 1182TIP3    H1 3510   0.729   0.400   1.637
 1182TIP3    H2 3511   0.595   0.407   1.705
 1183TIP3   OH2 3512   2.431   2.008   3.189
 1183TIP3    H1 3513   2.472   2.080   3.236
 1183TIP3    H2 3514   2.432   1.935   3.250
 1184TIP3   OH2 3515   0.838   4.646   0.935
 1184TIP3    H1 3516   0.882   4.571   0.975
 1184TIP3    H2 3517   0.751   4.613   0.914
 1185TIP3   OH2 3518   5.713   3.696   5.609
 1185TIP3    H1 3519   5.642   3.678   5.547
 1185TIP3    H2 3520   5.775   3.625   5.595
 1186TIP3   OH2 3521   6.483   4.224   5.224
 1186TIP3    H1 3522   6.525   4.252   5.305
 1186TIP3    H2 3523   6.487   4.300   5.166
 1187TIP3   OH2 3524   1.757   5.602   0.864
 1187TIP3    H1 3525   1.754   5.649   0.947
 1187TIP3    H2 3526   1.819   5.530   0.879
 1188TIP3   OH2 3527   2.375   1.794   0.603
 1188TIP3    H1 3528   2.460   1.828   0.633
 1188TIP3    H2 3529   2.314   1.865   0.619
 1189TIP3   OH2 3530   0.372   5.715   1.380
 1189TIP3    H1 3531   0.445   5.750   1.431
 1189TIP3    H2 3532   0.370   5.768   1.301
 1190TIP3   OH2 3533   5.562   5.146   4.925
 1190TIP3    H1 3534   5.484   5.125   4.976
 1190TIP3    H2 3535   5.597   5.225   4.967
 1191TIP3   OH2 3536   6.110   0.579   1.706
 1191TIP3    H1 3537   6.173   0.535   1.762
 1191TIP3    H2 3538   6.164   0.627   1.643
 1192TIP3   OH2 3539   0.474   4.279   1.188
 1192TIP3    H1 3540   0.485   4.327   1.107
 1192TIP3    H2 3541   0.387   4.303   1.220
 1193TIP3   OH2 3542   6.033   6.230   1.329
 1193TIP3    H1 3543   5.981   6.150   1.339
 1193TIP3    H2 3544   5.990   6.278   1.258
 1194TIP3   OH2 3545   3.144   6.652   1.038
 1194TIP3    H1 3546   3.183   6.589   0.977
 1194TIP3    H2 3547   3.211   6.666   1.104
 1195TIP3   OH2 3548   0.073   4.559   1.144
 1195TIP3    H1 3549   0.116   4.497   1.204
 1195TIP3    H2 3550   0.072   4.642   1.191
 1196TIP3   OH2 3551   6.228   4.141   2.582
 1196TIP3    H1 3552   6.194   4.228   2.599
 1196TIP3    H2 3553   6.248   4.141   2.488
 1197TIP3   OH2 3554   3.506   3.159   3.215
 1197TIP3    H1 3555   3.415   3.179   3.194
 1197TIP3    H2 3556   3.541   3.119   3.136
 1198TIP3   OH2 3557   6.785   1.427   0.149
 1198TIP3    H1 3558   6.743   1.473   0.222
 1198TIP3    H2 3559   6.713   1.407   0.089
 1199TIP3   OH2 3560   5.349   3.941   0.437
 1199TIP3    H1 3561   5.359   4.025   0.482
 1199TIP3    H2 3562   5.292   3.890   0.495
 1200TIP3   OH2 3563   0.233   6.171   2.677
 1200TIP3    H1 3564   0.284   6.093   2.699
 1200TIP3    H2 3565   0.196   6.198   2.761
 1201TIP3   OH2 3566   0.681   2.426   1.061
 1201TIP3    H1 3567   0.733   2.447   0.983
 1201TIP3    H2 3568   0.603   2.481   1.052
 1202TIP3   OH2 3569   3.672   6.381   0.720
 1202TIP3    H1 3570   3.688   6.309   0.781
 1202TIP3    H2 3571   3.606   6.347   0.659
 1203TIP3   OH2 3572   6.874   3.716   4.931
 1203TIP3    H1 3573   6.923   3.769   4.869
 1203TIP3    H2 3574   6.928   3.639   4.945
 1204TIP3   OH2 3575   0.352   3.961   1.442
 1204TIP3    H1 3576   0.315   3.941   1.528
 1204TIP3    H2 3577   0.389   4.049   1.451
 1205TIP3   OH2 3578   4.721   3.287   1.895
 1205TIP3    H1 3579   4.811   3.319   1.906
 1205TIP3    H2 3580   4.708   3.286   1.800
 1206TIP3   OH2 3581   1.927   4.025   3.544
 1206TIP3    H1 3582   1.992   4.067   3.600
 1206TIP3    H2 3583   1.846   4.072   3.561
 1207TIP3   OH2 3584   5.098   2.616   4.315
 1207TIP3    H1 3585   5.009   2.579   4.310
 1207TIP3    H2 3586   5.098   2.686   4.249
 1208TIP3   OH2 3587   0.151   5.069   5.107
 1208TIP3    H1 3588   0.107   5.146   5.142
 1208TIP3    H2 3589   0.182   5.021   5.184
 1209TIP3   OH2 3590   6.839   2.603   0.653
 1209TIP3    H1 3591   6.759   2.647   0.683
 1209TIP3    H2 3592   6.899   2.675   0.633
 1210TIP3   OH2 3593   2.666   2.806   3.968
 1210TIP3    H1 3594   2.761   2.815   3.967
 1210TIP3    H2 3595   2.637   2.840   3.884
 1211TIP3   OH2 3596   6.674   5.336   0.241
 1211TIP3    H1 3597   6.728   5.273   0.194
 1211TIP3    H2 3598   6.698   5.421   0.204
 1212TIP3   OH2 3599   2.842   5.868   2.863
 1212TIP3    H1 3600   2.917   5.923   2.885
 1212TIP3    H2 3601   2.843   5.864   2.768
 1213TIP3   OH2 3602   6.219   6.379   1.099
 1213TIP3    H1 3603   6.307   6.360   1.133
 1213TIP3    H2 3604   6.225   6.467   1.064
 1214TIP3   OH2 3605   6.739   0.154   5.582
 1214TIP3    H1 3606   6.657   0.139   5.535
 1214TIP3    H2 3607   6.808   0.133   5.519
 1215TIP3   OH2 3608   5.724   4.594   2.230
 1215TIP3    H1 3609   5.665   4.518   2.221
 1215TIP3    H2 3610   5.673   4.658   2.279
 1216TIP3   OH2 3611   6.401   1.504   5.599
 1216TIP3    H1 3612   6.407   1.415   5.633
 1216TIP3    H2 3613   6.436   1.559   5.670
 1217TIP3   OH2 3614   0.892   5.540   1.979
 1217TIP3    H1 3615   0.872   5.584   2.062
 1217TIP3    H2 3616   0.863   5.603   1.912
 1218TIP3   OH2 3617   0.554   0.930   2.638
 1218TIP3    H1 3618   0.584   0.931   2.729
 1218TIP3    H2 3619   0.473   0.980   2.639
 1219TIP3   OH2 3620   5.579   3.930   5.207
 1219TIP3    H1 3621   5.658   3.951   5.258
 1219TIP3    H2 3622   5.599   3.846   5.166
 1220TIP3   OH2 3623   3.688   1.525   2.220
 1220TIP3    H1 3624   3.643   1.605   2.195
 1220TIP3    H2 3625   3.646   1.457   2.167
 1221TIP3   OH2 3626   6.555   3.013   2.506
 1221TIP3    H1 3627   6.553   2.921   2.533
 1221TIP3    H2 3628   6.632   3.020   2.449
 1222TIP3   OH2 3629   3.393   1.711   1.668
 1222TIP3    H1 3630   3.331   1.641   1.691
 1222TIP3    H2 3631   3.338   1.784   1.642
 1223TIP3   OH2 3632   4.929   3.947   4.043
 1223TIP3    H1 3633   4.900   3.960   4.133
 1223TIP3    H2 3634   4.849   3.926   3.995
 1224TIP3   OH2 3635   3.642   4.214   1.233
 1224TIP3    H1 3636   3.730   4.214   1.194
 1224TIP3    H2 3637   3.615   4.123   1.231
 1225TIP3   OH2 3638   1.787   5.059   4.408
 1225TIP3    H1 3639   1.816   5.144   4.372
 1225TIP3    H2 3640   1.701   5.044   4.369
 1226TIP3   OH2 3641   0.013   4.661   3.600
 1226TIP3    H1 3642  -0.014   4.640   3.689
 1226TIP3    H2 3643   0.103   4.692   3.609
 1227TIP3   OH2 3644   3.318   6.257   2.964
 1227TIP3    H1 3645   3.302   6.163   2.961
 1227TIP3    H2 3646   3.231   6.297   2.961
 1228TIP3   OH2 3647   3.263   6.228   3.801
 1228TIP3    H1 3648   3.328   6.265   3.860
 1228TIP3    H2 3649   3.230   6.151   3.846
 1229TIP3   OH2 3650   7.024   4.061   5.033
 1229TIP3    H1 3651   6.981   4.126   4.977
 1229TIP3    H2 3652   6.954   4.004   5.063
 1230TIP3   OH2 3653   5.205   4.571   0.508
 1230TIP3    H1 3654   5.113   4.595   0.502
 1230TIP3    H2 3655   5.207   4.498   0.570
 1231TIP3   OH2 3656   6.389   1.528   4.567
 1231TIP3    H1 3657   6.344   1.497   4.488
 1231TIP3    H2 3658   6.382   1.456   4.629
 1232TIP3   OH2 3659   5.660   0.146   1.807
 1232TIP3    H1 3660   5.579   0.101   1.834
 1232TIP3    H2 3661   5.727   0.110   1.865
 1233TIP3   OH2 3662   1.156   4.151   3.471
 1233TIP3    H1 3663   1.152   4.222   3.535
 1233TIP3    H2 3664   1.181   4.194   3.389
 1234TIP3   OH2 3665   1.060   1.804   4.658
 1234TIP3    H1 3666   1.009   1.810   4.577
 1234TIP3    H2 3667   1.117   1.729   4.645
 1235TIP3   OH2 3668   0.410   1.222   3.968
 1235TIP3    H1 3669   0.341   1.248   4.029
 1235TIP3    H2 3670   0.469   1.296   3.965
 1236TIP3   OH2 3671   3.001   2.726   0.834
 1236TIP3    H1 3672   3.007   2.680   0.918
 1236TIP3    H2 3673   3.072   2.689   0.782
 1237TIP3   OH2 3674   3.144   0.227   3.243
 1237TIP3    H1 3675   3.198   0.230   3.322
 1237TIP3    H2 3676   3.205   0.202   3.174
 1238TIP3   OH2 3677   2.185   4.199   1.285
 1238TIP3    H1 3678   2.234   4.150   1.351
 1238TIP3    H2 3679   2.110   4.235   1.332
 1239TIP3   OH2 3680   4.495   5.070   1.934
 1239TIP3    H1 3681   4.521   5.136   1.870
 1239TIP3    H2 3682   4.459   4.999   1.882
 1240TIP3   OH2 3683   6.151   4.040   1.476
 1240TIP3    H1 3684   6.068   4.059   1.432
 1240TIP3    H2 3685   6.200   4.122   1.472
 1241TIP3   OH2 3686   5.858   0.248   5.585
 1241TIP3    H1 3687   5.764   0.230   5.590
 1241TIP3    H2 3688   5.883   0.221   5.496
 1242TIP3   OH2 3689   1.340   6.580   2.920
 1242TIP3    H1 3690   1.388   6.662   2.926
 1242TIP3    H2 3691   1.353   6.538   3.006
 1243TIP3   OH2 3692   3.100   1.634   1.379
 1243TIP3    H1 3693   3.066   1.634   1.290
 1243TIP3    H2 3694   3.056   1.708   1.422
 1244TIP3   OH2 3695   5.837   2.556   1.098
 1244TIP3    H1 3696   5.773   2.626   1.108
 1244TIP3    H2 3697   5.921   2.602   1.090
 1245TIP3   OH2 3698   0.837   0.336   5.817
 1245TIP3    H1 3699   0.756   0.355   5.770
 1245TIP3    H2 3700   0.890   0.287   5.754
 1246TIP3   OH2 3701   2.358   2.846   2.307
 1246TIP3    H1 3702   2.437   2.876   2.263
 1246TIP3    H2 3703   2.358   2.892   2.390
 1247TIP3   OH2 3704   5.586   4.769   3.532
 1247TIP3    H1 3705   5.653   4.822   3.490
 1247TIP3    H2 3706   5.581   4.690   3.479
 1248TIP3   OH2 3707   5.716   3.502   0.694
 1248TIP3    H1 3708   5.640   3.495   0.635
 1248TIP3    H2 3709   5.763   3.580   0.663
 1249TIP3   OH2 3710   5.356   0.731   1.900
 1249TIP3    H1 3711   5.306   0.654   1.929
 1249TIP3    H2 3712   5.364   0.721   1.806
 1250TIP3   OH2 3713   6.700   6.384   2.758
 1250TIP3    H1 3714   6.731   6.396   2.669
 1250TIP3    H2 3715   6.767   6.426   2.812
 1251TIP3   OH2 3716   6.602   1.009   1.719
 1251TIP3    H1 3717   6.675   0.949   1.737
 1251TIP3    H2 3718   6.638   1.096   1.735
 1252TIP3   OH2 3719   5.690   4.767   1.363
 1252TIP3    H1 3720   5.682   4.858   1.393
 1252TIP3    H2 3721   5.740   4.773   1.281
 1253TIP3   OH2 3722   0.253   4.845   1.036
 1253TIP3    H1 3723   0.211   4.808   1.114
 1253TIP3    H2 3724   0.255   4.939   1.053
 1254TIP3   OH2 3725   4.241   4.188   1.278
 1254TIP3    H1 3726   4.150   4.163   1.298
 1254TIP3    H2 3727   4.241   4.200   1.183
 1255TIP3   OH2 3728   3.076   0.551   4.758
 1255TIP3    H1 3729   3.147   0.568   4.821
 1255TIP3    H2 3730   3.112   0.577   4.673
 1256TIP3   OH2 3731   3.811   0.214   0.950
 1256TIP3    H1 3732   3.901   0.247   0.945
 1256TIP3    H2 3733   3.794   0.179   0.863
 1257TIP3   OH2 3734   0.270   2.180   5.236
 1257TIP3    H1 3735   0.285   2.267   5.273
 1257TIP3    H2 3736   0.280   2.120   5.310
 1258TIP3   OH2 3737   6.737   6.402   4.373
 1258TIP3    H1 3738   6.825   6.374   4.397
 1258TIP3    H2 3739   6.689   6.320   4.356
 1259TIP3   OH2 3740   6.840   0.767   3.775
 1259TIP3    H1 3741   6.758   0.745   3.731
 1259TIP3    H2 3742   6.835   0.861   3.790
 1260TIP3   OH2 3743   5.784   5.469   4.085
 1260TIP3    H1 3744   5.878   5.473   4.073
 1260TIP3    H2 3745   5.771   5.476   4.180
 1261TIP3   OH2 3746   5.147   0.291   1.654
 1261TIP3    H1 3747   5.095   0.247   1.587
 1261TIP3    H2 3748   5.156   0.226   1.724
 1262TIP3   OH2 3749   3.329   6.539   0.597
 1262TIP3    H1 3750   3.342   6.557   0.690
 1262TIP3    H2 3751   3.238   6.562   0.581
 1263TIP3   OH2 3752   1.693   1.922   5.874
 1263TIP3    H1 3753   1.762   1.912   5.808
 1263TIP3    H2 3754   1.679   2.016   5.881
 1264TIP3   OH2 3755   0.929   0.779   0.217
 1264TIP3    H1 3756   0.851   0.770   0.162
 1264TIP3    H2 3757   0.996   0.730   0.171
 1265TIP3   OH2 3758   1.740   3.781   2.685
 1265TIP3    H1 3759   1.688   3.703   2.703
 1265TIP3    H2 3760   1.750   3.783   2.590
 1266TIP3   OH2 3761   6.573   4.854   1.063
 1266TIP3    H1 3762   6.493   4.869   1.012
 1266TIP3    H2 3763   6.640   4.833   0.997
 1267TIP3   OH2 3764   6.461   5.625   2.078
 1267TIP3    H1 3765   6.551   5.636   2.048
 1267TIP3    H2 3766   6.458   5.536   2.113
 1268TIP3   OH2 3767   0.936   3.748   4.795
 1268TIP3    H1 3768   0.884   3.711   4.723
 1268TIP3    H2 3769   0.936   3.679   4.862
 1269TIP3   OH2 3770   1.873   0.988   5.209
 1269TIP3    H1 3771   1.960   0.966   5.176
 1269TIP3    H2 3772   1.859   0.927   5.281
 1270TIP3   OH2 3773   6.712   0.250   2.331
 1270TIP3    H1 3774   6.647   0.306   2.287
 1270TIP3    H2 3775   6.790   0.305   2.338
 1271TIP3   OH2 3776   4.752   2.646   1.809
 1271TIP3    H1 3777   4.738   2.701   1.885
 1271TIP3    H2 3778   4.801   2.701   1.747
 1272TIP3   OH2 3779   2.636   0.462   4.853
 1272TIP3    H1 3780   2.648   0.438   4.761
 1272TIP3    H2 3781   2.711   0.517   4.873
 1273TIP3   OH2 3782   0.994   2.452   3.702
 1273TIP3    H1 3783   1.079   2.427   3.738
 1273TIP3    H2 3784   1.007   2.452   3.607
 1274TIP3   OH2 3785   0.427   0.650   4.151
 1274TIP3    H1 3786   0.414   0.647   4.057
 1274TIP3    H2 3787   0.491   0.580   4.169
 1275TIP3   OH2 3788   5.949   1.507   3.982
 1275TIP3    H1 3789   6.023   1.483   3.926
 1275TIP3    H2 3790   5.986   1.512   4.070
 1276TIP3   OH2 3791   4.228   1.309   3.181
 1276TIP3    H1 3792   4.206   1.361   3.103
 1276TIP3    H2 3793   4.307   1.261   3.156
 1277TIP3   OH2 3794   4.225   4.179   1.577
 1277TIP3    H1 3795   4.147   4.226   1.606
 1277TIP3    H2 3796   4.246   4.217   1.492
 1278TIP3   OH2 3797   5.263   0.463   5.299
 1278TIP3    H1 3798   5.357   0.444   5.298
 1278TIP3    H2 3799   5.234   0.445   5.209
 1279TIP3   OH2 3800   5.827   1.023   3.187
 1279TIP3    H1 3801   5.890   0.977   3.243
 1279TIP3    H2 3802   5.853   1.001   3.098
 1280TIP3   OH2 3803   2.385   1.909   5.690
 1280TIP3    H1 3804   2.349   1.924   5.777
 1280TIP3    H2 3805   2.331   1.964   5.632
 1281TIP3   OH2 3806   4.291   1.504   3.807
 1281TIP3    H1 3807   4.350   1.536   3.739
 1281TIP3    H2 3808   4.349   1.459   3.869
 1282TIP3   OH2 3809   3.031   0.868   3.901
 1282TIP3    H1 3810   3.060   0.802   3.839
 1282TIP3    H2 3811   3.014   0.946   3.848
 1283TIP3   OH2 3812   1.703   6.576   1.198
 1283TIP3    H1 3813   1.783   6.623   1.178
 1283TIP3    H2 3814   1.695   6.582   1.294
 1284TIP3   OH2 3815   0.776   2.789   2.482
 1284TIP3    H1 3816   0.859   2.749   2.508
 1284TIP3    H2 3817   0.760   2.756   2.393
 1285TIP3   OH2 3818   5.066   2.474   1.834
 1285TIP3    H1 3819   5.114   2.556   1.848
 1285TIP3    H2 3820   4.974   2.500   1.831
 1286TIP3   OH2 3821   2.063   4.448   2.934
 1286TIP3    H1 3822   2.112   4.427   2.855
 1286TIP3    H2 3823   1.973   4.420   2.915
 1287TIP3   OH2 3824   3.069   3.940   4.448
 1287TIP3    H1 3825   3.026   4.005   4.393
 1287TIP3    H2 3826   3.116   3.992   4.514
 1288TIP3   OH2 3827   7.182   4.677   1.566
 1288TIP3    H1 3828   7.205   4.741   1.634
 1288TIP3    H2 3829   7.264   4.631   1.548
 1289TIP3   OH2 3830   1.742   1.573   1.072
 1289TIP3    H1 3831   1.812   1.538   1.017
 1289TIP3    H2 3832   1.777   1.566   1.161
 1290TIP3   OH2 3833   5.272   3.287   4.102
 1290TIP3    H1 3834   5.247   3.207   4.149
 1290TIP3    H2 3835   5.348   3.260   4.049
 1291TIP3   OH2 3836   5.921   0.482   0.654
 1291TIP3    H1 3837   5.961   0.547   0.597
 1291TIP3    H2 3838   5.990   0.458   0.716
 1292TIP3   OH2 3839   1.709   1.030   5.014
 1292TIP3    H1 3840   1.673   0.946   4.988
 1292TIP3    H2 3841   1.781   1.008   5.074
 1293TIP3   OH2 3842   3.556  -0.011   0.635
 1293TIP3    H1 3843   3.640   0.005   0.676
 1293TIP3    H2 3844   3.514   0.075   0.631
 1294TIP3   OH2 3845   4.044   5.772   3.848
 1294TIP3    H1 3846   3.968   5.820   3.815
 1294TIP3    H2 3847   4.068   5.713   3.776
 1295TIP3   OH2 3848   6.245   4.440   3.431
 1295TIP3    H1 3849   6.221   4.532   3.425
 1295TIP3    H2 3850   6.216   4.402   3.348
 1296TIP3   OH2 3851   4.949   3.103   5.840
 1296TIP3    H1 3852   5.033   3.063   5.818
 1296TIP3    H2 3853   4.954   3.118   5.935
 1297TIP3   OH2 3854   4.225   6.219   1.062
 1297TIP3    H1 3855   4.311   6.192   1.096
 1297TIP3    H2 3856   4.208   6.303   1.105
 1298TIP3   OH2 3857   5.055   3.434   5.052
 1298TIP3    H1 3858   4.960   3.440   5.067
 1298TIP3    H2 3859   5.081   3.524   5.032
 1299TIP3   OH2 3860   0.997   3.111   0.286
 1299TIP3    H1 3861   1.041   3.107   0.201
 1299TIP3    H2 3862   0.907   3.138   0.266
 1300TIP3   OH2 3863   3.128   0.411   2.037
 1300TIP3    H1 3864   3.067   0.421   2.110
 1300TIP3    H2 3865   3.072   0.388   1.963
 1301TIP3   OH2 3866   2.014   6.040   3.034
 1301TIP3    H1 3867   2.066   5.966   3.003
 1301TIP3    H2 3868   2.029   6.108   2.968
 1302TIP3   OH2 3869   5.890   5.486   5.683
 1302TIP3    H1 3870   5.972   5.504   5.729
 1302TIP3    H2 3871   5.829   5.551   5.716
 1303TIP3   OH2 3872   0.401   2.546   0.439
 1303TIP3    H1 3873   0.311   2.515   0.452
 1303TIP3    H2 3874   0.455   2.467   0.449
 1304TIP3   OH2 3875   7.077   4.394   1.512
 1304TIP3    H1 3876   7.014   4.402   1.583
 1304TIP3    H2 3877   7.132   4.473   1.520
 1305TIP3   OH2 3878   1.371   2.662   4.509
 1305TIP3    H1 3879   1.387   2.655   4.603
 1305TIP3    H2 3880   1.351   2.572   4.482
 1306TIP3   OH2 3881   4.333   2.471   4.079
 1306TIP3    H1 3882   4.290   2.510   4.002
 1306TIP3    H2 3883   4.408   2.425   4.044
 1307TIP3   OH2 3884   2.222   5.066   4.948
 1307TIP3    H1 3885   2.127   5.075   4.944
 1307TIP3    H2 3886   2.239   4.976   4.920
 1308TIP3   OH2 3887   5.081   1.688   1.983
 1308TIP3    H1 3888   5.023   1.760   2.006
 1308TIP3    H2 3889   5.098   1.699   1.889
 1309TIP3   OH2 3890   4.429   5.484   2.020
 1309TIP3    H1 3891   4.429   5.390   2.037
 1309TIP3    H2 3892   4.337   5.510   2.024
 1310TIP3   OH2 3893   7.090   4.387   2.239
 1310TIP3    H1 3894   7.100   4.449   2.167
 1310TIP3    H2 3895   7.154   4.415   2.304
 1311TIP3   OH2 3896   6.384   5.090   1.650
 1311TIP3    H1 3897   6.303   5.051   1.683
 1311TIP3    H2 3898   6.387   5.177   1.691
 1312TIP3   OH2 3899   4.693   0.323   5.547
 1312TIP3    H1 3900   4.702   0.398   5.487
 1312TIP3    H2 3901   4.772   0.271   5.531
 1313TIP3   OH2 3902   6.094   4.322   0.490
 1313TIP3    H1 3903   6.170   4.380   0.492
 1313TIP3    H2 3904   6.111   4.260   0.420
 1314TIP3   OH2 3905   0.639   6.630   2.686
 1314TIP3    H1 3906   0.703   6.622   2.757
 1314TIP3    H2 3907   0.556   6.650   2.730
 1315TIP3   OH2 3908   3.611   0.675   1.399
 1315TIP3    H1 3909   3.587   0.767   1.385
 1315TIP3    H2 3910   3.568   0.651   1.481
 1316TIP3   OH2 3911   0.937   3.957   2.068
 1316TIP3    H1 3912   0.943   4.039   2.019
 1316TIP3    H2 3913   1.017   3.909   2.046
 1317TIP3   OH2 3914   2.528   5.410   1.890
 1317TIP3    H1 3915   2.484   5.476   1.945
 1317TIP3    H2 3916   2.621   5.422   1.908
 1318TIP3   OH2 3917   6.050   6.467   5.149
 1318TIP3    H1 3918   6.086   6.502   5.230
 1318TIP3    H2 3919   6.028   6.376   5.170
 1319TIP3   OH2 3920   5.903   4.901   1.838
 1319TIP3    H1 3921   5.875   4.854   1.759
 1319TIP3    H2 3922   5.823   4.914   1.889
 1320TIP3   OH2 3923   4.421   1.125   0.146
 1320TIP3    H1 3924   4.478   1.164   0.080
 1320TIP3    H2 3925   4.461   1.040   0.166
 1321TIP3   OH2 3926   3.829   0.472   3.487
 1321TIP3    H1 3927   3.904   0.495   3.542
 1321TIP3    H2 3928   3.775   0.415   3.542
 1322TIP3   OH2 3929   1.014   0.527   0.708
 1322TIP3    H1 3930   0.978   0.586   0.641
 1322TIP3    H2 3931   1.108   0.542   0.705
 1323TIP3   OH2 3932   5.653   4.904   1.922
 1323TIP3    H1 3933   5.633   4.831   1.981
 1323TIP3    H2 3934   5.568   4.941   1.899
 1324TIP3   OH2 3935   4.870   0.678   2.875
 1324TIP3    H1 3936   4.937   0.735   2.836
 1324TIP3    H2 3937   4.789   0.700   2.829
 1325TIP3   OH2 3938   3.470   5.360   5.740
 1325TIP3    H1 3939   3.542   5.415   5.772
 1325TIP3    H2 3940   3.462   5.384   5.647
 1326TIP3   OH2 3941   6.907   4.365   4.920
 1326TIP3    H1 3942   6.901   4.418   5.000
 1326TIP3    H2 3943   6.817   4.354   4.891
 1327TIP3   OH2 3944   1.783   1.516   4.916
 1327TIP3    H1 3945   1.764   1.452   4.985
 1327TIP3    H2 3946   1.717   1.499   4.849
 1328TIP3   OH2 3947   5.940   3.377   1.967
 1328TIP3    H1 3948   5.923   3.302   1.910
 1328TIP3    H2 3949   5.904   3.452   1.920
 1329TIP3   OH2 3950   0.644   0.439   3.913
 1329TIP3    H1 3951   0.616   0.418   4.002
 1329TIP3    H2 3952   0.709   0.508   3.923
 1330TIP3   OH2 3953   1.948   5.423   5.625
 1330TIP3    H1 3954   1.956   5.333   5.655
 1330TIP3    H2 3955   1.867   5.455   5.667
 1331TIP3   OH2 3956   2.178   2.786   0.800
 1331TIP3    H1 3957   2.155   2.820   0.714
 1331TIP3    H2 3958   2.252   2.841   0.828
 1332TIP3   OH2 3959   5.311   6.073   2.229
 1332TIP3    H1 3960   5.354   5.997   2.189
 1332TIP3    H2 3961   5.295   6.047   2.319
 1333TIP3   OH2 3962   1.559   6.470   0.602
 1333TIP3    H1 3963   1.474   6.512   0.615
 1333TIP3    H2 3964   1.560   6.399   0.666
 1334TIP3   OH2 3965   1.392   3.683   5.124
 1334TIP3    H1 3966   1.354   3.669   5.211
 1334TIP3    H2 3967   1.376   3.775   5.105
 1335TIP3   OH2 3968   5.045   3.711   3.943
 1335TIP3    H1 3969   5.064   3.654   4.017
 1335TIP3    H2 3970   4.974   3.768   3.975
 1336TIP3   OH2 3971   4.387   4.085   3.344
 1336TIP3    H1 3972   4.378   4.121   3.433
 1336TIP3    H2 3973   4.481   4.084   3.328
 1337TIP3   OH2 3974   0.884   3.633   2.159
 1337TIP3    H1 3975   0.965   3.675   2.187
 1337TIP3    H2 3976   0.892   3.542   2.188
 1338TIP3   OH2 3977   2.170   3.381   2.730
 1338TIP3    H1 3978   2.119   3.339   2.799
 1338TIP3    H2 3979   2.253   3.333   2.729
 1339TIP3   OH2 3980   1.495   6.483   3.593
 1339TIP3    H1 3981   1.435   6.429   3.542
 1339TIP3    H2 3982   1.570   6.496   3.535
 1340TIP3   OH2 3983   6.689   6.507   3.662
 1340TIP3    H1 3984   6.665   6.596   3.687
 1340TIP3    H2 3985   6.729   6.470   3.740
 1341TIP3   OH2 3986   0.622   1.777   0.442
 1341TIP3    H1 3987   0.692   1.840   0.462
 1341TIP3    H2 3988   0.626   1.767   0.347
 1342TIP3   OH2 3989   2.725   1.267   4.648
 1342TIP3    H1 3990   2.754   1.289   4.559
 1342TIP3    H2 3991   2.712   1.172   4.645
 1343TIP3   OH2 3992   5.666   1.133   1.209
 1343TIP3    H1 3993   5.600   1.128   1.277
 1343TIP3    H2 3994   5.748   1.147   1.256
 1344TIP3   OH2 3995   5.138   2.567   1.328
 1344TIP3    H1 3996   5.200   2.610   1.269
 1344TIP3    H2 3997   5.193   2.514   1.386
 1345TIP3   OH2 3998   1.567   3.549   1.087
 1345TIP3    H1 3999   1.548   3.574   1.177
 1345TIP3    H2 4000   1.592   3.631   1.044
 1346TIP3   OH2 4001   1.177   0.938   5.561
 1346TIP3    H1 4002   1.192   0.963   5.653
 1346TIP3    H2 4003   1.116   1.004   5.528
 1347TIP3   OH2 4004   1.236   1.472   0.177
 1347TIP3    H1 4005   1.302   1.541   0.173
 1347TIP3    H2 4006   1.270   1.410   0.241
 1348TIP3   OH2 4007   0.817   3.003   3.851
 1348TIP3    H1 4008   0.862   3.052   3.782
 1348TIP3    H2 4009   0.853   2.914   3.844
 1349TIP3   OH2 4010   2.467   0.228   3.147
 1349TIP3    H1 4011   2.401   0.175   3.103
 1349TIP3    H2 4012   2.427   0.314   3.156
 1350TIP3   OH2 4013   4.067   6.586   0.095
 1350TIP3    H1 4014   4.136   6.554   0.153
 1350TIP3    H2 4015   3.986   6.554   0.134
 1351TIP3   OH2 4016   0.029   2.015   0.926
 1351TIP3    H1 4017   0.077   1.935   0.905
 1351TIP3    H2 4018  -0.028   1.991   0.998
 1352TIP3   OH2 4019   5.483   4.492   5.743
 1352TIP3    H1 4020   5.467   4.515   5.651
 1352TIP3    H2 4021   5.400   4.509   5.787
 1353TIP3   OH2 4022   4.948   1.415   4.955
 1353TIP3    H1 4023   4.956   1.368   4.872
 1353TIP3    H2 4024   4.919   1.503   4.931
 1354TIP3   OH2 4025   4.421   6.359   0.381
 1354TIP3    H1 4026   4.358   6.407   0.328
 1354TIP3    H2 4027   4.423   6.405   0.465
 1355TIP3   OH2 4028   4.364   3.183   0.773
 1355TIP3    H1 4029   4.345   3.224   0.857
 1355TIP3    H2 4030   4.285   3.199   0.721
 1356TIP3   OH2 4031   1.497   4.610   3.844
 1356TIP3    H1 4032   1.546   4.541   3.799
 1356TIP3    H2 4033   1.565   4.661   3.889
 1357TIP3   OH2 4034   0.263   1.395   5.424
 1357TIP3    H1 4035   0.186   1.345   5.452
 1357TIP3    H2 4036   0.327   1.329   5.397
 1358TIP3   OH2 4037   2.549   3.739   4.692
 1358TIP3    H1 4038   2.488   3.750   4.619
 1358TIP3    H2 4039   2.494   3.715   4.767
 1359TIP3   OH2 4040   2.170   0.570   3.822
 1359TIP3    H1 4041   2.261   0.566   3.792
 1359TIP3    H2 4042   2.118   0.568   3.741
 1360TIP3   OH2 4043   1.236   6.101   3.286
 1360TIP3    H1 4044   1.216   6.014   3.322
 1360TIP3    H2 4045   1.227   6.160   3.360
 1361TIP3   OH2 4046   4.065   3.304   1.526
 1361TIP3    H1 4047   4.026   3.264   1.449
 1361TIP3    H2 4048   4.140   3.354   1.491
 1362TIP3   OH2 4049   0.034   2.476   0.979
 1362TIP3    H1 4050  -0.001   2.436   1.059
 1362TIP3    H2 4051   0.009   2.415   0.909
 1363TIP3   OH2 4052   5.865   1.791   4.156
 1363TIP3    H1 4053   5.846   1.700   4.178
 1363TIP3    H2 4054   5.779   1.833   4.150
 1364TIP3   OH2 4055   0.547   6.099   0.318
 1364TIP3    H1 4056   0.500   6.049   0.251
 1364TIP3    H2 4057   0.495   6.180   0.327
 1365TIP3   OH2 4058   1.280   0.536   0.691
 1365TIP3    H1 4059   1.288   0.454   0.739
 1365TIP3    H2 4060   1.370   0.562   0.673
 1366TIP3   OH2 4061   1.923   3.224   2.466
 1366TIP3    H1 4062   2.000   3.250   2.415
 1366TIP3    H2 4063   1.874   3.306   2.479
 1367TIP3   OH2 4064   2.562   6.221   1.786
 1367TIP3    H1 4065   2.608   6.138   1.787
 1367TIP3    H2 4066   2.517   6.225   1.870
 1368TIP3   OH2 4067   5.691   2.109   5.700
 1368TIP3    H1 4068   5.732   2.181   5.652
 1368TIP3    H2 4069   5.661   2.048   5.632
 1369TIP3   OH2 4070   4.523   3.886   1.934
 1369TIP3    H1 4071   4.575   3.964   1.916
 1369TIP3    H2 4072   4.468   3.910   2.008
 1370TIP3   OH2 4073   6.549   6.330   3.510
 1370TIP3    H1 4074   6.596   6.397   3.559
 1370TIP3    H2 4075   6.504   6.378   3.440
 1371TIP3   OH2 4076   1.046   5.857   4.620
 1371TIP3    H1 4077   1.001   5.864   4.704
 1371TIP3    H2 4078   1.041   5.764   4.599
 1372TIP3   OH2 4079   3.337   2.689   2.333
 1372TIP3    H1 4080   3.425   2.709   2.302
 1372TIP3    H2 4081   3.345   2.684   2.428
 1373TIP3   OH2 4082   0.228   3.262   4.593
 1373TIP3    H1 4083   0.249   3.355   4.602
 1373TIP3    H2 4084   0.313   3.217   4.600
 1374TIP3   OH2 4085   6.406   3.370   4.757
 1374TIP3    H1 4086   6.436   3.326   4.837
 1374TIP3    H2 4087   6.385   3.459   4.785
 1375TIP3   OH2 4088   6.877   1.258   2.095
 1375TIP3    H1 4089   6.876   1.352   2.076
 1375TIP3    H2 4090   6.832   1.251   2.180
 1376TIP3   OH2 4091   4.004   6.201   1.908
 1376TIP3    H1 4092   3.970   6.290   1.915
 1376TIP3    H2 4093   4.021   6.174   1.998
 1377TIP3   OH2 4094   2.137   3.384   2.330
 1377TIP3    H1 4095   2.223   3.388   2.372
 1377TIP3    H2 4096   2.151   3.426   2.245
 1378TIP3   OH2 4097   4.013   6.650   1.341
 1378TIP3    H1 4098   3.942   6.666   1.403
 1378TIP3    H2 4099   4.007   6.721   1.278
 1379TIP3   OH2 4100   4.019   3.035   5.584
 1379TIP3    H1 4101   4.077   3.095   5.537
 1379TIP3    H2 4102   4.053   2.948   5.562
 1380TIP3   OH2 4103   0.127   5.754   2.031
 1380TIP3    H1 4104   0.052   5.783   2.082
 1380TIP3    H2 4105   0.203   5.789   2.077
 1381TIP3   OH2 4106   3.942   3.524   4.776
 1381TIP3    H1 4107   3.954   3.431   4.791
 1381TIP3    H2 4108   3.898   3.529   4.691
 1382TIP3   OH2 4109   5.010   1.271   1.911
 1382TIP3    H1 4110   5.101   1.285   1.935
 1382TIP3    H2 4111   4.963   1.273   1.994
 1383TIP3   OH2 4112   1.245   5.307   2.584
 1383TIP3    H1 4113   1.284   5.348   2.662
 1383TIP3    H2 4114   1.151   5.321   2.595
 1384TIP3   OH2 4115   0.951   1.469   0.157
 1384TIP3    H1 4116   1.043   1.462   0.183
 1384TIP3    H2 4117   0.921   1.551   0.195
 1385TIP3   OH2 4118   2.007   2.602   1.081
 1385TIP3    H1 4119   2.006   2.556   0.997
 1385TIP3    H2 4120   2.100   2.617   1.099
 1386TIP3   OH2 4121   1.893   0.014   4.492
 1386TIP3    H1 4122   1.912  -0.019   4.404
 1386TIP3    H2 4123   1.964   0.075   4.511
 1387TIP3   OH2 4124   3.827   4.988   1.434
 1387TIP3    H1 4125   3.865   5.076   1.431
 1387TIP3    H2 4126   3.874   4.939   1.367
 1388TIP3   OH2 4127   0.693   6.359   4.192
 1388TIP3    H1 4128   0.685   6.449   4.160
 1388TIP3    H2 4129   0.781   6.333   4.168
 1389TIP3   OH2 4130   2.160   1.775   1.785
 1389TIP3    H1 4131   2.085   1.733   1.742
 1389TIP3    H2 4132   2.198   1.832   1.718
 1390TIP3   OH2 4133   2.652   2.951   5.429
 1390TIP3    H1 4134   2.730   2.955   5.372
 1390TIP3    H2 4135   2.657   3.030   5.483
 1391TIP3   OH2 4136   5.180   4.362   5.492
 1391TIP3    H1 4137   5.148   4.451   5.507
 1391TIP3    H2 4138   5.258   4.373   5.437
 1392TIP3   OH2 4139   5.552   3.511   4.133
 1392TIP3    H1 4140   5.529   3.487   4.223
 1392TIP3    H2 4141   5.506   3.593   4.118
 1393TIP3   OH2 4142   2.521   3.837   0.738
 1393TIP3    H1 4143   2.523   3.928   0.710
 1393TIP3    H2 4144   2.445   3.799   0.693
 1394TIP3   OH2 4145   2.457   5.346   2.391
 1394TIP3    H1 4146   2.464   5.358   2.486
 1394TIP3    H2 4147   2.533   5.294   2.368
 1395TIP3   OH2 4148   4.826   3.876   0.952
 1395TIP3    H1 4149   4.776   3.916   1.024
 1395TIP3    H2 4150   4.892   3.941   0.930
 1396TIP3   OH2 4151   4.167   5.303   0.606
 1396TIP3    H1 4152   4.103   5.288   0.537
 1396TIP3    H2 4153   4.240   5.347   0.562
 1397TIP3   OH2 4154   6.516   1.039   1.462
 1397TIP3    H1 4155   6.421   1.042   1.476
 1397TIP3    H2 4156   6.553   1.037   1.550
 1398TIP3   OH2 4157   6.815   3.619   1.033
 1398TIP3    H1 4158   6.804   3.586   0.943
 1398TIP3    H2 4159   6.866   3.699   1.023
 1399TIP3   OH2 4160   0.221   2.501   0.137
 1399TIP3    H1 4161   0.153   2.452   0.092
 1399TIP3    H2 4162   0.184   2.521   0.223
 1400TIP3   OH2 4163   3.687   5.627   3.905
 1400TIP3    H1 4164   3.681   5.599   3.996
 1400TIP3    H2 4165   3.632   5.706   3.901
 1401TIP3   OH2 4166   0.569   5.453   2.430
 1401TIP3    H1 4167   0.637   5.517   2.451
 1401TIP3    H2 4168   0.570   5.391   2.503
 1402TIP3   OH2 4169   2.105   0.702   2.716
 1402TIP3    H1 4170   2.067   0.614   2.727
 1402TIP3    H2 4171   2.097   0.742   2.802
 1403TIP3   OH2 4172   5.377   1.253   5.589
 1403TIP3    H1 4173   5.393   1.187   5.656
 1403TIP3    H2 4174   5.294   1.227   5.548
 1404TIP3   OH2 4175   6.569   0.207   3.735
 1404TIP3    H1 4176   6.614   0.290   3.720
 1404TIP3    H2 4177   6.607   0.173   3.816
 1405TIP3   OH2 4178   1.776   6.504   3.829
 1405TIP3    H1 4179   1.816   6.539   3.750
 1405TIP3    H2 4180   1.729   6.579   3.867
 1406TIP3   OH2 4181   6.325   0.681   3.338
 1406TIP3    H1 4182   6.271   0.733   3.397
 1406TIP3    H2 4183   6.388   0.744   3.301
 1407TIP3   OH2 4184   1.132   3.105   1.442
 1407TIP3    H1 4185   1.144   3.010   1.444
 1407TIP3    H2 4186   1.076   3.123   1.518
 1408TIP3   OH2 4187   2.441   5.578   0.438
 1408TIP3    H1 4188   2.453   5.615   0.351
 1408TIP3    H2 4189   2.416   5.487   0.422
 1409TIP3   OH2 4190   2.757   3.936   4.599
 1409TIP3    H1 4191   2.751   3.872   4.527
 1409TIP3    H2 4192   2.670   3.975   4.603
 1410TIP3   OH2 4193   4.936   3.890   3.026
 1410TIP3    H1 4194   4.935   3.972   3.077
 1410TIP3    H2 4195   4.925   3.918   2.935
 1411TIP3   OH2 4196   4.960   2.668   5.501
 1411TIP3    H1 4197   4.963   2.758   5.468
 1411TIP3    H2 4198   5.046   2.632   5.480
 1412TIP3   OH2 4199   2.304   3.230   0.820
 1412TIP3    H1 4200   2.260   3.280   0.888
 1412TIP3    H2 4201   2.374   3.287   0.789
 1413TIP3   OH2 4202   2.345   0.662   4.939
 1413TIP3    H1 4203   2.352   0.645   4.846
 1413TIP3    H2 4204   2.416   0.612   4.978
 1414TIP3   OH2 4205   3.296   0.907   4.532
 1414TIP3    H1 4206   3.363   0.941   4.591
 1414TIP3    H2 4207   3.313   0.950   4.448
 1415TIP3   OH2 4208   7.174   2.233   2.853
 1415TIP3    H1 4209   7.227   2.167   2.899
 1415TIP3    H2 4210   7.091   2.234   2.901
 1416TIP3   OH2 4211   5.256   4.453   5.088
 1416TIP3    H1 4212   5.189   4.521   5.085
 1416TIP3    H2 4213   5.210   4.373   5.064
 1417TIP3   OH2 4214   2.722   3.189   1.364
 1417TIP3    H1 4215   2.689   3.278   1.378
 1417TIP3    H2 4216   2.802   3.201   1.312
 1418TIP3   OH2 4217   5.213   5.806   5.742
 1418TIP3    H1 4218   5.181   5.858   5.668
 1418TIP3    H2 4219   5.135   5.764   5.778
 1419TIP3   OH2 4220   2.155   1.711   5.666
 1419TIP3    H1 4221   2.206   1.647   5.616
 1419TIP3    H2 4222   2.190   1.796   5.639
 1420TIP3   OH2 4223   5.030   0.191   5.027
 1420TIP3    H1 4224   5.092   0.153   4.965
 1420TIP3    H2 4225   4.993   0.266   4.981
 1421TIP3   OH2 4226   1.945   4.623   0.676
 1421TIP3    H1 4227   1.947   4.636   0.771
 1421TIP3    H2 4228   2.035   4.599   0.653
 1422TIP3   OH2 4229   1.574   5.742   3.389
 1422TIP3    H1 4230   1.502   5.706   3.336
 1422TIP3    H2 4231   1.602   5.819   3.340
 1423TIP3   OH2 4232  -0.011   4.816   4.026
 1423TIP3    H1 4233  -0.085   4.853   3.977
 1423TIP3    H2 4234  -0.016   4.857   4.112
 1424TIP3   OH2 4235   0.020   2.309   1.670
 1424TIP3    H1 4236   0.072   2.374   1.623
 1424TIP3    H2 4237   0.055   2.310   1.759
 1425TIP3   OH2 4238   6.542   3.167   0.597
 1425TIP3    H1 4239   6.615   3.212   0.555
 1425TIP3    H2 4240   6.583   3.103   0.655
 1426TIP3   OH2 4241   1.005   5.657   3.386
 1426TIP3    H1 4242   0.999   5.561   3.388
 1426TIP3    H2 4243   0.933   5.686   3.442
 1427TIP3   OH2 4244   6.663   1.097   5.057
 1427TIP3    H1 4245   6.693   1.023   5.005
 1427TIP3    H2 4246   6.733   1.162   5.049
 1428TIP3   OH2 4247   3.814   5.020   2.069
 1428TIP3    H1 4248   3.719   5.008   2.065
 1428TIP3    H2 4249   3.838   4.993   2.157
 1429TIP3   OH2 4250   5.445   5.051   0.181
 1429TIP3    H1 4251   5.503   5.002   0.238
 1429TIP3    H2 4252   5.452   5.007   0.096
 1430TIP3   OH2 4253   1.244   4.911   4.947
 1430TIP3    H1 4254   1.296   4.921   5.027
 1430TIP3    H2 4255   1.165   4.866   4.976
 1431TIP3   OH2 4256   5.473   2.266   0.626
 1431TIP3    H1 4257   5.562   2.286   0.599
 1431TIP3    H2 4258   5.482   2.190   0.684
 1432TIP3   OH2 4259   5.356   1.024   2.208
 1432TIP3    H1 4260   5.399   0.963   2.148
 1432TIP3    H2 4261   5.264   0.998   2.208
 1433TIP3   OH2 4262   6.989   3.185   1.016
 1433TIP3    H1 4263   7.075   3.210   0.982
 1433TIP3    H2 4264   6.928   3.242   0.969
 1434TIP3   OH2 4265   2.769   3.208   4.673
 1434TIP3    H1 4266   2.709   3.283   4.678
 1434TIP3    H2 4267   2.832   3.232   4.605
 1435TIP3   OH2 4268   2.985   0.601   5.185
 1435TIP3    H1 4269   2.923   0.663   5.225
 1435TIP3    H2 4270   2.978   0.523   5.239
 1436TIP3   OH2 4271   3.576   3.805   0.700
 1436TIP3    H1 4272   3.546   3.835   0.614
 1436TIP3    H2 4273   3.592   3.885   0.749
 1437TIP3   OH2 4274   4.728   1.691   0.517
 1437TIP3    H1 4275   4.678   1.750   0.460
 1437TIP3    H2 4276   4.799   1.746   0.551
 1438TIP3   OH2 4277   0.759   4.493   5.636
 1438TIP3    H1 4278   0.718   4.558   5.580
 1438TIP3    H2 4279   0.705   4.492   5.715
 1439TIP3   OH2 4280   2.155   2.411   3.551
 1439TIP3    H1 4281   2.170   2.410   3.457
 1439TIP3    H2 4282   2.074   2.361   3.563
 1440TIP3   OH2 4283   5.392   3.883   3.274
 1440TIP3    H1 4284   5.361   3.849   3.358
 1440TIP3    H2 4285   5.311   3.902   3.225
 1441TIP3   OH2 4286   0.298   5.672   1.814
 1441TIP3    H1 4287   0.258   5.716   1.740
 1441TIP3    H2 4288   0.239   5.688   1.887
 1442TIP3   OH2 4289   7.145   6.174   0.992
 1442TIP3    H1 4290   7.147   6.113   1.066
 1442TIP3    H2 4291   7.098   6.127   0.924
 1443TIP3   OH2 4292   3.858   0.022   1.182
 1443TIP3    H1 4293   3.856  -0.047   1.116
 1443TIP3    H2 4294   3.944   0.062   1.174
 1444TIP3   OH2 4295   0.988   5.650   3.730
 1444TIP3    H1 4296   0.927   5.610   3.668
 1444TIP3    H2 4297   0.943   5.643   3.815
 1445TIP3   OH2 4298   1.912   6.271   3.964
 1445TIP3    H1 4299   1.850   6.343   3.954
 1445TIP3    H2 4300   1.985   6.294   3.907
 1446TIP3   OH2 4301   0.436   3.178   0.839
 1446TIP3    H1 4302   0.442   3.116   0.767
 1446TIP3    H2 4303   0.343   3.177   0.864
 1447TIP3   OH2 4304   4.001   2.917   0.549
 1447TIP3    H1 4305   3.982   2.945   0.639
 1447TIP3    H2 4306   4.066   2.848   0.558
 1448TIP3   OH2 4307   6.480   1.080   0.170
 1448TIP3    H1 4308   6.440   1.019   0.232
 1448TIP3    H2 4309   6.560   1.110   0.213
 1449TIP3   OH2 4310   1.974   0.969   2.619
 1449TIP3    H1 4311   2.010   0.892   2.663
 1449TIP3    H2 4312   1.894   0.989   2.668
 1450TIP3   OH2 4313   6.606   1.496   2.865
 1450TIP3    H1 4314   6.562   1.478   2.948
 1450TIP3    H2 4315   6.638   1.586   2.874
 1451TIP3   OH2 4316   2.587   3.788   3.287
 1451TIP3    H1 4317   2.621   3.878   3.291
 1451TIP3    H2 4318   2.652   3.740   3.236
 1452TIP3   OH2 4319   6.887   5.698   2.760
 1452TIP3    H1 4320   6.885   5.604   2.743
 1452TIP3    H2 4321   6.950   5.708   2.832
 1453TIP3   OH2 4322   6.325   0.950   2.157
 1453TIP3    H1 4323   6.317   0.885   2.088
 1453TIP3    H2 4324   6.377   0.908   2.225
 1454TIP3   OH2 4325   5.789   3.986   5.419
 1454TIP3    H1 4326   5.805   3.922   5.488
 1454TIP3    H2 4327   5.868   4.039   5.417
 1455TIP3   OH2 4328   5.345   4.078   0.853
 1455TIP3    H1 4329   5.354   4.114   0.764
 1455TIP3    H2 4330   5.419   4.114   0.901
 1456TIP3   OH2 4331   3.191   5.980   1.969
 1456TIP3    H1 4332   3.146   5.966   1.886
 1456TIP3    H2 4333   3.159   6.064   2.000
 1457TIP3   OH2 4334   3.722   5.475   5.787
 1457TIP3    H1 4335   3.729   5.568   5.808
 1457TIP3    H2 4336   3.727   5.431   5.872
 1458TIP3   OH2 4337   6.794   5.753   4.486
 1458TIP3    H1 4338   6.769   5.663   4.508
 1458TIP3    H2 4339   6.722   5.807   4.519
 1459TIP3   OH2 4340   6.697   3.644   4.361
 1459TIP3    H1 4341   6.720   3.578   4.296
 1459TIP3    H2 4342   6.773   3.647   4.419
 1460TIP3   OH2 4343   6.793   3.426   1.504
 1460TIP3    H1 4344   6.879   3.452   1.470
 1460TIP3    H2 4345   6.732   3.445   1.433
 1461TIP3   OH2 4346   0.794   0.656   3.963
 1461TIP3    H1 4347   0.775   0.694   4.049
 1461TIP3    H2 4348   0.849   0.721   3.920
 1462TIP3   OH2 4349   3.332   3.800   2.916
 1462TIP3    H1 4350   3.376   3.879   2.947
 1462TIP3    H2 4351   3.268   3.831   2.852
 1463TIP3   OH2 4352   5.955   2.317   4.152
 1463TIP3    H1 4353   6.021   2.385   4.139
 1463TIP3    H2 4354   6.004   2.237   4.168
 1464TIP3   OH2 4355   6.395   4.492   1.636
 1464TIP3    H1 4356   6.455   4.558   1.670
 1464TIP3    H2 4357   6.310   4.536   1.634
 1465TIP3   OH2 4358   2.789   3.536   4.610
 1465TIP3    H1 4359   2.847   3.551   4.685
 1465TIP3    H2 4360   2.744   3.619   4.597
 1466TIP3   OH2 4361   3.202   1.932   4.338
 1466TIP3    H1 4362   3.291   1.897   4.326
 1466TIP3    H2 4363   3.148   1.855   4.355
 1467TIP3   OH2 4364   2.221   1.168   1.655
 1467TIP3    H1 4365   2.302   1.121   1.633
 1467TIP3    H2 4366   2.240   1.259   1.635
 1468TIP3   OH2 4367   5.744   2.416   0.885
 1468TIP3    H1 4368   5.793   2.443   0.962
 1468TIP3    H2 4369   5.758   2.321   0.879
 1469TIP3   OH2 4370   0.008   0.757   4.283
 1469TIP3    H1 4371   0.044   0.695   4.346
 1469TIP3    H2 4372   0.071   0.758   4.211
 1470TIP3   OH2 4373   1.428   1.689   1.547
 1470TIP3    H1 4374   1.402   1.618   1.607
 1470TIP3    H2 4375   1.416   1.769   1.598
 1471TIP3   OH2 4376   5.652   2.784   0.699
 1471TIP3    H1 4377   5.709   2.775   0.775
 1471TIP3    H2 4378   5.606   2.866   0.714
 1472TIP3   OH2 4379   1.634   0.504   4.749
 1472TIP3    H1 4380   1.575   0.437   4.713
 1472TIP3    H2 4381   1.626   0.578   4.689
 1473TIP3   OH2 4382   5.047   4.972   3.501
 1473TIP3    H1 4383   5.060   4.999   3.410
 1473TIP3    H2 4384   5.124   4.918   3.521
 1474TIP3   OH2 4385   3.732   4.808   5.435
 1474TIP3    H1 4386   3.695   4.724   5.463
 1474TIP3    H2 4387   3.656   4.863   5.419
 1475TIP3   OH2 4388   0.200   1.723   4.655
 1475TIP3    H1 4389   0.161   1.672   4.726
 1475TIP3    H2 4390   0.212   1.810   4.692
 1476TIP3   OH2 4391   7.145   1.116   0.103
 1476TIP3    H1 4392   7.229   1.139   0.142
 1476TIP3    H2 4393   7.148   1.020   0.095
 1477TIP3   OH2 4394   1.487   4.374   3.156
 1477TIP3    H1 4395   1.442   4.439   3.102
 1477TIP3    H2 4396   1.563   4.420   3.191
 1478TIP3   OH2 4397   6.010   5.951   1.837
 1478TIP3    H1 4398   6.039   5.995   1.757
 1478TIP3    H2 4399   6.006   5.858   1.813
 1479TIP3   OH2 4400   3.313   1.326   4.266
 1479TIP3    H1 4401   3.275   1.336   4.178
 1479TIP3    H2 4402   3.240   1.343   4.325
 1480TIP3   OH2 4403   6.343   0.326   0.654
 1480TIP3    H1 4404   6.314   0.324   0.563
 1480TIP3    H2 4405   6.436   0.304   0.650
 1481TIP3   OH2 4406   6.524   0.586   1.933
 1481TIP3    H1 4407   6.607   0.538   1.922
 1481TIP3    H2 4408   6.551   0.676   1.953
 1482TIP3   OH2 4409   1.928   2.678   2.907
 1482TIP3    H1 4410   1.922   2.595   2.953
 1482TIP3    H2 4411   1.838   2.698   2.881
 1483TIP3   OH2 4412   5.496   2.357   5.759
 1483TIP3    H1 4413   5.493   2.452   5.771
 1483TIP3    H2 4414   5.548   2.325   5.832
 1484TIP3   OH2 4415   3.652   4.988   4.636
 1484TIP3    H1 4416   3.603   4.986   4.554
 1484TIP3    H2 4417   3.673   4.896   4.653
 1485TIP3   OH2 4418   6.140   4.501   5.478
 1485TIP3    H1 4419   6.213   4.492   5.539
 1485TIP3    H2 4420   6.069   4.539   5.530
 1486TIP3   OH2 4421   0.548   5.794   3.237
 1486TIP3    H1 4422   0.497   5.873   3.220
 1486TIP3    H2 4423   0.503   5.725   3.189
 1487TIP3   OH2 4424   3.591   3.833   3.863
 1487TIP3    H1 4425   3.578   3.871   3.950
 1487TIP3    H2 4426   3.519   3.865   3.811
 1488TIP3   OH2 4427   5.737   1.660   0.422
 1488TIP3    H1 4428   5.732   1.648   0.327
 1488TIP3    H2 4429   5.799   1.732   0.434
 1489TIP3   OH2 4430   3.655   3.117   3.627
 1489TIP3    H1 4431   3.644   3.212   3.630
 1489TIP3    H2 4432   3.742   3.104   3.590
 1490TIP3   OH2 4433   0.383   2.658   4.205
 1490TIP3    H1 4434   0.306   2.673   4.260
 1490TIP3    H2 4435   0.347   2.641   4.118
 1491TIP3   OH2 4436   6.229   3.482   1.913
 1491TIP3    H1 4437   6.136   3.475   1.937
 1491TIP3    H2 4438   6.254   3.393   1.890
 1492TIP3   OH2 4439   1.106   3.237   5.092
 1492TIP3    H1 4440   1.164   3.264   5.021
 1492TIP3    H2 4441   1.053   3.315   5.110
 1493TIP3   OH2 4442   1.249   3.956   1.652
 1493TIP3    H1 4443   1.269   4.024   1.716
 1493TIP3    H2 4444   1.154   3.950   1.651
 1494TIP3   OH2 4445   5.980   4.232   5.411
 1494TIP3    H1 4446   6.065   4.195   5.436
 1494TIP3    H2 4447   5.979   4.319   5.451
 1495TIP3   OH2 4448   4.786   4.747   5.147
 1495TIP3    H1 4449   4.840   4.799   5.208
 1495TIP3    H2 4450   4.700   4.742   5.189
 1496TIP3   OH2 4451   5.270   0.735   5.285
 1496TIP3    H1 4452   5.271   0.775   5.372
 1496TIP3    H2 4453   5.245   0.644   5.300
 1497TIP3   OH2 4454   2.773   2.304   0.251
 1497TIP3    H1 4455   2.724   2.223   0.237
 1497TIP3    H2 4456   2.850   2.297   0.195
 1498TIP3   OH2 4457   0.980   1.673   5.409
 1498TIP3    H1 4458   0.947   1.612   5.475
 1498TIP3    H2 4459   1.018   1.745   5.460
 1499TIP3   OH2 4460   3.185   0.914   1.198
 1499TIP3    H1 4461   3.186   0.829   1.242
 1499TIP3    H2 4462   3.104   0.954   1.227
 1500TIP3   OH2 4463   1.920   2.906   1.217
 1500TIP3    H1 4464   1.837   2.953   1.205
 1500TIP3    H2 4465   1.920   2.840   1.148
 1501TIP3   OH2 4466   0.545   0.736   5.437
 1501TIP3    H1 4467   0.620   0.756   5.381
 1501TIP3    H2 4468   0.484   0.808   5.421
 1502TIP3   OH2 4469   3.164   3.547   0.104
 1502TIP3    H1 4470   3.109   3.489   0.051
 1502TIP3    H2 4471   3.177   3.625   0.049
 1503TIP3   OH2 4472   1.213   5.709   2.542
 1503TIP3    H1 4473   1.301   5.679   2.522
 1503TIP3    H2 4474   1.224   5.800   2.570
 1504TIP3   OH2 4475   6.239   2.902   3.332
 1504TIP3    H1 4476   6.166   2.964   3.334
 1504TIP3    H2 4477   6.266   2.894   3.424
 1505TIP3   OH2 4478   3.062   3.487   2.620
 1505TIP3    H1 4479   3.050   3.474   2.525
 1505TIP3    H2 4480   3.154   3.464   2.635
 1506TIP3   OH2 4481   0.579   0.127   4.814
 1506TIP3    H1 4482   0.540   0.134   4.727
 1506TIP3    H2 4483   0.673   0.138   4.799
 1507TIP3   OH2 4484   4.354   4.179   0.126
 1507TIP3    H1 4485   4.416   4.126   0.075
 1507TIP3    H2 4486   4.408   4.248   0.166
 1508TIP3   OH2 4487   5.671   0.200   1.382
 1508TIP3    H1 4488   5.604   0.132   1.373
 1508TIP3    H2 4489   5.671   0.222   1.475
 1509TIP3   OH2 4490   3.450   6.638   3.808
 1509TIP3    H1 4491   3.359   6.609   3.816
 1509TIP3    H2 4492   3.496   6.592   3.878
 1510TIP3   OH2 4493   0.394   5.762   5.458
 1510TIP3    H1 4494   0.330   5.702   5.496
 1510TIP3    H2 4495   0.461   5.773   5.526
 1511TIP3   OH2 4496   2.694   2.282   0.563
 1511TIP3    H1 4497   2.765   2.237   0.516
 1511TIP3    H2 4498   2.617   2.228   0.547
 1512TIP3   OH2 4499   4.588   4.148   2.978
 1512TIP3    H1 4500   4.678   4.164   2.949
 1512TIP3    H2 4501   4.597   4.097   3.059
 1513TIP3   OH2 4502   6.823   1.278   2.370
 1513TIP3    H1 4503   6.733   1.258   2.395
 1513TIP3    H2 4504   6.851   1.346   2.431
 1514TIP3   OH2 4505   3.819   4.479   0.739
 1514TIP3    H1 4506   3.875   4.453   0.666
 1514TIP3    H2 4507   3.871   4.457   0.817
 1515TIP3   OH2 4508   3.158   0.683   2.617
 1515TIP3    H1 4509   3.095   0.744   2.579
 1515TIP3    H2 4510   3.105   0.611   2.650
 1516TIP3   OH2 4511   5.634   1.680   1.435
 1516TIP3    H1 4512   5.565   1.616   1.451
 1516TIP3    H2 4513   5.715   1.628   1.432
 1517TIP3   OH2 4514   6.334   4.022   3.478
 1517TIP3    H1 4515   6.326   3.936   3.437
 1517TIP3    H2 4516   6.329   4.084   3.406
 1518TIP3   OH2 4517   3.122   4.141   4.682
 1518TIP3    H1 4518   3.135   4.073   4.748
 1518TIP3    H2 4519   3.199   4.198   4.691
 1519TIP3   OH2 4520   5.792   0.947   5.826
 1519TIP3    H1 4521   5.868   0.925   5.881
 1519TIP3    H2 4522   5.825   1.015   5.768
 1520TIP3   OH2 4523   4.034   0.132   3.622
 1520TIP3    H1 4524   3.974   0.200   3.653
 1520TIP3    H2 4525   3.979   0.070   3.576
 1521TIP3   OH2 4526   0.656   6.543   4.456
 1521TIP3    H1 4527   0.616   6.526   4.541
 1521TIP3    H2 4528   0.592   6.510   4.393
 1522TIP3   OH2 4529   4.090   5.207   4.913
 1522TIP3    H1 4530   4.087   5.257   4.831
 1522TIP3    H2 4531   4.037   5.259   4.973
 1523TIP3   OH2 4532   2.925   1.986   5.182
 1523TIP3    H1 4533   2.847   2.032   5.152
 1523TIP3    H2 4534   2.944   1.921   5.114
 1524TIP3   OH2 4535   3.540   2.752   5.087
 1524TIP3    H1 4536   3.479   2.790   5.150
 1524TIP3    H2 4537   3.535   2.809   5.011
 1525TIP3   OH2 4538   2.713   6.013   1.775
 1525TIP3    H1 4539   2.756   5.976   1.852
 1525TIP3    H2 4540   2.674   5.938   1.731
 1526TIP3   OH2 4541   6.576   1.528   1.860
 1526TIP3    H1 4542   6.483   1.514   1.882
 1526TIP3    H2 4543   6.618   1.546   1.944
 1527TIP3   OH2 4544   6.431   2.303   0.487
 1527TIP3    H1 4545   6.351   2.352   0.507
 1527TIP3    H2 4546   6.402   2.214   0.467
 1528TIP3   OH2 4547   6.857   0.706   4.809
 1528TIP3    H1 4548   6.952   0.698   4.803
 1528TIP3    H2 4549   6.823   0.622   4.780
 1529TIP3   OH2 4550   0.485   1.900   5.850
 1529TIP3    H1 4551   0.545   1.861   5.913
 1529TIP3    H2 4552   0.488   1.842   5.773
 1530TIP3   OH2 4553   5.902   5.932   4.811
 1530TIP3    H1 4554   5.979   5.903   4.762
 1530TIP3    H2 4555   5.881   5.859   4.868
 1531TIP3   OH2 4556   1.461   4.216   2.858
 1531TIP3    H1 4557   1.543   4.244   2.899
 1531TIP3    H2 4558   1.409   4.181   2.930
 1532TIP3   OH2 4559   4.775   3.007   5.637
 1532TIP3    H1 4560   4.816   2.931   5.677
 1532TIP3    H2 4561   4.832   3.081   5.662
 1533TIP3   OH2 4562   6.022   2.437   3.180
 1533TIP3    H1 4563   6.039   2.461   3.089
 1533TIP3    H2 4564   6.064   2.351   3.191
 1534TIP3   OH2 4565   6.124   0.206   3.036
 1534TIP3    H1 4566   6.212   0.235   3.061
 1534TIP3    H2 4567   6.095   0.151   3.108
 1535TIP3   OH2 4568   7.056   3.082   1.691
 1535TIP3    H1 4569   7.101   3.165   1.704
 1535TIP3    H2 4570   6.972   3.106   1.652
 1536TIP3   OH2 4571   3.773   5.584   4.986
 1536TIP3    H1 4572   3.695   5.535   5.011
 1536TIP3    H2 4573   3.829   5.519   4.943
 1537TIP3   OH2 4574   5.875   0.456   3.262
 1537TIP3    H1 4575   5.892   0.546   3.289
 1537TIP3    H2 4576   5.916   0.450   3.175
 1538TIP3   OH2 4577   0.602   0.053   4.373
 1538TIP3    H1 4578   0.621   0.091   4.287
 1538TIP3    H2 4579   0.685   0.016   4.402
 1539TIP3   OH2 4580   1.669   5.381   0.539
 1539TIP3    H1 4581   1.695   5.295   0.506
 1539TIP3    H2 4582   1.733   5.401   0.607
 1540TIP3   OH2 4583   0.501   2.999   0.617
 1540TIP3    H1 4584   0.511   3.040   0.531
 1540TIP3    H2 4585   0.476   2.909   0.599
 1541TIP3   OH2 4586   4.444   2.762   4.876
 1541TIP3    H1 4587   4.380   2.827   4.849
 1541TIP3    H2 4588   4.487   2.736   4.794
 1542TIP3   OH2 4589   0.215   0.184   0.416
 1542TIP3    H1 4590   0.137   0.147   0.372
 1542TIP3    H2 4591   0.217   0.139   0.501
 1543TIP3   OH2 4592   2.479   4.324   1.485
 1543TIP3    H1 4593   2.527   4.378   1.548
 1543TIP3    H2 4594   2.520   4.345   1.400
 1544TIP3   OH2 4595   0.544   0.641   0.991
 1544TIP3    H1 4596   0.451   0.630   0.969
 1544TIP3    H2 4597   0.584   0.670   0.909
 1545TIP3   OH2 4598   4.561   6.652   4.999
 1545TIP3    H1 4599   4.536   6.616   5.084
 1545TIP3    H2 4600   4.646   6.611   4.980
 1546TIP3   OH2 4601   3.460   0.899   5.805
 1546TIP3    H1 4602   3.550   0.896   5.838
 1546TIP3    H2 4603   3.414   0.955   5.867
 1547TIP3   OH2 4604   2.241   0.657   4.600
 1547TIP3    H1 4605   2.185   0.735   4.608
 1547TIP3    H2 4606   2.313   0.686   4.545
 1548TIP3   OH2 4607   4.824   5.944   2.946
 1548TIP3    H1 4608   4.912   5.909   2.955
 1548TIP3    H2 4609   4.836   6.039   2.941
 1549TIP3   OH2 4610   6.092   2.716   4.339
 1549TIP3    H1 4611   6.097   2.793   4.282
 1549TIP3    H2 4612   6.161   2.729   4.404
 1550TIP3   OH2 4613   5.937   4.764   0.584
 1550TIP3    H1 4614   5.846   4.780   0.561
 1550TIP3    H2 4615   5.936   4.756   0.679
 1551TIP3   OH2 4616   4.795   2.448   0.802
 1551TIP3    H1 4617   4.810   2.453   0.708
 1551TIP3    H2 4618   4.701   2.430   0.810
 1552TIP3   OH2 4619   1.849   5.633   1.943
 1552TIP3    H1 4620   1.804   5.612   2.024
 1552TIP3    H2 4621   1.878   5.549   1.909
 1553TIP3   OH2 4622   4.343   1.672   2.231
 1553TIP3    H1 4623   4.308   1.584   2.249
 1553TIP3    H2 4624   4.321   1.688   2.139
 1554TIP3   OH2 4625   4.514   0.590   2.586
 1554TIP3    H1 4626   4.560   0.511   2.614
 1554TIP3    H2 4627   4.550   0.609   2.499
 1555TIP3   OH2 4628   3.600   5.633   0.875
 1555TIP3    H1 4629   3.679   5.634   0.822
 1555TIP3    H2 4630   3.557   5.551   0.852
 1556TIP3   OH2 4631   4.593   5.032   3.432
 1556TIP3    H1 4632   4.628   5.096   3.370
 1556TIP3    H2 4633   4.513   4.999   3.391
 1557TIP3   OH2 4634   3.063   5.134   0.069
 1557TIP3    H1 4635   3.138   5.114   0.014
 1557TIP3    H2 4636   3.081   5.089   0.151
 1558TIP3   OH2 4637   4.637   2.265   1.177
 1558TIP3    H1 4638   4.664   2.195   1.118
 1558TIP3    H2 4639   4.543   2.254   1.187
 1559TIP3   OH2 4640   4.397   6.385   4.713
 1559TIP3    H1 4641   4.355   6.323   4.773
 1559TIP3    H2 4642   4.408   6.335   4.632
 1560TIP3   OH2 4643   5.180   4.440   2.264
 1560TIP3    H1 4644   5.189   4.533   2.243
 1560TIP3    H2 4645   5.175   4.437   2.360
 1561TIP3   OH2 4646   3.545   6.279   5.635
 1561TIP3    H1 4647   3.624   6.313   5.678
 1561TIP3    H2 4648   3.530   6.340   5.562
 1562TIP3   OH2 4649   1.682   2.838   0.700
 1562TIP3    H1 4650   1.751   2.841   0.767
 1562TIP3    H2 4651   1.697   2.916   0.646
 1563TIP3   OH2 4652   1.412   4.955   0.601
 1563TIP3    H1 4653   1.359   4.945   0.681
 1563TIP3    H2 4654   1.413   5.049   0.585
 1564TIP3   OH2 4655   4.443   0.278   5.640
 1564TIP3    H1 4656   4.529   0.293   5.601
 1564TIP3    H2 4657   4.392   0.356   5.616
 1565TIP3   OH2 4658   0.898   6.199   2.275
 1565TIP3    H1 4659   0.893   6.175   2.182
 1565TIP3    H2 4660   0.981   6.162   2.305
 1566TIP3   OH2 4661   6.697   4.900   4.790
 1566TIP3    H1 4662   6.752   4.823   4.776
 1566TIP3    H2 4663   6.696   4.946   4.706
 1567TIP3   OH2 4664   4.458   2.468   2.763
 1567TIP3    H1 4665   4.367   2.495   2.776
 1567TIP3    H2 4666   4.464   2.448   2.670
 1568TIP3   OH2 4667   1.929   3.728   4.450
 1568TIP3    H1 4668   1.980   3.722   4.531
 1568TIP3    H2 4669   1.847   3.770   4.477
 1569TIP3   OH2 4670   1.460   6.097   2.862
 1569TIP3    H1 4671   1.509   6.169   2.901
 1569TIP3    H2 4672   1.426   6.047   2.936
 1570TIP3   OH2 4673   5.145   0.249   2.971
 1570TIP3    H1 4674   5.119   0.293   2.890
 1570TIP3    H2 4675   5.240   0.255   2.972
 1571TIP3   OH2 4676   1.705   4.576   3.130
 1571TIP3    H1 4677   1.701   4.559   3.036
 1571TIP3    H2 4678   1.720   4.671   3.137
 1572TIP3   OH2 4679   6.237   6.779   4.293
 1572TIP3    H1 4680   6.161   6.721   4.291
 1572TIP3    H2 4681   6.205   6.862   4.256
 1573TIP3   OH2 4682   4.292   6.603   2.037
 1573TIP3    H1 4683   4.301   6.617   1.943
 1573TIP3    H2 4684   4.366   6.651   2.075
 1574TIP3   OH2 4685   5.569   1.369   4.824
 1574TIP3    H1 4686   5.653   1.400   4.860
 1574TIP3    H2 4687   5.518   1.344   4.901
 1575TIP3   OH2 4688   2.690   2.739   0.850
 1575TIP3    H1 4689   2.782   2.735   0.823
 1575TIP3    H2 4690   2.642   2.695   0.780
 1576TIP3   OH2 4691   3.025   0.022   4.969
 1576TIP3    H1 4692   3.104   0.076   4.966
 1576TIP3    H2 4693   3.049  -0.053   5.024
 1577TIP3   OH2 4694   0.404   1.114   2.187
 1577TIP3    H1 4695   0.465   1.179   2.222
 1577TIP3    H2 4696   0.318   1.150   2.206
 1578TIP3   OH2 4697   4.009   1.732   0.680
 1578TIP3    H1 4698   4.094   1.694   0.657
 1578TIP3    H2 4699   3.946   1.687   0.623
 1579TIP3   OH2 4700   4.743   2.117   4.310
 1579TIP3    H1 4701   4.701   2.044   4.357
 1579TIP3    H2 4702   4.703   2.195   4.346
 1580TIP3   OH2 4703   5.132   3.576   2.119
 1580TIP3    H1 4704   5.128   3.671   2.106
 1580TIP3    H2 4705   5.043   3.551   2.142
 1581TIP3   OH2 4706   7.141   2.037   4.751
 1581TIP3    H1 4707   7.196   2.043   4.829
 1581TIP3    H2 4708   7.148   1.946   4.723
 1582TIP3   OH2 4709   3.228   3.796   2.316
 1582TIP3    H1 4710   3.280   3.765   2.390
 1582TIP3    H2 4711   3.293   3.811   2.247
 1583TIP3   OH2 4712   0.075   5.863   2.676
 1583TIP3    H1 4713   0.013   5.816   2.620
 1583TIP3    H2 4714   0.021   5.926   2.724
 1584TIP3   OH2 4715   6.315   2.008   3.991
 1584TIP3    H1 4716   6.277   1.946   4.053
 1584TIP3    H2 4717   6.346   1.954   3.919
 1585TIP3   OH2 4718   1.368   4.082   3.061
 1585TIP3    H1 4719   1.339   4.145   3.126
 1585TIP3    H2 4720   1.288   4.035   3.036
 1586TIP3   OH2 4721   7.081   3.017   1.962
 1586TIP3    H1 4722   7.102   3.058   1.879
 1586TIP3    H2 4723   7.002   3.062   1.991
 1587TIP3   OH2 4724   6.836   1.958   0.473
 1587TIP3    H1 4725   6.931   1.967   0.485
 1587TIP3    H2 4726   6.824   1.864   0.457
 1588TIP3   OH2 4727   6.716   4.063   3.004
 1588TIP3    H1 4728   6.639   4.007   3.013
 1588TIP3    H2 4729   6.790   4.004   3.014
 1589TIP3   OH2 4730   6.964   6.721   2.142
 1589TIP3    H1 4731   6.949   6.670   2.221
 1589TIP3    H2 4732   6.915   6.802   2.156
 1590TIP3   OH2 4733   0.224   4.342   1.519
 1590TIP3    H1 4734   0.310   4.302   1.502
 1590TIP3    H2 4735   0.242   4.436   1.521
 1591TIP3   OH2 4736   5.031   6.813   2.439
 1591TIP3    H1 4737   5.042   6.722   2.409
 1591TIP3    H2 4738   5.102   6.825   2.502
 1592TIP3   OH2 4739   6.881   3.920   4.116
 1592TIP3    H1 4740   6.806   3.943   4.170
 1592TIP3    H2 4741   6.905   4.002   4.072
 1593TIP3   OH2 4742   5.943   0.235   1.523
 1593TIP3    H1 4743   5.868   0.285   1.556
 1593TIP3    H2 4744   5.918   0.144   1.533
 1594TIP3   OH2 4745   7.002   2.804   0.596
 1594TIP3    H1 4746   6.956   2.886   0.613
 1594TIP3    H2 4747   7.081   2.810   0.650
 1595TIP3   OH2 4748   4.991   1.504   1.032
 1595TIP3    H1 4749   5.061   1.523   0.969
 1595TIP3    H2 4750   5.011   1.558   1.108
 1596TIP3   OH2 4751   6.326   0.997   5.292
 1596TIP3    H1 4752   6.383   0.942   5.239
 1596TIP3    H2 4753   6.295   0.940   5.362
 1597TIP3   OH2 4754   3.924   3.136   5.149
 1597TIP3    H1 4755   3.876   3.170   5.074
 1597TIP3    H2 4756   3.990   3.203   5.167
 1598TIP3   OH2 4757   2.114   5.969   4.667
 1598TIP3    H1 4758   2.142   5.889   4.711
 1598TIP3    H2 4759   2.096   5.942   4.577
 1599TIP3   OH2 4760   0.228   4.627   1.543
 1599TIP3    H1 4761   0.239   4.707   1.493
 1599TIP3    H2 4762   0.245   4.652   1.634
 1600TIP3   OH2 4763   1.444   0.976   5.467
 1600TIP3    H1 4764   1.356   0.944   5.483
 1600TIP3    H2 4765   1.441   1.014   5.380
 1601TIP3   OH2 4766   1.900   2.612   4.441
 1601TIP3    H1 4767   1.974   2.672   4.433
 1601TIP3    H2 4768   1.936   2.535   4.485
 1602TIP3   OH2 4769   1.907   2.078   5.627
 1602TIP3    H1 4770   1.849   2.153   5.614
 1602TIP3    H2 4771   1.848   2.003   5.637
 1603TIP3   OH2 4772   6.307   5.374   5.252
 1603TIP3    H1 4773   6.307   5.281   5.272
 1603TIP3    H2 4774   6.254   5.382   5.173
 1604TIP3   OH2 4775   1.603   2.513   5.813
 1604TIP3    H1 4776   1.577   2.483   5.726
 1604TIP3    H2 4777   1.536   2.477   5.871
 1605TIP3   OH2 4778   0.497   5.970   5.638
 1605TIP3    H1 4779   0.420   5.975   5.694
 1605TIP3    H2 4780   0.501   6.055   5.595
 1606TIP3   OH2 4781   5.738   3.842   3.176
 1606TIP3    H1 4782   5.806   3.777   3.159
 1606TIP3    H2 4783   5.678   3.833   3.102
 1607TIP3   OH2 4784   0.417   4.758   2.489
 1607TIP3    H1 4785   0.495   4.737   2.439
 1607TIP3    H2 4786   0.450   4.802   2.568
 1608TIP3   OH2 4787   5.835   3.019   4.200
 1608TIP3    H1 4788   5.845   3.102   4.152
 1608TIP3    H2 4789   5.857   3.040   4.290
 1609TIP3   OH2 4790   5.815   6.459   4.022
 1609TIP3    H1 4791   5.822   6.363   4.019
 1609TIP3    H2 4792   5.905   6.489   4.037
 1610TIP3   OH2 4793   2.665   6.110   3.587
 1610TIP3    H1 4794   2.585   6.159   3.604
 1610TIP3    H2 4795   2.736   6.174   3.594
 1611TIP3   OH2 4796   6.277   2.868   3.626
 1611TIP3    H1 4797   6.206   2.855   3.689
 1611TIP3    H2 4798   6.351   2.820   3.663
 1612TIP3   OH2 4799   6.263   2.359   4.728
 1612TIP3    H1 4800   6.217   2.327   4.651
 1612TIP3    H2 4801   6.346   2.310   4.728
 1613TIP3   OH2 4802   1.401   0.901   1.518
 1613TIP3    H1 4803   1.462   0.884   1.590
 1613TIP3    H2 4804   1.340   0.827   1.520
 1614TIP3   OH2 4805   1.800   5.349   5.082
 1614TIP3    H1 4806   1.796   5.396   5.165
 1614TIP3    H2 4807   1.715   5.304   5.076
 1615TIP3   OH2 4808   6.291   5.272   4.154
 1615TIP3    H1 4809   6.271   5.243   4.243
 1615TIP3    H2 4810   6.387   5.278   4.152
 1616TIP3   OH2 4811   3.720   5.976   5.143
 1616TIP3    H1 4812   3.706   6.070   5.154
 1616TIP3    H2 4813   3.637   5.936   5.166
 1617TIP3   OH2 4814   1.554   5.355   3.817
 1617TIP3    H1 4815   1.601   5.390   3.893
 1617TIP3    H2 4816   1.584   5.265   3.810
 1618TIP3   OH2 4817   1.353   6.739   1.421
 1618TIP3    H1 4818   1.372   6.776   1.335
 1618TIP3    H2 4819   1.257   6.742   1.427
 1619TIP3   OH2 4820   3.613   0.606   0.249
 1619TIP3    H1 4821   3.577   0.651   0.326
 1619TIP3    H2 4822   3.661   0.673   0.201
 1620TIP3   OH2 4823   5.940   6.471   5.586
 1620TIP3    H1 4824   6.009   6.527   5.552
 1620TIP3    H2 4825   5.966   6.452   5.676
 1621TIP3   OH2 4826   2.942   5.956   5.075
 1621TIP3    H1 4827   3.029   5.981   5.107
 1621TIP3    H2 4828   2.957   5.928   4.985
 1622TIP3   OH2 4829   1.666   0.790   2.096
 1622TIP3    H1 4830   1.623   0.715   2.137
 1622TIP3    H2 4831   1.710   0.753   2.019
 1623TIP3   OH2 4832   6.187   5.622   1.896
 1623TIP3    H1 4833   6.256   5.606   1.961
 1623TIP3    H2 4834   6.106   5.597   1.940
 1624TIP3   OH2 4835   3.322   0.258   3.446
 1624TIP3    H1 4836   3.382   0.299   3.384
 1624TIP3    H2 4837   3.325   0.314   3.523
 1625TIP3   OH2 4838   1.232   0.081   4.642
 1625TIP3    H1 4839   1.324   0.058   4.631
 1625TIP3    H2 4840   1.219   0.087   4.737
 1626TIP3   OH2 4841   2.599   1.700   0.309
 1626TIP3    H1 4842   2.558   1.637   0.250
 1626TIP3    H2 4843   2.535   1.771   0.315
 1627TIP3   OH2 4844   2.979   5.161   0.601
 1627TIP3    H1 4845   2.896   5.188   0.640
 1627TIP3    H2 4846   2.990   5.070   0.629
 1628TIP3   OH2 4847   3.671   2.700   4.106
 1628TIP3    H1 4848   3.578   2.695   4.130
 1628TIP3    H2 4849   3.670   2.735   4.017
 1629TIP3   OH2 4850   6.862   1.498   3.425
 1629TIP3    H1 4851   6.860   1.457   3.512
 1629TIP3    H2 4852   6.888   1.588   3.442
 1630TIP3   OH2 4853   4.374   2.834   3.091
 1630TIP3    H1 4854   4.317   2.763   3.059
 1630TIP3    H2 4855   4.462   2.798   3.087
 1631TIP3   OH2 4856   5.185   3.735   1.383
 1631TIP3    H1 4857   5.221   3.680   1.313
 1631TIP3    H2 4858   5.126   3.676   1.431
 1632TIP3   OH2 4859   6.307   0.513   4.492
 1632TIP3    H1 4860   6.309   0.513   4.396
 1632TIP3    H2 4861   6.301   0.605   4.516
 1633TIP3   OH2 4862   6.757   0.083   1.720
 1633TIP3    H1 4863   6.696   0.061   1.650
 1633TIP3    H2 4864   6.791  -0.002   1.749
 1634TIP3   OH2 4865   2.627   6.682   1.238
 1634TIP3    H1 4866   2.670   6.724   1.163
 1634TIP3    H2 4867   2.603   6.755   1.295
 1635TIP3   OH2 4868   0.940   5.845   2.677
 1635TIP3    H1 4869   1.011   5.791   2.644
 1635TIP3    H2 4870   0.961   5.858   2.770
 1636TIP3   OH2 4871   5.489   2.584   5.008
 1636TIP3    H1 4872   5.492   2.490   4.990
 1636TIP3    H2 4873   5.509   2.625   4.924
 1637TIP3   OH2 4874   3.560   3.288   1.378
 1637TIP3    H1 4875   3.565   3.357   1.444
 1637TIP3    H2 4876   3.494   3.320   1.315
 1638TIP3   OH2 4877   5.801   5.214   5.729
 1638TIP3    H1 4878   5.866   5.282   5.743
 1638TIP3    H2 4879   5.717   5.256   5.749
 1639TIP3   OH2 4880   2.147   0.251   2.234
 1639TIP3    H1 4881   2.168   0.220   2.322
 1639TIP3    H2 4882   2.064   0.208   2.213
 1640TIP3   OH2 4883   2.777   1.871   3.339
 1640TIP3    H1 4884   2.783   1.956   3.295
 1640TIP3    H2 4885   2.684   1.848   3.335
 1641TIP3   OH2 4886   3.518   4.614   1.322
 1641TIP3    H1 4887   3.558   4.603   1.235
 1641TIP3    H2 4888   3.455   4.543   1.329
 1642TIP3   OH2 4889   3.657   4.447   0.353
 1642TIP3    H1 4890   3.573   4.401   0.346
 1642TIP3    H2 4891   3.723   4.383   0.326
 1643TIP3   OH2 4892   6.736   0.796   4.099
 1643TIP3    H1 4893   6.754   0.879   4.054
 1643TIP3    H2 4894   6.817   0.778   4.147
 1644TIP3   OH2 4895   1.440   3.423   3.846
 1644TIP3    H1 4896   1.381   3.498   3.835
 1644TIP3    H2 4897   1.477   3.409   3.760
 1645TIP3   OH2 4898   2.564   4.035   2.690
 1645TIP3    H1 4899   2.578   4.001   2.602
 1645TIP3    H2 4900   2.469   4.046   2.696
 1646TIP3   OH2 4901   2.525   3.074   5.148
 1646TIP3    H1 4902   2.497   3.094   5.059
 1646TIP3    H2 4903   2.478   3.137   5.203
 1647TIP3   OH2 4904   5.205   6.602   2.607
 1647TIP3    H1 4905   5.241   6.691   2.617
 1647TIP3    H2 4906   5.270   6.546   2.650
 1648TIP3   OH2 4907   5.178   2.563   5.395
 1648TIP3    H1 4908   5.163   2.570   5.301
 1648TIP3    H2 4909   5.189   2.469   5.410
 1649TIP3   OH2 4910   7.008   2.578   1.712
 1649TIP3    H1 4911   6.955   2.649   1.676
 1649TIP3    H2 4912   7.006   2.510   1.644
 1650TIP3   OH2 4913   3.722   4.515   2.885
 1650TIP3    H1 4914   3.677   4.463   2.818
 1650TIP3    H2 4915   3.654   4.568   2.925
 1651TIP3   OH2 4916   6.735   1.678   2.343
 1651TIP3    H1 4917   6.720   1.771   2.358
 1651TIP3    H2 4918   6.745   1.641   2.431
 1652TIP3   OH2 4919   4.273   0.748   1.425
 1652TIP3    H1 4920   4.251   0.665   1.467
 1652TIP3    H2 4921   4.344   0.727   1.364
 1653TIP3   OH2 4922   4.826   5.710   3.705
 1653TIP3    H1 4923   4.771   5.693   3.781
 1653TIP3    H2 4924   4.906   5.749   3.741
 1654TIP3   OH2 4925   2.979   1.050   3.658
 1654TIP3    H1 4926   2.920   1.125   3.648
 1654TIP3    H2 4927   3.067   1.087   3.648
 1655TIP3   OH2 4928   4.089   3.728   2.379
 1655TIP3    H1 4929   4.042   3.731   2.462
 1655TIP3    H2 4930   4.023   3.704   2.314
 1656TIP3   OH2 4931   7.191   5.989   5.178
 1656TIP3    H1 4932   7.185   5.909   5.126
 1656TIP3    H2 4933   7.100   6.012   5.197
 1657TIP3   OH2 4934   5.826   1.250   3.867
 1657TIP3    H1 4935   5.914   1.239   3.903
 1657TIP3    H2 4936   5.840   1.297   3.785
 1658TIP3   OH2 4937   1.223   2.342   3.885
 1658TIP3    H1 4938   1.245   2.269   3.826
 1658TIP3    H2 4939   1.304   2.392   3.892
 1659TIP3   OH2 4940   3.378   1.359   0.379
 1659TIP3    H1 4941   3.452   1.314   0.339
 1659TIP3    H2 4942   3.414   1.398   0.459
 1660TIP3   OH2 4943   3.272   4.907   2.804
 1660TIP3    H1 4944   3.281   4.828   2.751
 1660TIP3    H2 4945   3.306   4.977   2.748
 1661TIP3   OH2 4946   0.321   3.191   1.629
 1661TIP3    H1 4947   0.263   3.220   1.559
 1661TIP3    H2 4948   0.262   3.168   1.702
 1662TIP3   OH2 4949   4.163   1.828   5.702
 1662TIP3    H1 4950   4.221   1.891   5.744
 1662TIP3    H2 4951   4.193   1.743   5.732
 1663TIP3   OH2 4952   5.524   4.994   0.863
 1663TIP3    H1 4953   5.509   5.064   0.927
 1663TIP3    H2 4954   5.448   4.937   0.872
 1664TIP3   OH2 4955   4.439   3.532   1.051
 1664TIP3    H1 4956   4.369   3.587   1.016
 1664TIP3    H2 4957   4.476   3.489   0.974
 1665TIP3   OH2 4958   5.406   3.494   1.424
 1665TIP3    H1 4959   5.489   3.450   1.445
 1665TIP3    H2 4960   5.420   3.531   1.337
 1666TIP3   OH2 4961   2.068   2.423   2.328
 1666TIP3    H1 4962   2.026   2.427   2.414
 1666TIP3    H2 4963   2.162   2.427   2.347
 1667TIP3   OH2 4964   0.457   4.927   0.482
 1667TIP3    H1 4965   0.412   4.864   0.425
 1667TIP3    H2 4966   0.390   4.951   0.547
 1668TIP3   OH2 4967   0.791  -0.020   3.817
 1668TIP3    H1 4968   0.758   0.022   3.738
 1668TIP3    H2 4969   0.713  -0.048   3.864
 1669TIP3   OH2 4970   3.950   1.436   2.189
 1669TIP3    H1 4971   3.859   1.467   2.185
 1669TIP3    H2 4972   3.983   1.468   2.273
 1670TIP3   OH2 4973   4.657   0.863   3.981
 1670TIP3    H1 4974   4.677   0.867   4.074
 1670TIP3    H2 4975   4.566   0.831   3.977
 1671TIP3   OH2 4976   7.065   2.646   3.409
 1671TIP3    H1 4977   7.042   2.661   3.501
 1671TIP3    H2 4978   7.125   2.572   3.410
 1672TIP3   OH2 4979   0.876   3.471   0.518
 1672TIP3    H1 4980   0.787   3.447   0.545
 1672TIP3    H2 4981   0.906   3.531   0.585
 1673TIP3   OH2 4982   2.732   3.795   1.326
 1673TIP3    H1 4983   2.669   3.764   1.391
 1673TIP3    H2 4984   2.732   3.728   1.258
 1674TIP3   OH2 4985   0.653   2.880   5.654
 1674TIP3    H1 4986   0.597   2.808   5.625
 1674TIP3    H2 4987   0.711   2.841   5.719
 1675TIP3   OH2 4988   3.890   5.815   4.136
 1675TIP3    H1 4989   3.963   5.811   4.197
 1675TIP3    H2 4990   3.824   5.757   4.173
 1676TIP3   OH2 4991   2.323   2.561   1.852
 1676TIP3    H1 4992   2.250   2.559   1.913
 1676TIP3    H2 4993   2.306   2.637   1.796
 1677TIP3   OH2 4994   3.802   1.159   5.272
 1677TIP3    H1 4995   3.826   1.155   5.179
 1677TIP3    H2 4996   3.879   1.126   5.318
 1678TIP3   OH2 4997   5.961   5.639   0.697
 1678TIP3    H1 4998   5.953   5.597   0.611
 1678TIP3    H2 4999   6.050   5.618   0.725
 1679TIP3   OH2 5000   3.802   2.969   4.811
 1679TIP3    H1 5001   3.794   2.904   4.740
 1679TIP3    H2 5002   3.713   2.982   4.841
 1680TIP3   OH2 5003   1.343   3.696   4.835
 1680TIP3    H1 5004   1.317   3.615   4.792
 1680TIP3    H2 5005   1.325   3.681   4.928
 1681TIP3   OH2 5006   5.109   6.311   2.001
 1681TIP3    H1 5007   5.089   6.404   2.006
 1681TIP3    H2 5008   5.050   6.277   1.934
 1682TIP3   OH2 5009   4.452   6.374   5.327
 1682TIP3    H1 5010   4.542   6.381   5.358
 1682TIP3    H2 5011   4.445   6.441   5.259
 1683TIP3   OH2 5012   0.888   6.105   0.081
 1683TIP3    H1 5013   0.880   6.041   0.011
 1683TIP3    H2 5014   0.939   6.061   0.149
 1684TIP3   OH2 5015   1.362   0.609   5.390
 1684TIP3    H1 5016   1.419   0.537   5.363
 1684TIP3    H2 5017   1.393   0.632   5.478
 1685TIP3   OH2 5018   4.849   1.910   2.891
 1685TIP3    H1 5019   4.886   1.996   2.910
 1685TIP3    H2 5020   4.850   1.865   2.976
 1686TIP3   OH2 5021   1.978   1.496   0.951
 1686TIP3    H1 5022   2.044   1.533   1.010
 1686TIP3    H2 5023   1.982   1.551   0.873
 1687TIP3   OH2 5024   1.752   3.845   2.408
 1687TIP3    H1 5025   1.829   3.902   2.397
 1687TIP3    H2 5026   1.703   3.856   2.326
 1688TIP3   OH2 5027   4.089   3.385   2.646
 1688TIP3    H1 5028   4.151   3.362   2.716
 1688TIP3    H2 5029   4.014   3.422   2.691
 1689TIP3   OH2 5030   2.288   2.293   1.545
 1689TIP3    H1 5031   2.376   2.327   1.565
 1689TIP3    H2 5032   2.233   2.371   1.543
 1690TIP3   OH2 5033   1.550   6.359   1.585
 1690TIP3    H1 5034   1.609   6.399   1.650
 1690TIP3    H2 5035   1.467   6.406   1.597
 1691TIP3   OH2 5036   2.361   4.155   4.164
 1691TIP3    H1 5037   2.406   4.076   4.196
 1691TIP3    H2 5038   2.342   4.136   4.072
 1692TIP3   OH2 5039   6.091   2.889   0.164
 1692TIP3    H1 5040   6.166   2.914   0.219
 1692TIP3    H2 5041   6.092   2.953   0.092
 1693TIP3   OH2 5042   4.721   6.050   2.086
 1693TIP3    H1 5043   4.662   6.077   2.015
 1693TIP3    H2 5044   4.700   6.109   2.158
 1694TIP3   OH2 5045   5.402   3.163   1.273
 1694TIP3    H1 5046   5.369   3.154   1.183
 1694TIP3    H2 5047   5.452   3.245   1.271
 1695TIP3   OH2 5048   3.458   6.054   5.254
 1695TIP3    H1 5049   3.482   6.146   5.264
 1695TIP3    H2 5050   3.480   6.014   5.337
 1696TIP3   OH2 5051   0.385   5.207   5.253
 1696TIP3    H1 5052   0.310   5.254   5.215
 1696TIP3    H2 5053   0.461   5.238   5.203
 1697TIP3   OH2 5054   4.218   5.374   4.696
 1697TIP3    H1 5055   4.284   5.424   4.743
 1697TIP3    H2 5056   4.267   5.325   4.630
 1698TIP3   OH2 5057   0.069   4.698   2.785
 1698TIP3    H1 5058   0.044   4.621   2.837
 1698TIP3    H2 5059  -0.008   4.716   2.730
 1699TIP3   OH2 5060   5.687   1.139   4.732
 1699TIP3    H1 5061   5.616   1.084   4.764
 1699TIP3    H2 5062   5.659   1.228   4.750
 1700TIP3   OH2 5063   6.069   2.127   5.660
 1700TIP3    H1 5064   6.105   2.209   5.694
 1700TIP3    H2 5065   5.980   2.150   5.634
 1701TIP3   OH2 5066   3.378   2.720   1.862
 1701TIP3    H1 5067   3.363   2.762   1.777
 1701TIP3    H2 5068   3.470   2.694   1.859
 1702TIP3   OH2 5069   3.647   5.127   0.823
 1702TIP3    H1 5070   3.708   5.181   0.772
 1702TIP3    H2 5071   3.697   5.100   0.900
 1703TIP3   OH2 5072   4.819   1.965   4.951
 1703TIP3    H1 5073   4.736   1.978   4.997
 1703TIP3    H2 5074   4.810   2.013   4.869
 1704TIP3   OH2 5075   5.826   1.780   4.753
 1704TIP3    H1 5076   5.902   1.836   4.770
 1704TIP3    H2 5077   5.805   1.741   4.838
 1705TIP3   OH2 5078   5.141   3.187   0.649
 1705TIP3    H1 5079   5.092   3.193   0.566
 1705TIP3    H2 5080   5.125   3.098   0.680
 1706TIP3   OH2 5081   3.918   2.803   5.213
 1706TIP3    H1 5082   3.864   2.877   5.241
 1706TIP3    H2 5083   4.000   2.843   5.185
 1707TIP3   OH2 5084   2.299   3.093   4.659
 1707TIP3    H1 5085   2.263   3.016   4.703
 1707TIP3    H2 5086   2.223   3.146   4.637
 1708TIP3   OH2 5087   7.052   3.448   5.630
 1708TIP3    H1 5088   6.972   3.445   5.577
 1708TIP3    H2 5089   7.100   3.370   5.605
 1709TIP3   OH2 5090   4.827   4.516   2.871
 1709TIP3    H1 5091   4.803   4.565   2.950
 1709TIP3    H2 5092   4.782   4.432   2.880
 1710TIP3   OH2 5093   3.160   2.704   0.372
 1710TIP3    H1 5094   3.087   2.748   0.414
 1710TIP3    H2 5095   3.122   2.627   0.330
 1711TIP3   OH2 5096   6.031   0.938   1.815
 1711TIP3    H1 5097   6.083   1.017   1.802
 1711TIP3    H2 5098   6.044   0.887   1.735
 1712TIP3   OH2 5099   2.992   0.615   4.015
 1712TIP3    H1 5100   2.989   0.684   3.949
 1712TIP3    H2 5101   3.085   0.599   4.029
 1713TIP3   OH2 5102   1.650   4.662   2.048
 1713TIP3    H1 5103   1.639   4.748   2.089
 1713TIP3    H2 5104   1.562   4.637   2.021
 1714TIP3   OH2 5105   1.622   2.548   2.362
 1714TIP3    H1 5106   1.674   2.467   2.355
 1714TIP3    H2 5107   1.565   2.533   2.437
 1715TIP3   OH2 5108   2.606   2.365   3.166
 1715TIP3    H1 5109   2.543   2.340   3.098
 1715TIP3    H2 5110   2.609   2.460   3.163
 1716TIP3   OH2 5111   5.330   6.782   3.867
 1716TIP3    H1 5112   5.302   6.790   3.775
 1716TIP3    H2 5113   5.278   6.709   3.900
 1717TIP3   OH2 5114   7.248   1.772   1.681
 1717TIP3    H1 5115   7.220   1.860   1.705
 1717TIP3    H2 5116   7.320   1.752   1.741
 1718TIP3   OH2 5117   6.328   3.713   1.799
 1718TIP3    H1 5118   6.259   3.735   1.736
 1718TIP3    H2 5119   6.302   3.627   1.833
 1719TIP3   OH2 5120   0.435   0.170   1.723
 1719TIP3    H1 5121   0.414   0.263   1.727
 1719TIP3    H2 5122   0.511   0.165   1.664
 1720TIP3   OH2 5123   5.987   6.057   5.426
 1720TIP3    H1 5124   6.035   5.976   5.444
 1720TIP3    H2 5125   5.896   6.031   5.422
 1721TIP3   OH2 5126   2.187   4.947   2.476
 1721TIP3    H1 5127   2.211   5.026   2.429
 1721TIP3    H2 5128   2.116   4.974   2.534
 1722TIP3   OH2 5129   0.281   2.507   3.337
 1722TIP3    H1 5130   0.330   2.580   3.298
 1722TIP3    H2 5131   0.203   2.499   3.283
 1723TIP3   OH2 5132   3.466   4.022   3.001
 1723TIP3    H1 5133   3.473   4.068   2.917
 1723TIP3    H2 5134   3.526   4.069   3.058
 1724TIP3   OH2 5135   5.106   2.692   4.571
 1724TIP3    H1 5136   5.111   2.643   4.488
 1724TIP3    H2 5137   5.176   2.757   4.564
 1725TIP3   OH2 5138   5.942   1.323   2.971
 1725TIP3    H1 5139   6.004   1.295   3.038
 1725TIP3    H2 5140   5.902   1.241   2.940
 1726TIP3   OH2 5141   3.070   0.026   5.727
 1726TIP3    H1 5142   3.003   0.072   5.777
 1726TIP3    H2 5143   3.078  -0.059   5.771
 1727TIP3   OH2 5144   1.247   6.618   0.914
 1727TIP3    H1 5145   1.276   6.600   0.825
 1727TIP3    H2 5146   1.327   6.617   0.967
 1728TIP3   OH2 5147   6.719   2.712   3.218
 1728TIP3    H1 5148   6.687   2.713   3.308
 1728TIP3    H2 5149   6.797   2.767   3.219
 1729TIP3   OH2 5150   6.835   1.621   1.854
 1729TIP3    H1 5151   6.745   1.589   1.842
 1729TIP3    H2 5152   6.827   1.716   1.855
 1730TIP3   OH2 5153   0.211   4.854   2.975
 1730TIP3    H1 5154   0.258   4.937   2.968
 1730TIP3    H2 5155   0.217   4.816   2.888
 1731TIP3   OH2 5156   6.551   5.365   5.063
 1731TIP3    H1 5157   6.561   5.364   5.158
 1731TIP3    H2 5158   6.502   5.445   5.045
 1732TIP3   OH2 5159   5.072   0.530   0.338
 1732TIP3    H1 5160   4.981   0.505   0.322
 1732TIP3    H2 5161   5.079   0.618   0.300
 1733TIP3   OH2 5162   6.875   0.188   0.500
 1733TIP3    H1 5163   6.914   0.266   0.541
 1733TIP3    H2 5164   6.892   0.199   0.407
 1734TIP3   OH2 5165   6.184   2.216   3.873
 1734TIP3    H1 5166   6.223   2.153   3.935
 1734TIP3    H2 5167   6.224   2.194   3.789
 1735TIP3   OH2 5168   7.237   3.970   3.922
 1735TIP3    H1 5169   7.157   3.934   3.960
 1735TIP3    H2 5170   7.240   4.060   3.953
 1736TIP3   OH2 5171   7.118   5.824   4.637
 1736TIP3    H1 5172   7.063   5.746   4.624
 1736TIP3    H2 5173   7.086   5.886   4.571
 1737TIP3   OH2 5174   0.627   5.337   2.136
 1737TIP3    H1 5175   0.660   5.284   2.063
 1737TIP3    H2 5176   0.707   5.370   2.178
 1738TIP3   OH2 5177   5.366   4.058   5.310
 1738TIP3    H1 5178   5.435   4.106   5.355
 1738TIP3    H2 5179   5.413   3.992   5.258
 1739TIP3   OH2 5180   5.407   2.718   1.452
 1739TIP3    H1 5181   5.418   2.812   1.446
 1739TIP3    H2 5182   5.331   2.706   1.508
 1740TIP3   OH2 5183   6.033   6.613   4.351
 1740TIP3    H1 5184   6.025   6.614   4.447
 1740TIP3    H2 5185   6.040   6.521   4.329
 1741TIP3   OH2 5186   3.078   6.052   2.625
 1741TIP3    H1 5187   3.006   6.072   2.565
 1741TIP3    H2 5188   3.046   6.077   2.711
 1742TIP3   OH2 5189   2.002   2.032   4.243
 1742TIP3    H1 5190   2.081   2.030   4.189
 1742TIP3    H2 5191   2.030   2.071   4.326
 1743TIP3   OH2 5192   1.311   5.381   0.864
 1743TIP3    H1 5193   1.252   5.340   0.801
 1743TIP3    H2 5194   1.399   5.361   0.832
 1744TIP3   OH2 5195   1.587   4.204   1.218
 1744TIP3    H1 5196   1.545   4.205   1.132
 1744TIP3    H2 5197   1.613   4.113   1.232
 1745TIP3   OH2 5198   4.759   5.761   1.993
 1745TIP3    H1 5199   4.688   5.725   2.047
 1745TIP3    H2 5200   4.793   5.835   2.044
 1746TIP3   OH2 5201   0.621   4.334   0.611
 1746TIP3    H1 5202   0.596   4.251   0.572
 1746TIP3    H2 5203   0.717   4.331   0.617
 1747TIP3   OH2 5204   2.543   5.623   4.377
 1747TIP3    H1 5205   2.576   5.568   4.449
 1747TIP3    H2 5206   2.518   5.705   4.418
 1748TIP3   OH2 5207   5.248   0.224   2.294
 1748TIP3    H1 5208   5.307   0.221   2.219
 1748TIP3    H2 5209   5.280   0.154   2.352
 1749TIP3   OH2 5210   1.264   3.419   3.305
 1749TIP3    H1 5211   1.304   3.405   3.219
 1749TIP3    H2 5212   1.220   3.336   3.325
 1750TIP3   OH2 5213   5.813   2.295   5.504
 1750TIP3    H1 5214   5.853   2.294   5.417
 1750TIP3    H2 5215   5.816   2.386   5.531
 1751TIP3   OH2 5216   1.726   2.133   1.184
 1751TIP3    H1 5217   1.730   2.073   1.258
 1751TIP3    H2 5218   1.642   2.178   1.194
 1752TIP3   OH2 5219   1.864   0.450   1.135
 1752TIP3    H1 5220   1.790   0.463   1.076
 1752TIP3    H2 5221   1.893   0.360   1.117
 1753TIP3   OH2 5222   0.725   1.666   4.297
 1753TIP3    H1 5223   0.812   1.685   4.264
 1753TIP3    H2 5224   0.737   1.651   4.391
 1754TIP3   OH2 5225   0.844   0.540   0.926
 1754TIP3    H1 5226   0.905   0.541   0.852
 1754TIP3    H2 5227   0.835   0.448   0.948
 1755TIP3   OH2 5228   4.035   0.970   0.978
 1755TIP3    H1 5229   4.022   0.882   0.943
 1755TIP3    H2 5230   4.069   1.021   0.905
 1756TIP3   OH2 5231   0.186   5.391   2.972
 1756TIP3    H1 5232   0.200   5.388   3.066
 1756TIP3    H2 5233   0.180   5.484   2.951
 1757TIP3   OH2 5234   2.657   4.501   1.612
 1757TIP3    H1 5235   2.690   4.535   1.529
 1757TIP3    H2 5236   2.692   4.561   1.678
 1758TIP3   OH2 5237   3.731   2.364   0.761
 1758TIP3    H1 5238   3.678   2.347   0.683
 1758TIP3    H2 5239   3.752   2.277   0.795
 1759TIP3   OH2 5240   3.427   2.325   5.615
 1759TIP3    H1 5241   3.471   2.362   5.692
 1759TIP3    H2 5242   3.334   2.327   5.637
 1760TIP3   OH2 5243   0.987   6.562   5.344
 1760TIP3    H1 5244   0.907   6.514   5.324
 1760TIP3    H2 5245   0.961   6.654   5.342
 1761TIP3   OH2 5246   6.270   4.881   2.674
 1761TIP3    H1 5247   6.350   4.835   2.647
 1761TIP3    H2 5248   6.252   4.942   2.602
 1762TIP3   OH2 5249   6.088   3.025   5.284
 1762TIP3    H1 5250   6.067   2.942   5.328
 1762TIP3    H2 5251   6.027   3.088   5.323
 1763TIP3   OH2 5252   2.227   4.777   0.605
 1763TIP3    H1 5253   2.239   4.696   0.653
 1763TIP3    H2 5254   2.306   4.828   0.622
 1764TIP3   OH2 5255   6.850   2.423   0.262
 1764TIP3    H1 5256   6.806   2.343   0.289
 1764TIP3    H2 5257   6.891   2.455   0.343
 1765TIP3   OH2 5258   2.180   5.896   5.266
 1765TIP3    H1 5259   2.264   5.932   5.294
 1765TIP3    H2 5260   2.169   5.929   5.176
 1766TIP3   OH2 5261   6.563   0.462   4.234
 1766TIP3    H1 5262   6.591   0.475   4.325
 1766TIP3    H2 5263   6.626   0.400   4.198
 1767TIP3   OH2 5264   4.416   4.109   4.654
 1767TIP3    H1 5265   4.384   4.141   4.569
 1767TIP3    H2 5266   4.420   4.187   4.709
 1768TIP3   OH2 5267   7.140   6.584   1.272
 1768TIP3    H1 5268   7.218   6.628   1.237
 1768TIP3    H2 5269   7.075   6.591   1.202
 1769TIP3   OH2 5270   6.497   4.701   3.707
 1769TIP3    H1 5271   6.435   4.630   3.723
 1769TIP3    H2 5272   6.530   4.684   3.618
 1770TIP3   OH2 5273   6.732   2.351   0.639
 1770TIP3    H1 5274   6.641   2.371   0.659
 1770TIP3    H2 5275   6.769   2.435   0.609
 1771TIP3   OH2 5276   0.514   0.522   0.688
 1771TIP3    H1 5277   0.555   0.609   0.687
 1771TIP3    H2 5278   0.436   0.534   0.742
 1772TIP3   OH2 5279   6.924   0.048   1.341
 1772TIP3    H1 5280   6.832   0.057   1.364
 1772TIP3    H2 5281   6.942  -0.045   1.349
 1773TIP3   OH2 5282   4.255   1.537   2.673
 1773TIP3    H1 5283   4.249   1.543   2.578
 1773TIP3    H2 5284   4.265   1.627   2.703
 1774TIP3   OH2 5285   4.816   4.346   4.293
 1774TIP3    H1 5286   4.726   4.319   4.312
 1774TIP3    H2 5287   4.861   4.342   4.377
 1775TIP3   OH2 5288   5.905   6.031   0.557
 1775TIP3    H1 5289   5.958   6.001   0.631
 1775TIP3    H2 5290   5.838   6.087   0.598
 1776TIP3   OH2 5291   7.133   3.998   0.815
 1776TIP3    H1 5292   7.112   3.917   0.861
 1776TIP3    H2 5293   7.048   4.037   0.795
 1777TIP3   OH2 5294   5.466   2.606   0.546
 1777TIP3    H1 5295   5.421   2.687   0.522
 1777TIP3    H2 5296   5.548   2.634   0.586
 1778TIP3   OH2 5297   1.477   2.030   4.875
 1778TIP3    H1 5298   1.560   2.077   4.887
 1778TIP3    H2 5299   1.417   2.095   4.841
 1779TIP3   OH2 5300   3.990   4.461   2.987
 1779TIP3    H1 5301   3.900   4.492   2.978
 1779TIP3    H2 5302   4.044   4.536   2.964
 1780TIP3   OH2 5303   0.578   5.301   4.827
 1780TIP3    H1 5304   0.584   5.206   4.823
 1780TIP3    H2 5305   0.623   5.331   4.747
 1781TIP3   OH2 5306   6.414   2.774   1.947
 1781TIP3    H1 5307   6.337   2.824   1.971
 1781TIP3    H2 5308   6.486   2.816   1.994
 1782TIP3   OH2 5309   6.238   3.843   1.214
 1782TIP3    H1 5310   6.147   3.865   1.234
 1782TIP3    H2 5311   6.286   3.866   1.294
 1783TIP3   OH2 5312   2.289   1.810   4.869
 1783TIP3    H1 5313   2.337   1.747   4.923
 1783TIP3    H2 5314   2.204   1.769   4.855
 1784TIP3   OH2 5315   5.937   3.443   1.155
 1784TIP3    H1 5316   6.020   3.408   1.123
 1784TIP3    H2 5317   5.916   3.389   1.231
 1785TIP3   OH2 5318   4.477   0.239   4.044
 1785TIP3    H1 5319   4.464   0.186   4.123
 1785TIP3    H2 5320   4.525   0.182   3.984
 1786TIP3   OH2 5321   5.867   6.647   0.565
 1786TIP3    H1 5322   5.780   6.671   0.533
 1786TIP3    H2 5323   5.921   6.725   0.551
 1787TIP3   OH2 5324   0.331   3.165   5.208
 1787TIP3    H1 5325   0.331   3.085   5.261
 1787TIP3    H2 5326   0.350   3.235   5.271
 1788TIP3   OH2 5327   6.236   4.175   3.263
 1788TIP3    H1 5328   6.180   4.140   3.193
 1788TIP3    H2 5329   6.305   4.222   3.216
 1789TIP3   OH2 5330   5.135   5.855   2.066
 1789TIP3    H1 5331   5.221   5.889   2.040
 1789TIP3    H2 5332   5.092   5.929   2.109
 1790TIP3   OH2 5333   5.703   5.212   3.728
 1790TIP3    H1 5334   5.705   5.118   3.747
 1790TIP3    H2 5335   5.699   5.253   3.814
 1791TIP3   OH2 5336   1.837   5.663   3.340
 1791TIP3    H1 5337   1.762   5.698   3.388
 1791TIP3    H2 5338   1.898   5.736   3.334
 1792TIP3   OH2 5339   6.045   5.071   4.456
 1792TIP3    H1 5340   5.972   5.050   4.399
 1792TIP3    H2 5341   6.113   5.008   4.432
 1793TIP3   OH2 5342   5.972   4.791   5.192
 1793TIP3    H1 5343   6.056   4.796   5.236
 1793TIP3    H2 5344   5.936   4.706   5.218
 1794TIP3   OH2 5345   7.188   0.442   0.334
 1794TIP3    H1 5346   7.239   0.499   0.392
 1794TIP3    H2 5347   7.244   0.430   0.258
 1795TIP3   OH2 5348   3.675   0.997   2.313
 1795TIP3    H1 5349   3.703   1.040   2.232
 1795TIP3    H2 5350   3.676   0.904   2.292
 1796TIP3   OH2 5351   5.615   2.299   2.984
 1796TIP3    H1 5352   5.536   2.255   3.015
 1796TIP3    H2 5353   5.650   2.241   2.917
 1797TIP3   OH2 5354   5.145   6.566   2.138
 1797TIP3    H1 5355   5.082   6.633   2.164
 1797TIP3    H2 5356   5.227   6.615   2.122
 1798TIP3   OH2 5357   4.245   1.576   0.971
 1798TIP3    H1 5358   4.249   1.588   0.876
 1798TIP3    H2 5359   4.189   1.500   0.984
 1799TIP3   OH2 5360   4.439   1.986   4.768
 1799TIP3    H1 5361   4.412   2.072   4.735
 1799TIP3    H2 5362   4.424   1.991   4.862
 1800TIP3   OH2 5363   5.175   1.710   3.352
 1800TIP3    H1 5364   5.202   1.764   3.426
 1800TIP3    H2 5365   5.235   1.635   3.354
 1801TIP3   OH2 5366   3.593   4.090   4.812
 1801TIP3    H1 5367   3.590   3.998   4.789
 1801TIP3    H2 5368   3.506   4.108   4.848
 1802TIP3   OH2 5369   2.117   1.835   5.182
 1802TIP3    H1 5370   2.065   1.782   5.121
 1802TIP3    H2 5371   2.175   1.773   5.226
 1803TIP3   OH2 5372   2.765   5.079   2.083
 1803TIP3    H1 5373   2.739   5.011   2.146
 1803TIP3    H2 5374   2.861   5.082   2.089
 1804TIP3   OH2 5375   1.058   5.535   5.705
 1804TIP3    H1 5376   1.099   5.566   5.785
 1804TIP3    H2 5377   1.050   5.613   5.650
 1805TIP3   OH2 5378   5.052   5.091   0.542
 1805TIP3    H1 5379   5.028   5.102   0.635
 1805TIP3    H2 5380   5.146   5.076   0.543
 1806TIP3   OH2 5381   1.349   6.128   2.022
 1806TIP3    H1 5382   1.321   6.097   1.936
 1806TIP3    H2 5383   1.391   6.053   2.063
 1807TIP3   OH2 5384   1.096   5.789   0.452
 1807TIP3    H1 5385   1.062   5.729   0.519
 1807TIP3    H2 5386   1.071   5.747   0.369
 1808TIP3   OH2 5387   5.576   5.690   4.608
 1808TIP3    H1 5388   5.660   5.718   4.571
 1808TIP3    H2 5389   5.512   5.716   4.542
 1809TIP3   OH2 5390   6.572   4.697   1.772
 1809TIP3    H1 5391   6.597   4.789   1.783
 1809TIP3    H2 5392   6.652   4.648   1.791
 1810TIP3   OH2 5393   1.418   3.084   5.224
 1810TIP3    H1 5394   1.483   3.071   5.155
 1810TIP3    H2 5395   1.460   3.053   5.304
 1811TIP3   OH2 5396   6.078   1.198   0.168
 1811TIP3    H1 5397   6.034   1.264   0.220
 1811TIP3    H2 5398   6.059   1.221   0.077
 1812TIP3   OH2 5399   6.512   6.583   3.362
 1812TIP3    H1 5400   6.492   6.580   3.268
 1812TIP3    H2 5401   6.604   6.609   3.366
 1813TIP3   OH2 5402   5.365   6.266   3.292
 1813TIP3    H1 5403   5.309   6.222   3.356
 1813TIP3    H2 5404   5.454   6.253   3.326
 1814TIP3   OH2 5405   1.279   4.764   3.477
 1814TIP3    H1 5406   1.350   4.824   3.501
 1814TIP3    H2 5407   1.254   4.723   3.560
 1815TIP3   OH2 5408   6.760   3.200   5.779
 1815TIP3    H1 5409   6.811   3.122   5.801
 1815TIP3    H2 5410   6.825   3.264   5.749
 1816TIP3   OH2 5411   1.003   4.267   2.754
 1816TIP3    H1 5412   1.027   4.204   2.687
 1816TIP3    H2 5413   0.937   4.223   2.807
 1817TIP3   OH2 5414   4.848   5.312   4.808
 1817TIP3    H1 5415   4.788   5.245   4.775
 1817TIP3    H2 5416   4.846   5.380   4.741
 1818TIP3   OH2 5417   6.211   5.599   0.794
 1818TIP3    H1 5418   6.211   5.642   0.879
 1818TIP3    H2 5419   6.302   5.602   0.765
 1819TIP3   OH2 5420   3.036   0.480   0.683
 1819TIP3    H1 5421   3.008   0.570   0.665
 1819TIP3    H2 5422   2.968   0.426   0.642
 1820TIP3   OH2 5423   6.860   2.560   3.712
 1820TIP3    H1 5424   6.793   2.614   3.755
 1820TIP3    H2 5425   6.865   2.482   3.767
 1821TIP3   OH2 5426   0.691   1.395   1.375
 1821TIP3    H1 5427   0.727   1.462   1.435
 1821TIP3    H2 5428   0.598   1.392   1.396
 1822TIP3   OH2 5429   5.750   0.610   2.883
 1822TIP3    H1 5430   5.693   0.682   2.910
 1822TIP3    H2 5431   5.820   0.609   2.948
 1823TIP3   OH2 5432   3.704   5.638   2.608
 1823TIP3    H1 5433   3.689   5.597   2.693
 1823TIP3    H2 5434   3.730   5.565   2.551
 1824TIP3   OH2 5435   1.601   3.537   2.385
 1824TIP3    H1 5436   1.674   3.494   2.429
 1824TIP3    H2 5437   1.639   3.575   2.306
 1825TIP3   OH2 5438   2.753   5.637   4.980
 1825TIP3    H1 5439   2.658   5.643   4.967
 1825TIP3    H2 5440   2.784   5.727   4.973
 1826TIP3   OH2 5441   5.168   4.659   4.910
 1826TIP3    H1 5442   5.108   4.626   4.844
 1826TIP3    H2 5443   5.247   4.605   4.900
 1827TIP3   OH2 5444   4.272   1.375   2.293
 1827TIP3    H1 5445   4.197   1.336   2.338
 1827TIP3    H2 5446   4.260   1.351   2.201
 1828TIP3   OH2 5447   1.403   1.151   4.249
 1828TIP3    H1 5448   1.466   1.223   4.256
 1828TIP3    H2 5449   1.318   1.191   4.266
 1829TIP3   OH2 5450   0.898   3.062   2.482
 1829TIP3    H1 5451   0.958   3.090   2.552
 1829TIP3    H2 5452   0.846   2.992   2.522
 1830TIP3   OH2 5453   4.931   6.468   0.708
 1830TIP3    H1 5454   4.920   6.563   0.695
 1830TIP3    H2 5455   4.841   6.435   0.716
 1831TIP3   OH2 5456   4.981   5.421   2.836
 1831TIP3    H1 5457   5.022   5.398   2.752
 1831TIP3    H2 5458   5.038   5.488   2.873
 1832TIP3   OH2 5459   1.989   4.908   1.223
 1832TIP3    H1 5460   2.015   4.963   1.297
 1832TIP3    H2 5461   1.927   4.961   1.174
 1833TIP3   OH2 5462   3.399   3.133   5.886
 1833TIP3    H1 5463   3.399   3.206   5.947
 1833TIP3    H2 5464   3.307   3.108   5.877
 1834TIP3   OH2 5465   2.070   1.620   4.353
 1834TIP3    H1 5466   2.105   1.655   4.271
 1834TIP3    H2 5467   2.093   1.527   4.351
 1835TIP3   OH2 5468   7.146   0.211   1.325
 1835TIP3    H1 5469   7.068   0.162   1.349
 1835TIP3    H2 5470   7.186   0.161   1.254
 1836TIP3   OH2 5471   6.398   0.197   5.727
 1836TIP3    H1 5472   6.304   0.211   5.714
 1836TIP3    H2 5473   6.431   0.174   5.640
 1837TIP3   OH2 5474   5.866   0.431   2.705
 1837TIP3    H1 5475   5.959   0.413   2.721
 1837TIP3    H2 5476   5.839   0.488   2.777
 1838TIP3   OH2 5477   0.230   2.875   3.808
 1838TIP3    H1 5478   0.278   2.957   3.825
 1838TIP3    H2 5479   0.283   2.829   3.743
 1839TIP3   OH2 5480   2.980   5.032   5.236
 1839TIP3    H1 5481   3.003   5.098   5.301
 1839TIP3    H2 5482   2.886   5.020   5.246
 1840TIP3   OH2 5483   1.371   5.430   2.063
 1840TIP3    H1 5484   1.338   5.403   2.149
 1840TIP3    H2 5485   1.429   5.358   2.037
 1841TIP3   OH2 5486   5.736   4.129   4.371
 1841TIP3    H1 5487   5.707   4.044   4.338
 1841TIP3    H2 5488   5.683   4.144   4.449
 1842TIP3   OH2 5489   2.855   0.614   4.928
 1842TIP3    H1 5490   2.911   0.594   4.852
 1842TIP3    H2 5491   2.916   0.617   5.002
 1843TIP3   OH2 5492   1.601   5.060   4.172
 1843TIP3    H1 5493   1.532   4.998   4.147
 1843TIP3    H2 5494   1.677   5.035   4.119
 1844TIP3   OH2 5495   1.376   6.061   5.934
 1844TIP3    H1 5496   1.368   6.133   5.996
 1844TIP3    H2 5497   1.316   6.083   5.863
 1845TIP3   OH2 5498   6.519   4.519   2.616
 1845TIP3    H1 5499   6.486   4.601   2.579
 1845TIP3    H2 5500   6.583   4.489   2.551
 1846TIP3   OH2 5501   4.687   0.654   2.361
 1846TIP3    H1 5502   4.705   0.737   2.318
 1846TIP3    H2 5503   4.607   0.622   2.320
 1847TIP3   OH2 5504   5.260   1.705   5.112
 1847TIP3    H1 5505   5.167   1.725   5.115
 1847TIP3    H2 5506   5.265   1.615   5.078
 1848TIP3   OH2 5507   5.007   2.618   0.522
 1848TIP3    H1 5508   4.991   2.533   0.564
 1848TIP3    H2 5509   5.051   2.669   0.590
 1849TIP3   OH2 5510   3.186   3.688   3.381
 1849TIP3    H1 5511   3.244   3.637   3.324
 1849TIP3    H2 5512   3.100   3.681   3.340
 1850TIP3   OH2 5513   4.101   1.814   2.518
 1850TIP3    H1 5514   4.194   1.809   2.497
 1850TIP3    H2 5515   4.097   1.864   2.599
 1851TIP3   OH2 5516   2.673   4.143   2.233
 1851TIP3    H1 5517   2.726   4.110   2.306
 1851TIP3    H2 5518   2.583   4.123   2.258
 1852TIP3   OH2 5519   3.406   0.801   5.284
 1852TIP3    H1 5520   3.442   0.840   5.204
 1852TIP3    H2 5521   3.432   0.861   5.354
 1853TIP3   OH2 5522   1.948   5.746   5.303
 1853TIP3    H1 5523   2.014   5.813   5.283
 1853TIP3    H2 5524   1.967   5.721   5.393
 1854TIP3   OH2 5525   3.360   6.698   1.228
 1854TIP3    H1 5526   3.362   6.787   1.263
 1854TIP3    H2 5527   3.423   6.700   1.155
 1855TIP3   OH2 5528   2.731   5.015   5.705
 1855TIP3    H1 5529   2.683   4.992   5.784
 1855TIP3    H2 5530   2.692   4.962   5.636
 1856TIP3   OH2 5531   7.136   4.048   0.445
 1856TIP3    H1 5532   7.108   4.111   0.511
 1856TIP3    H2 5533   7.199   4.096   0.391
 1857TIP3   OH2 5534   5.303   6.463   5.111
 1857TIP3    H1 5535   5.276   6.507   5.030
 1857TIP3    H2 5536   5.307   6.370   5.087
 1858TIP3   OH2 5537   2.814   5.264   0.803
 1858TIP3    H1 5538   2.732   5.214   0.804
 1858TIP3    H2 5539   2.794   5.343   0.853
 1859TIP3   OH2 5540   2.034   4.981   0.646
 1859TIP3    H1 5541   2.072   4.898   0.617
 1859TIP3    H2 5542   1.983   4.958   0.723
 1860TIP3   OH2 5543   2.953   2.324   5.573
 1860TIP3    H1 5544   2.928   2.415   5.587
 1860TIP3    H2 5545   2.872   2.275   5.585
 1861TIP3   OH2 5546   0.265   4.438   0.354
 1861TIP3    H1 5547   0.272   4.519   0.404
 1861TIP3    H2 5548   0.255   4.370   0.421
 1862TIP3   OH2 5549   6.430   4.045   1.027
 1862TIP3    H1 5550   6.417   3.951   1.034
 1862TIP3    H2 5551   6.377   4.071   0.952
 1863TIP3   OH2 5552   1.450   5.855   2.401
 1863TIP3    H1 5553   1.395   5.933   2.396
 1863TIP3    H2 5554   1.437   5.812   2.316
 1864TIP3   OH2 5555   1.996   3.946   3.300
 1864TIP3    H1 5556   2.088   3.922   3.306
 1864TIP3    H2 5557   1.981   4.005   3.374
 1865TIP3   OH2 5558   5.181   5.256   1.046
 1865TIP3    H1 5559   5.153   5.310   0.972
 1865TIP3    H2 5560   5.277   5.257   1.042
 1866TIP3   OH2 5561   0.144   3.293   5.875
 1866TIP3    H1 5562   0.154   3.201   5.899
 1866TIP3    H2 5563   0.175   3.342   5.952
 1867TIP3   OH2 5564   6.817   4.249   2.326
 1867TIP3    H1 5565   6.773   4.328   2.357
 1867TIP3    H2 5566   6.759   4.177   2.351
 1868TIP3   OH2 5567   2.916   3.022   5.608
 1868TIP3    H1 5568   2.997   3.067   5.632
 1868TIP3    H2 5569   2.914   2.943   5.663
 1869TIP3   OH2 5570   3.718   1.161   3.631
 1869TIP3    H1 5571   3.692   1.237   3.579
 1869TIP3    H2 5572   3.637   1.113   3.646
 1870TIP3   OH2 5573   3.003   1.748   0.833
 1870TIP3    H1 5574   3.020   1.829   0.785
 1870TIP3    H2 5575   3.048   1.681   0.783
 1871TIP3   OH2 5576   1.972   2.321   2.602
 1871TIP3    H1 5577   1.968   2.236   2.645
 1871TIP3    H2 5578   2.043   2.368   2.647
 1872TIP3   OH2 5579   2.126   3.908   2.724
 1872TIP3    H1 5580   2.105   3.816   2.709
 1872TIP3    H2 5581   2.220   3.914   2.711
 1873TIP3   OH2 5582   6.279   3.919   3.070
 1873TIP3    H1 5583   6.288   3.840   3.016
 1873TIP3    H2 5584   6.257   3.988   3.008
 1874TIP3   OH2 5585   1.267   1.586   3.017
 1874TIP3    H1 5586   1.197   1.613   2.958
 1874TIP3    H2 5587   1.326   1.535   2.962
 1875TIP3   OH2 5588   0.513   0.229   5.466
 1875TIP3    H1 5589   0.584   0.261   5.411
 1875TIP3    H2 5590   0.540   0.140   5.491
 1876TIP3   OH2 5591   7.117   3.096   4.127
 1876TIP3    H1 5592   7.185   3.114   4.062
 1876TIP3    H2 5593   7.093   3.182   4.162
 1877TIP3   OH2 5594   5.456   0.725   4.154
 1877TIP3    H1 5595   5.362   0.705   4.150
 1877TIP3    H2 5596   5.498   0.645   4.122
 1878TIP3   OH2 5597   5.493  -0.005   2.130
 1878TIP3    H1 5598   5.575   0.043   2.140
 1878TIP3    H2 5599   5.458  -0.011   2.219
 1879TIP3   OH2 5600   2.043   3.175   4.569
 1879TIP3    H1 5601   2.038   3.256   4.518
 1879TIP3    H2 5602   2.024   3.105   4.506
 1880TIP3   OH2 5603   0.539   3.115   3.609
 1880TIP3    H1 5604   0.616   3.069   3.578
 1880TIP3    H2 5605   0.567   3.206   3.617
 1881TIP3   OH2 5606   2.676   6.584   4.660
 1881TIP3    H1 5607   2.716   6.502   4.688
 1881TIP3    H2 5608   2.636   6.619   4.740
 1882TIP3   OH2 5609   5.991   0.664   3.408
 1882TIP3    H1 5610   5.935   0.742   3.406
 1882TIP3    H2 5611   6.053   0.682   3.479
 1883TIP3   OH2 5612   4.451   3.701   1.310
 1883TIP3    H1 5613   4.457   3.780   1.256
 1883TIP3    H2 5614   4.423   3.733   1.396
 1884TIP3   OH2 5615   5.501   6.433   0.063
 1884TIP3    H1 5616   5.411   6.445   0.095
 1884TIP3    H2 5617   5.507   6.340   0.046
 1885TIP3   OH2 5618   2.240   4.914   4.229
 1885TIP3    H1 5619   2.256   4.980   4.296
 1885TIP3    H2 5620   2.326   4.896   4.192
 1886TIP3   OH2 5621   5.963   4.497   3.755
 1886TIP3    H1 5622   6.048   4.477   3.794
 1886TIP3    H2 5623   5.899   4.473   3.823
 1887TIP3   OH2 5624   5.018   1.523   0.636
 1887TIP3    H1 5625   5.056   1.547   0.721
 1887TIP3    H2 5626   4.983   1.605   0.602
 1888TIP3   OH2 5627   3.252   3.237   4.268
 1888TIP3    H1 5628   3.225   3.148   4.289
 1888TIP3    H2 5629   3.329   3.252   4.323
 1889TIP3   OH2 5630   5.541   2.106   3.583
 1889TIP3    H1 5631   5.579   2.019   3.575
 1889TIP3    H2 5632   5.596   2.161   3.526
 1890TIP3   OH2 5633   4.318   5.903   2.504
 1890TIP3    H1 5634   4.384   5.843   2.469
 1890TIP3    H2 5635   4.335   5.905   2.598
 1891TIP3   OH2 5636   2.905   6.474   0.883
 1891TIP3    H1 5637   2.862   6.442   0.804
 1891TIP3    H2 5638   2.870   6.419   0.954
 1892TIP3   OH2 5639   5.616   5.533   5.361
 1892TIP3    H1 5640   5.587   5.608   5.310
 1892TIP3    H2 5641   5.606   5.560   5.452
 1893TIP3   OH2 5642   3.495   0.433   1.236
 1893TIP3    H1 5643   3.582   0.464   1.259
 1893TIP3    H2 5644   3.508   0.384   1.154
 1894TIP3   OH2 5645   0.133   2.815   1.604
 1894TIP3    H1 5646   0.069   2.844   1.539
 1894TIP3    H2 5647   0.209   2.871   1.590
 1895TIP3   OH2 5648   0.911   3.344   3.897
 1895TIP3    H1 5649   0.875   3.367   3.812
 1895TIP3    H2 5650   1.003   3.325   3.880
 1896TIP3   OH2 5651   3.430   5.755   1.312
 1896TIP3    H1 5652   3.395   5.829   1.263
 1896TIP3    H2 5653   3.500   5.719   1.256
 1897TIP3   OH2 5654   5.771   4.158   4.899
 1897TIP3    H1 5655   5.821   4.164   4.980
 1897TIP3    H2 5656   5.690   4.205   4.916
 1898TIP3   OH2 5657   1.753   6.133   5.806
 1898TIP3    H1 5658   1.841   6.155   5.775
 1898TIP3    H2 5659   1.696   6.198   5.765
 1899TIP3   OH2 5660   5.173   1.218   4.992
 1899TIP3    H1 5661   5.081   1.232   5.014
 1899TIP3    H2 5662   5.175   1.130   4.953
 1900TIP3   OH2 5663   5.367   4.956   5.771
 1900TIP3    H1 5664   5.435   4.890   5.785
 1900TIP3    H2 5665   5.388   4.995   5.686
 1901TIP3   OH2 5666   2.462   2.649   3.717
 1901TIP3    H1 5667   2.373   2.619   3.700
 1901TIP3    H2 5668   2.452   2.743   3.734
 1902TIP3   OH2 5669   3.753   1.056   0.957
 1902TIP3    H1 5670   3.819   0.989   0.978
 1902TIP3    H2 5671   3.716   1.080   1.042
 1903TIP3   OH2 5672   1.124   1.692   1.441
 1903TIP3    H1 5673   1.157   1.603   1.448
 1903TIP3    H2 5674   1.073   1.693   1.360
 1904TIP3   OH2 5675   7.028   5.380   0.327
 1904TIP3    H1 5676   6.956   5.422   0.374
 1904TIP3    H2 5677   7.103   5.389   0.386
 1905TIP3   OH2 5678   5.315   4.581   3.514
 1905TIP3    H1 5679   5.292   4.641   3.584
 1905TIP3    H2 5680   5.381   4.628   3.463
 1906TIP3   OH2 5681   1.211   3.014   1.076
 1906TIP3    H1 5682   1.224   2.988   0.985
 1906TIP3    H2 5683   1.272   3.087   1.090
 1907TIP3   OH2 5684   6.195   1.383   3.480
 1907TIP3    H1 5685   6.260   1.453   3.482
 1907TIP3    H2 5686   6.247   1.303   3.482
 1908TIP3   OH2 5687   6.657   2.499   2.568
 1908TIP3    H1 5688   6.713   2.429   2.603
 1908TIP3    H2 5689   6.593   2.453   2.513
 1909TIP3   OH2 5690   6.413   5.991   3.157
 1909TIP3    H1 5691   6.346   6.042   3.202
 1909TIP3    H2 5692   6.371   5.962   3.076
 1910TIP3   OH2 5693   1.344   6.809   1.872
 1910TIP3    H1 5694   1.333   6.876   1.805
 1910TIP3    H2 5695   1.267   6.753   1.863
 1911TIP3   OH2 5696   6.076   1.221   3.193
 1911TIP3    H1 5697   5.985   1.240   3.215
 1911TIP3    H2 5698   6.091   1.132   3.225
 1912TIP3   OH2 5699   7.142   5.154   5.583
 1912TIP3    H1 5700   7.127   5.064   5.553
 1912TIP3    H2 5701   7.060   5.199   5.567
 1913TIP3   OH2 5702   5.018   3.994   5.197
 1913TIP3    H1 5703   4.952   4.062   5.185
 1913TIP3    H2 5704   5.051   4.008   5.286
 1914TIP3   OH2 5705   4.986   3.839   0.248
 1914TIP3    H1 5706   4.940   3.879   0.174
 1914TIP3    H2 5707   4.933   3.863   0.324
 1915TIP3   OH2 5708   6.554   2.405   4.055
 1915TIP3    H1 5709   6.527   2.315   4.067
 1915TIP3    H2 5710   6.627   2.400   3.993
 1916TIP3   OH2 5711   1.921   5.362   1.987
 1916TIP3    H1 5712   1.907   5.279   1.941
 1916TIP3    H2 5713   1.887   5.347   2.075
 1917TIP3   OH2 5714   2.180   4.469   2.172
 1917TIP3    H1 5715   2.140   4.545   2.130
 1917TIP3    H2 5716   2.191   4.405   2.101
 1918TIP3   OH2 5717   5.030   2.879   3.512
 1918TIP3    H1 5718   4.975   2.886   3.435
 1918TIP3    H2 5719   5.099   2.817   3.488
 1919TIP3   OH2 5720   1.470   3.573   1.930
 1919TIP3    H1 5721   1.497   3.517   1.857
 1919TIP3    H2 5722   1.394   3.528   1.968
 1920TIP3   OH2 5723   1.488   2.987   2.955
 1920TIP3    H1 5724   1.541   2.987   2.875
 1920TIP3    H2 5725   1.413   3.044   2.934
 1921TIP3   OH2 5726   1.803   0.965   5.627
 1921TIP3    H1 5727   1.779   1.058   5.629
 1921TIP3    H2 5728   1.779   0.932   5.713
 1922TIP3   OH2 5729   2.010   4.634  -0.020
 1922TIP3    H1 5730   2.089   4.615   0.031
 1922TIP3    H2 5731   2.009   4.729  -0.027
 1923TIP3   OH2 5732   6.899   4.563   3.936
 1923TIP3    H1 5733   6.829   4.504   3.907
 1923TIP3    H2 5734   6.870   4.595   4.021
 1924TIP3   OH2 5735   6.270   1.665   0.836
 1924TIP3    H1 5736   6.239   1.605   0.769
 1924TIP3    H2 5737   6.272   1.751   0.793
 1925TIP3   OH2 5738   2.560   0.909   3.736
 1925TIP3    H1 5739   2.643   0.872   3.705
 1925TIP3    H2 5740   2.524   0.841   3.793
 1926TIP3   OH2 5741   6.383   5.658   2.940
 1926TIP3    H1 5742   6.327   5.689   3.011
 1926TIP3    H2 5743   6.326   5.604   2.886
 1927TIP3   OH2 5744   3.971   6.632   3.071
 1927TIP3    H1 5745   3.908   6.613   3.002
 1927TIP3    H2 5746   3.954   6.724   3.093
 1928TIP3   OH2 5747   2.603   6.708   3.175
 1928TIP3    H1 5748   2.535   6.651   3.138
 1928TIP3    H2 5749   2.652   6.651   3.234
 1929TIP3   OH2 5750   0.492   5.775   0.662
 1929TIP3    H1 5751   0.475   5.857   0.617
 1929TIP3    H2 5752   0.571   5.791   0.713
 1930TIP3   OH2 5753   4.104   3.192   4.293
 1930TIP3    H1 5754   4.046   3.126   4.255
 1930TIP3    H2 5755   4.188   3.178   4.250
 1931TIP3   OH2 5756   5.962   2.917   2.406
 1931TIP3    H1 5757   6.024   2.931   2.477
 1931TIP3    H2 5758   5.900   2.852   2.440
 1932TIP3   OH2 5759   5.177   4.974   1.656
 1932TIP3    H1 5760   5.227   4.962   1.736
 1932TIP3    H2 5761   5.100   5.024   1.682
 1933TIP3   OH2 5762   1.304   5.040   3.152
 1933TIP3    H1 5763   1.305   5.017   3.059
 1933TIP3    H2 5764   1.317   5.135   3.154
 1934TIP3   OH2 5765   3.680   3.126   0.927
 1934TIP3    H1 5766   3.588   3.146   0.942
 1934TIP3    H2 5767   3.725   3.166   1.002
 1935TIP3   OH2 5768   6.306   5.600   2.341
 1935TIP3    H1 5769   6.378   5.657   2.315
 1935TIP3    H2 5770   6.350   5.524   2.380
 1936TIP3   OH2 5771   6.728   6.152   2.471
 1936TIP3    H1 5772   6.656   6.190   2.521
 1936TIP3    H2 5773   6.788   6.118   2.537
 1937TIP3   OH2 5774   1.237   5.980   3.700
 1937TIP3    H1 5775   1.310   6.037   3.724
 1937TIP3    H2 5776   1.277   5.912   3.645
 1938TIP3   OH2 5777   3.721   6.563   1.152
 1938TIP3    H1 5778   3.663   6.624   1.106
 1938TIP3    H2 5779   3.688   6.563   1.242
 1939TIP3   OH2 5780   5.530   6.651   3.067
 1939TIP3    H1 5781   5.560   6.675   3.154
 1939TIP3    H2 5782   5.567   6.564   3.052
 1940TIP3   OH2 5783   5.551   3.993   2.363
 1940TIP3    H1 5784   5.498   3.961   2.291
 1940TIP3    H2 5785   5.627   3.935   2.364
 1941TIP3   OH2 5786   2.349   5.352   3.048
 1941TIP3    H1 5787   2.425   5.311   3.088
 1941TIP3    H2 5788   2.283   5.283   3.042
 1942TIP3   OH2 5789   1.402   3.393   5.589
 1942TIP3    H1 5790   1.426   3.319   5.644
 1942TIP3    H2 5791   1.320   3.426   5.627
 1943TIP3   OH2 5792   2.600   4.312   2.580
 1943TIP3    H1 5793   2.676   4.258   2.559
 1943TIP3    H2 5794   2.555   4.264   2.649
 1944TIP3   OH2 5795   1.448   3.811   0.294
 1944TIP3    H1 5796   1.375   3.852   0.340
 1944TIP3    H2 5797   1.421   3.810   0.202
 1945TIP3   OH2 5798   0.468   4.221   1.464
 1945TIP3    H1 5799   0.550   4.202   1.511
 1945TIP3    H2 5800   0.496   4.253   1.379
 1946TIP3   OH2 5801  -0.019   4.971   0.860
 1946TIP3    H1 5802  -0.022   5.026   0.939
 1946TIP3    H2 5803  -0.047   4.885   0.889
 1947TIP3   OH2 5804   1.325   1.154   3.246
 1947TIP3    H1 5805   1.381   1.230   3.230
 1947TIP3    H2 5806   1.236   1.188   3.238
 1948TIP3   OH2 5807   4.560   5.683   4.454
 1948TIP3    H1 5808   4.538   5.590   4.458
 1948TIP3    H2 5809   4.652   5.684   4.429
 1949TIP3   OH2 5810   3.627   2.012   1.807
 1949TIP3    H1 5811   3.636   1.928   1.853
 1949TIP3    H2 5812   3.579   2.067   1.869
 1950TIP3   OH2 5813   7.031   0.303   3.187
 1950TIP3    H1 5814   6.993   0.361   3.121
 1950TIP3    H2 5815   6.962   0.239   3.204
 1951TIP3   OH2 5816   3.744   4.506   4.263
 1951TIP3    H1 5817   3.650   4.498   4.250
 1951TIP3    H2 5818   3.754   4.565   4.338
 1952TIP3   OH2 5819   5.905   2.270   2.756
 1952TIP3    H1 5820   5.888   2.203   2.691
 1952TIP3    H2 5821   5.927   2.221   2.836
 1953TIP3   OH2 5822   4.838   3.675   1.176
 1953TIP3    H1 5823   4.846   3.597   1.119
 1953TIP3    H2 5824   4.842   3.749   1.115
 1954TIP3   OH2 5825   6.955   3.933   4.458
 1954TIP3    H1 5826   7.032   3.985   4.482
 1954TIP3    H2 5827   6.990   3.847   4.436
 1955TIP3   OH2 5828   0.172   2.934   2.758
 1955TIP3    H1 5829   0.092   2.929   2.707
 1955TIP3    H2 5830   0.236   2.884   2.708
 1956TIP3   OH2 5831   4.024   2.619   1.856
 1956TIP3    H1 5832   3.987   2.654   1.776
 1956TIP3    H2 5833   4.021   2.524   1.845
 1957TIP3   OH2 5834   4.911   4.114   1.595
 1957TIP3    H1 5835   4.829   4.160   1.611
 1957TIP3    H2 5836   4.974   4.183   1.576
 1958TIP3   OH2 5837   3.816   0.040   0.695
 1958TIP3    H1 5838   3.837   0.093   0.618
 1958TIP3    H2 5839   3.901   0.017   0.731
 1959TIP3   OH2 5840   4.945   5.051   2.882
 1959TIP3    H1 5841   4.920   5.009   2.964
 1959TIP3    H2 5842   4.875   5.029   2.821
 1960TIP3   OH2 5843   2.448   5.413   4.249
 1960TIP3    H1 5844   2.466   5.497   4.291
 1960TIP3    H2 5845   2.531   5.388   4.209
 1961TIP3   OH2 5846   4.220   1.118   2.698
 1961TIP3    H1 5847   4.312   1.137   2.712
 1961TIP3    H2 5848   4.188   1.189   2.642
 1962TIP3   OH2 5849   6.513   5.341   0.818
 1962TIP3    H1 5850   6.468   5.376   0.741
 1962TIP3    H2 5851   6.470   5.256   0.834
 1963TIP3   OH2 5852   0.028   3.540   5.790
 1963TIP3    H1 5853  -0.051   3.519   5.741
 1963TIP3    H2 5854   0.059   3.456   5.823
 1964TIP3   OH2 5855   1.042   6.409   2.974
 1964TIP3    H1 5856   1.087   6.472   3.030
 1964TIP3    H2 5857   1.055   6.325   3.018
 1965TIP3   OH2 5858   1.318   3.934   5.049
 1965TIP3    H1 5859   1.372   3.989   5.106
 1965TIP3    H2 5860   1.270   3.996   4.995
 1966TIP3   OH2 5861   2.557   4.535   5.632
 1966TIP3    H1 5862   2.470   4.499   5.650
 1966TIP3    H2 5863   2.541   4.598   5.561
 1967TIP3   OH2 5864   1.158   5.331   4.915
 1967TIP3    H1 5865   1.157   5.420   4.880
 1967TIP3    H2 5866   1.147   5.342   5.009
 1968TIP3   OH2 5867   6.226   5.109   0.523
 1968TIP3    H1 5868   6.303   5.066   0.561
 1968TIP3    H2 5869   6.241   5.203   0.539
 1969TIP3   OH2 5870   1.566   5.078   2.710
 1969TIP3    H1 5871   1.579   5.164   2.751
 1969TIP3    H2 5872   1.562   5.097   2.616
 1970TIP3   OH2 5873   3.644   1.192   4.032
 1970TIP3    H1 5874   3.648   1.229   4.121
 1970TIP3    H2 5875   3.585   1.117   4.040
 1971TIP3   OH2 5876   4.299   3.396   0.210
 1971TIP3    H1 5877   4.321   3.412   0.302
 1971TIP3    H2 5878   4.366   3.443   0.161
 1972TIP3   OH2 5879   5.647   5.601   0.080
 1972TIP3    H1 5880   5.641   5.620  -0.013
 1972TIP3    H2 5881   5.706   5.668   0.115
 1973TIP3   OH2 5882   2.858   1.566   1.590
 1973TIP3    H1 5883   2.840   1.619   1.512
 1973TIP3    H2 5884   2.864   1.630   1.661
 1974TIP3   OH2 5885   0.856   0.162   4.810
 1974TIP3    H1 5886   0.915   0.227   4.771
 1974TIP3    H2 5887   0.898   0.139   4.893
 1975TIP3   OH2 5888   3.700   3.398   3.872
 1975TIP3    H1 5889   3.775   3.365   3.822
 1975TIP3    H2 5890   3.670   3.474   3.822
 1976TIP3   OH2 5891   1.316   1.648   4.633
 1976TIP3    H1 5892   1.322   1.741   4.656
 1976TIP3    H2 5893   1.388   1.607   4.680
 1977TIP3   OH2 5894   2.163   1.116   5.420
 1977TIP3    H1 5895   2.112   1.035   5.425
 1977TIP3    H2 5896   2.205   1.112   5.334
 1978TIP3   OH2 5897   5.147   5.872   5.464
 1978TIP3    H1 5898   5.068   5.819   5.453
 1978TIP3    H2 5899   5.144   5.933   5.390
 1979TIP3   OH2 5900   4.625   6.579   0.003
 1979TIP3    H1 5901   4.689   6.562  -0.066
 1979TIP3    H2 5902   4.675   6.572   0.084
 1980TIP3   OH2 5903   4.049   1.879   1.279
 1980TIP3    H1 5904   3.956   1.902   1.283
 1980TIP3    H2 5905   4.050   1.784   1.289
 1981TIP3   OH2 5906   6.960   5.407   3.464
 1981TIP3    H1 5907   6.983   5.478   3.404
 1981TIP3    H2 5908   7.044   5.371   3.491
 1982TIP3   OH2 5909   2.586   0.032   4.339
 1982TIP3    H1 5910   2.643  -0.009   4.274
 1982TIP3    H2 5911   2.645   0.058   4.410
 1983TIP3   OH2 5912   3.839   1.494   0.985
 1983TIP3    H1 5913   3.835   1.572   1.041
 1983TIP3    H2 5914   3.826   1.421   1.046
 1984TIP3   OH2 5915   5.657   4.763   2.420
 1984TIP3    H1 5916   5.632   4.710   2.495
 1984TIP3    H2 5917   5.727   4.820   2.452
 1985TIP3   OH2 5918   4.023   1.955   5.277
 1985TIP3    H1 5919   4.102   1.947   5.331
 1985TIP3    H2 5920   4.009   2.050   5.269
 1986TIP3   OH2 5921   2.278   4.534   3.420
 1986TIP3    H1 5922   2.300   4.619   3.381
 1986TIP3    H2 5923   2.224   4.556   3.496
 1987TIP3   OH2 5924   0.595   3.593   4.700
 1987TIP3    H1 5925   0.675   3.621   4.656
 1987TIP3    H2 5926   0.547   3.674   4.716
 1988TIP3   OH2 5927   0.758   4.164   1.328
 1988TIP3    H1 5928   0.740   4.164   1.234
 1988TIP3    H2 5929   0.831   4.102   1.338
 1989TIP3   OH2 5930   5.372   3.819   3.545
 1989TIP3    H1 5931   5.378   3.887   3.613
 1989TIP3    H2 5932   5.351   3.739   3.593
 1990TIP3   OH2 5933   5.383   2.541   4.379
 1990TIP3    H1 5934   5.341   2.603   4.438
 1990TIP3    H2 5935   5.331   2.461   4.386
 1991TIP3   OH2 5936   4.485   4.682   3.341
 1991TIP3    H1 5937   4.550   4.655   3.277
 1991TIP3    H2 5938   4.422   4.735   3.290
 1992TIP3   OH2 5939   6.449   1.846   1.758
 1992TIP3    H1 5940   6.393   1.770   1.745
 1992TIP3    H2 5941   6.431   1.901   1.682
 1993TIP3   OH2 5942   0.333   3.630   0.411
 1993TIP3    H1 5943   0.392   3.584   0.351
 1993TIP3    H2 5944   0.249   3.633   0.364
 1994TIP3   OH2 5945   6.223   6.037   3.881
 1994TIP3    H1 5946   6.238   6.130   3.864
 1994TIP3    H2 5947   6.270   6.021   3.963
 1995TIP3   OH2 5948   5.768   0.345   0.430
 1995TIP3    H1 5949   5.835   0.280   0.411
 1995TIP3    H2 5950   5.811   0.408   0.488
 1996TIP3   OH2 5951   6.978   4.942   3.913
 1996TIP3    H1 5952   7.025   4.969   3.834
 1996TIP3    H2 5953   6.903   4.892   3.881
 1997TIP3   OH2 5954   4.954   4.647   3.324
 1997TIP3    H1 5955   4.988   4.581   3.384
 1997TIP3    H2 5956   4.903   4.706   3.378
 1998TIP3   OH2 5957   3.461   6.679   3.027
 1998TIP3    H1 5958   3.469   6.588   3.055
 1998TIP3    H2 5959   3.487   6.677   2.934
 1999TIP3   OH2 5960   5.459   5.723   3.821
 1999TIP3    H1 5961   5.466   5.699   3.728
 1999TIP3    H2 5962   5.461   5.819   3.822
 2000TIP3   OH2 5963   5.127   1.176   0.711
 2000TIP3    H1 5964   5.071   1.253   0.704
 2000TIP3    H2 5965   5.173   1.186   0.794
 2001TIP3   OH2 5966   0.902   2.032   1.882
 2001TIP3    H1 5967   0.976   2.073   1.836
 2001TIP3    H2 5968   0.824   2.069   1.840
 2002TIP3   OH2 5969   2.309   3.128   2.256
 2002TIP3    H1 5970   2.260   3.207   2.236
 2002TIP3    H2 5971   2.274   3.061   2.197
 2003TIP3   OH2 5972   4.775   6.142   1.365
 2003TIP3    H1 5973   4.827   6.065   1.340
 2003TIP3    H2 5974   4.837   6.215   1.359
 2004TIP3   OH2 5975   0.841   1.083   2.701
 2004TIP3    H1 5976   0.887   1.075   2.618
 2004TIP3    H2 5977   0.892   1.028   2.761
 2005TIP3   OH2 5978   0.752   1.222   3.000
 2005TIP3    H1 5979   0.826   1.200   3.058
 2005TIP3    H2 5980   0.792   1.274   2.930
 2006TIP3   OH2 5981   5.195   6.377   3.099
 2006TIP3    H1 5982   5.196   6.471   3.119
 2006TIP3    H2 5983   5.249   6.337   3.166
 2007TIP3   OH2 5984   5.623   0.767   4.368
 2007TIP3    H1 5985   5.628   0.848   4.419
 2007TIP3    H2 5986   5.583   0.793   4.285
 2008TIP3   OH2 5987   7.108   1.899   4.339
 2008TIP3    H1 5988   7.109   1.960   4.413
 2008TIP3    H2 5989   7.198   1.866   4.335
 2009TIP3   OH2 5990   2.120   2.149   4.805
 2009TIP3    H1 5991   2.072   2.088   4.862
 2009TIP3    H2 5992   2.092   2.236   4.835
 2010TIP3   OH2 5993   1.383   4.082   3.669
 2010TIP3    H1 5994   1.307   4.119   3.713
 2010TIP3    H2 5995   1.357   4.076   3.577
 2011TIP3   OH2 5996   4.811   3.623   5.808
 2011TIP3    H1 5997   4.885   3.563   5.811
 2011TIP3    H2 5998   4.756   3.597   5.881
 2012TIP3   OH2 5999   2.355   1.192   1.040
 2012TIP3    H1 6000   2.348   1.195   0.944
 2012TIP3    H2 6001   2.431   1.245   1.060
 2013TIP3   OH2 6002   1.542   3.905   1.259
 2013TIP3    H1 6003   1.453   3.897   1.291
 2013TIP3    H2 6004   1.539   3.872   1.169
 2014TIP3   OH2 6005   1.928   0.182   1.167
 2014TIP3    H1 6006   1.885   0.096   1.164
 2014TIP3    H2 6007   2.015   0.164   1.200
 2015TIP3   OH2 6008   6.319   1.386   0.230
 2015TIP3    H1 6009   6.262   1.328   0.181
 2015TIP3    H2 6010   6.295   1.371   0.322
 2016TIP3   OH2 6011   2.810   5.816   1.559
 2016TIP3    H1 6012   2.854   5.741   1.600
 2016TIP3    H2 6013   2.717   5.795   1.565
 2017TIP3   OH2 6014   6.687   3.896   4.763
 2017TIP3    H1 6015   6.771   3.938   4.743
 2017TIP3    H2 6016   6.628   3.969   4.781
 2018TIP3   OH2 6017   3.344   3.749   4.737
 2018TIP3    H1 6018   3.290   3.754   4.816
 2018TIP3    H2 6019   3.305   3.677   4.686
 2019TIP3   OH2 6020   4.548   2.816   3.858
 2019TIP3    H1 6021   4.615   2.749   3.844
 2019TIP3    H2 6022   4.585   2.895   3.819
 2020TIP3   OH2 6023   3.078   0.441   2.401
 2020TIP3    H1 6024   3.013   0.379   2.368
 2020TIP3    H2 6025   3.111   0.402   2.481
 2021TIP3   OH2 6026   4.730   1.801   0.803
 2021TIP3    H1 6027   4.734   1.706   0.812
 2021TIP3    H2 6028   4.656   1.817   0.745
 2022TIP3   OH2 6029   6.338   1.776   1.075
 2022TIP3    H1 6030   6.431   1.756   1.071
 2022TIP3    H2 6031   6.298   1.714   1.014
 2023TIP3   OH2 6032   5.943   0.318   3.607
 2023TIP3    H1 6033   5.947   0.232   3.564
 2023TIP3    H2 6034   6.015   0.317   3.670
 2024TIP3   OH2 6035   3.551   6.200   0.124
 2024TIP3    H1 6036   3.548   6.274   0.064
 2024TIP3    H2 6037   3.463   6.195   0.161
 2025TIP3   OH2 6038   3.091   1.290   4.880
 2025TIP3    H1 6039   3.147   1.348   4.930
 2025TIP3    H2 6040   3.023   1.347   4.843
 2026TIP3   OH2 6041   1.872   6.494   4.968
 2026TIP3    H1 6042   1.852   6.578   5.010
 2026TIP3    H2 6043   1.786   6.457   4.946
 2027TIP3   OH2 6044   5.171   1.517   4.464
 2027TIP3    H1 6045   5.246   1.542   4.517
 2027TIP3    H2 6046   5.095   1.534   4.520
 2028TIP3   OH2 6047   4.058   3.701   3.761
 2028TIP3    H1 6048   4.050   3.606   3.769
 2028TIP3    H2 6049   4.073   3.731   3.851
 2029TIP3   OH2 6050   1.368   4.665   0.506
 2029TIP3    H1 6051   1.304   4.616   0.557
 2029TIP3    H2 6052   1.358   4.756   0.536
 2030TIP3   OH2 6053   7.090   2.015   0.599
 2030TIP3    H1 6054   7.062   1.978   0.683
 2030TIP3    H2 6055   7.057   2.105   0.599
 2031TIP3   OH2 6056   6.361   4.571   5.645
 2031TIP3    H1 6057   6.407   4.569   5.561
 2031TIP3    H2 6058   6.386   4.655   5.683
 2032TIP3   OH2 6059   2.768   6.617   4.970
 2032TIP3    H1 6060   2.849   6.571   4.993
 2032TIP3    H2 6061   2.794   6.709   4.964
 2033TIP3   OH2 6062   6.243   4.790   1.263
 2033TIP3    H1 6063   6.291   4.789   1.346
 2033TIP3    H2 6064   6.244   4.698   1.234
 2034TIP3   OH2 6065   3.400   0.627   5.826
 2034TIP3    H1 6066   3.420   0.695   5.762
 2034TIP3    H2 6067   3.397   0.672   5.910
 2035TIP3   OH2 6068   4.494   0.644   5.385
 2035TIP3    H1 6069   4.499   0.724   5.437
 2035TIP3    H2 6070   4.566   0.652   5.323
 2036TIP3   OH2 6071   5.510   6.806   5.138
 2036TIP3    H1 6072   5.584   6.763   5.179
 2036TIP3    H2 6073   5.507   6.770   5.049
 2037TIP3   OH2 6074   2.943   5.300   5.344
 2037TIP3    H1 6075   2.883   5.349   5.289
 2037TIP3    H2 6076   2.891   5.277   5.422
 2038TIP3   OH2 6077   7.146   5.540   1.751
 2038TIP3    H1 6078   7.220   5.601   1.756
 2038TIP3    H2 6079   7.169   5.470   1.811
 2039TIP3   OH2 6080   4.482   0.333   3.101
 2039TIP3    H1 6081   4.536   0.408   3.077
 2039TIP3    H2 6082   4.534   0.285   3.164
 2040TIP3   OH2 6083   0.809   5.283   1.575
 2040TIP3    H1 6084   0.869   5.296   1.501
 2040TIP3    H2 6085   0.841   5.204   1.618
 2041TIP3   OH2 6086   3.322   2.357   4.637
 2041TIP3    H1 6087   3.411   2.386   4.653
 2041TIP3    H2 6088   3.276   2.373   4.720
 2042TIP3   OH2 6089   4.776   5.211   5.666
 2042TIP3    H1 6090   4.821   5.169   5.739
 2042TIP3    H2 6091   4.841   5.213   5.595
 2043TIP3   OH2 6092   0.718   4.988  -0.006
 2043TIP3    H1 6093   0.702   4.993   0.089
 2043TIP3    H2 6094   0.659   4.919  -0.037
 2044TIP3   OH2 6095   6.847   6.065   2.997
 2044TIP3    H1 6096   6.827   6.136   3.058
 2044TIP3    H2 6097   6.793   5.991   3.026
 2045TIP3   OH2 6098   3.263   0.583   1.236
 2045TIP3    H1 6099   3.340   0.527   1.239
 2045TIP3    H2 6100   3.216   0.565   1.318
 2046TIP3   OH2 6101   2.955   2.475   5.246
 2046TIP3    H1 6102   2.897   2.401   5.264
 2046TIP3    H2 6103   2.904   2.531   5.187
 2047TIP3   OH2 6104   7.213   3.489   1.185
 2047TIP3    H1 6105   7.128   3.508   1.225
 2047TIP3    H2 6106   7.277   3.508   1.254
 2048TIP3   OH2 6107   3.259   4.518   1.933
 2048TIP3    H1 6108   3.282   4.466   2.010
 2048TIP3    H2 6109   3.330   4.502   1.871
 2049TIP3   OH2 6110   6.394   6.330   3.178
 2049TIP3    H1 6111   6.389   6.399   3.112
 2049TIP3    H2 6112   6.327   6.267   3.152
 2050TIP3   OH2 6113   0.203   2.649   3.986
 2050TIP3    H1 6114   0.180   2.735   4.023
 2050TIP3    H2 6115   0.186   2.658   3.893
 2051TIP3   OH2 6116   4.545   5.235   4.572
 2051TIP3    H1 6117   4.531   5.189   4.489
 2051TIP3    H2 6118   4.545   5.166   4.638
 2052TIP3   OH2 6119   6.136   3.985   4.441
 2052TIP3    H1 6120   6.066   4.029   4.489
 2052TIP3    H2 6121   6.178   3.928   4.506
 2053TIP3   OH2 6122   6.275   4.558   1.101
 2053TIP3    H1 6123   6.289   4.465   1.087
 2053TIP3    H2 6124   6.240   4.590   1.017
 2054TIP3   OH2 6125   3.813   3.057   1.705
 2054TIP3    H1 6126   3.735   3.106   1.731
 2054TIP3    H2 6127   3.884   3.098   1.754
 2055TIP3   OH2 6128   2.836   6.332   0.647
 2055TIP3    H1 6129   2.918   6.285   0.631
 2055TIP3    H2 6130   2.768   6.266   0.633
 2056TIP3   OH2 6131   4.036   4.550   2.387
 2056TIP3    H1 6132   4.112   4.520   2.437
 2056TIP3    H2 6133   4.067   4.554   2.297
 2057TIP3   OH2 6134   6.158   5.384   1.704
 2057TIP3    H1 6135   6.245   5.393   1.663
 2057TIP3    H2 6136   6.159   5.446   1.777
 2058TIP3   OH2 6137   3.090   6.266   4.995
 2058TIP3    H1 6138   3.083   6.217   4.913
 2058TIP3    H2 6139   3.103   6.199   5.062
 2059TIP3   OH2 6140   7.224   3.031   0.057
 2059TIP3    H1 6141   7.220   3.126   0.048
 2059TIP3    H2 6142   7.245   3.017   0.149
 2060TIP3   OH2 6143   6.479   0.953   3.649
 2060TIP3    H1 6144   6.401   0.898   3.654
 2060TIP3    H2 6145   6.541   0.903   3.596
 2061TIP3   OH2 6146   6.552   2.292   4.922
 2061TIP3    H1 6147   6.491   2.248   4.862
 2061TIP3    H2 6148   6.593   2.360   4.869
 2062TIP3   OH2 6149   0.348   1.228   5.074
 2062TIP3    H1 6150   0.271   1.182   5.105
 2062TIP3    H2 6151   0.398   1.246   5.154
 2063TIP3   OH2 6152   5.634   1.132   0.266
 2063TIP3    H1 6153   5.710   1.074   0.261
 2063TIP3    H2 6154   5.574   1.088   0.328
 2064TIP3   OH2 6155   1.491   0.071   5.837
 2064TIP3    H1 6156   1.496   0.024   5.920
 2064TIP3    H2 6157   1.567   0.041   5.787
 2065TIP3   OH2 6158   6.296   6.151   2.434
 2065TIP3    H1 6159   6.216   6.162   2.485
 2065TIP3    H2 6160   6.361   6.121   2.497
 2066TIP3   OH2 6161   4.828   5.166   3.218
 2066TIP3    H1 6162   4.844   5.079   3.181
 2066TIP3    H2 6163   4.780   5.213   3.149
 2067TIP3   OH2 6164   6.666   2.169   5.735
 2067TIP3    H1 6165   6.587   2.176   5.682
 2067TIP3    H2 6166   6.728   2.229   5.694
 2068TIP3   OH2 6167   2.024   6.554   2.975
 2068TIP3    H1 6168   2.017   6.470   2.929
 2068TIP3    H2 6169   1.961   6.547   3.047
 2069TIP3   OH2 6170   0.923   2.421   4.388
 2069TIP3    H1 6171   0.877   2.341   4.364
 2069TIP3    H2 6172   0.854   2.486   4.401
 2070TIP3   OH2 6173   1.949   1.606   1.686
 2070TIP3    H1 6174   1.930   1.513   1.681
 2070TIP3    H2 6175   1.879   1.648   1.638
 2071TIP3   OH2 6176   6.339   1.441   2.442
 2071TIP3    H1 6177   6.384   1.365   2.405
 2071TIP3    H2 6178   6.325   1.418   2.533
 2072TIP3   OH2 6179   5.292   6.108   3.526
 2072TIP3    H1 6180   5.245   6.147   3.600
 2072TIP3    H2 6181   5.361   6.055   3.567
 2073TIP3   OH2 6182   1.160   1.254   0.439
 2073TIP3    H1 6183   1.104   1.310   0.493
 2073TIP3    H2 6184   1.165   1.172   0.487
 2074TIP3   OH2 6185   0.408   0.910   3.982
 2074TIP3    H1 6186   0.334   0.969   3.977
 2074TIP3    H2 6187   0.478   0.962   4.021
 2075TIP3   OH2 6188   1.691   0.462   0.404
 2075TIP3    H1 6189   1.781   0.466   0.437
 2075TIP3    H2 6190   1.652   0.389   0.453
 2076TIP3   OH2 6191   5.336   2.396   3.983
 2076TIP3    H1 6192   5.354   2.488   4.004
 2076TIP3    H2 6193   5.323   2.396   3.888
 2077TIP3   OH2 6194   6.599   2.078   0.184
 2077TIP3    H1 6195   6.635   2.119   0.105
 2077TIP3    H2 6196   6.567   2.151   0.237
 2078TIP3   OH2 6197   2.611   5.462   4.581
 2078TIP3    H1 6198   2.622   5.368   4.598
 2078TIP3    H2 6199   2.691   5.502   4.615
 2079TIP3   OH2 6200   4.035   5.760   3.241
 2079TIP3    H1 6201   4.030   5.820   3.167
 2079TIP3    H2 6202   3.965   5.789   3.300
 2080TIP3   OH2 6203   4.384   6.643   3.312
 2080TIP3    H1 6204   4.314   6.707   3.329
 2080TIP3    H2 6205   4.388   6.637   3.217
 2081TIP3   OH2 6206   2.660   4.776   2.837
 2081TIP3    H1 6207   2.704   4.854   2.871
 2081TIP3    H2 6208   2.712   4.751   2.760
 2082TIP3   OH2 6209   2.470   4.476   4.827
 2082TIP3    H1 6210   2.479   4.395   4.776
 2082TIP3    H2 6211   2.453   4.447   4.916
 2083TIP3   OH2 6212   6.098   1.220   1.553
 2083TIP3    H1 6213   6.175   1.247   1.602
 2083TIP3    H2 6214   6.025   1.236   1.612
 2084TIP3   OH2 6215   5.233   2.314   5.844
 2084TIP3    H1 6216   5.249   2.231   5.888
 2084TIP3    H2 6217   5.317   2.336   5.803
 2085TIP3   OH2 6218   6.123   5.817   2.250
 2085TIP3    H1 6219   6.167   5.734   2.270
 2085TIP3    H2 6220   6.194   5.877   2.229
 2086TIP3   OH2 6221   2.450   0.910   5.021
 2086TIP3    H1 6222   2.408   0.826   5.001
 2086TIP3    H2 6223   2.522   0.916   4.958
 2087TIP3   OH2 6224   6.156   4.121   0.904
 2087TIP3    H1 6225   6.131   4.213   0.897
 2087TIP3    H2 6226   6.140   4.085   0.816
 2088TIP3   OH2 6227   3.208   2.769   3.187
 2088TIP3    H1 6228   3.280   2.740   3.243
 2088TIP3    H2 6229   3.216   2.865   3.186
 2089TIP3   OH2 6230   5.602   6.743   0.507
 2089TIP3    H1 6231   5.541   6.687   0.457
 2089TIP3    H2 6232   5.609   6.822   0.454
 2090TIP3   OH2 6233   4.430   4.828   0.812
 2090TIP3    H1 6234   4.507   4.854   0.863
 2090TIP3    H2 6235   4.358   4.878   0.850
 2091TIP3   OH2 6236   4.470   5.049   2.749
 2091TIP3    H1 6237   4.390   4.999   2.762
 2091TIP3    H2 6238   4.441   5.137   2.724
 2092TIP3   OH2 6239   4.003   2.107   0.964
 2092TIP3    H1 6240   3.973   2.165   1.034
 2092TIP3    H2 6241   3.936   2.038   0.959
 2093TIP3   OH2 6242   1.968   4.345   1.024
 2093TIP3    H1 6243   1.920   4.383   1.098
 2093TIP3    H2 6244   1.901   4.306   0.969
 2094TIP3   OH2 6245   1.447   4.304   2.601
 2094TIP3    H1 6246   1.452   4.288   2.695
 2094TIP3    H2 6247   1.488   4.228   2.561
 2095TIP3   OH2 6248   5.392   6.690   5.869
 2095TIP3    H1 6249   5.450   6.615   5.854
 2095TIP3    H2 6250   5.305   6.651   5.880
 2096TIP3   OH2 6251   4.728   2.172   0.755
 2096TIP3    H1 6252   4.772   2.244   0.710
 2096TIP3    H2 6253   4.638   2.174   0.723
 2097TIP3   OH2 6254   4.112   6.500   5.042
 2097TIP3    H1 6255   4.098   6.590   5.014
 2097TIP3    H2 6256   4.031   6.455   5.020
 2098TIP3   OH2 6257   1.830   5.365   1.288
 2098TIP3    H1 6258   1.899   5.413   1.242
 2098TIP3    H2 6259   1.770   5.337   1.218
 2099TIP3   OH2 6260   1.388   6.271   0.427
 2099TIP3    H1 6261   1.377   6.270   0.332
 2099TIP3    H2 6262   1.460   6.333   0.442
 2100TIP3   OH2 6263   4.017   0.428   1.189
 2100TIP3    H1 6264   4.062   0.344   1.197
 2100TIP3    H2 6265   3.926   0.408   1.207
 2101TIP3   OH2 6266   2.970   4.319   1.381
 2101TIP3    H1 6267   3.049   4.370   1.365
 2101TIP3    H2 6268   3.002   4.233   1.409
 2102TIP3   OH2 6269   2.721   1.871   2.129
 2102TIP3    H1 6270   2.663   1.802   2.095
 2102TIP3    H2 6271   2.809   1.834   2.121
 2103TIP3   OH2 6272   4.555   0.938   0.376
 2103TIP3    H1 6273   4.601   0.873   0.323
 2103TIP3    H2 6274   4.623   1.000   0.402
 2104TIP3   OH2 6275   5.140   2.400   0.681
 2104TIP3    H1 6276   5.221   2.427   0.637
 2104TIP3    H2 6277   5.166   2.381   0.771
 2105TIP3   OH2 6278   7.110   5.878   2.115
 2105TIP3    H1 6279   7.023   5.859   2.079
 2105TIP3    H2 6280   7.096   5.886   2.209
 2106TIP3   OH2 6281   1.463   0.553   3.474
 2106TIP3    H1 6282   1.371   0.563   3.448
 2106TIP3    H2 6283   1.462   0.478   3.534
 2107TIP3   OH2 6284   0.769   4.855   3.790
 2107TIP3    H1 6285   0.714   4.924   3.829
 2107TIP3    H2 6286   0.740   4.851   3.699
 2108TIP3   OH2 6287   2.786   3.506   0.940
 2108TIP3    H1 6288   2.770   3.595   0.908
 2108TIP3    H2 6289   2.864   3.477   0.892
 2109TIP3   OH2 6290   5.424   6.087   0.241
 2109TIP3    H1 6291   5.483   6.135   0.182
 2109TIP3    H2 6292   5.424   6.139   0.321
 2110TIP3   OH2 6293   3.625   2.314   5.191
 2110TIP3    H1 6294   3.655   2.244   5.249
 2110TIP3    H2 6295   3.579   2.269   5.120
 2111TIP3   OH2 6296   3.939   2.498   1.428
 2111TIP3    H1 6297   4.019   2.464   1.387
 2111TIP3    H2 6298   3.944   2.469   1.519
 2112TIP3   OH2 6299   2.352   3.711   5.157
 2112TIP3    H1 6300   2.447   3.708   5.151
 2112TIP3    H2 6301   2.327   3.621   5.181
 2113TIP3   OH2 6302   1.156   4.139   1.226
 2113TIP3    H1 6303   1.126   4.193   1.152
 2113TIP3    H2 6304   1.154   4.198   1.301
 2114TIP3   OH2 6305   4.774   3.900   1.426
 2114TIP3    H1 6306   4.757   3.930   1.337
 2114TIP3    H2 6307   4.859   3.939   1.449
 2115TIP3   OH2 6308   0.742   2.137   0.884
 2115TIP3    H1 6309   0.665   2.117   0.831
 2115TIP3    H2 6310   0.814   2.092   0.838
 2116TIP3   OH2 6311   2.627   2.295   3.609
 2116TIP3    H1 6312   2.669   2.379   3.629
 2116TIP3    H2 6313   2.548   2.295   3.663
 2117TIP3   OH2 6314   1.716   1.423   0.164
 2117TIP3    H1 6315   1.628   1.454   0.147
 2117TIP3    H2 6316   1.714   1.331   0.138
 2118TIP3   OH2 6317   4.351   3.760   2.293
 2118TIP3    H1 6318   4.364   3.714   2.211
 2118TIP3    H2 6319   4.259   3.745   2.314
 2119TIP3   OH2 6320   2.893   1.979   2.427
 2119TIP3    H1 6321   2.916   2.042   2.496
 2119TIP3    H2 6322   2.833   2.026   2.370
 2120TIP3   OH2 6323   1.121   3.509   4.087
 2120TIP3    H1 6324   1.095   3.556   4.008
 2120TIP3    H2 6325   1.100   3.568   4.159
 2121TIP3   OH2 6326   2.151   1.904   0.840
 2121TIP3    H1 6327   2.153   1.926   0.747
 2121TIP3    H2 6328   2.100   1.975   0.881
 2122TIP3   OH2 6329   2.757   2.255   5.285
 2122TIP3    H1 6330   2.735   2.208   5.365
 2122TIP3    H2 6331   2.688   2.229   5.223
 2123TIP3   OH2 6332   1.939   4.634   0.349
 2123TIP3    H1 6333   1.945   4.718   0.302
 2123TIP3    H2 6334   1.863   4.644   0.406
 2124TIP3   OH2 6335   5.289   1.450   3.331
 2124TIP3    H1 6336   5.293   1.396   3.252
 2124TIP3    H2 6337   5.368   1.425   3.380
 2125TIP3   OH2 6338   4.196   1.134   3.518
 2125TIP3    H1 6339   4.121   1.076   3.530
 2125TIP3    H2 6340   4.238   1.137   3.604
 2126TIP3   OH2 6341   2.185   5.279   0.236
 2126TIP3    H1 6342   2.228   5.221   0.173
 2126TIP3    H2 6343   2.198   5.367   0.199
 2127TIP3   OH2 6344   3.599   4.046   0.813
 2127TIP3    H1 6345   3.572   4.132   0.845
 2127TIP3    H2 6346   3.694   4.051   0.806
 2128TIP3   OH2 6347   6.891   0.567   4.428
 2128TIP3    H1 6348   6.928   0.483   4.453
 2128TIP3    H2 6349   6.809   0.574   4.476
 2129TIP3   OH2 6350   2.185   5.773   4.208
 2129TIP3    H1 6351   2.188   5.797   4.115
 2129TIP3    H2 6352   2.133   5.843   4.249
 2130TIP3   OH2 6353   4.681   0.194   0.587
 2130TIP3    H1 6354   4.724   0.147   0.516
 2130TIP3    H2 6355   4.724   0.279   0.590
 2131TIP3   OH2 6356   3.017   0.030   2.290
 2131TIP3    H1 6357   3.002  -0.058   2.324
 2131TIP3    H2 6358   3.050   0.080   2.365
 2132TIP3   OH2 6359   6.240   2.774   4.947
 2132TIP3    H1 6360   6.286   2.691   4.934
 2132TIP3    H2 6361   6.173   2.754   5.012
 2133TIP3   OH2 6362   3.618   1.408   4.931
 2133TIP3    H1 6363   3.662   1.477   4.981
 2133TIP3    H2 6364   3.655   1.326   4.967
 2134TIP3   OH2 6365   6.026   1.686   2.214
 2134TIP3    H1 6366   5.952   1.631   2.241
 2134TIP3    H2 6367   6.027   1.757   2.279
 2135TIP3   OH2 6368   7.062   3.862   1.110
 2135TIP3    H1 6369   7.126   3.906   1.166
 2135TIP3    H2 6370   7.113   3.799   1.060
 2136TIP3   OH2 6371   1.302   0.919   4.413
 2136TIP3    H1 6372   1.224   0.868   4.435
 2136TIP3    H2 6373   1.304   0.990   4.478
 2137TIP3   OH2 6374   0.715   6.554   4.793
 2137TIP3    H1 6375   0.695   6.554   4.887
 2137TIP3    H2 6376   0.691   6.466   4.763
 2138TIP3   OH2 6377   7.073   5.266   1.638
 2138TIP3    H1 6378   7.077   5.266   1.733
 2138TIP3    H2 6379   7.046   5.354   1.615
 2139TIP3   OH2 6380   5.983   3.885   0.530
 2139TIP3    H1 6381   5.923   3.816   0.503
 2139TIP3    H2 6382   6.064   3.867   0.485
 2140TIP3   OH2 6383   3.139   1.801   5.253
 2140TIP3    H1 6384   3.110   1.885   5.217
 2140TIP3    H2 6385   3.168   1.822   5.342
 2141TIP3   OH2 6386   5.911   6.370   1.114
 2141TIP3    H1 6387   6.003   6.382   1.091
 2141TIP3    H2 6388   5.873   6.457   1.110
 2142TIP3   OH2 6389   4.009   6.188   2.446
 2142TIP3    H1 6390   3.956   6.252   2.494
 2142TIP3    H2 6391   3.947   6.118   2.424
 2143TIP3   OH2 6392   1.904   4.046   0.082
 2143TIP3    H1 6393   1.929   3.954   0.076
 2143TIP3    H2 6394   1.829   4.047   0.141
 2144TIP3   OH2 6395   0.898   1.382   4.026
 2144TIP3    H1 6396   0.978   1.331   4.012
 2144TIP3    H2 6397   0.915   1.466   3.986
 2145TIP3   OH2 6398   0.385   3.079  -0.001
 2145TIP3    H1 6399   0.399   3.038  -0.086
 2145TIP3    H2 6400   0.391   3.007   0.062
 2146TIP3   OH2 6401   6.960   2.946   0.875
 2146TIP3    H1 6402   6.946   3.030   0.919
 2146TIP3    H2 6403   6.873   2.918   0.847
 2147TIP3   OH2 6404   3.006   0.135   3.714
 2147TIP3    H1 6405   2.936   0.156   3.775
 2147TIP3    H2 6406   2.992   0.193   3.639
 2148TIP3   OH2 6407   4.993   5.846   4.586
 2148TIP3    H1 6408   4.916   5.893   4.617
 2148TIP3    H2 6409   4.996   5.865   4.492
 2149TIP3   OH2 6410   1.575   5.988   5.093
 2149TIP3    H1 6411   1.606   6.037   5.017
 2149TIP3    H2 6412   1.487   5.960   5.069
 2150TIP3   OH2 6413   0.925   0.496   4.988
 2150TIP3    H1 6414   0.888   0.408   4.979
 2150TIP3    H2 6415   0.996   0.485   5.051
 2151TIP3   OH2 6416   4.328   3.103   5.790
 2151TIP3    H1 6417   4.348   3.097   5.884
 2151TIP3    H2 6418   4.281   3.185   5.781
 2152TIP3   OH2 6419   6.649   2.861   1.799
 2152TIP3    H1 6420   6.678   2.810   1.723
 2152TIP3    H2 6421   6.689   2.817   1.874
 2153TIP3   OH2 6422   3.319   4.329   3.359
 2153TIP3    H1 6423   3.318   4.424   3.350
 2153TIP3    H2 6424   3.239   4.300   3.316
 2154TIP3   OH2 6425   1.716   3.591   3.320
 2154TIP3    H1 6426   1.635   3.603   3.370
 2154TIP3    H2 6427   1.738   3.679   3.289
 2155TIP3   OH2 6428   4.131   4.979   0.339
 2155TIP3    H1 6429   4.155   5.066   0.308
 2155TIP3    H2 6430   4.127   4.925   0.260
 2156TIP3   OH2 6431   3.107   0.253   4.701
 2156TIP3    H1 6432   3.023   0.237   4.743
 2156TIP3    H2 6433   3.121   0.174   4.647
 2157TIP3   OH2 6434   2.669   1.443   3.727
 2157TIP3    H1 6435   2.700   1.405   3.645
 2157TIP3    H2 6436   2.665   1.537   3.710
 2158TIP3   OH2 6437   5.586   5.027   3.990
 2158TIP3    H1 6438   5.622   5.108   4.026
 2158TIP3    H2 6439   5.575   4.969   4.065
 2159TIP3   OH2 6440   1.058   5.601   2.361
 2159TIP3    H1 6441   1.072   5.646   2.278
 2159TIP3    H2 6442   1.082   5.666   2.427
 2160TIP3   OH2 6443   2.501   2.192   3.378
 2160TIP3    H1 6444   2.508   2.262   3.313
 2160TIP3    H2 6445   2.547   2.226   3.455
 2161TIP3   OH2 6446   1.624   0.158   2.689
 2161TIP3    H1 6447   1.546   0.121   2.648
 2161TIP3    H2 6448   1.600   0.249   2.707
 2162TIP3   OH2 6449  -0.056   0.025   5.274
 2162TIP3    H1 6450   0.035   0.040   5.299
 2162TIP3    H2 6451  -0.059   0.043   5.180
 2163TIP3   OH2 6452   5.599   3.265   4.509
 2163TIP3    H1 6453   5.558   3.296   4.428
 2163TIP3    H2 6454   5.569   3.326   4.576
 2164TIP3   OH2 6455   5.620   5.377   0.806
 2164TIP3    H1 6456   5.540   5.423   0.781
 2164TIP3    H2 6457   5.666   5.360   0.724
 2165TIP3   OH2 6458   1.366   5.605   5.642
 2165TIP3    H1 6459   1.371   5.695   5.674
 2165TIP3    H2 6460   1.416   5.553   5.705
 2166TIP3   OH2 6461   2.643   3.294   0.527
 2166TIP3    H1 6462   2.652   3.390   0.523
 2166TIP3    H2 6463   2.719   3.265   0.576
 2167TIP3   OH2 6464   4.973   5.282   1.288
 2167TIP3    H1 6465   5.014   5.249   1.208
 2167TIP3    H2 6466   4.960   5.376   1.271
 2168TIP3   OH2 6467   5.253   5.945   1.066
 2168TIP3    H1 6468   5.316   6.009   1.098
 2168TIP3    H2 6469   5.168   5.988   1.078
 2169TIP3   OH2 6470   3.556   4.239   5.679
 2169TIP3    H1 6471   3.478   4.292   5.696
 2169TIP3    H2 6472   3.551   4.167   5.743
 2170TIP3   OH2 6473   1.765   5.038   3.482
 2170TIP3    H1 6474   1.843   5.034   3.537
 2170TIP3    H2 6475   1.796   5.013   3.395
 2171TIP3   OH2 6476   3.180   4.111   2.609
 2171TIP3    H1 6477   3.247   4.117   2.540
 2171TIP3    H2 6478   3.106   4.161   2.575
 2172TIP3   OH2 6479   6.307   2.110   0.289
 2172TIP3    H1 6480   6.362   2.050   0.340
 2172TIP3    H2 6481   6.218   2.075   0.301
 2173TIP3   OH2 6482   7.008   0.208   4.653
 2173TIP3    H1 6483   6.994   0.116   4.677
 2173TIP3    H2 6484   6.987   0.212   4.560
 2174TIP3   OH2 6485   5.795   2.278   3.216
 2174TIP3    H1 6486   5.743   2.293   3.137
 2174TIP3    H2 6487   5.883   2.305   3.191
 2175TIP3   OH2 6488   3.181   0.952   2.388
 2175TIP3    H1 6489   3.257   0.988   2.435
 2175TIP3    H2 6490   3.120   0.927   2.458
 2176TIP3   OH2 6491   4.683   4.857   2.459
 2176TIP3    H1 6492   4.623   4.904   2.401
 2176TIP3    H2 6493   4.690   4.770   2.420
 2177TIP3   OH2 6494   2.338   0.380   2.077
 2177TIP3    H1 6495   2.267   0.360   2.139
 2177TIP3    H2 6496   2.357   0.296   2.035
 2178TIP3   OH2 6497   4.072   4.843   1.551
 2178TIP3    H1 6498   4.034   4.768   1.596
 2178TIP3    H2 6499   4.009   4.864   1.482
 2179TIP3   OH2 6500   5.971   4.047   4.724
 2179TIP3    H1 6501   6.060   4.074   4.745
 2179TIP3    H2 6502   5.917   4.090   4.790
 2180TIP3   OH2 6503   6.025   1.314   2.364
 2180TIP3    H1 6504   5.956   1.272   2.313
 2180TIP3    H2 6505   6.045   1.394   2.317
 2181TIP3   OH2 6506   3.008   3.429   2.375
 2181TIP3    H1 6507   3.004   3.371   2.299
 2181TIP3    H2 6508   2.917   3.436   2.404
 2182TIP3   OH2 6509   1.211   6.134   5.707
 2182TIP3    H1 6510   1.159   6.202   5.750
 2182TIP3    H2 6511   1.171   6.123   5.621
 2183TIP3   OH2 6512   5.068   3.316   1.829
 2183TIP3    H1 6513   5.134   3.338   1.895
 2183TIP3    H2 6514   5.049   3.400   1.786
 2184TIP3   OH2 6515   0.142   2.146   3.866
 2184TIP3    H1 6516   0.117   2.100   3.946
 2184TIP3    H2 6517   0.143   2.078   3.798
 2185TIP3   OH2 6518   3.193   3.866   1.874
 2185TIP3    H1 6519   3.162   3.909   1.795
 2185TIP3    H2 6520   3.200   3.937   1.939
 2186TIP3   OH2 6521   3.760   0.125   1.623
 2186TIP3    H1 6522   3.688   0.171   1.581
 2186TIP3    H2 6523   3.794   0.067   1.555
 2187TIP3   OH2 6524   3.632   5.337   2.985
 2187TIP3    H1 6525   3.620   5.286   3.065
 2187TIP3    H2 6526   3.707   5.296   2.941
 2188TIP3   OH2 6527   1.848   1.497   0.411
 2188TIP3    H1 6528   1.793   1.455   0.477
 2188TIP3    H2 6529   1.804   1.479   0.328
 2189TIP3   OH2 6530   3.804   3.359   2.634
 2189TIP3    H1 6531   3.776   3.443   2.672
 2189TIP3    H2 6532   3.772   3.363   2.544
 2190TIP3   OH2 6533   1.336   5.558   4.394
 2190TIP3    H1 6534   1.276   5.570   4.468
 2190TIP3    H2 6535   1.420   5.535   4.435
 2191TIP3   OH2 6536   4.414   5.404   0.174
 2191TIP3    H1 6537   4.355   5.432   0.103
 2191TIP3    H2 6538   4.390   5.459   0.248
 2192TIP3   OH2 6539   5.235   4.980   2.275
 2192TIP3    H1 6540   5.221   4.974   2.369
 2192TIP3    H2 6541   5.326   5.006   2.265
 2193TIP3   OH2 6542   1.427   0.009   0.313
 2193TIP3    H1 6543   1.362   0.023   0.382
 2193TIP3    H2 6544   1.507   0.049   0.347
 2194TIP3   OH2 6545   0.898   0.374   1.652
 2194TIP3    H1 6546   0.949   0.299   1.621
 2194TIP3    H2 6547   0.956   0.417   1.715
 2195TIP3   OH2 6548   7.087   6.048   4.470
 2195TIP3    H1 6549   7.084   6.104   4.392
 2195TIP3    H2 6550   7.115   6.108   4.540
 2196TIP3   OH2 6551   0.430   4.857   4.681
 2196TIP3    H1 6552   0.520   4.864   4.712
 2196TIP3    H2 6553   0.377   4.900   4.748
 2197TIP3   OH2 6554   0.704   3.656   1.921
 2197TIP3    H1 6555   0.639   3.644   1.990
 2197TIP3    H2 6556   0.783   3.684   1.967
 2198TIP3   OH2 6557   2.591   3.537   4.249
 2198TIP3    H1 6558   2.684   3.515   4.259
 2198TIP3    H2 6559   2.564   3.566   4.336
 2199TIP3   OH2 6560   4.410   6.043   1.824
 2199TIP3    H1 6561   4.451   6.078   1.745
 2199TIP3    H2 6562   4.410   6.116   1.886
 2200TIP3   OH2 6563   0.736   3.005   3.441
 2200TIP3    H1 6564   0.766   3.014   3.350
 2200TIP3    H2 6565   0.699   2.917   3.445
 2201TIP3   OH2 6566   6.639   0.576   3.188
 2201TIP3    H1 6567   6.713   0.619   3.232
 2201TIP3    H2 6568   6.614   0.505   3.247
 2202TIP3   OH2 6569   6.986   2.076   5.563
 2202TIP3    H1 6570   7.020   2.003   5.614
 2202TIP3    H2 6571   7.064   2.116   5.523
 2203TIP3   OH2 6572   6.835   4.203   0.184
 2203TIP3    H1 6573   6.928   4.181   0.177
 2203TIP3    H2 6574   6.818   4.260   0.109
 2204TIP3   OH2 6575   7.030   1.857   1.434
 2204TIP3    H1 6576   7.017   1.785   1.496
 2204TIP3    H2 6577   7.124   1.877   1.440
 2205TIP3   OH2 6578   3.482   0.240   2.046
 2205TIP3    H1 6579   3.490   0.220   2.139
 2205TIP3    H2 6580   3.573   0.246   2.015
 2206TIP3   OH2 6581   1.015   4.968   1.036
 2206TIP3    H1 6582   0.956   4.962   0.961
 2206TIP3    H2 6583   0.961   4.947   1.112
 2207TIP3   OH2 6584   2.536   3.364   3.186
 2207TIP3    H1 6585   2.541   3.292   3.249
 2207TIP3    H2 6586   2.499   3.437   3.236
 2208TIP3   OH2 6587   0.170   0.676   1.358
 2208TIP3    H1 6588   0.264   0.678   1.375
 2208TIP3    H2 6589   0.137   0.603   1.412
 2209TIP3   OH2 6590   5.044   1.963   3.672
 2209TIP3    H1 6591   5.126   1.978   3.624
 2209TIP3    H2 6592   5.021   1.872   3.653
 2210TIP3   OH2 6593   2.348   2.644   4.973
 2210TIP3    H1 6594   2.389   2.596   5.046
 2210TIP3    H2 6595   2.419   2.659   4.912
 2211TIP3   OH2 6596   3.279   5.510   3.853
 2211TIP3    H1 6597   3.349   5.450   3.879
 2211TIP3    H2 6598   3.323   5.579   3.803
 2212TIP3   OH2 6599   0.830   2.696   4.468
 2212TIP3    H1 6600   0.886   2.719   4.393
 2212TIP3    H2 6601   0.756   2.757   4.462
 2213TIP3   OH2 6602   1.358   0.203   1.903
 2213TIP3    H1 6603   1.289   0.168   1.960
 2213TIP3    H2 6604   1.380   0.130   1.845
 2214TIP3   OH2 6605   2.366   5.964   1.243
 2214TIP3    H1 6606   2.378   6.058   1.255
 2214TIP3    H2 6607   2.278   5.945   1.276
 2215TIP3   OH2 6608   0.926   0.218   0.073
 2215TIP3    H1 6609   1.004   0.194   0.024
 2215TIP3    H2 6610   0.939   0.180   0.160
 2216TIP3   OH2 6611   6.572   4.067   1.637
 2216TIP3    H1 6612   6.527   4.131   1.693
 2216TIP3    H2 6613   6.631   4.120   1.583
 2217TIP3   OH2 6614   3.865   6.812   0.912
 2217TIP3    H1 6615   3.906   6.833   0.828
 2217TIP3    H2 6616   3.823   6.728   0.897
 2218TIP3   OH2 6617   6.773   3.572   5.224
 2218TIP3    H1 6618   6.711   3.635   5.259
 2218TIP3    H2 6619   6.764   3.580   5.129
 2219TIP3   OH2 6620   3.944   2.297   2.485
 2219TIP3    H1 6621   4.003   2.261   2.418
 2219TIP3    H2 6622   3.961   2.245   2.563
 2220TIP3   OH2 6623   0.489   0.007   0.811
 2220TIP3    H1 6624   0.497  -0.046   0.890
 2220TIP3    H2 6625   0.568   0.061   0.810
 2221TIP3   OH2 6626   5.712   4.811   5.395
 2221TIP3    H1 6627   5.764   4.869   5.450
 2221TIP3    H2 6628   5.765   4.732   5.386
 2222TIP3   OH2 6629   4.808   2.698   4.121
 2222TIP3    H1 6630   4.745   2.658   4.061
 2222TIP3    H2 6631   4.843   2.624   4.172
 2223TIP3   OH2 6632   1.325   2.145   3.045
 2223TIP3    H1 6633   1.348   2.117   3.134
 2223TIP3    H2 6634   1.407   2.143   2.997
 2224TIP3   OH2 6635   6.410   6.580   2.573
 2224TIP3    H1 6636   6.329   6.630   2.577
 2224TIP3    H2 6637   6.392   6.501   2.624
 2225TIP3   OH2 6638   2.049   3.847   2.060
 2225TIP3    H1 6639   2.006   3.904   1.997
 2225TIP3    H2 6640   1.996   3.767   2.060
 2226TIP3   OH2 6641   3.118   1.994   5.771
 2226TIP3    H1 6642   3.042   2.003   5.829
 2226TIP3    H2 6643   3.126   2.078   5.727
 2227TIP3   OH2 6644   0.193   3.722   4.900
 2227TIP3    H1 6645   0.120   3.775   4.934
 2227TIP3    H2 6646   0.170   3.633   4.923
 2228TIP3   OH2 6647   0.547   5.994   4.767
 2228TIP3    H1 6648   0.608   6.012   4.695
 2228TIP3    H2 6649   0.470   6.048   4.747
 2229TIP3   OH2 6650   2.661   0.115   1.178
 2229TIP3    H1 6651   2.636   0.199   1.216
 2229TIP3    H2 6652   2.610   0.050   1.226
 2230TIP3   OH2 6653   2.794   2.425   1.011
 2230TIP3    H1 6654   2.737   2.428   1.088
 2230TIP3    H2 6655   2.866   2.484   1.032
 2231TIP3   OH2 6656   3.701   2.402   0.505
 2231TIP3    H1 6657   3.704   2.454   0.425
 2231TIP3    H2 6658   3.764   2.443   0.564
 2232TIP3   OH2 6659   1.990   0.818   2.944
 2232TIP3    H1 6660   1.992   0.898   2.995
 2232TIP3    H2 6661   1.914   0.770   2.975
 2233TIP3   OH2 6662   2.069   3.896   4.279
 2233TIP3    H1 6663   2.007   3.840   4.325
 2233TIP3    H2 6664   2.123   3.934   4.349
 2234TIP3   OH2 6665   7.140   4.158   0.113
 2234TIP3    H1 6666   7.203   4.203   0.057
 2234TIP3    H2 6667   7.192   4.123   0.185
 2235TIP3   OH2 6668   6.492   5.406   2.463
 2235TIP3    H1 6669   6.479   5.412   2.557
 2235TIP3    H2 6670   6.583   5.379   2.453
 2236TIP3   OH2 6671   1.423   0.623   2.502
 2236TIP3    H1 6672   1.342   0.659   2.466
 2236TIP3    H2 6673   1.428   0.535   2.467
 2237TIP3   OH2 6674   5.134   3.482   1.202
 2237TIP3    H1 6675   5.172   3.504   1.117
 2237TIP3    H2 6676   5.205   3.440   1.250
 2238TIP3   OH2 6677   2.660   0.883   3.119
 2238TIP3    H1 6678   2.640   0.792   3.139
 2238TIP3    H2 6679   2.597   0.908   3.052
 2239TIP3   OH2 6680   3.390   6.208   0.832
 2239TIP3    H1 6681   3.347   6.122   0.825
 2239TIP3    H2 6682   3.481   6.188   0.854
 2240TIP3   OH2 6683   2.042   6.154   4.196
 2240TIP3    H1 6684   2.117   6.213   4.205
 2240TIP3    H2 6685   1.993   6.188   4.121
 2241TIP3   OH2 6686   0.410   1.259   0.532
 2241TIP3    H1 6687   0.319   1.287   0.532
 2241TIP3    H2 6688   0.417   1.199   0.607
 2242TIP3   OH2 6689   4.453   0.482   4.161
 2242TIP3    H1 6690   4.507   0.471   4.240
 2242TIP3    H2 6691   4.464   0.400   4.113
 2243TIP3   OH2 6692   1.715   2.350   3.080
 2243TIP3    H1 6693   1.719   2.258   3.108
 2243TIP3    H2 6694   1.784   2.394   3.130
 2244TIP3   OH2 6695   2.849   5.495   2.268
 2244TIP3    H1 6696   2.943   5.489   2.284
 2244TIP3    H2 6697   2.828   5.587   2.284
 2245TIP3   OH2 6698   3.537   0.004   3.402
 2245TIP3    H1 6699   3.580   0.064   3.341
 2245TIP3    H2 6700   3.545   0.046   3.487
 2246TIP3   OH2 6701   4.095   6.196   5.660
 2246TIP3    H1 6702   4.095   6.264   5.592
 2246TIP3    H2 6703   4.144   6.124   5.621
 2247TIP3   OH2 6704   5.488   1.058   5.414
 2247TIP3    H1 6705   5.476   1.127   5.480
 2247TIP3    H2 6706   5.445   1.092   5.336
 2248TIP3   OH2 6707   7.078   4.162   1.357
 2248TIP3    H1 6708   7.174   4.160   1.362
 2248TIP3    H2 6709   7.053   4.234   1.416
 2249TIP3   OH2 6710   3.178   4.024   2.873
 2249TIP3    H1 6711   3.195   4.079   2.797
 2249TIP3    H2 6712   3.202   4.078   2.948
 2250TIP3   OH2 6713   2.119   5.554   2.998
 2250TIP3    H1 6714   2.192   5.545   3.059
 2250TIP3    H2 6715   2.043   5.523   3.048
 2251TIP3   OH2 6716   6.069   6.045   3.643
 2251TIP3    H1 6717   6.126   6.046   3.720
 2251TIP3    H2 6718   5.986   6.083   3.674
 2252TIP3   OH2 6719   5.854   5.462   4.784
 2252TIP3    H1 6720   5.824   5.431   4.698
 2252TIP3    H2 6721   5.898   5.387   4.823
 2253TIP3   OH2 6722   2.364   6.449   3.349
 2253TIP3    H1 6723   2.271   6.447   3.325
 2253TIP3    H2 6724   2.405   6.503   3.282
 2254TIP3   OH2 6725   3.474   1.714   5.023
 2254TIP3    H1 6726   3.399   1.762   4.988
 2254TIP3    H2 6727   3.544   1.780   5.029
 2255TIP3   OH2 6728   1.019   2.875   5.699
 2255TIP3    H1 6729   0.950   2.809   5.703
 2255TIP3    H2 6730   0.972   2.959   5.705
 2256TIP3   OH2 6731   2.542   5.672   3.134
 2256TIP3    H1 6732   2.547   5.768   3.127
 2256TIP3    H2 6733   2.627   5.642   3.101
 2257TIP3   OH2 6734   4.765   3.318   0.661
 2257TIP3    H1 6735   4.779   3.350   0.572
 2257TIP3    H2 6736   4.840   3.352   0.710
 2258TIP3   OH2 6737   4.177   6.447   3.343
 2258TIP3    H1 6738   4.167   6.441   3.248
 2258TIP3    H2 6739   4.261   6.493   3.356
 2259TIP3   OH2 6740   6.998   3.531   3.374
 2259TIP3    H1 6741   6.910   3.556   3.347
 2259TIP3    H2 6742   6.997   3.436   3.375
 2260TIP3   OH2 6743   1.108   6.226   1.218
 2260TIP3    H1 6744   1.140   6.307   1.257
 2260TIP3    H2 6745   1.183   6.191   1.170
 2261TIP3   OH2 6746   2.350   6.709   2.472
 2261TIP3    H1 6747   2.410   6.766   2.520
 2261TIP3    H2 6748   2.381   6.711   2.382
 2262TIP3   OH2 6749   5.183   4.802   3.240
 2262TIP3    H1 6750   5.099   4.759   3.230
 2262TIP3    H2 6751   5.164   4.895   3.227
 2263TIP3   OH2 6752   6.325   4.802   5.789
 2263TIP3    H1 6753   6.351   4.892   5.771
 2263TIP3    H2 6754   6.351   4.788   5.881
 2264TIP3   OH2 6755   1.550   4.895   1.644
 2264TIP3    H1 6756   1.520   4.985   1.657
 2264TIP3    H2 6757   1.643   4.897   1.666
 2265TIP3   OH2 6758   6.864   3.844   5.177
 2265TIP3    H1 6759   6.798   3.913   5.173
 2265TIP3    H2 6760   6.857   3.800   5.092
 2266TIP3   OH2 6761   3.509   6.038   1.855
 2266TIP3    H1 6762   3.514   6.119   1.804
 2266TIP3    H2 6763   3.585   6.041   1.912
 2267TIP3   OH2 6764   5.251   3.469   3.440
 2267TIP3    H1 6765   5.312   3.400   3.415
 2267TIP3    H2 6766   5.297   3.519   3.508
 2268TIP3   OH2 6767   0.515   5.992   1.464
 2268TIP3    H1 6768   0.424   6.022   1.454
 2268TIP3    H2 6769   0.567   6.057   1.416
 2269TIP3   OH2 6770   5.830   4.752   1.622
 2269TIP3    H1 6771   5.826   4.735   1.528
 2269TIP3    H2 6772   5.778   4.681   1.661
 2270TIP3   OH2 6773   5.115   2.711   0.741
 2270TIP3    H1 6774   5.132   2.772   0.813
 2270TIP3    H2 6775   5.080   2.633   0.784
 2271TIP3   OH2 6776   5.942   3.808   1.334
 2271TIP3    H1 6777   5.892   3.836   1.410
 2271TIP3    H2 6778   6.030   3.790   1.368
 2272TIP3   OH2 6779   4.202   1.297   5.113
 2272TIP3    H1 6780   4.131   1.249   5.154
 2272TIP3    H2 6781   4.159   1.361   5.056
 2273TIP3   OH2 6782   2.914   1.333   3.623
 2273TIP3    H1 6783   2.884   1.341   3.713
 2273TIP3    H2 6784   3.007   1.353   3.626
 2274TIP3   OH2 6785   7.185   4.302   4.915
 2274TIP3    H1 6786   7.221   4.387   4.942
 2274TIP3    H2 6787   7.094   4.322   4.892
 2275TIP3   OH2 6788   3.434   4.189   2.763
 2275TIP3    H1 6789   3.426   4.117   2.700
 2275TIP3    H2 6790   3.437   4.268   2.709
 2276TIP3   OH2 6791   0.167   3.714   5.361
 2276TIP3    H1 6792   0.250   3.667   5.354
 2276TIP3    H2 6793   0.108   3.652   5.403
 2277TIP3   OH2 6794   0.302   3.122   0.336
 2277TIP3    H1 6795   0.256   3.163   0.409
 2277TIP3    H2 6796   0.295   3.185   0.264
 2278TIP3   OH2 6797   3.264   4.383   2.443
 2278TIP3    H1 6798   3.294   4.317   2.381
 2278TIP3    H2 6799   3.342   4.410   2.491
 2279TIP3   OH2 6800   2.926   5.884   0.846
 2279TIP3    H1 6801   2.862   5.813   0.839
 2279TIP3    H2 6802   2.880   5.960   0.809
 2280TIP3   OH2 6803   1.747   0.568   4.203
 2280TIP3    H1 6804   1.692   0.609   4.269
 2280TIP3    H2 6805   1.723   0.611   4.121
 2281TIP3   OH2 6806   2.578   3.238   2.198
 2281TIP3    H1 6807   2.491   3.211   2.227
 2281TIP3    H2 6808   2.574   3.236   2.103
 2282TIP3   OH2 6809   4.852   3.217   1.619
 2282TIP3    H1 6810   4.838   3.309   1.598
 2282TIP3    H2 6811   4.908   3.185   1.549
 2283TIP3   OH2 6812   4.051   4.905   5.511
 2283TIP3    H1 6813   4.074   4.850   5.586
 2283TIP3    H2 6814   4.108   4.982   5.520
 2284TIP3   OH2 6815   4.844   1.479   1.370
 2284TIP3    H1 6816   4.932   1.469   1.332
 2284TIP3    H2 6817   4.860   1.493   1.463
 2285TIP3   OH2 6818   1.807   3.515   2.609
 2285TIP3    H1 6819   1.824   3.506   2.703
 2285TIP3    H2 6820   1.885   3.558   2.574
 2286TIP3   OH2 6821   1.652   2.136   3.813
 2286TIP3    H1 6822   1.642   2.113   3.905
 2286TIP3    H2 6823   1.707   2.214   3.814
 2287TIP3   OH2 6824   0.131   5.317   5.581
 2287TIP3    H1 6825   0.053   5.264   5.563
 2287TIP3    H2 6826   0.201   5.253   5.594
 2288TIP3   OH2 6827   4.855   4.049   5.484
 2288TIP3    H1 6828   4.844   3.987   5.556
 2288TIP3    H2 6829   4.950   4.058   5.474
 2289TIP3   OH2 6830   4.671   5.527   3.891
 2289TIP3    H1 6831   4.737   5.487   3.835
 2289TIP3    H2 6832   4.594   5.471   3.881
 2290TIP3   OH2 6833   5.952   4.748   2.228
 2290TIP3    H1 6834   5.862   4.716   2.215
 2290TIP3    H2 6835   5.974   4.722   2.317
 2291TIP3   OH2 6836   6.634   6.741   5.464
 2291TIP3    H1 6837   6.700   6.810   5.462
 2291TIP3    H2 6838   6.603   6.740   5.555
 2292TIP3   OH2 6839   2.455   1.401   3.415
 2292TIP3    H1 6840   2.383   1.339   3.416
 2292TIP3    H2 6841   2.422   1.477   3.464
 2293TIP3   OH2 6842   3.133   4.828   4.091
 2293TIP3    H1 6843   3.115   4.858   4.180
 2293TIP3    H2 6844   3.131   4.908   4.038
 2294TIP3   OH2 6845   4.958   3.637   0.606
 2294TIP3    H1 6846   4.891   3.615   0.542
 2294TIP3    H2 6847   5.033   3.582   0.582
 2295TIP3   OH2 6848   3.689   6.303   4.111
 2295TIP3    H1 6849   3.782   6.287   4.096
 2295TIP3    H2 6850   3.681   6.315   4.206
 2296TIP3   OH2 6851   2.571   1.598   0.831
 2296TIP3    H1 6852   2.660   1.606   0.867
 2296TIP3    H2 6853   2.528   1.680   0.855
 2297TIP3   OH2 6854   7.193   0.863   0.063
 2297TIP3    H1 6855   7.131   0.792   0.079
 2297TIP3    H2 6856   7.206   0.862  -0.032
 2298TIP3   OH2 6857   3.684   0.375   1.894
 2298TIP3    H1 6858   3.658   0.467   1.897
 2298TIP3    H2 6859   3.767   0.371   1.942
 2299TIP3   OH2 6860   4.558   4.643   2.755
 2299TIP3    H1 6861   4.612   4.710   2.798
 2299TIP3    H2 6862   4.569   4.565   2.810
 2300TIP3   OH2 6863   3.153   5.157   4.337
 2300TIP3    H1 6864   3.230   5.135   4.283
 2300TIP3    H2 6865   3.156   5.095   4.410
 2301TIP3   OH2 6866   2.775   4.706   0.273
 2301TIP3    H1 6867   2.856   4.675   0.232
 2301TIP3    H2 6868   2.803   4.761   0.346
 2302TIP3   OH2 6869   4.054   4.817   4.531
 2302TIP3    H1 6870   3.987   4.873   4.491
 2302TIP3    H2 6871   4.074   4.861   4.614
 2303TIP3   OH2 6872   1.040   5.198   0.185
 2303TIP3    H1 6873   1.079   5.246   0.112
 2303TIP3    H2 6874   0.974   5.258   0.221
 2304TIP3   OH2 6875   2.662   4.803   0.959
 2304TIP3    H1 6876   2.599   4.871   0.980
 2304TIP3    H2 6877   2.748   4.843   0.976
 2305TIP3   OH2 6878   5.868   0.044   0.096
 2305TIP3    H1 6879   5.914   0.074   0.174
 2305TIP3    H2 6880   5.837  -0.044   0.118
 2306TIP3   OH2 6881   2.452   0.610   3.383
 2306TIP3    H1 6882   2.426   0.701   3.402
 2306TIP3    H2 6883   2.502   0.616   3.301
 2307TIP3   OH2 6884   5.704   2.521   5.193
 2307TIP3    H1 6885   5.661   2.554   5.272
 2307TIP3    H2 6886   5.636   2.523   5.126
 2308TIP3   OH2 6887   4.845   5.533   2.313
 2308TIP3    H1 6888   4.824   5.627   2.311
 2308TIP3    H2 6889   4.786   5.497   2.379
 2309TIP3   OH2 6890   5.860   5.742   1.099
 2309TIP3    H1 6891   5.832   5.685   1.028
 2309TIP3    H2 6892   5.796   5.813   1.100
 2310TIP3   OH2 6893   6.586   3.887   0.429
 2310TIP3    H1 6894   6.565   3.814   0.487
 2310TIP3    H2 6895   6.671   3.865   0.391
 2311TIP3   OH2 6896   1.249   0.726   1.155
 2311TIP3    H1 6897   1.195   0.794   1.194
 2311TIP3    H2 6898   1.205   0.644   1.176
 2312TIP3   OH2 6899   1.309   1.615   5.329
 2312TIP3    H1 6900   1.265   1.550   5.384
 2312TIP3    H2 6901   1.251   1.625   5.253
 2313TIP3   OH2 6902   6.733   3.164   2.940
 2313TIP3    H1 6903   6.658   3.222   2.930
 2313TIP3    H2 6904   6.732   3.139   3.032
 2314TIP3   OH2 6905   7.083   4.490   0.187
 2314TIP3    H1 6906   7.145   4.493   0.114
 2314TIP3    H2 6907   7.049   4.580   0.192
 2315TIP3   OH2 6908   6.969   5.035   2.227
 2315TIP3    H1 6909   6.881   5.072   2.216
 2315TIP3    H2 6910   6.973   5.012   2.320
 2316TIP3   OH2 6911   3.793   5.325   1.440
 2316TIP3    H1 6912   3.737   5.340   1.364
 2316TIP3    H2 6913   3.872   5.376   1.422
 2317TIP3   OH2 6914   5.704   3.552   2.540
 2317TIP3    H1 6915   5.676   3.502   2.463
 2317TIP3    H2 6916   5.699   3.490   2.613
 2318TIP3   OH2 6917   3.496   0.385   3.296
 2318TIP3    H1 6918   3.575   0.337   3.272
 2318TIP3    H2 6919   3.522   0.435   3.374
 2319TIP3   OH2 6920   6.514   2.146   1.972
 2319TIP3    H1 6921   6.513   2.165   1.878
 2319TIP3    H2 6922   6.442   2.084   1.984
 2320TIP3   OH2 6923   1.328   1.149   1.586
 2320TIP3    H1 6924   1.380   1.148   1.666
 2320TIP3    H2 6925   1.340   1.061   1.549
 2321TIP3   OH2 6926   6.938   6.673   4.568
 2321TIP3    H1 6927   6.930   6.764   4.598
 2321TIP3    H2 6928   6.904   6.674   4.479
 2322TIP3   OH2 6929   0.616   1.409   3.902
 2322TIP3    H1 6930   0.705   1.377   3.915
 2322TIP3    H2 6931   0.610   1.423   3.807
 2323TIP3   OH2 6932   1.985   5.137   3.645
 2323TIP3    H1 6933   2.003   5.211   3.588
 2323TIP3    H2 6934   2.068   5.089   3.650
 2324TIP3   OH2 6935   0.654   2.171   1.872
 2324TIP3    H1 6936   0.625   2.180   1.963
 2324TIP3    H2 6937   0.665   2.260   1.841
 2325TIP3   OH2 6938   5.823   0.380   1.220
 2325TIP3    H1 6939   5.900   0.421   1.257
 2325TIP3    H2 6940   5.811   0.300   1.271
 2326TIP3   OH2 6941   4.263   0.125   3.183
 2326TIP3    H1 6942   4.279   0.194   3.119
 2326TIP3    H2 6943   4.266   0.169   3.268
 2327TIP3   OH2 6944   0.112   4.098   0.276
 2327TIP3    H1 6945   0.176   4.037   0.239
 2327TIP3    H2 6946   0.165   4.164   0.322
 2328TIP3   OH2 6947   1.174   0.926   4.870
 2328TIP3    H1 6948   1.129   0.845   4.846
 2328TIP3    H2 6949   1.254   0.897   4.915
 2329TIP3   OH2 6950   2.050   2.271   0.895
 2329TIP3    H1 6951   1.995   2.239   0.967
 2329TIP3    H2 6952   2.133   2.294   0.937
 2330TIP3   OH2 6953   5.536   6.426   2.420
 2330TIP3    H1 6954   5.493   6.412   2.335
 2330TIP3    H2 6955   5.536   6.340   2.461
 2331TIP3   OH2 6956   4.348   0.416   5.175
 2331TIP3    H1 6957   4.256   0.395   5.189
 2331TIP3    H2 6958   4.396   0.353   5.228
 2332TIP3   OH2 6959   3.320   5.626   1.991
 2332TIP3    H1 6960   3.353   5.536   2.000
 2332TIP3    H2 6961   3.396   5.681   2.009
 2333TIP3   OH2 6962   1.845   2.095   3.107
 2333TIP3    H1 6963   1.787   2.032   3.150
 2333TIP3    H2 6964   1.850   2.066   3.016
 2334TIP3   OH2 6965   2.215   6.195   0.090
 2334TIP3    H1 6966   2.294   6.153   0.057
 2334TIP3    H2 6967   2.143   6.141   0.056
 2335TIP3   OH2 6968   1.092   2.353   5.481
 2335TIP3    H1 6969   1.023   2.404   5.522
 2335TIP3    H2 6970   1.138   2.312   5.554
 2336TIP3   OH2 6971   2.067   5.608   1.362
 2336TIP3    H1 6972   2.086   5.702   1.355
 2336TIP3    H2 6973   1.989   5.596   1.307
 2337TIP3   OH2 6974   0.367   4.330   3.951
 2337TIP3    H1 6975   0.285   4.366   3.916
 2337TIP3    H2 6976   0.430   4.402   3.944
 2338TIP3   OH2 6977   0.887   5.300   2.533
 2338TIP3    H1 6978   0.850   5.379   2.574
 2338TIP3    H2 6979   0.885   5.234   2.602
 2339TIP3   OH2 6980   1.683   1.618   2.612
 2339TIP3    H1 6981   1.622   1.615   2.539
 2339TIP3    H2 6982   1.736   1.539   2.603
 2340TIP3   OH2 6983   3.920   3.056   2.003
 2340TIP3    H1 6984   3.980   2.982   2.016
 2340TIP3    H2 6985   3.946   3.093   1.919
 2341TIP3   OH2 6986   3.263   5.665   5.391
 2341TIP3    H1 6987   3.277   5.756   5.365
 2341TIP3    H2 6988   3.275   5.665   5.486
 2342TIP3   OH2 6989   0.307   6.411   3.327
 2342TIP3    H1 6990   0.261   6.340   3.284
 2342TIP3    H2 6991   0.373   6.368   3.381
 2343TIP3   OH2 6992   4.511   2.163   1.863
 2343TIP3    H1 6993   4.536   2.253   1.844
 2343TIP3    H2 6994   4.430   2.171   1.914
 2344TIP3   OH2 6995   1.287   4.417   2.117
 2344TIP3    H1 6996   1.288   4.336   2.167
 2344TIP3    H2 6997   1.194   4.432   2.096
 2345TIP3   OH2 6998   0.371   0.407   1.159
 2345TIP3    H1 6999   0.358   0.336   1.096
 2345TIP3    H2 7000   0.453   0.448   1.132
 2346TIP3   OH2 7001   4.372   4.710   2.555
 2346TIP3    H1 7002   4.307   4.655   2.598
 2346TIP3    H2 7003   4.452   4.697   2.606
 2347TIP3   OH2 7004   4.670   5.432   2.519
 2347TIP3    H1 7005   4.589   5.402   2.478
 2347TIP3    H2 7006   4.723   5.352   2.528
 2348TIP3   OH2 7007   5.692   0.323   1.614
 2348TIP3    H1 7008   5.635   0.397   1.634
 2348TIP3    H2 7009   5.692   0.270   1.693
 2349TIP3   OH2 7010   7.028   3.933   2.987
 2349TIP3    H1 7011   7.036   3.902   3.077
 2349TIP3    H2 7012   6.969   3.870   2.945
 2350TIP3   OH2 7013   6.944   5.255   1.916
 2350TIP3    H1 7014   6.993   5.182   1.955
 2350TIP3    H2 7015   6.854   5.222   1.908
 2351TIP3   OH2 7016   2.868   1.328   0.502
 2351TIP3    H1 7017   2.869   1.419   0.531
 2351TIP3    H2 7018   2.923   1.282   0.566
 2352TIP3   OH2 7019   6.515   3.400   0.117
 2352TIP3    H1 7020   6.492   3.476   0.063
 2352TIP3    H2 7021   6.552   3.437   0.197
 2353TIP3   OH2 7022   6.283   4.211   3.905
 2353TIP3    H1 7023   6.260   4.203   3.813
 2353TIP3    H2 7024   6.358   4.152   3.915
 2354TIP3   OH2 7025   6.906   4.895   2.930
 2354TIP3    H1 7026   6.858   4.814   2.916
 2354TIP3    H2 7027   6.839   4.957   2.959
 2355TIP3   OH2 7028   6.513   3.637   3.955
 2355TIP3    H1 7029   6.466   3.581   3.894
 2355TIP3    H2 7030   6.445   3.683   4.005
 2356TIP3   OH2 7031   2.343   1.035   5.752
 2356TIP3    H1 7032   2.254   1.002   5.743
 2356TIP3    H2 7033   2.333   1.129   5.767
 2357TIP3   OH2 7034   2.330   6.127   1.635
 2357TIP3    H1 7035   2.402   6.169   1.683
 2357TIP3    H2 7036   2.360   6.125   1.544
 2358TIP3   OH2 7037   6.461   1.213   3.860
 2358TIP3    H1 7038   6.542   1.163   3.849
 2358TIP3    H2 7039   6.472   1.256   3.945
 2359TIP3   OH2 7040   4.387   1.787   2.488
 2359TIP3    H1 7041   4.397   1.753   2.399
 2359TIP3    H2 7042   4.447   1.861   2.492
 2360TIP3   OH2 7043   3.094   6.395   2.934
 2360TIP3    H1 7044   3.115   6.481   2.897
 2360TIP3    H2 7045   3.055   6.415   3.019
 2361TIP3   OH2 7046   0.154   3.250   2.628
 2361TIP3    H1 7047   0.237   3.208   2.606
 2361TIP3    H2 7048   0.088   3.198   2.582
 2362TIP3   OH2 7049   2.364   5.571   1.652
 2362TIP3    H1 7050   2.353   5.553   1.746
 2362TIP3    H2 7051   2.296   5.519   1.610
 2363TIP3   OH2 7052   1.836   3.970   1.034
 2363TIP3    H1 7053   1.823   4.053   0.989
 2363TIP3    H2 7054   1.753   3.923   1.021
 2364TIP3   OH2 7055   3.618   1.569   0.810
 2364TIP3    H1 7056   3.701   1.572   0.858
 2364TIP3    H2 7057   3.593   1.661   0.800
 2365TIP3   OH2 7058   0.650   4.611   5.425
 2365TIP3    H1 7059   0.557   4.590   5.418
 2365TIP3    H2 7060   0.688   4.584   5.342
 2366TIP3   OH2 7061   4.989   0.970   1.970
 2366TIP3    H1 7062   4.969   1.056   1.931
 2366TIP3    H2 7063   4.967   0.907   1.901
 2367TIP3   OH2 7064   3.242   5.929   5.409
 2367TIP3    H1 7065   3.170   5.971   5.456
 2367TIP3    H2 7066   3.319   5.945   5.463
 2368TIP3   OH2 7067   3.946   1.964   2.340
 2368TIP3    H1 7068   3.974   1.884   2.385
 2368TIP3    H2 7069   4.019   2.025   2.353
 2369TIP3   OH2 7070   1.890   4.881   0.841
 2369TIP3    H1 7071   1.829   4.946   0.877
 2369TIP3    H2 7072   1.844   4.798   0.849
 2370TIP3   OH2 7073   0.807   1.460   1.120
 2370TIP3    H1 7074   0.764   1.430   1.199
 2370TIP3    H2 7075   0.753   1.427   1.048
 2371TIP3   OH2 7076   1.283   3.327   5.327
 2371TIP3    H1 7077   1.309   3.249   5.278
 2371TIP3    H2 7078   1.342   3.329   5.402
 2372TIP3   OH2 7079   0.216   6.294   2.024
 2372TIP3    H1 7080   0.124   6.268   2.029
 2372TIP3    H2 7081   0.254   6.264   2.106
 2373TIP3   OH2 7082   2.981   2.668   1.977
 2373TIP3    H1 7083   2.921   2.632   2.042
 2373TIP3    H2 7084   3.065   2.627   1.996
 2374TIP3   OH2 7085   3.579   2.512   3.595
 2374TIP3    H1 7086   3.614   2.433   3.638
 2374TIP3    H2 7087   3.487   2.492   3.581
 2375TIP3   OH2 7088   2.510   3.302   4.151
 2375TIP3    H1 7089   2.526   3.396   4.160
 2375TIP3    H2 7090   2.509   3.270   4.241
 2376TIP3   OH2 7091   1.344   2.872   0.537
 2376TIP3    H1 7092   1.278   2.804   0.522
 2376TIP3    H2 7093   1.371   2.899   0.449
 2377TIP3   OH2 7094   6.238   5.144   0.057
 2377TIP3    H1 7095   6.210   5.138  -0.034
 2377TIP3    H2 7096   6.275   5.231   0.065
 2378TIP3   OH2 7097   4.675   4.082   2.250
 2378TIP3    H1 7098   4.584   4.106   2.266
 2378TIP3    H2 7099   4.674   4.037   2.166
 2379TIP3   OH2 7100   3.007   1.118   4.394
 2379TIP3    H1 7101   3.030   1.122   4.487
 2379TIP3    H2 7102   3.089   1.095   4.350
 2380TIP3   OH2 7103   0.984   0.140   0.951
 2380TIP3    H1 7104   0.910   0.195   0.974
 2380TIP3    H2 7105   0.953   0.086   0.879
 2381TIP3   OH2 7106   0.702   3.287   5.276
 2381TIP3    H1 7107   0.778   3.233   5.251
 2381TIP3    H2 7108   0.674   3.251   5.361
 2382TIP3   OH2 7109   6.754   3.453   3.196
 2382TIP3    H1 7110   6.722   3.398   3.267
 2382TIP3    H2 7111   6.825   3.402   3.156
 2383TIP3   OH2 7112   5.302   2.908   3.425
 2383TIP3    H1 7113   5.340   2.912   3.513
 2383TIP3    H2 7114   5.316   2.818   3.397
 2384TIP3   OH2 7115   2.303   0.584   0.006
 2384TIP3    H1 7116   2.228   0.644   0.011
 2384TIP3    H2 7117   2.289   0.523   0.079
 2385TIP3   OH2 7118   4.038   1.319   1.965
 2385TIP3    H1 7119   3.965   1.311   1.903
 2385TIP3    H2 7120   4.006   1.381   2.031
 2386TIP3   OH2 7121   1.559   0.657   0.217
 2386TIP3    H1 7122   1.481   0.680   0.268
 2386TIP3    H2 7123   1.624   0.631   0.283
 2387TIP3   OH2 7124   6.007   1.435   5.664
 2387TIP3    H1 7125   6.034   1.521   5.632
 2387TIP3    H2 7126   5.913   1.441   5.676
 2388TIP3   OH2 7127   1.457   5.328  -0.005
 2388TIP3    H1 7128   1.457   5.312   0.090
 2388TIP3    H2 7129   1.444   5.422  -0.013
 2389TIP3   OH2 7130   3.331   6.155   2.483
 2389TIP3    H1 7131   3.236   6.160   2.496
 2389TIP3    H2 7132   3.341   6.108   2.400
 2390TIP3   OH2 7133   1.214   5.573   4.051
 2390TIP3    H1 7134   1.279   5.612   3.993
 2390TIP3    H2 7135   1.170   5.648   4.092
 2391TIP3   OH2 7136   4.115   6.215   5.111
 2391TIP3    H1 7137   4.054   6.279   5.074
 2391TIP3    H2 7138   4.168   6.187   5.036
 2392TIP3   OH2 7139   0.815   4.070   0.082
 2392TIP3    H1 7140   0.897   4.022   0.092
 2392TIP3    H2 7141   0.754   4.005   0.047
 2393TIP3   OH2 7142   6.708   5.093   2.219
 2393TIP3    H1 7143   6.624   5.059   2.251
 2393TIP3    H2 7144   6.687   5.131   2.133
 2394TIP3   OH2 7145   4.988   1.809   0.593
 2394TIP3    H1 7146   5.056   1.847   0.537
 2394TIP3    H2 7147   4.980   1.870   0.666
 2395TIP3   OH2 7148   4.342   5.520   5.649
 2395TIP3    H1 7149   4.416   5.483   5.696
 2395TIP3    H2 7150   4.379   5.593   5.599
 2396TIP3   OH2 7151   1.791   3.861   4.153
 2396TIP3    H1 7152   1.866   3.886   4.098
 2396TIP3    H2 7153   1.736   3.939   4.155
 2397TIP3   OH2 7154   5.137   3.944   2.683
 2397TIP3    H1 7155   5.089   3.862   2.696
 2397TIP3    H2 7156   5.229   3.920   2.693
 2398TIP3   OH2 7157   2.988   3.721   1.971
 2398TIP3    H1 7158   3.044   3.658   2.017
 2398TIP3    H2 7159   3.050   3.783   1.933
 2399TIP3   OH2 7160   0.195   4.476   1.881
 2399TIP3    H1 7161   0.189   4.571   1.872
 2399TIP3    H2 7162   0.107   4.445   1.861
 2400TIP3   OH2 7163   2.394   5.773   5.562
 2400TIP3    H1 7164   2.482   5.771   5.601
 2400TIP3    H2 7165   2.375   5.681   5.542
 2401TIP3   OH2 7166   5.025   6.172   2.939
 2401TIP3    H1 7167   5.090   6.102   2.946
 2401TIP3    H2 7168   5.061   6.243   2.993
 2402TIP3   OH2 7169   0.712   4.225   1.624
 2402TIP3    H1 7170   0.744   4.149   1.672
 2402TIP3    H2 7171   0.753   4.218   1.538
 2403TIP3   OH2 7172   5.816   6.354   3.244
 2403TIP3    H1 7173   5.897   6.325   3.285
 2403TIP3    H2 7174   5.748   6.295   3.277
 2404TIP3   OH2 7175   3.693   5.339   3.417
 2404TIP3    H1 7176   3.630   5.268   3.402
 2404TIP3    H2 7177   3.733   5.355   3.331
 2405TIP3   OH2 7178   5.494   4.804   4.525
 2405TIP3    H1 7179   5.475   4.837   4.613
 2405TIP3    H2 7180   5.589   4.791   4.525
 2406TIP3   OH2 7181   0.792   0.859   1.476
 2406TIP3    H1 7182   0.831   0.825   1.557
 2406TIP3    H2 7183   0.757   0.945   1.500
 2407TIP3   OH2 7184   5.020   0.743   0.151
 2407TIP3    H1 7185   5.085   0.810   0.129
 2407TIP3    H2 7186   5.001   0.700   0.068
 2408TIP3   OH2 7187   5.995   6.636   3.546
 2408TIP3    H1 7188   5.925   6.696   3.522
 2408TIP3    H2 7189   6.063   6.651   3.480
 2409TIP3   OH2 7190   0.361   5.483   3.902
 2409TIP3    H1 7191   0.370   5.553   3.837
 2409TIP3    H2 7192   0.450   5.467   3.933
 2410TIP3   OH2 7193   3.040   4.106   0.278
 2410TIP3    H1 7194   3.065   4.096   0.186
 2410TIP3    H2 7195   2.944   4.099   0.278
 2411TIP3   OH2 7196   6.566   0.219   0.536
 2411TIP3    H1 7197   6.649   0.258   0.566
 2411TIP3    H2 7198   6.534   0.169   0.611
 2412TIP3   OH2 7199   6.434   6.528   5.613
 2412TIP3    H1 7200   6.464   6.610   5.574
 2412TIP3    H2 7201   6.417   6.550   5.704
 2413TIP3   OH2 7202   6.396   3.975   1.893
 2413TIP3    H1 7203   6.490   3.957   1.902
 2413TIP3    H2 7204   6.360   3.895   1.855
 2414TIP3   OH2 7205   3.345   1.593   3.769
 2414TIP3    H1 7206   3.383   1.573   3.855
 2414TIP3    H2 7207   3.339   1.689   3.768
 2415TIP3   OH2 7208   0.120   2.958   3.306
 2415TIP3    H1 7209   0.193   2.951   3.244
 2415TIP3    H2 7210   0.061   3.022   3.267
 2416TIP3   OH2 7211   7.175   5.698   1.369
 2416TIP3    H1 7212   7.129   5.680   1.287
 2416TIP3    H2 7213   7.266   5.673   1.351
 2417TIP3   OH2 7214   3.356   5.964   1.146
 2417TIP3    H1 7215   3.307   6.046   1.155
 2417TIP3    H2 7216   3.308   5.914   1.080
 2418TIP3   OH2 7217   5.161   5.579   3.018
 2418TIP3    H1 7218   5.206   5.563   2.936
 2418TIP3    H2 7219   5.213   5.647   3.061
 2419TIP3   OH2 7220   5.669   5.390   5.025
 2419TIP3    H1 7221   5.641   5.449   4.956
 2419TIP3    H2 7222   5.747   5.347   4.989
 2420TIP3   OH2 7223   5.084   2.336   4.726
 2420TIP3    H1 7224   5.018   2.363   4.662
 2420TIP3    H2 7225   5.045   2.355   4.811
 2421TIP3   OH2 7226   3.830   3.678   5.075
 2421TIP3    H1 7227   3.855   3.722   4.994
 2421TIP3    H2 7228   3.823   3.749   5.140
 2422TIP3   OH2 7229   3.368   0.497   3.568
 2422TIP3    H1 7230   3.326   0.494   3.654
 2422TIP3    H2 7231   3.307   0.547   3.514
 2423TIP3   OH2 7232   0.917   1.723   0.193
 2423TIP3    H1 7233   0.954   1.768   0.270
 2423TIP3    H2 7234   0.828   1.757   0.187
 2424TIP3   OH2 7235   5.149   2.820   1.508
 2424TIP3    H1 7236   5.187   2.903   1.536
 2424TIP3    H2 7237   5.153   2.822   1.413
 2425TIP3   OH2 7238   4.977   3.046   1.844
 2425TIP3    H1 7239   5.026   3.118   1.883
 2425TIP3    H2 7240   4.923   3.087   1.777
 2426TIP3   OH2 7241   2.663   0.697   2.219
 2426TIP3    H1 7242   2.750   0.660   2.204
 2426TIP3    H2 7243   2.669   0.737   2.305
 2427TIP3   OH2 7244   3.635   6.300   4.971
 2427TIP3    H1 7245   3.643   6.266   4.883
 2427TIP3    H2 7246   3.544   6.332   4.977
 2428TIP3   OH2 7247   3.490   5.115   5.849
 2428TIP3    H1 7248   3.453   5.122   5.937
 2428TIP3    H2 7249   3.504   5.206   5.821
 2429TIP3   OH2 7250   3.033   0.964   3.368
 2429TIP3    H1 7251   2.998   1.029   3.429
 2429TIP3    H2 7252   3.083   1.015   3.304
 2430TIP3   OH2 7253   5.138   4.239   3.636
 2430TIP3    H1 7254   5.134   4.232   3.731
 2430TIP3    H2 7255   5.231   4.239   3.615
 2431TIP3   OH2 7256   4.114   5.790   1.382
 2431TIP3    H1 7257   4.038   5.799   1.325
 2431TIP3    H2 7258   4.171   5.862   1.358
 2432TIP3   OH2 7259   0.162   3.673   3.554
 2432TIP3    H1 7260   0.227   3.717   3.608
 2432TIP3    H2 7261   0.197   3.678   3.465
 2433TIP3   OH2 7262   3.902   4.995   4.400
 2433TIP3    H1 7263   3.813   5.032   4.398
 2433TIP3    H2 7264   3.930   4.998   4.308
 2434TIP3   OH2 7265   1.884   5.623   3.992
 2434TIP3    H1 7266   1.822   5.570   4.042
 2434TIP3    H2 7267   1.893   5.704   4.043
 2435TIP3   OH2 7268   4.151   1.154   0.788
 2435TIP3    H1 7269   4.226   1.198   0.749
 2435TIP3    H2 7270   4.084   1.222   0.794
 2436TIP3   OH2 7271   3.468   6.838   0.400
 2436TIP3    H1 7272   3.504   6.749   0.404
 2436TIP3    H2 7273   3.381   6.829   0.440
 2437TIP3   OH2 7274   1.432   4.887   4.728
 2437TIP3    H1 7275   1.450   4.798   4.757
 2437TIP3    H2 7276   1.364   4.919   4.788
 2438TIP3   OH2 7277   2.733   5.905   3.382
 2438TIP3    H1 7278   2.736   5.970   3.452
 2438TIP3    H2 7279   2.699   5.953   3.306
 2439TIP3   OH2 7280   5.870   0.850   0.711
 2439TIP3    H1 7281   5.776   0.830   0.705
 2439TIP3    H2 7282   5.892   0.886   0.625
 2440TIP3   OH2 7283   3.216   1.577   0.443
 2440TIP3    H1 7284   3.281   1.508   0.456
 2440TIP3    H2 7285   3.190   1.568   0.351
 2441TIP3   OH2 7286   3.698   5.664   0.512
 2441TIP3    H1 7287   3.749   5.714   0.448
 2441TIP3    H2 7288   3.737   5.689   0.597
 2442TIP3   OH2 7289   5.933   6.360   0.462
 2442TIP3    H1 7290   5.857   6.365   0.404
 2442TIP3    H2 7291   5.938   6.447   0.502
 2443TIP3   OH2 7292   0.060   0.907   3.570
 2443TIP3    H1 7293   0.062   0.896   3.665
 2443TIP3    H2 7294   0.148   0.883   3.541
 2444TIP3   OH2 7295   0.180   0.687   5.092
 2444TIP3    H1 7296   0.188   0.605   5.043
 2444TIP3    H2 7297   0.237   0.748   5.046
 2445TIP3   OH2 7298   6.757   6.343   4.937
 2445TIP3    H1 7299   6.716   6.260   4.960
 2445TIP3    H2 7300   6.770   6.338   4.842
 2446TIP3   OH2 7301   6.429   1.875   0.114
 2446TIP3    H1 7302   6.422   1.805   0.180
 2446TIP3    H2 7303   6.496   1.934   0.150
 2447TIP3   OH2 7304   4.980   3.951   1.240
 2447TIP3    H1 7305   4.950   3.862   1.261
 2447TIP3    H2 7306   5.070   3.955   1.272
 2448TIP3   OH2 7307   2.757   6.036   4.230
 2448TIP3    H1 7308   2.718   5.948   4.226
 2448TIP3    H2 7309   2.683   6.093   4.251
 2449TIP3   OH2 7310   0.449   4.074   4.018
 2449TIP3    H1 7311   0.373   4.031   4.056
 2449TIP3    H2 7312   0.414   4.153   3.976
 2450TIP3   OH2 7313   3.858   5.420   5.365
 2450TIP3    H1 7314   3.946   5.402   5.397
 2450TIP3    H2 7315   3.803   5.357   5.412
 2451TIP3   OH2 7316   3.791   4.782   4.734
 2451TIP3    H1 7317   3.883   4.774   4.760
 2451TIP3    H2 7318   3.744   4.723   4.794
 2452TIP3   OH2 7319   5.105   5.108   2.671
 2452TIP3    H1 7320   5.060   5.072   2.747
 2452TIP3    H2 7321   5.142   5.032   2.626
 2453TIP3   OH2 7322   0.683   2.710   2.235
 2453TIP3    H1 7323   0.614   2.644   2.233
 2453TIP3    H2 7324   0.752   2.675   2.179
 2454TIP3   OH2 7325   6.512   4.438   4.643
 2454TIP3    H1 7326   6.565   4.426   4.565
 2454TIP3    H2 7327   6.426   4.404   4.620
 2455TIP3   OH2 7328   2.735   3.187   4.387
 2455TIP3    H1 7329   2.652   3.232   4.405
 2455TIP3    H2 7330   2.776   3.239   4.318
 2456TIP3   OH2 7331   5.561   4.230   3.868
 2456TIP3    H1 7332   5.569   4.210   3.962
 2456TIP3    H2 7333   5.605   4.158   3.824
 2457TIP3   OH2 7334   0.972   2.136   4.235
 2457TIP3    H1 7335   0.946   2.101   4.149
 2457TIP3    H2 7336   1.014   2.220   4.214
 2458TIP3   OH2 7337   5.367   1.021   5.750
 2458TIP3    H1 7338   5.421   0.963   5.803
 2458TIP3    H2 7339   5.279   1.015   5.787
 2459TIP3   OH2 7340   2.049   2.916   2.937
 2459TIP3    H1 7341   1.998   2.839   2.914
 2459TIP3    H2 7342   2.035   2.977   2.865
 2460TIP3   OH2 7343   6.392   3.796   5.884
 2460TIP3    H1 7344   6.342   3.745   5.820
 2460TIP3    H2 7345   6.457   3.842   5.831
 2461TIP3   OH2 7346   6.350   4.017   4.272
 2461TIP3    H1 7347   6.270   4.003   4.323
 2461TIP3    H2 7348   6.334   4.098   4.224
 2462TIP3   OH2 7349   5.849   1.333   0.883
 2462TIP3    H1 7350   5.884   1.251   0.918
 2462TIP3    H2 7351   5.768   1.348   0.931
 2463TIP3   OH2 7352   1.990   0.331   3.936
 2463TIP3    H1 7353   2.045   0.404   3.906
 2463TIP3    H2 7354   1.972   0.351   4.028
 2464TIP3   OH2 7355   3.794   4.649   1.391
 2464TIP3    H1 7356   3.846   4.587   1.340
 2464TIP3    H2 7357   3.704   4.635   1.362
 2465TIP3   OH2 7358   0.122   2.152   5.010
 2465TIP3    H1 7359   0.074   2.235   5.004
 2465TIP3    H2 7360   0.179   2.163   5.085
 2466TIP3   OH2 7361   2.515   6.271   4.735
 2466TIP3    H1 7362   2.487   6.318   4.656
 2466TIP3    H2 7363   2.594   6.317   4.763
 2467TIP3   OH2 7364   3.146   3.148   5.709
 2467TIP3    H1 7365   3.132   3.115   5.798
 2467TIP3    H2 7366   3.178   3.237   5.721
 2468TIP3   OH2 7367   2.039   6.142   1.462
 2468TIP3    H1 7368   2.052   6.202   1.389
 2468TIP3    H2 7369   2.053   6.195   1.541
 2469TIP3   OH2 7370   1.921   5.676   1.606
 2469TIP3    H1 7371   1.972   5.624   1.543
 2469TIP3    H2 7372   1.969   5.758   1.614
 2470TIP3   OH2 7373   1.040   5.800   1.813
 2470TIP3    H1 7374   0.998   5.836   1.735
 2470TIP3    H2 7375   1.102   5.735   1.779
 2471TIP3   OH2 7376  -0.010   3.625   4.579
 2471TIP3    H1 7377   0.031   3.632   4.493
 2471TIP3    H2 7378  -0.027   3.531   4.590
 2472TIP3   OH2 7379   3.506   2.260   0.939
 2472TIP3    H1 7380   3.586   2.214   0.917
 2472TIP3    H2 7381   3.515   2.346   0.897
 2473TIP3   OH2 7382   2.320   2.458   0.467
 2473TIP3    H1 7383   2.331   2.529   0.403
 2473TIP3    H2 7384   2.233   2.472   0.504
 2474TIP3   OH2 7385   6.161   1.739   3.045
 2474TIP3    H1 7386   6.081   1.706   3.087
 2474TIP3    H2 7387   6.228   1.732   3.112
 2475TIP3   OH2 7388   4.373   2.196   2.397
 2475TIP3    H1 7389   4.444   2.154   2.348
 2475TIP3    H2 7390   4.405   2.283   2.418
 2476TIP3   OH2 7391   4.447   4.060   3.865
 2476TIP3    H1 7392   4.422   4.148   3.836
 2476TIP3    H2 7393   4.531   4.073   3.909
 2477TIP3   OH2 7394   0.353   0.902   1.205
 2477TIP3    H1 7395   0.436   0.878   1.164
 2477TIP3    H2 7396   0.363   0.874   1.296
 2478TIP3   OH2 7397   5.470   2.332   4.934
 2478TIP3    H1 7398   5.426   2.275   4.996
 2478TIP3    H2 7399   5.474   2.281   4.853
 2479TIP3   OH2 7400   1.394   3.027   1.662
 2479TIP3    H1 7401   1.381   2.933   1.674
 2479TIP3    H2 7402   1.306   3.064   1.672
 2480TIP3   OH2 7403   0.170   1.589   1.826
 2480TIP3    H1 7404   0.092   1.534   1.815
 2480TIP3    H2 7405   0.209   1.559   1.908
 2481TIP3   OH2 7406   7.178   2.360   5.040
 2481TIP3    H1 7407   7.144   2.404   4.962
 2481TIP3    H2 7408   7.131   2.401   5.113
 2482TIP3   OH2 7409   0.184   1.020   3.244
 2482TIP3    H1 7410   0.252   1.067   3.291
 2482TIP3    H2 7411   0.160   1.078   3.171
 2483TIP3   OH2 7412   2.043   2.550   0.526
 2483TIP3    H1 7413   1.996   2.626   0.491
 2483TIP3    H2 7414   2.022   2.549   0.619
 2484TIP3   OH2 7415   2.991   0.816   0.918
 2484TIP3    H1 7416   3.044   0.747   0.958
 2484TIP3    H2 7417   2.940   0.852   0.991
 2485TIP3   OH2 7418   4.087   5.084   1.686
 2485TIP3    H1 7419   4.088   5.128   1.601
 2485TIP3    H2 7420   4.091   4.991   1.665
 2486TIP3   OH2 7421   7.077   2.480   2.031
 2486TIP3    H1 7422   7.149   2.417   2.024
 2486TIP3    H2 7423   7.032   2.456   2.111
 2487TIP3   OH2 7424   0.960   1.761   4.188
 2487TIP3    H1 7425   0.973   1.827   4.120
 2487TIP3    H2 7426   0.989   1.679   4.148
 2488TIP3   OH2 7427   5.386   6.842   2.894
 2488TIP3    H1 7428   5.444   6.778   2.935
 2488TIP3    H2 7429   5.439   6.880   2.823
 2489TIP3   OH2 7430   2.286   0.438   4.759
 2489TIP3    H1 7431   2.279   0.512   4.698
 2489TIP3    H2 7432   2.199   0.432   4.799
 2490TIP3   OH2 7433   6.743   2.183   4.147
 2490TIP3    H1 7434   6.812   2.148   4.092
 2490TIP3    H2 7435   6.711   2.261   4.100
 2491TIP3   OH2 7436   1.185   1.959   5.247
 2491TIP3    H1 7437   1.161   1.879   5.200
 2491TIP3    H2 7438   1.101   1.999   5.268
 2492TIP3   OH2 7439   1.107   6.040   0.310
 2492TIP3    H1 7440   1.090   6.117   0.365
 2492TIP3    H2 7441   1.074   5.966   0.361
 2493TIP3   OH2 7442   1.616   3.276   0.439
 2493TIP3    H1 7443   1.559   3.321   0.502
 2493TIP3    H2 7444   1.703   3.281   0.478
 2494TIP3   OH2 7445   1.654   3.415   0.199
 2494TIP3    H1 7446   1.626   3.369   0.279
 2494TIP3    H2 7447   1.695   3.495   0.230
 2495TIP3   OH2 7448   2.966   1.881   1.880
 2495TIP3    H1 7449   2.921   1.945   1.826
 2495TIP3    H2 7450   3.059   1.906   1.875
 2496TIP3   OH2 7451   5.647   4.276   3.466
 2496TIP3    H1 7452   5.660   4.243   3.377
 2496TIP3    H2 7453   5.730   4.319   3.487
 2497TIP3   OH2 7454   5.869   0.513   4.093
 2497TIP3    H1 7455   5.802   0.485   4.030
 2497TIP3    H2 7456   5.860   0.608   4.097
 2498TIP3   OH2 7457   1.080   4.785   4.328
 2498TIP3    H1 7458   1.028   4.704   4.332
 2498TIP3    H2 7459   1.171   4.755   4.327
 2499TIP3   OH2 7460   0.302   2.049   2.274
 2499TIP3    H1 7461   0.263   1.979   2.221
 2499TIP3    H2 7462   0.279   2.026   2.365
 2500TIP3   OH2 7463   0.338   0.309   1.417
 2500TIP3    H1 7464   0.380   0.356   1.345
 2500TIP3    H2 7465   0.367   0.354   1.496
 2501TIP3   OH2 7466   5.211   2.582   5.102
 2501TIP3    H1 7467   5.303   2.577   5.077
 2501TIP3    H2 7468   5.189   2.675   5.094
 2502TIP3   OH2 7469   5.052   2.539   0.944
 2502TIP3    H1 7470   5.139   2.536   0.985
 2502TIP3    H2 7471   4.999   2.479   0.996
 2503TIP3   OH2 7472   4.899   0.973   3.870
 2503TIP3    H1 7473   4.945   0.936   3.946
 2503TIP3    H2 7474   4.806   0.962   3.891
 2504TIP3   OH2 7475   0.999   1.343   5.820
 2504TIP3    H1 7476   1.042   1.379   5.898
 2504TIP3    H2 7477   1.051   1.266   5.798
 2505TIP3   OH2 7478   6.795   4.498   0.989
 2505TIP3    H1 7479   6.851   4.574   1.007
 2505TIP3    H2 7480   6.773   4.463   1.075
 2506TIP3   OH2 7481   5.335   5.443   2.503
 2506TIP3    H1 7482   5.256   5.496   2.493
 2506TIP3    H2 7483   5.407   5.503   2.484
 2507TIP3   OH2 7484   5.911   3.106   1.327
 2507TIP3    H1 7485   5.882   3.188   1.367
 2507TIP3    H2 7486   5.868   3.038   1.378
 2508TIP3   OH2 7487   2.685   1.119   1.487
 2508TIP3    H1 7488   2.628   1.091   1.559
 2508TIP3    H2 7489   2.647   1.078   1.409
 2509TIP3   OH2 7490   0.534   1.930   4.041
 2509TIP3    H1 7491   0.567   1.846   4.010
 2509TIP3    H2 7492   0.495   1.972   3.964
 2510TIP3   OH2 7493   5.677   6.087   4.450
 2510TIP3    H1 7494   5.582   6.076   4.443
 2510TIP3    H2 7495   5.690   6.127   4.536
 2511TIP3   OH2 7496   2.817   6.069   1.128
 2511TIP3    H1 7497   2.759   6.016   1.184
 2511TIP3    H2 7498   2.809   6.029   1.042
 2512TIP3   OH2 7499   1.354   2.455   5.412
 2512TIP3    H1 7500   1.333   2.487   5.324
 2512TIP3    H2 7501   1.270   2.430   5.450
 2513TIP3   OH2 7502   1.375   5.233   0.575
 2513TIP3    H1 7503   1.388   5.321   0.539
 2513TIP3    H2 7504   1.280   5.219   0.569
 2514TIP3   OH2 7505   4.532   3.025   5.482
 2514TIP3    H1 7506   4.603   2.999   5.541
 2514TIP3    H2 7507   4.463   2.961   5.499
 2515TIP3   OH2 7508   4.289   4.656   1.253
 2515TIP3    H1 7509   4.264   4.747   1.269
 2515TIP3    H2 7510   4.306   4.652   1.159
 2516TIP3   OH2 7511   6.921   6.043   5.212
 2516TIP3    H1 7512   6.837   6.089   5.208
 2516TIP3    H2 7513   6.901   5.955   5.182
 2517TIP3   OH2 7514   3.486   5.204   1.061
 2517TIP3    H1 7515   3.526   5.134   1.112
 2517TIP3    H2 7516   3.494   5.175   0.970
 2518TIP3   OH2 7517   3.509   1.305   0.011
 2518TIP3    H1 7518   3.574   1.285   0.079
 2518TIP3    H2 7519   3.431   1.256   0.038
 2519TIP3   OH2 7520   1.273   5.318   4.122
 2519TIP3    H1 7521   1.339   5.309   4.190
 2519TIP3    H2 7522   1.255   5.412   4.117
 2520TIP3   OH2 7523   2.421   4.082   5.169
 2520TIP3    H1 7524   2.405   4.120   5.256
 2520TIP3    H2 7525   2.446   3.991   5.187
 2521TIP3   OH2 7526   0.871   4.659   2.787
 2521TIP3    H1 7527   0.908   4.612   2.712
 2521TIP3    H2 7528   0.931   4.732   2.801
 2522TIP3   OH2 7529   0.733   1.464   2.329
 2522TIP3    H1 7530   0.749   1.376   2.294
 2522TIP3    H2 7531   0.639   1.477   2.319
 2523TIP3   OH2 7532   7.160   1.112   4.690
 2523TIP3    H1 7533   7.190   1.069   4.610
 2523TIP3    H2 7534   7.175   1.205   4.674
 2524TIP3   OH2 7535   3.715   3.700   1.007
 2524TIP3    H1 7536   3.795   3.727   1.051
 2524TIP3    H2 7537   3.731   3.716   0.914
 2525TIP3   OH2 7538   5.449   0.025   2.402
 2525TIP3    H1 7539   5.486  -0.042   2.459
 2525TIP3    H2 7540   5.491   0.106   2.429
 2526TIP3   OH2 7541   2.392   4.249   3.379
 2526TIP3    H1 7542   2.354   4.333   3.404
 2526TIP3    H2 7543   2.423   4.211   3.461
 2527TIP3   OH2 7544   1.629   1.648   5.574
 2527TIP3    H1 7545   1.616   1.671   5.482
 2527TIP3    H2 7546   1.712   1.689   5.598
 2528TIP3   OH2 7547   4.103   1.408   3.614
 2528TIP3    H1 7548   4.154   1.471   3.665
 2528TIP3    H2 7549   4.167   1.370   3.553
 2529TIP3   OH2 7550   2.558   6.514   3.688
 2529TIP3    H1 7551   2.597   6.533   3.773
 2529TIP3    H2 7552   2.625   6.465   3.640
 2530TIP3   OH2 7553   7.025   2.231   5.325
 2530TIP3    H1 7554   7.068   2.316   5.317
 2530TIP3    H2 7555   7.096   2.167   5.312
 2531TIP3   OH2 7556   2.863   0.652   1.627
 2531TIP3    H1 7557   2.809   0.721   1.588
 2531TIP3    H2 7558   2.947   0.658   1.581
 2532TIP3   OH2 7559   4.715   5.932   4.654
 2532TIP3    H1 7560   4.692   5.842   4.679
 2532TIP3    H2 7561   4.689   5.985   4.729
 2533TIP3   OH2 7562   6.681   6.107   5.316
 2533TIP3    H1 7563   6.655   6.197   5.332
 2533TIP3    H2 7564   6.621   6.055   5.369
 2534TIP3   OH2 7565   0.110   1.816   3.416
 2534TIP3    H1 7566   0.204   1.810   3.395
 2534TIP3    H2 7567   0.077   1.884   3.357
 2535TIP3   OH2 7568   2.273   5.282   4.754
 2535TIP3    H1 7569   2.313   5.354   4.704
 2535TIP3    H2 7570   2.218   5.236   4.689
 2536TIP3   OH2 7571   6.308   4.988   1.078
 2536TIP3    H1 7572   6.216   4.989   1.051
 2536TIP3    H2 7573   6.315   4.913   1.137
 2537TIP3   OH2 7574   3.244   2.422   0.298
 2537TIP3    H1 7575   3.293   2.429   0.380
 2537TIP3    H2 7576   3.160   2.383   0.324
 2538TIP3   OH2 7577   0.618   6.224   5.574
 2538TIP3    H1 7578   0.661   6.192   5.654
 2538TIP3    H2 7579   0.684   6.213   5.506
 2539TIP3   OH2 7580   2.876   4.303   4.057
 2539TIP3    H1 7581   2.850   4.383   4.013
 2539TIP3    H2 7582   2.803   4.242   4.041
 2540TIP3   OH2 7583   6.882   3.293   2.296
 2540TIP3    H1 7584   6.961   3.317   2.343
 2540TIP3    H2 7585   6.857   3.207   2.332
 2541TIP3   OH2 7586   1.864   3.743   4.862
 2541TIP3    H1 7587   1.821   3.676   4.915
 2541TIP3    H2 7588   1.823   3.825   4.890
 2542TIP3   OH2 7589   2.553   2.752   3.153
 2542TIP3    H1 7590   2.486   2.688   3.131
 2542TIP3    H2 7591   2.538   2.772   3.246
 2543TIP3   OH2 7592   2.280   4.467   5.659
 2543TIP3    H1 7593   2.237   4.516   5.588
 2543TIP3    H2 7594   2.209   4.437   5.715
 2544TIP3   OH2 7595   4.381   2.852   3.480
 2544TIP3    H1 7596   4.432   2.932   3.486
 2544TIP3    H2 7597   4.440   2.789   3.438
 2545TIP3   OH2 7598   0.478   2.516   3.753
 2545TIP3    H1 7599   0.535   2.591   3.773
 2545TIP3    H2 7600   0.469   2.471   3.837
 2546TIP3   OH2 7601   1.302   5.916   5.063
 2546TIP3    H1 7602   1.277   5.832   5.103
 2546TIP3    H2 7603   1.223   5.970   5.070
 2547TIP3   OH2 7604   1.639   5.396   1.518
 2547TIP3    H1 7605   1.624   5.304   1.540
 2547TIP3    H2 7606   1.705   5.394   1.449
 2548TIP3   OH2 7607   0.829   6.366   5.199
 2548TIP3    H1 7608   0.742   6.394   5.228
 2548TIP3    H2 7609   0.813   6.307   5.125
 2549TIP3   OH2 7610   0.615   2.606   0.273
 2549TIP3    H1 7611   0.591   2.590   0.182
 2549TIP3    H2 7612   0.531   2.610   0.320
 2550TIP3   OH2 7613   1.670   4.842   2.609
 2550TIP3    H1 7614   1.626   4.908   2.663
 2550TIP3    H2 7615   1.624   4.760   2.630
 2551TIP3   OH2 7616   5.270   6.295   2.471
 2551TIP3    H1 7617   5.313   6.377   2.448
 2551TIP3    H2 7618   5.227   6.267   2.390
 2552TIP3   OH2 7619   0.887   1.182   3.634
 2552TIP3    H1 7620   0.884   1.275   3.659
 2552TIP3    H2 7621   0.942   1.180   3.556
 2553TIP3   OH2 7622   6.875   3.795   2.436
 2553TIP3    H1 7623   6.840   3.709   2.411
 2553TIP3    H2 7624   6.964   3.776   2.467
 2554TIP3   OH2 7625   0.473   3.727   5.423
 2554TIP3    H1 7626   0.549   3.677   5.394
 2554TIP3    H2 7627   0.479   3.809   5.374
 2555TIP3   OH2 7628   6.936   5.501   2.077
 2555TIP3    H1 7629   6.868   5.565   2.057
 2555TIP3    H2 7630   6.935   5.440   2.003
 2556TIP3   OH2 7631   1.903   2.963   4.991
 2556TIP3    H1 7632   1.956   3.024   4.941
 2556TIP3    H2 7633   1.941   2.877   4.972
 2557TIP3   OH2 7634   6.595   0.030   3.361
 2557TIP3    H1 7635   6.580   0.073   3.445
 2557TIP3    H2 7636   6.511   0.036   3.316
 2558TIP3   OH2 7637   0.959   4.206   3.156
 2558TIP3    H1 7638   0.910   4.214   3.237
 2558TIP3    H2 7639   0.893   4.212   3.087
 2559TIP3   OH2 7640   5.774   6.141   1.849
 2559TIP3    H1 7641   5.851   6.137   1.792
 2559TIP3    H2 7642   5.767   6.053   1.887
 2560TIP3   OH2 7643   0.432   5.083   0.135
 2560TIP3    H1 7644   0.424   5.013   0.070
 2560TIP3    H2 7645   0.380   5.155   0.100
 2561TIP3   OH2 7646   6.039   6.754   5.487
 2561TIP3    H1 7647   6.079   6.815   5.424
 2561TIP3    H2 7648   5.946   6.777   5.486
 2562TIP3   OH2 7649   6.432   2.203   5.571
 2562TIP3    H1 7650   6.354   2.148   5.573
 2562TIP3    H2 7651   6.400   2.292   5.584
 2563TIP3   OH2 7652   2.484   4.300   4.605
 2563TIP3    H1 7653   2.542   4.349   4.547
 2563TIP3    H2 7654   2.396   4.313   4.569
 2564TIP3   OH2 7655   3.189   6.224   1.685
 2564TIP3    H1 7656   3.138   6.305   1.684
 2564TIP3    H2 7657   3.128   6.157   1.653
 2565TIP3   OH2 7658   2.579   6.267   0.919
 2565TIP3    H1 7659   2.509   6.244   0.980
 2565TIP3    H2 7660   2.642   6.315   0.973
 2566TIP3   OH2 7661   0.651   0.482   1.216
 2566TIP3    H1 7662   0.734   0.521   1.243
 2566TIP3    H2 7663   0.625   0.531   1.139
 2567TIP3   OH2 7664   6.963   0.397   5.382
 2567TIP3    H1 7665   6.873   0.425   5.398
 2567TIP3    H2 7666   7.011   0.477   5.361
 2568TIP3   OH2 7667   1.513   5.874   5.456
 2568TIP3    H1 7668   1.533   5.909   5.543
 2568TIP3    H2 7669   1.486   5.951   5.405
 2569TIP3   OH2 7670   6.362   3.344   1.398
 2569TIP3    H1 7671   6.315   3.362   1.316
 2569TIP3    H2 7672   6.405   3.260   1.383
 2570TIP3   OH2 7673   3.211   6.416   0.920
 2570TIP3    H1 7674   3.125   6.396   0.883
 2570TIP3    H2 7675   3.260   6.334   0.911
 2571TIP3   OH2 7676   3.923   1.035   4.244
 2571TIP3    H1 7677   3.906   1.065   4.155
 2571TIP3    H2 7678   3.871   0.955   4.253
 2572TIP3   OH2 7679   3.113   3.868   5.309
 2572TIP3    H1 7680   3.102   3.830   5.396
 2572TIP3    H2 7681   3.200   3.840   5.281
 2573TIP3   OH2 7682   3.334   6.069   4.224
 2573TIP3    H1 7683   3.363   5.978   4.218
 2573TIP3    H2 7684   3.264   6.067   4.289
 2574TIP3   OH2 7685   2.692   5.239   2.291
 2574TIP3    H1 7686   2.751   5.314   2.298
 2574TIP3    H2 7687   2.679   5.228   2.197
 2575TIP3   OH2 7688   5.260   1.465   5.831
 2575TIP3    H1 7689   5.257   1.370   5.842
 2575TIP3    H2 7690   5.195   1.484   5.764
 2576TIP3   OH2 7691   5.095   6.361   0.432
 2576TIP3    H1 7692   5.000   6.351   0.427
 2576TIP3    H2 7693   5.125   6.282   0.478
 2577TIP3   OH2 7694   4.188   0.237   3.948
 2577TIP3    H1 7695   4.149   0.319   3.920
 2577TIP3    H2 7696   4.276   0.261   3.976
 2578TIP3   OH2 7697   5.472   0.757   4.813
 2578TIP3    H1 7698   5.391   0.727   4.771
 2578TIP3    H2 7699   5.453   0.752   4.906
 2579TIP3   OH2 7700   2.410   3.795   5.754
 2579TIP3    H1 7701   2.495   3.768   5.719
 2579TIP3    H2 7702   2.427   3.881   5.792
 2580TIP3   OH2 7703   7.002   6.477   1.737
 2580TIP3    H1 7704   7.046   6.536   1.798
 2580TIP3    H2 7705   7.057   6.399   1.736
 2581TIP3   OH2 7706   1.191   2.168   2.135
 2581TIP3    H1 7707   1.262   2.220   2.096
 2581TIP3    H2 7708   1.142   2.231   2.187
 2582TIP3   OH2 7709   7.000   6.357   5.903
 2582TIP3    H1 7710   6.917   6.312   5.918
 2582TIP3    H2 7711   7.041   6.308   5.831
 2583TIP3   OH2 7712   6.644   1.333   5.396
 2583TIP3    H1 7713   6.561   1.292   5.372
 2583TIP3    H2 7714   6.657   1.307   5.487
 2584TIP3   OH2 7715   4.832   1.236   3.961
 2584TIP3    H1 7716   4.810   1.199   3.875
 2584TIP3    H2 7717   4.911   1.189   3.987
 2585TIP3   OH2 7718   5.977   5.508   2.016
 2585TIP3    H1 7719   5.994   5.419   1.985
 2585TIP3    H2 7720   5.929   5.496   2.098
 2586TIP3   OH2 7721   3.933   1.014   3.532
 2586TIP3    H1 7722   3.875   1.064   3.590
 2586TIP3    H2 7723   3.881   0.998   3.453
 2587TIP3   OH2 7724   0.794   5.206   5.356
 2587TIP3    H1 7725   0.709   5.211   5.400
 2587TIP3    H2 7726   0.849   5.154   5.415
 2588TIP3   OH2 7727   5.551   6.601   4.908
 2588TIP3    H1 7728   5.456   6.602   4.923
 2588TIP3    H2 7729   5.583   6.533   4.968
 2589TIP3   OH2 7730   6.387   4.834   1.504
 2589TIP3    H1 7731   6.393   4.929   1.510
 2589TIP3    H2 7732   6.475   4.803   1.524
 2590TIP3   OH2 7733   5.973   0.291   3.941
 2590TIP3    H1 7734   5.928   0.323   4.019
 2590TIP3    H2 7735   5.924   0.212   3.917
 2591TIP3   OH2 7736   3.124   2.484   3.451
 2591TIP3    H1 7737   3.112   2.578   3.440
 2591TIP3    H2 7738   3.167   2.474   3.535
 2592TIP3   OH2 7739   0.261   4.675   3.716
 2592TIP3    H1 7740   0.348   4.661   3.679
 2592TIP3    H2 7741   0.277   4.718   3.800
 2593TIP3   OH2 7742   5.173   3.494   0.586
 2593TIP3    H1 7743   5.262   3.525   0.571
 2593TIP3    H2 7744   5.185   3.405   0.620
 2594TIP3   OH2 7745   3.729   0.733   5.455
 2594TIP3    H1 7746   3.675   0.805   5.489
 2594TIP3    H2 7747   3.704   0.658   5.508
 2595TIP3   OH2 7748   3.974   4.453   5.583
 2595TIP3    H1 7749   3.903   4.473   5.644
 2595TIP3    H2 7750   4.033   4.527   5.590
 2596TIP3   OH2 7751   1.243   1.925   0.305
 2596TIP3    H1 7752   1.323   1.965   0.270
 2596TIP3    H2 7753   1.268   1.834   0.324
 2597TIP3   OH2 7754   6.877   0.400   4.792
 2597TIP3    H1 7755   6.922   0.325   4.753
 2597TIP3    H2 7756   6.785   0.388   4.769
 2598TIP3   OH2 7757   3.864   3.414   4.316
 2598TIP3    H1 7758   3.790   3.354   4.308
 2598TIP3    H2 7759   3.941   3.358   4.304
 2599TIP3   OH2 7760   6.898   4.265   1.174
 2599TIP3    H1 7761   6.834   4.199   1.150
 2599TIP3    H2 7762   6.957   4.221   1.235
 2600TIP3   OH2 7763   1.966   6.799   2.070
 2600TIP3    H1 7764   1.945   6.868   2.007
 2600TIP3    H2 7765   1.891   6.797   2.130
 2601TIP3   OH2 7766   0.314   6.406   1.421
 2601TIP3    H1 7767   0.273   6.345   1.482
 2601TIP3    H2 7768   0.405   6.377   1.416
 2602TIP3   OH2 7769   1.689   1.896   3.671
 2602TIP3    H1 7770   1.691   1.972   3.730
 2602TIP3    H2 7771   1.781   1.880   3.649
 2603TIP3   OH2 7772   2.949   0.225   0.085
 2603TIP3    H1 7773   2.957   0.130   0.100
 2603TIP3    H2 7774   2.954   0.263   0.173
 2604TIP3   OH2 7775   7.100   4.706   0.937
 2604TIP3    H1 7776   7.041   4.748   1.000
 2604TIP3    H2 7777   7.159   4.654   0.991
 2605TIP3   OH2 7778   5.413   5.850   2.740
 2605TIP3    H1 7779   5.334   5.892   2.704
 2605TIP3    H2 7780   5.388   5.758   2.751
 2606TIP3   OH2 7781   4.375   6.636   3.591
 2606TIP3    H1 7782   4.382   6.615   3.497
 2606TIP3    H2 7783   4.445   6.699   3.606
 2607TIP3   OH2 7784   1.676   5.618   2.169
 2607TIP3    H1 7785   1.589   5.634   2.206
 2607TIP3    H2 7786   1.731   5.687   2.208
 2608TIP3   OH2 7787   2.491   2.917   0.186
 2608TIP3    H1 7788   2.515   2.958   0.269
 2608TIP3    H2 7789   2.516   2.825   0.196
 2609TIP3   OH2 7790   6.370   3.261   1.809
 2609TIP3    H1 7791   6.429   3.187   1.818
 2609TIP3    H2 7792   6.419   3.326   1.758
 2610TIP3   OH2 7793   3.602   1.101   3.202
 2610TIP3    H1 7794   3.557   1.176   3.240
 2610TIP3    H2 7795   3.634   1.133   3.117
 2611TIP3   OH2 7796   3.760   0.132   5.470
 2611TIP3    H1 7797   3.698   0.074   5.512
 2611TIP3    H2 7798   3.801   0.180   5.542
 2612TIP3   OH2 7799   0.089   3.473   3.308
 2612TIP3    H1 7800   0.061   3.562   3.330
 2612TIP3    H2 7801   0.085   3.470   3.213
 2613TIP3   OH2 7802   2.073   5.913   0.970
 2613TIP3    H1 7803   2.049   5.987   0.914
 2613TIP3    H2 7804   2.070   5.837   0.911
 2614TIP3   OH2 7805   2.259   2.193   1.964
 2614TIP3    H1 7806   2.186   2.217   1.907
 2614TIP3    H2 7807   2.221   2.187   2.052
 2615TIP3   OH2 7808   4.211   1.575   5.794
 2615TIP3    H1 7809   4.267   1.502   5.768
 2615TIP3    H2 7810   4.122   1.544   5.778
 2616TIP3   OH2 7811   6.604   2.387   3.266
 2616TIP3    H1 7812   6.683   2.373   3.319
 2616TIP3    H2 7813   6.634   2.444   3.194
 2617TIP3   OH2 7814   2.327   5.925   2.336
 2617TIP3    H1 7815   2.364   5.837   2.328
 2617TIP3    H2 7816   2.400   5.979   2.365
 2618TIP3   OH2 7817   3.077   3.114   1.731
 2618TIP3    H1 7818   3.037   3.162   1.804
 2618TIP3    H2 7819   3.104   3.031   1.769
 2619TIP3   OH2 7820   2.189   6.464   2.289
 2619TIP3    H1 7821   2.112   6.491   2.240
 2619TIP3    H2 7822   2.232   6.400   2.233
 2620TIP3   OH2 7823   7.013   1.127   1.864
 2620TIP3    H1 7824   7.013   1.185   1.788
 2620TIP3    H2 7825   6.973   1.179   1.934
 2621TIP3   OH2 7826   4.681   2.405   5.136
 2621TIP3    H1 7827   4.696   2.322   5.182
 2621TIP3    H2 7828   4.707   2.472   5.199
 2622TIP3   OH2 7829   0.080   3.531   1.447
 2622TIP3    H1 7830   0.101   3.438   1.452
 2622TIP3    H2 7831   0.146   3.574   1.501
 2623TIP3   OH2 7832   1.587   3.088   1.483
 2623TIP3    H1 7833   1.523   3.076   1.553
 2623TIP3    H2 7834   1.580   3.009   1.430
 2624TIP3   OH2 7835   2.205   1.327   4.558
 2624TIP3    H1 7836   2.205   1.252   4.618
 2624TIP3    H2 7837   2.130   1.311   4.501
 2625TIP3   OH2 7838   0.629   0.428   5.626
 2625TIP3    H1 7839   0.575   0.370   5.572
 2625TIP3    H2 7840   0.681   0.478   5.563
 2626TIP3   OH2 7841   2.773   2.775   3.539
 2626TIP3    H1 7842   2.861   2.812   3.542
 2626TIP3    H2 7843   2.779   2.692   3.586
 2627TIP3   OH2 7844   0.834   6.173   3.065
 2627TIP3    H1 7845   0.913   6.134   3.028
 2627TIP3    H2 7846   0.844   6.162   3.159
 2628TIP3   OH2 7847   0.663   0.961   2.889
 2628TIP3    H1 7848   0.578   0.943   2.930
 2628TIP3    H2 7849   0.681   1.052   2.910
 2629TIP3   OH2 7850   5.404   0.437   0.794
 2629TIP3    H1 7851   5.492   0.435   0.757
 2629TIP3    H2 7852   5.417   0.441   0.888
 2630TIP3   OH2 7853   4.833   6.475   1.686
 2630TIP3    H1 7854   4.924   6.503   1.695
 2630TIP3    H2 7855   4.832   6.384   1.716
 2631TIP3   OH2 7856   0.211   1.320   4.150
 2631TIP3    H1 7857   0.165   1.286   4.226
 2631TIP3    H2 7858   0.141   1.347   4.090
 2632TIP3   OH2 7859   5.879   4.387   2.398
 2632TIP3    H1 7860   5.943   4.397   2.469
 2632TIP3    H2 7861   5.860   4.477   2.370
 2633TIP3   OH2 7862   0.319   0.094   4.872
 2633TIP3    H1 7863   0.413   0.098   4.883
 2633TIP3    H2 7864   0.296   0.175   4.826
 2634TIP3   OH2 7865   1.003   2.556   0.462
 2634TIP3    H1 7866   0.974   2.645   0.442
 2634TIP3    H2 7867   1.099   2.561   0.464
 2635TIP3   OH2 7868   6.446   6.274   5.656
 2635TIP3    H1 7869   6.424   6.365   5.635
 2635TIP3    H2 7870   6.400   6.257   5.738
 2636TIP3   OH2 7871   6.669   0.952   4.788
 2636TIP3    H1 7872   6.593   0.969   4.732
 2636TIP3    H2 7873   6.709   0.873   4.751
 2637TIP3   OH2 7874   0.956   6.604   3.679
 2637TIP3    H1 7875   1.001   6.579   3.759
 2637TIP3    H2 7876   0.896   6.674   3.706
 2638TIP3   OH2 7877   0.515   1.758   5.342
 2638TIP3    H1 7878   0.552   1.774   5.256
 2638TIP3    H2 7879   0.468   1.675   5.333
 2639TIP3   OH2 7880   3.402   3.521   4.542
 2639TIP3    H1 7881   3.423   3.606   4.503
 2639TIP3    H2 7882   3.487   3.479   4.555
 2640TIP3   OH2 7883   2.089   6.655   4.375
 2640TIP3    H1 7884   2.140   6.632   4.453
 2640TIP3    H2 7885   2.074   6.750   4.384
 2641TIP3   OH2 7886   2.563   3.093   4.808
 2641TIP3    H1 7887   2.633   3.124   4.750
 2641TIP3    H2 7888   2.488   3.079   4.750
 2642TIP3   OH2 7889   2.101   1.296   0.786
 2642TIP3    H1 7890   2.195   1.301   0.799
 2642TIP3    H2 7891   2.066   1.373   0.832
 2643TIP3   OH2 7892   5.730   1.841   3.869
 2643TIP3    H1 7893   5.760   1.926   3.836
 2643TIP3    H2 7894   5.635   1.845   3.862
 2644TIP3   OH2 7895   7.084   6.398   0.855
 2644TIP3    H1 7896   7.129   6.330   0.905
 2644TIP3    H2 7897   7.006   6.354   0.820
 2645TIP3   OH2 7898   4.802   0.894   2.314
 2645TIP3    H1 7899   4.775   0.919   2.402
 2645TIP3    H2 7900   4.805   0.976   2.265
 2646TIP3   OH2 7901   6.723   2.730   0.870
 2646TIP3    H1 7902   6.652   2.715   0.931
 2646TIP3    H2 7903   6.793   2.672   0.899
 2647TIP3   OH2 7904   6.635   5.379   5.332
 2647TIP3    H1 7905   6.666   5.455   5.282
 2647TIP3    H2 7906   6.715   5.342   5.370
 2648TIP3   OH2 7907   4.612   2.690   4.384
 2648TIP3    H1 7908   4.636   2.746   4.310
 2648TIP3    H2 7909   4.628   2.744   4.461
 2649TIP3   OH2 7910   7.019   0.753   1.196
 2649TIP3    H1 7911   7.039   0.660   1.191
 2649TIP3    H2 7912   6.966   0.771   1.118
 2650TIP3   OH2 7913   2.443   0.827   5.909
 2650TIP3    H1 7914   2.417   0.899   5.851
 2650TIP3    H2 7915   2.488   0.870   5.982
 2651TIP3   OH2 7916   4.665   6.228   3.721
 2651TIP3    H1 7917   4.629   6.144   3.749
 2651TIP3    H2 7918   4.677   6.278   3.803
 2652TIP3   OH2 7919   3.854   5.481   3.242
 2652TIP3    H1 7920   3.920   5.510   3.179
 2652TIP3    H2 7921   3.809   5.562   3.267
 2653TIP3   OH2 7922   2.517   0.367   0.270
 2653TIP3    H1 7923   2.422   0.371   0.262
 2653TIP3    H2 7924   2.541   0.446   0.319
 2654TIP3   OH2 7925   4.437   6.342   2.349
 2654TIP3    H1 7926   4.369   6.291   2.393
 2654TIP3    H2 7927   4.421   6.432   2.378
 2655TIP3   OH2 7928   0.380   2.316   3.972
 2655TIP3    H1 7929   0.411   2.282   4.056
 2655TIP3    H2 7930   0.323   2.247   3.938
 2656TIP3   OH2 7931   3.651   6.170   0.927
 2656TIP3    H1 7932   3.710   6.099   0.904
 2656TIP3    H2 7933   3.700   6.223   0.990
 2657TIP3   OH2 7934   5.589   5.402   3.418
 2657TIP3    H1 7935   5.541   5.334   3.466
 2657TIP3    H2 7936   5.576   5.380   3.326
 2658TIP3   OH2 7937   4.540   3.399   0.845
 2658TIP3    H1 7938   4.472   3.340   0.814
 2658TIP3    H2 7939   4.610   3.391   0.780
 2659TIP3   OH2 7940   5.186   5.610   0.595
 2659TIP3    H1 7941   5.120   5.670   0.562
 2659TIP3    H2 7942   5.254   5.666   0.633
 2660TIP3   OH2 7943   4.688   2.288   5.712
 2660TIP3    H1 7944   4.648   2.277   5.798
 2660TIP3    H2 7945   4.625   2.340   5.662
 2661TIP3   OH2 7946   5.671   1.979   5.441
 2661TIP3    H1 7947   5.762   1.998   5.420
 2661TIP3    H2 7948   5.621   2.035   5.381
 2662TIP3   OH2 7949   5.272   3.393   1.985
 2662TIP3    H1 7950   5.319   3.448   1.923
 2662TIP3    H2 7951   5.228   3.455   2.044
 2663TIP3   OH2 7952   0.437   5.059   4.192
 2663TIP3    H1 7953   0.523   5.080   4.230
 2663TIP3    H2 7954   0.448   4.972   4.154
 2664TIP3   OH2 7955   5.811   6.491   5.022
 2664TIP3    H1 7956   5.904   6.491   5.044
 2664TIP3    H2 7957   5.770   6.438   5.090
 2665TIP3   OH2 7958   6.518   5.736   4.001
 2665TIP3    H1 7959   6.429   5.703   4.014
 2665TIP3    H2 7960   6.565   5.663   3.960
 2666TIP3   OH2 7961   3.907   6.746   5.830
 2666TIP3    H1 7962   3.964   6.698   5.891
 2666TIP3    H2 7963   3.953   6.828   5.814
 2667TIP3   OH2 7964   4.033   0.496   5.715
 2667TIP3    H1 7965   4.117   0.543   5.719
 2667TIP3    H2 7966   3.970   0.557   5.753
 2668TIP3   OH2 7967   2.897   1.503   4.526
 2668TIP3    H1 7968   2.863   1.479   4.612
 2668TIP3    H2 7969   2.831   1.471   4.464
 2669TIP3   OH2 7970   5.257   3.294   5.174
 2669TIP3    H1 7971   5.314   3.370   5.155
 2669TIP3    H2 7972   5.173   3.317   5.136
 2670TIP3   OH2 7973   0.922   1.348   2.808
 2670TIP3    H1 7974   0.916   1.381   2.718
 2670TIP3    H2 7975   1.013   1.320   2.817
 2671TIP3   OH2 7976   5.088   0.224   4.517
 2671TIP3    H1 7977   5.105   0.265   4.432
 2671TIP3    H2 7978   5.037   0.145   4.496
 2672TIP3   OH2 7979   2.221   1.441   1.625
 2672TIP3    H1 7980   2.161   1.509   1.596
 2672TIP3    H2 7981   2.304   1.487   1.640
 2673TIP3   OH2 7982   3.461   2.168   3.135
 2673TIP3    H1 7983   3.474   2.081   3.173
 2673TIP3    H2 7984   3.520   2.171   3.060
 2674TIP3   OH2 7985   3.963   2.314   3.667
 2674TIP3    H1 7986   3.925   2.228   3.647
 2674TIP3    H2 7987   3.955   2.363   3.585
 2675TIP3   OH2 7988   6.910   0.044   3.777
 2675TIP3    H1 7989   6.902   0.139   3.778
 2675TIP3    H2 7990   6.907   0.019   3.870
 2676TIP3   OH2 7991   1.232   1.189   1.927
 2676TIP3    H1 7992   1.326   1.198   1.910
 2676TIP3    H2 7993   1.228   1.132   2.004
 2677TIP3   OH2 7994   3.173   1.295   5.822
 2677TIP3    H1 7995   3.224   1.370   5.852
 2677TIP3    H2 7996   3.141   1.321   5.735
 2678TIP3   OH2 7997   3.643   0.188   2.940
 2678TIP3    H1 7998   3.585   0.251   2.983
 2678TIP3    H2 7999   3.704   0.161   3.009
 2679TIP3   OH2 8000   2.428   6.628   2.196
 2679TIP3    H1 8001   2.347   6.679   2.200
 2679TIP3    H2 8002   2.429   6.592   2.107
 2680TIP3   OH2 8003   5.355   6.544   4.129
 2680TIP3    H1 8004   5.347   6.635   4.101
 2680TIP3    H2 8005   5.329   6.544   4.222
 2681TIP3   OH2 8006   5.811   0.882   1.142
 2681TIP3    H1 8007   5.840   0.887   1.233
 2681TIP3    H2 8008   5.758   0.960   1.129
 2682TIP3   OH2 8009   5.674   6.096   2.831
 2682TIP3    H1 8010   5.614   6.130   2.764
 2682TIP3    H2 8011   5.622   6.092   2.911
 2683TIP3   OH2 8012   7.143   0.970   3.222
 2683TIP3    H1 8013   7.107   0.940   3.305
 2683TIP3    H2 8014   7.238   0.963   3.233
 2684TIP3   OH2 8015   5.880   2.277   5.205
 2684TIP3    H1 8016   5.821   2.344   5.170
 2684TIP3    H2 8017   5.841   2.194   5.179
 2685TIP3   OH2 8018   4.835   5.402   5.393
 2685TIP3    H1 8019   4.746   5.431   5.409
 2685TIP3    H2 8020   4.830   5.353   5.311
 2686TIP3   OH2 8021   1.506   4.335   5.625
 2686TIP3    H1 8022   1.508   4.393   5.549
 2686TIP3    H2 8023   1.481   4.391   5.697
 2687TIP3   OH2 8024   5.427   0.201   2.965
 2687TIP3    H1 8025   5.470   0.183   3.049
 2687TIP3    H2 8026   5.430   0.296   2.956
 2688TIP3   OH2 8027   6.714   2.825   4.351
 2688TIP3    H1 8028   6.704   2.811   4.445
 2688TIP3    H2 8029   6.726   2.920   4.342
 2689TIP3   OH2 8030   4.650   1.368   2.992
 2689TIP3    H1 8031   4.613   1.427   2.926
 2689TIP3    H2 8032   4.740   1.352   2.962
 2690TIP3   OH2 8033   5.159   1.126   5.476
 2690TIP3    H1 8034   5.145   1.032   5.486
 2690TIP3    H2 8035   5.110   1.150   5.397
 2691TIP3   OH2 8036   4.153   1.495   4.158
 2691TIP3    H1 8037   4.075   1.479   4.212
 2691TIP3    H2 8038   4.175   1.587   4.173
 2692TIP3   OH2 8039   1.116   5.727   2.122
 2692TIP3    H1 8040   1.206   5.727   2.089
 2692TIP3    H2 8041   1.062   5.708   2.046
 2693TIP3   OH2 8042   4.445   1.797   5.242
 2693TIP3    H1 8043   4.461   1.706   5.264
 2693TIP3    H2 8044   4.362   1.819   5.285
 2694TIP3   OH2 8045   4.116   5.322   4.129
 2694TIP3    H1 8046   4.139   5.381   4.058
 2694TIP3    H2 8047   4.020   5.322   4.131
 2695TIP3   OH2 8048   6.487   6.101   3.954
 2695TIP3    H1 8049   6.477   6.196   3.954
 2695TIP3    H2 8050   6.547   6.083   3.881
 2696TIP3   OH2 8051   4.707   0.754   0.187
 2696TIP3    H1 8052   4.745   0.836   0.155
 2696TIP3    H2 8053   4.783   0.700   0.209
 2697TIP3   OH2 8054   7.226   5.215   2.845
 2697TIP3    H1 8055   7.304   5.267   2.864
 2697TIP3    H2 8056   7.202   5.176   2.929
 2698TIP3   OH2 8057   1.827   2.151   5.210
 2698TIP3    H1 8058   1.909   2.186   5.246
 2698TIP3    H2 8059   1.768   2.226   5.206
 2699TIP3   OH2 8060   5.328   4.233   4.269
 2699TIP3    H1 8061   5.296   4.322   4.283
 2699TIP3    H2 8062   5.348   4.228   4.175
 2700TIP3   OH2 8063   1.010   5.251   5.711
 2700TIP3    H1 8064   1.019   5.216   5.799
 2700TIP3    H2 8065   1.031   5.344   5.719
 2701TIP3   OH2 8066   1.475   4.606   4.829
 2701TIP3    H1 8067   1.435   4.520   4.845
 2701TIP3    H2 8068   1.563   4.598   4.866
 2702TIP3   OH2 8069   5.813   3.351   1.395
 2702TIP3    H1 8070   5.749   3.315   1.456
 2702TIP3    H2 8071   5.800   3.446   1.401
 2703TIP3   OH2 8072   2.588   1.369   4.170
 2703TIP3    H1 8073   2.531   1.365   4.094
 2703TIP3    H2 8074   2.540   1.424   4.233
 2704TIP3   OH2 8075   5.817   3.244   1.010
 2704TIP3    H1 8076   5.866   3.325   1.017
 2704TIP3    H2 8077   5.834   3.198   1.092
 2705TIP3   OH2 8078   6.565   2.598   3.022
 2705TIP3    H1 8079   6.601   2.638   3.101
 2705TIP3    H2 8080   6.528   2.670   2.972
 2706TIP3   OH2 8081   0.640   1.022   4.092
 2706TIP3    H1 8082   0.653   1.107   4.135
 2706TIP3    H2 8083   0.664   1.037   4.001
 2707TIP3   OH2 8084   5.132   4.772   5.522
 2707TIP3    H1 8085   5.127   4.815   5.437
 2707TIP3    H2 8086   5.083   4.831   5.581
 2708TIP3   OH2 8087   6.394   3.400   1.116
 2708TIP3    H1 8088   6.420   3.492   1.111
 2708TIP3    H2 8089   6.477   3.352   1.123
 2709TIP3   OH2 8090   3.049   3.639   4.383
 2709TIP3    H1 8091   3.109   3.657   4.311
 2709TIP3    H2 8092   3.012   3.725   4.405
 2710TIP3   OH2 8093   2.511   5.339   1.110
 2710TIP3    H1 8094   2.426   5.361   1.148
 2710TIP3    H2 8095   2.574   5.380   1.168
 2711TIP3   OH2 8096   3.372   6.631   4.561
 2711TIP3    H1 8097   3.321   6.700   4.519
 2711TIP3    H2 8098   3.460   6.667   4.569
 2712TIP3   OH2 8099   5.786   0.147   2.777
 2712TIP3    H1 8100   5.813   0.236   2.756
 2712TIP3    H2 8101   5.799   0.140   2.872
 2713TIP3   OH2 8102   0.820   4.918   3.099
 2713TIP3    H1 8103   0.891   4.871   3.054
 2713TIP3    H2 8104   0.742   4.898   3.046
 2714TIP3   OH2 8105   1.804   2.673   3.395
 2714TIP3    H1 8106   1.811   2.702   3.304
 2714TIP3    H2 8107   1.890   2.692   3.433
 2715TIP3   OH2 8108   5.811   5.460   3.236
 2715TIP3    H1 8109   5.781   5.426   3.320
 2715TIP3    H2 8110   5.796   5.388   3.175
 2716TIP3   OH2 8111   3.286   2.892   0.210
 2716TIP3    H1 8112   3.238   2.832   0.268
 2716TIP3    H2 8113   3.333   2.835   0.150
 2717TIP3   OH2 8114   0.057   4.820   1.243
 2717TIP3    H1 8115  -0.016   4.880   1.227
 2717TIP3    H2 8116   0.084   4.839   1.333
 2718TIP3   OH2 8117   6.734   4.843   2.381
 2718TIP3    H1 8118   6.759   4.844   2.289
 2718TIP3    H2 8119   6.800   4.896   2.425
 2719TIP3   OH2 8120   5.049   5.325   4.111
 2719TIP3    H1 8121   4.960   5.299   4.087
 2719TIP3    H2 8122   5.040   5.362   4.199
 2720TIP3   OH2 8123   2.745   5.535   5.641
 2720TIP3    H1 8124   2.780   5.446   5.648
 2720TIP3    H2 8125   2.693   5.534   5.560
 2721TIP3   OH2 8126   4.515   1.267   0.946
 2721TIP3    H1 8127   4.512   1.351   0.992
 2721TIP3    H2 8128   4.534   1.203   1.014
 2722TIP3   OH2 8129   3.591   4.337   3.409
 2722TIP3    H1 8130   3.503   4.328   3.371
 2722TIP3    H2 8131   3.575   4.358   3.501
 2723TIP3   OH2 8132   2.504   0.714   3.899
 2723TIP3    H1 8133   2.573   0.655   3.930
 2723TIP3    H2 8134   2.485   0.771   3.973
 2724TIP3   OH2 8135   4.160   3.899   1.643
 2724TIP3    H1 8136   4.165   3.991   1.617
 2724TIP3    H2 8137   4.122   3.854   1.568
 2725TIP3   OH2 8138   2.569   0.921   1.055
 2725TIP3    H1 8139   2.516   0.969   1.120
 2725TIP3    H2 8140   2.504   0.885   0.994
 2726TIP3   OH2 8141   4.098   1.581   1.566
 2726TIP3    H1 8142   4.179   1.608   1.521
 2726TIP3    H2 8143   4.111   1.487   1.583
 2727TIP3   OH2 8144   2.682   2.202   5.559
 2727TIP3    H1 8145   2.702   2.138   5.627
 2727TIP3    H2 8146   2.620   2.263   5.600
 2728TIP3   OH2 8147   3.347   4.643   4.018
 2728TIP3    H1 8148   3.368   4.660   3.926
 2728TIP3    H2 8149   3.270   4.698   4.035
 2729TIP3   OH2 8150   4.633   2.078   1.003
 2729TIP3    H1 8151   4.572   2.005   0.992
 2729TIP3    H2 8152   4.650   2.108   0.914
 2730TIP3   OH2 8153   3.170   3.206   2.609
 2730TIP3    H1 8154   3.138   3.171   2.526
 2730TIP3    H2 8155   3.265   3.195   2.605
 2731TIP3   OH2 8156   1.023   2.401   5.205
 2731TIP3    H1 8157   1.069   2.480   5.177
 2731TIP3    H2 8158   1.067   2.376   5.287
 2732TIP3   OH2 8159   3.165   5.335   0.702
 2732TIP3    H1 8160   3.200   5.387   0.630
 2732TIP3    H2 8161   3.088   5.292   0.665
 2733TIP3   OH2 8162   2.043   1.192   2.466
 2733TIP3    H1 8163   1.987   1.132   2.515
 2733TIP3    H2 8164   2.115   1.211   2.526
 2734TIP3   OH2 8165   3.480   1.060   3.764
 2734TIP3    H1 8166   3.487   0.980   3.815
 2734TIP3    H2 8167   3.440   1.123   3.824
 2735TIP3   OH2 8168   6.467   1.129   3.048
 2735TIP3    H1 8169   6.554   1.147   3.085
 2735TIP3    H2 8170   6.439   1.212   3.011
 2736TIP3   OH2 8171   4.674   3.462   1.667
 2736TIP3    H1 8172   4.584   3.485   1.691
 2736TIP3    H2 8173   4.696   3.522   1.596
 2737TIP3   OH2 8174   0.344   6.105   2.173
 2737TIP3    H1 8175   0.360   6.011   2.160
 2737TIP3    H2 8176   0.349   6.118   2.267
 2738TIP3   OH2 8177   6.404   5.321   1.916
 2738TIP3    H1 8178   6.406   5.409   1.879
 2738TIP3    H2 8179   6.399   5.335   2.011
 2739TIP3   OH2 8180   4.081   3.324   5.304
 2739TIP3    H1 8181   4.079   3.420   5.310
 2739TIP3    H2 8182   4.173   3.301   5.312
 2740TIP3   OH2 8183   7.101   0.673   1.852
 2740TIP3    H1 8184   7.118   0.608   1.784
 2740TIP3    H2 8185   7.006   0.673   1.863
 2741TIP3   OH2 8186   5.216   5.386   3.540
 2741TIP3    H1 8187   5.286   5.325   3.560
 2741TIP3    H2 8188   5.136   5.333   3.545
 2742TIP3   OH2 8189   4.881   3.293   3.101
 2742TIP3    H1 8190   4.870   3.207   3.060
 2742TIP3    H2 8191   4.918   3.274   3.187
 2743TIP3   OH2 8192   3.381   5.678   3.665
 2743TIP3    H1 8193   3.324   5.712   3.596
 2743TIP3    H2 8194   3.394   5.752   3.724
 2744TIP3   OH2 8195   0.597   5.154   0.339
 2744TIP3    H1 8196   0.540   5.140   0.264
 2744TIP3    H2 8197   0.582   5.078   0.395
 2745TIP3   OH2 8198   5.200   0.924   4.610
 2745TIP3    H1 8199   5.220   1.009   4.572
 2745TIP3    H2 8200   5.272   0.868   4.583
 2746TIP3   OH2 8201   6.993   5.465   5.081
 2746TIP3    H1 8202   6.936   5.458   5.158
 2746TIP3    H2 8203   7.064   5.403   5.098
 2747TIP3   OH2 8204   3.286   3.946   4.260
 2747TIP3    H1 8205   3.332   4.021   4.297
 2747TIP3    H2 8206   3.216   3.927   4.323
 2748TIP3   OH2 8207   0.708   3.672   3.139
 2748TIP3    H1 8208   0.615   3.650   3.149
 2748TIP3    H2 8209   0.750   3.633   3.215
 2749TIP3   OH2 8210   2.721   6.032   5.707
 2749TIP3    H1 8211   2.690   5.942   5.717
 2749TIP3    H2 8212   2.647   6.086   5.734
 2750TIP3   OH2 8213   5.539   5.118   3.381
 2750TIP3    H1 8214   5.505   5.155   3.299
 2750TIP3    H2 8215   5.506   5.028   3.382
 2751TIP3   OH2 8216   0.718   0.703   1.970
 2751TIP3    H1 8217   0.693   0.655   1.891
 2751TIP3    H2 8218   0.648   0.683   2.033
 2752TIP3   OH2 8219   6.920   3.280   5.422
 2752TIP3    H1 8220   6.929   3.244   5.334
 2752TIP3    H2 8221   6.827   3.275   5.441
 2753TIP3   OH2 8222   4.281   6.234   2.994
 2753TIP3    H1 8223   4.251   6.323   3.012
 2753TIP3    H2 8224   4.305   6.236   2.901
 2754TIP3   OH2 8225   4.558   3.167   1.240
 2754TIP3    H1 8226   4.640   3.186   1.194
 2754TIP3    H2 8227   4.574   3.194   1.330
 2755TIP3   OH2 8228   5.841   4.418   1.025
 2755TIP3    H1 8229   5.757   4.402   1.067
 2755TIP3    H2 8230   5.866   4.334   0.988
 2756TIP3   OH2 8231   6.891   5.067   2.485
 2756TIP3    H1 8232   6.804   5.102   2.505
 2756TIP3    H2 8233   6.933   5.055   2.571
 2757TIP3   OH2 8234   5.331   0.396   2.700
 2757TIP3    H1 8235   5.387   0.436   2.633
 2757TIP3    H2 8236   5.373   0.420   2.783
 2758TIP3   OH2 8237   5.555   1.842   2.940
 2758TIP3    H1 8238   5.542   1.836   3.035
 2758TIP3    H2 8239   5.467   1.860   2.905
 2759TIP3   OH2 8240   2.836   4.957   0.061
 2759TIP3    H1 8241   2.907   5.014   0.032
 2759TIP3    H2 8242   2.800   5.002   0.138
 2760TIP3   OH2 8243   1.687   1.961   1.416
 2760TIP3    H1 8244   1.657   1.900   1.348
 2760TIP3    H2 8245   1.610   1.975   1.471
 2761TIP3   OH2 8246   4.472   0.078   3.762
 2761TIP3    H1 8247   4.523   0.055   3.839
 2761TIP3    H2 8248   4.537   0.088   3.692
 2762TIP3   OH2 8249   2.271   6.559   3.603
 2762TIP3    H1 8250   2.354   6.572   3.648
 2762TIP3    H2 8251   2.282   6.478   3.553
 2763TIP3   OH2 8252   2.089   2.189   2.171
 2763TIP3    H1 8253   1.998   2.159   2.172
 2763TIP3    H2 8254   2.086   2.276   2.209
 2764TIP3   OH2 8255   5.326   2.864   5.401
 2764TIP3    H1 8256   5.373   2.883   5.320
 2764TIP3    H2 8257   5.265   2.937   5.410
 2765TIP3   OH2 8258   2.189   2.774   2.559
 2765TIP3    H1 8259   2.101   2.749   2.532
 2765TIP3    H2 8260   2.190   2.869   2.556
 2766TIP3   OH2 8261   0.206   6.372   0.468
 2766TIP3    H1 8262   0.113   6.356   0.483
 2766TIP3    H2 8263   0.244   6.378   0.556
 2767TIP3   OH2 8264   1.651   5.025   3.082
 2767TIP3    H1 8265   1.689   5.096   3.133
 2767TIP3    H2 8266   1.614   5.068   3.005
 2768TIP3   OH2 8267   1.427   2.356   2.712
 2768TIP3    H1 8268   1.417   2.338   2.619
 2768TIP3    H2 8269   1.521   2.357   2.726
 2769TIP3   OH2 8270   5.466   0.806   5.082
 2769TIP3    H1 8271   5.385   0.793   5.132
 2769TIP3    H2 8272   5.536   0.801   5.147
 2770TIP3   OH2 8273   3.826   6.241   3.162
 2770TIP3    H1 8274   3.737   6.253   3.130
 2770TIP3    H2 8275   3.846   6.322   3.209
 2771TIP3   OH2 8276   4.680   2.547   0.054
 2771TIP3    H1 8277   4.638   2.614   0.108
 2771TIP3    H2 8278   4.742   2.505   0.113
 2772TIP3   OH2 8279   6.733   6.050   0.544
 2772TIP3    H1 8280   6.657   6.081   0.594
 2772TIP3    H2 8281   6.695   5.998   0.474
 2773TIP3   OH2 8282   2.385   4.430   2.729
 2773TIP3    H1 8283   2.399   4.503   2.790
 2773TIP3    H2 8284   2.290   4.430   2.713
 2774TIP3   OH2 8285   1.653   0.351   0.961
 2774TIP3    H1 8286   1.573   0.299   0.964
 2774TIP3    H2 8287   1.723   0.287   0.942
 2775TIP3   OH2 8288   3.681   3.963   1.869
 2775TIP3    H1 8289   3.756   3.950   1.927
 2775TIP3    H2 8290   3.701   3.908   1.793
 2776TIP3   OH2 8291   1.139   4.131   0.723
 2776TIP3    H1 8292   1.196   4.068   0.767
 2776TIP3    H2 8293   1.196   4.173   0.658
 2777TIP3   OH2 8294   2.551   5.078   5.253
 2777TIP3    H1 8295   2.554   5.003   5.194
 2777TIP3    H2 8296   2.487   5.053   5.320
 2778TIP3   OH2 8297   4.537   5.272   0.899
 2778TIP3    H1 8298   4.511   5.198   0.843
 2778TIP3    H2 8299   4.631   5.283   0.881
 2779TIP3   OH2 8300   3.470   3.849   0.388
 2779TIP3    H1 8301   3.437   3.930   0.427
 2779TIP3    H2 8302   3.446   3.855   0.296
 2780TIP3   OH2 8303   2.091   0.343   0.769
 2780TIP3    H1 8304   2.073   0.429   0.808
 2780TIP3    H2 8305   2.179   0.321   0.800
 2781TIP3   OH2 8306   4.945   3.386   4.005
 2781TIP3    H1 8307   4.918   3.426   3.923
 2781TIP3    H2 8308   5.008   3.448   4.043
 2782TIP3   OH2 8309   2.459   2.059   5.369
 2782TIP3    H1 8310   2.469   2.115   5.292
 2782TIP3    H2 8311   2.473   2.118   5.443
 2783TIP3   OH2 8312   2.675   5.277   2.683
 2783TIP3    H1 8313   2.706   5.316   2.764
 2783TIP3    H2 8314   2.727   5.319   2.614
 2784TIP3   OH2 8315   1.806   0.778   4.880
 2784TIP3    H1 8316   1.732   0.720   4.864
 2784TIP3    H2 8317   1.866   0.726   4.934
 2785TIP3   OH2 8318   2.865   3.236   2.228
 2785TIP3    H1 8319   2.773   3.255   2.248
 2785TIP3    H2 8320   2.866   3.218   2.134
 2786TIP3   OH2 8321   0.780   4.203   0.969
 2786TIP3    H1 8322   0.796   4.177   0.878
 2786TIP3    H2 8323   0.697   4.250   0.966
 2787TIP3   OH2 8324   6.078   5.903   5.128
 2787TIP3    H1 8325   6.149   5.855   5.171
 2787TIP3    H2 8326   5.999   5.875   5.175
 2788TIP3   OH2 8327   6.557   2.142   2.241
 2788TIP3    H1 8328   6.549   2.161   2.148
 2788TIP3    H2 8329   6.525   2.053   2.251
 2789TIP3   OH2 8330   0.006   4.414   2.468
 2789TIP3    H1 8331   0.095   4.447   2.471
 2789TIP3    H2 8332  -0.003   4.360   2.547
 2790TIP3   OH2 8333   5.613   0.490   2.611
 2790TIP3    H1 8334   5.600   0.544   2.534
 2790TIP3    H2 8335   5.663   0.545   2.671
 2791TIP3   OH2 8336   6.201   4.712   0.611
 2791TIP3    H1 8337   6.202   4.632   0.665
 2791TIP3    H2 8338   6.109   4.739   0.610
 2792TIP3   OH2 8339   2.154   5.266   1.808
 2792TIP3    H1 8340   2.072   5.223   1.784
 2792TIP3    H2 8341   2.192   5.294   1.725
 2793TIP3   OH2 8342   1.169   2.974   0.112
 2793TIP3    H1 8343   1.253   2.938   0.141
 2793TIP3    H2 8344   1.189   3.018   0.029
 2794TIP3   OH2 8345   4.980   6.002   2.227
 2794TIP3    H1 8346   4.897   6.046   2.211
 2794TIP3    H2 8347   4.956   5.913   2.253
 2795TIP3   OH2 8348   5.449   1.945   2.318
 2795TIP3    H1 8349   5.503   2.011   2.276
 2795TIP3    H2 8350   5.372   1.938   2.263
 2796TIP3   OH2 8351   3.192   3.033   3.119
 2796TIP3    H1 8352   3.213   3.079   3.037
 2796TIP3    H2 8353   3.165   3.102   3.179
 2797TIP3   OH2 8354   1.616   0.135   4.422
 2797TIP3    H1 8355   1.569   0.054   4.400
 2797TIP3    H2 8356   1.695   0.105   4.466
 2798TIP3   OH2 8357   2.063   5.010   3.364
 2798TIP3    H1 8358   2.048   4.954   3.288
 2798TIP3    H2 8359   2.121   4.960   3.421
 2799TIP3   OH2 8360   1.626   5.134   4.650
 2799TIP3    H1 8361   1.546   5.143   4.703
 2799TIP3    H2 8362   1.607   5.062   4.591
 2800TIP3   OH2 8363   0.325   0.466   1.736
 2800TIP3    H1 8364   0.273   0.545   1.725
 2800TIP3    H2 8365   0.383   0.484   1.809
 2801TIP3   OH2 8366   0.928   2.807   1.558
 2801TIP3    H1 8367   0.969   2.793   1.472
 2801TIP3    H2 8368   1.001   2.810   1.619
 2802TIP3   OH2 8369   1.430   2.120   3.619
 2802TIP3    H1 8370   1.399   2.030   3.616
 2802TIP3    H2 8371   1.485   2.124   3.697
 2803TIP3   OH2 8372   2.028   0.118   5.421
 2803TIP3    H1 8373   1.987   0.159   5.345
 2803TIP3    H2 8374   2.117   0.154   5.423
 2804TIP3   OH2 8375   4.804   6.504   1.187
 2804TIP3    H1 8376   4.741   6.455   1.133
 2804TIP3    H2 8377   4.869   6.536   1.125
 2805TIP3   OH2 8378   0.140   2.980   4.608
 2805TIP3    H1 8379   0.047   2.970   4.626
 2805TIP3    H2 8380   0.151   3.073   4.585
 2806TIP3   OH2 8381   3.272   1.364   5.242
 2806TIP3    H1 8382   3.345   1.312   5.274
 2806TIP3    H2 8383   3.298   1.455   5.260
 2807TIP3   OH2 8384   4.047   1.570   1.286
 2807TIP3    H1 8385   4.092   1.496   1.245
 2807TIP3    H2 8386   3.966   1.532   1.321
 2808TIP3   OH2 8387   6.642   0.269   4.934
 2808TIP3    H1 8388   6.554   0.268   4.971
 2808TIP3    H2 8389   6.700   0.264   5.009
 2809TIP3   OH2 8390   6.290   3.528   3.799
 2809TIP3    H1 8391   6.318   3.437   3.789
 2809TIP3    H2 8392   6.195   3.522   3.815
 2810TIP3   OH2 8393   3.585   3.174   1.796
 2810TIP3    H1 8394   3.590   3.180   1.891
 2810TIP3    H2 8395   3.509   3.227   1.772
 2811TIP3   OH2 8396   1.416   4.794   2.336
 2811TIP3    H1 8397   1.462   4.806   2.420
 2811TIP3    H2 8398   1.456   4.715   2.299
 2812TIP3   OH2 8399   5.038   4.379   0.965
 2812TIP3    H1 8400   5.040   4.453   1.027
 2812TIP3    H2 8401   5.030   4.302   1.021
 2813TIP3   OH2 8402   1.507   4.821   0.061
 2813TIP3    H1 8403   1.493   4.755   0.129
 2813TIP3    H2 8404   1.560   4.888   0.103
 2814TIP3   OH2 8405   2.369   0.439   4.095
 2814TIP3    H1 8406   2.371   0.392   4.011
 2814TIP3    H2 8407   2.286   0.486   4.094
 2815TIP3   OH2 8408   0.638   3.845   4.491
 2815TIP3    H1 8409   0.550   3.869   4.518
 2815TIP3    H2 8410   0.651   3.889   4.407
 2816TIP3   OH2 8411   0.713   3.183   4.031
 2816TIP3    H1 8412   0.773   3.256   4.012
 2816TIP3    H2 8413   0.737   3.116   3.968
 2817TIP3   OH2 8414   6.368   1.943   2.743
 2817TIP3    H1 8415   6.405   2.018   2.696
 2817TIP3    H2 8416   6.418   1.868   2.713
 2818TIP3   OH2 8417   0.575   5.527   5.155
 2818TIP3    H1 8418   0.480   5.542   5.164
 2818TIP3    H2 8419   0.585   5.432   5.163
 2819TIP3   OH2 8420   5.119   0.037   1.845
 2819TIP3    H1 8421   5.076  -0.018   1.780
 2819TIP3    H2 8422   5.077   0.015   1.928
 2820TIP3   OH2 8423   3.425   3.805   5.360
 2820TIP3    H1 8424   3.457   3.895   5.355
 2820TIP3    H2 8425   3.414   3.789   5.454
 2821TIP3   OH2 8426   2.732   2.531   2.583
 2821TIP3    H1 8427   2.714   2.479   2.505
 2821TIP3    H2 8428   2.707   2.620   2.558
 2822TIP3   OH2 8429   4.049   4.340   3.340
 2822TIP3    H1 8430   3.981   4.407   3.333
 2822TIP3    H2 8431   4.128   4.389   3.365
 2823TIP3   OH2 8432   6.109   4.973   0.844
 2823TIP3    H1 8433   6.031   4.920   0.830
 2823TIP3    H2 8434   6.181   4.918   0.811
 2824TIP3   OH2 8435   5.484   6.430   1.277
 2824TIP3    H1 8436   5.458   6.384   1.356
 2824TIP3    H2 8437   5.407   6.483   1.254
 2825TIP3   OH2 8438   4.414   0.317   0.537
 2825TIP3    H1 8439   4.437   0.376   0.465
 2825TIP3    H2 8440   4.414   0.373   0.615
 2826TIP3   OH2 8441   6.044   0.010   3.192
 2826TIP3    H1 8442   6.048  -0.071   3.243
 2826TIP3    H2 8443   5.996  -0.014   3.113
 2827TIP3   OH2 8444   5.498   3.364   3.913
 2827TIP3    H1 8445   5.536   3.395   3.995
 2827TIP3    H2 8446   5.484   3.444   3.862
 2828TIP3   OH2 8447   6.726   3.326   4.488
 2828TIP3    H1 8448   6.633   3.303   4.498
 2828TIP3    H2 8449   6.733   3.414   4.525
 2829TIP3   OH2 8450   4.684   3.343   0.259
 2829TIP3    H1 8451   4.649   3.400   0.190
 2829TIP3    H2 8452   4.750   3.290   0.214
 2830TIP3   OH2 8453   3.299   1.986   1.265
 2830TIP3    H1 8454   3.376   2.036   1.237
 2830TIP3    H2 8455   3.227   2.021   1.213
 2831TIP3   OH2 8456   0.161   2.250   0.850
 2831TIP3    H1 8457   0.111   2.233   0.771
 2831TIP3    H2 8458   0.121   2.193   0.916
 2832TIP3   OH2 8459   3.104   3.816   1.597
 2832TIP3    H1 8460   3.122   3.733   1.641
 2832TIP3    H2 8461   3.088   3.793   1.506
 2833TIP3   OH2 8462   5.212   0.493   1.965
 2833TIP3    H1 8463   5.288   0.441   1.992
 2833TIP3    H2 8464   5.147   0.478   2.033
 2834TIP3   OH2 8465   1.925   3.434   2.857
 2834TIP3    H1 8466   1.851   3.400   2.906
 2834TIP3    H2 8467   1.966   3.498   2.915
 2835TIP3   OH2 8468   3.542   0.375   0.492
 2835TIP3    H1 8469   3.632   0.393   0.465
 2835TIP3    H2 8470   3.535   0.414   0.579
 2836TIP3   OH2 8471   3.881   4.007   0.841
 2836TIP3    H1 8472   3.906   3.923   0.804
 2836TIP3    H2 8473   3.913   4.005   0.931
 2837TIP3   OH2 8474   5.281   2.773   5.648
 2837TIP3    H1 8475   5.303   2.801   5.559
 2837TIP3    H2 8476   5.230   2.694   5.636
 2838TIP3   OH2 8477   4.169   2.415   5.092
 2838TIP3    H1 8478   4.253   2.442   5.128
 2838TIP3    H2 8479   4.129   2.497   5.063
 2839TIP3   OH2 8480   4.030   1.530   4.991
 2839TIP3    H1 8481   3.995   1.606   5.039
 2839TIP3    H2 8482   3.993   1.539   4.903
 2840TIP3   OH2 8483   2.353   3.455   1.335
 2840TIP3    H1 8484   2.332   3.363   1.322
 2840TIP3    H2 8485   2.421   3.454   1.403
 2841TIP3   OH2 8486   6.461   1.512   3.772
 2841TIP3    H1 8487   6.474   1.423   3.804
 2841TIP3    H2 8488   6.527   1.564   3.817
 2842TIP3   OH2 8489   1.275   3.238   4.861
 2842TIP3    H1 8490   1.245   3.163   4.809
 2842TIP3    H2 8491   1.366   3.218   4.881
 2843TIP3   OH2 8492   5.918   6.172   5.683
 2843TIP3    H1 8493   5.997   6.226   5.689
 2843TIP3    H2 8494   5.924   6.129   5.598
 2844TIP3   OH2 8495   6.546   0.402   2.191
 2844TIP3    H1 8496   6.573   0.494   2.183
 2844TIP3    H2 8497   6.539   0.372   2.100
 2845TIP3   OH2 8498   2.842   1.310   2.402
 2845TIP3    H1 8499   2.764   1.275   2.447
 2845TIP3    H2 8500   2.820   1.307   2.309
 2846TIP3   OH2 8501   5.368   1.108   3.343
 2846TIP3    H1 8502   5.410   1.176   3.396
 2846TIP3    H2 8503   5.275   1.113   3.367
 2847TIP3   OH2 8504   3.784   0.387   0.218
 2847TIP3    H1 8505   3.771   0.292   0.222
 2847TIP3    H2 8506   3.698   0.424   0.238
 2848TIP3   OH2 8507   6.928   2.680   1.411
 2848TIP3    H1 8508   6.919   2.585   1.418
 2848TIP3    H2 8509   6.840   2.713   1.430
 2849TIP3   OH2 8510   3.701   2.202   0.051
 2849TIP3    H1 8511   3.612   2.211   0.083
 2849TIP3    H2 8512   3.739   2.131   0.102
 2850TIP3   OH2 8513   2.982   4.128   1.146
 2850TIP3    H1 8514   2.968   4.217   1.178
 2850TIP3    H2 8515   2.896   4.087   1.152
 2851TIP3   OH2 8516   5.042   0.895   4.103
 2851TIP3    H1 8517   5.126   0.932   4.130
 2851TIP3    H2 8518   4.994   0.881   4.184
 2852TIP3   OH2 8519   0.668   6.047   1.101
 2852TIP3    H1 8520   0.757   6.018   1.079
 2852TIP3    H2 8521   0.668   6.140   1.081
 2853TIP3   OH2 8522   0.837   1.743   2.829
 2853TIP3    H1 8523   0.759   1.706   2.869
 2853TIP3    H2 8524   0.832   1.837   2.846
 2854TIP3   OH2 8525   2.263   6.177   5.340
 2854TIP3    H1 8526   2.286   6.244   5.275
 2854TIP3    H2 8527   2.177   6.203   5.372
 2855TIP3   OH2 8528   5.807   2.478   2.373
 2855TIP3    H1 8529   5.832   2.516   2.288
 2855TIP3    H2 8530   5.716   2.451   2.361
 2856TIP3   OH2 8531   0.554   4.951   3.282
 2856TIP3    H1 8532   0.464   4.964   3.253
 2856TIP3    H2 8533   0.563   4.856   3.291
 2857TIP3   OH2 8534   1.002   4.183   5.195
 2857TIP3    H1 8535   1.064   4.255   5.183
 2857TIP3    H2 8536   0.940   4.217   5.261
 2858TIP3   OH2 8537   4.233   2.648   3.598
 2858TIP3    H1 8538   4.153   2.700   3.606
 2858TIP3    H2 8539   4.298   2.707   3.560
 2859TIP3   OH2 8540   0.415   2.474   1.670
 2859TIP3    H1 8541   0.326   2.499   1.644
 2859TIP3    H2 8542   0.472   2.521   1.609
 2860TIP3   OH2 8543   2.070   3.148   5.267
 2860TIP3    H1 8544   2.016   3.225   5.254
 2860TIP3    H2 8545   2.118   3.138   5.184
 2861TIP3   OH2 8546   2.520   0.858   4.125
 2861TIP3    H1 8547   2.501   0.946   4.158
 2861TIP3    H2 8548   2.606   0.866   4.084
 2862TIP3   OH2 8549   5.807   3.360   0.325
 2862TIP3    H1 8550   5.848   3.357   0.238
 2862TIP3    H2 8551   5.719   3.393   0.308
 2863TIP3   OH2 8552   2.990   4.352   4.999
 2863TIP3    H1 8553   2.902   4.318   4.980
 2863TIP3    H2 8554   3.035   4.279   5.041
 2864TIP3   OH2 8555   2.040   5.642   0.071
 2864TIP3    H1 8556   2.053   5.603  -0.015
 2864TIP3    H2 8557   1.951   5.619   0.095
 2865TIP3   OH2 8558   0.609   1.088   0.888
 2865TIP3    H1 8559   0.624   1.023   0.957
 2865TIP3    H2 8560   0.687   1.085   0.834
 2866TIP3   OH2 8561   6.299   1.630   2.221
 2866TIP3    H1 8562   6.292   1.585   2.305
 2866TIP3    H2 8563   6.212   1.620   2.181
 2867TIP3   OH2 8564   6.368   0.659   3.837
 2867TIP3    H1 8565   6.422   0.628   3.764
 2867TIP3    H2 8566   6.313   0.584   3.859
 2868TIP3   OH2 8567   4.526   3.115   0.263
 2868TIP3    H1 8568   4.580   3.193   0.280
 2868TIP3    H2 8569   4.545   3.093   0.171
 2869TIP3   OH2 8570   1.626   0.307   4.173
 2869TIP3    H1 8571   1.616   0.246   4.246
 2869TIP3    H2 8572   1.688   0.373   4.204
 2870TIP3   OH2 8573   6.937   2.847   1.628
 2870TIP3    H1 8574   6.995   2.920   1.649
 2870TIP3    H2 8575   6.969   2.814   1.544
 2871TIP3   OH2 8576   1.568   3.474   4.112
 2871TIP3    H1 8577   1.652   3.436   4.137
 2871TIP3    H2 8578   1.553   3.444   4.023
 2872TIP3   OH2 8579   6.942   1.978   2.218
 2872TIP3    H1 8580   6.887   2.037   2.268
 2872TIP3    H2 8581   6.881   1.927   2.164
 2873TIP3   OH2 8582   5.529   1.221   0.992
 2873TIP3    H1 8583   5.480   1.272   1.057
 2873TIP3    H2 8584   5.589   1.167   1.044
 2874TIP3   OH2 8585   0.233   5.324   2.078
 2874TIP3    H1 8586   0.254   5.240   2.117
 2874TIP3    H2 8587   0.204   5.378   2.152
 2875TIP3   OH2 8588   1.097   4.945   1.942
 2875TIP3    H1 8589   1.146   4.936   1.860
 2875TIP3    H2 8590   1.105   5.038   1.963
 2876TIP3   OH2 8591   2.078   6.684   2.561
 2876TIP3    H1 8592   2.154   6.708   2.507
 2876TIP3    H2 8593   2.082   6.588   2.566
 2877TIP3   OH2 8594   5.241   6.735   3.579
 2877TIP3    H1 8595   5.257   6.768   3.491
 2877TIP3    H2 8596   5.265   6.642   3.574
 2878TIP3   OH2 8597   3.364   6.663   2.249
 2878TIP3    H1 8598   3.335   6.571   2.248
 2878TIP3    H2 8599   3.311   6.703   2.318
 2879TIP3   OH2 8600   1.837   4.337   5.734
 2879TIP3    H1 8601   1.787   4.296   5.805
 2879TIP3    H2 8602   1.863   4.263   5.678
 2880TIP3   OH2 8603   4.226   2.290   4.269
 2880TIP3    H1 8604   4.152   2.254   4.220
 2880TIP3    H2 8605   4.266   2.354   4.210
 2881TIP3   OH2 8606   0.495   1.791   4.690
 2881TIP3    H1 8607   0.578   1.837   4.678
 2881TIP3    H2 8608   0.428   1.858   4.679
 2882TIP3   OH2 8609   4.611   0.969   3.270
 2882TIP3    H1 8610   4.522   0.967   3.303
 2882TIP3    H2 8611   4.631   0.878   3.248
 2883TIP3   OH2 8612   4.061   4.214   3.810
 2883TIP3    H1 8613   4.098   4.196   3.897
 2883TIP3    H2 8614   3.989   4.152   3.802
 2884TIP3   OH2 8615   4.725   1.154   0.795
 2884TIP3    H1 8616   4.780   1.205   0.854
 2884TIP3    H2 8617   4.637   1.161   0.831
 2885TIP3   OH2 8618   5.279   5.092   5.262
 2885TIP3    H1 8619   5.305   5.158   5.198
 2885TIP3    H2 8620   5.226   5.030   5.212
 2886TIP3   OH2 8621   1.883   6.150   2.627
 2886TIP3    H1 8622   1.796   6.114   2.606
 2886TIP3    H2 8623   1.932   6.075   2.661
 2887TIP3   OH2 8624   1.048   4.501   4.053
 2887TIP3    H1 8625   0.989   4.562   4.008
 2887TIP3    H2 8626   0.995   4.465   4.124
 2888TIP3   OH2 8627   6.051   2.034   0.384
 2888TIP3    H1 8628   6.053   2.101   0.452
 2888TIP3    H2 8629   5.965   1.992   0.394
 2889TIP3   OH2 8630   4.853   3.247   2.736
 2889TIP3    H1 8631   4.853   3.335   2.772
 2889TIP3    H2 8632   4.761   3.227   2.718
 2890TIP3   OH2 8633   5.284   1.679   2.285
 2890TIP3    H1 8634   5.253   1.598   2.246
 2890TIP3    H2 8635   5.239   1.748   2.236
 2891TIP3   OH2 8636   1.826   2.176   4.037
 2891TIP3    H1 8637   1.833   2.154   4.130
 2891TIP3    H2 8638   1.781   2.261   4.036
 2892TIP3   OH2 8639   5.294   1.823   0.782
 2892TIP3    H1 8640   5.338   1.846   0.700
 2892TIP3    H2 8641   5.258   1.906   0.814
 2893TIP3   OH2 8642   6.745   5.723   4.847
 2893TIP3    H1 8643   6.790   5.641   4.827
 2893TIP3    H2 8644   6.711   5.754   4.763
 2894TIP3   OH2 8645   4.287   4.241   4.438
 2894TIP3    H1 8646   4.231   4.318   4.444
 2894TIP3    H2 8647   4.240   4.181   4.381
 2895TIP3   OH2 8648   3.791   5.782   0.029
 2895TIP3    H1 8649   3.792   5.831   0.111
 2895TIP3    H2 8650   3.701   5.790  -0.003
 2896TIP3   OH2 8651   3.976   1.603   4.360
 2896TIP3    H1 8652   4.017   1.676   4.314
 2896TIP3    H2 8653   3.908   1.572   4.301
 2897TIP3   OH2 8654   3.830   4.661   2.536
 2897TIP3    H1 8655   3.767   4.595   2.563
 2897TIP3    H2 8656   3.890   4.615   2.478
 2898TIP3   OH2 8657   3.486   0.423   4.503
 2898TIP3    H1 8658   3.560   0.371   4.533
 2898TIP3    H2 8659   3.450   0.463   4.582
 2899TIP3   OH2 8660   5.240   3.202   4.510
 2899TIP3    H1 8661   5.250   3.237   4.598
 2899TIP3    H2 8662   5.150   3.170   4.506
 2900TIP3   OH2 8663   6.490   5.592   4.727
 2900TIP3    H1 8664   6.539   5.517   4.692
 2900TIP3    H2 8665   6.554   5.641   4.777
 2901TIP3   OH2 8666   6.635   6.678   0.501
 2901TIP3    H1 8667   6.546   6.671   0.535
 2901TIP3    H2 8668   6.628   6.654   0.409
 2902TIP3   OH2 8669   4.954   5.005   4.487
 2902TIP3    H1 8670   4.999   4.989   4.405
 2902TIP3    H2 8671   4.971   4.927   4.540
 2903TIP3   OH2 8672   1.123   0.233   4.019
 2903TIP3    H1 8673   1.051   0.277   4.064
 2903TIP3    H2 8674   1.146   0.159   4.076
 2904TIP3   OH2 8675   0.810   3.989   1.796
 2904TIP3    H1 8676   0.873   3.941   1.742
 2904TIP3    H2 8677   0.819   3.952   1.883
 2905TIP3   OH2 8678   3.789   0.062   2.445
 2905TIP3    H1 8679   3.749   0.111   2.517
 2905TIP3    H2 8680   3.759  -0.028   2.458
 2906TIP3   OH2 8681   4.386   3.276   3.139
 2906TIP3    H1 8682   4.478   3.302   3.129
 2906TIP3    H2 8683   4.341   3.357   3.165
 2907TIP3   OH2 8684   3.553   2.805   0.116
 2907TIP3    H1 8685   3.595   2.848   0.191
 2907TIP3    H2 8686   3.546   2.874   0.050
 2908TIP3   OH2 8687   3.852   2.712   2.789
 2908TIP3    H1 8688   3.834   2.647   2.857
 2908TIP3    H2 8689   3.886   2.787   2.837
 2909TIP3   OH2 8690   4.558   0.451   0.773
 2909TIP3    H1 8691   4.589   0.540   0.792
 2909TIP3    H2 8692   4.625   0.415   0.715
 2910TIP3   OH2 8693   2.417   5.242   5.086
 2910TIP3    H1 8694   2.455   5.329   5.093
 2910TIP3    H2 8695   2.468   5.188   5.145
 2911TIP3   OH2 8696   7.214   4.978   2.459
 2911TIP3    H1 8697   7.276   5.046   2.433
 2911TIP3    H2 8698   7.161   5.018   2.528
 2912TIP3   OH2 8699   6.687   1.215   1.326
 2912TIP3    H1 8700   6.662   1.284   1.388
 2912TIP3    H2 8701   6.618   1.149   1.335
 2913TIP3   OH2 8702   3.444   3.203   1.017
 2913TIP3    H1 8703   3.397   3.145   1.077
 2913TIP3    H2 8704   3.453   3.285   1.066
 2914TIP3   OH2 8705   0.796   2.122   5.864
 2914TIP3    H1 8706   0.735   2.132   5.937
 2914TIP3    H2 8707   0.836   2.036   5.877
 2915TIP3   OH2 8708   0.106   2.677   1.209
 2915TIP3    H1 8709   0.068   2.593   1.234
 2915TIP3    H2 8710   0.198   2.658   1.190
 2916TIP3   OH2 8711   2.997   0.200   1.890
 2916TIP3    H1 8712   2.990   0.131   1.956
 2916TIP3    H2 8713   2.950   0.167   1.814
 2917TIP3   OH2 8714   1.113   5.325   4.568
 2917TIP3    H1 8715   1.178   5.280   4.515
 2917TIP3    H2 8716   1.037   5.267   4.567
 2918TIP3   OH2 8717   2.823   6.150   3.917
 2918TIP3    H1 8718   2.865   6.185   3.839
 2918TIP3    H2 8719   2.893   6.106   3.965
 2919TIP3   OH2 8720   6.199   5.956   4.894
 2919TIP3    H1 8721   6.291   5.977   4.911
 2919TIP3    H2 8722   6.161   5.942   4.981
 2920TIP3   OH2 8723   3.480   5.543   0.216
 2920TIP3    H1 8724   3.475   5.449   0.197
 2920TIP3    H2 8725   3.533   5.548   0.296
 2921TIP3   OH2 8726   6.023   1.773   3.876
 2921TIP3    H1 8727   5.981   1.854   3.905
 2921TIP3    H2 8728   5.985   1.705   3.933
 2922TIP3   OH2 8729   2.025   3.961   2.437
 2922TIP3    H1 8730   2.113   3.965   2.475
 2922TIP3    H2 8731   2.016   4.044   2.389
 2923TIP3   OH2 8732   1.902   6.184   0.628
 2923TIP3    H1 8733   1.823   6.137   0.604
 2923TIP3    H2 8734   1.873   6.250   0.692
 2924TIP3   OH2 8735   6.668   0.192   1.307
 2924TIP3    H1 8736   6.660   0.171   1.214
 2924TIP3    H2 8737   6.696   0.283   1.309
 2925TIP3   OH2 8738   3.035   0.090   1.293
 2925TIP3    H1 8739   2.973   0.146   1.338
 2925TIP3    H2 8740   3.091   0.055   1.362
 2926TIP3   OH2 8741   3.936   3.368   0.201
 2926TIP3    H1 8742   3.843   3.347   0.188
 2926TIP3    H2 8743   3.960   3.321   0.281
 2927TIP3   OH2 8744   3.355   4.763   4.371
 2927TIP3    H1 8745   3.395   4.729   4.451
 2927TIP3    H2 8746   3.428   4.799   4.321
 2928TIP3   OH2 8747   4.465   5.169   1.551
 2928TIP3    H1 8748   4.534   5.223   1.592
 2928TIP3    H2 8749   4.469   5.192   1.458
 2929TIP3   OH2 8750   6.343   6.773   2.866
 2929TIP3    H1 8751   6.262   6.761   2.816
 2929TIP3    H2 8752   6.396   6.833   2.813
 2930TIP3   OH2 8753   3.202   0.374   0.094
 2930TIP3    H1 8754   3.283   0.327   0.114
 2930TIP3    H2 8755   3.138   0.305   0.079
 2931TIP3   OH2 8756   1.759   2.027   4.450
 2931TIP3    H1 8757   1.702   1.954   4.472
 2931TIP3    H2 8758   1.843   1.985   4.429
 2932TIP3   OH2 8759   2.370   3.825   2.577
 2932TIP3    H1 8760   2.373   3.741   2.621
 2932TIP3    H2 8761   2.386   3.805   2.485
 2933TIP3   OH2 8762   2.349   6.235   1.062
 2933TIP3    H1 8763   2.313   6.297   1.125
 2933TIP3    H2 8764   2.292   6.158   1.070
 2934TIP3   OH2 8765   5.040   1.862   3.174
 2934TIP3    H1 8766   5.094   1.805   3.229
 2934TIP3    H2 8767   4.965   1.808   3.151
 2935TIP3   OH2 8768   0.820   5.500   0.493
 2935TIP3    H1 8769   0.778   5.582   0.467
 2935TIP3    H2 8770   0.824   5.505   0.589
 2936TIP3   OH2 8771   0.384   6.156   3.458
 2936TIP3    H1 8772   0.340   6.078   3.424
 2936TIP3    H2 8773   0.471   6.126   3.482
 2937TIP3   OH2 8774   0.520   1.116   1.636
 2937TIP3    H1 8775   0.611   1.128   1.612
 2937TIP3    H2 8776   0.513   1.150   1.725
 2938TIP3   OH2 8777   3.927   3.145   4.624
 2938TIP3    H1 8778   3.918   3.104   4.710
 2938TIP3    H2 8779   3.858   3.105   4.570
 2939TIP3   OH2 8780   2.532   4.685   4.056
 2939TIP3    H1 8781   2.518   4.774   4.090
 2939TIP3    H2 8782   2.512   4.693   3.963
 2940TIP3   OH2 8783   2.242   1.881   2.546
 2940TIP3    H1 8784   2.229   1.892   2.451
 2940TIP3    H2 8785   2.302   1.807   2.553
 2941TIP3   OH2 8786   4.015   2.674   5.479
 2941TIP3    H1 8787   4.089   2.682   5.419
 2941TIP3    H2 8788   3.942   2.646   5.423
 2942TIP3   OH2 8789   7.122   1.170   4.284
 2942TIP3    H1 8790   7.108   1.260   4.256
 2942TIP3    H2 8791   7.194   1.175   4.347
 2943TIP3   OH2 8792   1.864   4.462   3.340
 2943TIP3    H1 8793   1.832   4.504   3.260
 2943TIP3    H2 8794   1.787   4.458   3.397
 2944TIP3   OH2 8795   5.892   4.342   4.385
 2944TIP3    H1 8796   5.905   4.359   4.478
 2944TIP3    H2 8797   5.828   4.271   4.382
 2945TIP3   OH2 8798   0.259   5.629   0.230
 2945TIP3    H1 8799   0.336   5.575   0.247
 2945TIP3    H2 8800   0.269   5.706   0.286
 2946TIP3   OH2 8801   3.852   2.991   2.514
 2946TIP3    H1 8802   3.833   3.043   2.436
 2946TIP3    H2 8803   3.943   3.011   2.535
 2947TIP3   OH2 8804   1.676   3.604   5.067
 2947TIP3    H1 8805   1.582   3.613   5.048
 2947TIP3    H2 8806   1.696   3.677   5.125
 2948TIP3   OH2 8807   2.453   6.717   4.776
 2948TIP3    H1 8808   2.438   6.810   4.755
 2948TIP3    H2 8809   2.395   6.700   4.851
 2949TIP3   OH2 8810   4.313   0.716   3.655
 2949TIP3    H1 8811   4.272   0.726   3.570
 2949TIP3    H2 8812   4.249   0.751   3.717
 2950TIP3   OH2 8813   3.478   1.877   5.514
 2950TIP3    H1 8814   3.518   1.960   5.538
 2950TIP3    H2 8815   3.384   1.893   5.520
 2951TIP3   OH2 8816   0.648   4.852   3.547
 2951TIP3    H1 8817   0.713   4.835   3.479
 2951TIP3    H2 8818   0.596   4.925   3.513
 2952TIP3   OH2 8819   1.973   5.044   4.634
 2952TIP3    H1 8820   2.035   4.978   4.605
 2952TIP3    H2 8821   1.902   5.041   4.570
 2953TIP3   OH2 8822   6.414   6.475   1.847
 2953TIP3    H1 8823   6.447   6.470   1.757
 2953TIP3    H2 8824   6.371   6.391   1.861
 2954TIP3   OH2 8825   0.424   4.788   1.994
 2954TIP3    H1 8826   0.505   4.765   2.039
 2954TIP3    H2 8827   0.435   4.881   1.972
 2955TIP3   OH2 8828   0.019   5.831   0.415
 2955TIP3    H1 8829   0.024   5.921   0.446
 2955TIP3    H2 8830   0.096   5.820   0.359
 2956TIP3   OH2 8831   1.139   4.690   1.020
 2956TIP3    H1 8832   1.094   4.766   1.057
 2956TIP3    H2 8833   1.097   4.677   0.935
 2957TIP3   OH2 8834   2.473   2.566   2.225
 2957TIP3    H1 8835   2.451   2.652   2.261
 2957TIP3    H2 8836   2.435   2.503   2.286
 2958TIP3   OH2 8837   0.400   2.167   0.954
 2958TIP3    H1 8838   0.393   2.170   1.049
 2958TIP3    H2 8839   0.337   2.232   0.923
 2959TIP3   OH2 8840   6.505   1.420   3.135
 2959TIP3    H1 8841   6.412   1.427   3.160
 2959TIP3    H2 8842   6.549   1.396   3.216
 2960TIP3   OH2 8843   4.004   5.773   1.911
 2960TIP3    H1 8844   4.068   5.823   1.961
 2960TIP3    H2 8845   3.954   5.839   1.862
 2961TIP3   OH2 8846   1.532   0.537   1.558
 2961TIP3    H1 8847   1.528   0.617   1.612
 2961TIP3    H2 8848   1.464   0.481   1.595
 2962TIP3   OH2 8849   0.523   2.368   0.773
 2962TIP3    H1 8850   0.455   2.430   0.798
 2962TIP3    H2 8851   0.522   2.302   0.842
 2963TIP3   OH2 8852   3.415   4.253   2.261
 2963TIP3    H1 8853   3.495   4.212   2.230
 2963TIP3    H2 8854   3.354   4.247   2.187
 2964TIP3   OH2 8855   4.039   0.589   5.421
 2964TIP3    H1 8856   3.945   0.577   5.415
 2964TIP3    H2 8857   4.057   0.601   5.514
 2965TIP3   OH2 8858   4.117   0.660   2.157
 2965TIP3    H1 8859   4.141   0.625   2.071
 2965TIP3    H2 8860   4.196   0.704   2.188
 2966TIP3   OH2 8861   1.021   2.170   1.664
 2966TIP3    H1 8862   0.970   2.204   1.591
 2966TIP3    H2 8863   1.000   2.226   1.738
 2967TIP3   OH2 8864   3.654   6.340   4.386
 2967TIP3    H1 8865   3.708   6.418   4.376
 2967TIP3    H2 8866   3.711   6.277   4.429
 2968TIP3   OH2 8867   2.326   4.194   2.585
 2968TIP3    H1 8868   2.261   4.234   2.527
 2968TIP3    H2 8869   2.336   4.256   2.657
 2969TIP3   OH2 8870   5.339   3.258   3.281
 2969TIP3    H1 8871   5.272   3.193   3.299
 2969TIP3    H2 8872   5.410   3.209   3.240
 2970TIP3   OH2 8873   0.007   3.045   3.865
 2970TIP3    H1 8874   0.025   3.117   3.805
 2970TIP3    H2 8875   0.079   2.983   3.852
 2971TIP3   OH2 8876   1.090   5.738   1.498
 2971TIP3    H1 8877   1.021   5.672   1.489
 2971TIP3    H2 8878   1.094   5.781   1.413
 2972TIP3   OH2 8879   4.941   0.777   1.784
 2972TIP3    H1 8880   4.984   0.693   1.795
 2972TIP3    H2 8881   4.850   0.755   1.763
 2973TIP3   OH2 8882   1.474   2.444   3.924
 2973TIP3    H1 8883   1.507   2.465   3.836
 2973TIP3    H2 8884   1.498   2.519   3.977
 2974TIP3   OH2 8885   4.516   2.448   3.042
 2974TIP3    H1 8886   4.573   2.378   3.073
 2974TIP3    H2 8887   4.509   2.434   2.948
 2975TIP3   OH2 8888   1.494   5.935   0.237
 2975TIP3    H1 8889   1.518   5.866   0.299
 2975TIP3    H2 8890   1.575   5.955   0.190
 2976TIP3   OH2 8891   2.085   5.263   0.657
 2976TIP3    H1 8892   2.063   5.170   0.654
 2976TIP3    H2 8893   2.061   5.295   0.570
 2977TIP3   OH2 8894   3.003   5.814   4.837
 2977TIP3    H1 8895   3.041   5.803   4.751
 2977TIP3    H2 8896   3.051   5.753   4.893
 2978TIP3   OH2 8897   4.337   5.688   1.051
 2978TIP3    H1 8898   4.419   5.736   1.037
 2978TIP3    H2 8899   4.270   5.756   1.046
 2979TIP3   OH2 8900   0.828   5.602   3.954
 2979TIP3    H1 8901   0.767   5.528   3.953
 2979TIP3    H2 8902   0.792   5.662   4.019
 2980TIP3   OH2 8903   5.150   6.031   1.420
 2980TIP3    H1 8904   5.182   5.942   1.437
 2980TIP3    H2 8905   5.067   6.018   1.373
 2981TIP3   OH2 8906   6.498   4.960   4.959
 2981TIP3    H1 8907   6.575   4.940   4.904
 2981TIP3    H2 8908   6.435   4.997   4.898
 2982TIP3   OH2 8909   6.834   6.392   4.676
 2982TIP3    H1 8910   6.748   6.435   4.669
 2982TIP3    H2 8911   6.894   6.451   4.631
 2983TIP3   OH2 8912   5.953   0.156   2.148
 2983TIP3    H1 8913   5.971   0.162   2.242
 2983TIP3    H2 8914   6.037   0.177   2.106
 2984TIP3   OH2 8915   4.859   3.978   2.748
 2984TIP3    H1 8916   4.819   4.010   2.666
 2984TIP3    H2 8917   4.953   3.984   2.732
 2985TIP3   OH2 8918   2.256   6.540   1.716
 2985TIP3    H1 8919   2.164   6.555   1.695
 2985TIP3    H2 8920   2.289   6.625   1.743
 2986TIP3   OH2 8921   3.944   5.136   3.634
 2986TIP3    H1 8922   3.924   5.219   3.678
 2986TIP3    H2 8923   4.038   5.123   3.647
 2987TIP3   OH2 8924   4.375   6.696   3.046
 2987TIP3    H1 8925   4.350   6.673   2.957
 2987TIP3    H2 8926   4.360   6.791   3.051
 2988TIP3   OH2 8927   0.366   0.131   2.074
 2988TIP3    H1 8928   0.389   0.144   1.982
 2988TIP3    H2 8929   0.408   0.048   2.097
 2989TIP3   OH2 8930   5.392   1.563   1.939
 2989TIP3    H1 8931   5.422   1.645   1.900
 2989TIP3    H2 8932   5.311   1.586   1.984
 2990TIP3   OH2 8933   2.486   0.906   2.872
 2990TIP3    H1 8934   2.395   0.933   2.864
 2990TIP3    H2 8935   2.502   0.854   2.793
 2991TIP3   OH2 8936   5.474   1.001   0.470
 2991TIP3    H1 8937   5.432   0.922   0.506
 2991TIP3    H2 8938   5.487   1.058   0.546
 2992TIP3   OH2 8939   6.890   4.785   5.700
 2992TIP3    H1 8940   6.860   4.875   5.707
 2992TIP3    H2 8941   6.956   4.775   5.768
 2993TIP3   OH2 8942   4.215   4.144   0.958
 2993TIP3    H1 8943   4.219   4.077   0.890
 2993TIP3    H2 8944   4.129   4.132   0.998
 2994TIP3   OH2 8945   4.940   6.417   3.904
 2994TIP3    H1 8946   4.980   6.330   3.896
 2994TIP3    H2 8947   4.865   6.403   3.963
 2995TIP3   OH2 8948   2.784   1.294   4.361
 2995TIP3    H1 8949   2.740   1.311   4.277
 2995TIP3    H2 8950   2.862   1.243   4.337
 2996TIP3   OH2 8951   6.307   6.221   1.883
 2996TIP3    H1 8952   6.238   6.163   1.851
 2996TIP3    H2 8953   6.331   6.186   1.968
 2997TIP3   OH2 8954   3.791   3.854   5.266
 2997TIP3    H1 8955   3.737   3.866   5.344
 2997TIP3    H2 8956   3.763   3.923   5.206
 2998TIP3   OH2 8957   0.019   6.688   2.380
 2998TIP3    H1 8958   0.073   6.683   2.301
 2998TIP3    H2 8959  -0.067   6.657   2.351
 2999TIP3   OH2 8960   2.809   1.972   2.805
 2999TIP3    H1 8961   2.734   1.970   2.746
 2999TIP3    H2 8962   2.885   1.967   2.747
 3000TIP3   OH2 8963   5.709   4.490   5.140
 3000TIP3    H1 8964   5.653   4.558   5.105
 3000TIP3    H2 8965   5.748   4.528   5.218
 3001TIP3   OH2 8966   6.753   1.712   2.910
 3001TIP3    H1 8967   6.830   1.673   2.869
 3001TIP3    H2 8968   6.770   1.806   2.907
 3002TIP3   OH2 8969   3.967   1.986   3.159
 3002TIP3    H1 8970   4.017   2.056   3.201
 3002TIP3    H2 8971   4.026   1.911   3.157
 3003TIP3   OH2 8972   6.727   2.967   5.501
 3003TIP3    H1 8973   6.649   2.986   5.553
 3003TIP3    H2 8974   6.796   2.956   5.565
 3004TIP3   OH2 8975   0.865   1.999   2.885
 3004TIP3    H1 8976   0.952   2.007   2.924
 3004TIP3    H2 8977   0.834   2.089   2.877
 3005TIP3   OH2 8978   6.746   2.065   4.903
 3005TIP3    H1 8979   6.812   2.093   4.967
 3005TIP3    H2 8980   6.684   2.014   4.953
 3006TIP3   OH2 8981   0.578   4.863   1.005
 3006TIP3    H1 8982   0.505   4.841   1.063
 3006TIP3    H2 8983   0.576   4.795   0.937
 3007TIP3   OH2 8984   6.255   6.451   0.751
 3007TIP3    H1 8985   6.202   6.492   0.819
 3007TIP3    H2 8986   6.203   6.376   0.722
 3008TIP3   OH2 8987   1.183   1.916   2.266
 3008TIP3    H1 8988   1.137   1.833   2.254
 3008TIP3    H2 8989   1.128   1.965   2.327
 3009TIP3   OH2 8990   2.987   0.420   0.311
 3009TIP3    H1 8991   3.081   0.438   0.302
 3009TIP3    H2 8992   2.981   0.354   0.380
 3010TIP3   OH2 8993   6.539   6.348   5.336
 3010TIP3    H1 8994   6.476   6.344   5.264
 3010TIP3    H2 8995   6.486   6.335   5.415
 3011TIP3   OH2 8996   4.662   5.717   0.473
 3011TIP3    H1 8997   4.605   5.779   0.427
 3011TIP3    H2 8998   4.744   5.717   0.424
 3012TIP3   OH2 8999   5.898   4.776   1.140
 3012TIP3    H1 9000   5.945   4.830   1.204
 3012TIP3    H2 9001   5.909   4.822   1.057
 3013TIP3   OH2 9002   4.535   0.709   5.789
 3013TIP3    H1 9003   4.531   0.780   5.725
 3013TIP3    H2 9004   4.593   0.742   5.858
 3014TIP3   OH2 9005   5.586   1.820   3.544
 3014TIP3    H1 9006   5.542   1.746   3.584
 3014TIP3    H2 9007   5.629   1.784   3.467
 3015TIP3   OH2 9008   5.131   0.095   4.755
 3015TIP3    H1 9009   5.133   0.150   4.676
 3015TIP3    H2 9010   5.063   0.030   4.737
 3016TIP3   OH2 9011   0.106   6.370   2.445
 3016TIP3    H1 9012   0.112   6.429   2.521
 3016TIP3    H2 9013   0.189   6.382   2.399
 3017TIP3   OH2 9014   5.399   3.387   4.334
 3017TIP3    H1 9015   5.347   3.382   4.254
 3017TIP3    H2 9016   5.369   3.314   4.387
 3018TIP3   OH2 9017   0.242   0.061   0.693
 3018TIP3    H1 9018   0.216   0.132   0.751
 3018TIP3    H2 9019   0.321   0.025   0.732
 3019TIP3   OH2 9020   4.761   5.315   3.008
 3019TIP3    H1 9021   4.730   5.293   2.921
 3019TIP3    H2 9022   4.836   5.372   2.994
 3020TIP3   OH2 9023   7.029   5.036   2.720
 3020TIP3    H1 9024   7.100   5.083   2.763
 3020TIP3    H2 9025   6.995   4.978   2.787
 3021TIP3   OH2 9026   4.125   1.733   3.949
 3021TIP3    H1 9027   4.203   1.684   3.928
 3021TIP3    H2 9028   4.052   1.676   3.923
 3022TIP3   OH2 9029   5.803   5.817   5.217
 3022TIP3    H1 9030   5.711   5.815   5.246
 3022TIP3    H2 9031   5.797   5.811   5.122
 3023TIP3   OH2 9032   4.104   0.314   5.283
 3023TIP3    H1 9033   4.081   0.318   5.376
 3023TIP3    H2 9034   4.085   0.223   5.258
 3024TIP3   OH2 9035   1.153   2.959   5.240
 3024TIP3    H1 9036   1.097   3.036   5.234
 3024TIP3    H2 9037   1.242   2.993   5.247
 3025TIP3   OH2 9038   5.539   0.136   5.236
 3025TIP3    H1 9039   5.623   0.144   5.282
 3025TIP3    H2 9040   5.496   0.220   5.249
 3026TIP3   OH2 9041   2.683   5.735   0.784
 3026TIP3    H1 9042   2.634   5.791   0.845
 3026TIP3    H2 9043   2.655   5.764   0.697
 3027TIP3   OH2 9044   7.102   1.866   1.129
 3027TIP3    H1 9045   7.062   1.781   1.110
 3027TIP3    H2 9046   7.081   1.883   1.221
 3028TIP3   OH2 9047   4.927   5.922   1.324
 3028TIP3    H1 9048   4.966   5.867   1.392
 3028TIP3    H2 9049   4.917   5.863   1.249
 3029TIP3   OH2 9050   5.932   3.630   3.235
 3029TIP3    H1 9051   5.966   3.716   3.257
 3029TIP3    H2 9052   6.006   3.571   3.247
 3030TIP3   OH2 9053   6.964   1.771   3.466
 3030TIP3    H1 9054   6.895   1.835   3.449
 3030TIP3    H2 9055   7.043   1.811   3.430
 3031TIP3   OH2 9056   2.203   1.184   3.443
 3031TIP3    H1 9057   2.264   1.141   3.503
 3031TIP3    H2 9058   2.117   1.168   3.482
 3032TIP3   OH2 9059   4.171   5.634   4.094
 3032TIP3    H1 9060   4.111   5.694   4.050
 3032TIP3    H2 9061   4.129   5.615   4.178
 3033TIP3   OH2 9062   0.853   5.783   3.177
 3033TIP3    H1 9063   0.905   5.724   3.231
 3033TIP3    H2 9064   0.764   5.749   3.183
 3034TIP3   OH2 9065   5.408   1.381   1.174
 3034TIP3    H1 9066   5.341   1.449   1.174
 3034TIP3    H2 9067   5.420   1.360   1.267
 3035TIP3   OH2 9068   3.327   5.319   4.988
 3035TIP3    H1 9069   3.238   5.285   4.991
 3035TIP3    H2 9070   3.366   5.292   5.071
 3036TIP3   OH2 9071   6.499   2.951   2.181
 3036TIP3    H1 9072   6.513   3.045   2.174
 3036TIP3    H2 9073   6.409   2.942   2.212
 3037TIP3   OH2 9074   3.114   5.575   4.130
 3037TIP3    H1 9075   3.072   5.616   4.054
 3037TIP3    H2 9076   3.179   5.516   4.093
 3038TIP3   OH2 9077   3.107   6.431   1.224
 3038TIP3    H1 9078   3.104   6.507   1.165
 3038TIP3    H2 9079   3.053   6.458   1.299
 3039TIP3   OH2 9080   7.004   0.097   0.727
 3039TIP3    H1 9081   7.049   0.174   0.763
 3039TIP3    H2 9082   6.950   0.131   0.656
 3040TIP3   OH2 9083   3.598   1.963   5.079
 3040TIP3    H1 9084   3.668   1.993   5.021
 3040TIP3    H2 9085   3.527   2.025   5.064
 3041TIP3   OH2 9086   3.355   0.393   4.771
 3041TIP3    H1 9087   3.426   0.329   4.764
 3041TIP3    H2 9088   3.278   0.347   4.739
 3042TIP3   OH2 9089   0.196   3.980   5.255
 3042TIP3    H1 9090   0.180   3.894   5.293
 3042TIP3    H2 9091   0.270   4.015   5.306
 3043TIP3   OH2 9092   6.154   5.471   3.357
 3043TIP3    H1 9093   6.176   5.506   3.271
 3043TIP3    H2 9094   6.238   5.463   3.402
 3044TIP3   OH2 9095   3.749   4.191   0.534
 3044TIP3    H1 9096   3.735   4.122   0.469
 3044TIP3    H2 9097   3.797   4.149   0.605
 3045TIP3   OH2 9098   0.295   2.973   2.216
 3045TIP3    H1 9099   0.371   2.940   2.265
 3045TIP3    H2 9100   0.319   2.961   2.124
 3046TIP3   OH2 9101   1.805   3.960   1.638
 3046TIP3    H1 9102   1.747   4.027   1.601
 3046TIP3    H2 9103   1.778   3.879   1.594
 3047TIP3   OH2 9104   2.994   0.084   1.030
 3047TIP3    H1 9105   2.920   0.144   1.022
 3047TIP3    H2 9106   3.024   0.093   1.120
 3048TIP3   OH2 9107   2.314   3.142   0.254
 3048TIP3    H1 9108   2.406   3.170   0.250
 3048TIP3    H2 9109   2.313   3.056   0.212
 3049TIP3   OH2 9110   2.394   3.183   3.313
 3049TIP3    H1 9111   2.330   3.251   3.331
 3049TIP3    H2 9112   2.343   3.104   3.299
 3050TIP3   OH2 9113   0.860   6.123   1.794
 3050TIP3    H1 9114   0.901   6.056   1.739
 3050TIP3    H2 9115   0.927   6.145   1.859
 3051TIP3   OH2 9116   1.326   3.921   2.761
 3051TIP3    H1 9117   1.389   3.981   2.802
 3051TIP3    H2 9118   1.247   3.930   2.814
 3052TIP3   OH2 9119   5.241   4.576   1.772
 3052TIP3    H1 9120   5.272   4.509   1.832
 3052TIP3    H2 9121   5.186   4.633   1.826
 3053TIP3   OH2 9122   5.893   4.188   1.408
 3053TIP3    H1 9123   5.891   4.208   1.502
 3053TIP3    H2 9124   5.935   4.264   1.368
 3054TIP3   OH2 9125   2.344   4.442   3.728
 3054TIP3    H1 9126   2.410   4.400   3.782
 3054TIP3    H2 9127   2.285   4.370   3.703
 3055TIP3   OH2 9128   4.260   5.768   0.090
 3055TIP3    H1 9129   4.339   5.775   0.036
 3055TIP3    H2 9130   4.253   5.853   0.133
 3056TIP3   OH2 9131   1.190   0.132   2.097
 3056TIP3    H1 9132   1.174   0.038   2.086
 3056TIP3    H2 9133   1.104   0.173   2.092
 3057TIP3   OH2 9134   3.404   3.094   0.061
 3057TIP3    H1 9135   3.357   3.011   0.070
 3057TIP3    H2 9136   3.387   3.139   0.144
 3058TIP3   OH2 9137   6.144   3.353   0.293
 3058TIP3    H1 9138   6.217   3.293   0.303
 3058TIP3    H2 9139   6.116   3.374   0.382
 3059TIP3   OH2 9140   1.734   5.623   5.521
 3059TIP3    H1 9141   1.763   5.638   5.611
 3059TIP3    H2 9142   1.693   5.706   5.494
 3060TIP3   OH2 9143   1.594   6.375   0.898
 3060TIP3    H1 9144   1.598   6.279   0.889
 3060TIP3    H2 9145   1.685   6.403   0.894
 3061TIP3   OH2 9146   6.633   3.242   1.104
 3061TIP3    H1 9147   6.641   3.150   1.131
 3061TIP3    H2 9148   6.672   3.245   1.017
 3062TIP3   OH2 9149   3.480   4.109   2.014
 3062TIP3    H1 9150   3.567   4.072   1.999
 3062TIP3    H2 9151   3.437   4.106   1.929
 3063TIP3   OH2 9152   3.899   1.521   4.735
 3063TIP3    H1 9153   3.950   1.488   4.661
 3063TIP3    H2 9154   3.822   1.464   4.738
 3064TIP3   OH2 9155   6.019   4.751   4.619
 3064TIP3    H1 9156   6.102   4.750   4.571
 3064TIP3    H2 9157   5.962   4.806   4.565
 3065TIP3   OH2 9158   1.503   3.086   3.460
 3065TIP3    H1 9159   1.536   3.111   3.374
 3065TIP3    H2 9160   1.504   2.991   3.459
 3066TIP3   OH2 9161   0.601   0.364   4.990
 3066TIP3    H1 9162   0.625   0.298   4.924
 3066TIP3    H2 9163   0.618   0.321   5.074
 3067TIP3   OH2 9164   0.324   2.028   4.364
 3067TIP3    H1 9165   0.262   1.957   4.380
 3067TIP3    H2 9166   0.408   1.985   4.352
 3068TIP3   OH2 9167   2.614   0.502   5.693
 3068TIP3    H1 9168   2.699   0.459   5.700
 3068TIP3    H2 9169   2.565   0.448   5.629
 3069TIP3   OH2 9170   2.178   2.520   5.728
 3069TIP3    H1 9171   2.123   2.573   5.786
 3069TIP3    H2 9172   2.135   2.435   5.725
 3070TIP3   OH2 9173   0.326   6.569   5.826
 3070TIP3    H1 9174   0.254   6.511   5.803
 3070TIP3    H2 9175   0.370   6.527   5.899
 3071TIP3   OH2 9176   2.874   4.081   3.788
 3071TIP3    H1 9177   2.948   4.062   3.846
 3071TIP3    H2 9178   2.825   3.999   3.785
 3072TIP3   OH2 9179   4.580   6.598   1.341
 3072TIP3    H1 9180   4.668   6.585   1.305
 3072TIP3    H2 9181   4.538   6.513   1.333
 3073TIP3   OH2 9182   5.297   1.453   5.321
 3073TIP3    H1 9183   5.352   1.384   5.282
 3073TIP3    H2 9184   5.210   1.414   5.325
 3074TIP3   OH2 9185   0.190   5.024   2.038
 3074TIP3    H1 9186   0.257   5.020   1.970
 3074TIP3    H2 9187   0.238   5.013   2.120
 3075TIP3   OH2 9188   2.409   2.880   2.944
 3075TIP3    H1 9189   2.461   2.855   3.020
 3075TIP3    H2 9190   2.401   2.975   2.950
 3076TIP3   OH2 9191   3.160   4.742   0.028
 3076TIP3    H1 9192   3.108   4.783  -0.041
 3076TIP3    H2 9193   3.247   4.731  -0.010
 3077TIP3   OH2 9194   4.270   0.909   4.122
 3077TIP3    H1 9195   4.245   1.000   4.141
 3077TIP3    H2 9196   4.214   0.856   4.178
 3078TIP3   OH2 9197   1.605   4.216   0.309
 3078TIP3    H1 9198   1.618   4.133   0.264
 3078TIP3    H2 9199   1.621   4.196   0.401
 3079TIP3   OH2 9200   0.306   2.814   3.463
 3079TIP3    H1 9201   0.272   2.756   3.531
 3079TIP3    H2 9202   0.243   2.886   3.460
 3080TIP3   OH2 9203   6.959   2.488   2.587
 3080TIP3    H1 9204   6.901   2.544   2.536
 3080TIP3    H2 9205   7.038   2.542   2.601
 3081TIP3   OH2 9206   0.405   2.613   1.159
 3081TIP3    H1 9207   0.446   2.653   1.236
 3081TIP3    H2 9208   0.449   2.654   1.085
 3082TIP3   OH2 9209   2.948   4.096   2.061
 3082TIP3    H1 9210   3.005   4.107   2.138
 3082TIP3    H2 9211   2.864   4.133   2.087
 3083TIP3   OH2 9212   1.116   2.465   5.799
 3083TIP3    H1 9213   1.079   2.437   5.883
 3083TIP3    H2 9214   1.050   2.441   5.734
 3084TIP3   OH2 9215   5.939   5.996   2.416
 3084TIP3    H1 9216   5.898   5.952   2.341
 3084TIP3    H2 9217   6.030   5.966   2.415
 3085TIP3   OH2 9218   5.464   0.541   1.062
 3085TIP3    H1 9219   5.480   0.540   1.156
 3085TIP3    H2 9220   5.415   0.622   1.047
 3086TIP3   OH2 9221   1.932   4.482   3.860
 3086TIP3    H1 9222   1.936   4.401   3.810
 3086TIP3    H2 9223   1.978   4.463   3.941
 3087TIP3   OH2 9224   0.501   1.186   3.697
 3087TIP3    H1 9225   0.542   1.268   3.669
 3087TIP3    H2 9226   0.462   1.206   3.782
 3088TIP3   OH2 9227   5.343   0.624   3.758
 3088TIP3    H1 9228   5.268   0.564   3.762
 3088TIP3    H2 9229   5.381   0.609   3.672
 3089TIP3   OH2 9230   3.597   2.105   4.131
 3089TIP3    H1 9231   3.676   2.084   4.181
 3089TIP3    H2 9232   3.622   2.177   4.075
 3090TIP3   OH2 9233   2.552   0.540   2.025
 3090TIP3    H1 9234   2.584   0.592   2.098
 3090TIP3    H2 9235   2.478   0.490   2.061
 3091TIP3   OH2 9236   4.071   0.455   2.773
 3091TIP3    H1 9237   4.076   0.549   2.788
 3091TIP3    H2 9238   4.159   0.423   2.791
 3092TIP3   OH2 9239   6.901   6.229   0.409
 3092TIP3    H1 9240   6.868   6.175   0.481
 3092TIP3    H2 9241   6.909   6.169   0.335
 3093TIP3   OH2 9242   1.440   5.872   1.666
 3093TIP3    H1 9243   1.501   5.801   1.647
 3093TIP3    H2 9244   1.476   5.948   1.620
 3094TIP3   OH2 9245   0.448   6.150   4.007
 3094TIP3    H1 9246   0.401   6.189   4.081
 3094TIP3    H2 9247   0.432   6.056   4.015
 3095TIP3   OH2 9248   3.552   4.945   1.262
 3095TIP3    H1 9249   3.569   4.890   1.185
 3095TIP3    H2 9250   3.634   4.942   1.311
 3096TIP3   OH2 9251   4.338   6.559   0.946
 3096TIP3    H1 9252   4.257   6.538   0.992
 3096TIP3    H2 9253   4.406   6.551   1.012
 3097TIP3   OH2 9254   3.444   5.431   5.478
 3097TIP3    H1 9255   3.508   5.499   5.454
 3097TIP3    H2 9256   3.374   5.442   5.413
 3098TIP3   OH2 9257   1.378   2.194   4.429
 3098TIP3    H1 9258   1.318   2.120   4.426
 3098TIP3    H2 9259   1.322   2.271   4.415
 3099TIP3   OH2 9260   2.286   1.501   2.839
 3099TIP3    H1 9261   2.302   1.595   2.839
 3099TIP3    H2 9262   2.288   1.476   2.931
 3100TIP3   OH2 9263   0.283   3.517   4.641
 3100TIP3    H1 9264   0.377   3.532   4.646
 3100TIP3    H2 9265   0.246   3.603   4.620
 3101TIP3   OH2 9266   1.335   5.162   4.486
 3101TIP3    H1 9267   1.365   5.071   4.484
 3101TIP3    H2 9268   1.388   5.205   4.419
 3102TIP3   OH2 9269   4.020   3.297   2.389
 3102TIP3    H1 9270   4.040   3.347   2.468
 3102TIP3    H2 9271   4.031   3.359   2.317
 3103TIP3   OH2 9272   2.652   3.430   1.973
 3103TIP3    H1 9273   2.663   3.337   1.953
 3103TIP3    H2 9274   2.726   3.473   1.931
 3104TIP3   OH2 9275   1.160   0.911   4.180
 3104TIP3    H1 9276   1.147   0.832   4.129
 3104TIP3    H2 9277   1.075   0.954   4.180
 3105TIP3   OH2 9278   0.084   1.439   1.566
 3105TIP3    H1 9279   0.067   1.461   1.474
 3105TIP3    H2 9280   0.173   1.405   1.567
 3106TIP3   OH2 9281   1.516   2.807   4.903
 3106TIP3    H1 9282   1.595   2.836   4.948
 3106TIP3    H2 9283   1.476   2.887   4.869
 3107TIP3   OH2 9284   1.146   5.556   0.775
 3107TIP3    H1 9285   1.196   5.485   0.815
 3107TIP3    H2 9286   1.165   5.632   0.829
 3108TIP3   OH2 9287   3.436   4.258   0.271
 3108TIP3    H1 9288   3.343   4.276   0.281
 3108TIP3    H2 9289   3.462   4.217   0.353
 3109TIP3   OH2 9290   1.174   0.016   1.290
 3109TIP3    H1 9291   1.265  -0.016   1.293
 3109TIP3    H2 9292   1.175   0.083   1.222
 3110TIP3   OH2 9293   3.780   4.190   4.640
 3110TIP3    H1 9294   3.717   4.169   4.709
 3110TIP3    H2 9295   3.855   4.133   4.657
 3111TIP3   OH2 9296   4.124   5.417   5.487
 3111TIP3    H1 9297   4.181   5.410   5.564
 3111TIP3    H2 9298   4.134   5.507   5.457
 3112TIP3   OH2 9299   6.997   3.112   0.339
 3112TIP3    H1 9300   7.047   3.074   0.412
 3112TIP3    H2 9301   6.943   3.039   0.307
 3113TIP3   OH2 9302   0.444   2.095   1.217
 3113TIP3    H1 9303   0.454   2.087   1.312
 3113TIP3    H2 9304   0.533   2.093   1.183
 3114TIP3   OH2 9305   5.240   1.944   5.279
 3114TIP3    H1 9306   5.284   1.922   5.361
 3114TIP3    H2 9307   5.233   1.860   5.232
 3115TIP3   OH2 9308   1.865   4.087   5.604
 3115TIP3    H1 9309   1.827   4.000   5.604
 3115TIP3    H2 9310   1.945   4.079   5.553
 3116TIP3   OH2 9311   0.558   3.625   2.794
 3116TIP3    H1 9312   0.491   3.683   2.757
 3116TIP3    H2 9313   0.637   3.678   2.795
 3117TIP3   OH2 9314   6.248   1.651   1.707
 3117TIP3    H1 9315   6.201   1.690   1.633
 3117TIP3    H2 9316   6.215   1.699   1.784
 3118TIP3   OH2 9317   6.178   3.886   5.709
 3118TIP3    H1 9318   6.157   3.868   5.801
 3118TIP3    H2 9319   6.191   3.981   5.706
 3119TIP3   OH2 9320   5.892   2.580   4.023
 3119TIP3    H1 9321   5.905   2.581   3.928
 3119TIP3    H2 9322   5.893   2.488   4.046
 3120TIP3   OH2 9323   3.091   6.222   2.047
 3120TIP3    H1 9324   3.100   6.317   2.041
 3120TIP3    H2 9325   3.007   6.209   2.089
 3121TIP3   OH2 9326   7.033   3.374   4.552
 3121TIP3    H1 9327   7.003   3.436   4.485
 3121TIP3    H2 9328   7.049   3.293   4.504
 3122TIP3   OH2 9329   3.187   3.451   1.569
 3122TIP3    H1 9330   3.265   3.478   1.521
 3122TIP3    H2 9331   3.203   3.479   1.659
 3123TIP3   OH2 9332   6.099   1.942   3.654
 3123TIP3    H1 9333   6.091   1.997   3.576
 3123TIP3    H2 9334   6.193   1.935   3.670
 3124TIP3   OH2 9335   6.960   1.685   2.710
 3124TIP3    H1 9336   7.049   1.675   2.675
 3124TIP3    H2 9337   6.942   1.778   2.703
 3125TIP3   OH2 9338   5.447   1.824   1.033
 3125TIP3    H1 9339   5.412   1.869   1.111
 3125TIP3    H2 9340   5.376   1.829   0.970
 3126TIP3   OH2 9341   2.991   6.024   4.093
 3126TIP3    H1 9342   2.906   6.021   4.137
 3126TIP3    H2 9343   3.037   5.947   4.126
 3127TIP3   OH2 9344   0.505   0.872   0.504
 3127TIP3    H1 9345   0.591   0.891   0.466
 3127TIP3    H2 9346   0.488   0.945   0.562
 3128TIP3   OH2 9347   1.282   2.888   4.376
 3128TIP3    H1 9348   1.237   2.841   4.306
 3128TIP3    H2 9349   1.308   2.821   4.438
 3129TIP3   OH2 9350   6.543   1.671   5.818
 3129TIP3    H1 9351   6.587   1.754   5.798
 3129TIP3    H2 9352   6.531   1.672   5.913
 3130TIP3   OH2 9353   5.671   2.112   4.521
 3130TIP3    H1 9354   5.659   2.207   4.528
 3130TIP3    H2 9355   5.725   2.101   4.443
 3131TIP3   OH2 9356   3.323   4.808   1.942
 3131TIP3    H1 9357   3.415   4.819   1.966
 3131TIP3    H2 9358   3.314   4.714   1.925
 3132TIP3   OH2 9359   3.564   3.144   2.087
 3132TIP3    H1 9360   3.504   3.143   2.161
 3132TIP3    H2 9361   3.650   3.124   2.125
 3133TIP3   OH2 9362   5.770   2.425   5.840
 3133TIP3    H1 9363   5.758   2.492   5.773
 3133TIP3    H2 9364   5.836   2.367   5.805
 3134TIP3   OH2 9365   5.840   4.856   3.463
 3134TIP3    H1 9366   5.903   4.825   3.529
 3134TIP3    H2 9367   5.848   4.951   3.466
 3135TIP3   OH2 9368   1.694   4.357   1.934
 3135TIP3    H1 9369   1.668   4.329   1.846
 3135TIP3    H2 9370   1.697   4.452   1.930
 3136TIP3   OH2 9371   3.898   2.030   4.252
 3136TIP3    H1 9372   3.931   2.081   4.325
 3136TIP3    H2 9373   3.975   2.007   4.200
 3137TIP3   OH2 9374   2.913   1.318   0.816
 3137TIP3    H1 9375   3.007   1.306   0.827
 3137TIP3    H2 9376   2.879   1.230   0.802
 3138TIP3   OH2 9377   6.767   5.585   2.449
 3138TIP3    H1 9378   6.751   5.494   2.423
 3138TIP3    H2 9379   6.798   5.627   2.369
 3139TIP3   OH2 9380   0.431   4.041   4.343
 3139TIP3    H1 9381   0.426   4.023   4.249
 3139TIP3    H2 9382   0.469   4.129   4.349
 3140TIP3   OH2 9383   4.808   5.244   2.150
 3140TIP3    H1 9384   4.847   5.157   2.157
 3140TIP3    H2 9385   4.817   5.282   2.238
 3141TIP3   OH2 9386   0.376   2.289   2.225
 3141TIP3    H1 9387   0.307   2.285   2.158
 3141TIP3    H2 9388   0.356   2.217   2.285
 3142TIP3   OH2 9389   1.308   2.445   0.174
 3142TIP3    H1 9390   1.260   2.489   0.103
 3142TIP3    H2 9391   1.276   2.355   0.171
 3143TIP3   OH2 9392   6.455   1.567   3.480
 3143TIP3    H1 9393   6.518   1.499   3.456
 3143TIP3    H2 9394   6.453   1.565   3.575
 3144TIP3   OH2 9395   1.694   0.698   5.181
 3144TIP3    H1 9396   1.634   0.737   5.117
 3144TIP3    H2 9397   1.675   0.745   5.263
 3145TIP3   OH2 9398   6.944   1.457   3.064
 3145TIP3    H1 9399   6.904   1.437   2.979
 3145TIP3    H2 9400   6.961   1.371   3.103
 3146TIP3   OH2 9401   4.505   1.138   2.593
 3146TIP3    H1 9402   4.484   1.156   2.501
 3146TIP3    H2 9403   4.530   1.223   2.629
 3147TIP3   OH2 9404   0.282   2.516   0.839
 3147TIP3    H1 9405   0.234   2.433   0.849
 3147TIP3    H2 9406   0.240   2.575   0.901
 3148TIP3   OH2 9407   1.851   3.484   4.208
 3148TIP3    H1 9408   1.823   3.420   4.273
 3148TIP3    H2 9409   1.847   3.568   4.255
 3149TIP3   OH2 9410   1.104   1.729   5.134
 3149TIP3    H1 9411   1.034   1.705   5.194
 3149TIP3    H2 9412   1.068   1.713   5.047
 3150TIP3   OH2 9413   5.535   2.312   2.610
 3150TIP3    H1 9414   5.517   2.369   2.535
 3150TIP3    H2 9415   5.595   2.363   2.665
 3151TIP3   OH2 9416   2.512   0.387   4.329
 3151TIP3    H1 9417   2.453   0.326   4.374
 3151TIP3    H2 9418   2.471   0.403   4.245
 3152TIP3   OH2 9419   3.406   5.461   1.125
 3152TIP3    H1 9420   3.402   5.536   1.067
 3152TIP3    H2 9421   3.442   5.390   1.071
 3153TIP3   OH2 9422   2.316   0.717   0.916
 3153TIP3    H1 9423   2.382   0.736   0.849
 3153TIP3    H2 9424   2.321   0.622   0.927
 3154TIP3   OH2 9425   0.849   3.152   2.876
 3154TIP3    H1 9426   0.873   3.217   2.942
 3154TIP3    H2 9427   0.758   3.131   2.896
 3155TIP3   OH2 9428   4.898   0.476   5.016
 3155TIP3    H1 9429   4.964   0.541   5.041
 3155TIP3    H2 9430   4.921   0.451   4.927
 3156TIP3   OH2 9431   6.429   5.126   2.775
 3156TIP3    H1 9432   6.390   5.109   2.861
 3156TIP3    H2 9433   6.363   5.098   2.712
 3157TIP3   OH2 9434   3.052   1.541   0.665
 3157TIP3    H1 9435   3.048   1.450   0.694
 3157TIP3    H2 9436   3.126   1.543   0.603
 3158TIP3   OH2 9437   7.023   4.895   1.794
 3158TIP3    H1 9438   6.972   4.839   1.852
 3158TIP3    H2 9439   7.092   4.931   1.850
 3159TIP3   OH2 9440   1.240   4.267   3.231
 3159TIP3    H1 9441   1.169   4.328   3.251
 3159TIP3    H2 9442   1.316   4.322   3.215
 3160TIP3   OH2 9443   1.637   6.295   1.211
 3160TIP3    H1 9444   1.551   6.260   1.187
 3160TIP3    H2 9445   1.631   6.389   1.192
 3161TIP3   OH2 9446   5.255   3.524   1.652
 3161TIP3    H1 9447   5.161   3.512   1.661
 3161TIP3    H2 9448   5.276   3.480   1.569
 3162TIP3   OH2 9449   1.672   3.821   5.262
 3162TIP3    H1 9450   1.631   3.904   5.238
 3162TIP3    H2 9451   1.600   3.759   5.270
 3163TIP3   OH2 9452   0.502   2.400   5.325
 3163TIP3    H1 9453   0.504   2.335   5.395
 3163TIP3    H2 9454   0.586   2.390   5.280
 3164TIP3   OH2 9455   0.690   2.287   4.953
 3164TIP3    H1 9456   0.715   2.343   4.880
 3164TIP3    H2 9457   0.701   2.342   5.031
 3165TIP3   OH2 9458   0.560   3.970   3.170
 3165TIP3    H1 9459   0.606   3.966   3.087
 3165TIP3    H2 9460   0.468   3.984   3.146
 3166TIP3   OH2 9461   4.266   1.313   1.837
 3166TIP3    H1 9462   4.178   1.304   1.873
 3166TIP3    H2 9463   4.253   1.313   1.742
 3167TIP3   OH2 9464   2.593   5.042   2.611
 3167TIP3    H1 9465   2.646   5.121   2.615
 3167TIP3    H2 9466   2.528   5.053   2.681
 3168TIP3   OH2 9467   3.329   6.537   3.450
 3168TIP3    H1 9468   3.307   6.448   3.422
 3168TIP3    H2 9469   3.272   6.594   3.399
 3169TIP3   OH2 9470   1.038   5.538   3.106
 3169TIP3    H1 9471   1.123   5.580   3.099
 3169TIP3    H2 9472   1.034   5.505   3.195
 3170TIP3   OH2 9473   0.229   6.158   0.925
 3170TIP3    H1 9474   0.165   6.228   0.920
 3170TIP3    H2 9475   0.213   6.105   0.847
 3171TIP3   OH2 9476   6.480   2.486   1.462
 3171TIP3    H1 9477   6.442   2.417   1.409
 3171TIP3    H2 9478   6.487   2.449   1.549
 3172TIP3   OH2 9479   4.620   4.421   4.594
 3172TIP3    H1 9480   4.559   4.394   4.663
 3172TIP3    H2 9481   4.568   4.421   4.514
 3173TIP3   OH2 9482   3.903   4.794   0.178
 3173TIP3    H1 9483   3.834   4.817   0.240
 3173TIP3    H2 9484   3.908   4.869   0.118
 3174TIP3   OH2 9485   0.649   5.065   4.621
 3174TIP3    H1 9486   0.677   5.014   4.698
 3174TIP3    H2 9487   0.590   5.007   4.575
 3175TIP3   OH2 9488   5.809   5.577   0.901
 3175TIP3    H1 9489   5.745   5.517   0.861
 3175TIP3    H2 9490   5.876   5.587   0.833
 3176TIP3   OH2 9491   1.358   3.317   3.067
 3176TIP3    H1 9492   1.288   3.378   3.042
 3176TIP3    H2 9493   1.431   3.340   3.010
 3177TIP3   OH2 9494   6.735   6.409   3.915
 3177TIP3    H1 9495   6.775   6.481   3.965
 3177TIP3    H2 9496   6.646   6.404   3.948
 3178TIP3   OH2 9497   0.464   0.881   1.987
 3178TIP3    H1 9498   0.433   0.942   2.054
 3178TIP3    H2 9499   0.468   0.796   2.030
 3179TIP3   OH2 9500   6.769   6.656   4.286
 3179TIP3    H1 9501   6.765   6.661   4.190
 3179TIP3    H2 9502   6.766   6.562   4.304
 3180TIP3   OH2 9503   6.180   1.160   2.553
 3180TIP3    H1 9504   6.181   1.238   2.608
 3180TIP3    H2 9505   6.127   1.185   2.477
 3181TIP3   OH2 9506   3.860   0.204   4.826
 3181TIP3    H1 9507   3.768   0.203   4.852
 3181TIP3    H2 9508   3.864   0.147   4.749
 3182TIP3   OH2 9509   1.571   0.465   2.747
 3182TIP3    H1 9510   1.632   0.539   2.756
 3182TIP3    H2 9511   1.509   0.494   2.680
 3183TIP3   OH2 9512   5.305   5.911   4.158
 3183TIP3    H1 9513   5.382   5.873   4.115
 3183TIP3    H2 9514   5.239   5.842   4.156
 3184TIP3   OH2 9515   4.993   6.502   2.458
 3184TIP3    H1 9516   5.059   6.527   2.523
 3184TIP3    H2 9517   5.024   6.418   2.424
 3185TIP3   OH2 9518   1.253   0.776   5.173
 3185TIP3    H1 9519   1.308   0.733   5.239
 3185TIP3    H2 9520   1.293   0.751   5.090
 3186TIP3   OH2 9521   7.132   1.715   2.307
 3186TIP3    H1 9522   7.044   1.746   2.289
 3186TIP3    H2 9523   7.141   1.634   2.256
 3187TIP3   OH2 9524   2.459   4.782   2.518
 3187TIP3    H1 9525   2.499   4.868   2.508
 3187TIP3    H2 9526   2.405   4.790   2.596
 3188TIP3   OH2 9527   5.377   2.078   1.511
 3188TIP3    H1 9528   5.339   2.149   1.460
 3188TIP3    H2 9529   5.460   2.113   1.543
 3189TIP3   OH2 9530   4.154   5.464   3.870
 3189TIP3    H1 9531   4.139   5.504   3.785
 3189TIP3    H2 9532   4.181   5.537   3.927
 3190TIP3   OH2 9533   4.367   5.238   1.300
 3190TIP3    H1 9534   4.385   5.331   1.299
 3190TIP3    H2 9535   4.422   5.201   1.231
 3191TIP3   OH2 9536   2.719   2.075   5.798
 3191TIP3    H1 9537   2.663   2.035   5.865
 3191TIP3    H2 9538   2.804   2.034   5.810
 3192TIP3   OH2 9539   0.149   4.426   3.796
 3192TIP3    H1 9540   0.082   4.493   3.802
 3192TIP3    H2 9541   0.200   4.450   3.719
 3193TIP3   OH2 9542   4.820   3.479   5.555
 3193TIP3    H1 9543   4.760   3.404   5.564
 3193TIP3    H2 9544   4.814   3.525   5.639
 3194TIP3   OH2 9545   5.608   3.792   3.776
 3194TIP3    H1 9546   5.607   3.879   3.736
 3194TIP3    H2 9547   5.628   3.808   3.868
 3195TIP3   OH2 9548   3.759   3.898   1.605
 3195TIP3    H1 9549   3.799   3.968   1.554
 3195TIP3    H2 9550   3.797   3.817   1.571
 3196TIP3   OH2 9551  -0.029   1.375   4.709
 3196TIP3    H1 9552   0.059   1.409   4.691
 3196TIP3    H2 9553  -0.062   1.429   4.780
 3197TIP3   OH2 9554   5.598   4.347   1.444
 3197TIP3    H1 9555   5.502   4.349   1.439
 3197TIP3    H2 9556   5.621   4.420   1.501
 3198TIP3   OH2 9557   0.158   1.024   5.076
 3198TIP3    H1 9558   0.083   0.974   5.042
 3198TIP3    H2 9559   0.233   0.989   5.029
 3199TIP3   OH2 9560   0.115   5.054   0.286
 3199TIP3    H1 9561   0.137   4.963   0.264
 3199TIP3    H2 9562   0.048   5.046   0.354
 3200TIP3   OH2 9563   5.110   6.686   4.674
 3200TIP3    H1 9564   5.032   6.714   4.625
 3200TIP3    H2 9565   5.136   6.764   4.723
 3201TIP3   OH2 9566   6.895   2.770   5.297
 3201TIP3    H1 9567   6.902   2.676   5.276
 3201TIP3    H2 9568   6.834   2.774   5.370
 3202TIP3   OH2 9569   5.772   5.259   4.532
 3202TIP3    H1 9570   5.678   5.239   4.523
 3202TIP3    H2 9571   5.810   5.179   4.567
 3203TIP3   OH2 9572   5.944   2.025   5.358
 3203TIP3    H1 9573   6.013   1.988   5.303
 3203TIP3    H2 9574   5.909   2.097   5.306
 3204TIP3   OH2 9575   6.564   1.512   2.163
 3204TIP3    H1 9576   6.609   1.548   2.239
 3204TIP3    H2 9577   6.473   1.541   2.172
 3205TIP3   OH2 9578   0.927   1.350   0.582
 3205TIP3    H1 9579   0.847   1.388   0.545
 3205TIP3    H2 9580   0.899   1.266   0.618
 3206TIP3   OH2 9581   2.517   6.765   3.975
 3206TIP3    H1 9582   2.562   6.726   4.050
 3206TIP3    H2 9583   2.576   6.751   3.901
 3207TIP3   OH2 9584   2.674   0.970   5.470
 3207TIP3    H1 9585   2.612   1.042   5.476
 3207TIP3    H2 9586   2.625   0.893   5.499
 3208TIP3   OH2 9587   3.827   2.193   2.001
 3208TIP3    H1 9588   3.875   2.112   2.015
 3208TIP3    H2 9589   3.886   2.247   1.949
 3209TIP3   OH2 9590   5.282   6.330   5.770
 3209TIP3    H1 9591   5.231   6.333   5.689
 3209TIP3    H2 9592   5.245   6.400   5.824
 3210TIP3   OH2 9593   2.716   2.700   0.171
 3210TIP3    H1 9594   2.745   2.785   0.205
 3210TIP3    H2 9595   2.767   2.636   0.221
 3211TIP3   OH2 9596   0.038   4.547  -0.031
 3211TIP3    H1 9597   0.058   4.455  -0.049
 3211TIP3    H2 9598   0.085   4.596  -0.099
 3212TIP3   OH2 9599   1.414   4.840   1.897
 3212TIP3    H1 9600   1.455   4.859   1.813
 3212TIP3    H2 9601   1.404   4.744   1.898
 3213TIP3   OH2 9602   6.170   4.215   3.641
 3213TIP3    H1 9603   6.185   4.137   3.587
 3213TIP3    H2 9604   6.197   4.288   3.585
 3214TIP3   OH2 9605   6.093   0.678   1.106
 3214TIP3    H1 9606   6.012   0.652   1.061
 3214TIP3    H2 9607   6.077   0.656   1.198
 3215TIP3   OH2 9608   7.135   5.584   0.989
 3215TIP3    H1 9609   7.084   5.639   1.048
 3215TIP3    H2 9610   7.117   5.495   1.018
 3216TIP3   OH2 9611   1.661   2.962   1.131
 3216TIP3    H1 9612   1.608   2.939   1.055
 3216TIP3    H2 9613   1.611   2.928   1.206
 3217TIP3   OH2 9614   3.715   2.335   1.483
 3217TIP3    H1 9615   3.800   2.368   1.452
 3217TIP3    H2 9616   3.733   2.302   1.571
 3218TIP3   OH2 9617   0.919   3.513   3.320
 3218TIP3    H1 9618   0.965   3.590   3.355
 3218TIP3    H2 9619   0.936   3.444   3.384
 3219TIP3   OH2 9620   1.646   5.804   4.334
 3219TIP3    H1 9621   1.652   5.836   4.424
 3219TIP3    H2 9622   1.553   5.785   4.322
 3220TIP3   OH2 9623   2.858   5.256   4.365
 3220TIP3    H1 9624   2.944   5.239   4.327
 3220TIP3    H2 9625   2.843   5.350   4.349
 3221TIP3   OH2 9626   3.869   0.775   2.942
 3221TIP3    H1 9627   3.903   0.741   3.025
 3221TIP3    H2 9628   3.942   0.825   2.905
 3222TIP3   OH2 9629   3.254   1.269   0.138
 3222TIP3    H1 9630   3.261   1.327   0.213
 3222TIP3    H2 9631   3.208   1.191   0.171
 3223TIP3   OH2 9632   1.397   6.214   4.217
 3223TIP3    H1 9633   1.440   6.272   4.280
 3223TIP3    H2 9634   1.309   6.203   4.251
 3224TIP3   OH2 9635   3.317   4.614   5.380
 3224TIP3    H1 9636   3.245   4.586   5.324
 3224TIP3    H2 9637   3.292   4.701   5.410
 3225TIP3   OH2 9638   0.600   2.659   3.098
 3225TIP3    H1 9639   0.507   2.653   3.122
 3225TIP3    H2 9640   0.624   2.750   3.117
 3226TIP3   OH2 9641   3.088   4.077   2.301
 3226TIP3    H1 9642   3.027   4.104   2.369
 3226TIP3    H2 9643   3.128   3.997   2.335
 3227TIP3   OH2 9644   3.960   4.186   1.646
 3227TIP3    H1 9645   3.900   4.260   1.658
 3227TIP3    H2 9646   3.943   4.155   1.557
 3228TIP3   OH2 9647   2.528   6.782   4.413
 3228TIP3    H1 9648   2.471   6.720   4.459
 3228TIP3    H2 9649   2.476   6.810   4.337
 3229TIP3   OH2 9650   1.556   3.192   5.681
 3229TIP3    H1 9651   1.527   3.125   5.620
 3229TIP3    H2 9652   1.592   3.143   5.755
 3230TIP3   OH2 9653   7.017   5.399   5.746
 3230TIP3    H1 9654   6.983   5.488   5.740
 3230TIP3    H2 9655   6.969   5.351   5.678
 3231TIP3   OH2 9656   7.173   4.066   4.572
 3231TIP3    H1 9657   7.234   4.070   4.646
 3231TIP3    H2 9658   7.132   4.152   4.570
 3232TIP3   OH2 9659   5.867   1.309   5.181
 3232TIP3    H1 9660   5.918   1.230   5.202
 3232TIP3    H2 9661   5.842   1.345   5.266
 3233TIP3   OH2 9662   4.273   6.170   2.494
 3233TIP3    H1 9663   4.182   6.156   2.468
 3233TIP3    H2 9664   4.303   6.084   2.523
 3234TIP3   OH2 9665   3.794   3.615   2.760
 3234TIP3    H1 9666   3.702   3.629   2.785
 3234TIP3    H2 9667   3.844   3.669   2.822
 3235TIP3   OH2 9668   1.771   4.932   4.010
 3235TIP3    H1 9669   1.854   4.942   4.056
 3235TIP3    H2 9670   1.782   4.853   3.957
 3236TIP3   OH2 9671   1.296   2.751   1.960
 3236TIP3    H1 9672   1.298   2.793   2.046
 3236TIP3    H2 9673   1.250   2.668   1.975
 3237TIP3   OH2 9674   5.959   5.096   3.094
 3237TIP3    H1 9675   5.923   5.014   3.128
 3237TIP3    H2 9676   5.882   5.150   3.075
 3238TIP3   OH2 9677   0.822   6.165   1.365
 3238TIP3    H1 9678   0.853   6.092   1.419
 3238TIP3    H2 9679   0.901   6.196   1.320
 3239TIP3   OH2 9680   3.557   1.016   0.341
 3239TIP3    H1 9681   3.498   0.941   0.345
 3239TIP3    H2 9682   3.643   0.978   0.321
 3240TIP3   OH2 9683   0.830   2.227   3.850
 3240TIP3    H1 9684   0.878   2.289   3.794
 3240TIP3    H2 9685   0.809   2.277   3.929
 3241TIP3   OH2 9686   2.181   2.832   4.762
 3241TIP3    H1 9687   2.240   2.776   4.712
 3241TIP3    H2 9688   2.094   2.815   4.725
 3242TIP3   OH2 9689   5.673   6.240   1.317
 3242TIP3    H1 9690   5.618   6.318   1.308
 3242TIP3    H2 9691   5.650   6.204   1.403
 3243TIP3   OH2 9692   7.059   3.127   4.423
 3243TIP3    H1 9693   6.965   3.113   4.409
 3243TIP3    H2 9694   7.088   3.048   4.469
 3244TIP3   OH2 9695   4.920   0.170   5.476
 3244TIP3    H1 9696   4.886   0.083   5.455
 3244TIP3    H2 9697   5.002   0.177   5.428
 3245TIP3   OH2 9698   4.343   1.782   4.984
 3245TIP3    H1 9699   4.396   1.790   5.064
 3245TIP3    H2 9700   4.281   1.712   5.003
 3246TIP3   OH2 9701   6.349   3.738   4.173
 3246TIP3    H1 9702   6.314   3.827   4.167
 3246TIP3    H2 9703   6.391   3.735   4.259
 3247TIP3   OH2 9704   5.265   0.669   0.723
 3247TIP3    H1 9705   5.322   0.729   0.770
 3247TIP3    H2 9706   5.289   0.582   0.755
 3248TIP3   OH2 9707   1.210   5.292   3.842
 3248TIP3    H1 9708   1.244   5.311   3.929
 3248TIP3    H2 9709   1.234   5.201   3.826
 3249TIP3   OH2 9710   5.244   4.018   2.296
 3249TIP3    H1 9711   5.210   4.089   2.241
 3249TIP3    H2 9712   5.180   3.947   2.286
 3250TIP3   OH2 9713   2.141   2.779   1.797
 3250TIP3    H1 9714   2.098   2.815   1.720
 3250TIP3    H2 9715   2.070   2.762   1.859
 3251TIP3   OH2 9716   3.269   6.453   5.306
 3251TIP3    H1 9717   3.207   6.389   5.340
 3251TIP3    H2 9718   3.223   6.537   5.313
 3252TIP3   OH2 9719   2.691   5.421   2.905
 3252TIP3    H1 9720   2.733   5.502   2.933
 3252TIP3    H2 9721   2.704   5.361   2.979
 3253TIP3   OH2 9722   2.730   0.324   1.957
 3253TIP3    H1 9723   2.766   0.310   1.870
 3253TIP3    H2 9724   2.665   0.394   1.945
 3254TIP3   OH2 9725   2.697   3.182   5.636
 3254TIP3    H1 9726   2.742   3.267   5.635
 3254TIP3    H2 9727   2.767   3.117   5.639
 3255TIP3   OH2 9728   6.619   4.422   3.304
 3255TIP3    H1 9729   6.583   4.380   3.226
 3255TIP3    H2 9730   6.709   4.392   3.308
 3256TIP3   OH2 9731   1.378   1.404   4.814
 3256TIP3    H1 9732   1.458   1.357   4.833
 3256TIP3    H2 9733   1.372   1.471   4.882
 3257TIP3   OH2 9734   2.615   3.709   5.596
 3257TIP3    H1 9735   2.555   3.650   5.550
 3257TIP3    H2 9736   2.630   3.781   5.535
 3258TIP3   OH2 9737   5.437   4.537   4.823
 3258TIP3    H1 9738   5.512   4.479   4.811
 3258TIP3    H2 9739   5.469   4.607   4.880
 3259TIP3   OH2 9740   4.834   4.428   1.358
 3259TIP3    H1 9741   4.856   4.484   1.433
 3259TIP3    H2 9742   4.834   4.339   1.393
 3260TIP3   OH2 9743   0.451   1.711   1.963
 3260TIP3    H1 9744   0.508   1.760   2.022
 3260TIP3    H2 9745   0.366   1.713   2.006
 3261TIP3   OH2 9746   1.338   0.669   0.392
 3261TIP3    H1 9747   1.396   0.640   0.463
 3261TIP3    H2 9748   1.275   0.597   0.382
 3262TIP3   OH2 9749   0.764   0.037   0.757
 3262TIP3    H1 9750   0.783  -0.003   0.672
 3262TIP3    H2 9751   0.767   0.131   0.741
 3263TIP3   OH2 9752   6.007   4.440   4.658
 3263TIP3    H1 9753   6.005   4.411   4.749
 3263TIP3    H2 9754   6.013   4.535   4.662
 3264TIP3   OH2 9755   2.264   4.510   5.356
 3264TIP3    H1 9756   2.183   4.554   5.332
 3264TIP3    H2 9757   2.324   4.581   5.379
 3265TIP3   OH2 9758   4.777   3.472   1.006
 3265TIP3    H1 9759   4.844   3.460   0.939
 3265TIP3    H2 9760   4.694   3.450   0.962
 3266TIP3   OH2 9761   4.535   6.726   2.133
 3266TIP3    H1 9762   4.582   6.704   2.052
 3266TIP3    H2 9763   4.581   6.802   2.168
 3267TIP3   OH2 9764   0.824   4.813   5.524
 3267TIP3    H1 9765   0.858   4.766   5.600
 3267TIP3    H2 9766   0.770   4.748   5.478
 3268TIP3   OH2 9767   5.984   3.217   4.059
 3268TIP3    H1 9768   5.963   3.300   4.102
 3268TIP3    H2 9769   5.923   3.213   3.985
 3269TIP3   OH2 9770   7.019   0.383   5.011
 3269TIP3    H1 9771   7.061   0.463   5.041
 3269TIP3    H2 9772   6.962   0.411   4.939
 3270TIP3   OH2 9773   6.353   0.082   3.202
 3270TIP3    H1 9774   6.281   0.069   3.263
 3270TIP3    H2 9775   6.366   0.177   3.198
 3271TIP3   OH2 9776   6.270   3.637   3.157
 3271TIP3    H1 9777   6.339   3.610   3.097
 3271TIP3    H2 9778   6.229   3.555   3.185
 3272TIP3   OH2 9779   3.221   2.897   4.577
 3272TIP3    H1 9780   3.293   2.960   4.575
 3272TIP3    H2 9781   3.156   2.932   4.518
 3273TIP3   OH2 9782   4.720   6.456   5.129
 3273TIP3    H1 9783   4.720   6.505   5.212
 3273TIP3    H2 9784   4.663   6.381   5.146
 3274TIP3   OH2 9785   1.022   6.456   3.465
 3274TIP3    H1 9786   1.015   6.516   3.540
 3274TIP3    H2 9787   0.943   6.473   3.414
 3275TIP3   OH2 9788   0.984   6.006   3.570
 3275TIP3    H1 9789   1.074   6.017   3.602
 3275TIP3    H2 9790   0.935   6.077   3.611
 3276TIP3   OH2 9791   4.626   4.601   0.562
 3276TIP3    H1 9792   4.601   4.561   0.645
 3276TIP3    H2 9793   4.603   4.693   0.571
 3277TIP3   OH2 9794   3.257   0.886   0.244
 3277TIP3    H1 9795   3.273   0.927   0.159
 3277TIP3    H2 9796   3.256   0.792   0.226
 3278TIP3   OH2 9797   6.751   1.883   1.241
 3278TIP3    H1 9798   6.831   1.927   1.271
 3278TIP3    H2 9799   6.769   1.860   1.150
 3279TIP3   OH2 9800   3.946   1.067   0.603
 3279TIP3    H1 9801   3.880   1.117   0.651
 3279TIP3    H2 9802   4.026   1.078   0.655
 3280TIP3   OH2 9803   3.988   3.894   0.093
 3280TIP3    H1 9804   4.001   3.925   0.183
 3280TIP3    H2 9805   3.994   3.799   0.099
 3281TIP3   OH2 9806   6.249   6.112   5.330
 3281TIP3    H1 9807   6.275   6.021   5.317
 3281TIP3    H2 9808   6.163   6.107   5.371
 3282TIP3   OH2 9809   6.563   3.437   1.728
 3282TIP3    H1 9810   6.598   3.480   1.807
 3282TIP3    H2 9811   6.640   3.396   1.688
 3283TIP3   OH2 9812   0.051   5.656   3.595
 3283TIP3    H1 9813   0.044   5.561   3.608
 3283TIP3    H2 9814   0.144   5.671   3.578
 3284TIP3   OH2 9815   2.678   4.115   2.934
 3284TIP3    H1 9816   2.633   4.142   3.015
 3284TIP3    H2 9817   2.619   4.051   2.894
 3285TIP3   OH2 9818   1.208   0.034   4.900
 3285TIP3    H1 9819   1.267  -0.039   4.918
 3285TIP3    H2 9820   1.133   0.020   4.958
 3286TIP3   OH2 9821   1.267   2.952   0.813
 3286TIP3    H1 9822   1.205   2.896   0.768
 3286TIP3    H2 9823   1.323   2.987   0.743
 3287TIP3   OH2 9824   1.584   3.414   2.911
 3287TIP3    H1 9825   1.578   3.498   2.865
 3287TIP3    H2 9826   1.642   3.432   2.985
 3288TIP3   OH2 9827   1.320   3.826   3.289
 3288TIP3    H1 9828   1.399   3.857   3.333
 3288TIP3    H2 9829   1.263   3.903   3.284
 3289TIP3   OH2 9830   4.961   3.498   0.240
 3289TIP3    H1 9831   4.959   3.496   0.144
 3289TIP3    H2 9832   5.002   3.581   0.261
 3290TIP3   OH2 9833   1.390   3.074   4.215
 3290TIP3    H1 9834   1.311   3.118   4.184
 3290TIP3    H2 9835   1.357   3.002   4.269
 3291TIP3   OH2 9836   2.469   0.767   2.605
 3291TIP3    H1 9837   2.374   0.754   2.609
 3291TIP3    H2 9838   2.506   0.681   2.623
 3292TIP3   OH2 9839   2.864   4.336   0.898
 3292TIP3    H1 9840   2.836   4.247   0.878
 3292TIP3    H2 9841   2.789   4.375   0.943
 3293TIP3   OH2 9842   0.829   1.359   5.493
 3293TIP3    H1 9843   0.792   1.403   5.417
 3293TIP3    H2 9844   0.818   1.422   5.565
 3294TIP3   OH2 9845   2.627   3.239   1.613
 3294TIP3    H1 9846   2.679   3.190   1.677
 3294TIP3    H2 9847   2.654   3.203   1.529
 3295TIP3   OH2 9848   5.320   5.779   3.386
 3295TIP3    H1 9849   5.263   5.816   3.454
 3295TIP3    H2 9850   5.380   5.723   3.434
 3296TIP3   OH2 9851   0.684   4.954   0.660
 3296TIP3    H1 9852   0.606   4.932   0.610
 3296TIP3    H2 9853   0.751   4.972   0.593
 3297TIP3   OH2 9854   7.190   4.712   5.318
 3297TIP3    H1 9855   7.168   4.619   5.325
 3297TIP3    H2 9856   7.273   4.713   5.271
 3298TIP3   OH2 9857   0.443   5.962   0.099
 3298TIP3    H1 9858   0.364   6.014   0.084
 3298TIP3    H2 9859   0.420   5.874   0.070
 3299TIP3   OH2 9860   0.062   2.406   4.306
 3299TIP3    H1 9861  -0.003   2.454   4.358
 3299TIP3    H2 9862   0.040   2.426   4.215
 3300TIP3   OH2 9863   2.948   0.988   3.070
 3300TIP3    H1 9864   2.959   0.978   2.976
 3300TIP3    H2 9865   2.864   0.949   3.089
 3301TIP3   OH2 9866   0.418   5.218   2.284
 3301TIP3    H1 9867   0.389   5.282   2.349
 3301TIP3    H2 9868   0.491   5.261   2.239
 3302TIP3   OH2 9869   4.495   3.876   3.601
 3302TIP3    H1 9870   4.437   3.863   3.677
 3302TIP3    H2 9871   4.581   3.847   3.632
 3303TIP3   OH2 9872   1.765   0.384   4.969
 3303TIP3    H1 9873   1.702   0.368   5.039
 3303TIP3    H2 9874   1.714   0.429   4.901
 3304TIP3   OH2 9875   6.687   1.919   2.492
 3304TIP3    H1 9876   6.628   1.988   2.464
 3304TIP3    H2 9877   6.632   1.860   2.543
 3305TIP3   OH2 9878   5.703   1.818   1.733
 3305TIP3    H1 9879   5.610   1.798   1.744
 3305TIP3    H2 9880   5.718   1.891   1.793
 3306TIP3   OH2 9881   6.975   5.725   3.739
 3306TIP3    H1 9882   7.046   5.671   3.703
 3306TIP3    H2 9883   6.908   5.663   3.767
 3307TIP3   OH2 9884   1.744   1.001   2.739
 3307TIP3    H1 9885   1.688   0.925   2.753
 3307TIP3    H2 9886   1.684   1.075   2.737
 3308TIP3   OH2 9887   3.533   4.058   5.340
 3308TIP3    H1 9888   3.483   4.116   5.283
 3308TIP3    H2 9889   3.572   4.115   5.405
 3309TIP3   OH2 9890   2.723   0.491   0.773
 3309TIP3    H1 9891   2.779   0.516   0.847
 3309TIP3    H2 9892   2.646   0.547   0.781
 3310TIP3   OH2 9893   1.253   5.160   3.461
 3310TIP3    H1 9894   1.263   5.088   3.399
 3310TIP3    H2 9895   1.329   5.216   3.446
 3311TIP3   OH2 9896   5.853   3.905   3.541
 3311TIP3    H1 9897   5.774   3.862   3.508
 3311TIP3    H2 9898   5.906   3.920   3.462
 3312TIP3   OH2 9899   4.620   2.443   0.584
 3312TIP3    H1 9900   4.600   2.536   0.598
 3312TIP3    H2 9901   4.537   2.405   0.557
 3313TIP3   OH2 9902   6.230   5.678   4.566
 3313TIP3    H1 9903   6.165   5.631   4.619
 3313TIP3    H2 9904   6.311   5.671   4.616
 3314TIP3   OH2 9905   4.750   3.129   2.124
 3314TIP3    H1 9906   4.759   3.195   2.192
 3314TIP3    H2 9907   4.731   3.178   2.044
 3315TIP3   OH2 9908   4.280   3.709   4.296
 3315TIP3    H1 9909   4.231   3.654   4.357
 3315TIP3    H2 9910   4.305   3.786   4.347
 3316TIP3   OH2 9911   3.684   5.141   2.678
 3316TIP3    H1 9912   3.672   5.049   2.653
 3316TIP3    H2 9913   3.756   5.139   2.741
 3317TIP3   OH2 9914   0.202   4.988   5.374
 3317TIP3    H1 9915   0.152   4.997   5.455
 3317TIP3    H2 9916   0.248   5.071   5.366
 3318TIP3   OH2 9917   4.184   0.228   2.118
 3318TIP3    H1 9918   4.114   0.236   2.053
 3318TIP3    H2 9919   4.145   0.178   2.189
 3319TIP3   OH2 9920   2.160   4.058   1.610
 3319TIP3    H1 9921   2.079   4.052   1.661
 3319TIP3    H2 9922   2.195   3.969   1.609
 3320TIP3   OH2 9923   4.458   3.388   1.952
 3320TIP3    H1 9924   4.466   3.421   1.863
 3320TIP3    H2 9925   4.539   3.338   1.967
 3321TIP3   OH2 9926   3.858   3.774   4.246
 3321TIP3    H1 9927   3.775   3.773   4.294
 3321TIP3    H2 9928   3.847   3.707   4.178
 3322TIP3   OH2 9929   4.667   5.992   2.464
 3322TIP3    H1 9930   4.738   6.050   2.492
 3322TIP3    H2 9931   4.587   6.034   2.497
 3323TIP3   OH2 9932   7.199   1.752   3.957
 3323TIP3    H1 9933   7.118   1.786   3.995
 3323TIP3    H2 9934   7.203   1.789   3.869
 3324TIP3   OH2 9935   6.088   3.064   3.071
 3324TIP3    H1 9936   6.080   3.088   3.164
 3324TIP3    H2 9937   6.002   3.030   3.048
 3325TIP3   OH2 9938   2.882   0.356   5.735
 3325TIP3    H1 9939   2.946   0.314   5.677
 3325TIP3    H2 9940   2.860   0.288   5.799
 3326TIP3   OH2 9941   6.853   5.843   0.672
 3326TIP3    H1 9942   6.825   5.910   0.610
 3326TIP3    H2 9943   6.832   5.760   0.628
 3327TIP3   OH2 9944   2.935   1.307   2.925
 3327TIP3    H1 9945   2.894   1.225   2.900
 3327TIP3    H2 9946   2.988   1.285   3.002
 3328TIP3   OH2 9947   6.684   1.250   5.641
 3328TIP3    H1 9948   6.604   1.258   5.694
 3328TIP3    H2 9949   6.755   1.260   5.704
 3329TIP3   OH2 9950   5.074   2.240   1.223
 3329TIP3    H1 9951   5.114   2.155   1.205
 3329TIP3    H2 9952   5.002   2.247   1.160
 3330TIP3   OH2 9953   0.800   4.843   1.154
 3330TIP3    H1 9954   0.828   4.770   1.099
 3330TIP3    H2 9955   0.725   4.881   1.108
 3331TIP3   OH2 9956   7.105   3.437   3.850
 3331TIP3    H1 9957   7.111   3.479   3.764
 3331TIP3    H2 9958   7.193   3.445   3.887
 3332TIP3   OH2 9959   3.990   0.282   3.325
 3332TIP3    H1 9960   3.936   0.361   3.331
 3332TIP3    H2 9961   4.078   0.315   3.303
 3333TIP3   OH2 9962   0.141   4.003   2.840
 3333TIP3    H1 9963   0.219   4.055   2.857
 3333TIP3    H2 9964   0.115   3.969   2.925
 3334TIP3   OH2 9965   4.995   3.786   4.421
 3334TIP3    H1 9966   5.040   3.866   4.396
 3334TIP3    H2 9967   4.915   3.816   4.464
 3335TIP3   OH2 9968   4.771   6.812   3.046
 3335TIP3    H1 9969   4.830   6.743   3.076
 3335TIP3    H2 9970   4.708   6.767   2.990
 3336TIP3   OH2 9971   0.823   6.547   2.896
 3336TIP3    H1 9972   0.789   6.520   2.981
 3336TIP3    H2 9973   0.912   6.513   2.893
 3337TIP3   OH2 9974   6.670   1.810   0.662
 3337TIP3    H1 9975   6.757   1.828   0.625
 3337TIP3    H2 9976   6.645   1.892   0.705
 3338TIP3   OH2 9977   5.115   2.239   3.128
 3338TIP3    H1 9978   5.039   2.194   3.092
 3338TIP3    H2 9979   5.095   2.332   3.118
 3339TIP3   OH2 9980   6.459   6.090   4.831
 3339TIP3    H1 9981   6.512   6.125   4.760
 3339TIP3    H2 9982   6.521   6.045   4.889
 3340TIP3   OH2 9983   0.307   5.044   4.863
 3340TIP3    H1 9984   0.316   5.139   4.865
 3340TIP3    H2 9985   0.263   5.023   4.946
 3341TIP3   OH2 9986   6.102   5.771   5.533
 3341TIP3    H1 9987   6.020   5.791   5.577
 3341TIP3    H2 9988   6.146   5.709   5.591
 3342TIP3   OH2 9989   5.393   4.395   1.890
 3342TIP3    H1 9990   5.405   4.370   1.981
 3342TIP3    H2 9991   5.383   4.312   1.843
 3343TIP3   OH2 9992   6.620   5.575   5.755
 3343TIP3    H1 9993   6.576   5.611   5.832
 3343TIP3    H2 9994   6.556   5.514   5.717
 3344TIP3   OH2 9995   4.170   4.681   5.107
 3344TIP3    H1 9996   4.246   4.627   5.085
 3344TIP3    H2 9997   4.206   4.769   5.120
 3345TIP3   OH2 9998   0.844   0.737   1.234
 3345TIP3    H1 9999   0.802   0.748   1.320
 3345TIP3    H210000   0.889   0.819   1.219
 3346TIP3   OH210001   7.105   5.006   1.574
 3346TIP3    H110002   7.081   5.096   1.595
 3346TIP3    H210003   7.075   4.955   1.649
 3347TIP3   OH210004   1.961   5.402   3.734
 3347TIP3    H110005   1.904   5.424   3.808
 3347TIP3    H210006   2.018   5.332   3.768
 3348TIP3   OH210007   6.852   3.234   4.736
 3348TIP3    H110008   6.946   3.217   4.725
 3348TIP3    H210009   6.824   3.270   4.652
 3349TIP3   OH210010   3.997   1.165   4.478
 3349TIP3    H110011   4.042   1.092   4.520
 3349TIP3    H210012   3.967   1.130   4.394
 3350TIP3   OH210013   3.478   0.506   5.300
 3350TIP3    H110014   3.459   0.595   5.329
 3350TIP3    H210015   3.481   0.512   5.204
 3351TIP3   OH210016   0.496   2.083   5.037
 3351TIP3    H110017   0.411   2.112   5.070
 3351TIP3    H210018   0.541   2.163   5.012
 3352TIP3   OH210019   4.207   1.671   3.416
 3352TIP3    H110020   4.219   1.759   3.451
 3352TIP3    H210021   4.172   1.686   3.327
 3353TIP3   OH210022   4.198   4.960   2.812
 3353TIP3    H110023   4.162   5.048   2.824
 3353TIP3    H210024   4.136   4.916   2.753
 3354TIP3   OH210025   1.370   4.188   0.191
 3354TIP3    H110026   1.446   4.194   0.248
 3354TIP3    H210027   1.395   4.124   0.125
 3355TIP3   OH210028   2.448   2.505   5.207
 3355TIP3    H110029   2.449   2.485   5.301
 3355TIP3    H210030   2.454   2.419   5.164
 3356TIP3   OH210031   0.194   4.456   5.688
 3356TIP3    H110032   0.189   4.373   5.641
 3356TIP3    H210033   0.110   4.499   5.669
 3357TIP3   OH210034   5.249   6.535   4.849
 3357TIP3    H110035   5.204   6.601   4.797
 3357TIP3    H210036   5.231   6.452   4.804
 3358TIP3   OH210037   4.171   3.264   0.592
 3358TIP3    H110038   4.157   3.220   0.509
 3358TIP3    H210039   4.249   3.317   0.579
 3359TIP3   OH210040   4.995   3.402   5.777
 3359TIP3    H110041   4.985   3.307   5.786
 3359TIP3    H210042   5.058   3.413   5.706
 3360TIP3   OH210043   0.883   2.418  -0.008
 3360TIP3    H110044   0.881   2.506   0.029
 3360TIP3    H210045   0.878   2.360   0.068
 3361TIP3   OH210046   3.359   3.927   3.661
 3361TIP3    H110047   3.332   4.011   3.623
 3361TIP3    H210048   3.410   3.885   3.591
 3362TIP3   OH210049   7.117   3.558   0.702
 3362TIP3    H110050   7.057   3.632   0.696
 3362TIP3    H210051   7.166   3.559   0.619
 3363TIP3   OH210052   6.414   2.708   1.689
 3363TIP3    H110053   6.442   2.754   1.768
 3363TIP3    H210054   6.334   2.662   1.716
 3364TIP3   OH210055   0.034   0.494   5.630
 3364TIP3    H110056   0.016   0.408   5.669
 3364TIP3    H210057   0.123   0.487   5.596
 3365TIP3   OH210058   2.371   4.407   5.070
 3365TIP3    H110059   2.379   4.316   5.099
 3365TIP3    H210060   2.387   4.459   5.149
 3366TIP3   OH210061   2.039   0.494   5.776
 3366TIP3    H110062   2.100   0.469   5.846
 3366TIP3    H210063   2.085   0.563   5.729
 3367TIP3   OH210064   3.850   5.415   3.815
 3367TIP3    H110065   3.908   5.486   3.845
 3367TIP3    H210066   3.762   5.452   3.821
 3368TIP3   OH210067   3.063   4.741   3.457
 3368TIP3    H110068   3.037   4.832   3.441
 3368TIP3    H210069   3.037   4.694   3.378
 3369TIP3   OH210070   7.156   1.386   2.745
 3369TIP3    H110071   7.184   1.381   2.654
 3369TIP3    H210072   7.070   1.427   2.742
 3370TIP3   OH210073   4.270   1.896   5.433
 3370TIP3    H110074   4.320   1.969   5.469
 3370TIP3    H210075   4.281   1.825   5.496
 3371TIP3   OH210076   5.342   4.175   0.569
 3371TIP3    H110077   5.285   4.250   0.581
 3371TIP3    H210078   5.429   4.213   0.554
 3372TIP3   OH210079   2.823   0.321   0.602
 3372TIP3    H110080   2.753   0.282   0.549
 3372TIP3    H210081   2.779   0.390   0.652
 3373TIP3   OH210082   5.002   6.669   3.162
 3373TIP3    H110083   4.982   6.700   3.251
 3373TIP3    H210084   5.078   6.721   3.135
 3374TIP3   OH210085   4.866   0.182   0.386
 3374TIP3    H110086   4.955   0.195   0.418
 3374TIP3    H210087   4.873   0.105   0.329
 3375TIP3   OH210088   3.644   2.413   1.981
 3375TIP3    H110089   3.598   2.405   2.064
 3375TIP3    H210090   3.703   2.337   1.978
 3376TIP3   OH210091   7.146   2.947   2.640
 3376TIP3    H110092   7.147   3.020   2.578
 3376TIP3    H210093   7.064   2.957   2.688
 3377TIP3   OH210094   3.188   4.716   0.957
 3377TIP3    H110095   3.239   4.713   0.876
 3377TIP3    H210096   3.098   4.703   0.930
 3378TIP3   OH210097   5.760   5.035   0.709
 3378TIP3    H110098   5.743   5.123   0.677
 3378TIP3    H210099   5.676   5.005   0.745
 3379TIP3   OH210100   3.841   4.124   5.634
 3379TIP3    H110101   3.754   4.160   5.615
 3379TIP3    H210102   3.893   4.145   5.556
 3380TIP3   OH210103   2.920   0.467   3.383
 3380TIP3    H110104   2.937   0.457   3.476
 3380TIP3    H210105   2.853   0.401   3.363
 3381TIP3   OH210106   5.927   3.597   1.592
 3381TIP3    H110107   6.009   3.552   1.574
 3381TIP3    H210108   5.946   3.689   1.576
 3382TIP3   OH210109   1.088   1.022   3.005
 3382TIP3    H110110   1.043   0.938   3.018
 3382TIP3    H210111   1.087   1.063   3.092
 3383TIP3   OH210112   2.431   6.394   0.698
 3383TIP3    H110113   2.462   6.482   0.675
 3383TIP3    H210114   2.481   6.372   0.777
 3384TIP3   OH210115   6.245   5.106   2.996
 3384TIP3    H110116   6.150   5.095   2.987
 3384TIP3    H210117   6.255   5.179   3.056
 3385TIP3   OH210118   1.527   5.921   5.741
 3385TIP3    H110119   1.543   5.841   5.792
 3385TIP3    H210120   1.494   5.984   5.805
 3386TIP3   OH210121   6.158   2.068   1.435
 3386TIP3    H110122   6.122   2.103   1.353
 3386TIP3    H210123   6.091   2.086   1.500
 3387TIP3   OH210124   0.931   0.442   3.571
 3387TIP3    H110125   0.941   0.375   3.503
 3387TIP3    H210126   0.893   0.395   3.645
 3388TIP3   OH210127   6.696   2.224   5.367
 3388TIP3    H110128   6.621   2.213   5.426
 3388TIP3    H210129   6.660   2.213   5.279
 3389TIP3   OH210130   4.612   6.612   5.333
 3389TIP3    H110131   4.534   6.617   5.388
 3389TIP3    H210132   4.657   6.695   5.348
 3390TIP3   OH210133   4.678   3.561   4.026
 3390TIP3    H110134   4.682   3.482   4.081
 3390TIP3    H210135   4.713   3.533   3.942
 3391TIP3   OH210136   5.859   4.435   3.515
 3391TIP3    H110137   5.906   4.500   3.463
 3391TIP3    H210138   5.899   4.439   3.602
 3392TIP3   OH210139   0.383   0.931   0.270
 3392TIP3    H110140   0.454   0.950   0.209
 3392TIP3    H210141   0.426   0.908   0.352
 3393TIP3   OH210142   1.270   3.278   0.569
 3393TIP3    H110143   1.332   3.248   0.634
 3393TIP3    H210144   1.290   3.371   0.557
 3394TIP3   OH210145   0.376   2.972   1.168
 3394TIP3    H110146   0.459   2.981   1.122
 3394TIP3    H210147   0.394   2.908   1.237
 3395TIP3   OH210148   3.645   6.818   5.868
 3395TIP3    H110149   3.728   6.785   5.834
 3395TIP3    H210150   3.632   6.771   5.950
 3396TIP3   OH210151   0.069   4.426   3.488
 3396TIP3    H110152   0.052   4.517   3.509
 3396TIP3    H210153   0.004   4.404   3.422
 3397TIP3   OH210154   0.617   0.909   1.133
 3397TIP3    H110155   0.678   0.852   1.086
 3397TIP3    H210156   0.669   0.946   1.205
 3398TIP3   OH210157   2.973   1.691   3.834
 3398TIP3    H110158   3.064   1.679   3.861
 3398TIP3    H210159   2.964   1.642   3.753
 3399TIP3   OH210160   4.316   2.181   3.799
 3399TIP3    H110161   4.297   2.237   3.724
 3399TIP3    H210162   4.257   2.210   3.867
 3400TIP3   OH210163   4.037   2.193   2.955
 3400TIP3    H110164   3.981   2.168   3.029
 3400TIP3    H210165   4.075   2.277   2.981
 3401TIP3   OH210166   5.106   5.453   5.504
 3401TIP3    H110167   5.023   5.447   5.456
 3401TIP3    H210168   5.173   5.440   5.437
 3402TIP3   OH210169   2.053   5.216   3.210
 3402TIP3    H110170   2.024   5.288   3.267
 3402TIP3    H210171   2.050   5.139   3.267
 3403TIP3   OH210172   2.932   5.730   5.688
 3403TIP3    H110173   2.949   5.755   5.779
 3403TIP3    H210174   2.880   5.650   5.694
 3404TIP3   OH210175   3.590   5.269   1.796
 3404TIP3    H110176   3.677   5.235   1.814
 3404TIP3    H210177   3.560   5.221   1.719
 3405TIP3   OH210178   3.235   5.108   3.883
 3405TIP3    H110179   3.319   5.086   3.922
 3405TIP3    H210180   3.230   5.052   3.805
 3406TIP3   OH210181   3.278   6.186   5.649
 3406TIP3    H110182   3.355   6.234   5.680
 3406TIP3    H210183   3.284   6.101   5.691
 3407TIP3   OH210184   0.766   5.495   3.048
 3407TIP3    H110185   0.767   5.399   3.038
 3407TIP3    H210186   0.855   5.517   3.076
 3408TIP3   OH210187   4.063   4.344   1.894
 3408TIP3    H110188   4.001   4.305   1.832
 3408TIP3    H210189   4.027   4.430   1.914
 3409TIP3   OH210190   3.988   0.476   5.107
 3409TIP3    H110191   4.052   0.446   5.171
 3409TIP3    H210192   3.909   0.494   5.158
 3410TIP3   OH210193   4.787   4.235   3.744
 3410TIP3    H110194   4.869   4.236   3.795
 3410TIP3    H210195   4.787   4.319   3.699
 3411TIP3   OH210196   1.106   6.628   1.777
 3411TIP3    H110197   1.115   6.564   1.848
 3411TIP3    H210198   1.045   6.693   1.811
 3412TIP3   OH210199   4.624   2.188   2.270
 3412TIP3    H110200   4.714   2.195   2.301
 3412TIP3    H210201   4.627   2.124   2.199
 3413TIP3   OH210202   0.082   2.095   1.359
 3413TIP3    H110203   0.078   2.152   1.436
 3413TIP3    H210204   0.056   2.150   1.286
 3414TIP3   OH210205   6.902   4.592   1.858
 3414TIP3    H110206   6.860   4.602   1.944
 3414TIP3    H210207   6.855   4.519   1.817
 3415TIP3   OH210208   5.755   0.276   5.322
 3415TIP3    H110209   5.804   0.351   5.289
 3415TIP3    H210210   5.706   0.311   5.397
 3416TIP3   OH210211   1.077   4.608   0.403
 3416TIP3    H110212   0.990   4.601   0.443
 3416TIP3    H210213   1.091   4.523   0.361
 3417TIP3   OH210214   5.600   6.330   0.957
 3417TIP3    H110215   5.695   6.329   0.965
 3417TIP3    H210216   5.577   6.241   0.930
 3418TIP3   OH210217   2.347   3.829   1.439
 3418TIP3    H110218   2.278   3.767   1.416
 3418TIP3    H210219   2.337   3.900   1.376
 3419TIP3   OH210220   6.352   2.354   1.697
 3419TIP3    H110221   6.343   2.377   1.790
 3419TIP3    H210222   6.263   2.339   1.667
 3420TIP3   OH210223   0.771   6.384   1.743
 3420TIP3    H110224   0.797   6.292   1.752
 3420TIP3    H210225   0.818   6.415   1.665
 3421TIP3   OH210226   7.219   0.520   4.025
 3421TIP3    H110227   7.218   0.482   3.937
 3421TIP3    H210228   7.245   0.611   4.012
 3422TIP3   OH210229   6.939   4.151   3.963
 3422TIP3    H110230   6.992   4.191   3.894
 3422TIP3    H210231   6.857   4.201   3.963
 3423TIP3   OH210232   7.148   6.829   3.038
 3423TIP3    H110233   7.069   6.785   3.069
 3423TIP3    H210234   7.131   6.848   2.946
 3424TIP3   OH210235   6.180   4.413   2.969
 3424TIP3    H110236   6.125   4.340   2.997
 3424TIP3    H210237   6.175   4.412   2.873
 3425TIP3   OH210238   1.239   1.998   3.871
 3425TIP3    H110239   1.222   1.916   3.825
 3425TIP3    H210240   1.306   1.977   3.935
 3426TIP3   OH210241   4.437   1.667   4.429
 3426TIP3    H110242   4.424   1.624   4.345
 3426TIP3    H210243   4.390   1.611   4.492
 3427TIP3   OH210244   3.707   6.314   1.408
 3427TIP3    H110245   3.666   6.400   1.395
 3427TIP3    H210246   3.656   6.254   1.354
 3428TIP3   OH210247   4.210   4.805   4.171
 3428TIP3    H110248   4.145   4.761   4.117
 3428TIP3    H210249   4.242   4.737   4.231
 3429TIP3   OH210250   2.315   1.567   5.486
 3429TIP3    H110251   2.343   1.481   5.519
 3429TIP3    H210252   2.245   1.547   5.424
 3430TIP3   OH210253   3.242   5.992   0.765
 3430TIP3    H110254   3.320   5.978   0.711
 3430TIP3    H210255   3.244   5.921   0.829
 3431TIP3   OH210256   0.692  -0.009   5.582
 3431TIP3    H110257   0.668  -0.018   5.674
 3431TIP3    H210258   0.785  -0.031   5.579
 3432TIP3   OH210259   3.830   2.691   4.928
 3432TIP3    H110260   3.748   2.647   4.953
 3432TIP3    H210261   3.867   2.722   5.011
 3433TIP3   OH210262   2.626   5.815   0.480
 3433TIP3    H110263   2.594   5.904   0.466
 3433TIP3    H210264   2.552   5.759   0.456
 3434TIP3   OH210265   6.005   2.039   4.240
 3434TIP3    H110266   5.944   1.970   4.212
 3434TIP3    H210267   6.003   2.035   4.335
 3435TIP3   OH210268   5.911   2.042   5.890
 3435TIP3    H110269   5.816   2.047   5.879
 3435TIP3    H210270   5.944   2.019   5.803
 3436TIP3   OH210271   5.807   5.674   1.675
 3436TIP3    H110272   5.779   5.615   1.605
 3436TIP3    H210273   5.903   5.674   1.668
 3437TIP3   OH210274   3.608   5.865   3.620
 3437TIP3    H110275   3.613   5.769   3.624
 3437TIP3    H210276   3.544   5.888   3.687
 3438TIP3   OH210277   6.467   0.004   2.504
 3438TIP3    H110278   6.467   0.081   2.561
 3438TIP3    H210279   6.377   0.000   2.470
 3439TIP3   OH210280   1.777   0.639   2.820
 3439TIP3    H110281   1.840   0.683   2.762
 3439TIP3    H210282   1.724   0.711   2.855
 3440TIP3   OH210283   3.134   1.328   3.400
 3440TIP3    H110284   3.103   1.418   3.403
 3440TIP3    H210285   3.134   1.300   3.491
 3441TIP3   OH210286   5.518   2.585   5.386
 3441TIP3    H110287   5.458   2.626   5.324
 3441TIP3    H210288   5.463   2.522   5.434
 3442TIP3   OH210289   4.742   5.317   1.534
 3442TIP3    H110290   4.744   5.409   1.562
 3442TIP3    H210291   4.805   5.313   1.461
 3443TIP3   OH210292   4.875   2.945   4.144
 3443TIP3    H110293   4.831   2.861   4.136
 3443TIP3    H210294   4.963   2.930   4.107
 3444TIP3   OH210295   2.377   1.153   3.875
 3444TIP3    H110296   2.411   1.120   3.792
 3444TIP3    H210297   2.336   1.077   3.916
 3445TIP3   OH210298   1.756   4.792   1.351
 3445TIP3    H110299   1.799   4.744   1.422
 3445TIP3    H210300   1.810   4.775   1.274
 3446TIP3   OH210301   4.271   4.296   2.757
 3446TIP3    H110302   4.188   4.263   2.791
 3446TIP3    H210303   4.302   4.356   2.825
 3447TIP3   OH210304   7.010   6.586   1.030
 3447TIP3    H110305   7.057   6.524   0.974
 3447TIP3    H210306   7.023   6.671   0.989
 3448TIP3   OH210307   3.539   6.762   4.252
 3448TIP3    H110308   3.555   6.751   4.346
 3448TIP3    H210309   3.526   6.856   4.241
 3449TIP3   OH210310   6.539   4.457   2.131
 3449TIP3    H110311   6.588   4.537   2.111
 3449TIP3    H210312   6.541   4.451   2.227
 3450TIP3   OH210313   4.829   3.097   1.120
 3450TIP3    H110314   4.840   3.111   1.214
 3450TIP3    H210315   4.824   3.002   1.110
 3451TIP3   OH210316   2.917   6.007   1.396
 3451TIP3    H110317   2.894   5.926   1.441
 3451TIP3    H210318   2.995   5.986   1.346
 3452TIP3   OH210319   5.824   1.944   0.480
 3452TIP3    H110320   5.740   1.946   0.436
 3452TIP3    H210321   5.808   1.894   0.561
 3453TIP3   OH210322   0.178   1.803   0.871
 3453TIP3    H110323   0.274   1.806   0.867
 3453TIP3    H210324   0.157   1.710   0.868
 3454TIP3   OH210325   6.760   0.415   3.532
 3454TIP3    H110326   6.799   0.492   3.493
 3454TIP3    H210327   6.819   0.390   3.603
 3455TIP3   OH210328   5.779   3.831   2.509
 3455TIP3    H110329   5.837   3.840   2.584
 3455TIP3    H210330   5.766   3.737   2.499
 3456TIP3   OH210331   7.083   3.771   4.223
 3456TIP3    H110332   7.017   3.821   4.173
 3456TIP3    H210333   7.157   3.830   4.230
 3457TIP3   OH210334   3.378   5.648   3.204
 3457TIP3    H110335   3.464   5.689   3.195
 3457TIP3    H210336   3.346   5.639   3.114
 3458TIP3   OH210337   6.218   2.866   2.288
 3458TIP3    H110338   6.153   2.933   2.309
 3458TIP3    H210339   6.258   2.845   2.372
 3459TIP3   OH210340   4.553   6.223   5.070
 3459TIP3    H110341   4.614   6.228   4.997
 3459TIP3    H210342   4.498   6.300   5.061
 3460TIP3   OH210343   6.491   4.844   2.067
 3460TIP3    H110344   6.441   4.762   2.070
 3460TIP3    H210345   6.433   4.906   2.022
 3461TIP3   OH210346   5.553   5.029   1.346
 3461TIP3    H110347   5.517   5.114   1.321
 3461TIP3    H210348   5.624   5.048   1.407
 3462TIP3   OH210349   5.269   4.700   4.481
 3462TIP3    H110350   5.353   4.744   4.493
 3462TIP3    H210351   5.222   4.713   4.563
 3463TIP3   OH210352   0.253   5.944   5.886
 3463TIP3    H110353   0.281   6.023   5.933
 3463TIP3    H210354   0.273   5.872   5.946
 3464TIP3   OH210355   5.248   3.008   3.158
 3464TIP3    H110356   5.339   2.997   3.131
 3464TIP3    H210357   5.238   2.950   3.234
 3465TIP3   OH210358   1.466   3.343   3.591
 3465TIP3    H110359   1.452   3.264   3.540
 3465TIP3    H210360   1.406   3.408   3.553
 3466TIP3   OH210361   5.650   3.562   0.202
 3466TIP3    H110362   5.598   3.562   0.282
 3466TIP3    H210363   5.622   3.640   0.154
 3467TIP3   OH210364   6.186   2.937   4.518
 3467TIP3    H110365   6.270   2.951   4.563
 3467TIP3    H210366   6.137   2.878   4.575
 3468TIP3   OH210367   4.504   6.245   3.518
 3468TIP3    H110368   4.524   6.288   3.435
 3468TIP3    H210369   4.570   6.277   3.579
 3469TIP3   OH210370   5.598   1.106   0.717
 3469TIP3    H110371   5.648   1.166   0.662
 3469TIP3    H210372   5.605   1.143   0.805
 3470TIP3   OH210373   0.516   5.523   4.215
 3470TIP3    H110374   0.597   5.480   4.189
 3470TIP3    H210375   0.449   5.456   4.207
 3471TIP3   OH210376   1.076   0.657   5.857
 3471TIP3    H110377   1.006   0.695   5.804
 3471TIP3    H210378   1.135   0.616   5.793
 3472TIP3   OH210379   6.107   2.336   5.047
 3472TIP3    H110380   6.035   2.325   5.108
 3472TIP3    H210381   6.186   2.323   5.100
 3473TIP3   OH210382   0.928   1.793   4.897
 3473TIP3    H110383   0.974   1.800   4.813
 3473TIP3    H210384   0.874   1.872   4.901
 3474TIP3   OH210385   1.939   4.691   5.341
 3474TIP3    H110386   1.921   4.661   5.430
 3474TIP3    H210387   1.891   4.630   5.285
 3475TIP3   OH210388   6.167   1.573   0.086
 3475TIP3    H110389   6.239   1.536   0.137
 3475TIP3    H210390   6.115   1.623   0.149
 3476TIP3   OH210391   3.075   3.120   2.373
 3476TIP3    H110392   2.992   3.141   2.330
 3476TIP3    H210393   3.091   3.028   2.354
 3477TIP3   OH210394   0.039   0.139   1.062
 3477TIP3    H110395   0.041   0.234   1.066
 3477TIP3    H210396   0.130   0.114   1.043
 3478TIP3   OH210397   2.357   2.172   2.391
 3478TIP3    H110398   2.421   2.243   2.389
 3478TIP3    H210399   2.312   2.182   2.474
 3479TIP3   OH210400   2.670   5.692   1.091
 3479TIP3    H110401   2.681   5.746   1.169
 3479TIP3    H210402   2.596   5.732   1.045
 3480TIP3   OH210403   3.291   2.641   4.089
 3480TIP3    H110404   3.330   2.682   4.167
 3480TIP3    H210405   3.200   2.624   4.114
 3481TIP3   OH210406   6.959   6.252   2.667
 3481TIP3    H110407   6.912   6.170   2.679
 3481TIP3    H210408   7.040   6.241   2.716
 3482TIP3   OH210409   4.416   5.455   4.486
 3482TIP3    H110410   4.348   5.408   4.438
 3482TIP3    H210411   4.475   5.386   4.517
 3483TIP3   OH210412   1.123   3.381   1.985
 3483TIP3    H110413   1.193   3.339   1.934
 3483TIP3    H210414   1.165   3.406   2.067
 3484TIP3   OH210415   4.241   4.539   3.423
 3484TIP3    H110416   4.329   4.557   3.392
 3484TIP3    H210417   4.254   4.497   3.509
 3485TIP3   OH210418   6.349   3.041   5.334
 3485TIP3    H110419   6.256   3.022   5.323
 3485TIP3    H210420   6.394   2.968   5.290
 3486TIP3   OH210421   7.043   3.387   2.107
 3486TIP3    H110422   6.965   3.358   2.154
 3486TIP3    H210423   7.087   3.446   2.167
 3487TIP3   OH210424   3.457   3.808   5.682
 3487TIP3    H110425   3.549   3.830   5.696
 3487TIP3    H210426   3.450   3.716   5.706
 3488TIP3   OH210427   0.247   3.945   3.089
 3488TIP3    H110428   0.174   3.993   3.129
 3488TIP3    H210429   0.255   3.865   3.142
 3489TIP3   OH210430   3.989   2.542   0.538
 3489TIP3    H110431   3.941   2.582   0.610
 3489TIP3    H210432   4.080   2.569   0.552
 3490TIP3   OH210433   5.389   4.097   4.837
 3490TIP3    H110434   5.316   4.108   4.897
 3490TIP3    H210435   5.463   4.137   4.881
 3491TIP3   OH210436   5.210   4.991   1.368
 3491TIP3    H110437   5.278   4.983   1.436
 3491TIP3    H210438   5.132   5.018   1.416
 3492TIP3   OH210439   6.765   1.458   1.121
 3492TIP3    H110440   6.730   1.404   1.192
 3492TIP3    H210441   6.751   1.406   1.042
 3493TIP3   OH210442   3.837   6.546   4.330
 3493TIP3    H110443   3.827   6.607   4.257
 3493TIP3    H210444   3.845   6.602   4.408
 3494TIP3   OH210445   1.758   5.135   0.650
 3494TIP3    H110446   1.703   5.093   0.716
 3494TIP3    H210447   1.773   5.067   0.585
 3495TIP3   OH210448   3.705   2.761   2.473
 3495TIP3    H110449   3.756   2.685   2.502
 3495TIP3    H210450   3.763   2.836   2.486
 3496TIP3   OH210451   5.173   1.749   2.860
 3496TIP3    H110452   5.227   1.817   2.820
 3496TIP3    H210453   5.106   1.798   2.909
 3497TIP3   OH210454   0.606   0.782   0.765
 3497TIP3    H110455   0.693   0.767   0.801
 3497TIP3    H210456   0.622   0.816   0.677
 3498TIP3   OH210457   0.670   6.616   3.835
 3498TIP3    H110458   0.639   6.526   3.838
 3498TIP3    H210459   0.684   6.634   3.742
 3499TIP3   OH210460   5.738   5.317   0.044
 3499TIP3    H110461   5.694   5.394   0.078
 3499TIP3    H210462   5.700   5.304  -0.043
 3500TIP3   OH210463   4.641   5.412   4.293
 3500TIP3    H110464   4.557   5.426   4.250
 3500TIP3    H210465   4.654   5.317   4.290
 3501TIP3   OH210466   3.588   2.797   2.929
 3501TIP3    H110467   3.604   2.759   3.015
 3501TIP3    H210468   3.578   2.723   2.870
 3502TIP3   OH210469   6.312   6.364   2.700
 3502TIP3    H110470   6.222   6.332   2.694
 3502TIP3    H210471   6.360   6.295   2.746
 3503TIP3   OH210472   4.017   4.481   4.199
 3503TIP3    H110473   3.927   4.491   4.231
 3503TIP3    H210474   4.036   4.388   4.210
 3504TIP3   OH210475   3.399   1.755   0.597
 3504TIP3    H110476   3.351   1.794   0.670
 3504TIP3    H210477   3.333   1.703   0.550
 3505TIP3   OH210478   1.172   5.680   5.174
 3505TIP3    H110479   1.130   5.735   5.240
 3505TIP3    H210480   1.182   5.595   5.217
 3506TIP3   OH210481   6.741   5.131   0.586
 3506TIP3    H110482   6.814   5.171   0.632
 3506TIP3    H210483   6.684   5.204   0.562
 3507TIP3   OH210484   0.607   4.081   0.502
 3507TIP3    H110485   0.554   4.001   0.495
 3507TIP3    H210486   0.679   4.058   0.561
 3508TIP3   OH210487   0.733   1.519   5.271
 3508TIP3    H110488   0.736   1.537   5.177
 3508TIP3    H210489   0.796   1.581   5.309
 3509TIP3   OH210490   0.188   1.628   4.137
 3509TIP3    H110491   0.261   1.576   4.171
 3509TIP3    H210492   0.120   1.563   4.118
 3510TIP3   OH210493   3.748   5.335   4.798
 3510TIP3    H110494   3.827   5.374   4.760
 3510TIP3    H210495   3.779   5.254   4.838
 3511TIP3   OH210496   6.326   4.968   0.249
 3511TIP3    H110497   6.311   5.026   0.175
 3511TIP3    H210498   6.415   4.988   0.279
 3512TIP3   OH210499   6.776   5.359   2.314
 3512TIP3    H110500   6.822   5.380   2.233
 3512TIP3    H210501   6.782   5.264   2.321
 3513TIP3   OH210502   0.796   0.510   4.650
 3513TIP3    H110503   0.794   0.580   4.715
 3513TIP3    H210504   0.864   0.450   4.682
 3514TIP3   OH210505   1.324   3.673   3.791
 3514TIP3    H110506   1.400   3.708   3.745
 3514TIP3    H210507   1.273   3.629   3.724
 3515TIP3   OH210508   5.510   0.500   4.407
 3515TIP3    H110509   5.551   0.581   4.376
 3515TIP3    H210510   5.470   0.462   4.329
 3516TIP3   OH210511   0.696   6.759   0.102
 3516TIP3    H110512   0.730   6.701   0.171
 3516TIP3    H210513   0.773   6.787   0.053
 3517TIP3   OH210514   0.112   1.795   1.433
 3517TIP3    H110515   0.109   1.780   1.527
 3517TIP3    H210516   0.085   1.712   1.394
 3518TIP3   OH210517   1.898   2.617  -0.052
 3518TIP3    H110518   1.900   2.632   0.043
 3518TIP3    H210519   1.887   2.704  -0.090
 3519TIP3   OH210520   2.003   5.369   4.916
 3519TIP3    H110521   1.935   5.380   4.983
 3519TIP3    H210522   2.081   5.408   4.955
 3520TIP3   OH210523   2.948   6.154   2.857
 3520TIP3    H110524   2.964   6.248   2.862
 3520TIP3    H210525   2.859   6.146   2.821
 3521TIP3   OH210526   5.474   0.546   0.295
 3521TIP3    H110527   5.488   0.452   0.293
 3521TIP3    H210528   5.420   0.564   0.218
 3522TIP3   OH210529   2.092   4.659   3.656
 3522TIP3    H110530   2.005   4.662   3.616
 3522TIP3    H210531   2.078   4.618   3.741
 3523TIP3   OH210532   6.408   2.812   0.731
 3523TIP3    H110533   6.427   2.887   0.786
 3523TIP3    H210534   6.480   2.810   0.668
 3524TIP3   OH210535   0.257   3.253   2.292
 3524TIP3    H110536   0.282   3.237   2.383
 3524TIP3    H210537   0.263   3.166   2.251
 3525TIP3   OH210538   0.450   2.692   5.517
 3525TIP3    H110539   0.423   2.649   5.598
 3525TIP3    H210540   0.437   2.626   5.449
 3526TIP3   OH210541   5.636   2.729   4.457
 3526TIP3    H110542   5.686   2.668   4.402
 3526TIP3    H210543   5.703   2.779   4.504
 3527TIP3   OH210544   1.873   0.715   3.176
 3527TIP3    H110545   1.940   0.721   3.245
 3527TIP3    H210546   1.790   0.707   3.223
 3528TIP3   OH210547   0.952   2.230   3.024
 3528TIP3    H110548   1.034   2.200   3.064
 3528TIP3    H210549   0.969   2.227   2.930
 3529TIP3   OH210550   3.813   1.228   2.677
 3529TIP3    H110551   3.889   1.181   2.641
 3529TIP3    H210552   3.776   1.274   2.602
 3530TIP3   OH210553   0.920   2.835   0.109
 3530TIP3    H110554   0.920   2.805   0.199
 3530TIP3    H210555   0.993   2.897   0.104
 3531TIP3   OH210556   4.390   5.308   2.690
 3531TIP3    H110557   4.393   5.398   2.723
 3531TIP3    H210558   4.419   5.314   2.599
 3532TIP3   OH210559   4.784   0.132   5.176
 3532TIP3    H110560   4.860   0.079   5.150
 3532TIP3    H210561   4.715   0.068   5.191
 3533TIP3   OH210562   2.855   1.794   0.241
 3533TIP3    H110563   2.882   1.801   0.332
 3533TIP3    H210564   2.768   1.754   0.245
 3534TIP3   OH210565   3.763   3.327   5.872
 3534TIP3    H110566   3.723   3.296   5.954
 3534TIP3    H210567   3.711   3.285   5.803
 3535TIP3   OH210568   4.601   0.119   1.784
 3535TIP3    H110569   4.537   0.155   1.846
 3535TIP3    H210570   4.621   0.192   1.726
 3536TIP3   OH210571   0.067   0.401   1.097
 3536TIP3    H110572   0.149   0.434   1.135
 3536TIP3    H210573   0.003   0.469   1.115
 3537TIP3   OH210574   2.905   5.508   3.518
 3537TIP3    H110575   2.820   5.529   3.555
 3537TIP3    H210576   2.959   5.483   3.593
 3538TIP3   OH210577   5.170   4.544   3.903
 3538TIP3    H110578   5.168   4.590   3.987
 3538TIP3    H210579   5.244   4.483   3.911
 3539TIP3   OH210580   2.399   4.785   0.321
 3539TIP3    H110581   2.322   4.787   0.377
 3539TIP3    H210582   2.451   4.712   0.355
 3540TIP3   OH210583   5.842   3.544   0.020
 3540TIP3    H110584   5.767   3.558   0.079
 3540TIP3    H210585   5.846   3.623  -0.033
 3541TIP3   OH210586   3.002   2.042   0.814
 3541TIP3    H110587   3.008   2.069   0.722
 3541TIP3    H210588   2.922   2.084   0.846
 3542TIP3   OH210589   7.166   2.457   4.786
 3542TIP3    H110590   7.239   2.397   4.772
 3542TIP3    H210591   7.125   2.465   4.700
 3543TIP3   OH210592   2.857   0.799   5.332
 3543TIP3    H110593   2.905   0.796   5.415
 3543TIP3    H210594   2.778   0.849   5.353
 3544TIP3   OH210595   4.550   2.396   3.676
 3544TIP3    H110596   4.456   2.408   3.666
 3544TIP3    H210597   4.567   2.308   3.641
 3545TIP3   OH210598   3.150   4.498   4.638
 3545TIP3    H110599   3.204   4.508   4.560
 3545TIP3    H210600   3.070   4.455   4.606
 3546TIP3   OH210601   5.035   2.274   0.062
 3546TIP3    H110602   4.983   2.289  -0.017
 3546TIP3    H210603   5.125   2.286   0.034
 3547TIP3   OH210604   5.206   4.373   0.710
 3547TIP3    H110605   5.135   4.362   0.773
 3547TIP3    H210606   5.282   4.396   0.763
 3548TIP3   OH210607   1.304   0.857   3.479
 3548TIP3    H110608   1.301   0.853   3.383
 3548TIP3    H210609   1.389   0.895   3.499
 3549TIP3   OH210610   5.183   1.739   4.279
 3549TIP3    H110611   5.239   1.713   4.206
 3549TIP3    H210612   5.216   1.689   4.353
 3550TIP3   OH210613   6.325   1.447   1.946
 3550TIP3    H110614   6.306   1.366   1.995
 3550TIP3    H210615   6.246   1.500   1.959
 3551TIP3   OH210616   4.174   0.370   4.317
 3551TIP3    H110617   4.151   0.277   4.319
 3551TIP3    H210618   4.183   0.395   4.409
 3552TIP3   OH210619   2.853   1.332   3.930
 3552TIP3    H110620   2.818   1.251   3.966
 3552TIP3    H210621   2.779   1.393   3.932
 3553TIP3   OH210622   4.973   6.501   0.974
 3553TIP3    H110623   4.957   6.483   0.881
 3553TIP3    H210624   5.052   6.451   0.995
 3554TIP3   OH210625   6.555   1.612   5.399
 3554TIP3    H110626   6.486   1.584   5.459
 3554TIP3    H210627   6.592   1.531   5.366
 3555TIP3   OH210628   0.753   1.897   4.620
 3555TIP3    H110629   0.790   1.931   4.538
 3555TIP3    H210630   0.800   1.945   4.689
 3556TIP3   OH210631   3.545   1.956   3.522
 3556TIP3    H110632   3.495   2.037   3.527
 3556TIP3    H210633   3.602   1.967   3.446
 3557TIP3   OH210634   2.989   2.711   3.321
 3557TIP3    H110635   2.992   2.792   3.372
 3557TIP3    H210636   3.065   2.717   3.262
 3558TIP3   OH210637   4.246   0.924   5.464
 3558TIP3    H110638   4.269   0.882   5.547
 3558TIP3    H210639   4.204   0.854   5.413
 3559TIP3   OH210640   3.538   2.945   0.738
 3559TIP3    H110641   3.571   2.939   0.828
 3559TIP3    H210642   3.505   3.035   0.730
 3560TIP3   OH210643   6.033   2.717   5.771
 3560TIP3    H110644   6.061   2.672   5.850
 3560TIP3    H210645   6.110   2.719   5.715
 3561TIP3   OH210646   3.521   3.785   3.477
 3561TIP3    H110647   3.572   3.864   3.493
 3561TIP3    H210648   3.490   3.794   3.387
 3562TIP3   OH210649   5.078   1.112   3.702
 3562TIP3    H110650   5.018   1.079   3.636
 3562TIP3    H210651   5.041   1.082   3.785
 3563TIP3   OH210652   6.713   3.468   1.259
 3563TIP3    H110653   6.757   3.513   1.187
 3563TIP3    H210654   6.713   3.376   1.233
 3564TIP3   OH210655   3.367   1.578   1.243
 3564TIP3    H110656   3.313   1.557   1.168
 3564TIP3    H210657   3.305   1.599   1.313
 3565TIP3   OH210658   5.339   4.229   4.545
 3565TIP3    H110659   5.355   4.224   4.451
 3565TIP3    H210660   5.304   4.317   4.559
 3566TIP3   OH210661   0.395   6.664   1.183
 3566TIP3    H110662   0.375   6.754   1.158
 3566TIP3    H210663   0.403   6.667   1.279
 3567TIP3   OH210664   2.364   4.845   3.042
 3567TIP3    H110665   2.306   4.846   3.118
 3567TIP3    H210666   2.404   4.758   3.044
 3568TIP3   OH210667   4.550   6.068   5.601
 3568TIP3    H110668   4.607   6.047   5.526
 3568TIP3    H210669   4.604   6.047   5.678
 3569TIP3   OH210670   3.195   4.581   3.012
 3569TIP3    H110671   3.261   4.646   3.036
 3569TIP3    H210672   3.209   4.565   2.919
 3570TIP3   OH210673   5.633   2.618   3.570
 3570TIP3    H110674   5.636   2.540   3.626
 3570TIP3    H210675   5.615   2.584   3.482
 3571TIP3   OH210676   4.059   0.470   3.625
 3571TIP3    H110677   4.085   0.467   3.717
 3571TIP3    H210678   4.133   0.433   3.578
 3572TIP3   OH210679   3.605   6.737   2.790
 3572TIP3    H110680   3.552   6.687   2.728
 3572TIP3    H210681   3.622   6.820   2.745
 3573TIP3   OH210682   6.104   3.431   3.260
 3573TIP3    H110683   6.140   3.377   3.189
 3573TIP3    H210684   6.112   3.376   3.338
 3574TIP3   OH210685   4.306   5.052   5.258
 3574TIP3    H110686   4.282   5.067   5.350
 3574TIP3    H210687   4.378   5.113   5.242
 3575TIP3   OH210688   6.341   4.496   3.684
 3575TIP3    H110689   6.391   4.418   3.663
 3575TIP3    H210690   6.297   4.519   3.602
 3576TIP3   OH210691   4.763   1.006   2.563
 3576TIP3    H110692   4.782   0.949   2.638
 3576TIP3    H210693   4.677   1.044   2.584
 3577TIP3   OH210694   2.851   2.928   2.096
 3577TIP3    H110695   2.811   2.851   2.136
 3577TIP3    H210696   2.943   2.923   2.121
 3578TIP3   OH210697   4.166   0.578   1.881
 3578TIP3    H110698   4.134   0.579   1.791
 3578TIP3    H210699   4.261   0.576   1.872
 3579TIP3   OH210700   4.521   0.901   5.575
 3579TIP3    H110701   4.533   0.954   5.497
 3579TIP3    H210702   4.524   0.964   5.647
 3580TIP3   OH210703   1.337   2.507   2.210
 3580TIP3    H110704   1.356   2.600   2.213
 3580TIP3    H210705   1.421   2.465   2.196
 3581TIP3   OH210706   5.942   3.460   3.671
 3581TIP3    H110707   5.864   3.471   3.616
 3581TIP3    H210708   5.930   3.521   3.743
 3582TIP3   OH210709   0.353   1.401   1.721
 3582TIP3    H110710   0.297   1.458   1.773
 3582TIP3    H210711   0.360   1.321   1.772
 3583TIP3   OH210712   6.991   5.635   1.550
 3583TIP3    H110713   7.069   5.641   1.493
 3583TIP3    H210714   7.023   5.591   1.629
 3584TIP3   OH210715   4.253   1.039   0.411
 3584TIP3    H110716   4.250   1.135   0.421
 3584TIP3    H210717   4.345   1.019   0.398
 3585TIP3   OH210718   4.069   1.308   5.436
 3585TIP3    H110719   4.024   1.352   5.364
 3585TIP3    H210720   4.159   1.299   5.407
 3586TIP3   OH210721   0.042   2.658   1.830
 3586TIP3    H110722   0.048   2.725   1.762
 3586TIP3    H210723   0.130   2.621   1.835
 3587TIP3   OH210724   2.209   1.357   4.216
 3587TIP3    H110725   2.248   1.270   4.212
 3587TIP3    H210726   2.143   1.358   4.147
 3588TIP3   OH210727   3.708   0.191   2.679
 3588TIP3    H110728   3.714   0.189   2.774
 3588TIP3    H210729   3.770   0.259   2.653
 3589TIP3   OH210730   1.797   2.009   0.718
 3589TIP3    H110731   1.775   2.058   0.797
 3589TIP3    H210732   1.713   1.994   0.674
 3590TIP3   OH210733   5.786   2.093   0.118
 3590TIP3    H110734   5.875   2.128   0.107
 3590TIP3    H210735   5.749   2.147   0.188
 3591TIP3   OH210736   6.452   4.151   0.541
 3591TIP3    H110737   6.471   4.058   0.552
 3591TIP3    H210738   6.359   4.154   0.519
 3592TIP3   OH210739   5.858   3.347   4.694
 3592TIP3    H110740   5.942   3.376   4.659
 3592TIP3    H210741   5.801   3.343   4.617
 3593TIP3   OH210742   6.311   1.896   0.657
 3593TIP3    H110743   6.334   1.881   0.565
 3593TIP3    H210744   6.217   1.916   0.655
 3594TIP3   OH210745   0.688   6.319   2.411
 3594TIP3    H110746   0.760   6.276   2.365
 3594TIP3    H210747   0.637   6.247   2.448
 3595TIP3   OH210748   2.325   5.006   0.788
 3595TIP3    H110749   2.259   5.039   0.728
 3595TIP3    H210750   2.275   4.974   0.864
 3596TIP3   OH210751   1.012   6.220   3.922
 3596TIP3    H110752   1.078   6.285   3.946
 3596TIP3    H210753   0.983   6.184   4.005
 3597TIP3   OH210754   6.577   6.555   0.269
 3597TIP3    H110755   6.539   6.619   0.209
 3597TIP3    H210756   6.503   6.501   0.298
 3598TIP3   OH210757   6.228   0.589   5.842
 3598TIP3    H110758   6.309   0.614   5.799
 3598TIP3    H210759   6.163   0.651   5.809
 3599TIP3   OH210760   1.634   1.150   5.803
 3599TIP3    H110761   1.681   1.073   5.835
 3599TIP3    H210762   1.676   1.224   5.846
 3600TIP3   OH210763   3.360   1.225   3.317
 3600TIP3    H110764   3.281   1.263   3.356
 3600TIP3    H210765   3.329   1.175   3.241
 3601TIP3   OH210766   5.317   4.026   1.983
 3601TIP3    H110767   5.274   4.112   1.984
 3601TIP3    H210768   5.248   3.965   2.010
 3602TIP3   OH210769   7.176   0.323   0.723
 3602TIP3    H110770   7.258   0.371   0.726
 3602TIP3    H210771   7.127   0.363   0.651
 3603TIP3   OH210772   4.144   2.450   2.106
 3603TIP3    H110773   4.137   2.466   2.012
 3603TIP3    H210774   4.213   2.385   2.115
 3604TIP3   OH210775   6.758   5.596   0.588
 3604TIP3    H110776   6.802   5.576   0.670
 3604TIP3    H210777   6.829   5.608   0.525
 3605TIP3   OH210778   6.067   6.685   2.864
 3605TIP3    H110779   6.033   6.619   2.925
 3605TIP3    H210780   6.009   6.760   2.876
 3606TIP3   OH210781   4.111   1.313   3.955
 3606TIP3    H110782   4.131   1.376   3.885
 3606TIP3    H210783   4.098   1.367   4.033
 3607TIP3   OH210784   0.588   0.572   4.479
 3607TIP3    H110785   0.646   0.517   4.532
 3607TIP3    H210786   0.520   0.513   4.448
 3608TIP3   OH210787   2.083   3.507   0.848
 3608TIP3    H110788   1.994   3.529   0.875
 3608TIP3    H210789   2.117   3.454   0.920
 3609TIP3   OH210790   6.260   1.352   4.361
 3609TIP3    H110791   6.350   1.321   4.367
 3609TIP3    H210792   6.208   1.272   4.348
 3610TIP3   OH210793   1.654   1.475   5.780
 3610TIP3    H110794   1.677   1.533   5.707
 3610TIP3    H210795   1.562   1.494   5.798
 3611TIP3   OH210796   2.969   0.870   2.537
 3611TIP3    H110797   2.895   0.815   2.511
 3611TIP3    H210798   2.941   0.909   2.620
 3612TIP3   OH210799   0.623   3.074   5.478
 3612TIP3    H110800   0.604   3.013   5.549
 3612TIP3    H210801   0.538   3.091   5.437
 3613TIP3   OH210802   1.947   2.455   5.475
 3613TIP3    H110803   1.995   2.402   5.412
 3613TIP3    H210804   1.988   2.541   5.470
 3614TIP3   OH210805   5.383   4.412   0.928
 3614TIP3    H110806   5.331   4.438   1.003
 3614TIP3    H210807   5.415   4.325   0.950
 3615TIP3   OH210808   3.879   2.691   0.739
 3615TIP3    H110809   3.785   2.708   0.731
 3615TIP3    H210810   3.902   2.726   0.825
 3616TIP3   OH210811   0.865   0.990   3.225
 3616TIP3    H110812   0.827   1.072   3.255
 3616TIP3    H210813   0.798   0.953   3.167
 3617TIP3   OH210814   7.003   2.087   3.453
 3617TIP3    H110815   6.997   2.107   3.359
 3617TIP3    H210816   7.009   2.173   3.495
 3618TIP3   OH210817   2.465   6.454   4.511
 3618TIP3    H110818   2.489   6.434   4.420
 3618TIP3    H210819   2.538   6.505   4.544
 3619TIP3   OH210820   0.756   2.431   2.097
 3619TIP3    H110821   0.768   2.363   2.163
 3619TIP3    H210822   0.838   2.480   2.098
 3620TIP3   OH210823   4.600   5.961   0.305
 3620TIP3    H110824   4.527   5.990   0.360
 3620TIP3    H210825   4.639   6.043   0.274
 3621TIP3   OH210826   2.820   4.232   2.736
 3621TIP3    H110827   2.873   4.289   2.791
 3621TIP3    H210828   2.762   4.186   2.797
 3622TIP3   OH210829   5.716   1.858   2.374
 3622TIP3    H110830   5.625   1.869   2.345
 3622TIP3    H210831   5.750   1.786   2.322
 3623TIP3   OH210832   5.748   3.055   5.321
 3623TIP3    H110833   5.662   3.042   5.359
 3623TIP3    H210834   5.771   2.969   5.286
 3624TIP3   OH210835   6.468   5.743   1.732
 3624TIP3    H110836   6.564   5.744   1.730
 3624TIP3    H210837   6.444   5.833   1.754
 3625TIP3   OH210838   4.814   4.711   4.375
 3625TIP3    H110839   4.863   4.630   4.390
 3625TIP3    H210840   4.813   4.755   4.460
 3626TIP3   OH210841   0.376   6.137   4.603
 3626TIP3    H110842   0.404   6.134   4.511
 3626TIP3    H210843   0.298   6.082   4.606
 3627TIP3   OH210844   1.461   1.022   5.201
 3627TIP3    H110845   1.491   1.109   5.174
 3627TIP3    H210846   1.488   0.964   5.130
 3628TIP3   OH210847   4.310   0.467   5.476
 3628TIP3    H110848   4.378   0.523   5.439
 3628TIP3    H210849   4.230   0.490   5.427
 3629TIP3   OH210850   7.030   5.011   4.512
 3629TIP3    H110851   7.047   4.928   4.468
 3629TIP3    H210852   7.076   5.076   4.459
 3630TIP3   OH210853   4.162   5.226   0.251
 3630TIP3    H110854   4.166   5.257   0.161
 3630TIP3    H210855   4.103   5.287   0.296
 3631TIP3   OH210856   7.049   5.957   2.396
 3631TIP3    H110857   7.070   5.888   2.459
 3631TIP3    H210858   7.090   6.036   2.432
 3632TIP3   OH210859   6.857   0.171   3.394
 3632TIP3    H110860   6.776   0.153   3.347
 3632TIP3    H210861   6.850   0.263   3.419
 3633TIP3   OH210862   2.110   4.681   4.314
 3633TIP3    H110863   2.166   4.730   4.254
 3633TIP3    H210864   2.021   4.713   4.296
 3634TIP3   OH210865   0.606   3.347   1.239
 3634TIP3    H110866   0.687   3.399   1.241
 3634TIP3    H210867   0.632   3.265   1.198
 3635TIP3   OH210868   0.051   2.253   2.330
 3635TIP3    H110869   0.061   2.346   2.309
 3635TIP3    H210870   0.053   2.208   2.245
 3636TIP3   OH210871   0.469   4.855   5.277
 3636TIP3    H110872   0.528   4.873   5.350
 3636TIP3    H210873   0.397   4.917   5.287
 3637TIP3   OH210874   0.369   0.524   0.054
 3637TIP3    H110875   0.299   0.590   0.054
 3637TIP3    H210876   0.323   0.441   0.071
 3638TIP3   OH210877   7.172   0.445   4.696
 3638TIP3    H110878   7.114   0.518   4.717
 3638TIP3    H210879   7.113   0.370   4.686
 3639TIP3   OH210880   6.278   3.494   2.759
 3639TIP3    H110881   6.280   3.588   2.776
 3639TIP3    H210882   6.233   3.485   2.676
 3640TIP3   OH210883   5.856   2.682   2.905
 3640TIP3    H110884   5.809   2.708   2.984
 3640TIP3    H210885   5.947   2.671   2.932
 3641TIP3   OH210886   0.037   1.078   5.325
 3641TIP3    H110887  -0.053   1.074   5.292
 3641TIP3    H210888   0.090   1.035   5.258
 3642TIP3   OH210889   2.603   1.015   1.763
 3642TIP3    H110890   2.548   1.089   1.789
 3642TIP3    H210891   2.605   0.958   1.840
 3643TIP3   OH210892   2.477   6.406   5.478
 3643TIP3    H110893   2.402   6.428   5.534
 3643TIP3    H210894   2.438   6.389   5.392
 3644TIP3   OH210895   4.516   0.676   1.000
 3644TIP3    H110896   4.516   0.715   0.912
 3644TIP3    H210897   4.605   0.643   1.011
 3645TIP3   OH210898   2.848   4.767   2.493
 3645TIP3    H110899   2.804   4.839   2.448
 3645TIP3    H210900   2.777   4.707   2.518
 3646TIP3   OH210901   6.403   5.818   5.673
 3646TIP3    H110902   6.329   5.842   5.729
 3646TIP3    H210903   6.401   5.722   5.670
 3647TIP3   OH210904   0.530   4.478   2.190
 3647TIP3    H110905   0.567   4.473   2.278
 3647TIP3    H210906   0.554   4.565   2.159
 3648TIP3   OH210907   4.124   5.114   2.262
 3648TIP3    H110908   4.103   5.043   2.201
 3648TIP3    H210909   4.180   5.073   2.327
 3649TIP3   OH210910   4.608   2.419   4.642
 3649TIP3    H110911   4.574   2.377   4.721
 3649TIP3    H210912   4.619   2.511   4.667
 3650TIP3   OH210913   3.060   6.680   5.279
 3650TIP3    H110914   3.104   6.764   5.290
 3650TIP3    H210915   3.013   6.666   5.361
 3651TIP3   OH210916   4.256   3.664   2.640
 3651TIP3    H110917   4.208   3.739   2.606
 3651TIP3    H210918   4.191   3.595   2.648
 3652TIP3   OH210919   2.503   2.093   0.861
 3652TIP3    H110920   2.459   2.136   0.788
 3652TIP3    H210921   2.482   2.000   0.850
 3653TIP3   OH210922   0.564   5.218   1.027
 3653TIP3    H110923   0.488   5.161   1.035
 3653TIP3    H210924   0.599   5.199   0.940
 3654TIP3   OH210925   0.691   6.420   0.286
 3654TIP3    H110926   0.691   6.510   0.319
 3654TIP3    H210927   0.599   6.395   0.283
 3655TIP3   OH210928   3.563   4.372   4.649
 3655TIP3    H110929   3.478   4.329   4.655
 3655TIP3    H210930   3.621   4.304   4.613
 3656TIP3   OH210931   4.445   6.105   1.185
 3656TIP3    H110932   4.455   6.186   1.235
 3656TIP3    H210933   4.404   6.044   1.247
 3657TIP3   OH210934   0.830   1.123   5.660
 3657TIP3    H110935   0.902   1.084   5.610
 3657TIP3    H210936   0.847   1.217   5.655
 3658TIP3   OH210937   1.977   3.625   0.612
 3658TIP3    H110938   2.010   3.590   0.695
 3658TIP3    H210939   2.056   3.644   0.561
 3659TIP3   OH210940   3.184   1.362   1.459
 3659TIP3    H110941   3.129   1.287   1.435
 3659TIP3    H210942   3.165   1.427   1.391
 3660TIP3   OH210943   6.957   0.478   1.464
 3660TIP3    H110944   6.938   0.410   1.529
 3660TIP3    H210945   6.998   0.549   1.514
 3661TIP3   OH210946   6.540   4.505   0.124
 3661TIP3    H110947   6.485   4.549   0.060
 3661TIP3    H210948   6.606   4.570   0.149
 3662TIP3   OH210949   4.365   4.992   2.402
 3662TIP3    H110950   4.398   4.967   2.315
 3662TIP3    H210951   4.331   4.911   2.439
 3663TIP3   OH210952   0.901   6.130   4.142
 3663TIP3    H110953   0.812   6.096   4.150
 3663TIP3    H210954   0.945   6.098   4.221
 3664TIP3   OH210955   1.280   0.584   4.605
 3664TIP3    H110956   1.364   0.626   4.624
 3664TIP3    H210957   1.269   0.521   4.676
 3665TIP3   OH210958   5.840   6.239   2.468
 3665TIP3    H110959   5.886   6.155   2.470
 3665TIP3    H210960   5.747   6.215   2.465
 3666TIP3   OH210961   3.979   1.283   5.883
 3666TIP3    H110962   3.898   1.317   5.923
 3666TIP3    H210963   3.964   1.294   5.789
 3667TIP3   OH210964   0.902   1.044   0.331
 3667TIP3    H110965   0.946   1.084   0.256
 3667TIP3    H210966   0.855   0.970   0.294
 3668TIP3   OH210967   4.854   0.511   1.512
 3668TIP3    H110968   4.838   0.602   1.536
 3668TIP3    H210969   4.934   0.514   1.460
 3669TIP3   OH210970   4.340   2.938   1.711
 3669TIP3    H110971   4.350   2.849   1.679
 3669TIP3    H210972   4.272   2.976   1.655
 3670TIP3   OH210973   3.942   3.010   3.944
 3670TIP3    H110974   3.916   2.968   4.026
 3670TIP3    H210975   4.033   2.982   3.931
 3671TIP3   OH210976   2.328   4.726   2.280
 3671TIP3    H110977   2.378   4.747   2.359
 3671TIP3    H210978   2.293   4.639   2.295
 3672TIP3   OH210979   0.031   1.269   4.979
 3672TIP3    H110980   0.027   1.251   4.886
 3672TIP3    H210981   0.072   1.191   5.017
 3673TIP3   OH210982   5.808   0.866   1.956
 3673TIP3    H110983   5.801   0.772   1.938
 3673TIP3    H210984   5.884   0.894   1.906
 3674TIP3   OH210985   5.753   1.754   5.177
 3674TIP3    H110986   5.815   1.730   5.246
 3674TIP3    H210987   5.672   1.774   5.224
 3675TIP3   OH210988   3.465   0.404   4.190
 3675TIP3    H110989   3.480   0.418   4.284
 3675TIP3    H210990   3.371   0.417   4.179
 3676TIP3   OH210991   5.827   3.306   2.333
 3676TIP3    H110992   5.758   3.372   2.337
 3676TIP3    H210993   5.797   3.242   2.269
 3677TIP3   OH210994   7.127   1.757   4.669
 3677TIP3    H110995   7.091   1.684   4.719
 3677TIP3    H210996   7.209   1.722   4.633
 3678TIP3   OH210997   6.874   4.729   1.592
 3678TIP3    H110998   6.966   4.753   1.581
 3678TIP3    H210999   6.869   4.694   1.681
 3679TIP3   OH211000   6.304   0.157   0.220
 3679TIP3    H111001   6.398   0.170   0.209
 3679TIP3    H211002   6.282   0.088   0.157
 3680TIP3   OH211003   3.004   5.812   2.444
 3680TIP3    H111004   3.068   5.884   2.451
 3680TIP3    H211005   3.021   5.757   2.520
 3681TIP3   OH211006   6.177   4.869   5.561
 3681TIP3    H111007   6.161   4.963   5.565
 3681TIP3    H211008   6.248   4.854   5.624
 3682TIP3   OH211009   0.522   3.461   5.884
 3682TIP3    H111010   0.548   3.433   5.797
 3682TIP3    H211011   0.478   3.385   5.922
 3683TIP3   OH211012   2.606   0.699   0.176
 3683TIP3    H111013   2.661   0.636   0.222
 3683TIP3    H211014   2.604   0.669   0.085
 3684TIP3   OH211015   1.928   0.262   0.558
 3684TIP3    H111016   1.951   0.315   0.481
 3684TIP3    H211017   1.971   0.306   0.631
 3685TIP3   OH211018   2.892   2.341   4.332
 3685TIP3    H111019   2.853   2.366   4.415
 3685TIP3    H211020   2.986   2.354   4.344
 3686TIP3   OH211021   3.382   2.799   0.919
 3686TIP3    H111022   3.347   2.857   0.851
 3686TIP3    H211023   3.351   2.836   1.001
 3687TIP3   OH211024   4.328   5.986   1.415
 3687TIP3    H111025   4.286   6.056   1.467
 3687TIP3    H211026   4.409   5.967   1.462
 3688TIP3   OH211027   4.830   1.285   1.015
 3688TIP3    H111028   4.899   1.350   1.031
 3688TIP3    H211029   4.759   1.311   1.074
 3689TIP3   OH211030   4.568   3.106   3.992
 3689TIP3    H111031   4.640   3.169   3.995
 3689TIP3    H211032   4.611   3.021   3.985
 3690TIP3   OH211033   0.836   3.673   4.562
 3690TIP3    H111034   0.846   3.654   4.469
 3690TIP3    H211035   0.782   3.752   4.565
 3691TIP3   OH211036   3.211   4.619   3.669
 3691TIP3    H111037   3.172   4.631   3.583
 3691TIP3    H211038   3.216   4.524   3.679
 3692TIP3   OH211039   1.026   3.206   2.687
 3692TIP3    H111040   0.960   3.196   2.755
 3692TIP3    H211041   1.000   3.284   2.638
 3693TIP3   OH211042   4.329   2.790   5.541
 3693TIP3    H111043   4.293   2.742   5.466
 3693TIP3    H211044   4.424   2.783   5.530
 3694TIP3   OH211045   5.625   2.694   1.256
 3694TIP3    H111046   5.562   2.695   1.329
 3694TIP3    H211047   5.653   2.785   1.246
 3695TIP3   OH211048   3.711   4.637   4.965
 3695TIP3    H111049   3.750   4.575   5.026
 3695TIP3    H211050   3.694   4.715   5.017
 3696TIP3   OH211051   3.962   1.860   4.521
 3696TIP3    H111052   4.024   1.828   4.455
 3696TIP3    H211053   3.943   1.950   4.493
 3697TIP3   OH211054   3.505   6.121   2.150
 3697TIP3    H111055   3.576   6.067   2.186
 3697TIP3    H211056   3.549   6.176   2.085
 3698TIP3   OH211057   5.626   1.282   4.076
 3698TIP3    H111058   5.674   1.270   4.158
 3698TIP3    H211059   5.692   1.272   4.007
 3699TIP3   OH211060   5.152   4.600   2.509
 3699TIP3    H111061   5.225   4.561   2.558
 3699TIP3    H211062   5.075   4.580   2.562
 3700TIP3   OH211063   2.322   3.890   5.365
 3700TIP3    H111064   2.416   3.877   5.378
 3700TIP3    H211065   2.304   3.845   5.282
 3701TIP3   OH211066   1.702   2.949   5.392
 3701TIP3    H111067   1.784   2.911   5.426
 3701TIP3    H211068   1.657   2.982   5.470
 3702TIP3   OH211069   0.970   6.874   4.682
 3702TIP3    H111070   0.994   6.782   4.689
 3702TIP3    H211071   0.976   6.894   4.589
 3703TIP3   OH211072   6.886   3.093   1.269
 3703TIP3    H111073   6.898   3.127   1.180
 3703TIP3    H211074   6.896   2.998   1.259
 3704TIP3   OH211075   0.513   0.020   3.335
 3704TIP3    H111076   0.530   0.099   3.387
 3704TIP3    H211077   0.463   0.050   3.259
 3705TIP3   OH211078   1.043   0.730   2.704
 3705TIP3    H111079   1.074   0.813   2.739
 3705TIP3    H211080   0.957   0.749   2.666
 3706TIP3   OH211081   1.729   3.940   3.771
 3706TIP3    H111082   1.662   3.884   3.732
 3706TIP3    H211083   1.681   3.993   3.835
 3707TIP3   OH211084   4.842   0.235   5.902
 3707TIP3    H111085   4.784   0.294   5.854
 3707TIP3    H211086   4.908   0.208   5.838
 3708TIP3   OH211087   1.269   1.911   5.525
 3708TIP3    H111088   1.355   1.879   5.498
 3708TIP3    H211089   1.227   1.939   5.444
 3709TIP3   OH211090   2.043   1.683   0.516
 3709TIP3    H111091   2.015   1.753   0.456
 3709TIP3    H211092   2.000   1.604   0.483
 3710TIP3   OH211093   4.558   3.226   1.520
 3710TIP3    H111094   4.628   3.281   1.554
 3710TIP3    H211095   4.489   3.287   1.495
 3711TIP3   OH211096   5.084   1.869   2.530
 3711TIP3    H111097   5.020   1.806   2.563
 3711TIP3    H211098   5.165   1.818   2.521
 3712TIP3   OH211099   6.686   5.616   5.216
 3712TIP3    H111100   6.694   5.651   5.127
 3712TIP3    H211101   6.724   5.683   5.272
 3713TIP3   OH211102   3.264   5.446   2.663
 3713TIP3    H111103   3.358   5.450   2.643
 3713TIP3    H211104   3.254   5.365   2.712
 3714TIP3   OH211105   2.613   3.588   0.614
 3714TIP3    H111106   2.587   3.660   0.671
 3714TIP3    H211107   2.599   3.620   0.525
 3715TIP3   OH211108   6.500   5.209   1.383
 3715TIP3    H111109   6.558   5.157   1.328
 3715TIP3    H211110   6.479   5.151   1.457
 3716TIP3   OH211111   2.181   3.766   5.593
 3716TIP3    H111112   2.234   3.770   5.514
 3716TIP3    H211113   2.235   3.717   5.655
 3717TIP3   OH211114   2.194   1.336   3.197
 3717TIP3    H111115   2.189   1.272   3.268
 3717TIP3    H211116   2.106   1.339   3.161
 3718TIP3   OH211117   4.327   3.072   1.429
 3718TIP3    H111118   4.404   3.104   1.475
 3718TIP3    H211119   4.270   3.149   1.421
 3719TIP3   OH211120   1.262   6.094   1.751
 3719TIP3    H111121   1.221   6.124   1.670
 3719TIP3    H211122   1.286   6.003   1.735
 3720TIP3   OH211123   4.213   3.367   5.753
 3720TIP3    H111124   4.297   3.384   5.796
 3720TIP3    H211125   4.166   3.450   5.760
 3721TIP3   OH211126   4.316   3.473   4.688
 3721TIP3    H111127   4.389   3.510   4.639
 3721TIP3    H211128   4.260   3.434   4.622
 3722TIP3   OH211129   2.347   4.160   0.528
 3722TIP3    H111130   2.273   4.218   0.548
 3722TIP3    H211131   2.322   4.117   0.447
 3723TIP3   OH211132   3.506   3.659   1.978
 3723TIP3    H111133   3.593   3.694   2.000
 3723TIP3    H211134   3.449   3.695   2.045
 3724TIP3   OH211135   2.578   1.740   1.340
 3724TIP3    H111136   2.534   1.657   1.321
 3724TIP3    H211137   2.668   1.727   1.309
 3725TIP3   OH211138   3.474   2.941   5.555
 3725TIP3    H111139   3.556   2.964   5.512
 3725TIP3    H211140   3.418   3.018   5.541
 3726TIP3   OH211141   5.354   4.534   0.004
 3726TIP3    H111142   5.362   4.517   0.098
 3726TIP3    H211143   5.439   4.570  -0.021
 3727TIP3   OH211144   1.348   1.905   4.682
 3727TIP3    H111145   1.307   1.974   4.630
 3727TIP3    H211146   1.390   1.951   4.755
 3728TIP3   OH211147   7.141   3.008   2.237
 3728TIP3    H111148   7.117   2.999   2.145
 3728TIP3    H211149   7.150   2.918   2.268
 3729TIP3   OH211150   5.419   4.898   5.057
 3729TIP3    H111151   5.398   4.849   5.137
 3729TIP3    H211152   5.337   4.943   5.035
 3730TIP3   OH211153   4.411   3.220   4.598
 3730TIP3    H111154   4.325   3.260   4.581
 3730TIP3    H211155   4.462   3.239   4.520
 3731TIP3   OH211156   3.382   3.412   1.197
 3731TIP3    H111157   3.314   3.475   1.174
 3731TIP3    H211158   3.463   3.452   1.164
 3732TIP3   OH211159   1.742   3.289   4.366
 3732TIP3    H111160   1.751   3.195   4.379
 3732TIP3    H211161   1.648   3.305   4.376
 3733TIP3   OH211162   3.295   4.283   0.662
 3733TIP3    H111163   3.280   4.309   0.753
 3733TIP3    H211164   3.231   4.334   0.612
 3734TIP3   OH211165   4.344   6.511   0.095
 3734TIP3    H111166   4.347   6.567   0.172
 3734TIP3    H211167   4.366   6.569   0.022
 3735TIP3   OH211168   2.749   3.141   3.055
 3735TIP3    H111169   2.805   3.069   3.028
 3735TIP3    H211170   2.756   3.143   3.150
 3736TIP3   OH211171   4.757   3.333   2.308
 3736TIP3    H111172   4.801   3.412   2.340
 3736TIP3    H211173   4.675   3.331   2.357
 3737TIP3   OH211174   0.935   1.923   4.428
 3737TIP3    H111175   0.938   1.883   4.341
 3737TIP3    H211176   0.928   2.017   4.412
 3738TIP3   OH211177   5.711   3.420   5.838
 3738TIP3    H111178   5.663   3.485   5.787
 3738TIP3    H211179   5.764   3.373   5.775
 3739TIP3   OH211180   6.105   5.727   0.329
 3739TIP3    H111181   6.045   5.800   0.321
 3739TIP3    H211182   6.051   5.655   0.362
 3740TIP3   OH211183   3.194   0.824   2.903
 3740TIP3    H111184   3.151   0.776   2.974
 3740TIP3    H211185   3.200   0.760   2.832
 3741TIP3   OH211186   0.592   4.100   5.000
 3741TIP3    H111187   0.562   4.151   4.925
 3741TIP3    H211188   0.687   4.104   4.996
 3742TIP3   OH211189   1.692   3.609   2.109
 3742TIP3    H111190   1.780   3.605   2.072
 3742TIP3    H211191   1.634   3.608   2.033
 3743TIP3   OH211192   1.250   0.008   5.750
 3743TIP3    H111193   1.246  -0.024   5.661
 3743TIP3    H211194   1.340   0.036   5.762
 3744TIP3   OH211195   3.541   3.729   1.687
 3744TIP3    H111196   3.488   3.748   1.764
 3744TIP3    H211197   3.583   3.812   1.665
 3745TIP3   OH211198   4.968   1.046   0.244
 3745TIP3    H111199   5.021   1.111   0.290
 3745TIP3    H211200   5.019   1.024   0.166
 3746TIP3   OH211201   1.074   0.697   5.417
 3746TIP3    H111202   1.092   0.748   5.496
 3746TIP3    H211203   1.130   0.736   5.350
 3747TIP3   OH211204   6.127   2.392   5.719
 3747TIP3    H111205   6.070   2.434   5.784
 3747TIP3    H211206   6.216   2.406   5.753
 3748TIP3   OH211207   1.461   6.088   3.776
 3748TIP3    H111208   1.484   6.156   3.840
 3748TIP3    H211209   1.545   6.048   3.753
 3749TIP3   OH211210   4.706   3.772   0.709
 3749TIP3    H111211   4.782   3.713   0.700
 3749TIP3    H211212   4.720   3.817   0.792
 3750TIP3   OH211213   4.323   4.913   1.493
 3750TIP3    H111214   4.237   4.883   1.523
 3750TIP3    H211215   4.313   5.008   1.481
 3751TIP3   OH211216   3.804   5.287   5.612
 3751TIP3    H111217   3.823   5.211   5.666
 3751TIP3    H211218   3.783   5.357   5.674
 3752TIP3   OH211219   5.165   1.903   0.420
 3752TIP3    H111220   5.244   1.856   0.445
 3752TIP3    H211221   5.191   1.995   0.419
 3753TIP3   OH211222   0.692   3.360   3.314
 3753TIP3    H111223   0.686   3.278   3.265
 3753TIP3    H211224   0.779   3.393   3.296
 3754TIP3   OH211225   2.320   2.625   1.551
 3754TIP3    H111226   2.239   2.575   1.545
 3754TIP3    H211227   2.387   2.560   1.575
 3755TIP3   OH211228   5.161   1.545   1.509
 3755TIP3    H111229   5.200   1.460   1.530
 3755TIP3    H211230   5.070   1.537   1.536
 3756TIP3   OH211231   4.801   2.840   0.242
 3756TIP3    H111232   4.711   2.808   0.236
 3756TIP3    H211233   4.801   2.898   0.317
 3757TIP3   OH211234   4.903   2.785   1.639
 3757TIP3    H111235   4.834   2.846   1.612
 3757TIP3    H211236   4.977   2.807   1.583
 3758TIP3   OH211237   5.948   1.105   4.596
 3758TIP3    H111238   5.962   1.192   4.560
 3758TIP3    H211239   5.882   1.118   4.665
 3759TIP3   OH211240   2.705   5.265   3.726
 3759TIP3    H111241   2.754   5.306   3.797
 3759TIP3    H211242   2.673   5.183   3.764
 3760TIP3   OH211243   5.989   4.633   3.377
 3760TIP3    H111244   6.074   4.650   3.417
 3760TIP3    H211245   5.947   4.719   3.374
 3761TIP3   OH211246   6.141   0.502   2.702
 3761TIP3    H111247   6.134   0.495   2.606
 3761TIP3    H211248   6.208   0.438   2.726
 3762TIP3   OH211249   0.048   6.548   3.523
 3762TIP3    H111250   0.055   6.638   3.491
 3762TIP3    H211251   0.129   6.506   3.492
 3763TIP3   OH211252   6.492   0.428   5.273
 3763TIP3    H111253   6.582   0.458   5.268
 3763TIP3    H211254   6.469   0.434   5.365
 3764TIP3   OH211255   6.840   2.455   4.631
 3764TIP3    H111256   6.886   2.405   4.698
 3764TIP3    H211257   6.909   2.504   4.585
 3765TIP3   OH211258   7.020   0.816   4.502
 3765TIP3    H111259   7.089   0.786   4.444
 3765TIP3    H211260   6.960   0.741   4.508
 3766TIP3   OH211261   1.406   5.601   1.020
 3766TIP3    H111262   1.363   5.685   1.003
 3766TIP3    H211263   1.365   5.541   0.958
 3767TIP3   OH211264   5.611   0.791   5.469
 3767TIP3    H111265   5.583   0.882   5.460
 3767TIP3    H211266   5.628   0.780   5.563
 3768TIP3   OH211267   5.761   2.497   2.726
 3768TIP3    H111268   5.808   2.558   2.784
 3768TIP3    H211269   5.804   2.413   2.739
 3769TIP3   OH211270   7.249   1.951   1.998
 3769TIP3    H111271   7.169   1.958   2.051
 3769TIP3    H211272   7.279   2.041   1.988
 3770TIP3   OH211273   4.821   2.878   2.000
 3770TIP3    H111274   4.882   2.935   1.954
 3770TIP3    H211275   4.771   2.937   2.056
 3771TIP3   OH211276   3.778   0.525   5.322
 3771TIP3    H111277   3.765   0.617   5.346
 3771TIP3    H211278   3.695   0.500   5.282
 3772TIP3   OH211279   5.254   2.815   3.823
 3772TIP3    H111280   5.229   2.887   3.765
 3772TIP3    H211281   5.194   2.744   3.799
 3773TIP3   OH211282   2.964   0.452   3.664
 3773TIP3    H111283   2.995   0.530   3.711
 3773TIP3    H211284   2.971   0.381   3.727
 3774TIP3   OH211285   1.079   0.636   3.755
 3774TIP3    H111286   1.058   0.575   3.685
 3774TIP3    H211287   0.998   0.685   3.769
 3775TIP3   OH211288   5.467   4.761   5.313
 3775TIP3    H111289   5.421   4.811   5.380
 3775TIP3    H211290   5.559   4.781   5.326
 3776TIP3   OH211291   5.322   0.576   5.845
 3776TIP3    H111292   5.320   0.618   5.759
 3776TIP3    H211293   5.230   0.569   5.871
 3777TIP3   OH211294   0.488   5.550   0.380
 3777TIP3    H111295   0.443   5.483   0.431
 3777TIP3    H211296   0.526   5.503   0.306
 3778TIP3   OH211297   2.263   3.990   3.051
 3778TIP3    H111298   2.264   3.949   3.137
 3778TIP3    H211299   2.234   3.921   2.992
 3779TIP3   OH211300   3.353   3.188   5.487
 3779TIP3    H111301   3.351   3.183   5.391
 3779TIP3    H211302   3.267   3.223   5.510
 3780TIP3   OH211303   5.379   4.310   3.548
 3780TIP3    H111304   5.352   4.399   3.524
 3780TIP3    H211305   5.475   4.314   3.549
 3781TIP3   OH211306   0.116   1.049   0.775
 3781TIP3    H111307   0.115   1.078   0.866
 3781TIP3    H211308   0.026   1.021   0.757
 3782TIP3   OH211309   6.349   2.464   3.238
 3782TIP3    H111310   6.340   2.544   3.289
 3782TIP3    H211311   6.428   2.422   3.274
 3783TIP3   OH211312   6.637   6.179   4.652
 3783TIP3    H111313   6.706   6.234   4.689
 3783TIP3    H211314   6.640   6.197   4.558
 3784TIP3   OH211315   2.197   6.474   4.569
 3784TIP3    H111316   2.283   6.477   4.526
 3784TIP3    H211317   2.187   6.383   4.595
 3785TIP3   OH211318   5.118   5.805   5.087
 3785TIP3    H111319   5.191   5.806   5.025
 3785TIP3    H211320   5.109   5.713   5.112
 3786TIP3   OH211321   3.974   6.798   2.158
 3786TIP3    H111322   3.949   6.842   2.239
 3786TIP3    H211323   3.996   6.709   2.185
 3787TIP3   OH211324   4.098   5.709   2.656
 3787TIP3    H111325   4.118   5.671   2.570
 3787TIP3    H211326   4.051   5.790   2.636
 3788TIP3   OH211327   1.330   1.595   0.470
 3788TIP3    H111328   1.361   1.527   0.530
 3788TIP3    H211329   1.239   1.611   0.496
 3789TIP3   OH211330   6.622   2.698   5.263
 3789TIP3    H111331   6.637   2.672   5.172
 3789TIP3    H211332   6.665   2.783   5.271
 3790TIP3   OH211333   2.587   2.662   1.930
 3790TIP3    H111334   2.515   2.606   1.961
 3790TIP3    H211335   2.630   2.610   1.862
 3791TIP3   OH211336   3.117   6.257   5.457
 3791TIP3    H111337   3.196   6.247   5.510
 3791TIP3    H211338   3.052   6.203   5.501
 3792TIP3   OH211339   0.199   0.537   3.449
 3792TIP3    H111340   0.252   0.473   3.402
 3792TIP3    H211341   0.108   0.512   3.431
 3793TIP3   OH211342   0.679   2.969   0.838
 3793TIP3    H111343   0.622   3.022   0.781
 3793TIP3    H211344   0.768   2.993   0.810
 3794TIP3   OH211345   1.658   2.717   0.125
 3794TIP3    H111346   1.703   2.648   0.174
 3794TIP3    H211347   1.714   2.793   0.132
 3795TIP3   OH211348   3.889   4.442   5.320
 3795TIP3    H111349   3.806   4.397   5.337
 3795TIP3    H211350   3.941   4.428   5.399
 3796TIP3   OH211351   7.212   2.509   4.058
 3796TIP3    H111352   7.292   2.554   4.029
 3796TIP3    H211353   7.145   2.578   4.058
 3797TIP3   OH211354   6.672   2.767   4.991
 3797TIP3    H111355   6.601   2.830   4.985
 3797TIP3    H211356   6.744   2.815   5.031
 3798TIP3   OH211357   5.349   5.242   5.889
 3798TIP3    H111358   5.312   5.220   5.975
 3798TIP3    H211359   5.376   5.157   5.854
 3799TIP3   OH211360   6.847   2.654   5.565
 3799TIP3    H111361   6.937   2.684   5.554
 3799TIP3    H211362   6.838   2.580   5.504
 3800TIP3   OH211363   4.234   6.778   0.027
 3800TIP3    H111364   4.207   6.850   0.085
 3800TIP3    H211365   4.160   6.717   0.030
 3801TIP3   OH211366   3.598   3.497   2.423
 3801TIP3    H111367   3.545   3.482   2.501
 3801TIP3    H211368   3.582   3.588   2.399
 3802TIP3   OH211369   6.874   6.053   0.188
 3802TIP3    H111370   6.804   6.008   0.234
 3802TIP3    H211371   6.834   6.086   0.107
 3803TIP3   OH211372   5.215   0.455   4.637
 3803TIP3    H111373   5.296   0.410   4.665
 3803TIP3    H211374   5.188   0.408   4.558
 3804TIP3   OH211375   0.664   3.670   2.380
 3804TIP3    H111376   0.714   3.613   2.322
 3804TIP3    H211377   0.578   3.630   2.387
 3805TIP3   OH211378   1.553   5.706   0.719
 3805TIP3    H111379   1.619   5.663   0.775
 3805TIP3    H211380   1.477   5.717   0.776
 3806TIP3   OH211381   0.269   4.387   5.256
 3806TIP3    H111382   0.255   4.375   5.162
 3806TIP3    H211383   0.320   4.311   5.283
 3807TIP3   OH211384   3.172   2.520   0.781
 3807TIP3    H111385   3.236   2.528   0.711
 3807TIP3    H211386   3.219   2.477   0.852
 3808TIP3   OH211387   2.505   6.414   0.042
 3808TIP3    H111388   2.495   6.319   0.031
 3808TIP3    H211389   2.479   6.431   0.132
 3809TIP3   OH211390   5.153   6.309   4.670
 3809TIP3    H111391   5.066   6.321   4.633
 3809TIP3    H211392   5.179   6.221   4.642
 3810TIP3   OH211393   6.186   6.568   0.198
 3810TIP3    H111394   6.250   6.502   0.225
 3810TIP3    H211395   6.215   6.648   0.241
 3811TIP3   OH211396   3.629   0.678   3.773
 3811TIP3    H111397   3.537   0.657   3.788
 3811TIP3    H211398   3.637   0.770   3.798
 3812TIP3   OH211399   5.743   5.261   3.024
 3812TIP3    H111400   5.713   5.170   3.028
 3812TIP3    H211401   5.673   5.308   2.979
 3813TIP3   OH211402   4.209   6.260   3.539
 3813TIP3    H111403   4.300   6.231   3.527
 3813TIP3    H211404   4.193   6.322   3.468
 3814TIP3   OH211405   6.009   4.384   5.885
 3814TIP3    H111406   5.918   4.387   5.915
 3814TIP3    H211407   6.004   4.385   5.790
 3815TIP3   OH211408   4.100   4.855   2.377
 3815TIP3    H111409   4.063   4.767   2.377
 3815TIP3    H211410   4.074   4.893   2.461
 3816TIP3   OH211411   1.184   1.610   1.108
 3816TIP3    H111412   1.203   1.541   1.170
 3816TIP3    H211413   1.241   1.683   1.134
 3817TIP3   OH211414   4.568   2.313   4.892
 3817TIP3    H111415   4.485   2.360   4.901
 3817TIP3    H211416   4.622   2.347   4.963
 3818TIP3   OH211417   4.742   4.850   4.128
 3818TIP3    H111418   4.771   4.816   4.212
 3818TIP3    H211419   4.819   4.894   4.091
 3819TIP3   OH211420   2.861   4.267   5.305
 3819TIP3    H111421   2.952   4.296   5.303
 3819TIP3    H211422   2.865   4.173   5.318
 3820TIP3   OH211423   6.154   3.157   1.655
 3820TIP3    H111424   6.229   3.161   1.715
 3820TIP3    H211425   6.166   3.074   1.609
 3821TIP3   OH211426   3.360   2.149   3.491
 3821TIP3    H111427   3.325   2.233   3.523
 3821TIP3    H211428   3.297   2.122   3.424
 3822TIP3   OH211429   3.335   0.767   1.549
 3822TIP3    H111430   3.388   0.698   1.588
 3822TIP3    H211431   3.339   0.839   1.613
 3823TIP3   OH211432   2.518   1.710   1.975
 3823TIP3    H111433   2.472   1.741   2.053
 3823TIP3    H211434   2.450   1.663   1.926
 3824TIP3   OH211435   2.813   0.859   1.172
 3824TIP3    H111436   2.809   0.768   1.203
 3824TIP3    H211437   2.723   0.877   1.144
 3825TIP3   OH211438   3.585   0.790   1.086
 3825TIP3    H111439   3.528   0.751   1.019
 3825TIP3    H211440   3.664   0.737   1.085
 3826TIP3   OH211441   4.525   1.292   3.282
 3826TIP3    H111442   4.550   1.356   3.215
 3826TIP3    H211443   4.469   1.341   3.343
 3827TIP3   OH211444   5.267   3.977   4.027
 3827TIP3    H111445   5.180   3.942   4.008
 3827TIP3    H211446   5.315   3.903   4.065
 3828TIP3   OH211447   2.918   3.603   4.873
 3828TIP3    H111448   2.920   3.509   4.893
 3828TIP3    H211449   2.944   3.645   4.955
 3829TIP3   OH211450   4.031   0.733   3.954
 3829TIP3    H111451   4.100   0.704   4.013
 3829TIP3    H211452   4.074   0.792   3.893
 3830TIP3   OH211453   0.905   2.330   5.687
 3830TIP3    H111454   0.874   2.268   5.752
 3830TIP3    H211455   0.828   2.381   5.663
 3831TIP3   OH211456   5.748   1.113   5.475
 3831TIP3    H111457   5.661   1.073   5.465
 3831TIP3    H211458   5.733   1.206   5.459
 3832TIP3   OH211459   4.211   0.414   4.648
 3832TIP3    H111460   4.122   0.416   4.682
 3832TIP3    H211461   4.252   0.340   4.692
 3833TIP3   OH211462   2.427   0.263   4.900
 3833TIP3    H111463   2.516   0.298   4.906
 3833TIP3    H211464   2.383   0.320   4.837
 3834TIP3   OH211465   4.496   1.524   0.815
 3834TIP3    H111466   4.466   1.578   0.888
 3834TIP3    H211467   4.592   1.524   0.824
 3835TIP3   OH211468   3.613   0.161   5.010
 3835TIP3    H111469   3.537   0.146   5.066
 3835TIP3    H211470   3.684   0.115   5.053
 3836TIP3   OH211471   5.966   5.911   5.776
 3836TIP3    H111472   5.980   6.006   5.770
 3836TIP3    H211473   5.965   5.893   5.870
 3837TIP3   OH211474   5.889   6.508   0.805
 3837TIP3    H111475   5.882   6.557   0.887
 3837TIP3    H211476   5.852   6.566   0.739
 3838TIP3   OH211477   4.929   4.112   5.795
 3838TIP3    H111478   4.858   4.049   5.805
 3838TIP3    H211479   4.887   4.197   5.792
 3839TIP3   OH211480   6.809   3.775   3.878
 3839TIP3    H111481   6.845   3.810   3.960
 3839TIP3    H211482   6.728   3.731   3.904
 3840TIP3   OH211483   5.402   1.156   3.939
 3840TIP3    H111484   5.447   1.179   4.020
 3840TIP3    H211485   5.421   1.229   3.880
 3841TIP3   OH211486   1.037   5.096   4.852
 3841TIP3    H111487   1.109   5.043   4.887
 3841TIP3    H211488   1.054   5.184   4.886
 3842TIP3   OH211489   5.030   2.089   5.048
 3842TIP3    H111490   4.956   2.061   4.994
 3842TIP3    H211491   5.010   2.179   5.071
 3843TIP3   OH211492   5.487   3.704   0.747
 3843TIP3    H111493   5.469   3.656   0.666
 3843TIP3    H211494   5.519   3.637   0.808
 3844TIP3   OH211495   6.496   1.336   4.109
 3844TIP3    H111496   6.469   1.255   4.152
 3844TIP3    H211497   6.465   1.405   4.167
 3845TIP3   OH211498   2.019   3.091   0.921
 3845TIP3    H111499   2.109   3.089   0.890
 3845TIP3    H211500   2.026   3.120   1.013
 3846TIP3   OH211501   2.301   2.909   3.310
 3846TIP3    H111502   2.251   2.856   3.373
 3846TIP3    H211503   2.391   2.904   3.341
 3847TIP3   OH211504   3.829   1.882   5.512
 3847TIP3    H111505   3.825   1.823   5.587
 3847TIP3    H211506   3.864   1.829   5.441
 3848TIP3   OH211507   2.078   2.069   2.666
 3848TIP3    H111508   2.165   2.108   2.676
 3848TIP3    H211509   2.088   2.005   2.596
 3849TIP3   OH211510   1.177   3.729   0.663
 3849TIP3    H111511   1.211   3.660   0.606
 3849TIP3    H211512   1.098   3.760   0.618
 3850TIP3   OH211513   1.367   0.349   5.145
 3850TIP3    H111514   1.458   0.341   5.174
 3850TIP3    H211515   1.373   0.384   5.056
 3851TIP3   OH211516   1.098   0.671   4.857
 3851TIP3    H111517   1.033   0.618   4.902
 3851TIP3    H211518   1.182   0.630   4.878
 3852TIP3   OH211519   2.086   3.854   1.015
 3852TIP3    H111520   2.004   3.904   1.019
 3852TIP3    H211521   2.096   3.819   1.104
 3853TIP3   OH211522   0.478   4.416   2.661
 3853TIP3    H111523   0.508   4.352   2.726
 3853TIP3    H211524   0.477   4.499   2.709
 3854TIP3   OH211525   2.856   4.748   2.193
 3854TIP3    H111526   2.826   4.822   2.245
 3854TIP3    H211527   2.923   4.784   2.136
 3855TIP3   OH211528   3.572   1.538   1.825
 3855TIP3    H111529   3.659   1.574   1.846
 3855TIP3    H211530   3.535   1.600   1.762
 3856TIP3   OH211531   0.469   3.935   2.906
 3856TIP3    H111532   0.439   3.880   2.834
 3856TIP3    H211533   0.389   3.975   2.941
 3857TIP3   OH211534   5.595   3.343   1.216
 3857TIP3    H111535   5.587   3.392   1.135
 3857TIP3    H211536   5.678   3.371   1.254
 3858TIP3   OH211537   1.457   3.589   1.361
 3858TIP3    H111538   1.443   3.627   1.448
 3858TIP3    H211539   1.376   3.608   1.314
 3859TIP3   OH211540   6.670   0.660   0.424
 3859TIP3    H111541   6.706   0.640   0.511
 3859TIP3    H211542   6.716   0.739   0.396
 3860TIP3   OH211543   0.070   0.284   4.411
 3860TIP3    H111544   0.016   0.285   4.331
 3860TIP3    H211545   0.151   0.242   4.384
 3861TIP3   OH211546   6.283   0.021   4.421
 3861TIP3    H111547   6.367   0.045   4.461
 3861TIP3    H211548   6.267   0.090   4.356
 3862TIP3   OH211549   6.763   4.153   0.486
 3862TIP3    H111550   6.667   4.144   0.490
 3862TIP3    H211551   6.779   4.206   0.408
 3863TIP3   OH211552   3.736   1.969   3.340
 3863TIP3    H111553   3.738   2.064   3.332
 3863TIP3    H211554   3.805   1.937   3.283
 3864TIP3   OH211555   3.216   1.073   2.786
 3864TIP3    H111556   3.194   0.988   2.824
 3864TIP3    H211557   3.152   1.084   2.715
 3865TIP3   OH211558   1.241   1.169   5.268
 3865TIP3    H111559   1.258   1.239   5.205
 3865TIP3    H211560   1.283   1.092   5.230
 3866TIP3   OH211561   6.839   6.647   4.005
 3866TIP3    H111562   6.934   6.633   4.007
 3866TIP3    H211563   6.826   6.710   3.934
 3867TIP3   OH211564   5.806   4.005   1.229
 3867TIP3    H111565   5.837   3.920   1.261
 3867TIP3    H211566   5.831   4.067   1.298
 3868TIP3   OH211567   0.447   5.885   1.149
 3868TIP3    H111568   0.402   5.968   1.132
 3868TIP3    H211569   0.539   5.903   1.128
 3869TIP3   OH211570   3.485   3.248   4.828
 3869TIP3    H111571   3.551   3.279   4.891
 3869TIP3    H211572   3.410   3.306   4.841
 3870TIP3   OH211573   1.185   1.413   0.909
 3870TIP3    H111574   1.201   1.475   0.980
 3870TIP3    H211575   1.090   1.416   0.896
 3871TIP3   OH211576   0.302   0.056   1.099
 3871TIP3    H111577   0.264   0.073   1.186
 3871TIP3    H211578   0.362  -0.017   1.113
 3872TIP3   OH211579   2.988   3.260   1.978
 3872TIP3    H111580   3.062   3.282   2.036
 3872TIP3    H211581   2.973   3.340   1.928
 3873TIP3   OH211582   2.796   4.372   3.288
 3873TIP3    H111583   2.743   4.374   3.209
 3873TIP3    H211584   2.735   4.392   3.359
 3874TIP3   OH211585   5.305   4.546   1.151
 3874TIP3    H111586   5.355   4.625   1.171
 3874TIP3    H211587   5.214   4.568   1.173
 3875TIP3   OH211588   1.609   6.352   5.763
 3875TIP3    H111589   1.639   6.415   5.829
 3875TIP3    H211590   1.528   6.390   5.729
 3876TIP3   OH211591   3.720   0.662   4.441
 3876TIP3    H111592   3.693   0.604   4.512
 3876TIP3    H211593   3.708   0.750   4.476
 3877TIP3   OH211594   6.252   1.956   4.408
 3877TIP3    H111595   6.295   1.899   4.472
 3877TIP3    H211596   6.161   1.961   4.438
 3878TIP3   OH211597   1.336   4.864   5.557
 3878TIP3    H111598   1.355   4.958   5.567
 3878TIP3    H211599   1.418   4.821   5.582
 3879TIP3   OH211600   5.295   2.587   1.077
 3879TIP3    H111601   5.309   2.681   1.063
 3879TIP3    H211602   5.382   2.549   1.078
 3880TIP3   OH211603   4.325   2.614   1.411
 3880TIP3    H111604   4.395   2.618   1.475
 3880TIP3    H211605   4.268   2.689   1.432
 3881TIP3   OH211606   6.458   1.015   0.844
 3881TIP3    H111607   6.364   1.030   0.848
 3881TIP3    H211608   6.467   0.919   0.839
 3882TIP3   OH211609   4.080   3.867   5.112
 3882TIP3    H111610   4.022   3.919   5.169
 3882TIP3    H211611   4.045   3.881   5.024
 3883TIP3   OH211612   5.215   5.599   4.436
 3883TIP3    H111613   5.159   5.523   4.419
 3883TIP3    H211614   5.227   5.639   4.350
 3884TIP3   OH211615   0.404   1.509   0.802
 3884TIP3    H111616   0.312   1.501   0.779
 3884TIP3    H211617   0.436   1.581   0.747
 3885TIP3   OH211618   4.141   4.562   3.968
 3885TIP3    H111619   4.230   4.530   3.985
 3885TIP3    H211620   4.090   4.533   4.043
 3886TIP3   OH211621   1.812   2.224   4.683
 3886TIP3    H111622   1.747   2.184   4.625
 3886TIP3    H211623   1.786   2.196   4.771
 3887TIP3   OH211624   3.929   4.138   0.012
 3887TIP3    H111625   3.838   4.141   0.041
 3887TIP3    H211626   3.953   4.045   0.018
 3888TIP3   OH211627   7.166   1.578   3.186
 3888TIP3    H111628   7.092   1.547   3.134
 3888TIP3    H211629   7.178   1.511   3.254
 3889TIP3   OH211630   4.997   6.099   0.827
 3889TIP3    H111631   5.032   6.010   0.828
 3889TIP3    H211632   4.966   6.114   0.917
 3890TIP3   OH211633   2.188   1.611   4.620
 3890TIP3    H111634   2.217   1.646   4.535
 3890TIP3    H211635   2.218   1.520   4.620
 3891TIP3   OH211636   2.940   5.590   1.667
 3891TIP3    H111637   3.027   5.553   1.682
 3891TIP3    H211638   2.884   5.515   1.651
 3892TIP3   OH211639   6.873   1.241   5.015
 3892TIP3    H111640   6.857   1.307   4.949
 3892TIP3    H211641   6.909   1.166   4.967
 3893TIP3   OH211642   3.248   3.273   3.239
 3893TIP3    H111643   3.178   3.270   3.305
 3893TIP3    H211644   3.259   3.366   3.219
 3894TIP3   OH211645   6.781   4.680   2.833
 3894TIP3    H111646   6.782   4.587   2.810
 3894TIP3    H211647   6.710   4.716   2.779
 3895TIP3   OH211648   5.115   5.374   4.802
 3895TIP3    H111649   5.159   5.300   4.760
 3895TIP3    H211650   5.033   5.338   4.836
 3896TIP3   OH211651   5.684   1.357   5.377
 3896TIP3    H111652   5.668   1.399   5.293
 3896TIP3    H211653   5.635   1.409   5.440
 3897TIP3   OH211654   4.030   4.223   0.707
 3897TIP3    H111655   4.076   4.168   0.644
 3897TIP3    H211656   3.985   4.161   0.765
 3898TIP3   OH211657   6.142   3.307   3.513
 3898TIP3    H111658   6.069   3.322   3.573
 3898TIP3    H211659   6.220   3.318   3.568
 3899TIP3   OH211660   5.468   5.234   1.008
 3899TIP3    H111661   5.498   5.305   0.951
 3899TIP3    H211662   5.474   5.271   1.096
 3900TIP3   OH211663   0.922   2.678   2.042
 3900TIP3    H111664   0.866   2.718   1.976
 3900TIP3    H211665   0.965   2.752   2.085
 3901TIP3   OH211666   1.283   5.875   3.968
 3901TIP3    H111667   1.317   5.905   3.884
 3901TIP3    H211668   1.190   5.896   3.966
 3902TIP3   OH211669   6.738   1.044   2.612
 3902TIP3    H111670   6.704   0.970   2.662
 3902TIP3    H211671   6.831   1.047   2.635
 3903TIP3   OH211672   6.603   6.169   3.233
 3903TIP3    H111673   6.551   6.092   3.210
 3903TIP3    H211674   6.539   6.241   3.234
 3904TIP3   OH211675   1.197   3.496   3.576
 3904TIP3    H111676   1.126   3.433   3.563
 3904TIP3    H211677   1.189   3.556   3.503
 3905TIP3   OH211678   1.723   0.898   5.876
 3905TIP3    H111679   1.648   0.846   5.902
 3905TIP3    H211680   1.798   0.855   5.917
 3906TIP3   OH211681   5.604   4.974   0.388
 3906TIP3    H111682   5.693   5.001   0.409
 3906TIP3    H211683   5.596   4.885   0.424
 3907TIP3   OH211684   4.280   3.275   3.592
 3907TIP3    H111685   4.218   3.341   3.561
 3907TIP3    H211686   4.334   3.320   3.656
 3908TIP3   OH211687   3.781   2.256   5.599
 3908TIP3    H111688   3.771   2.220   5.511
 3908TIP3    H211689   3.731   2.338   5.597
 3909TIP3   OH211690   0.462   1.596   4.185
 3909TIP3    H111691   0.467   1.673   4.129
 3909TIP3    H211692   0.541   1.601   4.240
 3910TIP3   OH211693   0.458   6.601   1.919
 3910TIP3    H111694   0.443   6.569   2.008
 3910TIP3    H211695   0.480   6.522   1.869
 3911TIP3   OH211696   3.154   4.847   5.699
 3911TIP3    H111697   3.116   4.767   5.735
 3911TIP3    H211698   3.132   4.915   5.763
 3912TIP3   OH211699   4.468   1.068   4.934
 3912TIP3    H111700   4.431   1.064   4.846
 3912TIP3    H211701   4.397   1.041   4.992
 3913TIP3   OH211702   4.077   5.895   2.953
 3913TIP3    H111703   4.065   5.945   2.872
 3913TIP3    H211704   4.088   5.962   3.021
 3914TIP3   OH211705   4.517   5.233   5.273
 3914TIP3    H111706   4.540   5.326   5.278
 3914TIP3    H211707   4.574   5.197   5.205
 3915TIP3   OH211708   3.926   6.357   5.313
 3915TIP3    H111709   3.977   6.292   5.264
 3915TIP3    H211710   3.988   6.390   5.378
 3916TIP3   OH211711   3.421   3.124   2.316
 3916TIP3    H111712   3.392   3.215   2.318
 3916TIP3    H211713   3.423   3.097   2.408
 3917TIP3   OH211714   5.563   1.648   3.322
 3917TIP3    H111715   5.536   1.570   3.273
 3917TIP3    H211716   5.608   1.614   3.399
 3918TIP3   OH211717   4.866   0.348   0.058
 3918TIP3    H111718   4.960   0.361   0.073
 3918TIP3    H211719   4.859   0.258   0.027
 3919TIP3   OH211720   1.542   1.122   1.130
 3919TIP3    H111721   1.606   1.072   1.181
 3919TIP3    H211722   1.498   1.057   1.075
 3920TIP3   OH211723   5.210   5.908   2.965
 3920TIP3    H111724   5.293   5.866   2.985
 3920TIP3    H211725   5.164   5.912   3.049
 3921TIP3   OH211726   3.842   2.402   2.216
 3921TIP3    H111727   3.871   2.322   2.260
 3921TIP3    H211728   3.919   2.432   2.167
 3922TIP3   OH211729   1.786   3.454   0.663
 3922TIP3    H111730   1.847   3.526   0.645
 3922TIP3    H211731   1.842   3.376   0.665
 3923TIP3   OH211732   4.115   1.422   4.523
 3923TIP3    H111733   4.057   1.346   4.529
 3923TIP3    H211734   4.066   1.485   4.470
 3924TIP3   OH211735   4.531   0.677   1.292
 3924TIP3    H111736   4.618   0.717   1.284
 3924TIP3    H211737   4.501   0.666   1.202
 3925TIP3   OH211738   3.017   4.806   1.963
 3925TIP3    H111739   3.111   4.797   1.950
 3925TIP3    H211740   3.000   4.900   1.951
 3926TIP3   OH211741   3.995   1.099   5.062
 3926TIP3    H111742   3.980   1.020   5.113
 3926TIP3    H211743   4.050   1.072   4.989
 3927TIP3   OH211744   3.030   4.637   5.888
 3927TIP3    H111745   2.950   4.656   5.841
 3927TIP3    H211746   3.001   4.595   5.969
 3928TIP3   OH211747   2.755   3.113   2.484
 3928TIP3    H111748   2.750   3.191   2.539
 3928TIP3    H211749   2.817   3.136   2.415
 3929TIP3   OH211750   5.262   1.269   4.692
 3929TIP3    H111751   5.326   1.232   4.753
 3929TIP3    H211752   5.287   1.361   4.684
 3930TIP3   OH211753   5.610   3.139   3.215
 3930TIP3    H111754   5.644   3.168   3.300
 3930TIP3    H211755   5.608   3.219   3.162
 3931TIP3   OH211756   5.414   0.339   2.087
 3931TIP3    H111757   5.500   0.296   2.084
 3931TIP3    H211758   5.414   0.386   2.170
 3932TIP3   OH211759   2.592   1.173   3.068
 3932TIP3    H111760   2.614   1.137   3.154
 3932TIP3    H211761   2.564   1.263   3.086
 3933TIP3   OH211762   6.100   2.428   0.743
 3933TIP3    H111763   6.149   2.481   0.806
 3933TIP3    H211764   6.067   2.354   0.794
 3934TIP3   OH211765   3.524   2.116   2.045
 3934TIP3    H111766   3.603   2.146   2.090
 3934TIP3    H211767   3.465   2.088   2.115
 3935TIP3   OH211768   1.512   3.104   4.899
 3935TIP3    H111769   1.578   3.128   4.834
 3935TIP3    H211770   1.563   3.085   4.978
 3936TIP3   OH211771   4.501   1.573   4.107
 3936TIP3    H111772   4.511   1.515   4.183
 3936TIP3    H211773   4.541   1.525   4.035
 3937TIP3   OH211774   4.747   4.586   1.894
 3937TIP3    H111775   4.662   4.572   1.854
 3937TIP3    H211776   4.795   4.504   1.879
 3938TIP3   OH211777   1.357   1.597   5.032
 3938TIP3    H111778   1.439   1.648   5.032
 3938TIP3    H211779   1.292   1.658   5.067
 3939TIP3   OH211780   5.507   3.167  -0.033
 3939TIP3    H111781   5.582   3.125   0.010
 3939TIP3    H211782   5.442   3.177   0.037
 3940TIP3   OH211783   2.590   5.985   3.840
 3940TIP3    H111784   2.628   6.061   3.884
 3940TIP3    H211785   2.577   6.014   3.750
 3941TIP3   OH211786   6.999   3.310   0.642
 3941TIP3    H111787   7.072   3.252   0.619
 3941TIP3    H211788   7.041   3.383   0.688
 3942TIP3   OH211789   0.590   6.336   3.849
 3942TIP3    H111790   0.518   6.305   3.905
 3942TIP3    H211791   0.652   6.263   3.847
 3943TIP3   OH211792   6.899   1.190   3.419
 3943TIP3    H111793   6.949   1.111   3.441
 3943TIP3    H211794   6.823   1.187   3.477
 3944TIP3   OH211795   2.546   1.377   5.461
 3944TIP3    H111796   2.513   1.290   5.485
 3944TIP3    H211797   2.574   1.416   5.543
 3945TIP3   OH211798   0.998   4.918   0.095
 3945TIP3    H111799   0.916   4.893   0.138
 3945TIP3    H211800   1.011   5.010   0.120
 3946TIP3   OH211801   1.481   5.785   2.743
 3946TIP3    H111802   1.401   5.835   2.757
 3946TIP3    H211803   1.523   5.827   2.668
 3947TIP3   OH211804   2.265   0.592   2.531
 3947TIP3    H111805   2.196   0.631   2.584
 3947TIP3    H211806   2.231   0.592   2.442
 3948TIP3   OH211807   5.918   5.363   1.053
 3948TIP3    H111808   5.973   5.304   1.001
 3948TIP3    H211809   5.892   5.432   0.993
 3949TIP3   OH211810   0.227   0.313   0.144
 3949TIP3    H111811   0.213   0.262   0.223
 3949TIP3    H211812   0.234   0.248   0.074
 3950TIP3   OH211813   6.510   3.981   3.669
 3950TIP3    H111814   6.497   3.887   3.682
 3950TIP3    H211815   6.442   4.007   3.607
 3951TIP3   OH211816   0.046   4.290   1.728
 3951TIP3    H111817  -0.035   4.271   1.681
 3951TIP3    H211818   0.105   4.326   1.662
 3952TIP3   OH211819   0.525   6.358   5.131
 3952TIP3    H111820   0.551   6.291   5.068
 3952TIP3    H211821   0.474   6.310   5.197
 3953TIP3   OH211822   4.610   1.963   5.615
 3953TIP3    H111823   4.577   1.874   5.628
 3953TIP3    H211824   4.680   1.971   5.680
 3954TIP3   OH211825   3.498   5.913   1.532
 3954TIP3    H111826   3.448   5.874   1.603
 3954TIP3    H211827   3.477   5.859   1.456
 3955TIP3   OH211828   0.263   0.404   5.514
 3955TIP3    H111829   0.251   0.317   5.552
 3955TIP3    H211830   0.352   0.402   5.478
 3956TIP3   OH211831   6.488   4.296   5.749
 3956TIP3    H111832   6.576   4.292   5.786
 3956TIP3    H211833   6.454   4.381   5.776
 3957TIP3   OH211834   4.902   2.329   4.976
 3957TIP3    H111835   4.827   2.365   5.023
 3957TIP3    H211836   4.977   2.375   5.011
 3958TIP3   OH211837   4.914   3.044   2.956
 3958TIP3    H111838   4.983   3.069   2.895
 3958TIP3    H211839   4.835   3.038   2.903
 3959TIP3   OH211840   0.308   5.542   3.549
 3959TIP3    H111841   0.395   5.580   3.552
 3959TIP3    H211842   0.322   5.451   3.524
 3960TIP3   OH211843   1.821   0.769   1.625
 3960TIP3    H111844   1.827   0.859   1.658
 3960TIP3    H211845   1.793   0.779   1.534
 3961TIP3   OH211846   3.360   0.352   2.781
 3961TIP3    H111847   3.401   0.438   2.785
 3961TIP3    H211848   3.395   0.312   2.701
 3962TIP3   OH211849   3.217   6.404   4.558
 3962TIP3    H111850   3.260   6.488   4.575
 3962TIP3    H211851   3.271   6.363   4.490
 3963TIP3   OH211852   0.008   0.920   1.735
 3963TIP3    H111853   0.001   0.930   1.641
 3963TIP3    H211854  -0.081   0.933   1.768
 3964TIP3   OH211855   6.907   5.897   4.048
 3964TIP3    H111856   6.818   5.867   4.032
 3964TIP3    H211857   6.916   5.896   4.143
 3965TIP3   OH211858   1.881   5.916   4.093
 3965TIP3    H111859   1.821   5.944   4.162
 3965TIP3    H211860   1.943   5.989   4.085
 3966TIP3   OH211861   2.055   1.145   5.007
 3966TIP3    H111862   2.097   1.225   5.038
 3966TIP3    H211863   2.111   1.075   5.040
 3967TIP3   OH211864   3.497   3.010   1.541
 3967TIP3    H111865   3.548   3.076   1.589
 3967TIP3    H211866   3.556   2.934   1.536
 3968TIP3   OH211867   3.782   4.942   3.947
 3968TIP3    H111868   3.876   4.925   3.951
 3968TIP3    H211869   3.774   5.038   3.948
 3969TIP3   OH211870   1.579   0.579   4.422
 3969TIP3    H111871   1.516   0.508   4.407
 3969TIP3    H211872   1.531   0.642   4.476
 3970TIP3   OH211873   6.545   4.227   0.137
 3970TIP3    H111874   6.639   4.211   0.132
 3970TIP3    H211875   6.538   4.318   0.167
 3971TIP3   OH211876   4.382   6.449   5.066
 3971TIP3    H111877   4.289   6.465   5.081
 3971TIP3    H211878   4.405   6.507   4.993
 3972TIP3   OH211879   3.858   5.915   3.690
 3972TIP3    H111880   3.907   5.948   3.615
 3972TIP3    H211881   3.771   5.894   3.655
 3973TIP3   OH211882   6.335   5.045   1.940
 3973TIP3    H111883   6.366   5.133   1.917
 3973TIP3    H211884   6.260   5.031   1.882
 3974TIP3   OH211885   4.022   2.634   2.274
 3974TIP3    H111886   3.937   2.595   2.296
 3974TIP3    H211887   4.079   2.559   2.256
 3975TIP3   OH211888  -0.038   1.928   2.886
 3975TIP3    H111889  -0.014   1.977   2.807
 3975TIP3    H211890   0.029   1.861   2.894
 3976TIP3   OH211891   6.905   3.141   5.205
 3976TIP3    H111892   6.952   3.064   5.173
 3976TIP3    H211893   6.929   3.210   5.142
 3977TIP3   OH211894   0.790   4.482   4.585
 3977TIP3    H111895   0.752   4.521   4.665
 3977TIP3    H211896   0.780   4.388   4.597
 3978TIP3   OH211897   2.649   5.418  -0.018
 3978TIP3    H111898   2.604   5.358   0.042
 3978TIP3    H211899   2.737   5.380  -0.027
 3979TIP3   OH211900   5.341   1.959   2.808
 3979TIP3    H111901   5.395   1.958   2.729
 3979TIP3    H211902   5.258   1.997   2.779
 3980TIP3   OH211903   4.179   4.968   5.037
 3980TIP3    H111904   4.156   5.053   4.999
 3980TIP3    H211905   4.234   4.990   5.112
 3981TIP3   OH211906   4.087   4.520   0.237
 3981TIP3    H111907   4.022   4.451   0.219
 3981TIP3    H211908   4.034   4.599   0.252
 3982TIP3   OH211909   1.714   0.262   1.322
 3982TIP3    H111910   1.650   0.319   1.280
 3982TIP3    H211911   1.787   0.257   1.260
 3983TIP3   OH211912   0.613   2.800   1.272
 3983TIP3    H111913   0.632   2.741   1.345
 3983TIP3    H211914   0.695   2.805   1.223
 3984TIP3   OH211915   4.357   3.829   5.162
 3984TIP3    H111916   4.267   3.850   5.135
 3984TIP3    H211917   4.353   3.737   5.187
 3985TIP3   OH211918   4.260   3.394   4.078
 3985TIP3    H111919   4.302   3.480   4.084
 3985TIP3    H211920   4.206   3.399   3.999
 3986TIP3   OH211921   2.449   1.463   5.768
 3986TIP3    H111922   2.381   1.411   5.726
 3986TIP3    H211923   2.417   1.477   5.857
 3987TIP3   OH211924   5.987   2.107   2.946
 3987TIP3    H111925   6.018   2.048   2.877
 3987TIP3    H211926   6.029   2.075   3.026
 3988TIP3   OH211927   4.454   0.270   3.400
 3988TIP3    H111928   4.395   0.290   3.473
 3988TIP3    H211929   4.515   0.344   3.398
 3989TIP3   OH211930   1.839   1.751   5.072
 3989TIP3    H111931   1.820   1.700   4.993
 3989TIP3    H211932   1.821   1.691   5.144
 3990TIP3   OH211933   5.317   2.235   3.704
 3990TIP3    H111934   5.363   2.152   3.717
 3990TIP3    H211935   5.379   2.289   3.655
 3991TIP3   OH211936   6.315   4.674   2.402
 3991TIP3    H111937   6.291   4.584   2.427
 3991TIP3    H211938   6.326   4.670   2.306
 3992TIP3   OH211939   4.109   6.470   3.961
 3992TIP3    H111940   4.107   6.548   3.906
 3992TIP3    H211941   4.152   6.404   3.907
 3993TIP3   OH211942   5.094   4.795   5.162
 3993TIP3    H111943   5.061   4.711   5.193
 3993TIP3    H211944   5.106   4.783   5.068
 3994TIP3   OH211945   3.953   4.931   0.778
 3994TIP3    H111946   3.905   5.010   0.752
 3994TIP3    H211947   4.017   4.917   0.708
 3995TIP3   OH211948   0.437   1.182   1.277
 3995TIP3    H111949   0.441   1.229   1.193
 3995TIP3    H211950   0.446   1.090   1.253
 3996TIP3   OH211951   0.387   2.701   0.663
 3996TIP3    H111952   0.398   2.679   0.570
 3996TIP3    H211953   0.338   2.627   0.700
 3997TIP3   OH211954   2.465   4.954   5.559
 3997TIP3    H111955   2.423   5.040   5.545
 3997TIP3    H211956   2.393   4.891   5.552
 3998TIP3   OH211957   3.791   0.522   0.942
 3998TIP3    H111958   3.778   0.553   1.032
 3998TIP3    H211959   3.804   0.427   0.952
 3999TIP3   OH211960   6.613   3.064   1.386
 3999TIP3    H111961   6.659   3.022   1.314
 3999TIP3    H211962   6.521   3.065   1.358
 4000TIP3   OH211963   6.958   5.539   5.374
 4000TIP3    H111964   6.949   5.604   5.444
 4000TIP3    H211965   6.935   5.456   5.415
 4001TIP3   OH211966   2.157   0.893   1.082
 4001TIP3    H111967   2.212   0.819   1.057
 4001TIP3    H211968   2.154   0.947   1.003
 4002TIP3   OH211969   7.034   0.003   2.467
 4002TIP3    H111970   7.090   0.072   2.432
 4002TIP3    H211971   6.947   0.022   2.433
 4003TIP3   OH211972   3.729   4.660   4.505
 4003TIP3    H111973   3.752   4.719   4.576
 4003TIP3    H211974   3.638   4.636   4.521
 4004TIP3   OH211975   6.890   5.461   3.768
 4004TIP3    H111976   6.906   5.468   3.674
 4004TIP3    H211977   6.941   5.386   3.796
 4005TIP3   OH211978   4.694   3.636   1.879
 4005TIP3    H111979   4.705   3.563   1.817
 4005TIP3    H211980   4.635   3.696   1.834
 4006TIP3   OH211981   3.472   4.752   5.690
 4006TIP3    H111982   3.388   4.795   5.709
 4006TIP3    H211983   3.508   4.731   5.776
 4007TIP3   OH211984   4.247   3.235  -0.010
 4007TIP3    H111985   4.234   3.164   0.053
 4007TIP3    H211986   4.266   3.311   0.043
 4008TIP3   OH211987   3.143   5.434   0.256
 4008TIP3    H111988   3.167   5.342   0.253
 4008TIP3    H211989   3.082   5.440   0.330
 4009TIP3   OH211990   3.808   6.014   2.360
 4009TIP3    H111991   3.728   6.062   2.382
 4009TIP3    H211992   3.783   5.962   2.283
 4010TIP3   OH211993   3.671   4.156   3.158
 4010TIP3    H111994   3.714   4.232   3.120
 4010TIP3    H211995   3.611   4.192   3.223
 4011TIP3   OH211996   5.626   6.549   4.313
 4011TIP3    H111997   5.677   6.614   4.362
 4011TIP3    H211998   5.544   6.595   4.292
 4012TIP3   OH211999   6.608   2.104   3.010
 4012TIP3    H112000   6.687   2.052   2.995
 4012TIP3    H212001   6.537   2.040   3.012
 4013TIP3   OH212002   0.169   0.741   4.764
 4013TIP3    H112003   0.212   0.817   4.804
 4013TIP3    H212004   0.235   0.672   4.764
 4014TIP3   OH212005   3.923   4.308   0.255
 4014TIP3    H112006   3.870   4.265   0.188
 4014TIP3    H212007   3.975   4.237   0.292
 4015TIP3   OH212008   2.360   6.157   0.597
 4015TIP3    H112009   2.270   6.164   0.564
 4015TIP3    H212010   2.384   6.247   0.618
 4016TIP3   OH212011   5.820   5.691   4.951
 4016TIP3    H112012   5.833   5.626   4.882
 4016TIP3    H212013   5.856   5.650   5.029
 4017TIP3   OH212014   1.566   2.627   3.181
 4017TIP3    H112015   1.567   2.576   3.262
 4017TIP3    H212016   1.500   2.583   3.126
 4018TIP3   OH212017   2.014   1.049   1.457
 4018TIP3    H112018   2.021   1.106   1.380
 4018TIP3    H212019   2.018   0.960   1.422
 4019TIP3   OH212020   7.030   0.658   0.123
 4019TIP3    H112021   6.960   0.658   0.057
 4019TIP3    H212022   7.048   0.565   0.138
 4020TIP3   OH212023   6.192   2.414   1.265
 4020TIP3    H112024   6.107   2.374   1.285
 4020TIP3    H212025   6.256   2.350   1.296
 4021TIP3   OH212026   1.280   2.755   2.998
 4021TIP3    H112027   1.264   2.835   2.947
 4021TIP3    H212028   1.317   2.694   2.935
 4022TIP3   OH212029   6.663   4.983   4.217
 4022TIP3    H112030   6.651   5.078   4.225
 4022TIP3    H212031   6.600   4.956   4.150
 4023TIP3   OH212032   4.661   6.505   4.544
 4023TIP3    H112033   4.591   6.496   4.609
 4023TIP3    H212034   4.670   6.599   4.532
 4024TIP3   OH212035   4.750   0.777   3.558
 4024TIP3    H112036   4.717   0.745   3.474
 4024TIP3    H212037   4.680   0.833   3.591
 4025TIP3   OH212038   4.818   3.896   0.447
 4025TIP3    H112039   4.773   3.861   0.524
 4025TIP3    H212040   4.753   3.954   0.406
 4026TIP3   OH212041   1.810   1.527   5.261
 4026TIP3    H112042   1.783   1.435   5.265
 4026TIP3    H212043   1.736   1.575   5.298
 4027TIP3   OH212044   0.336   3.938   2.370
 4027TIP3    H112045   0.370   4.006   2.312
 4027TIP3    H212046   0.241   3.951   2.369
 4028TIP3   OH212047   2.467   2.265   1.077
 4028TIP3    H112048   2.480   2.195   1.013
 4028TIP3    H212049   2.432   2.221   1.154
 4029TIP3   OH212050   3.603   1.648   2.847
 4029TIP3    H112051   3.687   1.675   2.810
 4029TIP3    H212052   3.551   1.623   2.771
 4030TIP3   OH212053   0.583   2.631   1.517
 4030TIP3    H112054   0.666   2.583   1.512
 4030TIP3    H212055   0.609   2.722   1.531
 4031TIP3   OH212056   6.623   1.326   3.403
 4031TIP3    H112057   6.709   1.368   3.407
 4031TIP3    H212058   6.627   1.258   3.471
 4032TIP3   OH212059   1.339   5.072   2.863
 4032TIP3    H112060   1.271   5.124   2.820
 4032TIP3    H212061   1.409   5.065   2.797
 4033TIP3   OH212062   1.466   3.579   3.424
 4033TIP3    H112063   1.416   3.513   3.374
 4033TIP3    H212064   1.404   3.650   3.439
 4034TIP3   OH212065   3.477   4.345   3.043
 4034TIP3    H112066   3.502   4.327   2.953
 4034TIP3    H212067   3.388   4.313   3.051
 4035TIP3   OH212068   0.985   5.419   4.115
 4035TIP3    H112069   0.942   5.486   4.062
 4035TIP3    H212070   1.077   5.423   4.089
 4036TIP3   OH212071   0.047   5.798   3.371
 4036TIP3    H112072  -0.021   5.863   3.351
 4036TIP3    H212073   0.023   5.765   3.458
 4037TIP3   OH212074   1.553   3.036   0.363
 4037TIP3    H112075   1.559   3.131   0.373
 4037TIP3    H212076   1.639   3.004   0.389
 4038TIP3   OH212077   4.212   2.055   0.493
 4038TIP3    H112078   4.168   2.127   0.448
 4038TIP3    H212079   4.202   2.075   0.586
 4039TIP3   OH212080   4.301   0.077   0.060
 4039TIP3    H112081   4.361   0.150   0.046
 4039TIP3    H212082   4.252   0.071  -0.022
 4040TIP3   OH212083   2.224   3.656   0.410
 4040TIP3    H112084   2.168   3.609   0.347
 4040TIP3    H212085   2.299   3.598   0.422
 4041TIP3   OH212086   6.028   2.168   1.817
 4041TIP3    H112087   5.999   2.243   1.868
 4041TIP3    H212088   6.042   2.203   1.729
 4042TIP3   OH212089   3.550   6.339   2.354
 4042TIP3    H112090   3.593   6.263   2.394
 4042TIP3    H212091   3.492   6.301   2.288
 4043TIP3   OH212092   1.854   1.546   3.424
 4043TIP3    H112093   1.943   1.569   3.447
 4043TIP3    H212094   1.862   1.491   3.346
 4044TIP3   OH212095   6.459   3.258   4.509
 4044TIP3    H112096   6.453   3.306   4.592
 4044TIP3    H212097   6.426   3.171   4.530
 4045TIP3   OH212098   6.612   4.362   4.895
 4045TIP3    H112099   6.580   4.425   4.961
 4045TIP3    H212100   6.563   4.383   4.816
 4046TIP3   OH212101   3.426   1.803   4.301
 4046TIP3    H112102   3.495   1.752   4.258
 4046TIP3    H212103   3.457   1.815   4.390
 4047TIP3   OH212104   1.144   1.207   0.028
 4047TIP3    H112105   1.125   1.147   0.101
 4047TIP3    H212106   1.178   1.286   0.070
 4048TIP3   OH212107   2.536   4.246   3.822
 4048TIP3    H112108   2.620   4.202   3.837
 4048TIP3    H212109   2.503   4.266   3.910
 4049TIP3   OH212110   5.063   3.808   4.698
 4049TIP3    H112111   5.005   3.809   4.622
 4049TIP3    H212112   5.149   3.831   4.663
 4050TIP3   OH212113   6.979   3.307   2.784
 4050TIP3    H112114   7.050   3.266   2.734
 4050TIP3    H212115   6.902   3.256   2.762
 4051TIP3   OH212116   5.786   4.938   3.742
 4051TIP3    H112117   5.834   4.871   3.694
 4051TIP3    H212118   5.727   4.889   3.800
 4052TIP3   OH212119   6.660   4.649   1.275
 4052TIP3    H112120   6.649   4.696   1.192
 4052TIP3    H212121   6.676   4.717   1.339
 4053TIP3   OH212122   2.819   5.548   4.727
 4053TIP3    H112123   2.884   5.480   4.746
 4053TIP3    H212124   2.825   5.608   4.801
 4054TIP3   OH212125   0.865   2.218   0.172
 4054TIP3    H112126   0.826   2.133   0.154
 4054TIP3    H212127   0.820   2.248   0.251
 4055TIP3   OH212128   6.059   1.949   0.689
 4055TIP3    H112129   6.045   1.974   0.781
 4055TIP3    H212130   6.009   2.013   0.639
 4056TIP3   OH212131   5.581   5.388   5.819
 4056TIP3    H112132   5.596   5.444   5.896
 4056TIP3    H212133   5.487   5.369   5.821
 4057TIP3   OH212134   2.095   6.248   2.900
 4057TIP3    H112135   2.174   6.259   2.954
 4057TIP3    H212136   2.127   6.250   2.810
 4058TIP3   OH212137   3.843   5.674   5.259
 4058TIP3    H112138   3.841   5.663   5.164
 4058TIP3    H212139   3.822   5.588   5.294
 4059TIP3   OH212140   6.272   6.128   0.161
 4059TIP3    H112141   6.287   6.034   0.162
 4059TIP3    H212142   6.177   6.137   0.172
 4060TIP3   OH212143   6.429   0.385   1.020
 4060TIP3    H112144   6.357   0.364   0.960
 4060TIP3    H212145   6.468   0.300   1.040
 4061TIP3   OH212146   1.128   1.254   4.019
 4061TIP3    H112147   1.079   1.172   4.025
 4061TIP3    H212148   1.203   1.232   3.963
 4062TIP3   OH212149   2.868   5.255   5.619
 4062TIP3    H112150   2.831   5.170   5.642
 4062TIP3    H212151   2.963   5.243   5.627
 4063TIP3   OH212152   0.116   3.257   0.692
 4063TIP3    H112153   0.082   3.338   0.729
 4063TIP3    H212154   0.150   3.209   0.767
 4064TIP3   OH212155   2.614   1.245   2.549
 4064TIP3    H112156   2.652   1.224   2.634
 4064TIP3    H212157   2.558   1.321   2.566
 4065TIP3   OH212158   2.158   1.840   3.709
 4065TIP3    H112159   2.202   1.775   3.765
 4065TIP3    H212160   2.133   1.910   3.769
 4066TIP3   OH212161   5.274   4.445   3.267
 4066TIP3    H112162   5.287   4.494   3.187
 4066TIP3    H212163   5.225   4.504   3.324
 4067TIP3   OH212164   2.960   2.420   0.643
 4067TIP3    H112165   2.887   2.365   0.672
 4067TIP3    H212166   3.009   2.440   0.723
 4068TIP3   OH212167   3.472   6.737   5.232
 4068TIP3    H112168   3.426   6.810   5.190
 4068TIP3    H212169   3.408   6.702   5.294
 4069TIP3   OH212170   1.729   5.030   5.714
 4069TIP3    H112171   1.722   4.966   5.785
 4069TIP3    H212172   1.649   5.082   5.720
 4070TIP3   OH212173   4.856   2.306   2.460
 4070TIP3    H112174   4.767   2.339   2.472
 4070TIP3    H212175   4.910   2.385   2.452
 4071TIP3   OH212176   2.189   4.053   2.176
 4071TIP3    H112177   2.130   3.979   2.190
 4071TIP3    H212178   2.166   4.085   2.088
 4072TIP3   OH212179   5.332   4.731   0.915
 4072TIP3    H112180   5.388   4.655   0.932
 4072TIP3    H212181   5.292   4.752   0.999
 4073TIP3   OH212182   4.727   6.716   1.589
 4073TIP3    H112183   4.767   6.632   1.613
 4073TIP3    H212184   4.692   6.701   1.501
 4074TIP3   OH212185   1.242   2.571   5.193
 4074TIP3    H112186   1.228   2.620   5.112
 4074TIP3    H212187   1.197   2.622   5.260
 4075TIP3   OH212188   0.651   6.095   3.596
 4075TIP3    H112189   0.721   6.152   3.629
 4075TIP3    H212190   0.670   6.009   3.633
 4076TIP3   OH212191   4.990   5.416   0.433
 4076TIP3    H112192   5.054   5.460   0.490
 4076TIP3    H212193   4.930   5.372   0.493
 4077TIP3   OH212194   1.723   1.493   3.642
 4077TIP3    H112195   1.766   1.562   3.693
 4077TIP3    H212196   1.756   1.504   3.553
 4078TIP3   OH212197   0.843   4.163   5.753
 4078TIP3    H112198   0.750   4.187   5.761
 4078TIP3    H212199   0.855   4.094   5.818
 4079TIP3   OH212200   5.879   2.746   0.277
 4079TIP3    H112201   5.951   2.781   0.225
 4079TIP3    H212202   5.851   2.667   0.229
 4080TIP3   OH212203   3.853   5.766   5.640
 4080TIP3    H112204   3.899   5.835   5.686
 4080TIP3    H212205   3.884   5.685   5.680
 4081TIP3   OH212206   6.968   6.506   5.104
 4081TIP3    H112207   6.943   6.455   5.027
 4081TIP3    H212208   6.886   6.517   5.153
 4082TIP3   OH212209   1.738   3.956   4.946
 4082TIP3    H112210   1.648   3.958   4.913
 4082TIP3    H212211   1.749   4.037   4.994
 4083TIP3   OH212212   5.223   5.169   0.296
 4083TIP3    H112213   5.285   5.105   0.263
 4083TIP3    H212214   5.260   5.198   0.379
 4084TIP3   OH212215   0.031   5.381   4.929
 4084TIP3    H112216   0.115   5.372   4.973
 4084TIP3    H212217  -0.017   5.301   4.950
 4085TIP3   OH212218   3.256   1.565   5.820
 4085TIP3    H112219   3.344   1.553   5.782
 4085TIP3    H212220   3.271   1.625   5.893
 4086TIP3   OH212221   1.143   1.723   5.703
 4086TIP3    H112222   1.200   1.660   5.747
 4086TIP3    H212223   1.200   1.769   5.642
 4087TIP3   OH212224   6.585   1.171   4.392
 4087TIP3    H112225   6.604   1.078   4.404
 4087TIP3    H212226   6.581   1.207   4.480
 4088TIP3   OH212227   5.925   6.852   4.219
 4088TIP3    H112228   5.963   6.789   4.279
 4088TIP3    H212229   5.857   6.803   4.172
 4089TIP3   OH212230   6.262   2.625   1.132
 4089TIP3    H112231   6.252   2.666   1.218
 4089TIP3    H212232   6.251   2.531   1.149
 4090TIP3   OH212233   4.897   4.487   0.721
 4090TIP3    H112234   4.806   4.464   0.705
 4090TIP3    H212235   4.912   4.464   0.813
 4091TIP3   OH212236   5.013   1.842   5.160
 4091TIP3    H112237   5.041   1.928   5.129
 4091TIP3    H212238   4.947   1.813   5.096
 4092TIP3   OH212239   2.623   3.555   3.827
 4092TIP3    H112240   2.644   3.638   3.786
 4092TIP3    H212241   2.604   3.577   3.918
 4093TIP3   OH212242   0.867   6.221   3.697
 4093TIP3    H112243   0.870   6.307   3.654
 4093TIP3    H212244   0.925   6.230   3.773
 4094TIP3   OH212245   0.961   3.943   2.339
 4094TIP3    H112246   0.982   3.850   2.330
 4094TIP3    H212247   0.915   3.965   2.258
 4095TIP3   OH212248   1.397   5.200   1.374
 4095TIP3    H112249   1.400   5.276   1.316
 4095TIP3    H212250   1.444   5.132   1.326
 4096TIP3   OH212251   5.285   0.376   5.000
 4096TIP3    H112252   5.262   0.284   5.010
 4096TIP3    H212253   5.375   0.375   4.968
 4097TIP3   OH212254   5.667   4.376   5.411
 4097TIP3    H112255   5.589   4.391   5.357
 4097TIP3    H212256   5.663   4.284   5.435
 4098TIP3   OH212257   1.338   5.400   2.848
 4098TIP3    H112258   1.360   5.327   2.907
 4098TIP3    H212259   1.410   5.462   2.859
 4099TIP3   OH212260   6.294   2.957   0.338
 4099TIP3    H112261   6.294   3.052   0.352
 4099TIP3    H212262   6.383   2.936   0.312
 4100TIP3   OH212263   0.868   0.345   4.114
 4100TIP3    H112264   0.803   0.327   4.182
 4100TIP3    H212265   0.917   0.421   4.147
 4101TIP3   OH212266   1.594   0.364   1.843
 4101TIP3    H112267   1.507   0.340   1.875
 4101TIP3    H212268   1.651   0.293   1.872
 4102TIP3   OH212269   5.456   5.271   1.305
 4102TIP3    H112270   5.498   5.347   1.264
 4102TIP3    H212271   5.387   5.307   1.360
 4103TIP3   OH212272   0.876   4.240   0.567
 4103TIP3    H112273   0.896   4.195   0.485
 4103TIP3    H212274   0.958   4.237   0.617
 4104TIP3   OH212275   0.506   5.438   0.076
 4104TIP3    H112276   0.438   5.391   0.029
 4104TIP3    H212277   0.582   5.380   0.073
 4105TIP3   OH212278   6.853   1.964   2.911
 4105TIP3    H112279   6.879   1.957   2.819
 4105TIP3    H212280   6.935   1.969   2.959
 4106TIP3   OH212281   1.004   0.424   4.419
 4106TIP3    H112282   1.008   0.494   4.354
 4106TIP3    H212283   1.063   0.356   4.385
 4107TIP3   OH212284   0.135   4.220   5.569
 4107TIP3    H112285   0.167   4.135   5.541
 4107TIP3    H212286   0.085   4.253   5.495
 4108TIP3   OH212287   2.547   5.186   4.829
 4108TIP3    H112288   2.602   5.113   4.854
 4108TIP3    H212289   2.587   5.220   4.749
 4109TIP3   OH212290   3.673   3.353   0.120
 4109TIP3    H112291   3.626   3.397   0.191
 4109TIP3    H212292   3.654   3.407   0.043
 4110TIP3   OH212293   5.252   5.267   5.010
 4110TIP3    H112294   5.309   5.323   5.062
 4110TIP3    H212295   5.185   5.326   4.975
 4111TIP3   OH212296   2.643   0.602   3.147
 4111TIP3    H112297   2.722   0.581   3.198
 4111TIP3    H212298   2.676   0.624   3.060
 4112TIP3   OH212299   3.405   1.906   2.468
 4112TIP3    H112300   3.497   1.914   2.445
 4112TIP3    H212301   3.376   1.826   2.424
 4113TIP3   OH212302   5.337   1.448   4.999
 4113TIP3    H112303   5.340   1.505   4.922
 4113TIP3    H212304   5.261   1.392   4.984
 4114TIP3   OH212305   1.507   0.262   4.653
 4114TIP3    H112306   1.536   0.244   4.564
 4114TIP3    H212307   1.492   0.176   4.692
 4115TIP3   OH212308   6.129   2.676   3.012
 4115TIP3    H112309   6.202   2.619   2.987
 4115TIP3    H212310   6.162   2.764   2.997
 4116TIP3   OH212311   1.253   5.468   1.738
 4116TIP3    H112312   1.316   5.506   1.799
 4116TIP3    H212313   1.203   5.405   1.790
 4117TIP3   OH212314   1.494   5.596   0.031
 4117TIP3    H112315   1.425   5.581   0.096
 4117TIP3    H212316   1.487   5.689   0.009
 4118TIP3   OH212317   4.091   1.796   1.737
 4118TIP3    H112318   4.103   1.716   1.684
 4118TIP3    H212319   4.163   1.853   1.709
 4119TIP3   OH212320   0.599   0.280   0.775
 4119TIP3    H112321   0.625   0.250   0.687
 4119TIP3    H212322   0.591   0.375   0.766
 4120TIP3   OH212323   4.938   4.958   3.969
 4120TIP3    H112324   4.907   5.004   3.891
 4120TIP3    H212325   5.032   4.975   3.971
 4121TIP3   OH212326   3.870   1.394   3.773
 4121TIP3    H112327   3.809   1.320   3.775
 4121TIP3    H212328   3.946   1.361   3.724
 4122TIP3   OH212329   7.093   6.309   3.221
 4122TIP3    H112330   7.068   6.383   3.166
 4122TIP3    H212331   7.029   6.309   3.292
 4123TIP3   OH212332   2.314   2.456   0.903
 4123TIP3    H112333   2.310   2.545   0.938
 4123TIP3    H212334   2.375   2.411   0.961
 4124TIP3   OH212335   2.643   2.633   1.434
 4124TIP3    H112336   2.556   2.667   1.414
 4124TIP3    H212337   2.667   2.582   1.357
 4125TIP3   OH212338   5.345   1.019   1.079
 4125TIP3    H112339   5.280   1.050   1.142
 4125TIP3    H212340   5.411   1.089   1.078
 4126TIP3   OH212341   0.194   4.769   1.797
 4126TIP3    H112342   0.271   4.789   1.850
 4126TIP3    H212343   0.173   4.852   1.754
 4127TIP3   OH212344   1.774   6.038   4.607
 4127TIP3    H112345   1.710   5.972   4.633
 4127TIP3    H212346   1.738   6.076   4.527
 4128TIP3   OH212347   0.340   5.520   1.596
 4128TIP3    H112348   0.305   5.578   1.528
 4128TIP3    H212349   0.345   5.574   1.674
 4129TIP3   OH212350   4.711   2.672   2.793
 4129TIP3    H112351   4.767   2.727   2.738
 4129TIP3    H212352   4.627   2.669   2.747
 4130TIP3   OH212353   4.496   4.288   2.135
 4130TIP3    H112354   4.503   4.251   2.223
 4130TIP3    H212355   4.418   4.247   2.098
 4131TIP3   OH212356   5.925   0.463   4.605
 4131TIP3    H112357   5.898   0.530   4.542
 4131TIP3    H212358   5.909   0.502   4.691
 4132TIP3   OH212359   4.047   6.196   2.166
 4132TIP3    H112360   4.132   6.233   2.144
 4132TIP3    H212361   4.048   6.188   2.261
 4133TIP3   OH212362   3.471   5.390   0.809
 4133TIP3    H112363   3.474   5.332   0.733
 4133TIP3    H212364   3.378   5.398   0.830
 4134TIP3   OH212365   0.825   4.601   5.205
 4134TIP3    H112366   0.800   4.508   5.200
 4134TIP3    H212367   0.768   4.644   5.142
 4135TIP3   OH212368   5.318   0.106   5.047
 4135TIP3    H112369   5.362   0.079   4.966
 4135TIP3    H212370   5.373   0.071   5.117
 4136TIP3   OH212371   5.596   3.874   1.740
 4136TIP3    H112372   5.605   3.967   1.723
 4136TIP3    H212373   5.583   3.868   1.835
 4137TIP3   OH212374   6.425   5.295   3.452
 4137TIP3    H112375   6.502   5.341   3.487
 4137TIP3    H212376   6.446   5.282   3.360
 4138TIP3   OH212377   0.232   1.563   2.626
 4138TIP3    H112378   0.204   1.472   2.641
 4138TIP3    H212379   0.150   1.613   2.626
 4139TIP3   OH212380   4.829   6.716   0.630
 4139TIP3    H112381   4.904   6.771   0.653
 4139TIP3    H212382   4.761   6.742   0.691
 4140TIP3   OH212383   2.912   3.695   3.260
 4140TIP3    H112384   2.883   3.612   3.298
 4140TIP3    H212385   2.852   3.711   3.188
 4141TIP3   OH212386   1.829   4.152   5.135
 4141TIP3    H112387   1.893   4.081   5.134
 4141TIP3    H212388   1.829   4.182   5.226
 4142TIP3   OH212389   0.779   2.392   3.178
 4142TIP3    H112390   0.756   2.349   3.261
 4142TIP3    H212391   0.850   2.340   3.142
 4143TIP3   OH212392   3.451   5.891   3.862
 4143TIP3    H112393   3.378   5.941   3.898
 4143TIP3    H212394   3.520   5.898   3.929
 4144TIP3   OH212395   4.554   4.764   4.984
 4144TIP3    H112396   4.583   4.847   4.947
 4144TIP3    H212397   4.586   4.697   4.924
 4145TIP3   OH212398   4.924   1.479   1.670
 4145TIP3    H112399   4.876   1.516   1.744
 4145TIP3    H212400   4.953   1.393   1.700
 4146TIP3   OH212401   6.242   2.224   5.263
 4146TIP3    H112402   6.184   2.149   5.274
 4146TIP3    H212403   6.330   2.188   5.269
 4147TIP3   OH212404   1.895   6.446   4.319
 4147TIP3    H112405   1.920   6.362   4.359
 4147TIP3    H212406   1.971   6.502   4.335
 4148TIP3   OH212407   5.569   6.483   5.190
 4148TIP3    H112408   5.476   6.464   5.201
 4148TIP3    H212409   5.613   6.431   5.256
 4149TIP3   OH212410   5.780   0.077   3.923
 4149TIP3    H112411   5.711   0.110   3.865
 4149TIP3    H212412   5.819   0.005   3.873
 4150TIP3   OH212413   2.677   5.467   0.896
 4150TIP3    H112414   2.668   5.562   0.907
 4150TIP3    H212415   2.595   5.431   0.929
 4151TIP3   OH212416   5.641   6.140   1.565
 4151TIP3    H112417   5.572   6.079   1.592
 4151TIP3    H212418   5.687   6.162   1.646
 4152TIP3   OH212419   2.693   0.625   4.291
 4152TIP3    H112420   2.705   0.628   4.196
 4152TIP3    H212421   2.657   0.537   4.307
 4153TIP3   OH212422   4.716   1.700   4.493
 4153TIP3    H112423   4.782   1.767   4.480
 4153TIP3    H212424   4.637   1.736   4.452
 4154TIP3   OH212425   4.641   5.630   0.965
 4154TIP3    H112426   4.702   5.570   1.008
 4154TIP3    H212427   4.667   5.628   0.873
 4155TIP3   OH212428   5.191   2.972   0.870
 4155TIP3    H112429   5.098   2.972   0.893
 4155TIP3    H212430   5.225   3.054   0.905
 4156TIP3   OH212431   4.738   0.277   3.774
 4156TIP3    H112432   4.728   0.202   3.715
 4156TIP3    H212433   4.656   0.325   3.766
 4157TIP3   OH212434   4.228   2.756   0.454
 4157TIP3    H112435   4.290   2.825   0.431
 4157TIP3    H212436   4.277   2.698   0.512
 4158TIP3   OH212437   3.169   4.529   5.153
 4158TIP3    H112438   3.239   4.554   5.093
 4158TIP3    H212439   3.123   4.458   5.108
 4159TIP3   OH212440   6.976   2.245   0.657
 4159TIP3    H112441   7.000   2.296   0.735
 4159TIP3    H212442   6.881   2.248   0.655
 4160TIP3   OH212443   6.573   3.365   3.938
 4160TIP3    H112444   6.536   3.442   3.980
 4160TIP3    H212445   6.642   3.335   3.998
 4161TIP3   OH212446   6.375   3.218   0.301
 4161TIP3    H112447   6.409   3.215   0.211
 4161TIP3    H212448   6.439   3.272   0.348
 4162TIP3   OH212449   4.766   3.852   4.565
 4162TIP3    H112450   4.706   3.786   4.530
 4162TIP3    H212451   4.726   3.879   4.648
 4163TIP3   OH212452   2.414   0.308   0.650
 4163TIP3    H112453   2.485   0.367   0.624
 4163TIP3    H212454   2.335   0.347   0.612
 4164TIP3   OH212455   7.155   0.284   4.148
 4164TIP3    H112456   7.162   0.370   4.109
 4164TIP3    H212457   7.070   0.251   4.120
 4165TIP3   OH212458   4.802   4.255   2.850
 4165TIP3    H112459   4.798   4.243   2.755
 4165TIP3    H212460   4.879   4.205   2.878
 4166TIP3   OH212461   4.485   2.805   5.198
 4166TIP3    H112462   4.500   2.845   5.112
 4166TIP3    H212463   4.568   2.817   5.245
 4167TIP3   OH212464   2.535   6.098   5.462
 4167TIP3    H112465   2.593   6.168   5.494
 4167TIP3    H212466   2.459   6.145   5.428
 4168TIP3   OH212467   0.233   1.516   3.799
 4168TIP3    H112468   0.165   1.542   3.861
 4168TIP3    H212469   0.308   1.570   3.822
 4169TIP3   OH212470   1.264   0.521   3.127
 4169TIP3    H112471   1.332   0.472   3.080
 4169TIP3    H212472   1.215   0.455   3.175
 4170TIP3   OH212473   5.329   4.450   0.278
 4170TIP3    H112474   5.318   4.492   0.363
 4170TIP3    H212475   5.259   4.385   0.274
 4171TIP3   OH212476   2.759   2.466   3.417
 4171TIP3    H112477   2.848   2.485   3.446
 4171TIP3    H212478   2.748   2.372   3.434
 4172TIP3   OH212479   6.010   2.233   0.947
 4172TIP3    H112480   5.930   2.205   0.992
 4172TIP3    H212481   6.080   2.182   0.988
 4173TIP3   OH212482   1.692   2.146   3.444
 4173TIP3    H112483   1.715   2.239   3.451
 4173TIP3    H212484   1.673   2.120   3.534
 4174TIP3   OH212485   0.219   0.752   0.093
 4174TIP3    H112486   0.274   0.809   0.147
 4174TIP3    H212487   0.130   0.786   0.104
 4175TIP3   OH212488   5.675   0.471   2.297
 4175TIP3    H112489   5.750   0.514   2.255
 4175TIP3    H212490   5.599   0.509   2.254
 4176TIP3   OH212491   0.402   4.555   1.088
 4176TIP3    H112492   0.335   4.511   1.035
 4176TIP3    H212493   0.461   4.594   1.023
 4177TIP3   OH212494   1.012   4.604   5.394
 4177TIP3    H112495   0.977   4.675   5.448
 4177TIP3    H212496   0.963   4.609   5.312
 4178TIP3   OH212497   4.172   4.323   5.053
 4178TIP3    H112498   4.249   4.376   5.073
 4178TIP3    H212499   4.137   4.361   4.973
 4179TIP3   OH212500   1.858   4.368   2.150
 4179TIP3    H112501   1.894   4.450   2.116
 4179TIP3    H212502   1.806   4.332   2.078
 4180TIP3   OH212503   1.165   6.324   0.568
 4180TIP3    H112504   1.228   6.270   0.520
 4180TIP3    H212505   1.094   6.340   0.505
 4181TIP3   OH212506   0.175   2.522   1.552
 4181TIP3    H112507   0.169   2.617   1.556
 4181TIP3    H212508   0.205   2.504   1.463
 4182TIP3   OH212509   2.699   1.142   5.074
 4182TIP3    H112510   2.770   1.134   5.010
 4182TIP3    H212511   2.740   1.119   5.158
 4183TIP3   OH212512   2.809   4.019   0.150
 4183TIP3    H112513   2.800   3.988   0.060
 4183TIP3    H212514   2.744   4.089   0.158
 4184TIP3   OH212515   0.476   2.902   0.329
 4184TIP3    H112516   0.431   2.986   0.322
 4184TIP3    H212517   0.431   2.845   0.267
 4185TIP3   OH212518   6.619   5.102   2.579
 4185TIP3    H112519   6.580   5.016   2.559
 4185TIP3    H212520   6.571   5.133   2.656
 4186TIP3   OH212521   5.730   4.494   3.889
 4186TIP3    H112522   5.710   4.481   3.982
 4186TIP3    H212523   5.668   4.438   3.843
 4187TIP3   OH212524   1.152   2.541   3.191
 4187TIP3    H112525   1.167   2.562   3.284
 4187TIP3    H212526   1.222   2.587   3.145
 4188TIP3   OH212527   4.328   6.822   2.451
 4188TIP3    H112528   4.237   6.794   2.456
 4188TIP3    H212529   4.325   6.905   2.404
 4189TIP3   OH212530   7.043   3.643   2.848
 4189TIP3    H112531   6.948   3.653   2.856
 4189TIP3    H212532   7.055   3.556   2.811
 4190TIP3   OH212533   5.647   3.002   1.097
 4190TIP3    H112534   5.710   2.970   1.032
 4190TIP3    H212535   5.662   3.097   1.099
 4191TIP3   OH212536   3.684   4.724   0.341
 4191TIP3    H112537   3.656   4.634   0.359
 4191TIP3    H212538   3.740   4.747   0.415
 4192TIP3   OH212539   2.192   1.981   5.522
 4192TIP3    H112540   2.198   1.995   5.427
 4192TIP3    H212541   2.111   2.026   5.547
 4193TIP3   OH212542   3.639   1.473   5.627
 4193TIP3    H112543   3.681   1.491   5.544
 4193TIP3    H212544   3.546   1.466   5.607
 4194TIP3   OH212545   6.014   6.032   4.088
 4194TIP3    H112546   6.026   6.000   3.998
 4194TIP3    H212547   6.101   6.029   4.127
 4195TIP3   OH212548   6.628   4.369   4.395
 4195TIP3    H112549   6.579   4.367   4.313
 4195TIP3    H212550   6.677   4.287   4.396
 4196TIP3   OH212551   6.912   2.101   3.949
 4196TIP3    H112552   6.979   2.170   3.957
 4196TIP3    H212553   6.943   2.047   3.876
 4197TIP3   OH212554   3.237   4.260   4.331
 4197TIP3    H112555   3.251   4.355   4.331
 4197TIP3    H212556   3.142   4.250   4.345
 4198TIP3   OH212557   6.940   4.458   3.502
 4198TIP3    H112558   6.941   4.554   3.501
 4198TIP3    H212559   6.994   4.433   3.428
 4199TIP3   OH212560   3.033   5.881   1.748
 4199TIP3    H112561   3.013   5.787   1.750
 4199TIP3    H212562   2.947   5.924   1.751
 4200TIP3   OH212563   1.091   2.498   2.792
 4200TIP3    H112564   1.167   2.455   2.751
 4200TIP3    H212565   1.027   2.507   2.722
 4201TIP3   OH212566   4.491   6.723   4.027
 4201TIP3    H112567   4.430   6.710   4.100
 4201TIP3    H212568   4.575   6.689   4.060
 4202TIP3   OH212569   4.960   6.223   5.353
 4202TIP3    H112570   5.007   6.156   5.303
 4202TIP3    H212571   4.989   6.306   5.315
 4203TIP3   OH212572   7.142   2.715   2.295
 4203TIP3    H112573   7.061   2.664   2.298
 4203TIP3    H212574   7.193   2.675   2.225
 4204TIP3   OH212575   5.130   2.889   2.704
 4204TIP3    H112576   5.185   2.968   2.711
 4204TIP3    H212577   5.128   2.854   2.793
 4205TIP3   OH212578   2.958   1.673   4.769
 4205TIP3    H112579   2.934   1.581   4.771
 4205TIP3    H212580   2.875   1.720   4.780
 4206TIP3   OH212581   1.490   1.693   2.816
 4206TIP3    H112582   1.541   1.731   2.745
 4206TIP3    H212583   1.496   1.756   2.888
 4207TIP3   OH212584   4.920   2.312   0.584
 4207TIP3    H112585   5.009   2.338   0.605
 4207TIP3    H212586   4.925   2.279   0.494
 4208TIP3   OH212587   4.814   2.890   1.333
 4208TIP3    H112588   4.723   2.890   1.364
 4208TIP3    H212589   4.844   2.800   1.349
 4209TIP3   OH212590   2.990   6.236   3.724
 4209TIP3    H112591   2.978   6.219   3.630
 4209TIP3    H212592   3.071   6.285   3.730
 4210TIP3   OH212593   2.457   5.174   1.773
 4210TIP3    H112594   2.410   5.119   1.836
 4210TIP3    H212595   2.478   5.254   1.822
 4211TIP3   OH212596   5.526   2.649   2.740
 4211TIP3    H112597   5.601   2.602   2.704
 4211TIP3    H212598   5.563   2.730   2.775
 4212TIP3   OH212599   4.404   6.324   1.709
 4212TIP3    H112600   4.434   6.317   1.799
 4212TIP3    H212601   4.483   6.320   1.656
 4213TIP3   OH212602   4.079   0.129   4.447
 4213TIP3    H112603   4.112   0.043   4.476
 4213TIP3    H212604   4.097   0.130   4.353
 4214TIP3   OH212605   7.116   5.036   0.474
 4214TIP3    H112606   7.050   5.060   0.410
 4214TIP3    H212607   7.074   4.971   0.530
 4215TIP3   OH212608   3.563   2.952   0.359
 4215TIP3    H112609   3.483   2.959   0.307
 4215TIP3    H212610   3.581   3.042   0.388
 4216TIP3   OH212611   2.153   6.227   4.663
 4216TIP3    H112612   2.147   6.131   4.665
 4216TIP3    H212613   2.067   6.255   4.630
 4217TIP3   OH212614   3.008   4.056   3.530
 4217TIP3    H112615   2.946   4.111   3.576
 4217TIP3    H212616   3.091   4.104   3.534
 4218TIP3   OH212617   1.654   4.451   3.489
 4218TIP3    H112618   1.584   4.503   3.449
 4218TIP3    H212619   1.615   4.415   3.568
 4219TIP3   OH212620   6.993   4.299   4.618
 4219TIP3    H112621   6.909   4.312   4.574
 4219TIP3    H212622   7.025   4.388   4.636
 4220TIP3   OH212623   3.363   2.746   1.374
 4220TIP3    H112624   3.276   2.777   1.398
 4220TIP3    H212625   3.392   2.695   1.450
 4221TIP3   OH212626   3.660   6.509   2.156
 4221TIP3    H112627   3.635   6.462   2.235
 4221TIP3    H212628   3.603   6.586   2.155
 4222TIP3   OH212629   2.769   0.080   4.533
 4222TIP3    H112630   2.849   0.044   4.571
 4222TIP3    H212631   2.724   0.120   4.608
 4223TIP3   OH212632   2.524   0.705   0.743
 4223TIP3    H112633   2.528   0.678   0.652
 4223TIP3    H212634   2.530   0.801   0.741
 4224TIP3   OH212635   4.195   0.560   0.662
 4224TIP3    H112636   4.201   0.651   0.632
 4224TIP3    H212637   4.200   0.566   0.758
 4225TIP3   OH212638   1.938   2.791   4.703
 4225TIP3    H112639   1.871   2.723   4.694
 4225TIP3    H212640   1.906   2.863   4.649
 4226TIP3   OH212641   0.813   0.965   1.867
 4226TIP3    H112642   0.768   1.047   1.848
 4226TIP3    H212643   0.743   0.901   1.878
 4227TIP3   OH212644   5.954   1.316   1.787
 4227TIP3    H112645   6.008   1.372   1.843
 4227TIP3    H212646   5.902   1.264   1.847
 4228TIP3   OH212647   3.253   1.948   0.773
 4228TIP3    H112648   3.163   1.976   0.789
 4228TIP3    H212649   3.294   2.023   0.730
 4229TIP3   OH212650   1.208   2.424   4.369
 4229TIP3    H112651   1.114   2.430   4.384
 4229TIP3    H212652   1.217   2.378   4.286
 4230TIP3   OH212653   3.894   4.047   1.414
 4230TIP3    H112654   3.931   3.959   1.414
 4230TIP3    H212655   3.896   4.074   1.322
 4231TIP3   OH212656   1.125   6.154   5.072
 4231TIP3    H112657   1.195   6.197   5.123
 4231TIP3    H212658   1.085   6.226   5.023
 4232TIP3   OH212659   0.653   4.715   2.140
 4232TIP3    H112660   0.645   4.755   2.226
 4232TIP3    H212661   0.736   4.749   2.106
 4233TIP3   OH212662   6.767   4.440   1.446
 4233TIP3    H112663   6.857   4.471   1.433
 4233TIP3    H212664   6.714   4.497   1.392
 4234TIP3   OH212665   6.891   5.741   3.374
 4234TIP3    H112666   6.815   5.718   3.426
 4234TIP3    H212667   6.935   5.810   3.424
 4235TIP3   OH212668   4.132   5.822   0.635
 4235TIP3    H112669   4.222   5.792   0.642
 4235TIP3    H212670   4.091   5.796   0.717
 4236TIP3   OH212671   1.116   6.081   3.047
 4236TIP3    H112672   1.156   6.001   3.014
 4236TIP3    H212673   1.164   6.101   3.127
 4237TIP3   OH212674   1.621   1.625   4.193
 4237TIP3    H112675   1.696   1.677   4.222
 4237TIP3    H212676   1.547   1.684   4.200
 4238TIP3   OH212677   3.354   2.853   5.816
 4238TIP3    H112678   3.376   2.880   5.727
 4238TIP3    H212679   3.379   2.928   5.870
 4239TIP3   OH212680   0.287   1.958   5.440
 4239TIP3    H112681   0.380   1.980   5.449
 4239TIP3    H212682   0.254   1.957   5.530
 4240TIP3   OH212683   5.156   6.577   3.952
 4240TIP3    H112684   5.205   6.547   4.028
 4240TIP3    H212685   5.096   6.505   3.932
 4241TIP3   OH212686   4.398   3.430   0.454
 4241TIP3    H112687   4.409   3.522   0.477
 4241TIP3    H212688   4.480   3.388   0.480
 4242TIP3   OH212689   6.695   1.095   0.494
 4242TIP3    H112690   6.636   1.089   0.569
 4242TIP3    H212691   6.662   1.169   0.443
 4243TIP3   OH212692   4.550   3.617   5.683
 4243TIP3    H112693   4.547   3.563   5.603
 4243TIP3    H212694   4.545   3.707   5.652
 4244TIP3   OH212695   4.970   3.547   1.668
 4244TIP3    H112696   4.915   3.554   1.590
 4244TIP3    H212697   4.967   3.635   1.707
 4245TIP3   OH212698   6.709   4.502   3.671
 4245TIP3    H112699   6.654   4.435   3.630
 4245TIP3    H212700   6.780   4.516   3.608
 4246TIP3   OH212701   6.569   2.541   0.411
 4246TIP3    H112702   6.538   2.467   0.463
 4246TIP3    H212703   6.516   2.539   0.332
 4247TIP3   OH212704   4.340   3.068   2.960
 4247TIP3    H112705   4.339   2.987   3.011
 4247TIP3    H212706   4.358   3.137   3.025
 4248TIP3   OH212707   4.051   0.311   0.898
 4248TIP3    H112708   4.099   0.317   0.816
 4248TIP3    H212709   4.118   0.311   0.966
 4249TIP3   OH212710   1.508   6.638   0.365
 4249TIP3    H112711   1.531   6.587   0.443
 4249TIP3    H212712   1.414   6.654   0.373
 4250TIP3   OH212713   1.809   5.677   2.920
 4250TIP3    H112714   1.834   5.701   2.830
 4250TIP3    H212715   1.763   5.754   2.953
 4251TIP3   OH212716   4.227   6.598   4.757
 4251TIP3    H112717   4.136   6.574   4.777
 4251TIP3    H212718   4.272   6.514   4.747
 4252TIP3   OH212719   0.165   1.807   4.400
 4252TIP3    H112720   0.158   1.738   4.333
 4252TIP3    H212721   0.193   1.760   4.479
 4253TIP3   OH212722   6.061   0.212   2.772
 4253TIP3    H112723   6.142   0.260   2.756
 4253TIP3    H212724   6.070   0.178   2.860
 4254TIP3   OH212725   3.526   1.657   4.594
 4254TIP3    H112726   3.457   1.606   4.637
 4254TIP3    H212727   3.493   1.746   4.593
 4255TIP3   OH212728   6.820   4.723   5.395
 4255TIP3    H112729   6.806   4.818   5.387
 4255TIP3    H212730   6.861   4.712   5.480
 4256TIP3   OH212731   3.551   3.526   0.261
 4256TIP3    H112732   3.545   3.599   0.199
 4256TIP3    H212733   3.533   3.566   0.346
 4257TIP3   OH212734   1.981   0.816   5.455
 4257TIP3    H112735   2.032   0.746   5.495
 4257TIP3    H212736   1.919   0.842   5.524
 4258TIP3   OH212737   6.470   0.947   5.816
 4258TIP3    H112738   6.490   0.988   5.899
 4258TIP3    H212739   6.381   0.976   5.795
 4259TIP3   OH212740   2.143   6.486   0.132
 4259TIP3    H112741   2.167   6.498   0.040
 4259TIP3    H212742   2.153   6.392   0.147
 4260TIP3   OH212743   1.550   2.145   2.891
 4260TIP3    H112744   1.632   2.194   2.879
 4260TIP3    H212745   1.508   2.149   2.805
 4261TIP3   OH212746   3.538   5.797   4.544
 4261TIP3    H112747   3.611   5.850   4.576
 4261TIP3    H212748   3.533   5.723   4.606
 4262TIP3   OH212749   0.887   3.729   3.690
 4262TIP3    H112750   0.884   3.784   3.612
 4262TIP3    H212751   0.795   3.706   3.706
 4263TIP3   OH212752   0.891   1.029   2.122
 4263TIP3    H112753   0.861   0.988   2.041
 4263TIP3    H212754   0.982   1.053   2.104
 4264TIP3   OH212755   5.026   2.507   2.865
 4264TIP3    H112756   5.118   2.489   2.847
 4264TIP3    H212757   5.025   2.599   2.893
 4265TIP3   OH212758   1.000   4.498   4.888
 4265TIP3    H112759   0.952   4.415   4.885
 4265TIP3    H212760   1.053   4.497   4.808
 4266TIP3   OH212761   3.134   6.572   0.146
 4266TIP3    H112762   3.208   6.560   0.206
 4266TIP3    H212763   3.145   6.661   0.112
 4267TIP3   OH212764   2.798   5.881   5.280
 4267TIP3    H112765   2.832   5.918   5.199
 4267TIP3    H212766   2.862   5.814   5.305
 4268TIP3   OH212767   2.338   2.253   0.686
 4268TIP3    H112768   2.348   2.275   0.593
 4268TIP3    H212769   2.339   2.337   0.731
 4269TIP3   OH212770   2.547   5.138   0.914
 4269TIP3    H112771   2.465   5.116   0.870
 4269TIP3    H212772   2.521   5.191   0.989
 4270TIP3   OH212773   6.040   3.814   3.960
 4270TIP3    H112774   6.039   3.880   3.890
 4270TIP3    H212775   6.028   3.731   3.915
 4271TIP3   OH212776   4.790   6.310   2.860
 4271TIP3    H112777   4.745   6.279   2.781
 4271TIP3    H212778   4.878   6.274   2.852
 4272TIP3   OH212779   7.112   2.880   2.963
 4272TIP3    H112780   7.115   2.795   3.006
 4272TIP3    H212781   7.204   2.903   2.948
 4273TIP3   OH212782   5.715   2.155   4.240
 4273TIP3    H112783   5.801   2.195   4.233
 4273TIP3    H212784   5.653   2.227   4.226
 4274TIP3   OH212785   5.295   3.415   0.271
 4274TIP3    H112786   5.243   3.495   0.280
 4274TIP3    H212787   5.367   3.426   0.333
 4275TIP3   OH212788   2.788   6.554   2.965
 4275TIP3    H112789   2.785   6.473   3.016
 4275TIP3    H212790   2.829   6.618   3.023
 4276TIP3   OH212791   0.685   0.991   5.854
 4276TIP3    H112792   0.731   1.036   5.783
 4276TIP3    H212793   0.658   0.908   5.817
 4277TIP3   OH212794   2.242   0.120   4.003
 4277TIP3    H112795   2.152   0.091   3.992
 4277TIP3    H212796   2.252   0.193   3.942
 4278TIP3   OH212797   6.822   2.257   2.643
 4278TIP3    H112798   6.805   2.266   2.737
 4278TIP3    H212799   6.859   2.342   2.617
 4279TIP3   OH212800   2.136   4.832   4.540
 4279TIP3    H112801   2.113   4.775   4.467
 4279TIP3    H212802   2.210   4.883   4.508
 4280TIP3   OH212803   5.015   1.138   2.499
 4280TIP3    H112804   4.931   1.110   2.463
 4280TIP3    H212805   5.032   1.222   2.456
 4281TIP3   OH212806   5.937   2.611   1.623
 4281TIP3    H112807   6.007   2.674   1.606
 4281TIP3    H212808   5.867   2.663   1.662
 4282TIP3   OH212809   2.598   3.873   5.353
 4282TIP3    H112810   2.619   3.793   5.303
 4282TIP3    H212811   2.683   3.912   5.372
 4283TIP3   OH212812   0.273   5.549   5.248
 4283TIP3    H112813   0.193   5.593   5.275
 4283TIP3    H212814   0.301   5.500   5.325
 4284TIP3   OH212815   4.495   4.535   1.810
 4284TIP3    H112816   4.454   4.449   1.813
 4284TIP3    H212817   4.471   4.570   1.724
 4285TIP3   OH212818   0.802   2.730   5.822
 4285TIP3    H112819   0.731   2.665   5.822
 4285TIP3    H212820   0.808   2.759   5.913
 4286TIP3   OH212821   5.588   5.830   1.598
 4286TIP3    H112822   5.537   5.888   1.654
 4286TIP3    H212823   5.643   5.781   1.659
 4287TIP3   OH212824   3.812   3.427   1.869
 4287TIP3    H112825   3.903   3.451   1.885
 4287TIP3    H212826   3.771   3.430   1.955
 4288TIP3   OH212827   1.849   1.019   1.136
 4288TIP3    H112828   1.891   1.103   1.152
 4288TIP3    H212829   1.920   0.962   1.106
 4289TIP3   OH212830   4.099   2.845   2.015
 4289TIP3    H112831   4.111   2.829   2.109
 4289TIP3    H212832   4.074   2.760   1.979
 4290TIP3   OH212833   4.907   1.747   5.675
 4290TIP3    H112834   4.891   1.760   5.581
 4290TIP3    H212835   4.874   1.828   5.716
 4291TIP3   OH212836   4.802   2.222   4.041
 4291TIP3    H112837   4.788   2.184   4.128
 4291TIP3    H212838   4.896   2.234   4.035
 4292TIP3   OH212839   0.722   5.656   2.503
 4292TIP3    H112840   0.799   5.705   2.472
 4292TIP3    H212841   0.648   5.712   2.481
 4293TIP3   OH212842   4.134   4.110   3.196
 4293TIP3    H112843   4.228   4.111   3.217
 4293TIP3    H212844   4.097   4.180   3.250
 4294TIP3   OH212845   6.227   4.208   5.147
 4294TIP3    H112846   6.322   4.195   5.147
 4294TIP3    H212847   6.214   4.294   5.187
 4295TIP3   OH212848   4.232   0.861   2.432
 4295TIP3    H112849   4.290   0.839   2.359
 4295TIP3    H212850   4.240   0.956   2.442
 4296TIP3   OH212851   5.453   0.032   1.378
 4296TIP3    H112852   5.395   0.004   1.449
 4296TIP3    H212853   5.394   0.063   1.309
 4297TIP3   OH212854   5.355   6.376   2.234
 4297TIP3    H112855   5.341   6.282   2.239
 4297TIP3    H212856   5.267   6.413   2.226
 4298TIP3   OH212857   1.852   4.558   1.498
 4298TIP3    H112858   1.857   4.554   1.593
 4298TIP3    H212859   1.941   4.537   1.468
 4299TIP3   OH212860   1.579   4.519   0.544
 4299TIP3    H112861   1.499   4.565   0.520
 4299TIP3    H212862   1.556   4.470   0.623
 4300TIP3   OH212863   0.707   2.265   3.403
 4300TIP3    H112864   0.643   2.323   3.445
 4300TIP3    H212865   0.657   2.186   3.383
 4301TIP3   OH212866   4.686   5.563   5.037
 4301TIP3    H112867   4.759   5.502   5.046
 4301TIP3    H212868   4.718   5.645   5.075
 4302TIP3   OH212869   6.295   2.071   2.995
 4302TIP3    H112870   6.275   2.016   2.919
 4302TIP3    H212871   6.355   2.018   3.047
 4303TIP3   OH212872   2.915   1.650   2.010
 4303TIP3    H112873   2.920   1.724   1.950
 4303TIP3    H212874   2.951   1.683   2.093
 4304TIP3   OH212875   3.846   2.782   0.338
 4304TIP3    H112876   3.911   2.776   0.409
 4304TIP3    H212877   3.835   2.877   0.325
 4305TIP3   OH212878   0.312   2.780   0.136
 4305TIP3    H112879   0.235   2.787   0.193
 4305TIP3    H212880   0.300   2.698   0.088
 4306TIP3   OH212881   3.688   0.194   3.259
 4306TIP3    H112882   3.763   0.215   3.316
 4306TIP3    H212883   3.726   0.142   3.188
 4307TIP3   OH212884   5.775   6.724   2.955
 4307TIP3    H112885   5.681   6.707   2.965
 4307TIP3    H212886   5.811   6.707   3.041
 4308TIP3   OH212887   7.102   2.280   3.894
 4308TIP3    H112888   7.131   2.368   3.916
 4308TIP3    H212889   7.183   2.229   3.887
 4309TIP3   OH212890   3.717   3.810   2.162
 4309TIP3    H112891   3.754   3.728   2.194
 4309TIP3    H212892   3.793   3.865   2.143
 4310TIP3   OH212893   4.059   4.177   5.469
 4310TIP3    H112894   4.053   4.142   5.380
 4310TIP3    H212895   4.053   4.272   5.458
 4311TIP3   OH212896   0.687   3.985   5.460
 4311TIP3    H112897   0.672   3.957   5.369
 4311TIP3    H212898   0.781   3.974   5.472
 4312TIP3   OH212899   6.356   6.669   0.580
 4312TIP3    H112900   6.308   6.590   0.603
 4312TIP3    H212901   6.342   6.729   0.653
 4313TIP3   OH212902   5.603   1.435   4.552
 4313TIP3    H112903   5.675   1.498   4.550
 4313TIP3    H212904   5.566   1.443   4.640
 4314TIP3   OH212905   6.631   0.332   4.676
 4314TIP3    H112906   6.606   0.255   4.625
 4314TIP3    H212907   6.621   0.305   4.767
 4315TIP3   OH212908   3.720   6.598   4.834
 4315TIP3    H112909   3.679   6.589   4.920
 4315TIP3    H212910   3.647   6.592   4.772
 4316TIP3   OH212911   2.475   4.660   3.620
 4316TIP3    H112912   2.423   4.580   3.631
 4316TIP3    H212913   2.501   4.659   3.528
 4317TIP3   OH212914   0.980   2.080   5.397
 4317TIP3    H112915   1.022   2.161   5.425
 4317TIP3    H212916   0.975   2.026   5.476
 4318TIP3   OH212917   6.821   4.442   5.700
 4318TIP3    H112918   6.843   4.384   5.628
 4318TIP3    H212919   6.763   4.508   5.662
 4319TIP3   OH212920   5.495   4.663   2.027
 4319TIP3    H112921   5.479   4.573   2.055
 4319TIP3    H212922   5.458   4.717   2.096
 4320TIP3   OH212923   3.381   1.344   2.291
 4320TIP3    H112924   3.410   1.272   2.348
 4320TIP3    H212925   3.313   1.304   2.235
 4321TIP3   OH212926   4.383   5.209   4.914
 4321TIP3    H112927   4.291   5.185   4.899
 4321TIP3    H212928   4.432   5.135   4.879
 4322TIP3   OH212929   0.183   2.749   2.338
 4322TIP3    H112930   0.182   2.835   2.295
 4322TIP3    H212931   0.189   2.687   2.265
 4323TIP3   OH212932   4.787   2.600   2.428
 4323TIP3    H112933   4.851   2.587   2.498
 4323TIP3    H212934   4.838   2.638   2.356
 4324TIP3   OH212935   2.184   6.297   1.781
 4324TIP3    H112936   2.187   6.388   1.751
 4324TIP3    H212937   2.236   6.249   1.717
 4325TIP3   OH212938   4.279   3.375   4.966
 4325TIP3    H112939   4.259   3.453   5.018
 4325TIP3    H212940   4.312   3.410   4.883
 4326TIP3   OH212941   6.280   5.844   5.321
 4326TIP3    H112942   6.343   5.772   5.321
 4326TIP3    H212943   6.217   5.821   5.389
 4327TIP3   OH212944   5.371   3.916   1.171
 4327TIP3    H112945   5.357   3.970   1.249
 4327TIP3    H212946   5.464   3.930   1.149
 4328TIP3   OH212947   5.723   6.661   0.221
 4328TIP3    H112948   5.775   6.741   0.220
 4328TIP3    H212949   5.640   6.686   0.263
 4329TIP3   OH212950   1.788   6.343   3.241
 4329TIP3    H112951   1.841   6.286   3.297
 4329TIP3    H212952   1.852   6.385   3.184
 4330TIP3   OH212953   6.126   0.927   0.184
 4330TIP3    H112954   6.216   0.918   0.217
 4330TIP3    H212955   6.104   1.018   0.202
 4331TIP3   OH212956  -0.001   5.215   0.643
 4331TIP3    H112957  -0.029   5.140   0.591
 4331TIP3    H212958   0.077   5.183   0.690
 4332TIP3   OH212959   2.835   0.520   2.707
 4332TIP3    H112960   2.921   0.477   2.696
 4332TIP3    H212961   2.786   0.495   2.628
 4333TIP3   OH212962   0.763   0.272   0.971
 4333TIP3    H112963   0.699   0.280   0.900
 4333TIP3    H212964   0.726   0.208   1.031
 4334TIP3   OH212965   7.107   6.507   5.359
 4334TIP3    H112966   7.119   6.418   5.393
 4334TIP3    H212967   7.064   6.495   5.274
 4335TIP3   OH212968   3.341   5.042   2.150
 4335TIP3    H112969   3.377   5.013   2.066
 4335TIP3    H212970   3.281   4.973   2.176
 4336TIP3   OH212971   4.851   2.543   0.272
 4336TIP3    H112972   4.938   2.538   0.312
 4336TIP3    H212973   4.821   2.632   0.290
 4337TIP3   OH212974   2.265   3.689   4.196
 4337TIP3    H112975   2.233   3.599   4.188
 4337TIP3    H212976   2.186   3.743   4.193
 4338TIP3   OH212977   0.114   4.069   2.414
 4338TIP3    H112978   0.156   4.122   2.481
 4338TIP3    H212979   0.110   4.126   2.337
 4339TIP3   OH212980   0.448   0.822   1.717
 4339TIP3    H112981   0.460   0.833   1.811
 4339TIP3    H212982   0.468   0.908   1.680
 4340TIP3   OH212983   3.781   2.516   5.335
 4340TIP3    H112984   3.810   2.591   5.284
 4340TIP3    H212985   3.722   2.468   5.277
 4341TIP3   OH212986   3.752   0.247   2.229
 4341TIP3    H112987   3.756   0.321   2.288
 4341TIP3    H212988   3.748   0.170   2.286
 4342TIP3   OH212989   1.517   3.338   2.161
 4342TIP3    H112990   1.555   3.255   2.190
 4342TIP3    H212991   1.593   3.397   2.156
 4343TIP3   OH212992   6.420   3.714   3.632
 4343TIP3    H112993   6.360   3.660   3.684
 4343TIP3    H212994   6.388   3.705   3.542
 4344TIP3   OH212995   2.122   0.096   5.946
 4344TIP3    H112996   2.166   0.179   5.927
 4344TIP3    H212997   2.116   0.052   5.861
 4345TIP3   OH212998   6.822   0.833   1.033
 4345TIP3    H112999   6.796   0.925   1.041
 4345TIP3    H213000   6.845   0.822   0.941
 4346TIP3   OH213001   0.776   0.429   0.052
 4346TIP3    H113002   0.827   0.350   0.068
 4346TIP3    H213003   0.787   0.447  -0.042
 4347TIP3   OH213004   5.579   4.531   1.728
 4347TIP3    H113005   5.652   4.549   1.787
 4347TIP3    H213006   5.525   4.467   1.775
 4348TIP3   OH213007   5.433   1.821   1.835
 4348TIP3    H113008   5.400   1.890   1.892
 4348TIP3    H213009   5.355   1.787   1.791
 4349TIP3   OH213010   0.644   1.512   5.698
 4349TIP3    H113011   0.731   1.551   5.708
 4349TIP3    H213012   0.589   1.583   5.667
 4350TIP3   OH213013   3.159   2.388   4.387
 4350TIP3    H113014   3.178   2.481   4.385
 4350TIP3    H213015   3.219   2.352   4.452
 4351TIP3   OH213016   1.203   0.113   2.415
 4351TIP3    H113017   1.111   0.138   2.419
 4351TIP3    H213018   1.232   0.143   2.329
 4352TIP3   OH213019   0.204   1.004   0.464
 4352TIP3    H113020   0.252   0.992   0.383
 4352TIP3    H213021   0.193   0.915   0.499
 4353TIP3   OH213022   5.939   4.314   0.738
 4353TIP3    H113023   5.854   4.274   0.722
 4353TIP3    H213024   5.964   4.352   0.654
 4354TIP3   OH213025   4.416   5.131   0.682
 4354TIP3    H113026   4.322   5.132   0.704
 4354TIP3    H213027   4.419   5.160   0.591
 4355TIP3   OH213028   5.832   4.576   4.259
 4355TIP3    H113029   5.854   4.498   4.311
 4355TIP3    H213030   5.917   4.610   4.231
 4356TIP3   OH213031   6.956   2.645   4.162
 4356TIP3    H113032   6.956   2.629   4.257
 4356TIP3    H213033   6.940   2.739   4.154
 4357TIP3   OH213034   0.173   1.006   3.882
 4357TIP3    H113035   0.207   1.083   3.836
 4357TIP3    H213036   0.082   1.029   3.902
 4358TIP3   OH213037   4.906   5.775   2.731
 4358TIP3    H113038   4.851   5.712   2.684
 4358TIP3    H213039   4.846   5.818   2.792
 4359TIP3   OH213040   6.183   6.280   0.506
 4359TIP3    H113041   6.090   6.302   0.509
 4359TIP3    H213042   6.185   6.185   0.517
 4360TIP3   OH213043   1.226   3.651   1.259
 4360TIP3    H113044   1.209   3.742   1.283
 4360TIP3    H213045   1.212   3.647   1.165
 4361TIP3   OH213046   2.005   2.274   1.903
 4361TIP3    H113047   1.957   2.323   1.836
 4361TIP3    H213048   2.013   2.335   1.977
 4362TIP3   OH213049   4.408   3.931   1.177
 4362TIP3    H113050   4.353   3.876   1.121
 4362TIP3    H213051   4.350   4.001   1.206
 4363TIP3   OH213052   1.936   4.455   5.153
 4363TIP3    H113053   1.980   4.382   5.109
 4363TIP3    H213054   1.874   4.414   5.213
 4364TIP3   OH213055   4.327   5.540   1.564
 4364TIP3    H113056   4.309   5.467   1.623
 4364TIP3    H213057   4.368   5.606   1.619
 4365TIP3   OH213058   2.398   3.690   4.449
 4365TIP3    H113059   2.342   3.669   4.374
 4365TIP3    H213060   2.382   3.619   4.511
 4366TIP3   OH213061   5.835   2.156   2.147
 4366TIP3    H113062   5.828   2.245   2.112
 4366TIP3    H213063   5.784   2.159   2.228
 4367TIP3   OH213064   4.773   1.995   5.377
 4367TIP3    H113065   4.715   1.994   5.300
 4367TIP3    H213066   4.715   2.012   5.451
 4368TIP3   OH213067   5.905   4.973   2.811
 4368TIP3    H113068   5.837   4.964   2.878
 4368TIP3    H213069   5.979   4.924   2.847
 4369TIP3   OH213070   2.229   6.001   3.932
 4369TIP3    H113071   2.188   6.055   3.864
 4369TIP3    H213072   2.173   5.924   3.939
 4370TIP3   OH213073   4.928   6.815   1.827
 4370TIP3    H113074   4.961   6.904   1.841
 4370TIP3    H213075   4.958   6.793   1.739
 4371TIP3   OH213076   1.739   5.044   0.194
 4371TIP3    H113077   1.811   5.026   0.255
 4371TIP3    H213078   1.661   5.049   0.249
 4372TIP3   OH213079   3.513   4.579   3.168
 4372TIP3    H113080   3.507   4.494   3.125
 4372TIP3    H213081   3.505   4.642   3.097
 4373TIP3   OH213082   0.234   5.784   0.721
 4373TIP3    H113083   0.324   5.780   0.689
 4373TIP3    H213084   0.206   5.873   0.702
 4374TIP3   OH213085   6.508   2.707   1.051
 4374TIP3    H113086   6.553   2.623   1.046
 4374TIP3    H213087   6.420   2.686   1.084
 4375TIP3   OH213088   5.881   4.000   0.760
 4375TIP3    H113089   5.786   3.991   0.752
 4375TIP3    H213090   5.917   3.931   0.705
 4376TIP3   OH213091   6.809   1.854   0.984
 4376TIP3    H113092   6.773   1.841   0.896
 4376TIP3    H213093   6.879   1.918   0.971
 4377TIP3   OH213094   5.720   3.606   1.404
 4377TIP3    H113095   5.794   3.657   1.436
 4377TIP3    H213096   5.643   3.662   1.420
 4378TIP3   OH213097   1.044   3.584   2.734
 4378TIP3    H113098   0.985   3.537   2.674
 4378TIP3    H213099   0.989   3.649   2.776
 4379TIP3   OH213100   5.468   3.568   3.739
 4379TIP3    H113101   5.510   3.648   3.769
 4379TIP3    H213102   5.374   3.589   3.736
 4380TIP3   OH213103   4.751   0.312   2.334
 4380TIP3    H113104   4.841   0.281   2.326
 4380TIP3    H213105   4.720   0.323   2.244
 4381TIP3   OH213106   6.438   0.227   5.108
 4381TIP3    H113107   6.495   0.284   5.160
 4381TIP3    H213108   6.357   0.220   5.159
 4382TIP3   OH213109   1.605   2.229   1.839
 4382TIP3    H113110   1.523   2.273   1.817
 4382TIP3    H213111   1.662   2.247   1.764
 4383TIP3   OH213112   0.255   1.425   4.558
 4383TIP3    H113113   0.307   1.452   4.482
 4383TIP3    H213114   0.287   1.479   4.630
 4384TIP3   OH213115   0.969   3.944   3.525
 4384TIP3    H113116   0.886   3.991   3.535
 4384TIP3    H213117   1.036   4.011   3.532
 4385TIP3   OH213118   7.130   5.051   1.296
 4385TIP3    H113119   7.155   5.143   1.308
 4385TIP3    H213120   7.102   5.021   1.382
 4386TIP3   OH213121   3.898   6.538   0.747
 4386TIP3    H113122   3.960   6.466   0.748
 4386TIP3    H213123   3.812   6.496   0.740
 4387TIP3   OH213124   0.625   5.008   2.891
 4387TIP3    H113125   0.611   4.976   2.802
 4387TIP3    H213126   0.539   5.036   2.921
 4388TIP3   OH213127   6.975   4.525   2.555
 4388TIP3    H113128   7.049   4.467   2.532
 4388TIP3    H213129   7.008   4.613   2.539
 4389TIP3   OH213130   0.438   1.517   0.202
 4389TIP3    H113131   0.497   1.563   0.142
 4389TIP3    H213132   0.350   1.540   0.172
 4390TIP3   OH213133   5.304   0.748   1.129
 4390TIP3    H113134   5.314   0.834   1.089
 4390TIP3    H213135   5.271   0.766   1.217
 4391TIP3   OH213136   0.575   1.632   2.886
 4391TIP3    H113137   0.583   1.601   2.796
 4391TIP3    H213138   0.512   1.703   2.881
 4392TIP3   OH213139   2.751   2.379   2.350
 4392TIP3    H113140   2.775   2.303   2.297
 4392TIP3    H213141   2.788   2.454   2.303
 4393TIP3   OH213142   3.209   6.179   1.153
 4393TIP3    H113143   3.160   6.154   1.074
 4393TIP3    H213144   3.165   6.258   1.184
 4394TIP3   OH213145   2.085   6.792   4.975
 4394TIP3    H113146   2.053   6.797   4.885
 4394TIP3    H213147   2.008   6.769   5.027
 4395TIP3   OH213148   6.469   0.033   1.919
 4395TIP3    H113149   6.429   0.033   2.006
 4395TIP3    H213150   6.511  -0.053   1.911
 4396TIP3   OH213151   6.160   0.854   1.329
 4396TIP3    H113152   6.216   0.929   1.346
 4396TIP3    H213153   6.167   0.840   1.234
 4397TIP3   OH213154   3.296   0.403   3.825
 4397TIP3    H113155   3.273   0.477   3.882
 4397TIP3    H213156   3.327   0.336   3.885
 4398TIP3   OH213157   6.733   0.397   5.723
 4398TIP3    H113158   6.822   0.420   5.696
 4398TIP3    H213159   6.721   0.307   5.693
 4399TIP3   OH213160   4.533   4.537   4.364
 4399TIP3    H113161   4.585   4.540   4.283
 4399TIP3    H213162   4.442   4.528   4.334
 4400TIP3   OH213163   4.088   3.719   4.034
 4400TIP3    H113164   4.015   3.661   4.057
 4400TIP3    H213165   4.115   3.757   4.118
 4401TIP3   OH213166   0.984   1.559   1.725
 4401TIP3    H113167   0.914   1.614   1.690
 4401TIP3    H213168   1.050   1.556   1.656
 4402TIP3   OH213169   5.202   0.600   4.877
 4402TIP3    H113170   5.220   0.515   4.917
 4402TIP3    H213171   5.204   0.583   4.783
 4403TIP3   OH213172   0.654   1.827   1.154
 4403TIP3    H113173   0.715   1.784   1.213
 4403TIP3    H213174   0.705   1.898   1.113
 4404TIP3   OH213175   1.852   0.570   4.469
 4404TIP3    H113176   1.758   0.549   4.467
 4404TIP3    H213177   1.859   0.642   4.531
 4405TIP3   OH213178   1.806   4.309   5.391
 4405TIP3    H113179   1.785   4.243   5.457
 4405TIP3    H213180   1.856   4.375   5.439
 4406TIP3   OH213181   3.932   5.772   1.134
 4406TIP3    H113182   3.837   5.780   1.145
 4406TIP3    H213183   3.951   5.822   1.054
 4407TIP3   OH213184   5.820   3.806   2.035
 4407TIP3    H113185   5.836   3.863   2.110
 4407TIP3    H213186   5.729   3.823   2.012
 4408TIP3   OH213187   0.401   3.433   2.143
 4408TIP3    H113188   0.387   3.510   2.199
 4408TIP3    H213189   0.362   3.361   2.191
 4409TIP3   OH213190   6.537   6.487   4.923
 4409TIP3    H113191   6.480   6.431   4.975
 4409TIP3    H213192   6.624   6.446   4.931
 4410TIP3   OH213193   1.706   0.186   3.700
 4410TIP3    H113194   1.639   0.126   3.732
 4410TIP3    H213195   1.665   0.272   3.702
 4411TIP3   OH213196   5.844   0.652   0.955
 4411TIP3    H113197   5.851   0.714   1.028
 4411TIP3    H213198   5.829   0.707   0.878
 4412TIP3   OH213199   2.142   0.889   1.691
 4412TIP3    H113200   2.116   0.797   1.678
 4412TIP3    H213201   2.209   0.885   1.759
 4413TIP3   OH213202   4.876   3.659   2.130
 4413TIP3    H113203   4.815   3.645   2.058
 4413TIP3    H213204   4.909   3.748   2.117
 4414TIP3   OH213205   0.401   3.180   3.042
 4414TIP3    H113206   0.433   3.260   3.002
 4414TIP3    H213207   0.379   3.205   3.132
 4415TIP3   OH213208   0.721   4.418   3.239
 4415TIP3    H113209   0.675   4.336   3.254
 4415TIP3    H213210   0.754   4.411   3.149
 4416TIP3   OH213211   6.190   1.308   5.132
 4416TIP3    H113212   6.274   1.307   5.178
 4416TIP3    H213213   6.132   1.254   5.186
 4417TIP3   OH213214   6.979   3.666   0.462
 4417TIP3    H113215   7.054   3.636   0.411
 4417TIP3    H213216   6.960   3.753   0.429
 4418TIP3   OH213217   6.677   2.363   2.912
 4418TIP3    H113218   6.643   2.447   2.943
 4418TIP3    H213219   6.619   2.297   2.949
 4419TIP3   OH213220   2.463   5.716   0.208
 4419TIP3    H113221   2.414   5.663   0.145
 4419TIP3    H213222   2.504   5.785   0.155
 4420TIP3   OH213223   0.417   1.231   0.238
 4420TIP3    H113224   0.406   1.212   0.331
 4420TIP3    H213225   0.452   1.320   0.236
 4421TIP3   OH213226   5.391   3.632   1.177
 4421TIP3    H113227   5.446   3.613   1.102
 4421TIP3    H213228   5.377   3.727   1.174
 4422TIP3   OH213229   6.313   1.823   5.658
 4422TIP3    H113230   6.379   1.754   5.657
 4422TIP3    H213231   6.308   1.850   5.750
 4423TIP3   OH213232   5.486   2.703   3.297
 4423TIP3    H113233   5.450   2.626   3.253
 4423TIP3    H213234   5.488   2.771   3.230
 4424TIP3   OH213235   5.881   0.668   4.426
 4424TIP3    H113236   5.797   0.665   4.382
 4424TIP3    H213237   5.945   0.663   4.355
 4425TIP3   OH213238   1.744   0.431   3.235
 4425TIP3    H113239   1.707   0.519   3.234
 4425TIP3    H213240   1.795   0.427   3.315
 4426TIP3   OH213241   1.633   3.977   0.180
 4426TIP3    H113242   1.609   3.927   0.102
 4426TIP3    H213243   1.605   3.923   0.253
 4427TIP3   OH213244   3.650   6.003   5.827
 4427TIP3    H113245   3.621   6.094   5.832
 4427TIP3    H213246   3.740   6.008   5.795
 4428TIP3   OH213247   2.414   1.016   1.534
 4428TIP3    H113248   2.396   0.996   1.443
 4428TIP3    H213249   2.426   0.931   1.576
 4429TIP3   OH213250   5.752   1.791   5.700
 4429TIP3    H113251   5.829   1.821   5.651
 4429TIP3    H213252   5.738   1.701   5.671
 4430TIP3   OH213253   3.532   0.064   2.245
 4430TIP3    H113254   3.605   0.004   2.259
 4430TIP3    H213255   3.454   0.011   2.258
 4431TIP3   OH213256   1.857   4.195   1.395
 4431TIP3    H113257   1.855   4.102   1.371
 4431TIP3    H213258   1.864   4.242   1.312
 4432TIP3   OH213259   2.717   0.550   4.012
 4432TIP3    H113260   2.812   0.553   4.004
 4432TIP3    H213261   2.698   0.459   4.036
 4433TIP3   OH213262   6.071   4.433   1.522
 4433TIP3    H113263   6.092   4.507   1.579
 4433TIP3    H213264   6.047   4.473   1.438
 4434TIP3   OH213265   6.219   6.182   3.056
 4434TIP3    H113266   6.274   6.124   3.003
 4434TIP3    H213267   6.140   6.130   3.072
 4435TIP3   OH213268   0.290   5.907   3.402
 4435TIP3    H113269   0.354   5.868   3.343
 4435TIP3    H213270   0.209   5.860   3.385
 4436TIP3   OH213271   1.530   4.920   4.471
 4436TIP3    H113272   1.490   4.884   4.550
 4436TIP3    H213273   1.522   4.850   4.406
 4437TIP3   OH213274   1.628   2.756   4.476
 4437TIP3    H113275   1.538   2.725   4.481
 4437TIP3    H213276   1.672   2.715   4.550
 4438TIP3   OH213277   2.271   6.480   5.646
 4438TIP3    H113278   2.284   6.497   5.739
 4438TIP3    H213279   2.176   6.470   5.637
 4439TIP3   OH213280   3.599   5.124   3.155
 4439TIP3    H113281   3.567   5.096   3.241
 4439TIP3    H213282   3.641   5.046   3.120
 4440TIP3   OH213283   4.076   5.522   1.160
 4440TIP3    H113284   4.026   5.603   1.166
 4440TIP3    H213285   4.134   5.525   1.236
 4441TIP3   OH213286   2.528   2.545   0.047
 4441TIP3    H113287   2.579   2.464   0.033
 4441TIP3    H213288   2.593   2.608   0.078
 4442TIP3   OH213289   6.530   5.199   3.201
 4442TIP3    H113290   6.602   5.250   3.164
 4442TIP3    H213291   6.551   5.108   3.180
 4443TIP3   OH213292   4.756   0.904   0.875
 4443TIP3    H113293   4.754   0.990   0.833
 4443TIP3    H213294   4.702   0.849   0.820
 4444TIP3   OH213295   3.380   3.181   0.738
 4444TIP3    H113296   3.338   3.254   0.693
 4444TIP3    H213297   3.403   3.215   0.824
 4445TIP3   OH213298   0.383   4.333   4.721
 4445TIP3    H113299   0.470   4.371   4.729
 4445TIP3    H213300   0.327   4.407   4.696
 4446TIP3   OH213301  -0.038   0.752   5.554
 4446TIP3    H113302   0.022   0.713   5.618
 4446TIP3    H213303  -0.020   0.705   5.472
 4447TIP3   OH213304   2.888   2.595   4.846
 4447TIP3    H113305   2.879   2.511   4.890
 4447TIP3    H213306   2.952   2.644   4.898
 4448TIP3   OH213307   4.207   5.932   1.013
 4448TIP3    H113308   4.113   5.915   1.015
 4448TIP3    H213309   4.215   6.025   1.033
 4449TIP3   OH213310   2.792   5.951   0.099
 4449TIP3    H113311   2.702   5.947   0.131
 4449TIP3    H213312   2.839   6.003   0.165
 4450TIP3   OH213313   2.123   1.584   3.442
 4450TIP3    H113314   2.136   1.678   3.427
 4450TIP3    H213315   2.180   1.564   3.516
 4451TIP3   OH213316   4.722   1.728   1.803
 4451TIP3    H113317   4.799   1.751   1.854
 4451TIP3    H213318   4.693   1.811   1.764
 4452TIP3   OH213319   5.232   6.197   5.010
 4452TIP3    H113320   5.142   6.199   4.976
 4452TIP3    H213321   5.284   6.165   4.937
 4453TIP3   OH213322   5.190   1.141   0.441
 4453TIP3    H113323   5.148   1.226   0.428
 4453TIP3    H213324   5.184   1.125   0.535
 4454TIP3   OH213325   3.992   4.914   1.248
 4454TIP3    H113326   3.980   4.859   1.171
 4454TIP3    H213327   4.080   4.949   1.240
 4455TIP3   OH213328   6.447   1.261   5.769
 4455TIP3    H113329   6.420   1.314   5.844
 4455TIP3    H213330   6.374   1.203   5.752
 4456TIP3   OH213331   6.415   1.656   0.276
 4456TIP3    H113332   6.368   1.639   0.358
 4456TIP3    H213333   6.462   1.575   0.258
 4457TIP3   OH213334   0.112   0.787   3.064
 4457TIP3    H113335   0.094   0.864   3.118
 4457TIP3    H213336   0.064   0.716   3.107
 4458TIP3   OH213337   5.573   1.636   2.233
 4458TIP3    H113338   5.482   1.642   2.261
 4458TIP3    H213339   5.606   1.556   2.275
 4459TIP3   OH213340   3.546   6.813   3.628
 4459TIP3    H113341   3.467   6.821   3.574
 4459TIP3    H213342   3.535   6.730   3.674
 4460TIP3   OH213343   3.417   3.099   2.590
 4460TIP3    H113344   3.497   3.100   2.642
 4460TIP3    H213345   3.384   3.009   2.599
 4461TIP3   OH213346   1.886   3.718   5.743
 4461TIP3    H113347   1.970   3.748   5.708
 4461TIP3    H213348   1.821   3.749   5.681
 4462TIP3   OH213349   0.069   3.238   2.039
 4462TIP3    H113350   0.090   3.201   2.125
 4462TIP3    H213351  -0.015   3.282   2.053
 4463TIP3   OH213352   6.685   4.198   1.419
 4463TIP3    H113353   6.599   4.237   1.406
 4463TIP3    H213354   6.745   4.273   1.421
 4464TIP3   OH213355   4.165   6.628   3.756
 4464TIP3    H113356   4.173   6.723   3.749
 4464TIP3    H213357   4.246   6.594   3.718
 4465TIP3   OH213358   5.351   0.712   4.541
 4465TIP3    H113359   5.297   0.640   4.508
 4465TIP3    H213360   5.441   0.687   4.518
 4466TIP3   OH213361   5.023   6.428   5.182
 4466TIP3    H113362   4.945   6.422   5.127
 4466TIP3    H213363   5.080   6.489   5.134
 4467TIP3   OH213364   1.263   1.580   4.277
 4467TIP3    H113365   1.272   1.485   4.277
 4467TIP3    H213366   1.192   1.598   4.339
 4468TIP3   OH213367   0.186   6.414   4.219
 4468TIP3    H113368   0.140   6.417   4.302
 4468TIP3    H213369   0.135   6.471   4.161
 4469TIP3   OH213370   4.773   1.146   1.633
 4469TIP3    H113371   4.757   1.172   1.723
 4469TIP3    H213372   4.713   1.198   1.581
 4470TIP3   OH213373   1.677   6.777   1.733
 4470TIP3    H113374   1.627   6.728   1.798
 4470TIP3    H213375   1.677   6.867   1.765
 4471TIP3   OH213376   3.241   5.545   4.792
 4471TIP3    H113377   3.279   5.462   4.762
 4471TIP3    H213378   3.311   5.587   4.840
 4472TIP3   OH213379   2.047   0.743   3.412
 4472TIP3    H113380   2.026   0.658   3.452
 4472TIP3    H213381   2.140   0.756   3.432
 4473TIP3   OH213382   4.923   5.802   1.056
 4473TIP3    H113383   4.998   5.821   1.000
 4473TIP3    H213384   4.850   5.850   1.017
 4474TIP3   OH213385   1.376   4.859   4.172
 4474TIP3    H113386   1.329   4.778   4.153
 4474TIP3    H213387   1.309   4.928   4.169
 4475TIP3   OH213388   0.608   5.448   4.549
 4475TIP3    H113389   0.642   5.535   4.568
 4475TIP3    H213390   0.615   5.439   4.454
 4476TIP3   OH213391   6.878   3.449   1.792
 4476TIP3    H113392   6.812   3.518   1.807
 4476TIP3    H213393   6.868   3.426   1.700
 4477TIP3   OH213394   6.366   0.429   2.957
 4477TIP3    H113395   6.403   0.517   2.955
 4477TIP3    H213396   6.342   0.416   3.049
 4478TIP3   OH213397   4.971   5.533   1.175
 4478TIP3    H113398   4.885   5.535   1.216
 4478TIP3    H213399   4.969   5.602   1.109
 4479TIP3   OH213400   2.693   3.563   5.806
 4479TIP3    H113401   2.727   3.479   5.774
 4479TIP3    H213402   2.677   3.614   5.726
 4480TIP3   OH213403   4.499   4.280   1.418
 4480TIP3    H113404   4.428   4.260   1.357
 4480TIP3    H213405   4.498   4.207   1.480
 4481TIP3   OH213406   1.219   2.706   5.666
 4481TIP3    H113407   1.163   2.775   5.702
 4481TIP3    H213408   1.185   2.626   5.706
 4482TIP3   OH213409   4.795   5.617   4.321
 4482TIP3    H113410   4.757   5.668   4.250
 4482TIP3    H213411   4.740   5.539   4.327
 4483TIP3   OH213412   3.292   2.220   1.917
 4483TIP3    H113413   3.356   2.223   1.846
 4483TIP3    H213414   3.344   2.214   1.997
 4484TIP3   OH213415   3.133   0.250   0.770
 4484TIP3    H113416   3.091   0.335   0.759
 4484TIP3    H213417   3.074   0.201   0.826
 4485TIP3   OH213418   6.503   4.980   3.752
 4485TIP3    H113419   6.435   5.018   3.696
 4485TIP3    H213420   6.490   4.885   3.744
 4486TIP3   OH213421   2.123   4.337   0.562
 4486TIP3    H113422   2.045   4.289   0.590
 4486TIP3    H213423   2.148   4.388   0.639
 4487TIP3   OH213424   6.172   2.451   4.317
 4487TIP3    H113425   6.235   2.441   4.245
 4487TIP3    H213426   6.176   2.544   4.339
 4488TIP3   OH213427   2.044   4.131   0.749
 4488TIP3    H113428   2.136   4.106   0.760
 4488TIP3    H213429   1.999   4.048   0.731
 4489TIP3   OH213430   4.543   1.372   2.362
 4489TIP3    H113431   4.450   1.386   2.377
 4489TIP3    H213432   4.578   1.459   2.343
 4490TIP3   OH213433   6.881   3.036   2.472
 4490TIP3    H113434   6.945   2.979   2.430
 4490TIP3    H213435   6.900   3.031   2.565
 4491TIP3   OH213436   0.094   1.563   4.918
 4491TIP3    H113437   0.065   1.550   5.008
 4491TIP3    H213438   0.153   1.491   4.900
 4492TIP3   OH213439   4.894   1.625   2.315
 4492TIP3    H113440   4.798   1.622   2.318
 4492TIP3    H213441   4.915   1.716   2.336
 4493TIP3   OH213442   2.097   0.587   1.140
 4493TIP3    H113443   2.097   0.648   1.213
 4493TIP3    H213444   2.008   0.550   1.139
 4494TIP3   OH213445   4.441   6.059   0.031
 4494TIP3    H113446   4.387   6.036   0.107
 4494TIP3    H213447   4.510   6.114   0.067
 4495TIP3   OH213448   1.671   5.755   4.985
 4495TIP3    H113449   1.639   5.840   5.015
 4495TIP3    H213450   1.616   5.691   5.030
 4496TIP3   OH213451   1.122   4.826   3.264
 4496TIP3    H113452   1.143   4.920   3.261
 4496TIP3    H213453   1.166   4.795   3.344
 4497TIP3   OH213454   2.971   3.973   3.276
 4497TIP3    H113455   2.969   3.991   3.370
 4497TIP3    H213456   2.936   3.884   3.268
 4498TIP3   OH213457   3.913   3.036   0.824
 4498TIP3    H113458   3.919   2.975   0.897
 4498TIP3    H213459   3.822   3.066   0.825
 4499TIP3   OH213460   2.817   3.382   5.327
 4499TIP3    H113461   2.795   3.379   5.234
 4499TIP3    H213462   2.836   3.291   5.350
 4500TIP3   OH213463   2.881   0.738   3.314
 4500TIP3    H113464   2.942   0.804   3.345
 4500TIP3    H213465   2.928   0.655   3.324
 4501TIP3   OH213466   5.726   0.754   3.337
 4501TIP3    H113467   5.700   0.722   3.424
 4501TIP3    H213468   5.647   0.797   3.304
 4502TIP3   OH213469   5.247   4.145   0.125
 4502TIP3    H113470   5.258   4.053   0.149
 4502TIP3    H213471   5.335   4.183   0.136
 4503TIP3   OH213472   3.084   5.328   1.925
 4503TIP3    H113473   3.092   5.374   1.841
 4503TIP3    H213474   3.044   5.392   1.984
 4504TIP3   OH213475   3.703   2.976   5.226
 4504TIP3    H113476   3.758   3.041   5.183
 4504TIP3    H213477   3.625   2.969   5.172
 4505TIP3   OH213478   7.185   2.001   5.285
 4505TIP3    H113479   7.214   1.915   5.315
 4505TIP3    H213480   7.264   2.041   5.249
 4506TIP3   OH213481   5.474   4.718   1.528
 4506TIP3    H113482   5.550   4.722   1.470
 4506TIP3    H213483   5.499   4.656   1.596
 4507TIP3   OH213484   6.716   4.493   2.404
 4507TIP3    H113485   6.798   4.506   2.452
 4507TIP3    H213486   6.689   4.581   2.377
 4508TIP3   OH213487   3.427   2.653   5.622
 4508TIP3    H113488   3.409   2.670   5.714
 4508TIP3    H213489   3.472   2.732   5.591
 4509TIP3   OH213490   5.204   5.188   5.533
 4509TIP3    H113491   5.192   5.283   5.534
 4509TIP3    H213492   5.247   5.171   5.449
 4510TIP3   OH213493   3.697   2.874   1.983
 4510TIP3    H113494   3.779   2.922   1.972
 4510TIP3    H213495   3.629   2.940   1.976
 4511TIP3   OH213496   3.146   5.747   1.348
 4511TIP3    H113497   3.200   5.802   1.403
 4511TIP3    H213498   3.205   5.717   1.278
 4512TIP3   OH213499   6.379   0.013   3.937
 4512TIP3    H113500   6.336   0.038   3.855
 4512TIP3    H213501   6.308  -0.020   3.992
 4513TIP3   OH213502   6.672   4.461   0.559
 4513TIP3    H113503   6.631   4.534   0.511
 4513TIP3    H213504   6.743   4.432   0.502
 4514TIP3   OH213505   2.890   1.868   4.281
 4514TIP3    H113506   2.804   1.883   4.242
 4514TIP3    H213507   2.880   1.786   4.330
 4515TIP3   OH213508   3.564   5.179   5.459
 4515TIP3    H113509   3.499   5.247   5.479
 4515TIP3    H213510   3.634   5.192   5.523
 4516TIP3   OH213511   5.973   2.097   1.235
 4516TIP3    H113512   5.920   2.026   1.273
 4516TIP3    H213513   5.939   2.177   1.275
 4517TIP3   OH213514   3.179   3.189   2.892
 4517TIP3    H113515   3.153   3.281   2.889
 4517TIP3    H213516   3.160   3.156   2.804
 4518TIP3   OH213517   5.577   0.289   0.212
 4518TIP3    H113518   5.657   0.288   0.264
 4518TIP3    H213519   5.532   0.208   0.236
 4519TIP3   OH213520   3.243   3.855   2.657
 4519TIP3    H113521   3.162   3.806   2.644
 4519TIP3    H213522   3.216   3.947   2.654
 4520TIP3   OH213523   6.563   6.274   0.047
 4520TIP3    H113524   6.624   6.215   0.004
 4520TIP3    H213525   6.615   6.319   0.114
 4521TIP3   OH213526   2.756   2.648   2.199
 4521TIP3    H113527   2.680   2.660   2.141
 4521TIP3    H213528   2.722   2.668   2.286
 4522TIP3   OH213529   1.839   5.779   2.513
 4522TIP3    H113530   1.851   5.761   2.419
 4522TIP3    H213531   1.924   5.758   2.552
 4523TIP3   OH213532   2.894   3.511   0.663
 4523TIP3    H113533   2.804   3.536   0.643
 4523TIP3    H213534   2.947   3.561   0.602
 4524TIP3   OH213535   4.900   0.991   5.329
 4524TIP3    H113536   4.910   1.008   5.235
 4524TIP3    H213537   4.901   0.896   5.336
 4525TIP3   OH213538   3.450   3.867   2.144
 4525TIP3    H113539   3.536   3.827   2.153
 4525TIP3    H213540   3.466   3.952   2.105
 4526TIP3   OH213541   3.655   5.524   1.271
 4526TIP3    H113542   3.575   5.472   1.263
 4526TIP3    H213543   3.651   5.587   1.199
 4527TIP3   OH213544   1.965   3.089   2.720
 4527TIP3    H113545   1.923   3.166   2.682
 4527TIP3    H213546   2.024   3.058   2.652
 4528TIP3   OH213547   5.052   5.575   3.966
 4528TIP3    H113548   5.038   5.487   4.002
 4528TIP3    H213549   5.071   5.560   3.873
 4529TIP3   OH213550   5.399   0.813   0.084
 4529TIP3    H113551   5.359   0.730   0.062
 4529TIP3    H213552   5.343   0.850   0.152
 4530TIP3   OH213553   2.448   3.207   5.734
 4530TIP3    H113554   2.390   3.194   5.659
 4530TIP3    H213555   2.536   3.202   5.697
 4531TIP3   OH213556   2.644   3.296   0.997
 4531TIP3    H113557   2.722   3.351   0.988
 4531TIP3    H213558   2.677   3.214   1.036
 4532TIP3   OH213559   1.412   5.115   1.717
 4532TIP3    H113560   1.379   5.201   1.691
 4532TIP3    H213561   1.337   5.057   1.707
 4533TIP3   OH213562   5.961   3.839   2.760
 4533TIP3    H113563   6.033   3.814   2.702
 4533TIP3    H213564   5.948   3.763   2.817
 4534TIP3   OH213565   6.613   2.951   1.099
 4534TIP3    H113566   6.704   2.924   1.110
 4534TIP3    H213567   6.564   2.869   1.090
 4535TIP3   OH213568   2.165   3.801   3.771
 4535TIP3    H113569   2.202   3.831   3.688
 4535TIP3    H213570   2.085   3.753   3.746
 4536TIP3   OH213571   2.357   4.004   1.165
 4536TIP3    H113572   2.294   4.073   1.149
 4536TIP3    H213573   2.428   4.046   1.214
 4537TIP3   OH213574   6.184   6.696   3.338
 4537TIP3    H113575   6.158   6.765   3.278
 4537TIP3    H213576   6.187   6.617   3.284
 4538TIP3   OH213577   5.380   6.453   2.771
 4538TIP3    H113578   5.337   6.437   2.855
 4538TIP3    H213579   5.405   6.366   2.740
 4539TIP3   OH213580   5.397   1.192   5.191
 4539TIP3    H113581   5.326   1.203   5.127
 4539TIP3    H213582   5.475   1.177   5.139
 4540TIP3   OH213583   4.501   4.254   0.907
 4540TIP3    H113584   4.519   4.263   0.813
 4540TIP3    H213585   4.436   4.184   0.913
 4541TIP3   OH213586   4.662   5.449   0.026
 4541TIP3    H113587   4.741   5.445   0.081
 4541TIP3    H213588   4.601   5.503   0.076
 4542TIP3   OH213589   5.929   5.373   1.326
 4542TIP3    H113590   6.017   5.339   1.336
 4542TIP3    H213591   5.910   5.365   1.232
 4543TIP3   OH213592   6.789   0.757   5.744
 4543TIP3    H113593   6.773   0.829   5.683
 4543TIP3    H213594   6.852   0.701   5.699
 4544TIP3   OH213595   5.063   2.367   2.125
 4544TIP3    H113596   5.119   2.378   2.202
 4544TIP3    H213597   5.113   2.405   2.053
 4545TIP3   OH213598   7.231   0.134   0.265
 4545TIP3    H113599   7.154   0.176   0.303
 4545TIP3    H213600   7.211   0.127   0.172
 4546TIP3   OH213601   6.405   1.185   4.949
 4546TIP3    H113602   6.475   1.139   4.995
 4546TIP3    H213603   6.325   1.151   4.989
 4547TIP3   OH213604   2.156   3.789   1.696
 4547TIP3    H113605   2.085   3.727   1.710
 4547TIP3    H213606   2.186   3.813   1.784
 4548TIP3   OH213607   6.557   5.780   2.755
 4548TIP3    H113608   6.505   5.772   2.835
 4548TIP3    H213609   6.635   5.727   2.771
 4549TIP3   OH213610   0.821   0.548   5.455
 4549TIP3    H113611   0.773   0.556   5.373
 4549TIP3    H213612   0.904   0.592   5.438
 4550TIP3   OH213613   1.517   4.106   5.854
 4550TIP3    H113614   1.541   4.156   5.776
 4550TIP3    H213615   1.510   4.016   5.824
 4551TIP3   OH213616   1.987   3.154   5.689
 4551TIP3    H113617   2.062   3.147   5.749
 4551TIP3    H213618   1.983   3.247   5.667
 4552TIP3   OH213619   1.294   3.484   2.188
 4552TIP3    H113620   1.371   3.427   2.187
 4552TIP3    H213621   1.318   3.556   2.246
 4553TIP3   OH213622   1.734   3.397   3.527
 4553TIP3    H113623   1.643   3.383   3.553
 4553TIP3    H213624   1.730   3.476   3.472
 4554TIP3   OH213625   4.138   5.215   2.735
 4554TIP3    H113626   4.229   5.239   2.719
 4554TIP3    H213627   4.088   5.295   2.714
 4555TIP3   OH213628   6.816   5.994   2.734
 4555TIP3    H113629   6.811   6.018   2.827
 4555TIP3    H213630   6.829   5.900   2.734
 4556TIP3   OH213631   6.246   3.833   5.433
 4556TIP3    H113632   6.263   3.835   5.528
 4556TIP3    H213633   6.220   3.743   5.416
 4557TIP3   OH213634   5.484   6.470   1.950
 4557TIP3    H113635   5.438   6.424   2.021
 4557TIP3    H213636   5.573   6.435   1.953
 4558TIP3   OH213637   3.315  -0.024   1.150
 4558TIP3    H113638   3.376  -0.001   1.079
 4558TIP3    H213639   3.271   0.059   1.171
 4559TIP3   OH213640   2.392   5.501   5.690
 4559TIP3    H113641   2.340   5.436   5.737
 4559TIP3    H213642   2.407   5.463   5.603
 4560TIP3   OH213643   0.471   1.259   5.322
 4560TIP3    H113644   0.511   1.344   5.342
 4560TIP3    H213645   0.533   1.195   5.359
 4561TIP3   OH213646   1.164   3.782   1.983
 4561TIP3    H113647   1.252   3.809   1.958
 4561TIP3    H213648   1.124   3.751   1.902
 4562TIP3   OH213649   6.029   2.578   4.942
 4562TIP3    H113650   6.073   2.499   4.973
 4562TIP3    H213651   6.031   2.571   4.847
 4563TIP3   OH213652   2.866   3.645   4.020
 4563TIP3    H113653   2.868   3.636   4.116
 4563TIP3    H213654   2.853   3.555   3.989
 4564TIP3   OH213655   7.030   1.642   4.905
 4564TIP3    H113656   7.109   1.640   4.958
 4564TIP3    H213657   6.961   1.670   4.966
 4565TIP3   OH213658   0.105   4.776   5.820
 4565TIP3    H113659   0.125   4.816   5.736
 4565TIP3    H213660   0.161   4.823   5.883
 4566TIP3   OH213661   2.196   6.207   0.374
 4566TIP3    H113662   2.208   6.242   0.285
 4566TIP3    H213663   2.206   6.113   0.364
 4567TIP3   OH213664   0.056   6.017   4.059
 4567TIP3    H113665   0.016   5.956   4.120
 4567TIP3    H213666  -0.016   6.047   4.004
 4568TIP3   OH213667   6.835   2.614   2.371
 4568TIP3    H113668   6.761   2.585   2.424
 4568TIP3    H213669   6.817   2.577   2.284
 4569TIP3   OH213670   0.629   5.044   3.967
 4569TIP3    H113671   0.608   4.960   4.008
 4569TIP3    H213672   0.702   5.078   4.019
 4570TIP3   OH213673   0.990   3.277   5.439
 4570TIP3    H113674   0.930   3.352   5.435
 4570TIP3    H213675   1.075   3.313   5.413
 4571TIP3   OH213676   7.017   4.221   0.604
 4571TIP3    H113677   7.004   4.265   0.688
 4571TIP3    H213678   6.949   4.259   0.547
 4572TIP3   OH213679   5.870   0.007   1.651
 4572TIP3    H113680   5.831  -0.070   1.609
 4572TIP3    H213681   5.808   0.029   1.721
 4573TIP3   OH213682   6.066   1.102   5.269
 4573TIP3    H113683   6.156   1.074   5.254
 4573TIP3    H213684   6.041   1.059   5.351
 4574TIP3   OH213685   6.670   5.484   3.953
 4574TIP3    H113686   6.694   5.501   4.044
 4574TIP3    H213687   6.754   5.474   3.908
 4575TIP3   OH213688   0.202   3.638   2.952
 4575TIP3    H113689   0.157   3.556   2.930
 4575TIP3    H213690   0.184   3.651   3.045
 4576TIP3   OH213691   0.290   5.872   0.362
 4576TIP3    H113692   0.304   5.941   0.297
 4576TIP3    H213693   0.344   5.899   0.437
 4577TIP3   OH213694   5.081   2.301   4.048
 4577TIP3    H113695   5.166   2.341   4.031
 4577TIP3    H213696   5.101   2.218   4.090
 4578TIP3   OH213697   1.450   2.971   4.629
 4578TIP3    H113698   1.390   2.998   4.698
 4578TIP3    H213699   1.396   2.971   4.549
 4579TIP3   OH213700   0.993   3.879   1.593
 4579TIP3    H113701   0.964   3.899   1.504
 4579TIP3    H213702   0.988   3.784   1.599
 4580TIP3   OH213703   2.688   6.370   2.151
 4580TIP3    H113704   2.723   6.282   2.133
 4580TIP3    H213705   2.602   6.353   2.189
 4581TIP3   OH213706   3.857   1.400   1.415
 4581TIP3    H113707   3.766   1.401   1.444
 4581TIP3    H213708   3.907   1.428   1.492
 4582TIP3   OH213709   2.885   5.656   0.185
 4582TIP3    H113710   2.907   5.607   0.265
 4582TIP3    H213711   2.862   5.743   0.217
 4583TIP3   OH213712   2.102   2.699   2.218
 4583TIP3    H113713   2.099   2.657   2.304
 4583TIP3    H213714   2.189   2.738   2.214
 4584TIP3   OH213715   1.089   6.318   0.906
 4584TIP3    H113716   1.011   6.370   0.886
 4584TIP3    H213717   1.154   6.383   0.933
 4585TIP3   OH213718   3.102   2.119   1.092
 4585TIP3    H113719   3.135   2.208   1.082
 4585TIP3    H213720   3.077   2.093   1.003
 4586TIP3   OH213721   5.127   2.672   3.190
 4586TIP3    H113722   5.035   2.649   3.206
 4586TIP3    H213723   5.170   2.660   3.274
 4587TIP3   OH213724   2.627   1.593   5.643
 4587TIP3    H113725   2.580   1.666   5.604
 4587TIP3    H213726   2.565   1.554   5.704
 4588TIP3   OH213727   3.286   4.170   3.572
 4588TIP3    H113728   3.279   4.250   3.624
 4588TIP3    H213729   3.326   4.198   3.489
 4589TIP3   OH213730   5.360   1.946   1.247
 4589TIP3    H113731   5.359   1.942   1.342
 4589TIP3    H213732   5.274   1.913   1.221
 4590TIP3   OH213733   5.064   3.147   1.381
 4590TIP3    H113734   5.106   3.079   1.328
 4590TIP3    H213735   5.128   3.167   1.449
 4591TIP3   OH213736   4.505   3.362   5.168
 4591TIP3    H113737   4.464   3.297   5.225
 4591TIP3    H213738   4.463   3.349   5.083
 4592TIP3   OH213739   2.633   6.675   1.647
 4592TIP3    H113740   2.647   6.580   1.645
 4592TIP3    H213741   2.556   6.689   1.593
 4593TIP3   OH213742   4.251   5.488   3.133
 4593TIP3    H113743   4.188   5.487   3.061
 4593TIP3    H213744   4.306   5.564   3.117
 4594TIP3   OH213745   6.793   1.492   5.830
 4594TIP3    H113746   6.722   1.541   5.788
 4594TIP3    H213747   6.845   1.558   5.876
 4595TIP3   OH213748   3.172   6.398   5.840
 4595TIP3    H113749   3.226   6.339   5.893
 4595TIP3    H213750   3.114   6.340   5.791
 4596TIP3   OH213751   5.485   2.662   4.137
 4596TIP3    H113752   5.461   2.676   4.228
 4596TIP3    H213753   5.561   2.718   4.123
 4597TIP3   OH213754   2.561   0.753   5.591
 4597TIP3    H113755   2.548   0.659   5.604
 4597TIP3    H213756   2.613   0.780   5.666
 4598TIP3   OH213757   3.584   2.717   1.576
 4598TIP3    H113758   3.616   2.638   1.532
 4598TIP3    H213759   3.605   2.703   1.668
 4599TIP3   OH213760   6.181   0.638   0.272
 4599TIP3    H113761   6.277   0.638   0.263
 4599TIP3    H213762   6.149   0.633   0.182
 4600TIP3   OH213763   3.894   6.479   3.296
 4600TIP3    H113764   3.900   6.553   3.235
 4600TIP3    H213765   3.982   6.472   3.334
 4601TIP3   OH213766   5.282   2.888   2.290
 4601TIP3    H113767   5.364   2.874   2.338
 4601TIP3    H213768   5.220   2.827   2.329
 4602TIP3   OH213769   3.120   4.522   1.503
 4602TIP3    H113770   3.098   4.516   1.596
 4602TIP3    H213771   3.196   4.466   1.492
 4603TIP3   OH213772   0.420   3.354   3.989
 4603TIP3    H113773   0.440   3.304   4.068
 4603TIP3    H213774   0.476   3.432   3.994
 4604TIP3   OH213775   6.265   3.477   5.152
 4604TIP3    H113776   6.342   3.420   5.158
 4604TIP3    H213777   6.295   3.561   5.187
 4605TIP3   OH213778   5.365   5.072   0.517
 4605TIP3    H113779   5.329   4.983   0.524
 4605TIP3    H213780   5.448   5.060   0.470
 4606TIP3   OH213781   1.446   1.924   4.047
 4606TIP3    H113782   1.443   1.898   4.139
 4606TIP3    H213783   1.486   2.011   4.049
 4607TIP3   OH213784   4.128   5.206   1.442
 4607TIP3    H113785   4.184   5.219   1.366
 4607TIP3    H213786   4.068   5.281   1.441
 4608TIP3   OH213787   2.892   3.419   1.586
 4608TIP3    H113788   2.844   3.366   1.522
 4608TIP3    H213789   2.982   3.388   1.580
 4609TIP3   OH213790   2.309   4.041   3.930
 4609TIP3    H113791   2.261   4.029   3.848
 4609TIP3    H213792   2.391   3.994   3.917
 4610TIP3   OH213793   5.132   4.208   5.011
 4610TIP3    H113794   5.076   4.221   5.088
 4610TIP3    H213795   5.083   4.150   4.955
 4611TIP3   OH213796   6.920   4.745   4.804
 4611TIP3    H113797   6.915   4.726   4.898
 4611TIP3    H213798   6.959   4.832   4.800
 4612TIP3   OH213799   6.553   5.257   4.794
 4612TIP3    H113800   6.499   5.183   4.820
 4612TIP3    H213801   6.546   5.318   4.868
 4613TIP3   OH213802   2.269   1.907   4.410
 4613TIP3    H113803   2.242   1.944   4.326
 4613TIP3    H213804   2.223   1.960   4.475
 4614TIP3   OH213805   2.115   4.473   2.669
 4614TIP3    H113806   2.093   4.545   2.609
 4614TIP3    H213807   2.037   4.418   2.671
 4615TIP3   OH213808   1.280   3.454   4.712
 4615TIP3    H113809   1.212   3.430   4.650
 4615TIP3    H213810   1.267   3.395   4.786
 4616TIP3   OH213811   6.021   3.109   3.353
 4616TIP3    H113812   5.956   3.078   3.415
 4616TIP3    H213813   6.070   3.176   3.401
 4617TIP3   OH213814   0.313   5.937   3.683
 4617TIP3    H113815   0.231   5.960   3.727
 4617TIP3    H213816   0.292   5.936   3.590
 4618TIP3   OH213817   0.621   4.269   0.060
 4618TIP3    H113818   0.689   4.205   0.037
 4618TIP3    H213819   0.565   4.222   0.123
 4619TIP3   OH213820   0.742   2.517   0.785
 4619TIP3    H113821   0.668   2.464   0.756
 4619TIP3    H213822   0.736   2.597   0.731
 4620TIP3   OH213823   6.807   3.843   1.213
 4620TIP3    H113824   6.877   3.872   1.154
 4620TIP3    H213825   6.806   3.748   1.204
 4621TIP3   OH213826   2.951   3.763   2.404
 4621TIP3    H113827   2.993   3.779   2.489
 4621TIP3    H213828   3.023   3.766   2.341
 4622TIP3   OH213829   3.328   5.874   2.189
 4622TIP3    H113830   3.278   5.892   2.109
 4622TIP3    H213831   3.374   5.955   2.207
 4623TIP3   OH213832   1.197   2.297   4.138
 4623TIP3    H113833   1.186   2.312   4.045
 4623TIP3    H213834   1.273   2.239   4.144
 4624TIP3   OH213835   5.594   3.302   1.535
 4624TIP3    H113836   5.592   3.279   1.628
 4624TIP3    H213837   5.539   3.235   1.493
 4625TIP3   OH213838   3.431   6.409   3.144
 4625TIP3    H113839   3.375   6.357   3.087
 4625TIP3    H213840   3.456   6.351   3.215
 4626TIP3   OH213841   1.724   5.086   3.797
 4626TIP3    H113842   1.808   5.122   3.768
 4626TIP3    H213843   1.739   5.060   3.888
 4627TIP3   OH213844   0.181   6.345   3.019
 4627TIP3    H113845   0.193   6.431   3.059
 4627TIP3    H213846   0.266   6.302   3.029
 4628TIP3   OH213847   5.011   2.225   4.368
 4628TIP3    H113848   4.967   2.155   4.319
 4628TIP3    H213849   4.997   2.202   4.460
 4629TIP3   OH213850   4.521   3.736   2.884
 4629TIP3    H113851   4.461   3.779   2.945
 4629TIP3    H213852   4.601   3.724   2.935
 4630TIP3   OH213853   1.177   5.826   5.729
 4630TIP3    H113854   1.231   5.902   5.750
 4630TIP3    H213855   1.091   5.861   5.709
 4631TIP3   OH213856   6.293   0.098   4.778
 4631TIP3    H113857   6.268   0.185   4.747
 4631TIP3    H213858   6.215   0.045   4.763
 4632TIP3   OH213859   3.016   0.706   3.053
 4632TIP3    H113860   3.060   0.635   3.100
 4632TIP3    H213861   2.962   0.748   3.120
 4633TIP3   OH213862   3.274   6.295   0.471
 4633TIP3    H113863   3.271   6.382   0.510
 4633TIP3    H213864   3.236   6.238   0.538
 4634TIP3   OH213865   5.329   4.786   0.632
 4634TIP3    H113866   5.307   4.710   0.578
 4634TIP3    H213867   5.307   4.760   0.722
 4635TIP3   OH213868   5.765   0.923   3.856
 4635TIP3    H113869   5.794   1.013   3.868
 4635TIP3    H213870   5.678   0.930   3.817
 4636TIP3   OH213871   2.004   4.161   2.919
 4636TIP3    H113872   1.979   4.169   2.827
 4636TIP3    H213873   1.980   4.072   2.944
 4637TIP3   OH213874   2.425   2.627   0.286
 4637TIP3    H113875   2.435   2.585   0.201
 4637TIP3    H213876   2.504   2.602   0.335
 4638TIP3   OH213877   4.986   6.089   1.107
 4638TIP3    H113878   4.967   6.031   1.180
 4638TIP3    H213879   4.990   6.176   1.146
 4639TIP3   OH213880   5.105   4.095   4.589
 4639TIP3    H113881   5.192   4.122   4.619
 4639TIP3    H213882   5.121   4.042   4.511
 4640TIP3   OH213883   4.810   5.881   5.649
 4640TIP3    H113884   4.806   5.925   5.733
 4640TIP3    H213885   4.760   5.800   5.662
 4641TIP3   OH213886   1.338   2.946   3.980
 4641TIP3    H113887   1.315   2.909   4.066
 4641TIP3    H213888   1.433   2.932   3.973
 4642TIP3   OH213889   6.228   1.229   2.114
 4642TIP3    H113890   6.293   1.234   2.184
 4642TIP3    H213891   6.220   1.136   2.095
 4643TIP3   OH213892   3.804   6.772   2.407
 4643TIP3    H113893   3.754   6.692   2.422
 4643TIP3    H213894   3.740   6.842   2.414
 4644TIP3   OH213895   3.875   1.238   1.198
 4644TIP3    H113896   3.863   1.261   1.290
 4644TIP3    H213897   3.786   1.231   1.163
 4645TIP3   OH213898   0.837   6.386   0.029
 4645TIP3    H113899   0.761   6.386   0.088
 4645TIP3    H213900   0.857   6.293   0.016
 4646TIP3   OH213901   6.943   1.429   5.203
 4646TIP3    H113902   6.851   1.421   5.177
 4646TIP3    H213903   6.990   1.383   5.133
 4647TIP3   OH213904   1.468   1.429   3.783
 4647TIP3    H113905   1.564   1.439   3.780
 4647TIP3    H213906   1.442   1.425   3.691
 4648TIP3   OH213907   6.398   1.369   2.719
 4648TIP3    H113908   6.450   1.440   2.756
 4648TIP3    H213909   6.313   1.377   2.762
 4649TIP3   OH213910   1.901   0.635   0.607
 4649TIP3    H113911   1.894   0.706   0.670
 4649TIP3    H213912   1.927   0.559   0.659
 4650TIP3   OH213913   1.510   3.370   4.585
 4650TIP3    H113914   1.472   3.359   4.498
 4650TIP3    H213915   1.435   3.372   4.644
 4651TIP3   OH213916   5.273   4.003   2.972
 4651TIP3    H113917   5.263   4.052   3.054
 4651TIP3    H213918   5.210   4.042   2.912
 4652TIP3   OH213919   5.733   0.663   4.766
 4652TIP3    H113920   5.766   0.664   4.677
 4652TIP3    H213921   5.647   0.705   4.760
 4653TIP3   OH213922   2.878   0.798   0.400
 4653TIP3    H113923   2.910   0.786   0.310
 4653TIP3    H213924   2.862   0.892   0.407
 4654TIP3   OH213925   1.560   2.021   5.522
 4654TIP3    H113926   1.523   2.041   5.436
 4654TIP3    H213927   1.628   2.086   5.536
 4655TIP3   OH213928   7.014   2.116   3.195
 4655TIP3    H113929   6.972   2.176   3.133
 4655TIP3    H213930   6.962   2.036   3.190
 4656TIP3   OH213931   3.332   4.081   4.945
 4656TIP3    H113932   3.318   4.112   5.035
 4656TIP3    H213933   3.284   3.998   4.941
 4657TIP3   OH213934   5.006   1.411   5.346
 4657TIP3    H113935   4.920   1.407   5.305
 4657TIP3    H213936   4.999   1.481   5.411
 4658TIP3   OH213937   2.569   4.285   0.424
 4658TIP3    H113938   2.604   4.202   0.454
 4658TIP3    H213939   2.484   4.293   0.468
 4659TIP3   OH213940   2.078   2.322   2.978
 4659TIP3    H113941   2.154   2.263   2.978
 4659TIP3    H213942   2.002   2.264   2.985
 4660TIP3   OH213943   4.201   4.189   2.097
 4660TIP3    H113944   4.150   4.173   2.177
 4660TIP3    H213945   4.140   4.232   2.038
 4661TIP3   OH213946   6.944   0.073   2.718
 4661TIP3    H113947   6.951   0.033   2.631
 4661TIP3    H213948   7.034   0.072   2.752
 4662TIP3   OH213949   5.721   3.636   4.564
 4662TIP3    H113950   5.665   3.579   4.618
 4662TIP3    H213951   5.731   3.715   4.616
 4663TIP3   OH213952   0.210   0.711   1.745
 4663TIP3    H113953   0.140   0.775   1.731
 4663TIP3    H213954   0.291   0.762   1.735
 4664TIP3   OH213955   4.775   4.589   1.588
 4664TIP3    H113956   4.696   4.629   1.552
 4664TIP3    H213957   4.829   4.663   1.614
 4665TIP3   OH213958   6.082   6.317   4.405
 4665TIP3    H113959   5.994   6.310   4.370
 4665TIP3    H213960   6.079   6.266   4.486
 4666TIP3   OH213961   5.906   0.721   3.700
 4666TIP3    H113962   5.881   0.807   3.732
 4666TIP3    H213963   5.823   0.679   3.676
 4667TIP3   OH213964   1.184   1.797   0.679
 4667TIP3    H113965   1.138   1.855   0.618
 4667TIP3    H213966   1.121   1.729   0.701
 4668TIP3   OH213967   1.390   4.669   1.583
 4668TIP3    H113968   1.316   4.701   1.531
 4668TIP3    H213969   1.441   4.748   1.603
 4669TIP3   OH213970   6.892   0.322   1.693
 4669TIP3    H113971   6.831   0.249   1.702
 4669TIP3    H213972   6.977   0.280   1.678
 4670TIP3   OH213973   5.377   0.178   0.381
 4670TIP3    H113974   5.310   0.207   0.319
 4670TIP3    H213975   5.359   0.085   0.394
 4671TIP3   OH213976   5.930   5.957   0.304
 4671TIP3    H113977   5.907   5.961   0.396
 4671TIP3    H213978   5.953   6.047   0.281
 4672TIP3   OH213979   6.854   0.488   3.030
 4672TIP3    H113980   6.805   0.527   3.102
 4672TIP3    H213981   6.786   0.460   2.968
 4673TIP3   OH213982   2.171   1.342   1.896
 4673TIP3    H113983   2.136   1.253   1.895
 4673TIP3    H213984   2.174   1.368   1.804
 4674TIP3   OH213985   0.264   0.665   0.904
 4674TIP3    H113986   0.191   0.686   0.962
 4674TIP3    H213987   0.286   0.749   0.862
 4675TIP3   OH213988   1.436   5.198   1.956
 4675TIP3    H113989   1.418   5.143   2.032
 4675TIP3    H213990   1.430   5.138   1.881
 4676TIP3   OH213991   0.520   2.155   5.478
 4676TIP3    H113992   0.567   2.122   5.401
 4676TIP3    H213993   0.588   2.182   5.539
 4677TIP3   OH213994   4.739   0.563   3.994
 4677TIP3    H113995   4.771   0.626   3.929
 4677TIP3    H213996   4.658   0.529   3.957
 4678TIP3   OH213997   7.089   5.191   3.119
 4678TIP3    H113998   7.071   5.133   3.193
 4678TIP3    H213999   7.151   5.255   3.154
 4679TIP3   OH214000   1.923   4.872   5.544
 4679TIP3    H114001   1.855   4.924   5.588
 4679TIP3    H214002   1.899   4.874   5.451
 4680TIP3   OH214003   4.944   5.895   3.988
 4680TIP3    H114004   4.877   5.828   3.996
 4680TIP3    H214005   4.961   5.923   4.078
 4681TIP3   OH214006   1.731   6.809   0.350
 4681TIP3    H114007   1.690   6.876   0.405
 4681TIP3    H214008   1.662   6.745   0.334
 4682TIP3   OH214009   5.530   2.555   3.014
 4682TIP3    H114010   5.560   2.466   3.001
 4682TIP3    H214011   5.533   2.595   2.927
 4683TIP3   OH214012   3.978   2.864   3.172
 4683TIP3    H114013   4.049   2.917   3.210
 4683TIP3    H214014   3.972   2.894   3.081
 4684TIP3   OH214015   2.380   0.128   5.415
 4684TIP3    H114016   2.369   0.061   5.482
 4684TIP3    H214017   2.462   0.105   5.371
 4685TIP3   OH214018   6.618   6.681   2.945
 4685TIP3    H114019   6.640   6.770   2.975
 4685TIP3    H214020   6.540   6.657   2.995
 4686TIP3   OH214021   5.144   1.855   5.852
 4686TIP3    H114022   5.054   1.881   5.829
 4686TIP3    H214023   5.191   1.854   5.769
 4687TIP3   OH214024   1.503   0.776   1.182
 4687TIP3    H114025   1.411   0.754   1.173
 4687TIP3    H214026   1.530   0.805   1.095
 4688TIP3   OH214027   6.494   6.110   1.020
 4688TIP3    H114028   6.579   6.123   0.979
 4688TIP3    H214029   6.512   6.106   1.114
 4689TIP3   OH214030   1.721   5.844   1.835
 4689TIP3    H114031   1.770   5.773   1.878
 4689TIP3    H214032   1.686   5.803   1.755
 4690TIP3   OH214033   4.700   4.297   1.603
 4690TIP3    H114034   4.717   4.391   1.612
 4690TIP3    H214035   4.627   4.292   1.541
 4691TIP3   OH214036   1.779   3.442   3.094
 4691TIP3    H114037   1.781   3.354   3.132
 4691TIP3    H214038   1.765   3.500   3.170
 4692TIP3   OH214039   1.774   3.507   5.392
 4692TIP3    H114040   1.693   3.556   5.405
 4692TIP3    H214041   1.788   3.461   5.474
 4693TIP3   OH214042   5.513   3.448   5.611
 4693TIP3    H114043   5.516   3.447   5.515
 4693TIP3    H214044   5.466   3.529   5.632
 4694TIP3   OH214045   0.141   2.852   5.596
 4694TIP3    H114046   0.131   2.788   5.525
 4694TIP3    H214047   0.107   2.807   5.673
 4695TIP3   OH214048   2.459   4.756   4.799
 4695TIP3    H114049   2.448   4.662   4.793
 4695TIP3    H214050   2.370   4.791   4.793
 4696TIP3   OH214051   4.226   2.021   2.919
 4696TIP3    H114052   4.264   2.013   3.007
 4696TIP3    H214053   4.169   2.097   2.924
 4697TIP3   OH214054   1.768   3.835   0.664
 4697TIP3    H114055   1.727   3.835   0.750
 4697TIP3    H214056   1.826   3.759   0.664
 4698TIP3   OH214057   0.586   2.137   2.131
 4698TIP3    H114058   0.628   2.156   2.215
 4698TIP3    H214059   0.505   2.188   2.131
 4699TIP3   OH214060   6.716   6.456   0.637
 4699TIP3    H114061   6.696   6.497   0.553
 4699TIP3    H214062   6.637   6.466   0.689
 4700TIP3   OH214063   5.487   2.988   1.468
 4700TIP3    H114064   5.447   3.058   1.416
 4700TIP3    H214065   5.441   2.990   1.551
 4701TIP3   OH214066   3.274   5.864   2.706
 4701TIP3    H114067   3.210   5.915   2.657
 4701TIP3    H214068   3.294   5.790   2.650
 4702TIP3   OH214069   5.076   0.481   0.617
 4702TIP3    H114070   5.078   0.476   0.522
 4702TIP3    H214071   5.124   0.561   0.638
 4703TIP3   OH214072   6.452   0.819   4.051
 4703TIP3    H114073   6.431   0.753   3.985
 4703TIP3    H214074   6.545   0.808   4.067
 4704TIP3   OH214075   0.511   2.511   2.145
 4704TIP3    H114076   0.598   2.480   2.121
 4704TIP3    H214077   0.465   2.433   2.174
 4705TIP3   OH214078   5.187   0.817   2.140
 4705TIP3    H114079   5.096   0.846   2.137
 4705TIP3    H214080   5.183   0.723   2.126
 4706TIP3   OH214081   0.832   0.812   0.900
 4706TIP3    H114082   0.887   0.851   0.967
 4706TIP3    H214083   0.832   0.718   0.920
 4707TIP3   OH214084   4.060   0.968   2.870
 4707TIP3    H114085   4.127   1.021   2.828
 4707TIP3    H214086   4.101   0.938   2.952
 4708TIP3   OH214087   6.560   3.346   5.251
 4708TIP3    H114088   6.551   3.339   5.346
 4708TIP3    H214089   6.642   3.395   5.238
 4709TIP3   OH214090   6.107   5.643   2.520
 4709TIP3    H114091   6.145   5.597   2.446
 4709TIP3    H214092   6.146   5.730   2.517
 4710TIP3   OH214093   1.410   3.707   1.615
 4710TIP3    H114094   1.346   3.778   1.621
 4710TIP3    H214095   1.359   3.627   1.627
 4711TIP3   OH214096   4.689   2.876   0.943
 4711TIP3    H114097   4.595   2.889   0.933
 4711TIP3    H214098   4.699   2.782   0.957
 4712TIP3   OH214099   5.836   2.715   2.548
 4712TIP3    H114100   5.810   2.681   2.634
 4712TIP3    H214101   5.832   2.638   2.491
 4713TIP3   OH214102   5.871   1.055   4.986
 4713TIP3    H114103   5.785   1.086   4.958
 4713TIP3    H214104   5.932   1.121   4.953
 4714TIP3   OH214105   1.265   6.023   4.506
 4714TIP3    H114106   1.358   6.006   4.491
 4714TIP3    H214107   1.237   5.954   4.565
 4715TIP3   OH214108   6.041   4.995   0.144
 4715TIP3    H114109   6.098   5.069   0.121
 4715TIP3    H214110   6.049   4.987   0.239
 4716TIP3   OH214111   5.952   2.066   3.859
 4716TIP3    H114112   6.015   2.132   3.886
 4716TIP3    H214113   5.988   2.030   3.778
 4717TIP3   OH214114   4.157   5.482   1.870
 4717TIP3    H114115   4.165   5.448   1.960
 4717TIP3    H214116   4.198   5.416   1.815
 4718TIP3   OH214117   3.687   4.981   5.730
 4718TIP3    H114118   3.614   5.034   5.761
 4718TIP3    H214119   3.645   4.906   5.686
 4719TIP3   OH214120   5.419   1.836   0.521
 4719TIP3    H114121   5.459   1.873   0.441
 4719TIP3    H214122   5.482   1.770   0.550
 4720TIP3   OH214123   3.919   2.989   5.823
 4720TIP3    H114124   3.825   3.001   5.821
 4720TIP3    H214125   3.952   3.039   5.748
 4721TIP3   OH214126   5.851   0.946   0.235
 4721TIP3    H114127   5.915   0.879   0.210
 4721TIP3    H214128   5.768   0.898   0.244
 4722TIP3   OH214129   3.840   4.227   3.480
 4722TIP3    H114130   3.773   4.287   3.448
 4722TIP3    H214131   3.922   4.274   3.463
 4723TIP3   OH214132   4.473   0.522   1.534
 4723TIP3    H114133   4.392   0.572   1.546
 4723TIP3    H214134   4.510   0.557   1.453
 4724TIP3   OH214135   2.250   3.515   3.704
 4724TIP3    H114136   2.157   3.509   3.680
 4724TIP3    H214137   2.275   3.604   3.680
 4725TIP3   OH214138   6.989   3.516   4.296
 4725TIP3    H114139   7.000   3.608   4.273
 4725TIP3    H214140   7.063   3.472   4.254
 4726TIP3   OH214141   6.488   1.241   0.655
 4726TIP3    H114142   6.481   1.277   0.744
 4726TIP3    H214143   6.448   1.154   0.662
 4727TIP3   OH214144   1.712   4.201   0.901
 4727TIP3    H114145   1.621   4.191   0.927
 4727TIP3    H214146   1.710   4.207   0.805
 4728TIP3   OH214147   3.228   6.294   3.410
 4728TIP3    H114148   3.293   6.290   3.480
 4728TIP3    H214149   3.201   6.203   3.398
 4729TIP3   OH214150   3.376   1.077   1.963
 4729TIP3    H114151   3.336   1.150   2.010
 4729TIP3    H214152   3.374   1.004   2.025
 4730TIP3   OH214153   6.787   0.283   5.178
 4730TIP3    H114154   6.767   0.373   5.205
 4730TIP3    H214155   6.874   0.289   5.137
 4731TIP3   OH214156   0.585   1.064   5.044
 4731TIP3    H114157   0.540   1.108   5.116
 4731TIP3    H214158   0.606   1.134   4.983
 4732TIP3   OH214159   4.671   5.676   4.762
 4732TIP3    H114160   4.747   5.631   4.723
 4732TIP3    H214161   4.656   5.630   4.844
 4733TIP3   OH214162   3.662   1.946   2.367
 4733TIP3    H114163   3.639   1.906   2.284
 4733TIP3    H214164   3.758   1.955   2.364
 4734TIP3   OH214165   3.236   6.668   1.560
 4734TIP3    H114166   3.193   6.691   1.478
 4734TIP3    H214167   3.176   6.698   1.628
 4735TIP3   OH214168   0.319   4.025   4.964
 4735TIP3    H114169   0.280   3.954   5.016
 4735TIP3    H214170   0.402   4.044   5.007
 4736TIP3   OH214171   5.849   0.185   4.599
 4736TIP3    H114172   5.921   0.244   4.621
 4736TIP3    H214173   5.771   0.227   4.637
 4737TIP3   OH214174   3.230   3.658   4.156
 4737TIP3    H114175   3.259   3.630   4.070
 4737TIP3    H214176   3.256   3.749   4.162
 4738TIP3   OH214177   4.733   6.563   2.504
 4738TIP3    H114178   4.827   6.574   2.520
 4738TIP3    H214179   4.700   6.652   2.499
 4739TIP3   OH214180   2.220  -0.039   0.351
 4739TIP3    H114181   2.160  -0.040   0.424
 4739TIP3    H214182   2.306  -0.022   0.390
 4740TIP3   OH214183   1.920   1.248   2.789
 4740TIP3    H114184   1.877   1.163   2.789
 4740TIP3    H214185   1.859   1.306   2.834
 4741TIP3   OH214186   6.399   1.059   2.695
 4741TIP3    H114187   6.327   1.104   2.651
 4741TIP3    H214188   6.433   1.123   2.757
 4742TIP3   OH214189   4.856   6.694   3.411
 4742TIP3    H114190   4.775   6.727   3.449
 4742TIP3    H214191   4.899   6.648   3.483
 4743TIP3   OH214192   5.090   3.729   3.181
 4743TIP3    H114193   5.041   3.783   3.119
 4743TIP3    H214194   5.130   3.660   3.128
 4744TIP3   OH214195   4.895   0.132   3.408
 4744TIP3    H114196   4.833   0.199   3.381
 4744TIP3    H214197   4.981   0.171   3.395
 4745TIP3   OH214198   1.761   2.308   2.410
 4745TIP3    H114199   1.779   2.251   2.335
 4745TIP3    H214200   1.840   2.301   2.464
 4746TIP3   OH214201   2.017   6.088   5.720
 4746TIP3    H114202   2.092   6.066   5.666
 4746TIP3    H214203   2.055   6.124   5.801
 4747TIP3   OH214204   0.523   2.772   4.905
 4747TIP3    H114205   0.483   2.856   4.880
 4747TIP3    H214206   0.488   2.709   4.842
 4748TIP3   OH214207   4.363   5.994   4.239
 4748TIP3    H114208   4.399   5.925   4.184
 4748TIP3    H214209   4.376   6.074   4.187
 4749TIP3   OH214210   1.908   5.017   2.637
 4749TIP3    H114211   1.887   4.962   2.561
 4749TIP3    H214212   1.827   5.021   2.688
 4750TIP3   OH214213   1.099   0.484   5.216
 4750TIP3    H114214   1.183   0.440   5.217
 4750TIP3    H214215   1.118   0.573   5.245
 4751TIP3   OH214216   7.080   2.898   4.554
 4751TIP3    H114217   7.029   2.898   4.635
 4751TIP3    H214218   7.073   2.808   4.521
 4752TIP3   OH214219   0.115   3.019   1.119
 4752TIP3    H114220   0.088   3.055   1.203
 4752TIP3    H214221   0.204   2.986   1.135
 4753TIP3   OH214222   7.170   3.582   3.085
 4753TIP3    H114223   7.130   3.651   3.137
 4753TIP3    H214224   7.160   3.611   2.995
 4754TIP3   OH214225   4.472   5.347   3.861
 4754TIP3    H114226   4.480   5.252   3.861
 4754TIP3    H214227   4.431   5.368   3.777
 4755TIP3   OH214228   4.951   3.341   4.363
 4755TIP3    H114229   4.971   3.248   4.364
 4755TIP3    H214230   5.036   3.384   4.347
 4756TIP3   OH214231   0.741   4.902   1.429
 4756TIP3    H114232   0.809   4.889   1.364
 4756TIP3    H214233   0.691   4.977   1.397
 4757TIP3   OH214234   0.689   0.054   4.110
 4757TIP3    H114235   0.643   0.086   4.032
 4757TIP3    H214236   0.781   0.053   4.085
 4758TIP3   OH214237   1.753   5.607   0.166
 4758TIP3    H114238   1.775   5.517   0.190
 4758TIP3    H214239   1.673   5.599   0.113
 4759TIP3   OH214240   5.048   4.821   4.688
 4759TIP3    H114241   4.953   4.825   4.682
 4759TIP3    H214242   5.065   4.791   4.777
 4760TIP3   OH214243   4.523   4.621   2.347
 4760TIP3    H114244   4.490   4.624   2.257
 4760TIP3    H214245   4.474   4.689   2.393
 4761TIP3   OH214246   4.338   5.465   0.848
 4761TIP3    H114247   4.409   5.402   0.860
 4761TIP3    H214248   4.349   5.527   0.921
 4762TIP3   OH214249   2.291   4.704   0.045
 4762TIP3    H114250   2.363   4.767   0.040
 4762TIP3    H214251   2.284   4.683   0.138
 4763TIP3   OH214252   0.893   5.391   2.247
 4763TIP3    H114253   0.907   5.377   2.340
 4763TIP3    H214254   0.958   5.457   2.222
 4764TIP3   OH214255   2.146   0.604   5.536
 4764TIP3    H114256   2.166   0.521   5.493
 4764TIP3    H214257   2.231   0.645   5.550
 4765TIP3   OH214258   6.433   6.128   1.503
 4765TIP3    H114259   6.392   6.208   1.472
 4765TIP3    H214260   6.362   6.064   1.507
 4766TIP3   OH214261   4.602   4.163   1.851
 4766TIP3    H114262   4.511   4.192   1.863
 4766TIP3    H214263   4.626   4.196   1.765
 4767TIP3   OH214264   1.468   1.797   1.821
 4767TIP3    H114265   1.423   1.720   1.787
 4767TIP3    H214266   1.528   1.764   1.887
 4768TIP3   OH214267   4.567   3.770   5.041
 4768TIP3    H114268   4.638   3.786   5.103
 4768TIP3    H214269   4.487   3.785   5.091
 4769TIP3   OH214270   3.855   3.701   0.397
 4769TIP3    H114271   3.915   3.655   0.338
 4769TIP3    H214272   3.807   3.631   0.442
 4770TIP3   OH214273   2.074   4.875   3.143
 4770TIP3    H114274   2.089   4.783   3.163
 4770TIP3    H214275   2.106   4.885   3.053
 4771TIP3   OH214276   2.158   1.336   3.856
 4771TIP3    H114277   2.233   1.279   3.870
 4771TIP3    H214278   2.116   1.301   3.777
 4772TIP3   OH214279   3.624   6.298   5.235
 4772TIP3    H114280   3.711   6.312   5.274
 4772TIP3    H214281   3.639   6.301   5.141
 4773TIP3   OH214282   2.442   1.904   0.326
 4773TIP3    H114283   2.387   1.891   0.404
 4773TIP3    H214284   2.380   1.911   0.254
 4774TIP3   OH214285   1.626   2.231   4.325
 4774TIP3    H114286   1.676   2.157   4.359
 4774TIP3    H214287   1.544   2.229   4.374
 4775TIP3   OH214288   6.604   3.896   4.230
 4775TIP3    H114289   6.622   3.836   4.302
 4775TIP3    H214290   6.517   3.931   4.250
 4776TIP3   OH214291   1.675   5.530   4.318
 4776TIP3    H114292   1.621   5.520   4.396
 4776TIP3    H214293   1.682   5.625   4.306
 4777TIP3   OH214294   2.929   3.996   1.408
 4777TIP3    H114295   2.860   3.938   1.377
 4777TIP3    H214296   2.931   3.982   1.503
 4778TIP3   OH214297   2.844   3.775   3.783
 4778TIP3    H114298   2.929   3.754   3.743
 4778TIP3    H214299   2.838   3.715   3.858
 4779TIP3   OH214300   2.045   5.528   2.709
 4779TIP3    H114301   2.052   5.555   2.801
 4779TIP3    H214302   1.986   5.453   2.711
 4780TIP3   OH214303   4.844   1.970   5.829
 4780TIP3    H114304   4.868   1.924   5.910
 4780TIP3    H214305   4.851   2.063   5.852
 4781TIP3   OH214306   6.595   3.302   5.533
 4781TIP3    H114307   6.627   3.352   5.608
 4781TIP3    H214308   6.564   3.220   5.571
 4782TIP3   OH214309   1.327   0.743   3.777
 4782TIP3    H114310   1.254   0.685   3.755
 4782TIP3    H214311   1.340   0.795   3.698
 4783TIP3   OH214312   4.002   0.658   4.646
 4783TIP3    H114313   3.965   0.578   4.683
 4783TIP3    H214314   4.092   0.659   4.679
 4784TIP3   OH214315   6.825   3.181   1.940
 4784TIP3    H114316   6.742   3.172   1.892
 4784TIP3    H214317   6.862   3.263   1.907
 4785TIP3   OH214318   4.159   5.226   3.362
 4785TIP3    H114319   4.185   5.148   3.411
 4785TIP3    H214320   4.231   5.240   3.300
 4786TIP3   OH214321   6.836   2.070   4.390
 4786TIP3    H114322   6.842   1.974   4.392
 4786TIP3    H214323   6.923   2.100   4.417
 4787TIP3   OH214324   6.560   2.841   2.906
 4787TIP3    H114325   6.507   2.906   2.859
 4787TIP3    H214326   6.597   2.889   2.980
 4788TIP3   OH214327   4.927   1.844   0.245
 4788TIP3    H114328   4.868   1.890   0.305
 4788TIP3    H214329   5.000   1.815   0.300
 4789TIP3   OH214330   0.946   3.479   4.910
 4789TIP3    H114331   0.918   3.398   4.867
 4789TIP3    H214332   0.949   3.457   5.003
 4790TIP3   OH214333   3.581   3.624   3.115
 4790TIP3    H114334   3.651   3.616   3.179
 4790TIP3    H214335   3.540   3.709   3.134
 4791TIP3   OH214336   2.341   1.786   5.342
 4791TIP3    H114337   2.361   1.732   5.418
 4791TIP3    H214338   2.371   1.874   5.367
 4792TIP3   OH214339   1.661   0.915   3.769
 4792TIP3    H114340   1.756   0.921   3.777
 4792TIP3    H214341   1.642   0.822   3.784
 4793TIP3   OH214342   3.241   2.356   1.039
 4793TIP3    H114343   3.274   2.419   1.103
 4793TIP3    H214344   3.318   2.308   1.010
 4794TIP3   OH214345   1.669   6.692   2.171
 4794TIP3    H114346   1.629   6.778   2.176
 4794TIP3    H214347   1.644   6.659   2.084
 4795TIP3   OH214348   6.784   4.734   3.307
 4795TIP3    H114349   6.838   4.656   3.293
 4795TIP3    H214350   6.833   4.787   3.370
 4796TIP3   OH214351   1.154   6.788   5.563
 4796TIP3    H114352   1.088   6.850   5.594
 4796TIP3    H214353   1.105   6.708   5.544
 4797TIP3   OH214354   6.946   5.668   1.178
 4797TIP3    H114355   6.876   5.616   1.217
 4797TIP3    H214356   6.920   5.759   1.192
 4798TIP3   OH214357   0.224   6.045   1.427
 4798TIP3    H114358   0.130   6.042   1.443
 4798TIP3    H214359   0.233   6.033   1.333
 4799TIP3   OH214360   6.585   2.310   3.566
 4799TIP3    H114361   6.519   2.278   3.504
 4799TIP3    H214362   6.549   2.292   3.652
 4800TIP3   OH214363   5.585   0.023   0.089
 4800TIP3    H114364   5.497   0.046   0.058
 4800TIP3    H214365   5.640   0.096   0.062
 4801TIP3   OH214366   0.392   2.932   1.555
 4801TIP3    H114367   0.362   3.013   1.596
 4801TIP3    H214368   0.485   2.927   1.575
 4802TIP3   OH214369   5.036   1.425   3.489
 4802TIP3    H114370   4.974   1.382   3.430
 4802TIP3    H214371   5.120   1.419   3.445
 4803TIP3   OH214372   2.507   4.389   1.216
 4803TIP3    H114373   2.423   4.434   1.213
 4803TIP3    H214374   2.542   4.396   1.127
 4804TIP3   OH214375   2.647   2.416   5.758
 4804TIP3    H114376   2.641   2.338   5.812
 4804TIP3    H214377   2.574   2.471   5.786
 4805TIP3   OH214378   2.853   1.083   4.058
 4805TIP3    H114379   2.939   1.041   4.051
 4805TIP3    H214380   2.821   1.057   4.144
 4806TIP3   OH214381   4.333   3.821   5.820
 4806TIP3    H114382   4.256   3.799   5.768
 4806TIP3    H214383   4.402   3.837   5.755
 4807TIP3   OH214384   3.051   2.880   3.533
 4807TIP3    H114385   3.039   2.963   3.486
 4807TIP3    H214386   3.126   2.896   3.590
 4808TIP3   OH214387   4.169   0.848   0.220
 4808TIP3    H114388   4.205   0.914   0.279
 4808TIP3    H214389   4.224   0.852   0.142
 4809TIP3   OH214390   6.431   1.193   2.306
 4809TIP3    H114391   6.439   1.184   2.401
 4809TIP3    H214392   6.424   1.103   2.273
 4810TIP3   OH214393   5.018   5.445   1.612
 4810TIP3    H114394   4.987   5.472   1.699
 4810TIP3    H214395   5.067   5.364   1.628
 4811TIP3   OH214396   0.595   3.056   2.892
 4811TIP3    H114397   0.597   2.989   2.823
 4811TIP3    H214398   0.503   3.078   2.902
 4812TIP3   OH214399   3.104   4.812   4.493
 4812TIP3    H114400   3.188   4.784   4.455
 4812TIP3    H214401   3.120   4.814   4.587
 4813TIP3   OH214402   6.239   2.413   2.989
 4813TIP3    H114403   6.260   2.437   3.080
 4813TIP3    H214404   6.298   2.341   2.969
 4814TIP3   OH214405   2.598   5.214   4.040
 4814TIP3    H114406   2.672   5.274   4.041
 4814TIP3    H214407   2.609   5.163   3.960
 4815TIP3   OH214408   6.629   2.496   1.746
 4815TIP3    H114409   6.663   2.412   1.714
 4815TIP3    H214410   6.625   2.551   1.668
 4816TIP3   OH214411   1.574   5.385   0.800
 4816TIP3    H114412   1.583   5.366   0.707
 4816TIP3    H214413   1.631   5.461   0.814
 4817TIP3   OH214414   1.997   1.086   0.236
 4817TIP3    H114415   1.969   0.999   0.265
 4817TIP3    H214416   2.003   1.137   0.316
 4818TIP3   OH214417   1.707   6.064   4.310
 4818TIP3    H114418   1.645   6.007   4.264
 4818TIP3    H214419   1.699   6.148   4.265
 4819TIP3   OH214420   2.348   5.757   1.044
 4819TIP3    H114421   2.288   5.779   0.973
 4819TIP3    H214422   2.347   5.833   1.101
 4820TIP3   OH214423   4.625   1.068   1.110
 4820TIP3    H114424   4.633   0.976   1.136
 4820TIP3    H214425   4.594   1.112   1.189
 4821TIP3   OH214426   2.571   1.847   5.502
 4821TIP3    H114427   2.509   1.864   5.573
 4821TIP3    H214428   2.550   1.913   5.436
 4822TIP3   OH214429   6.726   2.525   2.146
 4822TIP3    H114430   6.772   2.458   2.095
 4822TIP3    H214431   6.649   2.480   2.181
 4823TIP3   OH214432   0.900   3.100   0.752
 4823TIP3    H114433   0.949   3.095   0.670
 4823TIP3    H214434   0.930   3.182   0.793
 4824TIP3   OH214435   3.830   0.098   4.561
 4824TIP3    H114436   3.914   0.105   4.515
 4824TIP3    H214437   3.765   0.128   4.497
 4825TIP3   OH214438   0.398   1.912   3.800
 4825TIP3    H114439   0.458   1.942   3.732
 4825TIP3    H214440   0.311   1.929   3.764
 4826TIP3   OH214441   3.068   0.999   5.229
 4826TIP3    H114442   2.999   0.945   5.268
 4826TIP3    H214443   3.098   0.949   5.153
 4827TIP3   OH214444   3.225   2.317   5.126
 4827TIP3    H114445   3.257   2.362   5.204
 4827TIP3    H214446   3.156   2.259   5.159
 4828TIP3   OH214447   2.912   4.024   5.023
 4828TIP3    H114448   2.925   3.989   4.936
 4828TIP3    H214449   2.823   4.061   5.021
 4829TIP3   OH214450   5.204   6.376   0.963
 4829TIP3    H114451   5.220   6.391   0.869
 4829TIP3    H214452   5.271   6.312   0.988
 4830TIP3   OH214453   6.933   2.479   3.188
 4830TIP3    H114454   6.952   2.572   3.200
 4830TIP3    H214455   6.901   2.450   3.274
 4831TIP3   OH214456   1.644   4.150   4.697
 4831TIP3    H114457   1.719   4.203   4.725
 4831TIP3    H214458   1.610   4.111   4.778
 4832TIP3   OH214459   4.551   1.852   2.910
 4832TIP3    H114460   4.520   1.901   2.834
 4832TIP3    H214461   4.524   1.905   2.985
 4833TIP3   OH214462   2.162   5.696   4.512
 4833TIP3    H114463   2.077   5.658   4.534
 4833TIP3    H214464   2.149   5.736   4.426
 4834TIP3   OH214465   1.911   6.729   1.163
 4834TIP3    H114466   1.972   6.718   1.236
 4834TIP3    H214467   1.964   6.764   1.092
 4835TIP3   OH214468   4.558   4.051   1.553
 4835TIP3    H114469   4.650   4.031   1.536
 4835TIP3    H214470   4.517   3.966   1.570
 4836TIP3   OH214471   6.643   2.676   1.320
 4836TIP3    H114472   6.570   2.738   1.316
 4836TIP3    H214473   6.607   2.599   1.364
 4837TIP3   OH214474   6.743   3.550   2.367
 4837TIP3    H114475   6.752   3.458   2.339
 4837TIP3    H214476   6.670   3.550   2.429
 4838TIP3   OH214477   1.675   3.032   4.490
 4838TIP3    H114478   1.611   3.059   4.555
 4838TIP3    H214479   1.659   2.938   4.479
 4839TIP3   OH214480   6.333   6.537   4.155
 4839TIP3    H114481   6.330   6.504   4.245
 4839TIP3    H214482   6.365   6.627   4.164
 4840TIP3   OH214483   2.776   2.393   3.981
 4840TIP3    H114484   2.735   2.341   4.050
 4840TIP3    H214485   2.864   2.356   3.973
 4841TIP3   OH214486   2.881   5.863   0.381
 4841TIP3    H114487   2.930   5.849   0.462
 4841TIP3    H214488   2.793   5.833   0.401
 4842TIP3   OH214489   1.448   0.541   4.970
 4842TIP3    H114490   1.459   0.635   4.983
 4842TIP3    H214491   1.498   0.521   4.891
 4843TIP3   OH214492   1.647   4.156   3.512
 4843TIP3    H114493   1.664   4.237   3.464
 4843TIP3    H214494   1.593   4.183   3.586
 4844TIP3   OH214495   2.827   4.387   0.364
 4844TIP3    H114496   2.736   4.357   0.371
 4844TIP3    H214497   2.837   4.411   0.272
 4845TIP3   OH214498   3.053   5.832   4.281
 4845TIP3    H114499   2.980   5.806   4.338
 4845TIP3    H214500   3.095   5.750   4.258
 4846TIP3   OH214501   4.212   6.113   0.684
 4846TIP3    H114502   4.161   6.040   0.648
 4846TIP3    H214503   4.153   6.157   0.744
 4847TIP3   OH214504   1.556   0.408   5.455
 4847TIP3    H114505   1.624   0.470   5.481
 4847TIP3    H214506   1.513   0.384   5.537
 4848TIP3   OH214507   5.166   0.305   0.992
 4848TIP3    H114508   5.255   0.292   1.024
 4848TIP3    H214509   5.147   0.397   1.010
 4849TIP3   OH214510   4.916   3.544   2.386
 4849TIP3    H114511   4.886   3.587   2.306
 4849TIP3    H214512   4.875   3.593   2.457
 4850TIP3   OH214513   6.725   4.669   2.063
 4850TIP3    H114514   6.798   4.725   2.090
 4850TIP3    H214515   6.652   4.730   2.050
 4851TIP3   OH214516   1.557   5.576   2.909
 4851TIP3    H114517   1.648   5.601   2.927
 4851TIP3    H214518   1.514   5.658   2.885
 4852TIP3   OH214519   2.864   1.422   4.831
 4852TIP3    H114520   2.800   1.366   4.787
 4852TIP3    H214521   2.828   1.436   4.919
 4853TIP3   OH214522   4.111   0.409   0.316
 4853TIP3    H114523   4.088   0.404   0.409
 4853TIP3    H214524   4.197   0.451   0.316
 4854TIP3   OH214525   7.196   0.273   5.783
 4854TIP3    H114526   7.183   0.263   5.877
 4854TIP3    H214527   7.129   0.218   5.743
 4855TIP3   OH214528   5.919   1.601   0.792
 4855TIP3    H114529   5.895   1.509   0.783
 4855TIP3    H214530   5.922   1.616   0.886
 4856TIP3   OH214531   6.642   5.773   5.457
 4856TIP3    H114532   6.575   5.712   5.428
 4856TIP3    H214533   6.596   5.834   5.514
 4857TIP3   OH214534   2.122   3.691   1.437
 4857TIP3    H114535   2.039   3.663   1.398
 4857TIP3    H214536   2.097   3.733   1.519
 4858TIP3   OH214537   6.885   0.852   3.161
 4858TIP3    H114538   6.973   0.887   3.167
 4858TIP3    H214539   6.882   0.782   3.227
 4859TIP3   OH214540   0.751   2.461   1.342
 4859TIP3    H114541   0.711   2.415   1.268
 4859TIP3    H214542   0.767   2.393   1.407
 4860TIP3   OH214543   1.769   3.382   5.644
 4860TIP3    H114544   1.709   3.310   5.664
 4860TIP3    H214545   1.800   3.413   5.729
 4861TIP3   OH214546   6.964   1.748   0.182
 4861TIP3    H114547   6.983   1.686   0.111
 4861TIP3    H214548   7.050   1.765   0.221
 4862TIP3   OH214549   5.535   6.100   0.829
 4862TIP3    H114550   5.614   6.082   0.777
 4862TIP3    H214551   5.463   6.095   0.766
 4863TIP3   OH214552   4.424   2.939   0.890
 4863TIP3    H114553   4.384   2.956   0.976
 4863TIP3    H214554   4.407   3.020   0.841
 4864TIP3   OH214555   1.930   1.258   4.124
 4864TIP3    H114556   1.945   1.164   4.131
 4864TIP3    H214557   1.842   1.265   4.089
 4865TIP3   OH214558   7.094   4.072   2.276
 4865TIP3    H114559   7.106   3.985   2.240
 4865TIP3    H214560   7.172   4.089   2.328
 4866TIP3   OH214561   3.406   1.415   4.744
 4866TIP3    H114562   3.422   1.324   4.719
 4866TIP3    H214563   3.442   1.422   4.833
 4867TIP3   OH214564   2.944   4.054   1.752
 4867TIP3    H114565   3.004   4.067   1.825
 4867TIP3    H214566   2.889   4.133   1.752
 4868TIP3   OH214567   4.105   2.288   0.408
 4868TIP3    H114568   4.082   2.364   0.462
 4868TIP3    H214569   4.103   2.321   0.319
 4869TIP3   OH214570   3.174   4.302   4.003
 4869TIP3    H114571   3.238   4.338   4.064
 4869TIP3    H214572   3.091   4.342   4.028
 4870TIP3   OH214573   2.840   2.569   5.634
 4870TIP3    H114574   2.853   2.649   5.685
 4870TIP3    H214575   2.761   2.529   5.672
 4871TIP3   OH214576   1.518   4.164   2.275
 4871TIP3    H114577   1.566   4.137   2.353
 4871TIP3    H214578   1.473   4.084   2.246
 4872TIP3   OH214579   0.539   5.201   5.468
 4872TIP3    H114580   0.503   5.193   5.379
 4872TIP3    H214581   0.558   5.110   5.493
 4873TIP3   OH214582   0.373   0.028   3.083
 4873TIP3    H114583   0.447   0.089   3.079
 4873TIP3    H214584   0.371  -0.011   2.996
 4874TIP3   OH214585   2.911   3.124   5.345
 4874TIP3    H114586   2.939   3.102   5.433
 4874TIP3    H214587   2.924   3.043   5.295
 4875TIP3   OH214588   4.559   5.965   3.379
 4875TIP3    H114589   4.647   5.985   3.345
 4875TIP3    H214590   4.508   6.043   3.360
 4876TIP3   OH214591   2.452   3.347   3.747
 4876TIP3    H114592   2.528   3.395   3.779
 4876TIP3    H214593   2.386   3.415   3.733
 4877TIP3   OH214594   2.516   4.041   4.607
 4877TIP3    H114595   2.506   4.136   4.597
 4877TIP3    H214596   2.437   4.014   4.655
 4878TIP3   OH214597   0.942   0.199   2.404
 4878TIP3    H114598   0.931   0.273   2.465
 4878TIP3    H214599   0.953   0.240   2.318
 4879TIP3   OH214600   0.358   4.582   0.076
 4879TIP3    H114601   0.342   4.487   0.074
 4879TIP3    H214602   0.322   4.614  -0.007
 4880TIP3   OH214603   2.700   0.989   4.637
 4880TIP3    H114604   2.701   0.964   4.729
 4880TIP3    H214605   2.763   0.930   4.595
 4881TIP3   OH214606   0.683   4.464   4.865
 4881TIP3    H114607   0.712   4.386   4.913
 4881TIP3    H214608   0.714   4.538   4.917
 4882TIP3   OH214609   3.744   4.530   5.722
 4882TIP3    H114610   3.695   4.546   5.802
 4882TIP3    H214611   3.679   4.538   5.652
 4883TIP3   OH214612   5.495   5.062   2.320
 4883TIP3    H114613   5.563   5.039   2.383
 4883TIP3    H214614   5.459   5.144   2.352
 4884TIP3   OH214615   1.784   0.414   1.551
 4884TIP3    H114616   1.697   0.453   1.554
 4884TIP3    H214617   1.773   0.335   1.498
 4885TIP3   OH214618   2.420   5.489   2.813
 4885TIP3    H114619   2.372   5.477   2.895
 4885TIP3    H214620   2.501   5.440   2.825
 4886TIP3   OH214621   5.382   2.198   3.022
 4886TIP3    H114622   5.301   2.227   3.063
 4886TIP3    H214623   5.356   2.126   2.964
 4887TIP3   OH214624   5.616   3.942   0.680
 4887TIP3    H114625   5.552   3.875   0.703
 4887TIP3    H214626   5.667   3.903   0.609
 4888TIP3   OH214627   2.193   2.087   5.121
 4888TIP3    H114628   2.189   1.995   5.149
 4888TIP3    H214629   2.279   2.095   5.079
 4889TIP3   OH214630   0.874   5.184   4.073
 4889TIP3    H114631   0.896   5.142   4.156
 4889TIP3    H214632   0.929   5.262   4.070
 4890TIP3   OH214633   4.581   6.021   1.519
 4890TIP3    H114634   4.640   6.053   1.451
 4890TIP3    H214635   4.638   5.978   1.582
 4891TIP3   OH214636   1.376   5.149   5.565
 4891TIP3    H114637   1.331   5.234   5.570
 4891TIP3    H214638   1.428   5.146   5.645
 4892TIP3   OH214639   4.073   1.244   2.421
 4892TIP3    H114640   4.049   1.319   2.476
 4892TIP3    H214641   4.003   1.180   2.435
 4893TIP3   OH214642   3.257   1.083   3.566
 4893TIP3    H114643   3.335   1.077   3.510
 4893TIP3    H214644   3.288   1.059   3.653
 4894TIP3   OH214645   4.368   6.558   2.789
 4894TIP3    H114646   4.348   6.592   2.701
 4894TIP3    H214647   4.357   6.464   2.782
 4895TIP3   OH214648   4.827   5.913  -0.037
 4895TIP3    H114649   4.748   5.920  -0.091
 4895TIP3    H214650   4.819   5.985   0.026
 4896TIP3   OH214651   3.251   0.036   3.800
 4896TIP3    H114652   3.170   0.080   3.776
 4896TIP3    H214653   3.259   0.049   3.895
 4897TIP3   OH214654   4.693   4.868   3.805
 4897TIP3    H114655   4.759   4.823   3.858
 4897TIP3    H214656   4.736   4.883   3.721
 4898TIP3   OH214657   7.148   4.531   5.624
 4898TIP3    H114658   7.198   4.501   5.548
 4898TIP3    H214659   7.058   4.540   5.591
 4899TIP3   OH214660   2.654   5.619   3.603
 4899TIP3    H114661   2.562   5.624   3.625
 4899TIP3    H214662   2.657   5.564   3.525
 4900TIP3   OH214663   4.513   3.456   4.438
 4900TIP3    H114664   4.517   3.457   4.343
 4900TIP3    H214665   4.599   3.489   4.466
 4901TIP3   OH214666   3.341   5.814   4.334
 4901TIP3    H114667   3.270   5.753   4.356
 4901TIP3    H214668   3.412   5.790   4.393
 4902TIP3   OH214669   2.915   0.439   4.307
 4902TIP3    H114670   2.998   0.466   4.267
 4902TIP3    H214671   2.890   0.514   4.361
 4903TIP3   OH214672   1.233   6.787   4.096
 4903TIP3    H114673   1.292   6.718   4.125
 4903TIP3    H214674   1.243   6.789   4.001
 4904TIP3   OH214675   1.539   4.711   5.678
 4904TIP3    H114676   1.559   4.662   5.599
 4904TIP3    H214677   1.491   4.649   5.733
 4905TIP3   OH214678   1.735   5.889   3.085
 4905TIP3    H114679   1.667   5.954   3.100
 4905TIP3    H214680   1.810   5.940   3.052
 4906TIP3   OH214681   2.824   5.507   4.260
 4906TIP3    H114682   2.831   5.573   4.329
 4906TIP3    H214683   2.758   5.541   4.200
 4907TIP3   OH214684   0.397   5.974   2.759
 4907TIP3    H114685   0.379   5.888   2.795
 4907TIP3    H214686   0.479   6.002   2.801
 4908TIP3   OH214687   5.538   6.138   2.547
 4908TIP3    H114688   5.466   6.193   2.576
 4908TIP3    H214689   5.498   6.054   2.526
 4909TIP3   OH214690   0.388   0.886   4.337
 4909TIP3    H114691   0.379   0.810   4.280
 4909TIP3    H214692   0.455   0.940   4.296
 4910TIP3   OH214693   2.549   5.027   0.417
 4910TIP3    H114694   2.502   4.943   0.414
 4910TIP3    H214695   2.581   5.033   0.507
 4911TIP3   OH214696   0.108   1.844   4.922
 4911TIP3    H114697   0.073   1.755   4.922
 4911TIP3    H214698   0.150   1.853   5.007
 4912TIP3   OH214699   1.563   0.945   3.514
 4912TIP3    H114700   1.575   1.035   3.482
 4912TIP3    H214701   1.623   0.939   3.589
 4913TIP3   OH214702   6.286   2.601   0.851
 4913TIP3    H114703   6.340   2.667   0.807
 4913TIP3    H214704   6.273   2.635   0.939
 4914TIP3   OH214705   6.820   4.913   0.402
 4914TIP3    H114706   6.747   4.951   0.352
 4914TIP3    H214707   6.805   4.942   0.492
 4915TIP3   OH214708   0.763   5.269   1.842
 4915TIP3    H114709   0.750   5.363   1.835
 4915TIP3    H214710   0.755   5.237   1.752
 4916TIP3   OH214711   5.251   0.736   2.873
 4916TIP3    H114712   5.198   0.658   2.890
 4916TIP3    H214713   5.332   0.721   2.922
 4917TIP3   OH214714   3.737   2.853   3.389
 4917TIP3    H114715   3.718   2.833   3.297
 4917TIP3    H214716   3.801   2.924   3.386
 4918TIP3   OH214717   7.142   5.087   2.002
 4918TIP3    H114718   7.117   5.082   2.094
 4918TIP3    H214719   7.233   5.057   2.000
 4919TIP3   OH214720   3.686   3.492   1.619
 4919TIP3    H114721   3.655   3.574   1.658
 4919TIP3    H214722   3.723   3.443   1.692
 4920TIP3   OH214723   2.949   1.571   2.512
 4920TIP3    H114724   2.920   1.484   2.486
 4920TIP3    H214725   2.922   1.579   2.603
 4921TIP3   OH214726   6.170   4.110   0.621
 4921TIP3    H114727   6.093   4.058   0.596
 4921TIP3    H214728   6.138   4.201   0.619
 4922TIP3   OH214729   3.603   1.003   0.662
 4922TIP3    H114730   3.637   1.038   0.579
 4922TIP3    H214731   3.678   1.008   0.722
 4923TIP3   OH214732   1.625   4.301   1.660
 4923TIP3    H114733   1.614   4.374   1.599
 4923TIP3    H214734   1.615   4.223   1.606
 4924TIP3   OH214735   5.365   6.190   1.136
 4924TIP3    H114736   5.436   6.254   1.132
 4924TIP3    H214737   5.365   6.160   1.227
 4925TIP3   OH214738   5.151   3.699   4.939
 4925TIP3    H114739   5.209   3.766   4.976
 4925TIP3    H214740   5.104   3.745   4.869
 4926TIP3   OH214741   1.185   1.298   4.321
 4926TIP3    H114742   1.094   1.273   4.330
 4926TIP3    H214743   1.222   1.285   4.408
 4927TIP3   OH214744   7.069   1.344   1.702
 4927TIP3    H114745   7.160   1.332   1.674
 4927TIP3    H214746   7.052   1.438   1.689
 4928TIP3   OH214747   7.104   2.648   4.974
 4928TIP3    H114748   7.105   2.598   4.893
 4928TIP3    H214749   7.197   2.667   4.991
 4929TIP3   OH214750   1.287   3.685   2.661
 4929TIP3    H114751   1.198   3.659   2.684
 4929TIP3    H214752   1.295   3.774   2.696
 4930TIP3   OH214753   1.470   5.291   3.113
 4930TIP3    H114754   1.458   5.352   3.186
 4930TIP3    H214755   1.565   5.276   3.110
 4931TIP3   OH214756   4.654   2.212   3.117
 4931TIP3    H114757   4.704   2.186   3.040
 4931TIP3    H214758   4.717   2.261   3.170
 4932TIP3   OH214759   2.691   0.559   3.656
 4932TIP3    H114760   2.777   0.518   3.651
 4932TIP3    H214761   2.708   0.653   3.658
 4933TIP3   OH214762   6.181   0.760   3.572
 4933TIP3    H114763   6.233   0.705   3.631
 4933TIP3    H214764   6.111   0.795   3.626
 4934TIP3   OH214765   1.156   3.889   4.683
 4934TIP3    H114766   1.221   3.836   4.730
 4934TIP3    H214767   1.072   3.849   4.706
 4935TIP3   OH214768   6.637   6.568   4.600
 4935TIP3    H114769   6.586   6.649   4.599
 4935TIP3    H214770   6.715   6.587   4.548
 4936TIP3   OH214771   2.803   5.446   1.972
 4936TIP3    H114772   2.875   5.503   1.944
 4936TIP3    H214773   2.816   5.435   2.066
 4937TIP3   OH214774   3.869   5.101   2.872
 4937TIP3    H114775   3.821   5.037   2.925
 4937TIP3    H214776   3.941   5.129   2.928
 4938TIP3   OH214777   0.787   1.161   1.550
 4938TIP3    H114778   0.767   1.215   1.473
 4938TIP3    H214779   0.881   1.171   1.562
 4939TIP3   OH214780   1.354   1.394   5.808
 4939TIP3    H114781   1.340   1.359   5.720
 4939TIP3    H214782   1.375   1.318   5.861
 4940TIP3   OH214783   2.897   4.989   1.037
 4940TIP3    H114784   2.988   4.989   1.069
 4940TIP3    H214785   2.849   5.040   1.102
 4941TIP3   OH214786   2.588   2.591   4.854
 4941TIP3    H114787   2.565   2.499   4.844
 4941TIP3    H214788   2.670   2.590   4.903
 4942TIP3   OH214789   4.196   5.264   0.969
 4942TIP3    H114790   4.250   5.320   0.913
 4942TIP3    H214791   4.143   5.326   1.019
 4943TIP3   OH214792   0.442   5.619   1.058
 4943TIP3    H114793   0.420   5.709   1.082
 4943TIP3    H214794   0.383   5.598   0.986
 4944TIP3   OH214795   1.052   6.349   4.881
 4944TIP3    H114796   1.118   6.321   4.818
 4944TIP3    H214797   0.970   6.348   4.832
 4945TIP3   OH214798   1.366   2.702   2.743
 4945TIP3    H114799   1.357   2.612   2.710
 4945TIP3    H214800   1.280   2.741   2.729
 4946TIP3   OH214801   6.432   1.721   5.184
 4946TIP3    H114802   6.484   1.719   5.265
 4946TIP3    H214803   6.434   1.631   5.153
 4947TIP3   OH214804   4.934   2.156   2.962
 4947TIP3    H114805   4.865   2.216   2.934
 4947TIP3    H214806   5.009   2.178   2.907
 4948TIP3   OH214807   2.771   2.169   0.886
 4948TIP3    H114808   2.791   2.249   0.936
 4948TIP3    H214809   2.677   2.176   0.866
 4949TIP3   OH214810   0.659   2.892   1.553
 4949TIP3    H114811   0.750   2.877   1.581
 4949TIP3    H214812   0.662   2.977   1.509
 4950TIP3   OH214813   1.537   0.774   1.740
 4950TIP3    H114814   1.610   0.781   1.801
 4950TIP3    H214815   1.459   0.771   1.795
 4951TIP3   OH214816   5.755   6.621   1.710
 4951TIP3    H114817   5.780   6.658   1.626
 4951TIP3    H214818   5.680   6.565   1.690
 4952TIP3   OH214819   0.312   4.450   5.930
 4952TIP3    H114820   0.266   4.442   5.847
 4952TIP3    H214821   0.390   4.502   5.909
 4953TIP3   OH214822   5.757   6.403   2.730
 4953TIP3    H114823   5.768   6.398   2.635
 4953TIP3    H214824   5.843   6.428   2.763
 4954TIP3   OH214825   6.812   0.550   1.858
 4954TIP3    H114826   6.840   0.463   1.831
 4954TIP3    H214827   6.739   0.571   1.800
 4955TIP3   OH214828   1.601   1.237   2.790
 4955TIP3    H114829   1.658   1.280   2.726
 4955TIP3    H214830   1.533   1.302   2.809
 4956TIP3   OH214831   3.051   1.248   5.356
 4956TIP3    H114832   3.040   1.169   5.303
 4956TIP3    H214833   3.117   1.299   5.309
 4957TIP3   OH214834   2.150   0.069   1.273
 4957TIP3    H114835   2.156  -0.014   1.322
 4957TIP3    H214836   2.150   0.136   1.341
 4958TIP3   OH214837   3.258   2.939   5.075
 4958TIP3    H114838   3.206   2.958   4.997
 4958TIP3    H214839   3.221   2.858   5.109
 4959TIP3   OH214840   1.023   0.966   5.155
 4959TIP3    H114841   1.096   0.908   5.177
 4959TIP3    H214842   1.061   1.034   5.100
 4960TIP3   OH214843   5.712   4.412   4.771
 4960TIP3    H114844   5.784   4.350   4.784
 4960TIP3    H214845   5.751   4.498   4.788
 4961TIP3   OH214846   3.271   4.881   3.710
 4961TIP3    H114847   3.230   4.796   3.689
 4961TIP3    H214848   3.357   4.876   3.669
 4962TIP3   OH214849   4.411   2.343   2.162
 4962TIP3    H114850   4.366   2.269   2.122
 4962TIP3    H214851   4.458   2.306   2.236
 4963TIP3   OH214852   1.256   3.097   2.852
 4963TIP3    H114853   1.175   3.078   2.804
 4963TIP3    H214854   1.231   3.163   2.916
 4964TIP3   OH214855   0.141   3.366   3.938
 4964TIP3    H114856   0.227   3.343   3.973
 4964TIP3    H214857   0.132   3.311   3.859
 4965TIP3   OH214858   3.007   6.260   4.544
 4965TIP3    H114859   3.041   6.194   4.483
 4965TIP3    H214860   3.084   6.311   4.568
 4966TIP3   OH214861   2.102   6.100   0.787
 4966TIP3    H114862   2.027   6.100   0.727
 4966TIP3    H214863   2.135   6.190   0.782
 4967TIP3   OH214864   0.984   4.461   5.836
 4967TIP3    H114865   0.892   4.435   5.829
 4967TIP3    H214866   1.005   4.452   5.929
 4968TIP3   OH214867   2.519   5.753   5.023
 4968TIP3    H114868   2.488   5.796   4.944
 4968TIP3    H214869   2.514   5.820   5.091
 4969TIP3   OH214870   5.277   3.811   0.940
 4969TIP3    H114871   5.344   3.877   0.921
 4969TIP3    H214872   5.257   3.823   1.033
 4970TIP3   OH214873   2.206   2.591   3.738
 4970TIP3    H114874   2.125   2.612   3.786
 4970TIP3    H214875   2.177   2.533   3.668
 4971TIP3   OH214876   0.085   4.098   1.081
 4971TIP3    H114877   0.008   4.079   1.028
 4971TIP3    H214878   0.159   4.062   1.031
 4972TIP3   OH214879   5.335   6.205   5.410
 4972TIP3    H114880   5.276   6.279   5.425
 4972TIP3    H214881   5.278   6.131   5.392
 4973TIP3   OH214882   2.450   1.455   2.599
 4973TIP3    H114883   2.479   1.541   2.570
 4973TIP3    H214884   2.412   1.470   2.685
 4974TIP3   OH214885   6.911   0.234   4.407
 4974TIP3    H114886   6.862   0.151   4.410
 4974TIP3    H214887   6.885   0.275   4.325
 4975TIP3   OH214888   4.873   5.839   0.326
 4975TIP3    H114889   4.807   5.901   0.298
 4975TIP3    H214890   4.952   5.863   0.276
 4976TIP3   OH214891   5.415   6.079   4.814
 4976TIP3    H114892   5.336   6.067   4.762
 4976TIP3    H214893   5.451   5.991   4.823
 4977TIP3   OH214894   6.821   6.323   3.310
 4977TIP3    H114895   6.760   6.271   3.259
 4977TIP3    H214896   6.823   6.281   3.396
 4978TIP3   OH214897   3.624   4.878   3.662
 4978TIP3    H114898   3.650   4.833   3.743
 4978TIP3    H214899   3.703   4.877   3.608
 4979TIP3   OH214900   1.415   1.446   2.792
 4979TIP3    H114901   1.426   1.440   2.697
 4979TIP3    H214902   1.430   1.538   2.812
 4980TIP3   OH214903   2.540   4.639   5.383
 4980TIP3    H114904   2.550   4.732   5.363
 4980TIP3    H214905   2.618   4.597   5.346
 4981TIP3   OH214906   7.157   4.221   4.192
 4981TIP3    H114907   7.147   4.262   4.106
 4981TIP3    H214908   7.081   4.251   4.242
 4982TIP3   OH214909   1.980   2.890   2.028
 4982TIP3    H114910   1.996   2.821   2.093
 4982TIP3    H214911   1.893   2.923   2.050
 4983TIP3   OH214912   6.951   4.333   2.987
 4983TIP3    H114913   6.950   4.242   3.017
 4983TIP3    H214914   6.911   4.330   2.901
 4984TIP3   OH214915   4.416   3.641   4.057
 4984TIP3    H114916   4.373   3.657   4.142
 4984TIP3    H214917   4.503   3.608   4.081
 4985TIP3   OH214918   6.238   3.398   4.410
 4985TIP3    H114919   6.211   3.376   4.499
 4985TIP3    H214920   6.319   3.348   4.396
 4986TIP3   OH214921   1.980   0.049   3.852
 4986TIP3    H114922   1.983   0.145   3.855
 4986TIP3    H214923   1.924   0.030   3.777
 4987TIP3   OH214924   4.616   1.647   2.334
 4987TIP3    H114925   4.578   1.640   2.246
 4987TIP3    H214926   4.654   1.735   2.337
 4988TIP3   OH214927   3.449   3.258   3.908
 4988TIP3    H114928   3.424   3.235   3.819
 4988TIP3    H214929   3.528   3.310   3.899
 4989TIP3   OH214930   3.953   0.673   3.288
 4989TIP3    H114931   3.933   0.634   3.374
 4989TIP3    H214932   3.886   0.740   3.276
 4990TIP3   OH214933   5.490   3.098   4.882
 4990TIP3    H114934   5.520   3.068   4.796
 4990TIP3    H214935   5.503   3.192   4.881
 4991TIP3   OH214936   3.560   5.069   0.341
 4991TIP3    H114937   3.642   5.051   0.386
 4991TIP3    H214938   3.521   4.983   0.326
 4992TIP3   OH214939   1.906   6.253   1.107
 4992TIP3    H114940   1.884   6.328   1.162
 4992TIP3    H214941   1.825   6.202   1.102
 4993TIP3   OH214942   1.368   4.360   1.304
 4993TIP3    H114943   1.419   4.339   1.227
 4993TIP3    H214944   1.432   4.391   1.368
 4994TIP3   OH214945   1.846   2.122   0.101
 4994TIP3    H114946   1.820   2.194   0.158
 4994TIP3    H214947   1.920   2.081   0.146
 4995TIP3   OH214948   0.104   1.742   5.388
 4995TIP3    H114949   0.134   1.690   5.462
 4995TIP3    H214950   0.157   1.822   5.392
 4996TIP3   OH214951   5.662   0.750   5.720
 4996TIP3    H114952   5.727   0.808   5.759
 4996TIP3    H214953   5.648   0.682   5.785
 4997TIP3   OH214954   0.529   2.339   0.059
 4997TIP3    H114955   0.554   2.253   0.093
 4997TIP3    H214956   0.489   2.383   0.134
 4998TIP3   OH214957   4.450   1.988   3.120
 4998TIP3    H114958   4.501   2.068   3.133
 4998TIP3    H214959   4.478   1.930   3.191
 4999TIP3   OH214960   6.387   6.371   0.327
 4999TIP3    H114961   6.332   6.399   0.400
 4999TIP3    H214962   6.368   6.278   0.317
 5000TIP3   OH214963   4.136   4.848   0.583
 5000TIP3    H114964   4.103   4.881   0.499
 5000TIP3    H214965   4.228   4.829   0.566
 5001TIP3   OH214966   5.472   1.064   0.026
 5001TIP3    H114967   5.513   1.087   0.110
 5001TIP3    H214968   5.456   0.970   0.032
 5002TIP3   OH214969   6.118   3.644   2.084
 5002TIP3    H114970   6.183   3.594   2.036
 5002TIP3    H214971   6.136   3.735   2.061
 5003TIP3   OH214972   0.179   3.072   0.875
 5003TIP3    H114973   0.113   3.008   0.850
 5003TIP3    H214974   0.173   3.076   0.971
 5004TIP3   OH214975   5.513   0.385   5.874
 5004TIP3    H114976   5.447   0.453   5.858
 5004TIP3    H214977   5.466   0.317   5.923
 5005TIP3   OH214978   6.498   1.827   2.203
 5005TIP3    H114979   6.449   1.884   2.144
 5005TIP3    H214980   6.438   1.754   2.219
 5006TIP3   OH214981   0.191   0.060   1.350
 5006TIP3    H114982   0.220   0.149   1.369
 5006TIP3    H214983   0.222   0.008   1.424
 5007TIP3   OH214984   4.091   4.991   2.032
 5007TIP3    H114985   4.114   5.016   1.943
 5007TIP3    H214986   3.996   4.995   2.035
 5008TIP3   OH214987   1.816   2.778   4.240
 5008TIP3    H114988   1.842   2.716   4.308
 5008TIP3    H214989   1.724   2.796   4.257
 5009TIP3   OH214990   1.870   5.649   5.859
 5009TIP3    H114991   1.966   5.653   5.851
 5009TIP3    H214992   1.839   5.730   5.818
 5010TIP3   OH214993   5.279   1.284   1.972
 5010TIP3    H114994   5.288   1.189   1.971
 5010TIP3    H214995   5.369   1.317   1.970
 5011TIP3   OH214996   2.628   4.860   1.525
 5011TIP3    H114997   2.678   4.802   1.582
 5011TIP3    H214998   2.553   4.887   1.578
 5012TIP3   OH214999   0.112   6.025   0.697
 5012TIP3    H115000   0.034   6.020   0.751
 5012TIP3    H215001   0.080   6.047   0.610
 5013TIP3   OH215002   2.946   3.105   3.380
 5013TIP3    H115003   2.977   3.180   3.429
 5013TIP3    H215004   2.851   3.118   3.373
 5014TIP3   OH215005   6.486   0.694   5.764
 5014TIP3    H115006   6.495   0.777   5.810
 5014TIP3    H215007   6.574   0.674   5.733
 5015TIP3   OH215008   2.405   0.354   5.176
 5015TIP3    H115009   2.324   0.374   5.223
 5015TIP3    H215010   2.377   0.310   5.096
 5016TIP3   OH215011   2.895   3.890   4.140
 5016TIP3    H115012   2.941   3.968   4.109
 5016TIP3    H215013   2.896   3.831   4.065
 5017TIP3   OH215014   1.010   5.680   0.225
 5017TIP3    H115015   0.952   5.606   0.207
 5017TIP3    H215016   1.005   5.733   0.145
 5018TIP3   OH215017   7.031   2.302   3.625
 5018TIP3    H115018   7.104   2.357   3.594
 5018TIP3    H215019   7.054   2.282   3.716
 5019TIP3   OH215020   6.373   5.784   3.372
 5019TIP3    H115021   6.362   5.700   3.417
 5019TIP3    H215022   6.309   5.842   3.413
 5020TIP3   OH215023   4.094   4.903   4.787
 5020TIP3    H115024   4.092   4.894   4.883
 5020TIP3    H215025   4.186   4.921   4.766
 5021TIP3   OH215026   4.676   1.220   4.712
 5021TIP3    H115027   4.696   1.294   4.654
 5021TIP3    H215028   4.702   1.143   4.662
 5022TIP3   OH215029   2.642   2.558   0.408
 5022TIP3    H115030   2.687   2.568   0.492
 5022TIP3    H215031   2.689   2.487   0.364
 5023TIP3   OH215032   7.145   4.713   2.505
 5023TIP3    H115033   7.190   4.796   2.498
 5023TIP3    H215034   7.211   4.647   2.484
 5024TIP3   OH215035   3.405   4.804   0.418
 5024TIP3    H115036   3.345   4.769   0.352
 5024TIP3    H215037   3.491   4.768   0.393
 5025TIP3   OH215038   6.477   3.665   5.260
 5025TIP3    H115039   6.515   3.659   5.172
 5025TIP3    H215040   6.506   3.749   5.293
 5026TIP3   OH215041   1.950   5.568   4.608
 5026TIP3    H115042   1.953   5.473   4.621
 5026TIP3    H215043   1.866   5.595   4.646
 5027TIP3   OH215044   3.219   0.988   4.046
 5027TIP3    H115045   3.138   0.956   4.005
 5027TIP3    H215046   3.285   0.923   4.023
 5028TIP3   OH215047   4.806   3.534   2.787
 5028TIP3    H115048   4.778   3.548   2.878
 5028TIP3    H215049   4.726   3.544   2.735
 5029TIP3   OH215050   0.934   5.716   5.539
 5029TIP3    H115051   0.867   5.785   5.542
 5029TIP3    H215052   0.887   5.638   5.509
 5030TIP3   OH215053   0.869   4.108   3.847
 5030TIP3    H115054   0.854   4.026   3.894
 5030TIP3    H215055   0.831   4.176   3.903
 5031TIP3   OH215056   2.001   3.597   3.399
 5031TIP3    H115057   1.922   3.607   3.347
 5031TIP3    H215058   1.998   3.507   3.431
 5032TIP3   OH215059   3.915   1.775   5.085
 5032TIP3    H115060   3.872   1.834   5.023
 5032TIP3    H215061   3.941   1.832   5.157
 5033TIP3   OH215062   6.975   0.447   0.566
 5033TIP3    H115063   7.033   0.477   0.496
 5033TIP3    H215064   6.920   0.523   0.586
 5034TIP3   OH215065   4.869   5.367   0.983
 5034TIP3    H115066   4.922   5.410   1.050
 5034TIP3    H215067   4.920   5.377   0.903
 5035TIP3   OH215068   6.359   6.304   5.140
 5035TIP3    H115069   6.316   6.296   5.055
 5035TIP3    H215070   6.315   6.240   5.196
 5036TIP3   OH215071   3.496   3.853   4.522
 5036TIP3    H115072   3.463   3.845   4.611
 5036TIP3    H215073   3.506   3.947   4.508
 5037TIP3   OH215074   5.389   3.385   0.753
 5037TIP3    H115075   5.470   3.349   0.790
 5037TIP3    H215076   5.410   3.403   0.662
 5038TIP3   OH215077   5.393   2.906   0.317
 5038TIP3    H115078   5.358   2.862   0.394
 5038TIP3    H215079   5.488   2.902   0.328
 5039TIP3   OH215080   6.843   4.238   5.242
 5039TIP3    H115081   6.788   4.261   5.317
 5039TIP3    H215082   6.787   4.183   5.188
 5040TIP3   OH215083   0.164   3.082   1.826
 5040TIP3    H115084   0.196   2.996   1.852
 5040TIP3    H215085   0.119   3.115   1.904
 5041TIP3   OH215086   0.738   4.206   4.582
 5041TIP3    H115087   0.679   4.140   4.618
 5041TIP3    H215088   0.772   4.167   4.501
 5042TIP3   OH215089   0.625   1.787   0.732
 5042TIP3    H115090   0.597   1.879   0.735
 5042TIP3    H215091   0.620   1.765   0.639
 5043TIP3   OH215092   5.090   4.447   2.880
 5043TIP3    H115093   5.125   4.455   2.791
 5043TIP3    H215094   5.002   4.483   2.874
 5044TIP3   OH215095   6.896   5.241   2.914
 5044TIP3    H115096   6.918   5.172   2.851
 5044TIP3    H215097   6.973   5.249   2.969
 5045TIP3   OH215098   1.884   0.614   1.373
 5045TIP3    H115099   1.858   0.564   1.451
 5045TIP3    H215100   1.899   0.547   1.306
 5046TIP3   OH215101   3.593   0.634   3.410
 5046TIP3    H115102   3.672   0.595   3.445
 5046TIP3    H215103   3.534   0.642   3.485
 5047TIP3   OH215104   6.231   1.056   5.730
 5047TIP3    H115105   6.182   1.043   5.811
 5047TIP3    H215106   6.166   1.047   5.661
 5048TIP3   OH215107   0.084   2.142   3.265
 5048TIP3    H115108   0.130   2.083   3.205
 5048TIP3    H215109  -0.008   2.120   3.255
 5049TIP3   OH215110   5.831   3.002   2.962
 5049TIP3    H115111   5.778   2.946   2.905
 5049TIP3    H215112   5.814   2.970   3.050
 5050TIP3   OH215113   2.092   5.741   1.907
 5050TIP3    H115114   2.159   5.674   1.918
 5050TIP3    H215115   2.009   5.693   1.906
 5051TIP3   OH215116   0.508   2.426   4.525
 5051TIP3    H115117   0.512   2.473   4.442
 5051TIP3    H215118   0.414   2.412   4.540
 5052TIP3   OH215119   0.051   1.284   5.507
 5052TIP3    H115120   0.013   1.230   5.439
 5052TIP3    H215121  -0.024   1.319   5.555
 5053TIP3   OH215122   2.682   5.033   3.848
 5053TIP3    H115123   2.636   4.950   3.862
 5053TIP3    H215124   2.762   5.009   3.802
 5054TIP3   OH215125   1.983   2.231   1.188
 5054TIP3    H115126   2.027   2.149   1.210
 5054TIP3    H215127   1.893   2.207   1.171
 5055TIP3   OH215128   5.655   3.329   2.713
 5055TIP3    H115129   5.564   3.302   2.708
 5055TIP3    H215130   5.702   3.269   2.655
 5056TIP3   OH215131   5.338   5.527   4.013
 5056TIP3    H115132   5.379   5.596   3.961
 5056TIP3    H215133   5.244   5.543   4.005
 5057TIP3   OH215134   1.458   1.808   4.323
 5057TIP3    H115135   1.515   1.804   4.399
 5057TIP3    H215136   1.408   1.726   4.326
 5058TIP3   OH215137   4.177   6.438   1.387
 5058TIP3    H115138   4.125   6.366   1.422
 5058TIP3    H215139   4.122   6.515   1.401
 5059TIP3   OH215140   1.502   6.336   2.376
 5059TIP3    H115141   1.555   6.415   2.390
 5059TIP3    H215142   1.503   6.291   2.460
 5060TIP3   OH215143   1.126   2.719   5.394
 5060TIP3    H115144   1.153   2.807   5.365
 5060TIP3    H215145   1.162   2.712   5.483
 5061TIP3   OH215146   3.183   1.096   0.954
 5061TIP3    H115147   3.190   1.021   1.013
 5061TIP3    H215148   3.269   1.100   0.911
 5062TIP3   OH215149   5.849   4.576   5.397
 5062TIP3    H115150   5.816   4.489   5.416
 5062TIP3    H215151   5.882   4.609   5.481
 5063TIP3   OH215152   3.525   3.442   0.616
 5063TIP3    H115153   3.496   3.453   0.707
 5063TIP3    H215154   3.463   3.494   0.565
 5064TIP3   OH215155   3.816   6.212   0.223
 5064TIP3    H115156   3.798   6.215   0.129
 5064TIP3    H215157   3.736   6.177   0.262
 5065TIP3   OH215158   7.184   3.060   0.582
 5065TIP3    H115159   7.233   3.132   0.622
 5065TIP3    H215160   7.248   2.989   0.573
 5066TIP3   OH215161   5.123   5.543   2.342
 5066TIP3    H115162   5.033   5.532   2.311
 5066TIP3    H215163   5.168   5.585   2.269
 5067TIP3   OH215164   0.816   2.718   3.304
 5067TIP3    H115165   0.880   2.666   3.353
 5067TIP3    H215166   0.739   2.721   3.361
 5068TIP3   OH215167   5.536   2.380   4.215
 5068TIP3    H115168   5.522   2.428   4.133
 5068TIP3    H215169   5.524   2.445   4.283
 5069TIP3   OH215170   1.143   0.982   0.191
 5069TIP3    H115171   1.064   0.930   0.200
 5069TIP3    H215172   1.174   0.995   0.280
 5070TIP3   OH215173   7.093   3.768   1.479
 5070TIP3    H115174   7.159   3.800   1.419
 5070TIP3    H215175   7.048   3.846   1.511
 5071TIP3   OH215176   3.537   2.985   4.923
 5071TIP3    H115177   3.503   2.959   4.838
 5071TIP3    H215178   3.515   3.078   4.929
 5072TIP3   OH215179   0.727   6.476   1.996
 5072TIP3    H115180   0.637   6.481   1.962
 5072TIP3    H215181   0.779   6.446   1.922
 5073TIP3   OH215182   3.581   3.062   2.974
 5073TIP3    H115183   3.596   2.967   2.973
 5073TIP3    H215184   3.586   3.087   2.882
 5074TIP3   OH215185   2.985   6.813   4.784
 5074TIP3    H115186   2.925   6.862   4.728
 5074TIP3    H215187   2.996   6.729   4.739
 5075TIP3   OH215188   1.732   5.338   2.205
 5075TIP3    H115189   1.715   5.323   2.298
 5075TIP3    H215190   1.691   5.422   2.186
 5076TIP3   OH215191   3.178   3.295   3.983
 5076TIP3    H115192   3.171   3.287   4.078
 5076TIP3    H215193   3.268   3.268   3.963
 5077TIP3   OH215194   5.658   3.654   5.074
 5077TIP3    H115195   5.674   3.690   4.987
 5077TIP3    H215196   5.740   3.669   5.121
 5078TIP3   OH215197   0.413   6.049   0.586
 5078TIP3    H115198   0.355   6.123   0.603
 5078TIP3    H215199   0.497   6.075   0.625
 5079TIP3   OH215200   4.470   5.726   1.733
 5079TIP3    H115201   4.500   5.816   1.727
 5079TIP3    H215202   4.397   5.729   1.795
 5080TIP3   OH215203   1.259   2.683   4.177
 5080TIP3    H115204   1.205   2.666   4.099
 5080TIP3    H215205   1.254   2.601   4.227
 5081TIP3   OH215206   0.939   5.229   0.964
 5081TIP3    H115207   0.863   5.255   0.913
 5081TIP3    H215208   0.925   5.136   0.982
 5082TIP3   OH215209   6.610   4.966   1.759
 5082TIP3    H115210   6.522   4.978   1.723
 5082TIP3    H215211   6.668   4.973   1.682
 5083TIP3   OH215212   5.448   5.292   2.881
 5083TIP3    H115213   5.444   5.227   2.951
 5083TIP3    H215214   5.462   5.242   2.801
 5084TIP3   OH215215   6.004  -0.017   1.037
 5084TIP3    H115216   6.055   0.033   1.100
 5084TIP3    H215217   5.982   0.047   0.969
 5085TIP3   OH215218   2.923   3.943   2.935
 5085TIP3    H115219   3.003   3.959   2.884
 5085TIP3    H215220   2.886   4.030   2.948
 5086TIP3   OH215221   3.140   3.413   3.688
 5086TIP3    H115222   3.210   3.476   3.674
 5086TIP3    H215223   3.084   3.453   3.755
 5087TIP3   OH215224   0.272   4.857   1.396
 5087TIP3    H115225   0.296   4.945   1.426
 5087TIP3    H215226   0.344   4.832   1.338
 5088TIP3   OH215227   4.142   4.561   1.476
 5088TIP3    H115228   4.055   4.524   1.460
 5088TIP3    H215229   4.174   4.588   1.390
 5089TIP3   OH215230   4.225   4.031   4.286
 5089TIP3    H115231   4.290   3.991   4.228
 5089TIP3    H215232   4.171   3.958   4.317
 5090TIP3   OH215233   5.794   6.050   1.153
 5090TIP3    H115234   5.760   6.132   1.189
 5090TIP3    H215235   5.817   5.998   1.229
 5091TIP3   OH215236   3.815   6.836   3.464
 5091TIP3    H115237   3.720   6.848   3.464
 5091TIP3    H215238   3.829   6.761   3.522
 5092TIP3   OH215239   2.659   5.595   4.061
 5092TIP3    H115240   2.568   5.622   4.068
 5092TIP3    H215241   2.694   5.645   3.987
 5093TIP3   OH215242   4.790   6.131   0.173
 5093TIP3    H115243   4.859   6.181   0.215
 5093TIP3    H215244   4.729   6.197   0.139
 5094TIP3   OH215245   3.001   3.663   1.392
 5094TIP3    H115246   2.911   3.678   1.363
 5094TIP3    H215247   2.993   3.648   1.486
 5095TIP3   OH215248   5.864   3.907   5.698
 5095TIP3    H115249   5.943   3.852   5.692
 5095TIP3    H215250   5.792   3.845   5.708
 5096TIP3   OH215251   1.545   1.932   0.668
 5096TIP3    H115252   1.477   1.998   0.671
 5096TIP3    H215253   1.514   1.862   0.725
 5097TIP3   OH215254   1.415   2.865   0.173
 5097TIP3    H115255   1.465   2.941   0.199
 5097TIP3    H215256   1.477   2.792   0.176
 5098TIP3   OH215257   2.864   4.798   4.326
 5098TIP3    H115258   2.904   4.831   4.406
 5098TIP3    H215259   2.887   4.705   4.324
 5099TIP3   OH215260   6.830   4.397   2.741
 5099TIP3    H115261   6.882   4.432   2.669
 5099TIP3    H215262   6.791   4.317   2.706
 5100TIP3   OH215263   2.532   5.898   5.257
 5100TIP3    H115264   2.509   5.958   5.328
 5100TIP3    H215265   2.627   5.908   5.248
 5101TIP3   OH215266   2.379   1.358   2.301
 5101TIP3    H115267   2.423   1.390   2.380
 5101TIP3    H215268   2.448   1.315   2.251
 5102TIP3   OH215269   0.648   1.457   1.948
 5102TIP3    H115270   0.554   1.477   1.947
 5102TIP3    H215271   0.687   1.533   1.992
 5103TIP3   OH215272   1.565   6.613   5.210
 5103TIP3    H115273   1.528   6.626   5.123
 5103TIP3    H215274   1.617   6.533   5.202
 5104TIP3   OH215275   3.659   6.180   4.723
 5104TIP3    H115276   3.712   6.217   4.653
 5104TIP3    H215277   3.668   6.086   4.714
 5105TIP3   OH215278   5.481   1.767   4.723
 5105TIP3    H115279   5.525   1.850   4.707
 5105TIP3    H215280   5.543   1.717   4.777
 5106TIP3   OH215281   6.441   0.940   3.273
 5106TIP3    H115282   6.518   0.972   3.320
 5106TIP3    H215283   6.432   1.000   3.199
 5107TIP3   OH215284   6.113   2.073   2.258
 5107TIP3    H115285   6.082   2.017   2.329
 5107TIP3    H215286   6.033   2.112   2.222
 5108TIP3   OH215287   1.980   4.111   4.117
 5108TIP3    H115288   2.006   4.039   4.174
 5108TIP3    H215289   1.981   4.075   4.029
 5109TIP3   OH215290   7.029   2.797   3.670
 5109TIP3    H115291   6.984   2.857   3.729
 5109TIP3    H215292   6.967   2.726   3.656
 5110TIP3   OH215293   1.810   1.243   5.585
 5110TIP3    H115294   1.881   1.294   5.625
 5110TIP3    H215295   1.742   1.239   5.652
 5111TIP3   OH215296   5.463   1.890   3.904
 5111TIP3    H115297   5.482   1.984   3.914
 5111TIP3    H215298   5.368   1.886   3.893
 5112TIP3   OH215299   0.990   3.875   0.411
 5112TIP3    H115300   0.901   3.840   0.418
 5112TIP3    H215301   1.033   3.818   0.347
 5113TIP3   OH215302   2.086   3.518   4.940
 5113TIP3    H115303   1.997   3.481   4.944
 5113TIP3    H215304   2.101   3.534   4.847
 5114TIP3   OH215305   3.512   0.617   1.672
 5114TIP3    H115306   3.469   0.557   1.734
 5114TIP3    H215307   3.600   0.629   1.708
 5115TIP3   OH215308   3.355   2.564   1.174
 5115TIP3    H115309   3.434   2.524   1.213
 5115TIP3    H215310   3.333   2.634   1.234
 5116TIP3   OH215311   6.247   3.213   3.981
 5116TIP3    H115312   6.177   3.254   4.031
 5116TIP3    H215313   6.259   3.127   4.023
 5117TIP3   OH215314   3.985   4.410   0.973
 5117TIP3    H115315   3.960   4.325   1.008
 5117TIP3    H215316   4.054   4.390   0.909
 5118TIP3   OH215317   0.727   3.585   1.664
 5118TIP3    H115318   0.671   3.507   1.671
 5118TIP3    H215319   0.730   3.620   1.753
 5119TIP3   OH215320   4.130   5.731   4.788
 5119TIP3    H115321   4.110   5.737   4.882
 5119TIP3    H215322   4.187   5.655   4.781
 5120TIP3   OH215323   6.977   2.416   1.482
 5120TIP3    H115324   7.020   2.355   1.541
 5120TIP3    H215325   7.032   2.417   1.404
 5121TIP3   OH215326   2.805   0.092   5.178
 5121TIP3    H115327   2.758   0.174   5.196
 5121TIP3    H215328   2.815   0.090   5.083
 5122TIP3   OH215329   5.965   2.587   5.228
 5122TIP3    H115330   5.979   2.583   5.134
 5122TIP3    H215331   5.871   2.577   5.239
 5123TIP3   OH215332   4.574   1.435   0.502
 5123TIP3    H115333   4.641   1.367   0.499
 5123TIP3    H215334   4.622   1.517   0.488
 5124TIP3   OH215335   5.719   2.766   1.743
 5124TIP3    H115336   5.739   2.847   1.790
 5124TIP3    H215337   5.670   2.713   1.806
 5125TIP3   OH215338   1.023   3.861   0.845
 5125TIP3    H115339   0.992   3.861   0.936
 5125TIP3    H215340   1.110   3.823   0.849
 5126TIP3   OH215341   1.494   4.516   2.277
 5126TIP3    H115342   1.462   4.486   2.191
 5126TIP3    H215343   1.569   4.460   2.295
 5127TIP3   OH215344   6.255   0.350   0.416
 5127TIP3    H115345   6.271   0.308   0.331
 5127TIP3    H215346   6.182   0.409   0.399
 5128TIP3   OH215347   2.635   1.902   0.706
 5128TIP3    H115348   2.696   1.975   0.715
 5128TIP3    H215349   2.685   1.834   0.660
 5129TIP3   OH215350   6.329   3.055   4.977
 5129TIP3    H115351   6.254   3.115   4.986
 5129TIP3    H215352   6.289   2.968   4.966
 5130TIP3   OH215353   1.481   0.877   0.927
 5130TIP3    H115354   1.388   0.887   0.906
 5130TIP3    H215355   1.526   0.902   0.846
 5131TIP3   OH215356   2.980   2.061   1.574
 5131TIP3    H115357   2.886   2.059   1.554
 5131TIP3    H215358   2.989   2.131   1.639
 5132TIP3   OH215359   6.095   1.882   2.815
 5132TIP3    H115360   6.160   1.910   2.751
 5132TIP3    H215361   6.144   1.831   2.879
 5133TIP3   OH215362   4.972   2.637   2.179
 5133TIP3    H115363   4.971   2.547   2.146
 5133TIP3    H215364   5.027   2.684   2.117
 5134TIP3   OH215365   1.811   6.655   3.162
 5134TIP3    H115366   1.717   6.656   3.181
 5134TIP3    H215367   1.834   6.748   3.155
 5135TIP3   OH215368   2.327   0.193   0.890
 5135TIP3    H115369   2.392   0.226   0.828
 5135TIP3    H215370   2.302   0.108   0.855
 5136TIP3   OH215371   1.102   1.020   0.836
 5136TIP3    H115372   1.173   1.085   0.840
 5136TIP3    H215373   1.146   0.938   0.814
 5137TIP3   OH215374   4.085   2.743   2.489
 5137TIP3    H115375   4.080   2.710   2.400
 5137TIP3    H215376   4.082   2.839   2.480
 5138TIP3   OH215377   0.708   0.583   5.143
 5138TIP3    H115378   0.761   0.663   5.139
 5138TIP3    H215379   0.734   0.534   5.065
 5139TIP3   OH215380   5.105   1.059   3.381
 5139TIP3    H115381   5.083   1.058   3.288
 5139TIP3    H215382   5.042   1.121   3.419
 5140TIP3   OH215383   3.433   3.757   2.481
 5140TIP3    H115384   3.379   3.771   2.558
 5140TIP3    H215385   3.521   3.741   2.516
 5141TIP3   OH215386   4.643   1.565   2.019
 5141TIP3    H115387   4.566   1.532   1.973
 5141TIP3    H215388   4.647   1.658   1.996
 5142TIP3   OH215389   0.587   2.836   4.254
 5142TIP3    H115390   0.530   2.770   4.214
 5142TIP3    H215391   0.554   2.845   4.343
 5143TIP3   OH215392   3.549   0.623   2.264
 5143TIP3    H115393   3.488   0.570   2.213
 5143TIP3    H215394   3.498   0.651   2.340
 5144TIP3   OH215395   5.261  -0.009   3.117
 5144TIP3    H115396   5.167  -0.020   3.129
 5144TIP3    H215397   5.270   0.077   3.076
 5145TIP3   OH215398   2.672   4.041   5.546
 5145TIP3    H115399   2.659   4.133   5.525
 5145TIP3    H215400   2.603   3.995   5.500
 5146TIP3   OH215401   1.689   6.452   2.689
 5146TIP3    H115402   1.669   6.532   2.639
 5146TIP3    H215403   1.636   6.384   2.647
 5147TIP3   OH215404   4.238   0.719   5.279
 5147TIP3    H115405   4.323   0.678   5.291
 5147TIP3    H215406   4.175   0.648   5.290
 5148TIP3   OH215407   1.894   1.310   1.158
 5148TIP3    H115408   1.888   1.363   1.079
 5148TIP3    H215409   1.862   1.368   1.228
 5149TIP3   OH215410   6.784   3.345   4.186
 5149TIP3    H115411   6.716   3.301   4.237
 5149TIP3    H215412   6.836   3.393   4.250
 5150TIP3   OH215413   4.378   1.487   1.216
 5150TIP3    H115414   4.450   1.549   1.203
 5150TIP3    H215415   4.312   1.513   1.152
 5151TIP3   OH215416   3.706   2.429   3.374
 5151TIP3    H115417   3.667   2.482   3.443
 5151TIP3    H215418   3.762   2.489   3.326
 5152TIP3   OH215419   0.050   4.999   3.355
 5152TIP3    H115420   0.065   5.089   3.326
 5152TIP3    H215421  -0.045   4.986   3.346
 5153TIP3   OH215422   5.451   1.215   2.516
 5153TIP3    H115423   5.503   1.263   2.581
 5153TIP3    H215424   5.428   1.133   2.560
 5154TIP3   OH215425   0.070   0.917   1.451
 5154TIP3    H115426   0.120   0.841   1.421
 5154TIP3    H215427   0.136   0.985   1.464
 5155TIP3   OH215428   2.488   0.440   2.525
 5155TIP3    H115429   2.506   0.456   2.618
 5155TIP3    H215430   2.404   0.483   2.511
 5156TIP3   OH215431   5.026   0.250   0.773
 5156TIP3    H115432   5.074   0.261   0.854
 5156TIP3    H215433   5.031   0.335   0.730
 5157TIP3   OH215434   3.845   1.265   1.740
 5157TIP3    H115435   3.803   1.209   1.806
 5157TIP3    H215436   3.841   1.214   1.659
 5158TIP3   OH215437   5.442   4.987   5.487
 5158TIP3    H115438   5.511   5.050   5.506
 5158TIP3    H215439   5.389   5.030   5.419
 5159TIP3   OH215440   3.132   2.974   4.301
 5159TIP3    H115441   3.042   2.993   4.326
 5159TIP3    H215442   3.138   2.879   4.298
 5160TIP3   OH215443   0.581   1.923   4.335
 5160TIP3    H115444   0.598   1.922   4.241
 5160TIP3    H215445   0.607   1.836   4.366
 5161TIP3   OH215446   1.115   3.735   2.232
 5161TIP3    H115447   1.197   3.738   2.281
 5161TIP3    H215448   1.140   3.755   2.142
 5162TIP3   OH215449   3.831   4.441   1.693
 5162TIP3    H115450   3.831   4.535   1.675
 5162TIP3    H215451   3.773   4.404   1.625
 5163TIP3   OH215452   4.648   2.256   3.465
 5163TIP3    H115453   4.718   2.228   3.524
 5163TIP3    H215454   4.692   2.273   3.381
 5164TIP3   OH215455   0.288   5.565   2.689
 5164TIP3    H115456   0.350   5.625   2.731
 5164TIP3    H215457   0.305   5.480   2.731
 5165TIP3   OH215458   5.121   6.205   1.670
 5165TIP3    H115459   5.040   6.162   1.694
 5165TIP3    H215460   5.154   6.155   1.595
 5166TIP3   OH215461   0.794   0.908   0.542
 5166TIP3    H115462   0.857   0.836   0.542
 5166TIP3    H215463   0.837   0.978   0.492
 5167TIP3   OH215464   1.110   0.645  -0.031
 5167TIP3    H115465   1.028   0.601  -0.054
 5167TIP3    H215466   1.177   0.579  -0.041
 5168TIP3   OH215467   6.315   1.369   1.254
 5168TIP3    H115468   6.390   1.403   1.303
 5168TIP3    H215469   6.352   1.345   1.169
 5169TIP3   OH215470   6.673   5.895   0.291
 5169TIP3    H115471   6.677   5.800   0.282
 5169TIP3    H215472   6.603   5.922   0.232
 5170TIP3   OH215473   0.154   5.167   4.497
 5170TIP3    H115474   0.116   5.210   4.574
 5170TIP3    H215475   0.081   5.158   4.436
 5171TIP3   OH215476   5.796   3.966   0.218
 5171TIP3    H115477   5.744   3.935   0.292
 5171TIP3    H215478   5.797   3.893   0.157
 5172TIP3   OH215479   2.039   4.397   4.383
 5172TIP3    H115480   2.026   4.489   4.406
 5172TIP3    H215481   1.961   4.353   4.416
 5173TIP3   OH215482   4.385   1.157   2.047
 5173TIP3    H115483   4.419   1.089   1.989
 5173TIP3    H215484   4.328   1.210   1.992
 5174TIP3   OH215485   2.197   4.564   0.263
 5174TIP3    H115486   2.110   4.569   0.302
 5174TIP3    H215487   2.253   4.533   0.334
 5175TIP3   OH215488   5.550   4.595   4.197
 5175TIP3    H115489   5.544   4.690   4.206
 5175TIP3    H215490   5.641   4.575   4.219
 5176TIP3   OH215491   5.505   2.908   3.112
 5176TIP3    H115492   5.575   2.951   3.161
 5176TIP3    H215493   5.528   2.921   3.020
 5177TIP3   OH215494   2.404   6.486   1.946
 5177TIP3    H115495   2.358   6.457   1.868
 5177TIP3    H215496   2.446   6.568   1.921
 5178TIP3   OH215497   3.346   4.104   1.765
 5178TIP3    H115498   3.417   4.087   1.703
 5178TIP3    H215499   3.274   4.136   1.711
 5179TIP3   OH215500   0.823   5.559   0.070
 5179TIP3    H115501   0.854   5.523  -0.013
 5179TIP3    H215502   0.767   5.491   0.107
 5180TIP3   OH215503   0.666   3.851   2.128
 5180TIP3    H115504   0.693   3.769   2.169
 5180TIP3    H215505   0.746   3.904   2.123
 5181TIP3   OH215506   6.107   5.143   5.624
 5181TIP3    H115507   6.138   5.226   5.588
 5181TIP3    H215508   6.081   5.165   5.714
 5182TIP3   OH215509   4.861   2.767   3.697
 5182TIP3    H115510   4.924   2.811   3.639
 5182TIP3    H215511   4.831   2.835   3.756
 5183TIP3   OH215512   5.311   1.337   0.117
 5183TIP3    H115513   5.310   1.244   0.137
 5183TIP3    H215514   5.368   1.376   0.185
 5184TIP3   OH215515   3.482   2.547   2.851
 5184TIP3    H115516   3.453   2.483   2.786
 5184TIP3    H215517   3.409   2.553   2.913
 5185TIP3   OH215518   6.079   0.762   5.626
 5185TIP3    H115519   6.013   0.701   5.592
 5185TIP3    H215520   6.053   0.847   5.591
 5186TIP3   OH215521   3.343   1.310   2.984
 5186TIP3    H115522   3.393   1.383   3.021
 5186TIP3    H215523   3.268   1.300   3.043
 5187TIP3   OH215524   4.096   0.069   4.168
 5187TIP3    H115525   4.139   0.053   4.085
 5187TIP3    H215526   4.004   0.083   4.145
 5188TIP3   OH215527   5.161   2.891   1.236
 5188TIP3    H115528   5.078   2.873   1.193
 5188TIP3    H215529   5.227   2.879   1.168
 5189TIP3   OH215530   6.918   4.073   4.752
 5189TIP3    H115531   6.980   4.005   4.725
 5189TIP3    H215532   6.957   4.155   4.724
 5190TIP3   OH215533   4.348   6.820   4.484
 5190TIP3    H115534   4.395   6.811   4.567
 5190TIP3    H215535   4.257   6.833   4.509
 5191TIP3   OH215536   2.031   0.912   2.325
 5191TIP3    H115537   2.076   0.828   2.325
 5191TIP3    H215538   1.997   0.922   2.414
 5192TIP3   OH215539   0.623   2.375   5.653
 5192TIP3    H115540   0.605   2.450   5.710
 5192TIP3    H215541   0.616   2.299   5.711
 5193TIP3   OH215542   2.283   6.666   0.342
 5193TIP3    H115543   2.194   6.688   0.369
 5193TIP3    H215544   2.285   6.681   0.248
 5194TIP3   OH215545   2.501   3.407   0.786
 5194TIP3    H115546   2.554   3.398   0.865
 5194TIP3    H215547   2.556   3.458   0.726
 5195TIP3   OH215548   0.664   2.431   2.418
 5195TIP3    H115549   0.745   2.481   2.430
 5195TIP3    H215550   0.613   2.449   2.497
 5196TIP3   OH215551   6.460   6.610   1.166
 5196TIP3    H115552   6.491   6.531   1.122
 5196TIP3    H215553   6.459   6.586   1.259
 5197TIP3   OH215554   6.823   1.751   3.744
 5197TIP3    H115555   6.843   1.764   3.652
 5197TIP3    H215556   6.860   1.665   3.765
 5198TIP3   OH215557   3.761   2.432   1.052
 5198TIP3    H115558   3.766   2.410   0.959
 5198TIP3    H215559   3.805   2.360   1.097
 5199TIP3   OH215560   4.931   6.141   5.605
 5199TIP3    H115561   4.962   6.172   5.520
 5199TIP3    H215562   4.910   6.048   5.591
 5200TIP3   OH215563   5.076   2.323   3.775
 5200TIP3    H115564   5.143   2.262   3.744
 5200TIP3    H215565   5.071   2.307   3.869
 5201TIP3   OH215566   2.337   5.153   4.056
 5201TIP3    H115567   2.404   5.220   4.068
 5201TIP3    H215568   2.283   5.159   4.134
 5202TIP3   OH215569   2.543   1.068   0.304
 5202TIP3    H115570   2.521   0.981   0.270
 5202TIP3    H215571   2.626   1.090   0.261
 5203TIP3   OH215572   2.092   3.379   3.952
 5203TIP3    H115573   2.124   3.414   3.869
 5203TIP3    H215574   2.004   3.416   3.962
 5204TIP3   OH215575   4.366   3.737   3.816
 5204TIP3    H115576   4.373   3.714   3.909
 5204TIP3    H215577   4.284   3.696   3.788
 5205TIP3   OH215578   4.083   6.100   3.133
 5205TIP3    H115579   4.000   6.148   3.130
 5205TIP3    H215580   4.145   6.156   3.088
 5206TIP3   OH215581   1.993   5.655   0.541
 5206TIP3    H115582   1.998   5.565   0.507
 5206TIP3    H215583   1.927   5.697   0.486
 5207TIP3   OH215584   3.507   4.469   3.630
 5207TIP3    H115585   3.490   4.524   3.706
 5207TIP3    H215586   3.485   4.525   3.555
 5208TIP3   OH215587   0.279   2.100   0.435
 5208TIP3    H115588   0.284   2.037   0.507
 5208TIP3    H215589   0.300   2.049   0.357
 5209TIP3   OH215590   3.657   2.317   3.962
 5209TIP3    H115591   3.711   2.391   3.934
 5209TIP3    H215592   3.633   2.273   3.880
 5210TIP3   OH215593   2.102   5.608   5.083
 5210TIP3    H115594   2.184   5.590   5.129
 5210TIP3    H215595   2.043   5.641   5.151
 5211TIP3   OH215596   4.548   4.605   5.359
 5211TIP3    H115597   4.625   4.555   5.388
 5211TIP3    H215598   4.549   4.684   5.414
 5212TIP3   OH215599   3.481   4.459   4.194
 5212TIP3    H115600   3.505   4.395   4.127
 5212TIP3    H215601   3.432   4.526   4.146
 5213TIP3   OH215602   7.153   0.422   2.033
 5213TIP3    H115603   7.140   0.459   1.945
 5213TIP3    H215604   7.075   0.447   2.082
 5214TIP3   OH215605   4.692   4.639   0.307
 5214TIP3    H115606   4.767   4.697   0.295
 5214TIP3    H215607   4.675   4.642   0.401
 5215TIP3   OH215608   4.319   1.191   5.383
 5215TIP3    H115609   4.401   1.162   5.343
 5215TIP3    H215610   4.279   1.111   5.418
 5216TIP3   OH215611   6.204   5.237   4.997
 5216TIP3    H115612   6.189   5.147   5.023
 5216TIP3    H215613   6.257   5.231   4.917
 5217TIP3   OH215614   6.568   2.288   4.359
 5217TIP3    H115615   6.489   2.241   4.331
 5217TIP3    H215616   6.536   2.372   4.390
 5218TIP3   OH215617   2.420   2.563   3.031
 5218TIP3    H115618   2.394   2.473   3.014
 5218TIP3    H215619   2.338   2.612   3.031
 5219TIP3   OH215620   4.159   4.000   0.600
 5219TIP3    H115621   4.116   3.917   0.620
 5219TIP3    H215622   4.248   3.975   0.576
 5220TIP3   OH215623   6.471   4.840   4.621
 5220TIP3    H115624   6.531   4.824   4.548
 5220TIP3    H215625   6.522   4.816   4.699
 5221TIP3   OH215626   4.145   0.666   3.088
 5221TIP3    H115627   4.085   0.659   3.162
 5221TIP3    H215628   4.185   0.752   3.098
 5222TIP3   OH215629   3.388   2.158   4.344
 5222TIP3    H115630   3.307   2.109   4.358
 5222TIP3    H215631   3.451   2.093   4.313
 5223TIP3   OH215632   0.908   2.730   3.789
 5223TIP3    H115633   0.986   2.785   3.800
 5223TIP3    H215634   0.935   2.664   3.725
 5224TIP3   OH215635   0.739   3.287   4.946
 5224TIP3    H115636   0.750   3.210   5.002
 5224TIP3    H215637   0.648   3.314   4.962
 5225TIP3   OH215638   3.490   5.339   3.912
 5225TIP3    H115639   3.534   5.310   3.992
 5225TIP3    H215640   3.521   5.278   3.845
 5226TIP3   OH215641   1.258   3.125   5.833
 5226TIP3    H115642   1.197   3.116   5.759
 5226TIP3    H215643   1.296   3.038   5.844
 5227TIP3   OH215644   2.417   1.395   0.392
 5227TIP3    H115645   2.363   1.448   0.451
 5227TIP3    H215646   2.443   1.320   0.446
 5228TIP3   OH215647   4.397   1.237   0.695
 5228TIP3    H115648   4.431   1.306   0.638
 5228TIP3    H215649   4.447   1.245   0.776
 5229TIP3   OH215650   1.519   0.085   1.325
 5229TIP3    H115651   1.606   0.121   1.338
 5229TIP3    H215652   1.479   0.086   1.412
 5230TIP3   OH215653   6.737   5.490   1.262
 5230TIP3    H115654   6.721   5.502   1.355
 5230TIP3    H215655   6.660   5.527   1.219
 5231TIP3   OH215656   6.618   1.918   4.673
 5231TIP3    H115657   6.649   1.947   4.759
 5231TIP3    H215658   6.697   1.909   4.621
 5232TIP3   OH215659   2.607   0.124   2.116
 5232TIP3    H115660   2.668   0.190   2.081
 5232TIP3    H215661   2.521   0.151   2.084
 5233TIP3   OH215662   2.834   1.574   1.252
 5233TIP3    H115663   2.852   1.491   1.296
 5233TIP3    H215664   2.821   1.550   1.160
 5234TIP3   OH215665   4.636   6.340   1.558
 5234TIP3    H115666   4.685   6.269   1.516
 5234TIP3    H215667   4.698   6.412   1.564
 5235TIP3   OH215668   5.143   3.158   5.398
 5235TIP3    H115669   5.081   3.228   5.417
 5235TIP3    H215670   5.162   3.168   5.304
 5236TIP3   OH215671   1.979   5.889   0.167
 5236TIP3    H115672   2.016   5.950   0.103
 5236TIP3    H215673   2.000   5.802   0.131
 5237TIP3   OH215674   6.232   2.641   5.584
 5237TIP3    H115675   6.321   2.651   5.551
 5237TIP3    H215676   6.202   2.557   5.547
 5238TIP3   OH215677   6.999   5.107   1.006
 5238TIP3    H115678   6.927   5.124   0.946
 5238TIP3    H215679   6.957   5.081   1.088
 5239TIP3   OH215680   1.510   2.277   1.210
 5239TIP3    H115681   1.457   2.331   1.269
 5239TIP3    H215682   1.490   2.310   1.122
 5240TIP3   OH215683   6.213   4.835   3.816
 5240TIP3    H115684   6.263   4.882   3.750
 5240TIP3    H215685   6.156   4.902   3.856
 5241TIP3   OH215686   5.629   0.682   1.321
 5241TIP3    H115687   5.723   0.687   1.304
 5241TIP3    H215688   5.614   0.744   1.392
 5242TIP3   OH215689   2.090   0.008   5.682
 5242TIP3    H115690   2.085   0.009   5.586
 5242TIP3    H215691   2.084  -0.085   5.705
 5243TIP3   OH215692   6.924   2.089   1.504
 5243TIP3    H115693   6.943   1.998   1.483
 5243TIP3    H215694   6.929   2.093   1.600
 5244TIP3   OH215695   2.675   0.848   1.979
 5244TIP3    H115696   2.673   0.854   2.075
 5244TIP3    H215697   2.739   0.779   1.960
 5245TIP3   OH215698   3.213   6.604   3.197
 5245TIP3    H115699   3.180   6.625   3.110
 5245TIP3    H215700   3.289   6.548   3.181
 5246TIP3   OH215701   4.728   0.488   5.788
 5246TIP3    H115702   4.662   0.557   5.781
 5246TIP3    H215703   4.702   0.424   5.722
 5247TIP3   OH215704   4.891   0.508   4.429
 5247TIP3    H115705   4.969   0.457   4.407
 5247TIP3    H215706   4.925   0.590   4.464
 5248TIP3   OH215707   5.808   0.375   0.921
 5248TIP3    H115708   5.808   0.470   0.905
 5248TIP3    H215709   5.800   0.368   1.016
 5249TIP3   OH215710   5.412   3.564   5.120
 5249TIP3    H115711   5.377   3.650   5.097
 5249TIP3    H215712   5.507   3.576   5.116
 5250TIP3   OH215713   0.258   1.896   1.170
 5250TIP3    H115714   0.257   1.859   1.082
 5250TIP3    H215715   0.326   1.963   1.168
 5251TIP3   OH215716   2.604   4.719   1.301
 5251TIP3    H115717   2.654   4.643   1.332
 5251TIP3    H215718   2.612   4.783   1.371
 5252TIP3   OH215719   0.586   4.532   0.414
 5252TIP3    H115720   0.657   4.515   0.351
 5252TIP3    H215721   0.598   4.465   0.481
 5253TIP3   OH215722   1.620   4.088   4.199
 5253TIP3    H115723   1.551   4.087   4.266
 5253TIP3    H215724   1.670   4.167   4.218
 5254TIP3   OH215725   3.022   0.751   4.277
 5254TIP3    H115726   2.995   0.713   4.193
 5254TIP3    H215727   3.116   0.765   4.268
 5255TIP3   OH215728   2.246   2.873   1.478
 5255TIP3    H115729   2.304   2.799   1.496
 5255TIP3    H215730   2.302   2.950   1.488
 5256TIP3   OH215731   1.474   5.193   2.453
 5256TIP3    H115732   1.478   5.176   2.358
 5256TIP3    H215733   1.385   5.224   2.469
 5257TIP3   OH215734   4.920   3.940   2.075
 5257TIP3    H115735   4.903   3.946   2.169
 5257TIP3    H215736   4.896   4.026   2.041
 5258TIP3   OH215737   5.007   4.359   1.891
 5258TIP3    H115738   4.946   4.290   1.915
 5258TIP3    H215739   5.086   4.340   1.942
 5259TIP3   OH215740   2.976   4.516   2.197
 5259TIP3    H115741   2.957   4.493   2.288
 5259TIP3    H215742   2.934   4.601   2.185
 5260TIP3   OH215743   1.759   4.418   1.206
 5260TIP3    H115744   1.686   4.368   1.243
 5260TIP3    H215745   1.758   4.501   1.253
 5261TIP3   OH215746   0.723   6.196   4.982
 5261TIP3    H115747   0.758   6.107   4.977
 5261TIP3    H215748   0.721   6.227   4.892
 5262TIP3   OH215749   3.578   2.430   1.277
 5262TIP3    H115750   3.623   2.405   1.196
 5262TIP3    H215751   3.629   2.391   1.347
 5263TIP3   OH215752   5.957   1.734   1.774
 5263TIP3    H115753   5.864   1.757   1.765
 5263TIP3    H215754   5.993   1.747   1.686
 5264TIP3   OH215755   0.574   3.402   5.565
 5264TIP3    H115756   0.654   3.368   5.604
 5264TIP3    H215757   0.599   3.485   5.526
 5265TIP3   OH215758   5.690   4.128   3.188
 5265TIP3    H115759   5.752   4.088   3.126
 5265TIP3    H215760   5.662   4.055   3.244
 5266TIP3   OH215761   0.911   3.991   4.906
 5266TIP3    H115762   0.903   3.925   4.837
 5266TIP3    H215763   0.974   3.955   4.968
 5267TIP3   OH215764   2.749   6.069   0.746
 5267TIP3    H115765   2.677   6.097   0.802
 5267TIP3    H215766   2.716   6.081   0.657
 5268TIP3   OH215767   0.984   5.056   4.294
 5268TIP3    H115768   1.006   4.963   4.288
 5268TIP3    H215769   0.936   5.064   4.376
 5269TIP3   OH215770   5.687   1.598   3.932
 5269TIP3    H115771   5.708   1.683   3.894
 5269TIP3    H215772   5.772   1.557   3.947
 5270TIP3   OH215773   1.158   3.086   5.576
 5270TIP3    H115774   1.115   3.003   5.598
 5270TIP3    H215775   1.086   3.145   5.555
 5271TIP3   OH215776   2.378   5.642   1.315
 5271TIP3    H115777   2.286   5.628   1.341
 5271TIP3    H215778   2.374   5.664   1.222
 5272TIP3   OH215779   2.571   3.934   3.869
 5272TIP3    H115780   2.614   3.905   3.789
 5272TIP3    H215781   2.563   3.855   3.922
 5273TIP3   OH215782   4.669   0.695   3.296
 5273TIP3    H115783   4.731   0.636   3.252
 5273TIP3    H215784   4.632   0.642   3.367
 5274TIP3   OH215785   1.974   5.374   3.431
 5274TIP3    H115786   1.897   5.416   3.395
 5274TIP3    H215787   1.966   5.387   3.526
 5275TIP3   OH215788   0.609   3.820   1.062
 5275TIP3    H115789   0.532   3.872   1.087
 5275TIP3    H215790   0.606   3.818   0.966
 5276TIP3   OH215791   1.344   4.394   3.991
 5276TIP3    H115792   1.251   4.419   3.983
 5276TIP3    H215793   1.392   4.475   3.971
 5277TIP3   OH215794   2.391   5.976   2.665
 5277TIP3    H115795   2.344   6.059   2.659
 5277TIP3    H215796   2.325   5.909   2.646
 5278TIP3   OH215797   3.307   3.516   3.186
 5278TIP3    H115798   3.388   3.557   3.156
 5278TIP3    H215799   3.244   3.534   3.116
 5279TIP3   OH215800   0.766   0.594   3.156
 5279TIP3    H115801   0.793   0.657   3.089
 5279TIP3    H215802   0.707   0.644   3.213
 5280TIP3   OH215803   2.604   1.979   1.763
 5280TIP3    H115804   2.538   1.989   1.831
 5280TIP3    H215805   2.657   2.058   1.769
 5281TIP3   OH215806   5.276   3.513   0.002
 5281TIP3    H115807   5.203   3.457  -0.026
 5281TIP3    H215808   5.294   3.486   0.092
 5282TIP3   OH215809   6.546   4.304   0.775
 5282TIP3    H115810   6.615   4.363   0.743
 5282TIP3    H215811   6.507   4.268   0.695
 5283TIP3   OH215812   2.147   6.198   2.135
 5283TIP3    H115813   2.074   6.174   2.078
 5283TIP3    H215814   2.115   6.180   2.223
 5284TIP3   OH215815   3.181   5.807   0.969
 5284TIP3    H115816   3.163   5.716   0.994
 5284TIP3    H215817   3.103   5.835   0.922
 5285TIP3   OH215818   2.943   2.857   3.928
 5285TIP3    H115819   2.971   2.773   3.964
 5285TIP3    H215820   3.022   2.910   3.927
 5286TIP3   OH215821   3.169   4.146   1.553
 5286TIP3    H115822   3.209   4.109   1.475
 5286TIP3    H215823   3.100   4.083   1.577
 5287TIP3   OH215824   1.380   1.212   5.603
 5287TIP3    H115825   1.417   1.124   5.597
 5287TIP3    H215826   1.431   1.264   5.540
 5288TIP3   OH215827   1.120   3.963   2.960
 5288TIP3    H115828   1.131   3.929   3.049
 5288TIP3    H215829   1.033   3.932   2.934
 5289TIP3   OH215830   3.927   1.344   3.326
 5289TIP3    H115831   3.995   1.356   3.392
 5289TIP3    H215832   3.846   1.334   3.376
 5290TIP3   OH215833   2.509   3.900   2.115
 5290TIP3    H115834   2.489   3.982   2.160
 5290TIP3    H215835   2.604   3.893   2.119
 5291TIP3   OH215836   0.102   6.166   3.259
 5291TIP3    H115837   0.098   6.080   3.217
 5291TIP3    H215838   0.031   6.215   3.219
 5292TIP3   OH215839   2.140   4.053   5.528
 5292TIP3    H115840   2.200   4.024   5.459
 5292TIP3    H215841   2.117   3.973   5.575
 5293TIP3   OH215842   4.783   4.897   3.556
 5293TIP3    H115843   4.864   4.945   3.540
 5293TIP3    H215844   4.718   4.943   3.503
 5294TIP3   OH215845   0.336   5.365   4.947
 5294TIP3    H115846   0.421   5.339   4.912
 5294TIP3    H215847   0.334   5.460   4.937
 5295TIP3   OH215848   5.449   0.615   2.219
 5295TIP3    H115849   5.387   0.682   2.189
 5295TIP3    H215850   5.424   0.599   2.310
 5296TIP3   OH215851   6.799   6.371   5.448
 5296TIP3    H115852   6.811   6.421   5.529
 5296TIP3    H215853   6.726   6.415   5.403
 5297TIP3   OH215854   1.868   4.088   2.234
 5297TIP3    H115855   1.833   4.084   2.145
 5297TIP3    H215856   1.891   4.180   2.247
 5298TIP3   OH215857   3.229   2.670   4.393
 5298TIP3    H115858   3.181   2.719   4.459
 5298TIP3    H215859   3.291   2.733   4.356
 5299TIP3   OH215860   4.357   4.383   5.679
 5299TIP3    H115861   4.304   4.441   5.625
 5299TIP3    H215862   4.330   4.295   5.653
 5300TIP3   OH215863   0.556   0.708   3.345
 5300TIP3    H115864   0.547   0.664   3.430
 5300TIP3    H215865   0.467   0.733   3.322
 5301TIP3   OH215866   3.729   0.437   1.612
 5301TIP3    H115867   3.634   0.443   1.599
 5301TIP3    H215868   3.738   0.388   1.694
 5302TIP3   OH215869   4.140   3.589   5.093
 5302TIP3    H115870   4.163   3.649   5.022
 5302TIP3    H215871   4.103   3.645   5.161
 5303TIP3   OH215872   4.945   6.121   3.833
 5303TIP3    H115873   4.918   6.055   3.897
 5303TIP3    H215874   4.897   6.099   3.753
 5304TIP3   OH215875   3.734   2.752   3.648
 5304TIP3    H115876   3.742   2.796   3.564
 5304TIP3    H215877   3.659   2.694   3.638
 5305TIP3   OH215878   3.564   2.541   4.683
 5305TIP3    H115879   3.515   2.622   4.698
 5305TIP3    H215880   3.589   2.511   4.770
 5306TIP3   OH215881   5.362   5.783   0.762
 5306TIP3    H115882   5.434   5.838   0.731
 5306TIP3    H215883   5.378   5.774   0.856
 5307TIP3   OH215884   4.420   5.576   2.742
 5307TIP3    H115885   4.510   5.608   2.749
 5307TIP3    H215886   4.367   5.646   2.780
 5308TIP3   OH215887   5.055   3.679   2.646
 5308TIP3    H115888   5.134   3.625   2.640
 5308TIP3    H215889   4.996   3.628   2.702
 5309TIP3   OH215890   3.863   3.681   5.590
 5309TIP3    H115891   3.811   3.616   5.544
 5309TIP3    H215892   3.803   3.753   5.606
 5310TIP3   OH215893   1.360   6.169   1.089
 5310TIP3    H115894   1.348   6.161   0.994
 5310TIP3    H215895   1.417   6.096   1.112
 5311TIP3   OH215896   1.745   2.275   5.573
 5311TIP3    H115897   1.751   2.305   5.482
 5311TIP3    H215898   1.653   2.287   5.596
 5312TIP3   OH215899   0.722   2.469   2.857
 5312TIP3    H115900   0.657   2.463   2.787
 5312TIP3    H215901   0.792   2.410   2.829
 5313TIP3   OH215902   0.280   4.925   3.238
 5313TIP3    H115903   0.205   4.927   3.297
 5313TIP3    H215904   0.244   4.893   3.155
 5314TIP3   OH215905   0.765   2.736   0.634
 5314TIP3    H115906   0.743   2.808   0.693
 5314TIP3    H215907   0.744   2.769   0.547
 5315TIP3   OH215908   1.906   6.132   5.077
 5315TIP3    H115909   1.997   6.120   5.051
 5315TIP3    H215910   1.895   6.074   5.152
 5316TIP3   OH215911   5.510   5.896   0.009
 5316TIP3    H115912   5.554   5.841   0.075
 5316TIP3    H215913   5.426   5.919   0.049
 5317TIP3   OH215914   5.832   6.687   2.450
 5317TIP3    H115915   5.801   6.733   2.528
 5317TIP3    H215916   5.889   6.749   2.406
 5318TIP3   OH215917   4.446   0.175   4.310
 5318TIP3    H115918   4.355   0.202   4.322
 5318TIP3    H215919   4.477   0.157   4.398
 5319TIP3   OH215920   2.952   1.980   3.934
 5319TIP3    H115921   2.921   1.899   3.893
 5319TIP3    H215922   2.914   1.979   4.022
 5320TIP3   OH215923   0.567   6.396   3.533
 5320TIP3    H115924   0.535   6.306   3.544
 5320TIP3    H215925   0.531   6.443   3.608
 5321TIP3   OH215926   1.056   4.914   2.789
 5321TIP3    H115927   1.016   4.881   2.870
 5321TIP3    H215928   1.031   5.006   2.786
 5322TIP3   OH215929   1.638   0.615   3.693
 5322TIP3    H115930   1.569   0.606   3.628
 5322TIP3    H215931   1.624   0.541   3.752
 5323TIP3   OH215932   1.949   4.301   1.725
 5323TIP3    H115933   2.018   4.305   1.658
 5323TIP3    H215934   1.871   4.272   1.678
 5324TIP3   OH215935   5.387   0.095   4.496
 5324TIP3    H115936   5.358   0.003   4.495
 5324TIP3    H215937   5.481   0.090   4.478
 5325TIP3   OH215938   4.983   3.708   3.547
 5325TIP3    H115939   4.981   3.794   3.506
 5325TIP3    H215940   4.978   3.646   3.474
 5326TIP3   OH215941   4.239   0.716   5.724
 5326TIP3    H115942   4.319   0.674   5.694
 5326TIP3    H215943   4.269   0.793   5.773
 5327TIP3   OH215944   4.452   4.551   2.088
 5327TIP3    H115945   4.493   4.554   2.001
 5327TIP3    H215946   4.491   4.474   2.130
 5328TIP3   OH215947   5.084   5.035   5.737
 5328TIP3    H115948   5.110   5.071   5.653
 5328TIP3    H215949   5.165   5.001   5.775
 5329TIP3   OH215950   3.509   6.537   0.889
 5329TIP3    H115951   3.441   6.469   0.888
 5329TIP3    H215952   3.587   6.493   0.855
 5330TIP3   OH215953   3.060   1.087   1.965
 5330TIP3    H115954   3.018   1.123   1.887
 5330TIP3    H215955   3.145   1.055   1.934
 5331TIP3   OH215956   6.202   6.799   2.598
 5331TIP3    H115957   6.144   6.730   2.631
 5331TIP3    H215958   6.144   6.854   2.544
 5332TIP3   OH215959   3.898   0.870   2.156
 5332TIP3    H115960   3.898   0.869   2.060
 5332TIP3    H215961   3.950   0.946   2.179
 5333TIP3   OH215962   1.418   4.041   4.373
 5333TIP3    H115963   1.438   3.950   4.395
 5333TIP3    H215964   1.393   4.081   4.456
 5334TIP3   OH215965   1.357   2.162   0.609
 5334TIP3    H115966   1.420   2.212   0.557
 5334TIP3    H215967   1.345   2.215   0.688
 5335TIP3   OH215968   5.350   0.079   2.732
 5335TIP3    H115969   5.330   0.148   2.670
 5335TIP3    H215970   5.359   0.123   2.816
 5336TIP3   OH215971   5.894   0.595   2.262
 5336TIP3    H115972   5.969   0.579   2.205
 5336TIP3    H215973   5.923   0.662   2.323
 5337TIP3   OH215974   2.453   3.832   1.714
 5337TIP3    H115975   2.397   3.845   1.791
 5337TIP3    H215976   2.391   3.825   1.641
 5338TIP3   OH215977   3.628   1.343   3.431
 5338TIP3    H115978   3.540   1.309   3.413
 5338TIP3    H215979   3.614   1.436   3.450
 5339TIP3   OH215980   5.700   6.063   3.210
 5339TIP3    H115981   5.764   6.111   3.263
 5339TIP3    H215982   5.703   5.974   3.243
 5340TIP3   OH215983   5.767   0.058   5.007
 5340TIP3    H115984   5.715   0.137   5.023
 5340TIP3    H215985   5.720   0.013   4.937
 5341TIP3   OH215986   0.124   5.689   2.910
 5341TIP3    H115987   0.151   5.715   2.821
 5341TIP3    H215988   0.032   5.712   2.914
 5342TIP3   OH215989   2.394   0.767   5.267
 5342TIP3    H115990   2.458   0.704   5.301
 5342TIP3    H215991   2.423   0.785   5.178
 5343TIP3   OH215992   4.683   3.969   3.195
 5343TIP3    H115993   4.688   3.876   3.216
 5343TIP3    H215994   4.747   4.010   3.253
 5344TIP3   OH215995   4.425   3.915   4.089
 5344TIP3    H115996   4.434   3.829   4.048
 5344TIP3    H215997   4.410   3.976   4.016
 5345TIP3   OH215998   0.535   2.522   2.653
 5345TIP3    H115999   0.458   2.475   2.622
 5345TIP3    H216000   0.500   2.603   2.691
 5346TIP3   OH216001   2.181   5.674   3.418
 5346TIP3    H116002   2.197   5.627   3.337
 5346TIP3    H216003   2.266   5.712   3.441
 5347TIP3   OH216004   4.322   2.991   2.352
 5347TIP3    H116005   4.387   2.940   2.303
 5347TIP3    H216006   4.361   3.078   2.361
 5348TIP3   OH216007   3.421   0.372   5.755
 5348TIP3    H116008   3.427   0.463   5.784
 5348TIP3    H216009   3.450   0.374   5.664
 5349TIP3   OH216010   6.344   5.991   4.505
 5349TIP3    H116011   6.282   6.013   4.575
 5349TIP3    H216012   6.343   6.067   4.447
 5350TIP3   OH216013   6.275   5.873   2.617
 5350TIP3    H116014   6.308   5.785   2.634
 5350TIP3    H216015   6.347   5.919   2.574
 5351TIP3   OH216016   2.297   0.232   4.425
 5351TIP3    H116017   2.282   0.163   4.360
 5351TIP3    H216018   2.229   0.296   4.408
 5352TIP3   OH216019   3.144   5.754   0.315
 5352TIP3    H116020   3.067   5.746   0.371
 5352TIP3    H216021   3.157   5.665   0.280
 5353TIP3   OH216022   3.431   2.759   4.742
 5353TIP3    H116023   3.357   2.731   4.797
 5353TIP3    H216024   3.390   2.785   4.659
 5354TIP3   OH216025   0.237   2.033   1.827
 5354TIP3    H116026   0.217   2.112   1.878
 5354TIP3    H216027   0.156   2.010   1.783
 5355TIP3   OH216028   2.861   0.787   4.539
 5355TIP3    H116029   2.831   0.698   4.559
 5355TIP3    H216030   2.887   0.783   4.447
 5356TIP3   OH216031   1.639   6.362   4.234
 5356TIP3    H116032   1.720   6.413   4.241
 5356TIP3    H216033   1.604   6.361   4.323
 5357TIP3   OH216034   4.569   3.470   2.466
 5357TIP3    H116035   4.581   3.472   2.561
 5357TIP3    H216036   4.541   3.559   2.443
 5358TIP3   OH216037   6.899   3.100   3.567
 5358TIP3    H116038   6.978   3.061   3.529
 5358TIP3    H216039   6.901   3.072   3.659
 5359TIP3   OH216040   1.874   4.050   2.717
 5359TIP3    H116041   1.814   3.978   2.733
 5359TIP3    H216042   1.953   4.008   2.681
 5360TIP3   OH216043   3.023   5.135   2.143
 5360TIP3    H116044   3.054   5.203   2.203
 5360TIP3    H216045   3.055   5.163   2.057
 5361TIP3   OH216046   3.943   0.726   5.836
 5361TIP3    H116047   3.865   0.780   5.849
 5361TIP3    H216048   4.004   0.755   5.904
 5362TIP3   OH216049   5.574   4.780   5.798
 5362TIP3    H116050   5.661   4.820   5.798
 5362TIP3    H216051   5.578   4.712   5.864
 5363TIP3   OH216052   0.072   4.099   1.928
 5363TIP3    H116053   0.057   4.172   1.869
 5363TIP3    H216054   0.146   4.051   1.889
 5364TIP3   OH216055   3.738   1.399   5.888
 5364TIP3    H116056   3.705   1.468   5.944
 5364TIP3    H216057   3.704   1.419   5.801
 5365TIP3   OH216058   0.676   4.846   4.816
 5365TIP3    H116059   0.624   4.789   4.872
 5365TIP3    H216060   0.767   4.831   4.844
 5366TIP3   OH216061   4.403   5.267   3.239
 5366TIP3    H116062   4.366   5.347   3.202
 5366TIP3    H216063   4.458   5.297   3.311
 5367TIP3   OH216064   5.099   2.360   5.174
 5367TIP3    H116065   5.092   2.371   5.269
 5367TIP3    H216066   5.138   2.442   5.144
 5368TIP3   OH216067   4.256   2.065   5.818
 5368TIP3    H116068   4.314   2.091   5.747
 5368TIP3    H216069   4.232   2.148   5.860
 5369TIP3   OH216070   5.493   6.175   5.650
 5369TIP3    H116071   5.479   6.196   5.557
 5369TIP3    H216072   5.428   6.227   5.696
 5370TIP3   OH216073   2.196   3.347   1.055
 5370TIP3    H116074   2.221   3.438   1.073
 5370TIP3    H216075   2.211   3.301   1.138
 5371TIP3   OH216076   3.621   5.658   5.430
 5371TIP3    H116077   3.698   5.702   5.394
 5371TIP3    H216078   3.602   5.706   5.511
 5372TIP3   OH216079   0.566   6.759   4.700
 5372TIP3    H116080   0.537   6.796   4.783
 5372TIP3    H216081   0.596   6.671   4.723
 5373TIP3   OH216082   6.895   0.535   2.134
 5373TIP3    H116083   6.814   0.565   2.176
 5373TIP3    H216084   6.876   0.537   2.041
 5374TIP3   OH216085   0.122   2.450   2.941
 5374TIP3    H116086   0.163   2.495   2.867
 5374TIP3    H216087   0.051   2.399   2.902
 5375TIP3   OH216088   6.007   2.193   4.835
 5375TIP3    H116089   6.034   2.262   4.895
 5375TIP3    H216090   6.047   2.217   4.751
 5376TIP3   OH216091   6.573   2.757   2.643
 5376TIP3    H116092   6.608   2.668   2.635
 5376TIP3    H216093   6.597   2.784   2.731
 5377TIP3   OH216094   6.253   2.962   2.871
 5377TIP3    H116095   6.320   3.030   2.863
 5377TIP3    H216096   6.192   2.997   2.936
 5378TIP3   OH216097   0.210   2.203   3.505
 5378TIP3    H116098   0.285   2.261   3.493
 5378TIP3    H216099   0.176   2.188   3.417
 5379TIP3   OH216100   6.762   4.135   3.711
 5379TIP3    H116101   6.746   4.057   3.658
 5379TIP3    H216102   6.705   4.125   3.787
 5380TIP3   OH216103   0.944   6.083   1.030
 5380TIP3    H116104   0.979   6.071   0.942
 5380TIP3    H216105   1.000   6.150   1.069
 5381TIP3   OH216106   0.210   3.377   0.258
 5381TIP3    H116107   0.246   3.392   0.345
 5381TIP3    H216108   0.115   3.373   0.271
 5382TIP3   OH216109   1.822   4.721   3.831
 5382TIP3    H116110   1.827   4.741   3.737
 5382TIP3    H216111   1.860   4.633   3.839
 5383TIP3   OH216112   1.125   3.001   3.419
 5383TIP3    H116113   1.159   2.923   3.375
 5383TIP3    H216114   1.103   3.061   3.348
 5384TIP3   OH216115   4.356   4.472   0.347
 5384TIP3    H116116   4.362   4.567   0.335
 5384TIP3    H216117   4.264   4.456   0.365
 5385TIP3   OH216118   4.569   4.720   1.477
 5385TIP3    H116119   4.504   4.650   1.487
 5385TIP3    H216120   4.521   4.793   1.440
 5386TIP3   OH216121   1.569   0.630   3.996
 5386TIP3    H116122   1.626   0.579   3.938
 5386TIP3    H216123   1.480   0.603   3.974
 5387TIP3   OH216124   4.809   6.310   0.422
 5387TIP3    H116125   4.740   6.374   0.443
 5387TIP3    H216126   4.801   6.243   0.489
 5388TIP3   OH216127   4.590   5.432   5.761
 5388TIP3    H116128   4.559   5.399   5.845
 5388TIP3    H216129   4.651   5.364   5.730
 5389TIP3   OH216130   6.785   3.041   3.193
 5389TIP3    H116131   6.695   3.022   3.219
 5389TIP3    H216132   6.837   2.968   3.228
 5390TIP3   OH216133   1.102   5.224   0.746
 5390TIP3    H116134   1.034   5.233   0.813
 5390TIP3    H216135   1.079   5.288   0.679
 5391TIP3   OH216136   1.454   0.361   2.968
 5391TIP3    H116137   1.494   0.397   2.889
 5391TIP3    H216138   1.489   0.272   2.975
 5392TIP3   OH216139   3.006   6.436   1.698
 5392TIP3    H116140   2.969   6.498   1.760
 5392TIP3    H216141   2.935   6.373   1.681
 5393TIP3   OH216142   3.454   1.893   3.158
 5393TIP3    H116143   3.362   1.879   3.137
 5393TIP3    H216144   3.469   1.842   3.237
 5394TIP3   OH216145   7.004   1.191   3.153
 5394TIP3    H116146   6.940   1.186   3.223
 5394TIP3    H216147   7.066   1.120   3.172
 5395TIP3   OH216148   0.798   2.872   4.954
 5395TIP3    H116149   0.720   2.837   4.911
 5395TIP3    H216150   0.765   2.914   5.034
 5396TIP3   OH216151   5.723   4.390   5.884
 5396TIP3    H116152   5.732   4.319   5.821
 5396TIP3    H216153   5.642   4.434   5.858
 5397TIP3   OH216154   5.478   3.763   1.504
 5397TIP3    H116155   5.404   3.702   1.496
 5397TIP3    H216156   5.481   3.785   1.597
 5398TIP3   OH216157   2.478   4.838   5.078
 5398TIP3    H116158   2.531   4.761   5.100
 5398TIP3    H216159   2.475   4.839   4.983
 5399TIP3   OH216160   4.038   5.701   5.043
 5399TIP3    H116161   4.103   5.639   5.076
 5399TIP3    H216162   4.017   5.757   5.118
 5400TIP3   OH216163   4.588   0.730   2.052
 5400TIP3    H116164   4.675   0.690   2.045
 5400TIP3    H216165   4.603   0.822   2.031
 5401TIP3   OH216166   1.112   6.283   2.505
 5401TIP3    H116167   1.151   6.292   2.591
 5401TIP3    H216168   1.034   6.338   2.507
 5402TIP3   OH216169   2.206   0.937   0.429
 5402TIP3    H116170   2.286   0.916   0.380
 5402TIP3    H216171   2.164   1.006   0.377
 5403TIP3   OH216172   0.055   5.120   5.812
 5403TIP3    H116173   0.135   5.081   5.777
 5403TIP3    H216174  -0.001   5.133   5.735
 5404TIP3   OH216175   4.846   0.410   1.855
 5404TIP3    H116176   4.916   0.446   1.801
 5404TIP3    H216177   4.773   0.399   1.794
 5405TIP3   OH216178   4.140   0.162   1.228
 5405TIP3    H116179   4.170   0.072   1.213
 5405TIP3    H216180   4.219   0.214   1.232
 5406TIP3   OH216181   4.601   3.478   4.745
 5406TIP3    H116182   4.573   3.387   4.731
 5406TIP3    H216183   4.692   3.479   4.717
 5407TIP3   OH216184   0.788   6.271   4.715
 5407TIP3    H116185   0.856   6.257   4.649
 5407TIP3    H216186   0.706   6.257   4.668
 5408TIP3   OH216187   0.983   0.952   1.076
 5408TIP3    H116188   1.045   0.965   1.148
 5408TIP3    H216189   1.028   0.988   1.000
 5409TIP3   OH216190   2.989   1.601   5.801
 5409TIP3    H116191   2.958   1.637   5.717
 5409TIP3    H216192   3.083   1.590   5.789
 5410TIP3   OH216193   4.774   1.153   3.138
 5410TIP3    H116194   4.711   1.093   3.178
 5410TIP3    H216195   4.720   1.215   3.090
 5411TIP3   OH216196   1.727   6.765   3.877
 5411TIP3    H116197   1.734   6.748   3.783
 5411TIP3    H216198   1.754   6.856   3.887
 5412TIP3   OH216199   2.069   1.839   2.964
 5412TIP3    H116200   2.089   1.810   3.053
 5412TIP3    H216201   2.134   1.797   2.909
 5413TIP3   OH216202   0.915   4.821   2.329
 5413TIP3    H116203   0.934   4.838   2.236
 5413TIP3    H216204   0.989   4.768   2.359
 5414TIP3   OH216205   1.601   3.273   2.683
 5414TIP3    H116206   1.543   3.316   2.620
 5414TIP3    H216207   1.598   3.329   2.761
 5415TIP3   OH216208   6.310   0.351   3.204
 5415TIP3    H116209   6.387   0.400   3.234
 5415TIP3    H216210   6.243   0.367   3.270
 5416TIP3   OH216211   6.979   4.991   3.299
 5416TIP3    H116212   6.918   4.993   3.373
 5416TIP3    H216213   6.931   4.946   3.230
 5417TIP3   OH216214   0.487   4.614   3.594
 5417TIP3    H116215   0.534   4.694   3.569
 5417TIP3    H216216   0.555   4.547   3.600
 5418TIP3   OH216217   0.914   1.725   0.699
 5418TIP3    H116218   0.917   1.691   0.788
 5418TIP3    H216219   0.821   1.740   0.681
 5419TIP3   OH216220   6.212   6.736   5.162
 5419TIP3    H116221   6.279   6.768   5.223
 5419TIP3    H216222   6.262   6.710   5.084
 5420TIP3   OH216223   5.404   3.244   2.692
 5420TIP3    H116224   5.338   3.255   2.760
 5420TIP3    H216225   5.358   3.198   2.622
 5421TIP3   OH216226   1.088   3.882   5.819
 5421TIP3    H116227   1.160   3.940   5.843
 5421TIP3    H216228   1.022   3.896   5.887
 5422TIP3   OH216229   7.233   0.459   3.737
 5422TIP3    H116230   7.170   0.517   3.694
 5422TIP3    H216231   7.273   0.410   3.665
 5423TIP3   OH216232   4.331   6.125   5.267
 5423TIP3    H116233   4.386   6.200   5.288
 5423TIP3    H216234   4.263   6.160   5.208
 5424TIP3   OH216235   3.345   2.064   2.241
 5424TIP3    H116236   3.297   2.000   2.189
 5424TIP3    H216237   3.346   2.027   2.329
 5425TIP3   OH216238   6.241   1.685   2.587
 5425TIP3    H116239   6.269   1.602   2.548
 5425TIP3    H216240   6.150   1.695   2.559
 5426TIP3   OH216241   5.410   2.847   0.022
 5426TIP3    H116242   5.362   2.916  -0.023
 5426TIP3    H216243   5.426   2.881   0.109
 5427TIP3   OH216244   4.029   3.858   3.202
 5427TIP3    H116245   4.063   3.828   3.287
 5427TIP3    H216246   4.063   3.947   3.193
 5428TIP3   OH216247   5.571   1.976   0.335
 5428TIP3    H116248   5.523   1.952   0.256
 5428TIP3    H216249   5.601   2.065   0.320
 5429TIP3   OH216250   3.594   5.025   4.376
 5429TIP3    H116251   3.610   4.971   4.299
 5429TIP3    H216252   3.511   5.069   4.359
 5430TIP3   OH216253   6.474   1.425   1.472
 5430TIP3    H116254   6.405   1.415   1.537
 5430TIP3    H216255   6.555   1.411   1.521
 5431TIP3   OH216256   0.062   0.730   1.102
 5431TIP3    H116257   0.105   0.736   1.187
 5431TIP3    H216258  -0.018   0.782   1.112
 5432TIP3   OH216259   4.669   4.615   4.787
 5432TIP3    H116260   4.756   4.591   4.819
 5432TIP3    H216261   4.646   4.545   4.726
 5433TIP3   OH216262   6.720   4.943   1.509
 5433TIP3    H116263   6.800   4.898   1.537
 5433TIP3    H216264   6.739   4.973   1.420
 5434TIP3   OH216265   2.423   5.092   2.827
 5434TIP3    H116266   2.372   5.134   2.896
 5434TIP3    H216267   2.461   5.015   2.868
 5435TIP3   OH216268   5.113   2.338   3.485
 5435TIP3    H116269   5.155   2.310   3.567
 5435TIP3    H216270   5.184   2.347   3.423
 5436TIP3   OH216271   2.738   1.375   1.749
 5436TIP3    H116272   2.773   1.446   1.694
 5436TIP3    H216273   2.643   1.380   1.736
 5437TIP3   OH216274   0.965   5.967   1.566
 5437TIP3    H116275   1.022   5.891   1.556
 5437TIP3    H216276   1.021   6.042   1.546
 5438TIP3   OH216277   1.808   5.960   1.077
 5438TIP3    H116278   1.756   5.882   1.061
 5438TIP3    H216279   1.899   5.929   1.076
 5439TIP3   OH216280   3.701   0.663   4.981
 5439TIP3    H116281   3.683   0.725   4.910
 5439TIP3    H216282   3.749   0.715   5.046
 5440TIP3   OH216283   2.246   6.826   3.976
 5440TIP3    H116284   2.340   6.827   3.958
 5440TIP3    H216285   2.231   6.742   4.020
 5441TIP3   OH216286   2.731   4.978   2.361
 5441TIP3    H116287   2.657   4.998   2.418
 5441TIP3    H216288   2.758   5.063   2.326
 5442TIP3   OH216289   6.633   0.077   3.959
 5442TIP3    H116290   6.540   0.095   3.965
 5442TIP3    H216291   6.638  -0.016   3.936
 5443TIP3   OH216292   2.656   1.688   3.632
 5443TIP3    H116293   2.721   1.718   3.569
 5443TIP3    H216294   2.636   1.765   3.686
 5444TIP3   OH216295   1.357   2.628   0.814
 5444TIP3    H116296   1.401   2.603   0.733
 5444TIP3    H216297   1.264   2.631   0.792
 5445TIP3   OH216298   6.724   0.743   5.045
 5445TIP3    H116299   6.776   0.772   4.970
 5445TIP3    H216300   6.657   0.685   5.007
 5446TIP3   OH216301   5.828   6.483   3.722
 5446TIP3    H116302   5.907   6.514   3.679
 5446TIP3    H216303   5.833   6.518   3.811
 5447TIP3   OH216304   3.013   5.723   3.922
 5447TIP3    H116305   2.918   5.722   3.913
 5447TIP3    H216306   3.046   5.730   3.833
 5448TIP3   OH216307   6.258   6.287   4.865
 5448TIP3    H116308   6.174   6.254   4.896
 5448TIP3    H216309   6.309   6.209   4.847
 5449TIP3   OH216310   3.364   3.602   3.648
 5449TIP3    H116311   3.341   3.661   3.576
 5449TIP3    H216312   3.460   3.602   3.650
 5450TIP3   OH216313   6.033   0.122   4.995
 5450TIP3    H116314   6.082   0.056   5.044
 5450TIP3    H216315   5.941   0.098   5.007
 5451TIP3   OH216316   5.183   6.227   3.764
 5451TIP3    H116317   5.230   6.202   3.843
 5451TIP3    H216318   5.096   6.188   3.773
 5452TIP3   OH216319   0.358   4.616   4.934
 5452TIP3    H116320   0.343   4.620   4.839
 5452TIP3    H216321   0.333   4.527   4.958
 5453TIP3   OH216322   2.072   6.687   1.432
 5453TIP3    H116323   2.026   6.728   1.505
 5453TIP3    H216324   2.147   6.744   1.415
 5454TIP3   OH216325   2.133   5.076   5.309
 5454TIP3    H116326   2.129   5.014   5.236
 5454TIP3    H216327   2.050   5.123   5.305
 5455TIP3   OH216328   1.705   2.436   3.454
 5455TIP3    H116329   1.729   2.529   3.446
 5455TIP3    H216330   1.616   2.432   3.419
 5456TIP3   OH216331   0.432   2.757   2.096
 5456TIP3    H116332   0.445   2.663   2.091
 5456TIP3    H216333   0.506   2.789   2.147
 5457TIP3   OH216334   3.608   4.946   1.625
 5457TIP3    H116335   3.694   4.967   1.587
 5457TIP3    H216336   3.554   5.022   1.605
 5458TIP3   OH216337   2.665   3.154   1.949
 5458TIP3    H116338   2.603   3.081   1.944
 5458TIP3    H216339   2.750   3.112   1.962
 5459TIP3   OH216340   0.130   6.209   3.559
 5459TIP3    H116341   0.087   6.185   3.477
 5459TIP3    H216342   0.222   6.223   3.535
 5460TIP3   OH216343   2.826   4.354   3.707
 5460TIP3    H116344   2.817   4.264   3.738
 5460TIP3    H216345   2.767   4.359   3.632
 5461TIP3   OH216346   6.138   1.410   0.893
 5461TIP3    H116347   6.065   1.450   0.940
 5461TIP3    H216348   6.139   1.454   0.808
 5462TIP3   OH216349   4.228   3.119   5.057
 5462TIP3    H116350   4.277   3.102   5.137
 5462TIP3    H216351   4.261   3.203   5.026
 5463TIP3   OH216352   1.971   3.971   3.887
 5463TIP3    H116353   1.884   3.940   3.865
 5463TIP3    H216354   2.029   3.897   3.866
 5464TIP3   OH216355   0.019   3.750   0.920
 5464TIP3    H116356   0.114   3.745   0.917
 5464TIP3    H216357  -0.011   3.668   0.880
 5465TIP3   OH216358   6.740   1.046   0.803
 5465TIP3    H116359   6.764   1.126   0.850
 5465TIP3    H216360   6.644   1.046   0.803
 5466TIP3   OH216361   1.935   6.635   0.274
 5466TIP3    H116362   1.953   6.624   0.368
 5466TIP3    H216363   1.987   6.566   0.232
 5467TIP3   OH216364   6.133   5.006   1.732
 5467TIP3    H116365   6.060   4.979   1.788
 5467TIP3    H216366   6.096   5.011   1.644
 5468TIP3   OH216367   6.068   1.573   5.148
 5468TIP3    H116368   6.130   1.621   5.202
 5468TIP3    H216369   6.098   1.482   5.151
 5469TIP3   OH216370   3.333   3.623   0.493
 5469TIP3    H116371   3.299   3.670   0.568
 5469TIP3    H216372   3.374   3.691   0.439
 5470TIP3   OH216373   1.140   4.391   1.409
 5470TIP3    H116374   1.076   4.430   1.349
 5470TIP3    H216375   1.216   4.372   1.354
 5471TIP3   OH216376   4.913   0.722   5.352
 5471TIP3    H116377   4.988   0.663   5.342
 5471TIP3    H216378   4.846   0.685   5.295
 5472TIP3   OH216379   5.005   0.718   4.597
 5472TIP3    H116380   5.091   0.759   4.606
 5472TIP3    H216381   4.958   0.745   4.676
 5473TIP3   OH216382   1.981   0.165   0.155
 5473TIP3    H116383   1.937   0.103   0.212
 5473TIP3    H216384   1.969   0.129   0.067
 5474TIP3   OH216385   2.644   3.255   2.804
 5474TIP3    H116386   2.712   3.323   2.802
 5474TIP3    H216387   2.650   3.218   2.892
 5475TIP3   OH216388   0.928   2.913   2.829
 5475TIP3    H116389   0.881   2.994   2.850
 5475TIP3    H216390   0.943   2.871   2.914
 5476TIP3   OH216391   4.415   5.707   3.010
 5476TIP3    H116392   4.491   5.654   3.032
 5476TIP3    H216393   4.451   5.792   2.985
 5477TIP3   OH216394   6.780   6.389   0.189
 5477TIP3    H116395   6.852   6.364   0.247
 5477TIP3    H216396   6.721   6.440   0.244
 5478TIP3   OH216397   6.064   6.518   2.051
 5478TIP3    H116398   6.009   6.478   2.118
 5478TIP3    H216399   6.154   6.495   2.077
 5479TIP3   OH216400   3.004   1.579   5.190
 5479TIP3    H116401   3.058   1.652   5.221
 5479TIP3    H216402   2.977   1.534   5.270
 5480TIP3   OH216403   5.602   3.760   0.050
 5480TIP3    H116404   5.621   3.783  -0.041
 5480TIP3    H216405   5.538   3.826   0.079
 5481TIP3   OH216406   5.305   2.297   0.022
 5481TIP3    H116407   5.383   2.331  -0.023
 5481TIP3    H216408   5.323   2.311   0.115
 5482TIP3   OH216409   6.010   6.418   2.836
 5482TIP3    H116410   6.089   6.454   2.876
 5482TIP3    H216411   6.012   6.325   2.859
 5483TIP3   OH216412   3.701   1.537   4.434
 5483TIP3    H116413   3.639   1.579   4.493
 5483TIP3    H216414   3.774   1.599   4.429
 5484TIP3   OH216415   1.417   4.633   1.007
 5484TIP3    H116416   1.459   4.715   1.034
 5484TIP3    H216417   1.324   4.646   1.023
 5485TIP3   OH216418   5.095   2.092   2.750
 5485TIP3    H116419   5.134   2.167   2.704
 5485TIP3    H216420   5.071   2.031   2.681
 5486TIP3   OH216421   2.558   1.814   0.009
 5486TIP3    H116422   2.589   1.741  -0.044
 5486TIP3    H216423   2.598   1.891  -0.031
 5487TIP3   OH216424   4.883   0.379   5.284
 5487TIP3    H116425   4.886   0.283   5.274
 5487TIP3    H216426   4.859   0.411   5.197
 5488TIP3   OH216427   6.041   4.082   0.327
 5488TIP3    H116428   5.959   4.058   0.285
 5488TIP3    H216429   6.086   3.999   0.342
 5489TIP3   OH216430   1.513   1.533   0.005
 5489TIP3    H116431   1.443   1.553  -0.057
 5489TIP3    H216432   1.570   1.610   0.004
 5490TIP3   OH216433   5.615   3.933   1.056
 5490TIP3    H116434   5.687   3.942   1.119
 5490TIP3    H216435   5.640   3.859   1.002
 5491TIP3   OH216436   2.145   0.364   1.441
 5491TIP3    H116437   2.227   0.346   1.487
 5491TIP3    H216438   2.132   0.458   1.451
 5492TIP3   OH216439   5.295   1.530   3.865
 5492TIP3    H116440   5.320   1.557   3.954
 5492TIP3    H216441   5.215   1.480   3.877
 5493TIP3   OH216442   5.390   0.159   0.719
 5493TIP3    H116443   5.440   0.158   0.801
 5493TIP3    H216444   5.358   0.248   0.711
 5494TIP3   OH216445   4.683   0.981   4.557
 5494TIP3    H116446   4.775   1.007   4.552
 5494TIP3    H216447   4.666   0.936   4.474
 5495TIP3   OH216448   5.462   2.644   3.848
 5495TIP3    H116449   5.399   2.712   3.826
 5495TIP3    H216450   5.480   2.657   3.941
 5496TIP3   OH216451   5.515   0.523   3.948
 5496TIP3    H116452   5.464   0.587   3.899
 5496TIP3    H216453   5.591   0.506   3.892
 5497TIP3   OH216454   6.147   5.225   1.377
 5497TIP3    H116455   6.147   5.141   1.423
 5497TIP3    H216456   6.205   5.212   1.302
 5498TIP3   OH216457   1.733   3.138   0.677
 5498TIP3    H116458   1.744   3.166   0.768
 5498TIP3    H216459   1.809   3.176   0.631
 5499TIP3   OH216460   2.321   5.643   5.294
 5499TIP3    H116461   2.310   5.724   5.245
 5499TIP3    H216462   2.261   5.651   5.369
 5500TIP3   OH216463   5.514   3.206   0.429
 5500TIP3    H116464   5.567   3.151   0.487
 5500TIP3    H216465   5.531   3.295   0.459
 5501TIP3   OH216466   1.970   0.133   3.079
 5501TIP3    H116467   1.993   0.101   3.166
 5501TIP3    H216468   2.030   0.206   3.064
 5502TIP3   OH216469   4.634   0.804   4.816
 5502TIP3    H116470   4.542   0.817   4.794
 5502TIP3    H216471   4.679   0.802   4.731
 5503TIP3   OH216472   2.251   0.649   1.459
 5503TIP3    H116473   2.195   0.630   1.534
 5503TIP3    H216474   2.204   0.716   1.409
 5504TIP3   OH216475   6.499   4.830   2.533
 5504TIP3    H116476   6.424   4.801   2.480
 5504TIP3    H216477   6.572   4.830   2.472
 5505TIP3   OH216478   1.969   1.764   5.932
 5505TIP3    H116479   2.016   1.753   5.849
 5505TIP3    H216480   2.020   1.830   5.980
 5506TIP3   OH216481   7.213   0.197   5.040
 5506TIP3    H116482   7.142   0.259   5.023
 5506TIP3    H216483   7.282   0.250   5.080
 5507TIP3   OH216484   5.810   6.454   5.341
 5507TIP3    H116485   5.881   6.461   5.406
 5507TIP3    H216486   5.806   6.360   5.321
 5508TIP3   OH216487   5.179   6.563   1.286
 5508TIP3    H116488   5.138   6.642   1.322
 5508TIP3    H216489   5.214   6.592   1.201
 5509TIP3   OH216490   3.477   4.157   0.506
 5509TIP3    H116491   3.404   4.191   0.559
 5509TIP3    H216492   3.555   4.183   0.554
 5510TIP3   OH216493   6.034   0.145   2.516
 5510TIP3    H116494   6.026   0.170   2.608
 5510TIP3    H216495   5.963   0.192   2.472
 5511TIP3   OH216496   5.572   1.363   3.788
 5511TIP3    H116497   5.622   1.358   3.870
 5511TIP3    H216498   5.536   1.452   3.788
 5512TIP3   OH216499   0.757   3.627   5.686
 5512TIP3    H116500   0.776   3.533   5.690
 5512TIP3    H216501   0.843   3.669   5.685
 5513TIP3   OH216502   3.108   0.146   2.516
 5513TIP3    H116503   3.069   0.133   2.603
 5513TIP3    H216504   3.201   0.157   2.533
 5514TIP3   OH216505   4.903   5.589   1.813
 5514TIP3    H116506   4.903   5.680   1.843
 5514TIP3    H216507   4.847   5.544   1.875
 5515TIP3   OH216508   3.934   4.789   1.014
 5515TIP3    H116509   4.005   4.724   1.007
 5515TIP3    H216510   3.921   4.819   0.924
 5516TIP3   OH216511   0.262  -0.037   5.557
 5516TIP3    H116512   0.242   0.001   5.472
 5516TIP3    H216513   0.223  -0.124   5.554
 5517TIP3   OH216514   6.619   2.656   4.155
 5517TIP3    H116515   6.569   2.589   4.202
 5517TIP3    H216516   6.654   2.712   4.224
 5518TIP3   OH216517   3.381   1.125   0.769
 5518TIP3    H116518   3.445   1.082   0.712
 5518TIP3    H216519   3.433   1.185   0.822
 5519TIP3   OH216520   5.497   4.035   1.431
 5519TIP3    H116521   5.505   3.939   1.427
 5519TIP3    H216522   5.587   4.066   1.426
 5520TIP3   OH216523   2.939   1.742   2.264
 5520TIP3    H116524   2.948   1.822   2.316
 5520TIP3    H216525   2.892   1.681   2.322
 5521TIP3   OH216526   3.360   6.520   1.934
 5521TIP3    H116527   3.265   6.518   1.945
 5521TIP3    H216528   3.376   6.466   1.857
 5522TIP3   OH216529   4.260   5.852   5.242
 5522TIP3    H116530   4.290   5.819   5.157
 5522TIP3    H216531   4.284   5.945   5.241
 5523TIP3   OH216532   3.518   3.914   1.038
 5523TIP3    H116533   3.584   3.855   1.074
 5523TIP3    H216534   3.550   3.936   0.951
 5524TIP3   OH216535   6.216   2.492   5.320
 5524TIP3    H116536   6.245   2.401   5.311
 5524TIP3    H216537   6.131   2.494   5.275
 5525TIP3   OH216538   2.921   0.618   0.127
 5525TIP3    H116539   2.952   0.543   0.179
 5525TIP3    H216540   2.856   0.580   0.067
 5526TIP3   OH216541   1.485   5.293   5.015
 5526TIP3    H116542   1.416   5.282   5.080
 5526TIP3    H216543   1.447   5.258   4.934
 5527TIP3   OH216544   0.628   6.049   0.813
 5527TIP3    H116545   0.632   6.032   0.907
 5527TIP3    H216546   0.708   6.009   0.778
 5528TIP3   OH216547   7.017   0.949   3.466
 5528TIP3    H116548   6.994   0.857   3.461
 5528TIP3    H216549   7.099   0.951   3.516
 5529TIP3   OH216550   3.594   6.603   2.479
 5529TIP3    H116551   3.551   6.518   2.468
 5529TIP3    H216552   3.526   6.661   2.513
 5530TIP3   OH216553   1.851   4.290   4.781
 5530TIP3    H116554   1.900   4.209   4.772
 5530TIP3    H216555   1.918   4.359   4.781
 5531TIP3   OH216556   0.868   1.211   0.103
 5531TIP3    H116557   0.797   1.229   0.041
 5531TIP3    H216558   0.913   1.294   0.112
 5532TIP3   OH216559   4.195   4.597   2.172
 5532TIP3    H116560   4.276   4.553   2.146
 5532TIP3    H216561   4.208   4.688   2.147
 5533TIP3   OH216562   0.921   1.235   4.436
 5533TIP3    H116563   0.944   1.161   4.492
 5533TIP3    H216564   0.832   1.258   4.462
 5534TIP3   OH216565   2.602   3.200   0.275
 5534TIP3    H116566   2.684   3.244   0.253
 5534TIP3    H216567   2.591   3.213   0.369
 5535TIP3   OH216568   4.735   3.693   3.052
 5535TIP3    H116569   4.800   3.764   3.051
 5535TIP3    H216570   4.764   3.636   3.124
 5536TIP3   OH216571   2.512   2.466   2.749
 5536TIP3    H116572   2.586   2.495   2.696
 5536TIP3    H216573   2.462   2.545   2.767
 5537TIP3   OH216574   0.955   1.090   4.179
 5537TIP3    H116575   0.944   1.168   4.233
 5537TIP3    H216576   0.868   1.076   4.140
 5538TIP3   OH216577   6.505   3.162   4.197
 5538TIP3    H116578   6.423   3.128   4.231
 5538TIP3    H216579   6.485   3.190   4.108
 5539TIP3   OH216580   6.587   0.412   1.557
 5539TIP3    H116581   6.550   0.325   1.570
 5539TIP3    H216582   6.626   0.409   1.470
 5540TIP3   OH216583   0.790   3.544   4.037
 5540TIP3    H116584   0.835   3.487   3.975
 5540TIP3    H216585   0.708   3.567   3.994
 5541TIP3   OH216586   5.834   4.647   4.836
 5541TIP3    H116587   5.915   4.689   4.865
 5541TIP3    H216588   5.820   4.683   4.748
 5542TIP3   OH216589   4.986   5.686   5.868
 5542TIP3    H116590   4.998   5.631   5.945
 5542TIP3    H216591   4.892   5.682   5.850
 5543TIP3   OH216592   0.606   3.109   1.127
 5543TIP3    H116593   0.668   3.044   1.161
 5543TIP3    H216594   0.624   3.112   1.033
 5544TIP3   OH216595   6.376   3.003   4.688
 5544TIP3    H116596   6.334   3.014   4.773
 5544TIP3    H216597   6.468   2.985   4.710
 5545TIP3   OH216598   3.814   3.417   5.285
 5545TIP3    H116599   3.898   3.372   5.283
 5545TIP3    H216600   3.827   3.495   5.231
 5546TIP3   OH216601   4.318   2.085   5.045
 5546TIP3    H116602   4.281   1.997   5.054
 5546TIP3    H216603   4.293   2.130   5.126
 5547TIP3   OH216604   4.031   5.060   4.117
 5547TIP3    H116605   4.072   5.146   4.107
 5547TIP3    H216606   4.071   5.006   4.049
 5548TIP3   OH216607   2.438   3.561   5.460
 5548TIP3    H116608   2.461   3.536   5.371
 5548TIP3    H216609   2.393   3.485   5.496
 5549TIP3   OH216610   3.377   0.153   2.494
 5549TIP3    H116611   3.386   0.060   2.472
 5549TIP3    H216612   3.433   0.198   2.431
 5550TIP3   OH216613   5.837   2.628   4.325
 5550TIP3    H116614   5.930   2.635   4.347
 5550TIP3    H216615   5.836   2.611   4.231
 5551TIP3   OH216616   1.393   2.409   0.975
 5551TIP3    H116617   1.384   2.489   0.923
 5551TIP3    H216618   1.355   2.341   0.919
 5552TIP3   OH216619   1.658   5.304   1.058
 5552TIP3    H116620   1.626   5.330   0.972
 5552TIP3    H216621   1.596   5.344   1.119
 5553TIP3   OH216622   6.162   0.164   3.779
 5553TIP3    H116623   6.102   0.111   3.727
 5553TIP3    H216624   6.115   0.182   3.860
 5554TIP3   OH216625   0.427   6.120   1.858
 5554TIP3    H116626   0.376   6.144   1.935
 5554TIP3    H216627   0.461   6.032   1.878
 5555TIP3   OH216628   5.165   6.394   5.491
 5555TIP3    H116629   5.092   6.453   5.472
 5555TIP3    H216630   5.238   6.452   5.513
 5556TIP3   OH216631   1.382   1.183   3.885
 5556TIP3    H116632   1.345   1.132   3.812
 5556TIP3    H216633   1.424   1.258   3.843
 5557TIP3   OH216634   1.847   4.557   4.564
 5557TIP3    H116635   1.815   4.644   4.539
 5557TIP3    H216636   1.768   4.502   4.562
 5558TIP3   OH216637   2.602   5.736   1.802
 5558TIP3    H116638   2.603   5.650   1.762
 5558TIP3    H216639   2.560   5.722   1.887
 5559TIP3   OH216640   6.001   5.070   2.207
 5559TIP3    H116641   5.911   5.077   2.174
 5559TIP3    H216642   6.009   4.979   2.235
 5560TIP3   OH216643   2.423   4.892   1.691
 5560TIP3    H116644   2.443   4.907   1.783
 5560TIP3    H216645   2.337   4.932   1.678
 5561TIP3   OH216646   5.303   0.995   2.857
 5561TIP3    H116647   5.378   0.984   2.799
 5561TIP3    H216648   5.275   0.905   2.877
 5562TIP3   OH216649   3.708   4.315   2.376
 5562TIP3    H116650   3.642   4.359   2.324
 5562TIP3    H216651   3.706   4.360   2.461
 5563TIP3   OH216652   3.150   6.027   4.468
 5563TIP3    H116653   3.121   5.963   4.402
 5563TIP3    H216654   3.183   5.973   4.540
 5564TIP3   OH216655   6.184   2.465   0.480
 5564TIP3    H116656   6.147   2.442   0.565
 5564TIP3    H216657   6.186   2.561   0.479
 5565TIP3   OH216658   6.152   3.829   0.029
 5565TIP3    H116659   6.117   3.779   0.103
 5565TIP3    H216660   6.225   3.880   0.067
 5566TIP3   OH216661   6.947   5.696   0.376
 5566TIP3    H116662   7.010   5.767   0.389
 5566TIP3    H216663   6.982   5.647   0.301
 5567TIP3   OH216664   3.031   5.811   3.656
 5567TIP3    H116665   3.084   5.739   3.622
 5567TIP3    H216666   2.984   5.844   3.579
 5568TIP3   OH216667   3.798   0.128   0.251
 5568TIP3    H116668   3.734   0.084   0.308
 5568TIP3    H216669   3.798   0.076   0.171
 5569TIP3   OH216670   0.148   2.688   4.628
 5569TIP3    H116671   0.128   2.782   4.626
 5569TIP3    H216672   0.080   2.648   4.574
 5570TIP3   OH216673   5.016   5.739   1.495
 5570TIP3    H116674   5.097   5.727   1.446
 5570TIP3    H216675   4.999   5.652   1.533
 5571TIP3   OH216676   2.415   2.273   3.009
 5571TIP3    H116677   2.358   2.199   2.989
 5571TIP3    H216678   2.500   2.249   2.971
 5572TIP3   OH216679   4.954   4.221   1.178
 5572TIP3    H116680   4.952   4.131   1.208
 5572TIP3    H216681   4.862   4.246   1.171
 5573TIP3   OH216682   2.494   3.780   1.026
 5573TIP3    H116683   2.455   3.747   0.945
 5573TIP3    H216684   2.446   3.860   1.046
 5574TIP3   OH216685   4.654   3.633   5.409
 5574TIP3    H116686   4.684   3.688   5.336
 5574TIP3    H216687   4.730   3.580   5.431
 5575TIP3   OH216688   5.078   0.185   5.737
 5575TIP3    H116689   5.058   0.244   5.664
 5575TIP3    H216690   5.138   0.235   5.792
 5576TIP3   OH216691   1.887   5.488   3.136
 5576TIP3    H116692   1.874   5.525   3.223
 5576TIP3    H216693   1.851   5.554   3.077
 5577TIP3   OH216694   4.386   5.228   0.422
 5577TIP3    H116695   4.467   5.222   0.372
 5577TIP3    H216696   4.318   5.241   0.355
 5578TIP3   OH216697   2.081   0.001   2.595
 5578TIP3    H116698   2.095  -0.058   2.521
 5578TIP3    H216699   2.167   0.040   2.611
 5579TIP3   OH216700   2.015   2.827   4.022
 5579TIP3    H116701   2.037   2.897   3.961
 5579TIP3    H216702   1.948   2.865   4.079
 5580TIP3   OH216703   0.246   6.636   0.774
 5580TIP3    H116704   0.312   6.676   0.718
 5580TIP3    H216705   0.295   6.576   0.830
 5581TIP3   OH216706   5.611   0.071   0.515
 5581TIP3    H116707   5.549   0.128   0.470
 5581TIP3    H216708   5.581   0.068   0.605
 5582TIP3   OH216709   4.890   2.777   5.734
 5582TIP3    H116710   4.895   2.701   5.793
 5582TIP3    H216711   4.897   2.740   5.646
 5583TIP3   OH216712   1.707   6.119   4.882
 5583TIP3    H116713   1.749   6.049   4.833
 5583TIP3    H216714   1.779   6.168   4.921
 5584TIP3   OH216715   1.055   1.657   3.259
 5584TIP3    H116716   0.999   1.617   3.193
 5584TIP3    H216717   1.126   1.594   3.272
 5585TIP3   OH216718   1.315   5.815   4.286
 5585TIP3    H116719   1.328   5.725   4.316
 5585TIP3    H216720   1.236   5.811   4.232
 5586TIP3   OH216721   3.077   4.052   3.995
 5586TIP3    H116722   3.135   4.128   3.999
 5586TIP3    H216723   3.133   3.981   3.966
 5587TIP3   OH216724   1.682   0.868   5.401
 5587TIP3    H116725   1.601   0.918   5.401
 5587TIP3    H216726   1.718   0.880   5.489
 5588TIP3   OH216727   4.722   1.781   2.696
 5588TIP3    H116728   4.641   1.782   2.748
 5588TIP3    H216729   4.785   1.830   2.749
 5589TIP3   OH216730   5.009   0.706   5.645
 5589TIP3    H116731   5.065   0.771   5.603
 5589TIP3    H216732   5.004   0.634   5.582
 5590TIP3   OH216733   4.647   3.087   4.337
 5590TIP3    H116734   4.565   3.039   4.344
 5590TIP3    H216735   4.714   3.020   4.328
 5591TIP3   OH216736   2.284   5.418   4.495
 5591TIP3    H116737   2.340   5.430   4.418
 5591TIP3    H216738   2.215   5.483   4.484
 5592TIP3   OH216739   5.919   0.966   2.946
 5592TIP3    H116740   5.926   1.012   2.863
 5592TIP3    H216741   5.926   0.873   2.922
 5593TIP3   OH216742   3.256   3.991   0.762
 5593TIP3    H116743   3.228   4.082   0.773
 5593TIP3    H216744   3.224   3.967   0.675
 5594TIP3   OH216745   0.048   3.518   2.214
 5594TIP3    H116746   0.115   3.478   2.270
 5594TIP3    H216747   0.094   3.537   2.132
 5595TIP3   OH216748   5.044   2.033   4.141
 5595TIP3    H116749   5.056   1.986   4.059
 5595TIP3    H216750   5.133   2.039   4.178
 5596TIP3   OH216751   3.889   6.660   3.693
 5596TIP3    H116752   3.981   6.653   3.718
 5596TIP3    H216753   3.853   6.572   3.706
 5597TIP3   OH216754   7.175   3.503   3.600
 5597TIP3    H116755   7.253   3.548   3.569
 5597TIP3    H216756   7.107   3.527   3.536
 5598TIP3   OH216757   1.341   3.911   0.795
 5598TIP3    H116758   1.324   3.823   0.761
 5598TIP3    H216759   1.426   3.904   0.839
 5599TIP3   OH216760   0.206   0.331   5.130
 5599TIP3    H116761   0.189   0.366   5.042
 5599TIP3    H216762   0.291   0.367   5.154
 5600TIP3   OH216763   1.580   6.252   3.978
 5600TIP3    H116764   1.585   6.280   4.070
 5600TIP3    H216765   1.653   6.190   3.969
 5601TIP3   OH216766   2.421   6.217   2.108
 5601TIP3    H116767   2.335   6.181   2.132
 5601TIP3    H216768   2.400   6.290   2.049
 5602TIP3   OH216769   1.257   5.591   3.772
 5602TIP3    H116770   1.255   5.501   3.739
 5602TIP3    H216771   1.167   5.623   3.762
 5603TIP3   OH216772   2.788   4.550   5.268
 5603TIP3    H116773   2.809   4.582   5.180
 5603TIP3    H216774   2.816   4.458   5.267
 5604TIP3   OH216775   1.250   4.430   1.652
 5604TIP3    H116776   1.335   4.464   1.623
 5604TIP3    H216777   1.204   4.408   1.571
 5605TIP3   OH216778   4.910   5.557   4.671
 5605TIP3    H116779   4.967   5.531   4.743
 5605TIP3    H216780   4.954   5.631   4.630
 5606TIP3   OH216781   4.692   1.422   4.520
 5606TIP3    H116782   4.685   1.516   4.502
 5606TIP3    H216783   4.630   1.381   4.460
 5607TIP3   OH216784   2.423   6.682   0.610
 5607TIP3    H116785   2.514   6.706   0.592
 5607TIP3    H216786   2.380   6.686   0.524
 5608TIP3   OH216787   2.636   2.173   2.904
 5608TIP3    H116788   2.673   2.258   2.881
 5608TIP3    H216789   2.695   2.110   2.861
 5609TIP3   OH216790   4.843   1.512   3.923
 5609TIP3    H116791   4.778   1.442   3.931
 5609TIP3    H216792   4.916   1.472   3.875
 5610TIP3   OH216793   6.755   1.565   2.592
 5610TIP3    H116794   6.778   1.473   2.609
 5610TIP3    H216795   6.823   1.615   2.636
 5611TIP3   OH216796  -0.007   2.426   3.466
 5611TIP3    H116797   0.086   2.412   3.483
 5611TIP3    H216798  -0.014   2.428   3.371
 5612TIP3   OH216799   3.446   5.385   4.220
 5612TIP3    H116800   3.488   5.426   4.295
 5612TIP3    H216801   3.424   5.457   4.162
 5613TIP3   OH216802   5.378   5.322   1.902
 5613TIP3    H116803   5.425   5.343   1.983
 5613TIP3    H216804   5.286   5.326   1.927
 5614TIP3   OH216805   4.921   4.916   4.933
 5614TIP3    H116806   4.857   4.958   4.876
 5614TIP3    H216807   4.869   4.855   4.986
 5615TIP3   OH216808   3.341   5.800   1.772
 5615TIP3    H116809   3.367   5.884   1.810
 5615TIP3    H216810   3.294   5.756   1.843
 5616TIP3   OH216811   2.187   6.792   5.305
 5616TIP3    H116812   2.264   6.785   5.361
 5616TIP3    H216813   2.135   6.714   5.324
 5617TIP3   OH216814   5.729   1.472   1.762
 5617TIP3    H116815   5.812   1.424   1.772
 5617TIP3    H216816   5.744   1.555   1.808
 5618TIP3   OH216817   0.745   6.574   1.283
 5618TIP3    H116818   0.778   6.660   1.308
 5618TIP3    H216819   0.822   6.526   1.253
 5619TIP3   OH216820   3.045   3.765   3.598
 5619TIP3    H116821   3.106   3.726   3.535
 5619TIP3    H216822   3.050   3.859   3.581
 5620TIP3   OH216823   3.814   6.394   2.536
 5620TIP3    H116824   3.784   6.485   2.532
 5620TIP3    H216825   3.735   6.343   2.520
 5621TIP3   OH216826   3.663   3.115  -0.010
 5621TIP3    H116827   3.688   3.206   0.004
 5621TIP3    H216828   3.570   3.112   0.014
 5622TIP3   OH216829   6.101   6.183   2.627
 5622TIP3    H116830   6.053   6.169   2.709
 5622TIP3    H216831   6.046   6.245   2.578
 5623TIP3   OH216832   5.817   1.606   2.387
 5623TIP3    H116833   5.841   1.653   2.466
 5623TIP3    H216834   5.813   1.514   2.414
 5624TIP3   OH216835   0.392   3.499   0.752
 5624TIP3    H116836   0.338   3.466   0.824
 5624TIP3    H216837   0.382   3.594   0.758
 5625TIP3   OH216838   0.191   6.034   1.159
 5625TIP3    H116839   0.190   6.106   1.095
 5625TIP3    H216840   0.104   5.995   1.151
 5626TIP3   OH216841   3.206   5.227   5.740
 5626TIP3    H116842   3.298   5.233   5.766
 5626TIP3    H216843   3.176   5.318   5.737
 5627TIP3   OH216844   1.068   6.124   5.457
 5627TIP3    H116845   1.116   6.185   5.402
 5627TIP3    H216846   0.976   6.140   5.435
 5628TIP3   OH216847   4.015   0.992   5.346
 5628TIP3    H116848   4.107   1.017   5.349
 5628TIP3    H216849   3.988   0.988   5.438
 5629TIP3   OH216850   2.712   5.441   0.376
 5629TIP3    H116851   2.641   5.462   0.437
 5629TIP3    H216852   2.672   5.380   0.313
 5630TIP3   OH216853  -0.014   1.705   2.588
 5630TIP3    H116854  -0.015   1.797   2.613
 5630TIP3    H216855  -0.024   1.705   2.493
 5631TIP3   OH216856   3.101   2.890   2.209
 5631TIP3    H116857   3.134   2.913   2.121
 5631TIP3    H216858   3.157   2.818   2.237
 5632TIP3   OH216859   1.810   0.855   0.018
 5632TIP3    H116860   1.715   0.853   0.031
 5632TIP3    H216861   1.821   0.882  -0.073
 5633TIP3   OH216862   4.385   4.939   4.696
 5633TIP3    H116863   4.382   4.856   4.648
 5633TIP3    H216864   4.477   4.962   4.700
 5634TIP3   OH216865   5.494   1.857   5.809
 5634TIP3    H116866   5.480   1.774   5.855
 5634TIP3    H216867   5.582   1.850   5.773
 5635TIP3   OH216868   6.957   4.486   5.386
 5635TIP3    H116869   6.968   4.402   5.341
 5635TIP3    H216870   6.897   4.535   5.330
 5636TIP3   OH216871   1.614   2.327   5.306
 5636TIP3    H116872   1.607   2.334   5.211
 5636TIP3    H216873   1.549   2.260   5.330
 5637TIP3   OH216874   5.917   6.225   5.201
 5637TIP3    H116875   5.952   6.164   5.265
 5637TIP3    H216876   5.859   6.172   5.147
 5638TIP3   OH216877   3.505   0.910   1.764
 5638TIP3    H116878   3.493   0.832   1.818
 5638TIP3    H216879   3.444   0.974   1.802
 5639TIP3   OH216880   6.538   4.477   5.390
 5639TIP3    H116881   6.510   4.491   5.300
 5639TIP3    H216882   6.602   4.546   5.406
 5640TIP3   OH216883   2.446   1.331   4.436
 5640TIP3    H116884   2.409   1.412   4.401
 5640TIP3    H216885   2.373   1.289   4.481
 5641TIP3   OH216886   5.762   5.703   2.892
 5641TIP3    H116887   5.747   5.781   2.839
 5641TIP3    H216888   5.698   5.710   2.963
 5642TIP3   OH216889   4.941   4.093   3.246
 5642TIP3    H116890   4.917   4.181   3.273
 5642TIP3    H216891   5.007   4.065   3.310
 5643TIP3   OH216892   0.057   2.411   3.195
 5643TIP3    H116893   0.092   2.430   3.107
 5643TIP3    H216894   0.078   2.319   3.210
 5644TIP3   OH216895   2.572   1.418   0.151
 5644TIP3    H116896   2.530   1.486   0.099
 5644TIP3    H216897   2.506   1.391   0.214
 5645TIP3   OH216898   5.937   5.554   0.446
 5645TIP3    H116899   5.995   5.479   0.431
 5645TIP3    H216900   5.860   5.536   0.391
 5646TIP3   OH216901   3.506   3.633   2.775
 5646TIP3    H116902   3.458   3.712   2.800
 5646TIP3    H216903   3.520   3.586   2.857
 5647TIP3   OH216904   1.196   2.897   2.400
 5647TIP3    H116905   1.204   2.983   2.440
 5647TIP3    H216906   1.169   2.839   2.472
 5648TIP3   OH216907   6.929   4.187   1.659
 5648TIP3    H116908   6.930   4.128   1.584
 5648TIP3    H216909   6.966   4.135   1.731
 5649TIP3   OH216910   4.041   4.078   4.640
 5649TIP3    H116911   4.118   4.054   4.690
 5649TIP3    H216912   4.051   4.034   4.556
 5650TIP3   OH216913   3.931   4.459   3.794
 5650TIP3    H116914   3.964   4.371   3.774
 5650TIP3    H216915   4.002   4.500   3.843
 5651TIP3   OH216916   6.789   5.906   2.210
 5651TIP3    H116917   6.763   5.997   2.199
 5651TIP3    H216918   6.851   5.907   2.283
 5652TIP3   OH216919   6.035   5.100   1.096
 5652TIP3    H116920   5.973   5.113   1.024
 5652TIP3    H216921   5.980   5.082   1.172
 5653TIP3   OH216922   5.129   0.752   3.573
 5653TIP3    H116923   5.115   0.827   3.630
 5653TIP3    H216924   5.137   0.678   3.633
 5654TIP3   OH216925   7.102   3.641   1.729
 5654TIP3    H116926   7.096   3.547   1.712
 5654TIP3    H216927   7.056   3.682   1.656
 5655TIP3   OH216928   0.939   6.526   1.560
 5655TIP3    H116929   0.984   6.503   1.479
 5655TIP3    H216930   1.009   6.559   1.617
 5656TIP3   OH216931   5.805   4.159   0.497
 5656TIP3    H116932   5.812   4.228   0.431
 5656TIP3    H216933   5.862   4.089   0.464
 5657TIP3   OH216934   2.353   3.257   5.297
 5657TIP3    H116935   2.319   3.204   5.369
 5657TIP3    H216936   2.289   3.327   5.287
 5658TIP3   OH216937   4.085   6.028   2.714
 5658TIP3    H116938   4.052   6.117   2.706
 5658TIP3    H216939   4.018   5.973   2.672
 5659TIP3   OH216940   3.995   5.389   0.400
 5659TIP3    H116941   4.005   5.483   0.388
 5659TIP3    H216942   3.901   5.377   0.415
 5660TIP3   OH216943   5.350   4.786   1.231
 5660TIP3    H116944   5.282   4.822   1.287
 5660TIP3    H216945   5.425   4.844   1.243
 5661TIP3   OH216946   3.220   2.984   0.604
 5661TIP3    H116947   3.268   3.053   0.650
 5661TIP3    H216948   3.244   2.994   0.512
 5662TIP3   OH216949   4.800   3.506   3.786
 5662TIP3    H116950   4.728   3.450   3.759
 5662TIP3    H216951   4.807   3.572   3.717
 5663TIP3   OH216952   0.533   2.828   4.550
 5663TIP3    H116953   0.617   2.827   4.596
 5663TIP3    H216954   0.486   2.751   4.581
 5664TIP3   OH216955   1.024   3.661   5.672
 5664TIP3    H116956   1.039   3.747   5.713
 5664TIP3    H216957   1.079   3.601   5.722
 5665TIP3   OH216958   3.062   6.497   0.524
 5665TIP3    H116959   3.014   6.438   0.467
 5665TIP3    H216960   3.018   6.582   0.512
 5666TIP3   OH216961   2.866   3.362   0.261
 5666TIP3    H116962   2.925   3.375   0.187
 5666TIP3    H216963   2.923   3.335   0.333
 5667TIP3   OH216964   0.507   0.729   3.777
 5667TIP3    H116965   0.464   0.659   3.825
 5667TIP3    H216966   0.496   0.807   3.832
 5668TIP3   OH216967   6.067   5.718   0.020
 5668TIP3    H116968   6.134   5.689  -0.043
 5668TIP3    H216969   6.075   5.657   0.093
 5669TIP3   OH216970   5.318   5.087   4.235
 5669TIP3    H116971   5.331   5.120   4.147
 5669TIP3    H216972   5.318   5.165   4.291
 5670TIP3   OH216973   4.565   3.877   5.624
 5670TIP3    H116974   4.658   3.859   5.618
 5670TIP3    H216975   4.560   3.966   5.659
 5671TIP3   OH216976   5.359   1.906   5.572
 5671TIP3    H116977   5.413   1.867   5.640
 5671TIP3    H216978   5.354   1.999   5.595
 5672TIP3   OH216979   5.501   2.714   4.766
 5672TIP3    H116980   5.493   2.734   4.672
 5672TIP3    H216981   5.596   2.711   4.782
 5673TIP3   OH216982   0.251   5.966   5.302
 5673TIP3    H116983   0.167   5.929   5.275
 5673TIP3    H216984   0.289   5.900   5.360
 5674TIP3   OH216985   1.771   4.860   2.875
 5674TIP3    H116986   1.701   4.901   2.926
 5674TIP3    H216987   1.741   4.770   2.862
 5675TIP3   OH216988   1.866   6.733   5.373
 5675TIP3    H116989   1.807   6.689   5.436
 5675TIP3    H216990   1.947   6.681   5.376
 5676TIP3   OH216991   0.259   6.153   4.192
 5676TIP3    H116992   0.173   6.110   4.190
 5676TIP3    H216993   0.242   6.240   4.228
 5677TIP3   OH216994   5.257   6.737   5.219
 5677TIP3    H116995   5.337   6.772   5.180
 5677TIP3    H216996   5.263   6.642   5.205
 5678TIP3   OH216997   3.200   1.151   2.177
 5678TIP3    H116998   3.198   1.083   2.245
 5678TIP3    H216999   3.117   1.140   2.130
 5679TIP3   OH217000   4.912   0.803   4.855
 5679TIP3    H117001   4.932   0.728   4.912
 5679TIP3    H217002   4.818   0.818   4.866
 5680TIP3   OH217003   0.635   1.501   3.164
 5680TIP3    H117004   0.578   1.463   3.097
 5680TIP3    H217005   0.604   1.462   3.246
 5681TIP3   OH217006   1.676   4.631   5.204
 5681TIP3    H117007   1.583   4.625   5.182
 5681TIP3    H217008   1.709   4.702   5.148
 5682TIP3   OH217009   6.840   4.582   0.739
 5682TIP3    H117010   6.840   4.545   0.828
 5682TIP3    H217011   6.766   4.539   0.696
 5683TIP3   OH217012   4.444   1.140   3.967
 5683TIP3    H117013   4.366   1.169   4.014
 5683TIP3    H217014   4.506   1.118   4.036
 5684TIP3   OH217015   3.732   4.184   2.780
 5684TIP3    H117016   3.639   4.182   2.759
 5684TIP3    H217017   3.775   4.208   2.698
 5685TIP3   OH217018   5.387   0.601   3.456
 5685TIP3    H117019   5.391   0.696   3.457
 5685TIP3    H217020   5.318   0.580   3.392
 5686TIP3   OH217021   6.003   2.688   2.189
 5686TIP3    H117022   6.053   2.758   2.230
 5686TIP3    H217023   6.067   2.616   2.179
 5687TIP3   OH217024   4.608   1.595   5.796
 5687TIP3    H117025   4.570   1.509   5.816
 5687TIP3    H217026   4.645   1.624   5.879
 5688TIP3   OH217027   2.256   1.305   5.601
 5688TIP3    H117028   2.251   1.236   5.535
 5688TIP3    H217029   2.165   1.332   5.614
 5689TIP3   OH217030   2.747   3.762   0.872
 5689TIP3    H117031   2.675   3.787   0.814
 5689TIP3    H217032   2.735   3.816   0.951
 5690TIP3   OH217033   6.236   5.965   1.433
 5690TIP3    H117034   6.237   5.871   1.452
 5690TIP3    H217035   6.223   5.971   1.339
 5691TIP3   OH217036   0.892   4.335   5.451
 5691TIP3    H117037   0.962   4.401   5.454
 5691TIP3    H217038   0.821   4.372   5.502
 5692TIP3   OH217039   5.616   1.113   3.698
 5692TIP3    H117040   5.534   1.071   3.724
 5692TIP3    H217041   5.613   1.199   3.739
 5693TIP3   OH217042   1.423   4.321   4.805
 5693TIP3    H117043   1.423   4.247   4.744
 5693TIP3    H217044   1.490   4.297   4.870
 5694TIP3   OH217045   6.807   3.839   2.787
 5694TIP3    H117046   6.713   3.822   2.781
 5694TIP3    H217047   6.840   3.823   2.698
 5695TIP3   OH217048   1.643   2.816   2.287
 5695TIP3    H117049   1.622   2.728   2.320
 5695TIP3    H217050   1.703   2.852   2.352
 5696TIP3   OH217051   1.041   4.234   1.964
 5696TIP3    H117052   1.036   4.265   2.054
 5696TIP3    H217053   0.959   4.265   1.924
 5697TIP3   OH217054   4.689   3.844   3.962
 5697TIP3    H117055   4.690   3.751   3.985
 5697TIP3    H217056   4.618   3.881   4.016
 5698TIP3   OH217057   1.399   5.784   3.613
 5698TIP3    H117058   1.393   5.738   3.696
 5698TIP3    H217059   1.473   5.743   3.568
 5699TIP3   OH217060   0.980   6.423   5.726
 5699TIP3    H117061   1.055   6.448   5.672
 5699TIP3    H217062   0.969   6.495   5.788
 5700TIP3   OH217063   5.243   3.934   5.055
 5700TIP3    H117064   5.154   3.960   5.080
 5700TIP3    H217065   5.299   4.002   5.090
 5701TIP3   OH217066   0.587   5.622   3.484
 5701TIP3    H117067   0.626   5.556   3.541
 5701TIP3    H217068   0.661   5.673   3.452
 5702TIP3   OH217069   5.557   0.874   2.072
 5702TIP3    H117070   5.494   0.838   2.009
 5702TIP3    H217071   5.630   0.905   2.019
 5703TIP3   OH217072   0.347   1.585   1.223
 5703TIP3    H117073   0.376   1.675   1.210
 5703TIP3    H217074   0.352   1.571   1.317
 5704TIP3   OH217075   2.812   6.706   2.328
 5704TIP3    H117076   2.899   6.738   2.303
 5704TIP3    H217077   2.798   6.743   2.415
 5705TIP3   OH217078   2.492   6.440   0.317
 5705TIP3    H117079   2.424   6.508   0.325
 5705TIP3    H217080   2.462   6.370   0.375
 5706TIP3   OH217081   4.479   0.482   4.695
 5706TIP3    H117082   4.501   0.500   4.787
 5706TIP3    H217083   4.383   0.481   4.693
 5707TIP3   OH217084   0.190   4.493   0.911
 5707TIP3    H117085   0.127   4.478   0.840
 5707TIP3    H217086   0.136   4.498   0.990
 5708TIP3   OH217087   2.262   2.690   2.804
 5708TIP3    H117088   2.231   2.722   2.719
 5708TIP3    H217089   2.324   2.757   2.834
 5709TIP3   OH217090   5.818   1.624   4.519
 5709TIP3    H117091   5.820   1.664   4.432
 5709TIP3    H217092   5.803   1.697   4.578
 5710TIP3   OH217093   0.611   4.597   2.854
 5710TIP3    H117094   0.700   4.617   2.825
 5710TIP3    H217095   0.616   4.508   2.888
 5711TIP3   OH217096   5.063   5.548   5.192
 5711TIP3    H117097   5.022   5.590   5.268
 5711TIP3    H217098   5.000   5.482   5.164
 5712TIP3   OH217099   5.711   5.794   3.660
 5712TIP3    H117100   5.748   5.800   3.748
 5712TIP3    H217101   5.733   5.706   3.631
 5713TIP3   OH217102   4.842   2.165   3.627
 5713TIP3    H117103   4.909   2.114   3.581
 5713TIP3    H217104   4.892   2.228   3.679
 5714TIP3   OH217105   6.515   4.694   0.472
 5714TIP3    H117106   6.498   4.785   0.446
 5714TIP3    H217107   6.477   4.687   0.560
 5715TIP3   OH217108   2.632   4.006   1.596
 5715TIP3    H117109   2.697   3.990   1.664
 5715TIP3    H217110   2.554   3.960   1.627
 5716TIP3   OH217111   3.842   1.558   1.771
 5716TIP3    H117112   3.846   1.463   1.764
 5716TIP3    H217113   3.834   1.589   1.681
 5717TIP3   OH217114   2.770   4.007   2.443
 5717TIP3    H117115   2.836   4.054   2.493
 5717TIP3    H217116   2.818   3.935   2.402
 5718TIP3   OH217117   0.984   3.330   3.545
 5718TIP3    H117118   0.992   3.238   3.571
 5718TIP3    H217119   0.895   3.355   3.571
 5719TIP3   OH217120   2.437   5.087   3.134
 5719TIP3    H117121   2.492   5.049   3.204
 5719TIP3    H217122   2.421   5.014   3.075
 5720TIP3   OH217123   5.116   1.079   1.302
 5720TIP3    H117124   5.049   1.095   1.236
 5720TIP3    H217125   5.119   0.984   1.312
 5721TIP3   OH217126   6.576   1.936   5.805
 5721TIP3    H117127   6.501   1.979   5.845
 5721TIP3    H217128   6.622   2.006   5.759
 5722TIP3   OH217129   6.923   2.041   0.089
 5722TIP3    H117130   6.908   1.951   0.060
 5722TIP3    H217131   6.923   2.093   0.008
 5723TIP3   OH217132   4.958   0.029   2.613
 5723TIP3    H117133   4.957  -0.030   2.689
 5723TIP3    H217134   5.029   0.089   2.631
 5724TIP3   OH217135   4.613   5.943   4.990
 5724TIP3    H117136   4.572   6.021   5.029
 5724TIP3    H217137   4.682   5.919   5.051
 5725TIP3   OH217138   0.096   2.222   0.584
 5725TIP3    H117139   0.026   2.157   0.577
 5725TIP3    H217140   0.163   2.190   0.524
 5726TIP3   OH217141   1.297   2.229   1.655
 5726TIP3    H117142   1.325   2.300   1.713
 5726TIP3    H217143   1.202   2.225   1.666
 5727TIP3   OH217144   7.068   1.421   5.670
 5727TIP3    H117145   6.989   1.432   5.617
 5727TIP3    H217146   7.035   1.401   5.758
 5728TIP3   OH217147   6.415   1.478   5.003
 5728TIP3    H117148   6.465   1.509   4.927
 5728TIP3    H217149   6.401   1.385   4.986
 5729TIP3   OH217150   6.528   6.690   2.350
 5729TIP3    H117151   6.466   6.696   2.277
 5729TIP3    H217152   6.476   6.653   2.421
 5730TIP3   OH217153   5.957   1.596   1.070
 5730TIP3    H117154   6.010   1.570   1.145
 5730TIP3    H217155   5.867   1.597   1.102
 5731TIP3   OH217156   0.099   5.272   3.276
 5731TIP3    H117157   0.194   5.282   3.271
 5731TIP3    H217158   0.065   5.361   3.267
 5732TIP3   OH217159   3.805   6.549   0.472
 5732TIP3    H117160   3.841   6.468   0.508
 5732TIP3    H217161   3.805   6.610   0.546
 5733TIP3   OH217162   3.730   0.200   5.763
 5733TIP3    H117163   3.732   0.129   5.827
 5733TIP3    H217164   3.736   0.280   5.815
 5734TIP3   OH217165   5.627   4.387   3.116
 5734TIP3    H117166   5.593   4.363   3.030
 5734TIP3    H217167   5.633   4.304   3.163
 5735TIP3   OH217168   4.472   2.827   2.182
 5735TIP3    H117169   4.548   2.772   2.170
 5735TIP3    H217170   4.470   2.883   2.104
 5736TIP3   OH217171   2.055   6.662   0.528
 5736TIP3    H117172   2.117   6.606   0.575
 5736TIP3    H217173   1.973   6.653   0.576
 5737TIP3   OH217174   3.606   5.787   5.667
 5737TIP3    H117175   3.698   5.768   5.651
 5737TIP3    H217176   3.607   5.862   5.726
 5738TIP3   OH217177   5.248   5.650   1.057
 5738TIP3    H117178   5.176   5.614   1.109
 5738TIP3    H217179   5.242   5.745   1.069
 5739TIP3   OH217180   2.924   2.924   3.022
 5739TIP3    H117181   2.909   2.830   3.021
 5739TIP3    H217182   3.000   2.936   3.080
 5740TIP3   OH217183   5.495   0.046   4.009
 5740TIP3    H117184   5.565   0.110   4.018
 5740TIP3    H217185   5.422   0.083   4.059
 5741TIP3   OH217186   2.908   1.126   5.566
 5741TIP3    H117187   2.836   1.080   5.523
 5741TIP3    H217188   2.965   1.154   5.494
 5742TIP3   OH217189   5.220   3.963   1.552
 5742TIP3    H117190   5.236   4.051   1.517
 5742TIP3    H217191   5.212   3.908   1.475
 5743TIP3   OH217192   5.771   4.349   0.278
 5743TIP3    H117193   5.850   4.397   0.304
 5743TIP3    H217194   5.732   4.401   0.208
 5744TIP3   OH217195   3.603   3.257   5.633
 5744TIP3    H117196   3.664   3.198   5.589
 5744TIP3    H217197   3.516   3.228   5.604
 5745TIP3   OH217198   1.107   5.655   1.152
 5745TIP3    H117199   1.155   5.572   1.147
 5745TIP3    H217200   1.022   5.631   1.189
 5746TIP3   OH217201   5.284   3.120   2.447
 5746TIP3    H117202   5.269   3.059   2.376
 5746TIP3    H217203   5.198   3.134   2.486
 5747TIP3   OH217204   2.877   3.543   2.845
 5747TIP3    H117205   2.914   3.492   2.773
 5747TIP3    H217206   2.937   3.526   2.918
 5748TIP3   OH217207   6.606   1.572   4.806
 5748TIP3    H117208   6.620   1.665   4.788
 5748TIP3    H217209   6.557   1.540   4.731
 5749TIP3   OH217210   0.795   5.323   0.287
 5749TIP3    H117211   0.793   5.391   0.355
 5749TIP3    H217212   0.724   5.264   0.310
 5750TIP3   OH217213   6.909   2.990   2.806
 5750TIP3    H117214   6.977   2.950   2.860
 5750TIP3    H217215   6.863   3.049   2.865
 5751TIP3   OH217216   7.060   1.298   3.745
 5751TIP3    H117217   7.055   1.249   3.827
 5751TIP3    H217218   6.974   1.288   3.706
 5752TIP3   OH217219   4.465   2.153   0.719
 5752TIP3    H117220   4.422   2.181   0.799
 5752TIP3    H217221   4.442   2.060   0.711
 5753TIP3   OH217222   1.167   3.508   2.986
 5753TIP3    H117223   1.132   3.532   2.900
 5753TIP3    H217224   1.230   3.577   3.006
 5754TIP3   OH217225   2.287   5.682   2.620
 5754TIP3    H117226   2.216   5.618   2.616
 5754TIP3    H217227   2.338   5.655   2.697
 5755TIP3   OH217228   6.171   3.124   2.157
 5755TIP3    H117229   6.145   3.216   2.151
 5755TIP3    H217230   6.232   3.121   2.230
 5756TIP3   OH217231   4.175   0.642   1.151
 5756TIP3    H117232   4.185   0.547   1.150
 5756TIP3    H217233   4.085   0.657   1.179
 5757TIP3   OH217234   5.699   6.226   5.837
 5757TIP3    H117235   5.776   6.202   5.785
 5757TIP3    H217236   5.625   6.203   5.781
 5758TIP3   OH217237   3.914   3.750   3.428
 5758TIP3    H117238   3.873   3.826   3.386
 5758TIP3    H217239   3.913   3.683   3.360
 5759TIP3   OH217240   6.858   1.431   4.805
 5759TIP3    H117241   6.907   1.512   4.820
 5759TIP3    H217242   6.767   1.458   4.801
 5760TIP3   OH217243   2.723   5.019   4.325
 5760TIP3    H117244   2.754   5.108   4.341
 5760TIP3    H217245   2.801   4.965   4.333
 5761TIP3   OH217246   6.470   1.208   1.051
 5761TIP3    H117247   6.474   1.133   1.112
 5761TIP3    H217248   6.450   1.168   0.966
 5762TIP3   OH217249   0.349   0.350   2.274
 5762TIP3    H117250   0.362   0.308   2.360
 5762TIP3    H217251   0.355   0.278   2.212
 5763TIP3   OH217252   7.184   2.056   1.722
 5763TIP3    H117253   7.090   2.062   1.737
 5763TIP3    H217254   7.216   2.146   1.731
 5764TIP3   OH217255   1.412   1.017   0.662
 5764TIP3    H117256   1.478   1.063   0.610
 5764TIP3    H217257   1.389   1.080   0.731
 5765TIP3   OH217258   5.636   2.156   2.355
 5765TIP3    H117259   5.587   2.236   2.372
 5765TIP3    H217260   5.690   2.143   2.433
 5766TIP3   OH217261   5.048   4.481   3.540
 5766TIP3    H117262   5.071   4.392   3.565
 5766TIP3    H217263   5.131   4.528   3.536
 5767TIP3   OH217264   0.460   5.716   2.834
 5767TIP3    H117265   0.552   5.717   2.808
 5767TIP3    H217266   0.463   5.708   2.929
 5768TIP3   OH217267   5.813   5.722   4.451
 5768TIP3    H117268   5.879   5.756   4.511
 5768TIP3    H217269   5.795   5.793   4.390
 5769TIP3   OH217270   6.471   0.739   0.827
 5769TIP3    H117271   6.419   0.743   0.907
 5769TIP3    H217272   6.535   0.670   0.844
 5770TIP3   OH217273   3.429   1.010   1.099
 5770TIP3    H117274   3.470   0.923   1.095
 5770TIP3    H217275   3.342   0.994   1.134
 5771TIP3   OH217276   4.818   1.462   0.273
 5771TIP3    H117277   4.900   1.461   0.223
 5771TIP3    H217278   4.782   1.550   0.258
 5772TIP3   OH217279   2.228   3.951   4.840
 5772TIP3    H117280   2.288   3.890   4.881
 5772TIP3    H217281   2.200   4.009   4.911
 5773TIP3   OH217282   5.750   3.930   4.622
 5773TIP3    H117283   5.839   3.962   4.636
 5773TIP3    H217284   5.694   4.003   4.645
 5774TIP3   OH217285   0.122   3.399   2.856
 5774TIP3    H117286   0.125   3.362   2.768
 5774TIP3    H217287   0.062   3.343   2.904
 5775TIP3   OH217288   6.980   4.732   3.542
 5775TIP3    H117289   6.983   4.827   3.551
 5775TIP3    H217290   7.064   4.702   3.575
 5776TIP3   OH217291   4.201   6.002   3.779
 5776TIP3    H117292   4.155   6.022   3.698
 5776TIP3    H217293   4.241   5.916   3.764
 5777TIP3   OH217294   5.053   6.296   2.685
 5777TIP3    H117295   5.139   6.286   2.726
 5777TIP3    H217296   5.010   6.212   2.700
 5778TIP3   OH217297   4.410   2.278   0.490
 5778TIP3    H117298   4.424   2.240   0.577
 5778TIP3    H217299   4.330   2.237   0.458
 5779TIP3   OH217300   4.317   1.956   1.659
 5779TIP3    H117301   4.336   1.949   1.565
 5779TIP3    H217302   4.403   1.964   1.700
 5780TIP3   OH217303   1.549   5.989   1.180
 5780TIP3    H117304   1.637   5.997   1.215
 5780TIP3    H217305   1.509   5.919   1.230
 5781TIP3   OH217306   4.075   4.057   0.347
 5781TIP3    H117307   4.115   4.075   0.432
 5781TIP3    H217308   3.988   4.023   0.368
 5782TIP3   OH217309   0.803   2.224   2.294
 5782TIP3    H117310   0.766   2.278   2.364
 5782TIP3    H217311   0.879   2.182   2.334
 5783TIP3   OH217312   2.525   2.332   4.813
 5783TIP3    H117313   2.502   2.278   4.888
 5783TIP3    H217314   2.456   2.315   4.749
 5784TIP3   OH217315   2.148   5.480   2.223
 5784TIP3    H117316   2.150   5.415   2.293
 5784TIP3    H217317   2.230   5.529   2.234
 5785TIP3   OH217318   0.093   5.298   1.348
 5785TIP3    H117319   0.119   5.258   1.431
 5785TIP3    H217320   0.173   5.338   1.314
 5786TIP3   OH217321   3.752   2.755   4.615
 5786TIP3    H117322   3.678   2.696   4.629
 5786TIP3    H217323   3.801   2.716   4.543
 5787TIP3   OH217324   1.594   1.089   0.372
 5787TIP3    H117325   1.540   1.077   0.293
 5787TIP3    H217326   1.678   1.049   0.350
 5788TIP3   OH217327   7.054   4.545   4.680
 5788TIP3    H117328   7.141   4.558   4.719
 5788TIP3    H217329   6.999   4.611   4.723
 5789TIP3   OH217330   2.550   3.114   3.655
 5789TIP3    H117331   2.623   3.098   3.714
 5789TIP3    H217332   2.501   3.185   3.697
 5790TIP3   OH217333   2.287   4.051   0.266
 5790TIP3    H117334   2.208   4.097   0.238
 5790TIP3    H217335   2.329   4.024   0.184
 5791TIP3   OH217336   4.906   2.960   4.954
 5791TIP3    H117337   4.826   2.922   4.990
 5791TIP3    H217338   4.878   2.996   4.869
 5792TIP3   OH217339   4.048   2.916   4.493
 5792TIP3    H117340   4.003   2.834   4.511
 5792TIP3    H217341   3.977   2.980   4.485
 5793TIP3   OH217342   6.778   4.562   5.180
 5793TIP3    H117343   6.760   4.613   5.259
 5793TIP3    H217344   6.696   4.562   5.131
 5794TIP3   OH217345   4.077   5.580   0.763
 5794TIP3    H117346   4.125   5.507   0.724
 5794TIP3    H217347   4.135   5.614   0.831
 5795TIP3   OH217348   6.514   6.526   0.813
 5795TIP3    H117349   6.425   6.491   0.815
 5795TIP3    H217350   6.503   6.620   0.801
 5796TIP3   OH217351   2.545   1.587   4.557
 5796TIP3    H117352   2.494   1.585   4.638
 5796TIP3    H217353   2.551   1.495   4.531
 5797TIP3   OH217354   4.730   6.388   4.049
 5797TIP3    H117355   4.741   6.483   4.046
 5797TIP3    H217356   4.654   6.375   4.107
 5798TIP3   OH217357   0.525   1.541   4.793
 5798TIP3    H117358   0.491   1.625   4.763
 5798TIP3    H217359   0.447   1.486   4.805
 5799TIP3   OH217360   6.077   6.544   4.009
 5799TIP3    H117361   6.166   6.545   4.044
 5799TIP3    H217362   6.075   6.619   3.949
 5800TIP3   OH217363   5.035   2.236   0.331
 5800TIP3    H117364   5.130   2.240   0.346
 5800TIP3    H217365   5.025   2.237   0.236
 5801TIP3   OH217366   3.843   2.019   4.950
 5801TIP3    H117367   3.915   2.081   4.944
 5801TIP3    H217368   3.855   1.961   4.875
 5802TIP3   OH217369   5.527   4.271   4.993
 5802TIP3    H117370   5.595   4.303   5.052
 5802TIP3    H217371   5.454   4.332   5.003
 5803TIP3   OH217372   0.131   0.275   1.858
 5803TIP3    H117373   0.187   0.341   1.818
 5803TIP3    H217374   0.071   0.325   1.913
 5804TIP3   OH217375   1.961   6.450   5.657
 5804TIP3    H117376   1.984   6.480   5.745
 5804TIP3    H217377   1.884   6.501   5.633
 5805TIP3   OH217378   4.453   1.387   2.776
 5805TIP3    H117379   4.383   1.444   2.746
 5805TIP3    H217380   4.533   1.428   2.744
 5806TIP3   OH217381   5.925   2.946   5.636
 5806TIP3    H117382   5.921   2.908   5.548
 5806TIP3    H217383   5.951   2.872   5.692
 5807TIP3   OH217384   3.967   3.513   0.902
 5807TIP3    H117385   4.043   3.559   0.938
 5807TIP3    H217386   3.994   3.421   0.899
 5808TIP3   OH217387   7.115   6.570   4.068
 5808TIP3    H117388   7.115   6.522   3.985
 5808TIP3    H217389   7.184   6.636   4.057
 5809TIP3   OH217390   6.520   6.025   5.520
 5809TIP3    H117391   6.476   6.109   5.531
 5809TIP3    H217392   6.458   5.961   5.556
 5810TIP3   OH217393   1.026   3.019   4.447
 5810TIP3    H117394   0.991   3.054   4.365
 5810TIP3    H217395   1.116   2.994   4.426
 5811TIP3   OH217396   4.861   3.393   4.687
 5811TIP3    H117397   4.952   3.364   4.694
 5811TIP3    H217398   4.853   3.423   4.597
 5812TIP3   OH217399   4.235   1.084   1.160
 5812TIP3    H117400   4.163   1.056   1.103
 5812TIP3    H217401   4.298   1.013   1.157
 5813TIP3   OH217402   6.137   5.373   0.630
 5813TIP3    H117403   6.165   5.441   0.691
 5813TIP3    H217404   6.088   5.311   0.684
 5814TIP3   OH217405   5.978   5.220   0.800
 5814TIP3    H117406   5.894   5.183   0.773
 5814TIP3    H217407   6.036   5.144   0.806
 5815TIP3   OH217408   2.253   4.487   1.165
 5815TIP3    H117409   2.177   4.545   1.167
 5815TIP3    H217410   2.226   4.413   1.111
 5816TIP3   OH217411   5.856   2.700   3.741
 5816TIP3    H117412   5.879   2.636   3.674
 5816TIP3    H217413   5.764   2.722   3.722
 5817TIP3   OH217414   6.249   4.662   3.103
 5817TIP3    H117415   6.246   4.587   3.044
 5817TIP3    H217416   6.202   4.633   3.181
 5818TIP3   OH217417   4.196   0.763   3.414
 5818TIP3    H117418   4.111   0.732   3.385
 5818TIP3    H217419   4.236   0.801   3.335
 5819TIP3   OH217420   5.052   1.399   2.400
 5819TIP3    H117421   5.090   1.429   2.318
 5819TIP3    H217422   4.977   1.455   2.414
 5820TIP3   OH217423   6.917   5.775   0.055
 5820TIP3    H117424   6.982   5.717   0.094
 5820TIP3    H217425   6.900   5.841   0.123
 5821TIP3   OH217426   4.029   4.858   3.147
 5821TIP3    H117427   3.951   4.912   3.133
 5821TIP3    H217428   4.015   4.818   3.233
 5822TIP3   OH217429   1.083   3.157   2.286
 5822TIP3    H117430   1.168   3.154   2.330
 5822TIP3    H217431   1.021   3.123   2.351
 5823TIP3   OH217432   5.809   1.306   0.590
 5823TIP3    H117433   5.817   1.321   0.684
 5823TIP3    H217434   5.855   1.223   0.575
 5824TIP3   OH217435   6.039   4.015   5.108
 5824TIP3    H117436   6.119   4.066   5.119
 5824TIP3    H217437   5.969   4.074   5.136
 5825TIP3   OH217438   4.111   2.179   2.305
 5825TIP3    H117439   4.126   2.148   2.216
 5825TIP3    H217440   4.199   2.192   2.341
 5826TIP3   OH217441   5.656   6.413   3.002
 5826TIP3    H117442   5.688   6.388   2.915
 5826TIP3    H217443   5.714   6.368   3.063
 5827TIP3   OH217444   4.674   0.760   2.717
 5827TIP3    H117445   4.593   0.787   2.760
 5827TIP3    H217446   4.646   0.733   2.629
 5828TIP3   OH217447   4.371   3.922   0.845
 5828TIP3    H117448   4.309   3.856   0.877
 5828TIP3    H217449   4.457   3.891   0.873
 5829TIP3   OH217450   5.766   2.146   1.020
 5829TIP3    H117451   5.688   2.166   1.072
 5829TIP3    H217452   5.758   2.053   1.000
 5830TIP3   OH217453   4.669   2.554   3.931
 5830TIP3    H117454   4.646   2.515   3.847
 5830TIP3    H217455   4.714   2.485   3.979
 5831TIP3   OH217456   0.394   3.836   2.079
 5831TIP3    H117457   0.486   3.837   2.052
 5831TIP3    H217458   0.393   3.879   2.164
 5832TIP3   OH217459   2.742   4.071   0.865
 5832TIP3    H117460   2.754   4.037   0.953
 5832TIP3    H217461   2.647   4.076   0.854
 5833TIP3   OH217462   4.356   6.599   1.758
 5833TIP3    H117463   4.368   6.505   1.744
 5833TIP3    H217464   4.288   6.624   1.696
 5834TIP3   OH217465   1.244   6.309   5.341
 5834TIP3    H117466   1.247   6.356   5.258
 5834TIP3    H217467   1.332   6.272   5.352
 5835TIP3   OH217468   6.106   1.230   3.976
 5835TIP3    H117469   6.074   1.215   4.065
 5835TIP3    H217470   6.163   1.155   3.959
 5836TIP3   OH217471   6.821   3.410   0.254
 5836TIP3    H117472   6.839   3.502   0.231
 5836TIP3    H217473   6.792   3.370   0.172
 5837TIP3   OH217474   1.765   6.331   5.284
 5837TIP3    H117475   1.786   6.250   5.238
 5837TIP3    H217476   1.850   6.370   5.304
 5838TIP3   OH217477   5.121   5.369   2.010
 5838TIP3    H117478   5.131   5.341   2.101
 5838TIP3    H217479   5.033   5.341   1.985
 5839TIP3   OH217480   5.906   0.862   1.405
 5839TIP3    H117481   5.890   0.815   1.486
 5839TIP3    H217482   6.001   0.857   1.393
 5840TIP3   OH217483   0.985   1.965   0.858
 5840TIP3    H117484   0.974   1.883   0.906
 5840TIP3    H217485   0.984   1.939   0.766
 5841TIP3   OH217486   1.163   2.052   4.566
 5841TIP3    H117487   1.088   2.112   4.571
 5841TIP3    H217488   1.125   1.965   4.580
 5842TIP3   OH217489   4.976   2.073   4.601
 5842TIP3    H117490   4.900   2.083   4.658
 5842TIP3    H217491   5.050   2.106   4.653
 5843TIP3   OH217492   3.540   5.392   2.690
 5843TIP3    H117493   3.544   5.441   2.773
 5843TIP3    H217494   3.584   5.310   2.709
 5844TIP3   OH217495   6.873   6.244   0.747
 5844TIP3    H117496   6.813   6.305   0.704
 5844TIP3    H217497   6.820   6.205   0.817
 5845TIP3   OH217498   0.617   2.772   3.756
 5845TIP3    H117499   0.588   2.860   3.780
 5845TIP3    H217500   0.711   2.772   3.772
 5846TIP3   OH217501   4.841   5.199   2.508
 5846TIP3    H117502   4.771   5.141   2.480
 5846TIP3    H217503   4.882   5.153   2.582
 5847TIP3   OH217504   0.520   1.226   4.702
 5847TIP3    H117505   0.524   1.154   4.639
 5847TIP3    H217506   0.604   1.223   4.748
 5848TIP3   OH217507   5.524   1.898   3.215
 5848TIP3    H117508   5.446   1.946   3.242
 5848TIP3    H217509   5.515   1.813   3.257
 5849TIP3   OH217510   0.205   5.606   0.943
 5849TIP3    H117511   0.123   5.618   0.992
 5849TIP3    H217512   0.198   5.666   0.869
 5850TIP3   OH217513   6.571   5.670   0.066
 5850TIP3    H117514   6.588   5.640   0.155
 5850TIP3    H217515   6.552   5.763   0.075
 5851TIP3   OH217516   4.443   4.871   0.541
 5851TIP3    H117517   4.441   4.862   0.636
 5851TIP3    H217518   4.464   4.964   0.527
 5852TIP3   OH217519   2.887   0.280   2.215
 5852TIP3    H117520   2.934   0.197   2.224
 5852TIP3    H217521   2.869   0.286   2.121
 5853TIP3   OH217522   2.895   0.608   1.894
 5853TIP3    H117523   2.848   0.610   1.810
 5853TIP3    H217524   2.904   0.515   1.914
 5854TIP3   OH217525   4.914   1.145   4.483
 5854TIP3    H117526   4.922   1.166   4.576
 5854TIP3    H217527   4.879   1.225   4.444
 5855TIP3   OH217528   5.309   6.488   3.703
 5855TIP3    H117529   5.293   6.395   3.683
 5855TIP3    H217530   5.297   6.495   3.798
 5856TIP3   OH217531   0.558   0.428   4.183
 5856TIP3    H117532   0.631   0.382   4.226
 5856TIP3    H217533   0.487   0.364   4.182
 5857TIP3   OH217534   1.206   6.433   2.723
 5857TIP3    H117535   1.285   6.482   2.746
 5857TIP3    H217536   1.156   6.429   2.804
 5858TIP3   OH217537   1.297   6.464   5.860
 5858TIP3    H117538   1.343   6.542   5.831
 5858TIP3    H217539   1.247   6.434   5.783
 5859TIP3   OH217540   5.602   4.155   4.629
 5859TIP3    H117541   5.509   4.137   4.614
 5859TIP3    H217542   5.606   4.247   4.654
 5860TIP3   OH217543   3.870   1.221   5.618
 5860TIP3    H117544   3.944   1.266   5.576
 5860TIP3    H217545   3.874   1.132   5.584
 5861TIP3   OH217546   0.066   3.375   4.822
 5861TIP3    H117547   0.126   3.395   4.894
 5861TIP3    H217548   0.121   3.377   4.744
 5862TIP3   OH217549   2.046   6.772   3.408
 5862TIP3    H117550   2.057   6.865   3.389
 5862TIP3    H217551   2.135   6.739   3.419
 5863TIP3   OH217552   1.714   2.381   2.750
 5863TIP3    H117553   1.803   2.379   2.715
 5863TIP3    H217554   1.708   2.465   2.795
 5864TIP3   OH217555   6.134   0.845   4.305
 5864TIP3    H117556   6.189   0.767   4.301
 5864TIP3    H217557   6.180   0.904   4.365
 5865TIP3   OH217558   2.065   4.695   5.726
 5865TIP3    H117559   2.156   4.720   5.741
 5865TIP3    H217560   2.020   4.778   5.710
 5866TIP3   OH217561   4.468   3.417   5.838
 5866TIP3    H117562   4.553   3.381   5.863
 5866TIP3    H217563   4.489   3.498   5.792
 5867TIP3   OH217564   3.451   4.791   4.871
 5867TIP3    H117565   3.369   4.807   4.826
 5867TIP3    H217566   3.463   4.868   4.927
 5868TIP3   OH217567   0.304   3.993   0.951
 5868TIP3    H117568   0.342   3.915   0.910
 5868TIP3    H217569   0.339   3.991   1.041
 5869TIP3   OH217570   0.112   6.722   3.971
 5869TIP3    H117571   0.098   6.811   3.939
 5869TIP3    H217572   0.200   6.699   3.942
 5870TIP3   OH217573   3.866   5.107   2.370
 5870TIP3    H117574   3.958   5.092   2.349
 5870TIP3    H217575   3.868   5.181   2.431
 5871TIP3   OH217576   2.185   0.643   3.106
 5871TIP3    H117577   2.109   0.654   3.049
 5871TIP3    H217578   2.196   0.727   3.148
 5872TIP3   OH217579   6.162   6.597   4.903
 5872TIP3    H117580   6.137   6.564   4.989
 5872TIP3    H217581   6.225   6.533   4.870
 5873TIP3   OH217582   1.896   2.502   5.727
 5873TIP3    H117583   1.815   2.452   5.735
 5873TIP3    H217584   1.925   2.487   5.638
 5874TIP3   OH217585   4.340   4.588   4.853
 5874TIP3    H117586   4.377   4.651   4.914
 5874TIP3    H217587   4.341   4.633   4.768
 5875TIP3   OH217588   3.356   4.353   1.499
 5875TIP3    H117589   3.369   4.330   1.407
 5875TIP3    H217590   3.344   4.269   1.543
 5876TIP3   OH217591   4.271   2.168   5.311
 5876TIP3    H117592   4.329   2.164   5.387
 5876TIP3    H217593   4.197   2.221   5.341
 5877TIP3   OH217594   6.609   5.097   5.188
 5877TIP3    H117595   6.580   5.183   5.159
 5877TIP3    H217596   6.574   5.037   5.122
 5878TIP3   OH217597   5.899   1.142   1.352
 5878TIP3    H117598   5.896   1.047   1.351
 5878TIP3    H217599   5.966   1.163   1.417
 5879TIP3   OH217600   0.273   1.355   3.587
 5879TIP3    H117601   0.248   1.416   3.657
 5879TIP3    H217602   0.197   1.299   3.576
 5880TIP3   OH217603   0.869   2.710   4.749
 5880TIP3    H117604   0.857   2.792   4.796
 5880TIP3    H217605   0.887   2.736   4.658
 5881TIP3   OH217606   3.162   4.290   0.951
 5881TIP3    H117607   3.067   4.300   0.964
 5881TIP3    H217608   3.185   4.216   1.007
 5882TIP3   OH217609   4.784   0.841   1.505
 5882TIP3    H117610   4.740   0.814   1.586
 5882TIP3    H217611   4.847   0.908   1.533
 5883TIP3   OH217612   3.572   4.722   3.888
 5883TIP3    H117613   3.604   4.632   3.886
 5883TIP3    H217614   3.564   4.743   3.981
 5884TIP3   OH217615   3.033   4.774   1.445
 5884TIP3    H117616   3.085   4.698   1.471
 5884TIP3    H217617   2.991   4.747   1.363
 5885TIP3   OH217618   2.847   2.688   3.089
 5885TIP3    H117619   2.754   2.702   3.109
 5885TIP3    H217620   2.890   2.691   3.175
 5886TIP3   OH217621   7.047   3.305   5.058
 5886TIP3    H117622   7.138   3.297   5.089
 5886TIP3    H217623   7.047   3.383   5.003
 5887TIP3   OH217624   3.144   4.177   5.172
 5887TIP3    H117625   3.109   4.097   5.133
 5887TIP3    H217626   3.237   4.159   5.183
 5888TIP3   OH217627   1.201   1.881   3.268
 5888TIP3    H117628   1.128   1.933   3.303
 5888TIP3    H217629   1.159   1.804   3.230
 5889TIP3   OH217630   0.424   3.093   4.614
 5889TIP3    H117631   0.514   3.119   4.637
 5889TIP3    H217632   0.433   3.004   4.579
 5890TIP3   OH217633   4.082   6.233   4.421
 5890TIP3    H117634   4.139   6.306   4.398
 5890TIP3    H217635   4.138   6.156   4.415
 5891TIP3   OH217636   2.920   5.589   1.366
 5891TIP3    H117637   2.989   5.655   1.369
 5891TIP3    H217638   2.853   5.623   1.426
 5892TIP3   OH217639   1.493   2.865   0.937
 5892TIP3    H117640   1.448   2.800   0.884
 5892TIP3    H217641   1.444   2.946   0.923
 5893TIP3   OH217642   2.596   3.435   5.125
 5893TIP3    H117643   2.669   3.383   5.092
 5893TIP3    H217644   2.523   3.415   5.065
 5894TIP3   OH217645   1.158   5.061   1.375
 5894TIP3    H117646   1.237   5.104   1.406
 5894TIP3    H217647   1.092   5.131   1.369
 5895TIP3   OH217648   6.321   5.957   2.884
 5895TIP3    H117649   6.337   6.004   2.802
 5895TIP3    H217650   6.275   5.878   2.858
 5896TIP3   OH217651   6.431   5.079   5.452
 5896TIP3    H117652   6.355   5.090   5.395
 5896TIP3    H217653   6.505   5.115   5.402
 5897TIP3   OH217654   3.803   0.909   3.292
 5897TIP3    H117655   3.863   0.970   3.249
 5897TIP3    H217656   3.717   0.950   3.282
 5898TIP3   OH217657   1.858   1.006   0.521
 5898TIP3    H117658   1.911   0.944   0.471
 5898TIP3    H217659   1.913   1.084   0.528
 5899TIP3   OH217660   1.825   0.759   0.959
 5899TIP3    H117661   1.765   0.782   0.888
 5899TIP3    H217662   1.770   0.716   1.024
 5900TIP3   OH217663   3.162   0.671   4.529
 5900TIP3    H117664   3.230   0.739   4.529
 5900TIP3    H217665   3.104   0.695   4.458
 5901TIP3   OH217666   5.528   2.197   5.345
 5901TIP3    H117667   5.587   2.271   5.328
 5901TIP3    H217668   5.482   2.183   5.262
 5902TIP3   OH217669   6.723   6.726   1.150
 5902TIP3    H117670   6.762   6.733   1.063
 5902TIP3    H217671   6.637   6.688   1.135
 5903TIP3   OH217672   5.863   4.154   0.988
 5903TIP3    H117673   5.906   4.095   0.926
 5903TIP3    H217674   5.860   4.106   1.070
 5904TIP3   OH217675   4.959   3.466   0.816
 5904TIP3    H117676   5.054   3.464   0.828
 5904TIP3    H217677   4.943   3.541   0.759
 5905TIP3   OH217678   1.310   6.564   0.650
 5905TIP3    H117679   1.267   6.480   0.632
 5905TIP3    H217680   1.263   6.626   0.595
 5906TIP3   OH217681   6.668   4.059   3.446
 5906TIP3    H117682   6.603   4.008   3.495
 5906TIP3    H217683   6.731   3.994   3.416
 5907TIP3   OH217684   5.307  -0.035   1.588
 5907TIP3    H117685   5.346   0.002   1.667
 5907TIP3    H217686   5.217  -0.056   1.614
 5908TIP3   OH217687   2.222   4.543   0.734
 5908TIP3    H117688   2.164   4.539   0.810
 5908TIP3    H217689   2.306   4.573   0.770
 5909TIP3   OH217690   4.932   4.795   1.257
 5909TIP3    H117691   4.966   4.866   1.203
 5909TIP3    H217692   4.894   4.839   1.333
 5910TIP3   OH217693   3.368   5.583   2.950
 5910TIP3    H117694   3.369   5.491   2.927
 5910TIP3    H217695   3.430   5.624   2.889
 5911TIP3   OH217696   6.409   5.081   0.837
 5911TIP3    H117697   6.429   5.005   0.782
 5911TIP3    H217698   6.346   5.048   0.902
 5912TIP3   OH217699   5.780   4.599   3.100
 5912TIP3    H117700   5.744   4.512   3.117
 5912TIP3    H217701   5.825   4.590   3.015
 5913TIP3   OH217702   1.918   1.985   1.572
 5913TIP3    H117703   1.842   1.955   1.523
 5913TIP3    H217704   1.890   2.068   1.611
 5914TIP3   OH217705   5.301   1.548   4.716
 5914TIP3    H117706   5.349   1.628   4.695
 5914TIP3    H217707   5.227   1.578   4.769
 5915TIP3   OH217708   6.696   5.407   3.522
 5915TIP3    H117709   6.670   5.496   3.544
 5915TIP3    H217710   6.788   5.415   3.496
 5916TIP3   OH217711   1.176   3.234   4.110
 5916TIP3    H117712   1.186   3.226   4.016
 5916TIP3    H217713   1.165   3.328   4.125
 5917TIP3   OH217714   1.452   2.996   5.526
 5917TIP3    H117715   1.473   2.903   5.527
 5917TIP3    H217716   1.357   2.999   5.540
 5918TIP3   OH217717   5.408   0.212   1.122
 5918TIP3    H117718   5.450   0.294   1.150
 5918TIP3    H217719   5.467   0.177   1.055
 5919TIP3   OH217720   2.481   3.671   2.340
 5919TIP3    H117721   2.574   3.685   2.323
 5919TIP3    H217722   2.441   3.667   2.254
 5920TIP3   OH217723   3.515   6.158   3.194
 5920TIP3    H117724   3.524   6.112   3.278
 5920TIP3    H217725   3.436   6.121   3.155
 5921TIP3   OH217726   2.051   1.971   1.202
 5921TIP3    H117727   2.094   1.954   1.286
 5921TIP3    H217728   1.965   1.929   1.211
 5922TIP3   OH217729   3.832   5.707   0.751
 5922TIP3    H117730   3.907   5.648   0.744
 5922TIP3    H217731   3.863   5.777   0.809
 5923TIP3   OH217732   3.777   5.852   4.896
 5923TIP3    H117733   3.761   5.897   4.979
 5923TIP3    H217734   3.777   5.759   4.918
 5924TIP3   OH217735   0.306   4.435   4.432
 5924TIP3    H117736   0.303   4.413   4.339
 5924TIP3    H217737   0.257   4.364   4.475
 5925TIP3   OH217738   3.179   2.286   5.709
 5925TIP3    H117739   3.173   2.371   5.753
 5925TIP3    H217740   3.114   2.291   5.639
 5926TIP3   OH217741   7.061   4.334   3.247
 5926TIP3    H117742   7.036   4.383   3.168
 5926TIP3    H217743   6.990   4.271   3.259
 5927TIP3   OH217744   4.446   4.806   3.880
 5927TIP3    H117745   4.405   4.782   3.797
 5927TIP3    H217746   4.532   4.841   3.855
 5928TIP3   OH217747   5.149   3.521   4.123
 5928TIP3    H117748   5.189   3.437   4.100
 5928TIP3    H217749   5.192   3.546   4.205
 5929TIP3   OH217750   2.135   3.890   0.533
 5929TIP3    H117751   2.181   3.906   0.615
 5929TIP3    H217752   2.204   3.864   0.471
 5930TIP3   OH217753   2.446   5.764   3.991
 5930TIP3    H117754   2.438   5.828   4.062
 5930TIP3    H217755   2.466   5.817   3.914
 5931TIP3   OH217756   6.520   3.915   2.263
 5931TIP3    H117757   6.540   3.921   2.169
 5931TIP3    H217758   6.459   3.841   2.269
 5932TIP3   OH217759   5.145   3.197   4.797
 5932TIP3    H117760   5.210   3.262   4.822
 5932TIP3    H217761   5.091   3.185   4.875
 5933TIP3   OH217762   2.446   2.227   0.413
 5933TIP3    H117763   2.502   2.230   0.335
 5933TIP3    H217764   2.405   2.314   0.416
 5934TIP3   OH217765   5.762   0.483   3.520
 5934TIP3    H117766   5.826   0.423   3.557
 5934TIP3    H217767   5.783   0.488   3.427
 5935TIP3   OH217768   3.763   1.094   4.683
 5935TIP3    H117769   3.839   1.085   4.626
 5935TIP3    H217770   3.732   1.184   4.669
 5936TIP3   OH217771   4.875   2.605   3.281
 5936TIP3    H117772   4.844   2.567   3.363
 5936TIP3    H217773   4.866   2.699   3.293
 5937TIP3   OH217774   4.264   1.626   0.666
 5937TIP3    H117775   4.286   1.630   0.573
 5937TIP3    H217776   4.335   1.576   0.706
 5938TIP3   OH217777   2.678   1.104   2.789
 5938TIP3    H117778   2.608   1.041   2.775
 5938TIP3    H217779   2.655   1.149   2.870
 5939TIP3   OH217780   0.460   0.679   2.761
 5939TIP3    H117781   0.457   0.674   2.857
 5939TIP3    H217782   0.399   0.749   2.739
 5940TIP3   OH217783   4.416   4.581   4.064
 5940TIP3    H117784   4.397   4.665   4.023
 5940TIP3    H217785   4.509   4.585   4.086
 5941TIP3   OH217786   0.624   5.262   5.119
 5941TIP3    H117787   0.617   5.269   5.023
 5941TIP3    H217788   0.698   5.203   5.133
 5942TIP3   OH217789   6.579   0.288   2.569
 5942TIP3    H117790   6.619   0.259   2.487
 5942TIP3    H217791   6.646   0.270   2.636
 5943TIP3   OH217792   5.337   2.458   2.808
 5943TIP3    H117793   5.385   2.536   2.781
 5943TIP3    H217794   5.387   2.385   2.771
 5944TIP3   OH217795   3.540   1.302   0.893
 5944TIP3    H117796   3.622   1.253   0.887
 5944TIP3    H217797   3.566   1.394   0.894
 5945TIP3   OH217798   0.650   4.381   5.191
 5945TIP3    H117799   0.561   4.397   5.160
 5945TIP3    H217800   0.640   4.323   5.266
 5946TIP3   OH217801   4.014   3.275   5.965
 5946TIP3    H117802   3.920   3.269   5.951
 5946TIP3    H217803   4.051   3.297   5.880
 5947TIP3   OH217804   2.666   3.158   3.355
 5947TIP3    H117805   2.573   3.140   3.365
 5947TIP3    H217806   2.688   3.213   3.431
 5948TIP3   OH217807   0.605   0.657   0.092
 5948TIP3    H117808   0.512   0.635   0.081
 5948TIP3    H217809   0.651   0.576   0.073
 5949TIP3   OH217810   4.544   0.589   3.805
 5949TIP3    H117811   4.531   0.657   3.871
 5949TIP3    H217812   4.481   0.611   3.736
 5950TIP3   OH217813   6.307   4.653   2.091
 5950TIP3    H117814   6.327   4.559   2.090
 5950TIP3    H217815   6.237   4.663   2.026
 5951TIP3   OH217816   5.632   0.030   4.374
 5951TIP3    H117817   5.637  -0.060   4.342
 5951TIP3    H217818   5.685   0.081   4.311
 5952TIP3   OH217819   6.033   3.880   3.229
 5952TIP3    H117820   6.120   3.861   3.194
 5952TIP3    H217821   6.005   3.958   3.182
 5953TIP3   OH217822   2.740   1.649   0.560
 5953TIP3    H117823   2.671   1.607   0.611
 5953TIP3    H217824   2.696   1.678   0.480
 5954TIP3   OH217825   4.004   4.117   5.202
 5954TIP3    H117826   4.046   4.182   5.145
 5954TIP3    H217827   3.939   4.075   5.145
 5955TIP3   OH217828   7.187   1.644   5.159
 5955TIP3    H117829   7.093   1.625   5.163
 5955TIP3    H217830   7.212   1.657   5.250
 5956TIP3   OH217831   0.369   2.306   4.293
 5956TIP3    H117832   0.346   2.214   4.311
 5956TIP3    H217833   0.286   2.348   4.271
 5957TIP3   OH217834   6.592   3.113   1.820
 5957TIP3    H117835   6.642   3.154   1.750
 5957TIP3    H217836   6.612   3.020   1.813
 5958TIP3   OH217837   4.428   6.379   5.647
 5958TIP3    H117838   4.401   6.402   5.558
 5958TIP3    H217839   4.512   6.336   5.637
 5959TIP3   OH217840   6.589   5.620   0.325
 5959TIP3    H117841   6.615   5.632   0.416
 5959TIP3    H217842   6.520   5.553   0.330
 5960TIP3   OH217843   4.537   5.070   3.038
 5960TIP3    H117844   4.474   5.063   2.966
 5960TIP3    H217845   4.519   5.156   3.077
 5961TIP3   OH217846   0.234   0.798   2.520
 5961TIP3    H117847   0.155   0.787   2.572
 5961TIP3    H217848   0.238   0.720   2.465
 5962TIP3   OH217849   6.778   5.047   5.724
 5962TIP3    H117850   6.686   5.069   5.712
 5962TIP3    H217851   6.823   5.088   5.650
 5963TIP3   OH217852   1.872   5.098   1.100
 5963TIP3    H117853   1.945   5.143   1.142
 5963TIP3    H217854   1.813   5.168   1.073
 5964TIP3   OH217855   5.582   0.139   0.911
 5964TIP3    H117856   5.614   0.053   0.882
 5964TIP3    H217857   5.658   0.196   0.902
 5965TIP3   OH217858   5.827   0.843   2.658
 5965TIP3    H117859   5.912   0.866   2.621
 5965TIP3    H217860   5.848   0.799   2.741
 5966TIP3   OH217861   5.150   5.955   0.249
 5966TIP3    H117862   5.112   6.033   0.209
 5966TIP3    H217863   5.243   5.975   0.257
 5967TIP3   OH217864   4.445   2.825   2.704
 5967TIP3    H117865   4.366   2.801   2.754
 5967TIP3    H217866   4.435   2.780   2.620
 5968TIP3   OH217867   4.159   1.156   4.172
 5968TIP3    H117868   4.150   1.202   4.088
 5968TIP3    H217869   4.069   1.137   4.199
 5969TIP3   OH217870   0.120   1.213   4.442
 5969TIP3    H117871   0.166   1.286   4.482
 5969TIP3    H217872   0.172   1.136   4.466
 5970TIP3   OH217873   2.434   1.411   3.918
 5970TIP3    H117874   2.408   1.322   3.894
 5970TIP3    H217875   2.466   1.450   3.836
 5971TIP3   OH217876   1.556   3.849   4.733
 5971TIP3    H117877   1.495   3.805   4.792
 5971TIP3    H217878   1.583   3.781   4.671
 5972TIP3   OH217879   5.116   6.635   2.890
 5972TIP3    H117880   5.202   6.608   2.858
 5972TIP3    H217881   5.054   6.586   2.835
 5973TIP3   OH217882   3.632   6.083   3.449
 5973TIP3    H117883   3.643   5.998   3.491
 5973TIP3    H217884   3.583   6.136   3.512
 5974TIP3   OH217885   0.997   4.485   2.147
 5974TIP3    H117886   1.022   4.572   2.180
 5974TIP3    H217887   0.967   4.437   2.224
 5975TIP3   OH217888   1.809   0.823   4.583
 5975TIP3    H117889   1.746   0.895   4.587
 5975TIP3    H217890   1.866   0.838   4.658
 5976TIP3   OH217891   6.751   3.828   5.525
 5976TIP3    H117892   6.733   3.850   5.616
 5976TIP3    H217893   6.846   3.814   5.522
 5977TIP3   OH217894   0.198   0.702   5.771
 5977TIP3    H117895   0.269   0.637   5.766
 5977TIP3    H217896   0.242   0.786   5.760
 5978TIP3   OH217897   1.277   3.468   1.613
 5978TIP3    H117898   1.299   3.378   1.589
 5978TIP3    H217899   1.181   3.469   1.619
 5979TIP3   OH217900   5.545   0.506   5.326
 5979TIP3    H117901   5.557   0.577   5.389
 5979TIP3    H217902   5.625   0.506   5.274
 5980TIP3   OH217903   6.260   3.269   5.452
 5980TIP3    H117904   6.170   3.239   5.444
 5980TIP3    H217905   6.313   3.195   5.423
 5981TIP3   OH217906   5.757   4.527   0.079
 5981TIP3    H117907   5.682   4.550   0.024
 5981TIP3    H217908   5.832   4.565   0.033
 5982TIP3   OH217909   6.749   6.116   5.635
 5982TIP3    H117910   6.801   6.157   5.565
 5982TIP3    H217911   6.666   6.093   5.592
 5983TIP3   OH217912   6.052   1.542   1.940
 5983TIP3    H117913   6.039   1.570   2.030
 5983TIP3    H217914   6.017   1.614   1.887
 5984TIP3   OH217915   5.550   3.707   2.740
 5984TIP3    H117916   5.571   3.779   2.800
 5984TIP3    H217917   5.623   3.705   2.679
 5985TIP3   OH217918   3.564   4.841   0.132
 5985TIP3    H117919   3.641   4.860   0.079
 5985TIP3    H217920   3.598   4.797   0.210
 5986TIP3   OH217921   0.265   0.384   4.116
 5986TIP3    H117922   0.292   0.401   4.026
 5986TIP3    H217923   0.182   0.430   4.126
 5987TIP3   OH217924   5.863   5.913   1.372
 5987TIP3    H117925   5.800   5.910   1.444
 5987TIP3    H217926   5.901   5.825   1.370
 5988TIP3   OH217927   4.987   5.151   3.718
 5988TIP3    H117928   4.960   5.140   3.627
 5988TIP3    H217929   5.075   5.114   3.722
 5989TIP3   OH217930   0.069   3.017   5.339
 5989TIP3    H117931   0.076   2.943   5.278
 5989TIP3    H217932   0.153   3.018   5.384
 5990TIP3   OH217933   2.211   1.388   1.218
 5990TIP3    H117934   2.115   1.388   1.216
 5990TIP3    H217935   2.236   1.315   1.162
 5991TIP3   OH217936   2.608   5.629   5.340
 5991TIP3    H117937   2.660   5.708   5.351
 5991TIP3    H217938   2.524   5.660   5.307
 5992TIP3   OH217939   6.717   0.158   3.061
 5992TIP3    H117940   6.649   0.214   3.099
 5992TIP3    H217941   6.738   0.200   2.977
 5993TIP3   OH217942   7.094   0.274   2.438
 5993TIP3    H117943   7.144   0.266   2.519
 5993TIP3    H217944   7.076   0.368   2.430
 5994TIP3   OH217945   7.228   2.027   0.218
 5994TIP3    H117946   7.150   2.061   0.174
 5994TIP3    H217947   7.194   1.977   0.292
 5995TIP3   OH217948   0.231   4.003   5.820
 5995TIP3    H117949   0.268   3.977   5.736
 5995TIP3    H217950   0.146   4.041   5.798
 5996TIP3   OH217951   4.946   4.087   4.833
 5996TIP3    H117952   4.995   4.090   4.751
 5996TIP3    H217953   4.883   4.015   4.821
 5997TIP3   OH217954   0.207   3.649   2.026
 5997TIP3    H117955   0.251   3.733   2.035
 5997TIP3    H217956   0.264   3.598   1.968
 5998TIP3   OH217957   2.340   1.801   2.851
 5998TIP3    H117958   2.418   1.837   2.893
 5998TIP3    H217959   2.334   1.847   2.768
 5999TIP3   OH217960   0.989   0.038   2.672
 5999TIP3    H117961   1.059   0.103   2.677
 5999TIP3    H217962   0.994  -0.009   2.755
 6000TIP3   OH217963   5.097   2.988   4.623
 6000TIP3    H117964   5.094   3.051   4.695
 6000TIP3    H217965   5.185   2.950   4.629
 6001TIP3   OH217966   0.300   6.097   4.885
 6001TIP3    H117967   0.252   6.065   4.809
 6001TIP3    H217968   0.244   6.166   4.922
 6002TIP3   OH217969   5.179   2.292   5.457
 6002TIP3    H117970   5.259   2.256   5.496
 6002TIP3    H217971   5.124   2.215   5.440
 6003TIP3   OH217972   6.284   6.003   0.578
 6003TIP3    H117973   6.250   5.931   0.525
 6003TIP3    H217974   6.222   6.010   0.651
 6004TIP3   OH217975   2.189   3.428   1.562
 6004TIP3    H117976   2.181   3.510   1.513
 6004TIP3    H217977   2.282   3.419   1.580
 6005TIP3   OH217978   4.707   0.956   1.968
 6005TIP3    H117979   4.798   0.947   1.996
 6005TIP3    H217980   4.676   1.036   2.010
 6006TIP3   OH217981   6.418   2.769   5.824
 6006TIP3    H117982   6.498   2.776   5.773
 6006TIP3    H217983   6.359   2.834   5.785
 6007TIP3   OH217984   1.179   1.440   1.543
 6007TIP3    H117985   1.164   1.349   1.569
 6007TIP3    H217986   1.242   1.434   1.471
 6008TIP3   OH217987   6.296   2.627   4.597
 6008TIP3    H117988   6.340   2.628   4.683
 6008TIP3    H217989   6.225   2.564   4.607
 6009TIP3   OH217990   4.707   3.328   4.186
 6009TIP3    H117991   4.799   3.310   4.169
 6009TIP3    H217992   4.680   3.260   4.247
 6010TIP3   OH217993   1.541   1.892   0.364
 6010TIP3    H117994   1.556   1.802   0.392
 6010TIP3    H217995   1.537   1.942   0.445
 6011TIP3   OH217996   1.923   5.306   4.378
 6011TIP3    H117997   1.934   5.398   4.353
 6011TIP3    H217998   1.885   5.309   4.466
 6012TIP3   OH217999   5.065   1.517   0.114
 6012TIP3    H118000   5.134   1.454   0.134
 6012TIP3    H218001   5.109   1.602   0.115
 6013TIP3   OH218002   4.981   6.326   1.286
 6013TIP3    H118003   5.062   6.369   1.313
 6013TIP3    H218004   4.923   6.397   1.260
 6014TIP3   OH218005   1.924   2.709   3.785
 6014TIP3    H118006   1.931   2.755   3.869
 6014TIP3    H218007   1.930   2.778   3.719
 6015TIP3   OH218008   2.896   2.973   2.753
 6015TIP3    H118009   2.811   2.929   2.755
 6015TIP3    H218010   2.925   2.972   2.845
 6016TIP3   OH218011   3.156   4.852   5.436
 6016TIP3    H118012   3.156   4.836   5.530
 6016TIP3    H218013   3.149   4.947   5.427
 6017TIP3   OH218014   6.909   4.575   3.117
 6017TIP3    H118015   6.865   4.650   3.076
 6017TIP3    H218016   6.903   4.506   3.051
 6018TIP3   OH218017   2.065   5.497   4.256
 6018TIP3    H118018   2.128   5.569   4.249
 6018TIP3    H218019   2.031   5.485   4.168
 6019TIP3   OH218020   6.915   2.908   4.792
 6019TIP3    H118021   6.877   2.996   4.790
 6019TIP3    H218022   6.928   2.890   4.885
 6020TIP3   OH218023   7.030   3.814   5.389
 6020TIP3    H118024   7.058   3.723   5.387
 6020TIP3    H218025   6.959   3.819   5.326
 6021TIP3   OH218026   4.371   1.053   3.302
 6021TIP3    H118027   4.338   1.089   3.385
 6021TIP3    H218028   4.445   1.109   3.281
 6022TIP3   OH218029   4.188   2.216   2.612
 6022TIP3    H118030   4.264   2.190   2.560
 6022TIP3    H218031   4.170   2.140   2.668
 6023TIP3   OH218032   2.537   0.981   0.731
 6023TIP3    H118033   2.444   0.983   0.710
 6023TIP3    H218034   2.576   1.047   0.674
 6024TIP3   OH218035   2.770   0.236   0.967
 6024TIP3    H118036   2.722   0.215   1.047
 6024TIP3    H218037   2.806   0.323   0.982
 6025TIP3   OH218038   2.361   2.244   5.580
 6025TIP3    H118039   2.296   2.229   5.510
 6025TIP3    H218040   2.309   2.247   5.660
 6026TIP3   OH218041   5.328   4.389   1.399
 6026TIP3    H118042   5.269   4.449   1.444
 6026TIP3    H218043   5.339   4.427   1.312
 6027TIP3   OH218044   5.677   6.151   4.722
 6027TIP3    H118045   5.709   6.067   4.755
 6027TIP3    H218046   5.585   6.153   4.747
 6028TIP3   OH218047   4.859   3.828   5.640
 6028TIP3    H118048   4.832   3.775   5.715
 6028TIP3    H218049   4.946   3.794   5.617
 6029TIP3   OH218050   0.338   1.585   3.425
 6029TIP3    H118051   0.245   1.597   3.442
 6029TIP3    H218052   0.377   1.672   3.434
 6030TIP3   OH218053   1.465   6.485   3.865
 6030TIP3    H118054   1.485   6.483   3.771
 6030TIP3    H218055   1.530   6.428   3.905
 6031TIP3   OH218056   2.581   1.980   4.899
 6031TIP3    H118057   2.572   2.042   4.972
 6031TIP3    H218058   2.496   1.980   4.856
 6032TIP3   OH218059   0.601   4.231   5.536
 6032TIP3    H118060   0.664   4.299   5.559
 6032TIP3    H218061   0.655   4.154   5.518
 6033TIP3   OH218062   4.752   4.082   2.500
 6033TIP3    H118063   4.664   4.108   2.527
 6033TIP3    H218064   4.749   4.085   2.405
 6034TIP3   OH218065   6.221   0.571   0.732
 6034TIP3    H118066   6.253   0.496   0.682
 6034TIP3    H218067   6.272   0.569   0.813
 6035TIP3   OH218068   0.072   6.557   2.640
 6035TIP3    H118069   0.075   6.632   2.699
 6035TIP3    H218070   0.021   6.588   2.565
 6036TIP3   OH218071   0.845   4.999   2.574
 6036TIP3    H118072   0.910   4.950   2.623
 6036TIP3    H218073   0.864   4.980   2.482
 6037TIP3   OH218074   7.088   5.996   3.227
 6037TIP3    H118075   7.093   6.090   3.211
 6037TIP3    H218076   6.995   5.976   3.222
 6038TIP3   OH218077   2.345   2.307   3.716
 6038TIP3    H118078   2.375   2.349   3.797
 6038TIP3    H218079   2.285   2.369   3.676
 6039TIP3   OH218080   6.041   0.156   0.579
 6039TIP3    H118081   6.116   0.128   0.527
 6039TIP3    H218082   5.965   0.139   0.523
 6040TIP3   OH218083   1.114   6.568   3.904
 6040TIP3    H118084   1.183   6.634   3.896
 6040TIP3    H218085   1.143   6.511   3.974
 6041TIP3   OH218086   0.089   3.297   5.503
 6041TIP3    H118087   0.096   3.345   5.420
 6041TIP3    H218088   0.176   3.303   5.542
 6042TIP3   OH218089   0.788   2.946   4.560
 6042TIP3    H118090   0.874   2.982   4.535
 6042TIP3    H218091   0.744   3.019   4.604
 6043TIP3   OH218092   4.569   0.746   0.728
 6043TIP3    H118093   4.499   0.810   0.717
 6043TIP3    H218094   4.605   0.736   0.640
 6044TIP3   OH218095   3.733   2.112   0.872
 6044TIP3    H118096   3.775   2.069   0.798
 6044TIP3    H218097   3.705   2.041   0.929
 6045TIP3   OH218098   1.101   5.383   0.495
 6045TIP3    H118099   1.013   5.409   0.468
 6045TIP3    H218100   1.153   5.463   0.487
 6046TIP3   OH218101   4.682   0.722   1.725
 6046TIP3    H118102   4.636   0.773   1.793
 6046TIP3    H218103   4.630   0.642   1.718
 6047TIP3   OH218104   1.472   3.340   4.314
 6047TIP3    H118105   1.477   3.395   4.236
 6047TIP3    H218106   1.432   3.259   4.284
 6048TIP3   OH218107   3.194   3.416   5.616
 6048TIP3    H118108   3.224   3.491   5.667
 6048TIP3    H218109   3.185   3.450   5.527
 6049TIP3   OH218110   3.010   5.394   3.033
 6049TIP3    H118111   2.976   5.323   2.979
 6049TIP3    H218112   2.973   5.378   3.120
 6050TIP3   OH218113   5.735   1.478   5.720
 6050TIP3    H118114   5.710   1.485   5.812
 6050TIP3    H218115   5.652   1.469   5.673
 6051TIP3   OH218116   0.829   5.484   2.729
 6051TIP3    H118117   0.921   5.495   2.754
 6051TIP3    H218118   0.783   5.551   2.780
 6052TIP3   OH218119   6.571   2.058   0.730
 6052TIP3    H118120   6.627   2.104   0.792
 6052TIP3    H218121   6.482   2.082   0.756
 6053TIP3   OH218122   2.278   6.306   4.283
 6053TIP3    H118123   2.303   6.228   4.333
 6053TIP3    H218124   2.347   6.315   4.216
 6054TIP3   OH218125   1.464   6.599   4.578
 6054TIP3    H118126   1.393   6.598   4.643
 6054TIP3    H218127   1.460   6.686   4.539
 6055TIP3   OH218128   0.965   3.991   5.559
 6055TIP3    H118129   0.978   3.935   5.635
 6055TIP3    H218130   0.929   4.072   5.595
 6056TIP3   OH218131   2.828   3.066   1.676
 6056TIP3    H118132   2.911   3.114   1.682
 6056TIP3    H218133   2.837   2.996   1.740
 6057TIP3   OH218134   2.466   1.137   3.585
 6057TIP3    H118135   2.543   1.095   3.624
 6057TIP3    H218136   2.493   1.159   3.496
 6058TIP3   OH218137   0.699   5.888   3.787
 6058TIP3    H118138   0.630   5.828   3.815
 6058TIP3    H218139   0.699   5.958   3.852
 6059TIP3   OH218140   3.862   3.545   4.074
 6059TIP3    H118141   3.792   3.496   4.029
 6059TIP3    H218142   3.858   3.514   4.165
 6060TIP3   OH218143   4.778   2.909   2.329
 6060TIP3    H118144   4.790   2.997   2.292
 6060TIP3    H218145   4.759   2.854   2.253
 6061TIP3   OH218146   2.371   1.365   0.798
 6061TIP3    H118147   2.368   1.456   0.768
 6061TIP3    H218148   2.460   1.336   0.781
 6062TIP3   OH218149   5.057   5.832   0.807
 6062TIP3    H118150   5.009   5.808   0.728
 6062TIP3    H218151   5.146   5.800   0.793
 6063TIP3   OH218152   4.367   0.750   2.220
 6063TIP3    H118153   4.428   0.758   2.147
 6063TIP3    H218154   4.378   0.659   2.250
 6064TIP3   OH218155   2.836   4.302   1.748
 6064TIP3    H118156   2.889   4.366   1.796
 6064TIP3    H218157   2.838   4.332   1.658
 6065TIP3   OH218158   6.432   5.316   5.829
 6065TIP3    H118159   6.473   5.370   5.897
 6065TIP3    H218160   6.485   5.332   5.751
 6066TIP3   OH218161   3.310   2.519   1.645
 6066TIP3    H118162   3.301   2.573   1.724
 6066TIP3    H218163   3.357   2.441   1.676
 6067TIP3   OH218164   2.680   1.724   1.731
 6067TIP3    H118165   2.698   1.818   1.734
 6067TIP3    H218166   2.632   1.707   1.813
 6068TIP3   OH218167   0.886   3.093   5.807
 6068TIP3    H118168   0.929   3.110   5.890
 6068TIP3    H218169   0.801   3.056   5.830
 6069TIP3   OH218170   4.400   2.282   0.079
 6069TIP3    H118171   4.332   2.349   0.074
 6069TIP3    H218172   4.397   2.237  -0.005
 6070TIP3   OH218173   4.062   3.590   5.385
 6070TIP3    H118174   3.996   3.599   5.453
 6070TIP3    H218175   4.137   3.641   5.417
 6071TIP3   OH218176   6.979   6.654   1.520
 6071TIP3    H118177   6.988   6.594   1.594
 6071TIP3    H218178   7.037   6.619   1.453
 6072TIP3   OH218179   3.644   6.496   3.928
 6072TIP3    H118180   3.646   6.416   3.981
 6072TIP3    H218181   3.681   6.469   3.844
 6073TIP3   OH218182   4.183   1.281   1.577
 6073TIP3    H118183   4.111   1.219   1.565
 6073TIP3    H218184   4.239   1.267   1.501
 6074TIP3   OH218185   7.233   6.470   5.752
 6074TIP3    H118186   7.166   6.441   5.815
 6074TIP3    H218187   7.221   6.412   5.677
 6075TIP3   OH218188   2.984   1.411   1.865
 6075TIP3    H118189   2.957   1.478   1.927
 6075TIP3    H218190   2.903   1.381   1.824
 6076TIP3   OH218191   4.832   4.192   2.024
 6076TIP3    H118192   4.826   4.267   2.084
 6076TIP3    H218193   4.750   4.196   1.974
 6077TIP3   OH218194   2.083   5.645   3.680
 6077TIP3    H118195   2.113   5.658   3.590
 6077TIP3    H218196   2.046   5.556   3.681
 6078TIP3   OH218197   7.008   4.892   0.711
 6078TIP3    H118198   7.034   4.801   0.728
 6078TIP3    H218199   7.074   4.945   0.757
 6079TIP3   OH218200   0.388   0.521   5.755
 6079TIP3    H118201   0.483   0.513   5.745
 6079TIP3    H218202   0.352   0.446   5.708
 6080TIP3   OH218203   5.756   2.922   1.487
 6080TIP3    H118204   5.664   2.937   1.464
 6080TIP3    H218205   5.754   2.855   1.555
 6081TIP3   OH218206   5.915   5.238   4.934
 6081TIP3    H118207   6.009   5.250   4.945
 6081TIP3    H218208   5.899   5.149   4.966
 6082TIP3   OH218209   3.925   6.454   2.109
 6082TIP3    H118210   3.936   6.370   2.153
 6082TIP3    H218211   3.835   6.480   2.127
 6083TIP3   OH218212   5.458   1.410   1.712
 6083TIP3    H118213   5.549   1.439   1.714
 6083TIP3    H218214   5.424   1.431   1.800
 6084TIP3   OH218215   1.314   4.136   4.627
 6084TIP3    H118216   1.238   4.194   4.633
 6084TIP3    H218217   1.283   4.052   4.662
 6085TIP3   OH218218   5.036   4.166   3.881
 6085TIP3    H118219   5.091   4.108   3.934
 6085TIP3    H218220   4.997   4.227   3.944
 6086TIP3   OH218221   2.030   4.108   1.914
 6086TIP3    H118222   2.123   4.129   1.906
 6086TIP3    H218223   1.986   4.177   1.865
 6087TIP3   OH218224   5.816   5.800   0.104
 6087TIP3    H118225   5.896   5.756   0.074
 6087TIP3    H218226   5.847   5.862   0.171
 6088TIP3   OH218227   6.881   4.763   1.101
 6088TIP3    H118228   6.867   4.840   1.156
 6088TIP3    H218229   6.886   4.690   1.162
 6089TIP3   OH218230   1.005   0.486   1.405
 6089TIP3    H118231   0.946   0.495   1.479
 6089TIP3    H218232   1.071   0.423   1.434
 6090TIP3   OH218233   7.016   6.337   2.422
 6090TIP3    H118234   7.111   6.341   2.412
 6090TIP3    H218235   7.003   6.301   2.510
 6091TIP3   OH218236   5.165   0.449   4.357
 6091TIP3    H118237   5.163   0.520   4.292
 6091TIP3    H218238   5.245   0.401   4.338
 6092TIP3   OH218239   6.732   1.389   1.567
 6092TIP3    H118240   6.810   1.443   1.553
 6092TIP3    H218241   6.736   1.365   1.660
 6093TIP3   OH218242   0.167   1.967   3.661
 6093TIP3    H118243   0.173   1.888   3.607
 6093TIP3    H218244   0.173   2.039   3.599
 6094TIP3   OH218245   4.345   2.986   1.977
 6094TIP3    H118246   4.369   2.979   1.884
 6094TIP3    H218247   4.259   2.944   1.983
 6095TIP3   OH218248   2.118   5.705   4.830
 6095TIP3    H118249   2.114   5.679   4.922
 6095TIP3    H218250   2.076   5.633   4.782
 6096TIP3   OH218251   1.940   2.017   0.484
 6096TIP3    H118252   1.875   2.016   0.555
 6096TIP3    H218253   1.925   1.936   0.436
 6097TIP3   OH218254   3.911   1.123   3.989
 6097TIP3    H118255   3.965   1.180   3.934
 6097TIP3    H218256   3.822   1.156   3.975
 6098TIP3   OH218257   2.602   3.745   2.829
 6098TIP3    H118258   2.585   3.674   2.767
 6098TIP3    H218259   2.579   3.825   2.781
 6099TIP3   OH218260   4.391   2.716   2.446
 6099TIP3    H118261   4.298   2.735   2.440
 6099TIP3    H218262   4.427   2.740   2.361
 6100TIP3   OH218263   1.637   6.092   3.255
 6100TIP3    H118264   1.624   6.175   3.209
 6100TIP3    H218265   1.732   6.082   3.260
 6101TIP3   OH218266   3.750   3.064   5.499
 6101TIP3    H118267   3.747   3.047   5.404
 6101TIP3    H218268   3.836   3.033   5.526
 6102TIP3   OH218269   6.189   3.502   4.138
 6102TIP3    H118270   6.194   3.456   4.221
 6102TIP3    H218271   6.241   3.582   4.151
 6103TIP3   OH218272   1.717   6.534   3.442
 6103TIP3    H118273   1.799   6.578   3.466
 6103TIP3    H218274   1.744   6.458   3.390
 6104TIP3   OH218275   6.505   1.862   3.070
 6104TIP3    H118276   6.551   1.801   3.012
 6104TIP3    H218277   6.469   1.807   3.139
 6105TIP3   OH218278   6.602   4.516   3.951
 6105TIP3    H118279   6.613   4.546   3.860
 6105TIP3    H218280   6.530   4.569   3.985
 6106TIP3   OH218281   2.156   6.415   3.845
 6106TIP3    H118282   2.133   6.435   3.936
 6106TIP3    H218283   2.181   6.499   3.808
 6107TIP3   OH218284   4.596   5.539   5.312
 6107TIP3    H118285   4.543   5.609   5.350
 6107TIP3    H218286   4.595   5.556   5.218
 6108TIP3   OH218287   4.642   2.613   5.749
 6108TIP3    H118288   4.708   2.682   5.756
 6108TIP3    H218289   4.687   2.534   5.778
 6109TIP3   OH218290   5.962   6.152   2.854
 6109TIP3    H118291   5.868   6.157   2.840
 6109TIP3    H218292   5.972   6.107   2.938
 6110TIP3   OH218293   6.345   0.777   4.906
 6110TIP3    H118294   6.371   0.730   4.985
 6110TIP3    H218295   6.349   0.870   4.930
 6111TIP3   OH218296   0.815   3.561   1.254
 6111TIP3    H118297   0.893   3.522   1.294
 6111TIP3    H218298   0.791   3.633   1.312
 6112TIP3   OH218299   4.194   1.909   3.554
 6112TIP3    H118300   4.201   1.995   3.513
 6112TIP3    H218301   4.106   1.908   3.592
 6113TIP3   OH218302   3.643   0.845   4.757
 6113TIP3    H118303   3.683   0.928   4.733
 6113TIP3    H218304   3.554   0.868   4.784
 6114TIP3   OH218305   3.469   4.991   3.941
 6114TIP3    H118306   3.469   4.924   3.872
 6114TIP3    H218307   3.560   4.996   3.969
 6115TIP3   OH218308   2.512   4.748   0.607
 6115TIP3    H118309   2.514   4.689   0.532
 6115TIP3    H218310   2.513   4.690   0.683
 6116TIP3   OH218311   6.955   2.246   4.770
 6116TIP3    H118312   6.869   2.212   4.795
 6116TIP3    H218313   7.012   2.169   4.769
 6117TIP3   OH218314   7.065   3.439   2.445
 6117TIP3    H118315   7.120   3.518   2.445
 6117TIP3    H218316   6.976   3.472   2.454
 6118TIP3   OH218317   3.720   2.543   5.601
 6118TIP3    H118318   3.625   2.542   5.596
 6118TIP3    H218319   3.749   2.545   5.510
 6119TIP3   OH218320   1.030   4.546   1.820
 6119TIP3    H118321   1.038   4.548   1.724
 6119TIP3    H218322   1.034   4.453   1.842
 6120TIP3   OH218323   1.987   0.488   1.984
 6120TIP3    H118324   1.928   0.549   1.940
 6120TIP3    H218325   2.002   0.419   1.919
 6121TIP3   OH218326   1.708   3.724   1.552
 6121TIP3    H118327   1.632   3.742   1.608
 6121TIP3    H218328   1.671   3.689   1.471
 6122TIP3   OH218329   1.304   6.438   1.176
 6122TIP3    H118330   1.333   6.363   1.123
 6122TIP3    H218331   1.356   6.511   1.142
 6123TIP3   OH218332   3.235   1.931   4.054
 6123TIP3    H118333   3.162   1.984   4.022
 6123TIP3    H218334   3.228   1.936   4.149
 6124TIP3   OH218335   1.849   2.713   0.422
 6124TIP3    H118336   1.865   2.645   0.357
 6124TIP3    H218337   1.769   2.686   0.466
 6125TIP3   OH218338   2.840   1.157   2.141
 6125TIP3    H118339   2.843   1.062   2.154
 6125TIP3    H218340   2.897   1.173   2.066
 6126TIP3   OH218341   4.582   6.432   3.319
 6126TIP3    H118342   4.524   6.507   3.330
 6126TIP3    H218343   4.670   6.470   3.316
 6127TIP3   OH218344   1.106   0.162   3.759
 6127TIP3    H118345   1.124   0.201   3.845
 6127TIP3    H218346   1.016   0.189   3.740
 6128TIP3   OH218347   2.567   1.950   2.390
 6128TIP3    H118348   2.472   1.961   2.385
 6128TIP3    H218349   2.595   1.935   2.299
 6129TIP3   OH218350   1.053   1.012   3.451
 6129TIP3    H118351   1.011   0.979   3.372
 6129TIP3    H218352   1.091   0.935   3.493
 6130TIP3   OH218353   4.398   0.167   5.284
 6130TIP3    H118354   4.331   0.106   5.315
 6130TIP3    H218355   4.473   0.111   5.263
 6131TIP3   OH218356   3.227   1.367   0.914
 6131TIP3    H118357   3.321   1.351   0.915
 6131TIP3    H218358   3.188   1.286   0.948
 6132TIP3   OH218359   5.065   6.526   4.272
 6132TIP3    H118360   4.982   6.570   4.292
 6132TIP3    H218361   5.130   6.572   4.324
 6133TIP3   OH218362   3.144   0.598   0.974
 6133TIP3    H118363   3.217   0.574   0.917
 6133TIP3    H218364   3.173   0.574   1.062
 6134TIP3   OH218365   2.368   0.833   1.854
 6134TIP3    H118366   2.324   0.757   1.891
 6134TIP3    H218367   2.461   0.818   1.872
 6135TIP3   OH218368   0.736   2.819   0.371
 6135TIP3    H118369   0.647   2.851   0.383
 6135TIP3    H218370   0.727   2.747   0.307
 6136TIP3   OH218371   0.800   5.714   4.351
 6136TIP3    H118372   0.774   5.800   4.319
 6136TIP3    H218373   0.836   5.731   4.438
 6137TIP3   OH218374   6.069   4.697   1.972
 6137TIP3    H118375   6.010   4.764   1.938
 6137TIP3    H218376   6.040   4.683   2.062
 6138TIP3   OH218377   4.345   0.851   1.123
 6138TIP3    H118378   4.274   0.787   1.120
 6138TIP3    H218379   4.421   0.804   1.089
 6139TIP3   OH218380   4.182   2.410   1.288
 6139TIP3    H118381   4.193   2.483   1.349
 6139TIP3    H218382   4.137   2.448   1.213
 6140TIP3   OH218383   0.746   1.594   4.564
 6140TIP3    H118384   0.723   1.657   4.633
 6140TIP3    H218385   0.840   1.581   4.574
 6141TIP3   OH218386   5.194   6.193   0.651
 6141TIP3    H118387   5.199   6.288   0.663
 6141TIP3    H218388   5.128   6.164   0.714
 6142TIP3   OH218389   3.880   3.975   3.810
 6142TIP3    H118390   3.796   3.938   3.783
 6142TIP3    H218391   3.941   3.949   3.741
 6143TIP3   OH218392   0.426   3.026   4.880
 6143TIP3    H118393   0.431   3.114   4.917
 6143TIP3    H218394   0.400   3.040   4.789
 6144TIP3   OH218395   6.532   5.277   0.466
 6144TIP3    H118396   6.580   5.293   0.384
 6144TIP3    H218397   6.453   5.330   0.459
 6145TIP3   OH218398   0.553   6.462   0.599
 6145TIP3    H118399   0.631   6.418   0.634
 6145TIP3    H218400   0.571   6.555   0.610
 6146TIP3   OH218401   0.692   0.762   4.184
 6146TIP3    H118402   0.618   0.746   4.243
 6146TIP3    H218403   0.671   0.846   4.142
 6147TIP3   OH218404   2.316   0.846   5.540
 6147TIP3    H118405   2.406   0.840   5.572
 6147TIP3    H218406   2.325   0.867   5.447
 6148TIP3   OH218407   3.871   4.748   2.819
 6148TIP3    H118408   3.838   4.660   2.840
 6148TIP3    H218409   3.858   4.757   2.725
 6149TIP3   OH218410   6.680   5.849   3.071
 6149TIP3    H118411   6.676   5.754   3.063
 6149TIP3    H218412   6.592   5.875   3.097
 6150TIP3   OH218413   0.212   0.536   2.123
 6150TIP3    H118414   0.263   0.466   2.164
 6150TIP3    H218415   0.143   0.491   2.075
 6151TIP3   OH218416   7.065   4.714   4.416
 6151TIP3    H118417   6.983   4.692   4.371
 6151TIP3    H218418   7.069   4.653   4.490
 6152TIP3   OH218419   6.274   5.366   2.834
 6152TIP3    H118420   6.354   5.317   2.813
 6152TIP3    H218421   6.204   5.315   2.793
 6153TIP3   OH218422   2.753   4.567   1.091
 6153TIP3    H118423   2.697   4.640   1.116
 6153TIP3    H218424   2.760   4.514   1.170
 6154TIP3   OH218425   1.751   2.483   3.780
 6154TIP3    H118426   1.820   2.548   3.768
 6154TIP3    H218427   1.759   2.456   3.872
 6155TIP3   OH218428   2.793   3.448   3.371
 6155TIP3    H118429   2.742   3.434   3.451
 6155TIP3    H218430   2.753   3.390   3.307
 6156TIP3   OH218431   0.512   1.008   4.563
 6156TIP3    H118432   0.589   0.951   4.572
 6156TIP3    H218433   0.457   0.964   4.498
 6157TIP3   OH218434   4.311   3.953   0.263
 6157TIP3    H118435   4.332   4.042   0.235
 6157TIP3    H218436   4.217   3.957   0.283
 6158TIP3   OH218437   0.477   4.085   2.181
 6158TIP3    H118438   0.566   4.119   2.190
 6158TIP3    H218439   0.435   4.142   2.116
 6159TIP3   OH218440   5.382   4.403   3.993
 6159TIP3    H118441   5.437   4.338   3.949
 6159TIP3    H218442   5.445   4.465   4.030
 6160TIP3   OH218443   0.994   4.873   5.136
 6160TIP3    H118444   1.052   4.877   5.213
 6160TIP3    H218445   0.928   4.941   5.153
 6161TIP3   OH218446   1.508   5.276   4.299
 6161TIP3    H118447   1.592   5.323   4.301
 6161TIP3    H218448   1.526   5.199   4.246
 6162TIP3   OH218449   1.048   5.854   5.340
 6162TIP3    H118450   1.036   5.812   5.425
 6162TIP3    H218451   1.043   5.947   5.358
 6163TIP3   OH218452   6.136   5.767   1.004
 6163TIP3    H118453   6.053   5.737   1.039
 6163TIP3    H218454   6.154   5.849   1.049
 6164TIP3   OH218455   5.434   0.852   0.814
 6164TIP3    H118456   5.509   0.907   0.793
 6164TIP3    H218457   5.416   0.870   0.906
 6165TIP3   OH218458   7.142   5.975   1.201
 6165TIP3    H118459   7.139   5.985   1.296
 6165TIP3    H218460   7.052   5.950   1.177
 6166TIP3   OH218461   6.854   1.832   4.527
 6166TIP3    H118462   6.936   1.808   4.569
 6166TIP3    H218463   6.810   1.749   4.510
 6167TIP3   OH218464   3.627   4.328   4.976
 6167TIP3    H118465   3.708   4.376   4.998
 6167TIP3    H218466   3.645   4.288   4.891
 6168TIP3   OH218467   0.487   0.227   4.572
 6168TIP3    H118468   0.436   0.293   4.525
 6168TIP3    H218469   0.535   0.180   4.504
 6169TIP3   OH218470   4.826   6.461   3.121
 6169TIP3    H118471   4.897   6.518   3.149
 6169TIP3    H218472   4.783   6.508   3.051
 6170TIP3   OH218473   6.798   4.802   3.797
 6170TIP3    H118474   6.835   4.714   3.800
 6170TIP3    H218475   6.703   4.788   3.791
 6171TIP3   OH218476   4.439   6.457   0.684
 6171TIP3    H118477   4.499   6.387   0.711
 6171TIP3    H218478   4.427   6.509   0.763
 6172TIP3   OH218479   6.188   1.760   5.335
 6172TIP3    H118480   6.273   1.752   5.290
 6172TIP3    H218481   6.198   1.836   5.391
 6173TIP3   OH218482   4.331   6.211   4.069
 6173TIP3    H118483   4.348   6.238   3.979
 6173TIP3    H218484   4.249   6.163   4.065
 6174TIP3   OH218485   2.837   5.907   2.014
 6174TIP3    H118486   2.791   5.883   2.094
 6174TIP3    H218487   2.858   5.823   1.972
 6175TIP3   OH218488   2.989   0.198   2.810
 6175TIP3    H118489   2.905   0.165   2.779
 6175TIP3    H218490   3.040   0.119   2.831
 6176TIP3   OH218491   3.106   5.548   4.414
 6176TIP3    H118492   3.103   5.518   4.323
 6176TIP3    H218493   3.144   5.474   4.461
 6177TIP3   OH218494   3.995   3.521   1.690
 6177TIP3    H118495   3.917   3.476   1.723
 6177TIP3    H218496   4.025   3.465   1.618
 6178TIP3   OH218497   2.055   2.108   3.765
 6178TIP3    H118498   2.086   2.183   3.815
 6178TIP3    H218499   1.994   2.145   3.701
 6179TIP3   OH218500   6.324   2.549   2.386
 6179TIP3    H118501   6.325   2.622   2.448
 6179TIP3    H218502   6.248   2.497   2.412
 6180TIP3   OH218503   0.784   0.868   5.044
 6180TIP3    H118504   0.864   0.919   5.047
 6180TIP3    H218505   0.713   0.932   5.050
 6181TIP3   OH218506   0.082   6.789   3.329
 6181TIP3    H118507   0.081   6.862   3.267
 6181TIP3    H218508   0.173   6.760   3.332
 6182TIP3   OH218509   3.358   5.136   2.704
 6182TIP3    H118510   3.448   5.153   2.677
 6182TIP3    H218511   3.342   5.196   2.777
 6183TIP3   OH218512   3.360   3.043   1.279
 6183TIP3    H118513   3.420   3.054   1.354
 6183TIP3    H218514   3.296   3.113   1.290
 6184TIP3   OH218515   2.377   3.368   4.967
 6184TIP3    H118516   2.312   3.312   5.008
 6184TIP3    H218517   2.353   3.369   4.874
 6185TIP3   OH218518   1.861   0.194   2.480
 6185TIP3    H118519   1.766   0.187   2.471
 6185TIP3    H218520   1.882   0.282   2.448
 6186TIP3   OH218521   3.105   4.925   0.241
 6186TIP3    H118522   3.037   4.894   0.301
 6186TIP3    H218523   3.123   4.850   0.184
 6187TIP3   OH218524   3.361   2.127   3.836
 6187TIP3    H118525   3.333   2.149   3.925
 6187TIP3    H218526   3.281   2.105   3.790
 6188TIP3   OH218527   1.531   5.741   1.327
 6188TIP3    H118528   1.448   5.697   1.343
 6188TIP3    H218529   1.567   5.757   1.414
 6189TIP3   OH218530   3.033   4.568   4.081
 6189TIP3    H118531   2.961   4.556   4.019
 6189TIP3    H218532   3.081   4.644   4.048
 6190TIP3   OH218533   5.513   5.530   4.816
 6190TIP3    H118534   5.552   5.566   4.736
 6190TIP3    H218535   5.419   5.536   4.802
 6191TIP3   OH218536   1.697   1.371   1.881
 6191TIP3    H118537   1.629   1.430   1.912
 6191TIP3    H218538   1.778   1.409   1.913
 6192TIP3   OH218539   2.371   1.840   1.196
 6192TIP3    H118540   2.453   1.811   1.236
 6192TIP3    H218541   2.366   1.933   1.216
 6193TIP3   OH218542   1.081   3.968   3.268
 6193TIP3    H118543   1.044   4.040   3.217
 6193TIP3    H218544   1.021   3.957   3.342
 6194TIP3   OH218545   3.474   3.439   4.240
 6194TIP3    H118546   3.381   3.462   4.243
 6194TIP3    H218547   3.519   3.518   4.270
 6195TIP3   OH218548   0.447   3.290   4.989
 6195TIP3    H118549   0.391   3.364   5.015
 6195TIP3    H218550   0.435   3.225   5.057
 6196TIP3   OH218551   3.587   1.358   2.027
 6196TIP3    H118552   3.503   1.342   2.070
 6196TIP3    H218553   3.565   1.413   1.951
 6197TIP3   OH218554   1.937   0.592   5.272
 6197TIP3    H118555   1.910   0.640   5.350
 6197TIP3    H218556   1.862   0.601   5.212
 6198TIP3   OH218557   4.215   4.967   3.478
 6198TIP3    H118558   4.158   4.893   3.459
 6198TIP3    H218559   4.196   4.989   3.570
 6199TIP3   OH218560   0.291   5.235   0.789
 6199TIP3    H118561   0.228   5.232   0.861
 6199TIP3    H218562   0.344   5.312   0.806
 6200TIP3   OH218563   5.758   1.226   3.498
 6200TIP3    H118564   5.834   1.247   3.553
 6200TIP3    H218565   5.721   1.147   3.538
 6201TIP3   OH218566   0.086   5.651   5.746
 6201TIP3    H118567   0.004   5.692   5.718
 6201TIP3    H218568   0.138   5.644   5.667
 6202TIP3   OH218569   1.091   6.830   0.949
 6202TIP3    H118570   1.042   6.846   0.869
 6202TIP3    H218571   1.140   6.749   0.933
 6203TIP3   OH218572   0.925   0.866   3.831
 6203TIP3    H118573   0.852   0.927   3.844
 6203TIP3    H218574   0.991   0.918   3.786
 6204TIP3   OH218575   4.920   4.504   2.594
 6204TIP3    H118576   4.847   4.468   2.544
 6204TIP3    H218577   4.885   4.519   2.681
 6205TIP3   OH218578   2.249   0.450   0.236
 6205TIP3    H118579   2.245   0.357   0.213
 6205TIP3    H218580   2.162   0.470   0.270
 6206TIP3   OH218581   1.945   2.300   0.371
 6206TIP3    H118582   1.902   2.231   0.423
 6206TIP3    H218583   1.986   2.357   0.435
 6207TIP3   OH218584   6.552   2.662   3.771
 6207TIP3    H118585   6.579   2.706   3.852
 6207TIP3    H218586   6.527   2.574   3.799
 6208TIP3   OH218587   6.738   3.180   1.595
 6208TIP3    H118588   6.729   3.109   1.531
 6208TIP3    H218589   6.764   3.256   1.543
 6209TIP3   OH218590   0.921   6.458   2.194
 6209TIP3    H118591   0.906   6.372   2.234
 6209TIP3    H218592   0.864   6.458   2.117
 6210TIP3   OH218593   5.969   4.114   2.756
 6210TIP3    H118594   5.953   4.021   2.773
 6210TIP3    H218595   6.059   4.117   2.722
 6211TIP3   OH218596  -0.027   6.228   4.681
 6211TIP3    H118597   0.032   6.263   4.747
 6211TIP3    H218598  -0.083   6.302   4.657
 6212TIP3   OH218599   6.260   5.580   5.717
 6212TIP3    H118600   6.223   5.579   5.805
 6212TIP3    H218601   6.227   5.501   5.676
 6213TIP3   OH218602   4.712   1.098   5.069
 6213TIP3    H118603   4.663   1.121   4.990
 6213TIP3    H218604   4.696   1.004   5.080
 6214TIP3   OH218605   3.207   4.620   0.278
 6214TIP3    H118606   3.185   4.649   0.189
 6214TIP3    H218607   3.202   4.525   0.274
 6215TIP3   OH218608   6.758   3.804   3.271
 6215TIP3    H118609   6.747   3.752   3.350
 6215TIP3    H218610   6.680   3.785   3.219
 6216TIP3   OH218611   2.840   3.004   4.157
 6216TIP3    H118612   2.868   3.092   4.184
 6216TIP3    H218613   2.887   2.989   4.075
 6217TIP3   OH218614   0.490   2.067   0.726
 6217TIP3    H118615   0.411   2.046   0.677
 6217TIP3    H218616   0.459   2.107   0.807
 6218TIP3   OH218617   1.759   0.616   1.872
 6218TIP3    H118618   1.735   0.528   1.844
 6218TIP3    H218619   1.779   0.662   1.790
 6219TIP3   OH218620   5.430   6.039   1.734
 6219TIP3    H118621   5.368   5.970   1.756
 6219TIP3    H218622   5.424   6.102   1.806
 6220TIP3   OH218623   5.938   5.431   2.377
 6220TIP3    H118624   5.873   5.480   2.328
 6220TIP3    H218625   5.954   5.484   2.456
 6221TIP3   OH218626   7.103   6.506   0.277
 6221TIP3    H118627   7.089   6.466   0.191
 6221TIP3    H218628   7.078   6.598   0.265
 6222TIP3   OH218629   3.756   2.131   5.352
 6222TIP3    H118630   3.751   2.042   5.388
 6222TIP3    H218631   3.842   2.136   5.311
 6223TIP3   OH218632   3.764   3.294   2.924
 6223TIP3    H118633   3.699   3.235   2.963
 6223TIP3    H218634   3.714   3.348   2.863
 6224TIP3   OH218635   4.177   2.969   1.112
 6224TIP3    H118636   4.214   3.057   1.120
 6224TIP3    H218637   4.242   2.912   1.154
 6225TIP3   OH218638   3.170   0.420   4.468
 6225TIP3    H118639   3.143   0.369   4.545
 6225TIP3    H218640   3.180   0.509   4.500
 6226TIP3   OH218641   1.972   1.709   2.080
 6226TIP3    H118642   2.002   1.789   2.035
 6226TIP3    H218643   1.998   1.722   2.171
 6227TIP3   OH218644   3.442   3.793   0.131
 6227TIP3    H118645   3.523   3.830   0.097
 6227TIP3    H218646   3.387   3.779   0.054
 6228TIP3   OH218647   1.084   2.297   0.394
 6228TIP3    H118648   1.117   2.268   0.480
 6228TIP3    H218649   1.050   2.385   0.410
 6229TIP3   OH218650   2.095   1.598   4.864
 6229TIP3    H118651   2.021   1.539   4.878
 6229TIP3    H218652   2.110   1.594   4.769
 6230TIP3   OH218653   5.574   1.412   3.122
 6230TIP3    H118654   5.613   1.488   3.080
 6230TIP3    H218655   5.649   1.363   3.157
 6231TIP3   OH218656   4.406   1.525   1.914
 6231TIP3    H118657   4.359   1.446   1.887
 6231TIP3    H218658   4.338   1.581   1.951
 6232TIP3   OH218659   2.526   5.990   4.799
 6232TIP3    H118660   2.481   6.073   4.785
 6232TIP3    H218661   2.558   5.994   4.889
 6233TIP3   OH218662   5.042   6.217   0.105
 6233TIP3    H118663   5.080   6.305   0.104
 6233TIP3    H218664   4.966   6.223   0.047
 6234TIP3   OH218665   5.619   1.895   4.175
 6234TIP3    H118666   5.656   1.979   4.201
 6234TIP3    H218667   5.574   1.913   4.092
 6235TIP3   OH218668   1.066   0.195   1.528
 6235TIP3    H118669   1.028   0.112   1.499
 6235TIP3    H218670   1.139   0.210   1.469
 6236TIP3   OH218671   6.518   5.955   0.064
 6236TIP3    H118672   6.424   5.937   0.058
 6236TIP3    H218673   6.547   5.961  -0.027
 6237TIP3   OH218674   3.017   6.539   4.712
 6237TIP3    H118675   3.089   6.500   4.663
 6237TIP3    H218676   3.034   6.516   4.803
 6238TIP3   OH218677   3.276   4.934   1.318
 6238TIP3    H118678   3.371   4.929   1.309
 6238TIP3    H218679   3.244   4.941   1.229
 6239TIP3   OH218680   7.022   5.539   0.731
 6239TIP3    H118681   7.099   5.572   0.685
 6239TIP3    H218682   7.025   5.583   0.816
 6240TIP3   OH218683   5.589   5.903   1.038
 6240TIP3    H118684   5.655   5.970   1.058
 6240TIP3    H218685   5.553   5.930   0.953
 6241TIP3   OH218686   0.691   5.411   3.683
 6241TIP3    H118687   0.783   5.387   3.692
 6241TIP3    H218688   0.644   5.327   3.684
 6242TIP3   OH218689   3.826   5.043   0.455
 6242TIP3    H118690   3.891   5.072   0.391
 6242TIP3    H218691   3.830   5.110   0.524
 6243TIP3   OH218692   3.658   2.662   1.820
 6243TIP3    H118693   3.704   2.723   1.877
 6243TIP3    H218694   3.658   2.579   1.869
 6244TIP3   OH218695   2.743   6.417   1.101
 6244TIP3    H118696   2.784   6.345   1.149
 6244TIP3    H218697   2.712   6.477   1.168
 6245TIP3   OH218698   3.241   3.969   5.726
 6245TIP3    H118699   3.206   4.025   5.657
 6245TIP3    H218700   3.311   3.919   5.683
 6246TIP3   OH218701   3.184   4.306   2.158
 6246TIP3    H118702   3.136   4.387   2.172
 6246TIP3    H218703   3.125   4.237   2.188
 6247TIP3   OH218704   2.382   0.310   3.821
 6247TIP3    H118705   2.408   0.391   3.776
 6247TIP3    H218706   2.458   0.253   3.813
 6248TIP3   OH218707   1.189   0.233   2.709
 6248TIP3    H118708   1.155   0.314   2.748
 6248TIP3    H218709   1.200   0.255   2.616
 6249TIP3   OH218710   7.134   6.703   3.741
 6249TIP3    H118711   7.184   6.686   3.821
 6249TIP3    H218712   7.171   6.644   3.676
 6250TIP3   OH218713   0.671   6.380   0.827
 6250TIP3    H118714   0.594   6.344   0.871
 6250TIP3    H218715   0.686   6.465   0.868
 6251TIP3   OH218716   2.319   3.109   0.589
 6251TIP3    H118717   2.312   3.146   0.677
 6251TIP3    H218718   2.413   3.112   0.569
 6252TIP3   OH218719   1.845   3.195   3.881
 6252TIP3    H118720   1.875   3.286   3.873
 6252TIP3    H218721   1.753   3.197   3.856
 6253TIP3   OH218722   0.259   1.122   1.518
 6253TIP3    H118723   0.327   1.112   1.585
 6253TIP3    H218724   0.308   1.137   1.437
 6254TIP3   OH218725   1.821   3.854   2.946
 6254TIP3    H118726   1.900   3.807   2.974
 6254TIP3    H218727   1.789   3.806   2.870
 6255TIP3   OH218728   5.814   3.448   5.429
 6255TIP3    H118729   5.724   3.416   5.418
 6255TIP3    H218730   5.820   3.523   5.371
 6256TIP3   OH218731   1.544   1.170   1.811
 6256TIP3    H118732   1.591   1.144   1.732
 6256TIP3    H218733   1.600   1.236   1.852
 6257TIP3   OH218734   3.972   1.015   2.567
 6257TIP3    H118735   3.985   0.987   2.658
 6257TIP3    H218736   3.945   0.935   2.522
 6258TIP3   OH218737   2.322   6.069   3.337
 6258TIP3    H118738   2.229   6.089   3.333
 6258TIP3    H218739   2.330   6.003   3.406
 6259TIP3   OH218740   0.398   1.059   0.711
 6259TIP3    H118741   0.306   1.038   0.728
 6259TIP3    H218742   0.439   1.059   0.797
 6260TIP3   OH218743   2.900   1.598   5.556
 6260TIP3    H118744   2.813   1.574   5.586
 6260TIP3    H218745   2.886   1.671   5.496
 6261TIP3   OH218746   0.586   4.983   2.593
 6261TIP3    H118747   0.572   4.989   2.498
 6261TIP3    H218748   0.681   4.980   2.603
 6262TIP3   OH218749   2.003   6.504   2.110
 6262TIP3    H118750   2.001   6.430   2.050
 6262TIP3    H218751   1.993   6.581   2.054
 6263TIP3   OH218752   0.671   5.719   4.631
 6263TIP3    H118753   0.664   5.725   4.726
 6263TIP3    H218754   0.694   5.807   4.602
 6264TIP3   OH218755   4.663   4.186   5.336
 6264TIP3    H118756   4.578   4.146   5.356
 6264TIP3    H218757   4.723   4.148   5.400
 6265TIP3   OH218758   3.066   6.162   0.643
 6265TIP3    H118759   3.071   6.074   0.607
 6265TIP3    H218760   3.100   6.153   0.732
 6266TIP3   OH218761   0.819   5.895   2.396
 6266TIP3    H118762   0.763   5.955   2.347
 6266TIP3    H218763   0.812   5.925   2.487
 6267TIP3   OH218764   3.195   4.028   1.307
 6267TIP3    H118765   3.216   4.056   1.218
 6267TIP3    H218766   3.101   4.013   1.306
 6268TIP3   OH218767   3.904   2.983   1.456
 6268TIP3    H118768   3.866   3.014   1.539
 6268TIP3    H218769   3.839   3.004   1.390
 6269TIP3   OH218770   1.760   3.315   1.527
 6269TIP3    H118771   1.766   3.368   1.448
 6269TIP3    H218772   1.695   3.248   1.505
 6270TIP3   OH218773   1.371   1.754   1.218
 6270TIP3    H118774   1.431   1.822   1.185
 6270TIP3    H218775   1.374   1.764   1.313
 6271TIP3   OH218776   4.675   4.253   1.146
 6271TIP3    H118777   4.604   4.309   1.179
 6271TIP3    H218778   4.672   4.265   1.051
 6272TIP3   OH218779   0.286   3.042   5.754
 6272TIP3    H118780   0.248   2.993   5.682
 6272TIP3    H218781   0.220   3.041   5.823
 6273TIP3   OH218782   0.332   6.209   1.612
 6273TIP3    H118783   0.299   6.136   1.558
 6273TIP3    H218784   0.370   6.166   1.689
 6274TIP3   OH218785   0.066   1.322   1.910
 6274TIP3    H118786   0.099   1.232   1.907
 6274TIP3    H218787  -0.024   1.315   1.877
 6275TIP3   OH218788   0.306   0.746   3.254
 6275TIP3    H118789   0.244   0.699   3.309
 6275TIP3    H218790   0.279   0.838   3.259
 6276TIP3   OH218791   2.816   5.177   1.215
 6276TIP3    H118792   2.786   5.266   1.194
 6276TIP3    H218793   2.773   5.156   1.297
 6277TIP3   OH218794   7.237   1.494   3.979
 6277TIP3    H118795   7.171   1.446   3.928
 6277TIP3    H218796   7.222   1.586   3.957
 6278TIP3   OH218797   6.012   2.000   4.504
 6278TIP3    H118798   6.008   1.967   4.594
 6278TIP3    H218799   6.071   2.075   4.509
 6279TIP3   OH218800   3.988   3.784   2.637
 6279TIP3    H118801   3.970   3.848   2.706
 6279TIP3    H218802   3.939   3.706   2.664
 6280TIP3   OH218803   3.525   3.743   5.112
 6280TIP3    H118804   3.618   3.722   5.108
 6280TIP3    H218805   3.503   3.737   5.205
 6281TIP3   OH218806   5.657   5.862   0.729
 6281TIP3    H118807   5.681   5.770   0.736
 6281TIP3    H218808   5.648   5.877   0.635
 6282TIP3   OH218809   2.105   3.069   3.872
 6282TIP3    H118810   2.033   3.126   3.897
 6282TIP3    H218811   2.178   3.096   3.927
 6283TIP3   OH218812   0.928   4.279   2.337
 6283TIP3    H118813   0.863   4.225   2.292
 6283TIP3    H218814   1.003   4.221   2.351
 6284TIP3   OH218815   1.089   4.275   1.013
 6284TIP3    H118816   1.132   4.330   0.948
 6284TIP3    H218817   1.018   4.232   0.965
 6285TIP3   OH218818   4.558   0.102   0.814
 6285TIP3    H118819   4.591   0.138   0.732
 6285TIP3    H218820   4.585   0.166   0.881
 6286TIP3   OH218821   5.773   1.634   2.028
 6286TIP3    H118822   5.802   1.722   2.004
 6286TIP3    H218823   5.722   1.646   2.108
 6287TIP3   OH218824   6.021   3.647   5.781
 6287TIP3    H118825   6.116   3.659   5.781
 6287TIP3    H218826   6.007   3.570   5.726
 6288TIP3   OH218827   0.187   0.476   0.498
 6288TIP3    H118828   0.220   0.459   0.586
 6288TIP3    H218829   0.203   0.395   0.450
 6289TIP3   OH218830   6.080   3.389   2.215
 6289TIP3    H118831   6.040   3.438   2.142
 6289TIP3    H218832   6.008   3.336   2.249
 6290TIP3   OH218833   5.854   0.328   2.459
 6290TIP3    H118834   5.840   0.365   2.546
 6290TIP3    H218835   5.778   0.355   2.408
 6291TIP3   OH218836   6.004   2.845   4.772
 6291TIP3    H118837   5.989   2.933   4.806
 6291TIP3    H218838   6.067   2.806   4.833
 6292TIP3   OH218839   5.201   3.674   0.287
 6292TIP3    H118840   5.241   3.691   0.372
 6292TIP3    H218841   5.133   3.742   0.279
 6293TIP3   OH218842   3.213   5.695   3.434
 6293TIP3    H118843   3.283   5.658   3.381
 6293TIP3    H218844   3.145   5.718   3.371
 6294TIP3   OH218845   1.472   1.799   3.537
 6294TIP3    H118846   1.437   1.715   3.568
 6294TIP3    H218847   1.544   1.819   3.597
 6295TIP3   OH218848   0.458   3.571   1.332
 6295TIP3    H118849   0.535   3.622   1.305
 6295TIP3    H218850   0.470   3.486   1.289
 6296TIP3   OH218851   3.163   3.988   0.500
 6296TIP3    H118852   3.136   3.911   0.449
 6296TIP3    H218853   3.171   4.058   0.436
 6297TIP3   OH218854   3.668   2.198   2.979
 6297TIP3    H118855   3.690   2.110   2.946
 6297TIP3    H218856   3.662   2.252   2.900
 6298TIP3   OH218857   0.842   3.108   3.152
 6298TIP3    H118858   0.904   3.180   3.141
 6298TIP3    H218859   0.893   3.030   3.130
 6299TIP3   OH218860   5.407   0.900   2.519
 6299TIP3    H118861   5.465   0.874   2.590
 6299TIP3    H218862   5.466   0.916   2.445
 6300TIP3   OH218863   2.988   2.430   3.734
 6300TIP3    H118864   3.010   2.394   3.820
 6300TIP3    H218865   2.901   2.468   3.744
 6301TIP3   OH218866   1.247   3.229   0.215
 6301TIP3    H118867   1.231   3.148   0.168
 6301TIP3    H218868   1.255   3.202   0.307
 6302TIP3   OH218869   3.341   5.936   5.023
 6302TIP3    H118870   3.292   5.999   4.971
 6302TIP3    H218871   3.388   5.989   5.088
 6303TIP3   OH218872   3.102   1.723   4.495
 6303TIP3    H118873   3.150   1.709   4.576
 6303TIP3    H218874   3.021   1.673   4.506
 6304TIP3   OH218875   2.762   0.689   2.916
 6304TIP3    H118876   2.817   0.748   2.966
 6304TIP3    H218877   2.821   0.649   2.852
 6305TIP3   OH218878   3.144   4.130   5.542
 6305TIP3    H118879   3.208   4.199   5.524
 6305TIP3    H218880   3.109   4.107   5.456
 6306TIP3   OH218881   5.941   5.638   3.462
 6306TIP3    H118882   5.879   5.593   3.520
 6306TIP3    H218883   5.973   5.571   3.403
 6307TIP3   OH218884   0.999   1.936   1.188
 6307TIP3    H118885   0.965   1.937   1.277
 6307TIP3    H218886   0.958   1.859   1.148
 6308TIP3   OH218887   5.235   5.604   2.097
 6308TIP3    H118888   5.164   5.539   2.091
 6308TIP3    H218889   5.193   5.687   2.074
 6309TIP3   OH218890   3.720   5.154   5.083
 6309TIP3    H118891   3.644   5.206   5.111
 6309TIP3    H218892   3.692   5.114   5.000
 6310TIP3   OH218893   5.046   3.639   5.309
 6310TIP3    H118894   5.129   3.676   5.281
 6310TIP3    H218895   5.047   3.648   5.405
 6311TIP3   OH218896   2.659   5.644   2.635
 6311TIP3    H118897   2.736   5.588   2.625
 6311TIP3    H218898   2.593   5.586   2.673
 6312TIP3   OH218899   3.809   4.009   3.346
 6312TIP3    H118900   3.847   4.090   3.381
 6312TIP3    H218901   3.772   4.035   3.261
 6313TIP3   OH218902   6.920   0.785   2.402
 6313TIP3    H118903   6.903   0.768   2.495
 6313TIP3    H218904   6.834   0.780   2.360
 6314TIP3   OH218905   1.720   3.650   3.732
 6314TIP3    H118906   1.647   3.684   3.679
 6314TIP3    H218907   1.797   3.696   3.699
 6315TIP3   OH218908   5.832   3.416   4.148
 6315TIP3    H118909   5.747   3.453   4.128
 6315TIP3    H218910   5.857   3.455   4.232
 6316TIP3   OH218911   5.096   2.612   3.712
 6316TIP3    H118912   5.013   2.657   3.725
 6316TIP3    H218913   5.079   2.522   3.741
 6317TIP3   OH218914   7.025   2.900   5.068
 6317TIP3    H118915   7.056   2.825   5.016
 6317TIP3    H218916   6.990   2.861   5.148
 6318TIP3   OH218917   1.599   1.657   0.465
 6318TIP3    H118918   1.506   1.637   0.475
 6318TIP3    H218919   1.639   1.630   0.548
 6319TIP3   OH218920   3.172   1.364   2.489
 6319TIP3    H118921   3.141   1.453   2.504
 6319TIP3    H218922   3.201   1.364   2.397
 6320TIP3   OH218923   4.560   3.345   5.563
 6320TIP3    H118924   4.546   3.317   5.654
 6320TIP3    H218925   4.516   3.279   5.510
 6321TIP3   OH218926   4.412   3.517   1.692
 6321TIP3    H118927   4.398   3.603   1.653
 6321TIP3    H218928   4.368   3.456   1.632
 6322TIP3   OH218929   2.220   1.129   4.798
 6322TIP3    H118930   2.308   1.163   4.813
 6322TIP3    H218931   2.165   1.174   4.862
 6323TIP3   OH218932   6.222   5.995   1.097
 6323TIP3    H118933   6.135   6.023   1.069
 6323TIP3    H218934   6.281   6.063   1.064
 6324TIP3   OH218935   4.425   2.839   1.157
 6324TIP3    H118936   4.485   2.872   1.224
 6324TIP3    H218937   4.449   2.747   1.146
 6325TIP3   OH218938   3.952   6.363   1.568
 6325TIP3    H118939   3.867   6.389   1.532
 6325TIP3    H218940   3.939   6.363   1.663
 6326TIP3   OH218941   2.735   0.546   0.373
 6326TIP3    H118942   2.780   0.630   0.381
 6326TIP3    H218943   2.804   0.485   0.345
 6327TIP3   OH218944   1.546   0.784   2.678
 6327TIP3    H118945   1.500   0.736   2.609
 6327TIP3    H218946   1.503   0.756   2.759
 6328TIP3   OH218947   6.883   2.881   0.232
 6328TIP3    H118948   6.809   2.828   0.200
 6328TIP3    H218949   6.948   2.817   0.259
 6329TIP3   OH218950   3.422   6.242   4.023
 6329TIP3    H118951   3.397   6.171   4.082
 6329TIP3    H218952   3.510   6.267   4.049
 6330TIP3   OH218953   4.647   4.113   3.534
 6330TIP3    H118954   4.606   4.029   3.553
 6330TIP3    H218955   4.698   4.134   3.612
 6331TIP3   OH218956   0.895   3.428   2.563
 6331TIP3    H118957   0.813   3.378   2.554
 6331TIP3    H218958   0.917   3.453   2.474
 6332TIP3   OH218959   1.015   2.418   0.715
 6332TIP3    H118960   0.932   2.418   0.761
 6332TIP3    H218961   0.999   2.467   0.634
 6333TIP3   OH218962   5.759   2.078   4.853
 6333TIP3    H118963   5.837   2.128   4.829
 6333TIP3    H218964   5.712   2.066   4.771
 6334TIP3   OH218965   6.043   3.207   0.592
 6334TIP3    H118966   6.121   3.197   0.646
 6334TIP3    H218967   6.032   3.123   0.549
 6335TIP3   OH218968   3.545   6.457   5.441
 6335TIP3    H118969   3.589   6.424   5.363
 6335TIP3    H218970   3.453   6.465   5.415
 6336TIP3   OH218971   1.327   1.471   1.328
 6336TIP3    H118972   1.396   1.404   1.334
 6336TIP3    H218973   1.371   1.553   1.347
 6337TIP3   OH218974   1.725   5.271   3.187
 6337TIP3    H118975   1.682   5.344   3.232
 6337TIP3    H218976   1.804   5.310   3.149
 6338TIP3   OH218977   3.665   4.883   2.562
 6338TIP3    H118978   3.650   4.931   2.480
 6338TIP3    H218979   3.728   4.815   2.539
 6339TIP3   OH218980   2.446   1.100   5.460
 6339TIP3    H118981   2.407   1.095   5.373
 6339TIP3    H218982   2.379   1.066   5.519
 6340TIP3   OH218983   1.677   1.088   1.585
 6340TIP3    H118984   1.670   1.022   1.515
 6340TIP3    H218985   1.763   1.073   1.624
 6341TIP3   OH218986   4.096   6.040   4.027
 6341TIP3    H118987   4.126   6.020   3.939
 6341TIP3    H218988   4.030   5.973   4.046
 6342TIP3   OH218989   7.058   5.754   2.972
 6342TIP3    H118990   7.007   5.701   3.033
 6342TIP3    H218991   7.068   5.838   3.015
 6343TIP3   OH218992   1.732   1.088   0.894
 6343TIP3    H118993   1.694   1.176   0.887
 6343TIP3    H218994   1.740   1.073   0.988
 6344TIP3   OH218995   4.599   6.342   2.650
 6344TIP3    H118996   4.638   6.417   2.604
 6344TIP3    H218997   4.505   6.351   2.635
 6345TIP3   OH218998   6.462   6.374   3.988
 6345TIP3    H118999   6.408   6.394   3.912
 6345TIP3    H219000   6.417   6.417   4.061
 6346TIP3   OH219001   7.118   2.822   1.050
 6346TIP3    H119002   7.194   2.875   1.073
 6346TIP3    H219003   7.064   2.880   0.996
 6347TIP3   OH219004   0.868   0.318   3.822
 6347TIP3    H119005   0.774   0.321   3.803
 6347TIP3    H219006   0.874   0.326   3.917
 6348TIP3   OH219007   1.242   3.146   2.519
 6348TIP3    H119008   1.328   3.174   2.548
 6348TIP3    H219009   1.182   3.177   2.588
 6349TIP3   OH219010   2.175   0.069   3.570
 6349TIP3    H119011   2.232   0.011   3.620
 6349TIP3    H219012   2.091   0.066   3.617
 6350TIP3   OH219013   1.734   5.628   4.775
 6350TIP3    H119014   1.696   5.657   4.858
 6350TIP3    H219015   1.756   5.536   4.789
 6351TIP3   OH219016   4.678   0.361   1.645
 6351TIP3    H119017   4.590   0.391   1.620
 6351TIP3    H219018   4.737   0.417   1.595
 6352TIP3   OH219019   1.227   1.919   1.958
 6352TIP3    H119020   1.288   1.891   1.889
 6352TIP3    H219021   1.148   1.868   1.941
 6353TIP3   OH219022   4.474   2.526   0.905
 6353TIP3    H119023   4.531   2.557   0.834
 6353TIP3    H219024   4.407   2.593   0.913
 6354TIP3   OH219025   7.130   0.194   1.670
 6354TIP3    H119026   7.203   0.177   1.730
 6354TIP3    H219027   7.122   0.113   1.619
 6355TIP3   OH219028   3.979   5.419   2.665
 6355TIP3    H119029   3.932   5.401   2.746
 6355TIP3    H219030   4.022   5.503   2.680
 6356TIP3   OH219031   3.325   1.577   2.127
 6356TIP3    H119032   3.323   1.494   2.079
 6356TIP3    H219033   3.313   1.551   2.219
 6357TIP3   OH219034   2.691   1.494   3.339
 6357TIP3    H119035   2.599   1.479   3.360
 6357TIP3    H219036   2.690   1.573   3.284
 6358TIP3   OH219037   1.031   2.466   4.693
 6358TIP3    H119038   0.994   2.551   4.670
 6358TIP3    H219039   1.009   2.410   4.619
 6359TIP3   OH219040   1.080   1.292   3.414
 6359TIP3    H119041   1.064   1.198   3.401
 6359TIP3    H219042   1.112   1.322   3.329
 6360TIP3   OH219043   0.690   3.442   2.212
 6360TIP3    H119044   0.708   3.381   2.283
 6360TIP3    H219045   0.594   3.442   2.203
 6361TIP3   OH219046   1.206   4.973   0.782
 6361TIP3    H119047   1.218   4.982   0.877
 6361TIP3    H219048   1.167   5.056   0.755
 6362TIP3   OH219049   0.590   0.958   3.205
 6362TIP3    H119050   0.594   0.877   3.257
 6362TIP3    H219051   0.558   1.024   3.266
 6363TIP3   OH219052   5.152   3.826   2.005
 6363TIP3    H119053   5.147   3.799   1.913
 6363TIP3    H219054   5.076   3.883   2.017
 6364TIP3   OH219055   4.980   4.563   5.852
 6364TIP3    H119056   5.057   4.580   5.799
 6364TIP3    H219057   4.983   4.630   5.921
 6365TIP3   OH219058   2.423   1.680   5.089
 6365TIP3    H119059   2.379   1.748   5.140
 6365TIP3    H219060   2.466   1.626   5.155
 6366TIP3   OH219061   3.156   6.610   3.903
 6366TIP3    H119062   3.121   6.690   3.941
 6366TIP3    H219063   3.216   6.576   3.969
 6367TIP3   OH219064   6.036   5.234   2.748
 6367TIP3    H119065   6.003   5.144   2.760
 6367TIP3    H219066   5.960   5.289   2.767
 6368TIP3   OH219067   1.474   2.534   5.027
 6368TIP3    H119068   1.509   2.623   5.025
 6368TIP3    H219069   1.428   2.528   5.110
 6369TIP3   OH219070   1.151   4.006   5.379
 6369TIP3    H119071   1.078   4.018   5.439
 6369TIP3    H219072   1.158   4.089   5.332
 6370TIP3   OH219073   2.702   4.947   3.160
 6370TIP3    H119074   2.695   4.857   3.130
 6370TIP3    H219075   2.763   4.944   3.234
 6371TIP3   OH219076   0.169   3.276   1.409
 6371TIP3    H119077   0.084   3.242   1.382
 6371TIP3    H219078   0.229   3.249   1.339
 6372TIP3   OH219079   6.040   3.640   2.930
 6372TIP3    H119080   5.983   3.586   2.985
 6372TIP3    H219081   6.120   3.652   2.982
 6373TIP3   OH219082   1.936   0.258   5.206
 6373TIP3    H119083   1.840   0.262   5.199
 6373TIP3    H219084   1.965   0.226   5.121
 6374TIP3   OH219085   5.634   1.118   2.316
 6374TIP3    H119086   5.658   1.025   2.326
 6374TIP3    H219087   5.541   1.116   2.297
 6375TIP3   OH219088   5.756   5.036   5.257
 6375TIP3    H119089   5.848   5.032   5.283
 6375TIP3    H219090   5.711   4.982   5.322
 6376TIP3   OH219091   5.546   1.478   5.144
 6376TIP3    H119092   5.457   1.456   5.117
 6376TIP3    H219093   5.540   1.568   5.175
 6377TIP3   OH219094   4.349   1.632   1.476
 6377TIP3    H119095   4.356   1.562   1.411
 6377TIP3    H219096   4.437   1.670   1.480
 6378TIP3   OH219097   3.750   1.907   3.002
 6378TIP3    H119098   3.710   1.838   3.055
 6378TIP3    H219099   3.834   1.925   3.045
 6379TIP3   OH219100   4.564   2.452   1.821
 6379TIP3    H119101   4.505   2.507   1.873
 6379TIP3    H219102   4.642   2.505   1.809
 6380TIP3   OH219103   4.103   5.720   1.665
 6380TIP3    H119104   4.094   5.815   1.679
 6380TIP3    H219105   4.084   5.708   1.572
 6381TIP3   OH219106   4.451   5.723   3.805
 6381TIP3    H119107   4.444   5.636   3.764
 6381TIP3    H219108   4.512   5.771   3.749
 6382TIP3   OH219109   6.869   5.239   4.793
 6382TIP3    H119110   6.880   5.194   4.877
 6382TIP3    H219111   6.785   5.207   4.760
 6383TIP3   OH219112   0.591   4.686   5.089
 6383TIP3    H119113   0.513   4.665   5.037
 6383TIP3    H219114   0.569   4.768   5.134
 6384TIP3   OH219115   2.856   1.334   1.401
 6384TIP3    H119116   2.790   1.276   1.440
 6384TIP3    H219117   2.867   1.405   1.465
 6385TIP3   OH219118   0.330   6.467   2.323
 6385TIP3    H119119   0.308   6.537   2.261
 6385TIP3    H219120   0.411   6.496   2.365
 6386TIP3   OH219121   1.822   3.413   4.900
 6386TIP3    H119122   1.763   3.445   4.967
 6386TIP3    H219123   1.769   3.351   4.849
 6387TIP3   OH219124   6.322   1.777   3.832
 6387TIP3    H119125   6.228   1.757   3.825
 6387TIP3    H219126   6.363   1.692   3.846
 6388TIP3   OH219127   4.960   0.893   4.381
 6388TIP3    H119128   4.948   0.983   4.411
 6388TIP3    H219129   5.039   0.864   4.427
 6389TIP3   OH219130   6.856   4.190   5.541
 6389TIP3    H119131   6.928   4.161   5.485
 6389TIP3    H219132   6.879   4.157   5.628
 6390TIP3   OH219133   6.991   6.880   5.178
 6390TIP3    H119134   7.064   6.898   5.237
 6390TIP3    H219135   6.939   6.814   5.224
 6391TIP3   OH219136   3.445   3.034   3.485
 6391TIP3    H119137   3.472   3.050   3.394
 6391TIP3    H219138   3.522   3.055   3.537
 6392TIP3   OH219139   4.553   1.506   5.289
 6392TIP3    H119140   4.626   1.466   5.336
 6392TIP3    H219141   4.583   1.509   5.198
 6393TIP3   OH219142   1.578   1.323   0.892
 6393TIP3    H119143   1.532   1.362   0.967
 6393TIP3    H219144   1.623   1.396   0.851
 6394TIP3   OH219145   5.958   0.949   5.464
 6394TIP3    H119146   5.892   1.017   5.477
 6394TIP3    H219147   5.918   0.889   5.402
 6395TIP3   OH219148   0.171   4.037   3.697
 6395TIP3    H119149   0.101   3.982   3.733
 6395TIP3    H219150   0.125   4.103   3.645
 6396TIP3   OH219151   5.735   5.611   1.926
 6396TIP3    H119152   5.739   5.630   1.832
 6396TIP3    H219153   5.821   5.576   1.947
 6397TIP3   OH219154   0.732   2.077   5.306
 6397TIP3    H119155   0.826   2.069   5.318
 6397TIP3    H219156   0.711   2.011   5.240
 6398TIP3   OH219157   5.013   5.030   0.816
 6398TIP3    H119158   5.007   5.049   0.910
 6398TIP3    H219159   5.010   4.935   0.810
 6399TIP3   OH219160   2.850   4.779   5.445
 6399TIP3    H119161   2.844   4.697   5.397
 6399TIP3    H219162   2.944   4.798   5.450
 6400TIP3   OH219163   4.693   6.230   2.301
 6400TIP3    H119164   4.604   6.263   2.287
 6400TIP3    H219165   4.748   6.308   2.294
 6401TIP3   OH219166   0.182   6.551   0.215
 6401TIP3    H119167   0.237   6.620   0.252
 6401TIP3    H219168   0.120   6.530   0.284
 6402TIP3   OH219169   2.702   0.452   0.081
 6402TIP3    H119170   2.653   0.413   0.154
 6402TIP3    H219171   2.667   0.409   0.003
 6403TIP3   OH219172   6.761   5.725   2.007
 6403TIP3    H119173   6.731   5.797   2.063
 6403TIP3    H219174   6.777   5.766   1.922
 6404TIP3   OH219175   6.049   0.745   2.465
 6404TIP3    H119176   6.075   0.654   2.482
 6404TIP3    H219177   6.073   0.792   2.545
 6405TIP3   OH219178   3.771   1.683   1.510
 6405TIP3    H119179   3.677   1.697   1.498
 6405TIP3    H219180   3.805   1.675   1.421
 6406TIP3   OH219181   2.470   2.606   4.314
 6406TIP3    H119182   2.442   2.619   4.223
 6406TIP3    H219183   2.496   2.693   4.344
 6407TIP3   OH219184   4.934   1.529   4.584
 6407TIP3    H119185   4.878   1.484   4.522
 6407TIP3    H219186   4.891   1.613   4.599
 6408TIP3   OH219187   3.531   1.802   1.187
 6408TIP3    H119188   3.498   1.881   1.228
 6408TIP3    H219189   3.460   1.738   1.196
 6409TIP3   OH219190   1.358   2.434   1.833
 6409TIP3    H119191   1.385   2.516   1.792
 6409TIP3    H219192   1.275   2.455   1.877
 6410TIP3   OH219193   3.619   6.294   2.969
 6410TIP3    H119194   3.586   6.214   2.928
 6410TIP3    H219195   3.549   6.322   3.028
 6411TIP3   OH219196   0.309   3.556   4.168
 6411TIP3    H119197   0.400   3.585   4.171
 6411TIP3    H219198   0.312   3.466   4.199
 6412TIP3   OH219199   2.714   0.747   2.503
 6412TIP3    H119200   2.621   0.762   2.521
 6412TIP3    H219201   2.736   0.670   2.556
 6413TIP3   OH219202   3.210   3.259   1.349
 6413TIP3    H119203   3.242   3.312   1.276
 6413TIP3    H219204   3.198   3.322   1.421
 6414TIP3   OH219205   1.224   6.288   4.685
 6414TIP3    H119206   1.298   6.231   4.666
 6414TIP3    H219207   1.157   6.264   4.620
 6415TIP3   OH219208   2.809   2.064   3.590
 6415TIP3    H119209   2.882   2.119   3.560
 6415TIP3    H219210   2.737   2.125   3.603
 6416TIP3   OH219211   2.142   6.002   4.997
 6416TIP3    H119212   2.138   5.936   4.928
 6416TIP3    H219213   2.205   6.066   4.964
 6417TIP3   OH219214   0.889   0.294   3.326
 6417TIP3    H119215   0.974   0.302   3.282
 6417TIP3    H219216   0.832   0.354   3.278
 6418TIP3   OH219217   5.918   1.129   2.718
 6418TIP3    H119218   5.906   1.111   2.624
 6418TIP3    H219219   5.961   1.214   2.721
 6419TIP3   OH219220   7.131   4.071   5.411
 6419TIP3    H119221   7.117   3.978   5.423
 6419TIP3    H219222   7.137   4.083   5.316
 6420TIP3   OH219223   6.351   1.112   4.222
 6420TIP3    H119224   6.294   1.035   4.223
 6420TIP3    H219225   6.417   1.093   4.288
 6421TIP3   OH219226   3.033   1.039   1.533
 6421TIP3    H119227   2.965   1.088   1.579
 6421TIP3    H219228   3.012   1.051   1.440
 6422TIP3   OH219229   4.923   3.381   1.331
 6422TIP3    H119230   4.976   3.429   1.269
 6422TIP3    H219231   4.970   3.299   1.345
 6423TIP3   OH219232   1.177   1.969   5.903
 6423TIP3    H119233   1.246   2.026   5.937
 6423TIP3    H219234   1.213   1.880   5.912
 6424TIP3   OH219235   5.979   3.102   4.409
 6424TIP3    H119236   6.031   3.180   4.387
 6424TIP3    H219237   6.043   3.039   4.441
 6425TIP3   OH219238   4.713   2.052   3.842
 6425TIP3    H119239   4.751   2.094   3.918
 6425TIP3    H219240   4.763   2.087   3.768
 6426TIP3   OH219241   5.842   1.833   0.087
 6426TIP3    H119242   5.936   1.842   0.105
 6426TIP3    H219243   5.806   1.920   0.100
 6427TIP3   OH219244   6.485   3.083   2.778
 6427TIP3    H119245   6.489   3.088   2.682
 6427TIP3    H219246   6.539   3.156   2.808
 6428TIP3   OH219247   1.250   3.081   3.637
 6428TIP3    H119248   1.342   3.097   3.616
 6428TIP3    H219249   1.212   3.049   3.556
 6429TIP3   OH219250   3.221   1.968   1.846
 6429TIP3    H119251   3.216   2.062   1.867
 6429TIP3    H219252   3.242   1.966   1.752
 6430TIP3   OH219253   6.145   0.540   3.884
 6430TIP3    H119254   6.070   0.582   3.842
 6430TIP3    H219255   6.119   0.448   3.894
 6431TIP3   OH219256   5.341   0.755   1.618
 6431TIP3    H119257   5.278   0.826   1.616
 6431TIP3    H219258   5.398   0.770   1.543
 6432TIP3   OH219259   3.206   1.910   5.502
 6432TIP3    H119260   3.168   1.904   5.590
 6432TIP3    H219261   3.174   1.992   5.467
 6433TIP3   OH219262   1.706   1.655   1.515
 6433TIP3    H119263   1.689   1.746   1.489
 6433TIP3    H219264   1.624   1.626   1.555
 6434TIP3   OH219265   1.209   4.496   4.714
 6434TIP3    H119266   1.300   4.470   4.723
 6434TIP3    H219267   1.182   4.464   4.628
 6435TIP3   OH219268   4.517   2.290   3.977
 6435TIP3    H119269   4.607   2.258   3.966
 6435TIP3    H219270   4.471   2.258   3.900
 6436TIP3   OH219271   6.666   2.706   0.176
 6436TIP3    H119272   6.653   2.619   0.215
 6436TIP3    H219273   6.612   2.705   0.097
 6437TIP3   OH219274   0.512   3.414   1.728
 6437TIP3    H119275   0.434   3.464   1.754
 6437TIP3    H219276   0.478   3.343   1.675
 6438TIP3   OH219277   3.032   1.863   4.962
 6438TIP3    H119278   3.030   1.784   4.907
 6438TIP3    H219279   3.116   1.904   4.941
 6439TIP3   OH219280   0.819   6.204   5.767
 6439TIP3    H119281   0.755   6.247   5.824
 6439TIP3    H219282   0.877   6.274   5.739
 6440TIP3   OH219283   3.503   0.590   2.873
 6440TIP3    H119284   3.564   0.516   2.877
 6440TIP3    H219285   3.485   0.612   2.965
 6441TIP3   OH219286   6.069   6.331   3.430
 6441TIP3    H119287   6.148   6.295   3.470
 6441TIP3    H219288   6.056   6.416   3.472
 6442TIP3   OH219289   1.185   4.407   5.460
 6442TIP3    H119290   1.238   4.398   5.381
 6442TIP3    H219291   1.149   4.496   5.455
 6443TIP3   OH219292   7.129   3.325   3.002
 6443TIP3    H119293   7.113   3.404   3.054
 6443TIP3    H219294   7.052   3.317   2.946
 6444TIP3   OH219295   5.348   6.340   1.698
 6444TIP3    H119296   5.271   6.284   1.701
 6444TIP3    H219297   5.384   6.335   1.787
 6445TIP3   OH219298   5.102   5.107   3.262
 6445TIP3    H119299   5.155   5.186   3.250
 6445TIP3    H219300   5.014   5.134   3.235
 6446TIP3   OH219301   6.905   3.764   0.727
 6446TIP3    H119302   6.876   3.855   0.731
 6446TIP3    H219303   6.939   3.754   0.638
 6447TIP3   OH219304   3.759   5.952   5.414
 6447TIP3    H119305   3.826   5.894   5.449
 6447TIP3    H219306   3.784   5.965   5.322
 6448TIP3   OH219307   5.542   4.492   0.694
 6448TIP3    H119308   5.506   4.503   0.782
 6448TIP3    H219309   5.554   4.398   0.684
 6449TIP3   OH219310   2.569   4.551   0.371
 6449TIP3    H119311   2.584   4.460   0.396
 6449TIP3    H219312   2.656   4.587   0.359
 6450TIP3   OH219313   0.526   2.021   3.571
 6450TIP3    H119314   0.509   2.103   3.617
 6450TIP3    H219315   0.620   2.022   3.552
 6451TIP3   OH219316   1.729   5.329   0.270
 6451TIP3    H119317   1.719   5.242   0.231
 6451TIP3    H219318   1.641   5.350   0.303
 6452TIP3   OH219319   0.663   6.196   4.425
 6452TIP3    H119320   0.590   6.143   4.393
 6452TIP3    H219321   0.667   6.271   4.365
 6453TIP3   OH219322   5.770   0.124   3.046
 6453TIP3    H119323   5.775   0.028   3.039
 6453TIP3    H219324   5.714   0.140   3.122
 6454TIP3   OH219325   4.309   1.897   1.398
 6454TIP3    H119326   4.278   1.808   1.415
 6454TIP3    H219327   4.241   1.936   1.343
 6455TIP3   OH219328   6.536   3.787   1.182
 6455TIP3    H119329   6.486   3.818   1.257
 6455TIP3    H219330   6.625   3.817   1.198
 6456TIP3   OH219331   2.897   0.174   3.426
 6456TIP3    H119332   2.984   0.134   3.423
 6456TIP3    H219333   2.876   0.193   3.335
 6457TIP3   OH219334   3.172   6.464   2.350
 6457TIP3    H119335   3.083   6.444   2.320
 6457TIP3    H219336   3.228   6.436   2.278
 6458TIP3   OH219337   5.223   3.544   0.892
 6458TIP3    H119338   5.262   3.631   0.895
 6458TIP3    H219339   5.270   3.499   0.822
 6459TIP3   OH219340   1.973   5.279   2.748
 6459TIP3    H119341   1.939   5.208   2.694
 6459TIP3    H219342   2.067   5.265   2.751
 6460TIP3   OH219343   0.443   0.730   1.473
 6460TIP3    H119344   0.538   0.717   1.466
 6460TIP3    H219345   0.428   0.745   1.566
 6461TIP3   OH219346   6.391   0.155   1.653
 6461TIP3    H119347   6.398   0.074   1.703
 6461TIP3    H219348   6.306   0.192   1.677
 6462TIP3   OH219349   2.548   4.083   1.337
 6462TIP3    H119350   2.530   4.158   1.395
 6462TIP3    H219351   2.586   4.017   1.395
 6463TIP3   OH219352   5.200   4.948   3.911
 6463TIP3    H119353   5.271   4.890   3.937
 6463TIP3    H219354   5.228   5.035   3.940
 6464TIP3   OH219355   5.971   5.228   5.247
 6464TIP3    H119356   5.905   5.196   5.187
 6464TIP3    H219357   5.924   5.291   5.303
 6465TIP3   OH219358   0.735   6.424   3.123
 6465TIP3    H119359   0.791   6.346   3.120
 6465TIP3    H219360   0.734   6.449   3.215
 6466TIP3   OH219361   2.496   3.063   2.498
 6466TIP3    H119362   2.460   3.074   2.410
 6466TIP3    H219363   2.585   3.097   2.492
 6467TIP3   OH219364   3.789   4.612   3.613
 6467TIP3    H119365   3.700   4.606   3.649
 6467TIP3    H219366   3.841   4.553   3.667
 6468TIP3   OH219367   1.488   6.247   5.155
 6468TIP3    H119368   1.506   6.156   5.130
 6468TIP3    H219369   1.540   6.261   5.234
 6469TIP3   OH219370   0.510   6.398   1.763
 6469TIP3    H119371   0.606   6.390   1.764
 6469TIP3    H219372   0.480   6.319   1.718
 6470TIP3   OH219373   0.215   3.502   2.540
 6470TIP3    H119374   0.230   3.550   2.622
 6470TIP3    H219375   0.180   3.418   2.569
 6471TIP3   OH219376   0.933   3.064   3.600
 6471TIP3    H119377   0.847   3.045   3.563
 6471TIP3    H219378   0.995   3.031   3.536
 6472TIP3   OH219379   0.870   4.758   0.658
 6472TIP3    H119380   0.806   4.826   0.637
 6472TIP3    H219381   0.855   4.739   0.751
 6473TIP3   OH219382   1.805   2.821   3.165
 6473TIP3    H119383   1.716   2.787   3.162
 6473TIP3    H219384   1.845   2.792   3.083
 6474TIP3   OH219385   3.380   5.255   0.253
 6474TIP3    H119386   3.304   5.224   0.303
 6474TIP3    H219387   3.443   5.183   0.258
 6475TIP3   OH219388   1.947   6.327   0.387
 6475TIP3    H119389   1.941   6.306   0.481
 6475TIP3    H219390   2.036   6.301   0.363
 6476TIP3   OH219391   1.838   5.790   3.681
 6476TIP3    H119392   1.926   5.772   3.713
 6476TIP3    H219393   1.811   5.870   3.727
 6477TIP3   OH219394   3.706   6.699   5.121
 6477TIP3    H119395   3.625   6.695   5.171
 6477TIP3    H219396   3.775   6.697   5.188
 6478TIP3   OH219397   3.370   6.315   5.061
 6478TIP3    H119398   3.373   6.357   5.147
 6478TIP3    H219399   3.278   6.297   5.045
 6479TIP3   OH219400   6.226   1.996   5.480
 6479TIP3    H119401   6.158   2.037   5.533
 6479TIP3    H219402   6.272   1.938   5.541
 6480TIP3   OH219403   6.920   2.066   1.794
 6480TIP3    H119404   6.853   2.002   1.815
 6480TIP3    H219405   6.904   2.138   1.856
 6481TIP3   OH219406   0.454   1.469   2.331
 6481TIP3    H119407   0.382   1.532   2.336
 6481TIP3    H219408   0.416   1.386   2.357
 6482TIP3   OH219409   3.555   4.750   2.117
 6482TIP3    H119410   3.566   4.828   2.172
 6482TIP3    H219411   3.557   4.677   2.178
 6483TIP3   OH219412   6.417   0.570   3.572
 6483TIP3    H119413   6.420   0.619   3.490
 6483TIP3    H219414   6.388   0.483   3.547
 6484TIP3   OH219415   0.865   4.792   3.356
 6484TIP3    H119416   0.791   4.764   3.301
 6484TIP3    H219417   0.939   4.795   3.296
 6485TIP3   OH219418   5.876   6.161   3.815
 6485TIP3    H119419   5.840   6.204   3.737
 6485TIP3    H219420   5.813   6.181   3.884
 6486TIP3   OH219421   6.395   4.679   4.026
 6486TIP3    H119422   6.428   4.762   4.060
 6486TIP3    H219423   6.322   4.704   3.969
 6487TIP3   OH219424   5.784   6.266   0.687
 6487TIP3    H119425   5.809   6.292   0.599
 6487TIP3    H219426   5.832   6.327   0.744
 6488TIP3   OH219427   0.737   5.622   0.988
 6488TIP3    H119428   0.789   5.607   1.068
 6488TIP3    H219429   0.646   5.622   1.018
 6489TIP3   OH219430   4.452   6.341   1.342
 6489TIP3    H119431   4.480   6.308   1.427
 6489TIP3    H219432   4.359   6.359   1.352
 6490TIP3   OH219433   1.481   1.909   3.006
 6490TIP3    H119434   1.531   1.887   3.085
 6490TIP3    H219435   1.516   1.993   2.978
 6491TIP3   OH219436   0.184   0.126   4.207
 6491TIP3    H119437   0.236   0.197   4.169
 6491TIP3    H219438   0.098   0.136   4.166
 6492TIP3   OH219439   2.245   0.293   2.927
 6492TIP3    H119440   2.202   0.308   3.011
 6492TIP3    H219441   2.332   0.333   2.937
 6493TIP3   OH219442   4.659   0.024   2.120
 6493TIP3    H119443   4.668   0.070   2.204
 6493TIP3    H219444   4.565   0.022   2.104
 6494TIP3   OH219445   5.307   4.496   4.283
 6494TIP3    H119446   5.285   4.551   4.357
 6494TIP3    H219447   5.391   4.529   4.252
 6495TIP3   OH219448   3.821   2.441   0.088
 6495TIP3    H119449   3.778   2.359   0.062
 6495TIP3    H219450   3.788   2.458   0.176
 6496TIP3   OH219451   0.577   4.486   4.040
 6496TIP3    H119452   0.532   4.517   4.119
 6496TIP3    H219453   0.646   4.550   4.024
 6497TIP3   OH219454   6.656   2.995   5.227
 6497TIP3    H119455   6.721   3.064   5.217
 6497TIP3    H219456   6.638   2.991   5.321
 6498TIP3   OH219457   2.456   3.958   4.341
 6498TIP3    H119458   2.455   4.004   4.425
 6498TIP3    H219459   2.398   3.883   4.354
 6499TIP3   OH219460   3.674   2.542   0.283
 6499TIP3    H119461   3.593   2.551   0.232
 6499TIP3    H219462   3.710   2.630   0.286
 6500TIP3   OH219463   1.598   5.480   3.303
 6500TIP3    H119464   1.626   5.568   3.327
 6500TIP3    H219465   1.592   5.434   3.387
 6501TIP3   OH219466   4.469   6.752   4.749
 6501TIP3    H119467   4.384   6.708   4.756
 6501TIP3    H219468   4.505   6.748   4.838
 6502TIP3   OH219469   3.938   0.406   1.994
 6502TIP3    H119470   4.008   0.462   1.960
 6502TIP3    H219471   3.957   0.397   2.087
 6503TIP3   OH219472   6.383   1.959   1.496
 6503TIP3    H119473   6.304   1.993   1.454
 6503TIP3    H219474   6.383   1.865   1.477
 6504TIP3   OH219475   4.153   0.549   1.600
 6504TIP3    H119476   4.108   0.470   1.571
 6504TIP3    H219477   4.086   0.618   1.594
 6505TIP3   OH219478   1.695   1.926   3.256
 6505TIP3    H119479   1.709   1.854   3.318
 6505TIP3    H219480   1.664   1.998   3.310
 6506TIP3   OH219481   0.424   3.751   5.074
 6506TIP3    H119482   0.432   3.782   4.984
 6506TIP3    H219483   0.372   3.671   5.067
 6507TIP3   OH219484   2.517   2.883   3.519
 6507TIP3    H119485   2.610   2.860   3.512
 6507TIP3    H219486   2.517   2.975   3.546
 6508TIP3   OH219487   7.032   0.609   3.654
 6508TIP3    H119488   7.005   0.667   3.725
 6508TIP3    H219489   6.981   0.638   3.578
 6509TIP3   OH219490   5.380   5.755   3.122
 6509TIP3    H119491   5.385   5.785   3.212
 6509TIP3    H219492   5.469   5.724   3.102
 6510TIP3   OH219493   4.851   6.362   5.755
 6510TIP3    H119494   4.872   6.362   5.849
 6510TIP3    H219495   4.875   6.275   5.725
 6511TIP3   OH219496   2.988   4.854   3.180
 6511TIP3    H119497   2.945   4.772   3.157
 6511TIP3    H219498   3.009   4.894   3.095
 6512TIP3   OH219499   4.078   3.437   3.861
 6512TIP3    H119500   4.024   3.377   3.809
 6512TIP3    H219501   4.026   3.453   3.940
 6513TIP3   OH219502   2.569   0.227   2.784
 6513TIP3    H119503   2.634   0.167   2.747
 6513TIP3    H219504   2.615   0.311   2.790
 6514TIP3   OH219505   5.365   3.871   0.165
 6514TIP3    H119506   5.347   3.779   0.146
 6514TIP3    H219507   5.349   3.880   0.258
 6515TIP3   OH219508   2.113   2.237   5.733
 6515TIP3    H119509   2.039   2.197   5.687
 6515TIP3    H219510   2.149   2.167   5.787
 6516TIP3   OH219511   5.383   5.528   5.073
 6516TIP3    H119512   5.471   5.493   5.062
 6516TIP3    H219513   5.378   5.600   5.010
 6517TIP3   OH219514   6.060   1.926   4.783
 6517TIP3    H119515   6.152   1.908   4.806
 6517TIP3    H219516   6.045   2.015   4.817
 6518TIP3   OH219517   4.157   2.852   1.432
 6518TIP3    H119518   4.070   2.889   1.426
 6518TIP3    H219519   4.216   2.928   1.437
 6519TIP3   OH219520   4.254   5.894   2.035
 6519TIP3    H119521   4.279   5.947   1.959
 6519TIP3    H219522   4.297   5.935   2.109
 6520TIP3   OH219523   6.247   4.726   3.470
 6520TIP3    H119524   6.341   4.719   3.458
 6520TIP3    H219525   6.229   4.820   3.468
 6521TIP3   OH219526   0.377   0.394   3.865
 6521TIP3    H119527   0.472   0.406   3.872
 6521TIP3    H219528   0.365   0.311   3.820
 6522TIP3   OH219529   7.160   5.804   5.571
 6522TIP3    H119530   7.079   5.824   5.525
 6522TIP3    H219531   7.192   5.888   5.603
 6523TIP3   OH219532   2.075   3.275   0.302
 6523TIP3    H119533   2.072   3.369   0.284
 6523TIP3    H219534   2.164   3.249   0.277
 6524TIP3   OH219535   1.618   1.554   3.157
 6524TIP3    H119536   1.569   1.618   3.208
 6524TIP3    H219537   1.571   1.472   3.171
 6525TIP3   OH219538   5.591   6.740   3.334
 6525TIP3    H119539   5.516   6.798   3.319
 6525TIP3    H219540   5.567   6.690   3.412
 6526TIP3   OH219541   2.265   5.104   2.018
 6526TIP3    H119542   2.229   5.182   1.976
 6526TIP3    H219543   2.233   5.031   1.965
 6527TIP3   OH219544   5.583   5.585   5.626
 6527TIP3    H119545   5.642   5.655   5.655
 6527TIP3    H219546   5.599   5.513   5.687
 6528TIP3   OH219547   6.902   5.895   5.459
 6528TIP3    H119548   6.823   5.845   5.476
 6528TIP3    H219549   6.889   5.930   5.371
 6529TIP3   OH219550   1.152   1.401   5.467
 6529TIP3    H119551   1.066   1.366   5.447
 6529TIP3    H219552   1.202   1.327   5.500
 6530TIP3   OH219553   6.164   5.772   3.758
 6530TIP3    H119554   6.183   5.862   3.788
 6530TIP3    H219555   6.105   5.737   3.825
 6531TIP3   OH219556   6.946   4.537   1.257
 6531TIP3    H119557   6.941   4.442   1.246
 6531TIP3    H219558   7.022   4.551   1.314
 6532TIP3   OH219559   0.426   2.241   1.490
 6532TIP3    H119560   0.434   2.307   1.559
 6532TIP3    H219561   0.402   2.291   1.412
 6533TIP3   OH219562   6.944   2.902   5.719
 6533TIP3    H119563   6.998   2.827   5.744
 6533TIP3    H219564   6.999   2.954   5.661
 6534TIP3   OH219565   1.012   2.281   4.903
 6534TIP3    H119566   1.021   2.339   4.827
 6534TIP3    H219567   1.022   2.338   4.979
 6535TIP3   OH219568   3.671   2.847   3.889
 6535TIP3    H119569   3.726   2.924   3.901
 6535TIP3    H219570   3.696   2.813   3.802
 6536TIP3   OH219571   6.128   0.218   5.713
 6536TIP3    H119572   6.082   0.156   5.770
 6536TIP3    H219573   6.063   0.240   5.646
 6537TIP3   OH219574   4.265   6.358   2.128
 6537TIP3    H119575   4.253   6.437   2.076
 6537TIP3    H219576   4.308   6.388   2.208
 6538TIP3   OH219577   1.446   2.020   2.136
 6538TIP3    H119578   1.517   2.006   2.073
 6538TIP3    H219579   1.490   2.029   2.220
 6539TIP3   OH219580   4.977   2.061   0.768
 6539TIP3    H119581   4.995   2.129   0.703
 6539TIP3    H219582   4.882   2.065   0.780
 6540TIP3   OH219583   1.571   0.547   2.218
 6540TIP3    H119584   1.486   0.518   2.186
 6540TIP3    H219585   1.633   0.482   2.183
 6541TIP3   OH219586   1.015   4.773   3.877
 6541TIP3    H119587   0.936   4.802   3.832
 6541TIP3    H219588   1.075   4.847   3.870
 6542TIP3   OH219589   1.179   4.685   2.248
 6542TIP3    H119590   1.233   4.619   2.207
 6542TIP3    H219591   1.241   4.744   2.291
 6543TIP3   OH219592   2.619   2.893   2.208
 6543TIP3    H119593   2.664   2.977   2.205
 6543TIP3    H219594   2.573   2.887   2.124
 6544TIP3   OH219595   4.861   2.326   3.249
 6544TIP3    H119596   4.875   2.421   3.247
 6544TIP3    H219597   4.927   2.294   3.310
 6545TIP3   OH219598   1.800   1.685   3.884
 6545TIP3    H119599   1.867   1.635   3.930
 6545TIP3    H219600   1.833   1.775   3.884
 6546TIP3   OH219601   6.011   5.305   3.852
 6546TIP3    H119602   6.014   5.210   3.845
 6546TIP3    H219603   6.002   5.336   3.762
 6547TIP3   OH219604   6.076   0.683   0.514
 6547TIP3    H119605   6.151   0.655   0.567
 6547TIP3    H219606   6.113   0.695   0.426
 6548TIP3   OH219607   3.300   1.381   1.953
 6548TIP3    H119608   3.228   1.319   1.959
 6548TIP3    H219609   3.295   1.416   1.864
 6549TIP3   OH219610   6.145   4.486   5.208
 6549TIP3    H119611   6.220   4.542   5.190
 6549TIP3    H219612   6.136   4.487   5.303
 6550TIP3   OH219613   2.983   2.718   2.438
 6550TIP3    H119614   2.902   2.767   2.447
 6550TIP3    H219615   3.048   2.770   2.486
 6551TIP3   OH219616   6.736   4.843   0.691
 6551TIP3    H119617   6.828   4.870   0.697
 6551TIP3    H219618   6.738   4.749   0.711
 6552TIP3   OH219619   7.059   0.532   2.345
 6552TIP3    H119620   7.016   0.597   2.402
 6552TIP3    H219621   7.016   0.542   2.261
 6553TIP3   OH219622   4.775   4.436   5.443
 6553TIP3    H119623   4.715   4.364   5.425
 6553TIP3    H219624   4.799   4.424   5.536
 6554TIP3   OH219625   5.353   5.760   4.933
 6554TIP3    H119626   5.316   5.703   4.866
 6554TIP3    H219627   5.435   5.791   4.895
 6555TIP3   OH219628   5.714   2.935   1.996
 6555TIP3    H119629   5.735   2.986   2.075
 6555TIP3    H219630   5.637   2.980   1.960
 6556TIP3   OH219631   5.701   5.479   4.365
 6556TIP3    H119632   5.708   5.408   4.429
 6556TIP3    H219633   5.737   5.555   4.410
 6557TIP3   OH219634   5.880   5.015   1.319
 6557TIP3    H119635   5.814   5.061   1.266
 6557TIP3    H219636   5.857   5.036   1.409
 6558TIP3   OH219637   3.269   2.350   3.663
 6558TIP3    H119638   3.273   2.440   3.696
 6558TIP3    H219639   3.326   2.301   3.722
 6559TIP3   OH219640   4.754   3.798   3.691
 6559TIP3    H119641   4.849   3.798   3.676
 6559TIP3    H219642   4.744   3.836   3.779
 6560TIP3   OH219643   1.916   5.337   0.839
 6560TIP3    H119644   1.976   5.306   0.772
 6560TIP3    H219645   1.831   5.298   0.817
 6561TIP3   OH219646   0.349   6.681   3.358
 6561TIP3    H119647   0.364   6.587   3.355
 6561TIP3    H219648   0.423   6.716   3.407
 6562TIP3   OH219649   2.597   0.072   2.489
 6562TIP3    H119650   2.532   0.014   2.451
 6562TIP3    H219651   2.626   0.126   2.416
 6563TIP3   OH219652   1.456   0.748   5.637
 6563TIP3    H119653   1.504   0.746   5.720
 6563TIP3    H219654   1.496   0.821   5.589
 6564TIP3   OH219655   5.614   4.723   3.796
 6564TIP3    H119656   5.666   4.648   3.826
 6564TIP3    H219657   5.617   4.717   3.701
 6565TIP3   OH219658   4.154   2.434   0.024
 6565TIP3    H119659   4.115   2.452  -0.061
 6565TIP3    H219660   4.156   2.519   0.068
 6566TIP3   OH219661   1.607   0.170   3.262
 6566TIP3    H119662   1.515   0.169   3.291
 6566TIP3    H219663   1.628   0.263   3.255
 6567TIP3   OH219664   5.628   0.776   1.575
 6567TIP3    H119665   5.698   0.724   1.613
 6567TIP3    H219666   5.643   0.865   1.610
 6568TIP3   OH219667   1.951   6.503   1.597
 6568TIP3    H119668   1.909   6.570   1.543
 6568TIP3    H219669   1.977   6.435   1.534
 6569TIP3   OH219670   6.175   5.113   3.955
 6569TIP3    H119671   6.222   5.165   4.020
 6569TIP3    H219672   6.201   5.151   3.871
 6570TIP3   OH219673   3.343   4.360   5.770
 6570TIP3    H119674   3.250   4.338   5.767
 6570TIP3    H219675   3.353   4.412   5.850
 6571TIP3   OH219676   2.735   5.204   4.611
 6571TIP3    H119677   2.686   5.130   4.574
 6571TIP3    H219678   2.809   5.216   4.551
 6572TIP3   OH219679   6.092   3.588   5.384
 6572TIP3    H119680   6.142   3.522   5.336
 6572TIP3    H219681   6.044   3.538   5.450
 6573TIP3   OH219682   4.033   0.377   2.359
 6573TIP3    H119683   4.117   0.412   2.389
 6573TIP3    H219684   4.048   0.282   2.356
 6574TIP3   OH219685   5.831   1.963   1.928
 6574TIP3    H119686   5.882   2.016   1.867
 6574TIP3    H219687   5.832   2.012   2.010
 6575TIP3   OH219688   0.531   5.846   2.406
 6575TIP3    H119689   0.443   5.810   2.394
 6575TIP3    H219690   0.516   5.935   2.439
 6576TIP3   OH219691   2.892   1.074   4.882
 6576TIP3    H119692   2.975   1.121   4.884
 6576TIP3    H219693   2.910   0.997   4.828
 6577TIP3   OH219694   2.243   0.947   3.942
 6577TIP3    H119695   2.267   0.861   3.977
 6577TIP3    H219696   2.167   0.974   3.994
 6578TIP3   OH219697   3.415   6.755   2.592
 6578TIP3    H119698   3.416   6.829   2.654
 6578TIP3    H219699   3.325   6.724   2.594
 6579TIP3   OH219700   6.341   6.487   4.707
 6579TIP3    H119701   6.426   6.474   4.749
 6579TIP3    H219702   6.293   6.406   4.723
 6580TIP3   OH219703   3.699   3.305   3.327
 6580TIP3    H119704   3.766   3.239   3.345
 6580TIP3    H219705   3.621   3.255   3.304
 6581TIP3   OH219706   3.084   5.012   2.957
 6581TIP3    H119707   3.144   4.970   2.896
 6581TIP3    H219708   3.022   5.059   2.901
 6582TIP3   OH219709   4.051   2.306   1.840
 6582TIP3    H119710   4.109   2.259   1.900
 6582TIP3    H219711   4.088   2.289   1.753
 6583TIP3   OH219712   3.398   4.057   4.030
 6583TIP3    H119713   3.356   4.016   4.107
 6583TIP3    H219714   3.340   4.035   3.957
 6584TIP3   OH219715   4.060   0.175   5.018
 6584TIP3    H119716   4.007   0.196   4.941
 6584TIP3    H219717   3.996   0.153   5.086
 6585TIP3   OH219718   4.141   4.691   2.961
 6585TIP3    H119719   4.082   4.740   3.018
 6585TIP3    H219720   4.162   4.752   2.891
 6586TIP3   OH219721   1.583   4.069   1.489
 6586TIP3    H119722   1.575   4.135   1.420
 6586TIP3    H219723   1.523   4.000   1.462
 6587TIP3   OH219724   3.146   5.095   4.618
 6587TIP3    H119725   3.087   5.028   4.652
 6587TIP3    H219726   3.101   5.178   4.637
 6588TIP3   OH219727   5.471   0.478   1.674
 6588TIP3    H119728   5.390   0.503   1.718
 6588TIP3    H219729   5.500   0.559   1.631
 6589TIP3   OH219730   2.469   2.334   1.860
 6589TIP3    H119731   2.426   2.410   1.820
 6589TIP3    H219732   2.405   2.299   1.921
 6590TIP3   OH219733   1.266   0.358   1.348
 6590TIP3    H119734   1.297   0.350   1.439
 6590TIP3    H219735   1.337   0.403   1.303
 6591TIP3   OH219736   3.297   0.250   3.016
 6591TIP3    H119737   3.251   0.173   2.982
 6591TIP3    H219738   3.316   0.303   2.938
 6592TIP3   OH219739   2.945   6.428   3.187
 6592TIP3    H119740   2.945   6.480   3.267
 6592TIP3    H219741   2.993   6.348   3.211
 6593TIP3   OH219742   1.841   1.250   5.281
 6593TIP3    H119743   1.850   1.163   5.242
 6593TIP3    H219744   1.883   1.241   5.367
 6594TIP3   OH219745   3.630   3.464   1.076
 6594TIP3    H119746   3.695   3.396   1.094
 6594TIP3    H219747   3.681   3.543   1.062
 6595TIP3   OH219748   2.040   4.235   0.261
 6595TIP3    H119749   1.989   4.195   0.331
 6595TIP3    H219750   2.076   4.315   0.300
 6596TIP3   OH219751   2.530   4.340   0.950
 6596TIP3    H119752   2.523   4.298   0.864
 6596TIP3    H219753   2.490   4.277   1.011
 6597TIP3   OH219754   2.148   1.061  -0.050
 6597TIP3    H119755   2.089   1.032  -0.119
 6597TIP3    H219756   2.094   1.063   0.029
 6598TIP3   OH219757   5.741   1.346   2.433
 6598TIP3    H119758   5.667   1.304   2.389
 6598TIP3    H219759   5.805   1.276   2.444
 6599TIP3   OH219760   4.738   5.537   1.282
 6599TIP3    H119761   4.681   5.461   1.289
 6599TIP3    H219762   4.715   5.592   1.357
 6600TIP3   OH219763   1.821   3.203   0.057
 6600TIP3    H119764   1.746   3.247   0.097
 6600TIP3    H219765   1.897   3.238   0.102
 6601TIP3   OH219766   4.636   0.084   1.403
 6601TIP3    H119767   4.634   0.050   1.314
 6601TIP3    H219768   4.614   0.177   1.393
 6602TIP3   OH219769   0.448   4.294   3.171
 6602TIP3    H119770   0.395   4.228   3.216
 6602TIP3    H219771   0.396   4.375   3.177
 6603TIP3   OH219772   6.581   3.145   3.749
 6603TIP3    H119773   6.600   3.223   3.801
 6603TIP3    H219774   6.546   3.082   3.813
 6604TIP3   OH219775   1.384   1.426   3.242
 6604TIP3    H119776   1.422   1.476   3.314
 6604TIP3    H219777   1.338   1.491   3.189
 6605TIP3   OH219778   5.119   4.023   3.467
 6605TIP3    H119779   5.121   4.089   3.536
 6605TIP3    H219780   5.144   3.942   3.512
 6606TIP3   OH219781   5.521   1.745   5.338
 6606TIP3    H119782   5.496   1.804   5.268
 6606TIP3    H219783   5.547   1.802   5.410
 6607TIP3   OH219784   1.667   2.983   5.100
 6607TIP3    H119785   1.753   2.992   5.058
 6607TIP3    H219786   1.686   2.974   5.193
 6608TIP3   OH219787   1.632   1.569   0.731
 6608TIP3    H119788   1.703   1.618   0.772
 6608TIP3    H219789   1.554   1.621   0.751
 6609TIP3   OH219790  -0.062   6.280   1.630
 6609TIP3    H119791  -0.043   6.314   1.543
 6609TIP3    H219792   0.017   6.298   1.681
 6610TIP3   OH219793   0.620   1.057   5.466
 6610TIP3    H119794   0.698   1.075   5.519
 6610TIP3    H219795   0.558   1.018   5.527
 6611TIP3   OH219796   3.405   0.212   0.722
 6611TIP3    H119797   3.314   0.222   0.751
 6611TIP3    H219798   3.442   0.301   0.727
 6612TIP3   OH219799   3.169   2.111   3.308
 6612TIP3    H119800   3.125   2.181   3.259
 6612TIP3    H219801   3.163   2.034   3.251
 6613TIP3   OH219802   2.103   5.053   1.439
 6613TIP3    H119803   2.147   5.017   1.516
 6613TIP3    H219804   2.144   5.139   1.425
 6614TIP3   OH219805   6.589   5.274   4.156
 6614TIP3    H119806   6.620   5.350   4.207
 6614TIP3    H219807   6.592   5.304   4.065
 6615TIP3   OH219808   2.855   4.520   4.299
 6615TIP3    H119809   2.923   4.510   4.233
 6615TIP3    H219810   2.778   4.477   4.262
 6616TIP3   OH219811   4.865   0.486   2.590
 6616TIP3    H119812   4.817   0.457   2.513
 6616TIP3    H219813   4.902   0.570   2.565
 6617TIP3   OH219814   0.491   4.725   0.262
 6617TIP3    H119815   0.504   4.653   0.325
 6617TIP3    H219816   0.453   4.682   0.185
 6618TIP3   OH219817   4.291   0.226   4.885
 6618TIP3    H119818   4.327   0.301   4.933
 6618TIP3    H219819   4.219   0.195   4.941
 6619TIP3   OH219820   7.000   1.881   4.083
 6619TIP3    H119821   6.966   1.964   4.048
 6619TIP3    H219822   7.036   1.904   4.169
 6620TIP3   OH219823   7.055   2.672   0.350
 6620TIP3    H119824   7.048   2.579   0.369
 6620TIP3    H219825   7.064   2.714   0.435
 6621TIP3   OH219826   4.157   3.587   2.948
 6621TIP3    H119827   4.226   3.653   2.935
 6621TIP3    H219828   4.078   3.628   2.915
 6622TIP3   OH219829   2.215   3.171   4.263
 6622TIP3    H119830   2.270   3.097   4.236
 6622TIP3    H219831   2.146   3.130   4.317
 6623TIP3   OH219832   2.213   4.232   4.686
 6623TIP3    H119833   2.208   4.237   4.591
 6623TIP3    H219834   2.202   4.139   4.706
 6624TIP3   OH219835   5.028   4.549   1.194
 6624TIP3    H119836   4.989   4.632   1.220
 6624TIP3    H219837   4.984   4.484   1.249
 6625TIP3   OH219838   2.198   0.656   2.269
 6625TIP3    H119839   2.275   0.713   2.267
 6625TIP3    H219840   2.203   0.607   2.187
 6626TIP3   OH219841   0.337   1.592   5.219
 6626TIP3    H119842   0.263   1.533   5.234
 6626TIP3    H219843   0.297   1.677   5.204
 6627TIP3   OH219844   0.120   0.649   5.361
 6627TIP3    H119845   0.168   0.571   5.388
 6627TIP3    H219846   0.125   0.648   5.265
 6628TIP3   OH219847   4.878   4.121   0.788
 6628TIP3    H119848   4.925   4.111   0.705
 6628TIP3    H219849   4.946   4.148   0.850
 6629TIP3   OH219850   0.684   5.782   0.417
 6629TIP3    H119851   0.613   5.719   0.424
 6629TIP3    H219852   0.647   5.854   0.366
 6630TIP3   OH219853   0.734   1.236   3.287
 6630TIP3    H119854   0.703   1.283   3.365
 6630TIP3    H219855   0.692   1.281   3.214
 6631TIP3   OH219856   1.942   4.126   0.493
 6631TIP3    H119857   1.863   4.074   0.478
 6631TIP3    H219858   2.001   4.066   0.539
 6632TIP3   OH219859   2.756   5.451   1.214
 6632TIP3    H119860   2.737   5.537   1.176
 6632TIP3    H219861   2.817   5.470   1.286
 6633TIP3   OH219862   3.761   5.412   0.538
 6633TIP3    H119863   3.741   5.505   0.529
 6633TIP3    H219864   3.678   5.371   0.560
 6634TIP3   OH219865   1.764   3.854   3.213
 6634TIP3    H119866   1.848   3.882   3.249
 6634TIP3    H219867   1.765   3.882   3.122
 6635TIP3   OH219868   5.008   0.450   4.039
 6635TIP3    H119869   4.995   0.356   4.046
 6635TIP3    H219870   4.922   0.485   4.016
 6636TIP3   OH219871   1.800   2.449   4.054
 6636TIP3    H119872   1.874   2.508   4.041
 6636TIP3    H219873   1.756   2.484   4.132
 6637TIP3   OH219874   2.730   4.991   4.914
 6637TIP3    H119875   2.794   4.986   4.844
 6637TIP3    H219876   2.758   4.924   4.977
 6638TIP3   OH219877   0.874   2.293   2.729
 6638TIP3    H119878   0.907   2.352   2.662
 6638TIP3    H219879   0.810   2.238   2.684
 6639TIP3   OH219880   5.207   0.544   3.247
 6639TIP3    H119881   5.191   0.538   3.152
 6639TIP3    H219882   5.155   0.619   3.275
 6640TIP3   OH219883   3.985   2.721   3.719
 6640TIP3    H119884   3.892   2.717   3.699
 6640TIP3    H219885   4.016   2.801   3.677
 6641TIP3   OH219886   1.493   4.894   1.057
 6641TIP3    H119887   1.560   4.920   1.120
 6641TIP3    H219888   1.426   4.962   1.063
 6642TIP3   OH219889   3.925   3.743   2.966
 6642TIP3    H119890   3.916   3.829   2.925
 6642TIP3    H219891   3.936   3.761   3.059
 6643TIP3   OH219892   5.818   1.436   4.930
 6643TIP3    H119893   5.844   1.404   5.016
 6643TIP3    H219894   5.899   1.438   4.879
 6644TIP3   OH219895   0.817   5.798   3.554
 6644TIP3    H119896   0.890   5.860   3.552
 6644TIP3    H219897   0.778   5.809   3.641
 6645TIP3   OH219898   3.168   0.533   3.195
 6645TIP3    H119899   3.252   0.535   3.149
 6645TIP3    H219900   3.145   0.440   3.199
 6646TIP3   OH219901   6.427   4.896   3.050
 6646TIP3    H119902   6.362   4.967   3.043
 6646TIP3    H219903   6.376   4.819   3.074
 6647TIP3   OH219904   3.531   1.542   3.567
 6647TIP3    H119905   3.463   1.554   3.633
 6647TIP3    H219906   3.610   1.580   3.607
 6648TIP3   OH219907   5.117   3.720   5.552
 6648TIP3    H119908   5.165   3.687   5.628
 6648TIP3    H219909   5.185   3.743   5.489
 6649TIP3   OH219910   2.094   2.275   5.287
 6649TIP3    H119911   2.144   2.356   5.276
 6649TIP3    H219912   2.142   2.210   5.236
 6650TIP3   OH219913   2.994   3.155   3.714
 6650TIP3    H119914   3.040   3.238   3.702
 6650TIP3    H219915   3.056   3.099   3.760
 6651TIP3   OH219916   6.187   4.190   1.788
 6651TIP3    H119917   6.169   4.153   1.702
 6651TIP3    H219918   6.146   4.129   1.850
 6652TIP3   OH219919   3.121   2.777   5.881
 6652TIP3    H119920   3.199   2.807   5.836
 6652TIP3    H219921   3.121   2.682   5.867
 6653TIP3   OH219922   0.414   1.313   3.272
 6653TIP3    H119923   0.471   1.311   3.195
 6653TIP3    H219924   0.327   1.331   3.237
 6654TIP3   OH219925   6.033   2.223   0.012
 6654TIP3    H119926   5.996   2.292  -0.044
 6654TIP3    H219927   6.101   2.268   0.063
 6655TIP3   OH219928   1.258   5.931   0.094
 6655TIP3    H119929   1.194   5.963   0.157
 6655TIP3    H219930   1.340   5.926   0.143
 6656TIP3   OH219931   3.958   1.948   3.874
 6656TIP3    H119932   4.027   1.882   3.880
 6656TIP3    H219933   3.888   1.914   3.930
 6657TIP3   OH219934   1.521   3.408   0.675
 6657TIP3    H119935   1.501   3.394   0.768
 6657TIP3    H219936   1.609   3.447   0.676
 6658TIP3   OH219937   5.401   1.412   4.224
 6658TIP3    H119938   5.404   1.507   4.208
 6658TIP3    H219939   5.486   1.380   4.193
 6659TIP3   OH219940   3.305   0.101   5.636
 6659TIP3    H119941   3.333   0.174   5.692
 6659TIP3    H219942   3.231   0.063   5.683
 6660TIP3   OH219943   7.055   3.812   4.733
 6660TIP3    H119944   7.128   3.834   4.791
 6660TIP3    H219945   7.095   3.755   4.666
 6661TIP3   OH219946   5.408   3.666   4.822
 6661TIP3    H119947   5.429   3.751   4.784
 6661TIP3    H219948   5.314   3.671   4.842
 6662TIP3   OH219949   6.284   6.024   4.173
 6662TIP3    H119950   6.373   6.021   4.137
 6662TIP3    H219951   6.274   5.940   4.219
 6663TIP3   OH219952   6.529   2.562   4.421
 6663TIP3    H119953   6.599   2.625   4.437
 6663TIP3    H219954   6.472   2.568   4.497
 6664TIP3   OH219955   1.410   1.695   0.809
 6664TIP3    H119956   1.400   1.635   0.884
 6664TIP3    H219957   1.321   1.713   0.780
 6665TIP3   OH219958   6.297   2.769   2.544
 6665TIP3    H119959   6.383   2.747   2.580
 6665TIP3    H219960   6.256   2.823   2.612
 6666TIP3   OH219961   1.369   3.697   2.373
 6666TIP3    H119962   1.358   3.730   2.462
 6666TIP3    H219963   1.455   3.655   2.372
 6667TIP3   OH219964   0.962   0.593   4.211
 6667TIP3    H119965   0.920   0.672   4.243
 6667TIP3    H219966   1.019   0.622   4.140
 6668TIP3   OH219967   7.061   5.315   2.528
 6668TIP3    H119968   7.145   5.270   2.523
 6668TIP3    H219969   7.018   5.294   2.445
 6669TIP3   OH219970   3.969   4.269   4.399
 6669TIP3    H119971   3.986   4.200   4.463
 6669TIP3    H219972   3.937   4.343   4.451
 6670TIP3   OH219973   1.211   2.839   1.481
 6670TIP3    H119974   1.237   2.764   1.429
 6670TIP3    H219975   1.226   2.813   1.572
 6671TIP3   OH219976   7.203   3.344   0.929
 6671TIP3    H119977   7.172   3.374   1.015
 6671TIP3    H219978   7.297   3.363   0.930
 6672TIP3   OH219979   3.924   0.792   0.627
 6672TIP3    H119980   3.988   0.785   0.556
 6672TIP3    H219981   3.892   0.882   0.621
 6673TIP3   OH219982   0.702   1.214   1.855
 6673TIP3    H119983   0.797   1.208   1.847
 6673TIP3    H219984   0.684   1.307   1.864
 6674TIP3   OH219985   5.681   1.874   1.167
 6674TIP3    H119986   5.594   1.859   1.128
 6674TIP3    H219987   5.664   1.887   1.260
 6675TIP3   OH219988   5.090   0.564   1.068
 6675TIP3    H119989   5.038   0.621   1.011
 6675TIP3    H219990   5.166   0.618   1.092
 6676TIP3   OH219991   4.314   4.128   5.594
 6676TIP3    H119992   4.221   4.130   5.572
 6676TIP3    H219993   4.353   4.066   5.532
 6677TIP3   OH219994   6.981   1.554  -0.010
 6677TIP3    H119995   6.912   1.511   0.040
 6677TIP3    H219996   7.037   1.483  -0.041
 6678TIP3   OH219997   5.612   5.890   0.467
 6678TIP3    H119998   5.564   5.839   0.401
 6678TIP3    H219999   5.579   5.979   0.456
 6679TIP3   OH220000   0.874   3.564   4.289
 6679TIP3    H120001   0.836   3.479   4.311
 6679TIP3    H220002   0.845   3.581   4.199
 6680TIP3   OH220003   4.761   4.724   2.186
 6680TIP3    H120004   4.745   4.651   2.126
 6680TIP3    H220005   4.687   4.783   2.172
 6681TIP3   OH220006   4.599   2.040   5.147
 6681TIP3    H120007   4.530   2.082   5.096
 6681TIP3    H220008   4.554   1.974   5.199
 6682TIP3   OH220009   3.825   5.081   1.031
 6682TIP3    H120010   3.868   5.030   1.099
 6682TIP3    H220011   3.855   5.171   1.046
 6683TIP3   OH220012   0.411   0.618   4.694
 6683TIP3    H120013   0.483   0.628   4.632
 6683TIP3    H220014   0.451   0.622   4.780
 6684TIP3   OH220015   4.095   4.475   4.846
 6684TIP3    H120016   4.171   4.534   4.855
 6684TIP3    H220017   4.061   4.494   4.759
 6685TIP3   OH220018   2.307   5.262   1.348
 6685TIP3    H120019   2.385   5.299   1.389
 6685TIP3    H220020   2.341   5.204   1.280
 6686TIP3   OH220021   1.729   6.451   1.760
 6686TIP3    H120022   1.808   6.441   1.706
 6686TIP3    H220023   1.758   6.497   1.838
 6687TIP3   OH220024   4.783   5.088   1.042
 6687TIP3    H120025   4.776   5.183   1.040
 6687TIP3    H220026   4.856   5.070   1.100
 6688TIP3   OH220027   2.579   4.664   3.062
 6688TIP3    H120028   2.613   4.575   3.062
 6688TIP3    H220029   2.604   4.699   2.977
 6689TIP3   OH220030   2.706   0.289   5.433
 6689TIP3    H120031   2.777   0.349   5.411
 6689TIP3    H220032   2.660   0.274   5.351
 6690TIP3   OH220033   3.096   1.354   3.129
 6690TIP3    H120034   3.045   1.434   3.113
 6690TIP3    H220035   3.119   1.359   3.222
 6691TIP3   OH220036   4.172   1.854   4.737
 6691TIP3    H120037   4.111   1.862   4.811
 6691TIP3    H220038   4.122   1.885   4.661
 6692TIP3   OH220039   2.919   0.980   2.785
 6692TIP3    H120040   2.824   0.990   2.789
 6692TIP3    H220041   2.949   1.052   2.730
 6693TIP3   OH220042   1.309   0.478   2.119
 6693TIP3    H120043   1.272   0.496   2.032
 6693TIP3    H220044   1.283   0.388   2.138
 6694TIP3   OH220045   1.345   0.437   4.370
 6694TIP3    H120046   1.296   0.355   4.373
 6694TIP3    H220047   1.309   0.490   4.441
 6695TIP3   OH220048   4.025   3.227   3.350
 6695TIP3    H120049   4.083   3.152   3.333
 6695TIP3    H220050   4.027   3.277   3.269
 6696TIP3   OH220051   2.235   6.835   1.132
 6696TIP3    H120052   2.251   6.746   1.100
 6696TIP3    H220053   2.270   6.892   1.063
 6697TIP3   OH220054   6.192   2.454   3.549
 6697TIP3    H120055   6.218   2.364   3.531
 6697TIP3    H220056   6.264   2.507   3.516
 6698TIP3   OH220057   6.533   1.722   2.583
 6698TIP3    H120058   6.588   1.644   2.594
 6698TIP3    H220059   6.444   1.687   2.581
 6699TIP3   OH220060   4.127   2.518   3.870
 6699TIP3    H120061   4.050   2.471   3.837
 6699TIP3    H220062   4.127   2.601   3.822
 6700TIP3   OH220063   3.258   0.671   0.527
 6700TIP3    H120064   3.258   0.591   0.474
 6700TIP3    H220065   3.174   0.671   0.572
 6701TIP3   OH220066   3.573   1.896   1.519
 6701TIP3    H120067   3.521   1.834   1.569
 6701TIP3    H220068   3.571   1.977   1.570
 6702TIP3   OH220069   1.917   3.602   1.670
 6702TIP3    H120070   1.847   3.659   1.639
 6702TIP3    H220071   1.925   3.534   1.603
 6703TIP3   OH220072   1.475   0.357   3.686
 6703TIP3    H120073   1.467   0.315   3.771
 6703TIP3    H220074   1.386   0.362   3.652
 6704TIP3   OH220075   2.266   3.603   3.069
 6704TIP3    H120076   2.335   3.573   3.009
 6704TIP3    H220077   2.232   3.524   3.109
 6705TIP3   OH220078   1.072   2.423   2.232
 6705TIP3    H120079   1.165   2.439   2.218
 6705TIP3    H220080   1.056   2.452   2.322
 6706TIP3   OH220081   5.652   1.670   4.929
 6706TIP3    H120082   5.680   1.713   5.010
 6706TIP3    H220083   5.692   1.583   4.933
 6707TIP3   OH220084   6.085   5.867   3.443
 6707TIP3    H120085   6.103   5.905   3.529
 6707TIP3    H220086   6.044   5.782   3.463
 6708TIP3   OH220087   2.268   5.504   1.022
 6708TIP3    H120088   2.328   5.472   0.955
 6708TIP3    H220089   2.288   5.598   1.029
 6709TIP3   OH220090   0.055   4.808   4.808
 6709TIP3    H120091   0.105   4.887   4.830
 6709TIP3    H220092  -0.027   4.840   4.772
 6710TIP3   OH220093   6.694   4.038   5.094
 6710TIP3    H120094   6.695   4.040   4.998
 6710TIP3    H220095   6.608   4.072   5.118
 6711TIP3   OH220096   4.129   1.672   3.137
 6711TIP3    H120097   4.042   1.635   3.124
 6711TIP3    H220098   4.181   1.636   3.065
 6712TIP3   OH220099   6.264   4.444   5.874
 6712TIP3    H120100   6.290   4.492   5.795
 6712TIP3    H220101   6.174   4.416   5.857
 6713TIP3   OH220102   2.671   5.913   3.066
 6713TIP3    H120103   2.722   5.872   2.995
 6713TIP3    H220104   2.589   5.938   3.025
 6714TIP3   OH220105   6.089   3.165   5.035
 6714TIP3    H120106   6.078   3.118   5.118
 6714TIP3    H220107   6.061   3.254   5.054
 6715TIP3   OH220108   0.336   4.203   2.871
 6715TIP3    H120109   0.299   4.289   2.893
 6715TIP3    H220110   0.426   4.208   2.901
 6716TIP3   OH220111   4.038   4.741   3.481
 6716TIP3    H120112   3.974   4.718   3.548
 6716TIP3    H220113   4.081   4.659   3.460
 6717TIP3   OH220114   2.166   1.285   2.692
 6717TIP3    H120115   2.087   1.281   2.746
 6717TIP3    H220116   2.222   1.349   2.736
 6718TIP3   OH220117   5.432   2.359   1.639
 6718TIP3    H120118   5.429   2.357   1.543
 6718TIP3    H220119   5.344   2.332   1.666
 6719TIP3   OH220120   0.286   4.989   0.669
 6719TIP3    H120121   0.300   5.064   0.728
 6719TIP3    H220122   0.200   4.955   0.694
 6720TIP3   OH220123   1.723   0.420   3.875
 6720TIP3    H120124   1.673   0.348   3.913
 6720TIP3    H220125   1.815   0.396   3.889
 6721TIP3   OH220126   1.136   3.865   4.382
 6721TIP3    H120127   1.214   3.809   4.371
 6721TIP3    H220128   1.133   3.881   4.477
 6722TIP3   OH220129   1.868   4.575   1.777
 6722TIP3    H120130   1.883   4.630   1.854
 6722TIP3    H220131   1.890   4.487   1.806
 6723TIP3   OH220132   3.845   5.879   0.355
 6723TIP3    H120133   3.844   5.939   0.430
 6723TIP3    H220134   3.760   5.893   0.313
 6724TIP3   OH220135   6.698   5.839   3.793
 6724TIP3    H120136   6.623   5.855   3.850
 6724TIP3    H220137   6.757   5.912   3.810
 6725TIP3   OH220138   5.466   5.557   2.274
 6725TIP3    H120139   5.497   5.468   2.255
 6725TIP3    H220140   5.389   5.567   2.219
 6726TIP3   OH220141   5.010   2.513   2.582
 6726TIP3    H120142   5.100   2.534   2.557
 6726TIP3    H220143   5.009   2.517   2.677
 6727TIP3   OH220144   2.079   4.300   3.366
 6727TIP3    H120145   2.110   4.279   3.278
 6727TIP3    H220146   1.996   4.345   3.352
 6728TIP3   OH220147   2.125   0.123   4.642
 6728TIP3    H120148   2.193   0.166   4.590
 6728TIP3    H220149   2.154   0.134   4.733
 6729TIP3   OH220150   6.339   3.265   3.713
 6729TIP3    H120151   6.327   3.255   3.808
 6729TIP3    H220152   6.431   3.242   3.698
 6730TIP3   OH220153   5.675   4.098   5.770
 6730TIP3    H120154   5.696   4.086   5.863
 6730TIP3    H220155   5.746   4.053   5.723
 6731TIP3   OH220156   5.761   2.023   3.321
 6731TIP3    H120157   5.689   1.974   3.282
 6731TIP3    H220158   5.753   2.111   3.284
 6732TIP3   OH220159   5.089   4.308   0.314
 6732TIP3    H120160   5.074   4.244   0.384
 6732TIP3    H220161   5.120   4.255   0.240
 6733TIP3   OH220162   0.449   3.154   3.338
 6733TIP3    H120163   0.383   3.215   3.372
 6733TIP3    H220164   0.498   3.127   3.416
 6734TIP3   OH220165   4.970   5.121   1.797
 6734TIP3    H120166   4.924   5.158   1.722
 6734TIP3    H220167   4.916   5.045   1.822
 6735TIP3   OH220168   4.665   1.438   1.183
 6735TIP3    H120169   4.720   1.463   1.258
 6735TIP3    H220170   4.615   1.517   1.163
 6736TIP3   OH220171   6.382   0.694   2.906
 6736TIP3    H120172   6.317   0.632   2.871
 6736TIP3    H220173   6.337   0.778   2.904
 6737TIP3   OH220174   0.675   2.182   4.392
 6737TIP3    H120175   0.636   2.097   4.373
 6737TIP3    H220176   0.601   2.239   4.413
 6738TIP3   OH220177   1.729   5.517   2.614
 6738TIP3    H120178   1.730   5.601   2.567
 6738TIP3    H220179   1.663   5.529   2.682
 6739TIP3   OH220180   2.414   6.465   2.690
 6739TIP3    H120181   2.505   6.471   2.716
 6739TIP3    H220182   2.377   6.550   2.711
 6740TIP3   OH220183   1.731   0.862   0.726
 6740TIP3    H120184   1.773   0.905   0.651
 6740TIP3    H220185   1.725   0.931   0.792
 6741TIP3   OH220186   2.965   5.092   2.532
 6741TIP3    H120187   2.907   5.023   2.501
 6741TIP3    H220188   3.053   5.059   2.514
 6742TIP3   OH220189   5.764   5.805   3.962
 6742TIP3    H120190   5.738   5.895   3.982
 6742TIP3    H220191   5.688   5.752   3.989
 6743TIP3   OH220192   6.497   3.362   2.858
 6743TIP3    H120193   6.459   3.321   2.936
 6743TIP3    H220194   6.424   3.411   2.819
 6744TIP3   OH220195   0.056   6.583   4.438
 6744TIP3    H120196   0.087   6.654   4.381
 6744TIP3    H220197   0.041   6.625   4.523
 6745TIP3   OH220198   4.621   2.744   5.500
 6745TIP3    H120199   4.664   2.661   5.522
 6745TIP3    H220200   4.680   2.785   5.437
 6746TIP3   OH220201   0.592   5.804   1.663
 6746TIP3    H120202   0.561   5.869   1.600
 6746TIP3    H220203   0.607   5.855   1.743
 6747TIP3   OH220204   1.061   5.925   2.283
 6747TIP3    H120205   0.976   5.892   2.311
 6747TIP3    H220206   1.104   5.850   2.243
 6748TIP3   OH220207   6.121   0.925   2.675
 6748TIP3    H120208   6.108   1.012   2.636
 6748TIP3    H220209   6.211   0.928   2.709
 6749TIP3   OH220210   0.694   2.493   4.740
 6749TIP3    H120211   0.654   2.479   4.654
 6749TIP3    H220212   0.732   2.581   4.735
 6750TIP3   OH220213   3.974   3.125  -0.018
 6750TIP3    H120214   4.019   3.064   0.041
 6750TIP3    H220215   3.881   3.116   0.005
 6751TIP3   OH220216   4.217   3.228   1.971
 6751TIP3    H120217   4.272   3.306   1.968
 6751TIP3    H220218   4.277   3.158   1.997
 6752TIP3   OH220219   5.792   3.891   1.536
 6752TIP3    H120220   5.801   3.981   1.568
 6752TIP3    H220221   5.715   3.857   1.581
 6753TIP3   OH220222   4.579   4.446   3.198
 6753TIP3    H120223   4.517   4.406   3.138
 6753TIP3    H220224   4.548   4.421   3.285
 6754TIP3   OH220225   5.882   0.814   5.197
 6754TIP3    H120226   5.899   0.749   5.129
 6754TIP3    H220227   5.869   0.896   5.149
 6755TIP3   OH220228   3.166   1.811   3.261
 6755TIP3    H120229   3.227   1.778   3.327
 6755TIP3    H220230   3.081   1.813   3.307
 6756TIP3   OH220231   4.871   6.795   4.886
 6756TIP3    H120232   4.952   6.846   4.883
 6756TIP3    H220233   4.821   6.835   4.957
 6757TIP3   OH220234   3.585   1.446   1.331
 6757TIP3    H120235   3.501   1.478   1.297
 6757TIP3    H220236   3.564   1.411   1.417
 6758TIP3   OH220237   1.899   2.849   0.880
 6758TIP3    H120238   1.923   2.937   0.907
 6758TIP3    H220239   1.982   2.806   0.859
 6759TIP3   OH220240   2.889   4.223   5.654
 6759TIP3    H120241   2.974   4.179   5.650
 6759TIP3    H220242   2.825   4.151   5.652
 6760TIP3   OH220243   6.854   6.601   2.833
 6760TIP3    H120244   6.875   6.652   2.755
 6760TIP3    H220245   6.773   6.640   2.866
 6761TIP3   OH220246   6.248   4.702   0.326
 6761TIP3    H120247   6.268   4.786   0.284
 6761TIP3    H220248   6.243   4.723   0.420
 6762TIP3   OH220249   4.691   5.726   4.092
 6762TIP3    H120250   4.674   5.656   4.030
 6762TIP3    H220251   4.606   5.768   4.106
 6763TIP3   OH220252   1.356   1.064   4.701
 6763TIP3    H120253   1.276   1.029   4.740
 6763TIP3    H220254   1.425   1.045   4.764
 6764TIP3   OH220255   3.195   3.550   5.159
 6764TIP3    H120256   3.277   3.533   5.206
 6764TIP3    H220257   3.141   3.472   5.176
 6765TIP3   OH220258   4.205   1.410   2.926
 6765TIP3    H120259   4.226   1.337   2.867
 6765TIP3    H220260   4.247   1.486   2.885
 6766TIP3   OH220261   5.877   4.229   5.155
 6766TIP3    H120262   5.917   4.227   5.242
 6766TIP3    H220263   5.823   4.307   5.155
 6767TIP3   OH220264   6.163   5.496   4.999
 6767TIP3    H120265   6.075   5.519   5.030
 6767TIP3    H220266   6.161   5.401   4.989
 6768TIP3   OH220267   4.030   0.185   5.827
 6768TIP3    H120268   4.087   0.180   5.751
 6768TIP3    H220269   3.976   0.263   5.812
 6769TIP3   OH220270   1.002   0.722   0.515
 6769TIP3    H120271   0.994   0.733   0.420
 6769TIP3    H220272   1.085   0.766   0.537
 6770TIP3   OH220273   6.411   5.369   2.180
 6770TIP3    H120274   6.319   5.358   2.204
 6770TIP3    H220275   6.459   5.365   2.264
 6771TIP3   OH220276   7.172   3.120   1.326
 6771TIP3    H120277   7.166   3.036   1.371
 6771TIP3    H220278   7.081   3.144   1.308
 6772TIP3   OH220279   4.881   4.883   0.159
 6772TIP3    H120280   4.880   4.977   0.179
 6772TIP3    H220281   4.971   4.856   0.178
 6773TIP3   OH220282   5.036   0.504   5.826
 6773TIP3    H120283   4.940   0.502   5.830
 6773TIP3    H220284   5.056   0.570   5.760
 6774TIP3   OH220285   6.548   5.954   4.191
 6774TIP3    H120286   6.542   5.863   4.162
 6774TIP3    H220287   6.559   6.005   4.110
 6775TIP3   OH220288   6.457   4.085   4.543
 6775TIP3    H120289   6.421   3.998   4.555
 6775TIP3    H220290   6.400   4.126   4.478
 6776TIP3   OH220291   2.851   1.816   5.402
 6776TIP3    H120292   2.885   1.869   5.330
 6776TIP3    H220293   2.763   1.851   5.418
 6777TIP3   OH220294   5.656   2.882   3.454
 6777TIP3    H120295   5.673   2.819   3.524
 6777TIP3    H220296   5.593   2.839   3.397
 6778TIP3   OH220297   7.153   3.342   1.761
 6778TIP3    H120298   7.218   3.336   1.831
 6778TIP3    H220299   7.071   3.362   1.806
 6779TIP3   OH220300   0.189   6.830   5.868
 6779TIP3    H120301   0.194   6.868   5.780
 6779TIP3    H220302   0.211   6.738   5.856
 6780TIP3   OH220303   2.768   3.054   3.846
 6780TIP3    H120304   2.821   2.982   3.878
 6780TIP3    H220305   2.823   3.098   3.781
 6781TIP3   OH220306   2.866   3.505   1.842
 6781TIP3    H120307   2.899   3.595   1.849
 6781TIP3    H220308   2.875   3.484   1.749
 6782TIP3   OH220309   3.779   5.398   2.489
 6782TIP3    H120310   3.866   5.402   2.529
 6782TIP3    H220311   3.724   5.355   2.554
 6783TIP3   OH220312   5.132   1.199   4.018
 6783TIP3    H120313   5.143   1.222   4.110
 6783TIP3    H220314   5.212   1.152   3.995
 6784TIP3   OH220315   6.106   1.807   1.536
 6784TIP3    H120316   6.145   1.894   1.538
 6784TIP3    H220317   6.046   1.809   1.462
 6785TIP3   OH220318   1.548   3.390   1.705
 6785TIP3    H120319   1.510   3.423   1.624
 6785TIP3    H220320   1.639   3.371   1.683
 6786TIP3   OH220321   2.889   5.566   0.687
 6786TIP3    H120322   2.859   5.476   0.681
 6786TIP3    H220323   2.813   5.614   0.721
 6787TIP3   OH220324   0.806   1.636   2.108
 6787TIP3    H120325   0.770   1.578   2.175
 6787TIP3    H220326   0.846   1.707   2.157
 6788TIP3   OH220327   4.513   5.073   1.114
 6788TIP3    H120328   4.547   5.133   1.048
 6788TIP3    H220329   4.556   4.990   1.096
 6789TIP3   OH220330   3.820   3.992   0.332
 6789TIP3    H120331   3.770   4.003   0.251
 6789TIP3    H220332   3.809   3.900   0.355
 6790TIP3   OH220333   6.197   5.780   3.116
 6790TIP3    H120334   6.121   5.722   3.107
 6790TIP3    H220335   6.220   5.775   3.209
 6791TIP3   OH220336   6.228   6.612   0.967
 6791TIP3    H120337   6.219   6.677   0.898
 6791TIP3    H220338   6.300   6.644   1.021
 6792TIP3   OH220339   4.890   1.227   3.368
 6792TIP3    H120340   4.865   1.209   3.278
 6792TIP3    H220341   4.841   1.164   3.420
 6793TIP3   OH220342   1.202   1.062   2.159
 6793TIP3    H120343   1.185   0.968   2.163
 6793TIP3    H220344   1.171   1.096   2.243
 6794TIP3   OH220345   4.840   5.640   3.011
 6794TIP3    H120346   4.773   5.617   2.947
 6794TIP3    H220347   4.922   5.613   2.971
 6795TIP3   OH220348   2.864   6.628   2.681
 6795TIP3    H120349   2.884   6.720   2.698
 6795TIP3    H220350   2.843   6.591   2.768
 6796TIP3   OH220351   2.555   0.334   1.313
 6796TIP3    H120352   2.480   0.312   1.257
 6796TIP3    H220353   2.541   0.426   1.335
 6797TIP3   OH220354   7.255   1.509   0.294
 6797TIP3    H120355   7.166   1.520   0.327
 6797TIP3    H220356   7.259   1.419   0.264
 6798TIP3   OH220357   4.311   2.223   4.694
 6798TIP3    H120358   4.317   2.318   4.703
 6798TIP3    H220359   4.228   2.200   4.736
 6799TIP3   OH220360   1.374   0.698   2.877
 6799TIP3    H120361   1.288   0.733   2.901
 6799TIP3    H220362   1.399   0.641   2.949
 6800TIP3   OH220363   2.267   0.297   3.415
 6800TIP3    H120364   2.356   0.309   3.449
 6800TIP3    H220365   2.239   0.214   3.452
 6801TIP3   OH220366   0.951   1.702   0.978
 6801TIP3    H120367   1.031   1.673   1.022
 6801TIP3    H220368   0.897   1.623   0.971
 6802TIP3   OH220369   1.425   5.310   0.301
 6802TIP3    H120370   1.392   5.384   0.353
 6802TIP3    H220371   1.362   5.240   0.317
 6803TIP3   OH220372   0.218   0.085   5.303
 6803TIP3    H120373   0.227   0.179   5.283
 6803TIP3    H220374   0.305   0.049   5.287
 6804TIP3   OH220375   2.187   4.922   1.002
 6804TIP3    H120376   2.103   4.898   1.043
 6804TIP3    H220377   2.251   4.867   1.047
 6805TIP3   OH220378   1.891   2.000   2.841
 6805TIP3    H120379   1.952   2.026   2.772
 6805TIP3    H220380   1.937   1.931   2.889
 6806TIP3   OH220381   4.883   3.573   3.282
 6806TIP3    H120382   4.924   3.490   3.307
 6806TIP3    H220383   4.955   3.630   3.258
 6807TIP3   OH220384   0.124   2.803   4.281
 6807TIP3    H120385   0.082   2.881   4.243
 6807TIP3    H220386   0.078   2.790   4.364
 6808TIP3   OH220387   3.669   3.495   5.490
 6808TIP3    H120388   3.678   3.418   5.545
 6808TIP3    H220389   3.722   3.476   5.412
 6809TIP3   OH220390   2.765   6.274   1.376
 6809TIP3    H120391   2.795   6.189   1.345
 6809TIP3    H220392   2.846   6.323   1.392
 6810TIP3   OH220393   0.799   4.984   0.897
 6810TIP3    H120394   0.784   5.015   0.807
 6810TIP3    H220395   0.712   4.959   0.928
 6811TIP3   OH220396   6.380   2.642   3.459
 6811TIP3    H120397   6.475   2.631   3.464
 6811TIP3    H220398   6.367   2.736   3.472
 6812TIP3   OH220399   0.840   0.828   5.337
 6812TIP3    H120400   0.925   0.787   5.350
 6812TIP3    H220401   0.852   0.883   5.259
 6813TIP3   OH220402   7.177   4.328   3.948
 6813TIP3    H120403   7.249   4.354   3.890
 6813TIP3    H220404   7.098   4.347   3.897
 6814TIP3   OH220405   5.492   5.287   4.539
 6814TIP3    H120406   5.484   5.314   4.630
 6814TIP3    H220407   5.408   5.309   4.499
 6815TIP3   OH220408   1.534   3.624   5.428
 6815TIP3    H120409   1.470   3.687   5.462
 6815TIP3    H220410   1.520   3.545   5.482
 6816TIP3   OH220411   3.903   6.323   4.976
 6816TIP3    H120412   3.906   6.245   4.921
 6816TIP3    H220413   3.813   6.325   5.009
 6817TIP3   OH220414   3.216   0.201   1.740
 6817TIP3    H120415   3.137   0.226   1.788
 6817TIP3    H220416   3.269   0.154   1.805
 6818TIP3   OH220417   3.421   2.152   5.395
 6818TIP3    H120418   3.379   2.211   5.332
 6818TIP3    H220419   3.444   2.209   5.469
 6819TIP3   OH220420   1.492   6.580   1.031
 6819TIP3    H120421   1.563   6.587   1.094
 6819TIP3    H220422   1.524   6.519   0.964
 6820TIP3   OH220423   4.317   6.647   5.431
 6820TIP3    H120424   4.279   6.707   5.366
 6820TIP3    H220425   4.261   6.656   5.508
 6821TIP3   OH220426   3.343   6.355   2.161
 6821TIP3    H120427   3.344   6.270   2.116
 6821TIP3    H220428   3.368   6.418   2.093
 6822TIP3   OH220429   0.120   6.614   1.102
 6822TIP3    H120430   0.099   6.650   1.016
 6822TIP3    H220431   0.212   6.637   1.116
 6823TIP3   OH220432   5.747   6.721   4.053
 6823TIP3    H120433   5.718   6.745   3.965
 6823TIP3    H220434   5.756   6.626   4.051
 6824TIP3   OH220435   6.836   0.900   1.843
 6824TIP3    H120436   6.902   0.962   1.874
 6824TIP3    H220437   6.768   0.901   1.912
 6825TIP3   OH220438   0.758   5.136   3.543
 6825TIP3    H120439   0.838   5.092   3.571
 6825TIP3    H220440   0.701   5.133   3.620
 6826TIP3   OH220441   1.692   2.683   0.998
 6826TIP3    H120442   1.770   2.731   0.971
 6826TIP3    H220443   1.621   2.747   0.989
 6827TIP3   OH220444   5.262   1.148   4.448
 6827TIP3    H120445   5.238   1.216   4.386
 6827TIP3    H220446   5.281   1.195   4.529
 6828TIP3   OH220447   1.824   6.561   0.639
 6828TIP3    H120448   1.823   6.477   0.685
 6828TIP3    H220449   1.736   6.568   0.601
 6829TIP3   OH220450   4.202   5.284   4.388
 6829TIP3    H120451   4.173   5.300   4.298
 6829TIP3    H220452   4.204   5.188   4.395
 6830TIP3   OH220453   5.695   3.541   3.562
 6830TIP3    H120454   5.652   3.555   3.646
 6830TIP3    H220455   5.701   3.629   3.524
 6831TIP3   OH220456   5.310   5.497   2.799
 6831TIP3    H120457   5.361   5.426   2.837
 6831TIP3    H220458   5.338   5.501   2.707
 6832TIP3   OH220459   4.598   6.643   0.825
 6832TIP3    H120460   4.584   6.718   0.768
 6832TIP3    H220461   4.666   6.672   0.886
 6833TIP3   OH220462   1.172   2.634   4.924
 6833TIP3    H120463   1.170   2.580   4.845
 6833TIP3    H220464   1.231   2.706   4.903
 6834TIP3   OH220465   3.948   6.374   5.820
 6834TIP3    H120466   3.924   6.333   5.903
 6834TIP3    H220467   4.010   6.314   5.780
 6835TIP3   OH220468   3.567   3.700   4.315
 6835TIP3    H120469   3.580   3.766   4.247
 6835TIP3    H220470   3.539   3.749   4.392
 6836TIP3   OH220471   2.505   1.243   4.853
 6836TIP3    H120472   2.574   1.238   4.918
 6836TIP3    H220473   2.551   1.254   4.770
 6837TIP3   OH220474   7.107   1.269   0.853
 6837TIP3    H120475   7.182   1.246   0.907
 6837TIP3    H220476   7.108   1.205   0.782
 6838TIP3   OH220477   7.050   0.752   1.480
 6838TIP3    H120478   7.034   0.735   1.387
 6838TIP3    H220479   7.135   0.796   1.482
 6839TIP3   OH220480   3.374   1.293   2.662
 6839TIP3    H120481   3.435   1.270   2.592
 6839TIP3    H220482   3.306   1.344   2.619
 6840TIP3   OH220483   1.093   0.088   0.238
 6840TIP3    H120484   1.173   0.111   0.191
 6840TIP3    H220485   1.121   0.076   0.328
 6841TIP3   OH220486   0.897   5.019   1.656
 6841TIP3    H120487   0.913   4.962   1.731
 6841TIP3    H220488   0.861   4.962   1.588
 6842TIP3   OH220489   1.600   3.637   4.571
 6842TIP3    H120490   1.601   3.651   4.476
 6842TIP3    H220491   1.591   3.542   4.580
 6843TIP3   OH220492   6.392   2.228   1.355
 6843TIP3    H120493   6.452   2.160   1.324
 6843TIP3    H220494   6.321   2.180   1.397
 6844TIP3   OH220495   3.131   0.029   4.482
 6844TIP3    H120496   3.135  -0.058   4.442
 6844TIP3    H220497   3.095   0.014   4.569
 6845TIP3   OH220498   4.034   1.684   5.455
 6845TIP3    H120499   4.051   1.756   5.515
 6845TIP3    H220500   3.982   1.622   5.506
 6846TIP3   OH220501   7.138   5.483   4.265
 6846TIP3    H120502   7.184   5.464   4.183
 6846TIP3    H220503   7.191   5.550   4.307
 6847TIP3   OH220504   1.970   0.885   3.741
 6847TIP3    H120505   2.020   0.858   3.818
 6847TIP3    H220506   1.952   0.803   3.694
 6848TIP3   OH220507   3.113   6.086   4.784
 6848TIP3    H120508   3.209   6.085   4.790
 6848TIP3    H220509   3.095   6.098   4.691
 6849TIP3   OH220510   6.522   3.248   4.993
 6849TIP3    H120511   6.472   3.167   5.005
 6849TIP3    H220512   6.549   3.274   5.081
 6850TIP3   OH220513   0.241   4.839   3.933
 6850TIP3    H120514   0.156   4.831   3.976
 6850TIP3    H220515   0.241   4.928   3.899
 6851TIP3   OH220516   6.113   1.526   4.214
 6851TIP3    H120517   6.179   1.458   4.229
 6851TIP3    H220518   6.158   1.608   4.233
 6852TIP3   OH220519   7.235   3.584   5.109
 6852TIP3    H120520   7.174   3.564   5.180
 6852TIP3    H220521   7.229   3.679   5.098
 6853TIP3   OH220522   0.687   5.931   4.206
 6853TIP3    H120523   0.667   5.858   4.148
 6853TIP3    H220524   0.606   5.946   4.255
 6854TIP3   OH220525   3.368   5.783   0.125
 6854TIP3    H120526   3.299   5.789   0.191
 6854TIP3    H220527   3.414   5.702   0.146
 6855TIP3   OH220528   1.028   2.890   2.159
 6855TIP3    H120529   1.056   2.894   2.250
 6855TIP3    H220530   1.043   2.978   2.125
 6856TIP3   OH220531   0.871   1.693   1.285
 6856TIP3    H120532   0.866   1.623   1.219
 6856TIP3    H220533   0.822   1.659   1.360
 6857TIP3   OH220534   1.664   5.711   1.090
 6857TIP3    H120535   1.575   5.695   1.061
 6857TIP3    H220536   1.657   5.724   1.185
 6858TIP3   OH220537   7.156   1.475   2.129
 6858TIP3    H120538   7.162   1.380   2.137
 6858TIP3    H220539   7.064   1.491   2.107
 6859TIP3   OH220540   6.800   1.004   2.238
 6859TIP3    H120541   6.854   1.057   2.180
 6859TIP3    H220542   6.844   1.009   2.323
 6860TIP3   OH220543   6.685   6.134   4.369
 6860TIP3    H120544   6.608   6.097   4.325
 6860TIP3    H220545   6.758   6.079   4.341
 6861TIP3   OH220546   3.504   1.154   2.444
 6861TIP3    H120547   3.473   1.094   2.512
 6861TIP3    H220548   3.558   1.100   2.386
 6862TIP3   OH220549   2.192   6.631   0.765
 6862TIP3    H120550   2.136   6.707   0.777
 6862TIP3    H220551   2.277   6.667   0.740
 6863TIP3   OH220552   7.028   1.087   2.636
 6863TIP3    H120553   7.070   1.016   2.684
 6863TIP3    H220554   7.099   1.135   2.594
 6864TIP3   OH220555   2.221   4.908   3.571
 6864TIP3    H120556   2.264   4.931   3.653
 6864TIP3    H220557   2.185   4.821   3.586
 6865TIP3   OH220558   3.335   2.652   3.623
 6865TIP3    H120559   3.386   2.626   3.699
 6865TIP3    H220560   3.292   2.733   3.649
 6866TIP3   OH220561   5.339   2.178   5.134
 6866TIP3    H120562   5.301   2.091   5.146
 6866TIP3    H220563   5.263   2.235   5.118
 6867TIP3   OH220564   0.102   1.996   5.641
 6867TIP3    H120565   0.029   1.934   5.641
 6867TIP3    H220566   0.150   1.977   5.722
 6868TIP3   OH220567   3.130   6.628   2.560
 6868TIP3    H120568   3.063   6.598   2.621
 6868TIP3    H220569   3.142   6.554   2.500
 6869TIP3   OH220570   4.966   4.545   5.263
 6869TIP3    H120571   4.892   4.592   5.226
 6869TIP3    H220572   4.937   4.520   5.351
 6870TIP3   OH220573   6.833   1.698   5.646
 6870TIP3    H120574   6.851   1.636   5.576
 6870TIP3    H220575   6.779   1.766   5.605
 6871TIP3   OH220576   4.092   1.104   2.150
 6871TIP3    H120577   4.100   1.170   2.218
 6871TIP3    H220578   4.073   1.153   2.070
 6872TIP3   OH220579   7.214   6.098   0.421
 6872TIP3    H120580   7.187   6.088   0.329
 6872TIP3    H220581   7.202   6.191   0.439
 6873TIP3   OH220582   6.772   4.400   1.713
 6873TIP3    H120583   6.828   4.324   1.698
 6873TIP3    H220584   6.739   4.423   1.626
 6874TIP3   OH220585   0.835   2.733   5.236
 6874TIP3    H120586   0.887   2.726   5.156
 6874TIP3    H220587   0.892   2.697   5.304
 6875TIP3   OH220588   5.317   2.328   1.376
 6875TIP3    H120589   5.236   2.327   1.325
 6875TIP3    H220590   5.373   2.392   1.333
 6876TIP3   OH220591   5.374   3.791   5.460
 6876TIP3    H120592   5.358   3.823   5.548
 6876TIP3    H220593   5.430   3.857   5.419
 6877TIP3   OH220594   0.707   1.308   4.854
 6877TIP3    H120595   0.794   1.337   4.882
 6877TIP3    H220596   0.667   1.386   4.816
 6878TIP3   OH220597   4.118   4.022   2.378
 6878TIP3    H120598   4.100   3.936   2.418
 6878TIP3    H220599   4.183   4.061   2.436
 6879TIP3   OH220600   1.289   0.469   4.061
 6879TIP3    H120601   1.262   0.382   4.031
 6879TIP3    H220602   1.336   0.453   4.143
 6880TIP3   OH220603   3.763   5.908   4.631
 6880TIP3    H120604   3.777   5.896   4.725
 6880TIP3    H220605   3.848   5.889   4.591
 6881TIP3   OH220606   2.785   1.381   5.807
 6881TIP3    H120607   2.704   1.424   5.834
 6881TIP3    H220608   2.851   1.450   5.811
 6882TIP3   OH220609   0.486   1.306   2.995
 6882TIP3    H120610   0.561   1.247   2.982
 6882TIP3    H220611   0.496   1.372   2.926
 6883TIP3   OH220612   0.594   2.730   3.478
 6883TIP3    H120613   0.584   2.713   3.571
 6883TIP3    H220614   0.505   2.752   3.448
 6884TIP3   OH220615   2.232   3.487   4.666
 6884TIP3    H120616   2.182   3.435   4.603
 6884TIP3    H220617   2.181   3.567   4.676
 6885TIP3   OH220618   3.544   0.330   5.500
 6885TIP3    H120619   3.626   0.283   5.485
 6885TIP3    H220620   3.524   0.370   5.416
 6886TIP3   OH220621   1.855   1.524   1.321
 6886TIP3    H120622   1.935   1.574   1.338
 6886TIP3    H220623   1.792   1.559   1.385
 6887TIP3   OH220624   1.675   4.443   0.163
 6887TIP3    H120625   1.655   4.375   0.227
 6887TIP3    H220626   1.607   4.509   0.175
 6888TIP3   OH220627   4.697   1.938   0.097
 6888TIP3    H120628   4.670   1.955   0.007
 6888TIP3    H220629   4.643   1.995   0.150
 6889TIP3   OH220630   0.243   3.941   4.133
 6889TIP3    H120631   0.182   3.947   4.207
 6889TIP3    H220632   0.194   3.897   4.064
 6890TIP3   OH220633   4.844   2.865   4.511
 6890TIP3    H120634   4.929   2.828   4.537
 6890TIP3    H220635   4.822   2.927   4.580
 6891TIP3   OH220636   1.150   2.221   0.152
 6891TIP3    H120637   1.139   2.210   0.246
 6891TIP3    H220638   1.062   2.210   0.116
 6892TIP3   OH220639   3.930   3.989   2.814
 6892TIP3    H120640   3.865   4.059   2.819
 6892TIP3    H220641   4.012   4.031   2.841
 6893TIP3   OH220642   4.391   1.676   0.116
 6893TIP3    H120643   4.439   1.632   0.046
 6893TIP3    H220644   4.316   1.716   0.072
 6894TIP3   OH220645   0.111   2.986   4.908
 6894TIP3    H120646   0.150   2.920   4.964
 6894TIP3    H220647   0.145   2.967   4.820
 6895TIP3   OH220648   5.731   5.090   1.535
 6895TIP3    H120649   5.780   5.132   1.607
 6895TIP3    H220650   5.661   5.042   1.579
 6896TIP3   OH220651   1.391   6.016   0.555
 6896TIP3    H120652   1.374   5.943   0.497
 6896TIP3    H220653   1.400   6.092   0.497
 6897TIP3   OH220654   4.275   2.942   3.855
 6897TIP3    H120655   4.310   2.979   3.937
 6897TIP3    H220656   4.323   2.861   3.843
 6898TIP3   OH220657   2.923   6.721   3.598
 6898TIP3    H120658   2.897   6.727   3.506
 6898TIP3    H220659   3.003   6.669   3.597
 6899TIP3   OH220660   4.166   5.597   2.389
 6899TIP3    H120661   4.081   5.562   2.363
 6899TIP3    H220662   4.197   5.644   2.312
 6900TIP3   OH220663   4.125   6.487   4.236
 6900TIP3    H120664   4.035   6.473   4.266
 6900TIP3    H220665   4.117   6.504   4.142
 6901TIP3   OH220666   1.796   0.429   5.626
 6901TIP3    H120667   1.854   0.489   5.673
 6901TIP3    H220668   1.826   0.342   5.651
 6902TIP3   OH220669   3.600   2.201   4.497
 6902TIP3    H120670   3.624   2.285   4.458
 6902TIP3    H220671   3.519   2.176   4.453
 6903TIP3   OH220672   5.879   0.791   4.110
 6903TIP3    H120673   5.939   0.853   4.151
 6903TIP3    H220674   5.853   0.832   4.028
 6904TIP3   OH220675   3.719   5.927   2.132
 6904TIP3    H120676   3.672   5.848   2.104
 6904TIP3    H220677   3.754   5.964   2.051
 6905TIP3   OH220678   5.728   2.689   2.132
 6905TIP3    H120679   5.819   2.673   2.155
 6905TIP3    H220680   5.731   2.762   2.071
 6906TIP3   OH220681   3.816   4.044   2.370
 6906TIP3    H120682   3.779   4.132   2.374
 6906TIP3    H220683   3.887   4.050   2.306
 6907TIP3   OH220684   3.790   0.618   2.113
 6907TIP3    H120685   3.779   0.605   2.019
 6907TIP3    H220686   3.701   0.615   2.149
 6908TIP3   OH220687   2.532   6.481   1.415
 6908TIP3    H120688   2.475   6.535   1.470
 6908TIP3    H220689   2.592   6.543   1.374
 6909TIP3   OH220690   0.653   4.134   2.685
 6909TIP3    H120691   0.572   4.085   2.698
 6909TIP3    H220692   0.678   4.114   2.595
 6910TIP3   OH220693   1.978   0.815   0.377
 6910TIP3    H120694   1.944   0.728   0.398
 6910TIP3    H220695   2.072   0.808   0.392
 6911TIP3   OH220696   3.130   2.901   2.608
 6911TIP3    H120697   3.187   2.889   2.683
 6911TIP3    H220698   3.048   2.934   2.645
 6912TIP3   OH220699   3.226   0.393   1.518
 6912TIP3    H120700   3.236   0.317   1.574
 6912TIP3    H220701   3.207   0.465   1.578
 6913TIP3   OH220702   7.140   5.570   2.281
 6913TIP3    H120703   7.179   5.617   2.208
 6913TIP3    H220704   7.052   5.548   2.251
 6914TIP3   OH220705   5.833   4.985   4.278
 6914TIP3    H120706   5.786   5.068   4.273
 6914TIP3    H220707   5.889   4.984   4.200
 6915TIP3   OH220708   7.028   2.452   0.814
 6915TIP3    H120709   6.966   2.501   0.759
 6915TIP3    H220710   7.025   2.497   0.898
 6916TIP3   OH220711   1.435   4.792   2.893
 6916TIP3    H120712   1.408   4.715   2.842
 6916TIP3    H220713   1.360   4.852   2.886
 6917TIP3   OH220714   3.523  -0.007   2.765
 6917TIP3    H120715   3.588   0.061   2.784
 6917TIP3    H220716   3.553  -0.048   2.684
 6918TIP3   OH220717   4.466   3.090   4.837
 6918TIP3    H120718   4.454   3.161   4.774
 6918TIP3    H220719   4.380   3.046   4.840
 6919TIP3   OH220720   6.082   2.887   4.096
 6919TIP3    H120721   6.003   2.941   4.101
 6919TIP3    H220722   6.081   2.851   4.008
 6920TIP3   OH220723   4.980   2.781   1.046
 6920TIP3    H120724   4.888   2.757   1.033
 6920TIP3    H220725   5.029   2.700   1.028
 6921TIP3   OH220726   3.929   5.430   2.931
 6921TIP3    H120727   3.980   5.351   2.949
 6921TIP3    H220728   3.990   5.502   2.948
 6922TIP3   OH220729   0.473   4.131   0.252
 6922TIP3    H120730   0.445   4.039   0.251
 6922TIP3    H220731   0.516   4.141   0.337
 6923TIP3   OH220732   6.213   3.581   4.845
 6923TIP3    H120733   6.169   3.657   4.809
 6923TIP3    H220734   6.221   3.600   4.939
 6924TIP3   OH220735   5.690   2.772   5.510
 6924TIP3    H120736   5.611   2.719   5.494
 6924TIP3    H220737   5.656   2.861   5.523
 6925TIP3   OH220738   1.964   1.120   3.594
 6925TIP3    H120739   1.911   1.181   3.645
 6925TIP3    H220740   1.974   1.044   3.651
 6926TIP3   OH220741   5.529   2.934   4.297
 6926TIP3    H120742   5.576   2.882   4.363
 6926TIP3    H220743   5.596   2.958   4.234
 6927TIP3   OH220744   1.550   6.631   1.913
 6927TIP3    H120745   1.549   6.540   1.882
 6927TIP3    H220746   1.458   6.655   1.920
 6928TIP3   OH220747   4.962   3.366   5.359
 6928TIP3    H120748   4.911   3.394   5.435
 6928TIP3    H220749   4.996   3.447   5.322
 6929TIP3   OH220750   4.121   1.346   1.075
 6929TIP3    H120751   4.027   1.330   1.070
 6929TIP3    H220752   4.158   1.267   1.115
 6930TIP3   OH220753   2.135   6.177   3.737
 6930TIP3    H120754   2.075   6.179   3.663
 6930TIP3    H220755   2.140   6.268   3.767
 6931TIP3   OH220756   5.007   3.139   3.542
 6931TIP3    H120757   5.065   3.172   3.609
 6931TIP3    H220758   5.025   3.045   3.538
 6932TIP3   OH220759   5.309   3.633   5.720
 6932TIP3    H120760   5.299   3.623   5.814
 6932TIP3    H220761   5.354   3.717   5.709
 6933TIP3   OH220762   6.535   3.658   0.584
 6933TIP3    H120763   6.461   3.708   0.620
 6933TIP3    H220764   6.547   3.586   0.646
 6934TIP3   OH220765   6.011   5.365   0.152
 6934TIP3    H120766   6.065   5.395   0.080
 6934TIP3    H220767   5.926   5.344   0.112
 6935TIP3   OH220768   7.093   1.114   0.642
 6935TIP3    H120769   7.102   1.032   0.594
 6935TIP3    H220770   7.004   1.144   0.623
 6936TIP3   OH220771   1.563   1.359   4.316
 6936TIP3    H120772   1.553   1.439   4.264
 6936TIP3    H220773   1.631   1.381   4.380
 6937TIP3   OH220774   2.901   1.808   1.476
 6937TIP3    H120775   2.863   1.848   1.398
 6937TIP3    H220776   2.949   1.878   1.519
 6938TIP3   OH220777   6.498   6.047   2.636
 6938TIP3    H120778   6.511   6.124   2.692
 6938TIP3    H220779   6.584   6.006   2.632
 6939TIP3   OH220780   0.046   4.412   5.386
 6939TIP3    H120781  -0.022   4.383   5.325
 6939TIP3    H220782   0.128   4.402   5.337
 6940TIP3   OH220783   4.340   1.556   5.444
 6940TIP3    H120784   4.267   1.588   5.391
 6940TIP3    H220785   4.411   1.540   5.381
 6941TIP3   OH220786   7.001   1.679   1.637
 6941TIP3    H120787   6.974   1.625   1.712
 6941TIP3    H220788   7.076   1.729   1.670
 6942TIP3   OH220789   6.035   5.758   3.968
 6942TIP3    H120790   6.063   5.753   4.059
 6942TIP3    H220791   5.939   5.761   3.972
 6943TIP3   OH220792   3.871   6.280   0.509
 6943TIP3    H120793   3.903   6.215   0.571
 6943TIP3    H220794   3.839   6.229   0.434
 6944TIP3   OH220795   6.068   5.952   0.765
 6944TIP3    H120796   6.059   5.867   0.807
 6944TIP3    H220797   6.043   6.015   0.833
 6945TIP3   OH220798   2.866   0.506   1.018
 6945TIP3    H120799   2.953   0.533   0.988
 6945TIP3    H220800   2.841   0.571   1.083
 6946TIP3   OH220801   6.301   3.754   2.300
 6946TIP3    H120802   6.244   3.678   2.297
 6946TIP3    H220803   6.274   3.807   2.226
 6947TIP3   OH220804   5.817   3.591   1.836
 6947TIP3    H120805   5.865   3.618   1.757
 6947TIP3    H220806   5.825   3.666   1.895
 6948TIP3   OH220807   6.423   0.459   1.311
 6948TIP3    H120808   6.516   0.462   1.289
 6948TIP3    H220809   6.415   0.516   1.388
 6949TIP3   OH220810   2.717   6.807   3.751
 6949TIP3    H120811   2.727   6.775   3.661
 6949TIP3    H220812   2.772   6.748   3.804
 6950TIP3   OH220813   1.891   3.081   1.599
 6950TIP3    H120814   1.858   3.161   1.641
 6950TIP3    H220815   1.822   3.056   1.538
 6951TIP3   OH220816   2.642   3.835   3.613
 6951TIP3    H120817   2.717   3.805   3.665
 6951TIP3    H220818   2.673   3.832   3.523
 6952TIP3   OH220819   1.859   4.382   2.667
 6952TIP3    H120820   1.811   4.423   2.595
 6952TIP3    H220821   1.847   4.288   2.654
 6953TIP3   OH220822   6.120   0.099   1.362
 6953TIP3    H120823   6.058   0.155   1.409
 6953TIP3    H220824   6.159   0.157   1.297
 6954TIP3   OH220825   2.420   4.073   2.330
 6954TIP3    H120826   2.339   4.052   2.285
 6954TIP3    H220827   2.394   4.126   2.405
 6955TIP3   OH220828   3.432   4.971   0.643
 6955TIP3    H120829   3.517   4.949   0.683
 6955TIP3    H220830   3.412   4.894   0.589
 6956TIP3   OH220831   2.738   3.814   4.355
 6956TIP3    H120832   2.794   3.855   4.288
 6956TIP3    H220833   2.653   3.857   4.345
 6957TIP3   OH220834   7.059   3.815   3.260
 6957TIP3    H120835   6.966   3.792   3.257
 6957TIP3    H220836   7.075   3.834   3.353
 6958TIP3   OH220837   5.127   1.223   2.813
 6958TIP3    H120838   5.192   1.156   2.834
 6958TIP3    H220839   5.168   1.276   2.745
 6959TIP3   OH220840   1.347   3.236   1.143
 6959TIP3    H120841   1.284   3.302   1.174
 6959TIP3    H220842   1.385   3.275   1.064
 6960TIP3   OH220843   0.855   1.487   2.570
 6960TIP3    H120844   0.913   1.561   2.557
 6960TIP3    H220845   0.806   1.479   2.488
 6961TIP3   OH220846   0.298   1.864   5.148
 6961TIP3    H120847   0.301   1.922   5.223
 6961TIP3    H220848   0.340   1.913   5.077
 6962TIP3   OH220849   2.137   0.710   4.066
 6962TIP3    H120850   2.073   0.676   4.129
 6962TIP3    H220851   2.123   0.658   3.987
 6963TIP3   OH220852   5.646   0.389   4.848
 6963TIP3    H120853   5.610   0.360   4.765
 6963TIP3    H220854   5.639   0.484   4.846
 6964TIP3   OH220855   1.199   3.121   3.170
 6964TIP3    H120856   1.246   3.196   3.134
 6964TIP3    H220857   1.259   3.047   3.156
 6965TIP3   OH220858   0.903   3.571   5.408
 6965TIP3    H120859   0.949   3.648   5.442
 6965TIP3    H220860   0.827   3.607   5.361
 6966TIP3   OH220861   5.722   1.226   4.366
 6966TIP3    H120862   5.647   1.166   4.371
 6966TIP3    H220863   5.720   1.272   4.450
 6967TIP3   OH220864   0.291   4.091   4.639
 6967TIP3    H120865   0.315   4.182   4.656
 6967TIP3    H220866   0.235   4.066   4.712
 6968TIP3   OH220867   5.814   3.376   3.205
 6968TIP3    H120868   5.820   3.385   3.110
 6968TIP3    H220869   5.825   3.465   3.238
 6969TIP3   OH220870   4.572   1.393   3.878
 6969TIP3    H120871   4.522   1.315   3.901
 6969TIP3    H220872   4.612   1.372   3.794
 6970TIP3   OH220873   4.003   3.208   1.235
 6970TIP3    H120874   3.909   3.198   1.220
 6970TIP3    H220875   4.043   3.183   1.152
 6971TIP3   OH220876   3.451   0.528   5.009
 6971TIP3    H120877   3.434   0.489   4.923
 6971TIP3    H220878   3.528   0.583   4.996
 6972TIP3   OH220879   4.106   2.301   5.568
 6972TIP3    H120880   4.032   2.328   5.513
 6972TIP3    H220881   4.089   2.209   5.587
 6973TIP3   OH220882   3.253   6.237   0.187
 6973TIP3    H120883   3.287   6.257   0.274
 6973TIP3    H220884   3.213   6.150   0.196
 6974TIP3   OH220885   2.835   4.452   4.585
 6974TIP3    H120886   2.834   4.461   4.490
 6974TIP3    H220887   2.831   4.358   4.601
 6975TIP3   OH220888   0.238   2.895   3.029
 6975TIP3    H120889   0.209   2.891   2.938
 6975TIP3    H220890   0.290   2.975   3.034
 6976TIP3   OH220891   0.975   5.851   2.941
 6976TIP3    H120892   0.986   5.940   2.975
 6976TIP3    H220893   0.949   5.799   3.018
 6977TIP3   OH220894   4.750   2.568   3.518
 6977TIP3    H120895   4.784   2.632   3.580
 6977TIP3    H220896   4.698   2.508   3.571
 6978TIP3   OH220897   4.799   6.098   0.613
 6978TIP3    H120898   4.797   6.006   0.586
 6978TIP3    H220899   4.875   6.105   0.670
 6979TIP3   OH220900   4.838   1.035   3.572
 6979TIP3    H120901   4.789   1.037   3.654
 6979TIP3    H220902   4.834   0.944   3.543
 6980TIP3   OH220903   0.924   2.668   1.311
 6980TIP3    H120904   0.906   2.703   1.224
 6980TIP3    H220905   0.859   2.599   1.323
 6981TIP3   OH220906   0.796   3.390   4.569
 6981TIP3    H120907   0.811   3.468   4.622
 6981TIP3    H220908   0.740   3.419   4.497
 6982TIP3   OH220909   0.614   5.425   1.201
 6982TIP3    H120910   0.578   5.374   1.128
 6982TIP3    H220911   0.540   5.477   1.233
 6983TIP3   OH220912   7.162   1.381   3.368
 6983TIP3    H120913   7.096   1.432   3.414
 6983TIP3    H220914   7.178   1.305   3.424
 6984TIP3   OH220915   2.830   6.052   2.408
 6984TIP3    H120916   2.821   5.962   2.438
 6984TIP3    H220917   2.740   6.084   2.398
 6985TIP3   OH220918   5.260   6.306   4.359
 6985TIP3    H120919   5.241   6.308   4.453
 6985TIP3    H220920   5.278   6.397   4.337
 6986TIP3   OH220921   1.358   4.037   4.053
 6986TIP3    H120922   1.357   3.945   4.081
 6986TIP3    H220923   1.309   4.084   4.121
 6987TIP3   OH220924   1.461   1.981   1.004
 6987TIP3    H120925   1.368   1.958   0.996
 6987TIP3    H220926   1.462   2.076   1.017
 6988TIP3   OH220927   6.385   1.805   4.598
 6988TIP3    H120928   6.475   1.831   4.613
 6988TIP3    H220929   6.390   1.712   4.576
 6989TIP3   OH220930   2.949   1.824   3.526
 6989TIP3    H120931   2.936   1.912   3.562
 6989TIP3    H220932   2.890   1.819   3.451
 6990TIP3   OH220933   2.131   5.869   1.372
 6990TIP3    H120934   2.152   5.870   1.465
 6990TIP3    H220935   2.070   5.943   1.361
 6991TIP3   OH220936   4.939   2.707   4.780
 6991TIP3    H120937   5.000   2.744   4.844
 6991TIP3    H220938   4.993   2.682   4.706
 6992TIP3   OH220939   1.243   6.019   2.453
 6992TIP3    H120940   1.171   5.996   2.395
 6992TIP3    H220941   1.228   6.111   2.476
 6993TIP3   OH220942   5.856   6.690   4.569
 6993TIP3    H120943   5.823   6.621   4.626
 6993TIP3    H220944   5.917   6.739   4.623
 6994TIP3   OH220945   7.072   5.149   0.125
 6994TIP3    H120946   7.162   5.116   0.124
 6994TIP3    H220947   7.076   5.225   0.183
 6995TIP3   OH220948   2.149   1.908   1.451
 6995TIP3    H120949   2.223   1.948   1.498
 6995TIP3    H220950   2.072   1.932   1.502
 6996TIP3   OH220951   1.121   2.898   3.820
 6996TIP3    H120952   1.200   2.908   3.873
 6996TIP3    H220953   1.127   2.968   3.754
 6997TIP3   OH220954   2.341   2.287   4.595
 6997TIP3    H120955   2.340   2.192   4.604
 6997TIP3    H220956   2.273   2.318   4.656
 6998TIP3   OH220957   0.523   5.337   2.947
 6998TIP3    H120958   0.525   5.331   2.852
 6998TIP3    H220959   0.613   5.318   2.974
 6999TIP3   OH220960   5.878   0.211   4.307
 6999TIP3    H120961   5.951   0.273   4.315
 6999TIP3    H220962   5.850   0.195   4.397
 7000TIP3   OH220963   5.127   5.388   0.817
 7000TIP3    H120964   5.121   5.484   0.811
 7000TIP3    H220965   5.192   5.364   0.751
 7001TIP3   OH220966   7.088   6.249   5.662
 7001TIP3    H120967   7.145   6.173   5.676
 7001TIP3    H220968   7.049   6.233   5.576
 7002TIP3   OH220969   1.177   6.661   2.545
 7002TIP3    H120970   1.159   6.632   2.455
 7002TIP3    H220971   1.180   6.580   2.596
 7003TIP3   OH220972   5.694   0.234   2.161
 7003TIP3    H120973   5.689   0.307   2.223
 7003TIP3    H220974   5.788   0.221   2.148
 7004TIP3   OH220975   4.034   5.996   1.728
 7004TIP3    H120976   4.110   6.034   1.685
 7004TIP3    H220977   4.000   6.066   1.783
 7005TIP3   OH220978   3.976   1.101   1.520
 7005TIP3    H120979   4.045   1.035   1.525
 7005TIP3    H220980   3.945   1.097   1.430
 7006TIP3   OH220981   0.345   3.247   1.186
 7006TIP3    H120982   0.380   3.158   1.188
 7006TIP3    H220983   0.423   3.303   1.188
 7007TIP3   OH220984   2.560   3.386   4.688
 7007TIP3    H120985   2.624   3.451   4.657
 7007TIP3    H220986   2.501   3.436   4.745
 7008TIP3   OH220987   0.652   0.100   2.357
 7008TIP3    H120988   0.742   0.111   2.388
 7008TIP3    H220989   0.598   0.145   2.422
 7009TIP3   OH220990   0.892   1.905   5.601
 7009TIP3    H120991   0.833   1.980   5.591
 7009TIP3    H220992   0.860   1.859   5.679
 7010TIP3   OH220993   1.414   1.702   3.280
 7010TIP3    H120994   1.363   1.757   3.220
 7010TIP3    H220995   1.440   1.761   3.350
 7011TIP3   OH220996   7.177   6.138   2.016
 7011TIP3    H120997   7.173   6.043   2.020
 7011TIP3    H220998   7.111   6.168   2.078
 7012TIP3   OH220999   3.717   0.517   5.628
 7012TIP3    H121000   3.751   0.491   5.713
 7012TIP3    H221001   3.646   0.456   5.609
 7013TIP3   OH221002   4.777   4.911   3.085
 7013TIP3    H121003   4.759   4.817   3.083
 7013TIP3    H221004   4.693   4.952   3.103
 7014TIP3   OH221005   4.561   1.944   4.416
 7014TIP3    H121006   4.495   1.912   4.478
 7014TIP3    H221007   4.518   1.936   4.331
 7015TIP3   OH221008   2.468   4.443   2.339
 7015TIP3    H121009   2.489   4.424   2.431
 7015TIP3    H221010   2.372   4.443   2.337
 7016TIP3   OH221011   6.174   1.457   3.835
 7016TIP3    H121012   6.175   1.362   3.832
 7016TIP3    H221013   6.264   1.483   3.818
 7017TIP3   OH221014   2.117   6.091   1.170
 7017TIP3    H121015   2.099   6.023   1.105
 7017TIP3    H221016   2.059   6.164   1.144
 7018TIP3   OH221017   2.829   0.284   1.416
 7018TIP3    H121018   2.745   0.312   1.381
 7018TIP3    H221019   2.879   0.364   1.428
 7019TIP3   OH221020   0.780   3.925   0.655
 7019TIP3    H121021   0.868   3.950   0.681
 7019TIP3    H221022   0.792   3.862   0.585
 7020TIP3   OH221023   1.868   0.988   3.383
 7020TIP3    H121024   1.933   0.918   3.395
 7020TIP3    H221025   1.890   1.052   3.451
 7021TIP3   OH221026   5.233   3.105   2.886
 7021TIP3    H121027   5.251   3.187   2.932
 7021TIP3    H221028   5.227   3.039   2.955
 7022TIP3   OH221029   0.919   1.492   4.895
 7022TIP3    H121030   0.858   1.566   4.891
 7022TIP3    H221031   0.938   1.472   4.803
 7023TIP3   OH221032   4.313   1.225   4.424
 7023TIP3    H121033   4.243   1.289   4.438
 7023TIP3    H221034   4.274   1.160   4.365
 7024TIP3   OH221035   2.368   0.172   1.162
 7024TIP3    H121036   2.356   0.160   1.068
 7024TIP3    H221037   2.289   0.135   1.201
 7025TIP3   OH221038   4.519  -0.006   3.126
 7025TIP3    H121039   4.570   0.002   3.207
 7025TIP3    H221040   4.429   0.012   3.154
 7026TIP3   OH221041   4.113   0.902   3.759
 7026TIP3    H121042   4.048   0.885   3.691
 7026TIP3    H221043   4.073   0.971   3.813
 7027TIP3   OH221044   4.635   1.237   5.539
 7027TIP3    H121045   4.669   1.327   5.543
 7027TIP3    H221046   4.713   1.182   5.540
 7028TIP3   OH221047   2.767   2.650   5.154
 7028TIP3    H121048   2.748   2.741   5.133
 7028TIP3    H221049   2.683   2.606   5.149
 7029TIP3   OH221050   5.095   2.952   0.389
 7029TIP3    H121051   5.154   3.025   0.409
 7029TIP3    H221052   5.008   2.987   0.405
 7030TIP3   OH221053   0.408   5.051   1.889
 7030TIP3    H121054   0.389   5.131   1.839
 7030TIP3    H221055   0.502   5.057   1.907
 7031TIP3   OH221056   0.262   3.496   5.080
 7031TIP3    H121057   0.295   3.448   5.156
 7031TIP3    H221058   0.172   3.516   5.102
 7032TIP3   OH221059   4.610   5.005   2.201
 7032TIP3    H121060   4.654   5.076   2.155
 7032TIP3    H221061   4.521   5.005   2.165
 7033TIP3   OH221062   3.796   4.801   3.265
 7033TIP3    H121063   3.803   4.707   3.276
 7033TIP3    H221064   3.802   4.837   3.353
 7034TIP3   OH221065   5.280   0.975   4.218
 7034TIP3    H121066   5.275   1.028   4.297
 7034TIP3    H221067   5.351   0.912   4.235
 7035TIP3   OH221068   7.150   2.467   5.773
 7035TIP3    H121069   7.202   2.423   5.705
 7035TIP3    H221070   7.207   2.538   5.803
 7036TIP3   OH221071   4.703   5.526   2.810
 7036TIP3    H121072   4.654   5.461   2.758
 7036TIP3    H221073   4.795   5.503   2.796
 7037TIP3   OH221074   0.050   5.077   3.627
 7037TIP3    H121075  -0.038   5.068   3.664
 7037TIP3    H221076   0.053   5.012   3.556
 7038TIP3   OH221077   4.306   0.901   5.056
 7038TIP3    H121078   4.277   0.854   5.135
 7038TIP3    H221079   4.227   0.910   5.003
 7039TIP3   OH221080   0.414   5.329   0.511
 7039TIP3    H121081   0.426   5.263   0.443
 7039TIP3    H221082   0.371   5.282   0.583
 7040TIP3   OH221083   4.396   4.316   4.064
 7040TIP3    H121084   4.432   4.397   4.100
 7040TIP3    H221085   4.418   4.319   3.971
 7041TIP3   OH221086   6.737   2.019   3.547
 7041TIP3    H121087   6.828   2.038   3.528
 7041TIP3    H221088   6.691   2.033   3.464
 7042TIP3   OH221089   4.697   4.969   1.546
 7042TIP3    H121090   4.614   5.015   1.555
 7042TIP3    H221091   4.676   4.877   1.563
 7043TIP3   OH221092   3.743   1.794   1.920
 7043TIP3    H121093   3.793   1.721   1.884
 7043TIP3    H221094   3.807   1.846   1.968
 7044TIP3   OH221095   6.227   4.417   2.392
 7044TIP3    H121096   6.220   4.328   2.358
 7044TIP3    H221097   6.165   4.420   2.465
 7045TIP3   OH221098   0.869   5.120   2.179
 7045TIP3    H121099   0.939   5.118   2.114
 7045TIP3    H221100   0.890   5.194   2.235
 7046TIP3   OH221101   4.560   2.702   3.348
 7046TIP3    H121102   4.623   2.648   3.396
 7046TIP3    H221103   4.613   2.747   3.283
 7047TIP3   OH221104   5.602   1.591   2.862
 7047TIP3    H121105   5.518   1.571   2.822
 7047TIP3    H221106   5.592   1.680   2.896
 7048TIP3   OH221107   0.501   1.766   5.630
 7048TIP3    H121108   0.425   1.715   5.602
 7048TIP3    H221109   0.541   1.795   5.548
 7049TIP3   OH221110   3.174   4.725   4.808
 7049TIP3    H121111   3.153   4.730   4.901
 7049TIP3    H221112   3.192   4.633   4.791
 7050TIP3   OH221113   0.864   1.932   2.140
 7050TIP3    H121114   0.870   1.969   2.052
 7050TIP3    H221115   0.906   1.997   2.196
 7051TIP3   OH221116   3.586   5.602   4.713
 7051TIP3    H121117   3.578   5.507   4.703
 7051TIP3    H221118   3.530   5.623   4.787
 7052TIP3   OH221119   4.747   2.151   4.758
 7052TIP3    H121120   4.668   2.203   4.768
 7052TIP3    H221121   4.810   2.211   4.718
 7053TIP3   OH221122   3.370   2.492   5.305
 7053TIP3    H121123   3.371   2.517   5.397
 7053TIP3    H221124   3.447   2.436   5.295
 7054TIP3   OH221125   5.171   2.592   0.285
 7054TIP3    H121126   5.114   2.644   0.229
 7054TIP3    H221127   5.162   2.632   0.372
 7055TIP3   OH221128   0.611   3.193   1.480
 7055TIP3    H121129   0.634   3.241   1.401
 7055TIP3    H221130   0.515   3.188   1.478
 7056TIP3   OH221131   3.878   5.006   5.267
 7056TIP3    H121132   3.803   5.060   5.242
 7056TIP3    H221133   3.940   5.016   5.194
 7057TIP3   OH221134   3.908   4.208   2.165
 7057TIP3    H121135   3.889   4.234   2.255
 7057TIP3    H221136   3.867   4.275   2.111
 7058TIP3   OH221137   2.594   5.487   3.383
 7058TIP3    H121138   2.602   5.392   3.378
 7058TIP3    H221139   2.546   5.512   3.304
 7059TIP3   OH221140   4.304   2.920   4.462
 7059TIP3    H121141   4.208   2.916   4.456
 7059TIP3    H221142   4.332   2.957   4.378
 7060TIP3   OH221143   6.125   6.756   0.770
 7060TIP3    H121144   6.075   6.828   0.809
 7060TIP3    H221145   6.104   6.760   0.677
 7061TIP3   OH221146   3.272   2.157   0.138
 7061TIP3    H121147   3.281   2.252   0.150
 7061TIP3    H221148   3.356   2.121   0.165
 7062TIP3   OH221149   7.208   1.801   5.874
 7062TIP3    H121150   7.131   1.831   5.826
 7062TIP3    H221151   7.239   1.724   5.825
 7063TIP3   OH221152   6.982   0.511   5.636
 7063TIP3    H121153   6.977   0.456   5.558
 7063TIP3    H221154   7.056   0.570   5.618
 7064TIP3   OH221155   6.876   1.283   0.572
 7064TIP3    H121156   6.814   1.214   0.550
 7064TIP3    H221157   6.821   1.355   0.604
 7065TIP3   OH221158   5.973   2.221   0.563
 7065TIP3    H121159   5.974   2.300   0.617
 7065TIP3    H221160   5.917   2.244   0.489
 7066TIP3   OH221161   4.622   6.212   3.098
 7066TIP3    H121162   4.614   6.257   3.182
 7066TIP3    H221163   4.654   6.279   3.038
 7067TIP3   OH221164   0.906   6.727   2.333
 7067TIP3    H121165   0.820   6.687   2.340
 7067TIP3    H221166   0.968   6.655   2.341
 7068TIP3   OH221167   0.821   2.821   1.047
 7068TIP3    H121168   0.782   2.866   0.972
 7068TIP3    H221169   0.915   2.824   1.031
 7069TIP3   OH221170   3.492   4.923   5.354
 7069TIP3    H121171   3.534   5.008   5.367
 7069TIP3    H221172   3.400   4.939   5.374
 7070TIP3   OH221173   4.272   0.381   2.502
 7070TIP3    H121174   4.349   0.326   2.489
 7070TIP3    H221175   4.306   0.459   2.547
 7071TIP3   OH221176   6.909   2.903   4.155
 7071TIP3    H121177   6.858   2.962   4.211
 7071TIP3    H221178   6.974   2.961   4.114
 7072TIP3   OH221179   4.178   2.203   1.613
 7072TIP3    H121180   4.185   2.112   1.642
 7072TIP3    H221181   4.269   2.230   1.597
 7073TIP3   OH221182   6.129   0.406   3.398
 7073TIP3    H121183   6.067   0.476   3.379
 7073TIP3    H221184   6.074   0.329   3.414
 7074TIP3   OH221185   1.279   0.836   3.215
 7074TIP3    H121186   1.347   0.878   3.163
 7074TIP3    H221187   1.216   0.804   3.149
 7075TIP3   OH221188   2.471   3.105   3.053
 7075TIP3    H121189   2.432   3.161   3.119
 7075TIP3    H221190   2.562   3.135   3.046
 7076TIP3   OH221191   3.198   1.538   4.971
 7076TIP3    H121192   3.107   1.544   5.001
 7076TIP3    H221193   3.250   1.536   5.051
 7077TIP3   OH221194   5.529   6.720   1.894
 7077TIP3    H121195   5.608   6.699   1.843
 7077TIP3    H221196   5.494   6.635   1.920
 7078TIP3   OH221197   6.107   6.495   1.564
 7078TIP3    H121198   6.074   6.519   1.650
 7078TIP3    H221199   6.028   6.484   1.511
 7079TIP3   OH221200   4.638   2.990   5.927
 7079TIP3    H121201   4.675   2.981   5.839
 7079TIP3    H221202   4.544   3.001   5.912
 7080TIP3   OH221203   1.392   4.243   0.940
 7080TIP3    H121204   1.346   4.279   0.864
 7080TIP3    H221205   1.338   4.170   0.968
 7081TIP3   OH221206   6.388   2.464   5.753
 7081TIP3    H121207   6.378   2.557   5.734
 7081TIP3    H221208   6.474   2.457   5.794
 7082TIP3   OH221209   3.971   1.795   0.956
 7082TIP3    H121210   4.001   1.775   0.867
 7082TIP3    H221211   4.004   1.723   1.010
 7083TIP3   OH221212   6.949   3.015   3.831
 7083TIP3    H121213   6.911   3.078   3.892
 7083TIP3    H221214   7.039   3.003   3.862
 7084TIP3   OH221215   6.537   3.450   0.405
 7084TIP3    H121216   6.599   3.403   0.461
 7084TIP3    H221217   6.529   3.536   0.446
 7085TIP3   OH221218   5.303   2.173   4.155
 7085TIP3    H121219   5.315   2.267   4.141
 7085TIP3    H221220   5.372   2.131   4.103
 7086TIP3   OH221221   6.830   3.842   3.617
 7086TIP3    H121222   6.853   3.835   3.709
 7086TIP3    H221223   6.779   3.763   3.599
 7087TIP3   OH221224   5.291   3.556   2.680
 7087TIP3    H121225   5.290   3.490   2.749
 7087TIP3    H221226   5.368   3.610   2.701
 7088TIP3   OH221227   0.405   0.953   2.958
 7088TIP3    H121228   0.337   1.018   2.977
 7088TIP3    H221229   0.403   0.894   3.034
 7089TIP3   OH221230   1.075   3.702   3.895
 7089TIP3    H121231   1.019   3.712   3.818
 7089TIP3    H221232   1.164   3.713   3.861
 7090TIP3   OH221233   2.610   6.364   4.281
 7090TIP3    H121234   2.618   6.342   4.188
 7090TIP3    H221235   2.699   6.385   4.308
 7091TIP3   OH221236   3.480   2.533   0.862
 7091TIP3    H121237   3.521   2.602   0.809
 7091TIP3    H221238   3.418   2.580   0.918
 7092TIP3   OH221239   6.477   6.673   2.045
 7092TIP3    H121240   6.420   6.618   1.992
 7092TIP3    H221241   6.561   6.628   2.045
 7093TIP3   OH221242   6.112   6.293   3.832
 7093TIP3    H121243   6.022   6.261   3.828
 7093TIP3    H221244   6.108   6.371   3.887
 7094TIP3   OH221245   2.101   4.419   4.843
 7094TIP3    H121246   2.087   4.505   4.803
 7094TIP3    H221247   2.142   4.367   4.773
 7095TIP3   OH221248   2.960   6.675   3.316
 7095TIP3    H121249   3.045   6.640   3.290
 7095TIP3    H221250   2.926   6.717   3.237
 7096TIP3   OH221251   3.023   2.585   1.091
 7096TIP3    H121252   3.103   2.540   1.117
 7096TIP3    H221253   3.016   2.657   1.153
 7097TIP3   OH221254   0.352   0.445   4.385
 7097TIP3    H121255   0.333   0.447   4.291
 7097TIP3    H221256   0.300   0.517   4.422
 7098TIP3   OH221257   5.082   4.597   4.168
 7098TIP3    H121258   5.151   4.564   4.225
 7098TIP3    H221259   5.071   4.688   4.194
 7099TIP3   OH221260   2.347   1.565   3.153
 7099TIP3    H121261   2.309   1.487   3.192
 7099TIP3    H221262   2.280   1.632   3.163
 7100TIP3   OH221263   3.590   5.017   2.319
 7100TIP3    H121264   3.534   5.070   2.262
 7100TIP3    H221265   3.657   5.077   2.350
 7101TIP3   OH221266   6.648   5.811   1.312
 7101TIP3    H121267   6.579   5.870   1.341
 7101TIP3    H221268   6.609   5.763   1.238
 7102TIP3   OH221269   5.066   1.182   1.596
 7102TIP3    H121270   4.973   1.162   1.612
 7102TIP3    H221271   5.067   1.218   1.507
 7103TIP3   OH221272   0.445   6.296   3.095
 7103TIP3    H121273   0.525   6.329   3.137
 7103TIP3    H221274   0.460   6.310   3.002
 7104TIP3   OH221275   0.381   6.101   2.458
 7104TIP3    H121276   0.334   6.159   2.518
 7104TIP3    H221277   0.377   6.015   2.501
 7105TIP3   OH221278   3.327   4.098   1.045
 7105TIP3    H121279   3.375   4.135   0.971
 7105TIP3    H221280   3.369   4.014   1.061
 7106TIP3   OH221281   6.913   0.100   1.059
 7106TIP3    H121282   6.915   0.107   1.155
 7106TIP3    H221283   7.004   0.088   1.034
 7107TIP3   OH221284   0.253   0.744   0.565
 7107TIP3    H121285   0.245   0.666   0.510
 7107TIP3    H221286   0.346   0.748   0.587
 7108TIP3   OH221287   0.968   0.827   2.327
 7108TIP3    H121288   0.905   0.790   2.389
 7108TIP3    H221289   0.965   0.768   2.252
 7109TIP3   OH221290   3.729   3.193   1.190
 7109TIP3    H121291   3.663   3.225   1.251
 7109TIP3    H221292   3.726   3.098   1.199
 7110TIP3   OH221293   2.875   0.220   4.824
 7110TIP3    H121294   2.803   0.157   4.825
 7110TIP3    H221295   2.910   0.217   4.913
 7111TIP3   OH221296   5.871   4.404   5.626
 7111TIP3    H121297   5.793   4.375   5.579
 7111TIP3    H221298   5.854   4.496   5.646
 7112TIP3   OH221299   6.408   5.871   2.219
 7112TIP3    H121300   6.469   5.855   2.291
 7112TIP3    H221301   6.402   5.786   2.174
 7113TIP3   OH221302   4.212   0.573   4.136
 7113TIP3    H121303   4.146   0.538   4.197
 7113TIP3    H221304   4.293   0.527   4.160
 7114TIP3   OH221305   6.267   0.753   4.626
 7114TIP3    H121306   6.262   0.739   4.720
 7114TIP3    H221307   6.177   0.772   4.599
 7115TIP3   OH221308   3.521   6.558   1.401
 7115TIP3    H121309   3.458   6.603   1.344
 7115TIP3    H221310   3.480   6.475   1.423
 7116TIP3   OH221311   6.784   3.313   0.834
 7116TIP3    H121312   6.831   3.261   0.768
 7116TIP3    H221313   6.737   3.379   0.784
 7117TIP3   OH221314   2.911   3.257   2.675
 7117TIP3    H121315   2.998   3.235   2.642
 7117TIP3    H221316   2.883   3.179   2.723
 7118TIP3   OH221317   5.782   2.696   4.819
 7118TIP3    H121318   5.850   2.753   4.851
 7118TIP3    H221319   5.805   2.609   4.853
 7119TIP3   OH221320   2.560   4.694   4.369
 7119TIP3    H121321   2.609   4.682   4.287
 7119TIP3    H221322   2.594   4.776   4.405
 7120TIP3   OH221323   2.806   2.662   0.603
 7120TIP3    H121324   2.859   2.724   0.553
 7120TIP3    H221325   2.869   2.600   0.639
 7121TIP3   OH221326   5.764   3.220   3.874
 7121TIP3    H121327   5.766   3.153   3.806
 7121TIP3    H221328   5.685   3.271   3.856
 7122TIP3   OH221329   1.463   4.600   3.366
 7122TIP3    H121330   1.473   4.650   3.285
 7122TIP3    H221331   1.391   4.643   3.412
 7123TIP3   OH221332   4.863   6.182   3.223
 7123TIP3    H121333   4.876   6.277   3.221
 7123TIP3    H221334   4.775   6.169   3.187
 7124TIP3   OH221335   1.361   4.103   5.572
 7124TIP3    H121336   1.271   4.103   5.607
 7124TIP3    H221337   1.395   4.190   5.595
 7125TIP3   OH221338   6.752   0.804   5.424
 7125TIP3    H121339   6.683   0.865   5.400
 7125TIP3    H221340   6.797   0.846   5.497
 7126TIP3   OH221341   5.118   1.955   1.524
 7126TIP3    H121342   5.201   2.000   1.540
 7126TIP3    H221343   5.054   2.025   1.514
 7127TIP3   OH221344   4.844   1.876   2.021
 7127TIP3    H121345   4.895   1.956   2.033
 7127TIP3    H221346   4.754   1.901   2.044
 7128TIP3   OH221347   1.237   3.530   0.972
 7128TIP3    H121348   1.246   3.512   0.879
 7128TIP3    H221349   1.150   3.568   0.981
 7129TIP3   OH221350   4.711   1.160   0.196
 7129TIP3    H121351   4.705   1.248   0.234
 7129TIP3    H221352   4.797   1.128   0.221
 7130TIP3   OH221353   1.626   0.014   5.289
 7130TIP3    H121354   1.665  -0.018   5.208
 7130TIP3    H221355   1.687  -0.012   5.358
 7131TIP3   OH221356   6.386   2.494   1.924
 7131TIP3    H121357   6.473   2.488   1.884
 7131TIP3    H221358   6.362   2.586   1.917
 7132TIP3   OH221359   2.931   6.195   3.456
 7132TIP3    H121360   2.911   6.162   3.368
 7132TIP3    H221361   2.927   6.291   3.446
 7133TIP3   OH221362   4.037   3.890   4.434
 7133TIP3    H121363   3.982   3.874   4.511
 7133TIP3    H221364   3.991   3.846   4.363
 7134TIP3   OH221365   3.198   3.325   0.265
 7134TIP3    H121366   3.176   3.344   0.356
 7134TIP3    H221367   3.216   3.410   0.226
 7135TIP3   OH221368   2.101   1.513   5.293
 7135TIP3    H121369   2.011   1.515   5.262
 7135TIP3    H221370   2.136   1.430   5.258
 7136TIP3   OH221371   1.629   2.310   1.496
 7136TIP3    H121372   1.536   2.329   1.492
 7136TIP3    H221373   1.654   2.295   1.404
 7137TIP3   OH221374   2.674   6.445   3.243
 7137TIP3    H121375   2.765   6.416   3.242
 7137TIP3    H221376   2.628   6.377   3.293
 7138TIP3   OH221377   4.346   4.898   2.116
 7138TIP3    H121378   4.263   4.941   2.096
 7138TIP3    H221379   4.386   4.883   2.030
 7139TIP3   OH221380   6.836   1.273   0.914
 7139TIP3    H121381   6.836   1.209   0.985
 7139TIP3    H221382   6.929   1.288   0.896
 7140TIP3   OH221383   3.532   2.094   0.225
 7140TIP3    H121384   3.529   1.999   0.229
 7140TIP3    H221385   3.590   2.120   0.297
 7141TIP3   OH221386   3.554   5.884   2.601
 7141TIP3    H121387   3.602   5.801   2.603
 7141TIP3    H221388   3.466   5.861   2.572
 7142TIP3   OH221389   2.198   3.166   5.021
 7142TIP3    H121390   2.135   3.155   4.950
 7142TIP3    H221391   2.253   3.088   5.017
 7143TIP3   OH221392   1.624   5.660   1.603
 7143TIP3    H121393   1.719   5.669   1.595
 7143TIP3    H221394   1.609   5.566   1.608
 7144TIP3   OH221395   2.168   2.444   2.755
 7144TIP3    H121396   2.142   2.395   2.834
 7144TIP3    H221397   2.175   2.535   2.784
 7145TIP3   OH221398   0.496   4.811   4.079
 7145TIP3    H121399   0.427   4.794   4.016
 7145TIP3    H221400   0.469   4.764   4.158
 7146TIP3   OH221401   6.499   6.183   0.577
 7146TIP3    H121402   6.428   6.118   0.580
 7146TIP3    H221403   6.454   6.267   0.579
 7147TIP3   OH221404   4.018   3.198   1.770
 7147TIP3    H121405   4.090   3.229   1.825
 7147TIP3    H221406   4.038   3.232   1.683
 7148TIP3   OH221407   3.158   6.696   2.933
 7148TIP3    H121408   3.250   6.678   2.911
 7148TIP3    H221409   3.124   6.743   2.857
 7149TIP3   OH221410   5.414   3.895   5.735
 7149TIP3    H121411   5.372   3.980   5.724
 7149TIP3    H221412   5.462   3.903   5.818
 7150TIP3   OH221413   3.931   0.115   2.055
 7150TIP3    H121414   3.874   0.163   2.116
 7150TIP3    H221415   3.870   0.064   2.001
 7151TIP3   OH221416   6.635   0.698   1.190
 7151TIP3    H121417   6.705   0.722   1.130
 7151TIP3    H221418   6.555   0.711   1.140
 7152TIP3   OH221419   5.514   5.641   0.988
 7152TIP3    H121420   5.549   5.728   1.006
 7152TIP3    H221421   5.432   5.637   1.037
 7153TIP3   OH221422   4.116   5.366   2.131
 7153TIP3    H121423   4.100   5.285   2.180
 7153TIP3    H221424   4.086   5.436   2.190
 7154TIP3   OH221425   5.490   2.167   3.936
 7154TIP3    H121426   5.573   2.214   3.928
 7154TIP3    H221427   5.423   2.235   3.939
 7155TIP3   OH221428   1.607   0.026   0.790
 7155TIP3    H121429   1.695   0.064   0.796
 7155TIP3    H221430   1.556   0.072   0.857
 7156TIP3   OH221431   3.486   1.926   4.590
 7156TIP3    H121432   3.559   1.983   4.614
 7156TIP3    H221433   3.407   1.976   4.612
 7157TIP3   OH221434   3.771   6.693   4.104
 7157TIP3    H121435   3.699   6.718   4.163
 7157TIP3    H221436   3.730   6.636   4.040
 7158TIP3   OH221437   0.031   3.763   2.715
 7158TIP3    H121438  -0.055   3.728   2.739
 7158TIP3    H221439   0.027   3.855   2.742
 7159TIP3   OH221440   4.751   5.028   0.748
 7159TIP3    H121441   4.708   4.975   0.815
 7159TIP3    H221442   4.838   5.045   0.783
 7160TIP3   OH221443   1.140   6.431   1.990
 7160TIP3    H121444   1.173   6.443   2.080
 7160TIP3    H221445   1.088   6.351   1.994
 7161TIP3   OH221446   3.643   5.905   4.048
 7161TIP3    H121447   3.630   5.934   4.138
 7161TIP3    H221448   3.737   5.888   4.042
 7162TIP3   OH221449   6.303   5.770   4.323
 7162TIP3    H121450   6.353   5.835   4.372
 7162TIP3    H221451   6.253   5.723   4.389
 7163TIP3   OH221452   4.152   2.531   2.631
 7163TIP3    H121453   4.142   2.449   2.582
 7163TIP3    H221454   4.120   2.598   2.571
 7164TIP3   OH221455   0.343   2.340   2.532
 7164TIP3    H121456   0.305   2.253   2.524
 7164TIP3    H221457   0.370   2.363   2.443
 7165TIP3   OH221458   2.467   2.945   1.971
 7165TIP3    H121459   2.375   2.965   1.989
 7165TIP3    H221460   2.464   2.882   1.899
 7166TIP3   OH221461   0.920   2.491   3.419
 7166TIP3    H121462   0.871   2.420   3.460
 7166TIP3    H221463   0.921   2.469   3.326
 7167TIP3   OH221464   2.529   6.458   4.979
 7167TIP3    H121465   2.443   6.499   4.965
 7167TIP3    H221466   2.592   6.523   4.949
 7168TIP3   OH221467   6.594   6.118   1.284
 7168TIP3    H121468   6.672   6.094   1.335
 7168TIP3    H221469   6.525   6.128   1.350
 7169TIP3   OH221470   6.348   3.088   1.322
 7169TIP3    H121471   6.303   3.021   1.270
 7169TIP3    H221472   6.324   3.067   1.412
 7170TIP3   OH221473   5.863   2.386   0.352
 7170TIP3    H121474   5.859   2.449   0.424
 7170TIP3    H221475   5.848   2.437   0.273
 7171TIP3   OH221476   0.237   3.302   3.462
 7171TIP3    H121477   0.181   3.265   3.530
 7171TIP3    H221478   0.177   3.351   3.405
 7172TIP3   OH221479   5.202   2.462   2.364
 7172TIP3    H121480   5.205   2.534   2.426
 7172TIP3    H221481   5.292   2.455   2.331
 7173TIP3   OH221482   1.225   0.329   3.531
 7173TIP3    H121483   1.179   0.267   3.588
 7173TIP3    H221484   1.172   0.409   3.534
 7174TIP3   OH221485   5.255   0.861   5.538
 7174TIP3    H121486   5.316   0.924   5.576
 7174TIP3    H221487   5.290   0.775   5.562
 7175TIP3   OH221488   1.654   5.585   3.628
 7175TIP3    H121489   1.716   5.653   3.654
 7175TIP3    H221490   1.618   5.552   3.710
 7176TIP3   OH221491   1.458   5.012   3.730
 7176TIP3    H121492   1.536   5.033   3.780
 7176TIP3    H221493   1.491   4.989   3.643
 7177TIP3   OH221494   6.207   5.107   5.313
 7177TIP3    H121495   6.192   5.020   5.276
 7177TIP3    H221496   6.125   5.154   5.298
 7178TIP3   OH221497   2.568   6.117   2.330
 7178TIP3    H121498   2.534   6.078   2.250
 7178TIP3    H221499   2.518   6.198   2.341
 7179TIP3   OH221500   4.823   5.529   3.472
 7179TIP3    H121501   4.871   5.585   3.412
 7179TIP3    H221502   4.813   5.581   3.552
 7180TIP3   OH221503   3.971   6.086   4.837
 7180TIP3    H121504   3.941   5.998   4.856
 7180TIP3    H221505   3.996   6.084   4.744
 7181TIP3   OH221506   2.338   0.119   1.951
 7181TIP3    H121507   2.341   0.042   2.008
 7181TIP3    H221508   2.266   0.100   1.890
 7182TIP3   OH221509   2.254   6.022   5.593
 7182TIP3    H121510   2.253   6.071   5.511
 7182TIP3    H221511   2.322   5.955   5.581
 7183TIP3   OH221512   2.467   4.104   0.794
 7183TIP3    H121513   2.389   4.069   0.837
 7183TIP3    H221514   2.437   4.122   0.704
 7184TIP3   OH221515   6.697   2.196   1.043
 7184TIP3    H121516   6.637   2.131   1.079
 7184TIP3    H221517   6.775   2.189   1.097
 7185TIP3   OH221518   4.586   3.364   3.398
 7185TIP3    H121519   4.596   3.398   3.309
 7185TIP3    H221520   4.527   3.427   3.441
 7186TIP3   OH221521   2.971   5.508   1.036
 7186TIP3    H121522   2.922   5.483   0.958
 7186TIP3    H221523   2.928   5.462   1.108
 7187TIP3   OH221524   3.908   0.684   1.554
 7187TIP3    H121525   3.852   0.619   1.512
 7187TIP3    H221526   3.858   0.766   1.547
 7188TIP3   OH221527   0.214   3.661   1.161
 7188TIP3    H121528   0.271   3.644   1.236
 7188TIP3    H221529   0.140   3.710   1.197
 7189TIP3   OH221530   4.225   5.088   3.735
 7189TIP3    H121531   4.317   5.072   3.716
 7189TIP3    H221532   4.219   5.084   3.831
 7190TIP3   OH221533   2.423   2.666   4.007
 7190TIP3    H121534   2.380   2.680   3.922
 7190TIP3    H221535   2.508   2.709   3.998
 7191TIP3   OH221536   6.402   5.362   0.027
 7191TIP3    H121537   6.473   5.382  -0.034
 7191TIP3    H221538   6.443   5.307   0.094
 7192TIP3   OH221539   3.398   3.458   2.608
 7192TIP3    H121540   3.431   3.534   2.654
 7192TIP3    H221541   3.363   3.401   2.677
 7193TIP3   OH221542   1.314   5.596   1.463
 7193TIP3    H121543   1.227   5.635   1.454
 7193TIP3    H221544   1.313   5.556   1.550
 7194TIP3   OH221545   1.744   6.098   1.359
 7194TIP3    H121546   1.839   6.108   1.356
 7194TIP3    H221547   1.711   6.171   1.307
 7195TIP3   OH221548   5.743   2.391   2.011
 7195TIP3    H121549   5.701   2.414   1.928
 7195TIP3    H221550   5.696   2.443   2.076
 7196TIP3   OH221551   4.659   3.075   2.576
 7196TIP3    H121552   4.615   2.990   2.583
 7196TIP3    H221553   4.622   3.115   2.497
 7197TIP3   OH221554   5.380   6.678   2.177
 7197TIP3    H121555   5.459   6.627   2.196
 7197TIP3    H221556   5.391   6.759   2.227
 7198TIP3   OH221557   5.184   1.704   5.471
 7198TIP3    H121558   5.257   1.763   5.490
 7198TIP3    H221559   5.226   1.629   5.428
 7199TIP3   OH221560   6.969   0.721   2.679
 7199TIP3    H121561   6.926   0.782   2.739
 7199TIP3    H221562   7.062   0.740   2.687
 7200TIP3   OH221563   0.768   0.195   3.539
 7200TIP3    H121564   0.811   0.226   3.458
 7200TIP3    H221565   0.681   0.234   3.536
 7201TIP3   OH221566   0.175   4.688   5.131
 7201TIP3    H121567   0.108   4.633   5.092
 7201TIP3    H221568   0.245   4.691   5.066
 7202TIP3   OH221569   4.774   2.886   5.333
 7202TIP3    H121570   4.758   2.980   5.342
 7202TIP3    H221571   4.864   2.880   5.302
 7203TIP3   OH221572   1.484   6.308   4.471
 7203TIP3    H121573   1.452   6.399   4.475
 7203TIP3    H221574   1.491   6.281   4.563
 7204TIP3   OH221575   1.021   0.134   5.416
 7204TIP3    H121576   0.939   0.108   5.374
 7204TIP3    H221577   1.088   0.126   5.348
 7205TIP3   OH221578   2.956   1.070   1.268
 7205TIP3    H121579   2.956   1.152   1.219
 7205TIP3    H221580   2.891   1.016   1.224
 7206TIP3   OH221581   4.504   6.400   4.208
 7206TIP3    H121582   4.476   6.491   4.212
 7206TIP3    H221583   4.440   6.357   4.151
 7207TIP3   OH221584   3.452   4.067   2.502
 7207TIP3    H121585   3.474   3.979   2.471
 7207TIP3    H221586   3.439   4.118   2.422
 7208TIP3   OH221587   5.972   2.392   3.834
 7208TIP3    H121588   5.975   2.431   3.747
 7208TIP3    H221589   6.037   2.321   3.831
 7209TIP3   OH221590   3.295   4.356   5.494
 7209TIP3    H121591   3.344   4.372   5.574
 7209TIP3    H221592   3.291   4.442   5.451
 7210TIP3   OH221593   6.327   4.192   2.056
 7210TIP3    H121594   6.384   4.268   2.064
 7210TIP3    H221595   6.364   4.142   1.983
 7211TIP3   OH221596   6.166   2.645   1.788
 7211TIP3    H121597   6.107   2.717   1.812
 7211TIP3    H221598   6.108   2.571   1.774
 7212TIP3   OH221599   2.163   2.265   3.960
 7212TIP3    H121600   2.250   2.306   3.959
 7212TIP3    H221601   2.110   2.325   4.013
 7213TIP3   OH221602   1.643   2.622   2.892
 7213TIP3    H121603   1.637   2.578   2.977
 7213TIP3    H221604   1.553   2.620   2.857
 7214TIP3   OH221605   2.742   0.406   2.459
 7214TIP3    H121606   2.758   0.374   2.370
 7214TIP3    H221607   2.648   0.397   2.472
 7215TIP3   OH221608   1.870   4.704   3.511
 7215TIP3    H121609   1.857   4.614   3.482
 7215TIP3    H221610   1.869   4.756   3.431
 7216TIP3   OH221611   1.426   2.842   5.843
 7216TIP3    H121612   1.382   2.795   5.772
 7216TIP3    H221613   1.489   2.778   5.877
 7217TIP3   OH221614   3.187   1.391   3.674
 7217TIP3    H121615   3.254   1.340   3.719
 7217TIP3    H221616   3.222   1.480   3.671
 7218TIP3   OH221617   2.862   3.458   4.296
 7218TIP3    H121618   2.870   3.387   4.359
 7218TIP3    H221619   2.929   3.522   4.322
 7219TIP3   OH221620   4.400   4.503   1.538
 7219TIP3    H121621   4.307   4.505   1.515
 7219TIP3    H221622   4.438   4.439   1.477
 7220TIP3   OH221623   1.278   1.505   4.010
 7220TIP3    H121624   1.290   1.548   4.095
 7220TIP3    H221625   1.221   1.431   4.028
 7221TIP3   OH221626   1.008   1.097   5.431
 7221TIP3    H121627   1.093   1.121   5.395
 7221TIP3    H221628   0.951   1.088   5.354
 7222TIP3   OH221629   0.559   2.960   2.357
 7222TIP3    H121630   0.580   3.026   2.290
 7222TIP3    H221631   0.637   2.904   2.360
 7223TIP3   OH221632   0.034   1.219   3.574
 7223TIP3    H121633  -0.019   1.258   3.644
 7223TIP3    H221634   0.019   1.125   3.583
 7224TIP3   OH221635   6.269   1.106   1.374
 7224TIP3    H121636   6.297   1.194   1.352
 7224TIP3    H221637   6.186   1.118   1.421
 7225TIP3   OH221638   1.801   0.374   2.963
 7225TIP3    H121639   1.777   0.380   3.056
 7225TIP3    H221640   1.780   0.460   2.927
 7226TIP3   OH221641   5.405   2.185   5.581
 7226TIP3    H121642   5.447   2.248   5.640
 7226TIP3    H221643   5.473   2.165   5.516
 7227TIP3   OH221644   3.367   4.473   0.973
 7227TIP3    H121645   3.277   4.439   0.967
 7227TIP3    H221646   3.366   4.554   0.923
 7228TIP3   OH221647   0.215   4.345   4.203
 7228TIP3    H121648   0.133   4.295   4.199
 7228TIP3    H221649   0.257   4.327   4.119
 7229TIP3   OH221650   4.837   2.040   0.434
 7229TIP3    H121651   4.766   2.102   0.416
 7229TIP3    H221652   4.914   2.080   0.394
 7230TIP3   OH221653   4.763   3.359   5.017
 7230TIP3    H121654   4.684   3.384   5.066
 7230TIP3    H221655   4.740   3.375   4.926
 7231TIP3   OH221656   5.066   1.707   3.997
 7231TIP3    H121657   5.086   1.720   4.090
 7231TIP3    H221658   5.006   1.633   3.995
 7232TIP3   OH221659   3.775   3.833   4.631
 7232TIP3    H121660   3.789   3.746   4.594
 7232TIP3    H221661   3.681   3.836   4.652
 7233TIP3   OH221662   3.945   1.492   5.632
 7233TIP3    H121663   4.011   1.433   5.595
 7233TIP3    H221664   3.861   1.451   5.610
 7234TIP3   OH221665   0.050   5.464   4.002
 7234TIP3    H121666   0.019   5.547   3.965
 7234TIP3    H221667   0.136   5.449   3.962
 7235TIP3   OH221668   4.302   4.451   3.010
 7235TIP3    H121669   4.214   4.415   3.028
 7235TIP3    H221670   4.294   4.544   3.031
 7236TIP3   OH221671   5.821   2.523   0.623
 7236TIP3    H121672   5.789   2.478   0.701
 7236TIP3    H221673   5.804   2.616   0.640
 7237TIP3   OH221674   0.846   0.164   0.399
 7237TIP3    H121675   0.868   0.214   0.478
 7237TIP3    H221676   0.766   0.204   0.367
 7238TIP3   OH221677   3.863   0.404   2.598
 7238TIP3    H121678   3.908   0.407   2.514
 7238TIP3    H221679   3.933   0.410   2.663
 7239TIP3   OH221680   5.601   6.390   1.613
 7239TIP3    H121681   5.618   6.308   1.567
 7239TIP3    H221682   5.511   6.382   1.643
 7240TIP3   OH221683   4.968   4.539   4.758
 7240TIP3    H121684   4.922   4.468   4.801
 7240TIP3    H221685   4.948   4.528   4.665
 7241TIP3   OH221686   6.195   4.896   4.173
 7241TIP3    H121687   6.132   4.865   4.239
 7241TIP3    H221688   6.140   4.931   4.103
 7242TIP3   OH221689   7.038   6.042   0.759
 7242TIP3    H121690   6.988   5.970   0.721
 7242TIP3    H221691   6.981   6.118   0.750
 7243TIP3   OH221692   3.190   0.991   0.473
 7243TIP3    H121693   3.202   0.967   0.382
 7243TIP3    H221694   3.182   0.908   0.519
 7244TIP3   OH221695   4.388   6.101   0.448
 7244TIP3    H121696   4.386   6.195   0.433
 7244TIP3    H221697   4.366   6.090   0.540
 7245TIP3   OH221698   5.386   4.899   1.882
 7245TIP3    H121699   5.317   4.919   1.946
 7245TIP3    H221700   5.404   4.806   1.895
 7246TIP3   OH221701   6.804   0.907   0.343
 7246TIP3    H121702   6.851   0.972   0.291
 7246TIP3    H221703   6.744   0.958   0.398
 7247TIP3   OH221704   6.541   6.434   1.604
 7247TIP3    H121705   6.598   6.467   1.534
 7247TIP3    H221706   6.568   6.343   1.616
 7248TIP3   OH221707   0.991   3.301   0.938
 7248TIP3    H121708   0.990   3.255   1.022
 7248TIP3    H221709   1.082   3.297   0.909
 7249TIP3   OH221710   6.140   5.331   5.838
 7249TIP3    H121711   6.109   5.302   5.923
 7249TIP3    H221712   6.235   5.342   5.849
 7250TIP3   OH221713   2.217   6.778   0.081
 7250TIP3    H121714   2.173   6.847   0.031
 7250TIP3    H221715   2.236   6.710   0.016
 7251TIP3   OH221716   1.271   3.935   1.372
 7251TIP3    H121717   1.247   3.950   1.463
 7251TIP3    H221718   1.246   4.017   1.327
 7252TIP3   OH221719   1.148   0.681   4.004
 7252TIP3    H121720   1.107   0.673   3.918
 7252TIP3    H221721   1.209   0.607   4.009
 7253TIP3   OH221722   2.115   0.869   5.206
 7253TIP3    H121723   2.209   0.854   5.190
 7253TIP3    H221724   2.098   0.824   5.289
 7254TIP3   OH221725   1.926   3.565   1.984
 7254TIP3    H121726   1.933   3.564   1.888
 7254TIP3    H221727   2.010   3.531   2.014
 7255TIP3   OH221728   2.238   3.931   0.807
 7255TIP3    H121729   2.179   3.931   0.882
 7255TIP3    H221730   2.272   3.842   0.803
 7256TIP3   OH221731   3.909   1.343   0.773
 7256TIP3    H121732   3.841   1.342   0.706
 7256TIP3    H221733   3.885   1.415   0.831
 7257TIP3   OH221734   2.206   0.025   4.261
 7257TIP3    H121735   2.251   0.036   4.177
 7257TIP3    H221736   2.157  -0.057   4.252
 7258TIP3   OH221737   1.461   1.078   0.110
 7258TIP3    H121738   1.461   1.016   0.037
 7258TIP3    H221739   1.377   1.124   0.102
 7259TIP3   OH221740   5.631   1.224   5.068
 7259TIP3    H121741   5.604   1.314   5.082
 7259TIP3    H221742   5.721   1.221   5.102
 7260TIP3   OH221743   1.927   3.238   1.154
 7260TIP3    H121744   1.913   3.222   1.247
 7260TIP3    H221745   2.016   3.273   1.149
 7261TIP3   OH221746   1.367   2.773   2.240
 7261TIP3    H121747   1.452   2.814   2.256
 7261TIP3    H221748   1.306   2.824   2.292
 7262TIP3   OH221749   1.507   3.821   3.645
 7262TIP3    H121750   1.529   3.865   3.563
 7262TIP3    H221751   1.462   3.888   3.697
 7263TIP3   OH221752   2.972   5.168   3.664
 7263TIP3    H121753   3.050   5.206   3.704
 7263TIP3    H221754   2.901   5.227   3.690
 7264TIP3   OH221755   1.941   3.745   3.623
 7264TIP3    H121756   1.928   3.836   3.594
 7264TIP3    H221757   1.958   3.696   3.543
 7265TIP3   OH221758   0.606   1.967   1.716
 7265TIP3    H121759   0.600   2.056   1.750
 7265TIP3    H221760   0.528   1.923   1.749
 7266TIP3   OH221761   3.499   0.134   0.388
 7266TIP3    H121762   3.503   0.147   0.293
 7266TIP3    H221763   3.504   0.223   0.424
 7267TIP3   OH221764   0.925   0.257   5.135
 7267TIP3    H121765   0.992   0.303   5.187
 7267TIP3    H221766   0.959   0.168   5.126
 7268TIP3   OH221767   4.269   0.284   3.623
 7268TIP3    H121768   4.188   0.233   3.612
 7268TIP3    H221769   4.288   0.278   3.717
 7269TIP3   OH221770   5.895   1.733   3.641
 7269TIP3    H121771   5.934   1.704   3.724
 7269TIP3    H221772   5.937   1.817   3.624
 7270TIP3   OH221773   2.278   3.879   1.934
 7270TIP3    H121774   2.194   3.882   1.980
 7270TIP3    H221775   2.343   3.866   2.004
 7271TIP3   OH221776   6.834   5.805   1.750
 7271TIP3    H121777   6.900   5.747   1.710
 7271TIP3    H221778   6.832   5.882   1.693
 7272TIP3   OH221779   5.243   6.428   0.167
 7272TIP3    H121780   5.211   6.388   0.249
 7272TIP3    H221781   5.178   6.495   0.146
 7273TIP3   OH221782   3.151   2.355   2.471
 7273TIP3    H121783   3.137   2.380   2.380
 7273TIP3    H221784   3.064   2.340   2.506
 7274TIP3   OH221785   6.219   4.484   0.146
 7274TIP3    H121786   6.209   4.566   0.194
 7274TIP3    H221787   6.310   4.458   0.161
 7275TIP3   OH221788   1.076   5.828   0.722
 7275TIP3    H121789   0.986   5.797   0.717
 7275TIP3    H221790   1.090   5.875   0.639
 7276TIP3   OH221791   2.443   5.415   5.389
 7276TIP3    H121792   2.378   5.470   5.346
 7276TIP3    H221793   2.526   5.462   5.378
 7277TIP3   OH221794   3.128   0.680   2.264
 7277TIP3    H121795   3.163   0.743   2.327
 7277TIP3    H221796   3.138   0.595   2.308
 7278TIP3   OH221797   6.548   3.452   0.779
 7278TIP3    H121798   6.483   3.382   0.793
 7278TIP3    H221799   6.533   3.513   0.851
 7279TIP3   OH221800   3.827   1.677   2.685
 7279TIP3    H121801   3.769   1.721   2.623
 7279TIP3    H221802   3.889   1.745   2.711
 7280TIP3   OH221803   1.474   1.987   1.630
 7280TIP3    H121804   1.423   2.064   1.655
 7280TIP3    H221805   1.467   1.928   1.705
 7281TIP3   OH221806   0.244   2.628   3.649
 7281TIP3    H121807   0.194   2.547   3.650
 7281TIP3    H221808   0.325   2.608   3.695
 7282TIP3   OH221809   2.234   3.614   5.877
 7282TIP3    H121810   2.284   3.689   5.846
 7282TIP3    H221811   2.293   3.539   5.865
 7283TIP3   OH221812   3.879   4.701   0.530
 7283TIP3    H121813   3.961   4.738   0.564
 7283TIP3    H221814   3.891   4.607   0.536
 7284TIP3   OH221815   4.420   4.337   3.802
 7284TIP3    H121816   4.341   4.360   3.753
 7284TIP3    H221817   4.490   4.388   3.760
 7285TIP3   OH221818   5.399   1.359   1.451
 7285TIP3    H121819   5.445   1.383   1.532
 7285TIP3    H221820   5.389   1.264   1.457
 7286TIP3   OH221821   1.669   2.619   4.738
 7286TIP3    H121822   1.608   2.676   4.785
 7286TIP3    H221823   1.623   2.536   4.729
 7287TIP3   OH221824   1.691   2.638   1.286
 7287TIP3    H121825   1.707   2.638   1.192
 7287TIP3    H221826   1.737   2.561   1.318
 7288TIP3   OH221827   3.821   4.968   3.472
 7288TIP3    H121828   3.896   5.010   3.516
 7288TIP3    H221829   3.753   5.036   3.472
 7289TIP3   OH221830   3.613   3.270   5.155
 7289TIP3    H121831   3.680   3.285   5.221
 7289TIP3    H221832   3.640   3.325   5.081
 7290TIP3   OH221833   7.098   5.598   0.172
 7290TIP3    H121834   7.178   5.615   0.121
 7290TIP3    H221835   7.122   5.525   0.229
 7291TIP3   OH221836   1.434   3.858   1.932
 7291TIP3    H121837   1.464   3.932   1.879
 7291TIP3    H221838   1.470   3.781   1.888
 7292TIP3   OH221839   1.954   5.116   1.761
 7292TIP3    H121840   1.936   5.107   1.667
 7292TIP3    H221841   1.867   5.111   1.802
 7293TIP3   OH221842   3.870   1.657   3.844
 7293TIP3    H121843   3.789   1.659   3.895
 7293TIP3    H221844   3.873   1.569   3.807
 7294TIP3   OH221845   1.034   3.892   4.136
 7294TIP3    H121846   1.061   3.893   4.228
 7294TIP3    H221847   1.104   3.844   4.092
 7295TIP3   OH221848   4.578   5.543   3.148
 7295TIP3    H121849   4.591   5.453   3.179
 7295TIP3    H221850   4.664   5.571   3.118
 7296TIP3   OH221851   1.715   1.154   0.058
 7296TIP3    H121852   1.775   1.081   0.041
 7296TIP3    H221853   1.634   1.113   0.085
 7297TIP3   OH221854  -0.034   1.259   2.494
 7297TIP3    H121855   0.044   1.213   2.465
 7297TIP3    H221856  -0.092   1.258   2.417
 7298TIP3   OH221857   2.986   3.778   2.684
 7298TIP3    H121858   2.952   3.843   2.744
 7298TIP3    H221859   2.970   3.694   2.727
 7299TIP3   OH221860   5.490   2.098   0.832
 7299TIP3    H121861   5.465   2.112   0.924
 7299TIP3    H221862   5.547   2.021   0.834
 7300TIP3   OH221863   5.348   2.468   3.181
 7300TIP3    H121864   5.426   2.464   3.126
 7300TIP3    H221865   5.291   2.531   3.136
 7301TIP3   OH221866   1.359   2.348   1.420
 7301TIP3    H121867   1.267   2.365   1.397
 7301TIP3    H221868   1.354   2.297   1.501
 7302TIP3   OH221869   0.541   3.592   3.923
 7302TIP3    H121870   0.509   3.671   3.967
 7302TIP3    H221871   0.559   3.621   3.833
 7303TIP3   OH221872   2.790   0.619   1.278
 7303TIP3    H121873   2.703   0.590   1.306
 7303TIP3    H221874   2.850   0.554   1.314
 7304TIP3   OH221875   1.158   4.706   0.723
 7304TIP3    H121876   1.072   4.744   0.706
 7304TIP3    H221877   1.211   4.780   0.753
 7305TIP3   OH221878   0.287   5.110   3.751
 7305TIP3    H121879   0.253   5.167   3.820
 7305TIP3    H221880   0.208   5.078   3.707
 7306TIP3   OH221881   3.230   2.524   2.012
 7306TIP3    H121882   3.296   2.489   2.072
 7306TIP3    H221883   3.277   2.588   1.959
 7307TIP3   OH221884   4.796   1.366   5.187
 7307TIP3    H121885   4.777   1.282   5.145
 7307TIP3    H221886   4.863   1.406   5.131
 7308TIP3   OH221887   0.788   0.736   2.933
 7308TIP3    H121888   0.757   0.825   2.915
 7308TIP3    H221889   0.777   0.690   2.849
 7309TIP3   OH221890   3.936   5.317   5.113
 7309TIP3    H121891   3.908   5.392   5.166
 7309TIP3    H221892   3.862   5.257   5.116
 7310TIP3   OH221893   4.643   0.350   2.047
 7310TIP3    H121894   4.576   0.311   1.990
 7310TIP3    H221895   4.688   0.413   1.992
 7311TIP3   OH221896   2.152   3.387   1.837
 7311TIP3    H121897   2.169   3.419   1.748
 7311TIP3    H221898   2.137   3.293   1.826
 7312TIP3   OH221899   1.718   1.426   3.979
 7312TIP3    H121900   1.703   1.516   3.950
 7312TIP3    H221901   1.663   1.415   4.056
 7313TIP3   OH221902   3.983   2.246   5.255
 7313TIP3    H121903   4.066   2.284   5.227
 7313TIP3    H221904   3.918   2.312   5.233
 7314TIP3   OH221905   3.563   3.590   5.816
 7314TIP3    H121906   3.620   3.591   5.893
 7314TIP3    H221907   3.597   3.520   5.761
 7315TIP3   OH221908   2.347   1.995   4.692
 7315TIP3    H121909   2.341   1.911   4.738
 7315TIP3    H221910   2.267   2.041   4.716
 7316TIP3   OH221911   1.698   1.129   3.227
 7316TIP3    H121912   1.672   1.151   3.317
 7316TIP3    H221913   1.756   1.054   3.237
 7317TIP3   OH221914   4.033   5.897   4.599
 7317TIP3    H121915   4.087   5.902   4.520
 7317TIP3    H221916   4.073   5.828   4.651
 7318TIP3   OH221917   6.368   2.745   1.386
 7318TIP3    H121918   6.384   2.660   1.426
 7318TIP3    H221919   6.375   2.807   1.458
 7319TIP3   OH221920   4.491   2.693   1.614
 7319TIP3    H121921   4.508   2.659   1.702
 7319TIP3    H221922   4.564   2.752   1.597
 7320TIP3   OH221923   5.071   4.385   1.634
 7320TIP3    H121924   5.097   4.476   1.617
 7320TIP3    H221925   5.040   4.386   1.725
 7321TIP3   OH221926   5.375   3.508   2.419
 7321TIP3    H121927   5.293   3.472   2.386
 7321TIP3    H221928   5.352   3.547   2.504
 7322TIP3   OH221929   0.077   2.234   5.512
 7322TIP3    H121930   0.158   2.284   5.515
 7322TIP3    H221931   0.095   2.156   5.564
 7323TIP3   OH221932   4.607   5.379   3.389
 7323TIP3    H121933   4.572   5.398   3.476
 7323TIP3    H221934   4.665   5.453   3.370
 7324TIP3   OH221935   7.074   0.050   3.526
 7324TIP3    H121936   7.011   0.094   3.470
 7324TIP3    H221937   7.021   0.012   3.596
 7325TIP3   OH221938   5.159   5.700   2.579
 7325TIP3    H121939   5.085   5.709   2.640
 7325TIP3    H221940   5.124   5.648   2.507
 7326TIP3   OH221941   0.999   2.818   0.413
 7326TIP3    H121942   0.908   2.849   0.409
 7326TIP3    H221943   1.046   2.886   0.460
 7327TIP3   OH221944   4.882   0.897   0.468
 7327TIP3    H121945   4.951   0.889   0.534
 7327TIP3    H221946   4.927   0.930   0.390
 7328TIP3   OH221947   0.260   6.433   5.315
 7328TIP3    H121948   0.214   6.364   5.266
 7328TIP3    H221949   0.335   6.388   5.354
 7329TIP3   OH221950   2.099   3.290   3.373
 7329TIP3    H121951   2.059   3.205   3.352
 7329TIP3    H221952   2.120   3.329   3.289
 7330TIP3   OH221953   6.247   1.513   2.936
 7330TIP3    H121954   6.257   1.459   3.015
 7330TIP3    H221955   6.241   1.602   2.970
 7331TIP3   OH221956   0.387   0.961   5.668
 7331TIP3    H121957   0.345   0.923   5.591
 7331TIP3    H221958   0.334   1.037   5.689
 7332TIP3   OH221959   0.625   1.064   0.317
 7332TIP3    H121960   0.568   1.133   0.284
 7332TIP3    H221961   0.711   1.106   0.326
 7333TIP3   OH221962   2.538   4.290   1.860
 7333TIP3    H121963   2.562   4.322   1.947
 7333TIP3    H221964   2.620   4.292   1.811
 7334TIP3   OH221965   3.484   2.683   2.596
 7334TIP3    H121966   3.521   2.608   2.644
 7334TIP3    H221967   3.554   2.711   2.538
 7335TIP3   OH221968   3.457   0.795   0.799
 7335TIP3    H121969   3.372   0.797   0.754
 7335TIP3    H221970   3.491   0.884   0.790
 7336TIP3   OH221971   2.924   6.152   1.618
 7336TIP3    H121972   2.926   6.121   1.528
 7336TIP3    H221973   2.857   6.098   1.661
 7337TIP3   OH221974   4.434   5.491   3.561
 7337TIP3    H121975   4.456   5.575   3.521
 7337TIP3    H221976   4.354   5.463   3.516
 7338TIP3   OH221977   5.170   6.745   1.523
 7338TIP3    H121978   5.165   6.660   1.568
 7338TIP3    H221979   5.230   6.796   1.577
 7339TIP3   OH221980   1.470   0.123   1.032
 7339TIP3    H121981   1.500   0.102   1.120
 7339TIP3    H221982   1.383   0.161   1.044
 7340TIP3   OH221983   6.107   0.586   2.093
 7340TIP3    H121984   6.140   0.663   2.048
 7340TIP3    H221985   6.080   0.527   2.023
 7341TIP3   OH221986   6.421   4.370   4.204
 7341TIP3    H121987   6.412   4.331   4.117
 7341TIP3    H221988   6.333   4.399   4.227
 7342TIP3   OH221989   5.542   6.600   0.940
 7342TIP3    H121990   5.563   6.507   0.934
 7342TIP3    H221991   5.581   6.638   0.862
 7343TIP3   OH221992   2.979   2.455   0.367
 7343TIP3    H121993   2.986   2.477   0.460
 7343TIP3    H221994   2.914   2.385   0.363
 7344TIP3   OH221995   0.661   1.446   0.483
 7344TIP3    H121996   0.597   1.506   0.445
 7344TIP3    H221997   0.609   1.375   0.520
 7345TIP3   OH221998   0.371   5.348   3.181
 7345TIP3    H121999   0.409   5.350   3.094
 7345TIP3    H222000   0.446   5.339   3.240
 7346TIP3   OH222001   1.113   1.980   3.007
 7346TIP3    H122002   1.143   1.910   2.950
 7346TIP3    H222003   1.191   2.035   3.021
 7347TIP3   OH222004   2.088   2.499   1.525
 7347TIP3    H122005   2.060   2.590   1.534
 7347TIP3    H222006   2.036   2.465   1.453
 7348TIP3   OH222007   6.905   0.464   2.695
 7348TIP3    H122008   6.992   0.439   2.726
 7348TIP3    H222009   6.905   0.560   2.697
 7349TIP3   OH222010   3.251   2.006   2.657
 7349TIP3    H122011   3.173   1.951   2.655
 7349TIP3    H222012   3.299   1.983   2.577
 7350TIP3   OH222013   1.552   2.335   2.137
 7350TIP3    H122014   1.562   2.262   2.076
 7350TIP3    H222015   1.621   2.396   2.112
 7351TIP3   OH222016   1.573   1.987   2.396
 7351TIP3    H122017   1.569   1.946   2.482
 7351TIP3    H222018   1.666   2.004   2.382
 7352TIP3   OH222019   1.650   6.652   1.472
 7352TIP3    H122020   1.557   6.639   1.453
 7352TIP3    H222021   1.656   6.644   1.567
 7353TIP3   OH222022   4.450   5.805   5.782
 7353TIP3    H122023   4.407   5.890   5.794
 7353TIP3    H222024   4.379   5.744   5.763
 7354TIP3   OH222025   5.093   0.799   3.263
 7354TIP3    H122026   5.057   0.866   3.205
 7354TIP3    H222027   5.068   0.828   3.351
 7355TIP3   OH222028   0.243   3.405   0.962
 7355TIP3    H122029   0.272   3.356   1.039
 7355TIP3    H222030   0.215   3.490   0.997
 7356TIP3   OH222031   5.902   0.395   1.928
 7356TIP3    H122032   5.859   0.359   1.850
 7356TIP3    H222033   5.982   0.344   1.937
 7357TIP3   OH222034   4.886   2.519   5.846
 7357TIP3    H122035   4.926   2.465   5.778
 7357TIP3    H222036   4.895   2.467   5.926
 7358TIP3   OH222037   1.057   1.176   1.614
 7358TIP3    H122038   1.150   1.161   1.599
 7358TIP3    H222039   1.030   1.106   1.673
 7359TIP3   OH222040   5.545   2.942   2.845
 7359TIP3    H122041   5.493   3.021   2.858
 7359TIP3    H222042   5.596   2.959   2.766
 7360TIP3   OH222043   5.716   6.387   2.018
 7360TIP3    H122044   5.749   6.326   1.951
 7360TIP3    H222045   5.783   6.386   2.086
 7361TIP3   OH222046   3.374   4.525   4.953
 7361TIP3    H122047   3.427   4.465   4.901
 7361TIP3    H222048   3.437   4.590   4.985
 7362TIP3   OH222049   1.638   1.844   1.176
 7362TIP3    H122050   1.609   1.899   1.104
 7362TIP3    H222051   1.663   1.761   1.134
 7363TIP3   OH222052   1.817   5.455   5.324
 7363TIP3    H122053   1.795   5.475   5.415
 7363TIP3    H222054   1.858   5.535   5.291
 7364TIP3   OH222055   2.762   2.521   1.737
 7364TIP3    H122056   2.782   2.557   1.651
 7364TIP3    H222057   2.835   2.547   1.793
 7365TIP3   OH222058   0.414   3.801   4.740
 7365TIP3    H122059   0.379   3.838   4.659
 7365TIP3    H222060   0.337   3.786   4.795
 7366TIP3   OH222061   1.657   0.171   0.456
 7366TIP3    H122062   1.745   0.180   0.494
 7366TIP3    H222063   1.598   0.203   0.524
 7367TIP3   OH222064   6.684   0.661   2.262
 7367TIP3    H122065   6.607   0.718   2.264
 7367TIP3    H222066   6.693   0.629   2.352
 7368TIP3   OH222067   1.856   0.821   4.294
 7368TIP3    H122068   1.853   0.855   4.383
 7368TIP3    H222069   1.874   0.727   4.304
 7369TIP3   OH222070   2.903   1.543   2.782
 7369TIP3    H122071   2.869   1.472   2.836
 7369TIP3    H222072   2.838   1.612   2.789
 7370TIP3   OH222073   1.520   4.914   3.487
 7370TIP3    H122074   1.527   4.870   3.402
 7370TIP3    H222075   1.609   4.947   3.504
 7371TIP3   OH222076   1.866   0.189   5.751
 7371TIP3    H122077   1.958   0.167   5.735
 7371TIP3    H222078   1.867   0.236   5.834
 7372TIP3   OH222079   3.290   0.711   4.203
 7372TIP3    H122080   3.306   0.716   4.109
 7372TIP3    H222081   3.363   0.759   4.243
 7373TIP3   OH222082   0.584   0.303   0.477
 7373TIP3    H122083   0.564   0.318   0.385
 7373TIP3    H222084   0.560   0.385   0.520
 7374TIP3   OH222085   4.438   3.982   5.372
 7374TIP3    H122086   4.413   3.943   5.288
 7374TIP3    H222087   4.504   3.922   5.407
 7375TIP3   OH222088   6.163   3.092   2.613
 7375TIP3    H122089   6.204   3.047   2.687
 7375TIP3    H222090   6.086   3.134   2.651
 7376TIP3   OH222091   3.850   5.351   4.188
 7376TIP3    H122092   3.828   5.444   4.193
 7376TIP3    H222093   3.802   5.310   4.260
 7377TIP3   OH222094   0.113   2.918   0.302
 7377TIP3    H122095   0.185   2.975   0.330
 7377TIP3    H222096   0.082   2.877   0.383
 7378TIP3   OH222097   0.055   5.455   4.663
 7378TIP3    H122098   0.151   5.461   4.658
 7378TIP3    H222099   0.039   5.405   4.742
 7379TIP3   OH222100   2.066   4.680   2.487
 7379TIP3    H122101   1.982   4.708   2.451
 7379TIP3    H222102   2.124   4.755   2.473
 7380TIP3   OH222103   5.612   4.383   1.176
 7380TIP3    H122104   5.645   4.350   1.260
 7380TIP3    H222105   5.552   4.454   1.200
 7381TIP3   OH222106   2.374   5.683   4.712
 7381TIP3    H122107   2.297   5.682   4.769
 7381TIP3    H222108   2.341   5.651   4.628
 7382TIP3   OH222109   2.297   5.429   0.748
 7382TIP3    H122110   2.228   5.362   0.741
 7382TIP3    H222111   2.350   5.416   0.670
 7383TIP3   OH222112   6.242   2.738   0.518
 7383TIP3    H122113   6.303   2.745   0.591
 7383TIP3    H222114   6.275   2.800   0.453
 7384TIP3   OH222115   0.731   3.747   1.448
 7384TIP3    H122116   0.725   3.839   1.472
 7384TIP3    H222117   0.718   3.700   1.531
 7385TIP3   OH222118   2.143   0.913   4.632
 7385TIP3    H122119   2.063   0.903   4.683
 7385TIP3    H222120   2.183   0.993   4.665
 7386TIP3   OH222121   4.568   6.305   0.112
 7386TIP3    H122122   4.543   6.310   0.204
 7386TIP3    H222123   4.505   6.362   0.067
 7387TIP3   OH222124   2.959   4.814   0.469
 7387TIP3    H122125   3.037   4.760   0.477
 7387TIP3    H222126   2.950   4.855   0.555
 7388TIP3   OH222127   4.955   0.979   2.790
 7388TIP3    H122128   5.035   0.953   2.744
 7388TIP3    H222129   4.960   1.075   2.792
 7389TIP3   OH222130   3.269   5.360   3.234
 7389TIP3    H122131   3.177   5.378   3.215
 7389TIP3    H222132   3.311   5.446   3.237
 7390TIP3   OH222133   3.994   2.182   1.432
 7390TIP3    H122134   4.075   2.190   1.482
 7390TIP3    H222135   3.949   2.108   1.473
 7391TIP3   OH222136   4.363   4.858   1.791
 7391TIP3    H122137   4.374   4.888   1.701
 7391TIP3    H222138   4.309   4.779   1.783
 7392TIP3   OH222139   2.650   1.939   4.195
 7392TIP3    H122140   2.670   2.033   4.189
 7392TIP3    H222141   2.596   1.932   4.273
 7393TIP3   OH222142   2.841   2.074   4.926
 7393TIP3    H122143   2.906   2.004   4.928
 7393TIP3    H222144   2.759   2.031   4.902
 7394TIP3   OH222145   6.519   6.221   2.865
 7394TIP3    H122146   6.542   6.202   2.956
 7394TIP3    H222147   6.575   6.294   2.840
 7395TIP3   OH222148   4.633   3.412   3.131
 7395TIP3    H122149   4.631   3.448   3.043
 7395TIP3    H222150   4.714   3.361   3.134
 7396TIP3   OH222151   3.691   5.591   4.182
 7396TIP3    H122152   3.672   5.684   4.177
 7396TIP3    H222153   3.640   5.559   4.256
 7397TIP3   OH222154   1.519   3.653   2.814
 7397TIP3    H122155   1.435   3.664   2.769
 7397TIP3    H222156   1.526   3.730   2.871
 7398TIP3   OH222157   0.357   5.090   2.957
 7398TIP3    H122158   0.336   5.182   2.945
 7398TIP3    H222159   0.402   5.086   3.041
 7399TIP3   OH222160   7.244   4.636   3.290
 7399TIP3    H122161   7.175   4.649   3.225
 7399TIP3    H222162   7.228   4.702   3.357
 7400TIP3   OH222163   6.982   2.580   1.047
 7400TIP3    H122164   7.020   2.521   1.112
 7400TIP3    H222165   7.041   2.655   1.045
 7401TIP3   OH222166   4.993   1.289   4.722
 7401TIP3    H122167   5.087   1.272   4.711
 7401TIP3    H222168   4.981   1.378   4.688
 7402TIP3   OH222169   1.743   1.389   4.522
 7402TIP3    H122170   1.832   1.360   4.501
 7402TIP3    H222171   1.705   1.318   4.573
 7403TIP3   OH222172   2.666   0.193   0.406
 7403TIP3    H122173   2.622   0.108   0.414
 7403TIP3    H222174   2.613   0.242   0.344
 7404TIP3   OH222175   6.895   5.579   4.130
 7404TIP3    H122176   6.934   5.618   4.052
 7404TIP3    H222177   6.970   5.551   4.183
 7405TIP3   OH222178   1.373   5.617   3.103
 7405TIP3    H122179   1.362   5.540   3.159
 7405TIP3    H222180   1.429   5.587   3.031
 7406TIP3   OH222181   3.655   1.761   3.692
 7406TIP3    H122182   3.649   1.834   3.630
 7406TIP3    H222183   3.625   1.797   3.775
 7407TIP3   OH222184   1.467   0.336   0.534
 7407TIP3    H122185   1.408   0.301   0.467
 7407TIP3    H222186   1.422   0.318   0.616
 7408TIP3   OH222187   0.128   5.318   0.983
 7408TIP3    H122188   0.038   5.321   1.014
 7408TIP3    H222189   0.152   5.410   0.971
 7409TIP3   OH222190   2.122   2.811   5.248
 7409TIP3    H122191   2.211   2.844   5.259
 7409TIP3    H222192   2.066   2.888   5.257
 7410TIP3   OH222193   4.669   1.102   3.798
 7410TIP3    H122194   4.584   1.134   3.766
 7410TIP3    H222195   4.647   1.050   3.875
 7411TIP3   OH222196   6.909   6.138   1.395
 7411TIP3    H122197   6.870   6.225   1.406
 7411TIP3    H222198   7.003   6.155   1.391
 7412TIP3   OH222199   2.425   3.614   2.065
 7412TIP3    H122200   2.500   3.559   2.043
 7412TIP3    H222201   2.439   3.694   2.015
 7413TIP3   OH222202   1.311   2.565   0.419
 7413TIP3    H122203   1.404   2.574   0.443
 7413TIP3    H222204   1.312   2.547   0.325
 7414TIP3   OH222205   3.625   6.255   1.677
 7414TIP3    H122206   3.596   6.305   1.601
 7414TIP3    H222207   3.674   6.182   1.641
 7415TIP3   OH222208   5.212   3.235   3.759
 7415TIP3    H122209   5.293   3.187   3.776
 7415TIP3    H222210   5.239   3.326   3.752
 7416TIP3   OH222211   6.670   5.016   3.016
 7416TIP3    H122212   6.656   5.106   2.989
 7416TIP3    H222213   6.584   4.974   3.004
 7417TIP3   OH222214   0.965   3.139   2.031
 7417TIP3    H122215   0.919   3.222   2.020
 7417TIP3    H222216   1.034   3.157   2.095
 7418TIP3   OH222217   3.853   5.172   1.817
 7418TIP3    H122218   3.942   5.176   1.783
 7418TIP3    H222219   3.863   5.128   1.902
 7419TIP3   OH222220   5.436   1.433   0.783
 7419TIP3    H122221   5.457   1.407   0.694
 7419TIP3    H222222   5.468   1.361   0.837
 7420TIP3   OH222223   1.710  -0.022   5.711
 7420TIP3    H122224   1.745  -0.074   5.784
 7420TIP3    H222225   1.751   0.064   5.722
 7421TIP3   OH222226   5.490   4.090   2.633
 7421TIP3    H122227   5.407   4.131   2.606
 7421TIP3    H222228   5.526   4.055   2.552
 7422TIP3   OH222229   2.246   3.389   5.560
 7422TIP3    H122230   2.240   3.299   5.528
 7422TIP3    H222231   2.184   3.392   5.633
 7423TIP3   OH222232   6.585   1.330   0.421
 7423TIP3    H122233   6.596   1.422   0.396
 7423TIP3    H222234   6.540   1.334   0.506
 7424TIP3   OH222235   6.237   6.542   2.318
 7424TIP3    H122236   6.206   6.559   2.407
 7424TIP3    H222237   6.212   6.621   2.269
 7425TIP3   OH222238   0.793   4.159   2.919
 7425TIP3    H122239   0.745   4.143   2.837
 7425TIP3    H222240   0.811   4.071   2.953
 7426TIP3   OH222241   4.767   1.832   3.499
 7426TIP3    H122242   4.731   1.890   3.566
 7426TIP3    H222243   4.847   1.798   3.538
 7427TIP3   OH222244   5.506   5.651   4.210
 7427TIP3    H122245   5.553   5.612   4.284
 7427TIP3    H222246   5.462   5.578   4.168
 7428TIP3   OH222247   2.012   1.222   0.503
 7428TIP3    H122248   2.062   1.238   0.583
 7428TIP3    H222249   1.991   1.310   0.470
 7429TIP3   OH222250   6.250   0.718   1.531
 7429TIP3    H122251   6.232   0.773   1.455
 7429TIP3    H222252   6.344   0.700   1.525
 7430TIP3   OH222253   0.531   3.957   5.207
 7430TIP3    H122254   0.561   4.014   5.136
 7430TIP3    H222255   0.510   3.874   5.165
 7431TIP3   OH222256   6.927   6.570   2.358
 7431TIP3    H122257   6.949   6.479   2.376
 7431TIP3    H222258   6.853   6.589   2.416
 7432TIP3   OH222259   2.275   0.915   0.685
 7432TIP3    H122260   2.202   0.960   0.728
 7432TIP3    H222261   2.260   0.929   0.591
 7433TIP3   OH222262   5.975   4.960   4.013
 7433TIP3    H122263   5.925   4.938   3.935
 7433TIP3    H222264   6.035   5.029   3.985
 7434TIP3   OH222265   6.434   2.523   0.188
 7434TIP3    H122266   6.356   2.571   0.162
 7434TIP3    H222267   6.423   2.437   0.147
 7435TIP3   OH222268   0.891   3.640   0.724
 7435TIP3    H122269   0.943   3.714   0.755
 7435TIP3    H222270   0.839   3.613   0.800
 7436TIP3   OH222271   7.199   4.465   2.912
 7436TIP3    H122272   7.212   4.380   2.868
 7436TIP3    H222273   7.114   4.456   2.955
 7437TIP3   OH222274   5.945   1.723   2.620
 7437TIP3    H122275   5.966   1.766   2.704
 7437TIP3    H222276   5.920   1.634   2.645
 7438TIP3   OH222277   2.784   5.350   1.699
 7438TIP3    H122278   2.766   5.256   1.693
 7438TIP3    H222279   2.792   5.368   1.793
 7439TIP3   OH222280   3.301   3.372   2.338
 7439TIP3    H122281   3.349   3.421   2.405
 7439TIP3    H222282   3.209   3.382   2.362
 7440TIP3   OH222283   6.385   1.677   1.378
 7440TIP3    H122284   6.433   1.601   1.410
 7440TIP3    H222285   6.425   1.697   1.293
 7441TIP3   OH222286   1.251   6.279   3.510
 7441TIP3    H122287   1.250   6.226   3.590
 7441TIP3    H222288   1.170   6.330   3.514
 7442TIP3   OH222289   5.136   5.390   5.791
 7442TIP3    H122290   5.226   5.363   5.809
 7442TIP3    H222291   5.135   5.411   5.697
 7443TIP3   OH222292   6.143   4.159   1.206
 7443TIP3    H122293   6.133   4.140   1.113
 7443TIP3    H222294   6.226   4.118   1.231
 7444TIP3   OH222295   2.780   3.752   3.053
 7444TIP3    H122296   2.734   3.703   2.985
 7444TIP3    H222297   2.831   3.818   3.006
 7445TIP3   OH222298   1.026   6.033   4.366
 7445TIP3    H122299   1.016   5.946   4.327
 7445TIP3    H222300   1.102   6.025   4.424
 7446TIP3   OH222301   4.421   0.840   2.973
 7446TIP3    H122302   4.405   0.926   3.011
 7446TIP3    H222303   4.411   0.853   2.879
 7447TIP3   OH222304   4.223   2.699   2.872
 7447TIP3    H122305   4.177   2.781   2.858
 7447TIP3    H222306   4.186   2.639   2.808
 7448TIP3   OH222307   1.400   5.725   2.139
 7448TIP3    H122308   1.420   5.758   2.052
 7448TIP3    H222309   1.406   5.629   2.131
 7449TIP3   OH222310   4.975   1.688   3.642
 7449TIP3    H122311   5.022   1.678   3.725
 7449TIP3    H222312   4.990   1.605   3.596
 7450TIP3   OH222313   1.105   0.711   3.015
 7450TIP3    H122314   1.030   0.662   2.981
 7450TIP3    H222315   1.148   0.650   3.075
 7451TIP3   OH222316   6.511   1.427   0.896
 7451TIP3    H122317   6.490   1.360   0.961
 7451TIP3    H222318   6.456   1.502   0.921
 7452TIP3   OH222319   4.845   4.420   0.261
 7452TIP3    H122320   4.940   4.423   0.270
 7452TIP3    H222321   4.816   4.508   0.284
 7453TIP3   OH222322   3.848   6.749   0.054
 7453TIP3    H122323   3.911   6.709  -0.006
 7453TIP3    H222324   3.837   6.684   0.123
 7454TIP3   OH222325   3.341   0.619   0.154
 7454TIP3    H122326   3.316   0.531   0.126
 7454TIP3    H222327   3.431   0.610   0.186
 7455TIP3   OH222328   5.429   1.670   4.081
 7455TIP3    H122329   5.492   1.630   4.021
 7455TIP3    H222330   5.472   1.750   4.111
 7456TIP3   OH222331   4.589   1.488   1.718
 7456TIP3    H122332   4.633   1.566   1.686
 7456TIP3    H222333   4.515   1.522   1.769
 7457TIP3   OH222334   1.551   4.490   1.482
 7457TIP3    H122335   1.511   4.574   1.504
 7457TIP3    H222336   1.643   4.511   1.466
 7458TIP3   OH222337   6.509   3.245   2.079
 7458TIP3    H122338   6.601   3.231   2.060
 7458TIP3    H222339   6.480   3.308   2.013
 7459TIP3   OH222340   4.700   4.443   2.436
 7459TIP3    H122341   4.641   4.517   2.422
 7459TIP3    H222342   4.648   4.379   2.484
 7460TIP3   OH222343   1.955   6.425   2.647
 7460TIP3    H122344   1.870   6.465   2.667
 7460TIP3    H222345   1.941   6.331   2.658
 7461TIP3   OH222346   1.936   1.924   3.951
 7461TIP3    H122347   1.956   1.993   3.887
 7461TIP3    H222348   1.941   1.969   4.035
 7462TIP3   OH222349   6.431   4.971   4.084
 7462TIP3    H122350   6.413   5.024   4.007
 7462TIP3    H222351   6.347   4.962   4.128
 7463TIP3   OH222352   4.683   4.530   4.115
 7463TIP3    H122353   4.758   4.482   4.148
 7463TIP3    H222354   4.717   4.616   4.091
 7464TIP3   OH222355   4.855   1.399   2.130
 7464TIP3    H122356   4.916   1.446   2.187
 7464TIP3    H222357   4.819   1.467   2.073
 7465TIP3   OH222358   2.184   4.821   4.810
 7465TIP3    H122359   2.159   4.811   4.718
 7465TIP3    H222360   2.143   4.747   4.854
 7466TIP3   OH222361   0.237   4.873   4.500
 7466TIP3    H122362   0.248   4.968   4.507
 7466TIP3    H222363   0.320   4.837   4.530
 7467TIP3   OH222364   0.942   2.330   1.902
 7467TIP3    H122365   0.857   2.370   1.886
 7467TIP3    H222366   0.925   2.260   1.965
 7468TIP3   OH222367   1.185   6.253   2.224
 7468TIP3    H122368   1.267   6.217   2.190
 7468TIP3    H222369   1.197   6.258   2.319
 7469TIP3   OH222370   0.002   4.646   2.087
 7469TIP3    H122371   0.087   4.630   2.128
 7469TIP3    H222372   0.023   4.686   2.003
 7470TIP3   OH222373   4.527   4.400   2.880
 7470TIP3    H122374   4.558   4.315   2.909
 7470TIP3    H222375   4.454   4.419   2.939
 7471TIP3   OH222376   6.351   5.470   0.438
 7471TIP3    H122377   6.277   5.429   0.482
 7471TIP3    H222378   6.353   5.559   0.472
 7472TIP3   OH222379   6.563   2.104   3.294
 7472TIP3    H122380   6.583   2.192   3.262
 7472TIP3    H222381   6.587   2.046   3.221
 7473TIP3   OH222382   1.181   4.336   0.313
 7473TIP3    H122383   1.234   4.273   0.265
 7473TIP3    H222384   1.094   4.297   0.316
 7474TIP3   OH222385   4.399   4.660   4.597
 7474TIP3    H122386   4.339   4.637   4.527
 7474TIP3    H222387   4.485   4.662   4.555
 7475TIP3   OH222388   0.904   4.062   4.361
 7475TIP3    H122389   0.845   3.989   4.341
 7475TIP3    H222390   0.991   4.028   4.342
 7476TIP3   OH222391   2.470  -0.003   0.476
 7476TIP3    H122392   2.450  -0.090   0.509
 7476TIP3    H222393   2.476   0.052   0.554
 7477TIP3   OH222394   3.133   4.612   0.537
 7477TIP3    H122395   3.066   4.545   0.541
 7477TIP3    H222396   3.178   4.597   0.454
 7478TIP3   OH222397   6.555   4.050   3.992
 7478TIP3    H122398   6.556   4.000   4.073
 7478TIP3    H222399   6.574   3.986   3.924
 7479TIP3   OH222400   7.004   5.252   3.886
 7479TIP3    H122401   7.068   5.301   3.937
 7479TIP3    H222402   6.936   5.229   3.949
 7480TIP3   OH222403   0.196   0.943   4.548
 7480TIP3    H122404   0.218   0.871   4.607
 7480TIP3    H222405   0.251   0.928   4.471
 7481TIP3   OH222406   5.623   4.283   4.135
 7481TIP3    H122407   5.555   4.241   4.188
 7481TIP3    H222408   5.702   4.279   4.189
 7482TIP3   OH222409   1.256   5.788   3.373
 7482TIP3    H122410   1.286   5.789   3.464
 7482TIP3    H222411   1.169   5.747   3.377
 7483TIP3   OH222412   1.287   0.790   1.867
 7483TIP3    H122413   1.230   0.715   1.851
 7483TIP3    H222414   1.282   0.805   1.961
 7484TIP3   OH222415   4.478   1.843   3.374
 7484TIP3    H122416   4.572   1.857   3.362
 7484TIP3    H222417   4.446   1.927   3.406
 7485TIP3   OH222418   0.471   5.710   3.733
 7485TIP3    H122419   0.425   5.791   3.713
 7485TIP3    H222420   0.526   5.694   3.656
 7486TIP3   OH222421   1.811   2.100   2.236
 7486TIP3    H122422   1.823   2.013   2.274
 7486TIP3    H222423   1.773   2.083   2.150
 7487TIP3   OH222424   6.580   0.190   0.245
 7487TIP3    H122425   6.572   0.224   0.334
 7487TIP3    H222426   6.628   0.258   0.198
 7488TIP3   OH222427   1.248   4.461   2.456
 7488TIP3    H122428   1.302   4.487   2.382
 7488TIP3    H222429   1.307   4.409   2.511
 7489TIP3   OH222430   1.458   2.669   1.628
 7489TIP3    H122431   1.549   2.693   1.613
 7489TIP3    H222432   1.425   2.645   1.542
 7490TIP3   OH222433   7.134   6.401   3.848
 7490TIP3    H122434   7.087   6.375   3.769
 7490TIP3    H222435   7.225   6.381   3.830
 7491TIP3   OH222436   0.218   1.941   3.128
 7491TIP3    H122437   0.206   1.847   3.116
 7491TIP3    H222438   0.313   1.954   3.128
 7492TIP3   OH222439   0.699   2.383   1.721
 7492TIP3    H122440   0.612   2.423   1.717
 7492TIP3    H222441   0.758   2.451   1.690
 7493TIP3   OH222442   3.091   1.429   3.990
 7493TIP3    H122443   3.062   1.498   4.049
 7493TIP3    H222444   3.010   1.390   3.957
 7494TIP3   OH222445   3.193   4.530   4.314
 7494TIP3    H122446   3.130   4.557   4.248
 7494TIP3    H222447   3.244   4.610   4.333
 7495TIP3   OH222448   2.814   2.894   1.413
 7495TIP3    H122449   2.793   2.973   1.463
 7495TIP3    H222450   2.746   2.831   1.438
 7496TIP3   OH222451   3.170   4.929   1.655
 7496TIP3    H122452   3.109   4.966   1.718
 7496TIP3    H222453   3.228   4.874   1.706
 7497TIP3   OH222454   4.241   6.179   4.855
 7497TIP3    H122455   4.146   6.174   4.850
 7497TIP3    H222456   4.272   6.105   4.802
 7498TIP3   OH222457   5.933   0.165   0.840
 7498TIP3    H122458   5.901   0.251   0.865
 7498TIP3    H222459   5.958   0.175   0.748
 7499TIP3   OH222460   0.561   5.212   3.327
 7499TIP3    H122461   0.588   5.123   3.304
 7499TIP3    H222462   0.626   5.241   3.391
 7500TIP3   OH222463   4.035   2.924   4.984
 7500TIP3    H122464   4.061   3.002   5.033
 7500TIP3    H222465   3.951   2.948   4.943
 7501TIP3   OH222466   5.570   4.129   5.511
 7501TIP3    H122467   5.580   4.131   5.607
 7501TIP3    H222468   5.649   4.083   5.481
 7502TIP3   OH222469   6.142   0.229   1.958
 7502TIP3    H122470   6.163   0.160   1.895
 7502TIP3    H222471   6.227   0.269   1.977
 7503TIP3   OH222472   2.404   5.478   4.947
 7503TIP3    H122473   2.478   5.448   4.893
 7503TIP3    H222474   2.439   5.553   4.995
 7504TIP3   OH222475   4.949   1.604   4.250
 7504TIP3    H122476   4.925   1.687   4.291
 7504TIP3    H222477   5.027   1.576   4.298
 7505TIP3   OH222478   0.338   3.622   1.585
 7505TIP3    H122479   0.351   3.602   1.492
 7505TIP3    H222480   0.418   3.668   1.610
 7506TIP3   OH222481   7.047   1.934   3.746
 7506TIP3    H122482   7.074   1.967   3.660
 7506TIP3    H222483   7.001   1.853   3.727
 7507TIP3   OH222484   3.102   4.799   5.074
 7507TIP3    H122485   3.114   4.731   5.141
 7507TIP3    H222486   3.070   4.875   5.123
 7508TIP3   OH222487   6.901   1.524   3.886
 7508TIP3    H122488   6.881   1.438   3.922
 7508TIP3    H222489   6.846   1.584   3.937
 7509TIP3   OH222490   2.359   2.968   0.914
 7509TIP3    H122491   2.437   2.952   0.967
 7509TIP3    H222492   2.369   3.058   0.884
 7510TIP3   OH222493   6.105   1.955   0.080
 7510TIP3    H122494   6.198   1.977   0.073
 7510TIP3    H222495   6.060   2.034   0.049
 7511TIP3   OH222496   5.705   5.149   1.141
 7511TIP3    H122497   5.622   5.150   1.094
 7511TIP3    H222498   5.745   5.234   1.121
 7512TIP3   OH222499   0.126   0.744   4.017
 7512TIP3    H122500   0.163   0.672   3.966
 7512TIP3    H222501   0.175   0.821   3.990
 7513TIP3   OH222502   1.005   0.024   3.474
 7513TIP3    H122503   0.923   0.031   3.523
 7513TIP3    H222504   0.979  -0.001   3.386
 7514TIP3   OH222505   6.955   6.235   2.164
 7514TIP3    H122506   6.863   6.247   2.190
 7514TIP3    H222507   7.005   6.271   2.237
 7515TIP3   OH222508   4.173   3.961   1.930
 7515TIP3    H122509   4.192   4.008   1.849
 7515TIP3    H222510   4.193   4.023   1.999
 7516TIP3   OH222511   5.061   4.180   2.981
 7516TIP3    H122512   5.095   4.171   3.070
 7516TIP3    H222513   5.084   4.269   2.956
 7517TIP3   OH222514   1.642   2.608   5.351
 7517TIP3    H122515   1.687   2.655   5.281
 7517TIP3    H222516   1.634   2.518   5.319
 7518TIP3   OH222517   4.801   2.272   5.463
 7518TIP3    H122518   4.789   2.268   5.558
 7518TIP3    H222519   4.876   2.215   5.446
 7519TIP3   OH222520   2.623   1.932   3.775
 7519TIP3    H122521   2.705   1.974   3.751
 7519TIP3    H222522   2.559   1.967   3.713
 7520TIP3   OH222523   2.440   5.889   4.237
 7520TIP3    H122524   2.348   5.905   4.257
 7520TIP3    H222525   2.455   5.797   4.261
 7521TIP3   OH222526   6.515   4.660   3.437
 7521TIP3    H122527   6.558   4.731   3.389
 7521TIP3    H222528   6.523   4.584   3.378
 7522TIP3   OH222529   1.952   2.457   5.083
 7522TIP3    H122530   2.035   2.411   5.098
 7522TIP3    H222531   1.978   2.539   5.041
 7523TIP3   OH222532   2.326   4.450   1.831
 7523TIP3    H122533   2.269   4.393   1.779
 7523TIP3    H222534   2.402   4.395   1.852
 7524TIP3   OH222535   1.844   3.873   0.409
 7524TIP3    H122536   1.937   3.871   0.429
 7524TIP3    H222537   1.801   3.877   0.494
 7525TIP3   OH222538   5.247   4.800   3.657
 7525TIP3    H122539   5.312   4.867   3.679
 7525TIP3    H222540   5.226   4.759   3.741
 7526TIP3   OH222541   6.871   3.898   2.166
 7526TIP3    H122542   6.892   3.867   2.254
 7526TIP3    H222543   6.951   3.886   2.116
 7527TIP3   OH222544   6.731   0.289   0.765
 7527TIP3    H122545   6.799   0.342   0.806
 7527TIP3    H222546   6.748   0.200   0.795
 7528TIP3   OH222547   2.634   1.581   5.322
 7528TIP3    H122548   2.613   1.503   5.374
 7528TIP3    H222549   2.672   1.642   5.385
 7529TIP3   OH222550   5.578   5.731   1.321
 7529TIP3    H122551   5.616   5.783   1.391
 7529TIP3    H222552   5.549   5.795   1.256
 7530TIP3   OH222553   1.657   2.998   2.746
 7530TIP3    H122554   1.737   3.019   2.794
 7530TIP3    H222555   1.624   3.083   2.716
 7531TIP3   OH222556   6.632   6.074   2.003
 7531TIP3    H122557   6.556   6.054   2.057
 7531TIP3    H222558   6.601   6.062   1.913
 7532TIP3   OH222559   1.032   4.524   2.600
 7532TIP3    H122560   1.037   4.444   2.653
 7532TIP3    H222561   1.097   4.511   2.531
 7533TIP3   OH222562   6.022   0.097   5.435
 7533TIP3    H122563   6.022   0.048   5.517
 7533TIP3    H222564   5.983   0.037   5.371
 7534TIP3   OH222565   2.099   1.655   1.339
 7534TIP3    H122566   2.170   1.635   1.278
 7534TIP3    H222567   2.129   1.731   1.388
 7535TIP3   OH222568   3.726   5.783   1.744
 7535TIP3    H122569   3.680   5.701   1.725
 7535TIP3    H222570   3.690   5.845   1.680
 7536TIP3   OH222571   2.520   0.112   1.740
 7536TIP3    H122572   2.464   0.149   1.808
 7536TIP3    H222573   2.556   0.033   1.779
 7537TIP3   OH222574   6.530   0.017   4.636
 7537TIP3    H122575   6.542  -0.073   4.669
 7537TIP3    H222576   6.451   0.048   4.681
 7538TIP3   OH222577   0.828   0.711   3.528
 7538TIP3    H122578   0.865   0.772   3.464
 7538TIP3    H222579   0.881   0.632   3.518
 7539TIP3   OH222580   4.282   3.203   5.518
 7539TIP3    H122581   4.296   3.286   5.564
 7539TIP3    H222582   4.314   3.137   5.580
 7540TIP3   OH222583   5.588   4.230   0.637
 7540TIP3    H122584   5.585   4.166   0.708
 7540TIP3    H222585   5.663   4.203   0.584
 7541TIP3   OH222586   5.314   3.395   4.887
 7541TIP3    H122587   5.371   3.455   4.934
 7541TIP3    H222588   5.227   3.410   4.925
 7542TIP3   OH222589   1.997   2.946   3.657
 7542TIP3    H122590   2.053   2.996   3.716
 7542TIP3    H222591   1.946   3.013   3.610
 7543TIP3   OH222592   5.575   5.585   2.614
 7543TIP3    H122593   5.641   5.516   2.610
 7543TIP3    H222594   5.622   5.662   2.647
 7544TIP3   OH222595   6.378   2.795   4.086
 7544TIP3    H122596   6.312   2.726   4.079
 7544TIP3    H222597   6.461   2.747   4.097
 7545TIP3   OH222598   6.633   3.063   3.484
 7545TIP3    H122599   6.606   3.076   3.576
 7545TIP3    H222600   6.728   3.066   3.486
 7546TIP3   OH222601   2.988   1.773   0.495
 7546TIP3    H122602   3.042   1.711   0.447
 7546TIP3    H222603   2.937   1.720   0.556
 7547TIP3   OH222604   2.250   1.025   2.768
 7547TIP3    H122605   2.221   1.115   2.751
 7547TIP3    H222606   2.295   0.999   2.688
 7548TIP3   OH222607   6.390   1.185   3.566
 7548TIP3    H122608   6.376   1.235   3.647
 7548TIP3    H222609   6.444   1.111   3.593
 7549TIP3   OH222610   1.416   2.509   4.757
 7549TIP3    H122611   1.432   2.515   4.851
 7549TIP3    H222612   1.371   2.425   4.745
 7550TIP3   OH222613   3.681   1.141   4.965
 7550TIP3    H122614   3.773   1.145   4.942
 7550TIP3    H222615   3.635   1.132   4.881
 7551TIP3   OH222616   3.884   0.997   0.336
 7551TIP3    H122617   3.900   1.043   0.418
 7551TIP3    H222618   3.957   1.022   0.279
 7552TIP3   OH222619   6.195   6.499   5.422
 7552TIP3    H122620   6.250   6.576   5.426
 7552TIP3    H222621   6.241   6.433   5.474
 7553TIP3   OH222622   0.782   3.212   0.119
 7553TIP3    H122623   0.773   3.139   0.058
 7553TIP3    H222624   0.835   3.276   0.072
 7554TIP3   OH222625   4.142   4.217   4.094
 7554TIP3    H122626   4.160   4.153   4.162
 7554TIP3    H222627   4.227   4.258   4.076
 7555TIP3   OH222628   2.003   2.085   3.345
 7555TIP3    H122629   1.967   2.110   3.260
 7555TIP3    H222630   2.086   2.133   3.351
 7556TIP3   OH222631   4.084   6.636   1.673
 7556TIP3    H122632   4.122   6.698   1.610
 7556TIP3    H222633   4.035   6.573   1.619
 7557TIP3   OH222634   5.317   2.888   4.889
 7557TIP3    H122635   5.358   2.974   4.883
 7557TIP3    H222636   5.381   2.828   4.849
 7558TIP3   OH222637   6.954   5.068   4.170
 7558TIP3    H122638   6.972   5.049   4.078
 7558TIP3    H222639   6.867   5.031   4.186
 7559TIP3   OH222640   6.411   6.759   3.119
 7559TIP3    H122641   6.416   6.839   3.171
 7559TIP3    H222642   6.360   6.782   3.042
 7560TIP3   OH222643   5.275   2.037   3.255
 7560TIP3    H122644   5.212   1.988   3.202
 7560TIP3    H222645   5.255   2.128   3.237
 7561TIP3   OH222646   1.085   4.480   3.284
 7561TIP3    H122647   1.073   4.532   3.364
 7561TIP3    H222648   0.999   4.482   3.242
 7562TIP3   OH222649   1.843   3.632   0.915
 7562TIP3    H122650   1.763   3.583   0.934
 7562TIP3    H222651   1.825   3.721   0.948
 7563TIP3   OH222652   2.388   3.069   1.636
 7563TIP3    H122653   2.444   3.146   1.647
 7563TIP3    H222654   2.445   2.994   1.653
 7564TIP3   OH222655   3.101   0.416   2.719
 7564TIP3    H122656   3.186   0.416   2.764
 7564TIP3    H222657   3.056   0.338   2.752
 7565TIP3   OH222658   2.602   1.080   3.331
 7565TIP3    H122659   2.678   1.126   3.366
 7565TIP3    H222660   2.639   1.008   3.279
 7566TIP3   OH222661   6.208   0.294   1.181
 7566TIP3    H122662   6.286   0.334   1.218
 7566TIP3    H222663   6.204   0.326   1.091
 7567TIP3   OH222664   0.627   6.664   0.391
 7567TIP3    H122665   0.571   6.732   0.353
 7567TIP3    H222666   0.696   6.712   0.436
 7568TIP3   OH222667   1.573   2.706   3.776
 7568TIP3    H122668   1.630   2.630   3.772
 7568TIP3    H222669   1.560   2.722   3.870
 7569TIP3   OH222670   6.440   0.624   0.284
 7569TIP3    H122671   6.479   0.578   0.209
 7569TIP3    H222672   6.510   0.627   0.349
 7570TIP3   OH222673   2.411   3.399   2.386
 7570TIP3    H122674   2.500   3.365   2.381
 7570TIP3    H222675   2.417   3.489   2.354
 7571TIP3   OH222676   6.375   0.664   1.079
 7571TIP3    H122677   6.284   0.637   1.076
 7571TIP3    H222678   6.423   0.595   1.033
 7572TIP3   OH222679   2.078   2.069   0.265
 7572TIP3    H122680   2.077   2.164   0.251
 7572TIP3    H222681   2.026   2.056   0.344
 7573TIP3   OH222682   2.132   5.815   2.902
 7573TIP3    H122683   2.115   5.733   2.949
 7573TIP3    H222684   2.214   5.847   2.939
 7574TIP3   OH222685   0.329   3.788   2.712
 7574TIP3    H122686   0.277   3.764   2.789
 7574TIP3    H222687   0.267   3.828   2.651
 7575TIP3   OH222688   5.473   5.230   2.595
 7575TIP3    H122689   5.425   5.307   2.563
 7575TIP3    H222690   5.565   5.255   2.588
 7576TIP3   OH222691   2.891   3.067   4.899
 7576TIP3    H122692   2.860   3.101   4.815
 7576TIP3    H222693   2.978   3.031   4.878
 7577TIP3   OH222694   3.717   2.917   1.233
 7577TIP3    H122695   3.632   2.910   1.278
 7577TIP3    H222696   3.734   2.829   1.201
 7578TIP3   OH222697   4.989   5.917   1.814
 7578TIP3    H122698   5.065   5.887   1.763
 7578TIP3    H222699   5.013   5.900   1.905
 7579TIP3   OH222700   5.828   4.583   1.881
 7579TIP3    H122701   5.772   4.547   1.950
 7579TIP3    H222702   5.911   4.537   1.891
 7580TIP3   OH222703   5.190   4.198   5.730
 7580TIP3    H122704   5.101   4.164   5.743
 7580TIP3    H222705   5.179   4.268   5.666
 7581TIP3   OH222706   7.100   3.866   3.548
 7581TIP3    H122707   7.008   3.860   3.573
 7581TIP3    H222708   7.139   3.784   3.581
 7582TIP3   OH222709   1.506   4.094   1.831
 7582TIP3    H122710   1.569   4.153   1.791
 7582TIP3    H222711   1.421   4.129   1.807
 7583TIP3   OH222712   0.282   3.365   1.912
 7583TIP3    H122713   0.223   3.321   1.973
 7583TIP3    H222714   0.351   3.401   1.967
 7584TIP3   OH222715   4.960   6.566   3.664
 7584TIP3    H122716   4.995   6.644   3.707
 7584TIP3    H222717   4.954   6.500   3.733
 7585TIP3   OH222718   0.506   5.448   0.807
 7585TIP3    H122719   0.538   5.446   0.717
 7585TIP3    H222720   0.505   5.540   0.831
 7586TIP3   OH222721   6.210   1.128   0.865
 7586TIP3    H122722   6.135   1.076   0.895
 7586TIP3    H222723   6.194   1.215   0.901
 7587TIP3   OH222724   2.200   3.484   2.095
 7587TIP3    H122725   2.176   3.448   2.009
 7587TIP3    H222726   2.280   3.534   2.078
 7588TIP3   OH222727   2.882   0.479   5.455
 7588TIP3    H122728   2.916   0.438   5.534
 7588TIP3    H222729   2.866   0.570   5.480
 7589TIP3   OH222730   5.494   3.700   4.428
 7589TIP3    H122731   5.578   3.746   4.428
 7589TIP3    H222732   5.514   3.613   4.462
 7590TIP3   OH222733   1.499   0.272   3.932
 7590TIP3    H122734   1.486   0.181   3.908
 7590TIP3    H222735   1.548   0.269   4.014
 7591TIP3   OH222736   2.129   5.756   3.944
 7591TIP3    H122737   2.047   5.710   3.960
 7591TIP3    H222738   2.154   5.733   3.855
 7592TIP3   OH222739   4.229   3.948   4.772
 7592TIP3    H122740   4.312   3.995   4.766
 7592TIP3    H222741   4.253   3.856   4.770
 7593TIP3   OH222742   0.525   6.362   4.697
 7593TIP3    H122743   0.467   6.408   4.758
 7593TIP3    H222744   0.481   6.279   4.679
 7594TIP3   OH222745   2.605   0.785   1.615
 7594TIP3    H122746   2.636   0.857   1.670
 7594TIP3    H222747   2.591   0.713   1.676
 7595TIP3   OH222748   3.207   0.636   5.023
 7595TIP3    H122749   3.159   0.633   5.106
 7595TIP3    H222750   3.290   0.592   5.043
 7596TIP3   OH222751   6.847   6.521   5.704
 7596TIP3    H122752   6.892   6.484   5.780
 7596TIP3    H222753   6.759   6.542   5.737
 7597TIP3   OH222754   4.006   3.786   1.414
 7597TIP3    H122755   4.027   3.696   1.436
 7597TIP3    H222756   3.971   3.782   1.325
 7598TIP3   OH222757   4.318   6.826   0.879
 7598TIP3    H122758   4.399   6.862   0.914
 7598TIP3    H222759   4.324   6.731   0.896
 7599TIP3   OH222760   3.552   0.943   1.398
 7599TIP3    H122761   3.541   0.981   1.311
 7599TIP3    H222762   3.464   0.919   1.425
 7600TIP3   OH222763   6.184   1.398   5.447
 7600TIP3    H122764   6.230   1.471   5.489
 7600TIP3    H222765   6.106   1.385   5.501
 7601TIP3   OH222766   2.074   0.616   1.665
 7601TIP3    H122767   1.987   0.653   1.649
 7601TIP3    H222768   2.060   0.521   1.667
 7602TIP3   OH222769   6.148   6.479   3.193
 7602TIP3    H122770   6.182   6.461   3.105
 7602TIP3    H222771   6.163   6.399   3.242
 7603TIP3   OH222772   3.720   3.440   4.963
 7603TIP3    H122773   3.790   3.501   4.988
 7603TIP3    H222774   3.741   3.416   4.872
 7604TIP3   OH222775   0.941   0.773   1.719
 7604TIP3    H122776   0.909   0.839   1.780
 7604TIP3    H222777   0.982   0.707   1.774
 7605TIP3   OH222778   2.365   3.716   4.895
 7605TIP3    H122779   2.306   3.643   4.880
 7605TIP3    H222780   2.362   3.731   4.989
 7606TIP3   OH222781   2.959   4.922   0.755
 7606TIP3    H122782   2.905   4.963   0.823
 7606TIP3    H222783   2.990   4.841   0.795
 7607TIP3   OH222784   5.215   6.050   4.609
 7607TIP3    H122785   5.154   5.978   4.600
 7607TIP3    H222786   5.286   6.029   4.548
 7608TIP3   OH222787   2.838   5.382   3.984
 7608TIP3    H122788   2.910   5.353   4.039
 7608TIP3    H222789   2.786   5.439   4.042
 7609TIP3   OH222790   6.379   6.649   1.565
 7609TIP3    H122791   6.291   6.615   1.549
 7609TIP3    H222792   6.433   6.570   1.573
 7610TIP3   OH222793   1.123   2.533   1.944
 7610TIP3    H122794   1.071   2.453   1.936
 7610TIP3    H222795   1.061   2.598   1.976
 7611TIP3   OH222796   6.684   1.116   3.199
 7611TIP3    H122797   6.715   1.155   3.281
 7611TIP3    H222798   6.742   1.040   3.186
 7612TIP3   OH222799   5.438   5.603   3.544
 7612TIP3    H122800   5.515   5.552   3.520
 7612TIP3    H222801   5.366   5.540   3.541
 7613TIP3   OH222802   4.078   3.649   5.766
 7613TIP3    H122803   4.061   3.700   5.845
 7613TIP3    H222804   4.001   3.661   5.712
 7614TIP3   OH222805   4.126   0.149   2.703
 7614TIP3    H122806   4.176   0.199   2.768
 7614TIP3    H222807   4.104   0.213   2.635
 7615TIP3   OH222808   5.570   1.351   2.015
 7615TIP3    H122809   5.530   1.341   2.101
 7615TIP3    H222810   5.565   1.445   1.998
 7616TIP3   OH222811   5.011   3.175   2.509
 7616TIP3    H122812   4.993   3.212   2.595
 7616TIP3    H222813   4.938   3.115   2.493
 7617TIP3   OH222814   4.681   2.955   1.678
 7617TIP3    H122815   4.705   3.038   1.636
 7617TIP3    H222816   4.643   2.981   1.762
 7618TIP3   OH222817   4.836   0.631   2.066
 7618TIP3    H122818   4.906   0.624   2.130
 7618TIP3    H222819   4.846   0.554   2.010
 7619TIP3   OH222820   1.493   2.353   5.627
 7619TIP3    H122821   1.461   2.401   5.550
 7619TIP3    H222822   1.435   2.278   5.635
 7620TIP3   OH222823   2.619   0.595   5.303
 7620TIP3    H122824   2.601   0.513   5.349
 7620TIP3    H222825   2.710   0.616   5.326
 7621TIP3   OH222826   3.848   3.037   0.257
 7621TIP3    H122827   3.879   3.095   0.327
 7621TIP3    H222828   3.752   3.044   0.261
 7622TIP3   OH222829   3.198   2.929   1.114
 7622TIP3    H122830   3.259   2.945   1.186
 7622TIP3    H222831   3.147   2.854   1.141
 7623TIP3   OH222832   1.240   2.550   3.473
 7623TIP3    H122833   1.214   2.459   3.488
 7623TIP3    H222834   1.245   2.589   3.561
 7624TIP3   OH222835   4.066   2.465   1.055
 7624TIP3    H122836   4.022   2.540   1.014
 7624TIP3    H222837   4.065   2.397   0.987
 7625TIP3   OH222838   1.062   0.522   1.112
 7625TIP3    H122839   1.010   0.583   1.059
 7625TIP3    H222840   1.027   0.530   1.200
 7626TIP3   OH222841   1.851   2.517   0.209
 7626TIP3    H122842   1.773   2.465   0.188
 7626TIP3    H222843   1.912   2.453   0.246
 7627TIP3   OH222844   6.840   4.013   0.733
 7627TIP3    H122845   6.832   4.083   0.668
 7627TIP3    H222846   6.785   4.041   0.806
 7628TIP3   OH222847   5.276   0.382   1.435
 7628TIP3    H122848   5.367   0.403   1.418
 7628TIP3    H222849   5.274   0.354   1.527
 7629TIP3   OH222850   2.986   6.002   5.882
 7629TIP3    H122851   2.969   5.908   5.875
 7629TIP3    H222852   2.956   6.038   5.798
 7630TIP3   OH222853   3.482   2.312   1.747
 7630TIP3    H122854   3.552   2.328   1.810
 7630TIP3    H222855   3.527   2.298   1.664
 7631TIP3   OH222856   6.887   3.089   0.023
 7631TIP3    H122857   6.902   3.019   0.086
 7631TIP3    H222858   6.958   3.151   0.038
 7632TIP3   OH222859   6.123   1.562   1.274
 7632TIP3    H122860   6.167   1.635   1.317
 7632TIP3    H222861   6.189   1.493   1.269
 7633TIP3   OH222862   5.772   5.858   2.668
 7633TIP3    H122863   5.858   5.887   2.637
 7633TIP3    H222864   5.733   5.936   2.705
 7634TIP3   OH222865   3.600   6.079   1.310
 7634TIP3    H122866   3.597   6.000   1.364
 7634TIP3    H222867   3.528   6.068   1.248
 7635TIP3   OH222868   3.166   5.460   1.699
 7635TIP3    H122869   3.141   5.426   1.613
 7635TIP3    H222870   3.234   5.526   1.679
 7636TIP3   OH222871   0.587   1.851   2.163
 7636TIP3    H122872   0.673   1.826   2.129
 7636TIP3    H222873   0.578   1.943   2.139
 7637TIP3   OH222874   5.773   4.987   4.757
 7637TIP3    H122875   5.684   5.020   4.749
 7637TIP3    H222876   5.789   4.982   4.851
 7638TIP3   OH222877   6.695   4.125   0.932
 7638TIP3    H122878   6.640   4.065   0.982
 7638TIP3    H222879   6.634   4.172   0.875
 7639TIP3   OH222880   4.560   2.120   0.242
 7639TIP3    H122881   4.613   2.181   0.294
 7639TIP3    H222882   4.505   2.177   0.188
 7640TIP3   OH222883   1.926   6.098   3.278
 7640TIP3    H122884   1.966   6.037   3.340
 7640TIP3    H222885   1.962   6.072   3.193
 7641TIP3   OH222886   6.220   5.681   1.435
 7641TIP3    H122887   6.133   5.681   1.394
 7641TIP3    H222888   6.266   5.609   1.391
 7642TIP3   OH222889   0.607   5.848   5.271
 7642TIP3    H122890   0.603   5.895   5.188
 7642TIP3    H222891   0.515   5.834   5.295
 7643TIP3   OH222892   0.056   5.980   3.756
 7643TIP3    H122893  -0.003   6.051   3.781
 7643TIP3    H222894   0.009   5.932   3.689
 7644TIP3   OH222895   2.652   3.534   0.288
 7644TIP3    H122896   2.675   3.618   0.250
 7644TIP3    H222897   2.736   3.495   0.314
 7645TIP3   OH222898   0.540   4.293   4.332
 7645TIP3    H122899   0.614   4.331   4.285
 7645TIP3    H222900   0.514   4.361   4.394
 7646TIP3   OH222901   1.795   1.221   3.785
 7646TIP3    H122902   1.730   1.168   3.832
 7646TIP3    H222903   1.798   1.304   3.833
 7647TIP3   OH222904   4.448   5.488   1.332
 7647TIP3    H122905   4.418   5.563   1.281
 7647TIP3    H222906   4.402   5.495   1.416
 7648TIP3   OH222907   1.894   1.297   3.156
 7648TIP3    H122908   1.820   1.239   3.173
 7648TIP3    H222909   1.865   1.352   3.084
 7649TIP3   OH222910   6.176   5.288   2.252
 7649TIP3    H122911   6.125   5.223   2.203
 7649TIP3    H222912   6.112   5.334   2.305
 7650TIP3   OH222913   1.547   1.826   5.060
 7650TIP3    H122914   1.525   1.879   4.983
 7650TIP3    H222915   1.643   1.823   5.059
 7651TIP3   OH222916   3.382   5.125   4.185
 7651TIP3    H122917   3.418   5.111   4.097
 7651TIP3    H222918   3.404   5.216   4.205
 7652TIP3   OH222919   3.448   1.445   0.640
 7652TIP3    H122920   3.501   1.521   0.664
 7652TIP3    H222921   3.381   1.439   0.709
 7653TIP3   OH222922   6.560   1.827   4.979
 7653TIP3    H122923   6.517   1.791   5.057
 7653TIP3    H222924   6.638   1.772   4.967
 7654TIP3   OH222925   6.528   0.807   2.642
 7654TIP3    H122926   6.473   0.885   2.652
 7654TIP3    H222927   6.551   0.783   2.731
 7655TIP3   OH222928   5.047   5.388   2.583
 7655TIP3    H122929   5.049   5.293   2.577
 7655TIP3    H222930   5.084   5.418   2.500
 7656TIP3   OH222931   3.892   1.271   0.168
 7656TIP3    H122932   3.983   1.271   0.197
 7656TIP3    H222933   3.877   1.183   0.134
 7657TIP3   OH222934   2.556   1.621   2.342
 7657TIP3    H122935   2.614   1.591   2.272
 7657TIP3    H222936   2.479   1.654   2.296
 7658TIP3   OH222937   1.987   0.336   1.754
 7658TIP3    H122938   1.914   0.342   1.693
 7658TIP3    H222939   2.043   0.267   1.719
 7659TIP3   OH222940   3.566   0.211   1.445
 7659TIP3    H122941   3.522   0.126   1.438
 7659TIP3    H222942   3.496   0.276   1.440
 7660TIP3   OH222943   1.203   0.224   4.395
 7660TIP3    H122944   1.196   0.168   4.473
 7660TIP3    H222945   1.183   0.165   4.322
 7661TIP3   OH222946   2.259   4.232   4.406
 7661TIP3    H122947   2.193   4.301   4.404
 7661TIP3    H222948   2.290   4.225   4.316
 7662TIP3   OH222949   3.030   1.820   2.676
 7662TIP3    H122950   3.021   1.744   2.733
 7662TIP3    H222951   3.023   1.785   2.587
 7663TIP3   OH222952   3.080   0.746   1.448
 7663TIP3    H122953   3.166   0.735   1.489
 7663TIP3    H222954   3.056   0.837   1.468
 7664TIP3   OH222955   3.348   6.753   0.816
 7664TIP3    H122956   3.389   6.676   0.856
 7664TIP3    H222957   3.418   6.818   0.812
 7665TIP3   OH222958   1.850   2.837   1.782
 7665TIP3    H122959   1.842   2.932   1.774
 7665TIP3    H222960   1.881   2.823   1.872
 7666TIP3   OH222961   5.119   0.084   5.290
 7666TIP3    H122962   5.104   0.133   5.210
 7666TIP3    H222963   5.105  -0.008   5.265
 7667TIP3   OH222964   1.723   2.217   0.906
 7667TIP3    H122965   1.698   2.307   0.882
 7667TIP3    H222966   1.700   2.210   0.998
 7668TIP3   OH222967   4.676   0.285   0.990
 7668TIP3    H122968   4.759   0.238   0.982
 7668TIP3    H222969   4.692   0.369   0.948
 7669TIP3   OH222970   6.632   5.522   4.270
 7669TIP3    H122971   6.721   5.558   4.262
 7669TIP3    H222972   6.615   5.523   4.364
 7670TIP3   OH222973   2.984   3.282   4.520
 7670TIP3    H122974   2.986   3.376   4.537
 7670TIP3    H222975   3.068   3.249   4.554
 7671TIP3   OH222976   1.544   1.301   1.347
 7671TIP3    H122977   1.559   1.236   1.416
 7671TIP3    H222978   1.542   1.250   1.266
 7672TIP3   OH222979   2.430   5.015   1.282
 7672TIP3    H122980   2.370   4.975   1.345
 7672TIP3    H222981   2.442   4.948   1.215
 7673TIP3   OH222982   3.010   2.254   1.778
 7673TIP3    H122983   3.100   2.280   1.798
 7673TIP3    H222984   2.961   2.273   1.858
 7674TIP3   OH222985   1.401   5.619   4.793
 7674TIP3    H122986   1.309   5.645   4.799
 7674TIP3    H222987   1.437   5.636   4.881
 7675TIP3   OH222988   6.759   2.731   3.944
 7675TIP3    H122989   6.770   2.826   3.937
 7675TIP3    H222990   6.729   2.718   4.034
 7676TIP3   OH222991   7.167   0.455   1.717
 7676TIP3    H122992   7.236   0.496   1.665
 7676TIP3    H222993   7.162   0.365   1.682
 7677TIP3   OH222994   6.675   4.713   0.235
 7677TIP3    H122995   6.656   4.700   0.328
 7677TIP3    H222996   6.661   4.806   0.221
 7678TIP3   OH222997   4.771   4.612   3.107
 7678TIP3    H122998   4.697   4.562   3.140
 7678TIP3    H222999   4.831   4.619   3.182
 7679TIP3   OH223000   6.098   4.234   0.047
 7679TIP3    H123001   6.082   4.179   0.123
 7679TIP3    H223002   6.128   4.318   0.082
 7680TIP3   OH223003   4.935   0.170   4.144
 7680TIP3    H123004   4.863   0.205   4.197
 7680TIP3    H223005   4.900   0.090   4.107
 7681TIP3   OH223006   3.516   3.397   2.988
 7681TIP3    H123007   3.452   3.347   3.040
 7681TIP3    H223008   3.557   3.455   3.052
 7682TIP3   OH223009   5.900   3.590   0.466
 7682TIP3    H123010   5.880   3.531   0.394
 7682TIP3    H223011   5.988   3.565   0.494
 7683TIP3   OH223012   5.707   0.582   1.905
 7683TIP3    H123013   5.625   0.598   1.951
 7683TIP3    H223014   5.746   0.507   1.951
 7684TIP3   OH223015   3.511   0.131   3.688
 7684TIP3    H123016   3.429   0.093   3.719
 7684TIP3    H223017   3.565   0.140   3.766
 7685TIP3   OH223018   0.144   0.543   2.414
 7685TIP3    H123019   0.057   0.584   2.421
 7685TIP3    H223020   0.145   0.504   2.326
 7686TIP3   OH223021   6.457   3.616   1.521
 7686TIP3    H123022   6.492   3.556   1.455
 7686TIP3    H223023   6.497   3.587   1.603
 7687TIP3   OH223024   4.912   5.454   0.174
 7687TIP3    H123025   4.918   5.429   0.266
 7687TIP3    H223026   4.961   5.535   0.168
 7688TIP3   OH223027   1.561   1.670   5.291
 7688TIP3    H123028   1.468   1.653   5.309
 7688TIP3    H223029   1.561   1.741   5.226
 7689TIP3   OH223030   0.068   1.526   1.304
 7689TIP3    H123031  -0.004   1.474   1.266
 7689TIP3    H223032   0.126   1.543   1.231
 7690TIP3   OH223033   3.452   6.569   0.134
 7690TIP3    H123034   3.533   6.573   0.084
 7690TIP3    H223035   3.479   6.574   0.226
 7691TIP3   OH223036   3.270   4.526   2.766
 7691TIP3    H123037   3.239   4.580   2.693
 7691TIP3    H223038   3.360   4.503   2.742
 7692TIP3   OH223039   5.581   5.361   2.099
 7692TIP3    H123040   5.633   5.284   2.123
 7692TIP3    H223041   5.645   5.423   2.066
 7693TIP3   OH223042   0.067   0.142   3.305
 7693TIP3    H123043   0.025   0.113   3.224
 7693TIP3    H223044   0.060   0.067   3.364
 7694TIP3   OH223045   0.215   4.221   2.632
 7694TIP3    H123046   0.274   4.275   2.579
 7694TIP3    H223047   0.245   4.236   2.722
 7695TIP3   OH223048   5.203   1.756   1.690
 7695TIP3    H123049   5.165   1.824   1.634
 7695TIP3    H223050   5.189   1.675   1.641
 7696TIP3   OH223051   4.768   0.571   1.109
 7696TIP3    H123052   4.799   0.659   1.088
 7696TIP3    H223053   4.791   0.559   1.201
 7697TIP3   OH223054   6.577   1.267   2.533
 7697TIP3    H123055   6.531   1.304   2.608
 7697TIP3    H223056   6.626   1.193   2.569
 7698TIP3   OH223057   1.697   3.363   1.229
 7698TIP3    H123058   1.610   3.370   1.190
 7698TIP3    H223059   1.733   3.282   1.193
 7699TIP3   OH223060   2.949   2.385   1.482
 7699TIP3    H123061   2.989   2.310   1.526
 7699TIP3    H223062   2.882   2.347   1.425
 7700TIP3   OH223063   0.840   6.606   4.074
 7700TIP3    H123064   0.785   6.591   3.997
 7700TIP3    H223065   0.922   6.640   4.038
 7701TIP3   OH223066   2.638   3.592   1.162
 7701TIP3    H123067   2.577   3.652   1.119
 7701TIP3    H223068   2.678   3.543   1.090
 7702TIP3   OH223069   0.392   5.823   2.120
 7702TIP3    H123070   0.474   5.838   2.073
 7702TIP3    H223071   0.403   5.737   2.161
 7703TIP3   OH223072   7.140   0.613   5.032
 7703TIP3    H123073   7.225   0.648   5.060
 7703TIP3    H223074   7.088   0.691   5.013
 7704TIP3   OH223075   0.678   5.394   3.974
 7704TIP3    H123076   0.722   5.316   4.007
 7704TIP3    H223077   0.664   5.376   3.881
 7705TIP3   OH223078   2.879   0.500   4.586
 7705TIP3    H123079   2.815   0.430   4.599
 7705TIP3    H223080   2.950   0.478   4.645
 7706TIP3   OH223081   2.636   0.068   3.573
 7706TIP3    H123082   2.711   0.049   3.517
 7706TIP3    H223083   2.597   0.147   3.535
 7707TIP3   OH223084   5.816   2.813   3.187
 7707TIP3    H123085   5.756   2.782   3.255
 7707TIP3    H223086   5.903   2.791   3.219
 7708TIP3   OH223087   5.139   3.386   2.376
 7708TIP3    H123088   5.103   3.298   2.372
 7708TIP3    H223089   5.064   3.442   2.397
 7709TIP3   OH223090   4.053   4.697   5.716
 7709TIP3    H123091   4.085   4.649   5.793
 7709TIP3    H223092   4.009   4.774   5.753
 7710TIP3   OH223093   4.555   5.955   2.990
 7710TIP3    H123094   4.553   6.031   3.049
 7710TIP3    H223095   4.646   5.950   2.962
 7711TIP3   OH223096   5.871   3.692   1.068
 7711TIP3    H123097   5.917   3.744   1.134
 7711TIP3    H223098   5.874   3.602   1.102
 7712TIP3   OH223099   3.429   5.687   4.938
 7712TIP3    H123100   3.384   5.771   4.949
 7712TIP3    H223101   3.446   5.657   5.028
 7713TIP3   OH223102   4.582   4.192   4.327
 7713TIP3    H123103   4.515   4.238   4.377
 7713TIP3    H223104   4.540   4.172   4.243
 7714TIP3   OH223105   2.110   6.401   5.069
 7714TIP3    H123106   2.026   6.413   5.025
 7714TIP3    H223107   2.151   6.328   5.022
 7715TIP3   OH223108   3.784   6.684   1.483
 7715TIP3    H123109   3.702   6.651   1.519
 7715TIP3    H223110   3.760   6.766   1.440
 7716TIP3   OH223111   1.251   3.239   0.845
 7716TIP3    H123112   1.242   3.145   0.859
 7716TIP3    H223113   1.345   3.257   0.854
 7717TIP3   OH223114   5.464   6.354   0.406
 7717TIP3    H123115   5.418   6.427   0.365
 7717TIP3    H223116   5.489   6.386   0.493
 7718TIP3   OH223117   7.033   6.237   5.400
 7718TIP3    H123118   7.012   6.155   5.354
 7718TIP3    H223119   6.950   6.284   5.405
 7719TIP3   OH223120   3.335   3.777   1.316
 7719TIP3    H123121   3.309   3.869   1.314
 7719TIP3    H223122   3.327   3.748   1.225
 7720TIP3   OH223123   4.804   6.183   2.608
 7720TIP3    H123124   4.864   6.233   2.553
 7720TIP3    H223125   4.727   6.239   2.618
 7721TIP3   OH223126   0.598   2.565   5.862
 7721TIP3    H123127   0.507   2.540   5.876
 7721TIP3    H223128   0.639   2.558   5.949
 7722TIP3   OH223129   4.306   1.713   0.411
 7722TIP3    H123130   4.219   1.739   0.380
 7722TIP3    H223131   4.331   1.640   0.354
 7723TIP3   OH223132   6.131   3.468   0.549
 7723TIP3    H123133   6.091   3.384   0.570
 7723TIP3    H223134   6.197   3.482   0.617
 7724TIP3   OH223135   5.952   3.854   4.217
 7724TIP3    H123136   6.008   3.838   4.141
 7724TIP3    H223137   5.997   3.923   4.266
 7725TIP3   OH223138   4.569   0.675   4.484
 7725TIP3    H123139   4.617   0.654   4.404
 7725TIP3    H223140   4.581   0.598   4.539
 7726TIP3   OH223141   0.853   5.532   1.248
 7726TIP3    H123142   0.766   5.494   1.233
 7726TIP3    H223143   0.851   5.563   1.338
 7727TIP3   OH223144   2.497   5.336   1.518
 7727TIP3    H123145   2.535   5.423   1.525
 7727TIP3    H223146   2.507   5.298   1.605
 7728TIP3   OH223147   5.664   4.137   1.658
 7728TIP3    H123148   5.580   4.177   1.635
 7728TIP3    H223149   5.725   4.210   1.660
 7729TIP3   OH223150   0.195   1.755   0.359
 7729TIP3    H123151   0.181   1.677   0.306
 7729TIP3    H223152   0.123   1.814   0.336
 7730TIP3   OH223153   4.570   1.059   5.333
 7730TIP3    H123154   4.600   1.053   5.242
 7730TIP3    H223155   4.614   1.136   5.368
 7731TIP3   OH223156   5.499   4.995   1.652
 7731TIP3    H123157   5.456   4.957   1.575
 7731TIP3    H223158   5.465   4.945   1.726
 7732TIP3   OH223159   6.956   2.843   3.264
 7732TIP3    H123160   7.011   2.779   3.308
 7732TIP3    H223161   7.009   2.874   3.191
 7733TIP3   OH223162   4.826   5.809   5.136
 7733TIP3    H123163   4.914   5.823   5.103
 7733TIP3    H223164   4.838   5.790   5.229
 7734TIP3   OH223165   3.054   5.772   0.586
 7734TIP3    H123166   3.005   5.733   0.659
 7734TIP3    H223167   3.145   5.753   0.607
 7735TIP3   OH223168   3.636   5.758   1.111
 7735TIP3    H123169   3.613   5.851   1.114
 7735TIP3    H223170   3.623   5.732   1.020
 7736TIP3   OH223171   4.558   2.707   0.265
 7736TIP3    H123172   4.515   2.627   0.294
 7736TIP3    H223173   4.523   2.775   0.322
 7737TIP3   OH223174   5.481   5.690   0.312
 7737TIP3    H123175   5.518   5.627   0.250
 7737TIP3    H223176   5.400   5.649   0.342
 7738TIP3   OH223177   4.568   4.349   0.238
 7738TIP3    H123178   4.512   4.404   0.293
 7738TIP3    H223179   4.652   4.396   0.235
 7739TIP3   OH223180   0.767   6.513   3.394
 7739TIP3    H123181   0.759   6.603   3.425
 7739TIP3    H223182   0.700   6.465   3.443
 7740TIP3   OH223183   3.112   5.637   2.912
 7740TIP3    H123184   3.207   5.626   2.908
 7740TIP3    H223185   3.079   5.556   2.950
 7741TIP3   OH223186   1.439   1.353   5.142
 7741TIP3    H123187   1.411   1.443   5.126
 7741TIP3    H223188   1.479   1.356   5.229
 7742TIP3   OH223189   6.044   6.741   3.806
 7742TIP3    H123190   6.038   6.707   3.717
 7742TIP3    H223191   5.981   6.813   3.809
 7743TIP3   OH223192   0.264   4.730   5.595
 7743TIP3    H123193   0.293   4.703   5.508
 7743TIP3    H223194   0.240   4.649   5.639
 7744TIP3   OH223195   5.909   3.043   2.172
 7744TIP3    H123196   5.992   3.051   2.124
 7744TIP3    H223197   5.933   3.001   2.254
 7745TIP3   OH223198   3.931   2.304   4.102
 7745TIP3    H123199   3.904   2.374   4.161
 7745TIP3    H223200   3.851   2.278   4.057
 7746TIP3   OH223201   4.180   2.688   4.985
 7746TIP3    H123202   4.270   2.712   4.965
 7746TIP3    H223203   4.131   2.770   4.976
 7747TIP3   OH223204   1.099   3.708   3.458
 7747TIP3    H123205   1.047   3.779   3.496
 7747TIP3    H223206   1.152   3.751   3.391
 7748TIP3   OH223207   5.290   2.156   0.435
 7748TIP3    H123208   5.330   2.119   0.514
 7748TIP3    H223209   5.356   2.217   0.401
 7749TIP3   OH223210   2.316   5.548   3.224
 7749TIP3    H123211   2.373   5.621   3.202
 7749TIP3    H223212   2.332   5.483   3.155
 7750TIP3   OH223213   4.584   3.981   0.301
 7750TIP3    H123214   4.589   4.076   0.305
 7750TIP3    H223215   4.492   3.963   0.283
 7751TIP3   OH223216   2.193   2.725   3.100
 7751TIP3    H123217   2.144   2.740   3.019
 7751TIP3    H223218   2.204   2.812   3.139
 7752TIP3   OH223219   6.678   2.240   3.852
 7752TIP3    H123220   6.667   2.148   3.830
 7752TIP3    H223221   6.771   2.248   3.876
 7753TIP3   OH223222   0.752   3.348   1.956
 7753TIP3    H123223   0.737   3.369   2.048
 7753TIP3    H223224   0.751   3.433   1.911
 7754TIP3   OH223225   4.524   5.046   3.693
 7754TIP3    H123226   4.560   5.038   3.604
 7754TIP3    H223227   4.589   5.001   3.748
 7755TIP3   OH223228   1.995   5.434   1.090
 7755TIP3    H123229   1.960   5.436   1.001
 7755TIP3    H223230   2.090   5.432   1.078
 7756TIP3   OH223231   2.133   6.781   2.801
 7756TIP3    H123232   2.106   6.727   2.727
 7756TIP3    H223233   2.165   6.862   2.761
 7757TIP3   OH223234   0.945   6.492   4.372
 7757TIP3    H123235   0.970   6.510   4.281
 7757TIP3    H223236   0.851   6.509   4.375
 7758TIP3   OH223237   5.405   6.177   2.801
 7758TIP3    H123238   5.357   6.104   2.761
 7758TIP3    H223239   5.402   6.159   2.895
 7759TIP3   OH223240   5.965   1.913   2.403
 7759TIP3    H123241   5.974   1.891   2.495
 7759TIP3    H223242   5.871   1.907   2.385
 7760TIP3   OH223243   3.762   0.575   0.571
 7760TIP3    H123244   3.801   0.661   0.588
 7760TIP3    H223245   3.684   0.572   0.627
 7761TIP3   OH223246   2.174   5.180   4.307
 7761TIP3    H123247   2.243   5.233   4.347
 7761TIP3    H223248   2.093   5.224   4.332
 7762TIP3   OH223249   6.297   2.258   2.394
 7762TIP3    H123250   6.228   2.314   2.429
 7762TIP3    H223251   6.251   2.194   2.341
 7763TIP3   OH223252   5.000   5.061   5.192
 7763TIP3    H123253   5.029   4.971   5.179
 7763TIP3    H223254   4.912   5.064   5.153
 7764TIP3   OH223255   3.915   6.018   5.814
 7764TIP3    H123256   3.965   6.065   5.881
 7764TIP3    H223257   3.960   6.041   5.732
 7765TIP3   OH223258   2.632   4.689   2.054
 7765TIP3    H123259   2.696   4.701   2.124
 7765TIP3    H223260   2.631   4.594   2.038
 7766TIP3   OH223261   5.748   2.513   0.136
 7766TIP3    H123262   5.794   2.506   0.052
 7766TIP3    H223263   5.655   2.515   0.113
 7767TIP3   OH223264   5.950   6.098   3.363
 7767TIP3    H123265   5.969   6.163   3.430
 7767TIP3    H223266   5.984   6.016   3.399
 7768TIP3   OH223267   7.089   3.823   0.217
 7768TIP3    H123268   7.033   3.880   0.270
 7768TIP3    H223269   7.119   3.879   0.145
 7769TIP3   OH223270   4.618   0.499   3.493
 7769TIP3    H123271   4.713   0.497   3.505
 7769TIP3    H223272   4.584   0.524   3.579
 7770TIP3   OH223273   1.239   4.340   5.149
 7770TIP3    H123274   1.233   4.430   5.116
 7770TIP3    H223275   1.243   4.286   5.070
 7771TIP3   OH223276   5.126   4.876   4.288
 7771TIP3    H123277   5.186   4.824   4.342
 7771TIP3    H223278   5.173   4.957   4.271
 7772TIP3   OH223279   1.886   5.186   5.323
 7772TIP3    H123280   1.796   5.167   5.295
 7772TIP3    H223281   1.884   5.277   5.352
 7773TIP3   OH223282   5.408   0.917   3.765
 7773TIP3    H123283   5.390   0.824   3.776
 7773TIP3    H223284   5.353   0.960   3.831
 7774TIP3   OH223285   3.018   2.778   1.274
 7774TIP3    H123286   2.941   2.826   1.306
 7774TIP3    H223287   3.036   2.714   1.343
 7775TIP3   OH223288   7.084   6.688   4.938
 7775TIP3    H123289   7.057   6.627   5.006
 7775TIP3    H223290   7.037   6.769   4.958
 7776TIP3   OH223291   1.958   4.212   3.768
 7776TIP3    H123292   1.976   4.127   3.808
 7776TIP3    H223293   2.032   4.226   3.709
 7777TIP3   OH223294   6.354   2.170   4.240
 7777TIP3    H123295   6.310   2.104   4.294
 7777TIP3    H223296   6.352   2.132   4.152
 7778TIP3   OH223297   6.462   4.262   1.797
 7778TIP3    H123298   6.456   4.342   1.744
 7778TIP3    H223299   6.371   4.232   1.805
 7779TIP3   OH223300   6.226   2.924   5.677
 7779TIP3    H123301   6.217   2.855   5.611
 7779TIP3    H223302   6.144   2.973   5.672
 7780TIP3   OH223303   2.135   5.590   5.499
 7780TIP3    H123304   2.123   5.642   5.578
 7780TIP3    H223305   2.083   5.511   5.514
 7781TIP3   OH223306   0.147   1.574   0.688
 7781TIP3    H123307   0.219   1.588   0.627
 7781TIP3    H223308   0.103   1.495   0.657
 7782TIP3   OH223309   1.114   0.740   1.487
 7782TIP3    H123310   1.068   0.738   1.571
 7782TIP3    H223311   1.083   0.664   1.439
 7783TIP3   OH223312   3.319   3.201   3.672
 7783TIP3    H123313   3.266   3.280   3.664
 7783TIP3    H223314   3.344   3.179   3.583
 7784TIP3   OH223315   1.600   4.109   3.940
 7784TIP3    H123316   1.506   4.095   3.949
 7784TIP3    H223317   1.635   4.096   4.028
 7785TIP3   OH223318   0.698   5.240   0.800
 7785TIP3    H123319   0.628   5.306   0.803
 7785TIP3    H223320   0.687   5.197   0.715
 7786TIP3   OH223321   2.735   2.840   2.440
 7786TIP3    H123322   2.706   2.887   2.361
 7786TIP3    H223323   2.733   2.906   2.509
 7787TIP3   OH223324   2.494   3.491   2.935
 7787TIP3    H123325   2.561   3.557   2.918
 7787TIP3    H223326   2.537   3.427   2.991
 7788TIP3   OH223327   5.969   3.236   2.846
 7788TIP3    H123328   5.927   3.192   2.920
 7788TIP3    H223329   5.906   3.227   2.775
 7789TIP3   OH223330   0.807   4.398   1.892
 7789TIP3    H123331   0.837   4.488   1.909
 7789TIP3    H223332   0.738   4.408   1.827
 7790TIP3   OH223333   2.152   0.417   5.291
 7790TIP3    H123334   2.150   0.501   5.245
 7790TIP3    H223335   2.060   0.396   5.307
 7791TIP3   OH223336   2.072   5.965   2.385
 7791TIP3    H123337   2.070   6.059   2.403
 7791TIP3    H223338   2.157   5.951   2.343
 7792TIP3   OH223339   2.458   4.641   0.849
 7792TIP3    H123340   2.506   4.715   0.885
 7792TIP3    H223341   2.485   4.566   0.902
 7793TIP3   OH223342   2.190   2.022   0.597
 7793TIP3    H123343   2.231   2.105   0.624
 7793TIP3    H223344   2.105   2.048   0.562
 7794TIP3   OH223345   5.186   5.994   2.707
 7794TIP3    H123346   5.117   5.952   2.657
 7794TIP3    H223347   5.176   5.959   2.796
 7795TIP3   OH223348   6.096   5.064   4.732
 7795TIP3    H123349   6.013   5.088   4.773
 7795TIP3    H223350   6.076   5.058   4.639
 7796TIP3   OH223351   6.594   1.258   2.086
 7796TIP3    H123352   6.578   1.246   2.180
 7796TIP3    H223353   6.594   1.353   2.074
 7797TIP3   OH223354   3.922   0.897   5.596
 7797TIP3    H123355   3.875   0.825   5.553
 7797TIP3    H223356   3.965   0.856   5.671
 7798TIP3   OH223357   3.146   4.352   3.745
 7798TIP3    H123358   3.164   4.351   3.839
 7798TIP3    H223359   3.056   4.381   3.737
 7799TIP3   OH223360   3.760   4.345   1.997
 7799TIP3    H123361   3.743   4.307   1.911
 7799TIP3    H223362   3.724   4.433   1.991
 7800TIP3   OH223363   0.021   1.810   0.041
 7800TIP3    H123364   0.036   1.893   0.086
 7800TIP3    H223365  -0.044   1.830  -0.025
 7801TIP3   OH223366   3.375   1.490   5.554
 7801TIP3    H123367   3.376   1.520   5.463
 7801TIP3    H223368   3.285   1.459   5.567
 7802TIP3   OH223369   6.779   0.289   4.114
 7802TIP3    H123370   6.814   0.348   4.048
 7802TIP3    H223371   6.766   0.206   4.068
 7803TIP3   OH223372   6.326   0.781   5.511
 7803TIP3    H123373   6.254   0.797   5.572
 7803TIP3    H223374   6.401   0.759   5.567
 7804TIP3   OH223375   2.384   2.014   3.636
 7804TIP3    H123376   2.367   2.108   3.644
 7804TIP3    H223377   2.298   1.973   3.640
 7805TIP3   OH223378   4.118   3.058   2.526
 7805TIP3    H123379   4.155   3.053   2.438
 7805TIP3    H223380   4.176   3.117   2.573
 7806TIP3   OH223381   4.179   3.005   3.277
 7806TIP3    H123382   4.236   2.937   3.312
 7806TIP3    H223383   4.231   3.046   3.207
 7807TIP3   OH223384   4.359   6.641   4.257
 7807TIP3    H123385   4.363   6.689   4.339
 7807TIP3    H223386   4.273   6.598   4.258
 7808TIP3   OH223387   3.028   2.287   3.979
 7808TIP3    H123388   3.121   2.306   3.988
 7808TIP3    H223389   3.008   2.226   4.050
 7809TIP3   OH223390   4.770   3.757   2.518
 7809TIP3    H123391   4.678   3.747   2.493
 7809TIP3    H223392   4.768   3.791   2.607
 7810TIP3   OH223393   5.683   4.092   3.682
 7810TIP3    H123394   5.622   4.133   3.621
 7810TIP3    H223395   5.751   4.054   3.627
 7811TIP3   OH223396   0.150   1.034   2.411
 7811TIP3    H123397   0.227   0.977   2.404
 7811TIP3    H223398   0.080   0.986   2.367
 7812TIP3   OH223399   6.986   0.943   5.533
 7812TIP3    H123400   7.055   0.877   5.542
 7812TIP3    H223401   7.014   1.014   5.591
 7813TIP3   OH223402   6.167   1.089   0.596
 7813TIP3    H123403   6.207   1.004   0.577
 7813TIP3    H223404   6.172   1.096   0.691
 7814TIP3   OH223405   6.254   0.387   2.244
 7814TIP3    H123406   6.218   0.450   2.182
 7814TIP3    H223407   6.349   0.395   2.234
 7815TIP3   OH223408   2.488   3.037   1.373
 7815TIP3    H123409   2.533   2.984   1.438
 7815TIP3    H223410   2.555   3.097   1.340
 7816TIP3   OH223411   0.700   4.270   2.108
 7816TIP3    H123412   0.743   4.305   2.030
 7816TIP3    H223413   0.661   4.346   2.151
 7817TIP3   OH223414   1.325   1.181   0.867
 7817TIP3    H123415   1.407   1.189   0.915
 7817TIP3    H223416   1.276   1.261   0.890
 7818TIP3   OH223417   0.341   5.265   3.482
 7818TIP3    H123418   0.342   5.180   3.526
 7818TIP3    H223419   0.408   5.257   3.413
 7819TIP3   OH223420   5.860   1.183   2.195
 7819TIP3    H123421   5.924   1.119   2.227
 7819TIP3    H223422   5.776   1.149   2.224
 7820TIP3   OH223423   4.035   2.532   4.774
 7820TIP3    H123424   4.059   2.601   4.713
 7820TIP3    H223425   3.990   2.578   4.845
 7821TIP3   OH223426   0.200   1.610   0.081
 7821TIP3    H123427   0.141   1.680   0.052
 7821TIP3    H223428   0.143   1.550   0.130
 7822TIP3   OH223429   0.683   0.542   2.731
 7822TIP3    H123430   0.649   0.455   2.712
 7822TIP3    H223431   0.605   0.597   2.742
 7823TIP3   OH223432   0.994   1.640   3.929
 7823TIP3    H123433   0.929   1.710   3.929
 7823TIP3    H223434   1.073   1.679   3.892
 7824TIP3   OH223435   4.289   2.709   0.863
 7824TIP3    H123436   4.329   2.796   0.860
 7824TIP3    H223437   4.204   2.724   0.905
 7825TIP3   OH223438   4.317   5.582   0.349
 7825TIP3    H123439   4.340   5.663   0.304
 7825TIP3    H223440   4.232   5.601   0.389
 7826TIP3   OH223441   1.026   2.625   4.030
 7826TIP3    H123442   0.966   2.680   4.080
 7826TIP3    H223443   0.989   2.625   3.941
 7827TIP3   OH223444   1.327   6.737   0.070
 7827TIP3    H123445   1.381   6.675   0.020
 7827TIP3    H223446   1.264   6.681   0.116
 7828TIP3   OH223447   5.958   4.557   1.310
 7828TIP3    H123448   5.983   4.498   1.240
 7828TIP3    H223449   5.908   4.627   1.267
 7829TIP3   OH223450   5.428   2.420   3.442
 7829TIP3    H123451   5.502   2.364   3.467
 7829TIP3    H223452   5.421   2.408   3.347
 7830TIP3   OH223453   6.279   3.203   0.703
 7830TIP3    H123454   6.300   3.145   0.776
 7830TIP3    H223455   6.350   3.192   0.641
 7831TIP3   OH223456   6.875   1.136   0.192
 7831TIP3    H123457   6.851   1.229   0.191
 7831TIP3    H223458   6.956   1.131   0.142
 7832TIP3   OH223459   3.950   4.700   5.265
 7832TIP3    H123460   4.015   4.699   5.195
 7832TIP3    H223461   3.927   4.608   5.279
 7833TIP3   OH223462   0.148   2.675   4.932
 7833TIP3    H123463   0.121   2.664   4.840
 7833TIP3    H223464   0.202   2.599   4.951
 7834TIP3   OH223465   4.571   0.832   5.081
 7834TIP3    H123466   4.605   0.826   4.992
 7834TIP3    H223467   4.488   0.879   5.072
 7835TIP3   OH223468   1.419   6.382   3.248
 7835TIP3    H123469   1.340   6.430   3.223
 7835TIP3    H223470   1.387   6.307   3.297
 7836TIP3   OH223471   0.417   6.526   4.330
 7836TIP3    H123472   0.404   6.614   4.293
 7836TIP3    H223473   0.353   6.472   4.285
 7837TIP3   OH223474   1.987   3.198   4.857
 7837TIP3    H123475   2.015   3.200   4.766
 7837TIP3    H223476   1.944   3.283   4.872
 7838TIP3   OH223477   5.081   0.310   2.708
 7838TIP3    H123478   5.016   0.368   2.667
 7838TIP3    H223479   5.163   0.359   2.704
 7839TIP3   OH223480   6.455   5.914   0.820
 7839TIP3    H123481   6.433   5.984   0.759
 7839TIP3    H223482   6.425   5.946   0.906
 7840TIP3   OH223483   1.478   6.362   1.889
 7840TIP3    H123484   1.553   6.318   1.849
 7840TIP3    H223485   1.430   6.292   1.934
 7841TIP3   OH223486   2.728   0.284   3.182
 7841TIP3    H123487   2.645   0.269   3.136
 7841TIP3    H223488   2.706   0.344   3.253
 7842TIP3   OH223489   0.836   6.822   2.847
 7842TIP3    H123490   0.834   6.739   2.894
 7842TIP3    H223491   0.917   6.818   2.795
 7843TIP3   OH223492   6.873   2.474   5.116
 7843TIP3    H123493   6.901   2.521   5.037
 7843TIP3    H223494   6.842   2.390   5.085
 7844TIP3   OH223495   2.952   6.260   5.739
 7844TIP3    H123496   2.892   6.285   5.669
 7844TIP3    H223497   2.896   6.227   5.809
 7845TIP3   OH223498   1.815   4.858   3.229
 7845TIP3    H123499   1.903   4.861   3.191
 7845TIP3    H223500   1.762   4.912   3.171
 7846TIP3   OH223501   7.058   3.542   5.334
 7846TIP3    H123502   6.971   3.549   5.296
 7846TIP3    H223503   7.067   3.450   5.359
 7847TIP3   OH223504   0.190   4.787   0.210
 7847TIP3    H123505   0.137   4.713   0.239
 7847TIP3    H223506   0.275   4.750   0.189
 7848TIP3   OH223507   3.732   5.210   3.986
 7848TIP3    H123508   3.761   5.251   3.904
 7848TIP3    H223509   3.768   5.266   4.055
 7849TIP3   OH223510   3.617   6.581   1.816
 7849TIP3    H123511   3.558   6.558   1.744
 7849TIP3    H223512   3.559   6.613   1.885
 7850TIP3   OH223513   7.052   5.919   3.537
 7850TIP3    H123514   7.025   5.877   3.618
 7850TIP3    H223515   7.057   6.012   3.558
 7851TIP3   OH223516   4.638   2.948   4.981
 7851TIP3    H123517   4.597   3.023   4.938
 7851TIP3    H223518   4.612   2.873   4.927
 7852TIP3   OH223519   2.949   3.410   3.883
 7852TIP3    H123520   2.871   3.378   3.928
 7852TIP3    H223521   3.020   3.355   3.916
 7853TIP3   OH223522   2.623   4.282   4.364
 7853TIP3    H123523   2.625   4.230   4.284
 7853TIP3    H223524   2.539   4.329   4.360
 7854TIP3   OH223525   6.068   0.454   4.256
 7854TIP3    H123526   6.142   0.503   4.221
 7854TIP3    H223527   5.995   0.477   4.198
 7855TIP3   OH223528   5.428   4.458   5.323
 7855TIP3    H123529   5.455   4.549   5.335
 7855TIP3    H223530   5.373   4.459   5.245
 7856TIP3   OH223531  -0.034   2.704   0.816
 7856TIP3    H123532  -0.044   2.610   0.831
 7856TIP3    H223533  -0.049   2.743   0.902
 7857TIP3   OH223534   4.114   3.210   0.323
 7857TIP3    H123535   4.131   3.122   0.289
 7857TIP3    H223536   4.175   3.266   0.275
 7858TIP3   OH223537   2.749   2.152   1.402
 7858TIP3    H123538   2.784   2.083   1.346
 7858TIP3    H223539   2.679   2.109   1.451
 7859TIP3   OH223540   3.685   4.723   0.794
 7859TIP3    H123541   3.716   4.633   0.784
 7859TIP3    H223542   3.761   4.777   0.772
 7860TIP3   OH223543   0.659   5.057   1.978
 7860TIP3    H123544   0.723   5.099   1.920
 7860TIP3    H223545   0.713   5.007   2.040
 7861TIP3   OH223546   0.021   0.684   2.652
 7861TIP3    H123547  -0.029   0.611   2.688
 7861TIP3    H223548   0.013   0.754   2.717
 7862TIP3   OH223549   5.689   1.022   1.709
 7862TIP3    H123550   5.618   1.087   1.714
 7862TIP3    H223551   5.752   1.051   1.775
 7863TIP3   OH223552   3.895   1.779   4.756
 7863TIP3    H123553   3.908   1.795   4.663
 7863TIP3    H223554   3.880   1.685   4.762
 7864TIP3   OH223555   6.680   2.821   5.757
 7864TIP3    H123556   6.770   2.839   5.731
 7864TIP3    H223557   6.681   2.822   5.852
 7865TIP3   OH223558   0.770   0.045   1.243
 7865TIP3    H123559   0.726   0.109   1.298
 7865TIP3    H223560   0.847   0.019   1.293
 7866TIP3   OH223561   6.325   0.607   4.208
 7866TIP3    H123562   6.349   0.686   4.159
 7866TIP3    H223563   6.399   0.547   4.195
 7867TIP3   OH223564   1.187   6.446   1.422
 7867TIP3    H123565   1.230   6.485   1.346
 7867TIP3    H223566   1.242   6.470   1.496
 7868TIP3   OH223567   4.140   2.459   4.467
 7868TIP3    H123568   4.171   2.399   4.400
 7868TIP3    H223569   4.218   2.510   4.491
 7869TIP3   OH223570   4.772   3.552   4.445
 7869TIP3    H123571   4.776   3.629   4.389
 7869TIP3    H223572   4.835   3.491   4.407
 7870TIP3   OH223573   6.983   4.300   0.881
 7870TIP3    H123574   7.061   4.308   0.936
 7870TIP3    H223575   6.912   4.336   0.933
 7871TIP3   OH223576   2.715   5.258   3.135
 7871TIP3    H123577   2.711   5.170   3.173
 7871TIP3    H223578   2.742   5.314   3.208
 7872TIP3   OH223579   3.823   5.756   2.958
 7872TIP3    H123580   3.774   5.818   3.013
 7872TIP3    H223581   3.910   5.796   2.949
 7873TIP3   OH223582   2.036   3.462   4.468
 7873TIP3    H123583   2.050   3.455   4.373
 7873TIP3    H223584   2.009   3.552   4.482
 7874TIP3   OH223585   3.039   2.300   2.066
 7874TIP3    H123586   3.048   2.351   2.146
 7874TIP3    H223587   3.121   2.313   2.019
 7875TIP3   OH223588   0.534   5.313   1.525
 7875TIP3    H123589   0.618   5.322   1.570
 7875TIP3    H223590   0.478   5.380   1.566
 7876TIP3   OH223591   1.274   2.213   4.771
 7876TIP3    H123592   1.242   2.176   4.690
 7876TIP3    H223593   1.195   2.242   4.818
 7877TIP3   OH223594   7.196   4.861   5.540
 7877TIP3    H123595   7.207   4.822   5.454
 7877TIP3    H223596   7.140   4.800   5.588
 7878TIP3   OH223597   5.571   0.220   2.526
 7878TIP3    H123598   5.596   0.310   2.544
 7878TIP3    H223599   5.601   0.171   2.603
 7879TIP3   OH223600   3.571   2.509   4.941
 7879TIP3    H123601   3.527   2.584   4.980
 7879TIP3    H223602   3.524   2.433   4.976
 7880TIP3   OH223603   1.229   0.138   5.213
 7880TIP3    H123604   1.264   0.222   5.182
 7880TIP3    H223605   1.301   0.076   5.199
 7881TIP3   OH223606   2.998   4.649   1.201
 7881TIP3    H123607   3.075   4.651   1.143
 7881TIP3    H223608   2.923   4.655   1.142
 7882TIP3   OH223609   6.528   4.314   3.557
 7882TIP3    H123610   6.554   4.224   3.537
 7882TIP3    H223611   6.540   4.361   3.474
 7883TIP3   OH223612   0.407   2.617   4.683
 7883TIP3    H123613   0.313   2.637   4.681
 7883TIP3    H223614   0.416   2.541   4.625
 7884TIP3   OH223615   5.170   2.249   1.698
 7884TIP3    H123616   5.121   2.313   1.751
 7884TIP3    H223617   5.124   2.246   1.614
 7885TIP3   OH223618   2.031   5.940   4.387
 7885TIP3    H123619   1.949   5.934   4.436
 7885TIP3    H223620   2.030   6.028   4.349
 7886TIP3   OH223621   0.600   5.352   2.680
 7886TIP3    H123622   0.660   5.416   2.718
 7886TIP3    H223623   0.653   5.274   2.664
 7887TIP3   OH223624   3.405   3.464   0.856
 7887TIP3    H123625   3.465   3.460   0.931
 7887TIP3    H223626   3.382   3.556   0.849
 7888TIP3   OH223627   4.065   6.009   3.506
 7888TIP3    H123628   4.131   5.960   3.456
 7888TIP3    H223629   4.102   6.097   3.515
 7889TIP3   OH223630   2.528   6.051   0.267
 7889TIP3    H123631   2.437   6.026   0.277
 7889TIP3    H223632   2.531   6.100   0.184
 7890TIP3   OH223633   3.125   1.550   0.185
 7890TIP3    H123634   3.070   1.599   0.125
 7890TIP3    H223635   3.090   1.461   0.182
 7891TIP3   OH223636   0.991   2.869   3.131
 7891TIP3    H123637   0.947   2.791   3.167
 7891TIP3    H223638   1.066   2.883   3.189
 7892TIP3   OH223639   2.247   6.224   2.660
 7892TIP3    H123640   2.292   6.308   2.664
 7892TIP3    H223641   2.188   6.232   2.585
 7893TIP3   OH223642   1.937   4.381   0.055
 7893TIP3    H123643   1.864   4.388   0.117
 7893TIP3    H223644   1.955   4.471   0.029
 7894TIP3   OH223645   6.031   2.687   3.322
 7894TIP3    H123646   6.011   2.609   3.271
 7894TIP3    H223647   6.120   2.711   3.296
 7895TIP3   OH223648   3.743   3.650   1.416
 7895TIP3    H123649   3.718   3.577   1.472
 7895TIP3    H223650   3.801   3.612   1.350
 7896TIP3   OH223651   2.278   0.862   3.233
 7896TIP3    H123652   2.275   0.953   3.204
 7896TIP3    H223653   2.332   0.863   3.312
 7897TIP3   OH223654   0.913   5.145   4.573
 7897TIP3    H123655   0.938   5.103   4.655
 7897TIP3    H223656   0.817   5.144   4.574
 7898TIP3   OH223657   5.034   0.244   3.797
 7898TIP3    H123658   5.065   0.154   3.786
 7898TIP3    H223659   4.940   0.235   3.813
 7899TIP3   OH223660   2.681   6.682   4.175
 7899TIP3    H123661   2.632   6.696   4.256
 7899TIP3    H223662   2.756   6.629   4.200
 7900TIP3   OH223663   2.787   5.460   5.188
 7900TIP3    H123664   2.733   5.507   5.251
 7900TIP3    H223665   2.777   5.508   5.106
 7901TIP3   OH223666   1.327   3.713   3.048
 7901TIP3    H123667   1.325   3.716   3.143
 7901TIP3    H223668   1.395   3.776   3.023
 7902TIP3   OH223669   5.332   6.258   1.431
 7902TIP3    H123670   5.244   6.227   1.408
 7902TIP3    H223671   5.325   6.283   1.524
 7903TIP3   OH223672   1.491   2.297   0.422
 7903TIP3    H123673   1.414   2.341   0.388
 7903TIP3    H223674   1.543   2.275   0.345
 7904TIP3   OH223675   2.448   0.756   4.392
 7904TIP3    H123676   2.430   0.791   4.305
 7904TIP3    H223677   2.538   0.725   4.387
 7905TIP3   OH223678   5.463   6.118   3.046
 7905TIP3    H123679   5.538   6.086   3.096
 7905TIP3    H223680   5.415   6.174   3.108
 7906TIP3   OH223681   4.659   1.377   3.589
 7906TIP3    H123682   4.722   1.313   3.558
 7906TIP3    H223683   4.680   1.458   3.542
 7907TIP3   OH223684   0.148   4.169   3.319
 7907TIP3    H123685   0.088   4.207   3.254
 7907TIP3    H223686   0.103   4.182   3.402
 7908TIP3   OH223687   5.987   2.432   1.939
 7908TIP3    H123688   6.037   2.466   2.013
 7908TIP3    H223689   5.896   2.438   1.967
 7909TIP3   OH223690   0.998   1.354   2.130
 7909TIP3    H123691   1.023   1.290   2.196
 7909TIP3    H223692   0.968   1.302   2.055
 7910TIP3   OH223693   3.182   1.532   2.807
 7910TIP3    H123694   3.190   1.536   2.903
 7910TIP3    H223695   3.087   1.528   2.791
 7911TIP3   OH223696   0.259   5.559   5.552
 7911TIP3    H123697   0.204   5.481   5.555
 7911TIP3    H223698   0.347   5.527   5.569
 7912TIP3   OH223699   2.735   2.567   3.742
 7912TIP3    H123700   2.647   2.598   3.720
 7912TIP3    H223701   2.733   2.553   3.837
 7913TIP3   OH223702   0.105   2.824   0.592
 7913TIP3    H123703   0.069   2.787   0.673
 7913TIP3    H223704   0.200   2.815   0.603
 7914TIP3   OH223705   2.850   5.293   4.962
 7914TIP3    H123706   2.828   5.360   5.027
 7914TIP3    H223707   2.782   5.227   4.972
 7915TIP3   OH223708   1.651   1.770   4.500
 7915TIP3    H123709   1.736   1.731   4.484
 7915TIP3    H223710   1.661   1.817   4.583
 7916TIP3   OH223711   4.019   5.593  -0.036
 7916TIP3    H123712   3.943   5.649  -0.018
 7916TIP3    H223713   4.094   5.645  -0.007
 7917TIP3   OH223714   4.340   2.304   0.929
 7917TIP3    H123715   4.370   2.282   1.017
 7917TIP3    H223716   4.372   2.393   0.914
 7918TIP3   OH223717   4.710   5.572   0.708
 7918TIP3    H123718   4.688   5.611   0.623
 7918TIP3    H223719   4.702   5.478   0.694
 7919TIP3   OH223720   2.736   1.935   4.583
 7919TIP3    H123721   2.670   1.910   4.518
 7919TIP3    H223722   2.721   1.874   4.656
 7920TIP3   OH223723   0.226   4.609   4.701
 7920TIP3    H123724   0.180   4.683   4.740
 7920TIP3    H223725   0.230   4.630   4.607
 7921TIP3   OH223726   6.768   6.167   0.996
 7921TIP3    H123727   6.834   6.190   1.062
 7921TIP3    H223728   6.758   6.072   1.004
 7922TIP3   OH223729   1.383   2.103   3.328
 7922TIP3    H123730   1.410   2.121   3.418
 7922TIP3    H223731   1.324   2.028   3.335
 7923TIP3   OH223732   2.738   6.392   5.612
 7923TIP3    H123733   2.783   6.373   5.530
 7923TIP3    H223734   2.646   6.401   5.587
 7924TIP3   OH223735   5.696   2.054   2.847
 7924TIP3    H123736   5.768   2.067   2.909
 7924TIP3    H223737   5.647   1.980   2.883
 7925TIP3   OH223738   6.978   5.552   3.206
 7925TIP3    H123739   6.948   5.630   3.252
 7925TIP3    H223740   6.899   5.498   3.197
 7926TIP3   OH223741   3.001   5.366   3.297
 7926TIP3    H123742   2.960   5.417   3.367
 7926TIP3    H223743   2.985   5.275   3.321
 7927TIP3   OH223744   0.774   5.094   4.954
 7927TIP3    H123745   0.866   5.094   4.925
 7927TIP3    H223746   0.750   5.001   4.955
 7928TIP3   OH223747   6.891   1.555   2.130
 7928TIP3    H123748   6.829   1.598   2.189
 7928TIP3    H223749   6.871   1.590   2.044
 7929TIP3   OH223750   3.805   2.337   4.677
 7929TIP3    H123751   3.865   2.412   4.680
 7929TIP3    H223752   3.723   2.374   4.644
 7930TIP3   OH223753   2.640   3.669   1.588
 7930TIP3    H123754   2.718   3.704   1.629
 7930TIP3    H223755   2.568   3.724   1.621
 7931TIP3   OH223756   1.466   4.044   5.257
 7931TIP3    H123757   1.503   4.132   5.263
 7931TIP3    H223758   1.396   4.042   5.322
 7932TIP3   OH223759   3.967   4.603   1.902
 7932TIP3    H123760   3.891   4.599   1.845
 7932TIP3    H223761   3.934   4.643   1.983
 7933TIP3   OH223762   6.095   5.121   3.334
 7933TIP3    H123763   6.050   5.100   3.252
 7933TIP3    H223764   6.118   5.213   3.326
 7934TIP3   OH223765   3.625   4.811   4.158
 7934TIP3    H123766   3.670   4.875   4.101
 7934TIP3    H223767   3.679   4.733   4.152
 7935TIP3   OH223768   4.847   5.344   5.063
 7935TIP3    H123769   4.795   5.267   5.086
 7935TIP3    H223770   4.858   5.338   4.968
 7936TIP3   OH223771   1.288   0.300   4.820
 7936TIP3    H123772   1.263   0.222   4.870
 7936TIP3    H223773   1.360   0.269   4.764
 7937TIP3   OH223774   1.483   6.179   4.736
 7937TIP3    H123775   1.571   6.167   4.771
 7937TIP3    H223776   1.433   6.105   4.770
 7938TIP3   OH223777   4.293   5.141   4.002
 7938TIP3    H123778   4.278   5.190   4.083
 7938TIP3    H223779   4.383   5.109   4.010
 7939TIP3   OH223780   0.151   1.209   0.260
 7939TIP3    H123781   0.243   1.190   0.243
 7939TIP3    H223782   0.130   1.156   0.337
 7940TIP3   OH223783   2.972   5.479   0.446
 7940TIP3    H123784   2.890   5.463   0.400
 7940TIP3    H223785   2.945   5.514   0.531
 7941TIP3   OH223786   0.457   0.529   5.263
 7941TIP3    H123787   0.522   0.549   5.197
 7941TIP3    H223788   0.485   0.578   5.340
 7942TIP3   OH223789   7.116   5.221   4.353
 7942TIP3    H123790   7.075   5.173   4.281
 7942TIP3    H223791   7.109   5.313   4.328
 7943TIP3   OH223792   5.404   6.063   4.393
 7943TIP3    H123793   5.357   6.146   4.380
 7943TIP3    H223794   5.388   6.014   4.312
 7944TIP3   OH223795   0.446   3.858   3.819
 7944TIP3    H123796   0.449   3.950   3.845
 7944TIP3    H223797   0.368   3.823   3.861
 7945TIP3   OH223798   3.954   4.466   1.266
 7945TIP3    H123799   3.943   4.373   1.288
 7945TIP3    H223800   3.968   4.466   1.171
 7946TIP3   OH223801   0.096   6.635   5.274
 7946TIP3    H123802   0.146   6.554   5.283
 7946TIP3    H223803   0.008   6.613   5.304
 7947TIP3   OH223804   2.237   3.748   3.497
 7947TIP3    H123805   2.154   3.709   3.470
 7947TIP3    H223806   2.272   3.788   3.417
 7948TIP3   OH223807   1.025   5.089   3.633
 7948TIP3    H123808   1.100   5.098   3.575
 7948TIP3    H223809   1.061   5.053   3.714
 7949TIP3   OH223810   3.008   0.481   1.393
 7949TIP3    H123811   3.087   0.442   1.431
 7949TIP3    H223812   3.026   0.576   1.394
 7950TIP3   OH223813   6.487   3.642   0.948
 7950TIP3    H123814   6.540   3.694   1.008
 7950TIP3    H223815   6.400   3.681   0.953
 7951TIP3   OH223816   0.819   4.968   0.428
 7951TIP3    H123817   0.801   4.908   0.356
 7951TIP3    H223818   0.912   4.991   0.418
 7952TIP3   OH223819   3.666   2.037   5.742
 7952TIP3    H123820   3.714   2.117   5.721
 7952TIP3    H223821   3.732   1.967   5.737
 7953TIP3   OH223822   6.062   5.734   1.666
 7953TIP3    H123823   6.127   5.750   1.597
 7953TIP3    H223824   6.111   5.689   1.735
 7954TIP3   OH223825   2.137   1.030   4.374
 7954TIP3    H123826   2.169   1.024   4.464
 7954TIP3    H223827   2.181   0.959   4.327
 7955TIP3   OH223828   2.671   6.545   0.661
 7955TIP3    H123829   2.741   6.610   0.669
 7955TIP3    H223830   2.716   6.463   0.643
 7956TIP3   OH223831   4.822   4.620   0.997
 7956TIP3    H123832   4.882   4.629   1.072
 7956TIP3    H223833   4.735   4.612   1.036
 7957TIP3   OH223834   5.696   6.058   5.492
 7957TIP3    H123835   5.645   5.977   5.504
 7957TIP3    H223836   5.669   6.114   5.565
 7958TIP3   OH223837   6.802   5.288   3.211
 7958TIP3    H123838   6.830   5.283   3.303
 7958TIP3    H223839   6.877   5.256   3.162
 7959TIP3   OH223840   7.103   5.722   5.068
 7959TIP3    H123841   7.078   5.632   5.087
 7959TIP3    H223842   7.161   5.714   4.991
 7960TIP3   OH223843   2.205   3.473   5.202
 7960TIP3    H123844   2.120   3.469   5.246
 7960TIP3    H223845   2.186   3.463   5.109
 7961TIP3   OH223846   4.713   0.623   4.254
 7961TIP3    H123847   4.793   0.582   4.287
 7961TIP3    H223848   4.719   0.614   4.159
 7962TIP3   OH223849   5.336   4.208   1.708
 7962TIP3    H123850   5.316   4.132   1.653
 7962TIP3    H223851   5.266   4.271   1.687
 7963TIP3   OH223852   4.993   3.071   4.374
 7963TIP3    H123853   4.956   3.010   4.311
 7963TIP3    H223854   4.988   3.024   4.458
 7964TIP3   OH223855   1.853   6.276   0.138
 7964TIP3    H123856   1.801   6.356   0.141
 7964TIP3    H223857   1.898   6.273   0.222
 7965TIP3   OH223858   5.601   1.683   0.663
 7965TIP3    H123859   5.554   1.602   0.685
 7965TIP3    H223860   5.664   1.657   0.596
 7966TIP3   OH223861   5.431   0.868   3.497
 7966TIP3    H123862   5.365   0.932   3.470
 7966TIP3    H223863   5.430   0.871   3.593
 7967TIP3   OH223864   1.045   2.123   3.723
 7967TIP3    H123865   0.966   2.103   3.774
 7967TIP3    H223866   1.118   2.098   3.781
 7968TIP3   OH223867   4.939   4.273   5.189
 7968TIP3    H123868   4.967   4.362   5.167
 7968TIP3    H223869   4.879   4.284   5.263
 7969TIP3   OH223870   0.101   0.588   4.497
 7969TIP3    H123871   0.047   0.604   4.575
 7969TIP3    H223872   0.089   0.494   4.479
 7970TIP3   OH223873   4.793   4.233   0.472
 7970TIP3    H123874   4.793   4.307   0.411
 7970TIP3    H223875   4.885   4.212   0.485
 7971TIP3   OH223876   2.466   6.057   2.927
 7971TIP3    H123877   2.430   6.142   2.953
 7971TIP3    H223878   2.429   6.040   2.841
 7972TIP3   OH223879   6.287   5.079   2.498
 7972TIP3    H123880   6.238   5.158   2.475
 7972TIP3    H223881   6.343   5.062   2.422
 7973TIP3   OH223882   6.614   1.937   3.785
 7973TIP3    H123883   6.641   1.984   3.706
 7973TIP3    H223884   6.672   1.861   3.790
 7974TIP3   OH223885   4.597   1.917   1.305
 7974TIP3    H123886   4.503   1.903   1.316
 7974TIP3    H223887   4.613   2.003   1.345
 7975TIP3   OH223888   5.993   4.746   3.664
 7975TIP3    H123889   6.086   4.767   3.677
 7975TIP3    H223890   5.987   4.652   3.679
 7976TIP3   OH223891   4.413   2.532   5.150
 7976TIP3    H123892   4.499   2.490   5.152
 7976TIP3    H223893   4.433   2.625   5.136
 7977TIP3   OH223894   2.077   6.518   5.343
 7977TIP3    H123895   2.064   6.443   5.401
 7977TIP3    H223896   2.083   6.479   5.256
 7978TIP3   OH223897   2.551   0.561   2.781
 7978TIP3    H123898   2.636   0.568   2.824
 7978TIP3    H223899   2.491   0.536   2.852
 7979TIP3   OH223900   0.549   0.399   1.917
 7979TIP3    H123901   0.594   0.315   1.912
 7979TIP3    H223902   0.560   0.428   2.007
 7980TIP3   OH223903   3.556   0.519   0.747
 7980TIP3    H123904   3.614   0.501   0.821
 7980TIP3    H223905   3.509   0.599   0.771
 7981TIP3   OH223906   7.239   5.625   5.320
 7981TIP3    H123907   7.154   5.579   5.325
 7981TIP3    H223908   7.230   5.698   5.381
 7982TIP3   OH223909   5.980   5.245   1.939
 7982TIP3    H123910   6.001   5.159   1.977
 7982TIP3    H223911   5.985   5.231   1.844
 7983TIP3   OH223912   5.703   3.275   3.448
 7983TIP3    H123913   5.751   3.307   3.371
 7983TIP3    H223914   5.685   3.354   3.499
 7984TIP3   OH223915   6.318   3.831   0.687
 7984TIP3    H123916   6.282   3.811   0.773
 7984TIP3    H223917   6.252   3.886   0.646
 7985TIP3   OH223918   3.108   5.373   2.306
 7985TIP3    H123919   3.172   5.321   2.354
 7985TIP3    H223920   3.147   5.460   2.299
 7986TIP3   OH223921   2.587   2.869   1.635
 7986TIP3    H123922   2.657   2.892   1.697
 7986TIP3    H223923   2.578   2.774   1.644
 7987TIP3   OH223924   2.439   6.361   2.419
 7987TIP3    H123925   2.454   6.400   2.505
 7987TIP3    H223926   2.375   6.418   2.377
 7988TIP3   OH223927   1.623   5.492   4.063
 7988TIP3    H123928   1.637   5.481   4.157
 7988TIP3    H223929   1.593   5.582   4.053
 7989TIP3   OH223930   4.709   6.416   2.011
 7989TIP3    H123931   4.720   6.430   2.105
 7989TIP3    H223932   4.707   6.505   1.974
 7990TIP3   OH223933   6.648   6.780   3.637
 7990TIP3    H123934   6.581   6.849   3.643
 7990TIP3    H223935   6.685   6.790   3.549
 7991TIP3   OH223936   4.880   6.737   2.212
 7991TIP3    H123937   4.797   6.771   2.180
 7991TIP3    H223938   4.913   6.805   2.270
 7992TIP3   OH223939   4.529   0.913   3.627
 7992TIP3    H123940   4.503   1.005   3.630
 7992TIP3    H223941   4.450   0.864   3.652
 7993TIP3   OH223942   4.521   5.680   3.374
 7993TIP3    H123943   4.560   5.767   3.374
 7993TIP3    H223944   4.522   5.653   3.282
 7994TIP3   OH223945   2.344   4.743   5.804
 7994TIP3    H123946   2.415   4.745   5.741
 7994TIP3    H223947   2.356   4.661   5.852
 7995TIP3   OH223948   6.863   2.462   3.985
 7995TIP3    H123949   6.928   2.494   4.047
 7995TIP3    H223950   6.809   2.538   3.964
 7996TIP3   OH223951   5.139   4.029   4.319
 7996TIP3    H123952   5.076   4.081   4.269
 7996TIP3    H223953   5.222   4.075   4.309
 7997TIP3   OH223954   2.737   3.416   2.434
 7997TIP3    H123955   2.706   3.504   2.409
 7997TIP3    H223956   2.700   3.401   2.521
 7998TIP3   OH223957   4.006   0.457   3.913
 7998TIP3    H123958   4.008   0.546   3.878
 7998TIP3    H223959   3.984   0.468   4.006
 7999TIP3   OH223960   0.235   2.273   5.746
 7999TIP3    H123961   0.326   2.246   5.729
 7999TIP3    H223962   0.204   2.211   5.811
 8000TIP3   OH223963   2.686   1.895   1.024
 8000TIP3    H123964   2.730   1.942   0.953
 8000TIP3    H223965   2.619   1.843   0.979
 8001TIP3   OH223966   5.623   2.246   0.281
 8001TIP3    H123967   5.537   2.287   0.275
 8001TIP3    H223968   5.683   2.319   0.300
 8002TIP3   OH223969   0.530   0.325   2.619
 8002TIP3    H123970   0.585   0.252   2.647
 8002TIP3    H223971   0.440   0.295   2.630
 8003TIP3   OH223972   4.030   5.486   1.450
 8003TIP3    H123973   4.098   5.518   1.510
 8003TIP3    H223974   3.967   5.558   1.444
 8004TIP3   OH223975   2.108   4.606   3.192
 8004TIP3    H123976   2.158   4.533   3.230
 8004TIP3    H223977   2.066   4.568   3.115
 8005TIP3   OH223978   2.636   2.264   4.183
 8005TIP3    H123979   2.557   2.284   4.233
 8005TIP3    H223980   2.707   2.299   4.237
 8006TIP3   OH223981   3.875   6.440   1.829
 8006TIP3    H123982   3.783   6.468   1.832
 8006TIP3    H223983   3.921   6.503   1.884
 8007TIP3   OH223984   2.530   0.573   1.753
 8007TIP3    H123985   2.531   0.568   1.848
 8007TIP3    H223986   2.505   0.485   1.725
 8008TIP3   OH223987   3.339   1.677   4.042
 8008TIP3    H123988   3.309   1.768   4.047
 8008TIP3    H223989   3.259   1.626   4.028
 8009TIP3   OH223990   2.418   0.487   3.024
 8009TIP3    H123991   2.348   0.548   3.050
 8009TIP3    H223992   2.494   0.515   3.074
 8010TIP3   OH223993   6.145   4.268   4.275
 8010TIP3    H123994   6.057   4.280   4.311
 8010TIP3    H223995   6.131   4.219   4.194
 8011TIP3   OH223996   0.293   1.436   2.005
 8011TIP3    H123997   0.217   1.383   1.984
 8011TIP3    H223998   0.304   1.425   2.100
 8012TIP3   OH223999   4.633   5.742   0.097
 8012TIP3    H124000   4.712   5.758   0.045
 8012TIP3    H224001   4.620   5.823   0.146
 8013TIP3   OH224002   0.764   5.384   5.777
 8013TIP3    H124003   0.820   5.451   5.818
 8013TIP3    H224004   0.823   5.336   5.719
 8014TIP3   OH224005   0.518   5.437   5.585
 8014TIP3    H124006   0.577   5.436   5.660
 8014TIP3    H224007   0.539   5.357   5.537
 8015TIP3   OH224008   2.915   6.047   5.491
 8015TIP3    H124009   2.886   5.981   5.428
 8015TIP3    H224010   2.855   6.038   5.565
 8016TIP3   OH224011   1.059   5.894   1.264
 8016TIP3    H124012   1.007   5.948   1.204
 8016TIP3    H224013   1.074   5.812   1.217
 8017TIP3   OH224014   4.151   1.078   4.853
 8017TIP3    H124015   4.212   1.135   4.807
 8017TIP3    H224016   4.110   1.026   4.784
 8018TIP3   OH224017   4.271   5.280   1.725
 8018TIP3    H124018   4.343   5.225   1.695
 8018TIP3    H224019   4.193   5.225   1.715
 8019TIP3   OH224020   3.632   3.376   4.632
 8019TIP3    H124021   3.598   3.311   4.694
 8019TIP3    H224022   3.655   3.325   4.554
 8020TIP3   OH224023   4.379   6.073   3.210
 8020TIP3    H124024   4.381   6.152   3.155
 8020TIP3    H224025   4.291   6.038   3.199
 8021TIP3   OH224026   4.436   3.843   4.530
 8021TIP3    H124027   4.415   3.933   4.556
 8021TIP3    H224028   4.451   3.797   4.613
 8022TIP3   OH224029   3.901   3.229   3.784
 8022TIP3    H124030   3.901   3.173   3.707
 8022TIP3    H224031   3.888   3.169   3.857
 8023TIP3   OH224032   3.119   3.856   1.041
 8023TIP3    H124033   3.108   3.847   0.946
 8023TIP3    H224034   3.087   3.945   1.061
 8024TIP3   OH224035   4.022   3.392   3.120
 8024TIP3    H124036   4.024   3.321   3.056
 8024TIP3    H224037   4.061   3.466   3.075
 8025TIP3   OH224038   3.404   6.285   1.394
 8025TIP3    H124039   3.342   6.290   1.321
 8025TIP3    H224040   3.423   6.191   1.403
 8026TIP3   OH224041   4.613   2.380   4.369
 8026TIP3    H124042   4.597   2.361   4.462
 8026TIP3    H224043   4.566   2.462   4.353
 8027TIP3   OH224044   2.996   3.790   0.756
 8027TIP3    H124045   2.977   3.745   0.674
 8027TIP3    H224046   2.913   3.788   0.804
 8028TIP3   OH224047   1.759   6.664   5.633
 8028TIP3    H124048   1.794   6.754   5.630
 8028TIP3    H224049   1.686   6.669   5.695
 8029TIP3   OH224050   4.103   5.691   5.427
 8029TIP3    H124051   4.014   5.697   5.390
 8029TIP3    H224052   4.160   5.714   5.354
 8030TIP3   OH224053   1.388   2.149   5.324
 8030TIP3    H124054   1.352   2.072   5.280
 8030TIP3    H224055   1.316   2.212   5.322
 8031TIP3   OH224056   6.892   2.301   5.658
 8031TIP3    H124057   6.929   2.372   5.606
 8031TIP3    H224058   6.934   2.222   5.625
 8032TIP3   OH224059   0.732   5.716   2.799
 8032TIP3    H124060   0.756   5.719   2.706
 8032TIP3    H224061   0.780   5.788   2.839
 8033TIP3   OH224062   6.582   3.134   0.082
 8033TIP3    H124063   6.675   3.132   0.057
 8033TIP3    H224064   6.560   3.227   0.087
 8034TIP3   OH224065   2.831   5.701   4.457
 8034TIP3    H124066   2.852   5.645   4.532
 8034TIP3    H224067   2.758   5.755   4.488
 8035TIP3   OH224068   4.733   0.202   4.307
 8035TIP3    H124069   4.640   0.205   4.285
 8035TIP3    H224070   4.741   0.254   4.387
 8036TIP3   OH224071   4.879   4.867   0.510
 8036TIP3    H124072   4.834   4.871   0.595
 8036TIP3    H224073   4.930   4.948   0.507
 8037TIP3   OH224074   0.084   5.214   2.595
 8037TIP3    H124075   0.036   5.228   2.677
 8037TIP3    H224076   0.175   5.228   2.618
 8038TIP3   OH224077   5.735   3.162   0.565
 8038TIP3    H124078   5.786   3.215   0.505
 8038TIP3    H224079   5.783   3.080   0.572
 8039TIP3   OH224080   4.412   5.429   5.064
 8039TIP3    H124081   4.471   5.490   5.019
 8039TIP3    H224082   4.389   5.364   4.998
 8040TIP3   OH224083   1.956   4.648   4.795
 8040TIP3    H124084   1.933   4.642   4.702
 8040TIP3    H224085   1.876   4.625   4.841
 8041TIP3   OH224086   6.149   4.991   5.047
 8041TIP3    H124087   6.172   4.922   5.109
 8041TIP3    H224088   6.157   4.949   4.961
 8042TIP3   OH224089   5.523   3.852   2.021
 8042TIP3    H124090   5.463   3.926   2.022
 8042TIP3    H224091   5.487   3.791   2.085
 8043TIP3   OH224092   3.812   1.642   0.509
 8043TIP3    H124093   3.761   1.722   0.518
 8043TIP3    H224094   3.792   1.611   0.421
 8044TIP3   OH224095   4.546   1.948   2.035
 8044TIP3    H124096   4.526   2.015   1.970
 8044TIP3    H224097   4.467   1.895   2.041
 8045TIP3   OH224098   0.666   4.733   2.403
 8045TIP3    H124099   0.759   4.749   2.391
 8045TIP3    H224100   0.660   4.639   2.424
 8046TIP3   OH224101   2.397   1.600   3.595
 8046TIP3    H124102   2.361   1.633   3.678
 8046TIP3    H224103   2.484   1.640   3.589
 8047TIP3   OH224104   7.013   4.638   0.516
 8047TIP3    H124105   6.940   4.661   0.573
 8047TIP3    H224106   7.004   4.695   0.440
 8048TIP3   OH224107   5.164   3.092   1.631
 8048TIP3    H124108   5.098   3.082   1.700
 8048TIP3    H224109   5.242   3.052   1.668
 8049TIP3   OH224110   4.848   4.862   5.433
 8049TIP3    H124111   4.867   4.955   5.441
 8049TIP3    H224112   4.851   4.829   5.523
 8050TIP3   OH224113   1.118   3.706   0.244
 8050TIP3    H124114   1.126   3.612   0.260
 8050TIP3    H224115   1.179   3.723   0.172
 8051TIP3   OH224116   5.562   6.601   3.573
 8051TIP3    H124117   5.490   6.558   3.620
 8051TIP3    H224118   5.640   6.580   3.626
 8052TIP3   OH224119   5.188   5.000   4.950
 8052TIP3    H124120   5.097   4.970   4.946
 8052TIP3    H224121   5.182   5.091   4.979
 8053TIP3   OH224122   4.918   1.020   1.104
 8053TIP3    H124123   4.890   1.112   1.105
 8053TIP3    H224124   4.895   0.990   1.016
 8054TIP3   OH224125   4.467   1.337   5.057
 8054TIP3    H124126   4.490   1.248   5.031
 8054TIP3    H224127   4.381   1.328   5.099
 8055TIP3   OH224128   1.618   0.289   5.225
 8055TIP3    H124129   1.611   0.320   5.315
 8055TIP3    H224130   1.609   0.194   5.232
 8056TIP3   OH224131   6.633   0.067   5.292
 8056TIP3    H124132   6.662   0.121   5.218
 8056TIP3    H224133   6.543   0.097   5.309
 8057TIP3   OH224134   1.609   2.377   0.101
 8057TIP3    H124135   1.622   2.367   0.006
 8057TIP3    H224136   1.532   2.433   0.109
 8058TIP3   OH224137   4.994   2.097   2.127
 8058TIP3    H124138   5.024   2.187   2.120
 8058TIP3    H224139   4.970   2.087   2.219
 8059TIP3   OH224140   6.741   5.227   1.046
 8059TIP3    H124141   6.795   5.306   1.052
 8059TIP3    H224142   6.680   5.246   0.974
 8060TIP3   OH224143   0.599   2.571   5.088
 8060TIP3    H124144   0.669   2.557   5.151
 8060TIP3    H224145   0.618   2.657   5.050
 8061TIP3   OH224146   6.979   1.653   4.280
 8061TIP3    H124147   6.939   1.710   4.214
 8061TIP3    H224148   7.042   1.709   4.326
 8062TIP3   OH224149   4.735   0.690   0.495
 8062TIP3    H124150   4.796   0.763   0.489
 8062TIP3    H224151   4.707   0.673   0.405
 8063TIP3   OH224152   2.531   4.827   0.087
 8063TIP3    H124153   2.514   4.818   0.181
 8063TIP3    H224154   2.609   4.774   0.071
 8064TIP3   OH224155   2.403   6.751   1.798
 8064TIP3    H124156   2.463   6.804   1.850
 8064TIP3    H224157   2.325   6.805   1.789
 8065TIP3   OH224158   1.235   5.407   2.334
 8065TIP3    H124159   1.236   5.368   2.421
 8065TIP3    H224160   1.168   5.475   2.339
 8066TIP3   OH224161   3.958   1.400   5.220
 8066TIP3    H124162   3.962   1.434   5.130
 8066TIP3    H224163   3.897   1.327   5.215
 8067TIP3   OH224164   1.691   0.072   1.628
 8067TIP3    H124165   1.677  -0.022   1.631
 8067TIP3    H224166   1.771   0.083   1.576
 8068TIP3   OH224167   2.082   5.111   2.238
 8068TIP3    H124168   2.103   5.193   2.283
 8068TIP3    H224169   2.151   5.103   2.171
 8069TIP3   OH224170   7.099   0.891   5.053
 8069TIP3    H124171   7.074   0.935   4.972
 8069TIP3    H224172   7.045   0.932   5.120
 8070TIP3   OH224173   6.521   2.017   1.182
 8070TIP3    H124174   6.579   1.942   1.195
 8070TIP3    H224175   6.474   1.997   1.101
 8071TIP3   OH224176   7.101   2.248   2.567
 8071TIP3    H124177   7.114   2.225   2.659
 8071TIP3    H224178   7.054   2.331   2.570
 8072TIP3   OH224179   3.805   3.565   4.535
 8072TIP3    H124180   3.836   3.523   4.455
 8072TIP3    H224181   3.739   3.505   4.570
 8073TIP3   OH224182   1.250   2.823   3.255
 8073TIP3    H124183   1.271   2.804   3.164
 8073TIP3    H224184   1.303   2.762   3.306
 8074TIP3   OH224185   0.183   5.269   1.640
 8074TIP3    H124186   0.124   5.276   1.715
 8074TIP3    H224187   0.240   5.345   1.647
 8075TIP3   OH224188   5.896   0.626   5.000
 8075TIP3    H124189   5.955   0.564   4.957
 8075TIP3    H224190   5.837   0.654   4.930
 8076TIP3   OH224191   3.661   4.180   0.118
 8076TIP3    H124192   3.608   4.210   0.192
 8076TIP3    H224193   3.598   4.150   0.054
 8077TIP3   OH224194   0.155   5.981   4.654
 8077TIP3    H124195   0.108   5.899   4.665
 8077TIP3    H224196   0.089   6.049   4.667
 8078TIP3   OH224197   1.199   0.604   3.438
 8078TIP3    H124198   1.144   0.616   3.361
 8078TIP3    H224199   1.223   0.692   3.465
 8079TIP3   OH224200   0.099   2.717   5.334
 8079TIP3    H124201   0.142   2.632   5.322
 8079TIP3    H224202   0.129   2.769   5.260
 8080TIP3   OH224203   0.542   0.305   3.490
 8080TIP3    H124204   0.458   0.309   3.444
 8080TIP3    H224205   0.556   0.395   3.520
 8081TIP3   OH224206   1.219   0.786   2.138
 8081TIP3    H124207   1.257   0.782   2.225
 8081TIP3    H224208   1.195   0.696   2.118
 8082TIP3   OH224209   0.610   3.407   0.625
 8082TIP3    H124210   0.548   3.444   0.688
 8082TIP3    H224211   0.597   3.312   0.632
 8083TIP3   OH224212   7.165   1.546   0.875
 8083TIP3    H124213   7.245   1.564   0.825
 8083TIP3    H224214   7.155   1.451   0.871
 8084TIP3   OH224215   7.109   0.742   4.738
 8084TIP3    H124216   7.089   0.803   4.667
 8084TIP3    H224217   7.201   0.761   4.760
 8085TIP3   OH224218   2.541   4.656   3.326
 8085TIP3    H124219   2.553   4.647   3.232
 8085TIP3    H224220   2.609   4.718   3.353
 8086TIP3   OH224221   6.157   1.980   0.976
 8086TIP3    H124222   6.066   1.960   0.999
 8086TIP3    H224223   6.205   1.901   1.002
 8087TIP3   OH224224   4.167   1.993   0.752
 8087TIP3    H124225   4.135   2.033   0.833
 8087TIP3    H224226   4.175   1.900   0.773
 8088TIP3   OH224227   5.794   5.166   3.463
 8088TIP3    H124228   5.766   5.179   3.553
 8088TIP3    H224229   5.715   5.181   3.411
 8089TIP3   OH224230   6.729   4.146   2.710
 8089TIP3    H124231   6.733   4.082   2.781
 8089TIP3    H224232   6.755   4.096   2.632
 8090TIP3   OH224233   0.727   1.063   2.389
 8090TIP3    H124234   0.662   1.071   2.319
 8090TIP3    H224235   0.681   1.094   2.467
 8091TIP3   OH224236   0.113   5.334   0.198
 8091TIP3    H124237   0.094   5.391   0.272
 8091TIP3    H224238   0.137   5.250   0.237
 8092TIP3   OH224239   5.149   2.842   4.122
 8092TIP3    H124240   5.168   2.840   4.028
 8092TIP3    H224241   5.206   2.910   4.157
 8093TIP3   OH224242   5.753   1.186   1.911
 8093TIP3    H124243   5.686   1.250   1.936
 8093TIP3    H224244   5.787   1.153   1.995
 8094TIP3   OH224245   3.382   0.941   2.581
 8094TIP3    H124246   3.417   0.854   2.599
 8094TIP3    H224247   3.362   0.977   2.667
 8095TIP3   OH224248   0.870   6.796   0.457
 8095TIP3    H124249   0.902   6.764   0.541
 8095TIP3    H224250   0.946   6.840   0.418
 8096TIP3   OH224251   5.996   6.198   4.866
 8096TIP3    H124252   6.011   6.103   4.869
 8096TIP3    H224253   5.902   6.207   4.881
 8097TIP3   OH224254   3.906   5.252   0.704
 8097TIP3    H124255   4.001   5.254   0.696
 8097TIP3    H224256   3.875   5.324   0.649
 8098TIP3   OH224257   1.227   0.907   0.487
 8098TIP3    H124258   1.288   0.932   0.557
 8098TIP3    H224259   1.269   0.831   0.446
 8099TIP3   OH224260   0.289   5.116   1.151
 8099TIP3    H124261   0.326   5.112   1.239
 8099TIP3    H224262   0.235   5.195   1.151
 8100TIP3   OH224263   4.811   4.395   2.203
 8100TIP3    H124264   4.863   4.475   2.198
 8100TIP3    H224265   4.771   4.398   2.290
 8101TIP3   OH224266   5.400   4.765   3.966
 8101TIP3    H124267   5.449   4.789   4.045
 8101TIP3    H224268   5.468   4.747   3.901
 8102TIP3   OH224269   3.893   5.506   1.721
 8102TIP3    H124270   3.805   5.543   1.732
 8102TIP3    H224271   3.880   5.430   1.664
 8103TIP3   OH224272   2.014   5.918   2.690
 8103TIP3    H124273   2.072   5.924   2.614
 8103TIP3    H224274   2.067   5.875   2.758
 8104TIP3   OH224275   4.404   0.275   1.927
 8104TIP3    H124276   4.330   0.295   1.984
 8104TIP3    H224277   4.366   0.267   1.839
 8105TIP3   OH224278   0.724   1.247   4.223
 8105TIP3    H124279   0.776   1.311   4.173
 8105TIP3    H224280   0.718   1.285   4.311
 8106TIP3   OH224281   3.358   3.147   5.206
 8106TIP3    H124282   3.445   3.161   5.169
 8106TIP3    H224283   3.323   3.073   5.157
 8107TIP3   OH224284   2.871   6.418   4.355
 8107TIP3    H124285   2.925   6.356   4.405
 8107TIP3    H224286   2.928   6.449   4.285
 8108TIP3   OH224287   0.495   2.302   0.499
 8108TIP3    H124288   0.466   2.220   0.458
 8108TIP3    H224289   0.464   2.294   0.590
 8109TIP3   OH224290   5.365   5.503   1.474
 8109TIP3    H124291   5.458   5.518   1.485
 8109TIP3    H224292   5.344   5.434   1.538
 8110TIP3   OH224293   2.630   3.722   5.115
 8110TIP3    H124294   2.657   3.631   5.101
 8110TIP3    H224295   2.643   3.764   5.030
 8111TIP3   OH224296   3.617   0.365   3.610
 8111TIP3    H124297   3.530   0.405   3.598
 8111TIP3    H224298   3.599   0.281   3.653
 8112TIP3   OH224299   1.732   2.708   5.630
 8112TIP3    H124300   1.645   2.689   5.664
 8112TIP3    H224301   1.743   2.649   5.556
 8113TIP3   OH224302   1.554   5.495   4.557
 8113TIP3    H124303   1.497   5.530   4.625
 8113TIP3    H224304   1.631   5.462   4.605
 8114TIP3   OH224305   5.379   0.369   4.196
 8114TIP3    H124306   5.406   0.406   4.112
 8114TIP3    H224307   5.310   0.306   4.174
 8115TIP3   OH224308   1.039   0.337   4.680
 8115TIP3    H124309   1.045   0.352   4.586
 8115TIP3    H224310   1.130   0.334   4.710
 8116TIP3   OH224311   0.709   0.920   0.081
 8116TIP3    H124312   0.675   0.834   0.105
 8116TIP3    H224313   0.633   0.978   0.083
 8117TIP3   OH224314   3.801   0.455   4.264
 8117TIP3    H124315   3.822   0.528   4.322
 8117TIP3    H224316   3.734   0.489   4.205
 8118TIP3   OH224317   5.615   3.478   2.007
 8118TIP3    H124318   5.693   3.512   1.963
 8118TIP3    H224319   5.542   3.511   1.954
 8119TIP3   OH224320   3.585   1.153   5.614
 8119TIP3    H124321   3.673   1.191   5.609
 8119TIP3    H224322   3.570   1.138   5.707
 8120TIP3   OH224323   1.370   5.913   3.085
 8120TIP3    H124324   1.393   5.821   3.096
 8120TIP3    H224325   1.346   5.942   3.173
 8121TIP3   OH224326   5.476   2.620   5.797
 8121TIP3    H124327   5.434   2.628   5.882
 8121TIP3    H224328   5.428   2.680   5.740
 8122TIP3   OH224329   2.910   6.460   2.331
 8122TIP3    H124330   2.866   6.400   2.271
 8122TIP3    H224331   2.864   6.543   2.320
 8123TIP3   OH224332   5.067   2.782   0.144
 8123TIP3    H124333   5.111   2.849   0.196
 8123TIP3    H224334   4.974   2.794   0.162
 8124TIP3   OH224335   4.498   0.248  -0.001
 8124TIP3    H124336   4.516   0.281  -0.089
 8124TIP3    H224337   4.555   0.301   0.056
 8125TIP3   OH224338   1.330   0.481   0.981
 8125TIP3    H124339   1.258   0.512   1.036
 8125TIP3    H224340   1.294   0.407   0.933
 8126TIP3   OH224341   2.714   3.296   3.974
 8126TIP3    H124342   2.649   3.283   4.043
 8126TIP3    H224343   2.731   3.208   3.940
 8127TIP3   OH224344   6.161   3.773   1.530
 8127TIP3    H124345   6.170   3.868   1.539
 8127TIP3    H224346   6.251   3.741   1.529
 8128TIP3   OH224347   4.079   6.798   0.697
 8128TIP3    H124348   4.165   6.776   0.732
 8128TIP3    H224349   4.026   6.720   0.716
 8129TIP3   OH224350   6.266   5.269   1.117
 8129TIP3    H124351   6.178   5.243   1.091
 8129TIP3    H224352   6.319   5.190   1.107
 8130TIP3   OH224353   0.378   1.853   3.436
 8130TIP3    H124354   0.404   1.893   3.353
 8130TIP3    H224355   0.438   1.889   3.500
 8131TIP3   OH224356   5.670   3.774   4.034
 8131TIP3    H124357   5.764   3.763   4.050
 8131TIP3    H224358   5.633   3.791   4.121
 8132TIP3   OH224359   3.397   0.716   1.957
 8132TIP3    H124360   3.306   0.743   1.962
 8132TIP3    H224361   3.399   0.630   1.998
 8133TIP3   OH224362   2.238   2.888   4.169
 8133TIP3    H124363   2.162   2.869   4.114
 8133TIP3    H224364   2.313   2.862   4.116
 8134TIP3   OH224365   2.792   2.850   1.828
 8134TIP3    H124366   2.772   2.835   1.920
 8134TIP3    H224367   2.882   2.820   1.818
 8135TIP3   OH224368   2.577   6.215   3.353
 8135TIP3    H124369   2.607   6.162   3.428
 8135TIP3    H224370   2.484   6.226   3.368
 8136TIP3   OH224371   3.759   0.624   1.834
 8136TIP3    H124372   3.811   0.592   1.760
 8136TIP3    H224373   3.800   0.708   1.857
 8137TIP3   OH224374   0.295   4.321   4.988
 8137TIP3    H124375   0.303   4.320   4.892
 8137TIP3    H224376   0.300   4.229   5.013
 8138TIP3   OH224377   5.226   4.619   1.506
 8138TIP3    H124378   5.312   4.652   1.479
 8138TIP3    H224379   5.234   4.606   1.600
 8139TIP3   OH224380   3.457   6.279   3.573
 8139TIP3    H124381   3.520   6.350   3.583
 8139TIP3    H224382   3.417   6.270   3.659
 8140TIP3   OH224383   5.500   0.106   5.861
 8140TIP3    H124384   5.552   0.085   5.783
 8140TIP3    H224385   5.453   0.026   5.881
 8141TIP3   OH224386   2.136   1.730   3.201
 8141TIP3    H124387   2.085   1.657   3.236
 8141TIP3    H224388   2.150   1.788   3.276
 8142TIP3   OH224389   2.867   2.552   4.547
 8142TIP3    H124390   2.816   2.471   4.551
 8142TIP3    H224391   2.904   2.563   4.635
 8143TIP3   OH224392   5.721   5.365   2.613
 8143TIP3    H124393   5.789   5.426   2.643
 8143TIP3    H224394   5.770   5.294   2.570
 8144TIP3   OH224395   4.787   2.409   2.031
 8144TIP3    H124396   4.726   2.338   2.052
 8144TIP3    H224397   4.873   2.375   2.054
 8145TIP3   OH224398   2.004   1.034   3.109
 8145TIP3    H124399   2.036   1.036   3.199
 8145TIP3    H224400   1.983   1.126   3.090
 8146TIP3   OH224401   6.305   2.018   2.073
 8146TIP3    H124402   6.254   1.962   2.013
 8146TIP3    H224403   6.239   2.061   2.127
 8147TIP3   OH224404   1.667   1.715   1.992
 8147TIP3    H124405   1.762   1.707   2.000
 8147TIP3    H224406   1.633   1.635   2.032
 8148TIP3   OH224407   6.967   6.152   3.651
 8148TIP3    H124408   6.889   6.116   3.609
 8148TIP3    H224409   6.989   6.230   3.599
 8149TIP3   OH224410   4.977   5.967   4.247
 8149TIP3    H124411   5.015   6.049   4.214
 8149TIP3    H224412   4.911   5.995   4.311
 8150TIP3   OH224413   4.381   2.007   2.689
 8150TIP3    H124414   4.331   2.010   2.770
 8150TIP3    H224415   4.448   2.075   2.699
 8151TIP3   OH224416   6.323   1.886   4.837
 8151TIP3    H124417   6.332   1.854   4.747
 8151TIP3    H224418   6.404   1.858   4.881
 8152TIP3   OH224419   0.112   5.641   4.409
 8152TIP3    H124420   0.198   5.679   4.426
 8152TIP3    H224421   0.103   5.572   4.474
 8153TIP3   OH224422   6.185   5.398   5.537
 8153TIP3    H124423   6.100   5.438   5.520
 8153TIP3    H224424   6.233   5.406   5.454
 8154TIP3   OH224425   0.986   3.032   4.154
 8154TIP3    H124426   0.938   3.027   4.072
 8154TIP3    H224427   1.049   3.103   4.141
 8155TIP3   OH224428   6.178   5.353   3.096
 8155TIP3    H124429   6.212   5.359   3.007
 8155TIP3    H224430   6.106   5.417   3.098
 8156TIP3   OH224431   3.872   5.865   2.616
 8156TIP3    H124432   3.837   5.899   2.534
 8156TIP3    H224433   3.821   5.785   2.632
 8157TIP3   OH224434   3.426   4.499   1.720
 8157TIP3    H124435   3.457   4.584   1.689
 8157TIP3    H224436   3.383   4.460   1.644
 8158TIP3   OH224437   3.553   0.922   4.017
 8158TIP3    H124438   3.619   0.895   4.081
 8158TIP3    H224439   3.494   0.847   4.010
 8159TIP3   OH224440   7.037   6.210   4.262
 8159TIP3    H124441   7.035   6.300   4.295
 8159TIP3    H224442   7.066   6.219   4.171
 8160TIP3   OH224443   5.134   5.692   4.191
 8160TIP3    H124444   5.071   5.758   4.222
 8160TIP3    H224445   5.092   5.653   4.114
 8161TIP3   OH224446   5.724   5.088   2.143
 8161TIP3    H124447   5.675   5.074   2.224
 8161TIP3    H224448   5.694   5.019   2.085
 8162TIP3   OH224449   2.371   4.956   4.460
 8162TIP3    H124450   2.430   4.979   4.532
 8162TIP3    H224451   2.427   4.909   4.398
 8163TIP3   OH224452   1.921   0.087   2.224
 8163TIP3    H124453   1.858   0.040   2.279
 8163TIP3    H224454   1.872   0.108   2.145
 8164TIP3   OH224455   4.821   3.027   0.475
 8164TIP3    H124456   4.852   3.115   0.498
 8164TIP3    H224457   4.770   2.998   0.550
 8165TIP3   OH224458   7.086   3.163   5.770
 8165TIP3    H124459   7.112   3.148   5.679
 8165TIP3    H224460   7.150   3.114   5.821
 8166TIP3   OH224461   4.789   2.863   3.296
 8166TIP3    H124462   4.794   2.883   3.203
 8166TIP3    H224463   4.785   2.949   3.338
 8167TIP3   OH224464   3.425   5.534   1.511
 8167TIP3    H124465   3.425   5.614   1.460
 8167TIP3    H224466   3.391   5.467   1.452
 8168TIP3   OH224467   6.906   2.596   5.823
 8168TIP3    H124468   6.857   2.607   5.742
 8168TIP3    H224469   6.986   2.551   5.797
 8169TIP3   OH224470   5.111   1.874   1.117
 8169TIP3    H124471   5.131   1.944   1.055
 8169TIP3    H224472   5.027   1.840   1.088
 8170TIP3   OH224473   4.011   3.330   4.968
 8170TIP3    H124474   4.082   3.269   4.949
 8170TIP3    H224475   4.055   3.411   4.994
 8171TIP3   OH224476   2.596   4.394   2.099
 8171TIP3    H124477   2.615   4.316   2.150
 8171TIP3    H224478   2.522   4.435   2.145
 8172TIP3   OH224479   3.394   0.090   4.150
 8172TIP3    H124480   3.476   0.044   4.133
 8172TIP3    H224481   3.395   0.108   4.244
 8173TIP3   OH224482   2.833   4.766   5.053
 8173TIP3    H124483   2.802   4.696   4.995
 8173TIP3    H224484   2.927   4.748   5.064
 8174TIP3   OH224485   4.314   5.947   4.709
 8174TIP3    H124486   4.365   5.941   4.628
 8174TIP3    H224487   4.263   5.865   4.711
 8175TIP3   OH224488   6.339   2.527   4.114
 8175TIP3    H124489   6.320   2.530   4.020
 8175TIP3    H224490   6.432   2.505   4.118
 8176TIP3   OH224491   3.905   2.774   1.660
 8176TIP3    H124492   3.843   2.846   1.646
 8176TIP3    H224493   3.918   2.736   1.573
 8177TIP3   OH224494   1.483   4.846   3.217
 8177TIP3    H124495   1.411   4.904   3.193
 8177TIP3    H224496   1.557   4.877   3.165
 8178TIP3   OH224497   1.519   5.745   4.005
 8178TIP3    H124498   1.558   5.806   4.068
 8178TIP3    H224499   1.439   5.789   3.975
 8179TIP3   OH224500   4.127   2.478   3.132
 8179TIP3    H124501   4.141   2.538   3.059
 8179TIP3    H224502   4.202   2.492   3.189
 8180TIP3   OH224503   0.387   1.751   2.326
 8180TIP3    H124504   0.322   1.759   2.257
 8180TIP3    H224505   0.469   1.780   2.286
 8181TIP3   OH224506   7.192   4.134   3.532
 8181TIP3    H124507   7.146   4.053   3.511
 8181TIP3    H224508   7.125   4.191   3.570
 8182TIP3   OH224509   0.096   3.636   4.333
 8182TIP3    H124510   0.023   3.664   4.278
 8182TIP3    H224511   0.166   3.615   4.271
 8183TIP3   OH224512   1.699   4.944   4.992
 8183TIP3    H124513   1.720   5.010   4.927
 8183TIP3    H224514   1.781   4.897   5.007
 8184TIP3   OH224515   6.510   3.006   3.250
 8184TIP3    H124516   6.429   2.954   3.256
 8184TIP3    H224517   6.531   3.026   3.341
 8185TIP3   OH224518   0.653   5.517   1.750
 8185TIP3    H124519   0.590   5.490   1.817
 8185TIP3    H224520   0.639   5.611   1.741
 8186TIP3   OH224521   5.064   5.006   1.121
 8186TIP3    H124522   5.098   5.074   1.064
 8186TIP3    H224523   5.126   5.003   1.194
 8187TIP3   OH224524   2.449   6.744   1.475
 8187TIP3    H124525   2.499   6.825   1.470
 8187TIP3    H224526   2.358   6.771   1.466
 8188TIP3   OH224527   6.998   0.663   5.364
 8188TIP3    H124528   7.011   0.712   5.282
 8188TIP3    H224529   6.924   0.706   5.407
 8189TIP3   OH224530   1.877   1.795   0.321
 8189TIP3    H124531   1.782   1.783   0.319
 8189TIP3    H224532   1.912   1.713   0.287
 8190TIP3   OH224533   4.241   1.749   1.982
 8190TIP3    H124534   4.163   1.728   1.931
 8190TIP3    H224535   4.241   1.844   1.988
 8191TIP3   OH224536   2.662   6.634   5.230
 8191TIP3    H124537   2.665   6.601   5.140
 8191TIP3    H224538   2.714   6.571   5.280
 8192TIP3   OH224539   1.170   0.419   0.381
 8192TIP3    H124540   1.159   0.387   0.471
 8192TIP3    H224541   1.157   0.341   0.326
 8193TIP3   OH224542   0.346   1.362   1.065
 8193TIP3    H124543   0.347   1.445   1.114
 8193TIP3    H224544   0.407   1.375   0.993
 8194TIP3   OH224545   3.719   2.150   0.420
 8194TIP3    H124546   3.691   2.239   0.440
 8194TIP3    H224547   3.768   2.122   0.497
 8195TIP3   OH224548   1.591   6.441   4.961
 8195TIP3    H124549   1.586   6.353   4.998
 8195TIP3    H224550   1.501   6.473   4.962
 8196TIP3   OH224551   0.803   6.087   2.645
 8196TIP3    H124552   0.714   6.070   2.675
 8196TIP3    H224553   0.850   6.006   2.663
 8197TIP3   OH224554   2.153   4.620   5.046
 8197TIP3    H124555   2.075   4.574   5.076
 8197TIP3    H224556   2.197   4.557   4.989
 8198TIP3   OH224557   6.527   2.684   5.553
 8198TIP3    H124558   6.606   2.720   5.592
 8198TIP3    H224559   6.540   2.696   5.459
 8199TIP3   OH224560   4.715   4.193   4.029
 8199TIP3    H124561   4.808   4.199   4.054
 8199TIP3    H224562   4.696   4.279   3.990
 8200TIP3   OH224563   7.111   3.167   4.772
 8200TIP3    H124564   7.125   3.109   4.847
 8200TIP3    H224565   7.191   3.221   4.769
 8201TIP3   OH224566   4.424   5.791   4.061
 8201TIP3    H124567   4.435   5.771   3.968
 8201TIP3    H224568   4.370   5.719   4.094
 8202TIP3   OH224569   5.423   5.277   1.641
 8202TIP3    H124570   5.437   5.183   1.635
 8202TIP3    H224571   5.432   5.297   1.734
 8203TIP3   OH224572   2.550   5.831   4.568
 8203TIP3    H124573   2.497   5.785   4.633
 8203TIP3    H224574   2.575   5.912   4.611
 8204TIP3   OH224575   0.865   5.104   3.305
 8204TIP3    H124576   0.821   5.105   3.390
 8204TIP3    H224577   0.821   5.035   3.256
 8205TIP3   OH224578   5.502   3.844   2.999
 8205TIP3    H124579   5.470   3.857   3.088
 8205TIP3    H224580   5.444   3.899   2.945
 8206TIP3   OH224581   0.851   6.775   3.450
 8206TIP3    H124582   0.946   6.764   3.446
 8206TIP3    H224583   0.837   6.870   3.449
 8207TIP3   OH224584   1.586   4.062   0.533
 8207TIP3    H124585   1.510   4.005   0.521
 8207TIP3    H224586   1.629   4.029   0.612
 8208TIP3   OH224587   0.823   5.678   5.231
 8208TIP3    H124588   0.739   5.632   5.222
 8208TIP3    H224589   0.815   5.726   5.313
 8209TIP3   OH224590   6.725   6.118   3.520
 8209TIP3    H124591   6.701   6.057   3.450
 8209TIP3    H224592   6.665   6.192   3.509
 8210TIP3   OH224593   6.525   0.846   5.217
 8210TIP3    H124594   6.572   0.778   5.168
 8210TIP3    H224595   6.570   0.927   5.193
 8211TIP3   OH224596   2.165   2.890   0.539
 8211TIP3    H124597   2.218   2.965   0.564
 8211TIP3    H224598   2.134   2.911   0.451
 8212TIP3   OH224599   0.087   0.001   2.793
 8212TIP3    H124600   0.131  -0.002   2.878
 8212TIP3    H224601   0.080  -0.091   2.766
 8213TIP3   OH224602   0.064   0.768   2.109
 8213TIP3    H124603   0.015   0.747   2.030
 8213TIP3    H224604   0.133   0.702   2.112
 8214TIP3   OH224605   3.216   2.679   4.918
 8214TIP3    H124606   3.182   2.677   5.008
 8214TIP3    H224607   3.206   2.590   4.886
 8215TIP3   OH224608   5.737   2.276   3.959
 8215TIP3    H124609   5.781   2.207   3.909
 8215TIP3    H224610   5.804   2.307   4.020
 8216TIP3   OH224611   7.122   1.204   2.209
 8216TIP3    H124612   7.128   1.108   2.206
 8216TIP3    H224613   7.032   1.223   2.184
 8217TIP3   OH224614   5.889   1.063   0.910
 8217TIP3    H124615   5.858   1.008   0.838
 8217TIP3    H224616   5.918   1.001   0.977
 8218TIP3   OH224617   1.238   5.388   5.523
 8218TIP3    H124618   1.278   5.474   5.537
 8218TIP3    H224619   1.150   5.396   5.561
 8219TIP3   OH224620   1.198   4.138   2.299
 8219TIP3    H124621   1.180   4.050   2.266
 8219TIP3    H224622   1.281   4.130   2.346
 8220TIP3   OH224623   2.586   5.237   0.209
 8220TIP3    H124624   2.522   5.211   0.143
 8220TIP3    H224625   2.607   5.156   0.256
 8221TIP3   OH224626   5.695   0.853   2.309
 8221TIP3    H124627   5.777   0.809   2.285
 8221TIP3    H224628   5.635   0.832   2.238
 8222TIP3   OH224629   6.127   1.915   1.917
 8222TIP3    H124630   6.057   1.854   1.892
 8222TIP3    H224631   6.088   2.002   1.905
 8223TIP3   OH224632   4.433   0.492   2.273
 8223TIP3    H124633   4.405   0.424   2.334
 8223TIP3    H224634   4.509   0.454   2.228
 8224TIP3   OH224635   5.663   6.609   2.267
 8224TIP3    H124636   5.733   6.645   2.322
 8224TIP3    H224637   5.623   6.541   2.321
 8225TIP3   OH224638   1.418   0.851   4.074
 8225TIP3    H124639   1.501   0.805   4.061
 8225TIP3    H224640   1.362   0.819   4.004
 8226TIP3   OH224641   3.978   5.473   4.786
 8226TIP3    H124642   4.046   5.425   4.739
 8226TIP3    H224643   4.004   5.565   4.779
 8227TIP3   OH224644   0.954   6.584   4.673
 8227TIP3    H124645   0.946   6.555   4.582
 8227TIP3    H224646   0.864   6.584   4.706
 8228TIP3   OH224647   2.666   3.451   1.376
 8228TIP3    H124648   2.648   3.509   1.302
 8228TIP3    H224649   2.665   3.509   1.452
 8229TIP3   OH224650   3.903   1.966   1.591
 8229TIP3    H124651   3.822   1.916   1.589
 8229TIP3    H224652   3.965   1.911   1.638
 8230TIP3   OH224653   2.427   5.661   2.047
 8230TIP3    H124654   2.423   5.667   2.143
 8230TIP3    H224655   2.339   5.632   2.022
 8231TIP3   OH224656   1.230   2.493   1.175
 8231TIP3    H124657   1.156   2.546   1.145
 8231TIP3    H224658   1.273   2.463   1.094
 8232TIP3   OH224659   6.649   2.236   1.636
 8232TIP3    H124660   6.706   2.181   1.581
 8232TIP3    H224661   6.564   2.232   1.594
 8233TIP3   OH224662   3.446   4.642   4.598
 8233TIP3    H124663   3.484   4.563   4.635
 8233TIP3    H224664   3.387   4.674   4.666
 8234TIP3   OH224665   0.884   2.540   1.631
 8234TIP3    H124666   0.888   2.636   1.630
 8234TIP3    H224667   0.960   2.513   1.580
 8235TIP3   OH224668   6.020   4.977   0.420
 8235TIP3    H124669   6.008   4.895   0.468
 8235TIP3    H224670   6.100   5.015   0.455
 8236TIP3   OH224671   2.888   2.993   4.487
 8236TIP3    H124672   2.849   3.078   4.464
 8236TIP3    H224673   2.859   2.977   4.577
 8237TIP3   OH224674   5.398   2.419   0.337
 8237TIP3    H124675   5.436   2.449   0.420
 8237TIP3    H224676   5.330   2.484   0.317
 8238TIP3   OH224677   4.812   3.114   0.137
 8238TIP3    H124678   4.787   3.024   0.156
 8238TIP3    H224679   4.878   3.106   0.068
 8239TIP3   OH224680   0.458   0.615   4.972
 8239TIP3    H124681   0.546   0.641   4.944
 8239TIP3    H224682   0.469   0.527   5.008
 8240TIP3   OH224683   4.852   5.258   3.475
 8240TIP3    H124684   4.834   5.217   3.391
 8240TIP3    H224685   4.830   5.351   3.462
 8241TIP3   OH224686   3.628   2.721   0.606
 8241TIP3    H124687   3.603   2.810   0.630
 8241TIP3    H224688   3.650   2.727   0.513
 8242TIP3   OH224689   3.639   5.760   3.246
 8242TIP3    H124690   3.666   5.831   3.188
 8242TIP3    H224691   3.680   5.780   3.330
 8243TIP3   OH224692   5.153   0.195   3.363
 8243TIP3    H124693   5.204   0.127   3.318
 8243TIP3    H224694   5.214   0.268   3.371
 8244TIP3   OH224695   4.833   1.680   4.902
 8244TIP3    H124696   4.755   1.625   4.887
 8244TIP3    H224697   4.799   1.759   4.942
 8245TIP3   OH224698   6.021   4.395   4.937
 8245TIP3    H124699   6.085   4.423   5.003
 8245TIP3    H224700   5.939   4.436   4.965
 8246TIP3   OH224701   6.126   3.361   4.675
 8246TIP3    H124702   6.191   3.313   4.727
 8246TIP3    H224703   6.109   3.440   4.726
 8247TIP3   OH224704   0.933   2.594   3.038
 8247TIP3    H124705   0.970   2.622   2.954
 8247TIP3    H224706   1.010   2.567   3.090
 8248TIP3   OH224707   2.565   5.673   1.514
 8248TIP3    H124708   2.504   5.678   1.440
 8248TIP3    H224709   2.510   5.648   1.588
 8249TIP3   OH224710   6.652   0.579   2.534
 8249TIP3    H124711   6.694   0.555   2.617
 8249TIP3    H224712   6.569   0.619   2.560
 8250TIP3   OH224713   4.881   1.342   4.304
 8250TIP3    H124714   4.970   1.316   4.281
 8250TIP3    H224715   4.872   1.431   4.268
 8251TIP3   OH224716   6.189   0.804   1.975
 8251TIP3    H124717   6.143   0.878   1.935
 8251TIP3    H224718   6.257   0.781   1.912
 8252TIP3   OH224719   6.314   1.968   5.128
 8252TIP3    H124720   6.234   1.934   5.087
 8252TIP3    H224721   6.359   1.890   5.161
 8253TIP3   OH224722   5.006   3.248   0.403
 8253TIP3    H124723   4.963   3.269   0.320
 8253TIP3    H224724   5.041   3.332   0.434
 8254TIP3   OH224725   2.432   2.914   3.825
 8254TIP3    H124726   2.444   2.949   3.737
 8254TIP3    H224727   2.407   2.989   3.878
 8255TIP3   OH224728   4.219   0.411   3.241
 8255TIP3    H124729   4.305   0.399   3.201
 8255TIP3    H224730   4.190   0.497   3.212
 8256TIP3   OH224731   6.580   0.885   2.944
 8256TIP3    H124732   6.515   0.815   2.941
 8256TIP3    H224733   6.544   0.948   3.006
 8257TIP3   OH224734   1.569   2.806   3.514
 8257TIP3    H124735   1.569   2.783   3.607
 8257TIP3    H224736   1.647   2.764   3.478
 8258TIP3   OH224737   5.954   1.374   4.466
 8258TIP3    H124738   5.932   1.452   4.517
 8258TIP3    H224739   6.025   1.403   4.409
 8259TIP3   OH224740   5.596   3.450   2.294
 8259TIP3    H124741   5.511   3.463   2.337
 8259TIP3    H224742   5.580   3.469   2.202
 8260TIP3   OH224743   3.945   6.722   5.253
 8260TIP3    H124744   3.974   6.633   5.271
 8260TIP3    H224745   3.967   6.736   5.161
 8261TIP3   OH224746   3.424   2.412   0.525
 8261TIP3    H124747   3.514   2.395   0.498
 8261TIP3    H224748   3.424   2.502   0.558
 8262TIP3   OH224749   6.172   2.339   0.236
 8262TIP3    H124750   6.145   2.396   0.309
 8262TIP3    H224751   6.226   2.272   0.277
 8263TIP3   OH224752   3.114   2.079   3.719
 8263TIP3    H124753   3.033   2.066   3.768
 8263TIP3    H224754   3.092   2.145   3.653
 8264TIP3   OH224755   1.243   2.167   5.631
 8264TIP3    H124756   1.267   2.084   5.589
 8264TIP3    H224757   1.221   2.142   5.721
 8265TIP3   OH224758   3.013   2.711   0.102
 8265TIP3    H124759   3.071   2.788   0.102
 8265TIP3    H224760   2.960   2.721   0.023
 8266TIP3   OH224761   2.811   1.060   0.784
 8266TIP3    H124762   2.723   1.045   0.818
 8266TIP3    H224763   2.865   0.992   0.825
 8267TIP3   OH224764   2.721   5.072   1.797
 8267TIP3    H124765   2.716   5.087   1.892
 8267TIP3    H224766   2.630   5.061   1.769
 8268TIP3   OH224767   2.506   1.799   4.010
 8268TIP3    H124768   2.560   1.846   3.946
 8268TIP3    H224769   2.557   1.802   4.091
 8269TIP3   OH224770   0.890   6.029   3.299
 8269TIP3    H124771   0.919   6.012   3.389
 8269TIP3    H224772   0.851   5.947   3.270
 8270TIP3   OH224773   5.103   0.509   2.969
 8270TIP3    H124774   5.030   0.517   2.908
 8270TIP3    H224775   5.097   0.419   3.001
 8271TIP3   OH224776   1.838   2.971   2.453
 8271TIP3    H124777   1.798   2.936   2.532
 8271TIP3    H224778   1.885   3.049   2.482
 8272TIP3   OH224779   3.318   1.857   3.703
 8272TIP3    H124780   3.246   1.919   3.720
 8272TIP3    H224781   3.385   1.910   3.660
 8273TIP3   OH224782   0.055   3.562   0.487
 8273TIP3    H124783   0.078   3.653   0.506
 8273TIP3    H224784   0.138   3.519   0.469
 8274TIP3   OH224785   3.214   3.623   1.140
 8274TIP3    H124786   3.166   3.596   1.218
 8274TIP3    H224787   3.169   3.703   1.110
 8275TIP3   OH224788   3.362   5.347   1.995
 8275TIP3    H124789   3.405   5.326   1.912
 8275TIP3    H224790   3.273   5.315   1.984
 8276TIP3   OH224791   5.633   3.843   0.378
 8276TIP3    H124792   5.661   3.752   0.388
 8276TIP3    H224793   5.543   3.844   0.410
 8277TIP3   OH224794   6.339   2.728   5.308
 8277TIP3    H124795   6.306   2.642   5.331
 8277TIP3    H224796   6.417   2.711   5.256
 8278TIP3   OH224797   6.432   3.900   1.428
 8278TIP3    H124798   6.493   3.853   1.485
 8278TIP3    H224799   6.419   3.984   1.473
 8279TIP3   OH224800   0.470   3.540   3.195
 8279TIP3    H124801   0.510   3.480   3.258
 8279TIP3    H224802   0.463   3.488   3.115
 8280TIP3   OH224803   1.515   0.741   4.652
 8280TIP3    H124804   1.521   0.811   4.587
 8280TIP3    H224805   1.527   0.786   4.736
 8281TIP3   OH224806   2.358   3.402   0.410
 8281TIP3    H124807   2.449   3.405   0.439
 8281TIP3    H224808   2.324   3.320   0.446
 8282TIP3   OH224809   5.932   2.516   3.529
 8282TIP3    H124810   6.028   2.509   3.531
 8282TIP3    H224811   5.915   2.586   3.466
 8283TIP3   OH224812   3.792   2.501   2.992
 8283TIP3    H124813   3.709   2.518   3.036
 8283TIP3    H224814   3.806   2.407   3.002
 8284TIP3   OH224815   1.127   1.913   1.655
 8284TIP3    H124816   1.111   1.999   1.616
 8284TIP3    H224817   1.157   1.859   1.582
 8285TIP3   OH224818   3.689   1.815   0.937
 8285TIP3    H124819   3.782   1.806   0.954
 8285TIP3    H224820   3.649   1.813   1.024
 8286TIP3   OH224821   7.258   4.884   4.302
 8286TIP3    H124822   7.223   4.797   4.323
 8286TIP3    H224823   7.326   4.899   4.367
 8287TIP3   OH224824   4.632   5.257   1.757
 8287TIP3    H124825   4.691   5.288   1.688
 8287TIP3    H224826   4.655   5.309   1.834
 8288TIP3   OH224827   4.427   0.730   3.997
 8288TIP3    H124828   4.412   0.651   4.049
 8288TIP3    H224829   4.369   0.796   4.035
 8289TIP3   OH224830   2.982   5.075   1.816
 8289TIP3    H124831   3.009   5.162   1.844
 8289TIP3    H224832   2.895   5.088   1.776
 8290TIP3   OH224833   0.757   3.442   3.644
 8290TIP3    H124834   0.774   3.529   3.607
 8290TIP3    H224835   0.662   3.433   3.641
 8291TIP3   OH224836   4.692   5.682   5.792
 8291TIP3    H124837   4.660   5.591   5.788
 8291TIP3    H224838   4.613   5.735   5.797
 8292TIP3   OH224839   2.092   0.448   4.460
 8292TIP3    H124840   2.006   0.466   4.497
 8292TIP3    H224841   2.150   0.511   4.503
 8293TIP3   OH224842   3.732   5.984   3.092
 8293TIP3    H124843   3.759   6.051   3.154
 8293TIP3    H224844   3.697   6.033   3.018
 8294TIP3   OH224845   4.897   5.743   3.282
 8294TIP3    H124846   4.961   5.809   3.255
 8294TIP3    H224847   4.869   5.701   3.200
 8295TIP3   OH224848   5.925   5.552   5.168
 8295TIP3    H124849   5.942   5.505   5.250
 8295TIP3    H224850   5.886   5.635   5.196
 8296TIP3   OH224851   0.214   6.102   0.163
 8296TIP3    H124852   0.121   6.105   0.142
 8296TIP3    H224853   0.233   6.188   0.200
 8297TIP3   OH224854   3.082   5.864   3.083
 8297TIP3    H124855   3.077   5.801   3.011
 8297TIP3    H224856   3.007   5.842   3.138
 8298TIP3   OH224857   1.942   2.007   1.915
 8298TIP3    H124858   1.999   1.979   1.844
 8298TIP3    H224859   1.943   2.102   1.912
 8299TIP3   OH224860   0.389   6.518   4.917
 8299TIP3    H124861   0.440   6.491   4.993
 8299TIP3    H224862   0.317   6.569   4.953
 8300TIP3   OH224863   5.813  -0.013   1.991
 8300TIP3    H124864   5.876   0.043   2.037
 8300TIP3    H224865   5.803  -0.090   2.048
 8301TIP3   OH224866   0.998   4.743   5.733
 8301TIP3    H124867   1.088   4.754   5.761
 8301TIP3    H224868   0.979   4.650   5.749
 8302TIP3   OH224869   1.326   0.404   1.659
 8302TIP3    H124870   1.357   0.319   1.692
 8302TIP3    H224871   1.277   0.441   1.732
 8303TIP3   OH224872   3.239   5.136   3.421
 8303TIP3    H124873   3.276   5.201   3.362
 8303TIP3    H224874   3.277   5.156   3.507
 8304TIP3   OH224875   5.067   0.521   1.372
 8304TIP3    H124876   5.088   0.491   1.283
 8304TIP3    H224877   5.141   0.490   1.425
 8305TIP3   OH224878   0.913   1.441   0.840
 8305TIP3    H124879   0.925   1.429   0.745
 8305TIP3    H224880   0.823   1.415   0.856
 8306TIP3   OH224881   3.661   1.836   0.574
 8306TIP3    H124882   3.687   1.867   0.661
 8306TIP3    H224883   3.565   1.830   0.578
 8307TIP3   OH224884   5.506   5.788   5.237
 8307TIP3    H124885   5.417   5.782   5.203
 8307TIP3    H224886   5.496   5.817   5.327
 8308TIP3   OH224887   3.635   3.958   4.169
 8308TIP3    H124888   3.616   4.040   4.214
 8308TIP3    H224889   3.730   3.960   4.155
 8309TIP3   OH224890   5.761   1.560   0.151
 8309TIP3    H124891   5.804   1.642   0.128
 8309TIP3    H224892   5.757   1.511   0.068
 8310TIP3   OH224893   0.406   1.237   2.465
 8310TIP3    H124894   0.334   1.193   2.511
 8310TIP3    H224895   0.482   1.224   2.521
 8311TIP3   OH224896   7.113   4.387   5.872
 8311TIP3    H124897   7.140   4.430   5.791
 8311TIP3    H224898   7.099   4.459   5.934
 8312TIP3   OH224899   2.225   2.916   0.064
 8312TIP3    H124900   2.206   2.840   0.009
 8312TIP3    H224901   2.319   2.915   0.076
 8313TIP3   OH224902   5.021   3.330   3.355
 8313TIP3    H124903   5.103   3.372   3.383
 8313TIP3    H224904   5.002   3.267   3.424
 8314TIP3   OH224905   3.931   0.074   5.255
 8314TIP3    H124906   3.952  -0.005   5.304
 8314TIP3    H224907   3.874   0.124   5.313
 8315TIP3   OH224908   4.132   5.877   4.328
 8315TIP3    H124909   4.189   5.931   4.273
 8315TIP3    H224910   4.186   5.803   4.354
 8316TIP3   OH224911   4.306   4.899   0.069
 8316TIP3    H124912   4.245   4.876  -0.001
 8316TIP3    H224913   4.320   4.993   0.059
 8317TIP3   OH224914   1.540   4.460   0.812
 8317TIP3    H124915   1.511   4.538   0.860
 8317TIP3    H224916   1.509   4.386   0.865
 8318TIP3   OH224917   3.613   5.563   3.579
 8318TIP3    H124918   3.610   5.470   3.555
 8318TIP3    H224919   3.523   5.583   3.605
 8319TIP3   OH224920   6.233   6.780   1.784
 8319TIP3    H124921   6.308   6.744   1.738
 8319TIP3    H224922   6.161   6.721   1.762
 8320TIP3   OH224923   5.555   6.066   3.644
 8320TIP3    H124924   5.540   6.086   3.736
 8320TIP3    H224925   5.621   5.997   3.643
 8321TIP3   OH224926   1.040   5.800   4.187
 8321TIP3    H124927   1.012   5.827   4.099
 8321TIP3    H224928   0.998   5.715   4.200
 8322TIP3   OH224929   4.754   1.215   0.517
 8322TIP3    H124930   4.847   1.203   0.496
 8322TIP3    H224931   4.743   1.174   0.603
 8323TIP3   OH224932   1.172   6.471   5.140
 8323TIP3    H124933   1.113   6.509   5.204
 8323TIP3    H224934   1.115   6.442   5.069
 8324TIP3   OH224935   4.923   1.399   2.937
 8324TIP3    H124936   4.963   1.329   2.885
 8324TIP3    H224937   4.987   1.470   2.934
 8325TIP3   OH224938   6.224   0.563   5.378
 8325TIP3    H124939   6.284   0.628   5.341
 8325TIP3    H224940   6.232   0.574   5.472
 8326TIP3   OH224941   3.166   0.791   5.441
 8326TIP3    H124942   3.221   0.842   5.381
 8326TIP3    H224943   3.209   0.706   5.446
 8327TIP3   OH224944   4.430   3.793   1.679
 8327TIP3    H124945   4.336   3.808   1.685
 8327TIP3    H224946   4.463   3.813   1.767
 8328TIP3   OH224947   0.951   5.070   5.525
 8328TIP3    H124948   1.008   5.131   5.572
 8328TIP3    H224949   0.926   5.005   5.591
 8329TIP3   OH224950   3.929   5.993   0.578
 8329TIP3    H124951   3.996   5.924   0.587
 8329TIP3    H224952   3.892   6.000   0.666
 8330TIP3   OH224953   5.104   0.076   0.575
 8330TIP3    H124954   5.190   0.097   0.612
 8330TIP3    H224955   5.041   0.107   0.641
 8331TIP3   OH224956   5.370   1.565   2.735
 8331TIP3    H124957   5.358   1.636   2.673
 8331TIP3    H224958   5.314   1.494   2.702
 8332TIP3   OH224959   5.256   0.891   0.309
 8332TIP3    H124960   5.266   0.980   0.341
 8332TIP3    H224961   5.279   0.836   0.384
 8333TIP3   OH224962   6.722   5.593   1.503
 8333TIP3    H124963   6.811   5.571   1.530
 8333TIP3    H224964   6.730   5.679   1.462
 8334TIP3   OH224965   1.403   4.643   0.218
 8334TIP3    H124966   1.387   4.653   0.312
 8334TIP3    H224967   1.325   4.681   0.176
 8335TIP3   OH224968   4.627   1.739   1.515
 8335TIP3    H124969   4.621   1.802   1.587
 8335TIP3    H224970   4.667   1.789   1.444
 8336TIP3   OH224971   5.717   0.088   3.463
 8336TIP3    H124972   5.790   0.143   3.435
 8336TIP3    H224973   5.666   0.073   3.383
 8337TIP3   OH224974   6.748   4.119   4.392
 8337TIP3    H124975   6.678   4.078   4.443
 8337TIP3    H224976   6.828   4.080   4.427
 8338TIP3   OH224977   2.655   6.749   2.079
 8338TIP3    H124978   2.721   6.715   2.138
 8338TIP3    H224979   2.577   6.759   2.133
 8339TIP3   OH224980   7.023   3.494   4.830
 8339TIP3    H124981   7.011   3.452   4.745
 8339TIP3    H224982   7.117   3.500   4.842
 8340TIP3   OH224983   1.105   1.304   3.121
 8340TIP3    H124984   1.029   1.360   3.108
 8340TIP3    H224985   1.151   1.306   3.037
 8341TIP3   OH224986   3.824   3.136   2.255
 8341TIP3    H124987   3.878   3.189   2.314
 8341TIP3    H224988   3.875   3.131   2.174
 8342TIP3   OH224989   3.752   0.837   0.167
 8342TIP3    H124990   3.700   0.897   0.114
 8342TIP3    H224991   3.799   0.894   0.228
 8343TIP3   OH224992   5.118   2.876   5.106
 8343TIP3    H124993   5.193   2.898   5.051
 8343TIP3    H224994   5.045   2.925   5.068
 8344TIP3   OH224995   4.598   6.409   0.994
 8344TIP3    H124996   4.573   6.472   0.925
 8344TIP3    H224997   4.628   6.332   0.946
 8345TIP3   OH224998   6.996   1.822   0.773
 8345TIP3    H124999   6.984   1.754   0.706
 8345TIP3    H225000   7.043   1.777   0.843
 8346TIP3   OH225001   5.865   3.596   4.337
 8346TIP3    H125002   5.814   3.628   4.412
 8346TIP3    H225003   5.947   3.646   4.342
 8347TIP3   OH225004   7.032   6.763   0.800
 8347TIP3    H125005   6.979   6.787   0.724
 8347TIP3    H225006   7.108   6.717   0.763
 8348TIP3   OH225007   5.452   4.864   3.214
 8348TIP3    H125008   5.356   4.855   3.208
 8348TIP3    H225009   5.481   4.782   3.254
 8349TIP3   OH225010   4.846   5.739   5.401
 8349TIP3    H125011   4.843   5.665   5.463
 8349TIP3    H225012   4.795   5.808   5.444
 8350TIP3   OH225013   6.067   4.140   4.062
 8350TIP3    H125014   6.133   4.168   3.999
 8350TIP3    H225015   6.000   4.097   4.010
 8351TIP3   OH225016   4.061   0.332   1.468
 8351TIP3    H125017   3.979   0.364   1.431
 8351TIP3    H225018   4.073   0.245   1.430
 8352TIP3   OH225019   2.648   0.356   4.588
 8352TIP3    H125020   2.601   0.388   4.512
 8352TIP3    H225021   2.591   0.288   4.625
 8353TIP3   OH225022   3.957   3.899   4.878
 8353TIP3    H125023   3.885   3.869   4.822
 8353TIP3    H225024   4.020   3.938   4.818
 8354TIP3   OH225025   5.781   3.466   2.949
 8354TIP3    H125026   5.687   3.448   2.947
 8354TIP3    H225027   5.811   3.448   2.860
 8355TIP3   OH225028   2.570   6.680   2.819
 8355TIP3    H125029   2.487   6.664   2.864
 8355TIP3    H225030   2.634   6.627   2.867
 8356TIP3   OH225031   5.718   5.297   0.552
 8356TIP3    H125032   5.803   5.290   0.509
 8356TIP3    H225033   5.655   5.308   0.481
 8357TIP3   OH225034   4.028   5.256   3.105
 8357TIP3    H125035   4.094   5.253   3.175
 8357TIP3    H225036   3.953   5.301   3.146
 8358TIP3   OH225037   2.054   4.807   2.226
 8358TIP3    H125038   2.043   4.898   2.254
 8358TIP3    H225039   2.149   4.795   2.221
 8359TIP3   OH225040   5.128   0.883   2.509
 8359TIP3    H125041   5.084   0.967   2.504
 8359TIP3    H225042   5.221   0.905   2.507
 8360TIP3   OH225043   1.660   0.813   2.967
 8360TIP3    H125044   1.588   0.865   3.004
 8360TIP3    H225045   1.732   0.824   3.030
 8361TIP3   OH225046   6.587   1.672   1.172
 8361TIP3    H125047   6.645   1.600   1.148
 8361TIP3    H225048   6.645   1.742   1.201
 8362TIP3   OH225049   3.513   1.092   2.871
 8362TIP3    H125050   3.541   1.001   2.870
 8362TIP3    H225051   3.584   1.139   2.915
 8363TIP3   OH225052   4.353   4.273   1.804
 8363TIP3    H125053   4.303   4.221   1.741
 8363TIP3    H225054   4.287   4.312   1.861
 8364TIP3   OH225055   1.041   1.729   1.941
 8364TIP3    H125056   1.053   1.685   1.857
 8364TIP3    H225057   0.947   1.724   1.958
 8365TIP3   OH225058   6.129   1.638   3.363
 8365TIP3    H125059   6.090   1.672   3.443
 8365TIP3    H225060   6.058   1.592   3.319
 8366TIP3   OH225061   0.153   1.016   1.946
 8366TIP3    H125062   0.085   0.973   1.998
 8366TIP3    H225063   0.134   0.991   1.855
 8367TIP3   OH225064   4.781   3.796   5.212
 8367TIP3    H125065   4.854   3.735   5.216
 8367TIP3    H225066   4.821   3.882   5.217
 8368TIP3   OH225067   6.402   5.478   3.854
 8368TIP3    H125068   6.494   5.452   3.863
 8368TIP3    H225069   6.392   5.550   3.916
 8369TIP3   OH225070   5.038   1.033   3.085
 8369TIP3    H125071   4.954   1.077   3.095
 8369TIP3    H225072   5.028   0.983   3.004
 8370TIP3   OH225073   0.658   5.160   1.321
 8370TIP3    H125074   0.633   5.216   1.248
 8370TIP3    H225075   0.634   5.210   1.399
 8371TIP3   OH225076   3.207   4.999   2.435
 8371TIP3    H125077   3.272   4.972   2.500
 8371TIP3    H225078   3.200   4.925   2.375
 8372TIP3   OH225079   0.828   5.603   1.529
 8372TIP3    H125080   0.843   5.537   1.597
 8372TIP3    H225081   0.744   5.642   1.551
 8373TIP3   OH225082   1.244   4.438   0.027
 8373TIP3    H125083   1.264   4.473   0.114
 8373TIP3    H225084   1.179   4.498  -0.008
 8374TIP3   OH225085   5.237   4.174   3.198
 8374TIP3    H125086   5.209   4.146   3.285
 8374TIP3    H225087   5.275   4.261   3.213
 8375TIP3   OH225088   6.894   1.276   4.589
 8375TIP3    H125089   6.965   1.298   4.528
 8375TIP3    H225090   6.916   1.324   4.669
 8376TIP3   OH225091   1.407   4.644   5.210
 8376TIP3    H125092   1.340   4.616   5.148
 8376TIP3    H225093   1.406   4.739   5.204
 8377TIP3   OH225094   1.655   4.914   2.159
 8377TIP3    H125095   1.569   4.956   2.157
 8377TIP3    H225096   1.704   4.963   2.224
 8378TIP3   OH225097   0.408   6.681   1.660
 8378TIP3    H125098   0.408   6.662   1.754
 8378TIP3    H225099   0.499   6.665   1.633
 8379TIP3   OH225100   3.418   4.768   2.579
 8379TIP3    H125101   3.472   4.839   2.544
 8379TIP3    H225102   3.476   4.692   2.579
 8380TIP3   OH225103   4.612   5.054   0.198
 8380TIP3    H125104   4.598   5.085   0.108
 8380TIP3    H225105   4.661   4.973   0.188
 8381TIP3   OH225106   0.350   3.246   5.596
 8381TIP3    H125107   0.350   3.186   5.671
 8381TIP3    H225108   0.423   3.305   5.613
 8382TIP3   OH225109   4.656   1.678   0.205
 8382TIP3    H125110   4.650   1.769   0.233
 8382TIP3    H225111   4.565   1.648   0.200
 8383TIP3   OH225112   5.725   5.777   5.742
 8383TIP3    H125113   5.658   5.829   5.787
 8383TIP3    H225114   5.806   5.825   5.759
 8384TIP3   OH225115   1.830   2.236   1.655
 8384TIP3    H125116   1.765   2.241   1.585
 8384TIP3    H225117   1.879   2.318   1.648
 8385TIP3   OH225118   3.699   2.421   4.399
 8385TIP3    H125119   3.727   2.506   4.434
 8385TIP3    H225120   3.703   2.431   4.304
 8386TIP3   OH225121   0.592   2.461   4.244
 8386TIP3    H125122   0.543   2.386   4.210
 8386TIP3    H225123   0.528   2.533   4.243
 8387TIP3   OH225124   3.416   3.553   1.484
 8387TIP3    H125125   3.412   3.632   1.430
 8387TIP3    H225126   3.463   3.579   1.563
 8388TIP3   OH225127   5.844   3.339   1.688
 8388TIP3    H125128   5.837   3.428   1.653
 8388TIP3    H225129   5.898   3.292   1.626
 8389TIP3   OH225130   2.131   4.550   1.461
 8389TIP3    H125131   2.192   4.477   1.471
 8389TIP3    H225132   2.183   4.628   1.481
 8390TIP3   OH225133   4.316   3.811   3.033
 8390TIP3    H125134   4.255   3.874   2.993
 8390TIP3    H225135   4.312   3.831   3.127
 8391TIP3   OH225136   2.692   0.081   5.609
 8391TIP3    H125137   2.720   0.155   5.555
 8391TIP3    H225138   2.713   0.004   5.556
 8392TIP3   OH225139   4.286   2.564   0.632
 8392TIP3    H125140   4.301   2.601   0.719
 8392TIP3    H225141   4.238   2.482   0.648
 8393TIP3   OH225142   5.425   3.601   1.860
 8393TIP3    H125143   5.455   3.692   1.858
 8393TIP3    H225144   5.374   3.591   1.780
 8394TIP3   OH225145   4.488   5.983   4.480
 8394TIP3    H125146   4.549   5.909   4.485
 8394TIP3    H225147   4.435   5.965   4.403
 8395TIP3   OH225148   1.450   1.965   0.106
 8395TIP3    H125149   1.525   1.968   0.047
 8395TIP3    H225150   1.487   1.946   0.192
 8396TIP3   OH225151   1.548   3.934   3.377
 8396TIP3    H125152   1.616   3.920   3.311
 8396TIP3    H225153   1.573   4.016   3.420
 8397TIP3   OH225154   2.541   2.848   4.508
 8397TIP3    H125155   2.612   2.863   4.571
 8397TIP3    H225156   2.573   2.887   4.427
 8398TIP3   OH225157   3.876   4.385   5.035
 8398TIP3    H125158   3.903   4.392   5.126
 8398TIP3    H225159   3.958   4.384   4.985
 8399TIP3   OH225160   2.055   3.431   5.752
 8399TIP3    H125161   2.068   3.524   5.768
 8399TIP3    H225162   1.988   3.405   5.815
 8400TIP3   OH225163   4.319   2.483   4.789
 8400TIP3    H125164   4.348   2.570   4.764
 8400TIP3    H225165   4.229   2.494   4.819
 8401TIP3   OH225166   4.214   2.621   0.226
 8401TIP3    H125167   4.281   2.562   0.262
 8401TIP3    H225168   4.171   2.659   0.302
 8402TIP3   OH225169   4.204   4.592   4.392
 8402TIP3    H125170   4.147   4.644   4.448
 8402TIP3    H225171   4.144   4.544   4.335
 8403TIP3   OH225172   3.598   3.239   0.439
 8403TIP3    H125173   3.546   3.288   0.503
 8403TIP3    H225174   3.688   3.262   0.459
 8404TIP3   OH225175   5.182   5.093   4.574
 8404TIP3    H125176   5.208   5.037   4.648
 8404TIP3    H225177   5.087   5.078   4.566
 8405TIP3   OH225178   6.825   1.108   1.130
 8405TIP3    H125179   6.777   1.153   1.200
 8405TIP3    H225180   6.906   1.079   1.170
 8406TIP3   OH225181   2.176   0.146   4.912
 8406TIP3    H125182   2.270   0.165   4.901
 8406TIP3    H225183   2.166   0.131   5.006
 8407TIP3   OH225184   6.772   1.538   4.473
 8407TIP3    H125185   6.810   1.518   4.387
 8407TIP3    H225186   6.773   1.454   4.519
 8408TIP3   OH225187   5.167   0.658   4.140
 8408TIP3    H125188   5.118   0.589   4.095
 8408TIP3    H225189   5.135   0.740   4.101
 8409TIP3   OH225190   5.311   2.456   4.686
 8409TIP3    H125191   5.312   2.519   4.759
 8409TIP3    H225192   5.225   2.415   4.691
 8410TIP3   OH225193   6.432   5.620   5.306
 8410TIP3    H125194   6.522   5.608   5.276
 8410TIP3    H225195   6.385   5.542   5.274
 8411TIP3   OH225196   6.862   2.397   4.319
 8411TIP3    H125197   6.936   2.423   4.374
 8411TIP3    H225198   6.823   2.479   4.290
 8412TIP3   OH225199   0.130   2.631   2.111
 8412TIP3    H125200   0.119   2.684   2.032
 8412TIP3    H225201   0.206   2.576   2.093
 8413TIP3   OH225202   4.215   0.138   5.635
 8413TIP3    H125203   4.165   0.187   5.570
 8413TIP3    H225204   4.306   0.167   5.622
 8414TIP3   OH225205   2.056   6.231   2.433
 8414TIP3    H125206   1.976   6.216   2.483
 8414TIP3    H225207   2.057   6.325   2.416
 8415TIP3   OH225208   6.033   5.878   4.571
 8415TIP3    H125209   6.109   5.820   4.570
 8415TIP3    H225210   6.045   5.934   4.495
 8416TIP3   OH225211   6.246   1.436   3.198
 8416TIP3    H125212   6.184   1.363   3.191
 8416TIP3    H225213   6.208   1.494   3.264
 8417TIP3   OH225214   0.920   4.436   1.248
 8417TIP3    H125215   0.863   4.391   1.311
 8417TIP3    H225216   0.923   4.377   1.172
 8418TIP3   OH225217   6.920   0.054   5.830
 8418TIP3    H125218   6.964  -0.031   5.833
 8418TIP3    H225219   6.852   0.045   5.763
 8419TIP3   OH225220   4.597   1.956   1.711
 8419TIP3    H125221   4.621   2.010   1.635
 8419TIP3    H225222   4.575   2.020   1.779
 8420TIP3   OH225223   3.270   1.848   2.103
 8420TIP3    H125224   3.267   1.753   2.099
 8420TIP3    H225225   3.256   1.876   2.012
 8421TIP3   OH225226   4.404   5.222   2.141
 8421TIP3    H125227   4.323   5.176   2.163
 8421TIP3    H225228   4.436   5.178   2.062
 8422TIP3   OH225229   3.960   0.650   0.193
 8422TIP3    H125230   4.028   0.715   0.180
 8422TIP3    H225231   3.879   0.701   0.198
 8423TIP3   OH225232   6.469   1.565   0.637
 8423TIP3    H125233   6.406   1.537   0.704
 8423TIP3    H225234   6.499   1.651   0.667
 8424TIP3   OH225235   3.321   5.969   2.962
 8424TIP3    H125236   3.247   5.937   3.013
 8424TIP3    H225237   3.308   5.932   2.874
 8425TIP3   OH225238   3.298   1.669   2.430
 8425TIP3    H125239   3.274   1.641   2.518
 8425TIP3    H225240   3.219   1.711   2.396
 8426TIP3   OH225241   3.207   1.631   3.047
 8426TIP3    H125242   3.301   1.612   3.050
 8426TIP3    H225243   3.180   1.632   3.139
 8427TIP3   OH225244   1.413   4.594   4.466
 8427TIP3    H125245   1.469   4.532   4.513
 8427TIP3    H225246   1.390   4.659   4.532
 8428TIP3   OH225247   3.535   1.605   0.012
 8428TIP3    H125248   3.479   1.656  -0.046
 8428TIP3    H225249   3.523   1.514  -0.017
 8429TIP3   OH225250   1.518   0.832   0.010
 8429TIP3    H125251   1.485   0.791  -0.069
 8429TIP3    H225252   1.545   0.759   0.066
 8430TIP3   OH225253   5.376   0.721   0.480
 8430TIP3    H125254   5.332   0.678   0.553
 8430TIP3    H225255   5.417   0.649   0.431
 8431TIP3   OH225256   4.144   2.946   2.794
 8431TIP3    H125257   4.209   3.009   2.824
 8431TIP3    H225258   4.146   2.952   2.698
 8432TIP3   OH225259   1.042   1.250   4.980
 8432TIP3    H125260   0.981   1.320   5.005
 8432TIP3    H225261   1.120   1.296   4.949
 8433TIP3   OH225262   0.441   1.776   0.951
 8433TIP3    H125263   0.492   1.766   0.871
 8433TIP3    H225264   0.506   1.776   1.021
 8434TIP3   OH225265   5.412   1.641   4.457
 8434TIP3    H125266   5.472   1.569   4.476
 8434TIP3    H225267   5.420   1.700   4.532
 8435TIP3   OH225268   3.917   3.074   3.542
 8435TIP3    H125269   3.971   3.016   3.595
 8435TIP3    H225270   3.979   3.138   3.507
 8436TIP3   OH225271   5.471   1.078   1.384
 8436TIP3    H125272   5.504   1.056   1.471
 8436TIP3    H225273   5.392   1.024   1.374
 8437TIP3   OH225274   1.692   1.890   4.748
 8437TIP3    H125275   1.759   1.943   4.792
 8437TIP3    H225276   1.611   1.911   4.795
 8438TIP3   OH225277   5.304   3.128   0.186
 8438TIP3    H125278   5.278   3.211   0.225
 8438TIP3    H225279   5.331   3.074   0.260
 8439TIP3   OH225280   4.508   3.727   2.515
 8439TIP3    H125281   4.432   3.698   2.564
 8439TIP3    H225282   4.476   3.740   2.426
 8440TIP3   OH225283   3.130   0.155   4.063
 8440TIP3    H125284   3.080   0.138   4.143
 8440TIP3    H225285   3.220   0.133   4.087
 8441TIP3   OH225286   4.183   5.508   5.161
 8441TIP3    H125287   4.134   5.425   5.158
 8441TIP3    H225288   4.263   5.490   5.113
 8442TIP3   OH225289   3.683   4.496   3.896
 8442TIP3    H125290   3.665   4.421   3.954
 8442TIP3    H225291   3.771   4.479   3.862
 8443TIP3   OH225292   6.726   2.788   4.631
 8443TIP3    H125293   6.809   2.828   4.656
 8443TIP3    H225294   6.678   2.779   4.713
 8444TIP3   OH225295   0.291   1.034   2.680
 8444TIP3    H125296   0.271   0.983   2.758
 8444TIP3    H225297   0.251   0.986   2.608
 8445TIP3   OH225298   2.166   0.793   5.865
 8445TIP3    H125299   2.229   0.824   5.929
 8445TIP3    H225300   2.195   0.830   5.782
 8446TIP3   OH225301   0.658   5.172   4.349
 8446TIP3    H125302   0.652   5.266   4.337
 8446TIP3    H225303   0.605   5.154   4.426
 8447TIP3   OH225304   3.095   3.753   5.566
 8447TIP3    H125305   3.052   3.671   5.542
 8447TIP3    H225306   3.033   3.797   5.624
 8448TIP3   OH225307   4.894   0.575   3.173
 8448TIP3    H125308   4.955   0.634   3.218
 8448TIP3    H225309   4.901   0.599   3.080
 8449TIP3   OH225310   2.419   0.995   4.550
 8449TIP3    H125311   2.422   0.931   4.479
 8449TIP3    H225312   2.511   1.017   4.566
 8450TIP3   OH225313   5.297   2.074   1.920
 8450TIP3    H125314   5.254   2.142   1.869
 8450TIP3    H225315   5.356   2.122   1.978
 8451TIP3   OH225316   0.329   2.855   1.879
 8451TIP3    H125317   0.326   2.790   1.809
 8451TIP3    H225318   0.378   2.812   1.949
 8452TIP3   OH225319   1.684   4.557   2.852
 8452TIP3    H125320   1.611   4.558   2.789
 8452TIP3    H225321   1.752   4.506   2.809
 8453TIP3   OH225322   2.327   5.901   0.793
 8453TIP3    H125323   2.306   5.889   0.700
 8453TIP3    H225324   2.290   5.987   0.815
 8454TIP3   OH225325   3.528   5.098   3.435
 8454TIP3    H125326   3.445   5.055   3.412
 8454TIP3    H225327   3.540   5.078   3.528
 8455TIP3   OH225328   6.008   4.024   1.960
 8455TIP3    H125329   5.955   3.945   1.972
 8455TIP3    H225330   5.971   4.087   2.023
 8456TIP3   OH225331   6.301   1.103  -0.051
 8456TIP3    H125332   6.378   1.108   0.007
 8456TIP3    H225333   6.228   1.086   0.008
 8457TIP3   OH225334   6.433   3.679   4.428
 8457TIP3    H125335   6.527   3.661   4.430
 8457TIP3    H225336   6.392   3.592   4.428
 8458TIP3   OH225337   6.404   3.584   2.478
 8458TIP3    H125338   6.400   3.665   2.428
 8458TIP3    H225339   6.377   3.516   2.415
 8459TIP3   OH225340   6.637   2.969   0.774
 8459TIP3    H125341   6.697   2.973   0.700
 8459TIP3    H225342   6.661   2.890   0.821
 8460TIP3   OH225343   3.014   0.741   0.633
 8460TIP3    H125344   2.958   0.770   0.561
 8460TIP3    H225345   2.987   0.795   0.707
 8461TIP3   OH225346   0.641   1.280   2.630
 8461TIP3    H125347   0.690   1.362   2.640
 8461TIP3    H225348   0.701   1.212   2.659
 8462TIP3   OH225349   1.371   3.258   1.890
 8462TIP3    H125350   1.412   3.266   1.976
 8462TIP3    H225351   1.441   3.275   1.827
 8463TIP3   OH225352   0.240   0.426   2.662
 8463TIP3    H125353   0.190   0.384   2.592
 8463TIP3    H225354   0.252   0.516   2.632
 8464TIP3   OH225355  -0.052   5.943   1.490
 8464TIP3    H125356  -0.058   5.848   1.487
 8464TIP3    H225357  -0.080   5.966   1.579
 8465TIP3   OH225358   1.351   6.605   4.970
 8465TIP3    H125359   1.296   6.568   5.039
 8465TIP3    H225360   1.296   6.605   4.892
 8466TIP3   OH225361   2.797   2.353   4.951
 8466TIP3    H125362   2.821   2.261   4.942
 8466TIP3    H225363   2.709   2.351   4.988
 8467TIP3   OH225364   0.373   2.742   3.198
 8467TIP3    H125365   0.313   2.791   3.142
 8467TIP3    H225366   0.357   2.776   3.286
 8468TIP3   OH225367   6.507   3.928   5.674
 8468TIP3    H125368   6.519   3.936   5.580
 8468TIP3    H225369   6.456   4.005   5.699
 8469TIP3   OH225370   6.774   2.315   1.929
 8469TIP3    H125371   6.715   2.246   1.958
 8469TIP3    H225372   6.720   2.368   1.870
 8470TIP3   OH225373   3.042   4.259   3.253
 8470TIP3    H125374   2.963   4.307   3.281
 8470TIP3    H225375   3.021   4.167   3.270
 8471TIP3   OH225376   2.323   3.798   3.250
 8471TIP3    H125377   2.418   3.800   3.255
 8471TIP3    H225378   2.303   3.724   3.192
 8472TIP3   OH225379   2.568   5.828   2.461
 8472TIP3    H125380   2.613   5.761   2.512
 8472TIP3    H225381   2.516   5.876   2.525
 8473TIP3   OH225382   7.046   6.470   4.331
 8473TIP3    H125383   7.111   6.519   4.382
 8473TIP3    H225384   7.073   6.484   4.240
 8474TIP3   OH225385   0.058   4.474   0.635
 8474TIP3    H125386  -0.025   4.444   0.597
 8474TIP3    H225387   0.052   4.569   0.631
 8475TIP3   OH225388   5.973   1.359   3.628
 8475TIP3    H125389   6.026   1.379   3.550
 8475TIP3    H225390   5.998   1.426   3.692
 8476TIP3   OH225391   2.938   6.613   5.517
 8476TIP3    H125392   2.865   6.664   5.553
 8476TIP3    H225393   2.895   6.541   5.470
 8477TIP3   OH225394   0.886   2.217   1.381
 8477TIP3    H125395   0.891   2.217   1.285
 8477TIP3    H225396   0.856   2.129   1.403
 8478TIP3   OH225397   4.402   0.956   0.752
 8478TIP3    H125398   4.368   0.968   0.840
 8478TIP3    H225399   4.390   1.042   0.710
 8479TIP3   OH225400   1.816   5.876   5.700
 8479TIP3    H125401   1.898   5.919   5.674
 8479TIP3    H225402   1.753   5.948   5.708
 8480TIP3   OH225403   0.310   3.355   0.523
 8480TIP3    H125404   0.353   3.423   0.574
 8480TIP3    H225405   0.256   3.308   0.586
 8481TIP3   OH225406   5.419   6.619   0.326
 8481TIP3    H125407   5.347   6.669   0.366
 8481TIP3    H225408   5.416   6.643   0.233
 8482TIP3   OH225409   2.652   4.589   2.622
 8482TIP3    H125410   2.569   4.628   2.594
 8482TIP3    H225411   2.633   4.496   2.633
 8483TIP3   OH225412   2.053   0.004   0.594
 8483TIP3    H125413   1.983  -0.061   0.597
 8483TIP3    H225414   2.008   0.088   0.582
 8484TIP3   OH225415   0.814   3.884   3.995
 8484TIP3    H125416   0.819   3.794   3.962
 8484TIP3    H225417   0.896   3.897   4.042
 8485TIP3   OH225418   0.966   5.274   1.344
 8485TIP3    H125419   0.980   5.336   1.273
 8485TIP3    H225420   0.880   5.235   1.326
 8486TIP3   OH225421   5.329   2.906   1.990
 8486TIP3    H125422   5.295   2.949   2.068
 8486TIP3    H225423   5.376   2.830   2.023
 8487TIP3   OH225424   4.067   0.109   2.362
 8487TIP3    H125425   4.137   0.057   2.400
 8487TIP3    H225426   3.986   0.066   2.389
 8488TIP3   OH225427   2.215   4.208   1.003
 8488TIP3    H125428   2.138   4.223   0.948
 8488TIP3    H225429   2.184   4.226   1.092
 8489TIP3   OH225430   3.060   1.597   3.420
 8489TIP3    H125431   3.060   1.675   3.475
 8489TIP3    H225432   3.002   1.619   3.347
 8490TIP3   OH225433   6.059   5.432   4.090
 8490TIP3    H125434   6.144   5.394   4.112
 8490TIP3    H225435   6.035   5.392   4.006
 8491TIP3   OH225436   6.094   2.818   3.827
 8491TIP3    H125437   6.008   2.788   3.799
 8491TIP3    H225438   6.090   2.914   3.822
 8492TIP3   OH225439   6.511   4.985   0.575
 8492TIP3    H125440   6.540   5.072   0.546
 8492TIP3    H225441   6.584   4.952   0.628
 8493TIP3   OH225442   0.753   4.780   0.201
 8493TIP3    H125443   0.766   4.685   0.201
 8493TIP3    H225444   0.658   4.791   0.212
 8494TIP3   OH225445   4.371   2.530   3.269
 8494TIP3    H125446   4.430   2.548   3.343
 8494TIP3    H225447   4.430   2.514   3.195
 8495TIP3   OH225448   3.987   0.741   2.405
 8495TIP3    H125449   3.944   0.731   2.490
 8495TIP3    H225450   4.077   0.768   2.427
 8496TIP3   OH225451   3.412   3.819   3.196
 8496TIP3    H125452   3.321   3.827   3.223
 8496TIP3    H225453   3.431   3.900   3.149
 8497TIP3   OH225454   1.408   1.406   0.646
 8497TIP3    H125455   1.472   1.452   0.700
 8497TIP3    H225456   1.383   1.330   0.698
 8498TIP3   OH225457   5.074   4.057   0.955
 8498TIP3    H125458   5.085   4.005   1.034
 8498TIP3    H225459   5.163   4.067   0.921
 8499TIP3   OH225460   2.376   5.300   0.448
 8499TIP3    H125461   2.452   5.243   0.457
 8499TIP3    H225462   2.304   5.242   0.424
 8500TIP3   OH225463   4.728   4.958   2.702
 8500TIP3    H125464   4.703   4.899   2.631
 8500TIP3    H225465   4.646   4.998   2.729
 8501TIP3   OH225466   0.651   3.543   5.289
 8501TIP3    H125467   0.644   3.560   5.195
 8501TIP3    H225468   0.655   3.448   5.297
 8502TIP3   OH225469   4.444   1.884   0.926
 8502TIP3    H125470   4.379   1.918   0.987
 8502TIP3    H225471   4.393   1.860   0.848
 8503TIP3   OH225472   5.118   0.915   1.605
 8503TIP3    H125473   5.059   0.862   1.658
 8503TIP3    H225474   5.125   0.998   1.652
 8504TIP3   OH225475   5.155   0.965   4.872
 8504TIP3    H125476   5.170   0.972   4.778
 8504TIP3    H225477   5.076   0.911   4.879
 8505TIP3   OH225478   4.651   6.018   5.874
 8505TIP3    H125479   4.606   5.933   5.878
 8505TIP3    H225480   4.728   6.007   5.930
 8506TIP3   OH225481   3.769   5.272   4.470
 8506TIP3    H125482   3.819   5.243   4.547
 8506TIP3    H225483   3.724   5.193   4.440
 8507TIP3   OH225484   5.343   0.175   3.669
 8507TIP3    H125485   5.337   0.081   3.648
 8507TIP3    H225486   5.269   0.191   3.728
 8508TIP3   OH225487   2.595   1.264   2.111
 8508TIP3    H125488   2.637   1.350   2.111
 8508TIP3    H225489   2.666   1.202   2.094
 8509TIP3   OH225490   5.610   5.172   5.529
 8509TIP3    H125491   5.601   5.238   5.461
 8509TIP3    H225492   5.656   5.217   5.600
 8510TIP3   OH225493   0.166   1.956   4.083
 8510TIP3    H125494   0.259   1.939   4.097
 8510TIP3    H225495   0.127   1.870   4.070
 8511TIP3   OH225496   6.777   6.609   3.290
 8511TIP3    H125497   6.801   6.516   3.288
 8511TIP3    H225498   6.861   6.655   3.283
 8512TIP3   OH225499   2.265   5.943   0.291
 8512TIP3    H125500   2.253   5.897   0.374
 8512TIP3    H225501   2.245   5.878   0.224
 8513TIP3   OH225502   3.520   6.571   0.383
 8513TIP3    H125503   3.607   6.544   0.410
 8513TIP3    H225504   3.463   6.546   0.456
 8514TIP3   OH225505   0.577   2.871   2.689
 8514TIP3    H125506   0.663   2.840   2.662
 8514TIP3    H225507   0.518   2.839   2.621
 8515TIP3   OH225508   0.327   1.988   1.477
 8515TIP3    H125509   0.353   2.078   1.497
 8515TIP3    H225510   0.327   1.943   1.562
 8516TIP3   OH225511   5.089   5.944   3.239
 8516TIP3    H125512   5.030   6.019   3.249
 8516TIP3    H225513   5.133   5.938   3.324
 8517TIP3   OH225514   3.800   4.711   1.649
 8517TIP3    H125515   3.799   4.705   1.554
 8517TIP3    H225516   3.721   4.760   1.671
 8518TIP3   OH225517   0.414   3.142   2.520
 8518TIP3    H125518   0.492   3.189   2.549
 8518TIP3    H225519   0.449   3.062   2.479
 8519TIP3   OH225520   4.809   4.516   3.692
 8519TIP3    H125521   4.822   4.568   3.771
 8519TIP3    H225522   4.893   4.521   3.646
 8520TIP3   OH225523   4.617   0.263   5.010
 8520TIP3    H125524   4.669   0.246   5.088
 8520TIP3    H225525   4.559   0.188   5.002
 8521TIP3   OH225526   0.578   6.578   2.417
 8521TIP3    H125527   0.589   6.600   2.509
 8521TIP3    H225528   0.604   6.486   2.411
 8522TIP3   OH225529   3.561   1.792   2.151
 8522TIP3    H125530   3.577   1.776   2.058
 8522TIP3    H225531   3.469   1.771   2.164
 8523TIP3   OH225532   0.472   3.390   3.647
 8523TIP3    H125533   0.402   3.349   3.595
 8523TIP3    H225534   0.425   3.442   3.713
 8524TIP3   OH225535   4.688   3.256   5.858
 8524TIP3    H125536   4.778   3.243   5.828
 8524TIP3    H225537   4.657   3.168   5.879
 8525TIP3   OH225538   1.619   2.770   2.581
 8525TIP3    H125539   1.627   2.854   2.626
 8525TIP3    H225540   1.539   2.731   2.617
 8526TIP3   OH225541   7.155   4.614   3.839
 8526TIP3    H125542   7.065   4.590   3.865
 8526TIP3    H225543   7.183   4.676   3.906
 8527TIP3   OH225544   2.410   0.818   2.248
 8527TIP3    H125545   2.466   0.742   2.231
 8527TIP3    H225546   2.470   0.886   2.277
 8528TIP3   OH225547   0.668   1.337   4.473
 8528TIP3    H125548   0.684   1.423   4.510
 8528TIP3    H225549   0.590   1.305   4.519
 8529TIP3   OH225550   1.168   6.505   3.196
 8529TIP3    H125551   1.139   6.491   3.286
 8529TIP3    H225552   1.141   6.595   3.175
 8530TIP3   OH225553   2.712   3.716   0.086
 8530TIP3    H125554   2.626   3.757   0.093
 8530TIP3    H225555   2.716   3.682  -0.004
 8531TIP3   OH225556   2.165   0.115   1.702
 8531TIP3    H125557   2.242   0.153   1.659
 8531TIP3    H225558   2.133   0.050   1.639
 8532TIP3   OH225559   0.769   1.986   1.473
 8532TIP3    H125560   0.759   1.896   1.443
 8532TIP3    H225561   0.709   1.994   1.547
 8533TIP3   OH225562   2.184   1.702   1.054
 8533TIP3    H125563   2.138   1.773   1.010
 8533TIP3    H225564   2.246   1.745   1.111
 8534TIP3   OH225565   1.656   6.543   2.391
 8534TIP3    H125566   1.716   6.594   2.445
 8534TIP3    H225567   1.653   6.590   2.308
 8535TIP3   OH225568   1.963   4.025   4.671
 8535TIP3    H125569   1.917   3.980   4.742
 8535TIP3    H225570   1.900   4.027   4.599
 8536TIP3   OH225571   1.754   3.989   4.473
 8536TIP3    H125572   1.678   3.981   4.530
 8536TIP3    H225573   1.719   4.022   4.391
 8537TIP3   OH225574   3.188   2.398   4.875
 8537TIP3    H125575   3.203   2.356   4.960
 8537TIP3    H225576   3.125   2.341   4.831
 8538TIP3   OH225577   6.165   1.807   4.174
 8538TIP3    H125578   6.076   1.826   4.204
 8538TIP3    H225579   6.222   1.852   4.236
 8539TIP3   OH225580   2.457   5.039   2.318
 8539TIP3    H125581   2.442   5.035   2.224
 8539TIP3    H225582   2.407   4.965   2.354
 8540TIP3   OH225583   1.482   0.091   2.179
 8540TIP3    H125584   1.524   0.038   2.111
 8540TIP3    H225585   1.409   0.134   2.134
 8541TIP3   OH225586   5.700   4.671   0.495
 8541TIP3    H125587   5.614   4.632   0.511
 8541TIP3    H225588   5.736   4.621   0.422
 8542TIP3   OH225589   3.010   6.354   2.608
 8542TIP3    H125590   3.019   6.366   2.513
 8542TIP3    H225591   2.921   6.384   2.627
 8543TIP3   OH225592   4.709   0.902   4.248
 8543TIP3    H125593   4.657   0.824   4.269
 8543TIP3    H225594   4.799   0.877   4.271
 8544TIP3   OH225595   2.543   6.247   5.780
 8544TIP3    H125596   2.488   6.282   5.851
 8544TIP3    H225597   2.589   6.324   5.745
 8545TIP3   OH225598   4.267   2.359   3.607
 8545TIP3    H125599   4.265   2.448   3.642
 8545TIP3    H225600   4.206   2.361   3.533
 8546TIP3   OH225601   2.734   3.660   2.270
 8546TIP3    H125602   2.807   3.699   2.318
 8546TIP3    H225603   2.762   3.659   2.179
 8547TIP3   OH225604   4.215   6.477   3.077
 8547TIP3    H125605   4.132   6.525   3.081
 8547TIP3    H225606   4.282   6.546   3.072
 8548TIP3   OH225607   5.998   3.365   5.730
 8548TIP3    H125608   6.076   3.347   5.782
 8548TIP3    H225609   5.942   3.288   5.744
 8549TIP3   OH225610   6.649   5.601   2.969
 8549TIP3    H125611   6.664   5.507   2.976
 8549TIP3    H225612   6.554   5.610   2.964
 8550TIP3   OH225613   2.854   3.310   5.054
 8550TIP3    H125614   2.836   3.235   4.998
 8550TIP3    H225615   2.944   3.297   5.084
 8551TIP3   OH225616   2.944   4.242   2.504
 8551TIP3    H125617   2.895   4.308   2.454
 8551TIP3    H225618   2.905   4.245   2.591
 8552TIP3   OH225619   0.699   6.187   2.015
 8552TIP3    H125620   0.746   6.181   1.932
 8552TIP3    H225621   0.631   6.252   1.999
 8553TIP3   OH225622   1.173   4.361   4.453
 8553TIP3    H125623   1.234   4.314   4.395
 8553TIP3    H225624   1.139   4.432   4.398
 8554TIP3   OH225625   4.900   0.693   3.778
 8554TIP3    H125626   4.854   0.712   3.696
 8554TIP3    H225627   4.900   0.777   3.824
 8555TIP3   OH225628   5.408   5.884   1.999
 8555TIP3    H125629   5.394   5.807   1.943
 8555TIP3    H225630   5.487   5.864   2.049
 8556TIP3   OH225631   4.447   3.225   2.406
 8556TIP3    H125632   4.488   3.291   2.461
 8556TIP3    H225633   4.432   3.270   2.322
 8557TIP3   OH225634   5.219   4.454   4.642
 8557TIP3    H125635   5.149   4.434   4.704
 8557TIP3    H225636   5.288   4.494   4.695
 8558TIP3   OH225637   6.750   3.332   0.509
 8558TIP3    H125638   6.833   3.332   0.556
 8558TIP3    H225639   6.772   3.362   0.420
 8559TIP3   OH225640   3.570   6.606   3.334
 8559TIP3    H125641   3.571   6.510   3.332
 8559TIP3    H225642   3.492   6.628   3.385
 8560TIP3   OH225643   7.254  -0.029   4.616
 8560TIP3    H125644   7.260  -0.060   4.706
 8560TIP3    H225645   7.198   0.049   4.621
 8561TIP3   OH225646   2.928   4.586   3.108
 8561TIP3    H125647   3.015   4.565   3.073
 8561TIP3    H225648   2.882   4.501   3.110
 8562TIP3   OH225649   4.583   5.656   2.181
 8562TIP3    H125650   4.540   5.660   2.266
 8562TIP3    H225651   4.529   5.597   2.129
 8563TIP3   OH225652   1.861   1.783   4.206
 8563TIP3    H125653   1.927   1.745   4.264
 8563TIP3    H225654   1.903   1.860   4.167
 8564TIP3   OH225655   4.039   3.266   0.846
 8564TIP3    H125656   4.085   3.272   0.762
 8564TIP3    H225657   3.997   3.180   0.844
 8565TIP3   OH225658   3.776   4.035   5.073
 8565TIP3    H125659   3.728   4.116   5.093
 8565TIP3    H225660   3.764   4.023   4.979
 8566TIP3   OH225661   2.346   4.714   1.461
 8566TIP3    H125662   2.381   4.753   1.541
 8566TIP3    H225663   2.424   4.687   1.412
 8567TIP3   OH225664   6.964   0.682   4.194
 8567TIP3    H125665   7.048   0.715   4.225
 8567TIP3    H225666   6.926   0.638   4.270
 8568TIP3   OH225667   0.666   4.464   2.466
 8568TIP3    H125668   0.613   4.409   2.524
 8568TIP3    H225669   0.756   4.442   2.489
 8569TIP3   OH225670   2.305   2.743   5.545
 8569TIP3    H125671   2.333   2.750   5.454
 8569TIP3    H225672   2.313   2.650   5.566
 8570TIP3   OH225673   5.651   5.458   1.513
 8570TIP3    H125674   5.700   5.429   1.437
 8570TIP3    H225675   5.642   5.380   1.567
 8571TIP3   OH225676   1.215   6.675   0.381
 8571TIP3    H125677   1.170   6.740   0.434
 8571TIP3    H225678   1.150   6.646   0.318
 8572TIP3   OH225679   6.099   2.270   4.518
 8572TIP3    H125680   6.140   2.328   4.454
 8572TIP3    H225681   6.009   2.302   4.526
 8573TIP3   OH225682   1.331   0.197   0.143
 8573TIP3    H125683   1.394   0.269   0.141
 8573TIP3    H225684   1.380   0.123   0.180
 8574TIP3   OH225685   4.354   2.655   4.535
 8574TIP3    H125686   4.347   2.739   4.492
 8574TIP3    H225687   4.433   2.615   4.498
 8575TIP3   OH225688   2.539   1.057   2.303
 8575TIP3    H125689   2.548   1.125   2.235
 8575TIP3    H225690   2.556   1.103   2.385
 8576TIP3   OH225691   0.285   3.971   3.425
 8576TIP3    H125692   0.257   3.965   3.517
 8576TIP3    H225693   0.238   4.047   3.391
 8577TIP3   OH225694   3.820   0.204   3.792
 8577TIP3    H125695   3.795   0.297   3.787
 8577TIP3    H225696   3.886   0.201   3.861
 8578TIP3   OH225697   4.053   6.255   0.858
 8578TIP3    H125698   4.006   6.171   0.862
 8578TIP3    H225699   4.093   6.263   0.945
 8579TIP3   OH225700   4.742   1.488   5.516
 8579TIP3    H125701   4.805   1.550   5.478
 8579TIP3    H225702   4.683   1.542   5.568
 8580TIP3   OH225703   4.505   1.225   1.594
 8580TIP3    H125704   4.452   1.239   1.516
 8580TIP3    H225705   4.492   1.304   1.646
 8581TIP3   OH225706   3.189   5.957   3.921
 8581TIP3    H125707   3.119   5.989   3.978
 8581TIP3    H225708   3.145   5.901   3.857
 8582TIP3   OH225709   0.409   5.643   4.822
 8582TIP3    H125710   0.357   5.696   4.883
 8582TIP3    H225711   0.470   5.706   4.782
 8583TIP3   OH225712   2.585   2.854   0.458
 8583TIP3    H125713   2.634   2.774   0.474
 8583TIP3    H225714   2.494   2.831   0.475
 8584TIP3   OH225715   0.282   5.768   2.525
 8584TIP3    H125716   0.272   5.684   2.569
 8584TIP3    H225717   0.208   5.820   2.557
 8585TIP3   OH225718   3.919   5.537   2.308
 8585TIP3    H125719   3.868   5.485   2.370
 8585TIP3    H225720   3.858   5.554   2.236
 8586TIP3   OH225721   3.776   1.963   1.291
 8586TIP3    H125722   3.801   1.967   1.383
 8586TIP3    H225723   3.704   1.899   1.289
 8587TIP3   OH225724   2.215   1.949   2.274
 8587TIP3    H125725   2.277   2.021   2.286
 8587TIP3    H225726   2.146   1.986   2.219
 8588TIP3   OH225727   1.862   4.952   0.417
 8588TIP3    H125728   1.923   4.956   0.491
 8588TIP3    H225729   1.795   4.889   0.445
 8589TIP3   OH225730   0.411   6.200   5.329
 8589TIP3    H125731   0.359   6.120   5.337
 8589TIP3    H225732   0.460   6.205   5.411
 8590TIP3   OH225733   5.067   0.660   5.097
 8590TIP3    H125734   5.119   0.636   5.021
 8590TIP3    H225735   5.126   0.713   5.151
 8591TIP3   OH225736   2.398   1.616   0.088
 8591TIP3    H125737   2.416   1.700   0.045
 8591TIP3    H225738   2.338   1.638   0.159
 8592TIP3   OH225739   5.617   4.290   2.302
 8592TIP3    H125740   5.711   4.300   2.314
 8592TIP3    H225741   5.594   4.213   2.355
 8593TIP3   OH225742   4.057   0.941   4.624
 8593TIP3    H125743   3.995   0.870   4.639
 8593TIP3    H225744   4.130   0.900   4.578
 8594TIP3   OH225745   0.428   3.978   1.177
 8594TIP3    H125746   0.415   3.954   1.269
 8594TIP3    H225747   0.469   4.064   1.181
 8595TIP3   OH225748   5.273   5.595   4.711
 8595TIP3    H125749   5.208   5.525   4.718
 8595TIP3    H225750   5.269   5.622   4.619
 8596TIP3   OH225751   6.396   6.480   4.414
 8596TIP3    H125752   6.485   6.509   4.433
 8596TIP3    H225753   6.351   6.481   4.498
 8597TIP3   OH225754   6.672   3.577   5.630
 8597TIP3    H125755   6.699   3.655   5.580
 8597TIP3    H225756   6.578   3.569   5.612
 8598TIP3   OH225757   0.998   4.615   3.516
 8598TIP3    H125758   1.031   4.704   3.530
 8598TIP3    H225759   0.909   4.627   3.483
 8599TIP3   OH225760   2.165   4.928   1.677
 8599TIP3    H125761   2.090   4.981   1.703
 8599TIP3    H225762   2.155   4.846   1.726
 8600TIP3   OH225763   3.828   6.508   0.207
 8600TIP3    H125764   3.825   6.413   0.197
 8600TIP3    H225765   3.822   6.523   0.301
 8601TIP3   OH225766   6.725   6.789   1.463
 8601TIP3    H125767   6.724   6.773   1.368
 8601TIP3    H225768   6.803   6.743   1.494
 8602TIP3   OH225769   5.280   3.048   4.248
 8602TIP3    H125770   5.252   3.064   4.338
 8602TIP3    H225771   5.366   3.007   4.257
 8603TIP3   OH225772   1.572   5.350   5.537
 8603TIP3    H125773   1.556   5.426   5.481
 8603TIP3    H225774   1.523   5.279   5.496
 8604TIP3   OH225775   1.938   1.464   1.973
 8604TIP3    H125776   2.030   1.447   1.952
 8604TIP3    H225777   1.940   1.545   2.024
 8605TIP3   OH225778   4.766   1.505   0.855
 8605TIP3    H125779   4.805   1.453   0.784
 8605TIP3    H225780   4.837   1.518   0.917
 8606TIP3   OH225781   3.658   1.336   4.650
 8606TIP3    H125782   3.653   1.395   4.575
 8606TIP3    H225783   3.594   1.371   4.713
 8607TIP3   OH225784   4.335   1.450   4.704
 8607TIP3    H125785   4.341   1.358   4.732
 8607TIP3    H225786   4.267   1.450   4.636
 8608TIP3   OH225787   1.985   1.276   4.421
 8608TIP3    H125788   1.979   1.180   4.424
 8608TIP3    H225789   1.987   1.297   4.327
 8609TIP3   OH225790   5.068   6.286   2.279
 8609TIP3    H125791   5.084   6.300   2.185
 8609TIP3    H225792   5.009   6.210   2.282
 8610TIP3   OH225793   6.439   6.368   2.240
 8610TIP3    H125794   6.410   6.290   2.287
 8610TIP3    H225795   6.369   6.432   2.253
 8611TIP3   OH225796   4.085   5.603   3.617
 8611TIP3    H125797   4.150   5.601   3.547
 8611TIP3    H225798   4.045   5.516   3.615
 8612TIP3   OH225799   3.504   1.807   0.273
 8612TIP3    H125800   3.552   1.770   0.348
 8612TIP3    H225801   3.430   1.748   0.260
 8613TIP3   OH225802   3.044   5.612   2.652
 8613TIP3    H125803   3.126   5.565   2.633
 8613TIP3    H225804   3.044   5.622   2.747
 8614TIP3   OH225805   4.539   1.855   4.049
 8614TIP3    H125806   4.512   1.764   4.065
 8614TIP3    H225807   4.488   1.906   4.112
 8615TIP3   OH225808   2.813   6.446   0.335
 8615TIP3    H125809   2.731   6.422   0.378
 8615TIP3    H225810   2.847   6.363   0.300
 8616TIP3   OH225811   3.746   3.860   5.754
 8616TIP3    H125812   3.806   3.932   5.772
 8616TIP3    H225813   3.784   3.785   5.800
 8617TIP3   OH225814   5.820   2.568   5.633
 8617TIP3    H125815   5.895   2.622   5.661
 8617TIP3    H225816   5.763   2.629   5.587
 8618TIP3   OH225817   2.158   5.374   1.553
 8618TIP3    H125818   2.214   5.330   1.489
 8618TIP3    H225819   2.106   5.435   1.501
 8619TIP3   OH225820   4.284   0.162   0.744
 8619TIP3    H125821   4.364   0.160   0.796
 8619TIP3    H225822   4.310   0.200   0.661
 8620TIP3   OH225823   5.182   3.852   0.648
 8620TIP3    H125824   5.197   3.863   0.742
 8620TIP3    H225825   5.122   3.778   0.642
 8621TIP3   OH225826   2.320   4.152   1.930
 8621TIP3    H125827   2.388   4.212   1.902
 8621TIP3    H225828   2.358   4.065   1.918
 8622TIP3   OH225829   5.846   2.399   4.548
 8622TIP3    H125830   5.853   2.442   4.463
 8622TIP3    H225831   5.752   2.395   4.565
 8623TIP3   OH225832   1.659   6.779   0.814
 8623TIP3    H125833   1.721   6.852   0.809
 8623TIP3    H225834   1.714   6.701   0.806
 8624TIP3   OH225835   0.058   5.800   1.756
 8624TIP3    H125836  -0.020   5.851   1.734
 8624TIP3    H225837   0.069   5.814   1.850
 8625TIP3   OH225838   0.424   1.022   3.441
 8625TIP3    H125839   0.453   1.091   3.501
 8625TIP3    H225840   0.392   0.953   3.499
 8626TIP3   OH225841   0.423   1.321   5.808
 8626TIP3    H125842   0.480   1.349   5.736
 8626TIP3    H225843   0.420   1.396   5.867
 8627TIP3   OH225844   1.719   0.650   2.428
 8627TIP3    H125845   1.662   0.722   2.457
 8627TIP3    H225846   1.679   0.619   2.347
 8628TIP3   OH225847   0.688   1.896   5.065
 8628TIP3    H125848   0.601   1.934   5.058
 8628TIP3    H225849   0.679   1.808   5.029
 8629TIP3   OH225850   2.964   5.201   2.809
 8629TIP3    H125851   2.954   5.210   2.714
 8629TIP3    H225852   2.882   5.161   2.838
 8630TIP3   OH225853   6.201   4.460   3.921
 8630TIP3    H125854   6.221   4.367   3.915
 8630TIP3    H225855   6.266   4.503   3.865
 8631TIP3   OH225856   5.400   2.155   4.706
 8631TIP3    H125857   5.357   2.231   4.668
 8631TIP3    H225858   5.438   2.109   4.631
 8632TIP3   OH225859   5.549   6.675   4.621
 8632TIP3    H125860   5.528   6.703   4.710
 8632TIP3    H225861   5.587   6.588   4.632
 8633TIP3   OH225862   2.075   3.719   4.693
 8633TIP3    H125863   2.116   3.805   4.702
 8633TIP3    H225864   1.995   3.725   4.746
 8634TIP3   OH225865   0.588   2.068   0.090
 8634TIP3    H125866   0.615   1.978   0.071
 8634TIP3    H225867   0.498   2.060   0.121
 8635TIP3   OH225868   1.536   0.649   0.648
 8635TIP3    H125869   1.597   0.612   0.584
 8635TIP3    H225870   1.587   0.714   0.696
 8636TIP3   OH225871   7.070   2.166   4.494
 8636TIP3    H125872   7.146   2.218   4.469
 8636TIP3    H225873   7.083   2.148   4.587
 8637TIP3   OH225874   0.319   5.486   4.613
 8637TIP3    H125875   0.340   5.539   4.690
 8637TIP3    H225876   0.404   5.464   4.575
 8638TIP3   OH225877   0.353   2.482   4.961
 8638TIP3    H125878   0.396   2.450   4.882
 8638TIP3    H225879   0.424   2.499   5.022
 8639TIP3   OH225880   1.183   4.983   1.649
 8639TIP3    H125881   1.110   5.031   1.610
 8639TIP3    H225882   1.193   4.906   1.593
 8640TIP3   OH225883   0.579   2.953   3.183
 8640TIP3    H125884   0.541   3.016   3.244
 8640TIP3    H225885   0.590   3.002   3.102
 8641TIP3   OH225886   0.733   3.735   0.482
 8641TIP3    H125887   0.752   3.696   0.396
 8641TIP3    H225888   0.784   3.681   0.543
 8642TIP3   OH225889   6.727   5.875   0.905
 8642TIP3    H125890   6.634   5.864   0.886
 8642TIP3    H225891   6.772   5.841   0.828
 8643TIP3   OH225892   4.459   3.115   3.477
 8643TIP3    H125893   4.526   3.176   3.447
 8643TIP3    H225894   4.387   3.171   3.507
 8644TIP3   OH225895   2.777   2.806   4.665
 8644TIP3    H125896   2.722   2.802   4.744
 8644TIP3    H225897   2.799   2.715   4.647
 8645TIP3   OH225898   2.011   6.412   3.544
 8645TIP3    H125899   2.018   6.480   3.610
 8645TIP3    H225900   1.944   6.353   3.577
 8646TIP3   OH225901   0.356   4.663   0.523
 8646TIP3    H125902   0.343   4.658   0.618
 8646TIP3    H225903   0.425   4.599   0.505
 8647TIP3   OH225904   4.597   6.236   0.758
 8647TIP3    H125905   4.657   6.190   0.699
 8647TIP3    H225906   4.543   6.167   0.796
 8648TIP3   OH225907   1.487   5.129   5.815
 8648TIP3    H125908   1.437   5.063   5.864
 8648TIP3    H225909   1.531   5.181   5.882
 8649TIP3   OH225910   2.583   5.929   0.939
 8649TIP3    H125911   2.506   5.932   0.883
 8649TIP3    H225912   2.578   6.010   0.991
 8650TIP3   OH225913   2.903   6.686   0.666
 8650TIP3    H125914   2.928   6.626   0.736
 8650TIP3    H225915   2.944   6.769   0.689
 8651TIP3   OH225916   6.610   2.469   1.005
 8651TIP3    H125917   6.588   2.419   0.926
 8651TIP3    H225918   6.655   2.407   1.061
 8652TIP3   OH225919   6.404   1.984   3.631
 8652TIP3    H125920   6.403   1.903   3.580
 8652TIP3    H225921   6.465   1.967   3.702
 8653TIP3   OH225922   6.845   5.799   5.078
 8653TIP3    H125923   6.816   5.772   4.991
 8653TIP3    H225924   6.935   5.770   5.084
 8654TIP3   OH225925   6.738   0.557   5.260
 8654TIP3    H125926   6.752   0.617   5.333
 8654TIP3    H225927   6.725   0.614   5.184
 8655TIP3   OH225928   4.274   4.579   0.041
 8655TIP3    H125929   4.274   4.524   0.120
 8655TIP3    H225930   4.315   4.661   0.068
 8656TIP3   OH225931   6.639   2.663   3.500
 8656TIP3    H125932   6.698   2.593   3.473
 8656TIP3    H225933   6.640   2.659   3.596
 8657TIP3   OH225934  -0.033   6.301   2.833
 8657TIP3    H125935  -0.050   6.390   2.804
 8657TIP3    H225936   0.015   6.311   2.915
 8658TIP3   OH225937   3.290   2.231   0.704
 8658TIP3    H125938   3.331   2.283   0.635
 8658TIP3    H225939   3.330   2.262   0.785
 8659TIP3   OH225940   2.231   5.504   1.952
 8659TIP3    H125941   2.182   5.478   2.030
 8659TIP3    H225942   2.204   5.442   1.885
 8660TIP3   OH225943   1.813   3.467   3.905
 8660TIP3    H125944   1.821   3.529   3.977
 8660TIP3    H225945   1.784   3.519   3.830
 8661TIP3   OH225946   4.458   1.214   3.620
 8661TIP3    H125947   4.534   1.270   3.612
 8661TIP3    H225948   4.400   1.241   3.548
 8662TIP3   OH225949   0.981   6.252   4.511
 8662TIP3    H125950   0.964   6.331   4.459
 8662TIP3    H225951   1.002   6.185   4.446
 8663TIP3   OH225952   3.408   2.743   3.388
 8663TIP3    H125953   3.371   2.704   3.467
 8663TIP3    H225954   3.439   2.829   3.416
 8664TIP3   OH225955   2.737   6.729   5.643
 8664TIP3    H125956   2.673   6.665   5.675
 8664TIP3    H225957   2.726   6.805   5.700
 8665TIP3   OH225958   3.165   1.570   1.076
 8665TIP3    H125959   3.150   1.496   1.017
 8665TIP3    H225960   3.142   1.647   1.024
 8666TIP3   OH225961   2.447   0.380   5.501
 8666TIP3    H125962   2.368   0.367   5.449
 8666TIP3    H225963   2.490   0.294   5.501
 8667TIP3   OH225964   6.705   6.351   2.199
 8667TIP3    H125965   6.719   6.407   2.122
 8667TIP3    H225966   6.610   6.347   2.208
 8668TIP3   OH225967   6.197   3.840   2.617
 8668TIP3    H125968   6.210   3.932   2.592
 8668TIP3    H225969   6.251   3.791   2.555
 8669TIP3   OH225970   5.397   3.719   4.170
 8669TIP3    H125971   5.424   3.717   4.262
 8669TIP3    H225972   5.302   3.708   4.172
 8670TIP3   OH225973   1.224   6.454   5.591
 8670TIP3    H125974   1.193   6.399   5.519
 8670TIP3    H225975   1.286   6.515   5.549
 8671TIP3   OH225976   5.291   1.899   3.516
 8671TIP3    H125977   5.323   1.970   3.459
 8671TIP3    H225978   5.371   1.853   3.544
 8672TIP3   OH225979   2.027   1.361   5.718
 8672TIP3    H125980   2.062   1.284   5.763
 8672TIP3    H225981   2.024   1.429   5.786
 8673TIP3   OH225982   6.050   4.689   2.477
 8673TIP3    H125983   6.139   4.699   2.445
 8673TIP3    H225984   6.056   4.618   2.541
 8674TIP3   OH225985   0.923   1.573   5.672
 8674TIP3    H125986   0.960   1.504   5.727
 8674TIP3    H225987   0.993   1.637   5.662
 8675TIP3   OH225988   1.181   2.267   3.529
 8675TIP3    H125989   1.259   2.213   3.534
 8675TIP3    H225990   1.120   2.229   3.592
 8676TIP3   OH225991   5.000   2.214   1.480
 8676TIP3    H125992   5.023   2.244   1.391
 8676TIP3    H225993   4.905   2.204   1.478
 8677TIP3   OH225994   2.615   4.975   0.668
 8677TIP3    H125995   2.592   4.884   0.651
 8677TIP3    H225996   2.548   5.006   0.729
 8678TIP3   OH225997   2.004   5.876   3.417
 8678TIP3    H125998   1.943   5.846   3.485
 8678TIP3    H225999   2.069   5.806   3.412
 8679TIP3   OH226000   2.592   1.404   1.101
 8679TIP3    H126001   2.678   1.368   1.080
 8679TIP3    H226002   2.574   1.466   1.031
 8680TIP3   OH226003   4.049   3.643   0.158
 8680TIP3    H126004   4.144   3.644   0.168
 8680TIP3    H226005   4.023   3.554   0.181
 8681TIP3   OH226006   6.895   4.415   0.403
 8681TIP3    H126007   6.943   4.488   0.443
 8681TIP3    H226008   6.926   4.412   0.313
 8682TIP3   OH226009   1.726   3.255   4.696
 8682TIP3    H126010   1.778   3.215   4.626
 8682TIP3    H226011   1.656   3.301   4.650
 8683TIP3   OH226012   5.202   6.489   0.685
 8683TIP3    H126013   5.211   6.570   0.634
 8683TIP3    H226014   5.109   6.468   0.681
 8684TIP3   OH226015   3.786   4.550   0.020
 8684TIP3    H126016   3.806   4.539   0.113
 8684TIP3    H226017   3.869   4.537  -0.025
 8685TIP3   OH226018   0.220   4.246   0.550
 8685TIP3    H126019   0.215   4.170   0.608
 8685TIP3    H226020   0.169   4.314   0.594
 8686TIP3   OH226021   0.192   3.250   0.005
 8686TIP3    H126022   0.249   3.177   0.031
 8686TIP3    H226023   0.183   3.301   0.085
 8687TIP3   OH226024   1.398   1.379   3.520
 8687TIP3    H126025   1.334   1.446   3.545
 8687TIP3    H226026   1.355   1.330   3.450
 8688TIP3   OH226027   1.580   0.965   4.509
 8688TIP3    H126028   1.570   1.047   4.556
 8688TIP3    H226029   1.615   0.991   4.423
 8689TIP3   OH226030   3.412   4.237   5.173
 8689TIP3    H126031   3.471   4.279   5.110
 8689TIP3    H226032   3.383   4.309   5.230
 8690TIP3   OH226033   0.680   5.747   4.903
 8690TIP3    H126034   0.637   5.672   4.945
 8690TIP3    H226035   0.635   5.823   4.940
 8691TIP3   OH226036   1.363   1.108   2.886
 8691TIP3    H126037   1.453   1.129   2.860
 8691TIP3    H226038   1.373   1.051   2.962
 8692TIP3   OH226039   0.924   5.864   4.882
 8692TIP3    H126040   0.923   5.917   4.962
 8692TIP3    H226041   0.841   5.817   4.884
 8693TIP3   OH226042   4.394   0.876   2.704
 8693TIP3    H126043   4.455   0.943   2.674
 8693TIP3    H226044   4.357   0.839   2.624
 8694TIP3   OH226045   2.548   1.988   1.481
 8694TIP3    H126046   2.564   1.895   1.463
 8694TIP3    H226047   2.552   1.995   1.576
 8695TIP3   OH226048   6.437   2.138   4.710
 8695TIP3    H126049   6.391   2.071   4.760
 8695TIP3    H226050   6.512   2.093   4.672
 8696TIP3   OH226051   0.724   2.987   5.211
 8696TIP3    H126052   0.723   2.892   5.203
 8696TIP3    H226053   0.710   3.003   5.304
 8697TIP3   OH226054   6.359   5.053   4.748
 8697TIP3    H126055   6.386   4.985   4.685
 8697TIP3    H226056   6.264   5.056   4.740
 8698TIP3   OH226057   2.491   3.841   0.274
 8698TIP3    H126058   2.445   3.758   0.272
 8698TIP3    H226059   2.424   3.907   0.256
 8699TIP3   OH226060   5.476   4.979   2.741
 8699TIP3    H126061   5.463   5.056   2.686
 8699TIP3    H226062   5.464   4.905   2.682
 8700TIP3   OH226063   3.538   6.138   0.434
 8700TIP3    H126064   3.454   6.170   0.467
 8700TIP3    H226065   3.547   6.051   0.473
 8701TIP3   OH226066   0.129   3.699   0.252
 8701TIP3    H126067   0.050   3.734   0.293
 8701TIP3    H226068   0.099   3.664   0.168
 8702TIP3   OH226069   2.940   4.191   4.318
 8702TIP3    H126070   2.868   4.224   4.372
 8702TIP3    H226071   2.926   4.231   4.232
 8703TIP3   OH226072   2.425   2.854   5.310
 8703TIP3    H126073   2.504   2.842   5.364
 8703TIP3    H226074   2.449   2.921   5.247
 8704TIP3   OH226075   2.286   5.256   2.655
 8704TIP3    H126076   2.318   5.192   2.719
 8704TIP3    H226077   2.308   5.341   2.693
 8705TIP3   OH226078   0.649   1.769   0.171
 8705TIP3    H126079   0.670   1.680   0.142
 8705TIP3    H226080   0.570   1.792   0.121
 8706TIP3   OH226081   5.533   4.172   0.184
 8706TIP3    H126082   5.588   4.246   0.209
 8706TIP3    H226083   5.590   4.096   0.191
 8707TIP3   OH226084   1.189   2.029   1.037
 8707TIP3    H126085   1.137   2.019   1.117
 8707TIP3    H226086   1.132   1.999   0.967
 8708TIP3   OH226087   0.749   4.472   0.193
 8708TIP3    H126088   0.829   4.463   0.141
 8708TIP3    H226089   0.695   4.398   0.166
 8709TIP3   OH226090   0.218   0.902   5.446
 8709TIP3    H126091   0.165   0.981   5.439
 8709TIP3    H226092   0.159   0.831   5.421
 8710TIP3   OH226093   7.082   1.017   1.232
 8710TIP3    H126094   7.142   1.009   1.306
 8710TIP3    H226095   7.065   0.927   1.205
 8711TIP3   OH226096   6.424   5.043   5.726
 8711TIP3    H126097   6.435   5.073   5.636
 8711TIP3    H226098   6.421   5.124   5.778
 8712TIP3   OH226099   5.483   5.845   5.516
 8712TIP3    H126100   5.402   5.881   5.551
 8712TIP3    H226101   5.489   5.757   5.554
 8713TIP3   OH226102   0.717   5.863   5.526
 8713TIP3    H126103   0.651   5.896   5.586
 8713TIP3    H226104   0.673   5.861   5.441
 8714TIP3   OH226105   4.899   0.868   5.830
 8714TIP3    H126106   4.929   0.804   5.765
 8714TIP3    H226107   4.973   0.879   5.889
 8715TIP3   OH226108   3.796   1.982   0.209
 8715TIP3    H126109   3.749   2.009   0.288
 8715TIP3    H226110   3.869   1.930   0.241
 8716TIP3   OH226111   5.365   2.870   4.534
 8716TIP3    H126112   5.425   2.927   4.582
 8716TIP3    H226113   5.409   2.850   4.452
 8717TIP3   OH226114   4.246   2.898   4.762
 8717TIP3    H126115   4.218   2.928   4.675
 8717TIP3    H226116   4.166   2.895   4.814
 8718TIP3   OH226117   3.215   5.514   0.894
 8718TIP3    H126118   3.175   5.456   0.830
 8718TIP3    H226119   3.145   5.532   0.957
 8719TIP3   OH226120   3.424   0.206   0.105
 8719TIP3    H126121   3.483   0.234   0.034
 8719TIP3    H226122   3.395   0.119   0.079
 8720TIP3   OH226123   5.862   3.172   2.596
 8720TIP3    H126124   5.804   3.098   2.582
 8720TIP3    H226125   5.851   3.227   2.518
 8721TIP3   OH226126   3.147   3.009   4.815
 8721TIP3    H126127   3.157   2.936   4.754
 8721TIP3    H226128   3.165   3.087   4.763
 8722TIP3   OH226129   1.758   6.674   4.484
 8722TIP3    H126130   1.812   6.629   4.419
 8722TIP3    H226131   1.785   6.635   4.567
 8723TIP3   OH226132   5.843   1.981   1.507
 8723TIP3    H126133   5.860   1.900   1.459
 8723TIP3    H226134   5.803   1.953   1.589
 8724TIP3   OH226135   3.470   1.548   3.065
 8724TIP3    H126136   3.499   1.599   3.140
 8724TIP3    H226137   3.519   1.584   2.991
 8725TIP3   OH226138   1.626   1.073   3.980
 8725TIP3    H126139   1.632   1.026   3.897
 8725TIP3    H226140   1.537   1.109   3.981
 8726TIP3   OH226141   0.363   6.707   5.379
 8726TIP3    H126142   0.293   6.644   5.363
 8726TIP3    H226143   0.360   6.766   5.304
 8727TIP3   OH226144   2.210   3.046   2.022
 8727TIP3    H126145   2.206   3.094   1.940
 8727TIP3    H226146   2.130   2.994   2.024
 8728TIP3   OH226147   3.432   0.645   3.163
 8728TIP3    H126148   3.453   0.730   3.203
 8728TIP3    H226149   3.468   0.581   3.224
 8729TIP3   OH226150   6.053   2.789   5.415
 8729TIP3    H126151   6.143   2.770   5.388
 8729TIP3    H226152   5.999   2.734   5.360
 8730TIP3   OH226153   6.028   2.552   4.647
 8730TIP3    H126154   5.958   2.496   4.613
 8730TIP3    H226155   5.995   2.641   4.634
 8731TIP3   OH226156   1.179   3.090   1.837
 8731TIP3    H126157   1.112   3.142   1.880
 8731TIP3    H226158   1.262   3.126   1.868
 8732TIP3   OH226159   2.516   3.724   4.028
 8732TIP3    H126160   2.428   3.758   4.041
 8732TIP3    H226161   2.532   3.667   4.103
 8733TIP3   OH226162   0.915   0.352   2.625
 8733TIP3    H126163   0.874   0.437   2.639
 8733TIP3    H226164   0.923   0.315   2.712
 8734TIP3   OH226165   4.467   5.266   2.413
 8734TIP3    H126166   4.433   5.274   2.324
 8734TIP3    H226167   4.463   5.173   2.432
 8735TIP3   OH226168   0.578   2.199   3.770
 8735TIP3    H126169   0.537   2.266   3.826
 8735TIP3    H226170   0.658   2.174   3.816
 8736TIP3   OH226171   3.932   2.699   5.759
 8736TIP3    H126172   3.977   2.716   5.676
 8736TIP3    H226173   3.862   2.638   5.736
 8737TIP3   OH226174   2.007   2.762   1.424
 8737TIP3    H126175   1.973   2.817   1.353
 8737TIP3    H226176   2.078   2.813   1.462
 8738TIP3   OH226177   2.927   0.106   0.348
 8738TIP3    H126178   2.843   0.134   0.384
 8738TIP3    H226179   2.991   0.127   0.415
 8739TIP3   OH226180   1.433   3.910   2.197
 8739TIP3    H126181   1.404   3.839   2.254
 8739TIP3    H226182   1.439   3.870   2.110
 8740TIP3   OH226183   4.997   1.328   0.415
 8740TIP3    H126184   5.013   1.384   0.491
 8740TIP3    H226185   4.910   1.355   0.383
 8741TIP3   OH226186   3.250   2.905   1.601
 8741TIP3    H126187   3.231   2.986   1.650
 8741TIP3    H226188   3.297   2.934   1.523
 8742TIP3   OH226189   0.991   3.382   1.623
 8742TIP3    H126190   0.984   3.401   1.530
 8742TIP3    H226191   0.931   3.309   1.637
 8743TIP3   OH226192   5.552   3.025   4.623
 8743TIP3    H126193   5.637   2.981   4.618
 8743TIP3    H226194   5.568   3.113   4.591
 8744TIP3   OH226195   3.094   1.402   5.577
 8744TIP3    H126196   3.079   1.334   5.512
 8744TIP3    H226197   3.018   1.461   5.569
 8745TIP3   OH226198   3.911   3.971   2.046
 8745TIP3    H126199   3.995   3.958   2.001
 8745TIP3    H226200   3.909   4.063   2.069
 8746TIP3   OH226201   1.866   3.935   1.310
 8746TIP3    H126202   1.800   3.870   1.335
 8746TIP3    H226203   1.863   3.938   1.215
 8747TIP3   OH226204   3.862   0.063   3.096
 8747TIP3    H126205   3.891  -0.021   3.130
 8747TIP3    H226206   3.930   0.125   3.124
 8748TIP3   OH226207   4.134   3.322   4.544
 8748TIP3    H126208   4.063   3.259   4.553
 8748TIP3    H226209   4.159   3.318   4.452
 8749TIP3   OH226210   0.165   1.387   3.194
 8749TIP3    H126211   0.127   1.462   3.149
 8749TIP3    H226212   0.094   1.352   3.247
 8750TIP3   OH226213   3.391   6.428   1.655
 8750TIP3    H126214   3.338   6.350   1.669
 8750TIP3    H226215   3.328   6.493   1.622
 8751TIP3   OH226216   0.646   0.031   0.156
 8751TIP3    H126217   0.595   0.066   0.228
 8751TIP3    H226218   0.720   0.091   0.147
 8752TIP3   OH226219   0.595   0.779   5.708
 8752TIP3    H126220   0.517   0.830   5.686
 8752TIP3    H226221   0.601   0.712   5.640
 8753TIP3   OH226222   2.243   0.618   1.945
 8753TIP3    H126223   2.274   0.536   1.982
 8753TIP3    H226224   2.153   0.599   1.917
 8754TIP3   OH226225   4.238   6.261   0.009
 8754TIP3    H126226   4.185   6.271   0.088
 8754TIP3    H226227   4.250   6.350  -0.024
 8755TIP3   OH226228   4.370   0.514   0.301
 8755TIP3    H126229   4.389   0.606   0.321
 8755TIP3    H226230   4.424   0.494   0.225
 8756TIP3   OH226231   2.709   1.529   2.129
 8756TIP3    H126232   2.794   1.551   2.093
 8756TIP3    H226233   2.647   1.546   2.059
 8757TIP3   OH226234   6.125   0.016   1.754
 8757TIP3    H126235   6.042   0.032   1.709
 8757TIP3    H226236   6.117  -0.073   1.787
 8758TIP3   OH226237   4.945   4.363   4.062
 8758TIP3    H126238   4.902   4.349   4.146
 8758TIP3    H226239   4.992   4.446   4.072
 8759TIP3   OH226240   4.226   0.804   0.569
 8759TIP3    H126241   4.217   0.849   0.485
 8759TIP3    H226242   4.246   0.874   0.631
 8760TIP3   OH226243   6.002   0.836   4.614
 8760TIP3    H126244   5.950   0.916   4.616
 8760TIP3    H226245   5.956   0.778   4.554
 8761TIP3   OH226246   2.175   4.160   5.002
 8761TIP3    H126247   2.173   4.170   5.097
 8761TIP3    H226248   2.151   4.247   4.968
 8762TIP3   OH226249   1.073   3.438   1.355
 8762TIP3    H126250   1.133   3.367   1.334
 8762TIP3    H226251   1.126   3.517   1.352
 8763TIP3   OH226252   0.128   6.675   1.878
 8763TIP3    H126253   0.168   6.607   1.824
 8763TIP3    H226254   0.052   6.633   1.918
 8764TIP3   OH226255   0.632   3.429   4.333
 8764TIP3    H126256   0.567   3.359   4.324
 8764TIP3    H226257   0.598   3.500   4.279
 8765TIP3   OH226258   0.222   1.182   5.709
 8765TIP3    H126259   0.196   1.228   5.629
 8765TIP3    H226260   0.289   1.238   5.749
 8766TIP3   OH226261   5.917   5.235   0.390
 8766TIP3    H126262   5.948   5.249   0.300
 8766TIP3    H226263   5.956   5.151   0.415
 8767TIP3   OH226264   2.380   5.659   3.696
 8767TIP3    H126265   2.398   5.639   3.788
 8767TIP3    H226266   2.299   5.612   3.677
 8768TIP3   OH226267   0.562   4.320   2.932
 8768TIP3    H126268   0.647   4.276   2.945
 8768TIP3    H226269   0.519   4.313   3.017
 8769TIP3   OH226270   1.124   2.785   1.739
 8769TIP3    H126271   1.143   2.721   1.807
 8769TIP3    H226272   1.142   2.870   1.779
 8770TIP3   OH226273   0.356   0.062   2.699
 8770TIP3    H126274   0.417   0.059   2.772
 8770TIP3    H226275   0.271   0.037   2.737
 8771TIP3   OH226276   5.021   2.319   5.686
 8771TIP3    H126277   5.102   2.339   5.733
 8771TIP3    H226278   5.051   2.301   5.596
 8772TIP3   OH226279   0.912   4.765   2.016
 8772TIP3    H126280   0.971   4.838   1.999
 8772TIP3    H226281   0.966   4.687   2.004
 8773TIP3   OH226282   1.277   4.730   5.817
 8773TIP3    H126283   1.282   4.820   5.848
 8773TIP3    H226284   1.285   4.736   5.722
 8774TIP3   OH226285   2.314   4.731   2.783
 8774TIP3    H126286   2.363   4.772   2.854
 8774TIP3    H226287   2.222   4.748   2.804
 8775TIP3   OH226288   6.913   2.166   1.238
 8775TIP3    H126289   6.989   2.225   1.234
 8775TIP3    H226290   6.913   2.135   1.329
 8776TIP3   OH226291   5.513   2.534   0.909
 8776TIP3    H126292   5.591   2.481   0.894
 8776TIP3    H226293   5.525   2.611   0.852
 8777TIP3   OH226294   1.399   3.423   2.569
 8777TIP3    H126295   1.437   3.457   2.488
 8777TIP3    H226296   1.354   3.499   2.607
 8778TIP3   OH226297   1.075   3.380   4.501
 8778TIP3    H126298   1.049   3.448   4.439
 8778TIP3    H226299   0.993   3.339   4.528
 8779TIP3   OH226300   0.859   2.784   4.204
 8779TIP3    H126301   0.897   2.871   4.198
 8779TIP3    H226302   0.768   2.799   4.229
 8780TIP3   OH226303   1.497   5.978   4.160
 8780TIP3    H126304   1.438   5.902   4.160
 8780TIP3    H226305   1.443   6.051   4.190
 8781TIP3   OH226306   0.140   5.434   2.330
 8781TIP3    H126307   0.119   5.394   2.414
 8781TIP3    H226308   0.072   5.500   2.317
 8782TIP3   OH226309   4.176   0.945   3.149
 8782TIP3    H126310   4.094   0.988   3.171
 8782TIP3    H226311   4.240   0.982   3.209
 8783TIP3   OH226312   5.892   6.409   2.248
 8783TIP3    H126313   5.873   6.338   2.309
 8783TIP3    H226314   5.867   6.488   2.295
 8784TIP3   OH226315   6.178   1.005   4.966
 8784TIP3    H126316   6.133   1.079   4.925
 8784TIP3    H226317   6.107   0.947   4.994
 8785TIP3   OH226318   1.289   5.324   5.205
 8785TIP3    H126319   1.199   5.344   5.232
 8785TIP3    H226320   1.343   5.350   5.280
 8786TIP3   OH226321   2.711   1.715   2.858
 8786TIP3    H126322   2.741   1.790   2.910
 8786TIP3    H226323   2.617   1.726   2.852
 8787TIP3   OH226324   1.867   2.295   0.647
 8787TIP3    H126325   1.810   2.352   0.699
 8787TIP3    H226326   1.905   2.234   0.711
 8788TIP3   OH226327   5.783   0.432   5.768
 8788TIP3    H126328   5.707   0.393   5.813
 8788TIP3    H226329   5.808   0.366   5.703
 8789TIP3   OH226330   7.008   0.720   0.402
 8789TIP3    H126331   6.923   0.763   0.388
 8789TIP3    H226332   7.035   0.691   0.315
 8790TIP3   OH226333   1.129   5.627   4.904
 8790TIP3    H126334   1.036   5.603   4.906
 8790TIP3    H226335   1.150   5.649   4.995
 8791TIP3   OH226336   2.586   2.925   4.244
 8791TIP3    H126337   2.576   2.894   4.154
 8791TIP3    H226338   2.653   2.993   4.239
 8792TIP3   OH226339   0.269   0.354   2.916
 8792TIP3    H126340   0.267   0.383   2.825
 8792TIP3    H226341   0.180   0.324   2.933
 8793TIP3   OH226342   3.839   0.769   2.639
 8793TIP3    H126343   3.876   0.724   2.715
 8793TIP3    H226344   3.776   0.831   2.675
 8794TIP3   OH226345   4.782   0.436   0.605
 8794TIP3    H126346   4.758   0.516   0.557
 8794TIP3    H226347   4.877   0.441   0.614
 8795TIP3   OH226348   2.866   6.722   1.013
 8795TIP3    H126349   2.953   6.757   1.036
 8795TIP3    H226350   2.885   6.639   0.969
 8796TIP3   OH226351   6.178   4.196   4.837
 8796TIP3    H126352   6.120   4.260   4.878
 8796TIP3    H226353   6.216   4.243   4.762
 8797TIP3   OH226354   1.052   3.883   5.145
 8797TIP3    H126355   1.085   3.916   5.228
 8797TIP3    H226356   1.130   3.870   5.091
 8798TIP3   OH226357   0.399   4.155   5.360
 8798TIP3    H126358   0.436   4.200   5.435
 8798TIP3    H226359   0.456   4.079   5.347
 8799TIP3   OH226360   6.146   1.526   0.634
 8799TIP3    H126361   6.175   1.466   0.565
 8799TIP3    H226362   6.097   1.594   0.588
 8800TIP3   OH226363   4.953   6.554   5.423
 8800TIP3    H126364   4.969   6.519   5.335
 8800TIP3    H226365   4.863   6.528   5.443
 8801TIP3   OH226366   4.046   2.228   4.881
 8801TIP3    H126367   3.989   2.295   4.843
 8801TIP3    H226368   4.110   2.278   4.932
 8802TIP3   OH226369   4.452   1.633   3.622
 8802TIP3    H126370   4.376   1.653   3.568
 8802TIP3    H226371   4.516   1.596   3.562
 8803TIP3   OH226372  -0.044   3.369   4.160
 8803TIP3    H126373   0.023   3.390   4.094
 8803TIP3    H226374   0.006   3.349   4.239
 8804TIP3   OH226375   0.741   5.696   2.186
 8804TIP3    H126376   0.754   5.772   2.242
 8804TIP3    H226377   0.665   5.652   2.223
 8805TIP3   OH226378   5.131   4.087   5.426
 8805TIP3    H126379   5.213   4.066   5.381
 8805TIP3    H226380   5.141   4.178   5.454
 8806TIP3   OH226381   4.014   1.477   2.531
 8806TIP3    H126382   4.010   1.568   2.561
 8806TIP3    H226383   3.922   1.450   2.525
 8807TIP3   OH226384   6.060   2.518   2.721
 8807TIP3    H126385   6.148   2.542   2.750
 8807TIP3    H226386   6.040   2.437   2.768
 8808TIP3   OH226387   2.414   6.171   4.056
 8808TIP3    H126388   2.342   6.129   4.009
 8808TIP3    H226389   2.445   6.105   4.118
 8809TIP3   OH226390   5.577   0.219   3.206
 8809TIP3    H126391   5.504   0.231   3.267
 8809TIP3    H226392   5.625   0.302   3.210
 8810TIP3   OH226393   7.126   6.041   2.922
 8810TIP3    H126394   7.035   6.070   2.918
 8810TIP3    H226395   7.178   6.122   2.917
 8811TIP3   OH226396   3.987   0.332   5.515
 8811TIP3    H126397   4.008   0.401   5.578
 8811TIP3    H226398   3.905   0.361   5.475
 8812TIP3   OH226399   3.315   4.315   4.745
 8812TIP3    H126400   3.238   4.370   4.730
 8812TIP3    H226401   3.306   4.287   4.836
 8813TIP3   OH226402   1.017   1.635   0.472
 8813TIP3    H126403   0.992   1.544   0.490
 8813TIP3    H226404   0.965   1.686   0.534
 8814TIP3   OH226405   5.927   3.112   4.828
 8814TIP3    H126406   5.917   3.187   4.769
 8814TIP3    H226407   5.983   3.144   4.898
 8815TIP3   OH226408   3.141   5.492   5.708
 8815TIP3    H126409   3.197   5.567   5.691
 8815TIP3    H226410   3.079   5.522   5.774
 8816TIP3   OH226411   1.842   0.043   3.352
 8816TIP3    H126412   1.783   0.089   3.293
 8816TIP3    H226413   1.874  -0.031   3.301
 8817TIP3   OH226414   0.228   2.842   5.124
 8817TIP3    H126415   0.212   2.773   5.060
 8817TIP3    H226416   0.312   2.880   5.099
 8818TIP3   OH226417   0.361   5.122   1.448
 8818TIP3    H126418   0.453   5.126   1.473
 8818TIP3    H226419   0.319   5.191   1.500
 8819TIP3   OH226420   1.144   6.180   1.498
 8819TIP3    H126421   1.140   6.274   1.483
 8819TIP3    H226422   1.155   6.142   1.411
 8820TIP3   OH226423   4.508   5.149   5.571
 8820TIP3    H126424   4.602   5.162   5.590
 8820TIP3    H226425   4.485   5.222   5.514
 8821TIP3   OH226426   4.476   1.369   5.875
 8821TIP3    H126427   4.410   1.333   5.934
 8821TIP3    H226428   4.433   1.374   5.790
 8822TIP3   OH226429   5.614   3.194   1.786
 8822TIP3    H126430   5.695   3.244   1.778
 8822TIP3    H226431   5.598   3.188   1.880
 8823TIP3   OH226432   1.387   3.770   4.091
 8823TIP3    H126433   1.432   3.696   4.132
 8823TIP3    H226434   1.357   3.736   4.007
 8824TIP3   OH226435   2.249   5.273   5.746
 8824TIP3    H126436   2.160   5.238   5.752
 8824TIP3    H226437   2.287   5.231   5.669
 8825TIP3   OH226438   4.050   5.423   5.825
 8825TIP3    H126439   4.051   5.464   5.739
 8825TIP3    H226440   4.124   5.461   5.872
 8826TIP3   OH226441   0.646   0.244   1.369
 8826TIP3    H126442   0.656   0.323   1.315
 8826TIP3    H226443   0.659   0.275   1.459
 8827TIP3   OH226444   3.554   4.266   4.003
 8827TIP3    H126445   3.636   4.218   4.016
 8827TIP3    H226446   3.486   4.204   4.026
 8828TIP3   OH226447   6.387   1.254   5.346
 8828TIP3    H126448   6.320   1.309   5.387
 8828TIP3    H226449   6.349   1.166   5.346
 8829TIP3   OH226450   2.674   0.337   5.169
 8829TIP3    H126451   2.581   0.344   5.148
 8829TIP3    H226452   2.718   0.390   5.103
 8830TIP3   OH226453   4.117   3.460   2.126
 8830TIP3    H126454   4.172   3.527   2.086
 8830TIP3    H226455   4.135   3.381   2.076
 8831TIP3   OH226456   5.106   0.502   3.731
 8831TIP3    H126457   5.093   0.409   3.752
 8831TIP3    H226458   5.031   0.547   3.771
 8832TIP3   OH226459   2.571   6.652   0.898
 8832TIP3    H126460   2.600   6.631   0.809
 8832TIP3    H226461   2.633   6.607   0.955
 8833TIP3   OH226462   1.589   4.203   5.002
 8833TIP3    H126463   1.541   4.230   5.080
 8833TIP3    H226464   1.681   4.204   5.029
 8834TIP3   OH226465   1.626   5.098   5.222
 8834TIP3    H126466   1.577   5.160   5.168
 8834TIP3    H226467   1.661   5.035   5.159
 8835TIP3   OH226468   5.234   2.677   2.562
 8835TIP3    H126469   5.175   2.740   2.604
 8835TIP3    H226470   5.317   2.723   2.556
 8836TIP3   OH226471   1.266   6.104   0.823
 8836TIP3    H126472   1.283   6.097   0.729
 8836TIP3    H226473   1.197   6.171   0.830
 8837TIP3   OH226474   4.385   3.143   5.270
 8837TIP3    H126475   4.466   3.093   5.281
 8837TIP3    H226476   4.358   3.167   5.359
 8838TIP3   OH226477   3.114   6.529   3.651
 8838TIP3    H126478   3.123   6.554   3.743
 8838TIP3    H226479   3.202   6.499   3.626
 8839TIP3   OH226480   3.394   0.481   2.095
 8839TIP3    H126481   3.455   0.411   2.073
 8839TIP3    H226482   3.309   0.438   2.103
 8840TIP3   OH226483   6.132   0.654   3.137
 8840TIP3    H126484   6.160   0.610   3.217
 8840TIP3    H226485   6.150   0.747   3.152
 8841TIP3   OH226486   3.529   0.291   0.999
 8841TIP3    H126487   3.623   0.292   0.982
 8841TIP3    H226488   3.502   0.201   0.980
 8842TIP3   OH226489   2.628   6.307   4.010
 8842TIP3    H126490   2.541   6.268   4.006
 8842TIP3    H226491   2.688   6.232   4.005
 8843TIP3   OH226492   6.630   4.995   0.210
 8843TIP3    H126493   6.593   4.979   0.123
 8843TIP3    H226494   6.661   5.086   0.207
 8844TIP3   OH226495   0.350   6.284   0.685
 8844TIP3    H126496   0.383   6.254   0.769
 8844TIP3    H226497   0.414   6.349   0.656
 8845TIP3   OH226498   6.457   5.874   5.088
 8845TIP3    H126499   6.472   5.789   5.047
 8845TIP3    H226500   6.386   5.859   5.151
 8846TIP3   OH226501   1.772   4.433   2.406
 8846TIP3    H126502   1.807   4.410   2.320
 8846TIP3    H226503   1.785   4.528   2.412
 8847TIP3   OH226504   4.990   0.168   1.216
 8847TIP3    H126505   4.933   0.141   1.144
 8847TIP3    H226506   5.067   0.205   1.172
 8848TIP3   OH226507   2.175   3.427   4.207
 8848TIP3    H126508   2.208   3.338   4.223
 8848TIP3    H226509   2.125   3.419   4.125
 8849TIP3   OH226510   4.570   2.901   4.597
 8849TIP3    H126511   4.613   2.977   4.636
 8849TIP3    H226512   4.479   2.928   4.587
 8850TIP3   OH226513   6.119   3.398   0.035
 8850TIP3    H126514   6.030   3.432   0.023
 8850TIP3    H226515   6.119   3.364   0.125
 8851TIP3   OH226516   0.303   1.366   4.838
 8851TIP3    H126517   0.291   1.326   4.924
 8851TIP3    H226518   0.348   1.298   4.787
 8852TIP3   OH226519   0.291   2.506   1.907
 8852TIP3    H126520   0.338   2.466   1.834
 8852TIP3    H226521   0.235   2.436   1.940
 8853TIP3   OH226522   6.804   6.301   1.652
 8853TIP3    H126523   6.845   6.254   1.725
 8853TIP3    H226524   6.859   6.378   1.639
 8854TIP3   OH226525   1.896   3.547   1.304
 8854TIP3    H126526   1.810   3.507   1.290
 8854TIP3    H226527   1.944   3.530   1.223
 8855TIP3   OH226528   0.329   3.833   4.479
 8855TIP3    H126529   0.234   3.824   4.465
 8855TIP3    H226530   0.352   3.915   4.436
 8856TIP3   OH226531   7.172   4.234   2.755
 8856TIP3    H126532   7.127   4.150   2.767
 8856TIP3    H226533   7.263   4.210   2.737
 8857TIP3   OH226534   5.027   4.084   0.547
 8857TIP3    H126535   5.096   4.053   0.605
 8857TIP3    H226536   4.983   4.005   0.516
 8858TIP3   OH226537   4.837   1.834   1.110
 8858TIP3    H126538   4.817   1.811   1.019
 8858TIP3    H226539   4.760   1.884   1.139
 8859TIP3   OH226540   4.610   3.800   4.331
 8859TIP3    H126541   4.545   3.787   4.400
 8859TIP3    H226542   4.631   3.893   4.335
 8860TIP3   OH226543   0.847   0.715   5.656
 8860TIP3    H126544   0.769   0.769   5.659
 8860TIP3    H226545   0.833   0.655   5.583
 8861TIP3   OH226546   6.363   4.339   0.973
 8861TIP3    H126547   6.371   4.266   1.035
 8861TIP3    H226548   6.423   4.317   0.902
 8862TIP3   OH226549   4.227   2.711   5.270
 8862TIP3    H126550   4.317   2.741   5.272
 8862TIP3    H226551   4.216   2.673   5.183
 8863TIP3   OH226552   5.286   2.274   4.398
 8863TIP3    H126553   5.319   2.240   4.314
 8863TIP3    H226554   5.193   2.252   4.397
 8864TIP3   OH226555   5.529   1.360   0.524
 8864TIP3    H126556   5.623   1.351   0.508
 8864TIP3    H226557   5.494   1.394   0.441
 8865TIP3   OH226558   1.073   6.187   1.950
 8865TIP3    H126559   1.117   6.164   2.033
 8865TIP3    H226560   1.142   6.180   1.885
 8866TIP3   OH226561   3.167   4.983   1.061
 8866TIP3    H126562   3.167   4.891   1.037
 8866TIP3    H226563   3.215   5.026   0.990
 8867TIP3   OH226564   5.715   2.805   4.038
 8867TIP3    H126565   5.787   2.743   4.025
 8867TIP3    H226566   5.757   2.881   4.079
 8868TIP3   OH226567   5.750   3.008   4.999
 8868TIP3    H126568   5.670   2.995   4.948
 8868TIP3    H226569   5.817   3.025   4.934
 8869TIP3   OH226570   7.034   3.522   1.392
 8869TIP3    H126571   7.028   3.615   1.411
 8869TIP3    H226572   7.122   3.497   1.419
 8870TIP3   OH226573   4.249   6.019   0.246
 8870TIP3    H126574   4.200   6.101   0.239
 8870TIP3    H226575   4.283   6.018   0.335
 8871TIP3   OH226576   1.936   2.466   1.313
 8871TIP3    H126577   1.964   2.521   1.240
 8871TIP3    H226578   1.931   2.378   1.276
 8872TIP3   OH226579   1.558   4.570   2.617
 8872TIP3    H126580   1.471   4.544   2.648
 8872TIP3    H226581   1.569   4.524   2.534
 8873TIP3   OH226582   2.442   1.596   4.257
 8873TIP3    H126583   2.356   1.617   4.220
 8873TIP3    H226584   2.470   1.676   4.301
 8874TIP3   OH226585   1.607   4.555   5.457
 8874TIP3    H126586   1.691   4.538   5.501
 8874TIP3    H226587   1.632   4.600   5.376
 8875TIP3   OH226588   2.402   0.581   3.687
 8875TIP3    H126589   2.454   0.614   3.761
 8875TIP3    H226590   2.448   0.613   3.609
 8876TIP3   OH226591   5.184   5.297   3.082
 8876TIP3    H126592   5.142   5.270   3.001
 8876TIP3    H226593   5.167   5.391   3.089
 8877TIP3   OH226594   0.631   1.613   5.034
 8877TIP3    H126595   0.632   1.595   4.940
 8877TIP3    H226596   0.539   1.605   5.060
 8878TIP3   OH226597   4.264   0.271   1.680
 8878TIP3    H126598   4.171   0.258   1.697
 8878TIP3    H226599   4.267   0.335   1.608
 8879TIP3   OH226600   2.586   4.975   4.651
 8879TIP3    H126601   2.671   4.966   4.695
 8879TIP3    H226602   2.531   4.908   4.692
 8880TIP3   OH226603   5.876   0.596   5.553
 8880TIP3    H126604   5.829   0.659   5.608
 8880TIP3    H226605   5.878   0.515   5.605
 8881TIP3   OH226606   5.545   0.947   3.181
 8881TIP3    H126607   5.626   0.994   3.202
 8881TIP3    H226608   5.476   1.001   3.219
 8882TIP3   OH226609   3.284   2.092   4.616
 8882TIP3    H126610   3.194   2.084   4.585
 8882TIP3    H226611   3.302   2.186   4.613
 8883TIP3   OH226612   5.944   5.260   1.640
 8883TIP3    H126613   5.918   5.305   1.559
 8883TIP3    H226614   6.036   5.284   1.651
 8884TIP3   OH226615   4.814   6.729   0.927
 8884TIP3    H126616   4.890   6.676   0.951
 8884TIP3    H226617   4.831   6.814   0.968
 8885TIP3   OH226618   2.997   6.167   0.928
 8885TIP3    H126619   2.938   6.147   1.002
 8885TIP3    H226620   2.938   6.189   0.856
 8886TIP3   OH226621   4.092   1.689   0.199
 8886TIP3    H126622   3.998   1.676   0.211
 8886TIP3    H226623   4.127   1.600   0.193
 8887TIP3   OH226624   6.770   1.375   3.672
 8887TIP3    H126625   6.840   1.413   3.726
 8887TIP3    H226626   6.740   1.300   3.722
 8888TIP3   OH226627   3.867   2.559   4.202
 8888TIP3    H126628   3.951   2.592   4.173
 8888TIP3    H226629   3.802   2.615   4.159
 8889TIP3   OH226630   2.427   5.301   3.642
 8889TIP3    H126631   2.422   5.259   3.556
 8889TIP3    H226632   2.521   5.305   3.661
 8890TIP3   OH226633   6.546   6.737   5.057
 8890TIP3    H126634   6.533   6.661   5.000
 8890TIP3    H226635   6.610   6.791   5.012
 8891TIP3   OH226636   4.256   4.390   0.864
 8891TIP3    H126637   4.265   4.374   0.770
 8891TIP3    H226638   4.267   4.304   0.904
 8892TIP3   OH226639   2.101   1.382   2.281
 8892TIP3    H126640   2.195   1.391   2.297
 8892TIP3    H226641   2.069   1.329   2.354
 8893TIP3   OH226642   6.730   6.134   3.815
 8893TIP3    H126643   6.741   6.224   3.846
 8893TIP3    H226644   6.749   6.138   3.721
 8894TIP3   OH226645   0.040   5.634   0.625
 8894TIP3    H126646   0.119   5.663   0.671
 8894TIP3    H226647   0.025   5.702   0.559
 8895TIP3   OH226648   2.740   5.737   3.843
 8895TIP3    H126649   2.682   5.813   3.843
 8895TIP3    H226650   2.749   5.714   3.751
 8896TIP3   OH226651   0.980   5.188   2.786
 8896TIP3    H126652   0.902   5.157   2.831
 8896TIP3    H226653   0.997   5.274   2.824
 8897TIP3   OH226654   6.718   2.790   2.058
 8897TIP3    H126655   6.675   2.830   2.134
 8897TIP3    H226656   6.722   2.697   2.079
 8898TIP3   OH226657   1.475   6.753   3.488
 8898TIP3    H126658   1.501   6.679   3.543
 8898TIP3    H226659   1.383   6.737   3.468
 8899TIP3   OH226660   3.510   4.075   1.553
 8899TIP3    H126661   3.497   4.011   1.483
 8899TIP3    H226662   3.601   4.061   1.581
 8900TIP3   OH226663   6.384   6.225   4.356
 8900TIP3    H126664   6.379   6.319   4.374
 8900TIP3    H226665   6.329   6.212   4.279
 8901TIP3   OH226666   2.234   1.376   5.079
 8901TIP3    H126667   2.240   1.399   4.987
 8901TIP3    H226668   2.308   1.421   5.120
 8902TIP3   OH226669   2.869   5.385   2.530
 8902TIP3    H126670   2.913   5.470   2.534
 8902TIP3    H226671   2.939   5.323   2.506
 8903TIP3   OH226672   1.897   0.639   3.656
 8903TIP3    H126673   1.930   0.554   3.625
 8903TIP3    H226674   1.806   0.623   3.680
 8904TIP3   OH226675   3.955   0.455   4.822
 8904TIP3    H126676   3.922   0.366   4.807
 8904TIP3    H226677   3.955   0.464   4.918
 8905TIP3   OH226678   4.678   6.542   0.495
 8905TIP3    H126679   4.735   6.609   0.532
 8905TIP3    H226680   4.603   6.538   0.554
 8906TIP3   OH226681   4.526   1.874   0.359
 8906TIP3    H126682   4.536   1.965   0.331
 8906TIP3    H226683   4.431   1.860   0.364
 8907TIP3   OH226684   4.047   4.836   3.941
 8907TIP3    H126685   4.092   4.873   3.865
 8907TIP3    H226686   4.078   4.746   3.946
 8908TIP3   OH226687   4.327   0.406   2.827
 8908TIP3    H126688   4.391   0.433   2.761
 8908TIP3    H226689   4.381   0.377   2.901
 8909TIP3   OH226690   5.718   0.445   3.799
 8909TIP3    H126691   5.735   0.351   3.792
 8909TIP3    H226692   5.724   0.476   3.709
 8910TIP3   OH226693   5.179   2.236   2.528
 8910TIP3    H126694   5.255   2.185   2.502
 8910TIP3    H226695   5.178   2.311   2.469
 8911TIP3   OH226696   6.795   1.304   2.911
 8911TIP3    H126697   6.762   1.244   2.978
 8911TIP3    H226698   6.733   1.377   2.912
 8912TIP3   OH226699   5.586   0.980   2.720
 8912TIP3    H126700   5.669   0.935   2.701
 8912TIP3    H226701   5.612   1.070   2.741
 8913TIP3   OH226702   1.086   3.055   0.528
 8913TIP3    H126703   1.051   3.096   0.448
 8913TIP3    H226704   1.155   3.115   0.556
 8914TIP3   OH226705   5.952   3.221   5.406
 8914TIP3    H126706   5.934   3.315   5.414
 8914TIP3    H226707   5.866   3.181   5.393
 8915TIP3   OH226708   6.773   6.629   5.252
 8915TIP3    H126709   6.730   6.652   5.334
 8915TIP3    H226710   6.719   6.670   5.184
 8916TIP3   OH226711   6.904   5.058   4.998
 8916TIP3    H126712   6.850   5.071   5.076
 8916TIP3    H226713   6.973   4.998   5.027
 8917TIP3   OH226714   2.423   1.810   0.914
 8917TIP3    H126715   2.386   1.781   0.998
 8917TIP3    H226716   2.347   1.831   0.860
 8918TIP3   OH226717   1.876   1.803   5.618
 8918TIP3    H126718   1.968   1.806   5.643
 8918TIP3    H226719   1.877   1.794   5.522
 8919TIP3   OH226720   6.013   4.586   0.891
 8919TIP3    H126721   5.970   4.522   0.948
 8919TIP3    H226722   5.943   4.641   0.859
 8920TIP3   OH226723   0.805   4.701   4.030
 8920TIP3    H126724   0.792   4.761   3.957
 8920TIP3    H226725   0.851   4.754   4.096
 8921TIP3   OH226726   4.557   4.596   0.069
 8921TIP3    H126727   4.557   4.503   0.089
 8921TIP3    H226728   4.619   4.635   0.132
 8922TIP3   OH226729   4.271   6.033   5.524
 8922TIP3    H126730   4.284   6.069   5.437
 8922TIP3    H226731   4.359   6.028   5.562
 8923TIP3   OH226732   5.971   4.238   2.136
 8923TIP3    H126733   6.055   4.280   2.157
 8923TIP3    H226734   5.930   4.224   2.221
 8924TIP3   OH226735   0.689   0.237   5.243
 8924TIP3    H126736   0.699   0.153   5.198
 8924TIP3    H226737   0.771   0.283   5.225
 8925TIP3   OH226738   1.802   3.663   0.243
 8925TIP3    H126739   1.779   3.709   0.163
 8925TIP3    H226740   1.811   3.733   0.309
 8926TIP3   OH226741   2.052   6.432   1.343
 8926TIP3    H126742   2.031   6.525   1.337
 8926TIP3    H226743   2.146   6.428   1.322
 8927TIP3   OH226744   0.814   3.182   1.677
 8927TIP3    H126745   0.792   3.158   1.767
 8927TIP3    H226746   0.732   3.171   1.628
 8928TIP3   OH226747   3.273   0.426   0.419
 8928TIP3    H126748   3.211   0.375   0.471
 8928TIP3    H226749   3.359   0.393   0.446
 8929TIP3   OH226750   0.289   3.733   3.284
 8929TIP3    H126751   0.323   3.792   3.352
 8929TIP3    H226752   0.362   3.677   3.262
 8930TIP3   OH226753   5.217   3.365   5.615
 8930TIP3    H126754   5.280   3.425   5.656
 8930TIP3    H226755   5.270   3.288   5.591
 8931TIP3   OH226756   0.367   4.295   2.047
 8931TIP3    H126757   0.417   4.356   2.102
 8931TIP3    H226758   0.333   4.349   1.976
 8932TIP3   OH226759   5.788   6.774   5.030
 8932TIP3    H126760   5.770   6.694   4.981
 8932TIP3    H226761   5.759   6.755   5.119
 8933TIP3   OH226762   6.814   4.556   4.317
 8933TIP3    H126763   6.733   4.508   4.334
 8933TIP3    H226764   6.880   4.487   4.306
 8934TIP3   OH226765   4.615   3.788   0.109
 8934TIP3    H126766   4.691   3.825   0.063
 8934TIP3    H226767   4.614   3.834   0.193
 8935TIP3   OH226768   6.201   2.244   3.210
 8935TIP3    H126769   6.236   2.200   3.133
 8935TIP3    H226770   6.254   2.323   3.218
 8936TIP3   OH226771   1.003   1.516   4.579
 8936TIP3    H126772   0.992   1.438   4.524
 8936TIP3    H226773   1.095   1.517   4.602
 8937TIP3   OH226774   3.542   1.312   1.569
 8937TIP3    H126775   3.465   1.259   1.592
 8937TIP3    H226776   3.565   1.356   1.651
 8938TIP3   OH226777   5.827   6.614   1.050
 8938TIP3    H126778   5.847   6.708   1.044
 8938TIP3    H226779   5.735   6.611   1.075
 8939TIP3   OH226780   2.718   6.259   2.751
 8939TIP3    H126781   2.638   6.248   2.802
 8939TIP3    H226782   2.690   6.301   2.671
 8940TIP3   OH226783   3.720   1.572   0.258
 8940TIP3    H126784   3.709   1.477   0.261
 8940TIP3    H226785   3.667   1.600   0.184
 8941TIP3   OH226786   3.245   3.272   2.076
 8941TIP3    H126787   3.275   3.322   2.152
 8941TIP3    H226788   3.309   3.201   2.067
 8942TIP3   OH226789   2.994   6.518   4.133
 8942TIP3    H126790   2.960   6.514   4.044
 8942TIP3    H226791   3.087   6.539   4.122
 8943TIP3   OH226792   4.147   0.773   4.341
 8943TIP3    H126793   4.222   0.792   4.398
 8943TIP3    H226794   4.080   0.742   4.401
 8944TIP3   OH226795   3.533   5.243   0.560
 8944TIP3    H126796   3.535   5.200   0.475
 8944TIP3    H226797   3.530   5.171   0.623
 8945TIP3   OH226798   6.706   5.491   4.565
 8945TIP3    H126799   6.785   5.472   4.616
 8945TIP3    H226800   6.672   5.404   4.541
 8946TIP3   OH226801   2.644   6.150   0.507
 8946TIP3    H126802   2.627   6.114   0.420
 8946TIP3    H226803   2.557   6.160   0.546
 8947TIP3   OH226804   5.424   3.070   0.724
 8947TIP3    H126805   5.487   3.138   0.748
 8947TIP3    H226806   5.344   3.118   0.703
 8948TIP3   OH226807   5.545   5.293   0.310
 8948TIP3    H126808   5.622   5.299   0.253
 8948TIP3    H226809   5.499   5.215   0.279
 8949TIP3   OH226810   6.730   6.225   5.895
 8949TIP3    H126811   6.731   6.192   5.805
 8949TIP3    H226812   6.739   6.146   5.949
 8950TIP3   OH226813   5.306   5.423   5.330
 8950TIP3    H126814   5.389   5.375   5.338
 8950TIP3    H226815   5.321   5.485   5.258
 8951TIP3   OH226816   7.005   2.751   2.003
 8951TIP3    H126817   6.915   2.778   2.022
 8951TIP3    H226818   7.052   2.833   1.989
 8952TIP3   OH226819   1.467   5.867   1.926
 8952TIP3    H126820   1.557   5.900   1.924
 8952TIP3    H226821   1.440   5.863   1.835
 8953TIP3   OH226822   1.622   2.619   0.567
 8953TIP3    H126823   1.620   2.691   0.630
 8953TIP3    H226824   1.666   2.548   0.613
 8954TIP3   OH226825   4.723   3.546   0.473
 8954TIP3    H126826   4.685   3.487   0.408
 8954TIP3    H226827   4.658   3.615   0.485
 8955TIP3   OH226828   1.928   0.252   3.535
 8955TIP3    H126829   1.864   0.243   3.606
 8955TIP3    H226830   1.902   0.186   3.471
 8956TIP3   OH226831   5.026   6.556   0.093
 8956TIP3    H126832   5.013   6.650   0.108
 8956TIP3    H226833   4.937   6.520   0.088
 8957TIP3   OH226834   0.744   0.409   2.978
 8957TIP3    H126835   0.767   0.451   3.061
 8957TIP3    H226836   0.705   0.480   2.926
 8958TIP3   OH226837   2.135   5.660   5.787
 8958TIP3    H126838   2.222   5.623   5.771
 8958TIP3    H226839   2.152   5.738   5.840
 8959TIP3   OH226840   4.356   0.453   0.967
 8959TIP3    H126841   4.388   0.529   1.014
 8959TIP3    H226842   4.417   0.444   0.893
 8960TIP3   OH226843   4.085   2.689   4.113
 8960TIP3    H126844   4.104   2.643   4.032
 8960TIP3    H226845   4.167   2.734   4.136
 8961TIP3   OH226846   3.329   5.285   3.629
 8961TIP3    H126847   3.331   5.270   3.724
 8961TIP3    H226848   3.300   5.375   3.619
 8962TIP3   OH226849   5.595   2.873   3.780
 8962TIP3    H126850   5.658   2.867   3.851
 8962TIP3    H226851   5.554   2.787   3.777
 8963TIP3   OH226852   1.663   4.063   2.042
 8963TIP3    H126853   1.624   4.117   2.111
 8963TIP3    H226854   1.605   4.075   1.967
 8964TIP3   OH226855   5.925   0.384   3.009
 8964TIP3    H126856   5.873   0.304   3.006
 8964TIP3    H226857   6.014   0.356   2.985
 8965TIP3   OH226858   6.365   3.396   2.276
 8965TIP3    H126859   6.277   3.397   2.238
 8965TIP3    H226860   6.411   3.326   2.230
 8966TIP3   OH226861   6.492   2.984   3.945
 8966TIP3    H126862   6.440   2.904   3.950
 8966TIP3    H226863   6.526   2.996   4.033
 8967TIP3   OH226864   0.468   4.744   3.053
 8967TIP3    H126865   0.384   4.766   3.012
 8967TIP3    H226866   0.518   4.702   2.983
 8968TIP3   OH226867   6.692   3.607   3.520
 8968TIP3    H126868   6.718   3.518   3.543
 8968TIP3    H226869   6.603   3.615   3.554
 8969TIP3   OH226870   5.559   4.199   0.986
 8969TIP3    H126871   5.591   4.275   1.034
 8969TIP3    H226872   5.618   4.128   1.013
 8970TIP3   OH226873   4.520   3.587   3.534
 8970TIP3    H126874   4.475   3.669   3.554
 8970TIP3    H226875   4.604   3.614   3.498
 8971TIP3   OH226876   6.254   3.794   0.961
 8971TIP3    H126877   6.176   3.751   0.927
 8971TIP3    H226878   6.230   3.821   1.049
 8972TIP3   OH226879   7.181   6.675   4.689
 8972TIP3    H126880   7.104   6.648   4.640
 8972TIP3    H226881   7.152   6.673   4.781
 8973TIP3   OH226882   6.746   5.039   4.545
 8973TIP3    H126883   6.728   4.980   4.472
 8973TIP3    H226884   6.841   5.045   4.548
 8974TIP3   OH226885   2.637   3.934   4.903
 8974TIP3    H126886   2.618   4.027   4.899
 8974TIP3    H226887   2.639   3.905   4.812
 8975TIP3   OH226888   1.521   6.228   5.434
 8975TIP3    H126889   1.517   6.214   5.529
 8975TIP3    H226890   1.609   6.261   5.418
 8976TIP3   OH226891   5.538   0.512   3.224
 8976TIP3    H126892   5.490   0.524   3.306
 8976TIP3    H226893   5.629   0.534   3.245
 8977TIP3   OH226894   4.025   2.043   5.582
 8977TIP3    H126895   4.097   1.981   5.597
 8977TIP3    H226896   3.952   1.989   5.554
 8978TIP3   OH226897   4.969   3.134   3.918
 8978TIP3    H126898   4.980   3.214   3.971
 8978TIP3    H226899   5.043   3.135   3.858
 8979TIP3   OH226900   3.384   2.463   3.192
 8979TIP3    H126901   3.436   2.383   3.195
 8979TIP3    H226902   3.294   2.433   3.183
 8980TIP3   OH226903   1.591   0.238   2.382
 8980TIP3    H126904   1.631   0.307   2.329
 8980TIP3    H226905   1.562   0.172   2.319
 8981TIP3   OH226906   4.538   4.508   3.625
 8981TIP3    H126907   4.499   4.591   3.594
 8981TIP3    H226908   4.627   4.531   3.648
 8982TIP3   OH226909   3.772   2.207   1.708
 8982TIP3    H126910   3.712   2.154   1.761
 8982TIP3    H226911   3.835   2.145   1.673
 8983TIP3   OH226912   0.158   6.632   4.999
 8983TIP3    H126913   0.136   6.637   5.092
 8983TIP3    H226914   0.073   6.638   4.954
 8984TIP3   OH226915   0.734   0.194   1.906
 8984TIP3    H126916   0.699   0.105   1.905
 8984TIP3    H226917   0.823   0.186   1.872
 8985TIP3   OH226918   6.247   4.516   0.775
 8985TIP3    H126919   6.284   4.440   0.820
 8985TIP3    H226920   6.154   4.514   0.797
 8986TIP3   OH226921  -0.055   0.596   5.911
 8986TIP3    H126922   0.021   0.624   5.860
 8986TIP3    H226923  -0.077   0.510   5.876
 8987TIP3   OH226924   7.085   0.160   2.203
 8987TIP3    H126925   7.060   0.208   2.282
 8987TIP3    H226926   7.084   0.225   2.133
 8988TIP3   OH226927   5.547   1.377   0.247
 8988TIP3    H126928   5.614   1.439   0.218
 8988TIP3    H226929   5.588   1.291   0.237
 8989TIP3   OH226930   4.949   4.607   0.485
 8989TIP3    H126931   4.909   4.693   0.497
 8989TIP3    H226932   4.931   4.561   0.567
 8990TIP3   OH226933   0.977   0.288   2.887
 8990TIP3    H126934   0.890   0.318   2.915
 8990TIP3    H226935   1.030   0.367   2.886
 8991TIP3   OH226936   4.412   0.234   1.131
 8991TIP3    H126937   4.415   0.316   1.081
 8991TIP3    H226938   4.500   0.197   1.122
 8992TIP3   OH226939   2.805   5.629   3.046
 8992TIP3    H126940   2.845   5.680   2.976
 8992TIP3    H226941   2.854   5.652   3.125
 8993TIP3   OH226942   3.404   0.902   2.170
 8993TIP3    H126943   3.420   0.814   2.134
 8993TIP3    H226944   3.385   0.887   2.263
 8994TIP3   OH226945   3.530   6.674   5.618
 8994TIP3    H126946   3.556   6.622   5.541
 8994TIP3    H226947   3.584   6.640   5.689
 8995TIP3   OH226948   3.917   2.957   4.208
 8995TIP3    H126949   3.953   2.871   4.228
 8995TIP3    H226950   3.858   2.976   4.280
 8996TIP3   OH226951   4.472   1.596   3.201
 8996TIP3    H126952   4.444   1.671   3.253
 8996TIP3    H226953   4.557   1.572   3.236
 8997TIP3   OH226954   6.898   4.060   5.783
 8997TIP3    H126955   6.980   4.102   5.807
 8997TIP3    H226956   6.910   3.968   5.807
 8998TIP3   OH226957   0.199   4.305   1.261
 8998TIP3    H126958   0.179   4.315   1.354
 8998TIP3    H226959   0.133   4.243   1.229
 8999TIP3   OH226960   3.222   1.464   1.706
 8999TIP3    H126961   3.201   1.436   1.617
 8999TIP3    H226962   3.146   1.437   1.758
 9000TIP3   OH226963   6.800   5.001   5.345
 9000TIP3    H126964   6.715   5.028   5.310
 9000TIP3    H226965   6.834   5.079   5.388
 9001TIP3   OH226966   4.333   4.093   2.572
 9001TIP3    H126967   4.387   4.052   2.640
 9001TIP3    H226968   4.288   4.164   2.616
 9002TIP3   OH226969   2.516   0.584   1.412
 9002TIP3    H126970   2.550   0.624   1.492
 9002TIP3    H226971   2.423   0.606   1.413
 9003TIP3   OH226972   5.859   6.714   2.109
 9003TIP3    H126973   5.893   6.638   2.063
 9003TIP3    H226974   5.764   6.708   2.097
 9004TIP3   OH226975   2.175   2.536   5.262
 9004TIP3    H126976   2.160   2.630   5.254
 9004TIP3    H226977   2.269   2.525   5.247
 9005TIP3   OH226978   5.157   1.326   4.273
 9005TIP3    H126979   5.139   1.384   4.346
 9005TIP3    H226980   5.244   1.353   4.241
 9006TIP3   OH226981   0.492   4.767   1.247
 9006TIP3    H126982   0.588   4.767   1.251
 9006TIP3    H226983   0.470   4.680   1.215
 9007TIP3   OH226984   1.008   2.020   3.403
 9007TIP3    H126985   0.923   1.987   3.430
 9007TIP3    H226986   1.005   2.114   3.421
 9008TIP3   OH226987   1.631   0.897   1.376
 9008TIP3    H126988   1.556   0.884   1.433
 9008TIP3    H226989   1.608   0.851   1.295
 9009TIP3   OH226990   5.415   3.045   3.666
 9009TIP3    H126991   5.480   3.111   3.643
 9009TIP3    H226992   5.459   2.990   3.731
 9010TIP3   OH226993   0.389   6.318   0.272
 9010TIP3    H126994   0.387   6.399   0.222
 9010TIP3    H226995   0.351   6.340   0.357
 9011TIP3   OH226996   4.586   2.704   0.643
 9011TIP3    H126997   4.667   2.755   0.651
 9011TIP3    H226998   4.519   2.769   0.623
 9012TIP3   OH226999   2.034   1.018   4.129
 9012TIP3    H127000   1.974   0.949   4.157
 9012TIP3    H227001   2.070   1.053   4.211
 9013TIP3   OH227002   7.159   6.357   0.520
 9013TIP3    H127003   7.146   6.422   0.450
 9013TIP3    H227004   7.073   6.317   0.532
 9014TIP3   OH227005   6.330   5.190   4.420
 9014TIP3    H127006   6.406   5.224   4.469
 9014TIP3    H227007   6.257   5.197   4.482
 9015TIP3   OH227008   6.628   5.329   2.943
 9015TIP3    H127009   6.715   5.290   2.941
 9015TIP3    H227010   6.599   5.328   2.851
 9016TIP3   OH227011   2.707   5.091   1.428
 9016TIP3    H127012   2.644   5.152   1.467
 9016TIP3    H227013   2.675   5.005   1.451
 9017TIP3   OH227014   7.156   3.802   2.189
 9017TIP3    H127015   7.092   3.750   2.141
 9017TIP3    H227016   7.240   3.760   2.171
 9018TIP3   OH227017   3.678   4.212   4.300
 9018TIP3    H127018   3.774   4.211   4.302
 9018TIP3    H227019   3.656   4.300   4.270
 9019TIP3   OH227020   6.239   3.077   4.261
 9019TIP3    H127021   6.165   3.080   4.200
 9019TIP3    H227022   6.212   3.016   4.329
 9020TIP3   OH227023   3.608   6.167   2.565
 9020TIP3    H127024   3.513   6.173   2.559
 9020TIP3    H227025   3.624   6.084   2.609
 9021TIP3   OH227026   4.895   6.541   2.732
 9021TIP3    H127027   4.817   6.505   2.776
 9021TIP3    H227028   4.943   6.464   2.702
 9022TIP3   OH227029   1.131   4.157   3.798
 9022TIP3    H127030   1.053   4.102   3.805
 9022TIP3    H227031   1.099   4.236   3.754
 9023TIP3   OH227032   1.624   3.053   3.186
 9023TIP3    H127033   1.578   3.039   3.103
 9023TIP3    H227034   1.683   2.977   3.193
 9024TIP3   OH227035   3.317   1.164   5.003
 9024TIP3    H127036   3.225   1.142   4.995
 9024TIP3    H227037   3.323   1.213   5.085
 9025TIP3   OH227038   3.007   1.626   4.124
 9025TIP3    H127039   2.922   1.604   4.162
 9025TIP3    H227040   3.007   1.722   4.119
 9026TIP3   OH227041   2.095   0.759   0.097
 9026TIP3    H127042   2.039   0.776   0.173
 9026TIP3    H227043   2.057   0.810   0.026
 9027TIP3   OH227044   6.721   3.851   1.750
 9027TIP3    H127045   6.643   3.903   1.732
 9027TIP3    H227046   6.791   3.915   1.758
 9028TIP3   OH227047   2.587   2.112   0.193
 9028TIP3    H127048   2.646   2.052   0.146
 9028TIP3    H227049   2.545   2.056   0.258
 9029TIP3   OH227050   1.701   4.395   4.030
 9029TIP3    H127051   1.646   4.358   3.961
 9029TIP3    H227052   1.778   4.429   3.984
 9030TIP3   OH227053   0.646   1.413   0.884
 9030TIP3    H127054   0.607   1.326   0.896
 9030TIP3    H227055   0.591   1.454   0.817
 9031TIP3   OH227056   7.028   4.000   1.851
 9031TIP3    H127057   7.007   3.928   1.911
 9031TIP3    H227058   7.124   4.001   1.848
 9032TIP3   OH227059   6.691   6.474   2.445
 9032TIP3    H127060   6.625   6.528   2.404
 9032TIP3    H227061   6.706   6.402   2.384
 9033TIP3   OH227062   6.753   6.040   1.598
 9033TIP3    H127063   6.819   6.052   1.530
 9033TIP3    H227064   6.723   6.129   1.618
 9034TIP3   OH227065   5.210   3.602   4.385
 9034TIP3    H127066   5.276   3.599   4.454
 9034TIP3    H227067   5.149   3.670   4.414
 9035TIP3   OH227068   4.620   0.504   0.073
 9035TIP3    H127069   4.646   0.587   0.112
 9035TIP3    H227070   4.703   0.462   0.050
 9036TIP3   OH227071   1.790   5.369   4.697
 9036TIP3    H127072   1.727   5.300   4.675
 9036TIP3    H227073   1.852   5.326   4.755
 9037TIP3   OH227074   2.613   1.171   0.559
 9037TIP3    H127075   2.681   1.233   0.532
 9037TIP3    H227076   2.600   1.115   0.482
 9038TIP3   OH227077   4.841   2.795   0.684
 9038TIP3    H127078   4.890   2.755   0.611
 9038TIP3    H227079   4.906   2.806   0.753
 9039TIP3   OH227080   4.355   1.290   0.372
 9039TIP3    H127081   4.390   1.230   0.306
 9039TIP3    H227082   4.432   1.333   0.409
 9040TIP3   OH227083   2.087   4.413   5.828
 9040TIP3    H127084   1.996   4.392   5.807
 9040TIP3    H227085   2.083   4.452   5.916
 9041TIP3   OH227086   0.277   5.491   1.268
 9041TIP3    H127087   0.310   5.490   1.178
 9041TIP3    H227088   0.318   5.567   1.308
 9042TIP3   OH227089   6.020   3.656   0.846
 9042TIP3    H127090   6.003   3.563   0.831
 9042TIP3    H227091   5.955   3.682   0.911
 9043TIP3   OH227092   1.503   1.493   2.046
 9043TIP3    H127093   1.416   1.493   2.006
 9043TIP3    H227094   1.507   1.410   2.094
 9044TIP3   OH227095   4.888   2.298   1.013
 9044TIP3    H127096   4.873   2.346   0.931
 9044TIP3    H227097   4.821   2.230   1.014
 9045TIP3   OH227098   6.979   4.295   3.737
 9045TIP3    H127099   6.897   4.248   3.727
 9045TIP3    H227100   6.975   4.364   3.670
 9046TIP3   OH227101   2.074   3.034   3.200
 9046TIP3    H127102   2.049   2.979   3.126
 9046TIP3    H227103   2.145   2.986   3.243
 9047TIP3   OH227104   2.196   1.857   0.170
 9047TIP3    H127105   2.127   1.810   0.123
 9047TIP3    H227106   2.151   1.932   0.209
 9048TIP3   OH227107   4.265   3.507   3.244
 9048TIP3    H127108   4.234   3.589   3.205
 9048TIP3    H227109   4.208   3.493   3.320
 9049TIP3   OH227110   0.751   5.217   3.010
 9049TIP3    H127111   0.689   5.153   2.975
 9049TIP3    H227112   0.806   5.166   3.071
 9050TIP3   OH227113   5.203   1.971   4.835
 9050TIP3    H127114   5.144   2.020   4.891
 9050TIP3    H227115   5.276   2.031   4.819
 9051TIP3   OH227116   6.492   5.639   0.703
 9051TIP3    H127117   6.510   5.728   0.732
 9051TIP3    H227118   6.578   5.603   0.681
 9052TIP3   OH227119   6.648   4.663   5.667
 9052TIP3    H127120   6.607   4.696   5.587
 9052TIP3    H227121   6.719   4.726   5.685
 9053TIP3   OH227122   1.706   2.364   5.036
 9053TIP3    H127123   1.644   2.437   5.025
 9053TIP3    H227124   1.790   2.406   5.050
 9054TIP3   OH227125   2.368   0.863   3.479
 9054TIP3    H127126   2.311   0.856   3.555
 9054TIP3    H227127   2.439   0.920   3.507
 9055TIP3   OH227128   6.288   5.616   4.080
 9055TIP3    H127129   6.246   5.533   4.104
 9055TIP3    H227130   6.285   5.668   4.160
 9056TIP3   OH227131   4.443   5.649   2.438
 9056TIP3    H127132   4.477   5.626   2.524
 9056TIP3    H227133   4.354   5.615   2.438
 9057TIP3   OH227134   0.215   6.660   2.166
 9057TIP3    H127135   0.253   6.748   2.167
 9057TIP3    H227136   0.209   6.638   2.073
 9058TIP3   OH227137   3.029   5.347   4.765
 9058TIP3    H127138   2.955   5.331   4.824
 9058TIP3    H227139   3.067   5.430   4.795
 9059TIP3   OH227140   3.255   2.166   2.940
 9059TIP3    H127141   3.320   2.169   3.010
 9059TIP3    H227142   3.184   2.222   2.970
 9060TIP3   OH227143   2.881   4.493   0.115
 9060TIP3    H127144   2.965   4.464   0.078
 9060TIP3    H227145   2.832   4.526   0.039
 9061TIP3   OH227146   5.570   4.621   3.293
 9061TIP3    H127147   5.642   4.624   3.230
 9061TIP3    H227148   5.532   4.534   3.281
 9062TIP3   OH227149   1.970   3.906   5.183
 9062TIP3    H127150   2.018   3.870   5.109
 9062TIP3    H227151   1.882   3.869   5.174
 9063TIP3   OH227152   5.959   3.777   5.006
 9063TIP3    H127153   5.998   3.861   5.032
 9063TIP3    H227154   5.881   3.801   4.956
 9064TIP3   OH227155   0.638   6.716   5.428
 9064TIP3    H127156   0.658   6.650   5.495
 9064TIP3    H227157   0.543   6.726   5.433
 9065TIP3   OH227158   6.720   4.285   4.040
 9065TIP3    H127159   6.662   4.212   4.063
 9065TIP3    H227160   6.662   4.352   4.006
 9066TIP3   OH227161   2.925   3.737   5.157
 9066TIP3    H127162   2.838   3.773   5.171
 9066TIP3    H227163   2.985   3.804   5.192
 9067TIP3   OH227164   3.570   2.425   2.332
 9067TIP3    H127165   3.665   2.420   2.324
 9067TIP3    H227166   3.550   2.518   2.315
 9068TIP3   OH227167   0.603   3.886   5.709
 9068TIP3    H127168   0.633   3.928   5.629
 9068TIP3    H227169   0.641   3.798   5.706
 9069TIP3   OH227170   1.223   4.605   4.989
 9069TIP3    H127171   1.139   4.567   4.963
 9069TIP3    H227172   1.263   4.634   4.908
 9070TIP3   OH227173   1.587   6.285   3.003
 9070TIP3    H127174   1.630   6.350   2.948
 9070TIP3    H227175   1.567   6.331   3.084
 9071TIP3   OH227176   3.448   4.741   1.587
 9071TIP3    H127177   3.507   4.816   1.591
 9071TIP3    H227178   3.442   4.721   1.493
 9072TIP3   OH227179   4.399   2.602   1.967
 9072TIP3    H127180   4.395   2.562   2.054
 9072TIP3    H227181   4.375   2.694   1.983
 9073TIP3   OH227182   3.934   4.483   4.599
 9073TIP3    H127183   3.877   4.418   4.640
 9073TIP3    H227184   3.887   4.566   4.611
 9074TIP3   OH227185   5.495   2.739   2.426
 9074TIP3    H127186   5.545   2.761   2.347
 9074TIP3    H227187   5.476   2.645   2.417
 9075TIP3   OH227188   4.885   0.091   0.982
 9075TIP3    H127189   4.943   0.150   0.933
 9075TIP3    H227190   4.904   0.004   0.945
 9076TIP3   OH227191   1.280   4.620   4.224
 9076TIP3    H127192   1.242   4.563   4.157
 9076TIP3    H227193   1.333   4.562   4.278
 9077TIP3   OH227194   0.468   5.590   2.197
 9077TIP3    H127195   0.484   5.562   2.287
 9077TIP3    H227196   0.475   5.510   2.145
 9078TIP3   OH227197   1.886   0.136   4.916
 9078TIP3    H127198   1.978   0.145   4.895
 9078TIP3    H227199   1.852   0.226   4.913
 9079TIP3   OH227200   1.629   3.682   4.289
 9079TIP3    H127201   1.602   3.621   4.221
 9079TIP3    H227202   1.683   3.747   4.244
 9080TIP3   OH227203   3.588   3.812   4.863
 9080TIP3    H127204   3.548   3.817   4.950
 9080TIP3    H227205   3.537   3.744   4.818
 9081TIP3   OH227206   5.709   3.868   4.357
 9081TIP3    H127207   5.790   3.848   4.309
 9081TIP3    H227208   5.739   3.896   4.444
 9082TIP3   OH227209   5.571   2.374   4.536
 9082TIP3    H127210   5.529   2.447   4.581
 9082TIP3    H227211   5.507   2.348   4.470
 9083TIP3   OH227212   1.197   0.250   1.126
 9083TIP3    H127213   1.116   0.258   1.076
 9083TIP3    H227214   1.196   0.324   1.186
 9084TIP3   OH227215   1.469   0.013   4.752
 9084TIP3    H127216   1.456  -0.068   4.801
 9084TIP3    H227217   1.561   0.011   4.726
 9085TIP3   OH227218   0.509   2.693   0.903
 9085TIP3    H127219   0.471   2.702   0.815
 9085TIP3    H227220   0.589   2.745   0.900
 9086TIP3   OH227221   2.690   6.309   5.169
 9086TIP3    H127222   2.636   6.332   5.093
 9086TIP3    H227223   2.727   6.224   5.146
 9087TIP3   OH227224   1.298   2.694   3.727
 9087TIP3    H127225   1.391   2.697   3.704
 9087TIP3    H227226   1.280   2.782   3.761
 9088TIP3   OH227227   5.094   2.726   1.915
 9088TIP3    H127228   5.169   2.783   1.931
 9088TIP3    H227229   5.033   2.780   1.865
 9089TIP3   OH227230   5.501   1.500   5.529
 9089TIP3    H127231   5.436   1.435   5.558
 9089TIP3    H227232   5.466   1.534   5.447
 9090TIP3   OH227233   1.964   2.989   5.473
 9090TIP3    H127234   1.974   3.055   5.542
 9090TIP3    H227235   1.964   3.040   5.391
 9091TIP3   OH227236   3.111   0.197   0.504
 9091TIP3    H127237   3.108   0.208   0.599
 9091TIP3    H227238   3.177   0.129   0.490
 9092TIP3   OH227239   2.665   0.064   4.897
 9092TIP3    H127240   2.584   0.114   4.887
 9092TIP3    H227241   2.636  -0.023   4.924
 9093TIP3   OH227242   1.244   1.476   1.980
 9093TIP3    H127243   1.233   1.381   1.970
 9093TIP3    H227244   1.160   1.506   2.013
 9094TIP3   OH227245   2.110   2.792   4.415
 9094TIP3    H127246   2.155   2.803   4.331
 9094TIP3    H227247   2.171   2.743   4.469
 9095TIP3   OH227248   6.779   1.669   5.041
 9095TIP3    H127249   6.802   1.691   5.131
 9095TIP3    H227250   6.733   1.585   5.048
 9096TIP3   OH227251   3.150   5.729   4.595
 9096TIP3    H127252   3.186   5.677   4.667
 9096TIP3    H227253   3.122   5.665   4.530
 9097TIP3   OH227254   6.345   4.423   0.450
 9097TIP3    H127255   6.342   4.517   0.433
 9097TIP3    H227256   6.438   4.401   0.450
 9098TIP3   OH227257   6.411   0.904   4.408
 9098TIP3    H127258   6.504   0.882   4.402
 9098TIP3    H227259   6.375   0.841   4.470
 9099TIP3   OH227260   5.395   3.009   1.738
 9099TIP3    H127261   5.453   3.083   1.757
 9099TIP3    H227262   5.364   2.980   1.824
 9100TIP3   OH227263   3.600   2.171   4.756
 9100TIP3    H127264   3.686   2.172   4.797
 9100TIP3    H227265   3.617   2.181   4.663
 9101TIP3   OH227266   5.751   5.815   3.388
 9101TIP3    H127267   5.835   5.772   3.404
 9101TIP3    H227268   5.717   5.833   3.476
 9102TIP3   OH227269   4.754   2.528   5.351
 9102TIP3    H127270   4.762   2.441   5.391
 9102TIP3    H227271   4.817   2.582   5.399
 9103TIP3   OH227272   5.641   0.440   0.662
 9103TIP3    H127273   5.656   0.393   0.580
 9103TIP3    H227274   5.710   0.408   0.721
 9104TIP3   OH227275   5.727   6.737   5.301
 9104TIP3    H127276   5.673   6.658   5.299
 9104TIP3    H227277   5.766   6.736   5.389
 9105TIP3   OH227278   4.330   3.627   2.067
 9105TIP3    H127279   4.381   3.559   2.024
 9105TIP3    H227280   4.285   3.673   1.995
 9106TIP3   OH227281   5.432   1.132   1.663
 9106TIP3    H127282   5.382   1.098   1.737
 9106TIP3    H227283   5.441   1.226   1.681
 9107TIP3   OH227284   6.414   3.537   5.508
 9107TIP3    H127285   6.369   3.452   5.505
 9107TIP3    H227286   6.417   3.565   5.416
 9108TIP3   OH227287   0.099   5.637   0.020
 9108TIP3    H127288   0.171   5.623   0.081
 9108TIP3    H227289   0.142   5.660  -0.063
 9109TIP3   OH227290   6.357   1.757   3.266
 9109TIP3    H127291   6.265   1.741   3.287
 9109TIP3    H227292   6.405   1.712   3.336
 9110TIP3   OH227293   2.393   5.631   2.319
 9110TIP3    H127294   2.446   5.555   2.342
 9110TIP3    H227295   2.354   5.660   2.402
 9111TIP3   OH227296   0.904   2.573   4.994
 9111TIP3    H127297   0.853   2.584   4.914
 9111TIP3    H227298   0.992   2.604   4.971
 9112TIP3   OH227299   3.332   4.694   0.719
 9112TIP3    H127300   3.254   4.676   0.666
 9112TIP3    H227301   3.403   4.652   0.670
 9113TIP3   OH227302   7.067   4.991   4.788
 9113TIP3    H127303   7.009   5.049   4.837
 9113TIP3    H227304   7.054   5.016   4.696
 9114TIP3   OH227305   4.950   0.427   4.754
 9114TIP3    H127306   5.039   0.446   4.723
 9114TIP3    H227307   4.915   0.366   4.689
 9115TIP3   OH227308   1.328   3.952   0.493
 9115TIP3    H127309   1.302   3.929   0.582
 9115TIP3    H227310   1.246   3.968   0.447
 9116TIP3   OH227311   0.301   0.169   3.723
 9116TIP3    H127312   0.248   0.222   3.663
 9116TIP3    H227313   0.343   0.104   3.667
 9117TIP3   OH227314   2.956   2.765   4.361
 9117TIP3    H127315   2.933   2.695   4.422
 9117TIP3    H227316   2.918   2.844   4.399
 9118TIP3   OH227317   1.355   5.922   4.802
 9118TIP3    H127318   1.362   5.910   4.897
 9118TIP3    H227319   1.261   5.931   4.787
 9119TIP3   OH227320   0.644   3.120   2.149
 9119TIP3    H127321   0.716   3.131   2.087
 9119TIP3    H227322   0.565   3.117   2.094
 9120TIP3   OH227323   1.355   4.013   2.506
 9120TIP3    H127324   1.446   4.038   2.490
 9120TIP3    H227325   1.350   3.998   2.600
 9121TIP3   OH227326   1.135   2.734   1.064
 9121TIP3    H127327   1.113   2.739   0.971
 9121TIP3    H227328   1.173   2.820   1.084
 9122TIP3   OH227329   6.886   3.929   0.421
 9122TIP3    H127330   6.968   3.979   0.422
 9122TIP3    H227331   6.827   3.979   0.477
 9123TIP3   OH227332   4.343   1.388   5.644
 9123TIP3    H127333   4.347   1.450   5.571
 9123TIP3    H227334   4.335   1.302   5.601
 9124TIP3   OH227335   0.837   4.317   4.281
 9124TIP3    H127336   0.836   4.273   4.197
 9124TIP3    H227337   0.869   4.251   4.343
 9125TIP3   OH227338   6.360   0.884   0.326
 9125TIP3    H127339   6.325   0.893   0.414
 9125TIP3    H227340   6.392   0.793   0.321
 9126TIP3   OH227341   6.353   0.631   2.395
 9126TIP3    H127342   6.274   0.637   2.341
 9126TIP3    H227343   6.356   0.540   2.425
 9127TIP3   OH227344   6.033   6.223   0.216
 9127TIP3    H127345   6.030   6.286   0.144
 9127TIP3    H227346   6.034   6.277   0.295
 9128TIP3   OH227347   1.223   0.845   2.418
 9128TIP3    H127348   1.210   0.912   2.484
 9128TIP3    H227349   1.137   0.831   2.379
 9129TIP3   OH227350   5.801   4.894   3.151
 9129TIP3    H127351   5.794   4.806   3.113
 9129TIP3    H227352   5.715   4.910   3.190
 9130TIP3   OH227353   4.345   0.001   1.626
 9130TIP3    H127354   4.357   0.095   1.637
 9130TIP3    H227355   4.256  -0.016   1.657
 9131TIP3   OH227356   2.427   0.555   5.921
 9131TIP3    H127357   2.480   0.524   5.847
 9131TIP3    H227358   2.435   0.650   5.918
 9132TIP3   OH227359   6.549   2.407   2.333
 9132TIP3    H127360   6.467   2.454   2.351
 9132TIP3    H227361   6.521   2.317   2.315
 9133TIP3   OH227362   1.063   2.783   2.628
 9133TIP3    H127363   1.007   2.815   2.699
 9133TIP3    H227364   1.026   2.698   2.605
 9134TIP3   OH227365   2.335   1.680   3.855
 9134TIP3    H127366   2.312   1.593   3.887
 9134TIP3    H227367   2.416   1.702   3.901
 9135TIP3   OH227368   5.554   5.030   2.993
 9135TIP3    H127369   5.506   4.965   3.045
 9135TIP3    H227370   5.519   5.020   2.904
 9136TIP3   OH227371   0.149   4.990   1.667
 9136TIP3    H127372   0.167   5.083   1.672
 9136TIP3    H227373   0.067   4.984   1.617
 9137TIP3   OH227374   3.065   2.168   4.779
 9137TIP3    H127375   2.987   2.146   4.831
 9137TIP3    H227376   3.046   2.134   4.692
 9138TIP3   OH227377   2.072   1.033   5.725
 9138TIP3    H127378   2.016   1.057   5.799
 9138TIP3    H227379   2.015   0.981   5.668
 9139TIP3   OH227380   6.744   3.100   4.294
 9139TIP3    H127381   6.666   3.121   4.243
 9139TIP3    H227382   6.741   3.160   4.369
 9140TIP3   OH227383   2.424   6.229   3.648
 9140TIP3    H127384   2.415   6.306   3.703
 9140TIP3    H227385   2.348   6.175   3.670
 9141TIP3   OH227386   4.872   2.834   2.625
 9141TIP3    H127387   4.963   2.864   2.627
 9141TIP3    H227388   4.844   2.847   2.534
 9142TIP3   OH227389   1.937   2.651   2.485
 9142TIP3    H127390   1.940   2.577   2.423
 9142TIP3    H227391   1.843   2.665   2.500
 9143TIP3   OH227392   3.392   6.352   4.301
 9143TIP3    H127393   3.484   6.353   4.328
 9143TIP3    H227394   3.378   6.264   4.266
 9144TIP3   OH227395   6.202   2.480   2.116
 9144TIP3    H127396   6.278   2.475   2.059
 9144TIP3    H227397   6.237   2.463   2.204
 9145TIP3   OH227398   1.083   4.046   2.577
 9145TIP3    H127399   1.034   4.018   2.499
 9145TIP3    H227400   1.174   4.025   2.557
 9146TIP3   OH227401   5.208   0.249   0.169
 9146TIP3    H127402   5.246   0.217   0.087
 9146TIP3    H227403   5.217   0.345   0.163
 9147TIP3   OH227404   1.836   3.224   3.237
 9147TIP3    H127405   1.755   3.176   3.250
 9147TIP3    H227406   1.901   3.156   3.215
 9148TIP3   OH227407   4.155   3.667   4.810
 9148TIP3    H127408   4.065   3.644   4.788
 9148TIP3    H227409   4.209   3.599   4.771
 9149TIP3   OH227410   6.120   4.769   4.876
 9149TIP3    H127411   6.178   4.694   4.886
 9149TIP3    H227412   6.101   4.774   4.783
 9150TIP3   OH227413   6.902   1.781   5.269
 9150TIP3    H127414   6.961   1.855   5.286
 9150TIP3    H227415   6.826   1.799   5.323
 9151TIP3   OH227416   1.229   4.414   0.777
 9151TIP3    H127417   1.285   4.384   0.706
 9151TIP3    H227418   1.187   4.493   0.743
 9152TIP3   OH227419   2.154   0.382   3.170
 9152TIP3    H127420   2.145   0.476   3.156
 9152TIP3    H227421   2.188   0.373   3.259
 9153TIP3   OH227422   1.575   2.762   1.935
 9153TIP3    H127423   1.599   2.756   1.843
 9153TIP3    H227424   1.480   2.750   1.936
 9154TIP3   OH227425   4.753   1.162   2.223
 9154TIP3    H127426   4.676   1.172   2.279
 9154TIP3    H227427   4.790   1.250   2.217
 9155TIP3   OH227428   4.490   0.986   1.754
 9155TIP3    H127429   4.512   1.035   1.674
 9155TIP3    H227430   4.535   1.033   1.824
 9156TIP3   OH227431   0.329   6.633   3.094
 9156TIP3    H127432   0.378   6.714   3.083
 9156TIP3    H227433   0.321   6.622   3.189
 9157TIP3   OH227434   6.690   5.550   0.925
 9157TIP3    H127435   6.653   5.633   0.954
 9157TIP3    H227436   6.614   5.492   0.914
 9158TIP3   OH227437   2.689   4.025   3.286
 9158TIP3    H127438   2.779   4.021   3.252
 9158TIP3    H227439   2.644   4.086   3.228
 9159TIP3   OH227440   1.827   2.941   0.129
 9159TIP3    H127441   1.891   2.941   0.199
 9159TIP3    H227442   1.835   3.028   0.088
 9160TIP3   OH227443   7.199   4.865   0.058
 9160TIP3    H127444   7.233   4.887  -0.029
 9160TIP3    H227445   7.277   4.852   0.112
 9161TIP3   OH227446   0.320   5.302   4.257
 9161TIP3    H127447   0.366   5.218   4.258
 9161TIP3    H227448   0.252   5.293   4.323
 9162TIP3   OH227449   2.593   2.871   1.089
 9162TIP3    H127450   2.664   2.934   1.095
 9162TIP3    H227451   2.621   2.809   1.021
 9163TIP3   OH227452   3.583   1.923   3.931
 9163TIP3    H127453   3.600   1.972   4.012
 9163TIP3    H227454   3.493   1.946   3.909
 9164TIP3   OH227455   6.454   5.652   1.107
 9164TIP3    H127456   6.416   5.590   1.170
 9164TIP3    H227457   6.381   5.677   1.051
 9165TIP3   OH227458   4.386   0.737   1.702
 9165TIP3    H127459   4.442   0.808   1.731
 9165TIP3    H227460   4.315   0.780   1.654
 9166TIP3   OH227461   2.646   2.400   1.254
 9166TIP3    H127462   2.647   2.341   1.329
 9166TIP3    H227463   2.567   2.375   1.205
 9167TIP3   OH227464   0.979   4.138   0.323
 9167TIP3    H127465   0.897   4.150   0.276
 9167TIP3    H227466   1.014   4.055   0.291
 9168TIP3   OH227467   6.831   3.040   0.592
 9168TIP3    H127468   6.835   3.008   0.502
 9168TIP3    H227469   6.831   3.135   0.584
 9169TIP3   OH227470   3.516   4.725   2.934
 9169TIP3    H127471   3.511   4.812   2.973
 9169TIP3    H227472   3.477   4.736   2.847
 9170TIP3   OH227473   2.478   1.737   2.570
 9170TIP3    H127474   2.533   1.802   2.616
 9170TIP3    H227475   2.537   1.698   2.505
 9171TIP3   OH227476   1.743   4.507   4.938
 9171TIP3    H127477   1.805   4.508   5.011
 9171TIP3    H227478   1.726   4.415   4.922
 9172TIP3   OH227479   6.212   1.062   4.670
 9172TIP3    H127480   6.119   1.044   4.656
 9172TIP3    H227481   6.239   0.996   4.733
 9173TIP3   OH227482   6.714   4.001   2.438
 9173TIP3    H127483   6.782   3.934   2.430
 9173TIP3    H227484   6.644   3.971   2.381
 9174TIP3   OH227485   0.135   5.306   5.242
 9174TIP3    H127486   0.042   5.297   5.263
 9174TIP3    H227487   0.148   5.401   5.235
 9175TIP3   OH227488   4.257   4.461   2.528
 9175TIP3    H127489   4.323   4.464   2.458
 9175TIP3    H227490   4.299   4.412   2.599
 9176TIP3   OH227491   0.431   6.768   3.912
 9176TIP3    H127492   0.520   6.749   3.881
 9176TIP3    H227493   0.374   6.711   3.860
 9177TIP3   OH227494   1.633   4.077   2.498
 9177TIP3    H127495   1.669   3.993   2.468
 9177TIP3    H227496   1.708   4.122   2.537
 9178TIP3   OH227497   4.363   5.861   5.008
 9178TIP3    H127498   4.333   5.875   4.918
 9178TIP3    H227499   4.459   5.861   5.001
 9179TIP3   OH227500   6.432   5.462   1.650
 9179TIP3    H127501   6.430   5.557   1.660
 9179TIP3    H227502   6.487   5.447   1.573
 9180TIP3   OH227503   4.312   0.796   4.551
 9180TIP3    H127504   4.313   0.757   4.639
 9180TIP3    H227505   4.402   0.786   4.520
 9181TIP3   OH227506   7.237   3.854   0.598
 9181TIP3    H127507   7.207   3.908   0.525
 9181TIP3    H227508   7.180   3.878   0.671
 9182TIP3   OH227509   6.888   6.152   1.894
 9182TIP3    H127510   6.923   6.178   1.979
 9182TIP3    H227511   6.799   6.122   1.913
 9183TIP3   OH227512   6.148   0.849   0.765
 9183TIP3    H127513   6.152   0.757   0.790
 9183TIP3    H227514   6.057   0.863   0.738
 9184TIP3   OH227515   3.087   5.364   1.443
 9184TIP3    H127516   3.119   5.339   1.357
 9184TIP3    H227517   3.028   5.438   1.427
 9185TIP3   OH227518   6.693   0.399   0.112
 9185TIP3    H127519   6.729   0.485   0.089
 9185TIP3    H227520   6.697   0.349   0.031
 9186TIP3   OH227521   3.331   3.291   1.782
 9186TIP3    H127522   3.273   3.260   1.712
 9186TIP3    H227523   3.275   3.297   1.859
 9187TIP3   OH227524   4.819   4.871   1.833
 9187TIP3    H127525   4.801   4.782   1.862
 9187TIP3    H227526   4.825   4.864   1.738
 9188TIP3   OH227527   1.076   2.437   1.450
 9188TIP3    H127528   1.121   2.452   1.367
 9188TIP3    H227529   0.999   2.385   1.427
 9189TIP3   OH227530   0.966   3.339   3.089
 9189TIP3    H127531   0.932   3.398   3.156
 9189TIP3    H227532   1.021   3.395   3.034
 9190TIP3   OH227533   6.509   2.009   0.477
 9190TIP3    H127534   6.588   1.964   0.448
 9190TIP3    H227535   6.520   2.019   0.571
 9191TIP3   OH227536   3.744   2.994   4.491
 9191TIP3    H127537   3.654   3.022   4.471
 9191TIP3    H227538   3.734   2.906   4.528
 9192TIP3   OH227539   4.199   4.626   1.752
 9192TIP3    H127540   4.125   4.613   1.811
 9192TIP3    H227541   4.164   4.612   1.664
 9193TIP3   OH227542   2.801   6.486   3.888
 9193TIP3    H127543   2.854   6.415   3.850
 9193TIP3    H227544   2.734   6.440   3.939
 9194TIP3   OH227545   4.397   2.776   4.093
 9194TIP3    H127546   4.393   2.682   4.106
 9194TIP3    H227547   4.446   2.787   4.011
 9195TIP3   OH227548   0.409   1.585   1.520
 9195TIP3    H127549   0.392   1.512   1.580
 9195TIP3    H227550   0.398   1.663   1.575
 9196TIP3   OH227551   4.943   4.853   2.413
 9196TIP3    H127552   4.854   4.882   2.435
 9196TIP3    H227553   4.934   4.760   2.394
 9197TIP3   OH227554   4.659   0.454   2.818
 9197TIP3    H127555   4.722   0.511   2.774
 9197TIP3    H227556   4.624   0.507   2.889
 9198TIP3   OH227557   0.338   5.688   3.092
 9198TIP3    H127558   0.326   5.602   3.132
 9198TIP3    H227559   0.267   5.695   3.028
 9199TIP3   OH227560   4.054   6.487   2.721
 9199TIP3    H127561   3.991   6.516   2.787
 9199TIP3    H227562   4.006   6.492   2.638
 9200TIP3   OH227563   6.352   2.967   1.596
 9200TIP3    H127564   6.363   2.887   1.646
 9200TIP3    H227565   6.433   3.017   1.612
 9201TIP3   OH227566   6.535   3.560   3.047
 9201TIP3    H127567   6.514   3.491   2.984
 9201TIP3    H227568   6.579   3.514   3.118
 9202TIP3   OH227569   0.696   1.515   0.084
 9202TIP3    H127570   0.788   1.491   0.094
 9202TIP3    H227571   0.649   1.432   0.089
 9203TIP3   OH227572   6.143   3.282   1.060
 9203TIP3    H127573   6.234   3.299   1.087
 9203TIP3    H227574   6.147   3.277   0.964
 9204TIP3   OH227575   2.246   6.193   5.881
 9204TIP3    H127576   2.265   6.287   5.884
 9204TIP3    H227577   2.312   6.157   5.822
 9205TIP3   OH227578   6.285   6.110   3.344
 9205TIP3    H127579   6.221   6.105   3.414
 9205TIP3    H227580   6.348   6.175   3.374
 9206TIP3   OH227581   7.124   2.165   5.904
 9206TIP3    H127582   7.139   2.200   5.817
 9206TIP3    H227583   7.044   2.208   5.934
 9207TIP3   OH227584   0.329   2.934   5.414
 9207TIP3    H127585   0.397   2.868   5.402
 9207TIP3    H227586   0.283   2.907   5.493
 9208TIP3   OH227587   1.013   6.634   5.901
 9208TIP3    H127588   1.103   6.636   5.934
 9208TIP3    H227589   0.988   6.726   5.895
 9209TIP3   OH227590   0.172   2.386   3.736
 9209TIP3    H127591   0.215   2.381   3.821
 9209TIP3    H227592   0.140   2.297   3.719
 9210TIP3   OH227593   4.728   5.081   5.120
 9210TIP3    H127594   4.699   5.070   5.030
 9210TIP3    H227595   4.670   5.025   5.171
 9211TIP3   OH227596   5.351   2.838   1.049
 9211TIP3    H127597   5.437   2.880   1.046
 9211TIP3    H227598   5.295   2.895   0.995
 9212TIP3   OH227599   4.566   5.983   5.332
 9212TIP3    H127600   4.478   6.003   5.302
 9212TIP3    H227601   4.621   6.051   5.291
 9213TIP3   OH227602   3.338   2.649   0.569
 9213TIP3    H127603   3.367   2.735   0.599
 9213TIP3    H227604   3.295   2.666   0.485
 9214TIP3   OH227605   2.254   1.019   2.029
 9214TIP3    H127606   2.273   0.967   1.950
 9214TIP3    H227607   2.280   0.962   2.101
 9215TIP3   OH227608   3.955   0.154   0.484
 9215TIP3    H127609   3.965   0.247   0.502
 9215TIP3    H227610   3.917   0.150   0.397
 9216TIP3   OH227611   0.353   4.673   0.805
 9216TIP3    H127612   0.304   4.598   0.838
 9216TIP3    H227613   0.323   4.747   0.858
 9217TIP3   OH227614   3.419   5.454   2.430
 9217TIP3    H127615   3.377   5.372   2.406
 9217TIP3    H227616   3.510   5.430   2.451
 9218TIP3   OH227617   2.087   5.680   0.829
 9218TIP3    H127618   2.148   5.606   0.834
 9218TIP3    H227619   2.041   5.667   0.746
 9219TIP3   OH227620   1.966   2.509   3.126
 9219TIP3    H127621   2.049   2.556   3.122
 9219TIP3    H227622   1.988   2.418   3.107
 9220TIP3   OH227623   3.635   1.763   5.286
 9220TIP3    H127624   3.583   1.801   5.357
 9220TIP3    H227625   3.638   1.833   5.220
 9221TIP3   OH227626   4.456   3.747   4.771
 9221TIP3    H127627   4.470   3.778   4.860
 9221TIP3    H227628   4.470   3.652   4.776
 9222TIP3   OH227629   4.754   2.371   1.427
 9222TIP3    H127630   4.786   2.457   1.454
 9222TIP3    H227631   4.749   2.376   1.331
 9223TIP3   OH227632   4.560   2.914   1.418
 9223TIP3    H127633   4.568   2.927   1.512
 9223TIP3    H227634   4.487   2.970   1.392
 9224TIP3   OH227635   4.103   5.550   4.356
 9224TIP3    H127636   4.166   5.598   4.410
 9224TIP3    H227637   4.107   5.460   4.390
 9225TIP3   OH227638   1.307   3.779   0.049
 9225TIP3    H127639   1.364   3.850   0.020
 9225TIP3    H227640   1.334   3.703  -0.003
 9226TIP3   OH227641   7.136   1.084   3.956
 9226TIP3    H127642   7.045   1.059   3.936
 9226TIP3    H227643   7.135   1.104   4.050
 9227TIP3   OH227644   5.092   0.870   0.668
 9227TIP3    H127645   5.175   0.835   0.699
 9227TIP3    H227646   5.097   0.964   0.686
 9228TIP3   OH227647   6.702   1.576   0.376
 9228TIP3    H127648   6.681   1.654   0.324
 9228TIP3    H227649   6.716   1.609   0.465
 9229TIP3   OH227650   5.521   6.422   3.961
 9229TIP3    H127651   5.454   6.440   4.028
 9229TIP3    H227652   5.603   6.446   4.002
 9230TIP3   OH227653   3.003   2.118   4.194
 9230TIP3    H127654   2.977   2.181   4.261
 9230TIP3    H227655   3.000   2.033   4.238
 9231TIP3   OH227656   6.106   3.492   2.471
 9231TIP3    H127657   6.027   3.455   2.510
 9231TIP3    H227658   6.126   3.433   2.398
 9232TIP3   OH227659   2.310   6.297   3.051
 9232TIP3    H127660   2.354   6.288   3.136
 9232TIP3    H227661   2.315   6.391   3.032
 9233TIP3   OH227662   1.201   3.258   3.839
 9233TIP3    H127663   1.227   3.190   3.777
 9233TIP3    H227664   1.274   3.320   3.839
 9234TIP3   OH227665   5.249   5.219   3.993
 9234TIP3    H127666   5.178   5.254   4.047
 9234TIP3    H227667   5.295   5.296   3.961
 9235TIP3   OH227668   0.141   4.205   2.192
 9235TIP3    H127669   0.207   4.265   2.158
 9235TIP3    H227670   0.123   4.145   2.120
 9236TIP3   OH227671   2.878   1.150   1.727
 9236TIP3    H127672   2.827   1.224   1.760
 9236TIP3    H227673   2.812   1.084   1.706
 9237TIP3   OH227674   0.240   5.734   5.021
 9237TIP3    H127675   0.253   5.658   5.078
 9237TIP3    H227676   0.159   5.714   4.973
 9238TIP3   OH227677   0.015   0.900   2.826
 9238TIP3    H127678  -0.013   0.985   2.860
 9238TIP3    H227679   0.044   0.852   2.903
 9239TIP3   OH227680   6.002   3.425   5.101
 9239TIP3    H127681   6.097   3.439   5.101
 9239TIP3    H227682   5.966   3.512   5.122
 9240TIP3   OH227683   6.069   6.545   2.564
 9240TIP3    H127684   5.983   6.565   2.527
 9240TIP3    H227685   6.049   6.506   2.649
 9241TIP3   OH227686   3.315   1.110   1.581
 9241TIP3    H127687   3.241   1.049   1.571
 9241TIP3    H227688   3.277   1.196   1.565
 9242TIP3   OH227689   5.923   3.923   2.242
 9242TIP3    H127690   5.904   3.980   2.316
 9242TIP3    H227691   5.926   3.835   2.279
 9243TIP3   OH227692   4.433   3.949   0.579
 9243TIP3    H127693   4.519   3.990   0.573
 9243TIP3    H227694   4.410   3.955   0.672
 9244TIP3   OH227695   5.954   5.647   1.332
 9244TIP3    H127696   5.923   5.684   1.249
 9244TIP3    H227697   5.930   5.554   1.326
 9245TIP3   OH227698   2.452   3.432   5.886
 9245TIP3    H127699   2.452   3.351   5.836
 9245TIP3    H227700   2.530   3.479   5.857
 9246TIP3   OH227701   2.493   4.163   3.136
 9246TIP3    H127702   2.469   4.203   3.220
 9246TIP3    H227703   2.412   4.124   3.104
 9247TIP3   OH227704   0.756   2.354   5.226
 9247TIP3    H127705   0.847   2.381   5.235
 9247TIP3    H227706   0.757   2.259   5.232
 9248TIP3   OH227707   5.773   5.106   2.418
 9248TIP3    H127708   5.813   5.039   2.474
 9248TIP3    H227709   5.844   5.134   2.360
 9249TIP3   OH227710   5.040   2.914   5.357
 9249TIP3    H127711   5.094   2.896   5.280
 9249TIP3    H227712   5.052   3.008   5.372
 9250TIP3   OH227713   5.084   4.729   0.260
 9250TIP3    H127714   5.014   4.743   0.324
 9250TIP3    H227715   5.123   4.645   0.284
 9251TIP3   OH227716   3.644   3.247   4.282
 9251TIP3    H127717   3.592   3.187   4.335
 9251TIP3    H227718   3.581   3.309   4.247
 9252TIP3   OH227719   1.066   2.699   0.799
 9252TIP3    H127720   1.036   2.609   0.812
 9252TIP3    H227721   1.009   2.733   0.730
 9253TIP3   OH227722   0.629   3.245   2.686
 9253TIP3    H127723   0.617   3.155   2.716
 9253TIP3    H227724   0.604   3.299   2.760
 9254TIP3   OH227725   4.586   3.723   3.298
 9254TIP3    H127726   4.499   3.745   3.266
 9254TIP3    H227727   4.605   3.637   3.260
 9255TIP3   OH227728   5.778   2.368   4.930
 9255TIP3    H127729   5.764   2.292   4.872
 9255TIP3    H227730   5.696   2.376   4.978
 9256TIP3   OH227731   4.236   5.003   0.896
 9256TIP3    H127732   4.211   5.091   0.924
 9256TIP3    H227733   4.152   4.960   0.876
 9257TIP3   OH227734   1.999   2.535   0.803
 9257TIP3    H127735   2.078   2.587   0.816
 9257TIP3    H227736   2.028   2.444   0.809
 9258TIP3   OH227737   4.775   0.825   1.220
 9258TIP3    H127738   4.837   0.894   1.198
 9258TIP3    H227739   4.783   0.814   1.315
 9259TIP3   OH227740   4.371   4.324   0.623
 9259TIP3    H127741   4.460   4.288   0.631
 9259TIP3    H227742   4.365   4.350   0.531
 9260TIP3   OH227743   0.453   6.039   4.351
 9260TIP3    H127744   0.422   5.952   4.375
 9260TIP3    H227745   0.397   6.065   4.278
 9261TIP3   OH227746   1.155   4.300   5.705
 9261TIP3    H127747   1.180   4.344   5.624
 9261TIP3    H227748   1.091   4.359   5.745
 9262TIP3   OH227749   3.798   6.041   1.542
 9262TIP3    H127750   3.890   6.028   1.567
 9262TIP3    H227751   3.800   6.117   1.483
 9263TIP3   OH227752   1.600   4.988   0.811
 9263TIP3    H127753   1.570   4.931   0.882
 9263TIP3    H227754   1.536   4.976   0.742
 9264TIP3   OH227755   0.133   6.343   4.896
 9264TIP3    H127756   0.190   6.419   4.894
 9264TIP3    H227757   0.127   6.318   4.988
 9265TIP3   OH227758   2.797   6.466   3.538
 9265TIP3    H127759   2.770   6.551   3.504
 9265TIP3    H227760   2.884   6.481   3.575
 9266TIP3   OH227761   5.083   2.774   2.937
 9266TIP3    H127762   5.106   2.756   3.028
 9266TIP3    H227763   5.012   2.838   2.942
 9267TIP3   OH227764   6.665   0.981   5.622
 9267TIP3    H127765   6.678   1.076   5.613
 9267TIP3    H227766   6.593   0.972   5.684
 9268TIP3   OH227767   4.819   4.362   5.757
 9268TIP3    H127768   4.736   4.367   5.804
 9268TIP3    H227769   4.863   4.444   5.779
 9269TIP3   OH227770   5.721   3.879   4.898
 9269TIP3    H127771   5.719   3.871   4.803
 9269TIP3    H227772   5.728   3.973   4.915
 9270TIP3   OH227773   7.159   3.130   3.208
 9270TIP3    H127774   7.142   3.164   3.120
 9270TIP3    H227775   7.086   3.162   3.261
 9271TIP3   OH227776   2.613   4.445   3.485
 9271TIP3    H127777   2.575   4.506   3.422
 9271TIP3    H227778   2.541   4.425   3.546
 9272TIP3   OH227779   5.931   0.198   3.347
 9272TIP3    H127780   5.917   0.280   3.301
 9272TIP3    H227781   5.960   0.136   3.280
 9273TIP3   OH227782   3.458   2.197   4.985
 9273TIP3    H127783   3.492   2.187   4.896
 9273TIP3    H227784   3.365   2.213   4.974
 9274TIP3   OH227785   1.623   5.452   5.760
 9274TIP3    H127786   1.595   5.422   5.674
 9274TIP3    H227787   1.669   5.378   5.798
 9275TIP3   OH227788   1.882   6.338   0.852
 9275TIP3    H127789   1.973   6.365   0.836
 9275TIP3    H227790   1.886   6.292   0.936
 9276TIP3   OH227791   6.809   1.284   4.319
 9276TIP3    H127792   6.713   1.278   4.325
 9276TIP3    H227793   6.840   1.208   4.367
 9277TIP3   OH227794   5.481   0.335   4.614
 9277TIP3    H127795   5.512   0.392   4.544
 9277TIP3    H227796   5.455   0.254   4.569
 9278TIP3   OH227797   3.183   1.402   4.494
 9278TIP3    H127798   3.238   1.477   4.472
 9278TIP3    H227799   3.097   1.439   4.512
 9279TIP3   OH227800   5.163   1.494   2.151
 9279TIP3    H127801   5.205   1.450   2.077
 9279TIP3    H227802   5.108   1.561   2.111
 9280TIP3   OH227803   4.069   5.159   5.874
 9280TIP3    H127804   4.164   5.160   5.887
 9280TIP3    H227805   4.043   5.251   5.877
 9281TIP3   OH227806   2.618   6.139   4.444
 9281TIP3    H127807   2.591   6.226   4.415
 9281TIP3    H227808   2.661   6.154   4.528
 9282TIP3   OH227809   0.356   0.875   4.937
 9282TIP3    H127810   0.420   0.941   4.911
 9282TIP3    H227811   0.410   0.801   4.967
 9283TIP3   OH227812   5.360   6.710   1.104
 9283TIP3    H127813   5.405   6.739   1.183
 9283TIP3    H227814   5.428   6.668   1.051
 9284TIP3   OH227815   5.356   4.029   3.747
 9284TIP3    H127816   5.351   4.037   3.842
 9284TIP3    H227817   5.386   4.115   3.718
 9285TIP3   OH227818   1.186   1.298   2.871
 9285TIP3    H127819   1.259   1.357   2.853
 9285TIP3    H227820   1.227   1.214   2.888
 9286TIP3   OH227821   6.085   0.400   4.947
 9286TIP3    H127822   6.065   0.307   4.944
 9286TIP3    H227823   6.113   0.415   5.038
 9287TIP3   OH227824   6.609   5.464   2.698
 9287TIP3    H127825   6.704   5.470   2.690
 9287TIP3    H227826   6.580   5.555   2.701
 9288TIP3   OH227827   5.866   4.886   2.547
 9288TIP3    H127828   5.932   4.822   2.519
 9288TIP3    H227829   5.881   4.895   2.641
 9289TIP3   OH227830   6.081   1.392   2.659
 9289TIP3    H127831   6.037   1.437   2.731
 9289TIP3    H227832   6.028   1.412   2.582
 9290TIP3   OH227833   0.330   5.874   3.972
 9290TIP3    H127834   0.308   5.868   3.879
 9290TIP3    H227835   0.245   5.886   4.016
 9291TIP3   OH227836   3.202   1.887   2.952
 9291TIP3    H127837   3.120   1.891   3.001
 9291TIP3    H227838   3.240   1.803   2.975
 9292TIP3   OH227839   2.995   2.037   4.537
 9292TIP3    H127840   3.024   1.985   4.461
 9292TIP3    H227841   2.909   2.001   4.559
 9293TIP3   OH227842   2.780   1.467   5.083
 9293TIP3    H127843   2.701   1.500   5.125
 9293TIP3    H227844   2.850   1.524   5.115
 9294TIP3   OH227845   3.276   1.903   4.812
 9294TIP3    H127846   3.274   1.974   4.748
 9294TIP3    H227847   3.272   1.823   4.759
 9295TIP3   OH227848   5.296   4.535   3.006
 9295TIP3    H127849   5.333   4.475   2.942
 9295TIP3    H227850   5.201   4.531   2.991
 9296TIP3   OH227851   0.815   1.805   1.719
 9296TIP3    H127852   0.730   1.834   1.750
 9296TIP3    H227853   0.876   1.872   1.748
 9297TIP3   OH227854   2.971   2.627   4.096
 9297TIP3    H127855   2.884   2.589   4.106
 9297TIP3    H227856   2.978   2.688   4.169
 9298TIP3   OH227857   2.010   2.765   5.645
 9298TIP3    H127858   2.104   2.742   5.643
 9298TIP3    H227859   1.998   2.826   5.573
 9299TIP3   OH227860   7.030   6.728   3.329
 9299TIP3    H127861   7.000   6.781   3.403
 9299TIP3    H227862   7.125   6.736   3.330
 9300TIP3   OH227863   7.152   1.990   2.368
 9300TIP3    H127864   7.074   1.988   2.312
 9300TIP3    H227865   7.186   1.900   2.365
 9301TIP3   OH227866   1.705   0.117   1.930
 9301TIP3    H127867   1.713   0.109   1.835
 9301TIP3    H227868   1.686   0.028   1.960
 9302TIP3   OH227869   0.457   2.242   4.758
 9302TIP3    H127870   0.484   2.252   4.667
 9302TIP3    H227871   0.539   2.245   4.808
 9303TIP3   OH227872   6.250   4.340   4.543
 9303TIP3    H127873   6.243   4.340   4.448
 9303TIP3    H227874   6.170   4.382   4.574
 9304TIP3   OH227875   0.378   3.634   2.362
 9304TIP3    H127876   0.357   3.728   2.364
 9304TIP3    H227877   0.320   3.596   2.427
 9305TIP3   OH227878   2.003   1.811   4.551
 9305TIP3    H127879   2.005   1.762   4.634
 9305TIP3    H227880   2.056   1.758   4.492
 9306TIP3   OH227881   6.147   4.607   4.206
 9306TIP3    H127882   6.216   4.672   4.192
 9306TIP3    H227883   6.154   4.548   4.131
 9307TIP3   OH227884   2.388   4.254   5.385
 9307TIP3    H127885   2.377   4.348   5.368
 9307TIP3    H227886   2.460   4.250   5.448
 9308TIP3   OH227887   5.880   3.683   5.237
 9308TIP3    H127888   5.952   3.683   5.300
 9308TIP3    H227889   5.915   3.726   5.159
 9309TIP3   OH227890   5.717   1.920   0.793
 9309TIP3    H127891   5.775   1.898   0.866
 9309TIP3    H227892   5.678   1.835   0.768
 9310TIP3   OH227893   4.379   2.729   5.828
 9310TIP3    H127894   4.435   2.659   5.794
 9310TIP3    H227895   4.344   2.773   5.750
 9311TIP3   OH227896   5.702   3.316   5.139
 9311TIP3    H127897   5.797   3.318   5.139
 9311TIP3    H227898   5.679   3.225   5.159
 9312TIP3   OH227899   5.437   1.023   4.816
 9312TIP3    H127900   5.482   0.938   4.807
 9312TIP3    H227901   5.358   1.003   4.867
 9313TIP3   OH227902   3.465   4.567   2.316
 9313TIP3    H127903   3.445   4.475   2.302
 9313TIP3    H227904   3.504   4.571   2.403
 9314TIP3   OH227905   1.066   4.876   0.421
 9314TIP3    H127906   1.110   4.812   0.365
 9314TIP3    H227907   1.022   4.822   0.488
 9315TIP3   OH227908   4.969   6.820   3.936
 9315TIP3    H127909   5.008   6.869   3.864
 9315TIP3    H227910   5.016   6.737   3.938
 9316TIP3   OH227911   5.626   3.553   0.988
 9316TIP3    H127912   5.700   3.613   0.984
 9316TIP3    H227913   5.635   3.500   0.908
 9317TIP3   OH227914   3.696   1.348   0.590
 9317TIP3    H127915   3.630   1.386   0.648
 9317TIP3    H227916   3.704   1.411   0.518
 9318TIP3   OH227917   4.669   3.286   3.668
 9318TIP3    H127918   4.594   3.284   3.728
 9318TIP3    H227919   4.635   3.327   3.589
 9319TIP3   OH227920   1.364   4.941   5.208
 9319TIP3    H127921   1.279   4.951   5.251
 9319TIP3    H227922   1.419   5.009   5.247
 9320TIP3   OH227923   3.887   6.232   2.776
 9320TIP3    H127924   3.792   6.227   2.767
 9320TIP3    H227925   3.909   6.322   2.753
 9321TIP3   OH227926   1.620   2.927   4.156
 9321TIP3    H127927   1.695   2.988   4.158
 9321TIP3    H227928   1.545   2.981   4.179
 9322TIP3   OH227929   5.343   3.913   4.601
 9322TIP3    H127930   5.355   3.985   4.663
 9322TIP3    H227931   5.432   3.896   4.567
 9323TIP3   OH227932   3.647   4.761   1.086
 9323TIP3    H127933   3.742   4.760   1.095
 9323TIP3    H227934   3.631   4.747   0.993
 9324TIP3   OH227935   5.299   0.570   2.461
 9324TIP3    H127936   5.299   0.653   2.509
 9324TIP3    H227937   5.209   0.558   2.432
 9325TIP3   OH227938   3.655   4.348   5.436
 9325TIP3    H127939   3.643   4.314   5.524
 9325TIP3    H227940   3.624   4.439   5.441
 9326TIP3   OH227941   3.986   3.789   0.712
 9326TIP3    H127942   4.029   3.753   0.790
 9326TIP3    H227943   3.923   3.722   0.686
 9327TIP3   OH227944   1.748   2.116   4.916
 9327TIP3    H127945   1.724   2.188   4.973
 9327TIP3    H227946   1.820   2.072   4.962
 9328TIP3   OH227947   7.088   2.753   5.528
 9328TIP3    H127948   7.058   2.843   5.515
 9328TIP3    H227949   7.140   2.733   5.450
 9329TIP3   OH227950   3.203  -0.007   1.536
 9329TIP3    H127951   3.141  -0.058   1.588
 9329TIP3    H227952   3.214   0.074   1.586
 9330TIP3   OH227953   3.968   0.725   0.884
 9330TIP3    H127954   3.929   0.642   0.911
 9330TIP3    H227955   3.946   0.733   0.791
 9331TIP3   OH227956   5.899   1.861   1.013
 9331TIP3    H127957   5.938   1.780   1.045
 9331TIP3    H227958   5.829   1.881   1.075
 9332TIP3   OH227959   2.288   5.508   3.997
 9332TIP3    H127960   2.290   5.602   4.015
 9332TIP3    H227961   2.323   5.467   4.076
 9333TIP3   OH227962   3.698   4.310   1.506
 9333TIP3    H127963   3.623   4.366   1.487
 9333TIP3    H227964   3.674   4.225   1.468
 9334TIP3   OH227965   6.619   6.722   2.671
 9334TIP3    H127966   6.558   6.681   2.610
 9334TIP3    H227967   6.581   6.705   2.757
 9335TIP3   OH227968   3.481   0.900   5.527
 9335TIP3    H127969   3.530   0.979   5.550
 9335TIP3    H227970   3.415   0.892   5.596
 9336TIP3   OH227971   1.276   5.066   1.043
 9336TIP3    H127972   1.253   5.157   1.029
 9336TIP3    H227973   1.211   5.034   1.107
 9337TIP3   OH227974   0.390   3.282   4.248
 9337TIP3    H127975   0.314   3.271   4.306
 9337TIP3    H227976   0.447   3.208   4.269
 9338TIP3   OH227977   1.389   6.462   2.130
 9338TIP3    H127978   1.425   6.422   2.051
 9338TIP3    H227979   1.444   6.428   2.201
 9339TIP3   OH227980   6.769   5.103   3.459
 9339TIP3    H127981   6.694   5.068   3.411
 9339TIP3    H227982   6.732   5.173   3.513
 9340TIP3   OH227983   7.099   6.038   1.745
 9340TIP3    H127984   7.040   6.028   1.820
 9340TIP3    H227985   7.085   6.128   1.716
 9341TIP3   OH227986   2.608   1.678   3.162
 9341TIP3    H127987   2.590   1.763   3.122
 9341TIP3    H227988   2.525   1.631   3.156
 9342TIP3   OH227989   0.358   1.807   1.710
 9342TIP3    H127990   0.393   1.737   1.766
 9342TIP3    H227991   0.303   1.859   1.768
 9343TIP3   OH227992   2.328   0.088   2.746
 9343TIP3    H127993   2.274   0.160   2.779
 9343TIP3    H227994   2.415   0.127   2.734
 9344TIP3   OH227995   1.979   3.238   0.556
 9344TIP3    H127996   2.063   3.199   0.579
 9344TIP3    H227997   1.991   3.268   0.466
 9345TIP3   OH227998   4.223   0.964   1.570
 9345TIP3    H127999   4.304   1.009   1.597
 9345TIP3    H228000   4.252   0.900   1.505
 9346TIP3   OH228001   2.196   3.171   2.960
 9346TIP3    H128002   2.146   3.094   2.931
 9346TIP3    H228003   2.286   3.139   2.968
 9347TIP3   OH228004   7.183   4.132   5.800
 9347TIP3    H128005   7.233   4.146   5.720
 9347TIP3    H228006   7.171   4.220   5.837
 9348TIP3   OH228007   1.401   6.598   5.444
 9348TIP3    H128008   1.353   6.679   5.429
 9348TIP3    H228009   1.450   6.584   5.363
 9349TIP3   OH228010   6.964   1.002   4.835
 9349TIP3    H128011   7.007   1.051   4.765
 9349TIP3    H228012   6.916   0.932   4.790
 9350TIP3   OH228013   2.052   0.827   1.327
 9350TIP3    H128014   2.078   0.829   1.235
 9350TIP3    H228015   1.969   0.780   1.327
 9351TIP3   OH228016   2.710   6.392   1.645
 9351TIP3    H128017   2.684   6.352   1.562
 9351TIP3    H228018   2.675   6.333   1.712
 9352TIP3   OH228019   4.720   5.432   1.944
 9352TIP3    H128020   4.752   5.395   2.026
 9352TIP3    H228021   4.649   5.491   1.970
 9353TIP3   OH228022   5.407   0.007   1.865
 9353TIP3    H128023   5.448  -0.002   1.951
 9353TIP3    H228024   5.313   0.002   1.882
 9354TIP3   OH228025   7.153   1.819   0.404
 9354TIP3    H128026   7.146   1.882   0.475
 9354TIP3    H228027   7.113   1.739   0.439
 9355TIP3   OH228028   6.554   4.613   0.875
 9355TIP3    H128029   6.495   4.538   0.864
 9355TIP3    H228030   6.625   4.579   0.929
 9356TIP3   OH228031   4.765   0.163   4.759
 9356TIP3    H128032   4.752   0.235   4.697
 9356TIP3    H228033   4.726   0.194   4.841
 9357TIP3   OH228034   4.428   1.719   5.640
 9357TIP3    H128035   4.456   1.659   5.709
 9357TIP3    H228036   4.373   1.666   5.583
 9358TIP3   OH228037   1.732   4.740   0.530
 9358TIP3    H128038   1.793   4.683   0.576
 9358TIP3    H228039   1.654   4.686   0.515
 9359TIP3   OH228040   4.672   1.717   3.795
 9359TIP3    H128041   4.754   1.672   3.814
 9359TIP3    H228042   4.610   1.646   3.773
 9360TIP3   OH228043   2.936   5.718   3.283
 9360TIP3    H128044   2.882   5.786   3.323
 9360TIP3    H228045   2.948   5.653   3.352
 9361TIP3   OH228046   4.598   5.884   3.634
 9361TIP3    H128047   4.564   5.893   3.545
 9361TIP3    H228048   4.682   5.841   3.623
 9362TIP3   OH228049   6.032   2.766   1.060
 9362TIP3    H128050   6.112   2.713   1.070
 9362TIP3    H228051   6.053   2.850   1.100
 9363TIP3   OH228052   3.095   3.638   3.044
 9363TIP3    H128053   3.165   3.684   2.999
 9363TIP3    H228054   3.031   3.705   3.066
 9364TIP3   OH228055   4.833   6.076   4.448
 9364TIP3    H128056   4.774   6.144   4.415
 9364TIP3    H228057   4.777   6.020   4.502
 9365TIP3   OH228058   5.789   6.754   1.446
 9365TIP3    H128059   5.776   6.660   1.453
 9365TIP3    H228060   5.846   6.766   1.370
 9366TIP3   OH228061   0.821   5.914   0.634
 9366TIP3    H128062   0.805   5.854   0.561
 9366TIP3    H228063   0.804   6.001   0.596
 9367TIP3   OH228064   3.828   2.547   2.575
 9367TIP3    H128065   3.886   2.594   2.635
 9367TIP3    H228066   3.873   2.464   2.557
 9368TIP3   OH228067   2.497   0.541   0.510
 9368TIP3    H128068   2.459   0.619   0.470
 9368TIP3    H228069   2.590   0.544   0.486
 9369TIP3   OH228070   5.320   4.431   2.701
 9369TIP3    H128071   5.398   4.416   2.754
 9369TIP3    H228072   5.330   4.371   2.627
 9370TIP3   OH228073   6.560   2.929   0.261
 9370TIP3    H128074   6.573   2.999   0.198
 9370TIP3    H228075   6.610   2.855   0.227
 9371TIP3   OH228076   2.700   1.756   4.803
 9371TIP3    H128077   2.645   1.678   4.813
 9371TIP3    H228078   2.659   1.821   4.860
 9372TIP3   OH228079   5.862   4.831   0.842
 9372TIP3    H128080   5.786   4.790   0.884
 9372TIP3    H228081   5.825   4.889   0.776
 9373TIP3   OH228082   2.640   4.294   5.492
 9373TIP3    H128083   2.712   4.301   5.430
 9373TIP3    H228084   2.659   4.361   5.558
 9374TIP3   OH228085   1.376   0.389   2.404
 9374TIP3    H128086   1.431   0.312   2.421
 9374TIP3    H228087   1.423   0.438   2.337
 9375TIP3   OH228088   0.430   4.109   3.673
 9375TIP3    H128089   0.396   4.186   3.628
 9375TIP3    H228090   0.352   4.062   3.703
 9376TIP3   OH228091   1.381   4.986   2.134
 9376TIP3    H128092   1.380   4.918   2.201
 9376TIP3    H228093   1.370   4.938   2.052
 9377TIP3   OH228094   5.233   5.829   1.756
 9377TIP3    H128095   5.245   5.832   1.661
 9377TIP3    H228096   5.294   5.762   1.785
 9378TIP3   OH228097   1.672   1.541   2.282
 9378TIP3    H128098   1.594   1.568   2.234
 9378TIP3    H228099   1.665   1.445   2.286
 9379TIP3   OH228100   6.879   5.945   4.303
 9379TIP3    H128101   6.870   5.867   4.357
 9379TIP3    H228102   6.952   5.993   4.342
 9380TIP3   OH228103   4.392   2.122   5.546
 9380TIP3    H128104   4.407   2.210   5.581
 9380TIP3    H228105   4.479   2.081   5.545
 9381TIP3   OH228106   3.199   2.673   2.946
 9381TIP3    H128107   3.200   2.708   3.035
 9381TIP3    H228108   3.225   2.746   2.891
 9382TIP3   OH228109   2.324   1.103   5.202
 9382TIP3    H128110   2.366   1.041   5.142
 9382TIP3    H228111   2.352   1.189   5.170
 9383TIP3   OH228112   6.843   1.879   3.213
 9383TIP3    H128113   6.929   1.842   3.191
 9383TIP3    H228114   6.782   1.805   3.201
 9384TIP3   OH228115   2.184   5.144   2.963
 9384TIP3    H128116   2.104   5.183   2.998
 9384TIP3    H228117   2.163   5.052   2.949
 9385TIP3   OH228118   3.456   4.134   4.469
 9385TIP3    H128119   3.529   4.183   4.430
 9385TIP3    H228120   3.378   4.183   4.444
 9386TIP3   OH228121   2.817   2.167   2.190
 9386TIP3    H128122   2.895   2.195   2.143
 9386TIP3    H228123   2.792   2.084   2.149
 9387TIP3   OH228124   2.134   6.487   4.114
 9387TIP3    H128125   2.089   6.566   4.142
 9387TIP3    H228126   2.170   6.449   4.195
 9388TIP3   OH228127   2.273   1.593   1.935
 9388TIP3    H128128   2.217   1.636   1.870
 9388TIP3    H228129   2.238   1.505   1.943
 9389TIP3   OH228130   3.256   3.796   5.029
 9389TIP3    H128131   3.341   3.788   5.070
 9389TIP3    H228132   3.215   3.710   5.040
 9390TIP3   OH228133   4.552   1.700   1.103
 9390TIP3    H128134   4.497   1.762   1.056
 9390TIP3    H228135   4.614   1.755   1.151
 9391TIP3   OH228136   2.875   4.195   4.625
 9391TIP3    H128137   2.967   4.184   4.647
 9391TIP3    H228138   2.840   4.106   4.621
 9392TIP3   OH228139   5.815   2.901   4.566
 9392TIP3    H128140   5.844   2.953   4.491
 9392TIP3    H228141   5.874   2.926   4.636
 9393TIP3   OH228142   1.167   5.381   1.108
 9393TIP3    H128143   1.227   5.383   1.033
 9393TIP3    H228144   1.091   5.332   1.077
 9394TIP3   OH228145   1.727   2.477   0.813
 9394TIP3    H128146   1.678   2.532   0.874
 9394TIP3    H228147   1.818   2.506   0.822
 9395TIP3   OH228148   2.818   1.233   3.364
 9395TIP3    H128149   2.910   1.260   3.375
 9395TIP3    H228150   2.771   1.316   3.353
 9396TIP3   OH228151   1.694   1.172   4.694
 9396TIP3    H128152   1.753   1.106   4.729
 9396TIP3    H228153   1.659   1.216   4.771
 9397TIP3   OH228154   1.057   3.948   0.102
 9397TIP3    H128155   1.151   3.960   0.095
 9397TIP3    H228156   1.040   3.862   0.064
 9398TIP3   OH228157   2.046   3.668   2.418
 9398TIP3    H128158   2.056   3.631   2.330
 9398TIP3    H228159   2.024   3.760   2.403
 9399TIP3   OH228160   7.126   4.794   3.055
 9399TIP3    H128161   7.204   4.802   3.000
 9399TIP3    H228162   7.056   4.829   3.002
 9400TIP3   OH228163   6.424   5.574   4.982
 9400TIP3    H128164   6.436   5.578   4.887
 9400TIP3    H228165   6.329   5.566   4.994
 9401TIP3   OH228166   3.323   5.220   2.343
 9401TIP3    H128167   3.333   5.196   2.251
 9401TIP3    H228168   3.296   5.138   2.386
 9402TIP3   OH228169   3.845   0.895   1.881
 9402TIP3    H128170   3.794   0.968   1.915
 9402TIP3    H228171   3.857   0.916   1.788
 9403TIP3   OH228172   1.769   3.840   5.516
 9403TIP3    H128173   1.790   3.795   5.434
 9403TIP3    H228174   1.677   3.820   5.532
 9404TIP3   OH228175   4.496   6.263   1.989
 9404TIP3    H128176   4.574   6.314   2.011
 9404TIP3    H228177   4.423   6.315   2.021
 9405TIP3   OH228178   2.428   3.570   2.668
 9405TIP3    H128179   2.423   3.505   2.737
 9405TIP3    H228180   2.408   3.522   2.588
 9406TIP3   OH228181   5.905   4.103   2.454
 9406TIP3    H128182   5.889   4.196   2.469
 9406TIP3    H228183   5.899   4.064   2.541
 9407TIP3   OH228184   1.476   6.649   5.723
 9407TIP3    H128185   1.453   6.638   5.630
 9407TIP3    H228186   1.440   6.734   5.746
 9408TIP3   OH228187   1.022   4.260   4.662
 9408TIP3    H128188   0.942   4.220   4.629
 9408TIP3    H228189   1.061   4.303   4.586
 9409TIP3   OH228190   1.351   5.514   0.482
 9409TIP3    H128191   1.402   5.546   0.556
 9409TIP3    H228192   1.359   5.582   0.415
 9410TIP3   OH228193   2.400   5.870   3.510
 9410TIP3    H128194   2.489   5.862   3.475
 9410TIP3    H228195   2.404   5.825   3.594
 9411TIP3   OH228196   0.268   4.924   2.292
 9411TIP3    H128197   0.322   5.000   2.314
 9411TIP3    H228198   0.288   4.860   2.361
 9412TIP3   OH228199   1.919   3.378   5.228
 9412TIP3    H128200   1.890   3.412   5.143
 9412TIP3    H228201   1.865   3.425   5.292
 9413TIP3   OH228202   1.505   1.713   3.904
 9413TIP3    H128203   1.600   1.718   3.891
 9413TIP3    H228204   1.487   1.781   3.969
 9414TIP3   OH228205   4.572   1.074   5.760
 9414TIP3    H128206   4.647   1.079   5.820
 9414TIP3    H228207   4.586   1.146   5.698
 9415TIP3   OH228208   5.546   2.531   1.813
 9415TIP3    H128209   5.466   2.556   1.859
 9415TIP3    H228210   5.517   2.474   1.742
 9416TIP3   OH228211   0.174   1.247   2.220
 9416TIP3    H128212   0.080   1.267   2.214
 9416TIP3    H228213   0.180   1.181   2.289
 9417TIP3   OH228214   2.878   0.082   3.092
 9417TIP3    H128215   2.813   0.150   3.110
 9417TIP3    H228216   2.961   0.130   3.082
 9418TIP3   OH228217   4.734   5.298   0.636
 9418TIP3    H128218   4.743   5.206   0.660
 9418TIP3    H228219   4.696   5.296   0.548
 9419TIP3   OH228220   0.271   1.935   0.647
 9419TIP3    H128221   0.214   1.921   0.723
 9419TIP3    H228222   0.282   1.848   0.609
 9420TIP3   OH228223   4.136   6.488   1.089
 9420TIP3    H128224   4.050   6.449   1.076
 9420TIP3    H228225   4.143   6.499   1.184
 9421TIP3   OH228226   6.201   0.310   5.279
 9421TIP3    H128227   6.113   0.279   5.299
 9421TIP3    H228228   6.197   0.404   5.294
 9422TIP3   OH228229   2.047   1.655   2.341
 9422TIP3    H128230   2.049   1.561   2.324
 9422TIP3    H228231   2.081   1.664   2.430
 9423TIP3   OH228232   2.865   3.988   5.321
 9423TIP3    H128233   2.946   3.940   5.340
 9423TIP3    H228234   2.878   4.022   5.232
 9424TIP3   OH228235   7.100   1.838   3.135
 9424TIP3    H128236   7.119   1.860   3.044
 9424TIP3    H228237   7.127   1.747   3.144
 9425TIP3   OH228238   7.107   4.291   5.178
 9425TIP3    H128239   7.031   4.238   5.201
 9425TIP3    H228240   7.128   4.266   5.088
 9426TIP3   OH228241   3.905   2.750   0.069
 9426TIP3    H128242   3.895   2.655   0.079
 9426TIP3    H228243   3.914   2.783   0.159
 9427TIP3   OH228244   4.531   4.284   2.609
 9427TIP3    H128245   4.527   4.319   2.698
 9427TIP3    H228246   4.467   4.213   2.608
 9428TIP3   OH228247   1.122   0.980   2.742
 9428TIP3    H128248   1.140   1.027   2.823
 9428TIP3    H228249   1.100   1.049   2.679
 9429TIP3   OH228250   1.646   5.965   2.558
 9429TIP3    H128251   1.728   5.917   2.547
 9429TIP3    H228252   1.592   5.938   2.483
 9430TIP3   OH228253   3.396   5.670   4.078
 9430TIP3    H128254   3.373   5.707   4.162
 9430TIP3    H228255   3.353   5.727   4.014
 9431TIP3   OH228256  -0.015   5.845   4.260
 9431TIP3    H128257  -0.039   5.900   4.335
 9431TIP3    H228258   0.012   5.762   4.300
 9432TIP3   OH228259   3.101   2.598   1.478
 9432TIP3    H128260   3.173   2.574   1.536
 9432TIP3    H228261   3.037   2.527   1.486
 9433TIP3   OH228262   6.316   4.142   2.866
 9433TIP3    H128263   6.286   4.131   2.776
 9433TIP3    H228264   6.396   4.194   2.859
 9434TIP3   OH228265   5.263   5.281   4.399
 9434TIP3    H128266   5.235   5.201   4.443
 9434TIP3    H228267   5.182   5.325   4.375
 9435TIP3   OH228268   1.142   0.488   2.835
 9435TIP3    H128269   1.089   0.557   2.794
 9435TIP3    H228270   1.219   0.534   2.869
 9436TIP3   OH228271   2.256   0.173   0.150
 9436TIP3    H128272   2.262   0.086   0.189
 9436TIP3    H228273   2.163   0.189   0.140
 9437TIP3   OH228274   4.718   5.896   1.711
 9437TIP3    H128275   4.718   5.860   1.800
 9437TIP3    H228276   4.811   5.912   1.693
 9438TIP3   OH228277   6.308   2.460   3.844
 9438TIP3    H128278   6.276   2.497   3.761
 9438TIP3    H228279   6.233   2.416   3.882
 9439TIP3   OH228280   5.484   0.459   2.945
 9439TIP3    H128281   5.566   0.492   2.907
 9439TIP3    H228282   5.468   0.515   3.021
 9440TIP3   OH228283   2.040   2.714   5.007
 9440TIP3    H128284   2.073   2.739   5.093
 9440TIP3    H228285   2.117   2.715   4.950
 9441TIP3   OH228286   1.282   5.422   3.293
 9441TIP3    H128287   1.327   5.411   3.377
 9441TIP3    H228288   1.190   5.402   3.312
 9442TIP3   OH228289   0.327   2.577   5.235
 9442TIP3    H128290   0.307   2.545   5.147
 9442TIP3    H228291   0.395   2.518   5.268
 9443TIP3   OH228292   2.947   6.236   0.205
 9443TIP3    H128293   2.894   6.223   0.126
 9443TIP3    H228294   3.024   6.284   0.174
 9444TIP3   OH228295   6.186   0.320   0.896
 9444TIP3    H128296   6.112   0.261   0.887
 9444TIP3    H228297   6.227   0.322   0.810
 9445TIP3   OH228298   4.483   4.984   4.121
 9445TIP3    H128299   4.563   4.932   4.114
 9445TIP3    H228300   4.419   4.936   4.067
 9446TIP3   OH228301   5.697   2.315   3.471
 9446TIP3    H128302   5.763   2.358   3.526
 9446TIP3    H228303   5.736   2.315   3.384
 9447TIP3   OH228304   0.607   6.717   0.689
 9447TIP3    H128305   0.553   6.792   0.713
 9447TIP3    H228306   0.643   6.686   0.772
 9448TIP3   OH228307   2.230   4.837   5.185
 9448TIP3    H128308   2.201   4.764   5.130
 9448TIP3    H228309   2.313   4.864   5.146
 9449TIP3   OH228310   6.947   5.269   0.691
 9449TIP3    H128311   6.959   5.360   0.718
 9449TIP3    H228312   7.034   5.231   0.695
 9450TIP3   OH228313   0.869   0.079   4.469
 9450TIP3    H128314   0.940   0.018   4.489
 9450TIP3    H228315   0.803   0.061   4.536
 9451TIP3   OH228316   6.723   3.628   1.910
 9451TIP3    H128317   6.713   3.707   1.857
 9451TIP3    H228318   6.653   3.634   1.976
 9452TIP3   OH228319   4.368   3.026   4.215
 9452TIP3    H128320   4.409   3.089   4.156
 9452TIP3    H228321   4.377   2.941   4.171
 9453TIP3   OH228322   6.705   1.873   1.782
 9453TIP3    H128323   6.707   1.805   1.714
 9453TIP3    H228324   6.613   1.891   1.796
 9454TIP3   OH228325   5.201   2.058   0.932
 9454TIP3    H128326   5.112   2.063   0.898
 9454TIP3    H228327   5.239   2.144   0.914
 9455TIP3   OH228328   3.584   4.305   0.884
 9455TIP3    H128329   3.658   4.357   0.851
 9455TIP3    H228330   3.512   4.367   0.890
 9456TIP3   OH228331   2.036   0.443   2.782
 9456TIP3    H128332   1.989   0.405   2.856
 9456TIP3    H228333   2.124   0.407   2.788
 9457TIP3   OH228334   0.433   3.103   1.978
 9457TIP3    H128335   0.420   3.185   1.929
 9457TIP3    H228336   0.395   3.035   1.922
 9458TIP3   OH228337   3.281   2.263   4.081
 9458TIP3    H128338   3.365   2.235   4.117
 9458TIP3    H228339   3.230   2.291   4.157
 9459TIP3   OH228340   3.895   5.100   4.736
 9459TIP3    H128341   3.824   5.051   4.694
 9459TIP3    H228342   3.964   5.035   4.748
 9460TIP3   OH228343   3.006   3.529   5.423
 9460TIP3    H128344   3.029   3.571   5.339
 9460TIP3    H228345   2.923   3.486   5.406
 9461TIP3   OH228346   5.103   4.192   2.129
 9461TIP3    H128347   5.010   4.192   2.108
 9461TIP3    H228348   5.114   4.267   2.187
 9462TIP3   OH228349   5.055   4.698   1.959
 9462TIP3    H128350   4.986   4.632   1.961
 9462TIP3    H228351   5.014   4.774   1.917
 9463TIP3   OH228352   2.182   1.706   4.108
 9463TIP3    H128353   2.121   1.647   4.064
 9463TIP3    H228354   2.250   1.724   4.042
 9464TIP3   OH228355   6.324   5.244   3.716
 9464TIP3    H128356   6.355   5.314   3.774
 9464TIP3    H228357   6.336   5.279   3.627
 9465TIP3   OH228358   0.693   1.230   2.173
 9465TIP3    H128359   0.772   1.176   2.168
 9465TIP3    H228360   0.688   1.272   2.087
 9466TIP3   OH228361   4.488   0.059   4.551
 9466TIP3    H128362   4.440  -0.022   4.571
 9466TIP3    H228363   4.531   0.083   4.633
 9467TIP3   OH228364   6.320   6.480   2.961
 9467TIP3    H128365   6.341   6.466   2.869
 9467TIP3    H228366   6.314   6.575   2.970
 9468TIP3   OH228367   2.542   4.403   4.058
 9468TIP3    H128368   2.468   4.378   4.112
 9468TIP3    H228369   2.548   4.498   4.068
 9469TIP3   OH228370   6.002   6.113   0.964
 9469TIP3    H128371   6.006   6.208   0.975
 9469TIP3    H228372   5.922   6.087   1.009
 9470TIP3   OH228373   5.841   5.938   4.274
 9470TIP3    H128374   5.915   5.976   4.227
 9470TIP3    H228375   5.801   6.012   4.321
 9471TIP3   OH228376   4.796   6.473   2.261
 9471TIP3    H128377   4.789   6.499   2.353
 9471TIP3    H228378   4.858   6.537   2.224
 9472TIP3   OH228379   3.955   1.960   2.077
 9472TIP3    H128380   4.036   1.995   2.040
 9472TIP3    H228381   3.975   1.945   2.169
 9473TIP3   OH228382   2.004   3.423   3.619
 9473TIP3    H128383   1.912   3.399   3.629
 9473TIP3    H228384   2.034   3.374   3.542
 9474TIP3   OH228385   3.294   3.711   0.768
 9474TIP3    H128386   3.368   3.761   0.802
 9474TIP3    H228387   3.218   3.768   0.781
 9475TIP3   OH228388   0.086   4.087   4.822
 9475TIP3    H128389   0.028   4.150   4.864
 9475TIP3    H228390   0.154   4.070   4.887
 9476TIP3   OH228391   2.324   6.451   1.246
 9476TIP3    H128392   2.338   6.521   1.183
 9476TIP3    H228393   2.395   6.460   1.309
 9477TIP3   OH228394   4.150   1.172   0.060
 9477TIP3    H128395   4.152   1.196  -0.032
 9477TIP3    H228396   4.222   1.110   0.071
 9478TIP3   OH228397   1.745   6.008   0.149
 9478TIP3    H128398   1.825   5.957   0.158
 9478TIP3    H228399   1.773   6.095   0.121
 9479TIP3   OH228400   4.407   1.134   2.971
 9479TIP3    H128401   4.474   1.147   2.903
 9479TIP3    H228402   4.438   1.187   3.045
 9480TIP3   OH228403   2.106   5.244   3.913
 9480TIP3    H128404   2.194   5.265   3.945
 9480TIP3    H228405   2.089   5.156   3.944
 9481TIP3   OH228406   1.989   0.457   4.184
 9481TIP3    H128407   2.016   0.462   4.276
 9481TIP3    H228408   1.900   0.493   4.183
 9482TIP3   OH228409   6.637   6.082   5.035
 9482TIP3    H128410   6.560   6.100   5.090
 9482TIP3    H228411   6.663   5.993   5.057
 9483TIP3   OH228412   3.307   6.663   5.494
 9483TIP3    H128413   3.376   6.680   5.558
 9483TIP3    H228414   3.229   6.649   5.547
 9484TIP3   OH228415   0.150   4.128   0.786
 9484TIP3    H128416   0.059   4.102   0.776
 9484TIP3    H228417   0.183   4.071   0.856
 9485TIP3   OH228418   2.084   2.085   4.526
 9485TIP3    H128419   2.021   2.138   4.575
 9485TIP3    H228420   2.062   1.995   4.549
 9486TIP3   OH228421   6.527   4.117   4.831
 9486TIP3    H128422   6.482   4.139   4.749
 9486TIP3    H228423   6.564   4.200   4.861
 9487TIP3   OH228424   6.732   1.639   3.198
 9487TIP3    H128425   6.781   1.603   3.124
 9487TIP3    H228426   6.758   1.585   3.272
 9488TIP3   OH228427   2.259   5.797   0.526
 9488TIP3    H128428   2.306   5.714   0.526
 9488TIP3    H228429   2.172   5.776   0.558
 9489TIP3   OH228430   3.027   2.102   0.269
 9489TIP3    H128431   2.989   2.073   0.186
 9489TIP3    H228432   3.104   2.153   0.243
 9490TIP3   OH228433   2.212   6.716   5.872
 9490TIP3    H128434   2.279   6.749   5.812
 9490TIP3    H228435   2.157   6.792   5.892
 9491TIP3   OH228436   3.771   1.528   5.404
 9491TIP3    H128437   3.702   1.582   5.366
 9491TIP3    H228438   3.821   1.496   5.329
 9492TIP3   OH228439   2.530   1.323   5.172
 9492TIP3    H128440   2.596   1.259   5.143
 9492TIP3    H228441   2.551   1.339   5.264
 9493TIP3   OH228442   5.081   6.651   0.438
 9493TIP3    H128443   5.098   6.557   0.435
 9493TIP3    H228444   4.986   6.659   0.432
 9494TIP3   OH228445   2.431   2.343   4.349
 9494TIP3    H128446   2.368   2.335   4.421
 9494TIP3    H228447   2.449   2.437   4.344
 9495TIP3   OH228448   6.123   3.018   1.160
 9495TIP3    H128449   6.132   3.108   1.130
 9495TIP3    H228450   6.042   3.018   1.211
 9496TIP3   OH228451   4.984   0.760   0.891
 9496TIP3    H128452   4.931   0.838   0.880
 9496TIP3    H228453   5.025   0.746   0.806
 9497TIP3   OH228454   1.718   2.552   2.085
 9497TIP3    H128455   1.683   2.626   2.036
 9497TIP3    H228456   1.711   2.579   2.177
 9498TIP3   OH228457   5.253   1.476   0.487
 9498TIP3    H128458   5.304   1.398   0.508
 9498TIP3    H228459   5.173   1.468   0.537
 9499TIP3   OH228460   0.725   4.420   3.530
 9499TIP3    H128461   0.737   4.330   3.560
 9499TIP3    H228462   0.685   4.411   3.444
 9500TIP3   OH228463   0.898   5.517   4.993
 9500TIP3    H128464   0.916   5.573   5.069
 9500TIP3    H228465   0.813   5.548   4.961
 9501TIP3   OH228466   6.315   2.222   3.505
 9501TIP3    H128467   6.328   2.191   3.415
 9501TIP3    H228468   6.335   2.146   3.560
 9502TIP3   OH228469   3.206   1.058   3.167
 9502TIP3    H128470   3.269   1.011   3.112
 9502TIP3    H228471   3.121   1.040   3.126
 9503TIP3   OH228472   3.018   2.804   1.700
 9503TIP3    H128473   3.102   2.846   1.682
 9503TIP3    H228474   3.001   2.749   1.624
 9504TIP3   OH228475   2.752   4.713   1.789
 9504TIP3    H128476   2.847   4.725   1.798
 9504TIP3    H228477   2.715   4.749   1.870
 9505TIP3   OH228478   0.696   6.772   2.041
 9505TIP3    H128479   0.702   6.676   2.035
 9505TIP3    H228480   0.672   6.789   2.132
 9506TIP3   OH228481   5.279   6.622   4.407
 9506TIP3    H128482   5.243   6.620   4.496
 9506TIP3    H228483   5.316   6.710   4.398
 9507TIP3   OH228484   4.857   4.790   5.684
 9507TIP3    H128485   4.840   4.863   5.744
 9507TIP3    H228486   4.919   4.734   5.731
 9508TIP3   OH228487   1.908   0.165   2.811
 9508TIP3    H128488   1.867   0.247   2.839
 9508TIP3    H228489   1.940   0.125   2.892
 9509TIP3   OH228490   1.347   2.632   1.368
 9509TIP3    H128491   1.289   2.599   1.300
 9509TIP3    H228492   1.425   2.576   1.363
 9510TIP3   OH228493   1.404   1.007   2.621
 9510TIP3    H128494   1.340   0.993   2.691
 9510TIP3    H228495   1.471   0.940   2.636
 9511TIP3   OH228496   3.810   2.646   1.209
 9511TIP3    H128497   3.845   2.603   1.287
 9511TIP3    H228498   3.767   2.575   1.160
 9512TIP3   OH228499   2.212   4.314   1.610
 9512TIP3    H128500   2.204   4.220   1.592
 9512TIP3    H228501   2.301   4.336   1.583
 9513TIP3   OH228502   6.454   4.308   3.091
 9513TIP3    H128503   6.484   4.273   3.007
 9513TIP3    H228504   6.376   4.359   3.070
 9514TIP3   OH228505   0.340   0.259   0.923
 9514TIP3    H128506   0.420   0.252   0.871
 9514TIP3    H228507   0.334   0.176   0.969
 9515TIP3   OH228508   1.864   1.736   0.792
 9515TIP3    H128509   1.894   1.724   0.702
 9515TIP3    H228510   1.869   1.831   0.807
 9516TIP3   OH228511   4.233   1.975   1.068
 9516TIP3    H128512   4.184   1.941   1.143
 9516TIP3    H228513   4.169   2.029   1.021
 9517TIP3   OH228514   4.378   4.730   0.290
 9517TIP3    H128515   4.355   4.779   0.211
 9517TIP3    H228516   4.398   4.797   0.355
 9518TIP3   OH228517   0.517   0.268   3.099
 9518TIP3    H128518   0.454   0.287   3.030
 9518TIP3    H228519   0.597   0.313   3.071
 9519TIP3   OH228520   4.043   1.940   0.302
 9519TIP3    H128521   4.114   1.963   0.363
 9519TIP3    H228522   4.067   1.854   0.269
 9520TIP3   OH228523   2.903   3.897   5.672
 9520TIP3    H128524   2.864   3.895   5.760
 9520TIP3    H228525   2.839   3.944   5.618
 9521TIP3   OH228526   5.371   5.232   0.741
 9521TIP3    H128527   5.415   5.180   0.807
 9521TIP3    H228528   5.382   5.182   0.660
 9522TIP3   OH228529   0.244   0.617   3.816
 9522TIP3    H128530   0.280   0.528   3.819
 9522TIP3    H228531   0.186   0.617   3.740
 9523TIP3   OH228532   2.468   1.218   1.871
 9523TIP3    H128533   2.374   1.210   1.860
 9523TIP3    H228534   2.481   1.224   1.965
 9524TIP3   OH228535   2.830   6.509   1.942
 9524TIP3    H128536   2.759   6.496   1.879
 9524TIP3    H228537   2.802   6.462   2.020
 9525TIP3   OH228538   1.200   2.255   0.835
 9525TIP3    H128539   1.129   2.290   0.781
 9525TIP3    H228540   1.164   2.174   0.872
 9526TIP3   OH228541   3.369   0.168   4.396
 9526TIP3    H128542   3.380   0.260   4.420
 9526TIP3    H228543   3.274   0.155   4.398
 9527TIP3   OH228544   0.480   0.047   0.377
 9527TIP3    H128545   0.391   0.016   0.393
 9527TIP3    H228546   0.487   0.129   0.426
 9528TIP3   OH228547   3.963   3.548   1.253
 9528TIP3    H128548   3.986   3.596   1.173
 9528TIP3    H228549   4.028   3.478   1.258
 9529TIP3   OH228550   2.780   4.694   5.729
 9529TIP3    H128551   2.789   4.728   5.640
 9529TIP3    H228552   2.704   4.636   5.725
 9530TIP3   OH228553   3.373   6.073   4.721
 9530TIP3    H128554   3.414   6.144   4.672
 9530TIP3    H228555   3.435   6.000   4.713
 9531TIP3   OH228556   2.730   5.053   2.886
 9531TIP3    H128557   2.727   5.071   2.980
 9531TIP3    H228558   2.651   5.095   2.851
 9532TIP3   OH228559   5.234   4.181   2.565
 9532TIP3    H128560   5.231   4.135   2.481
 9532TIP3    H228561   5.158   4.148   2.614
 9533TIP3   OH228562   4.830   5.365   3.751
 9533TIP3    H128563   4.866   5.284   3.717
 9533TIP3    H228564   4.814   5.419   3.673
 9534TIP3   OH228565   1.088   6.721   3.066
 9534TIP3    H128566   1.126   6.715   2.979
 9534TIP3    H228567   1.074   6.814   3.080
 9535TIP3   OH228568   5.716   6.403   0.301
 9535TIP3    H128569   5.625   6.376   0.309
 9535TIP3    H228570   5.714   6.476   0.239
 9536TIP3   OH228571   3.876   0.794   5.157
 9536TIP3    H128572   3.958   0.748   5.172
 9536TIP3    H228573   3.862   0.846   5.236
 9537TIP3   OH228574   6.473   3.048   5.575
 9537TIP3    H128575   6.394   3.013   5.617
 9537TIP3    H228576   6.455   3.039   5.481
 9538TIP3   OH228577   2.622   2.024   2.641
 9538TIP3    H128578   2.659   2.111   2.629
 9538TIP3    H228579   2.600   1.995   2.552
 9539TIP3   OH228580   4.651   4.551   1.169
 9539TIP3    H128581   4.567   4.524   1.205
 9539TIP3    H228582   4.716   4.515   1.230
 9540TIP3   OH228583   0.271   4.485   3.217
 9540TIP3    H128584   0.180   4.512   3.233
 9540TIP3    H228585   0.324   4.552   3.260
 9541TIP3   OH228586   2.272   2.522   2.523
 9541TIP3    H128587   2.269   2.477   2.608
 9541TIP3    H228588   2.246   2.612   2.543
 9542TIP3   OH228589   5.422   5.258   3.642
 9542TIP3    H128590   5.489   5.292   3.703
 9542TIP3    H228591   5.438   5.164   3.639
 9543TIP3   OH228592   2.688   4.088   4.063
 9543TIP3    H128593   2.733   4.009   4.095
 9543TIP3    H228594   2.612   4.054   4.016
 9544TIP3   OH228595   2.210   4.784   5.480
 9544TIP3    H128596   2.122   4.786   5.517
 9544TIP3    H228597   2.198   4.805   5.387
 9545TIP3   OH228598   3.793   4.527   3.346
 9545TIP3    H128599   3.707   4.503   3.313
 9545TIP3    H228600   3.776   4.576   3.427
 9546TIP3   OH228601   6.343   0.445   4.840
 9546TIP3    H128602   6.253   0.429   4.868
 9546TIP3    H228603   6.343   0.423   4.746
 9547TIP3   OH228604   6.927   6.329   1.151
 9547TIP3    H128605   6.969   6.408   1.118
 9547TIP3    H228606   6.995   6.284   1.200
 9548TIP3   OH228607   1.599   4.720   4.281
 9548TIP3    H128608   1.530   4.741   4.218
 9548TIP3    H228609   1.565   4.644   4.329
 9549TIP3   OH228610   6.988   3.739   1.954
 9549TIP3    H128611   6.907   3.691   1.939
 9549TIP3    H228612   7.048   3.709   1.886
 9550TIP3   OH228613   4.111   1.808   4.231
 9550TIP3    H128614   4.121   1.795   4.136
 9550TIP3    H228615   4.164   1.886   4.250
 9551TIP3   OH228616   3.236   1.639   4.707
 9551TIP3    H128617   3.280   1.554   4.704
 9551TIP3    H228618   3.166   1.628   4.772
 9552TIP3   OH228619   4.352   0.723   4.845
 9552TIP3    H128620   4.301   0.768   4.913
 9552TIP3    H228621   4.410   0.665   4.894
 9553TIP3   OH228622   1.841   6.748   5.084
 9553TIP3    H128623   1.785   6.802   5.028
 9553TIP3    H228624   1.806   6.759   5.172
 9554TIP3   OH228625   5.470   2.192   2.093
 9554TIP3    H128626   5.557   2.164   2.121
 9554TIP3    H228627   5.449   2.266   2.150
 9555TIP3   OH228628   5.941   1.436   0.299
 9555TIP3    H128629   5.880   1.471   0.233
 9555TIP3    H228630   5.910   1.472   0.382
 9556TIP3   OH228631   1.798   5.981   5.277
 9556TIP3    H128632   1.728   5.987   5.213
 9556TIP3    H228633   1.819   5.887   5.281
 9557TIP3   OH228634   1.261   4.173   1.791
 9557TIP3    H128635   1.269   4.256   1.743
 9557TIP3    H228636   1.213   4.196   1.871
 9558TIP3   OH228637   3.664   3.413   2.099
 9558TIP3    H128638   3.614   3.349   2.149
 9558TIP3    H228639   3.597   3.468   2.058
 9559TIP3   OH228640   3.355   5.723   2.484
 9559TIP3    H128641   3.359   5.756   2.394
 9559TIP3    H228642   3.386   5.632   2.477
 9560TIP3   OH228643   1.545   6.641   3.237
 9560TIP3    H128644   1.509   6.555   3.258
 9560TIP3    H228645   1.574   6.676   3.322
 9561TIP3   OH228646   0.249   3.679   3.887
 9561TIP3    H128647   0.228   3.622   3.960
 9561TIP3    H228648   0.171   3.679   3.832
 9562TIP3   OH228649   4.717   6.345   5.484
 9562TIP3    H128650   4.778   6.280   5.447
 9562TIP3    H228651   4.748   6.358   5.573
 9563TIP3   OH228652   5.743   4.746   4.456
 9563TIP3    H128653   5.778   4.682   4.393
 9563TIP3    H228654   5.773   4.831   4.423
 9564TIP3   OH228655   1.409   6.206   0.120
 9564TIP3    H128656   1.482   6.201   0.058
 9564TIP3    H228657   1.420   6.129   0.176
 9565TIP3   OH228658   3.198   0.685   3.434
 9565TIP3    H128659   3.223   0.775   3.411
 9565TIP3    H228660   3.159   0.650   3.353
 9566TIP3   OH228661   1.894   4.539   5.577
 9566TIP3    H128662   1.957   4.602   5.614
 9566TIP3    H228663   1.886   4.470   5.642
 9567TIP3   OH228664   2.997   3.264   0.485
 9567TIP3    H128665   3.077   3.266   0.537
 9567TIP3    H228666   2.936   3.209   0.535
 9568TIP3   OH228667   6.974   1.039   5.272
 9568TIP3    H128668   6.888   1.077   5.254
 9568TIP3    H228669   6.969   1.013   5.364
 9569TIP3   OH228670   1.292   2.560   2.517
 9569TIP3    H128671   1.324   2.570   2.427
 9569TIP3    H228672   1.206   2.519   2.507
 9570TIP3   OH228673   1.305   3.658   4.386
 9570TIP3    H128674   1.340   3.576   4.352
 9570TIP3    H228675   1.327   3.658   4.479
 9571TIP3   OH228676   5.632   4.641   2.647
 9571TIP3    H128677   5.603   4.637   2.738
 9571TIP3    H228678   5.714   4.592   2.646
 9572TIP3   OH228679   2.498   4.839   3.830
 9572TIP3    H128680   2.443   4.912   3.801
 9572TIP3    H228681   2.501   4.780   3.754
 9573TIP3   OH228682   3.559   4.569   0.589
 9573TIP3    H128683   3.632   4.626   0.613
 9573TIP3    H228684   3.599   4.498   0.539
 9574TIP3   OH228685   3.097   6.517   2.037
 9574TIP3    H128686   3.100   6.608   2.066
 9574TIP3    H228687   3.016   6.510   1.987
 9575TIP3   OH228688   7.038   0.822   5.925
 9575TIP3    H128689   7.081   0.901   5.892
 9575TIP3    H228690   7.106   0.755   5.922
 9576TIP3   OH228691   3.575   5.706   2.001
 9576TIP3    H128692   3.579   5.626   1.949
 9576TIP3    H228693   3.583   5.777   1.937
 9577TIP3   OH228694   3.539   6.056   2.825
 9577TIP3    H128695   3.564   5.981   2.770
 9577TIP3    H228696   3.455   6.031   2.863
 9578TIP3   OH228697   4.435   6.583   2.504
 9578TIP3    H128698   4.522   6.603   2.470
 9578TIP3    H228699   4.381   6.658   2.477
 9579TIP3   OH228700   2.933   0.873   0.036
 9579TIP3    H128701   2.893   0.855  -0.050
 9579TIP3    H228702   2.969   0.788   0.063
 9580TIP3   OH228703   3.049   0.258   5.268
 9580TIP3    H128704   3.069   0.300   5.184
 9580TIP3    H228705   3.006   0.176   5.244
 9581TIP3   OH228706   3.925   1.447   2.884
 9581TIP3    H128707   4.016   1.469   2.868
 9581TIP3    H228708   3.878   1.479   2.807
 9582TIP3   OH228709   5.907   1.073   0.497
 9582TIP3    H128710   5.901   1.042   0.407
 9582TIP3    H228711   6.001   1.068   0.517
 9583TIP3   OH228712   0.593   0.583   3.578
 9583TIP3    H128713   0.675   0.620   3.544
 9583TIP3    H228714   0.582   0.626   3.663
 9584TIP3   OH228715   2.533   1.837   4.434
 9584TIP3    H128716   2.538   1.773   4.506
 9584TIP3    H228717   2.441   1.860   4.428
 9585TIP3   OH228718   4.206   5.574   3.374
 9585TIP3    H128719   4.141   5.642   3.362
 9585TIP3    H228720   4.202   5.522   3.294
 9586TIP3   OH228721   6.409   3.075   0.955
 9586TIP3    H128722   6.406   3.113   1.043
 9586TIP3    H228723   6.493   3.028   0.953
 9587TIP3   OH228724   7.015   4.749   0.258
 9587TIP3    H128725   7.059   4.783   0.180
 9587TIP3    H228726   6.938   4.805   0.267
 9588TIP3   OH228727   7.170   2.367   0.150
 9588TIP3    H128728   7.132   2.315   0.221
 9588TIP3    H228729   7.097   2.415   0.113
 9589TIP3   OH228730   5.087   1.606   1.258
 9589TIP3    H128731   5.097   1.700   1.244
 9589TIP3    H228732   5.116   1.591   1.348
 9590TIP3   OH228733   4.870   2.472   4.267
 9590TIP3    H128734   4.794   2.450   4.321
 9590TIP3    H228735   4.928   2.397   4.275
 9591TIP3   OH228736   4.422   4.078   2.320
 9591TIP3    H128737   4.424   4.055   2.413
 9591TIP3    H228738   4.335   4.052   2.291
 9592TIP3   OH228739   7.143   4.932   5.176
 9592TIP3    H128740   7.227   4.915   5.133
 9592TIP3    H228741   7.135   4.863   5.241
 9593TIP3   OH228742   2.434   4.077   3.594
 9593TIP3    H128743   2.465   4.121   3.673
 9593TIP3    H228744   2.465   3.987   3.604
 9594TIP3   OH228745   5.648   3.765   3.410
 9594TIP3    H128746   5.670   3.817   3.333
 9594TIP3    H228747   5.565   3.801   3.440
 9595TIP3   OH228748   4.254   6.756   0.366
 9595TIP3    H128749   4.235   6.833   0.314
 9595TIP3    H228750   4.316   6.786   0.432
 9596TIP3   OH228751   1.622   6.112   0.897
 9596TIP3    H128752   1.664   6.049   0.955
 9596TIP3    H228753   1.626   6.072   0.810
 9597TIP3   OH228754   6.864   5.897   5.784
 9597TIP3    H128755   6.844   5.979   5.740
 9597TIP3    H228756   6.922   5.921   5.856
 9598TIP3   OH228757   6.686   1.128   3.581
 9598TIP3    H128758   6.610   1.069   3.584
 9598TIP3    H228759   6.738   1.103   3.657
 9599TIP3   OH228760   1.975   5.372   0.419
 9599TIP3    H128761   2.034   5.332   0.354
 9599TIP3    H228762   1.888   5.361   0.383
 9600TIP3   OH228763   6.568   3.310   3.380
 9600TIP3    H128764   6.601   3.263   3.456
 9600TIP3    H228765   6.487   3.351   3.411
 9601TIP3   OH228766   4.758   1.790   3.137
 9601TIP3    H128767   4.749   1.697   3.159
 9601TIP3    H228768   4.694   1.803   3.066
 9602TIP3   OH228769   2.962   0.600   5.785
 9602TIP3    H128770   2.929   0.514   5.759
 9602TIP3    H228771   2.962   0.598   5.881
 9603TIP3   OH228772   3.700   1.123   1.954
 9603TIP3    H128773   3.623   1.066   1.944
 9603TIP3    H228774   3.664   1.205   1.988
 9604TIP3   OH228775   2.860   6.152   2.159
 9604TIP3    H128776   2.877   6.107   2.242
 9604TIP3    H228777   2.860   6.082   2.094
 9605TIP3   OH228778   4.360   1.632   2.964
 9605TIP3    H128779   4.401   1.617   3.050
 9605TIP3    H228780   4.413   1.700   2.924
 9606TIP3   OH228781   7.162   2.662   2.585
 9606TIP3    H128782   7.153   2.739   2.642
 9606TIP3    H228783   7.202   2.697   2.505
 9607TIP3   OH228784   6.725   0.459   1.324
 9607TIP3    H128785   6.714   0.536   1.268
 9607TIP3    H228786   6.807   0.476   1.371
 9608TIP3   OH228787   0.522   4.773   5.745
 9608TIP3    H128788   0.436   4.744   5.716
 9608TIP3    H228789   0.516   4.775   5.841
 9609TIP3   OH228790   1.976   4.074   5.872
 9609TIP3    H128791   1.915   4.137   5.911
 9609TIP3    H228792   1.948   4.065   5.781
 9610TIP3   OH228793   2.112   2.767   3.461
 9610TIP3    H128794   2.121   2.672   3.469
 9610TIP3    H228795   2.104   2.798   3.552
 9611TIP3   OH228796   0.714   3.595   5.025
 9611TIP3    H128797   0.796   3.561   4.990
 9611TIP3    H228798   0.653   3.592   4.951
 9612TIP3   OH228799   6.868   1.485   5.465
 9612TIP3    H128800   6.920   1.487   5.385
 9612TIP3    H228801   6.799   1.421   5.447
 9613TIP3   OH228802   1.456   2.369   3.335
 9613TIP3    H128803   1.427   2.296   3.280
 9613TIP3    H228804   1.379   2.393   3.386
 9614TIP3   OH228805   3.729   0.821   4.215
 9614TIP3    H128806   3.784   0.755   4.172
 9614TIP3    H228807   3.686   0.773   4.286
 9615TIP3   OH228808   0.049   5.548   3.249
 9615TIP3    H128809  -0.031   5.565   3.200
 9615TIP3    H228810   0.066   5.629   3.297
 9616TIP3   OH228811   5.734   5.584   2.203
 9616TIP3    H128812   5.748   5.648   2.133
 9616TIP3    H228813   5.640   5.589   2.222
 9617TIP3   OH228814   0.159   0.265   4.721
 9617TIP3    H128815   0.159   0.234   4.630
 9617TIP3    H228816   0.083   0.323   4.726
 9618TIP3   OH228817   0.016   6.012   5.735
 9618TIP3    H128818   0.102   5.988   5.769
 9618TIP3    H228819  -0.046   5.979   5.801
 9619TIP3   OH228820   2.999   3.178   1.213
 9619TIP3    H128821   3.058   3.221   1.275
 9619TIP3    H228822   3.052   3.109   1.173
 9620TIP3   OH228823   0.000   3.878   5.071
 9620TIP3    H128824   0.055   3.920   5.137
 9620TIP3    H228825  -0.060   3.947   5.042
 9621TIP3   OH228826   5.799   6.466   4.715
 9621TIP3    H128827   5.789   6.374   4.740
 9621TIP3    H228828   5.820   6.511   4.797
 9622TIP3   OH228829   5.129   6.042   5.242
 9622TIP3    H128830   5.113   5.975   5.176
 9622TIP3    H228831   5.174   6.112   5.195
 9623TIP3   OH228832   6.631   2.506   4.794
 9623TIP3    H128833   6.679   2.499   4.712
 9623TIP3    H228834   6.690   2.556   4.852
 9624TIP3   OH228835   3.157   2.637   5.171
 9624TIP3    H128836   3.078   2.593   5.201
 9624TIP3    H228837   3.229   2.587   5.210
 9625TIP3   OH228838   5.543   0.797   2.963
 9625TIP3    H128839   5.529   0.869   2.901
 9625TIP3    H228840   5.545   0.840   3.048
 9626TIP3   OH228841   6.275   3.293   5.733
 9626TIP3    H128842   6.287   3.294   5.638
 9626TIP3    H228843   6.363   3.274   5.767
 9627TIP3   OH228844   1.227   0.070   3.198
 9627TIP3    H128845   1.160   0.009   3.230
 9627TIP3    H228846   1.221   0.064   3.103
 9628TIP3   OH228847   1.831   3.116   3.505
 9628TIP3    H128848   1.834   3.209   3.480
 9628TIP3    H228849   1.738   3.097   3.515
 9629TIP3   OH228850   3.055   2.131   5.387
 9629TIP3    H128851   3.013   2.206   5.428
 9629TIP3    H228852   3.003   2.114   5.309
 9630TIP3   OH228853   4.429   5.429   4.136
 9630TIP3    H128854   4.429   5.392   4.047
 9630TIP3    H228855   4.342   5.468   4.146
 9631TIP3   OH228856   3.786   6.537   2.897
 9631TIP3    H128857   3.729   6.472   2.937
 9631TIP3    H228858   3.728   6.611   2.877
 9632TIP3   OH228859   0.930   5.962   5.750
 9632TIP3    H128860   0.872   5.934   5.679
 9632TIP3    H228861   0.905   6.053   5.766
 9633TIP3   OH228862   1.218   4.543   3.014
 9633TIP3    H128863   1.207   4.449   2.999
 9633TIP3    H228864   1.217   4.553   3.109
 9634TIP3   OH228865   1.522   0.460   1.284
 9634TIP3    H128866   1.530   0.544   1.239
 9634TIP3    H228867   1.529   0.482   1.377
 9635TIP3   OH228868   4.425   2.104   3.436
 9635TIP3    H128869   4.495   2.169   3.427
 9635TIP3    H228870   4.347   2.147   3.401
 9636TIP3   OH228871   1.234   5.063   0.330
 9636TIP3    H128872   1.176   5.006   0.380
 9636TIP3    H228873   1.178   5.106   0.266
 9637TIP3   OH228874   0.982   1.095   4.741
 9637TIP3    H128875   1.020   1.017   4.782
 9637TIP3    H228876   0.979   1.160   4.810
 9638TIP3   OH228877   1.828   0.165   0.862
 9638TIP3    H128878   1.848   0.081   0.902
 9638TIP3    H228879   1.913   0.199   0.834
 9639TIP3   OH228880   0.601   5.007   2.280
 9639TIP3    H128881   0.688   5.024   2.245
 9639TIP3    H228882   0.558   5.093   2.281
 9640TIP3   OH228883   2.462   3.476   3.451
 9640TIP3    H128884   2.416   3.451   3.531
 9640TIP3    H228885   2.459   3.572   3.451
 9641TIP3   OH228886   0.558   0.320   0.203
 9641TIP3    H128887   0.481   0.334   0.148
 9641TIP3    H228888   0.627   0.369   0.160
 9642TIP3   OH228889   0.661   3.945   4.213
 9642TIP3    H128890   0.653   4.040   4.210
 9642TIP3    H228891   0.688   3.920   4.125
 9643TIP3   OH228892   2.878   6.382   5.376
 9643TIP3    H128893   2.847   6.353   5.290
 9643TIP3    H228894   2.955   6.328   5.393
 9644TIP3   OH228895   6.310   5.593   3.603
 9644TIP3    H128896   6.352   5.556   3.681
 9644TIP3    H228897   6.266   5.672   3.635
 9645TIP3   OH228898   1.280   0.545   5.695
 9645TIP3    H128899   1.335   0.617   5.665
 9645TIP3    H228900   1.298   0.473   5.634
 9646TIP3   OH228901   3.289   5.012   4.860
 9646TIP3    H128902   3.215   5.036   4.914
 9646TIP3    H228903   3.274   5.056   4.777
 9647TIP3   OH228904   5.508   1.311   3.470
 9647TIP3    H128905   5.510   1.242   3.537
 9647TIP3    H228906   5.598   1.344   3.467
 9648TIP3   OH228907   6.613   3.522   2.630
 9648TIP3    H128908   6.596   3.457   2.697
 9648TIP3    H228909   6.527   3.541   2.592
 9649TIP3   OH228910   2.372   3.164   3.929
 9649TIP3    H128911   2.357   3.210   4.011
 9649TIP3    H228912   2.380   3.233   3.863
 9650TIP3   OH228913   6.906   1.041   4.389
 9650TIP3    H128914   6.943   0.972   4.444
 9650TIP3    H228915   6.982   1.084   4.350
 9651TIP3   OH228916   2.326   2.658   4.544
 9651TIP3    H128917   2.399   2.710   4.578
 9651TIP3    H228918   2.366   2.604   4.475
 9652TIP3   OH228919   3.212   5.135   5.468
 9652TIP3    H128920   3.233   5.208   5.409
 9652TIP3    H228921   3.244   5.164   5.554
 9653TIP3   OH228922   3.954   6.266   4.081
 9653TIP3    H128923   4.016   6.195   4.068
 9653TIP3    H228924   3.992   6.341   4.034
 9654TIP3   OH228925   6.588   4.220   5.477
 9654TIP3    H128926   6.669   4.216   5.529
 9654TIP3    H228927   6.542   4.296   5.511
 9655TIP3   OH228928   2.808   6.342   4.716
 9655TIP3    H128929   2.858   6.421   4.733
 9655TIP3    H228930   2.854   6.299   4.644
 9656TIP3   OH228931   2.104   0.462   3.547
 9656TIP3    H128932   2.046   0.386   3.546
 9656TIP3    H228933   2.185   0.431   3.506
 9657TIP3   OH228934   4.889   1.536   3.178
 9657TIP3    H128935   4.982   1.548   3.159
 9657TIP3    H228936   4.866   1.454   3.133
 9658TIP3   OH228937   4.506   4.331   3.431
 9658TIP3    H128938   4.547   4.253   3.469
 9658TIP3    H228939   4.516   4.398   3.498
 9659TIP3   OH228940   4.746   6.658   4.104
 9659TIP3    H128941   4.795   6.729   4.063
 9659TIP3    H228942   4.787   6.648   4.190
 9660TIP3   OH228943   4.162   1.410   0.228
 9660TIP3    H128944   4.178   1.350   0.155
 9660TIP3    H228945   4.229   1.386   0.293
 9661TIP3   OH228946   1.941   6.276   1.954
 9661TIP3    H128947   2.007   6.298   1.888
 9661TIP3    H228948   1.945   6.181   1.962
 9662TIP3   OH228949   2.919   3.385   5.709
 9662TIP3    H128950   2.968   3.386   5.791
 9662TIP3    H228951   2.978   3.427   5.646
 9663TIP3   OH228952   3.212   3.418   0.616
 9663TIP3    H128953   3.241   3.452   0.701
 9663TIP3    H228954   3.237   3.487   0.554
 9664TIP3   OH228955   4.021   1.888   2.782
 9664TIP3    H128956   3.943   1.944   2.781
 9664TIP3    H228957   4.087   1.942   2.825
 9665TIP3   OH228958   4.791   3.123   4.628
 9665TIP3    H128959   4.781   3.216   4.651
 9665TIP3    H228960   4.806   3.123   4.534
 9666TIP3   OH228961   7.160   0.435   3.396
 9666TIP3    H128962   7.086   0.495   3.399
 9666TIP3    H228963   7.141   0.377   3.322
 9667TIP3   OH228964   5.278   6.154   4.006
 9667TIP3    H128965   5.268   6.059   4.001
 9667TIP3    H228966   5.228   6.179   4.084
 9668TIP3   OH228967   3.709   3.824   2.482
 9668TIP3    H128968   3.731   3.900   2.430
 9668TIP3    H228969   3.793   3.785   2.505
 9669TIP3   OH228970   1.839   1.844   2.326
 9669TIP3    H128971   1.921   1.796   2.317
 9669TIP3    H228972   1.772   1.776   2.332
 9670TIP3   OH228973   3.142   0.541   1.734
 9670TIP3    H128974   3.176   0.541   1.823
 9670TIP3    H228975   3.126   0.633   1.715
 9671TIP3   OH228976   0.936   4.696   1.401
 9671TIP3    H128977   0.849   4.730   1.420
 9671TIP3    H228978   0.921   4.611   1.360
 9672TIP3   OH228979   4.513   5.071   4.364
 9672TIP3    H128980   4.508   5.046   4.272
 9672TIP3    H228981   4.428   5.048   4.401
 9673TIP3   OH228982   6.001   4.146   3.106
 9673TIP3    H128983   5.982   4.225   3.156
 9673TIP3    H228984   5.961   4.161   3.021
 9674TIP3   OH228985   5.044   0.466   5.510
 9674TIP3    H128986   4.973   0.437   5.453
 9674TIP3    H228987   5.120   0.414   5.482
 9675TIP3   OH228988   5.650   3.356   4.870
 9675TIP3    H128989   5.738   3.338   4.838
 9675TIP3    H228990   5.658   3.351   4.965
 9676TIP3   OH228991   6.364   5.453   1.292
 9676TIP3    H128992   6.313   5.411   1.222
 9676TIP3    H228993   6.422   5.384   1.324
 9677TIP3   OH228994   5.996   2.830   1.925
 9677TIP3    H128995   5.923   2.882   1.959
 9677TIP3    H228996   6.045   2.803   2.003
 9678TIP3   OH228997   2.040   0.475   4.894
 9678TIP3    H128998   1.945   0.459   4.893
 9678TIP3    H228999   2.048   0.568   4.914
 9679TIP3   OH229000   2.038   4.580   0.920
 9679TIP3    H129001   2.015   4.489   0.937
 9679TIP3    H229002   2.005   4.628   0.997
 9680TIP3   OH229003   6.629   1.909   4.157
 9680TIP3    H129004   6.624   1.992   4.205
 9680TIP3    H229005   6.664   1.933   4.071
 9681TIP3   OH229006   0.315   3.910   0.173
 9681TIP3    H129007   0.277   3.901   0.086
 9681TIP3    H229008   0.273   3.842   0.225
 9682TIP3   OH229009   6.143   1.000   3.366
 9682TIP3    H129010   6.236   0.992   3.385
 9682TIP3    H229011   6.107   1.043   3.443
 9683TIP3   OH229012   1.727   2.979   2.035
 9683TIP3    H129013   1.660   3.011   2.095
 9683TIP3    H229014   1.687   2.902   1.994
 9684TIP3   OH229015   2.255   3.096   5.503
 9684TIP3    H129016   2.175   3.087   5.450
 9684TIP3    H229017   2.289   3.007   5.510
 9685TIP3   OH229018   0.487   4.308   0.875
 9685TIP3    H129019   0.513   4.297   0.783
 9685TIP3    H229020   0.420   4.241   0.889
 9686TIP3   OH229021   5.518   2.435   1.223
 9686TIP3    H129022   5.611   2.409   1.228
 9686TIP3    H229023   5.520   2.524   1.189
 9687TIP3   OH229024   5.061   1.531   5.647
 9687TIP3    H129025   5.109   1.602   5.604
 9687TIP3    H229026   4.990   1.575   5.695
 9688TIP3   OH229027   3.211   5.370   5.318
 9688TIP3    H129028   3.129   5.329   5.345
 9688TIP3    H229029   3.187   5.424   5.243
 9689TIP3   OH229030   5.243   1.369   2.608
 9689TIP3    H129031   5.320   1.335   2.561
 9689TIP3    H229032   5.181   1.391   2.538
 9690TIP3   OH229033   7.111   5.339   1.135
 9690TIP3    H129034   7.116   5.326   1.230
 9690TIP3    H229035   7.053   5.269   1.105
 9691TIP3   OH229036   4.917   6.350   4.567
 9691TIP3    H129037   4.842   6.409   4.566
 9691TIP3    H229038   4.896   6.284   4.501
 9692TIP3   OH229039   0.587   6.357   2.859
 9692TIP3    H129040   0.666   6.406   2.884
 9692TIP3    H229041   0.619   6.271   2.832
 9693TIP3   OH229042   3.013   4.341   0.565
 9693TIP3    H129043   2.985   4.272   0.625
 9693TIP3    H229044   2.942   4.348   0.501
 9694TIP3   OH229045   2.970   3.243   4.188
 9694TIP3    H129046   3.038   3.202   4.242
 9694TIP3    H229047   2.982   3.337   4.202
 9695TIP3   OH229048   1.084   0.217   5.691
 9695TIP3    H129049   1.042   0.229   5.606
 9695TIP3    H229050   1.163   0.166   5.673
 9696TIP3   OH229051   0.484   3.183   5.926
 9696TIP3    H129052   0.465   3.098   5.886
 9696TIP3    H229053   0.556   3.167   5.986
 9697TIP3   OH229054   4.995   0.263   2.214
 9697TIP3    H129055   4.984   0.230   2.124
 9697TIP3    H229056   5.074   0.218   2.246
 9698TIP3   OH229057   5.585   0.999   4.514
 9698TIP3    H129058   5.654   1.047   4.560
 9698TIP3    H229059   5.507   1.010   4.569
 9699TIP3   OH229060   1.356   4.269   4.239
 9699TIP3    H129061   1.396   4.182   4.244
 9699TIP3    H229062   1.354   4.290   4.146
 9700TIP3   OH229063   6.947   4.758   5.094
 9700TIP3    H129064   6.879   4.699   5.127
 9700TIP3    H229065   6.955   4.825   5.162
 9701TIP3   OH229066   1.224   1.332   4.593
 9701TIP3    H129067   1.253   1.241   4.599
 9701TIP3    H229068   1.279   1.379   4.656
 9702TIP3   OH229069   0.174   6.324   3.816
 9702TIP3    H129070   0.156   6.280   3.733
 9702TIP3    H229071   0.199   6.254   3.875
 9703TIP3   OH229072   3.250   0.138   4.937
 9703TIP3    H129073   3.280   0.119   4.848
 9703TIP3    H229074   3.318   0.101   4.993
 9704TIP3   OH229075   3.339   2.849   2.792
 9704TIP3    H129076   3.362   2.784   2.725
 9704TIP3    H229077   3.417   2.854   2.847
 9705TIP3   OH229078   1.657   3.130   2.266
 9705TIP3    H129079   1.740   3.167   2.238
 9705TIP3    H229080   1.680   3.072   2.339
 9706TIP3   OH229081   5.584   5.864   4.812
 9706TIP3    H129082   5.596   5.799   4.744
 9706TIP3    H229083   5.668   5.866   4.859
 9707TIP3   OH229084   2.170   4.264   2.356
 9707TIP3    H129085   2.175   4.208   2.278
 9707TIP3    H229086   2.134   4.347   2.325
 9708TIP3   OH229087   5.896   5.575   2.685
 9708TIP3    H129088   5.884   5.619   2.769
 9708TIP3    H229089   5.980   5.609   2.653
 9709TIP3   OH229090   0.305   4.306   0.114
 9709TIP3    H129091   0.373   4.250   0.153
 9709TIP3    H229092   0.276   4.362   0.187
 9710TIP3   OH229093   6.926   1.950   2.626
 9710TIP3    H129094   6.855   1.923   2.569
 9710TIP3    H229095   6.948   2.039   2.597
 9711TIP3   OH229096   0.403   3.541   0.153
 9711TIP3    H129097   0.473   3.482   0.124
 9711TIP3    H229098   0.330   3.483   0.172
 9712TIP3   OH229099   5.537   3.012   5.506
 9712TIP3    H129100   5.520   3.073   5.577
 9712TIP3    H229101   5.452   2.973   5.487
 9713TIP3   OH229102   3.683   3.092   2.718
 9713TIP3    H129103   3.754   3.155   2.708
 9713TIP3    H229104   3.703   3.022   2.655
 9714TIP3   OH229105   0.006   6.603   0.653
 9714TIP3    H129106   0.095   6.593   0.688
 9714TIP3    H229107  -0.026   6.513   0.644
 9715TIP3   OH229108   3.886   6.359   1.157
 9715TIP3    H129109   3.820   6.428   1.154
 9715TIP3    H229110   3.884   6.328   1.247
 9716TIP3   OH229111   3.453   3.472   5.274
 9716TIP3    H129112   3.503   3.390   5.273
 9716TIP3    H229113   3.483   3.517   5.353
 9717TIP3   OH229114   1.092   1.661   2.809
 9717TIP3    H129115   1.090   1.644   2.715
 9717TIP3    H229116   1.007   1.701   2.828
 9718TIP3   OH229117   4.666   1.420   0.011
 9718TIP3    H129118   4.735   1.361  -0.018
 9718TIP3    H229119   4.712   1.493   0.052
 9719TIP3   OH229120   4.056   2.160   0.098
 9719TIP3    H129121   4.008   2.138   0.177
 9719TIP3    H229122   4.046   2.255   0.090
 9720TIP3   OH229123   3.682   1.946   2.646
 9720TIP3    H129124   3.682   1.976   2.556
 9720TIP3    H229125   3.742   2.005   2.691
 9721TIP3   OH229126   7.176   4.607   4.970
 9721TIP3    H129127   7.216   4.674   4.916
 9721TIP3    H229128   7.107   4.653   5.019
 9722TIP3   OH229129   6.495   3.638   2.072
 9722TIP3    H129130   6.455   3.615   1.988
 9722TIP3    H229131   6.457   3.577   2.134
 9723TIP3   OH229132   2.078   4.418   4.070
 9723TIP3    H129133   2.110   4.328   4.067
 9723TIP3    H229134   2.065   4.436   4.163
 9724TIP3   OH229135   6.587   0.023   1.517
 9724TIP3    H129136   6.596   0.034   1.422
 9724TIP3    H229137   6.526   0.092   1.543
 9725TIP3   OH229138   3.562   1.651   2.530
 9725TIP3    H129139   3.495   1.631   2.464
 9725TIP3    H229140   3.553   1.745   2.546
 9726TIP3   OH229141   3.118   0.692   3.718
 9726TIP3    H129142   3.132   0.715   3.626
 9726TIP3    H229143   3.200   0.716   3.761
 9727TIP3   OH229144   3.740   1.583   5.095
 9727TIP3    H129145   3.793   1.655   5.130
 9727TIP3    H229146   3.651   1.618   5.093
 9728TIP3   OH229147   1.626   0.682   3.284
 9728TIP3    H129148   1.563   0.629   3.333
 9728TIP3    H229149   1.617   0.770   3.321
 9729TIP3   OH229150   3.074   5.277   4.051
 9729TIP3    H129151   3.112   5.252   4.135
 9729TIP3    H229152   3.134   5.240   3.986
 9730TIP3   OH229153   2.934   0.283   3.911
 9730TIP3    H129154   2.877   0.263   3.986
 9730TIP3    H229155   3.020   0.252   3.937
 9731TIP3   OH229156   3.486   5.989   5.519
 9731TIP3    H129157   3.568   5.943   5.503
 9731TIP3    H229158   3.512   6.069   5.565
 9732TIP3   OH229159   0.678   3.154   4.672
 9732TIP3    H129160   0.705   3.224   4.613
 9732TIP3    H229161   0.709   3.181   4.758
 9733TIP3   OH229162   4.655   3.061   2.851
 9733TIP3    H129163   4.572   3.013   2.857
 9733TIP3    H229164   4.677   3.059   2.757
 9734TIP3   OH229165   6.740   1.864   2.073
 9734TIP3    H129166   6.671   1.812   2.114
 9734TIP3    H229167   6.700   1.902   1.995
 9735TIP3   OH229168   2.249   2.519   3.296
 9735TIP3    H129169   2.240   2.599   3.244
 9735TIP3    H229170   2.326   2.535   3.351
 9736TIP3   OH229171   0.158   6.212   5.126
 9736TIP3    H129172   0.089   6.146   5.130
 9736TIP3    H229173   0.238   6.163   5.143
 9737TIP3   OH229174   3.113   5.165   5.023
 9737TIP3    H129175   3.036   5.213   4.993
 9737TIP3    H229176   3.079   5.102   5.087
 9738TIP3   OH229177   1.080   5.224   2.006
 9738TIP3    H129178   1.147   5.280   2.044
 9738TIP3    H229179   1.015   5.286   1.970
 9739TIP3   OH229180   1.688   1.018   4.254
 9739TIP3    H129181   1.736   0.937   4.238
 9739TIP3    H229182   1.673   1.055   4.167
 9740TIP3   OH229183   1.830   6.259   3.656
 9740TIP3    H129184   1.769   6.195   3.621
 9740TIP3    H229185   1.793   6.285   3.740
 9741TIP3   OH229186   0.818   2.384   4.076
 9741TIP3    H129187   0.892   2.440   4.052
 9741TIP3    H229188   0.773   2.432   4.145
 9742TIP3   OH229189   4.623   2.995   0.665
 9742TIP3    H129190   4.676   2.951   0.732
 9742TIP3    H229191   4.563   3.051   0.714
 9743TIP3   OH229192   4.310   6.318   2.710
 9743TIP3    H129193   4.287   6.269   2.631
 9743TIP3    H229194   4.230   6.366   2.733
 9744TIP3   OH229195   2.871   6.665   4.483
 9744TIP3    H129196   2.782   6.654   4.515
 9744TIP3    H229197   2.901   6.576   4.464
 9745TIP3   OH229198   5.473   2.638   2.055
 9745TIP3    H129199   5.461   2.569   2.120
 9745TIP3    H229200   5.567   2.654   2.053
 9746TIP3   OH229201   3.951   2.792   1.002
 9746TIP3    H129202   4.021   2.834   1.053
 9746TIP3    H229203   3.884   2.770   1.067
 9747TIP3   OH229204   6.285   3.588   5.759
 9747TIP3    H129205   6.285   3.495   5.782
 9747TIP3    H229206   6.339   3.593   5.680
 9748TIP3   OH229207   7.090   5.218   5.233
 9748TIP3    H129208   7.015   5.231   5.291
 9748TIP3    H229209   7.107   5.123   5.237
 9749TIP3   OH229210   4.613   4.179   0.649
 9749TIP3    H129211   4.679   4.179   0.718
 9749TIP3    H229212   4.660   4.205   0.570
   7.22028   6.80735   5.89533   0.00000   0.00000  -2.40676   0.00000  -2.40676  -3.40367
